{
	 "smiles": "CC1=C(NC(=O)CCCl)C=CC(=C1)[N+]([O-])=O", 
	 "Tm": 421.15, 
	 "num_atms": 27, 
	 "gaussian": { 
		 "optdone": 1, 
		 "sigma_profile": "yes", 
		 "theory": "DFT", 
		 "functional": "B3LYP", 
		 "basiset": "6-31G**", 
		 "properties": { 
			 "R2extent": 6047.1541, 
			 "electric_dipole_moment_norm": 7.14035166081, 
			 "electric_quadrupole_moment_norm": 25.0395429569, 
			 "total_energy": -1182.98573286, 
			 "HOMO_LUMO_gap": 0.16898, 
			 "cosmo_polarized_energy": -21.56, 
			 "cosmo_cavitation_energy": 33.65, 
			 "cosmo_dispersion_energy": -23.6, 
			 "cosmo_repulsion_energy": 1.84, 
			 "cosmo_total_nonelectrostatic_energy": 11.89, 
			 "SMD_solvation_energy": 8.15 
		},
		"coords": [
			{
				"x": -1.92968127,
				"y": 0.029708498,
				"z": 0.6396549217,
				"element": "C" 
			},
			{
				"x": -1.0027603363,
				"y": 0.7920970564,
				"z": -0.2695308239,
				"element": "C" 
			},
			{
				"x": 0.3311638224,
				"y": 1.0981937474,
				"z": 0.0819990384,
				"element": "C" 
			},
			{
				"x": 0.8802222744,
				"y": 0.7127481386,
				"z": 1.3332804998,
				"element": "N" 
			},
			{
				"x": 0.3813490826,
				"y": 1.0770191885,
				"z": 2.5749256852,
				"element": "C" 
			},
			{
				"x": -0.6423338822,
				"y": 1.7184426911,
				"z": 2.7227806333,
				"element": "O" 
			},
			{
				"x": 1.2348926633,
				"y": 0.6143652251,
				"z": 3.7585542872,
				"element": "C" 
			},
			{
				"x": 1.4794730256,
				"y": -0.8901776799,
				"z": 3.8468085249,
				"element": "C" 
			},
			{
				"x": -0.0628180294,
				"y": -1.8257977392,
				"z": 4.0311703894,
				"element": "Cl" 
			},
			{
				"x": 1.1849868147,
				"y": 1.7395026072,
				"z": -0.8290185161,
				"element": "C" 
			},
			{
				"x": 0.7408839896,
				"y": 2.1116245111,
				"z": -2.0897130806,
				"element": "C" 
			},
			{
				"x": -0.5838986349,
				"y": 1.8376431085,
				"z": -2.4195161721,
				"element": "C" 
			},
			{
				"x": -1.4423415727,
				"y": 1.1909615161,
				"z": -1.5356408067,
				"element": "C" 
			},
			{
				"x": -1.0832029487,
				"y": 2.2263045092,
				"z": -3.7451939972,
				"element": "N" 
			},
			{
				"x": -0.2936725037,
				"y": 2.7796410866,
				"z": -4.5116120576,
				"element": "O" 
			},
			{
				"x": -2.2584920854,
				"y": 1.9762255934,
				"z": -4.0119850462,
				"element": "O" 
			},
			{
				"x": -2.3067526713,
				"y": 0.673647347,
				"z": 1.4389110485,
				"element": "H" 
			},
			{
				"x": -1.4103169759,
				"y": -0.8029191396,
				"z": 1.1246966635,
				"element": "H" 
			},
			{
				"x": -2.7748994647,
				"y": -0.3706501475,
				"z": 0.0747655674,
				"element": "H" 
			},
			{
				"x": 1.8471247708,
				"y": 0.4179176724,
				"z": 1.3063619889,
				"element": "H" 
			},
			{
				"x": 2.217598713,
				"y": 1.1058672161,
				"z": 3.7076562875,
				"element": "H" 
			},
			{
				"x": 0.7324054711,
				"y": 0.9724624369,
				"z": 4.6584586574,
				"element": "H" 
			},
			{
				"x": 1.9709779626,
				"y": -1.287948567,
				"z": 2.9570385125,
				"element": "H" 
			},
			{
				"x": 2.0898120051,
				"y": -1.1288295751,
				"z": 4.7187794643,
				"element": "H" 
			},
			{
				"x": 2.2059308599,
				"y": 1.9617126436,
				"z": -0.5310478203,
				"element": "H" 
			},
			{
				"x": 1.3842340384,
				"y": 2.6111454166,
				"z": -2.8023301161,
				"element": "H" 
			},
			{
				"x": -2.4555851185,
				"y": 0.9788926386,
				"z": -1.8548537332,
				"element": "H" 
			}
		],
		 "valence_orbital": [ 
			{
				"type": "occ",
				"energy": -0.30388,
				"method": "rhf"
			},
			{
				"type": "occ",
				"energy": -0.2874,
				"method": "rhf"
			},
			{
				"type": "occ",
				"energy": -0.27557,
				"method": "rhf"
			},
			{
				"type": "occ",
				"energy": -0.27088,
				"method": "rhf"
			},
			{
				"type": "occ",
				"energy": -0.25586,
				"method": "rhf"
			},
			{
				"type": "unocc",
				"energy": -0.08688,
				"method": "rhf"
			},
			{
				"type": "unocc",
				"energy": -0.02777,
				"method": "rhf"
			},
			{
				"type": "unocc",
				"energy": -0.01463,
				"method": "rhf"
			},
			{
				"type": "unocc",
				"energy": 0.00779,
				"method": "rhf"
			},
			{
				"type": "unocc",
				"energy": 0.01473,
				"method": "rhf"
			}
		],
		"cosmo_sigma_profile": { 
			"-0.025": 0.0,
			"-0.024": 0.0,
			"-0.023": 0.0,
			"-0.022": 0.0,
			"-0.021": 0.0,
			"-0.02": 0.0,
			"-0.019": 0.0,
			"-0.018": 0.0,
			"-0.017": 0.00404375658147,
			"-0.016": 0.997517300847,
			"-0.015": 1.84034578036,
			"-0.014": 1.6804317714,
			"-0.013": 1.48721837912,
			"-0.012": 1.86884164013,
			"-0.011": 2.03327343104,
			"-0.01": 2.00019689381,
			"-0.009": 3.07794606882,
			"-0.008": 7.40383481588,
			"-0.007": 12.2066863833,
			"-0.006": 14.3310024249,
			"-0.005": 14.6367808491,
			"-0.004": 11.848498609,
			"-0.003": 14.1563374679,
			"-0.002": 14.0245139723,
			"-0.001": 18.8202706768,
			"0.0": 25.0332837541,
			"0.001": 22.5259884159,
			"0.002": 16.4437703974,
			"0.003": 9.64526690026,
			"0.004": 8.79721024555,
			"0.005": 11.5952631351,
			"0.006": 13.0178320276,
			"0.007": 9.64278863773,
			"0.008": 10.7007740868,
			"0.009": 5.91973711296,
			"0.01": 5.30155875305,
			"0.011": 2.4681672455,
			"0.012": 3.27806423176,
			"0.013": 2.27057110268,
			"0.014": 0.431002580325,
			"0.015": 0.0,
			"0.016": 0.0,
			"0.017": 0.0,
			"0.018": 0.0,
			"0.019": 0.0,
			"0.02": 0.0,
			"0.021": 0.0,
			"0.022": 0.0,
			"0.023": 0.0,
			"0.024": 0.0,
			"0.025": 0.0
		}
	}
}
