{
	 "smiles": "NC(=O)C1=C(OC2=CC(N)=CC=C2)C=CC=C1", 
	 "Tm": 403.15, 
	 "num_atms": 29, 
	 "gaussian": { 
		 "optdone": 1, 
		 "sigma_profile": "yes", 
		 "theory": "DFT", 
		 "functional": "B3LYP", 
		 "basiset": "6-31G**", 
		 "properties": { 
			 "R2extent": 4638.956, 
			 "electric_dipole_moment_norm": 5.36764338793, 
			 "electric_quadrupole_moment_norm": 19.3609068478, 
			 "total_energy": -762.571043251, 
			 "HOMO_LUMO_gap": 0.16354, 
			 "cosmo_polarized_energy": -22.52, 
			 "cosmo_cavitation_energy": 33.56, 
			 "cosmo_dispersion_energy": -23.25, 
			 "cosmo_repulsion_energy": 1.84, 
			 "cosmo_total_nonelectrostatic_energy": 12.15, 
			 "SMD_solvation_energy": 6.48 
		},
		"coords": [
			{
				"x": 1.6443986604,
				"y": -3.1742840736,
				"z": -2.2689960822,
				"element": "N" 
			},
			{
				"x": 1.7462664114,
				"y": -2.4481929536,
				"z": -1.1024135288,
				"element": "C" 
			},
			{
				"x": 1.6628577967,
				"y": -2.9717504393,
				"z": -0.0027783224,
				"element": "O" 
			},
			{
				"x": 2.0471331062,
				"y": -0.9851226638,
				"z": -1.2995547724,
				"element": "C" 
			},
			{
				"x": 1.4960688981,
				"y": 0.0031684065,
				"z": -0.4592492044,
				"element": "C" 
			},
			{
				"x": 0.6221309727,
				"y": -0.293447127,
				"z": 0.5597638267,
				"element": "O" 
			},
			{
				"x": -0.6190511404,
				"y": -0.8389901334,
				"z": 0.2865226361,
				"element": "C" 
			},
			{
				"x": -1.2805315584,
				"y": -0.6116936073,
				"z": -0.9200141029,
				"element": "C" 
			},
			{
				"x": -2.5701639097,
				"y": -1.1357424378,
				"z": -1.1164154586,
				"element": "C" 
			},
			{
				"x": -3.2678869096,
				"y": -0.8557296245,
				"z": -2.2953580266,
				"element": "N" 
			},
			{
				"x": -3.1699211131,
				"y": -1.8822804293,
				"z": -0.0893810972,
				"element": "C" 
			},
			{
				"x": -2.4866367946,
				"y": -2.0910943561,
				"z": 1.1079975925,
				"element": "C" 
			},
			{
				"x": -1.2078627893,
				"y": -1.5789311364,
				"z": 1.3130662532,
				"element": "C" 
			},
			{
				"x": 1.8692169106,
				"y": 1.3406959418,
				"z": -0.6021235098,
				"element": "C" 
			},
			{
				"x": 2.7976543849,
				"y": 1.7142312257,
				"z": -1.5732768987,
				"element": "C" 
			},
			{
				"x": 3.3473267352,
				"y": 0.7508377871,
				"z": -2.419425512,
				"element": "C" 
			},
			{
				"x": 2.9687579472,
				"y": -0.5839383426,
				"z": -2.2785146493,
				"element": "C" 
			},
			{
				"x": 1.3470797798,
				"y": -4.1334860974,
				"z": -2.1584989453,
				"element": "H" 
			},
			{
				"x": 1.4018088844,
				"y": -2.7117426643,
				"z": -3.1314700506,
				"element": "H" 
			},
			{
				"x": -0.8144743027,
				"y": -0.0093964674,
				"z": -1.6936460616,
				"element": "H" 
			},
			{
				"x": -4.0057470292,
				"y": -1.5092929804,
				"z": -2.5186370545,
				"element": "H" 
			},
			{
				"x": -2.6907827878,
				"y": -0.6513553199,
				"z": -3.0993913792,
				"element": "H" 
			},
			{
				"x": -4.167956579,
				"y": -2.2883967238,
				"z": -0.2309922256,
				"element": "H" 
			},
			{
				"x": -2.9580927526,
				"y": -2.6755120057,
				"z": 1.8931425904,
				"element": "H" 
			},
			{
				"x": -0.6545103828,
				"y": -1.7506408758,
				"z": 2.2282273493,
				"element": "H" 
			},
			{
				"x": 1.4198598303,
				"y": 2.0706992547,
				"z": 0.062868344,
				"element": "H" 
			},
			{
				"x": 3.085411583,
				"y": 2.7570868769,
				"z": -1.6690060315,
				"element": "H" 
			},
			{
				"x": 4.0747444103,
				"y": 1.0321556764,
				"z": -3.1746041998,
				"element": "H" 
			},
			{
				"x": 3.4213017381,
				"y": -1.3427547096,
				"z": -2.909941479,
				"element": "H" 
			}
		],
		 "valence_orbital": [ 
			{
				"type": "occ",
				"energy": -0.26414,
				"method": "rhf"
			},
			{
				"type": "occ",
				"energy": -0.25008,
				"method": "rhf"
			},
			{
				"type": "occ",
				"energy": -0.24313,
				"method": "rhf"
			},
			{
				"type": "occ",
				"energy": -0.22148,
				"method": "rhf"
			},
			{
				"type": "occ",
				"energy": -0.19599,
				"method": "rhf"
			},
			{
				"type": "unocc",
				"energy": -0.03245,
				"method": "rhf"
			},
			{
				"type": "unocc",
				"energy": -0.00942,
				"method": "rhf"
			},
			{
				"type": "unocc",
				"energy": 0.0133,
				"method": "rhf"
			},
			{
				"type": "unocc",
				"energy": 0.02759,
				"method": "rhf"
			},
			{
				"type": "unocc",
				"energy": 0.04882,
				"method": "rhf"
			}
		],
		"cosmo_sigma_profile": { 
			"-0.025": 0.0,
			"-0.024": 0.0,
			"-0.023": 0.0,
			"-0.022": 0.0,
			"-0.021": 0.0,
			"-0.02": 0.0,
			"-0.019": 0.0,
			"-0.018": 0.0,
			"-0.017": 0.0,
			"-0.016": 0.0,
			"-0.015": 0.00970080966261,
			"-0.014": 1.40951106515,
			"-0.013": 2.74790967189,
			"-0.012": 4.31106820189,
			"-0.011": 5.55969038514,
			"-0.01": 4.41282683812,
			"-0.009": 6.07249704918,
			"-0.008": 4.64434968232,
			"-0.007": 7.23427058912,
			"-0.006": 14.8795199081,
			"-0.005": 16.7780019354,
			"-0.004": 16.7181074338,
			"-0.003": 14.7339481191,
			"-0.002": 15.9502636312,
			"-0.001": 11.8746281388,
			"0.0": 14.0216538286,
			"0.001": 13.8255275963,
			"0.002": 14.5940904918,
			"0.003": 18.7821596602,
			"0.004": 17.2731740173,
			"0.005": 11.954948428,
			"0.006": 13.0714234097,
			"0.007": 7.6010612926,
			"0.008": 3.81568244449,
			"0.009": 4.06521159637,
			"0.01": 3.00873095617,
			"0.011": 3.89947197469,
			"0.012": 3.71711509347,
			"0.013": 5.12921121033,
			"0.014": 4.05894419439,
			"0.015": 0.936110374884,
			"0.016": 0.0,
			"0.017": 0.0,
			"0.018": 0.0,
			"0.019": 0.0,
			"0.02": 0.0,
			"0.021": 0.0,
			"0.022": 0.0,
			"0.023": 0.0,
			"0.024": 0.0,
			"0.025": 0.0
		}
	}
}
