{
	 "smiles": "CN(CCCl)CCCl", 
	 "Tm": 213.15, 
	 "num_atms": 19, 
	 "gaussian": { 
		 "optdone": 1, 
		 "sigma_profile": "yes", 
		 "theory": "DFT", 
		 "functional": "B3LYP", 
		 "basiset": "6-31G**", 
		 "properties": { 
			 "R2extent": 2517.0256, 
			 "electric_dipole_moment_norm": 3.27961170415, 
			 "electric_quadrupole_moment_norm": 10.6321445419, 
			 "total_energy": -1172.29300556, 
			 "HOMO_LUMO_gap": 0.24036, 
			 "cosmo_polarized_energy": -9.64, 
			 "cosmo_cavitation_energy": 24.77, 
			 "cosmo_dispersion_energy": -17.9, 
			 "cosmo_repulsion_energy": 1.52, 
			 "cosmo_total_nonelectrostatic_energy": 8.39, 
			 "SMD_solvation_energy": 2.19 
		},
		"coords": [
			{
				"x": 0.5866194015,
				"y": 2.1008201255,
				"z": 1.5661613531,
				"element": "C" 
			},
			{
				"x": -0.1365695223,
				"y": 1.1644701889,
				"z": 0.718366599,
				"element": "N" 
			},
			{
				"x": -0.3085971663,
				"y": 1.5862209957,
				"z": -0.6647760897,
				"element": "C" 
			},
			{
				"x": 0.9853155514,
				"y": 1.6338061575,
				"z": -1.4936364398,
				"element": "C" 
			},
			{
				"x": 0.6388408243,
				"y": 2.1775335323,
				"z": -3.1925102768,
				"element": "Cl" 
			},
			{
				"x": 0.2311529435,
				"y": -0.2290856037,
				"z": 0.9077218286,
				"element": "C" 
			},
			{
				"x": -0.328311227,
				"y": -0.8479680948,
				"z": 2.187079578,
				"element": "C" 
			},
			{
				"x": -2.1387026885,
				"y": -0.9432437018,
				"z": 2.1794371274,
				"element": "Cl" 
			},
			{
				"x": 0.2124506416,
				"y": 3.1138036809,
				"z": 1.3913670188,
				"element": "H" 
			},
			{
				"x": 1.6809019804,
				"y": 2.1058196171,
				"z": 1.4075843311,
				"element": "H" 
			},
			{
				"x": 0.4103755294,
				"y": 1.8705862354,
				"z": 2.6216477507,
				"element": "H" 
			},
			{
				"x": -0.7664135413,
				"y": 2.5814350447,
				"z": -0.6699163439,
				"element": "H" 
			},
			{
				"x": -1.0171151715,
				"y": 0.9082203493,
				"z": -1.1518847658,
				"element": "H" 
			},
			{
				"x": 1.7088055009,
				"y": 2.3416507681,
				"z": -1.0863664047,
				"element": "H" 
			},
			{
				"x": 1.4553318501,
				"y": 0.6519356864,
				"z": -1.5746189566,
				"element": "H" 
			},
			{
				"x": 1.3290276459,
				"y": -0.381555033,
				"z": 0.9459364978,
				"element": "H" 
			},
			{
				"x": -0.1393643019,
				"y": -0.8083935928,
				"z": 0.0562833814,
				"element": "H" 
			},
			{
				"x": -0.0538848991,
				"y": -0.2782846198,
				"z": 3.0760032655,
				"element": "H" 
			},
			{
				"x": 0.0383366488,
				"y": -1.8699717359,
				"z": 2.3000205456,
				"element": "H" 
			}
		],
		 "valence_orbital": [ 
			{
				"type": "occ",
				"energy": -0.30256,
				"method": "rhf"
			},
			{
				"type": "occ",
				"energy": -0.29673,
				"method": "rhf"
			},
			{
				"type": "occ",
				"energy": -0.29494,
				"method": "rhf"
			},
			{
				"type": "occ",
				"energy": -0.29227,
				"method": "rhf"
			},
			{
				"type": "occ",
				"energy": -0.22247,
				"method": "rhf"
			},
			{
				"type": "unocc",
				"energy": 0.01789,
				"method": "rhf"
			},
			{
				"type": "unocc",
				"energy": 0.02744,
				"method": "rhf"
			},
			{
				"type": "unocc",
				"energy": 0.07561,
				"method": "rhf"
			},
			{
				"type": "unocc",
				"energy": 0.09697,
				"method": "rhf"
			},
			{
				"type": "unocc",
				"energy": 0.10267,
				"method": "rhf"
			}
		],
		"cosmo_sigma_profile": { 
			"-0.025": 0.0,
			"-0.024": 0.0,
			"-0.023": 0.0,
			"-0.022": 0.0,
			"-0.021": 0.0,
			"-0.02": 0.0,
			"-0.019": 0.0,
			"-0.018": 0.0,
			"-0.017": 0.0,
			"-0.016": 0.0,
			"-0.015": 0.0,
			"-0.014": 0.0,
			"-0.013": 0.0,
			"-0.012": 0.0,
			"-0.011": 0.0,
			"-0.01": 0.0,
			"-0.009": 0.0,
			"-0.008": 0.0988122706149,
			"-0.007": 4.64465744449,
			"-0.006": 12.4619457641,
			"-0.005": 20.6628495581,
			"-0.004": 25.8741956549,
			"-0.003": 18.0838708406,
			"-0.002": 12.8886890881,
			"-0.001": 12.8174468216,
			"0.0": 10.1359262577,
			"0.001": 7.30976632802,
			"0.002": 8.05590945764,
			"0.003": 7.7299103049,
			"0.004": 7.77803175865,
			"0.005": 10.8178632342,
			"0.006": 14.9654305783,
			"0.007": 15.9033092104,
			"0.008": 2.38416795235,
			"0.009": 0.98600489962,
			"0.01": 1.62847282781,
			"0.011": 0.700753677997,
			"0.012": 0.531776439107,
			"0.013": 0.855019705478,
			"0.014": 0.281677075272,
			"0.015": 0.0,
			"0.016": 0.0,
			"0.017": 0.0,
			"0.018": 0.0,
			"0.019": 0.0,
			"0.02": 0.0,
			"0.021": 0.0,
			"0.022": 0.0,
			"0.023": 0.0,
			"0.024": 0.0,
			"0.025": 0.0
		}
	}
}
