{
	 "smiles": "CCCCNC1=C(OC2=CC=CC=C2)C(=CC(=C1)C(O)=O)S(N)(=O)=O", 
	 "Tm": 504.15, 
	 "num_atms": 45, 
	 "gaussian": { 
		 "optdone": 1, 
		 "sigma_profile": "yes", 
		 "theory": "DFT", 
		 "functional": "B3LYP", 
		 "basiset": "6-31G**", 
		 "properties": { 
			 "R2extent": 10647.5488, 
			 "electric_dipole_moment_norm": 7.51860497566, 
			 "electric_quadrupole_moment_norm": 18.2698622168, 
			 "total_energy": -1543.61301131, 
			 "HOMO_LUMO_gap": 0.16133, 
			 "cosmo_polarized_energy": -26.52, 
			 "cosmo_cavitation_energy": 49.89, 
			 "cosmo_dispersion_energy": -32.92, 
			 "cosmo_repulsion_energy": 2.52, 
			 "cosmo_total_nonelectrostatic_energy": 19.49, 
			 "SMD_solvation_energy": 8.76 
		},
		"coords": [
			{
				"x": 1.1841903323,
				"y": 4.6138887198,
				"z": -1.7870609488,
				"element": "C" 
			},
			{
				"x": 0.9051208426,
				"y": 3.6398644107,
				"z": -0.6382426608,
				"element": "C" 
			},
			{
				"x": -0.5668315511,
				"y": 3.2186233143,
				"z": -0.5551989059,
				"element": "C" 
			},
			{
				"x": -0.8625335928,
				"y": 2.2264053867,
				"z": 0.5814100599,
				"element": "C" 
			},
			{
				"x": -0.1897620062,
				"y": 0.9403580925,
				"z": 0.438099453,
				"element": "N" 
			},
			{
				"x": -0.6856567037,
				"y": -0.1205609483,
				"z": -0.275250924,
				"element": "C" 
			},
			{
				"x": -0.0061705664,
				"y": -1.3672916441,
				"z": -0.2276550136,
				"element": "C" 
			},
			{
				"x": 1.1128906945,
				"y": -1.5002933983,
				"z": 0.5699900739,
				"element": "O" 
			},
			{
				"x": 2.3221344674,
				"y": -0.923937474,
				"z": 0.1872007669,
				"element": "C" 
			},
			{
				"x": 3.3091876294,
				"y": -0.901251261,
				"z": 1.1754142537,
				"element": "C" 
			},
			{
				"x": 4.5597200547,
				"y": -0.3601370004,
				"z": 0.8785177343,
				"element": "C" 
			},
			{
				"x": 4.8230865415,
				"y": 0.1573766751,
				"z": -0.3920281926,
				"element": "C" 
			},
			{
				"x": 3.8258088123,
				"y": 0.1232292586,
				"z": -1.3683815249,
				"element": "C" 
			},
			{
				"x": 2.5697303559,
				"y": -0.4203282694,
				"z": -1.0902322305,
				"element": "C" 
			},
			{
				"x": -0.5240714722,
				"y": -2.4805872101,
				"z": -0.8855191227,
				"element": "C" 
			},
			{
				"x": -1.6892728292,
				"y": -2.3973682829,
				"z": -1.6478960478,
				"element": "C" 
			},
			{
				"x": -2.3346300619,
				"y": -1.1612227922,
				"z": -1.751966508,
				"element": "C" 
			},
			{
				"x": -1.8469451377,
				"y": -0.0470155875,
				"z": -1.0640585887,
				"element": "C" 
			},
			{
				"x": -3.5849803242,
				"y": -0.9614369414,
				"z": -2.5609296211,
				"element": "C" 
			},
			{
				"x": -3.8863200988,
				"y": -1.9179489947,
				"z": -3.4742738704,
				"element": "O" 
			},
			{
				"x": -4.3066275413,
				"y": 0.0003177945,
				"z": -2.4321529688,
				"element": "O" 
			},
			{
				"x": 0.2173542022,
				"y": -4.107834421,
				"z": -0.6874584155,
				"element": "S" 
			},
			{
				"x": 1.8102000391,
				"y": -3.8663080607,
				"z": -1.1917935464,
				"element": "N" 
			},
			{
				"x": 0.1996174341,
				"y": -4.4593444156,
				"z": 0.7323696793,
				"element": "O" 
			},
			{
				"x": -0.3972997239,
				"y": -4.9776331379,
				"z": -1.6964170148,
				"element": "O" 
			},
			{
				"x": 0.9297881832,
				"y": 4.167651455,
				"z": -2.7551833181,
				"element": "H" 
			},
			{
				"x": 0.5951487237,
				"y": 5.5322411782,
				"z": -1.6832962759,
				"element": "H" 
			},
			{
				"x": 2.2406938591,
				"y": 4.8989391926,
				"z": -1.8199862926,
				"element": "H" 
			},
			{
				"x": 1.528940473,
				"y": 2.7449905607,
				"z": -0.7530912598,
				"element": "H" 
			},
			{
				"x": 1.2016819565,
				"y": 4.1021318547,
				"z": 0.3140272352,
				"element": "H" 
			},
			{
				"x": -1.199585151,
				"y": 4.1035628188,
				"z": -0.4030650642,
				"element": "H" 
			},
			{
				"x": -0.878240122,
				"y": 2.7796404467,
				"z": -1.5118291965,
				"element": "H" 
			},
			{
				"x": -1.9450414312,
				"y": 2.0693189434,
				"z": 0.6734064201,
				"element": "H" 
			},
			{
				"x": -0.5305745144,
				"y": 2.6551582863,
				"z": 1.5331921945,
				"element": "H" 
			},
			{
				"x": 0.5407171735,
				"y": 0.7215283581,
				"z": 1.0960852808,
				"element": "H" 
			},
			{
				"x": 3.0824392725,
				"y": -1.3083384281,
				"z": 2.1556483667,
				"element": "H" 
			},
			{
				"x": 5.3280691754,
				"y": -0.3424259025,
				"z": 1.6458470457,
				"element": "H" 
			},
			{
				"x": 5.7963395067,
				"y": 0.5805900541,
				"z": -0.6195899833,
				"element": "H" 
			},
			{
				"x": 4.0230206416,
				"y": 0.5159257734,
				"z": -2.3616199847,
				"element": "H" 
			},
			{
				"x": 1.8013191688,
				"y": -0.4636180874,
				"z": -1.8533152933,
				"element": "H" 
			},
			{
				"x": -2.0629019354,
				"y": -3.306968712,
				"z": -2.1049370904,
				"element": "H" 
			},
			{
				"x": -2.4035145853,
				"y": 0.877379082,
				"z": -1.1517635829,
				"element": "H" 
			},
			{
				"x": -3.1587801167,
				"y": -2.5496887827,
				"z": -3.5595093004,
				"element": "H" 
			},
			{
				"x": 2.4407761546,
				"y": -3.8515130503,
				"z": -0.3948266654,
				"element": "H" 
			},
			{
				"x": 2.0523637711,
				"y": -4.5959688537,
				"z": -1.8569791512,
				"element": "H" 
			}
		],
		 "valence_orbital": [ 
			{
				"type": "occ",
				"energy": -0.27802,
				"method": "rhf"
			},
			{
				"type": "occ",
				"energy": -0.2696,
				"method": "rhf"
			},
			{
				"type": "occ",
				"energy": -0.26763,
				"method": "rhf"
			},
			{
				"type": "occ",
				"energy": -0.24507,
				"method": "rhf"
			},
			{
				"type": "occ",
				"energy": -0.22028,
				"method": "rhf"
			},
			{
				"type": "unocc",
				"energy": -0.05895,
				"method": "rhf"
			},
			{
				"type": "unocc",
				"energy": -0.02907,
				"method": "rhf"
			},
			{
				"type": "unocc",
				"energy": -0.02051,
				"method": "rhf"
			},
			{
				"type": "unocc",
				"energy": -0.00953,
				"method": "rhf"
			},
			{
				"type": "unocc",
				"energy": 0.03944,
				"method": "rhf"
			}
		],
		"cosmo_sigma_profile": { 
			"-0.025": 0.0,
			"-0.024": 0.0,
			"-0.023": 0.0,
			"-0.022": 0.0,
			"-0.021": 0.0,
			"-0.02": 0.0,
			"-0.019": 0.63425498688,
			"-0.018": 0.993713288528,
			"-0.017": 0.810281787728,
			"-0.016": 0.880043669272,
			"-0.015": 1.68325805672,
			"-0.014": 2.36224807506,
			"-0.013": 3.71896701221,
			"-0.012": 4.95705577837,
			"-0.011": 3.64237157715,
			"-0.01": 3.04810442394,
			"-0.009": 3.28520532991,
			"-0.008": 3.88091732393,
			"-0.007": 6.88774562885,
			"-0.006": 14.1961686999,
			"-0.005": 19.2136384648,
			"-0.004": 23.4054232856,
			"-0.003": 26.7307011619,
			"-0.002": 35.8623361561,
			"-0.001": 33.5135944132,
			"0.0": 34.8045327657,
			"0.001": 40.4307745103,
			"0.002": 25.1000549343,
			"0.003": 13.1965317671,
			"0.004": 13.1647506398,
			"0.005": 12.8915531071,
			"0.006": 7.51413948053,
			"0.007": 7.0213363643,
			"0.008": 7.37214281274,
			"0.009": 8.01632155441,
			"0.01": 14.262908097,
			"0.011": 15.1850813476,
			"0.012": 5.08265046475,
			"0.013": 1.22248407629,
			"0.014": 0.0,
			"0.015": 0.0,
			"0.016": 0.0,
			"0.017": 0.0,
			"0.018": 0.0,
			"0.019": 0.0,
			"0.02": 0.0,
			"0.021": 0.0,
			"0.022": 0.0,
			"0.023": 0.0,
			"0.024": 0.0,
			"0.025": 0.0
		}
	}
}
