{
	 "smiles": "CN(C)C(=O)OC1=NN(C(=O)N(C)C)C(C)=C1", 
	 "Tm": 342.65, 
	 "num_atms": 33, 
	 "gaussian": { 
		 "optdone": 1, 
		 "sigma_profile": "yes", 
		 "theory": "DFT", 
		 "functional": "B3LYP", 
		 "basiset": "6-31G**", 
		 "properties": { 
			 "R2extent": 6352.3346, 
			 "electric_dipole_moment_norm": 3.00976296409, 
			 "electric_quadrupole_moment_norm": 24.9699531079, 
			 "total_energy": -835.383208962, 
			 "HOMO_LUMO_gap": 0.2234, 
			 "cosmo_polarized_energy": -18.96, 
			 "cosmo_cavitation_energy": 36.68, 
			 "cosmo_dispersion_energy": -25.83, 
			 "cosmo_repulsion_energy": 2.01, 
			 "cosmo_total_nonelectrostatic_energy": 12.86, 
			 "SMD_solvation_energy": 8.23 
		},
		"coords": [
			{
				"x": 4.9921961196,
				"y": 1.3012754374,
				"z": -3.4629990536,
				"element": "C" 
			},
			{
				"x": 3.6034699554,
				"y": 0.902036803,
				"z": -3.2998970188,
				"element": "N" 
			},
			{
				"x": 2.7933501641,
				"y": 0.8577097883,
				"z": -4.5091428862,
				"element": "C" 
			},
			{
				"x": 3.1511558329,
				"y": 0.6177280593,
				"z": -2.044161094,
				"element": "C" 
			},
			{
				"x": 3.8233433036,
				"y": 0.6562457947,
				"z": -1.0287352527,
				"element": "O" 
			},
			{
				"x": 1.8205754347,
				"y": 0.2787590221,
				"z": -2.081081127,
				"element": "O" 
			},
			{
				"x": 1.1389501177,
				"y": -0.0473955544,
				"z": -0.9365842954,
				"element": "C" 
			},
			{
				"x": -0.0581522515,
				"y": -0.573134846,
				"z": -1.1240885323,
				"element": "N" 
			},
			{
				"x": -0.5141958304,
				"y": -0.7968874797,
				"z": 0.1419382323,
				"element": "N" 
			},
			{
				"x": -1.8885035135,
				"y": -1.214821567,
				"z": 0.3051234095,
				"element": "C" 
			},
			{
				"x": -2.803590614,
				"y": -0.5432277575,
				"z": -0.1274645507,
				"element": "O" 
			},
			{
				"x": -2.0385197024,
				"y": -2.3751115517,
				"z": 1.0164716006,
				"element": "N" 
			},
			{
				"x": -3.4002844509,
				"y": -2.8004754541,
				"z": 1.3203240351,
				"element": "C" 
			},
			{
				"x": -1.0162325451,
				"y": -3.4080563139,
				"z": 1.1400690716,
				"element": "C" 
			},
			{
				"x": 0.3728027411,
				"y": -0.3776793648,
				"z": 1.1071518156,
				"element": "C" 
			},
			{
				"x": 0.0939735539,
				"y": -0.4360678817,
				"z": 2.576004038,
				"element": "C" 
			},
			{
				"x": 1.4735115848,
				"y": 0.1099123133,
				"z": 0.4314640558,
				"element": "C" 
			},
			{
				"x": 5.4789462801,
				"y": 1.2919079164,
				"z": -2.4896126904,
				"element": "H" 
			},
			{
				"x": 5.0542338655,
				"y": 2.3098792771,
				"z": -3.8912274242,
				"element": "H" 
			},
			{
				"x": 5.5127976159,
				"y": 0.6094704179,
				"z": -4.137135613,
				"element": "H" 
			},
			{
				"x": 3.2388442599,
				"y": 0.1654040168,
				"z": -5.2347530145,
				"element": "H" 
			},
			{
				"x": 2.7460626514,
				"y": 1.8518186786,
				"z": -4.9722191495,
				"element": "H" 
			},
			{
				"x": 1.7845708629,
				"y": 0.5271642118,
				"z": -4.2779281391,
				"element": "H" 
			},
			{
				"x": -3.4207276707,
				"y": -3.2722372907,
				"z": 2.3080521053,
				"element": "H" 
			},
			{
				"x": -4.0562692701,
				"y": -1.9317037999,
				"z": 1.3090785009,
				"element": "H" 
			},
			{
				"x": -3.7652922648,
				"y": -3.5237406992,
				"z": 0.5791924918,
				"element": "H" 
			},
			{
				"x": -0.9170985017,
				"y": -3.7233287862,
				"z": 2.1852315217,
				"element": "H" 
			},
			{
				"x": -1.2936804753,
				"y": -4.2873966667,
				"z": 0.5440409685,
				"element": "H" 
			},
			{
				"x": -0.0547773893,
				"y": -3.0421066435,
				"z": 0.7862709925,
				"element": "H" 
			},
			{
				"x": 0.0792396129,
				"y": -1.4620001381,
				"z": 2.9598686768,
				"element": "H" 
			},
			{
				"x": -0.8695250224,
				"y": 0.022435686,
				"z": 2.8222721468,
				"element": "H" 
			},
			{
				"x": 0.8737505894,
				"y": 0.1089870634,
				"z": 3.1119582755,
				"element": "H" 
			},
			{
				"x": 2.3786749562,
				"y": 0.5180373094,
				"z": 0.8448179031,
				"element": "H" 
			}
		],
		 "valence_orbital": [ 
			{
				"type": "occ",
				"energy": -0.27148,
				"method": "rhf"
			},
			{
				"type": "occ",
				"energy": -0.25331,
				"method": "rhf"
			},
			{
				"type": "occ",
				"energy": -0.24751,
				"method": "rhf"
			},
			{
				"type": "occ",
				"energy": -0.23847,
				"method": "rhf"
			},
			{
				"type": "occ",
				"energy": -0.22674,
				"method": "rhf"
			},
			{
				"type": "unocc",
				"energy": -0.00334,
				"method": "rhf"
			},
			{
				"type": "unocc",
				"energy": 0.03289,
				"method": "rhf"
			},
			{
				"type": "unocc",
				"energy": 0.04681,
				"method": "rhf"
			},
			{
				"type": "unocc",
				"energy": 0.07289,
				"method": "rhf"
			},
			{
				"type": "unocc",
				"energy": 0.09396,
				"method": "rhf"
			}
		],
		"cosmo_sigma_profile": { 
			"-0.025": 0.0,
			"-0.024": 0.0,
			"-0.023": 0.0,
			"-0.022": 0.0,
			"-0.021": 0.0,
			"-0.02": 0.0,
			"-0.019": 0.0,
			"-0.018": 0.0,
			"-0.017": 0.0,
			"-0.016": 0.0,
			"-0.015": 0.0,
			"-0.014": 0.0,
			"-0.013": 0.0,
			"-0.012": 0.0,
			"-0.011": 0.0,
			"-0.01": 0.0,
			"-0.009": 0.0,
			"-0.008": 0.0,
			"-0.007": 0.0419076464378,
			"-0.006": 9.80984910982,
			"-0.005": 37.9216540533,
			"-0.004": 34.6023205348,
			"-0.003": 37.9851295677,
			"-0.002": 40.6061501892,
			"-0.001": 22.7592197415,
			"0.0": 15.9886897583,
			"0.001": 10.9710718465,
			"0.002": 9.67046588751,
			"0.003": 8.59198037018,
			"0.004": 7.18815922184,
			"0.005": 5.51029384056,
			"0.006": 5.20039730268,
			"0.007": 5.35406284105,
			"0.008": 3.47573365605,
			"0.009": 3.99530962696,
			"0.01": 5.32496666115,
			"0.011": 5.75080054654,
			"0.012": 10.3003522188,
			"0.013": 5.9794950644,
			"0.014": 2.12518161467,
			"0.015": 0.735696896054,
			"0.016": 0.0,
			"0.017": 0.0,
			"0.018": 0.0,
			"0.019": 0.0,
			"0.02": 0.0,
			"0.021": 0.0,
			"0.022": 0.0,
			"0.023": 0.0,
			"0.024": 0.0,
			"0.025": 0.0
		}
	}
}
