{
	 "smiles": "NC1=CC=C(Cl)C=C1C(=O)NCC1=CC=CS1", 
	 "Tm": 431.15, 
	 "num_atms": 28, 
	 "gaussian": { 
		 "optdone": 1, 
		 "sigma_profile": "yes", 
		 "theory": "DFT", 
		 "functional": "B3LYP", 
		 "basiset": "6-31G**", 
		 "properties": { 
			 "R2extent": 5880.7512, 
			 "electric_dipole_moment_norm": 1.0992618114, 
			 "electric_quadrupole_moment_norm": 18.3162480959, 
			 "total_energy": -1507.01815435, 
			 "HOMO_LUMO_gap": 0.16452, 
			 "cosmo_polarized_energy": -13.66, 
			 "cosmo_cavitation_energy": 35.31, 
			 "cosmo_dispersion_energy": -25.47, 
			 "cosmo_repulsion_energy": 1.95, 
			 "cosmo_total_nonelectrostatic_energy": 11.78, 
			 "SMD_solvation_energy": 5.84 
		},
		"coords": [
			{
				"x": -3.6030849786,
				"y": 0.4004861465,
				"z": 1.5570282178,
				"element": "N" 
			},
			{
				"x": -2.9392528618,
				"y": 0.7189271263,
				"z": 0.39562094,
				"element": "C" 
			},
			{
				"x": -3.3906555867,
				"y": 1.7841606827,
				"z": -0.4123969527,
				"element": "C" 
			},
			{
				"x": -2.7437062041,
				"y": 2.1322171213,
				"z": -1.5880580571,
				"element": "C" 
			},
			{
				"x": -1.613911939,
				"y": 1.4161505223,
				"z": -1.9917156064,
				"element": "C" 
			},
			{
				"x": -0.8142073135,
				"y": 1.825539563,
				"z": -3.5058537001,
				"element": "Cl" 
			},
			{
				"x": -1.125219076,
				"y": 0.3808140908,
				"z": -1.207693749,
				"element": "C" 
			},
			{
				"x": -1.7555453765,
				"y": 0.0320050332,
				"z": -0.0008340482,
				"element": "C" 
			},
			{
				"x": -1.264054898,
				"y": -1.1121549907,
				"z": 0.8235277777,
				"element": "C" 
			},
			{
				"x": -2.0381955322,
				"y": -1.8346037059,
				"z": 1.4624993875,
				"element": "O" 
			},
			{
				"x": 0.0826218655,
				"y": -1.4006046017,
				"z": 0.8511180855,
				"element": "N" 
			},
			{
				"x": 1.2141944346,
				"y": -0.5025760967,
				"z": 0.6611276734,
				"element": "C" 
			},
			{
				"x": 2.1630183168,
				"y": -0.9836625867,
				"z": -0.4114359405,
				"element": "C" 
			},
			{
				"x": 1.9904585103,
				"y": -1.9970374908,
				"z": -1.31639129,
				"element": "C" 
			},
			{
				"x": 3.1058568462,
				"y": -2.1651813648,
				"z": -2.1966118991,
				"element": "C" 
			},
			{
				"x": 4.1140244024,
				"y": -1.2792411591,
				"z": -1.9490391914,
				"element": "C" 
			},
			{
				"x": 3.7189229565,
				"y": -0.2184457102,
				"z": -0.6299403788,
				"element": "S" 
			},
			{
				"x": -4.5403377118,
				"y": 0.7607949716,
				"z": 1.6516905287,
				"element": "H" 
			},
			{
				"x": -3.4504163876,
				"y": -0.5474391921,
				"z": 1.883219943,
				"element": "H" 
			},
			{
				"x": -4.2791042594,
				"y": 2.3315742521,
				"z": -0.1086664007,
				"element": "H" 
			},
			{
				"x": -3.1196755038,
				"y": 2.9450531375,
				"z": -2.2000866529,
				"element": "H" 
			},
			{
				"x": -0.2617594137,
				"y": -0.1793659186,
				"z": -1.5483035144,
				"element": "H" 
			},
			{
				"x": 0.2594675265,
				"y": -2.221326278,
				"z": 1.4182376974,
				"element": "H" 
			},
			{
				"x": 0.8308567104,
				"y": 0.4927515247,
				"z": 0.4210489071,
				"element": "H" 
			},
			{
				"x": 1.7526595007,
				"y": -0.400950406,
				"z": 1.6136291324,
				"element": "H" 
			},
			{
				"x": 1.094694033,
				"y": -2.6062186076,
				"z": -1.3451763675,
				"element": "H" 
			},
			{
				"x": 3.1491928943,
				"y": -2.9159908078,
				"z": -2.9773750174,
				"element": "H" 
			},
			{
				"x": 5.0636590454,
				"y": -1.1769752551,
				"z": -2.4554695244,
				"element": "H" 
			}
		],
		 "valence_orbital": [ 
			{
				"type": "occ",
				"energy": -0.26627,
				"method": "rhf"
			},
			{
				"type": "occ",
				"energy": -0.25567,
				"method": "rhf"
			},
			{
				"type": "occ",
				"energy": -0.25439,
				"method": "rhf"
			},
			{
				"type": "occ",
				"energy": -0.23339,
				"method": "rhf"
			},
			{
				"type": "occ",
				"energy": -0.20529,
				"method": "rhf"
			},
			{
				"type": "unocc",
				"energy": -0.04077,
				"method": "rhf"
			},
			{
				"type": "unocc",
				"energy": -0.01675,
				"method": "rhf"
			},
			{
				"type": "unocc",
				"energy": 0.00023,
				"method": "rhf"
			},
			{
				"type": "unocc",
				"energy": 0.02339,
				"method": "rhf"
			},
			{
				"type": "unocc",
				"energy": 0.03402,
				"method": "rhf"
			}
		],
		"cosmo_sigma_profile": { 
			"-0.025": 0.0,
			"-0.024": 0.0,
			"-0.023": 0.0,
			"-0.022": 0.0,
			"-0.021": 0.0,
			"-0.02": 0.0,
			"-0.019": 0.0,
			"-0.018": 0.0,
			"-0.017": 0.0,
			"-0.016": 0.0,
			"-0.015": 0.0,
			"-0.014": 0.473460795428,
			"-0.013": 2.21714232409,
			"-0.012": 2.00970486781,
			"-0.011": 2.96854957492,
			"-0.01": 2.55198737136,
			"-0.009": 2.57107993731,
			"-0.008": 5.79185121954,
			"-0.007": 10.6783682838,
			"-0.006": 15.3280436142,
			"-0.005": 16.1637520905,
			"-0.004": 14.3308456846,
			"-0.003": 17.6489980791,
			"-0.002": 17.2278541989,
			"-0.001": 17.5080260783,
			"0.0": 16.27201181,
			"0.001": 16.6036130162,
			"0.002": 23.9933095873,
			"0.003": 28.6104756651,
			"0.004": 27.7146723762,
			"0.005": 22.7174155696,
			"0.006": 6.34977648556,
			"0.007": 2.57674748794,
			"0.008": 1.61369109339,
			"0.009": 1.50963116038,
			"0.01": 2.47193697527,
			"0.011": 2.56234526303,
			"0.012": 2.77936160847,
			"0.013": 2.8659594897,
			"0.014": 0.779526335977,
			"0.015": 0.0,
			"0.016": 0.0,
			"0.017": 0.0,
			"0.018": 0.0,
			"0.019": 0.0,
			"0.02": 0.0,
			"0.021": 0.0,
			"0.022": 0.0,
			"0.023": 0.0,
			"0.024": 0.0,
			"0.025": 0.0
		}
	}
}
