{
	 "smiles": "CC(=N/NC1=CC=CC=C1)C1=NC2=C3C=CC=CC3=CC=C2N=C1C", 
	 "Tm": 482.15, 
	 "num_atms": 43, 
	 "gaussian": { 
		 "optdone": 1, 
		 "sigma_profile": "yes", 
		 "theory": "DFT", 
		 "functional": "B3LYP", 
		 "basiset": "6-31G**", 
		 "properties": { 
			 "R2extent": 13304.8754, 
			 "electric_dipole_moment_norm": 2.34190421879, 
			 "electric_quadrupole_moment_norm": 14.9957027251, 
			 "total_energy": -1030.09395047, 
			 "HOMO_LUMO_gap": 0.12668, 
			 "cosmo_polarized_energy": -12.38, 
			 "cosmo_cavitation_energy": 46.38, 
			 "cosmo_dispersion_energy": -33.43, 
			 "cosmo_repulsion_energy": 2.45, 
			 "cosmo_total_nonelectrostatic_energy": 15.39, 
			 "SMD_solvation_energy": 5.05 
		},
		"coords": [
			{
				"x": 0.0542742908,
				"y": -2.0118861559,
				"z": 2.0655192159,
				"element": "C" 
			},
			{
				"x": 0.6383095846,
				"y": -1.1469571127,
				"z": 0.9733503729,
				"element": "C" 
			},
			{
				"x": 1.5845863031,
				"y": -1.567581784,
				"z": 0.185735752,
				"element": "N" 
			},
			{
				"x": 2.0537834954,
				"y": -2.8103158518,
				"z": 0.3519707278,
				"element": "N" 
			},
			{
				"x": 3.0679273637,
				"y": -3.3338819971,
				"z": -0.4537487204,
				"element": "C" 
			},
			{
				"x": 3.4993293353,
				"y": -4.6484189036,
				"z": -0.2120795083,
				"element": "C" 
			},
			{
				"x": 4.5077247774,
				"y": -5.2074678146,
				"z": -0.9925600762,
				"element": "C" 
			},
			{
				"x": 5.0998644817,
				"y": -4.4709288673,
				"z": -2.0208417851,
				"element": "C" 
			},
			{
				"x": 4.6668288602,
				"y": -3.1638656569,
				"z": -2.2566831402,
				"element": "C" 
			},
			{
				"x": 3.6591327915,
				"y": -2.5887417263,
				"z": -1.4854078669,
				"element": "C" 
			},
			{
				"x": 0.1177053309,
				"y": 0.2266215345,
				"z": 0.7891036473,
				"element": "C" 
			},
			{
				"x": -0.8588562771,
				"y": 0.5789601173,
				"z": 1.627025255,
				"element": "N" 
			},
			{
				"x": -1.4025354871,
				"y": 1.8077308034,
				"z": 1.5433162153,
				"element": "C" 
			},
			{
				"x": -2.4656135231,
				"y": 2.1974616077,
				"z": 2.4507787662,
				"element": "C" 
			},
			{
				"x": -2.9672718713,
				"y": 1.3254268241,
				"z": 3.4400100921,
				"element": "C" 
			},
			{
				"x": -3.981866949,
				"y": 1.7312198832,
				"z": 4.2879820959,
				"element": "C" 
			},
			{
				"x": -4.5291445843,
				"y": 3.0249672563,
				"z": 4.1742082268,
				"element": "C" 
			},
			{
				"x": -4.0528877575,
				"y": 3.8955572114,
				"z": 3.2122072201,
				"element": "C" 
			},
			{
				"x": -3.016044553,
				"y": 3.5070070553,
				"z": 2.3317134295,
				"element": "C" 
			},
			{
				"x": -2.5121034667,
				"y": 4.4028596536,
				"z": 1.3270219216,
				"element": "C" 
			},
			{
				"x": -1.5131618101,
				"y": 4.0314505491,
				"z": 0.476838695,
				"element": "C" 
			},
			{
				"x": -0.9380462084,
				"y": 2.7241003422,
				"z": 0.5686698887,
				"element": "C" 
			},
			{
				"x": 0.0539686886,
				"y": 2.3754089512,
				"z": -0.2861393187,
				"element": "N" 
			},
			{
				"x": 0.5891713353,
				"y": 1.1668682457,
				"z": -0.2054813936,
				"element": "C" 
			},
			{
				"x": 1.6815810301,
				"y": 0.888729216,
				"z": -1.2029700778,
				"element": "C" 
			},
			{
				"x": -0.7173774025,
				"y": -1.4679014084,
				"z": 2.603815193,
				"element": "H" 
			},
			{
				"x": 0.8288358921,
				"y": -2.3168745695,
				"z": 2.7825539271,
				"element": "H" 
			},
			{
				"x": -0.3921225054,
				"y": -2.9252040625,
				"z": 1.6487261121,
				"element": "H" 
			},
			{
				"x": 1.6742837005,
				"y": -3.4080775063,
				"z": 1.077656355,
				"element": "H" 
			},
			{
				"x": 3.0428516719,
				"y": -5.2284479076,
				"z": 0.5869884965,
				"element": "H" 
			},
			{
				"x": 4.8306727528,
				"y": -6.2253810751,
				"z": -0.79355198,
				"element": "H" 
			},
			{
				"x": 5.8858268552,
				"y": -4.9085226943,
				"z": -2.6281851303,
				"element": "H" 
			},
			{
				"x": 5.1185007699,
				"y": -2.5790707064,
				"z": -3.0532475193,
				"element": "H" 
			},
			{
				"x": 3.3241585469,
				"y": -1.5760591141,
				"z": -1.6685297934,
				"element": "H" 
			},
			{
				"x": -2.5386387141,
				"y": 0.3328239427,
				"z": 3.5177570569,
				"element": "H" 
			},
			{
				"x": -4.3595511682,
				"y": 1.0505350441,
				"z": 5.0455629024,
				"element": "H" 
			},
			{
				"x": -5.3257343812,
				"y": 3.3366961328,
				"z": 4.8436070051,
				"element": "H" 
			},
			{
				"x": -4.4712951083,
				"y": 4.8945232413,
				"z": 3.1198261093,
				"element": "H" 
			},
			{
				"x": -2.9499426695,
				"y": 5.395340014,
				"z": 1.2585192401,
				"element": "H" 
			},
			{
				"x": -1.124934464,
				"y": 4.6992044326,
				"z": -0.2853394703,
				"element": "H" 
			},
			{
				"x": 1.4305941121,
				"y": 0.0383019198,
				"z": -1.8435104893,
				"element": "H" 
			},
			{
				"x": 2.6210965046,
				"y": 0.6305794956,
				"z": -0.7058716217,
				"element": "H" 
			},
			{
				"x": 1.817620426,
				"y": 1.7840114405,
				"z": -1.8120160281,
				"element": "H" 
			}
		],
		 "valence_orbital": [ 
			{
				"type": "occ",
				"energy": -0.25124,
				"method": "rhf"
			},
			{
				"type": "occ",
				"energy": -0.23832,
				"method": "rhf"
			},
			{
				"type": "occ",
				"energy": -0.23566,
				"method": "rhf"
			},
			{
				"type": "occ",
				"energy": -0.22546,
				"method": "rhf"
			},
			{
				"type": "occ",
				"energy": -0.19294,
				"method": "rhf"
			},
			{
				"type": "unocc",
				"energy": -0.06626,
				"method": "rhf"
			},
			{
				"type": "unocc",
				"energy": -0.04274,
				"method": "rhf"
			},
			{
				"type": "unocc",
				"energy": -0.01889,
				"method": "rhf"
			},
			{
				"type": "unocc",
				"energy": -0.00151,
				"method": "rhf"
			},
			{
				"type": "unocc",
				"energy": 0.00945,
				"method": "rhf"
			}
		],
		"cosmo_sigma_profile": { 
			"-0.025": 0.0,
			"-0.024": 0.0,
			"-0.023": 0.0,
			"-0.022": 0.0,
			"-0.021": 0.0,
			"-0.02": 0.0,
			"-0.019": 0.0,
			"-0.018": 0.0,
			"-0.017": 0.0,
			"-0.016": 0.0,
			"-0.015": 0.0,
			"-0.014": 0.185717438195,
			"-0.013": 1.43709091058,
			"-0.012": 1.33660880601,
			"-0.011": 1.49683903192,
			"-0.01": 1.6782982643,
			"-0.009": 1.96551267861,
			"-0.008": 1.79641618768,
			"-0.007": 4.271536393,
			"-0.006": 14.9481721165,
			"-0.005": 21.8768110048,
			"-0.004": 25.7158428257,
			"-0.003": 30.9069762926,
			"-0.002": 26.4033233556,
			"-0.001": 30.3064422073,
			"0.0": 32.8053653305,
			"0.001": 31.3305110685,
			"0.002": 30.4996131508,
			"0.003": 37.3578725799,
			"0.004": 32.174665581,
			"0.005": 20.8345188361,
			"0.006": 12.2905424666,
			"0.007": 3.70644411892,
			"0.008": 1.70363211192,
			"0.009": 0.819619537595,
			"0.01": 1.10679354555,
			"0.011": 0.915877851402,
			"0.012": 0.579065717103,
			"0.013": 0.970111591061,
			"0.014": 0.524389092391,
			"0.015": 0.0,
			"0.016": 0.0,
			"0.017": 0.0,
			"0.018": 0.0,
			"0.019": 0.0,
			"0.02": 0.0,
			"0.021": 0.0,
			"0.022": 0.0,
			"0.023": 0.0,
			"0.024": 0.0,
			"0.025": 0.0
		}
	}
}
