{
	 "smiles": "NC1=CC=NN1CC1=NC=CC=C1", 
	 "Tm": 342.15, 
	 "num_atms": 23, 
	 "gaussian": { 
		 "optdone": 1, 
		 "sigma_profile": "yes", 
		 "theory": "DFT", 
		 "functional": "B3LYP", 
		 "basiset": "6-31G**", 
		 "properties": { 
			 "R2extent": 2650.4579, 
			 "electric_dipole_moment_norm": 3.96681072147, 
			 "electric_quadrupole_moment_norm": 11.1883802693, 
			 "total_energy": -567.966580094, 
			 "HOMO_LUMO_gap": 0.14971, 
			 "cosmo_polarized_energy": -12.54, 
			 "cosmo_cavitation_energy": 26.81, 
			 "cosmo_dispersion_energy": -19.61, 
			 "cosmo_repulsion_energy": 1.55, 
			 "cosmo_total_nonelectrostatic_energy": 8.75, 
			 "SMD_solvation_energy": 3.03 
		},
		"coords": [
			{
				"x": 0.6891282153,
				"y": -1.5637141978,
				"z": -0.8989131099,
				"element": "N" 
			},
			{
				"x": 0.8079142002,
				"y": -1.1508744556,
				"z": 0.425353441,
				"element": "C" 
			},
			{
				"x": 1.8641003612,
				"y": -1.1551879766,
				"z": 1.3271426326,
				"element": "C" 
			},
			{
				"x": 1.3025790267,
				"y": -0.6643006761,
				"z": 2.527650192,
				"element": "C" 
			},
			{
				"x": 0.0129564806,
				"y": -0.3679120866,
				"z": 2.4082860838,
				"element": "N" 
			},
			{
				"x": -0.2795801822,
				"y": -0.6898379735,
				"z": 1.1103468218,
				"element": "N" 
			},
			{
				"x": -1.6280434519,
				"y": -0.5160050951,
				"z": 0.6018246634,
				"element": "C" 
			},
			{
				"x": -1.8035179003,
				"y": 0.7635614714,
				"z": -0.1978368448,
				"element": "C" 
			},
			{
				"x": -1.2334585903,
				"y": 0.782096636,
				"z": -1.4164211741,
				"element": "N" 
			},
			{
				"x": -1.3497615368,
				"y": 1.8927424729,
				"z": -2.1532659974,
				"element": "C" 
			},
			{
				"x": -2.0384835224,
				"y": 3.0288748181,
				"z": -1.7277937258,
				"element": "C" 
			},
			{
				"x": -2.6268994521,
				"y": 3.007878156,
				"z": -0.4645571809,
				"element": "C" 
			},
			{
				"x": -2.5060031445,
				"y": 1.8579817026,
				"z": 0.3143885118,
				"element": "C" 
			},
			{
				"x": 0.1631764594,
				"y": -0.897435422,
				"z": -1.4651696869,
				"element": "H" 
			},
			{
				"x": 1.5847308202,
				"y": -1.7821413607,
				"z": -1.3146000677,
				"element": "H" 
			},
			{
				"x": 2.8823663314,
				"y": -1.4598401406,
				"z": 1.1358437141,
				"element": "H" 
			},
			{
				"x": 1.7965433861,
				"y": -0.5114055349,
				"z": 3.4789369509,
				"element": "H" 
			},
			{
				"x": -1.8677757733,
				"y": -1.3733489168,
				"z": -0.0365762886,
				"element": "H" 
			},
			{
				"x": -2.2876273933,
				"y": -0.5240576518,
				"z": 1.4707584316,
				"element": "H" 
			},
			{
				"x": -0.8730982944,
				"y": 1.8709953095,
				"z": -3.1313719733,
				"element": "H" 
			},
			{
				"x": -2.1065019966,
				"y": 3.9008279368,
				"z": -2.3700882134,
				"element": "H" 
			},
			{
				"x": -3.1688097367,
				"y": 3.8717172613,
				"z": -0.0905630575,
				"element": "H" 
			},
			{
				"x": -2.9410343064,
				"y": 1.8055857235,
				"z": 1.3072258775,
				"element": "H" 
			}
		],
		 "valence_orbital": [ 
			{
				"type": "occ",
				"energy": -0.27614,
				"method": "rhf"
			},
			{
				"type": "occ",
				"energy": -0.27134,
				"method": "rhf"
			},
			{
				"type": "occ",
				"energy": -0.26563,
				"method": "rhf"
			},
			{
				"type": "occ",
				"energy": -0.22686,
				"method": "rhf"
			},
			{
				"type": "occ",
				"energy": -0.1893,
				"method": "rhf"
			},
			{
				"type": "unocc",
				"energy": -0.03959,
				"method": "rhf"
			},
			{
				"type": "unocc",
				"energy": -0.02296,
				"method": "rhf"
			},
			{
				"type": "unocc",
				"energy": 0.04857,
				"method": "rhf"
			},
			{
				"type": "unocc",
				"energy": 0.08431,
				"method": "rhf"
			},
			{
				"type": "unocc",
				"energy": 0.09826,
				"method": "rhf"
			}
		],
		"cosmo_sigma_profile": { 
			"-0.025": 0.0,
			"-0.024": 0.0,
			"-0.023": 0.0,
			"-0.022": 0.0,
			"-0.021": 0.0,
			"-0.02": 0.0,
			"-0.019": 0.0,
			"-0.018": 0.0,
			"-0.017": 0.0,
			"-0.016": 0.0,
			"-0.015": 0.0,
			"-0.014": 0.0,
			"-0.013": 0.496763018968,
			"-0.012": 1.40129003368,
			"-0.011": 1.09372900819,
			"-0.01": 1.08066365182,
			"-0.009": 1.86425354674,
			"-0.008": 2.12756934335,
			"-0.007": 11.2774663026,
			"-0.006": 17.9720084767,
			"-0.005": 16.1471303088,
			"-0.004": 14.1845990142,
			"-0.003": 13.3498996005,
			"-0.002": 10.001324964,
			"-0.001": 12.1523760243,
			"0.0": 11.7434897703,
			"0.001": 14.6075451283,
			"0.002": 22.0529535104,
			"0.003": 14.377257116,
			"0.004": 7.16580085454,
			"0.005": 7.73820128124,
			"0.006": 7.79045527685,
			"0.007": 7.40445462977,
			"0.008": 3.68690661654,
			"0.009": 2.36399630771,
			"0.01": 2.61443265565,
			"0.011": 1.61115285402,
			"0.012": 2.23210266784,
			"0.013": 1.74407039518,
			"0.014": 1.1763739966,
			"0.015": 1.60022161974,
			"0.016": 0.756619116128,
			"0.017": 0.626985973575,
			"0.018": 0.0,
			"0.019": 0.0,
			"0.02": 0.0,
			"0.021": 0.0,
			"0.022": 0.0,
			"0.023": 0.0,
			"0.024": 0.0,
			"0.025": 0.0
		}
	}
}
