{
	 "smiles": "CCCC(C)(N)P(O)(O)=O", 
	 "Tm": 533.15, 
	 "num_atms": 24, 
	 "gaussian": { 
		 "optdone": 1, 
		 "sigma_profile": "yes", 
		 "theory": "DFT", 
		 "functional": "B3LYP", 
		 "basiset": "6-31G**", 
		 "properties": { 
			 "R2extent": 2643.2201, 
			 "electric_dipole_moment_norm": 4.83046169015, 
			 "electric_quadrupole_moment_norm": 9.09583489021, 
			 "total_energy": -820.82701102, 
			 "HOMO_LUMO_gap": 0.30329, 
			 "cosmo_polarized_energy": -17.05, 
			 "cosmo_cavitation_energy": 26.48, 
			 "cosmo_dispersion_energy": -19.42, 
			 "cosmo_repulsion_energy": 1.55, 
			 "cosmo_total_nonelectrostatic_energy": 8.61, 
			 "SMD_solvation_energy": 6.14 
		},
		"coords": [
			{
				"x": 1.2488455581,
				"y": -2.242974971,
				"z": 0.9025771077,
				"element": "C" 
			},
			{
				"x": 1.3206229905,
				"y": -1.4335892891,
				"z": -0.3995415699,
				"element": "C" 
			},
			{
				"x": 0.6394055988,
				"y": -0.0505947548,
				"z": -0.3976818546,
				"element": "C" 
			},
			{
				"x": 1.2152155476,
				"y": 1.0474466184,
				"z": 0.5364920303,
				"element": "C" 
			},
			{
				"x": 2.7453589237,
				"y": 1.1551574738,
				"z": 0.4455213925,
				"element": "C" 
			},
			{
				"x": 0.706000294,
				"y": 0.8615703978,
				"z": 1.9215272168,
				"element": "N" 
			},
			{
				"x": 0.4250257679,
				"y": 2.647963361,
				"z": 0.0075522884,
				"element": "P" 
			},
			{
				"x": -1.0698941206,
				"y": 2.4714927547,
				"z": 0.5900945913,
				"element": "O" 
			},
			{
				"x": 1.1619569278,
				"y": 3.7068160153,
				"z": 1.0176215777,
				"element": "O" 
			},
			{
				"x": 0.5037607882,
				"y": 3.0425380338,
				"z": -1.4210289308,
				"element": "O" 
			},
			{
				"x": 0.2195984737,
				"y": -2.3145248745,
				"z": 1.2736722836,
				"element": "H" 
			},
			{
				"x": 1.6106120574,
				"y": -3.2640393772,
				"z": 0.7441373303,
				"element": "H" 
			},
			{
				"x": 1.8688499197,
				"y": -1.812097014,
				"z": 1.6973164119,
				"element": "H" 
			},
			{
				"x": 0.8362357172,
				"y": -2.0155567924,
				"z": -1.1931960169,
				"element": "H" 
			},
			{
				"x": 2.3675789688,
				"y": -1.3324479656,
				"z": -0.7088966865,
				"element": "H" 
			},
			{
				"x": 0.6842370785,
				"y": 0.3423453584,
				"z": -1.4193215956,
				"element": "H" 
			},
			{
				"x": -0.4255046361,
				"y": -0.167896556,
				"z": -0.1626756003,
				"element": "H" 
			},
			{
				"x": 3.2209085872,
				"y": 0.2331760517,
				"z": 0.7943544094,
				"element": "H" 
			},
			{
				"x": 3.0636045216,
				"y": 1.334221737,
				"z": -0.5866466522,
				"element": "H" 
			},
			{
				"x": 3.1113153583,
				"y": 1.9836719791,
				"z": 1.0578782778,
				"element": "H" 
			},
			{
				"x": 0.8154669402,
				"y": -0.1020041632,
				"z": 2.221481502,
				"element": "H" 
			},
			{
				"x": 1.2363293105,
				"y": 1.4427629088,
				"z": 2.5678775943,
				"element": "H" 
			},
			{
				"x": -0.9721970663,
				"y": 1.8821153348,
				"z": 1.3721545013,
				"element": "H" 
			},
			{
				"x": 1.2456664932,
				"y": 4.5675477331,
				"z": 0.5828303912,
				"element": "H" 
			}
		],
		 "valence_orbital": [ 
			{
				"type": "occ",
				"energy": -0.32666,
				"method": "rhf"
			},
			{
				"type": "occ",
				"energy": -0.31739,
				"method": "rhf"
			},
			{
				"type": "occ",
				"energy": -0.29178,
				"method": "rhf"
			},
			{
				"type": "occ",
				"energy": -0.27917,
				"method": "rhf"
			},
			{
				"type": "occ",
				"energy": -0.26034,
				"method": "rhf"
			},
			{
				"type": "unocc",
				"energy": 0.04295,
				"method": "rhf"
			},
			{
				"type": "unocc",
				"energy": 0.07325,
				"method": "rhf"
			},
			{
				"type": "unocc",
				"energy": 0.08489,
				"method": "rhf"
			},
			{
				"type": "unocc",
				"energy": 0.08946,
				"method": "rhf"
			},
			{
				"type": "unocc",
				"energy": 0.11422,
				"method": "rhf"
			}
		],
		"cosmo_sigma_profile": { 
			"-0.025": 0.0,
			"-0.024": 0.0,
			"-0.023": 0.0,
			"-0.022": 0.0,
			"-0.021": 0.0,
			"-0.02": 0.0,
			"-0.019": 0.244147159887,
			"-0.018": 0.707351668786,
			"-0.017": 1.09245705602,
			"-0.016": 0.901432409334,
			"-0.015": 0.778157590203,
			"-0.014": 0.4568948077,
			"-0.013": 0.469580944817,
			"-0.012": 0.978894031852,
			"-0.011": 1.49602689148,
			"-0.01": 2.44753420739,
			"-0.009": 3.6106718726,
			"-0.008": 4.22254555601,
			"-0.007": 3.98850577901,
			"-0.006": 4.24888989818,
			"-0.005": 4.76802249651,
			"-0.004": 10.4530136258,
			"-0.003": 23.4861745692,
			"-0.002": 25.1647928411,
			"-0.001": 24.7523025009,
			"0.0": 21.9865591663,
			"0.001": 13.285503675,
			"0.002": 4.65286347205,
			"0.003": 3.78995120195,
			"0.004": 3.78484235806,
			"0.005": 3.63114969003,
			"0.006": 3.81763687935,
			"0.007": 3.38076770452,
			"0.008": 3.73275931529,
			"0.009": 3.62081113129,
			"0.01": 4.11233674632,
			"0.011": 3.25304708688,
			"0.012": 2.81693127257,
			"0.013": 1.21956892678,
			"0.014": 4.25491845183,
			"0.015": 5.83215672993,
			"0.016": 0.53596610314,
			"0.017": 0.0,
			"0.018": 0.0,
			"0.019": 0.0,
			"0.02": 0.0,
			"0.021": 0.0,
			"0.022": 0.0,
			"0.023": 0.0,
			"0.024": 0.0,
			"0.025": 0.0
		}
	}
}
