{
	 "smiles": "CC(N)(CC1=CC=C(O)C=C1)C(O)=O", 
	 "Tm": 585.15, 
	 "num_atms": 27, 
	 "gaussian": { 
		 "optdone": 1, 
		 "sigma_profile": "yes", 
		 "theory": "DFT", 
		 "functional": "B3LYP", 
		 "basiset": "6-31G**", 
		 "properties": { 
			 "R2extent": 4509.2829, 
			 "electric_dipole_moment_norm": 6.1619228606, 
			 "electric_quadrupole_moment_norm": 21.7463672024, 
			 "total_energy": -669.343005184, 
			 "HOMO_LUMO_gap": 0.21189, 
			 "cosmo_polarized_energy": -18.92, 
			 "cosmo_cavitation_energy": 29.64, 
			 "cosmo_dispersion_energy": -21.17, 
			 "cosmo_repulsion_energy": 1.67, 
			 "cosmo_total_nonelectrostatic_energy": 10.14, 
			 "SMD_solvation_energy": 5.94 
		},
		"coords": [
			{
				"x": -4.5145135055,
				"y": 0.7951616597,
				"z": 0.6314843855,
				"element": "C" 
			},
			{
				"x": -3.153248961,
				"y": 0.3616835878,
				"z": 1.2046774003,
				"element": "C" 
			},
			{
				"x": -3.1215444304,
				"y": -1.1121915532,
				"z": 1.3005771959,
				"element": "N" 
			},
			{
				"x": -2.0015576923,
				"y": 0.9662593988,
				"z": 0.3540116073,
				"element": "C" 
			},
			{
				"x": -0.615827959,
				"y": 0.4739987229,
				"z": 0.7150113781,
				"element": "C" 
			},
			{
				"x": 0.1008940164,
				"y": 1.029915658,
				"z": 1.7904241584,
				"element": "C" 
			},
			{
				"x": 1.3668416411,
				"y": 0.5674478664,
				"z": 2.1317799303,
				"element": "C" 
			},
			{
				"x": 1.9540049084,
				"y": -0.4725481427,
				"z": 1.400093603,
				"element": "C" 
			},
			{
				"x": 3.200144151,
				"y": -0.883910854,
				"z": 1.7787504846,
				"element": "O" 
			},
			{
				"x": 1.2617074529,
				"y": -1.0382775179,
				"z": 0.3262385739,
				"element": "C" 
			},
			{
				"x": -0.0090705684,
				"y": -0.5629773372,
				"z": -0.00606446,
				"element": "C" 
			},
			{
				"x": -3.0899504087,
				"y": 0.9220060691,
				"z": 2.6547180952,
				"element": "C" 
			},
			{
				"x": -3.3701215367,
				"y": 0.0128500588,
				"z": 3.5938744298,
				"element": "O" 
			},
			{
				"x": -2.8594711588,
				"y": 2.0858927403,
				"z": 2.9018587767,
				"element": "O" 
			},
			{
				"x": -4.6150446661,
				"y": 0.4603076205,
				"z": -0.4074172552,
				"element": "H" 
			},
			{
				"x": -5.3359819444,
				"y": 0.3689908029,
				"z": 1.2159977983,
				"element": "H" 
			},
			{
				"x": -4.603259998,
				"y": 1.8833829656,
				"z": 0.6560122992,
				"element": "H" 
			},
			{
				"x": -3.6448844253,
				"y": -1.5432771718,
				"z": 0.5441507826,
				"element": "H" 
			},
			{
				"x": -2.1616922544,
				"y": -1.4487864547,
				"z": 1.2437935152,
				"element": "H" 
			},
			{
				"x": -2.056631124,
				"y": 2.0527806607,
				"z": 0.4664415553,
				"element": "H" 
			},
			{
				"x": -2.2085061923,
				"y": 0.7344822413,
				"z": -0.6978442775,
				"element": "H" 
			},
			{
				"x": -0.3465665785,
				"y": 1.8354090567,
				"z": 2.3644374809,
				"element": "H" 
			},
			{
				"x": 1.9187313926,
				"y": 1.0012772968,
				"z": 2.959151565,
				"element": "H" 
			},
			{
				"x": 3.4923495429,
				"y": -1.593935223,
				"z": 1.1926504428,
				"element": "H" 
			},
			{
				"x": 1.7144499963,
				"y": -1.8391077891,
				"z": -0.2551193308,
				"element": "H" 
			},
			{
				"x": -0.5264863596,
				"y": -0.9983348447,
				"z": -0.8583707594,
				"element": "H" 
			},
			{
				"x": -3.4754633382,
				"y": -0.830299518,
				"z": 3.0846806247,
				"element": "H" 
			}
		],
		 "valence_orbital": [ 
			{
				"type": "occ",
				"energy": -0.29676,
				"method": "rhf"
			},
			{
				"type": "occ",
				"energy": -0.29067,
				"method": "rhf"
			},
			{
				"type": "occ",
				"energy": -0.25626,
				"method": "rhf"
			},
			{
				"type": "occ",
				"energy": -0.24813,
				"method": "rhf"
			},
			{
				"type": "occ",
				"energy": -0.22253,
				"method": "rhf"
			},
			{
				"type": "unocc",
				"energy": -0.01064,
				"method": "rhf"
			},
			{
				"type": "unocc",
				"energy": 0.00459,
				"method": "rhf"
			},
			{
				"type": "unocc",
				"energy": 0.02219,
				"method": "rhf"
			},
			{
				"type": "unocc",
				"energy": 0.06579,
				"method": "rhf"
			},
			{
				"type": "unocc",
				"energy": 0.0665,
				"method": "rhf"
			}
		],
		"cosmo_sigma_profile": { 
			"-0.025": 0.0,
			"-0.024": 0.0,
			"-0.023": 0.0,
			"-0.022": 0.0,
			"-0.021": 0.0,
			"-0.02": 0.0,
			"-0.019": 0.0,
			"-0.018": 0.206262019613,
			"-0.017": 1.13583569749,
			"-0.016": 1.10012744642,
			"-0.015": 0.995036396792,
			"-0.014": 1.00809863624,
			"-0.013": 1.08699488578,
			"-0.012": 1.18900741257,
			"-0.011": 2.6524996585,
			"-0.01": 2.27746295605,
			"-0.009": 2.68462017759,
			"-0.008": 4.90348204375,
			"-0.007": 4.41131642377,
			"-0.006": 9.13620079566,
			"-0.005": 18.8260633425,
			"-0.004": 19.0160341138,
			"-0.003": 17.4232430692,
			"-0.002": 15.6601483377,
			"-0.001": 16.2688313228,
			"0.0": 14.3270873683,
			"0.001": 10.3682170211,
			"0.002": 9.51150596341,
			"0.003": 12.0675769191,
			"0.004": 14.463177279,
			"0.005": 12.1111012064,
			"0.006": 6.08516618909,
			"0.007": 3.86469744605,
			"0.008": 4.4702782551,
			"0.009": 4.16037710368,
			"0.01": 5.59687259836,
			"0.011": 6.44782989431,
			"0.012": 4.92778297074,
			"0.013": 3.28542318787,
			"0.014": 1.15438548026,
			"0.015": 0.0,
			"0.016": 0.0,
			"0.017": 0.0,
			"0.018": 0.0,
			"0.019": 0.0,
			"0.02": 0.0,
			"0.021": 0.0,
			"0.022": 0.0,
			"0.023": 0.0,
			"0.024": 0.0,
			"0.025": 0.0
		}
	}
}
