{
	 "smiles": "CCOC(=O)C1=C(OC(C)=O)C2=CC3=C(NC(C(=O)OCC)=C3OC(C)=O)C=C2N1", 
	 "Tm": 451.15, 
	 "num_atms": 50, 
	 "gaussian": { 
		 "optdone": 1, 
		 "sigma_profile": "yes", 
		 "theory": "DFT", 
		 "functional": "B3LYP", 
		 "basiset": "6-31G**", 
		 "properties": { 
			 "R2extent": 18427.9255, 
			 "electric_dipole_moment_norm": 2.75541958148, 
			 "electric_quadrupole_moment_norm": 32.3678374997, 
			 "total_energy": -1485.53718271, 
			 "HOMO_LUMO_gap": 0.12823, 
			 "cosmo_polarized_energy": -24.71, 
			 "cosmo_cavitation_energy": 57.18, 
			 "cosmo_dispersion_energy": -37.63, 
			 "cosmo_repulsion_energy": 2.87, 
			 "cosmo_total_nonelectrostatic_energy": 22.42, 
			 "SMD_solvation_energy": 13.3 
		},
		"coords": [
			{
				"x": -1.59637367,
				"y": 5.9063456681,
				"z": -5.3390257856,
				"element": "C" 
			},
			{
				"x": -2.5489883781,
				"y": 4.735006154,
				"z": -5.1534582266,
				"element": "C" 
			},
			{
				"x": -1.9763912112,
				"y": 3.7211560292,
				"z": -4.2909019623,
				"element": "O" 
			},
			{
				"x": -2.1509527424,
				"y": 3.8978864296,
				"z": -2.966199421,
				"element": "C" 
			},
			{
				"x": -2.7258338253,
				"y": 4.8509524654,
				"z": -2.4620207503,
				"element": "O" 
			},
			{
				"x": -1.5676487515,
				"y": 2.8242463729,
				"z": -2.1635633772,
				"element": "C" 
			},
			{
				"x": -0.9016213211,
				"y": 1.6541579881,
				"z": -2.4588582343,
				"element": "C" 
			},
			{
				"x": -0.5439256176,
				"y": 1.176640345,
				"z": -3.6990177315,
				"element": "O" 
			},
			{
				"x": -1.5354457315,
				"y": 0.7041803796,
				"z": -4.538176663,
				"element": "C" 
			},
			{
				"x": -0.9275091206,
				"y": 0.3251768798,
				"z": -5.863429767,
				"element": "C" 
			},
			{
				"x": -2.6941897893,
				"y": 0.625139321,
				"z": -4.228575068,
				"element": "O" 
			},
			{
				"x": -0.5540072055,
				"y": 1.0095680334,
				"z": -1.2296829699,
				"element": "C" 
			},
			{
				"x": 0.1190033731,
				"y": -0.1766953651,
				"z": -0.9319827232,
				"element": "C" 
			},
			{
				"x": 0.2803071289,
				"y": -0.4951320202,
				"z": 0.4174157998,
				"element": "C" 
			},
			{
				"x": -0.232789445,
				"y": 0.3703777884,
				"z": 1.4494363325,
				"element": "C" 
			},
			{
				"x": 0.0741289878,
				"y": -0.207545247,
				"z": 2.6538461764,
				"element": "N" 
			},
			{
				"x": 0.7575535944,
				"y": -1.4011939473,
				"z": 2.4531294771,
				"element": "C" 
			},
			{
				"x": 1.1557355976,
				"y": -2.1557801138,
				"z": 3.6408498276,
				"element": "C" 
			},
			{
				"x": 0.9368889827,
				"y": -1.7562962663,
				"z": 4.7741688658,
				"element": "O" 
			},
			{
				"x": 1.7664331713,
				"y": -3.3201427083,
				"z": 3.3515704581,
				"element": "O" 
			},
			{
				"x": 2.2155254456,
				"y": -4.0896604247,
				"z": 4.4916671968,
				"element": "C" 
			},
			{
				"x": 2.952288534,
				"y": -5.3029543898,
				"z": 3.95815294,
				"element": "C" 
			},
			{
				"x": 0.8958359504,
				"y": -1.5947830751,
				"z": 1.095610734,
				"element": "C" 
			},
			{
				"x": 1.4538857333,
				"y": -2.6720277478,
				"z": 0.4452913931,
				"element": "O" 
			},
			{
				"x": 2.8213437911,
				"y": -2.8565602615,
				"z": 0.5137236014,
				"element": "C" 
			},
			{
				"x": 3.1889091604,
				"y": -4.1284374547,
				"z": -0.2054052692,
				"element": "C" 
			},
			{
				"x": 3.5731987078,
				"y": -2.1039398305,
				"z": 1.0736979679,
				"element": "O" 
			},
			{
				"x": -0.9055600614,
				"y": 1.5607728418,
				"z": 1.1740374416,
				"element": "C" 
			},
			{
				"x": -1.0536362821,
				"y": 1.8616069278,
				"z": -0.179942764,
				"element": "C" 
			},
			{
				"x": -1.653905537,
				"y": 2.9375017521,
				"z": -0.7807767956,
				"element": "N" 
			},
			{
				"x": -2.0193125938,
				"y": 6.6174568461,
				"z": -6.0565340703,
				"element": "H" 
			},
			{
				"x": -1.4398849945,
				"y": 6.4273649902,
				"z": -4.391517839,
				"element": "H" 
			},
			{
				"x": -0.629183379,
				"y": 5.5666427017,
				"z": -5.7211033528,
				"element": "H" 
			},
			{
				"x": -2.7342891379,
				"y": 4.2129028881,
				"z": -6.0949229341,
				"element": "H" 
			},
			{
				"x": -3.5001143666,
				"y": 5.0619968102,
				"z": -4.7275898808,
				"element": "H" 
			},
			{
				"x": -0.0677623839,
				"y": -0.3338962293,
				"z": -5.7169646856,
				"element": "H" 
			},
			{
				"x": -0.5662983608,
				"y": 1.2284494862,
				"z": -6.3648545818,
				"element": "H" 
			},
			{
				"x": -1.6800313471,
				"y": -0.1635213608,
				"z": -6.4812413523,
				"element": "H" 
			},
			{
				"x": 0.4998141527,
				"y": -0.8229446276,
				"z": -1.7153337888,
				"element": "H" 
			},
			{
				"x": -0.12125769,
				"y": 0.1402185842,
				"z": 3.5801128522,
				"element": "H" 
			},
			{
				"x": 1.344800418,
				"y": -4.3675237462,
				"z": 5.0941856664,
				"element": "H" 
			},
			{
				"x": 2.8585676967,
				"y": -3.4575552337,
				"z": 5.1111529734,
				"element": "H" 
			},
			{
				"x": 2.2938315128,
				"y": -5.9217522215,
				"z": 3.3411606766,
				"element": "H" 
			},
			{
				"x": 3.3135351269,
				"y": -5.9133211879,
				"z": 4.7915918828,
				"element": "H" 
			},
			{
				"x": 3.8130074406,
				"y": -4.9993101903,
				"z": 3.3554051978,
				"element": "H" 
			},
			{
				"x": 4.2733500823,
				"y": -4.2028508984,
				"z": -0.2788969411,
				"element": "H" 
			},
			{
				"x": 2.7363164566,
				"y": -4.1529072542,
				"z": -1.2000284346,
				"element": "H" 
			},
			{
				"x": 2.797654566,
				"y": -4.9835294282,
				"z": 0.3546526893,
				"element": "H" 
			},
			{
				"x": -1.2867906796,
				"y": 2.2071354601,
				"z": 1.9577239033,
				"element": "H" 
			},
			{
				"x": -2.1232119878,
				"y": 3.7146780871,
				"z": -0.3417786837,
				"element": "H" 
			}
		],
		 "valence_orbital": [ 
			{
				"type": "occ",
				"energy": -0.27795,
				"method": "rhf"
			},
			{
				"type": "occ",
				"energy": -0.27615,
				"method": "rhf"
			},
			{
				"type": "occ",
				"energy": -0.24942,
				"method": "rhf"
			},
			{
				"type": "occ",
				"energy": -0.21979,
				"method": "rhf"
			},
			{
				"type": "occ",
				"energy": -0.19138,
				"method": "rhf"
			},
			{
				"type": "unocc",
				"energy": -0.06315,
				"method": "rhf"
			},
			{
				"type": "unocc",
				"energy": -0.02591,
				"method": "rhf"
			},
			{
				"type": "unocc",
				"energy": 0.00628,
				"method": "rhf"
			},
			{
				"type": "unocc",
				"energy": 0.00687,
				"method": "rhf"
			},
			{
				"type": "unocc",
				"energy": 0.02457,
				"method": "rhf"
			}
		],
		"cosmo_sigma_profile": { 
			"-0.025": 0.0,
			"-0.024": 0.0,
			"-0.023": 0.0,
			"-0.022": 0.0,
			"-0.021": 0.0,
			"-0.02": 0.0,
			"-0.019": 0.0,
			"-0.018": 0.0,
			"-0.017": 0.0,
			"-0.016": 0.0627930284859,
			"-0.015": 1.4783931072,
			"-0.014": 2.0176918122,
			"-0.013": 2.08327433637,
			"-0.012": 1.43930297219,
			"-0.011": 2.05696845342,
			"-0.01": 1.9702936882,
			"-0.009": 2.73293750999,
			"-0.008": 3.27316329669,
			"-0.007": 6.60764876254,
			"-0.006": 18.0157945458,
			"-0.005": 28.8629890545,
			"-0.004": 40.4809234102,
			"-0.003": 46.1853535453,
			"-0.002": 49.4705409615,
			"-0.001": 34.5194346153,
			"0.0": 30.9312001433,
			"0.001": 26.959699347,
			"0.002": 33.2434927549,
			"0.003": 25.0156931639,
			"0.004": 15.6899474762,
			"0.005": 12.3480154579,
			"0.006": 10.2645316148,
			"0.007": 10.1446150459,
			"0.008": 7.4432008891,
			"0.009": 7.59278522036,
			"0.01": 9.02486720413,
			"0.011": 16.1460044068,
			"0.012": 8.16668508948,
			"0.013": 0.143765317229,
			"0.014": 0.0,
			"0.015": 0.0,
			"0.016": 0.0,
			"0.017": 0.0,
			"0.018": 0.0,
			"0.019": 0.0,
			"0.02": 0.0,
			"0.021": 0.0,
			"0.022": 0.0,
			"0.023": 0.0,
			"0.024": 0.0,
			"0.025": 0.0
		}
	}
}
