{
	 "smiles": "CC(C)(Cl)CCC(C)(C)Cl", 
	 "Tm": 340.65, 
	 "num_atms": 26, 
	 "gaussian": { 
		 "optdone": 1, 
		 "sigma_profile": "yes", 
		 "theory": "DFT", 
		 "functional": "B3LYP", 
		 "basiset": "6-31G**", 
		 "properties": { 
			 "R2extent": 3334.3414, 
			 "electric_dipole_moment_norm": 0.0001, 
			 "electric_quadrupole_moment_norm": 18.7822398478, 
			 "total_energy": -1234.91959136, 
			 "HOMO_LUMO_gap": 0.28844, 
			 "cosmo_polarized_energy": -7.47, 
			 "cosmo_cavitation_energy": 29.81, 
			 "cosmo_dispersion_energy": -20.66, 
			 "cosmo_repulsion_energy": 1.67, 
			 "cosmo_total_nonelectrostatic_energy": 10.83, 
			 "SMD_solvation_energy": 4.41 
		},
		"coords": [
			{
				"x": -0.9416817626,
				"y": -2.0476138225,
				"z": 1.8651091017,
				"element": "C" 
			},
			{
				"x": -0.0717778879,
				"y": -0.7920190525,
				"z": 1.7999960223,
				"element": "C" 
			},
			{
				"x": 1.3076795413,
				"y": -1.0885667651,
				"z": 1.2112024243,
				"element": "C" 
			},
			{
				"x": 0.2111684849,
				"y": -0.2519262314,
				"z": 3.5655349393,
				"element": "Cl" 
			},
			{
				"x": -0.7775127811,
				"y": 0.3991288859,
				"z": 1.1192703251,
				"element": "C" 
			},
			{
				"x": -1.1117077763,
				"y": 0.1690010306,
				"z": -0.3681348734,
				"element": "C" 
			},
			{
				"x": -1.8174129929,
				"y": 1.3601612038,
				"z": -1.0488687959,
				"element": "C" 
			},
			{
				"x": -0.947502634,
				"y": 2.6157548807,
				"z": -1.1139185391,
				"element": "C" 
			},
			{
				"x": -3.1968958372,
				"y": 1.656702169,
				"z": -0.4601302774,
				"element": "C" 
			},
			{
				"x": -2.1002817963,
				"y": 0.8201031482,
				"z": -2.8144303944,
				"element": "Cl" 
			},
			{
				"x": -1.1042240375,
				"y": -2.4437586108,
				"z": 0.8567865546,
				"element": "H" 
			},
			{
				"x": -0.4534314838,
				"y": -2.8250244673,
				"z": 2.4576639865,
				"element": "H" 
			},
			{
				"x": -1.9150672805,
				"y": -1.8319227949,
				"z": 2.3136916626,
				"element": "H" 
			},
			{
				"x": 1.932602461,
				"y": -0.1916555833,
				"z": 1.1957881826,
				"element": "H" 
			},
			{
				"x": 1.2056330602,
				"y": -1.4582476585,
				"z": 0.1850311561,
				"element": "H" 
			},
			{
				"x": 1.8201240998,
				"y": -1.8560243089,
				"z": 1.7962595034,
				"element": "H" 
			},
			{
				"x": -1.6929806581,
				"y": 0.609472225,
				"z": 1.6812092236,
				"element": "H" 
			},
			{
				"x": -0.1308479774,
				"y": 1.2756478294,
				"z": 1.2272053202,
				"element": "H" 
			},
			{
				"x": -0.1962400367,
				"y": -0.0413609229,
				"z": -0.9300681316,
				"element": "H" 
			},
			{
				"x": -1.7583874843,
				"y": -0.7075063568,
				"z": -0.4760711928,
				"element": "H" 
			},
			{
				"x": -0.7849959766,
				"y": 3.0118724713,
				"z": -0.1055793534,
				"element": "H" 
			},
			{
				"x": 0.0258984164,
				"y": 2.4000711224,
				"z": -1.562470601,
				"element": "H" 
			},
			{
				"x": -1.43572876,
				"y": 3.3931820611,
				"z": -1.7064714319,
				"element": "H" 
			},
			{
				"x": -3.0948938414,
				"y": 2.0263750465,
				"z": 0.5660482037,
				"element": "H" 
			},
			{
				"x": -3.8218188765,
				"y": 0.7597904984,
				"z": -0.4447500889,
				"element": "H" 
			},
			{
				"x": -3.7093161825,
				"y": 2.4241640027,
				"z": -1.0452029262,
				"element": "H" 
			}
		],
		 "valence_orbital": [ 
			{
				"type": "occ",
				"energy": -0.33631,
				"method": "rhf"
			},
			{
				"type": "occ",
				"energy": -0.29691,
				"method": "rhf"
			},
			{
				"type": "occ",
				"energy": -0.29124,
				"method": "rhf"
			},
			{
				"type": "occ",
				"energy": -0.29085,
				"method": "rhf"
			},
			{
				"type": "occ",
				"energy": -0.2848,
				"method": "rhf"
			},
			{
				"type": "unocc",
				"energy": 0.00364,
				"method": "rhf"
			},
			{
				"type": "unocc",
				"energy": 0.01983,
				"method": "rhf"
			},
			{
				"type": "unocc",
				"energy": 0.07085,
				"method": "rhf"
			},
			{
				"type": "unocc",
				"energy": 0.09425,
				"method": "rhf"
			},
			{
				"type": "unocc",
				"energy": 0.107,
				"method": "rhf"
			}
		],
		"cosmo_sigma_profile": { 
			"-0.025": 0.0,
			"-0.024": 0.0,
			"-0.023": 0.0,
			"-0.022": 0.0,
			"-0.021": 0.0,
			"-0.02": 0.0,
			"-0.019": 0.0,
			"-0.018": 0.0,
			"-0.017": 0.0,
			"-0.016": 0.0,
			"-0.015": 0.0,
			"-0.014": 0.0,
			"-0.013": 0.0,
			"-0.012": 0.0,
			"-0.011": 0.0,
			"-0.01": 0.0,
			"-0.009": 0.0,
			"-0.008": 0.0,
			"-0.007": 0.0,
			"-0.006": 0.45406262091,
			"-0.005": 13.3662129353,
			"-0.004": 32.4777500181,
			"-0.003": 32.0998948788,
			"-0.002": 26.4011912117,
			"-0.001": 26.0972141709,
			"0.0": 23.3853611565,
			"0.001": 9.94141382905,
			"0.002": 8.92132191439,
			"0.003": 7.72517982226,
			"0.004": 9.26617160463,
			"0.005": 8.80190417161,
			"0.006": 13.0873636712,
			"0.007": 18.2558502261,
			"0.008": 4.39304827147,
			"0.009": 0.0,
			"0.01": 0.0,
			"0.011": 0.0,
			"0.012": 0.0,
			"0.013": 0.0,
			"0.014": 0.0,
			"0.015": 0.0,
			"0.016": 0.0,
			"0.017": 0.0,
			"0.018": 0.0,
			"0.019": 0.0,
			"0.02": 0.0,
			"0.021": 0.0,
			"0.022": 0.0,
			"0.023": 0.0,
			"0.024": 0.0,
			"0.025": 0.0
		}
	}
}
