{
	 "smiles": "FS(=O)(=O)CCN1C(=O)C=NC2=C1C=CC=C2", 
	 "Tm": 419.15, 
	 "num_atms": 26, 
	 "gaussian": { 
		 "optdone": 1, 
		 "sigma_profile": "yes", 
		 "theory": "DFT", 
		 "functional": "B3LYP", 
		 "basiset": "6-31G**", 
		 "properties": { 
			 "R2extent": 4323.2457, 
			 "electric_dipole_moment_norm": 3.8694414584, 
			 "electric_quadrupole_moment_norm": 13.8067355128, 
			 "total_energy": -1219.63635403, 
			 "HOMO_LUMO_gap": 0.15942, 
			 "cosmo_polarized_energy": -16.73, 
			 "cosmo_cavitation_energy": 31.12, 
			 "cosmo_dispersion_energy": -23.11, 
			 "cosmo_repulsion_energy": 1.69, 
			 "cosmo_total_nonelectrostatic_energy": 9.7, 
			 "SMD_solvation_energy": 3.66 
		},
		"coords": [
			{
				"x": 1.0665967133,
				"y": -1.2294570942,
				"z": 3.0675370178,
				"element": "F" 
			},
			{
				"x": -0.3828422285,
				"y": -1.8740746327,
				"z": 2.6604492615,
				"element": "S" 
			},
			{
				"x": -0.2048902055,
				"y": -2.461454945,
				"z": 1.346900477,
				"element": "O" 
			},
			{
				"x": -0.8198457096,
				"y": -2.6459861109,
				"z": 3.8067425346,
				"element": "O" 
			},
			{
				"x": -1.303618645,
				"y": -0.3292578609,
				"z": 2.5784513845,
				"element": "C" 
			},
			{
				"x": -0.7259268563,
				"y": 0.7520791337,
				"z": 1.6571107316,
				"element": "C" 
			},
			{
				"x": -0.8489895373,
				"y": 0.4741665649,
				"z": 0.2249675321,
				"element": "N" 
			},
			{
				"x": -2.1434876332,
				"y": 0.6046475164,
				"z": -0.2852448828,
				"element": "C" 
			},
			{
				"x": -3.1000100977,
				"y": 0.8415225362,
				"z": 0.4526584044,
				"element": "O" 
			},
			{
				"x": -2.2532607444,
				"y": 0.4610884685,
				"z": -1.7432717841,
				"element": "C" 
			},
			{
				"x": -1.2653907561,
				"y": 0.2415652124,
				"z": -2.5442838152,
				"element": "N" 
			},
			{
				"x": 0.0017372275,
				"y": 0.1048497762,
				"z": -2.0010328585,
				"element": "C" 
			},
			{
				"x": 0.2450500247,
				"y": 0.199017558,
				"z": -0.6045801226,
				"element": "C" 
			},
			{
				"x": 1.5541998805,
				"y": 0.0147262737,
				"z": -0.1268538527,
				"element": "C" 
			},
			{
				"x": 2.5905420671,
				"y": -0.2280122541,
				"z": -1.0195469501,
				"element": "C" 
			},
			{
				"x": 2.3605357036,
				"y": -0.3005248384,
				"z": -2.4012662133,
				"element": "C" 
			},
			{
				"x": 1.0717905276,
				"y": -0.1417150136,
				"z": -2.8803975363,
				"element": "C" 
			},
			{
				"x": -2.3147488845,
				"y": -0.5979484545,
				"z": 2.2641364285,
				"element": "H" 
			},
			{
				"x": -1.3409153471,
				"y": 0.0341713069,
				"z": 3.608356753,
				"element": "H" 
			},
			{
				"x": -1.3181470528,
				"y": 1.6494579155,
				"z": 1.8571263534,
				"element": "H" 
			},
			{
				"x": 0.3116568901,
				"y": 0.9653413267,
				"z": 1.9030467935,
				"element": "H" 
			},
			{
				"x": -3.2580260632,
				"y": 0.5674595276,
				"z": -2.1480629457,
				"element": "H" 
			},
			{
				"x": 1.7683478602,
				"y": 0.0155342152,
				"z": 0.933847312,
				"element": "H" 
			},
			{
				"x": 3.5932505208,
				"y": -0.3742976099,
				"z": -0.6296136322,
				"element": "H" 
			},
			{
				"x": 3.1822986882,
				"y": -0.4917174616,
				"z": -3.0834022151,
				"element": "H" 
			},
			{
				"x": 0.8383936576,
				"y": -0.2030810561,
				"z": -3.9380741754,
				"element": "H" 
			}
		],
		 "valence_orbital": [ 
			{
				"type": "occ",
				"energy": -0.32448,
				"method": "rhf"
			},
			{
				"type": "occ",
				"energy": -0.30929,
				"method": "rhf"
			},
			{
				"type": "occ",
				"energy": -0.26121,
				"method": "rhf"
			},
			{
				"type": "occ",
				"energy": -0.26083,
				"method": "rhf"
			},
			{
				"type": "occ",
				"energy": -0.23884,
				"method": "rhf"
			},
			{
				"type": "unocc",
				"energy": -0.07942,
				"method": "rhf"
			},
			{
				"type": "unocc",
				"energy": -0.02093,
				"method": "rhf"
			},
			{
				"type": "unocc",
				"energy": -0.00918,
				"method": "rhf"
			},
			{
				"type": "unocc",
				"energy": -0.00068,
				"method": "rhf"
			},
			{
				"type": "unocc",
				"energy": 0.03534,
				"method": "rhf"
			}
		],
		"cosmo_sigma_profile": { 
			"-0.025": 0.0,
			"-0.024": 0.0,
			"-0.023": 0.0,
			"-0.022": 0.0,
			"-0.021": 0.0,
			"-0.02": 0.0,
			"-0.019": 0.0,
			"-0.018": 0.0,
			"-0.017": 0.0,
			"-0.016": 0.0,
			"-0.015": 0.0,
			"-0.014": 0.0,
			"-0.013": 0.0462636882105,
			"-0.012": 0.989019385049,
			"-0.011": 3.22983642253,
			"-0.01": 4.46654948317,
			"-0.009": 6.06117137568,
			"-0.008": 7.73702952882,
			"-0.007": 14.154675253,
			"-0.006": 14.5188669418,
			"-0.005": 14.5076688789,
			"-0.004": 14.9442428843,
			"-0.003": 14.0367722513,
			"-0.002": 12.5684990527,
			"-0.001": 12.0752103234,
			"0.0": 12.3935533938,
			"0.001": 15.1491034859,
			"0.002": 20.3132325333,
			"0.003": 19.0759248434,
			"0.004": 9.73202726381,
			"0.005": 6.30542529447,
			"0.006": 6.41644987325,
			"0.007": 6.39414613772,
			"0.008": 12.6526218611,
			"0.009": 9.87642529556,
			"0.01": 2.50084939977,
			"0.011": 2.33299179683,
			"0.012": 3.71123949978,
			"0.013": 3.29124294945,
			"0.014": 0.83204709196,
			"0.015": 0.0,
			"0.016": 0.0,
			"0.017": 0.0,
			"0.018": 0.0,
			"0.019": 0.0,
			"0.02": 0.0,
			"0.021": 0.0,
			"0.022": 0.0,
			"0.023": 0.0,
			"0.024": 0.0,
			"0.025": 0.0
		}
	}
}
