{
	 "smiles": "CCCCCCCCC1=CC=C(O)C=C1", 
	 "Tm": 318.15, 
	 "num_atms": 37, 
	 "gaussian": { 
		 "optdone": 1, 
		 "sigma_profile": "yes", 
		 "theory": "DFT", 
		 "functional": "B3LYP", 
		 "basiset": "6-31G**", 
		 "properties": { 
			 "R2extent": 6739.7097, 
			 "electric_dipole_moment_norm": 1.32054674662, 
			 "electric_quadrupole_moment_norm": 13.4664283167, 
			 "total_energy": -621.990853738, 
			 "HOMO_LUMO_gap": 0.21187, 
			 "cosmo_polarized_energy": -7.85, 
			 "cosmo_cavitation_energy": 37.79, 
			 "cosmo_dispersion_energy": -26.22, 
			 "cosmo_repulsion_energy": 2.1, 
			 "cosmo_total_nonelectrostatic_energy": 13.67, 
			 "SMD_solvation_energy": 5.73 
		},
		"coords": [
			{
				"x": 1.6982911239,
				"y": -3.537106872,
				"z": 1.680690454,
				"element": "C" 
			},
			{
				"x": 2.5920847737,
				"y": -3.270510279,
				"z": 0.463982764,
				"element": "C" 
			},
			{
				"x": 1.8617189932,
				"y": -2.9783251704,
				"z": -0.8595428008,
				"element": "C" 
			},
			{
				"x": 1.0107991951,
				"y": -1.6882512802,
				"z": -0.9002067589,
				"element": "C" 
			},
			{
				"x": -0.462849809,
				"y": -1.8691218614,
				"z": -0.4992757996,
				"element": "C" 
			},
			{
				"x": -1.3669129098,
				"y": -0.6363169022,
				"z": -0.6853681229,
				"element": "C" 
			},
			{
				"x": -1.0565868632,
				"y": 0.5748199364,
				"z": 0.221316298,
				"element": "C" 
			},
			{
				"x": -0.0812180481,
				"y": 1.6282749044,
				"z": -0.3584732549,
				"element": "C" 
			},
			{
				"x": -0.6163060854,
				"y": 2.3686836286,
				"z": -1.5679328437,
				"element": "C" 
			},
			{
				"x": -0.1419154504,
				"y": 2.1073948333,
				"z": -2.8615225624,
				"element": "C" 
			},
			{
				"x": -0.6419154471,
				"y": 2.7770524806,
				"z": -3.9766701098,
				"element": "C" 
			},
			{
				"x": -1.6428315412,
				"y": 3.7389851287,
				"z": -3.8156964348,
				"element": "C" 
			},
			{
				"x": -2.1018140002,
				"y": 4.3723353354,
				"z": -4.938527323,
				"element": "O" 
			},
			{
				"x": -2.1295260406,
				"y": 4.0208414599,
				"z": -2.5346158026,
				"element": "C" 
			},
			{
				"x": -1.6168837935,
				"y": 3.3403675009,
				"z": -1.4310685162,
				"element": "C" 
			},
			{
				"x": 2.29933088,
				"y": -3.8268201774,
				"z": 2.549455761,
				"element": "H" 
			},
			{
				"x": 1.1206251316,
				"y": -2.6523494044,
				"z": 1.9656576552,
				"element": "H" 
			},
			{
				"x": 0.9880608761,
				"y": -4.3484324698,
				"z": 1.4832878206,
				"element": "H" 
			},
			{
				"x": 3.2421636427,
				"y": -4.1415183799,
				"z": 0.3079630644,
				"element": "H" 
			},
			{
				"x": 3.2651381062,
				"y": -2.4313418446,
				"z": 0.6886464103,
				"element": "H" 
			},
			{
				"x": 2.625517721,
				"y": -2.9165497748,
				"z": -1.6450662672,
				"element": "H" 
			},
			{
				"x": 1.2305842935,
				"y": -3.838459813,
				"z": -1.1255080993,
				"element": "H" 
			},
			{
				"x": 1.4875254121,
				"y": -0.9285474372,
				"z": -0.2667685778,
				"element": "H" 
			},
			{
				"x": 1.0330695211,
				"y": -1.2843551562,
				"z": -1.9215820979,
				"element": "H" 
			},
			{
				"x": -0.8793839117,
				"y": -2.6891149885,
				"z": -1.1008399139,
				"element": "H" 
			},
			{
				"x": -0.5307427091,
				"y": -2.2018675539,
				"z": 0.5440369673,
				"element": "H" 
			},
			{
				"x": -1.3517410443,
				"y": -0.3201929314,
				"z": -1.7367325931,
				"element": "H" 
			},
			{
				"x": -2.3974982176,
				"y": -0.9578904972,
				"z": -0.4898574013,
				"element": "H" 
			},
			{
				"x": -0.659990271,
				"y": 0.2186539724,
				"z": 1.1821587038,
				"element": "H" 
			},
			{
				"x": -1.9952655511,
				"y": 1.0907500471,
				"z": 0.4588849486,
				"element": "H" 
			},
			{
				"x": 0.1441757748,
				"y": 2.3526118694,
				"z": 0.4352697302,
				"element": "H" 
			},
			{
				"x": 0.8710136907,
				"y": 1.1553113298,
				"z": -0.6187239515,
				"element": "H" 
			},
			{
				"x": 0.6418910501,
				"y": 1.366723243,
				"z": -3.0003651566,
				"element": "H" 
			},
			{
				"x": -0.267594775,
				"y": 2.5701449071,
				"z": -4.9739984594,
				"element": "H" 
			},
			{
				"x": -2.7844239783,
				"y": 5.0066090003,
				"z": -4.6845294008,
				"element": "H" 
			},
			{
				"x": -2.9031594799,
				"y": 4.7747456432,
				"z": -2.4001567251,
				"element": "H" 
			},
			{
				"x": -2.0023302589,
				"y": 3.5772675734,
				"z": -0.4419216038,
				"element": "H" 
			}
		],
		 "valence_orbital": [ 
			{
				"type": "occ",
				"energy": -0.30421,
				"method": "rhf"
			},
			{
				"type": "occ",
				"energy": -0.30161,
				"method": "rhf"
			},
			{
				"type": "occ",
				"energy": -0.29577,
				"method": "rhf"
			},
			{
				"type": "occ",
				"energy": -0.24687,
				"method": "rhf"
			},
			{
				"type": "occ",
				"energy": -0.21128,
				"method": "rhf"
			},
			{
				"type": "unocc",
				"energy": 0.00059,
				"method": "rhf"
			},
			{
				"type": "unocc",
				"energy": 0.01764,
				"method": "rhf"
			},
			{
				"type": "unocc",
				"energy": 0.07302,
				"method": "rhf"
			},
			{
				"type": "unocc",
				"energy": 0.0801,
				"method": "rhf"
			},
			{
				"type": "unocc",
				"energy": 0.09668,
				"method": "rhf"
			}
		],
		"cosmo_sigma_profile": { 
			"-0.025": 0.0,
			"-0.024": 0.0,
			"-0.023": 0.0,
			"-0.022": 0.0,
			"-0.021": 0.0,
			"-0.02": 0.0,
			"-0.019": 0.0,
			"-0.018": 0.0152920596752,
			"-0.017": 1.00409562161,
			"-0.016": 0.89238070725,
			"-0.015": 1.15070486497,
			"-0.014": 1.24459668527,
			"-0.013": 0.807541843576,
			"-0.012": 1.13552817761,
			"-0.011": 0.823398295933,
			"-0.01": 1.10985458321,
			"-0.009": 1.12520600955,
			"-0.008": 1.02378475435,
			"-0.007": 1.38412958951,
			"-0.006": 2.32544354845,
			"-0.005": 5.80402702515,
			"-0.004": 7.09432036697,
			"-0.003": 14.5854753761,
			"-0.002": 34.5868790586,
			"-0.001": 48.4318281767,
			"0.0": 52.5580260703,
			"0.001": 42.2052511193,
			"0.002": 23.9530577976,
			"0.003": 9.37964132031,
			"0.004": 9.27019730106,
			"0.005": 9.80272675401,
			"0.006": 10.1706232764,
			"0.007": 3.69336665156,
			"0.008": 1.86179008432,
			"0.009": 0.722378226388,
			"0.01": 1.57224012195,
			"0.011": 1.91061806159,
			"0.012": 1.59722274718,
			"0.013": 0.00981986462074,
			"0.014": 0.0,
			"0.015": 0.0,
			"0.016": 0.0,
			"0.017": 0.0,
			"0.018": 0.0,
			"0.019": 0.0,
			"0.02": 0.0,
			"0.021": 0.0,
			"0.022": 0.0,
			"0.023": 0.0,
			"0.024": 0.0,
			"0.025": 0.0
		}
	}
}
