{
	 "smiles": "CC1=NN=C2CN=C(C3=CC=CC=C3)C3=C(C=CC(Cl)=C3)N12", 
	 "Tm": 502.15, 
	 "num_atms": 35, 
	 "gaussian": { 
		 "optdone": 1, 
		 "sigma_profile": "yes", 
		 "theory": "DFT", 
		 "functional": "B3LYP", 
		 "basiset": "6-31G**", 
		 "properties": { 
			 "R2extent": 7182.5793, 
			 "electric_dipole_moment_norm": 5.23880408681, 
			 "electric_quadrupole_moment_norm": 27.0188091929, 
			 "total_energy": -1334.81603683, 
			 "HOMO_LUMO_gap": 0.17561, 
			 "cosmo_polarized_energy": -19.76, 
			 "cosmo_cavitation_energy": 40.25, 
			 "cosmo_dispersion_energy": -28.43, 
			 "cosmo_repulsion_energy": 2.16, 
			 "cosmo_total_nonelectrostatic_energy": 13.98, 
			 "SMD_solvation_energy": 1.79 
		},
		"coords": [
			{
				"x": -4.4445934183,
				"y": -0.6527700097,
				"z": 0.0260748307,
				"element": "C" 
			},
			{
				"x": -3.6432509012,
				"y": 0.6063266302,
				"z": 0.0403782733,
				"element": "C" 
			},
			{
				"x": -4.0754411759,
				"y": 1.7666327931,
				"z": -0.3914758734,
				"element": "N" 
			},
			{
				"x": -3.0502165567,
				"y": 2.6888101638,
				"z": -0.2694999951,
				"element": "N" 
			},
			{
				"x": -2.0199640914,
				"y": 2.0607605231,
				"z": 0.2276917919,
				"element": "C" 
			},
			{
				"x": -0.6409172462,
				"y": 2.5735192361,
				"z": 0.4744955175,
				"element": "C" 
			},
			{
				"x": 0.2985133227,
				"y": 1.9370546864,
				"z": -0.4516683339,
				"element": "N" 
			},
			{
				"x": 0.5246443023,
				"y": 0.6761388037,
				"z": -0.3584293268,
				"element": "C" 
			},
			{
				"x": 1.4871172269,
				"y": 0.084191726,
				"z": -1.3385145557,
				"element": "C" 
			},
			{
				"x": 1.3993041775,
				"y": -1.2555188067,
				"z": -1.7495868328,
				"element": "C" 
			},
			{
				"x": 2.2795973698,
				"y": -1.7635287752,
				"z": -2.7057282945,
				"element": "C" 
			},
			{
				"x": 3.2639825886,
				"y": -0.943480066,
				"z": -3.2575383123,
				"element": "C" 
			},
			{
				"x": 3.3581003037,
				"y": 0.3925225766,
				"z": -2.856151043,
				"element": "C" 
			},
			{
				"x": 2.4750088577,
				"y": 0.9039232707,
				"z": -1.9100357404,
				"element": "C" 
			},
			{
				"x": -0.0749641031,
				"y": -0.2351111826,
				"z": 0.6772063198,
				"element": "C" 
			},
			{
				"x": -1.439107581,
				"y": -0.20454138,
				"z": 1.0484133389,
				"element": "C" 
			},
			{
				"x": -1.9202087921,
				"y": -1.0773344629,
				"z": 2.0330634262,
				"element": "C" 
			},
			{
				"x": -1.0751835803,
				"y": -1.9868017136,
				"z": 2.6581430759,
				"element": "C" 
			},
			{
				"x": 0.2737302699,
				"y": -2.009329691,
				"z": 2.3036866801,
				"element": "C" 
			},
			{
				"x": 1.3600454023,
				"y": -3.1314292204,
				"z": 3.1008358932,
				"element": "Cl" 
			},
			{
				"x": 0.7684029435,
				"y": -1.1512910243,
				"z": 1.3284751428,
				"element": "C" 
			},
			{
				"x": -2.3225619011,
				"y": 0.7282149931,
				"z": 0.4517004949,
				"element": "N" 
			},
			{
				"x": -3.8596334484,
				"y": -1.5032325235,
				"z": -0.3375347127,
				"element": "H" 
			},
			{
				"x": -4.8370741695,
				"y": -0.912816245,
				"z": 1.0155806237,
				"element": "H" 
			},
			{
				"x": -5.2955534094,
				"y": -0.4962371221,
				"z": -0.6387131649,
				"element": "H" 
			},
			{
				"x": -0.6394791238,
				"y": 3.6500991027,
				"z": 0.2978990987,
				"element": "H" 
			},
			{
				"x": -0.3504741245,
				"y": 2.3944157459,
				"z": 1.5217420338,
				"element": "H" 
			},
			{
				"x": 0.6310115141,
				"y": -1.9005787843,
				"z": -1.3357841221,
				"element": "H" 
			},
			{
				"x": 2.1924065954,
				"y": -2.7994105014,
				"z": -3.0201608445,
				"element": "H" 
			},
			{
				"x": 3.9534662936,
				"y": -1.3410049945,
				"z": -3.9967163866,
				"element": "H" 
			},
			{
				"x": 4.1226830623,
				"y": 1.0357442533,
				"z": -3.2821019235,
				"element": "H" 
			},
			{
				"x": 2.5287791005,
				"y": 1.9414672328,
				"z": -1.5998334984,
				"element": "H" 
			},
			{
				"x": -2.9609110179,
				"y": -1.0243528764,
				"z": 2.3292607778,
				"element": "H" 
			},
			{
				"x": -1.4527706091,
				"y": -2.6549034953,
				"z": 3.4237728479,
				"element": "H" 
			},
			{
				"x": 1.8181119189,
				"y": -1.1882488625,
				"z": 1.0631527938,
				"element": "H" 
			}
		],
		 "valence_orbital": [ 
			{
				"type": "occ",
				"energy": -0.26151,
				"method": "rhf"
			},
			{
				"type": "occ",
				"energy": -0.25916,
				"method": "rhf"
			},
			{
				"type": "occ",
				"energy": -0.24966,
				"method": "rhf"
			},
			{
				"type": "occ",
				"energy": -0.24635,
				"method": "rhf"
			},
			{
				"type": "occ",
				"energy": -0.2453,
				"method": "rhf"
			},
			{
				"type": "unocc",
				"energy": -0.06969,
				"method": "rhf"
			},
			{
				"type": "unocc",
				"energy": -0.0464,
				"method": "rhf"
			},
			{
				"type": "unocc",
				"energy": -0.03465,
				"method": "rhf"
			},
			{
				"type": "unocc",
				"energy": -0.00883,
				"method": "rhf"
			},
			{
				"type": "unocc",
				"energy": 0.01032,
				"method": "rhf"
			}
		],
		"cosmo_sigma_profile": { 
			"-0.025": 0.0,
			"-0.024": 0.0,
			"-0.023": 0.0,
			"-0.022": 0.0,
			"-0.021": 0.0,
			"-0.02": 0.0,
			"-0.019": 0.0,
			"-0.018": 0.0,
			"-0.017": 0.0,
			"-0.016": 0.0,
			"-0.015": 0.0,
			"-0.014": 0.0,
			"-0.013": 0.0,
			"-0.012": 0.0,
			"-0.011": 0.0,
			"-0.01": 0.546005070761,
			"-0.009": 2.43843983388,
			"-0.008": 5.40022570772,
			"-0.007": 9.09694863392,
			"-0.006": 20.7754650639,
			"-0.005": 23.7394766265,
			"-0.004": 31.8068783785,
			"-0.003": 26.8543590344,
			"-0.002": 28.3557567504,
			"-0.001": 22.2040798591,
			"0.0": 24.0374643193,
			"0.001": 23.5353242338,
			"0.002": 16.5859078629,
			"0.003": 19.4996121856,
			"0.004": 23.1617002502,
			"0.005": 12.0869446256,
			"0.006": 3.98951409411,
			"0.007": 3.05557577794,
			"0.008": 2.76799092713,
			"0.009": 2.7935030773,
			"0.01": 2.85510315193,
			"0.011": 3.88169552528,
			"0.012": 2.50747473424,
			"0.013": 3.76601404182,
			"0.014": 3.82264391636,
			"0.015": 2.61465132588,
			"0.016": 2.22531692319,
			"0.017": 1.28542224654,
			"0.018": 0.0,
			"0.019": 0.0,
			"0.02": 0.0,
			"0.021": 0.0,
			"0.022": 0.0,
			"0.023": 0.0,
			"0.024": 0.0,
			"0.025": 0.0
		}
	}
}
