{
	 "smiles": "CC1=CC=C(C=C1Cl)S(N)(=O)=O", 
	 "Tm": 410.15, 
	 "num_atms": 20, 
	 "gaussian": { 
		 "optdone": 1, 
		 "sigma_profile": "yes", 
		 "theory": "DFT", 
		 "functional": "B3LYP", 
		 "basiset": "6-31G**", 
		 "properties": { 
			 "R2extent": 4091.7191, 
			 "electric_dipole_moment_norm": 5.88494498615, 
			 "electric_quadrupole_moment_norm": 25.765020411, 
			 "total_energy": -1335.08228071, 
			 "HOMO_LUMO_gap": 0.21562, 
			 "cosmo_polarized_energy": -17.92, 
			 "cosmo_cavitation_energy": 27.22, 
			 "cosmo_dispersion_energy": -20.52, 
			 "cosmo_repulsion_energy": 1.59, 
			 "cosmo_total_nonelectrostatic_energy": 8.3, 
			 "SMD_solvation_energy": 4.11 
		},
		"coords": [
			{
				"x": 1.7214340725,
				"y": -1.1479053484,
				"z": 0.9176044792,
				"element": "C" 
			},
			{
				"x": 0.5161933674,
				"y": -0.3734812024,
				"z": 0.4545404674,
				"element": "C" 
			},
			{
				"x": 0.4588039791,
				"y": 0.1666829089,
				"z": -0.8385914384,
				"element": "C" 
			},
			{
				"x": -0.6454072016,
				"y": 0.8847229994,
				"z": -1.2923158312,
				"element": "C" 
			},
			{
				"x": -1.726298286,
				"y": 1.0738440848,
				"z": -0.431416984,
				"element": "C" 
			},
			{
				"x": -1.7206148513,
				"y": 0.5437338028,
				"z": 0.8588837518,
				"element": "C" 
			},
			{
				"x": -0.6006901125,
				"y": -0.1669362159,
				"z": 1.2829630086,
				"element": "C" 
			},
			{
				"x": -0.610754422,
				"y": -0.8282892097,
				"z": 2.91241659,
				"element": "Cl" 
			},
			{
				"x": -3.1519008004,
				"y": 2.0260989094,
				"z": -0.9818012585,
				"element": "S" 
			},
			{
				"x": -2.8576127629,
				"y": 3.62643603,
				"z": -0.563279446,
				"element": "N" 
			},
			{
				"x": -3.1526628002,
				"y": 1.9946925699,
				"z": -2.442691934,
				"element": "O" 
			},
			{
				"x": -4.2927539846,
				"y": 1.6103311201,
				"z": -0.1690750981,
				"element": "O" 
			},
			{
				"x": 2.4779194784,
				"y": -1.195053412,
				"z": 0.1310757581,
				"element": "H" 
			},
			{
				"x": 2.1716896311,
				"y": -0.6879492023,
				"z": 1.8036527589,
				"element": "H" 
			},
			{
				"x": 1.4499606332,
				"y": -2.1712633272,
				"z": 1.1974993736,
				"element": "H" 
			},
			{
				"x": 1.3022043152,
				"y": 0.0091884176,
				"z": -1.5048855691,
				"element": "H" 
			},
			{
				"x": -0.6837664124,
				"y": 1.2732103542,
				"z": -2.304079217,
				"element": "H" 
			},
			{
				"x": -2.5807091302,
				"y": 0.6625587207,
				"z": 1.5076395087,
				"element": "H" 
			},
			{
				"x": -2.823987324,
				"y": 3.7763624068,
				"z": 0.4399310039,
				"element": "H" 
			},
			{
				"x": -2.0686473889,
				"y": 4.0296155934,
				"z": -1.0581699239,
				"element": "H" 
			}
		],
		 "valence_orbital": [ 
			{
				"type": "occ",
				"energy": -0.31847,
				"method": "rhf"
			},
			{
				"type": "occ",
				"energy": -0.30855,
				"method": "rhf"
			},
			{
				"type": "occ",
				"energy": -0.30607,
				"method": "rhf"
			},
			{
				"type": "occ",
				"energy": -0.27572,
				"method": "rhf"
			},
			{
				"type": "occ",
				"energy": -0.26342,
				"method": "rhf"
			},
			{
				"type": "unocc",
				"energy": -0.0478,
				"method": "rhf"
			},
			{
				"type": "unocc",
				"energy": -0.03453,
				"method": "rhf"
			},
			{
				"type": "unocc",
				"energy": 0.0133,
				"method": "rhf"
			},
			{
				"type": "unocc",
				"energy": 0.05112,
				"method": "rhf"
			},
			{
				"type": "unocc",
				"energy": 0.07974,
				"method": "rhf"
			}
		],
		"cosmo_sigma_profile": { 
			"-0.025": 0.0,
			"-0.024": 0.0,
			"-0.023": 0.0,
			"-0.022": 0.0,
			"-0.021": 0.0,
			"-0.02": 0.0,
			"-0.019": 0.0,
			"-0.018": 0.0,
			"-0.017": 0.0,
			"-0.016": 0.334207472125,
			"-0.015": 2.36000538631,
			"-0.014": 3.20342075662,
			"-0.013": 1.88673181391,
			"-0.012": 3.50272283548,
			"-0.011": 2.41976859103,
			"-0.01": 2.44186342391,
			"-0.009": 1.99373099374,
			"-0.008": 2.11151473478,
			"-0.007": 8.05036749409,
			"-0.006": 8.85573986061,
			"-0.005": 9.99467898243,
			"-0.004": 10.7996794857,
			"-0.003": 12.051325823,
			"-0.002": 14.4228804639,
			"-0.001": 17.0523402424,
			"0.0": 15.4500035268,
			"0.001": 21.192617177,
			"0.002": 15.2772032318,
			"0.003": 11.2907563884,
			"0.004": 10.0867766098,
			"0.005": 5.57334376255,
			"0.006": 2.91191780248,
			"0.007": 4.01540755238,
			"0.008": 4.94385011557,
			"0.009": 4.18101180153,
			"0.01": 8.17663644553,
			"0.011": 10.5601094188,
			"0.012": 3.67291296217,
			"0.013": 0.128545935038,
			"0.014": 0.0,
			"0.015": 0.0,
			"0.016": 0.0,
			"0.017": 0.0,
			"0.018": 0.0,
			"0.019": 0.0,
			"0.02": 0.0,
			"0.021": 0.0,
			"0.022": 0.0,
			"0.023": 0.0,
			"0.024": 0.0,
			"0.025": 0.0
		}
	}
}
