{
	 "smiles": "CN(C)S(=O)(=O)C1=CC2=C(NC(=O)C(=O)N2)C=C1", 
	 "Tm": 593.15, 
	 "num_atms": 29, 
	 "gaussian": { 
		 "optdone": 1, 
		 "sigma_profile": "yes", 
		 "theory": "DFT", 
		 "functional": "B3LYP", 
		 "basiset": "6-31G**", 
		 "properties": { 
			 "R2extent": 6422.9411, 
			 "electric_dipole_moment_norm": 4.9975269424, 
			 "electric_quadrupole_moment_norm": 40.0282227248, 
			 "total_energy": -1250.9849208, 
			 "HOMO_LUMO_gap": 0.17285, 
			 "cosmo_polarized_energy": -30.94, 
			 "cosmo_cavitation_energy": 34.65, 
			 "cosmo_dispersion_energy": -25.29, 
			 "cosmo_repulsion_energy": 1.88, 
			 "cosmo_total_nonelectrostatic_energy": 11.25, 
			 "SMD_solvation_energy": 5.78 
		},
		"coords": [
			{
				"x": -0.6373433229,
				"y": 0.1108726748,
				"z": -2.6604468201,
				"element": "C" 
			},
			{
				"x": 0.3288188968,
				"y": -0.9767994068,
				"z": -2.4940737383,
				"element": "N" 
			},
			{
				"x": -0.2244315635,
				"y": -2.3269558929,
				"z": -2.6190432609,
				"element": "C" 
			},
			{
				"x": 1.5140090304,
				"y": -0.7552432264,
				"z": -1.3127793734,
				"element": "S" 
			},
			{
				"x": 2.4121399738,
				"y": -1.9062954836,
				"z": -1.4115011497,
				"element": "O" 
			},
			{
				"x": 1.983616402,
				"y": 0.6240595101,
				"z": -1.4577035597,
				"element": "O" 
			},
			{
				"x": 0.6919591449,
				"y": -0.863528826,
				"z": 0.2829407877,
				"element": "C" 
			},
			{
				"x": 0.2082389809,
				"y": 0.303175297,
				"z": 0.8750169508,
				"element": "C" 
			},
			{
				"x": -0.4602422771,
				"y": 0.2259046682,
				"z": 2.0974617476,
				"element": "C" 
			},
			{
				"x": -0.6431645762,
				"y": -1.0260450681,
				"z": 2.718572188,
				"element": "C" 
			},
			{
				"x": -1.3151170153,
				"y": -1.0612192467,
				"z": 3.9359730281,
				"element": "N" 
			},
			{
				"x": -1.835648187,
				"y": 0.0249209445,
				"z": 4.6204371552,
				"element": "C" 
			},
			{
				"x": -2.4135507355,
				"y": -0.0904890081,
				"z": 5.6806652641,
				"element": "O" 
			},
			{
				"x": -1.6310929435,
				"y": 1.3884894476,
				"z": 3.9475642252,
				"element": "C" 
			},
			{
				"x": -2.036513053,
				"y": 2.4177244586,
				"z": 4.4460401474,
				"element": "O" 
			},
			{
				"x": -0.9559865886,
				"y": 1.3589638147,
				"z": 2.7405149885,
				"element": "N" 
			},
			{
				"x": -0.1435883974,
				"y": -2.1846043258,
				"z": 2.1136572463,
				"element": "C" 
			},
			{
				"x": 0.5254249952,
				"y": -2.1095941174,
				"z": 0.8964023619,
				"element": "C" 
			},
			{
				"x": -0.1138323544,
				"y": 1.0661519684,
				"z": -2.6375589942,
				"element": "H" 
			},
			{
				"x": -1.4267063452,
				"y": 0.1014044736,
				"z": -1.8926679749,
				"element": "H" 
			},
			{
				"x": -1.1081070274,
				"y": -0.0028563327,
				"z": -3.6410701902,
				"element": "H" 
			},
			{
				"x": 0.5837671591,
				"y": -3.0554933219,
				"z": -2.5622139771,
				"element": "H" 
			},
			{
				"x": -0.6962940314,
				"y": -2.4085122297,
				"z": -3.6023760238,
				"element": "H" 
			},
			{
				"x": -0.9804445377,
				"y": -2.5506699029,
				"z": -1.8503981368,
				"element": "H" 
			},
			{
				"x": 0.3832885532,
				"y": 1.2633225746,
				"z": 0.400857001,
				"element": "H" 
			},
			{
				"x": -1.4523501847,
				"y": -1.9524291914,
				"z": 4.3989463473,
				"element": "H" 
			},
			{
				"x": -0.8200761682,
				"y": 2.2675137515,
				"z": 2.3121984567,
				"element": "H" 
			},
			{
				"x": -0.2734472724,
				"y": -3.1424410416,
				"z": 2.6091093747,
				"element": "H" 
			},
			{
				"x": 0.943673445,
				"y": -2.9984269616,
				"z": 0.4391759287,
				"element": "H" 
			}
		],
		 "valence_orbital": [ 
			{
				"type": "occ",
				"energy": -0.30415,
				"method": "rhf"
			},
			{
				"type": "occ",
				"energy": -0.27884,
				"method": "rhf"
			},
			{
				"type": "occ",
				"energy": -0.27442,
				"method": "rhf"
			},
			{
				"type": "occ",
				"energy": -0.26677,
				"method": "rhf"
			},
			{
				"type": "occ",
				"energy": -0.24222,
				"method": "rhf"
			},
			{
				"type": "unocc",
				"energy": -0.06937,
				"method": "rhf"
			},
			{
				"type": "unocc",
				"energy": -0.04736,
				"method": "rhf"
			},
			{
				"type": "unocc",
				"energy": -0.03251,
				"method": "rhf"
			},
			{
				"type": "unocc",
				"energy": 0.04502,
				"method": "rhf"
			},
			{
				"type": "unocc",
				"energy": 0.05784,
				"method": "rhf"
			}
		],
		"cosmo_sigma_profile": { 
			"-0.025": 0.0,
			"-0.024": 0.0,
			"-0.023": 0.0,
			"-0.022": 0.0,
			"-0.021": 0.0,
			"-0.02": 0.0,
			"-0.019": 0.0,
			"-0.018": 0.0,
			"-0.017": 0.888715537255,
			"-0.016": 3.42647576607,
			"-0.015": 3.11562301774,
			"-0.014": 2.66076170375,
			"-0.013": 2.65805347704,
			"-0.012": 1.95049752623,
			"-0.011": 1.71046911037,
			"-0.01": 2.82859493299,
			"-0.009": 3.15706154072,
			"-0.008": 6.13180023652,
			"-0.007": 7.59803246483,
			"-0.006": 12.8075869763,
			"-0.005": 15.8252493211,
			"-0.004": 22.9271840273,
			"-0.003": 29.1311990581,
			"-0.002": 26.5017778419,
			"-0.001": 12.8188099053,
			"0.0": 13.1362294106,
			"0.001": 10.840275228,
			"0.002": 9.95334272681,
			"0.003": 5.03943023482,
			"0.004": 5.21130835753,
			"0.005": 7.09778682327,
			"0.006": 5.63210138968,
			"0.007": 6.19064493389,
			"0.008": 5.35360759279,
			"0.009": 7.79002864795,
			"0.01": 10.410311095,
			"0.011": 15.1637230338,
			"0.012": 12.5378449171,
			"0.013": 3.10012973485,
			"0.014": 2.10830859942,
			"0.015": 0.452461129158,
			"0.016": 0.0,
			"0.017": 0.0,
			"0.018": 0.0,
			"0.019": 0.0,
			"0.02": 0.0,
			"0.021": 0.0,
			"0.022": 0.0,
			"0.023": 0.0,
			"0.024": 0.0,
			"0.025": 0.0
		}
	}
}
