{
	 "smiles": "OC(=O)CCNS(=O)(=O)C1=CC=CC=C1", 
	 "Tm": 385.15, 
	 "num_atms": 26, 
	 "gaussian": { 
		 "optdone": 1, 
		 "sigma_profile": "yes", 
		 "theory": "DFT", 
		 "functional": "B3LYP", 
		 "basiset": "6-31G**", 
		 "properties": { 
			 "R2extent": 3736.2706, 
			 "electric_dipole_moment_norm": 2.32932628887, 
			 "electric_quadrupole_moment_norm": 30.9825261598, 
			 "total_energy": -1103.36369704, 
			 "HOMO_LUMO_gap": 0.20794, 
			 "cosmo_polarized_energy": -22.92, 
			 "cosmo_cavitation_energy": 31.59, 
			 "cosmo_dispersion_energy": -22.43, 
			 "cosmo_repulsion_energy": 1.73, 
			 "cosmo_total_nonelectrostatic_energy": 10.88, 
			 "SMD_solvation_energy": 5.62 
		},
		"coords": [
			{
				"x": -1.6571926798,
				"y": 1.8968876761,
				"z": 1.3277029024,
				"element": "O" 
			},
			{
				"x": -0.7525324111,
				"y": 2.8872464062,
				"z": 1.4627095333,
				"element": "C" 
			},
			{
				"x": -0.6871448865,
				"y": 3.5510565439,
				"z": 2.4688309894,
				"element": "O" 
			},
			{
				"x": 0.1579754707,
				"y": 3.1388955944,
				"z": 0.2538585218,
				"element": "C" 
			},
			{
				"x": 0.6072670502,
				"y": 1.8912293352,
				"z": -0.5178620012,
				"element": "C" 
			},
			{
				"x": -0.566058717,
				"y": 1.2312493332,
				"z": -1.1383650626,
				"element": "N" 
			},
			{
				"x": -0.2899212154,
				"y": -0.3077548116,
				"z": -1.8668812698,
				"element": "S" 
			},
			{
				"x": -1.4390182564,
				"y": -0.4827368222,
				"z": -2.7565599758,
				"element": "O" 
			},
			{
				"x": 1.0868791015,
				"y": -0.3774586173,
				"z": -2.3654039274,
				"element": "O" 
			},
			{
				"x": -0.4316321794,
				"y": -1.4051162903,
				"z": -0.4611710061,
				"element": "C" 
			},
			{
				"x": -1.6978882757,
				"y": -1.6691012101,
				"z": 0.0691210412,
				"element": "C" 
			},
			{
				"x": -1.8008091401,
				"y": -2.5275365851,
				"z": 1.1614692579,
				"element": "C" 
			},
			{
				"x": -0.6527376761,
				"y": -3.1130123917,
				"z": 1.7041722463,
				"element": "C" 
			},
			{
				"x": 0.6032817886,
				"y": -2.8491304761,
				"z": 1.1553955444,
				"element": "C" 
			},
			{
				"x": 0.7229963966,
				"y": -1.9894049178,
				"z": 0.0619431532,
				"element": "C" 
			},
			{
				"x": -1.5462034255,
				"y": 1.4691872781,
				"z": 0.4499123976,
				"element": "H" 
			},
			{
				"x": 1.0329305367,
				"y": 3.6774181593,
				"z": 0.6240769268,
				"element": "H" 
			},
			{
				"x": -0.3670166725,
				"y": 3.8260408311,
				"z": -0.4246169852,
				"element": "H" 
			},
			{
				"x": 1.0609898788,
				"y": 1.1702421027,
				"z": 0.1693330693,
				"element": "H" 
			},
			{
				"x": 1.3632744494,
				"y": 2.1507849933,
				"z": -1.2660408078,
				"element": "H" 
			},
			{
				"x": -0.9895214256,
				"y": 1.8021462895,
				"z": -1.8723265943,
				"element": "H" 
			},
			{
				"x": -2.580680176,
				"y": -1.2212892773,
				"z": -0.3746877378,
				"element": "H" 
			},
			{
				"x": -2.7758566132,
				"y": -2.7418292594,
				"z": 1.587296742,
				"element": "H" 
			},
			{
				"x": -0.7401942775,
				"y": -3.7809181054,
				"z": 2.5558140034,
				"element": "H" 
			},
			{
				"x": 1.4907534372,
				"y": -3.3129477307,
				"z": 1.5744278893,
				"element": "H" 
			},
			{
				"x": 1.6851599182,
				"y": -1.7801480481,
				"z": -0.3921488505,
				"element": "H" 
			}
		],
		 "valence_orbital": [ 
			{
				"type": "occ",
				"energy": -0.30655,
				"method": "rhf"
			},
			{
				"type": "occ",
				"energy": -0.30479,
				"method": "rhf"
			},
			{
				"type": "occ",
				"energy": -0.28514,
				"method": "rhf"
			},
			{
				"type": "occ",
				"energy": -0.28236,
				"method": "rhf"
			},
			{
				"type": "occ",
				"energy": -0.26341,
				"method": "rhf"
			},
			{
				"type": "unocc",
				"energy": -0.05547,
				"method": "rhf"
			},
			{
				"type": "unocc",
				"energy": -0.03441,
				"method": "rhf"
			},
			{
				"type": "unocc",
				"energy": 0.01206,
				"method": "rhf"
			},
			{
				"type": "unocc",
				"energy": 0.03519,
				"method": "rhf"
			},
			{
				"type": "unocc",
				"energy": 0.06321,
				"method": "rhf"
			}
		],
		"cosmo_sigma_profile": { 
			"-0.025": 0.0,
			"-0.024": 0.0,
			"-0.023": 0.0,
			"-0.022": 0.0,
			"-0.021": 0.0,
			"-0.02": 0.0,
			"-0.019": 0.0,
			"-0.018": 0.0,
			"-0.017": 0.0,
			"-0.016": 0.140823303475,
			"-0.015": 1.56456443679,
			"-0.014": 1.21098166226,
			"-0.013": 2.03924080093,
			"-0.012": 1.52354917067,
			"-0.011": 2.10876635112,
			"-0.01": 1.53968393051,
			"-0.009": 1.67036668635,
			"-0.008": 5.23564380468,
			"-0.007": 17.7470154435,
			"-0.006": 25.245836291,
			"-0.005": 22.0851022299,
			"-0.004": 15.1131193007,
			"-0.003": 12.1325123201,
			"-0.002": 11.6696137152,
			"-0.001": 9.41545783331,
			"0.0": 11.9413338188,
			"0.001": 13.9712166558,
			"0.002": 14.5347609709,
			"0.003": 12.8560934893,
			"0.004": 3.82795142558,
			"0.005": 4.58530325224,
			"0.006": 5.72230685924,
			"0.007": 4.80175703683,
			"0.008": 4.56699396203,
			"0.009": 7.8663633202,
			"0.01": 12.7360780636,
			"0.011": 11.6673126119,
			"0.012": 7.34781579208,
			"0.013": 3.81589772365,
			"0.014": 0.690913536475,
			"0.015": 0.0,
			"0.016": 0.0,
			"0.017": 0.0,
			"0.018": 0.0,
			"0.019": 0.0,
			"0.02": 0.0,
			"0.021": 0.0,
			"0.022": 0.0,
			"0.023": 0.0,
			"0.024": 0.0,
			"0.025": 0.0
		}
	}
}
