{
	 "smiles": "CC=C(C)/C=C/C=C(C)C", 
	 "Tm": 237.75, 
	 "num_atms": 26, 
	 "gaussian": { 
		 "optdone": 1, 
		 "sigma_profile": "yes", 
		 "theory": "DFT", 
		 "functional": "B3LYP", 
		 "basiset": "6-31G**", 
		 "properties": { 
			 "R2extent": 2786.4884, 
			 "electric_dipole_moment_norm": 0.480902173004, 
			 "electric_quadrupole_moment_norm": 4.09891010392, 
			 "total_energy": -390.678374104, 
			 "HOMO_LUMO_gap": 0.16418, 
			 "cosmo_polarized_energy": -3.26, 
			 "cosmo_cavitation_energy": 28.3, 
			 "cosmo_dispersion_energy": -19.91, 
			 "cosmo_repulsion_energy": 1.64, 
			 "cosmo_total_nonelectrostatic_energy": 10.03, 
			 "SMD_solvation_energy": 5.47 
		},
		"coords": [
			{
				"x": -2.5517276432,
				"y": -0.5874906402,
				"z": -1.7754592342,
				"element": "C" 
			},
			{
				"x": -2.0419865933,
				"y": -0.9714923663,
				"z": -0.4168922514,
				"element": "C" 
			},
			{
				"x": -1.0625147387,
				"y": -0.3941155068,
				"z": 0.3170308607,
				"element": "C" 
			},
			{
				"x": -0.7198666461,
				"y": -0.9639847554,
				"z": 1.6764344131,
				"element": "C" 
			},
			{
				"x": -0.3088770683,
				"y": 0.7690067218,
				"z": -0.1491369075,
				"element": "C" 
			},
			{
				"x": 0.6614261803,
				"y": 1.4059317054,
				"z": 0.5482387662,
				"element": "C" 
			},
			{
				"x": 1.438673568,
				"y": 2.5703848789,
				"z": 0.130394933,
				"element": "C" 
			},
			{
				"x": 1.8807770633,
				"y": 2.9181723671,
				"z": -1.0986931358,
				"element": "C" 
			},
			{
				"x": 1.6888412993,
				"y": 2.0919049883,
				"z": -2.3449865188,
				"element": "C" 
			},
			{
				"x": 2.6544671957,
				"y": 4.1979241084,
				"z": -1.2954890028,
				"element": "C" 
			},
			{
				"x": -2.0482818894,
				"y": 0.2808020842,
				"z": -2.2046788916,
				"element": "H" 
			},
			{
				"x": -3.6257078342,
				"y": -0.3624809263,
				"z": -1.7357171725,
				"element": "H" 
			},
			{
				"x": -2.4377650712,
				"y": -1.4208879848,
				"z": -2.4813317412,
				"element": "H" 
			},
			{
				"x": -2.5410023911,
				"y": -1.8361862465,
				"z": 0.0207683672,
				"element": "H" 
			},
			{
				"x": 0.3305558228,
				"y": -1.2748092513,
				"z": 1.7267788669,
				"element": "H" 
			},
			{
				"x": -1.341095114,
				"y": -1.8329607791,
				"z": 1.9071983137,
				"element": "H" 
			},
			{
				"x": -0.8703184596,
				"y": -0.2223446293,
				"z": 2.4704665572,
				"element": "H" 
			},
			{
				"x": -0.5777207548,
				"y": 1.1625694542,
				"z": -1.1237966483,
				"element": "H" 
			},
			{
				"x": 0.8772888496,
				"y": 1.0625953229,
				"z": 1.5592904374,
				"element": "H" 
			},
			{
				"x": 1.7275264391,
				"y": 3.2289268749,
				"z": 0.9509509499,
				"element": "H" 
			},
			{
				"x": 1.4545658454,
				"y": 1.0498518928,
				"z": -2.1165621743,
				"element": "H" 
			},
			{
				"x": 0.8762789484,
				"y": 2.4880706848,
				"z": -2.9699412524,
				"element": "H" 
			},
			{
				"x": 2.5946343269,
				"y": 2.118671832,
				"z": -2.9632243203,
				"element": "H" 
			},
			{
				"x": 2.1551639201,
				"y": 4.8511176898,
				"z": -2.0243558825,
				"element": "H" 
			},
			{
				"x": 3.6558612763,
				"y": 3.9964453683,
				"z": -1.6997386845,
				"element": "H" 
			},
			{
				"x": 2.7672034686,
				"y": 4.758177112,
				"z": -0.3632486471,
				"element": "H" 
			}
		],
		 "valence_orbital": [ 
			{
				"type": "occ",
				"energy": -0.33777,
				"method": "rhf"
			},
			{
				"type": "occ",
				"energy": -0.31661,
				"method": "rhf"
			},
			{
				"type": "occ",
				"energy": -0.2995,
				"method": "rhf"
			},
			{
				"type": "occ",
				"energy": -0.25057,
				"method": "rhf"
			},
			{
				"type": "occ",
				"energy": -0.19363,
				"method": "rhf"
			},
			{
				"type": "unocc",
				"energy": -0.02945,
				"method": "rhf"
			},
			{
				"type": "unocc",
				"energy": 0.04931,
				"method": "rhf"
			},
			{
				"type": "unocc",
				"energy": 0.09578,
				"method": "rhf"
			},
			{
				"type": "unocc",
				"energy": 0.10092,
				"method": "rhf"
			},
			{
				"type": "unocc",
				"energy": 0.10682,
				"method": "rhf"
			}
		],
		"cosmo_sigma_profile": { 
			"-0.025": 0.0,
			"-0.024": 0.0,
			"-0.023": 0.0,
			"-0.022": 0.0,
			"-0.021": 0.0,
			"-0.02": 0.0,
			"-0.019": 0.0,
			"-0.018": 0.0,
			"-0.017": 0.0,
			"-0.016": 0.0,
			"-0.015": 0.0,
			"-0.014": 0.0,
			"-0.013": 0.0,
			"-0.012": 0.0,
			"-0.011": 0.0,
			"-0.01": 0.0,
			"-0.009": 0.0,
			"-0.008": 0.0,
			"-0.007": 0.0,
			"-0.006": 0.134941420456,
			"-0.005": 1.38398741731,
			"-0.004": 13.9880362958,
			"-0.003": 31.6886536616,
			"-0.002": 30.9452397285,
			"-0.001": 30.5282002133,
			"0.0": 32.9428119794,
			"0.001": 26.0632112155,
			"0.002": 12.2539220125,
			"0.003": 9.39119384355,
			"0.004": 8.9791660629,
			"0.005": 9.90619562494,
			"0.006": 9.70024947153,
			"0.007": 3.60399870681,
			"0.008": 0.0275489869337,
			"0.009": 0.0,
			"0.01": 0.0,
			"0.011": 0.0,
			"0.012": 0.0,
			"0.013": 0.0,
			"0.014": 0.0,
			"0.015": 0.0,
			"0.016": 0.0,
			"0.017": 0.0,
			"0.018": 0.0,
			"0.019": 0.0,
			"0.02": 0.0,
			"0.021": 0.0,
			"0.022": 0.0,
			"0.023": 0.0,
			"0.024": 0.0,
			"0.025": 0.0
		}
	}
}
