{
	 "smiles": "OC(=O)C1=CC=C(CC2=NN=CN2)C=C1", 
	 "Tm": 493.15, 
	 "num_atms": 24, 
	 "gaussian": { 
		 "optdone": 1, 
		 "sigma_profile": "yes", 
		 "theory": "DFT", 
		 "functional": "B3LYP", 
		 "basiset": "6-31G**", 
		 "properties": { 
			 "R2extent": 5054.7737, 
			 "electric_dipole_moment_norm": 5.74572853692, 
			 "electric_quadrupole_moment_norm": 23.9018498535, 
			 "total_energy": -701.190302258, 
			 "HOMO_LUMO_gap": 0.19569, 
			 "cosmo_polarized_energy": -25.49, 
			 "cosmo_cavitation_energy": 29.74, 
			 "cosmo_dispersion_energy": -21.26, 
			 "cosmo_repulsion_energy": 1.66, 
			 "cosmo_total_nonelectrostatic_energy": 10.14, 
			 "SMD_solvation_energy": 4.47 
		},
		"coords": [
			{
				"x": 3.7720407308,
				"y": -1.827973031,
				"z": 0.2031174456,
				"element": "O" 
			},
			{
				"x": 2.4723692578,
				"y": -1.908664368,
				"z": 0.5857382228,
				"element": "C" 
			},
			{
				"x": 2.1458614581,
				"y": -2.3375242413,
				"z": 1.6747290286,
				"element": "O" 
			},
			{
				"x": 1.5277028996,
				"y": -1.4233803235,
				"z": -0.4544188748,
				"element": "C" 
			},
			{
				"x": 1.9625795037,
				"y": -0.9372523808,
				"z": -1.6928763206,
				"element": "C" 
			},
			{
				"x": 1.0306457382,
				"y": -0.4937658374,
				"z": -2.6308571775,
				"element": "C" 
			},
			{
				"x": -0.3412594094,
				"y": -0.5293608824,
				"z": -2.3534574156,
				"element": "C" 
			},
			{
				"x": -1.3559136082,
				"y": -0.0474326153,
				"z": -3.3770011864,
				"element": "C" 
			},
			{
				"x": -2.2126772214,
				"y": 1.0810521513,
				"z": -2.8885715686,
				"element": "C" 
			},
			{
				"x": -3.5261945882,
				"y": 1.1028886893,
				"z": -2.8814902122,
				"element": "N" 
			},
			{
				"x": -3.9273829681,
				"y": 2.3237955254,
				"z": -2.366222854,
				"element": "N" 
			},
			{
				"x": -2.8425667816,
				"y": 2.996056311,
				"z": -2.0755327951,
				"element": "C" 
			},
			{
				"x": -1.7285843434,
				"y": 2.2635596123,
				"z": -2.3871660134,
				"element": "N" 
			},
			{
				"x": -0.7680573181,
				"y": -1.0182161478,
				"z": -1.1080460658,
				"element": "C" 
			},
			{
				"x": 0.1546778812,
				"y": -1.4617677316,
				"z": -0.168754797,
				"element": "C" 
			},
			{
				"x": 4.2882522731,
				"y": -2.1700747485,
				"z": 0.9513462335,
				"element": "H" 
			},
			{
				"x": 3.0228625676,
				"y": -0.908769017,
				"z": -1.9169852281,
				"element": "H" 
			},
			{
				"x": 1.3738524758,
				"y": -0.1235758586,
				"z": -3.593775871,
				"element": "H" 
			},
			{
				"x": -0.8367599361,
				"y": 0.2477660328,
				"z": -4.2971315468,
				"element": "H" 
			},
			{
				"x": -2.0442695448,
				"y": -0.8545269284,
				"z": -3.6473370968,
				"element": "H" 
			},
			{
				"x": -2.8052224861,
				"y": 3.9884985232,
				"z": -1.6496323906,
				"element": "H" 
			},
			{
				"x": -0.762268243,
				"y": 2.511071111,
				"z": -2.2341761669,
				"element": "H" 
			},
			{
				"x": -1.8305235236,
				"y": -1.0465974475,
				"z": -0.8815737487,
				"element": "H" 
			},
			{
				"x": -0.1645648137,
				"y": -1.8442063973,
				"z": 0.7948763995,
				"element": "H" 
			}
		],
		 "valence_orbital": [ 
			{
				"type": "occ",
				"energy": -0.28314,
				"method": "rhf"
			},
			{
				"type": "occ",
				"energy": -0.27236,
				"method": "rhf"
			},
			{
				"type": "occ",
				"energy": -0.27011,
				"method": "rhf"
			},
			{
				"type": "occ",
				"energy": -0.25674,
				"method": "rhf"
			},
			{
				"type": "occ",
				"energy": -0.25376,
				"method": "rhf"
			},
			{
				"type": "unocc",
				"energy": -0.05807,
				"method": "rhf"
			},
			{
				"type": "unocc",
				"energy": -0.02255,
				"method": "rhf"
			},
			{
				"type": "unocc",
				"energy": 0.01198,
				"method": "rhf"
			},
			{
				"type": "unocc",
				"energy": 0.04086,
				"method": "rhf"
			},
			{
				"type": "unocc",
				"energy": 0.04773,
				"method": "rhf"
			}
		],
		"cosmo_sigma_profile": { 
			"-0.025": 0.0,
			"-0.024": 0.0,
			"-0.023": 0.0,
			"-0.022": 0.0,
			"-0.021": 0.0,
			"-0.02": 0.0,
			"-0.019": 0.00936861690951,
			"-0.018": 0.685457593353,
			"-0.017": 2.64051164604,
			"-0.016": 1.73163011873,
			"-0.015": 1.93578106868,
			"-0.014": 1.95601524709,
			"-0.013": 1.79793325727,
			"-0.012": 2.27365582542,
			"-0.011": 2.73700586649,
			"-0.01": 4.21165296737,
			"-0.009": 3.98379016254,
			"-0.008": 3.84104445371,
			"-0.007": 8.66013880711,
			"-0.006": 12.351531847,
			"-0.005": 14.1908183126,
			"-0.004": 13.0794704105,
			"-0.003": 12.9719134196,
			"-0.002": 14.836150289,
			"-0.001": 13.1124171421,
			"0.0": 15.8606550499,
			"0.001": 14.1908329473,
			"0.002": 14.0883842406,
			"0.003": 16.9502259067,
			"0.004": 8.20537292767,
			"0.005": 3.76539152216,
			"0.006": 3.95683026104,
			"0.007": 5.25506488561,
			"0.008": 4.72692135327,
			"0.009": 3.48992902857,
			"0.01": 3.06940524363,
			"0.011": 6.83868983484,
			"0.012": 6.43189511955,
			"0.013": 2.85436575932,
			"0.014": 3.31516345792,
			"0.015": 3.36755683427,
			"0.016": 2.37089766912,
			"0.017": 1.99077861153,
			"0.018": 0.224182147622,
			"0.019": 0.0,
			"0.02": 0.0,
			"0.021": 0.0,
			"0.022": 0.0,
			"0.023": 0.0,
			"0.024": 0.0,
			"0.025": 0.0
		}
	}
}
