{
	 "smiles": "CNS(=O)(=O)CC1=C(CN)C=CC=C1", 
	 "Tm": 404.15, 
	 "num_atms": 28, 
	 "gaussian": { 
		 "optdone": 1, 
		 "sigma_profile": "yes", 
		 "theory": "DFT", 
		 "functional": "B3LYP", 
		 "basiset": "6-31G**", 
		 "properties": { 
			 "R2extent": 3857.0521, 
			 "electric_dipole_moment_norm": 4.93767066743, 
			 "electric_quadrupole_moment_norm": 15.1789939914, 
			 "total_energy": -1009.46303852, 
			 "HOMO_LUMO_gap": 0.20828, 
			 "cosmo_polarized_energy": -18.68, 
			 "cosmo_cavitation_energy": 31.95, 
			 "cosmo_dispersion_energy": -22.76, 
			 "cosmo_repulsion_energy": 1.77, 
			 "cosmo_total_nonelectrostatic_energy": 10.96, 
			 "SMD_solvation_energy": 3.22 
		},
		"coords": [
			{
				"x": 3.0139815278,
				"y": -1.1467976989,
				"z": 0.9075003276,
				"element": "C" 
			},
			{
				"x": 1.5951373187,
				"y": -1.1474944877,
				"z": 0.5230951357,
				"element": "N" 
			},
			{
				"x": 0.4431504628,
				"y": -1.2993631009,
				"z": 1.7547407107,
				"element": "S" 
			},
			{
				"x": 1.1325927639,
				"y": -1.1857879557,
				"z": 3.0451221727,
				"element": "O" 
			},
			{
				"x": -0.4023467273,
				"y": -2.456732319,
				"z": 1.4327297832,
				"element": "O" 
			},
			{
				"x": -0.5638837915,
				"y": 0.2199412489,
				"z": 1.5657421948,
				"element": "C" 
			},
			{
				"x": -1.2860394867,
				"y": 0.3420685381,
				"z": 0.2494063767,
				"element": "C" 
			},
			{
				"x": -2.5768285644,
				"y": -0.1945072795,
				"z": 0.0470329104,
				"element": "C" 
			},
			{
				"x": -3.3791688211,
				"y": -0.8694602565,
				"z": 1.1525652355,
				"element": "C" 
			},
			{
				"x": -4.1735659829,
				"y": 0.0396117027,
				"z": 1.9969553615,
				"element": "N" 
			},
			{
				"x": -3.1681215818,
				"y": -0.0431199313,
				"z": -1.2149942813,
				"element": "C" 
			},
			{
				"x": -2.5192163439,
				"y": 0.6176337328,
				"z": -2.2570785412,
				"element": "C" 
			},
			{
				"x": -1.2456986516,
				"y": 1.1476096541,
				"z": -2.0500709308,
				"element": "C" 
			},
			{
				"x": -0.639005114,
				"y": 1.0046081637,
				"z": -0.803990198,
				"element": "C" 
			},
			{
				"x": 3.3645187708,
				"y": -2.109176865,
				"z": 1.2973866285,
				"element": "H" 
			},
			{
				"x": 3.5969484378,
				"y": -0.8829412093,
				"z": 0.0211389294,
				"element": "H" 
			},
			{
				"x": 3.1792990944,
				"y": -0.3874874601,
				"z": 1.6721202883,
				"element": "H" 
			},
			{
				"x": 1.3658646708,
				"y": -1.8234423047,
				"z": -0.2000411682,
				"element": "H" 
			},
			{
				"x": 0.1441138568,
				"y": 1.0368355737,
				"z": 1.7222831791,
				"element": "H" 
			},
			{
				"x": -1.2301874003,
				"y": 0.1808655304,
				"z": 2.4305496419,
				"element": "H" 
			},
			{
				"x": -4.0746963115,
				"y": -1.5790214788,
				"z": 0.6916678566,
				"element": "H" 
			},
			{
				"x": -2.7286971959,
				"y": -1.4645514122,
				"z": 1.7972067265,
				"element": "H" 
			},
			{
				"x": -4.7608043072,
				"y": 0.6231741059,
				"z": 1.4041957007,
				"element": "H" 
			},
			{
				"x": -3.5604821172,
				"y": 0.6836292514,
				"z": 2.4925953807,
				"element": "H" 
			},
			{
				"x": -4.1587598741,
				"y": -0.4609438995,
				"z": -1.3801907136,
				"element": "H" 
			},
			{
				"x": -3.0040690348,
				"y": 0.7158149964,
				"z": -3.2242552904,
				"element": "H" 
			},
			{
				"x": -0.7274843419,
				"y": 1.6668232456,
				"z": -2.8508603807,
				"element": "H" 
			},
			{
				"x": 0.3567487442,
				"y": 1.4065119153,
				"z": -0.6397530363,
				"element": "H" 
			}
		],
		 "valence_orbital": [ 
			{
				"type": "occ",
				"energy": -0.30097,
				"method": "rhf"
			},
			{
				"type": "occ",
				"energy": -0.27452,
				"method": "rhf"
			},
			{
				"type": "occ",
				"energy": -0.2592,
				"method": "rhf"
			},
			{
				"type": "occ",
				"energy": -0.2519,
				"method": "rhf"
			},
			{
				"type": "occ",
				"energy": -0.23137,
				"method": "rhf"
			},
			{
				"type": "unocc",
				"energy": -0.02309,
				"method": "rhf"
			},
			{
				"type": "unocc",
				"energy": -0.01019,
				"method": "rhf"
			},
			{
				"type": "unocc",
				"energy": 0.05641,
				"method": "rhf"
			},
			{
				"type": "unocc",
				"energy": 0.06729,
				"method": "rhf"
			},
			{
				"type": "unocc",
				"energy": 0.08097,
				"method": "rhf"
			}
		],
		"cosmo_sigma_profile": { 
			"-0.025": 0.0,
			"-0.024": 0.0,
			"-0.023": 0.0,
			"-0.022": 0.0,
			"-0.021": 0.0,
			"-0.02": 0.0,
			"-0.019": 0.0,
			"-0.018": 0.0,
			"-0.017": 0.0,
			"-0.016": 0.0,
			"-0.015": 0.0222553070877,
			"-0.014": 0.913714217081,
			"-0.013": 0.932656733271,
			"-0.012": 1.2323196194,
			"-0.011": 0.979652706939,
			"-0.01": 3.48984428732,
			"-0.009": 5.38656994931,
			"-0.008": 7.2090392271,
			"-0.007": 6.76709388386,
			"-0.006": 14.9409322309,
			"-0.005": 22.9846565065,
			"-0.004": 22.583768439,
			"-0.003": 18.9402448505,
			"-0.002": 18.3251610972,
			"-0.001": 13.5248739193,
			"0.0": 11.2982200102,
			"0.001": 9.32194498893,
			"0.002": 10.576350584,
			"0.003": 10.7860773473,
			"0.004": 10.6336738653,
			"0.005": 13.7477658582,
			"0.006": 7.54693489836,
			"0.007": 4.277993954,
			"0.008": 4.02329740221,
			"0.009": 4.41604752772,
			"0.01": 5.43956718829,
			"0.011": 9.88949264861,
			"0.012": 6.37236819548,
			"0.013": 0.554219107863,
			"0.014": 0.746473065954,
			"0.015": 0.533038731585,
			"0.016": 0.984805975039,
			"0.017": 0.38828631189,
			"0.018": 0.8048257775,
			"0.019": 0.584455240669,
			"0.02": 0.286256287231,
			"0.021": 0.0,
			"0.022": 0.0,
			"0.023": 0.0,
			"0.024": 0.0,
			"0.025": 0.0
		}
	}
}
