{
	 "smiles": "O=C(C1=CC=CC=C1)C(C1=CC=CC=C1)(C1=CC=CC=C1)C1=CC=CC=C1", 
	 "Tm": 454.65, 
	 "num_atms": 47, 
	 "gaussian": { 
		 "optdone": 1, 
		 "sigma_profile": "yes", 
		 "theory": "DFT", 
		 "functional": "B3LYP", 
		 "basiset": "6-31G**", 
		 "properties": { 
			 "R2extent": 8708.5129, 
			 "electric_dipole_moment_norm": 2.78691672463, 
			 "electric_quadrupole_moment_norm": 5.75076989454, 
			 "total_energy": -1078.02775369, 
			 "HOMO_LUMO_gap": 0.16801, 
			 "cosmo_polarized_energy": -11.64, 
			 "cosmo_cavitation_energy": 48.0, 
			 "cosmo_dispersion_energy": -31.98, 
			 "cosmo_repulsion_energy": 2.45, 
			 "cosmo_total_nonelectrostatic_energy": 18.47, 
			 "SMD_solvation_energy": 8.38 
		},
		"coords": [
			{
				"x": 0.1085267546,
				"y": 1.4450744481,
				"z": 2.0901439117,
				"element": "O" 
			},
			{
				"x": -0.5454184776,
				"y": 0.7305639719,
				"z": 1.3488644504,
				"element": "C" 
			},
			{
				"x": -1.6814201402,
				"y": -0.072324566,
				"z": 1.9397237322,
				"element": "C" 
			},
			{
				"x": -2.4975603355,
				"y": -0.9677165531,
				"z": 1.2294763414,
				"element": "C" 
			},
			{
				"x": -3.5147502341,
				"y": -1.6655358271,
				"z": 1.8792937191,
				"element": "C" 
			},
			{
				"x": -3.7360938079,
				"y": -1.480261937,
				"z": 3.2450566458,
				"element": "C" 
			},
			{
				"x": -2.9302623723,
				"y": -0.5931519762,
				"z": 3.9630580685,
				"element": "C" 
			},
			{
				"x": -1.9129793395,
				"y": 0.1016439099,
				"z": 3.3159600977,
				"element": "C" 
			},
			{
				"x": -0.248259624,
				"y": 0.7351252434,
				"z": -0.202464711,
				"element": "C" 
			},
			{
				"x": 0.2020289948,
				"y": -0.6521838349,
				"z": -0.71969065,
				"element": "C" 
			},
			{
				"x": 0.4830446117,
				"y": -0.8172510315,
				"z": -2.0881060706,
				"element": "C" 
			},
			{
				"x": 0.9652868503,
				"y": -2.0247192263,
				"z": -2.5877382252,
				"element": "C" 
			},
			{
				"x": 1.2059200358,
				"y": -3.0978499965,
				"z": -1.7262792973,
				"element": "C" 
			},
			{
				"x": 0.9663451645,
				"y": -2.9403064823,
				"z": -0.3635278091,
				"element": "C" 
			},
			{
				"x": 0.4718411922,
				"y": -1.7307127007,
				"z": 0.133803008,
				"element": "C" 
			},
			{
				"x": -1.5569687878,
				"y": 1.2751409094,
				"z": -0.8351612193,
				"element": "C" 
			},
			{
				"x": -2.0572797717,
				"y": 2.500139053,
				"z": -0.3577037991,
				"element": "C" 
			},
			{
				"x": -3.2389298204,
				"y": 3.0432053222,
				"z": -0.8579621203,
				"element": "C" 
			},
			{
				"x": -3.9556499461,
				"y": 2.3719330027,
				"z": -1.8506432994,
				"element": "C" 
			},
			{
				"x": -3.4755594753,
				"y": 1.1545143933,
				"z": -2.3297629974,
				"element": "C" 
			},
			{
				"x": -2.2905117194,
				"y": 0.6107680988,
				"z": -1.825941001,
				"element": "C" 
			},
			{
				"x": 0.9474920563,
				"y": 1.6827376079,
				"z": -0.4952232794,
				"element": "C" 
			},
			{
				"x": 0.8862431748,
				"y": 2.6948964274,
				"z": -1.4599173584,
				"element": "C" 
			},
			{
				"x": 2.0074540907,
				"y": 3.4776578854,
				"z": -1.7557470351,
				"element": "C" 
			},
			{
				"x": 3.2112940675,
				"y": 3.2630578407,
				"z": -1.0909115911,
				"element": "C" 
			},
			{
				"x": 3.2885336836,
				"y": 2.2484308799,
				"z": -0.1328191894,
				"element": "C" 
			},
			{
				"x": 2.1744365831,
				"y": 1.4656225992,
				"z": 0.1543488594,
				"element": "C" 
			},
			{
				"x": -2.3440009241,
				"y": -1.1291870586,
				"z": 0.1715835424,
				"element": "H" 
			},
			{
				"x": -4.1364018529,
				"y": -2.3544789079,
				"z": 1.3150110953,
				"element": "H" 
			},
			{
				"x": -4.5315192405,
				"y": -2.0242431931,
				"z": 3.7467902912,
				"element": "H" 
			},
			{
				"x": -3.0952419368,
				"y": -0.4440316302,
				"z": 5.0262463785,
				"element": "H" 
			},
			{
				"x": -1.2764275268,
				"y": 0.7924453993,
				"z": 3.8572911138,
				"element": "H" 
			},
			{
				"x": 0.3437800415,
				"y": 0.018974232,
				"z": -2.7655124102,
				"element": "H" 
			},
			{
				"x": 1.1671584877,
				"y": -2.1217759081,
				"z": -3.6508074423,
				"element": "H" 
			},
			{
				"x": 1.5879412398,
				"y": -4.0381266701,
				"z": -2.1129892966,
				"element": "H" 
			},
			{
				"x": 1.1652181786,
				"y": -3.7567826079,
				"z": 0.324905444,
				"element": "H" 
			},
			{
				"x": 0.3028268458,
				"y": -1.6425155756,
				"z": 1.2009206096,
				"element": "H" 
			},
			{
				"x": -1.5079517542,
				"y": 3.0363396358,
				"z": 0.4104672742,
				"element": "H" 
			},
			{
				"x": -3.599411716,
				"y": 3.9913847067,
				"z": -0.4693222373,
				"element": "H" 
			},
			{
				"x": -4.8773007191,
				"y": 2.7922045222,
				"z": -2.242539444,
				"element": "H" 
			},
			{
				"x": -4.0226209041,
				"y": 0.6170894015,
				"z": -3.0994249525,
				"element": "H" 
			},
			{
				"x": -1.9469459532,
				"y": -0.3424373565,
				"z": -2.2101547812,
				"element": "H" 
			},
			{
				"x": -0.0382933882,
				"y": 2.8837470839,
				"z": -1.9924902574,
				"element": "H" 
			},
			{
				"x": 1.9297890062,
				"y": 4.2554386532,
				"z": -2.5105339436,
				"element": "H" 
			},
			{
				"x": 4.0816805697,
				"y": 3.8725484003,
				"z": -1.3169417456,
				"element": "H" 
			},
			{
				"x": 4.2218449184,
				"y": 2.0633362486,
				"z": 0.3916494438,
				"element": "H" 
			},
			{
				"x": 2.2597732199,
				"y": 0.6750731629,
				"z": 0.8908221373,
				"element": "H" 
			}
		],
		 "valence_orbital": [ 
			{
				"type": "occ",
				"energy": -0.25105,
				"method": "rhf"
			},
			{
				"type": "occ",
				"energy": -0.2493,
				"method": "rhf"
			},
			{
				"type": "occ",
				"energy": -0.24072,
				"method": "rhf"
			},
			{
				"type": "occ",
				"energy": -0.23223,
				"method": "rhf"
			},
			{
				"type": "occ",
				"energy": -0.22596,
				"method": "rhf"
			},
			{
				"type": "unocc",
				"energy": -0.05795,
				"method": "rhf"
			},
			{
				"type": "unocc",
				"energy": -0.01409,
				"method": "rhf"
			},
			{
				"type": "unocc",
				"energy": -0.01044,
				"method": "rhf"
			},
			{
				"type": "unocc",
				"energy": -0.00964,
				"method": "rhf"
			},
			{
				"type": "unocc",
				"energy": -0.00214,
				"method": "rhf"
			}
		],
		"cosmo_sigma_profile": { 
			"-0.025": 0.0,
			"-0.024": 0.0,
			"-0.023": 0.0,
			"-0.022": 0.0,
			"-0.021": 0.0,
			"-0.02": 0.0,
			"-0.019": 0.0,
			"-0.018": 0.0,
			"-0.017": 0.0,
			"-0.016": 0.0,
			"-0.015": 0.0,
			"-0.014": 0.0,
			"-0.013": 0.0,
			"-0.012": 0.0,
			"-0.011": 0.0,
			"-0.01": 0.0,
			"-0.009": 0.0,
			"-0.008": 0.0,
			"-0.007": 0.911387740312,
			"-0.006": 17.0168265334,
			"-0.005": 34.4886963393,
			"-0.004": 42.5881355895,
			"-0.003": 37.8252993022,
			"-0.002": 27.7830106786,
			"-0.001": 26.4333494516,
			"0.0": 26.5003652473,
			"0.001": 25.5345739982,
			"0.002": 29.1006593288,
			"0.003": 30.0902608661,
			"0.004": 34.4676895304,
			"0.005": 25.7527261902,
			"0.006": 11.9444067513,
			"0.007": 2.82408352592,
			"0.008": 1.98269513985,
			"0.009": 2.04464915429,
			"0.01": 2.35657164635,
			"0.011": 3.09034949774,
			"0.012": 1.90650427001,
			"0.013": 0.0841765696553,
			"0.014": 0.0,
			"0.015": 0.0,
			"0.016": 0.0,
			"0.017": 0.0,
			"0.018": 0.0,
			"0.019": 0.0,
			"0.02": 0.0,
			"0.021": 0.0,
			"0.022": 0.0,
			"0.023": 0.0,
			"0.024": 0.0,
			"0.025": 0.0
		}
	}
}
