{
	 "smiles": "NC1=NNC2=C1C(F)=CC=C2", 
	 "Tm": 445.15, 
	 "num_atms": 17, 
	 "gaussian": { 
		 "optdone": 1, 
		 "sigma_profile": "yes", 
		 "theory": "DFT", 
		 "functional": "B3LYP", 
		 "basiset": "6-31G**", 
		 "properties": { 
			 "R2extent": 1867.6926, 
			 "electric_dipole_moment_norm": 1.7303583126, 
			 "electric_quadrupole_moment_norm": 12.7220839688, 
			 "total_energy": -534.437001322, 
			 "HOMO_LUMO_gap": 0.17377, 
			 "cosmo_polarized_energy": -11.45, 
			 "cosmo_cavitation_energy": 21.52, 
			 "cosmo_dispersion_energy": -16.4, 
			 "cosmo_repulsion_energy": 1.3, 
			 "cosmo_total_nonelectrostatic_energy": 6.42, 
			 "SMD_solvation_energy": 2.87 
		},
		"coords": [
			{
				"x": -0.5518542589,
				"y": 1.5069460422,
				"z": -1.9224151911,
				"element": "N" 
			},
			{
				"x": 0.2898972775,
				"y": 1.1209999385,
				"z": -0.8919725566,
				"element": "C" 
			},
			{
				"x": 1.5791705192,
				"y": 0.8974917159,
				"z": -1.0738510924,
				"element": "N" 
			},
			{
				"x": 2.088173978,
				"y": 0.6221780991,
				"z": 0.1761319042,
				"element": "N" 
			},
			{
				"x": 1.1407692429,
				"y": 0.6554268118,
				"z": 1.1530943074,
				"element": "C" 
			},
			{
				"x": -0.0695568195,
				"y": 0.9800919672,
				"z": 0.4910171109,
				"element": "C" 
			},
			{
				"x": -1.2423689129,
				"y": 1.0694526075,
				"z": 1.2455519584,
				"element": "C" 
			},
			{
				"x": -2.4027659713,
				"y": 1.3565672712,
				"z": 0.6085600497,
				"element": "F" 
			},
			{
				"x": -1.2272202777,
				"y": 0.8600918165,
				"z": 2.6091749061,
				"element": "C" 
			},
			{
				"x": -0.0013890458,
				"y": 0.5466552164,
				"z": 3.2427302827,
				"element": "C" 
			},
			{
				"x": 1.1906616061,
				"y": 0.4365305262,
				"z": 2.5425136952,
				"element": "C" 
			},
			{
				"x": -1.5200236057,
				"y": 1.2552409187,
				"z": -1.7823444446,
				"element": "H" 
			},
			{
				"x": -0.2030863444,
				"y": 1.2726964245,
				"z": -2.8421913028,
				"element": "H" 
			},
			{
				"x": 3.0709899273,
				"y": 0.4279676806,
				"z": 0.2633714023,
				"element": "H" 
			},
			{
				"x": -2.1488282644,
				"y": 0.9355934083,
				"z": 3.1746161157,
				"element": "H" 
			},
			{
				"x": -0.0012896094,
				"y": 0.3838887389,
				"z": 4.3163886952,
				"element": "H" 
			},
			{
				"x": 2.1192205589,
				"y": 0.1904808165,
				"z": 3.0468241598,
				"element": "H" 
			}
		],
		 "valence_orbital": [ 
			{
				"type": "occ",
				"energy": -0.32788,
				"method": "rhf"
			},
			{
				"type": "occ",
				"energy": -0.2895,
				"method": "rhf"
			},
			{
				"type": "occ",
				"energy": -0.25425,
				"method": "rhf"
			},
			{
				"type": "occ",
				"energy": -0.24223,
				"method": "rhf"
			},
			{
				"type": "occ",
				"energy": -0.19339,
				"method": "rhf"
			},
			{
				"type": "unocc",
				"energy": -0.01962,
				"method": "rhf"
			},
			{
				"type": "unocc",
				"energy": 0.01754,
				"method": "rhf"
			},
			{
				"type": "unocc",
				"energy": 0.07396,
				"method": "rhf"
			},
			{
				"type": "unocc",
				"energy": 0.08516,
				"method": "rhf"
			},
			{
				"type": "unocc",
				"energy": 0.09098,
				"method": "rhf"
			}
		],
		"cosmo_sigma_profile": { 
			"-0.025": 0.0,
			"-0.024": 0.0,
			"-0.023": 0.0,
			"-0.022": 0.0,
			"-0.021": 0.0,
			"-0.02": 0.0,
			"-0.019": 0.0,
			"-0.018": 0.0,
			"-0.017": 0.024255188802,
			"-0.016": 1.14956989648,
			"-0.015": 1.17689598226,
			"-0.014": 1.08263675513,
			"-0.013": 1.35214898441,
			"-0.012": 2.47085924082,
			"-0.011": 2.96714981408,
			"-0.01": 3.54697553164,
			"-0.009": 3.96364909306,
			"-0.008": 2.4602016735,
			"-0.007": 5.52138367074,
			"-0.006": 8.52339481796,
			"-0.005": 8.3223356242,
			"-0.004": 9.15056783983,
			"-0.003": 6.22638699189,
			"-0.002": 6.46763995119,
			"-0.001": 5.32847153077,
			"0.0": 8.89835828939,
			"0.001": 11.5189004817,
			"0.002": 15.8229973266,
			"0.003": 19.6751242005,
			"0.004": 17.2085352847,
			"0.005": 8.78163287506,
			"0.006": 2.63283577156,
			"0.007": 3.0711469685,
			"0.008": 2.5711414683,
			"0.009": 1.61966162477,
			"0.01": 1.76221773783,
			"0.011": 2.42525195363,
			"0.012": 1.92702191868,
			"0.013": 1.6637846204,
			"0.014": 1.3125722658,
			"0.015": 0.892762945108,
			"0.016": 0.940676014719,
			"0.017": 0.0,
			"0.018": 0.0,
			"0.019": 0.0,
			"0.02": 0.0,
			"0.021": 0.0,
			"0.022": 0.0,
			"0.023": 0.0,
			"0.024": 0.0,
			"0.025": 0.0
		}
	}
}
