{
	 "smiles": "OC(=O)C(F)(F)C1=CC(Cl)=CC=C1", 
	 "Tm": 349.15, 
	 "num_atms": 18, 
	 "gaussian": { 
		 "optdone": 1, 
		 "sigma_profile": "yes", 
		 "theory": "DFT", 
		 "functional": "B3LYP", 
		 "basiset": "6-31G**", 
		 "properties": { 
			 "R2extent": 3259.6996, 
			 "electric_dipole_moment_norm": 4.15534910326, 
			 "electric_quadrupole_moment_norm": 8.6918542291, 
			 "total_energy": -1118.18451466, 
			 "HOMO_LUMO_gap": 0.2119, 
			 "cosmo_polarized_energy": -11.34, 
			 "cosmo_cavitation_energy": 25.71, 
			 "cosmo_dispersion_energy": -18.5, 
			 "cosmo_repulsion_energy": 1.45, 
			 "cosmo_total_nonelectrostatic_energy": 8.66, 
			 "SMD_solvation_energy": 6.09 
		},
		"coords": [
			{
				"x": -2.3451788304,
				"y": 2.1260283294,
				"z": 2.4657406594,
				"element": "O" 
			},
			{
				"x": -1.1895882058,
				"y": 2.1217429086,
				"z": 1.7852569152,
				"element": "C" 
			},
			{
				"x": -0.9415212103,
				"y": 2.8834259309,
				"z": 0.8891497203,
				"element": "O" 
			},
			{
				"x": -0.1544177649,
				"y": 1.0560185308,
				"z": 2.2444732647,
				"element": "C" 
			},
			{
				"x": -0.71855225,
				"y": 0.3225866721,
				"z": 3.2793404282,
				"element": "F" 
			},
			{
				"x": 0.9000503429,
				"y": 1.7425128084,
				"z": 2.7720932171,
				"element": "F" 
			},
			{
				"x": 0.3024627067,
				"y": 0.1365577438,
				"z": 1.1430746864,
				"element": "C" 
			},
			{
				"x": 1.2163536479,
				"y": 0.6261297421,
				"z": 0.2037224223,
				"element": "C" 
			},
			{
				"x": 1.629141759,
				"y": -0.211343949,
				"z": -0.8285035427,
				"element": "C" 
			},
			{
				"x": 2.7800367778,
				"y": 0.3868608261,
				"z": -2.0097286357,
				"element": "Cl" 
			},
			{
				"x": 1.1486734959,
				"y": -1.5173037228,
				"z": -0.9416212471,
				"element": "C" 
			},
			{
				"x": 0.2357900857,
				"y": -1.9872452601,
				"z": 0.0016391124,
				"element": "C" 
			},
			{
				"x": -0.1927095587,
				"y": -1.1660795655,
				"z": 1.0448364916,
				"element": "C" 
			},
			{
				"x": -2.3069688795,
				"y": 1.4410160316,
				"z": 3.1533698077,
				"element": "H" 
			},
			{
				"x": 1.589224353,
				"y": 1.6400416269,
				"z": 0.274824996,
				"element": "H" 
			},
			{
				"x": 1.4865561149,
				"y": -2.1500384825,
				"z": -1.7547043085,
				"element": "H" 
			},
			{
				"x": -0.1406175709,
				"y": -3.0023603269,
				"z": -0.0769471737,
				"element": "H" 
			},
			{
				"x": -0.8956350133,
				"y": -1.5371498438,
				"z": 1.7814831863,
				"element": "H" 
			}
		],
		 "valence_orbital": [ 
			{
				"type": "occ",
				"energy": -0.33758,
				"method": "rhf"
			},
			{
				"type": "occ",
				"energy": -0.32171,
				"method": "rhf"
			},
			{
				"type": "occ",
				"energy": -0.29472,
				"method": "rhf"
			},
			{
				"type": "occ",
				"energy": -0.27994,
				"method": "rhf"
			},
			{
				"type": "occ",
				"energy": -0.26204,
				"method": "rhf"
			},
			{
				"type": "unocc",
				"energy": -0.05014,
				"method": "rhf"
			},
			{
				"type": "unocc",
				"energy": -0.0294,
				"method": "rhf"
			},
			{
				"type": "unocc",
				"energy": -0.00847,
				"method": "rhf"
			},
			{
				"type": "unocc",
				"energy": 0.02122,
				"method": "rhf"
			},
			{
				"type": "unocc",
				"energy": 0.06686,
				"method": "rhf"
			}
		],
		"cosmo_sigma_profile": { 
			"-0.025": 0.0,
			"-0.024": 0.0,
			"-0.023": 0.0,
			"-0.022": 0.0,
			"-0.021": 0.0,
			"-0.02": 0.0,
			"-0.019": 0.0,
			"-0.018": 0.380459245409,
			"-0.017": 0.759754303553,
			"-0.016": 0.492207938508,
			"-0.015": 0.712427547493,
			"-0.014": 0.715939336189,
			"-0.013": 1.56313711561,
			"-0.012": 1.16596616385,
			"-0.011": 1.33010163257,
			"-0.01": 1.5785396135,
			"-0.009": 1.74992557134,
			"-0.008": 3.73729929493,
			"-0.007": 8.5741360455,
			"-0.006": 10.066202282,
			"-0.005": 8.84247553714,
			"-0.004": 7.05725838987,
			"-0.003": 8.50870012767,
			"-0.002": 10.8922016259,
			"-0.001": 12.3068485794,
			"0.0": 15.9201163027,
			"0.001": 23.8873029948,
			"0.002": 27.3017780129,
			"0.003": 21.3695888244,
			"0.004": 12.7104858329,
			"0.005": 5.4666043695,
			"0.006": 2.42957840694,
			"0.007": 4.13656409066,
			"0.008": 4.86997613603,
			"0.009": 3.48006856105,
			"0.01": 4.59924727691,
			"0.011": 2.22486594937,
			"0.012": 0.23410966148,
			"0.013": 0.0,
			"0.014": 0.0,
			"0.015": 0.0,
			"0.016": 0.0,
			"0.017": 0.0,
			"0.018": 0.0,
			"0.019": 0.0,
			"0.02": 0.0,
			"0.021": 0.0,
			"0.022": 0.0,
			"0.023": 0.0,
			"0.024": 0.0,
			"0.025": 0.0
		}
	}
}
