{
	 "smiles": "NC(=O)OCC1=CC=CC=C1", 
	 "Tm": 360.65, 
	 "num_atms": 20, 
	 "gaussian": { 
		 "optdone": 1, 
		 "sigma_profile": "yes", 
		 "theory": "DFT", 
		 "functional": "B3LYP", 
		 "basiset": "6-31G**", 
		 "properties": { 
			 "R2extent": 2893.9006, 
			 "electric_dipole_moment_norm": 2.62702402159, 
			 "electric_quadrupole_moment_norm": 8.72840189439, 
			 "total_energy": -515.496638915, 
			 "HOMO_LUMO_gap": 0.23806, 
			 "cosmo_polarized_energy": -12.44, 
			 "cosmo_cavitation_energy": 24.77, 
			 "cosmo_dispersion_energy": -18.1, 
			 "cosmo_repulsion_energy": 1.5, 
			 "cosmo_total_nonelectrostatic_energy": 8.17, 
			 "SMD_solvation_energy": 5.57 
		},
		"coords": [
			{
				"x": -2.2112527968,
				"y": 1.261089943,
				"z": -2.964354162,
				"element": "N" 
			},
			{
				"x": -1.224827424,
				"y": 0.4591999012,
				"z": -2.4728159599,
				"element": "C" 
			},
			{
				"x": -0.2273103668,
				"y": 0.1184740335,
				"z": -3.0804328567,
				"element": "O" 
			},
			{
				"x": -1.5188553758,
				"y": 0.0923994065,
				"z": -1.1957205999,
				"element": "O" 
			},
			{
				"x": -0.5315732897,
				"y": -0.765114129,
				"z": -0.5740506728,
				"element": "C" 
			},
			{
				"x": -1.0022900581,
				"y": -1.0783792565,
				"z": 0.8208246078,
				"element": "C" 
			},
			{
				"x": -1.8145030651,
				"y": -2.1927781793,
				"z": 1.0642271837,
				"element": "C" 
			},
			{
				"x": -2.2662281014,
				"y": -2.4753557559,
				"z": 2.3535862874,
				"element": "C" 
			},
			{
				"x": -1.9091071006,
				"y": -1.6430422762,
				"z": 3.4164757066,
				"element": "C" 
			},
			{
				"x": -1.0995927823,
				"y": -0.5290758117,
				"z": 3.1845479205,
				"element": "C" 
			},
			{
				"x": -0.6500653031,
				"y": -0.2502004938,
				"z": 1.8936119266,
				"element": "C" 
			},
			{
				"x": -3.0111232393,
				"y": 1.5038029986,
				"z": -2.4050065823,
				"element": "H" 
			},
			{
				"x": -2.1193550175,
				"y": 1.6058286192,
				"z": -3.9039072335,
				"element": "H" 
			},
			{
				"x": 0.433067831,
				"y": -0.2489964187,
				"z": -0.5697719071,
				"element": "H" 
			},
			{
				"x": -0.4198718633,
				"y": -1.6711897158,
				"z": -1.1769189491,
				"element": "H" 
			},
			{
				"x": -2.0914831044,
				"y": -2.8420745851,
				"z": 0.2374437816,
				"element": "H" 
			},
			{
				"x": -2.8926365043,
				"y": -3.3452394037,
				"z": 2.5295281692,
				"element": "H" 
			},
			{
				"x": -2.2566265582,
				"y": -1.8639168975,
				"z": 4.4217256964,
				"element": "H" 
			},
			{
				"x": -0.8159288781,
				"y": 0.119262698,
				"z": 4.0087048523,
				"element": "H" 
			},
			{
				"x": -0.0184370023,
				"y": 0.6162053232,
				"z": 1.7140027912,
				"element": "H" 
			}
		],
		 "valence_orbital": [ 
			{
				"type": "occ",
				"energy": -0.28998,
				"method": "rhf"
			},
			{
				"type": "occ",
				"energy": -0.2693,
				"method": "rhf"
			},
			{
				"type": "occ",
				"energy": -0.26783,
				"method": "rhf"
			},
			{
				"type": "occ",
				"energy": -0.25249,
				"method": "rhf"
			},
			{
				"type": "occ",
				"energy": -0.24889,
				"method": "rhf"
			},
			{
				"type": "unocc",
				"energy": -0.01083,
				"method": "rhf"
			},
			{
				"type": "unocc",
				"energy": -0.00367,
				"method": "rhf"
			},
			{
				"type": "unocc",
				"energy": 0.06334,
				"method": "rhf"
			},
			{
				"type": "unocc",
				"energy": 0.0835,
				"method": "rhf"
			},
			{
				"type": "unocc",
				"energy": 0.09028,
				"method": "rhf"
			}
		],
		"cosmo_sigma_profile": { 
			"-0.025": 0.0,
			"-0.024": 0.0,
			"-0.023": 0.0,
			"-0.022": 0.0,
			"-0.021": 0.0,
			"-0.02": 0.0,
			"-0.019": 0.0,
			"-0.018": 0.0,
			"-0.017": 0.0,
			"-0.016": 0.0,
			"-0.015": 0.422597406372,
			"-0.014": 2.24306401124,
			"-0.013": 2.05599473422,
			"-0.012": 2.25474073859,
			"-0.011": 2.14352712247,
			"-0.01": 1.59595460178,
			"-0.009": 1.97571495649,
			"-0.008": 1.2917310178,
			"-0.007": 1.85898905597,
			"-0.006": 11.7476726172,
			"-0.005": 16.7642162648,
			"-0.004": 16.2407589387,
			"-0.003": 14.4351350212,
			"-0.002": 11.1466793327,
			"-0.001": 10.2965015532,
			"0.0": 10.1026291101,
			"0.001": 11.356502775,
			"0.002": 11.1977516919,
			"0.003": 12.3572394281,
			"0.004": 12.1995165267,
			"0.005": 13.568921948,
			"0.006": 8.37557426241,
			"0.007": 2.33512764266,
			"0.008": 3.53363349449,
			"0.009": 1.72326178202,
			"0.01": 0.669105704305,
			"0.011": 2.01337258941,
			"0.012": 2.2377215138,
			"0.013": 5.05986251801,
			"0.014": 3.28833180568,
			"0.015": 0.0793459037593,
			"0.016": 0.0,
			"0.017": 0.0,
			"0.018": 0.0,
			"0.019": 0.0,
			"0.02": 0.0,
			"0.021": 0.0,
			"0.022": 0.0,
			"0.023": 0.0,
			"0.024": 0.0,
			"0.025": 0.0
		}
	}
}
