{
	 "smiles": "ClC1=NN2C=NN=C2C=C1", 
	 "Tm": 487.15, 
	 "num_atms": 13, 
	 "gaussian": { 
		 "optdone": 1, 
		 "sigma_profile": "yes", 
		 "theory": "DFT", 
		 "functional": "B3LYP", 
		 "basiset": "6-31G**", 
		 "properties": { 
			 "R2extent": 1966.2521, 
			 "electric_dipole_moment_norm": 3.51699085725, 
			 "electric_quadrupole_moment_norm": 16.8520903899, 
			 "total_energy": -871.467179393, 
			 "HOMO_LUMO_gap": 0.17064, 
			 "cosmo_polarized_energy": -13.15, 
			 "cosmo_cavitation_energy": 19.95, 
			 "cosmo_dispersion_energy": -15.36, 
			 "cosmo_repulsion_energy": 1.22, 
			 "cosmo_total_nonelectrostatic_energy": 5.82, 
			 "SMD_solvation_energy": 0.93 
		},
		"coords": [
			{
				"x": -0.3348703412,
				"y": 1.7274567395,
				"z": 3.4845376399,
				"element": "Cl" 
			},
			{
				"x": -0.5546729748,
				"y": 1.3157007174,
				"z": 1.8025596298,
				"element": "C" 
			},
			{
				"x": 0.4675573213,
				"y": 0.7633327637,
				"z": 1.2145328831,
				"element": "N" 
			},
			{
				"x": 0.2475842775,
				"y": 0.4633730547,
				"z": -0.0865512908,
				"element": "N" 
			},
			{
				"x": 1.1028848999,
				"y": -0.1158829909,
				"z": -0.9779357064,
				"element": "C" 
			},
			{
				"x": 0.5066220996,
				"y": -0.237860348,
				"z": -2.1488459325,
				"element": "N" 
			},
			{
				"x": -0.7637115372,
				"y": 0.2610744711,
				"z": -2.0571055567,
				"element": "N" 
			},
			{
				"x": -0.924036471,
				"y": 0.6856745035,
				"z": -0.8127545383,
				"element": "C" 
			},
			{
				"x": -2.0036556411,
				"y": 1.2893872519,
				"z": -0.1223447248,
				"element": "C" 
			},
			{
				"x": -1.8209480211,
				"y": 1.6079048526,
				"z": 1.1947084497,
				"element": "C" 
			},
			{
				"x": 2.1081498121,
				"y": -0.4153763208,
				"z": -0.7256696421,
				"element": "H" 
			},
			{
				"x": -2.9317580229,
				"y": 1.4798694574,
				"z": -0.6485664729,
				"element": "H" 
			},
			{
				"x": -2.598045401,
				"y": 2.071045848,
				"z": 1.7891352619,
				"element": "H" 
			}
		],
		 "valence_orbital": [ 
			{
				"type": "occ",
				"energy": -0.34482,
				"method": "rhf"
			},
			{
				"type": "occ",
				"energy": -0.32285,
				"method": "rhf"
			},
			{
				"type": "occ",
				"energy": -0.28979,
				"method": "rhf"
			},
			{
				"type": "occ",
				"energy": -0.26642,
				"method": "rhf"
			},
			{
				"type": "occ",
				"energy": -0.25969,
				"method": "rhf"
			},
			{
				"type": "unocc",
				"energy": -0.08905,
				"method": "rhf"
			},
			{
				"type": "unocc",
				"energy": -0.03098,
				"method": "rhf"
			},
			{
				"type": "unocc",
				"energy": 0.00392,
				"method": "rhf"
			},
			{
				"type": "unocc",
				"energy": 0.0268,
				"method": "rhf"
			},
			{
				"type": "unocc",
				"energy": 0.08813,
				"method": "rhf"
			}
		],
		"cosmo_sigma_profile": { 
			"-0.025": 0.0,
			"-0.024": 0.0,
			"-0.023": 0.0,
			"-0.022": 0.0,
			"-0.021": 0.0,
			"-0.02": 0.0,
			"-0.019": 0.0,
			"-0.018": 0.0,
			"-0.017": 0.0,
			"-0.016": 0.0,
			"-0.015": 0.0,
			"-0.014": 0.0,
			"-0.013": 0.0,
			"-0.012": 0.401783672066,
			"-0.011": 2.16692486351,
			"-0.01": 4.66636780629,
			"-0.009": 6.41030603627,
			"-0.008": 5.01443715009,
			"-0.007": 5.36940771577,
			"-0.006": 6.82280349073,
			"-0.005": 7.08972254178,
			"-0.004": 12.4032625975,
			"-0.003": 14.6800775917,
			"-0.002": 13.0530738732,
			"-0.001": 10.9765277708,
			"0.0": 8.77613745429,
			"0.001": 7.98374242752,
			"0.002": 10.3371464494,
			"0.003": 10.347857485,
			"0.004": 4.79805738099,
			"0.005": 3.83617339953,
			"0.006": 2.69581481337,
			"0.007": 2.54056191891,
			"0.008": 2.94976380185,
			"0.009": 2.93785927245,
			"0.01": 3.122397554,
			"0.011": 2.80269560029,
			"0.012": 3.37281671176,
			"0.013": 3.38070313348,
			"0.014": 2.62737144151,
			"0.015": 2.08312817943,
			"0.016": 1.13109662944,
			"0.017": 0.0,
			"0.018": 0.0,
			"0.019": 0.0,
			"0.02": 0.0,
			"0.021": 0.0,
			"0.022": 0.0,
			"0.023": 0.0,
			"0.024": 0.0,
			"0.025": 0.0
		}
	}
}
