{
	 "smiles": "COC1=CC(C=C(/C(O)=O)C(=CC2=CC(OC)=C(OC)C(OC)=C2)C(O)=O)=CC(OC)=C1OC", 
	 "Tm": 502.15, 
	 "num_atms": 60, 
	 "gaussian": { 
		 "optdone": 1, 
		 "sigma_profile": "yes", 
		 "theory": "DFT", 
		 "functional": "B3LYP", 
		 "basiset": "6-31G**", 
		 "properties": { 
			 "R2extent": 26144.8022, 
			 "electric_dipole_moment_norm": 5.31512526663, 
			 "electric_quadrupole_moment_norm": 17.6225681752, 
			 "total_energy": -1682.35083164, 
			 "HOMO_LUMO_gap": 0.14299, 
			 "cosmo_polarized_energy": -27.45, 
			 "cosmo_cavitation_energy": 64.38, 
			 "cosmo_dispersion_energy": -43.45, 
			 "cosmo_repulsion_energy": 3.29, 
			 "cosmo_total_nonelectrostatic_energy": 24.21, 
			 "SMD_solvation_energy": 17.31 
		},
		"coords": [
			{
				"x": -5.4093811198,
				"y": -0.8316684796,
				"z": -3.9757023956,
				"element": "C" 
			},
			{
				"x": -4.457703234,
				"y": 0.1094376862,
				"z": -3.4829542022,
				"element": "O" 
			},
			{
				"x": -3.1692908557,
				"y": 0.0915670167,
				"z": -3.9398392018,
				"element": "C" 
			},
			{
				"x": -2.1952215242,
				"y": 0.4283940835,
				"z": -2.9952143278,
				"element": "C" 
			},
			{
				"x": -0.8332015677,
				"y": 0.4890314681,
				"z": -3.3272249646,
				"element": "C" 
			},
			{
				"x": 0.0744718429,
				"y": 0.8346476982,
				"z": -2.2288156605,
				"element": "C" 
			},
			{
				"x": 1.4100493846,
				"y": 0.7411274852,
				"z": -1.9915497202,
				"element": "C" 
			},
			{
				"x": 2.4426638022,
				"y": 0.2235273541,
				"z": -2.9344973454,
				"element": "C" 
			},
			{
				"x": 3.464697284,
				"y": -0.363609128,
				"z": -2.2627560957,
				"element": "O" 
			},
			{
				"x": 2.433987091,
				"y": 0.2574701066,
				"z": -4.1518119789,
				"element": "O" 
			},
			{
				"x": 1.9234733516,
				"y": 1.1399810051,
				"z": -0.6380740067,
				"element": "C" 
			},
			{
				"x": 1.4368839977,
				"y": 0.533502975,
				"z": 0.471919474,
				"element": "C" 
			},
			{
				"x": 1.7585667722,
				"y": 0.6359212329,
				"z": 1.904183329,
				"element": "C" 
			},
			{
				"x": 0.7008790818,
				"y": 0.4418015627,
				"z": 2.8167634969,
				"element": "C" 
			},
			{
				"x": 0.9347187507,
				"y": 0.4823008667,
				"z": 4.1882889627,
				"element": "C" 
			},
			{
				"x": -0.044711419,
				"y": 0.379471205,
				"z": 5.1371106577,
				"element": "O" 
			},
			{
				"x": -1.3918265588,
				"y": 0.2743136587,
				"z": 4.7030718411,
				"element": "C" 
			},
			{
				"x": 2.2471074364,
				"y": 0.6574950391,
				"z": 4.6900847735,
				"element": "C" 
			},
			{
				"x": 2.484050772,
				"y": 0.7766049859,
				"z": 6.0372334315,
				"element": "O" 
			},
			{
				"x": 2.2040973674,
				"y": -0.3676696571,
				"z": 6.8516925124,
				"element": "C" 
			},
			{
				"x": 3.3049885657,
				"y": 0.8099129735,
				"z": 3.7752803155,
				"element": "C" 
			},
			{
				"x": 4.607689741,
				"y": 1.0297051338,
				"z": 4.1208025196,
				"element": "O" 
			},
			{
				"x": 5.1735416223,
				"y": 0.3937655162,
				"z": 5.2654358032,
				"element": "C" 
			},
			{
				"x": 3.0520873813,
				"y": 0.8028828187,
				"z": 2.3982658372,
				"element": "C" 
			},
			{
				"x": 2.9186527271,
				"y": 2.2501867791,
				"z": -0.7052522956,
				"element": "C" 
			},
			{
				"x": 3.0879712983,
				"y": 2.9369186898,
				"z": 0.4460276403,
				"element": "O" 
			},
			{
				"x": 3.4913154085,
				"y": 2.5728625297,
				"z": -1.7301231021,
				"element": "O" 
			},
			{
				"x": -0.4535952044,
				"y": 0.2337733664,
				"z": -4.6602251772,
				"element": "C" 
			},
			{
				"x": -1.4187769792,
				"y": -0.0780279416,
				"z": -5.6121064095,
				"element": "C" 
			},
			{
				"x": -1.1350567587,
				"y": -0.2836478354,
				"z": -6.932733837,
				"element": "O" 
			},
			{
				"x": 0.215299817,
				"y": -0.1321561424,
				"z": -7.3554154759,
				"element": "C" 
			},
			{
				"x": -2.791116086,
				"y": -0.1674959705,
				"z": -5.2690107173,
				"element": "C" 
			},
			{
				"x": -3.7552132022,
				"y": -0.3841153059,
				"z": -6.2208831432,
				"element": "O" 
			},
			{
				"x": -3.7195421795,
				"y": -1.6391674331,
				"z": -6.9102090886,
				"element": "C" 
			},
			{
				"x": -6.2178325177,
				"y": -0.8439336516,
				"z": -3.2403442902,
				"element": "H" 
			},
			{
				"x": -5.8014142431,
				"y": -0.5411195656,
				"z": -4.9522672353,
				"element": "H" 
			},
			{
				"x": -4.9769805264,
				"y": -1.837920676,
				"z": -4.0439551751,
				"element": "H" 
			},
			{
				"x": -2.5330039903,
				"y": 0.6243862478,
				"z": -1.9828092884,
				"element": "H" 
			},
			{
				"x": -0.4755234763,
				"y": 1.224198214,
				"z": -1.3731559989,
				"element": "H" 
			},
			{
				"x": 4.1089758359,
				"y": -0.6191908963,
				"z": -2.9431975414,
				"element": "H" 
			},
			{
				"x": 0.6578552991,
				"y": -0.2010064761,
				"z": 0.2683513139,
				"element": "H" 
			},
			{
				"x": -0.3026009901,
				"y": 0.2936859616,
				"z": 2.4366152479,
				"element": "H" 
			},
			{
				"x": -1.6872715527,
				"y": 1.1395735374,
				"z": 4.0967949838,
				"element": "H" 
			},
			{
				"x": -1.5630896163,
				"y": -0.6438736221,
				"z": 4.1265262356,
				"element": "H" 
			},
			{
				"x": -1.9975613293,
				"y": 0.2462804077,
				"z": 5.6100881312,
				"element": "H" 
			},
			{
				"x": 2.5032020494,
				"y": -0.0939956651,
				"z": 7.8656363582,
				"element": "H" 
			},
			{
				"x": 2.7913476219,
				"y": -1.2354985934,
				"z": 6.5241292324,
				"element": "H" 
			},
			{
				"x": 1.1416426261,
				"y": -0.6189068748,
				"z": 6.8364084726,
				"element": "H" 
			},
			{
				"x": 4.8910013707,
				"y": 0.8968825404,
				"z": 6.1921198447,
				"element": "H" 
			},
			{
				"x": 4.8799702137,
				"y": -0.6619228272,
				"z": 5.3209435769,
				"element": "H" 
			},
			{
				"x": 6.2559175272,
				"y": 0.4518492244,
				"z": 5.1269981236,
				"element": "H" 
			},
			{
				"x": 3.8991503694,
				"y": 0.913487667,
				"z": 1.7351853569,
				"element": "H" 
			},
			{
				"x": 3.7277397444,
				"y": 3.6387933365,
				"z": 0.2391190416,
				"element": "H" 
			},
			{
				"x": 0.586628125,
				"y": 0.3222356336,
				"z": -4.9305187432,
				"element": "H" 
			},
			{
				"x": 0.5807191527,
				"y": 0.8845153913,
				"z": -7.1696700837,
				"element": "H" 
			},
			{
				"x": 0.213888929,
				"y": -0.3283136887,
				"z": -8.4287583153,
				"element": "H" 
			},
			{
				"x": 0.8800776106,
				"y": -0.8440882626,
				"z": -6.8523546412,
				"element": "H" 
			},
			{
				"x": -2.7972039666,
				"y": -1.7542141492,
				"z": -7.4825789209,
				"element": "H" 
			},
			{
				"x": -4.5763043561,
				"y": -1.633045086,
				"z": -7.5872405576,
				"element": "H" 
			},
			{
				"x": -3.8222867168,
				"y": -2.4751034703,
				"z": -6.2057265767,
				"element": "H" 
			}
		],
		 "valence_orbital": [ 
			{
				"type": "occ",
				"energy": -0.2567,
				"method": "rhf"
			},
			{
				"type": "occ",
				"energy": -0.21786,
				"method": "rhf"
			},
			{
				"type": "occ",
				"energy": -0.21511,
				"method": "rhf"
			},
			{
				"type": "occ",
				"energy": -0.21184,
				"method": "rhf"
			},
			{
				"type": "occ",
				"energy": -0.20328,
				"method": "rhf"
			},
			{
				"type": "unocc",
				"energy": -0.06029,
				"method": "rhf"
			},
			{
				"type": "unocc",
				"energy": -0.04917,
				"method": "rhf"
			},
			{
				"type": "unocc",
				"energy": 0.01263,
				"method": "rhf"
			},
			{
				"type": "unocc",
				"energy": 0.01904,
				"method": "rhf"
			},
			{
				"type": "unocc",
				"energy": 0.01955,
				"method": "rhf"
			}
		],
		"cosmo_sigma_profile": { 
			"-0.025": 0.0,
			"-0.024": 0.0,
			"-0.023": 0.0,
			"-0.022": 0.0,
			"-0.021": 0.0,
			"-0.02": 0.0,
			"-0.019": 0.0,
			"-0.018": 1.16047007012,
			"-0.017": 2.0255538529,
			"-0.016": 1.37771168046,
			"-0.015": 1.55647032469,
			"-0.014": 1.53933023516,
			"-0.013": 1.43499293411,
			"-0.012": 1.50206218709,
			"-0.011": 1.30977403551,
			"-0.01": 1.56232057066,
			"-0.009": 1.02998464866,
			"-0.008": 1.25510814679,
			"-0.007": 7.77649126407,
			"-0.006": 20.0078640634,
			"-0.005": 41.7337007793,
			"-0.004": 46.979558935,
			"-0.003": 57.4137823346,
			"-0.002": 48.5515979394,
			"-0.001": 29.0993894269,
			"0.0": 25.4455716586,
			"0.001": 23.7577394272,
			"0.002": 28.8914054212,
			"0.003": 37.568530316,
			"0.004": 29.2557621051,
			"0.005": 18.81042359,
			"0.006": 14.7346398719,
			"0.007": 13.0715258728,
			"0.008": 13.5198935085,
			"0.009": 13.1126167186,
			"0.01": 11.6040198915,
			"0.011": 10.5066328908,
			"0.012": 2.88291352321,
			"0.013": 0.0373920047705,
			"0.014": 0.0,
			"0.015": 0.0,
			"0.016": 0.0,
			"0.017": 0.0,
			"0.018": 0.0,
			"0.019": 0.0,
			"0.02": 0.0,
			"0.021": 0.0,
			"0.022": 0.0,
			"0.023": 0.0,
			"0.024": 0.0,
			"0.025": 0.0
		}
	}
}
