{
	 "smiles": "NC(=O)C(=C/C1=C(Cl)C=C(Cl)C=C1)C1=NC2=C(S1)C=CC=C2", 
	 "Tm": 536.15, 
	 "num_atms": 32, 
	 "gaussian": { 
		 "optdone": 1, 
		 "sigma_profile": "yes", 
		 "theory": "DFT", 
		 "functional": "B3LYP", 
		 "basiset": "6-31G**", 
		 "properties": { 
			 "R2extent": 12327.4757, 
			 "electric_dipole_moment_norm": 3.25371169436, 
			 "electric_quadrupole_moment_norm": 15.6954303729, 
			 "total_energy": -2119.03574239, 
			 "HOMO_LUMO_gap": 0.14427, 
			 "cosmo_polarized_energy": -16.91, 
			 "cosmo_cavitation_energy": 42.04, 
			 "cosmo_dispersion_energy": -30.69, 
			 "cosmo_repulsion_energy": 2.3, 
			 "cosmo_total_nonelectrostatic_energy": 13.65, 
			 "SMD_solvation_energy": 5.23 
		},
		"coords": [
			{
				"x": 2.0128694787,
				"y": 2.1149570418,
				"z": 2.322059419,
				"element": "N" 
			},
			{
				"x": 2.0076205644,
				"y": 0.8949524407,
				"z": 1.7201044856,
				"element": "C" 
			},
			{
				"x": 2.8481935385,
				"y": 0.0376410967,
				"z": 1.9715897646,
				"element": "O" 
			},
			{
				"x": 0.8693565259,
				"y": 0.6167899419,
				"z": 0.7707323145,
				"element": "C" 
			},
			{
				"x": 0.3165194479,
				"y": 1.512294716,
				"z": -0.0785436959,
				"element": "C" 
			},
			{
				"x": 0.6494172678,
				"y": 2.9327395235,
				"z": -0.3181618876,
				"element": "C" 
			},
			{
				"x": 1.9072502846,
				"y": 3.4197488462,
				"z": -0.7280080083,
				"element": "C" 
			},
			{
				"x": 3.2570381828,
				"y": 2.3352901951,
				"z": -0.9896023392,
				"element": "Cl" 
			},
			{
				"x": 2.1220665816,
				"y": 4.7752462624,
				"z": -0.9823888315,
				"element": "C" 
			},
			{
				"x": 1.067295078,
				"y": 5.6720743996,
				"z": -0.8317291314,
				"element": "C" 
			},
			{
				"x": 1.341124478,
				"y": 7.3746268273,
				"z": -1.1424298508,
				"element": "Cl" 
			},
			{
				"x": -0.1999578174,
				"y": 5.2325314101,
				"z": -0.4504367903,
				"element": "C" 
			},
			{
				"x": -0.3925631371,
				"y": 3.8755486874,
				"z": -0.2130358806,
				"element": "C" 
			},
			{
				"x": 0.324664668,
				"y": -0.7572826073,
				"z": 0.7755098532,
				"element": "C" 
			},
			{
				"x": -0.8142164243,
				"y": -1.0517587816,
				"z": 0.2143666367,
				"element": "N" 
			},
			{
				"x": -1.1116691473,
				"y": -2.3920225595,
				"z": 0.3395677724,
				"element": "C" 
			},
			{
				"x": -0.1454908955,
				"y": -3.156523976,
				"z": 1.0385433187,
				"element": "C" 
			},
			{
				"x": 1.1777141542,
				"y": -2.1238760037,
				"z": 1.53127487,
				"element": "S" 
			},
			{
				"x": -0.3189786167,
				"y": -4.5295832435,
				"z": 1.242588074,
				"element": "C" 
			},
			{
				"x": -1.4704162415,
				"y": -5.1283628394,
				"z": 0.740942737,
				"element": "C" 
			},
			{
				"x": -2.4374908542,
				"y": -4.3766415285,
				"z": 0.0460531602,
				"element": "C" 
			},
			{
				"x": -2.2690982375,
				"y": -3.0144251689,
				"z": -0.1583606677,
				"element": "C" 
			},
			{
				"x": 1.3466284963,
				"y": 2.8351189378,
				"z": 2.0969469769,
				"element": "H" 
			},
			{
				"x": 2.7997757127,
				"y": 2.3369592961,
				"z": 2.9132652985,
				"element": "H" 
			},
			{
				"x": -0.5286569054,
				"y": 1.1387476013,
				"z": -0.6549314863,
				"element": "H" 
			},
			{
				"x": 3.0980130258,
				"y": 5.119000001,
				"z": -1.3020836201,
				"element": "H" 
			},
			{
				"x": -1.0176822939,
				"y": 5.9366197084,
				"z": -0.348798413,
				"element": "H" 
			},
			{
				"x": -1.3790262971,
				"y": 3.5227038418,
				"z": 0.0738088144,
				"element": "H" 
			},
			{
				"x": 0.4227873947,
				"y": -5.1145599546,
				"z": 1.7773011851,
				"element": "H" 
			},
			{
				"x": -1.6250767588,
				"y": -6.1931315827,
				"z": 0.8885501777,
				"element": "H" 
			},
			{
				"x": -3.3258018322,
				"y": -4.8722067448,
				"z": -0.3340993894,
				"element": "H" 
			},
			{
				"x": -3.0048094205,
				"y": -2.4212157847,
				"z": -0.6915948663,
				"element": "H" 
			}
		],
		 "valence_orbital": [ 
			{
				"type": "occ",
				"energy": -0.27432,
				"method": "rhf"
			},
			{
				"type": "occ",
				"energy": -0.26653,
				"method": "rhf"
			},
			{
				"type": "occ",
				"energy": -0.2569,
				"method": "rhf"
			},
			{
				"type": "occ",
				"energy": -0.23038,
				"method": "rhf"
			},
			{
				"type": "occ",
				"energy": -0.22437,
				"method": "rhf"
			},
			{
				"type": "unocc",
				"energy": -0.0801,
				"method": "rhf"
			},
			{
				"type": "unocc",
				"energy": -0.03909,
				"method": "rhf"
			},
			{
				"type": "unocc",
				"energy": -0.03123,
				"method": "rhf"
			},
			{
				"type": "unocc",
				"energy": -0.00771,
				"method": "rhf"
			},
			{
				"type": "unocc",
				"energy": -0.00184,
				"method": "rhf"
			}
		],
		"cosmo_sigma_profile": { 
			"-0.025": 0.0,
			"-0.024": 0.0,
			"-0.023": 0.0,
			"-0.022": 0.0,
			"-0.021": 0.0,
			"-0.02": 0.0,
			"-0.019": 0.0,
			"-0.018": 0.0,
			"-0.017": 0.0,
			"-0.016": 0.0,
			"-0.015": 0.44446409303,
			"-0.014": 1.2377474537,
			"-0.013": 1.41066431233,
			"-0.012": 2.16593184346,
			"-0.011": 1.88184760617,
			"-0.01": 2.96042879057,
			"-0.009": 2.63276549101,
			"-0.008": 7.35897797867,
			"-0.007": 12.4544821952,
			"-0.006": 16.4352077938,
			"-0.005": 15.9666717279,
			"-0.004": 17.1240728752,
			"-0.003": 18.155682054,
			"-0.002": 18.6252202668,
			"-0.001": 21.9674333258,
			"0.0": 31.5923101275,
			"0.001": 34.9987736163,
			"0.002": 29.7845658322,
			"0.003": 34.8749485317,
			"0.004": 33.4847561939,
			"0.005": 12.8481476108,
			"0.006": 4.22166798547,
			"0.007": 3.42369140513,
			"0.008": 2.76153102101,
			"0.009": 3.82041853323,
			"0.01": 2.51788412814,
			"0.011": 2.2859777536,
			"0.012": 3.52311802844,
			"0.013": 3.20772930403,
			"0.014": 0.629423307781,
			"0.015": 0.0,
			"0.016": 0.0,
			"0.017": 0.0,
			"0.018": 0.0,
			"0.019": 0.0,
			"0.02": 0.0,
			"0.021": 0.0,
			"0.022": 0.0,
			"0.023": 0.0,
			"0.024": 0.0,
			"0.025": 0.0
		}
	}
}
