{
	 "smiles": "CC1=C(CS(Cl)(=O)=O)C=CC=C1", 
	 "Tm": 325.65, 
	 "num_atms": 21, 
	 "gaussian": { 
		 "optdone": 1, 
		 "sigma_profile": "yes", 
		 "theory": "DFT", 
		 "functional": "B3LYP", 
		 "basiset": "6-31G**", 
		 "properties": { 
			 "R2extent": 3135.7043, 
			 "electric_dipole_moment_norm": 4.70608449882, 
			 "electric_quadrupole_moment_norm": 11.4038709038, 
			 "total_energy": -1319.04860297, 
			 "HOMO_LUMO_gap": 0.17242, 
			 "cosmo_polarized_energy": -11.05, 
			 "cosmo_cavitation_energy": 27.4, 
			 "cosmo_dispersion_energy": -20.28, 
			 "cosmo_repulsion_energy": 1.56, 
			 "cosmo_total_nonelectrostatic_energy": 8.68, 
			 "SMD_solvation_energy": 3.32 
		},
		"coords": [
			{
				"x": 1.2588399208,
				"y": -2.5238702534,
				"z": -0.7474062382,
				"element": "C" 
			},
			{
				"x": 1.6108583995,
				"y": -1.4790682271,
				"z": 0.2856545396,
				"element": "C" 
			},
			{
				"x": 0.8564248192,
				"y": -0.2940435104,
				"z": 0.4463073508,
				"element": "C" 
			},
			{
				"x": -0.3482709459,
				"y": -0.015970351,
				"z": -0.3962587308,
				"element": "C" 
			},
			{
				"x": -0.0180800602,
				"y": 0.786249182,
				"z": -2.0334358586,
				"element": "S" 
			},
			{
				"x": 0.5837039053,
				"y": 2.7449477952,
				"z": -1.413351367,
				"element": "Cl" 
			},
			{
				"x": 1.1355702907,
				"y": 0.1783907164,
				"z": -2.6874784159,
				"element": "O" 
			},
			{
				"x": -1.2951265779,
				"y": 0.9343854795,
				"z": -2.7233488211,
				"element": "O" 
			},
			{
				"x": 1.2187795682,
				"y": 0.6395306874,
				"z": 1.4282683805,
				"element": "C" 
			},
			{
				"x": 2.3204770645,
				"y": 0.4246053213,
				"z": 2.2519392695,
				"element": "C" 
			},
			{
				"x": 3.0713417724,
				"y": -0.7399307698,
				"z": 2.096272183,
				"element": "C" 
			},
			{
				"x": 2.7126350043,
				"y": -1.6759870495,
				"z": 1.1262511983,
				"element": "C" 
			},
			{
				"x": 1.3189692952,
				"y": -2.1186395199,
				"z": -1.7621300867,
				"element": "H" 
			},
			{
				"x": 1.9421513763,
				"y": -3.3739000008,
				"z": -0.6828643385,
				"element": "H" 
			},
			{
				"x": 0.2426326751,
				"y": -2.9129581479,
				"z": -0.605390718,
				"element": "H" 
			},
			{
				"x": -1.0614410096,
				"y": 0.6613392457,
				"z": 0.0771701611,
				"element": "H" 
			},
			{
				"x": -0.8800863102,
				"y": -0.9174042232,
				"z": -0.7148078781,
				"element": "H" 
			},
			{
				"x": 0.6276341339,
				"y": 1.5435071955,
				"z": 1.5431209603,
				"element": "H" 
			},
			{
				"x": 2.5868825097,
				"y": 1.1575738385,
				"z": 3.0069573261,
				"element": "H" 
			},
			{
				"x": 3.9328549747,
				"y": -0.9244387998,
				"z": 2.7314724665,
				"element": "H" 
			},
			{
				"x": 3.2995491942,
				"y": -2.5836186087,
				"z": 1.0151586173,
				"element": "H" 
			}
		],
		 "valence_orbital": [ 
			{
				"type": "occ",
				"energy": -0.33439,
				"method": "rhf"
			},
			{
				"type": "occ",
				"energy": -0.32911,
				"method": "rhf"
			},
			{
				"type": "occ",
				"energy": -0.31301,
				"method": "rhf"
			},
			{
				"type": "occ",
				"energy": -0.26507,
				"method": "rhf"
			},
			{
				"type": "occ",
				"energy": -0.25775,
				"method": "rhf"
			},
			{
				"type": "unocc",
				"energy": -0.08533,
				"method": "rhf"
			},
			{
				"type": "unocc",
				"energy": -0.03053,
				"method": "rhf"
			},
			{
				"type": "unocc",
				"energy": -0.01512,
				"method": "rhf"
			},
			{
				"type": "unocc",
				"energy": 0.04663,
				"method": "rhf"
			},
			{
				"type": "unocc",
				"energy": 0.06554,
				"method": "rhf"
			}
		],
		"cosmo_sigma_profile": { 
			"-0.025": 0.0,
			"-0.024": 0.0,
			"-0.023": 0.0,
			"-0.022": 0.0,
			"-0.021": 0.0,
			"-0.02": 0.0,
			"-0.019": 0.0,
			"-0.018": 0.0,
			"-0.017": 0.0,
			"-0.016": 0.0,
			"-0.015": 0.0,
			"-0.014": 0.0,
			"-0.013": 0.0,
			"-0.012": 0.0890305751589,
			"-0.011": 1.08161522811,
			"-0.01": 4.42785703097,
			"-0.009": 4.75462768552,
			"-0.008": 4.64873388297,
			"-0.007": 5.17944450121,
			"-0.006": 10.7022885543,
			"-0.005": 14.6854121287,
			"-0.004": 13.7494983475,
			"-0.003": 10.7797818569,
			"-0.002": 13.8473837329,
			"-0.001": 15.6904655773,
			"0.0": 14.8340206733,
			"0.001": 14.9154728715,
			"0.002": 14.2966173672,
			"0.003": 19.143297333,
			"0.004": 23.3489032013,
			"0.005": 9.61337271978,
			"0.006": 3.56462050772,
			"0.007": 4.04575779539,
			"0.008": 9.28875855812,
			"0.009": 7.63331898376,
			"0.01": 0.384833609366,
			"0.011": 0.0,
			"0.012": 0.0,
			"0.013": 0.0,
			"0.014": 0.0,
			"0.015": 0.0,
			"0.016": 0.0,
			"0.017": 0.0,
			"0.018": 0.0,
			"0.019": 0.0,
			"0.02": 0.0,
			"0.021": 0.0,
			"0.022": 0.0,
			"0.023": 0.0,
			"0.024": 0.0,
			"0.025": 0.0
		}
	}
}
