{
	 "smiles": "ClC1=CC2=C(C3=C(O2)C(Cl)=CC(Cl)=C3)C(Cl)=C1", 
	 "Tm": 450.15, 
	 "num_atms": 21, 
	 "gaussian": { 
		 "optdone": 1, 
		 "sigma_profile": "yes", 
		 "theory": "DFT", 
		 "functional": "B3LYP", 
		 "basiset": "6-31G**", 
		 "properties": { 
			 "R2extent": 8559.7049, 
			 "electric_dipole_moment_norm": 0.566275851507, 
			 "electric_quadrupole_moment_norm": 2.08233498746, 
			 "total_energy": -2375.68466615, 
			 "HOMO_LUMO_gap": 0.17613, 
			 "cosmo_polarized_energy": -4.77, 
			 "cosmo_cavitation_energy": 33.4, 
			 "cosmo_dispersion_energy": -25.13, 
			 "cosmo_repulsion_energy": 1.93, 
			 "cosmo_total_nonelectrostatic_energy": 10.19, 
			 "SMD_solvation_energy": 4.49 
		},
		"coords": [
			{
				"x": 4.7225909681,
				"y": 2.578123456,
				"z": -0.7974254149,
				"element": "Cl" 
			},
			{
				"x": 3.1289039041,
				"y": 2.1065023085,
				"z": -0.2441745378,
				"element": "C" 
			},
			{
				"x": 2.949112838,
				"y": 1.7882949257,
				"z": 1.1009117336,
				"element": "C" 
			},
			{
				"x": 1.6615821965,
				"y": 1.4243854401,
				"z": 1.4654576679,
				"element": "C" 
			},
			{
				"x": 0.5694533266,
				"y": 1.3633145508,
				"z": 0.5761980988,
				"element": "C" 
			},
			{
				"x": -0.5659591815,
				"y": 0.9434211991,
				"z": 1.3772448208,
				"element": "C" 
			},
			{
				"x": -0.0479679628,
				"y": 0.7907355272,
				"z": 2.678243814,
				"element": "C" 
			},
			{
				"x": 1.2901651472,
				"y": 1.0778874623,
				"z": 2.7396913009,
				"element": "O" 
			},
			{
				"x": -0.8408339466,
				"y": 0.3921644334,
				"z": 3.7479910743,
				"element": "C" 
			},
			{
				"x": -0.1651392842,
				"y": 0.2139198584,
				"z": 5.3437611949,
				"element": "Cl" 
			},
			{
				"x": -2.1902951073,
				"y": 0.1401518437,
				"z": 3.5046578563,
				"element": "C" 
			},
			{
				"x": -2.7046436608,
				"y": 0.2926547755,
				"z": 2.2085969268,
				"element": "C" 
			},
			{
				"x": -4.4098346021,
				"y": -0.0354657403,
				"z": 1.948065224,
				"element": "Cl" 
			},
			{
				"x": -1.9202101407,
				"y": 0.6911863392,
				"z": 1.1297956689,
				"element": "C" 
			},
			{
				"x": 0.8071933584,
				"y": 1.6931856126,
				"z": -0.7627662305,
				"element": "C" 
			},
			{
				"x": -0.4917445137,
				"y": 1.6439826792,
				"z": -1.9343806173,
				"element": "Cl" 
			},
			{
				"x": 2.0827325815,
				"y": 2.0649354536,
				"z": -1.1782159874,
				"element": "C" 
			},
			{
				"x": 3.7603425768,
				"y": 1.8222673661,
				"z": 1.8166845303,
				"element": "H" 
			},
			{
				"x": -2.8357562798,
				"y": -0.1720532985,
				"z": 4.3161961558,
				"element": "H" 
			},
			{
				"x": -2.3470558278,
				"y": 0.799699649,
				"z": 0.1416817546,
				"element": "H" 
			},
			{
				"x": 2.2669636099,
				"y": 2.3202061584,
				"z": -2.2140150338,
				"element": "H" 
			}
		],
		 "valence_orbital": [ 
			{
				"type": "occ",
				"energy": -0.32363,
				"method": "rhf"
			},
			{
				"type": "occ",
				"energy": -0.29341,
				"method": "rhf"
			},
			{
				"type": "occ",
				"energy": -0.27619,
				"method": "rhf"
			},
			{
				"type": "occ",
				"energy": -0.24974,
				"method": "rhf"
			},
			{
				"type": "occ",
				"energy": -0.24434,
				"method": "rhf"
			},
			{
				"type": "unocc",
				"energy": -0.06821,
				"method": "rhf"
			},
			{
				"type": "unocc",
				"energy": -0.03418,
				"method": "rhf"
			},
			{
				"type": "unocc",
				"energy": -0.01925,
				"method": "rhf"
			},
			{
				"type": "unocc",
				"energy": -0.00813,
				"method": "rhf"
			},
			{
				"type": "unocc",
				"energy": -0.00116,
				"method": "rhf"
			}
		],
		"cosmo_sigma_profile": { 
			"-0.025": 0.0,
			"-0.024": 0.0,
			"-0.023": 0.0,
			"-0.022": 0.0,
			"-0.021": 0.0,
			"-0.02": 0.0,
			"-0.019": 0.0,
			"-0.018": 0.0,
			"-0.017": 0.0,
			"-0.016": 0.0,
			"-0.015": 0.0,
			"-0.014": 0.0,
			"-0.013": 0.0,
			"-0.012": 0.0,
			"-0.011": 0.0,
			"-0.01": 0.17024563519,
			"-0.009": 3.05620291788,
			"-0.008": 4.35142173731,
			"-0.007": 4.51232218445,
			"-0.006": 6.44168993539,
			"-0.005": 6.20869125258,
			"-0.004": 8.72069897041,
			"-0.003": 14.1734368284,
			"-0.002": 24.6316820097,
			"-0.001": 36.9228016833,
			"0.0": 46.2005043849,
			"0.001": 36.3050630943,
			"0.002": 22.5453984134,
			"0.003": 30.9294491756,
			"0.004": 27.6825545411,
			"0.005": 4.58144778498,
			"0.006": 1.82362675478,
			"0.007": 0.820549129438,
			"0.008": 0.0,
			"0.009": 0.0,
			"0.01": 0.0,
			"0.011": 0.0,
			"0.012": 0.0,
			"0.013": 0.0,
			"0.014": 0.0,
			"0.015": 0.0,
			"0.016": 0.0,
			"0.017": 0.0,
			"0.018": 0.0,
			"0.019": 0.0,
			"0.02": 0.0,
			"0.021": 0.0,
			"0.022": 0.0,
			"0.023": 0.0,
			"0.024": 0.0,
			"0.025": 0.0
		}
	}
}
