{
	 "smiles": "FC1=CC=C(C=C1)C1=CSC2=C1C(=O)NC(S)=N2", 
	 "Tm": 474.15, 
	 "num_atms": 25, 
	 "gaussian": { 
		 "optdone": 1, 
		 "sigma_profile": "yes", 
		 "theory": "DFT", 
		 "functional": "B3LYP", 
		 "basiset": "6-31G**", 
		 "properties": { 
			 "R2extent": 6815.0049, 
			 "electric_dipole_moment_norm": 3.02433287024, 
			 "electric_quadrupole_moment_norm": 12.5974831633, 
			 "total_energy": -1542.44425483, 
			 "HOMO_LUMO_gap": 0.1639, 
			 "cosmo_polarized_energy": -13.97, 
			 "cosmo_cavitation_energy": 33.88, 
			 "cosmo_dispersion_energy": -25.79, 
			 "cosmo_repulsion_energy": 1.85, 
			 "cosmo_total_nonelectrostatic_energy": 9.94, 
			 "SMD_solvation_energy": 4.31 
		},
		"coords": [
			{
				"x": 2.5156163031,
				"y": 2.5830269596,
				"z": 4.3304677147,
				"element": "F" 
			},
			{
				"x": 1.8657426177,
				"y": 2.2870753253,
				"z": 3.1853272482,
				"element": "C" 
			},
			{
				"x": 0.9294996146,
				"y": 3.1853530529,
				"z": 2.6885538233,
				"element": "C" 
			},
			{
				"x": 0.2627174915,
				"y": 2.8672989483,
				"z": 1.5067540572,
				"element": "C" 
			},
			{
				"x": 0.5240845973,
				"y": 1.6691928039,
				"z": 0.819871168,
				"element": "C" 
			},
			{
				"x": 1.4734216555,
				"y": 0.7843769234,
				"z": 1.3585487381,
				"element": "C" 
			},
			{
				"x": 2.1467462963,
				"y": 1.088633271,
				"z": 2.5386890099,
				"element": "C" 
			},
			{
				"x": -0.1557350251,
				"y": 1.405230556,
				"z": -0.4713065458,
				"element": "C" 
			},
			{
				"x": -0.3162585058,
				"y": 2.3906428296,
				"z": -1.4127715455,
				"element": "C" 
			},
			{
				"x": -1.1491650995,
				"y": 1.875152113,
				"z": -2.8505223308,
				"element": "S" 
			},
			{
				"x": -1.3090155953,
				"y": 0.2667386714,
				"z": -2.2026792606,
				"element": "C" 
			},
			{
				"x": -0.7323413063,
				"y": 0.1605648835,
				"z": -0.9340883521,
				"element": "C" 
			},
			{
				"x": -0.8375572805,
				"y": -1.1234430682,
				"z": -0.2596477112,
				"element": "C" 
			},
			{
				"x": -0.4312163756,
				"y": -1.4597852457,
				"z": 0.8423675052,
				"element": "O" 
			},
			{
				"x": -1.5228916451,
				"y": -2.0839338298,
				"z": -1.0568884754,
				"element": "N" 
			},
			{
				"x": -2.0351083207,
				"y": -1.8536483437,
				"z": -2.301687419,
				"element": "C" 
			},
			{
				"x": -2.8424604599,
				"y": -3.2385171678,
				"z": -3.0726609056,
				"element": "S" 
			},
			{
				"x": -1.9530628749,
				"y": -0.7068402062,
				"z": -2.907574257,
				"element": "N" 
			},
			{
				"x": 0.7256353677,
				"y": 4.1041137463,
				"z": 3.2276416992,
				"element": "H" 
			},
			{
				"x": -0.4885847075,
				"y": 3.5495954487,
				"z": 1.1210586999,
				"element": "H" 
			},
			{
				"x": 1.6802852104,
				"y": -0.1526084305,
				"z": 0.8576354264,
				"element": "H" 
			},
			{
				"x": 2.8814256395,
				"y": 0.4116166783,
				"z": 2.9607060393,
				"element": "H" 
			},
			{
				"x": 0.0477220717,
				"y": 3.4064592456,
				"z": -1.3482334523,
				"element": "H" 
			},
			{
				"x": -1.6154371268,
				"y": -2.9907452473,
				"z": -0.6133088228,
				"element": "H" 
			},
			{
				"x": -3.1557625424,
				"y": -2.5418499177,
				"z": -4.1801520514,
				"element": "H" 
			}
		],
		 "valence_orbital": [ 
			{
				"type": "occ",
				"energy": -0.27765,
				"method": "rhf"
			},
			{
				"type": "occ",
				"energy": -0.27327,
				"method": "rhf"
			},
			{
				"type": "occ",
				"energy": -0.25539,
				"method": "rhf"
			},
			{
				"type": "occ",
				"energy": -0.24127,
				"method": "rhf"
			},
			{
				"type": "occ",
				"energy": -0.21649,
				"method": "rhf"
			},
			{
				"type": "unocc",
				"energy": -0.05259,
				"method": "rhf"
			},
			{
				"type": "unocc",
				"energy": -0.02682,
				"method": "rhf"
			},
			{
				"type": "unocc",
				"energy": -0.01973,
				"method": "rhf"
			},
			{
				"type": "unocc",
				"energy": -0.00848,
				"method": "rhf"
			},
			{
				"type": "unocc",
				"energy": -0.00675,
				"method": "rhf"
			}
		],
		"cosmo_sigma_profile": { 
			"-0.025": 0.0,
			"-0.024": 0.0,
			"-0.023": 0.0,
			"-0.022": 0.0,
			"-0.021": 0.0,
			"-0.02": 0.0,
			"-0.019": 0.0,
			"-0.018": 0.0801750100419,
			"-0.017": 0.747172070703,
			"-0.016": 1.54719087859,
			"-0.015": 0.262678244145,
			"-0.014": 1.15603703769,
			"-0.013": 1.65530484556,
			"-0.012": 2.3576379216,
			"-0.011": 2.532514858,
			"-0.01": 2.60337882539,
			"-0.009": 2.24089353514,
			"-0.008": 4.00110040195,
			"-0.007": 7.7805847219,
			"-0.006": 10.6409389693,
			"-0.005": 12.1210912966,
			"-0.004": 15.3169000551,
			"-0.003": 15.0437807841,
			"-0.002": 15.3194741953,
			"-0.001": 15.6774002276,
			"0.0": 23.7745989679,
			"0.001": 31.9624672032,
			"0.002": 27.523506923,
			"0.003": 25.7111016909,
			"0.004": 23.6904174682,
			"0.005": 9.74794444024,
			"0.006": 4.27799829489,
			"0.007": 3.22820034751,
			"0.008": 2.84662524191,
			"0.009": 2.46670838632,
			"0.01": 2.63094812021,
			"0.011": 2.8168474355,
			"0.012": 3.92174497768,
			"0.013": 2.76025315274,
			"0.014": 0.0443113550641,
			"0.015": 0.0,
			"0.016": 0.0,
			"0.017": 0.0,
			"0.018": 0.0,
			"0.019": 0.0,
			"0.02": 0.0,
			"0.021": 0.0,
			"0.022": 0.0,
			"0.023": 0.0,
			"0.024": 0.0,
			"0.025": 0.0
		}
	}
}
