{
	 "smiles": "C#CC1=CC=C2N=CC=NC2=C1", 
	 "Tm": 371.15, 
	 "num_atms": 18, 
	 "gaussian": { 
		 "optdone": 1, 
		 "sigma_profile": "yes", 
		 "theory": "DFT", 
		 "functional": "B3LYP", 
		 "basiset": "6-31G**", 
		 "properties": { 
			 "R2extent": 2121.3682, 
			 "electric_dipole_moment_norm": 0.249569028527, 
			 "electric_quadrupole_moment_norm": 10.4895092664, 
			 "total_energy": -494.107387484, 
			 "HOMO_LUMO_gap": 0.16011, 
			 "cosmo_polarized_energy": -7.92, 
			 "cosmo_cavitation_energy": 23.85, 
			 "cosmo_dispersion_energy": -17.19, 
			 "cosmo_repulsion_energy": 1.33, 
			 "cosmo_total_nonelectrostatic_energy": 7.98, 
			 "SMD_solvation_energy": 2.4 
		},
		"coords": [
			{
				"x": -3.3443703614,
				"y": -0.2739793804,
				"z": 2.6396836503,
				"element": "C" 
			},
			{
				"x": -2.2909412491,
				"y": -0.1592969483,
				"z": 2.0554942379,
				"element": "C" 
			},
			{
				"x": -1.0417626179,
				"y": -0.0117102405,
				"z": 1.3780059839,
				"element": "C" 
			},
			{
				"x": -0.0637888308,
				"y": 0.898972662,
				"z": 1.890884854,
				"element": "C" 
			},
			{
				"x": 1.14579745,
				"y": 1.0629582298,
				"z": 1.2626510467,
				"element": "C" 
			},
			{
				"x": 1.4469335595,
				"y": 0.3268135038,
				"z": 0.0869053122,
				"element": "C" 
			},
			{
				"x": 2.652703369,
				"y": 0.5003041269,
				"z": -0.5260828523,
				"element": "N" 
			},
			{
				"x": 2.8620197601,
				"y": -0.2156894115,
				"z": -1.6112582114,
				"element": "C" 
			},
			{
				"x": 1.8969014258,
				"y": -1.1230995027,
				"z": -2.1288465383,
				"element": "C" 
			},
			{
				"x": 0.7249023497,
				"y": -1.3135861473,
				"z": -1.5617334662,
				"element": "N" 
			},
			{
				"x": 0.4756394861,
				"y": -0.5854910232,
				"z": -0.4327961364,
				"element": "C" 
			},
			{
				"x": -0.7650544237,
				"y": -0.7401181386,
				"z": 0.2293884168,
				"element": "C" 
			},
			{
				"x": -4.2741609949,
				"y": -0.3800228916,
				"z": 3.1489387614,
				"element": "H" 
			},
			{
				"x": -0.2991295293,
				"y": 1.4590157544,
				"z": 2.7897511441,
				"element": "H" 
			},
			{
				"x": 1.896907445,
				"y": 1.7493932145,
				"z": 1.6395458845,
				"element": "H" 
			},
			{
				"x": 3.8187581904,
				"y": -0.0925379177,
				"z": -2.1166618993,
				"element": "H" 
			},
			{
				"x": 2.1162631701,
				"y": -1.6936418158,
				"z": -3.0302454238,
				"element": "H" 
			},
			{
				"x": -1.4858181986,
				"y": -1.4373840738,
				"z": -0.1828247642,
				"element": "H" 
			}
		],
		 "valence_orbital": [ 
			{
				"type": "occ",
				"energy": -0.30627,
				"method": "rhf"
			},
			{
				"type": "occ",
				"energy": -0.28184,
				"method": "rhf"
			},
			{
				"type": "occ",
				"energy": -0.25915,
				"method": "rhf"
			},
			{
				"type": "occ",
				"energy": -0.25151,
				"method": "rhf"
			},
			{
				"type": "occ",
				"energy": -0.23928,
				"method": "rhf"
			},
			{
				"type": "unocc",
				"energy": -0.07917,
				"method": "rhf"
			},
			{
				"type": "unocc",
				"energy": -0.04082,
				"method": "rhf"
			},
			{
				"type": "unocc",
				"energy": -0.0011,
				"method": "rhf"
			},
			{
				"type": "unocc",
				"energy": 0.04581,
				"method": "rhf"
			},
			{
				"type": "unocc",
				"energy": 0.04602,
				"method": "rhf"
			}
		],
		"cosmo_sigma_profile": { 
			"-0.025": 0.0,
			"-0.024": 0.0,
			"-0.023": 0.0,
			"-0.022": 0.0,
			"-0.021": 0.0,
			"-0.02": 0.0,
			"-0.019": 0.0,
			"-0.018": 0.0,
			"-0.017": 0.0,
			"-0.016": 0.0,
			"-0.015": 0.0,
			"-0.014": 0.0,
			"-0.013": 0.0826014303993,
			"-0.012": 0.989810144403,
			"-0.011": 1.59932444897,
			"-0.01": 0.835095708257,
			"-0.009": 1.07040679592,
			"-0.008": 5.16811706578,
			"-0.007": 10.5933940076,
			"-0.006": 10.2323053289,
			"-0.005": 9.13583052027,
			"-0.004": 8.2719920337,
			"-0.003": 10.1411347668,
			"-0.002": 12.971650129,
			"-0.001": 14.4603537256,
			"0.0": 16.2217549721,
			"0.001": 22.5659056972,
			"0.002": 18.1215982441,
			"0.003": 11.4718832903,
			"0.004": 7.28809551237,
			"0.005": 10.6381865789,
			"0.006": 8.62101800724,
			"0.007": 2.18732291599,
			"0.008": 1.78297132525,
			"0.009": 2.04907968343,
			"0.01": 1.49135796522,
			"0.011": 1.34613521512,
			"0.012": 2.06206925974,
			"0.013": 1.2099289851,
			"0.014": 1.38776058823,
			"0.015": 0.551474776205,
			"0.016": 0.0,
			"0.017": 0.0,
			"0.018": 0.0,
			"0.019": 0.0,
			"0.02": 0.0,
			"0.021": 0.0,
			"0.022": 0.0,
			"0.023": 0.0,
			"0.024": 0.0,
			"0.025": 0.0
		}
	}
}
