{
	 "smiles": "[O-][N+](=O)C1=C(Cl)C=CC(=C1)S(Cl)(=O)=O", 
	 "Tm": 333.15, 
	 "num_atms": 17, 
	 "gaussian": { 
		 "optdone": 1, 
		 "sigma_profile": "yes", 
		 "theory": "DFT", 
		 "functional": "B3LYP", 
		 "basiset": "6-31G**", 
		 "properties": { 
			 "R2extent": 4905.872, 
			 "electric_dipole_moment_norm": 4.05994138258, 
			 "electric_quadrupole_moment_norm": 11.3400837894, 
			 "total_energy": -1904.47383855, 
			 "HOMO_LUMO_gap": 0.18521, 
			 "cosmo_polarized_energy": -12.66, 
			 "cosmo_cavitation_energy": 28.28, 
			 "cosmo_dispersion_energy": -21.1, 
			 "cosmo_repulsion_energy": 1.62, 
			 "cosmo_total_nonelectrostatic_energy": 8.81, 
			 "SMD_solvation_energy": 5.57 
		},
		"coords": [
			{
				"x": 1.7729757325,
				"y": 2.1121260823,
				"z": -3.1190725732,
				"element": "O" 
			},
			{
				"x": 0.5899980463,
				"y": 1.9620734108,
				"z": -2.8220306111,
				"element": "N" 
			},
			{
				"x": -0.3658213219,
				"y": 2.1706081907,
				"z": -3.5583447781,
				"element": "O" 
			},
			{
				"x": 0.3168527386,
				"y": 1.4477594929,
				"z": -1.463404881,
				"element": "C" 
			},
			{
				"x": -0.8355227735,
				"y": 1.7782611669,
				"z": -0.7300527348,
				"element": "C" 
			},
			{
				"x": -2.0340551895,
				"y": 2.9016142562,
				"z": -1.2834738251,
				"element": "Cl" 
			},
			{
				"x": -1.0158959068,
				"y": 1.2156826898,
				"z": 0.5406647869,
				"element": "C" 
			},
			{
				"x": -0.0799992353,
				"y": 0.3356921996,
				"z": 1.0705413643,
				"element": "C" 
			},
			{
				"x": 1.0600511078,
				"y": 0.0373675228,
				"z": 0.3224039102,
				"element": "C" 
			},
			{
				"x": 1.2776609772,
				"y": 0.5887818487,
				"z": -0.9330328912,
				"element": "C" 
			},
			{
				"x": 2.2677593942,
				"y": -1.1062484517,
				"z": 0.9860590954,
				"element": "S" 
			},
			{
				"x": 3.5405634244,
				"y": 0.2186146661,
				"z": 2.0491325512,
				"element": "Cl" 
			},
			{
				"x": 3.0552810443,
				"y": -1.6515534409,
				"z": -0.1101277346,
				"element": "O" 
			},
			{
				"x": 1.6155572624,
				"y": -1.9429286668,
				"z": 1.984064018,
				"element": "O" 
			},
			{
				"x": -1.9027823754,
				"y": 1.4780131108,
				"z": 1.1056697435,
				"element": "H" 
			},
			{
				"x": -0.2305137115,
				"y": -0.1147079752,
				"z": 2.0451834433,
				"element": "H" 
			},
			{
				"x": 2.1659907861,
				"y": 0.3616438971,
				"z": -1.5098788835,
				"element": "H" 
			}
		],
		 "valence_orbital": [ 
			{
				"type": "occ",
				"energy": -0.33401,
				"method": "rhf"
			},
			{
				"type": "occ",
				"energy": -0.33088,
				"method": "rhf"
			},
			{
				"type": "occ",
				"energy": -0.32524,
				"method": "rhf"
			},
			{
				"type": "occ",
				"energy": -0.30902,
				"method": "rhf"
			},
			{
				"type": "occ",
				"energy": -0.30348,
				"method": "rhf"
			},
			{
				"type": "unocc",
				"energy": -0.11827,
				"method": "rhf"
			},
			{
				"type": "unocc",
				"energy": -0.10764,
				"method": "rhf"
			},
			{
				"type": "unocc",
				"energy": -0.07215,
				"method": "rhf"
			},
			{
				"type": "unocc",
				"energy": -0.04799,
				"method": "rhf"
			},
			{
				"type": "unocc",
				"energy": -0.01393,
				"method": "rhf"
			}
		],
		"cosmo_sigma_profile": { 
			"-0.025": 0.0,
			"-0.024": 0.0,
			"-0.023": 0.0,
			"-0.022": 0.0,
			"-0.021": 0.0,
			"-0.02": 0.0,
			"-0.019": 0.0,
			"-0.018": 0.0,
			"-0.017": 0.0,
			"-0.016": 0.0,
			"-0.015": 0.0,
			"-0.014": 0.0,
			"-0.013": 0.0,
			"-0.012": 0.0,
			"-0.011": 0.455428781975,
			"-0.01": 4.06249876941,
			"-0.009": 6.57530517787,
			"-0.008": 8.42277417695,
			"-0.007": 6.142533899,
			"-0.006": 7.27019517227,
			"-0.005": 10.2588560131,
			"-0.004": 17.6696339632,
			"-0.003": 19.8206074357,
			"-0.002": 17.8374908929,
			"-0.001": 12.3765042797,
			"0.0": 11.1542872769,
			"0.001": 15.7011551737,
			"0.002": 20.9901691029,
			"0.003": 16.4203521591,
			"0.004": 6.277934793,
			"0.005": 7.27203105633,
			"0.006": 12.6631450361,
			"0.007": 17.3412593572,
			"0.008": 11.9941391921,
			"0.009": 2.71461434145,
			"0.01": 0.0,
			"0.011": 0.0,
			"0.012": 0.0,
			"0.013": 0.0,
			"0.014": 0.0,
			"0.015": 0.0,
			"0.016": 0.0,
			"0.017": 0.0,
			"0.018": 0.0,
			"0.019": 0.0,
			"0.02": 0.0,
			"0.021": 0.0,
			"0.022": 0.0,
			"0.023": 0.0,
			"0.024": 0.0,
			"0.025": 0.0
		}
	}
}
