{
	 "smiles": "NC1=NC2=C(S1)C=C1OCCOC1=C2", 
	 "Tm": 477.15, 
	 "num_atms": 22, 
	 "gaussian": { 
		 "optdone": 1, 
		 "sigma_profile": "yes", 
		 "theory": "DFT", 
		 "functional": "B3LYP", 
		 "basiset": "6-31G**", 
		 "properties": { 
			 "R2extent": 3856.3502, 
			 "electric_dipole_moment_norm": 1.09063842313, 
			 "electric_quadrupole_moment_norm": 25.4939542559, 
			 "total_energy": -1005.90655478, 
			 "HOMO_LUMO_gap": 0.18518, 
			 "cosmo_polarized_energy": -14.11, 
			 "cosmo_cavitation_energy": 27.24, 
			 "cosmo_dispersion_energy": -21.66, 
			 "cosmo_repulsion_energy": 1.64, 
			 "cosmo_total_nonelectrostatic_energy": 7.23, 
			 "SMD_solvation_energy": 2.62 
		},
		"coords": [
			{
				"x": -1.6628936432,
				"y": -5.1741553882,
				"z": 0.9369288028,
				"element": "N" 
			},
			{
				"x": -1.2930846592,
				"y": -3.8858943928,
				"z": 0.6359353104,
				"element": "C" 
			},
			{
				"x": -0.0936835367,
				"y": -3.4219208955,
				"z": 0.7744106011,
				"element": "N" 
			},
			{
				"x": -0.0497165865,
				"y": -2.0694491114,
				"z": 0.4614743341,
				"element": "C" 
			},
			{
				"x": -1.277267244,
				"y": -1.490168987,
				"z": 0.0554098773,
				"element": "C" 
			},
			{
				"x": -2.5418071941,
				"y": -2.7181523658,
				"z": 0.099854663,
				"element": "S" 
			},
			{
				"x": -1.3698769097,
				"y": -0.1521121837,
				"z": -0.3118615598,
				"element": "C" 
			},
			{
				"x": -0.2175416858,
				"y": 0.6322173026,
				"z": -0.2583952458,
				"element": "C" 
			},
			{
				"x": -0.3251030434,
				"y": 1.955537748,
				"z": -0.6235234325,
				"element": "O" 
			},
			{
				"x": 0.9276513343,
				"y": 2.5837038905,
				"z": -0.8886915263,
				"element": "C" 
			},
			{
				"x": 1.9241207624,
				"y": 2.2405790611,
				"z": 0.2062395272,
				"element": "C" 
			},
			{
				"x": 2.155138745,
				"y": 0.833668788,
				"z": 0.235459188,
				"element": "O" 
			},
			{
				"x": 1.0086282541,
				"y": 0.0755034864,
				"z": 0.16586285,
				"element": "C" 
			},
			{
				"x": 1.0945769928,
				"y": -1.2687582459,
				"z": 0.51818504,
				"element": "C" 
			},
			{
				"x": -2.4337883328,
				"y": -5.5662405969,
				"z": 0.4156997323,
				"element": "H" 
			},
			{
				"x": -0.8749561174,
				"y": -5.7986836353,
				"z": 1.0492531512,
				"element": "H" 
			},
			{
				"x": -2.29718824,
				"y": 0.3047318881,
				"z": -0.6394413392,
				"element": "H" 
			},
			{
				"x": 0.733290589,
				"y": 3.658680412,
				"z": -0.9283658774,
				"element": "H" 
			},
			{
				"x": 1.3158956196,
				"y": 2.2536115617,
				"z": -1.8624323363,
				"element": "H" 
			},
			{
				"x": 1.5400359685,
				"y": 2.5795578904,
				"z": 1.1785211228,
				"element": "H" 
			},
			{
				"x": 2.8941443271,
				"y": 2.7102606187,
				"z": 0.0234379064,
				"element": "H" 
			},
			{
				"x": 2.0448246001,
				"y": -1.680416845,
				"z": 0.8383392107,
				"element": "H" 
			}
		],
		 "valence_orbital": [ 
			{
				"type": "occ",
				"energy": -0.28453,
				"method": "rhf"
			},
			{
				"type": "occ",
				"energy": -0.27064,
				"method": "rhf"
			},
			{
				"type": "occ",
				"energy": -0.26256,
				"method": "rhf"
			},
			{
				"type": "occ",
				"energy": -0.21441,
				"method": "rhf"
			},
			{
				"type": "occ",
				"energy": -0.19171,
				"method": "rhf"
			},
			{
				"type": "unocc",
				"energy": -0.00653,
				"method": "rhf"
			},
			{
				"type": "unocc",
				"energy": 0.00628,
				"method": "rhf"
			},
			{
				"type": "unocc",
				"energy": 0.00931,
				"method": "rhf"
			},
			{
				"type": "unocc",
				"energy": 0.05684,
				"method": "rhf"
			},
			{
				"type": "unocc",
				"energy": 0.07178,
				"method": "rhf"
			}
		],
		"cosmo_sigma_profile": { 
			"-0.025": 0.0,
			"-0.024": 0.0,
			"-0.023": 0.0,
			"-0.022": 0.0,
			"-0.021": 0.0,
			"-0.02": 0.0,
			"-0.019": 0.0,
			"-0.018": 0.0,
			"-0.017": 0.0,
			"-0.016": 0.0,
			"-0.015": 0.701968651106,
			"-0.014": 2.13469953871,
			"-0.013": 2.59712238585,
			"-0.012": 2.89877877494,
			"-0.011": 2.75075462612,
			"-0.01": 1.85615688,
			"-0.009": 1.92556966449,
			"-0.008": 2.46277065442,
			"-0.007": 9.24677000053,
			"-0.006": 15.1415457162,
			"-0.005": 14.5452918766,
			"-0.004": 13.5625512152,
			"-0.003": 10.4344533628,
			"-0.002": 7.6193192842,
			"-0.001": 8.42516049336,
			"0.0": 10.3552563708,
			"0.001": 13.2493142252,
			"0.002": 14.1463138147,
			"0.003": 19.2274708157,
			"0.004": 24.1080851758,
			"0.005": 11.2581336325,
			"0.006": 5.69937404273,
			"0.007": 4.99554975075,
			"0.008": 3.88992813216,
			"0.009": 5.24265670042,
			"0.01": 5.50978385285,
			"0.011": 2.16619681376,
			"0.012": 0.651096554036,
			"0.013": 1.09576947256,
			"0.014": 1.12690705716,
			"0.015": 0.496474504687,
			"0.016": 0.183951472627,
			"0.017": 0.0,
			"0.018": 0.0,
			"0.019": 0.0,
			"0.02": 0.0,
			"0.021": 0.0,
			"0.022": 0.0,
			"0.023": 0.0,
			"0.024": 0.0,
			"0.025": 0.0
		}
	}
}
