{
	 "smiles": "NC1=CC=C(C=C1)C#CC1=CC=C(N)C=C1", 
	 "Tm": 509.15, 
	 "num_atms": 28, 
	 "gaussian": { 
		 "optdone": 1, 
		 "sigma_profile": "yes", 
		 "theory": "DFT", 
		 "functional": "B3LYP", 
		 "basiset": "6-31G**", 
		 "properties": { 
			 "R2extent": 7188.6862, 
			 "electric_dipole_moment_norm": 0.0036235341864, 
			 "electric_quadrupole_moment_norm": 37.5593845081, 
			 "total_energy": -650.182850852, 
			 "HOMO_LUMO_gap": 0.15036, 
			 "cosmo_polarized_energy": -17.25, 
			 "cosmo_cavitation_energy": 33.9, 
			 "cosmo_dispersion_energy": -24.6, 
			 "cosmo_repulsion_energy": 1.94, 
			 "cosmo_total_nonelectrostatic_energy": 11.25, 
			 "SMD_solvation_energy": 5.66 
		},
		"coords": [
			{
				"x": -1.6688211579,
				"y": 2.2187067899,
				"z": -6.2594908049,
				"element": "N" 
			},
			{
				"x": -1.3346045199,
				"y": 1.8719523762,
				"z": -4.9510574011,
				"element": "C" 
			},
			{
				"x": -1.8508993505,
				"y": 2.5943631209,
				"z": -3.8598403437,
				"element": "C" 
			},
			{
				"x": -1.4749063606,
				"y": 2.2838439323,
				"z": -2.5602973967,
				"element": "C" 
			},
			{
				"x": -0.5672688005,
				"y": 1.238279235,
				"z": -2.2919012136,
				"element": "C" 
			},
			{
				"x": -0.053212526,
				"y": 0.5194303771,
				"z": -3.3910167814,
				"element": "C" 
			},
			{
				"x": -0.4277815797,
				"y": 0.8282008686,
				"z": -4.6913899458,
				"element": "C" 
			},
			{
				"x": -0.1855161795,
				"y": 0.9183546058,
				"z": -0.959157915,
				"element": "C" 
			},
			{
				"x": 0.1409196361,
				"y": 0.6443674367,
				"z": 0.1816570823,
				"element": "C" 
			},
			{
				"x": 0.5228926863,
				"y": 0.3249935872,
				"z": 1.514471172,
				"element": "C" 
			},
			{
				"x": 0.0062035024,
				"y": 1.0419067035,
				"z": 2.613621649,
				"element": "C" 
			},
			{
				"x": 0.3809195667,
				"y": 0.7336167731,
				"z": 3.9140630176,
				"element": "C" 
			},
			{
				"x": 1.290536505,
				"y": -0.3076941201,
				"z": 4.1737817248,
				"element": "C" 
			},
			{
				"x": 1.6249980669,
				"y": -0.6540686784,
				"z": 5.4822537444,
				"element": "N" 
			},
			{
				"x": 1.8094565096,
				"y": -1.0281724592,
				"z": 3.0825386118,
				"element": "C" 
			},
			{
				"x": 1.4333133469,
				"y": -0.7181315785,
				"z": 1.7829200374,
				"element": "C" 
			},
			{
				"x": -2.5458167645,
				"y": 2.7091895094,
				"z": -6.3670392185,
				"element": "H" 
			},
			{
				"x": -1.5583983863,
				"y": 1.4835790591,
				"z": -6.944075164,
				"element": "H" 
			},
			{
				"x": -2.5498557481,
				"y": 3.4077208461,
				"z": -4.0398418398,
				"element": "H" 
			},
			{
				"x": -1.8860505333,
				"y": 2.8508361976,
				"z": -1.7309939953,
				"element": "H" 
			},
			{
				"x": 0.6456634558,
				"y": -0.2912430071,
				"z": -3.2103363665,
				"element": "H" 
			},
			{
				"x": -0.0140518189,
				"y": 0.2606185588,
				"z": -5.5215512302,
				"element": "H" 
			},
			{
				"x": -0.6948926514,
				"y": 1.850653229,
				"z": 2.43290937,
				"element": "H" 
			},
			{
				"x": -0.0348842146,
				"y": 1.2996502844,
				"z": 4.7442455504,
				"element": "H" 
			},
			{
				"x": 1.5121658448,
				"y": 0.0804663654,
				"z": 6.1670819931,
				"element": "H" 
			},
			{
				"x": 2.5032981099,
				"y": -1.1421537497,
				"z": 5.5900720276,
				"element": "H" 
			},
			{
				"x": 2.5105876335,
				"y": -1.8396500187,
				"z": 3.2625682897,
				"element": "H" 
			},
			{
				"x": 1.8465057279,
				"y": -1.2836162445,
				"z": 0.9536053463,
				"element": "H" 
			}
		],
		 "valence_orbital": [ 
			{
				"type": "occ",
				"energy": -0.24764,
				"method": "rhf"
			},
			{
				"type": "occ",
				"energy": -0.24569,
				"method": "rhf"
			},
			{
				"type": "occ",
				"energy": -0.24563,
				"method": "rhf"
			},
			{
				"type": "occ",
				"energy": -0.21362,
				"method": "rhf"
			},
			{
				"type": "occ",
				"energy": -0.17171,
				"method": "rhf"
			},
			{
				"type": "unocc",
				"energy": -0.02135,
				"method": "rhf"
			},
			{
				"type": "unocc",
				"energy": 0.00588,
				"method": "rhf"
			},
			{
				"type": "unocc",
				"energy": 0.00603,
				"method": "rhf"
			},
			{
				"type": "unocc",
				"energy": 0.03313,
				"method": "rhf"
			},
			{
				"type": "unocc",
				"energy": 0.07005,
				"method": "rhf"
			}
		],
		"cosmo_sigma_profile": { 
			"-0.025": 0.0,
			"-0.024": 0.0,
			"-0.023": 0.0,
			"-0.022": 0.0,
			"-0.021": 0.0,
			"-0.02": 0.0,
			"-0.019": 0.0,
			"-0.018": 0.0,
			"-0.017": 0.0,
			"-0.016": 0.0,
			"-0.015": 0.0,
			"-0.014": 0.0,
			"-0.013": 1.70788642802,
			"-0.012": 5.38703511106,
			"-0.011": 5.80067063641,
			"-0.01": 5.93516427562,
			"-0.009": 7.07471015258,
			"-0.008": 5.2220048722,
			"-0.007": 6.84873902507,
			"-0.006": 11.8923553192,
			"-0.005": 14.6892594051,
			"-0.004": 18.3246162186,
			"-0.003": 13.6653119238,
			"-0.002": 11.5134943599,
			"-0.001": 13.9908255893,
			"0.0": 10.0856450372,
			"0.001": 11.2179080098,
			"0.002": 14.8168986573,
			"0.003": 15.3138668261,
			"0.004": 20.5177768712,
			"0.005": 33.4635953876,
			"0.006": 24.3665501333,
			"0.007": 8.34617011935,
			"0.008": 3.09912276749,
			"0.009": 1.42427650098,
			"0.01": 2.36725562446,
			"0.011": 0.609904105478,
			"0.012": 1.00700302444,
			"0.013": 1.61357203812,
			"0.014": 0.853317469312,
			"0.015": 0.0,
			"0.016": 0.0,
			"0.017": 0.0,
			"0.018": 0.0,
			"0.019": 0.0,
			"0.02": 0.0,
			"0.021": 0.0,
			"0.022": 0.0,
			"0.023": 0.0,
			"0.024": 0.0,
			"0.025": 0.0
		}
	}
}
