{
	 "smiles": "NC1=CN(CC(=O)NC2=CN=CC=C2)N=C1", 
	 "Tm": 391.15, 
	 "num_atms": 27, 
	 "gaussian": { 
		 "optdone": 1, 
		 "sigma_profile": "yes", 
		 "theory": "DFT", 
		 "functional": "B3LYP", 
		 "basiset": "6-31G**", 
		 "properties": { 
			 "R2extent": 4927.409, 
			 "electric_dipole_moment_norm": 5.59708691464, 
			 "electric_quadrupole_moment_norm": 27.1696427777, 
			 "total_energy": -736.654764957, 
			 "HOMO_LUMO_gap": 0.18702, 
			 "cosmo_polarized_energy": -19.43, 
			 "cosmo_cavitation_energy": 31.96, 
			 "cosmo_dispersion_energy": -23.13, 
			 "cosmo_repulsion_energy": 1.8, 
			 "cosmo_total_nonelectrostatic_energy": 10.62, 
			 "SMD_solvation_energy": 4.29 
		},
		"coords": [
			{
				"x": -2.1220019799,
				"y": 4.8437481256,
				"z": 0.3446731128,
				"element": "N" 
			},
			{
				"x": -1.6246876858,
				"y": 3.5513722666,
				"z": 0.5658029261,
				"element": "C" 
			},
			{
				"x": -0.5655384157,
				"y": 3.1645331277,
				"z": 1.375033381,
				"element": "C" 
			},
			{
				"x": -0.5224167052,
				"y": 1.7981853268,
				"z": 1.3447867646,
				"element": "N" 
			},
			{
				"x": 0.4334538905,
				"y": 0.92575818,
				"z": 2.0036637271,
				"element": "C" 
			},
			{
				"x": 1.4197516396,
				"y": 0.1793591579,
				"z": 1.0798308476,
				"element": "C" 
			},
			{
				"x": 2.5614021548,
				"y": -0.0307564913,
				"z": 1.4646459605,
				"element": "O" 
			},
			{
				"x": 0.8763954605,
				"y": -0.2428251911,
				"z": -0.1006041841,
				"element": "N" 
			},
			{
				"x": 1.4934836992,
				"y": -0.9748316159,
				"z": -1.1313752892,
				"element": "C" 
			},
			{
				"x": 2.8323603598,
				"y": -1.4104948946,
				"z": -1.0987065598,
				"element": "C" 
			},
			{
				"x": 3.3907281726,
				"y": -2.1043578228,
				"z": -2.0966318697,
				"element": "N" 
			},
			{
				"x": 2.6469716062,
				"y": -2.3978440956,
				"z": -3.1683264459,
				"element": "C" 
			},
			{
				"x": 1.3115367403,
				"y": -2.0127094547,
				"z": -3.2951110263,
				"element": "C" 
			},
			{
				"x": 0.7271127171,
				"y": -1.2902432987,
				"z": -2.261816081,
				"element": "C" 
			},
			{
				"x": -1.4832640689,
				"y": 1.277479212,
				"z": 0.5581671019,
				"element": "N" 
			},
			{
				"x": -2.153599544,
				"y": 2.3322369363,
				"z": 0.081139332,
				"element": "C" 
			},
			{
				"x": -2.5893935315,
				"y": 4.9375855386,
				"z": -0.5485358797,
				"element": "H" 
			},
			{
				"x": -1.4182865406,
				"y": 5.5658716472,
				"z": 0.4356133475,
				"element": "H" 
			},
			{
				"x": 0.1292293597,
				"y": 3.7411254989,
				"z": 1.9673726448,
				"element": "H" 
			},
			{
				"x": 1.0380455979,
				"y": 1.5219412205,
				"z": 2.6864954867,
				"element": "H" 
			},
			{
				"x": -0.1144702996,
				"y": 0.1812529927,
				"z": 2.5924906489,
				"element": "H" 
			},
			{
				"x": -0.1016037791,
				"y": 0.0125834575,
				"z": -0.2399465738,
				"element": "H" 
			},
			{
				"x": 3.4514094858,
				"y": -1.1856177265,
				"z": -0.2393413052,
				"element": "H" 
			},
			{
				"x": 3.1377294558,
				"y": -2.9639691189,
				"z": -3.9577290201,
				"element": "H" 
			},
			{
				"x": 0.7422199985,
				"y": -2.2723068802,
				"z": -4.1822854472,
				"element": "H" 
			},
			{
				"x": -0.3106523112,
				"y": -0.9711262091,
				"z": -2.3226501822,
				"element": "H" 
			},
			{
				"x": -2.995715477,
				"y": 2.1835501111,
				"z": -0.5818554172,
				"element": "H" 
			}
		],
		 "valence_orbital": [ 
			{
				"type": "occ",
				"energy": -0.27493,
				"method": "rhf"
			},
			{
				"type": "occ",
				"energy": -0.25501,
				"method": "rhf"
			},
			{
				"type": "occ",
				"energy": -0.24408,
				"method": "rhf"
			},
			{
				"type": "occ",
				"energy": -0.22756,
				"method": "rhf"
			},
			{
				"type": "occ",
				"energy": -0.20992,
				"method": "rhf"
			},
			{
				"type": "unocc",
				"energy": -0.0229,
				"method": "rhf"
			},
			{
				"type": "unocc",
				"energy": -0.01484,
				"method": "rhf"
			},
			{
				"type": "unocc",
				"energy": 0.00038,
				"method": "rhf"
			},
			{
				"type": "unocc",
				"energy": 0.03652,
				"method": "rhf"
			},
			{
				"type": "unocc",
				"energy": 0.06023,
				"method": "rhf"
			}
		],
		"cosmo_sigma_profile": { 
			"-0.025": 0.0,
			"-0.024": 0.0,
			"-0.023": 0.0,
			"-0.022": 0.0,
			"-0.021": 0.0,
			"-0.02": 0.0,
			"-0.019": 0.0,
			"-0.018": 0.0,
			"-0.017": 0.0,
			"-0.016": 0.0,
			"-0.015": 0.0,
			"-0.014": 0.0,
			"-0.013": 0.0831228589815,
			"-0.012": 2.10672684277,
			"-0.011": 3.04159043962,
			"-0.01": 3.85080721944,
			"-0.009": 7.96559840331,
			"-0.008": 12.9358451732,
			"-0.007": 13.6866124799,
			"-0.006": 14.3267016705,
			"-0.005": 14.7079490712,
			"-0.004": 13.1042858791,
			"-0.003": 11.1867006321,
			"-0.002": 12.4424417702,
			"-0.001": 11.9860105135,
			"0.0": 14.6471091546,
			"0.001": 18.7228048254,
			"0.002": 19.803743892,
			"0.003": 16.2723218029,
			"0.004": 10.716878326,
			"0.005": 9.97094356978,
			"0.006": 5.61568896692,
			"0.007": 5.10570885091,
			"0.008": 4.89619583689,
			"0.009": 4.87014644611,
			"0.01": 4.19889556205,
			"0.011": 4.61699632095,
			"0.012": 5.25569217692,
			"0.013": 4.4180416053,
			"0.014": 1.93100608307,
			"0.015": 1.25095633855,
			"0.016": 1.61600892548,
			"0.017": 0.512241317151,
			"0.018": 0.0,
			"0.019": 0.0,
			"0.02": 0.0,
			"0.021": 0.0,
			"0.022": 0.0,
			"0.023": 0.0,
			"0.024": 0.0,
			"0.025": 0.0
		}
	}
}
