{
	 "smiles": "COC1=NN2C(C=C1)=NN=C2C1=CC=C(C=C1)C(F)(F)F", 
	 "Tm": 415.15, 
	 "num_atms": 30, 
	 "gaussian": { 
		 "optdone": 1, 
		 "sigma_profile": "yes", 
		 "theory": "DFT", 
		 "functional": "B3LYP", 
		 "basiset": "6-31G**", 
		 "properties": { 
			 "R2extent": 8032.2117, 
			 "electric_dipole_moment_norm": 6.05227967133, 
			 "electric_quadrupole_moment_norm": 17.5669517561, 
			 "total_energy": -1094.51188728, 
			 "HOMO_LUMO_gap": 0.15607, 
			 "cosmo_polarized_energy": -14.26, 
			 "cosmo_cavitation_energy": 36.78, 
			 "cosmo_dispersion_energy": -26.16, 
			 "cosmo_repulsion_energy": 1.88, 
			 "cosmo_total_nonelectrostatic_energy": 12.5, 
			 "SMD_solvation_energy": 5.89 
		},
		"coords": [
			{
				"x": 2.241752653,
				"y": 0.9926618165,
				"z": 3.8955648762,
				"element": "C" 
			},
			{
				"x": 1.0133587621,
				"y": 1.4099637556,
				"z": 4.5058717545,
				"element": "O" 
			},
			{
				"x": -0.1162500824,
				"y": 1.2604470885,
				"z": 3.7975034298,
				"element": "C" 
			},
			{
				"x": -0.0568375313,
				"y": 0.7473797899,
				"z": 2.5936140965,
				"element": "N" 
			},
			{
				"x": -1.261866307,
				"y": 0.6421951988,
				"z": 1.9667972748,
				"element": "N" 
			},
			{
				"x": -2.4889643182,
				"y": 1.0255598979,
				"z": 2.4968864432,
				"element": "C" 
			},
			{
				"x": -2.5049945935,
				"y": 1.5754965406,
				"z": 3.8025457165,
				"element": "C" 
			},
			{
				"x": -1.3177383772,
				"y": 1.6957507651,
				"z": 4.459646974,
				"element": "C" 
			},
			{
				"x": -3.4548476633,
				"y": 0.7840638307,
				"z": 1.6184584491,
				"element": "N" 
			},
			{
				"x": -2.8672860472,
				"y": 0.2484502558,
				"z": 0.5247618914,
				"element": "N" 
			},
			{
				"x": -1.5484799265,
				"y": 0.1546323846,
				"z": 0.7136134179,
				"element": "C" 
			},
			{
				"x": -0.6219411647,
				"y": -0.3839293546,
				"z": -0.2836706268,
				"element": "C" 
			},
			{
				"x": 0.7638083572,
				"y": -0.4895665125,
				"z": -0.0775646547,
				"element": "C" 
			},
			{
				"x": 1.583029696,
				"y": -1.0149549559,
				"z": -1.0744315574,
				"element": "C" 
			},
			{
				"x": 1.0357470233,
				"y": -1.4424723947,
				"z": -2.2846185607,
				"element": "C" 
			},
			{
				"x": -0.34402112,
				"y": -1.3424977645,
				"z": -2.4976316784,
				"element": "C" 
			},
			{
				"x": -1.1650773233,
				"y": -0.8196285302,
				"z": -1.5084209293,
				"element": "C" 
			},
			{
				"x": 1.9283092538,
				"y": -1.9555316685,
				"z": -3.3807057562,
				"element": "C" 
			},
			{
				"x": 3.0682398984,
				"y": -2.4954916055,
				"z": -2.8936730873,
				"element": "F" 
			},
			{
				"x": 2.2952246072,
				"y": -0.9667230645,
				"z": -4.2302224292,
				"element": "F" 
			},
			{
				"x": 1.3158424063,
				"y": -2.9020791789,
				"z": -4.1262649336,
				"element": "F" 
			},
			{
				"x": 2.4290791406,
				"y": 1.5554909143,
				"z": 2.9766024388,
				"element": "H" 
			},
			{
				"x": 2.2155466364,
				"y": -0.0756325614,
				"z": 3.662234156,
				"element": "H" 
			},
			{
				"x": 3.0156714384,
				"y": 1.2015716172,
				"z": 4.6337539209,
				"element": "H" 
			},
			{
				"x": -3.451564104,
				"y": 1.8803824842,
				"z": 4.2333964747,
				"element": "H" 
			},
			{
				"x": -1.2342941224,
				"y": 2.1042846104,
				"z": 5.4590117973,
				"element": "H" 
			},
			{
				"x": 1.1934779574,
				"y": -0.1634242881,
				"z": 0.859938341,
				"element": "H" 
			},
			{
				"x": 2.6512594028,
				"y": -1.1005129839,
				"z": -0.9072989895,
				"element": "H" 
			},
			{
				"x": -0.7717629546,
				"y": -1.6826890338,
				"z": -3.434625747,
				"element": "H" 
			},
			{
				"x": -2.2352215976,
				"y": -0.740897053,
				"z": -1.6608725027,
				"element": "H" 
			}
		],
		 "valence_orbital": [ 
			{
				"type": "occ",
				"energy": -0.29212,
				"method": "rhf"
			},
			{
				"type": "occ",
				"energy": -0.26978,
				"method": "rhf"
			},
			{
				"type": "occ",
				"energy": -0.26668,
				"method": "rhf"
			},
			{
				"type": "occ",
				"energy": -0.25826,
				"method": "rhf"
			},
			{
				"type": "occ",
				"energy": -0.23047,
				"method": "rhf"
			},
			{
				"type": "unocc",
				"energy": -0.0744,
				"method": "rhf"
			},
			{
				"type": "unocc",
				"energy": -0.05283,
				"method": "rhf"
			},
			{
				"type": "unocc",
				"energy": -0.01616,
				"method": "rhf"
			},
			{
				"type": "unocc",
				"energy": 0.00343,
				"method": "rhf"
			},
			{
				"type": "unocc",
				"energy": 0.0535,
				"method": "rhf"
			}
		],
		"cosmo_sigma_profile": { 
			"-0.025": 0.0,
			"-0.024": 0.0,
			"-0.023": 0.0,
			"-0.022": 0.0,
			"-0.021": 0.0,
			"-0.02": 0.0,
			"-0.019": 0.0,
			"-0.018": 0.0,
			"-0.017": 0.0,
			"-0.016": 0.0,
			"-0.015": 0.0,
			"-0.014": 0.0,
			"-0.013": 0.0,
			"-0.012": 0.0,
			"-0.011": 0.0,
			"-0.01": 1.13502743983,
			"-0.009": 3.80687064521,
			"-0.008": 4.10929240454,
			"-0.007": 8.23822855026,
			"-0.006": 13.4580184919,
			"-0.005": 18.8364449301,
			"-0.004": 20.3471366146,
			"-0.003": 23.5788928193,
			"-0.002": 22.9460561184,
			"-0.001": 22.3357248232,
			"0.0": 22.6199312016,
			"0.001": 24.9632379263,
			"0.002": 35.119451439,
			"0.003": 39.05168268,
			"0.004": 7.48653787728,
			"0.005": 3.18218344284,
			"0.006": 3.16025575414,
			"0.007": 2.28641363666,
			"0.008": 2.61462778417,
			"0.009": 2.51375224693,
			"0.01": 2.15970078782,
			"0.011": 1.83100797268,
			"0.012": 3.64364225715,
			"0.013": 3.06609527764,
			"0.014": 2.44655625474,
			"0.015": 1.29568763544,
			"0.016": 0.892326427358,
			"0.017": 0.0145665320521,
			"0.018": 0.0,
			"0.019": 0.0,
			"0.02": 0.0,
			"0.021": 0.0,
			"0.022": 0.0,
			"0.023": 0.0,
			"0.024": 0.0,
			"0.025": 0.0
		}
	}
}
