{
	 "smiles": "COC1=CC2=C(C=C1OC)C(N(CC2)C(C)=O)C1=CC=C(C)C=C1", 
	 "Tm": 457.15, 
	 "num_atms": 47, 
	 "gaussian": { 
		 "optdone": 1, 
		 "sigma_profile": "yes", 
		 "theory": "DFT", 
		 "functional": "B3LYP", 
		 "basiset": "6-31G**", 
		 "properties": { 
			 "R2extent": 9187.3411, 
			 "electric_dipole_moment_norm": 3.593745528, 
			 "electric_quadrupole_moment_norm": 12.2369619228, 
			 "total_energy": -1056.40973522, 
			 "HOMO_LUMO_gap": 0.21453, 
			 "cosmo_polarized_energy": -14.61, 
			 "cosmo_cavitation_energy": 47.77, 
			 "cosmo_dispersion_energy": -32.77, 
			 "cosmo_repulsion_energy": 2.52, 
			 "cosmo_total_nonelectrostatic_energy": 17.52, 
			 "SMD_solvation_energy": 9.45 
		},
		"coords": [
			{
				"x": -1.6241964397,
				"y": -0.9172373107,
				"z": 4.9968820459,
				"element": "C" 
			},
			{
				"x": -0.3071462205,
				"y": -1.1116403335,
				"z": 4.4668977631,
				"element": "O" 
			},
			{
				"x": -0.1875262221,
				"y": -0.884730039,
				"z": 3.1135875365,
				"element": "C" 
			},
			{
				"x": 0.5881020772,
				"y": 0.1917012941,
				"z": 2.6785229664,
				"element": "C" 
			},
			{
				"x": 0.7601313622,
				"y": 0.4440906419,
				"z": 1.316460312,
				"element": "C" 
			},
			{
				"x": 0.1480274655,
				"y": -0.3941027905,
				"z": 0.3726110159,
				"element": "C" 
			},
			{
				"x": -0.6114225846,
				"y": -1.482830379,
				"z": 0.8045399866,
				"element": "C" 
			},
			{
				"x": -0.7820929743,
				"y": -1.7393490652,
				"z": 2.1659384224,
				"element": "C" 
			},
			{
				"x": -1.5584881844,
				"y": -2.8106714498,
				"z": 2.5507145339,
				"element": "O" 
			},
			{
				"x": -0.833446607,
				"y": -3.890184615,
				"z": 3.1523423413,
				"element": "C" 
			},
			{
				"x": 0.3535820986,
				"y": -0.0911663771,
				"z": -1.0975090894,
				"element": "C" 
			},
			{
				"x": 1.7792646039,
				"y": 0.2641650323,
				"z": -1.3323651519,
				"element": "N" 
			},
			{
				"x": 2.502638175,
				"y": 1.0931128661,
				"z": -0.3561739442,
				"element": "C" 
			},
			{
				"x": 1.5831931884,
				"y": 1.5839221251,
				"z": 0.7725440618,
				"element": "C" 
			},
			{
				"x": 2.4192292882,
				"y": -0.3282299505,
				"z": -2.3947702492,
				"element": "C" 
			},
			{
				"x": 3.9055356315,
				"y": -0.0414308095,
				"z": -2.5522073145,
				"element": "C" 
			},
			{
				"x": 1.8295860849,
				"y": -1.0520755023,
				"z": -3.1969677942,
				"element": "O" 
			},
			{
				"x": -0.6023395086,
				"y": 0.9664632936,
				"z": -1.6740460807,
				"element": "C" 
			},
			{
				"x": -0.5415370865,
				"y": 1.2574066335,
				"z": -3.0474164112,
				"element": "C" 
			},
			{
				"x": -1.3988797658,
				"y": 2.194067545,
				"z": -3.6155560455,
				"element": "C" 
			},
			{
				"x": -2.3520847187,
				"y": 2.8749651736,
				"z": -2.8416089673,
				"element": "C" 
			},
			{
				"x": -3.2690694232,
				"y": 3.8994811067,
				"z": -3.4673817063,
				"element": "C" 
			},
			{
				"x": -2.4180487753,
				"y": 2.5718105486,
				"z": -1.4794986043,
				"element": "C" 
			},
			{
				"x": -1.560065551,
				"y": 1.6299995793,
				"z": -0.902884951,
				"element": "C" 
			},
			{
				"x": -2.3483335096,
				"y": -1.5862336447,
				"z": 4.5223414815,
				"element": "H" 
			},
			{
				"x": -1.9459318275,
				"y": 0.1232960878,
				"z": 4.8625980976,
				"element": "H" 
			},
			{
				"x": -1.5594316854,
				"y": -1.1386962891,
				"z": 6.0641698895,
				"element": "H" 
			},
			{
				"x": 1.0506321267,
				"y": 0.8255592062,
				"z": 3.42992839,
				"element": "H" 
			},
			{
				"x": -1.0820122474,
				"y": -2.1549675538,
				"z": 0.0927691045,
				"element": "H" 
			},
			{
				"x": -1.5732014197,
				"y": -4.6532888917,
				"z": 3.4028587429,
				"element": "H" 
			},
			{
				"x": -0.1061172754,
				"y": -4.3096274595,
				"z": 2.4459866858,
				"element": "H" 
			},
			{
				"x": -0.3144522228,
				"y": -3.5654041187,
				"z": 4.0596595876,
				"element": "H" 
			},
			{
				"x": 0.2068763046,
				"y": -1.0056203599,
				"z": -1.6779174111,
				"element": "H" 
			},
			{
				"x": 2.9553095865,
				"y": 1.9575831916,
				"z": -0.8565032476,
				"element": "H" 
			},
			{
				"x": 3.3187401006,
				"y": 0.5100610508,
				"z": 0.090526808,
				"element": "H" 
			},
			{
				"x": 0.9230086542,
				"y": 2.3687451507,
				"z": 0.383381991,
				"element": "H" 
			},
			{
				"x": 2.1991551794,
				"y": 2.0399192417,
				"z": 1.55371691,
				"element": "H" 
			},
			{
				"x": 4.1006432817,
				"y": 1.0295999385,
				"z": -2.6711533034,
				"element": "H" 
			},
			{
				"x": 4.2496321422,
				"y": -0.5688977241,
				"z": -3.441103219,
				"element": "H" 
			},
			{
				"x": 4.479732726,
				"y": -0.3847942296,
				"z": -1.6851240119,
				"element": "H" 
			},
			{
				"x": 0.1724499599,
				"y": 0.7265039718,
				"z": -3.6694069978,
				"element": "H" 
			},
			{
				"x": -1.3342158822,
				"y": 2.3962566136,
				"z": -4.6825743669,
				"element": "H" 
			},
			{
				"x": -4.0392892432,
				"y": 4.2292879911,
				"z": -2.7644183717,
				"element": "H" 
			},
			{
				"x": -3.7728661321,
				"y": 3.4973462619,
				"z": -4.3534467155,
				"element": "H" 
			},
			{
				"x": -2.7135508605,
				"y": 4.7881777198,
				"z": -3.7911976772,
				"element": "H" 
			},
			{
				"x": -3.1530302938,
				"y": 3.074105271,
				"z": -0.8547482248,
				"element": "H" 
			},
			{
				"x": -1.6493933757,
				"y": 1.4103513571,
				"z": 0.1564011824,
				"element": "H" 
			}
		],
		 "valence_orbital": [ 
			{
				"type": "occ",
				"energy": -0.24363,
				"method": "rhf"
			},
			{
				"type": "occ",
				"energy": -0.24087,
				"method": "rhf"
			},
			{
				"type": "occ",
				"energy": -0.23487,
				"method": "rhf"
			},
			{
				"type": "occ",
				"energy": -0.22815,
				"method": "rhf"
			},
			{
				"type": "occ",
				"energy": -0.22019,
				"method": "rhf"
			},
			{
				"type": "unocc",
				"energy": -0.00566,
				"method": "rhf"
			},
			{
				"type": "unocc",
				"energy": -0.00332,
				"method": "rhf"
			},
			{
				"type": "unocc",
				"energy": 0.00487,
				"method": "rhf"
			},
			{
				"type": "unocc",
				"energy": 0.00842,
				"method": "rhf"
			},
			{
				"type": "unocc",
				"energy": 0.03466,
				"method": "rhf"
			}
		],
		"cosmo_sigma_profile": { 
			"-0.025": 0.0,
			"-0.024": 0.0,
			"-0.023": 0.0,
			"-0.022": 0.0,
			"-0.021": 0.0,
			"-0.02": 0.0,
			"-0.019": 0.0,
			"-0.018": 0.0,
			"-0.017": 0.0,
			"-0.016": 0.0,
			"-0.015": 0.0,
			"-0.014": 0.0,
			"-0.013": 0.0,
			"-0.012": 0.0,
			"-0.011": 0.0,
			"-0.01": 0.0,
			"-0.009": 0.0,
			"-0.008": 0.0,
			"-0.007": 1.28521284935,
			"-0.006": 12.1510034715,
			"-0.005": 26.6394889364,
			"-0.004": 39.2148612914,
			"-0.003": 45.8289340644,
			"-0.002": 45.922369339,
			"-0.001": 36.5781742921,
			"0.0": 32.4628729768,
			"0.001": 24.6623099886,
			"0.002": 20.2644747587,
			"0.003": 21.8729159193,
			"0.004": 16.708277434,
			"0.005": 12.528192674,
			"0.006": 11.3643376831,
			"0.007": 5.43239575052,
			"0.008": 4.085242167,
			"0.009": 2.40436215593,
			"0.01": 2.96670145808,
			"0.011": 3.83186561539,
			"0.012": 2.93925845475,
			"0.013": 1.96317423178,
			"0.014": 4.11528066576,
			"0.015": 1.60150985649,
			"0.016": 0.117296266653,
			"0.017": 0.0,
			"0.018": 0.0,
			"0.019": 0.0,
			"0.02": 0.0,
			"0.021": 0.0,
			"0.022": 0.0,
			"0.023": 0.0,
			"0.024": 0.0,
			"0.025": 0.0
		}
	}
}
