{
	 "smiles": "CNC(=O)N(C)C1=NC2=CC=CC=C2S1", 
	 "Tm": 393.15, 
	 "num_atms": 26, 
	 "gaussian": { 
		 "optdone": 1, 
		 "sigma_profile": "yes", 
		 "theory": "DFT", 
		 "functional": "B3LYP", 
		 "basiset": "6-31G**", 
		 "properties": { 
			 "R2extent": 4854.42, 
			 "electric_dipole_moment_norm": 2.56606476925, 
			 "electric_quadrupole_moment_norm": 10.5396249914, 
			 "total_energy": -1025.39719444, 
			 "HOMO_LUMO_gap": 0.19099, 
			 "cosmo_polarized_energy": -9.5, 
			 "cosmo_cavitation_energy": 30.84, 
			 "cosmo_dispersion_energy": -23.51, 
			 "cosmo_repulsion_energy": 1.78, 
			 "cosmo_total_nonelectrostatic_energy": 9.11, 
			 "SMD_solvation_energy": 4.33 
		},
		"coords": [
			{
				"x": 3.7419334139,
				"y": -1.2364357663,
				"z": -0.9545014332,
				"element": "C" 
			},
			{
				"x": 2.6356927777,
				"y": -0.2978935707,
				"z": -0.8899837157,
				"element": "N" 
			},
			{
				"x": 2.2750801249,
				"y": 0.381133218,
				"z": -1.9973694745,
				"element": "C" 
			},
			{
				"x": 2.8258867626,
				"y": 0.2635402197,
				"z": -3.0858405013,
				"element": "O" 
			},
			{
				"x": 1.1653176411,
				"y": 1.2972467068,
				"z": -1.8567996774,
				"element": "N" 
			},
			{
				"x": 0.7835010893,
				"y": 2.0295899969,
				"z": -3.0670310553,
				"element": "C" 
			},
			{
				"x": 0.4616485065,
				"y": 1.524584305,
				"z": -0.6992808767,
				"element": "C" 
			},
			{
				"x": 0.6741558609,
				"y": 0.9569278591,
				"z": 0.4557152953,
				"element": "N" 
			},
			{
				"x": -0.21184177,
				"y": 1.4067940475,
				"z": 1.420329511,
				"element": "C" 
			},
			{
				"x": -0.2362134553,
				"y": 0.9847973264,
				"z": 2.7565333285,
				"element": "C" 
			},
			{
				"x": -1.1860850352,
				"y": 1.5242152907,
				"z": 3.6184429419,
				"element": "C" 
			},
			{
				"x": -2.1123276258,
				"y": 2.4780676956,
				"z": 3.1688627648,
				"element": "C" 
			},
			{
				"x": -2.1037259774,
				"y": 2.9102832882,
				"z": 1.8430536888,
				"element": "C" 
			},
			{
				"x": -1.1508029903,
				"y": 2.3681901575,
				"z": 0.9812706582,
				"element": "C" 
			},
			{
				"x": -0.8876134778,
				"y": 2.7049648934,
				"z": -0.723992501,
				"element": "S" 
			},
			{
				"x": 3.878197644,
				"y": -1.6768585572,
				"z": 0.0350463235,
				"element": "H" 
			},
			{
				"x": 4.669343437,
				"y": -0.7374492722,
				"z": -1.2537271349,
				"element": "H" 
			},
			{
				"x": 3.5440488179,
				"y": -2.035484941,
				"z": -1.6763803392,
				"element": "H" 
			},
			{
				"x": 2.1157523555,
				"y": -0.1321120765,
				"z": -0.0305600907,
				"element": "H" 
			},
			{
				"x": 0.8870505133,
				"y": 3.1091314382,
				"z": -2.9153030253,
				"element": "H" 
			},
			{
				"x": -0.2497945232,
				"y": 1.800811258,
				"z": -3.3482598256,
				"element": "H" 
			},
			{
				"x": 1.4558142348,
				"y": 1.7074429546,
				"z": -3.8587225668,
				"element": "H" 
			},
			{
				"x": 0.4833768395,
				"y": 0.2469866743,
				"z": 3.0960757378,
				"element": "H" 
			},
			{
				"x": -1.2109997297,
				"y": 1.2020397375,
				"z": 4.6551142174,
				"element": "H" 
			},
			{
				"x": -2.8449882371,
				"y": 2.8859312223,
				"z": 3.8583768803,
				"element": "H" 
			},
			{
				"x": -2.8199071971,
				"y": 3.6478558944,
				"z": 1.4951308702,
				"element": "H" 
			}
		],
		 "valence_orbital": [ 
			{
				"type": "occ",
				"energy": -0.28966,
				"method": "rhf"
			},
			{
				"type": "occ",
				"energy": -0.26773,
				"method": "rhf"
			},
			{
				"type": "occ",
				"energy": -0.24958,
				"method": "rhf"
			},
			{
				"type": "occ",
				"energy": -0.23974,
				"method": "rhf"
			},
			{
				"type": "occ",
				"energy": -0.22007,
				"method": "rhf"
			},
			{
				"type": "unocc",
				"energy": -0.02908,
				"method": "rhf"
			},
			{
				"type": "unocc",
				"energy": -0.00901,
				"method": "rhf"
			},
			{
				"type": "unocc",
				"energy": -1e-05,
				"method": "rhf"
			},
			{
				"type": "unocc",
				"energy": 0.02731,
				"method": "rhf"
			},
			{
				"type": "unocc",
				"energy": 0.07081,
				"method": "rhf"
			}
		],
		"cosmo_sigma_profile": { 
			"-0.025": 0.0,
			"-0.024": 0.0,
			"-0.023": 0.0,
			"-0.022": 0.0,
			"-0.021": 0.0,
			"-0.02": 0.0,
			"-0.019": 0.0,
			"-0.018": 0.0,
			"-0.017": 0.0,
			"-0.016": 0.0,
			"-0.015": 0.0,
			"-0.014": 0.0,
			"-0.013": 0.0,
			"-0.012": 0.0,
			"-0.011": 0.0,
			"-0.01": 0.0,
			"-0.009": 0.273333966786,
			"-0.008": 1.10809512076,
			"-0.007": 3.85434041756,
			"-0.006": 12.8699539691,
			"-0.005": 19.1024982088,
			"-0.004": 21.6830010697,
			"-0.003": 22.8047759655,
			"-0.002": 22.2834006302,
			"-0.001": 23.8006001606,
			"0.0": 16.9236057881,
			"0.001": 19.0621598578,
			"0.002": 19.2758369199,
			"0.003": 18.5860246032,
			"0.004": 15.9448386172,
			"0.005": 11.2301003983,
			"0.006": 3.90545398783,
			"0.007": 1.82530926942,
			"0.008": 1.20502438749,
			"0.009": 1.07901535897,
			"0.01": 1.5611144659,
			"0.011": 1.89069777389,
			"0.012": 1.87804168405,
			"0.013": 4.17760204971,
			"0.014": 2.29588085886,
			"0.015": 0.00119638033253,
			"0.016": 0.0,
			"0.017": 0.0,
			"0.018": 0.0,
			"0.019": 0.0,
			"0.02": 0.0,
			"0.021": 0.0,
			"0.022": 0.0,
			"0.023": 0.0,
			"0.024": 0.0,
			"0.025": 0.0
		}
	}
}
