{
	 "smiles": "CC12CCC3C(CC=C4CC(O)CCC34C)C1CC[C@@]2(O)C#CC1=CC=CC=C1", 
	 "Tm": 437.15, 
	 "num_atms": 63, 
	 "gaussian": { 
		 "optdone": 1, 
		 "sigma_profile": "yes", 
		 "theory": "DFT", 
		 "functional": "B3LYP", 
		 "basiset": "6-31G**", 
		 "properties": { 
			 "R2extent": 14621.7673, 
			 "electric_dipole_moment_norm": 1.70699630052, 
			 "electric_quadrupole_moment_norm": 15.145953386, 
			 "total_energy": -1199.73875316, 
			 "HOMO_LUMO_gap": 0.19548, 
			 "cosmo_polarized_energy": -15.59, 
			 "cosmo_cavitation_energy": 56.37, 
			 "cosmo_dispersion_energy": -38.37, 
			 "cosmo_repulsion_energy": 2.85, 
			 "cosmo_total_nonelectrostatic_energy": 20.86, 
			 "SMD_solvation_energy": 8.0 
		},
		"coords": [
			{
				"x": -1.2857925462,
				"y": -0.8842006674,
				"z": 2.7718479966,
				"element": "C" 
			},
			{
				"x": -0.178274579,
				"y": -0.3008923726,
				"z": 1.8711257457,
				"element": "C" 
			},
			{
				"x": -0.3247028759,
				"y": 1.2371269551,
				"z": 1.8195840675,
				"element": "C" 
			},
			{
				"x": -1.4921018945,
				"y": 1.7011254626,
				"z": 0.9304384901,
				"element": "C" 
			},
			{
				"x": -1.423871688,
				"y": 1.140156474,
				"z": -0.5275257907,
				"element": "C" 
			},
			{
				"x": -0.2490065939,
				"y": 0.1349444546,
				"z": -0.6684216449,
				"element": "C" 
			},
			{
				"x": -0.148485324,
				"y": -0.3874385198,
				"z": -2.1132976008,
				"element": "C" 
			},
			{
				"x": -1.4745932406,
				"y": -0.7140286939,
				"z": -2.7341289111,
				"element": "C" 
			},
			{
				"x": -2.6558558161,
				"y": -0.2369200071,
				"z": -2.3242194497,
				"element": "C" 
			},
			{
				"x": -3.9378540976,
				"y": -0.7080250763,
				"z": -2.9770042663,
				"element": "C" 
			},
			{
				"x": -4.799143423,
				"y": -1.4796690493,
				"z": -1.961480389,
				"element": "C" 
			},
			{
				"x": -6.0731032002,
				"y": -1.8351016901,
				"z": -2.4910319626,
				"element": "O" 
			},
			{
				"x": -5.0468672228,
				"y": -0.6210008717,
				"z": -0.7258429844,
				"element": "C" 
			},
			{
				"x": -3.743791457,
				"y": -0.0807862191,
				"z": -0.1087163588,
				"element": "C" 
			},
			{
				"x": -2.8235659221,
				"y": 0.6871641806,
				"z": -1.1138515044,
				"element": "C" 
			},
			{
				"x": -3.5428424209,
				"y": 1.9960096697,
				"z": -1.5420990841,
				"element": "C" 
			},
			{
				"x": -0.2425965487,
				"y": -0.9489533956,
				"z": 0.4293057182,
				"element": "C" 
			},
			{
				"x": 0.9682325962,
				"y": -1.9230507172,
				"z": 0.3355467854,
				"element": "C" 
			},
			{
				"x": 1.4222323379,
				"y": -2.1584299757,
				"z": 1.7780102414,
				"element": "C" 
			},
			{
				"x": 1.2335023078,
				"y": -0.7734740024,
				"z": 2.4448329039,
				"element": "C" 
			},
			{
				"x": 1.2953272774,
				"y": -0.8120568824,
				"z": 3.8706627382,
				"element": "O" 
			},
			{
				"x": 2.336930315,
				"y": 0.1064345957,
				"z": 2.0273353042,
				"element": "C" 
			},
			{
				"x": 3.2782685713,
				"y": 0.7851671686,
				"z": 1.6736755515,
				"element": "C" 
			},
			{
				"x": 4.3857520672,
				"y": 1.5981792685,
				"z": 1.2793827025,
				"element": "C" 
			},
			{
				"x": 5.0929699817,
				"y": 2.3510970134,
				"z": 2.2372362229,
				"element": "C" 
			},
			{
				"x": 6.1724942273,
				"y": 3.1423774689,
				"z": 1.8525717927,
				"element": "C" 
			},
			{
				"x": 6.5646983808,
				"y": 3.1986111423,
				"z": 0.5128412805,
				"element": "C" 
			},
			{
				"x": 5.8694114762,
				"y": 2.4557083793,
				"z": -0.4442586724,
				"element": "C" 
			},
			{
				"x": 4.789338038,
				"y": 1.6606750114,
				"z": -0.0684992302,
				"element": "C" 
			},
			{
				"x": -1.2469372744,
				"y": -1.9788474758,
				"z": 2.8240348893,
				"element": "H" 
			},
			{
				"x": -1.217004587,
				"y": -0.4843708366,
				"z": 3.7882600606,
				"element": "H" 
			},
			{
				"x": -2.2735971386,
				"y": -0.6269352895,
				"z": 2.3825411745,
				"element": "H" 
			},
			{
				"x": 0.6066250592,
				"y": 1.6821908307,
				"z": 1.4598233661,
				"element": "H" 
			},
			{
				"x": -0.4630562544,
				"y": 1.6200294319,
				"z": 2.8379501093,
				"element": "H" 
			},
			{
				"x": -2.4297915208,
				"y": 1.4169966606,
				"z": 1.412293312,
				"element": "H" 
			},
			{
				"x": -1.4991983792,
				"y": 2.79647622,
				"z": 0.9081605538,
				"element": "H" 
			},
			{
				"x": -1.1305264638,
				"y": 1.9756996127,
				"z": -1.1764841543,
				"element": "H" 
			},
			{
				"x": 0.665253391,
				"y": 0.7178179933,
				"z": -0.4981064174,
				"element": "H" 
			},
			{
				"x": 0.5064292792,
				"y": -1.2655979552,
				"z": -2.1606014217,
				"element": "H" 
			},
			{
				"x": 0.3553403341,
				"y": 0.372921188,
				"z": -2.7305971866,
				"element": "H" 
			},
			{
				"x": -1.4568009044,
				"y": -1.3814749082,
				"z": -3.5961381742,
				"element": "H" 
			},
			{
				"x": -3.706151482,
				"y": -1.3495981839,
				"z": -3.8367589583,
				"element": "H" 
			},
			{
				"x": -4.5390889799,
				"y": 0.129473419,
				"z": -3.3536516638,
				"element": "H" 
			},
			{
				"x": -4.2425734232,
				"y": -2.3846235498,
				"z": -1.6610331523,
				"element": "H" 
			},
			{
				"x": -5.9262427438,
				"y": -2.3924541848,
				"z": -3.2662969823,
				"element": "H" 
			},
			{
				"x": -5.5923710219,
				"y": -1.2093521275,
				"z": 0.0205902811,
				"element": "H" 
			},
			{
				"x": -5.7137354675,
				"y": 0.1994843617,
				"z": -1.0154321152,
				"element": "H" 
			},
			{
				"x": -4.0170734429,
				"y": 0.5682320403,
				"z": 0.7292801407,
				"element": "H" 
			},
			{
				"x": -3.1854996396,
				"y": -0.9229212718,
				"z": 0.3137245633,
				"element": "H" 
			},
			{
				"x": -2.988000641,
				"y": 2.4976253664,
				"z": -2.3417040081,
				"element": "H" 
			},
			{
				"x": -3.6071612285,
				"y": 2.6856984997,
				"z": -0.6932769502,
				"element": "H" 
			},
			{
				"x": -4.5600582416,
				"y": 1.8274761948,
				"z": -1.9015557338,
				"element": "H" 
			},
			{
				"x": -1.1625236744,
				"y": -1.5392526812,
				"z": 0.3510097192,
				"element": "H" 
			},
			{
				"x": 1.7869655742,
				"y": -1.4527011148,
				"z": -0.2212104915,
				"element": "H" 
			},
			{
				"x": 0.7190863772,
				"y": -2.8530875583,
				"z": -0.1839035328,
				"element": "H" 
			},
			{
				"x": 0.7675429415,
				"y": -2.8827172724,
				"z": 2.2807735107,
				"element": "H" 
			},
			{
				"x": 2.449384666,
				"y": -2.5199286025,
				"z": 1.8693652759,
				"element": "H" 
			},
			{
				"x": 0.7178928733,
				"y": -1.5297710023,
				"z": 4.1618664336,
				"element": "H" 
			},
			{
				"x": 4.7850345091,
				"y": 2.3049504538,
				"z": 3.2767783125,
				"element": "H" 
			},
			{
				"x": 6.7095435881,
				"y": 3.7176755673,
				"z": 2.601279868,
				"element": "H" 
			},
			{
				"x": 7.4069086497,
				"y": 3.8171154038,
				"z": 0.2166550756,
				"element": "H" 
			},
			{
				"x": 6.1699241317,
				"y": 2.4950258043,
				"z": -1.4874122824,
				"element": "H" 
			},
			{
				"x": 4.2487524083,
				"y": 1.081495862,
				"z": -0.8104431131,
				"element": "H" 
			}
		],
		 "valence_orbital": [ 
			{
				"type": "occ",
				"energy": -0.26102,
				"method": "rhf"
			},
			{
				"type": "occ",
				"energy": -0.25744,
				"method": "rhf"
			},
			{
				"type": "occ",
				"energy": -0.25314,
				"method": "rhf"
			},
			{
				"type": "occ",
				"energy": -0.22655,
				"method": "rhf"
			},
			{
				"type": "occ",
				"energy": -0.22034,
				"method": "rhf"
			},
			{
				"type": "unocc",
				"energy": -0.02486,
				"method": "rhf"
			},
			{
				"type": "unocc",
				"energy": -0.00214,
				"method": "rhf"
			},
			{
				"type": "unocc",
				"energy": 0.02757,
				"method": "rhf"
			},
			{
				"type": "unocc",
				"energy": 0.03751,
				"method": "rhf"
			},
			{
				"type": "unocc",
				"energy": 0.0696,
				"method": "rhf"
			}
		],
		"cosmo_sigma_profile": { 
			"-0.025": 0.0,
			"-0.024": 0.0,
			"-0.023": 0.0,
			"-0.022": 0.0,
			"-0.021": 0.0,
			"-0.02": 0.0,
			"-0.019": 0.0,
			"-0.018": 0.0,
			"-0.017": 0.0,
			"-0.016": 0.0,
			"-0.015": 0.636401529258,
			"-0.014": 1.95528031725,
			"-0.013": 1.54060100213,
			"-0.012": 2.18323635392,
			"-0.011": 2.09679461327,
			"-0.01": 2.00948589742,
			"-0.009": 1.54199056285,
			"-0.008": 1.69291932655,
			"-0.007": 2.67652649616,
			"-0.006": 10.5031205317,
			"-0.005": 14.9656783284,
			"-0.004": 19.440550608,
			"-0.003": 33.9848525909,
			"-0.002": 54.2967193315,
			"-0.001": 66.9679180809,
			"0.0": 56.2463848074,
			"0.001": 42.4049998545,
			"0.002": 28.7812081696,
			"0.003": 22.2725852314,
			"0.004": 20.3098534531,
			"0.005": 17.7506189502,
			"0.006": 7.0488747517,
			"0.007": 4.31366472589,
			"0.008": 3.30579425041,
			"0.009": 2.21709666827,
			"0.01": 3.22039062717,
			"0.011": 2.49240967376,
			"0.012": 2.82051553221,
			"0.013": 3.69472645793,
			"0.014": 4.0027201563,
			"0.015": 0.884856444171,
			"0.016": 0.0,
			"0.017": 0.0,
			"0.018": 0.0,
			"0.019": 0.0,
			"0.02": 0.0,
			"0.021": 0.0,
			"0.022": 0.0,
			"0.023": 0.0,
			"0.024": 0.0,
			"0.025": 0.0
		}
	}
}
