{
	 "smiles": "ClC(=O)C1=CC2=C(SC=C2)C=C1", 
	 "Tm": 359.65, 
	 "num_atms": 17, 
	 "gaussian": { 
		 "optdone": 1, 
		 "sigma_profile": "yes", 
		 "theory": "DFT", 
		 "functional": "B3LYP", 
		 "basiset": "6-31G**", 
		 "properties": { 
			 "R2extent": 3650.0051, 
			 "electric_dipole_moment_norm": 4.35533840132, 
			 "electric_quadrupole_moment_norm": 12.5244756996, 
			 "total_energy": -1279.5835041, 
			 "HOMO_LUMO_gap": 0.16524, 
			 "cosmo_polarized_energy": -7.06, 
			 "cosmo_cavitation_energy": 25.15, 
			 "cosmo_dispersion_energy": -19.41, 
			 "cosmo_repulsion_energy": 1.47, 
			 "cosmo_total_nonelectrostatic_energy": 7.21, 
			 "SMD_solvation_energy": 4.6 
		},
		"coords": [
			{
				"x": 3.6898530966,
				"y": 0.0391515949,
				"z": 3.1227845671,
				"element": "Cl" 
			},
			{
				"x": 1.9873094912,
				"y": 0.5451122431,
				"z": 2.6603814867,
				"element": "C" 
			},
			{
				"x": 1.4605403708,
				"y": 1.4116735969,
				"z": 3.292092344,
				"element": "O" 
			},
			{
				"x": 1.4007198222,
				"y": -0.1844757895,
				"z": 1.514092626,
				"element": "C" 
			},
			{
				"x": 0.1026182799,
				"y": 0.1938368996,
				"z": 1.1523277293,
				"element": "C" 
			},
			{
				"x": -0.5334634609,
				"y": -0.4412496646,
				"z": 0.0798668886,
				"element": "C" 
			},
			{
				"x": 0.1618116236,
				"y": -1.4632257864,
				"z": -0.6202488877,
				"element": "C" 
			},
			{
				"x": -0.8170477091,
				"y": -2.1152093955,
				"z": -1.9156562217,
				"element": "S" 
			},
			{
				"x": -2.1316710392,
				"y": -1.0260825148,
				"z": -1.511846777,
				"element": "C" 
			},
			{
				"x": -1.8512338226,
				"y": -0.2160963837,
				"z": -0.4608060522,
				"element": "C" 
			},
			{
				"x": 1.4603528817,
				"y": -1.8447024311,
				"z": -0.2616251958,
				"element": "C" 
			},
			{
				"x": 2.0738195497,
				"y": -1.2037107692,
				"z": 0.8036979965,
				"element": "C" 
			},
			{
				"x": -0.395741455,
				"y": 0.9786278181,
				"z": 1.7112658936,
				"element": "H" 
			},
			{
				"x": -3.0410750874,
				"y": -1.0642891949,
				"z": -2.0962099706,
				"element": "H" 
			},
			{
				"x": -2.5417074993,
				"y": 0.5213826364,
				"z": -0.0682078159,
				"element": "H" 
			},
			{
				"x": 1.981815849,
				"y": -2.6268167996,
				"z": -0.8037642702,
				"element": "H" 
			},
			{
				"x": 3.0775991089,
				"y": -1.4842260596,
				"z": 1.0965556592,
				"element": "H" 
			}
		],
		 "valence_orbital": [ 
			{
				"type": "occ",
				"energy": -0.31723,
				"method": "rhf"
			},
			{
				"type": "occ",
				"energy": -0.30546,
				"method": "rhf"
			},
			{
				"type": "occ",
				"energy": -0.29151,
				"method": "rhf"
			},
			{
				"type": "occ",
				"energy": -0.26137,
				"method": "rhf"
			},
			{
				"type": "occ",
				"energy": -0.23989,
				"method": "rhf"
			},
			{
				"type": "unocc",
				"energy": -0.07465,
				"method": "rhf"
			},
			{
				"type": "unocc",
				"energy": -0.04599,
				"method": "rhf"
			},
			{
				"type": "unocc",
				"energy": 0.00374,
				"method": "rhf"
			},
			{
				"type": "unocc",
				"energy": 0.01026,
				"method": "rhf"
			},
			{
				"type": "unocc",
				"energy": 0.02115,
				"method": "rhf"
			}
		],
		"cosmo_sigma_profile": { 
			"-0.025": 0.0,
			"-0.024": 0.0,
			"-0.023": 0.0,
			"-0.022": 0.0,
			"-0.021": 0.0,
			"-0.02": 0.0,
			"-0.019": 0.0,
			"-0.018": 0.0,
			"-0.017": 0.0,
			"-0.016": 0.0,
			"-0.015": 0.0,
			"-0.014": 0.0,
			"-0.013": 0.0,
			"-0.012": 0.0,
			"-0.011": 0.0,
			"-0.01": 0.160847167894,
			"-0.009": 2.18583032477,
			"-0.008": 5.60952934893,
			"-0.007": 10.2665311645,
			"-0.006": 9.06852207649,
			"-0.005": 7.78193117399,
			"-0.004": 9.47363691417,
			"-0.003": 10.7754943517,
			"-0.002": 11.9874339171,
			"-0.001": 15.0125731931,
			"0.0": 16.7508265704,
			"0.001": 27.6136661676,
			"0.002": 29.1506660831,
			"0.003": 16.4839012194,
			"0.004": 14.1100713101,
			"0.005": 7.407265892,
			"0.006": 3.46965054989,
			"0.007": 2.74754131925,
			"0.008": 3.60616261799,
			"0.009": 3.77623244505,
			"0.01": 0.69138378162,
			"0.011": 0.0,
			"0.012": 0.0,
			"0.013": 0.0,
			"0.014": 0.0,
			"0.015": 0.0,
			"0.016": 0.0,
			"0.017": 0.0,
			"0.018": 0.0,
			"0.019": 0.0,
			"0.02": 0.0,
			"0.021": 0.0,
			"0.022": 0.0,
			"0.023": 0.0,
			"0.024": 0.0,
			"0.025": 0.0
		}
	}
}
