{
	 "smiles": "O=C1NC(=O)C2(CCC3=CC=CC=C3C2)N1", 
	 "Tm": 541.15, 
	 "num_atms": 28, 
	 "gaussian": { 
		 "optdone": 1, 
		 "sigma_profile": "yes", 
		 "theory": "DFT", 
		 "functional": "B3LYP", 
		 "basiset": "6-31G**", 
		 "properties": { 
			 "R2extent": 4019.3716, 
			 "electric_dipole_moment_norm": 2.55133650858, 
			 "electric_quadrupole_moment_norm": 13.9121399001, 
			 "total_energy": -724.514246637, 
			 "HOMO_LUMO_gap": 0.22537, 
			 "cosmo_polarized_energy": -17.9, 
			 "cosmo_cavitation_energy": 30.52, 
			 "cosmo_dispersion_energy": -22.32, 
			 "cosmo_repulsion_energy": 1.73, 
			 "cosmo_total_nonelectrostatic_energy": 9.93, 
			 "SMD_solvation_energy": 5.64 
		},
		"coords": [
			{
				"x": -1.1577538233,
				"y": -2.7735972053,
				"z": 4.4421583609,
				"element": "O" 
			},
			{
				"x": -0.9459012738,
				"y": -2.3545475167,
				"z": 3.3235629999,
				"element": "C" 
			},
			{
				"x": -1.346167849,
				"y": -2.9663990222,
				"z": 2.1165366319,
				"element": "N" 
			},
			{
				"x": -1.0098590782,
				"y": -2.2403007399,
				"z": 0.9937157589,
				"element": "C" 
			},
			{
				"x": -1.2296381363,
				"y": -2.547937995,
				"z": -0.1600818558,
				"element": "O" 
			},
			{
				"x": -0.3058261572,
				"y": -0.9605373218,
				"z": 1.5024900314,
				"element": "C" 
			},
			{
				"x": -1.1229247583,
				"y": 0.3035374835,
				"z": 1.15630866,
				"element": "C" 
			},
			{
				"x": -1.1997783691,
				"y": 0.5476934867,
				"z": -0.3554556291,
				"element": "C" 
			},
			{
				"x": 0.1444192472,
				"y": 0.4528239983,
				"z": -1.0475029307,
				"element": "C" 
			},
			{
				"x": 0.3170222443,
				"y": 1.0249960679,
				"z": -2.3157512172,
				"element": "C" 
			},
			{
				"x": 1.5208085091,
				"y": 0.9084664018,
				"z": -3.0049391176,
				"element": "C" 
			},
			{
				"x": 2.581215187,
				"y": 0.206317194,
				"z": -2.4267636821,
				"element": "C" 
			},
			{
				"x": 2.4213052586,
				"y": -0.3633312992,
				"z": -1.1668870766,
				"element": "C" 
			},
			{
				"x": 1.2137013444,
				"y": -0.245480768,
				"z": -0.4641320084,
				"element": "C" 
			},
			{
				"x": 1.1233268898,
				"y": -0.830228634,
				"z": 0.9340347347,
				"element": "C" 
			},
			{
				"x": -0.2777923942,
				"y": -1.2194687236,
				"z": 2.9419043595,
				"element": "N" 
			},
			{
				"x": -1.8224988962,
				"y": -3.8566130688,
				"z": 2.0940663583,
				"element": "H" 
			},
			{
				"x": -0.6308438076,
				"y": 1.1536019297,
				"z": 1.6481727145,
				"element": "H" 
			},
			{
				"x": -2.1270325954,
				"y": 0.2217470999,
				"z": 1.5866765806,
				"element": "H" 
			},
			{
				"x": -1.6479532008,
				"y": 1.53079845,
				"z": -0.5399747995,
				"element": "H" 
			},
			{
				"x": -1.8723014127,
				"y": -0.1934017273,
				"z": -0.8031801913,
				"element": "H" 
			},
			{
				"x": -0.5124558374,
				"y": 1.5652269253,
				"z": -2.766540115,
				"element": "H" 
			},
			{
				"x": 1.6319496572,
				"y": 1.3598866972,
				"z": -3.9866464712,
				"element": "H" 
			},
			{
				"x": 3.5248169874,
				"y": 0.1030102903,
				"z": -2.9546573334,
				"element": "H" 
			},
			{
				"x": 3.2457940549,
				"y": -0.9096732314,
				"z": -0.7139832737,
				"element": "H" 
			},
			{
				"x": 1.6242280128,
				"y": -1.8040630971,
				"z": 0.9736914064,
				"element": "H" 
			},
			{
				"x": 1.6775582861,
				"y": -0.1815559345,
				"z": 1.6274556982,
				"element": "H" 
			},
			{
				"x": -0.0335180894,
				"y": -0.52596974,
				"z": 3.6323214062,
				"element": "H" 
			}
		],
		 "valence_orbital": [ 
			{
				"type": "occ",
				"energy": -0.28898,
				"method": "rhf"
			},
			{
				"type": "occ",
				"energy": -0.26693,
				"method": "rhf"
			},
			{
				"type": "occ",
				"energy": -0.26316,
				"method": "rhf"
			},
			{
				"type": "occ",
				"energy": -0.24323,
				"method": "rhf"
			},
			{
				"type": "occ",
				"energy": -0.2375,
				"method": "rhf"
			},
			{
				"type": "unocc",
				"energy": -0.01213,
				"method": "rhf"
			},
			{
				"type": "unocc",
				"energy": -0.00442,
				"method": "rhf"
			},
			{
				"type": "unocc",
				"energy": 0.00225,
				"method": "rhf"
			},
			{
				"type": "unocc",
				"energy": 0.05983,
				"method": "rhf"
			},
			{
				"type": "unocc",
				"energy": 0.07128,
				"method": "rhf"
			}
		],
		"cosmo_sigma_profile": { 
			"-0.025": 0.0,
			"-0.024": 0.0,
			"-0.023": 0.0,
			"-0.022": 0.0,
			"-0.021": 0.0,
			"-0.02": 0.0,
			"-0.019": 0.0,
			"-0.018": 0.0,
			"-0.017": 0.219523472414,
			"-0.016": 1.17951865088,
			"-0.015": 2.27472122261,
			"-0.014": 2.53068845927,
			"-0.013": 1.80145987821,
			"-0.012": 1.09661684434,
			"-0.011": 2.22710201423,
			"-0.01": 2.4193340596,
			"-0.009": 1.91876046104,
			"-0.008": 2.77867258699,
			"-0.007": 2.27862332405,
			"-0.006": 7.44697250084,
			"-0.005": 20.0350741778,
			"-0.004": 21.9054758425,
			"-0.003": 23.3116712256,
			"-0.002": 23.3785334748,
			"-0.001": 19.605046258,
			"0.0": 10.8402453336,
			"0.001": 8.33452612388,
			"0.002": 9.54278216131,
			"0.003": 9.17517154849,
			"0.004": 10.0727306749,
			"0.005": 8.92915114991,
			"0.006": 9.51479437843,
			"0.007": 6.79262125495,
			"0.008": 2.52832093443,
			"0.009": 2.9549741384,
			"0.01": 4.43233432303,
			"0.011": 4.70416787718,
			"0.012": 8.567377054,
			"0.013": 7.01053086469,
			"0.014": 1.33407860068,
			"0.015": 0.0,
			"0.016": 0.0,
			"0.017": 0.0,
			"0.018": 0.0,
			"0.019": 0.0,
			"0.02": 0.0,
			"0.021": 0.0,
			"0.022": 0.0,
			"0.023": 0.0,
			"0.024": 0.0,
			"0.025": 0.0
		}
	}
}
