{
	 "smiles": "CC(C)NC1=NC(N)=NC(Cl)=N1", 
	 "Tm": 406.15, 
	 "num_atms": 22, 
	 "gaussian": { 
		 "optdone": 1, 
		 "sigma_profile": "yes", 
		 "theory": "DFT", 
		 "functional": "B3LYP", 
		 "basiset": "6-31G**", 
		 "properties": { 
			 "R2extent": 4145.0178, 
			 "electric_dipole_moment_norm": 4.64722914219, 
			 "electric_quadrupole_moment_norm": 21.2106257176, 
			 "total_energy": -968.665927356, 
			 "HOMO_LUMO_gap": 0.22228, 
			 "cosmo_polarized_energy": -13.14, 
			 "cosmo_cavitation_energy": 27.88, 
			 "cosmo_dispersion_energy": -20.62, 
			 "cosmo_repulsion_energy": 1.71, 
			 "cosmo_total_nonelectrostatic_energy": 8.98, 
			 "SMD_solvation_energy": 0.41 
		},
		"coords": [
			{
				"x": 1.0456236299,
				"y": -2.1565606372,
				"z": 0.718351477,
				"element": "C" 
			},
			{
				"x": 1.0712058614,
				"y": -0.8124395299,
				"z": -0.0240968466,
				"element": "C" 
			},
			{
				"x": 2.4073437653,
				"y": -0.5633220184,
				"z": -0.7290303002,
				"element": "C" 
			},
			{
				"x": 0.7954140231,
				"y": 0.305190933,
				"z": 0.87962931,
				"element": "N" 
			},
			{
				"x": -0.4330090243,
				"y": 0.7190755736,
				"z": 1.2577167386,
				"element": "C" 
			},
			{
				"x": -1.5127025781,
				"y": 0.1330317079,
				"z": 0.716716497,
				"element": "N" 
			},
			{
				"x": -2.6806003603,
				"y": 0.6370064018,
				"z": 1.142783562,
				"element": "C" 
			},
			{
				"x": -3.8143747051,
				"y": 0.0954743973,
				"z": 0.6456038647,
				"element": "N" 
			},
			{
				"x": -2.8358973069,
				"y": 1.6392609052,
				"z": 2.0407870206,
				"element": "N" 
			},
			{
				"x": -1.6810536599,
				"y": 2.1052350142,
				"z": 2.4864581936,
				"element": "C" 
			},
			{
				"x": -1.7962624045,
				"y": 3.408527782,
				"z": 3.6642119425,
				"element": "Cl" 
			},
			{
				"x": -0.4588239613,
				"y": 1.7289826792,
				"z": 2.1706786777,
				"element": "N" 
			},
			{
				"x": 1.8275658171,
				"y": -2.194779081,
				"z": 1.4851200378,
				"element": "H" 
			},
			{
				"x": 0.0772296633,
				"y": -2.3049488556,
				"z": 1.2031195135,
				"element": "H" 
			},
			{
				"x": 1.2116725319,
				"y": -2.9848173738,
				"z": 0.0211330088,
				"element": "H" 
			},
			{
				"x": 0.2656833674,
				"y": -0.8108692525,
				"z": -0.7643088748,
				"element": "H" 
			},
			{
				"x": 2.6218578536,
				"y": -1.3710101317,
				"z": -1.4346301091,
				"element": "H" 
			},
			{
				"x": 3.2328222933,
				"y": -0.5290154373,
				"z": -0.0071394761,
				"element": "H" 
			},
			{
				"x": 2.3935691725,
				"y": 0.3817806107,
				"z": -1.2796734245,
				"element": "H" 
			},
			{
				"x": 1.5598342983,
				"y": 0.7448383325,
				"z": 1.3732127172,
				"element": "H" 
			},
			{
				"x": -4.7003688635,
				"y": 0.4933615741,
				"z": 0.9082881925,
				"element": "H" 
			},
			{
				"x": -3.7528294132,
				"y": -0.609803594,
				"z": -0.0688317221,
				"element": "H" 
			}
		],
		 "valence_orbital": [ 
			{
				"type": "occ",
				"energy": -0.28953,
				"method": "rhf"
			},
			{
				"type": "occ",
				"energy": -0.26779,
				"method": "rhf"
			},
			{
				"type": "occ",
				"energy": -0.26677,
				"method": "rhf"
			},
			{
				"type": "occ",
				"energy": -0.25556,
				"method": "rhf"
			},
			{
				"type": "occ",
				"energy": -0.23848,
				"method": "rhf"
			},
			{
				"type": "unocc",
				"energy": -0.0162,
				"method": "rhf"
			},
			{
				"type": "unocc",
				"energy": 0.00164,
				"method": "rhf"
			},
			{
				"type": "unocc",
				"energy": 0.0475,
				"method": "rhf"
			},
			{
				"type": "unocc",
				"energy": 0.0792,
				"method": "rhf"
			},
			{
				"type": "unocc",
				"energy": 0.08545,
				"method": "rhf"
			}
		],
		"cosmo_sigma_profile": { 
			"-0.025": 0.0,
			"-0.024": 0.0,
			"-0.023": 0.0,
			"-0.022": 0.0,
			"-0.021": 0.0,
			"-0.02": 0.0,
			"-0.019": 0.0,
			"-0.018": 0.0,
			"-0.017": 0.0,
			"-0.016": 0.0,
			"-0.015": 0.460543917001,
			"-0.014": 2.48258169147,
			"-0.013": 3.08601873866,
			"-0.012": 2.32899275932,
			"-0.011": 3.3090108584,
			"-0.01": 3.4097105615,
			"-0.009": 2.77335482672,
			"-0.008": 2.26786671765,
			"-0.007": 2.58014366485,
			"-0.006": 2.6293705485,
			"-0.005": 2.87151771684,
			"-0.004": 10.4702205022,
			"-0.003": 19.8844772256,
			"-0.002": 19.3903823969,
			"-0.001": 20.6398302793,
			"0.0": 25.3387752933,
			"0.001": 20.8981356074,
			"0.002": 14.1380428188,
			"0.003": 12.7848092164,
			"0.004": 13.8033627496,
			"0.005": 8.18219375315,
			"0.006": 6.26763321639,
			"0.007": 4.98409094072,
			"0.008": 4.31133711558,
			"0.009": 3.63478763093,
			"0.01": 3.19376066611,
			"0.011": 2.28181840054,
			"0.012": 1.34119009759,
			"0.013": 1.87180220954,
			"0.014": 0.784637033037,
			"0.015": 0.0,
			"0.016": 0.0,
			"0.017": 0.0,
			"0.018": 0.0,
			"0.019": 0.0,
			"0.02": 0.0,
			"0.021": 0.0,
			"0.022": 0.0,
			"0.023": 0.0,
			"0.024": 0.0,
			"0.025": 0.0
		}
	}
}
