{
	 "smiles": "ClC(=O)C1=NOC(=C1)C1=CC=CO1", 
	 "Tm": 348.15, 
	 "num_atms": 17, 
	 "gaussian": { 
		 "optdone": 1, 
		 "sigma_profile": "yes", 
		 "theory": "DFT", 
		 "functional": "B3LYP", 
		 "basiset": "6-31G**", 
		 "properties": { 
			 "R2extent": 5842.2667, 
			 "electric_dipole_moment_norm": 6.23325036317, 
			 "electric_quadrupole_moment_norm": 19.2158175317, 
			 "total_energy": -1047.78917709, 
			 "HOMO_LUMO_gap": 0.15112, 
			 "cosmo_polarized_energy": -10.61, 
			 "cosmo_cavitation_energy": 25.65, 
			 "cosmo_dispersion_energy": -18.88, 
			 "cosmo_repulsion_energy": 1.48, 
			 "cosmo_total_nonelectrostatic_energy": 8.25, 
			 "SMD_solvation_energy": 6.02 
		},
		"coords": [
			{
				"x": -3.2534026488,
				"y": 4.9485079244,
				"z": -1.7373862876,
				"element": "Cl" 
			},
			{
				"x": -4.0536216945,
				"y": 3.3158407087,
				"z": -1.6013800573,
				"element": "C" 
			},
			{
				"x": -5.2061581156,
				"y": 3.1820952894,
				"z": -1.8597742874,
				"element": "O" 
			},
			{
				"x": -3.1157812285,
				"y": 2.2603426287,
				"z": -1.1527450892,
				"element": "C" 
			},
			{
				"x": -3.5947915131,
				"y": 1.0323137498,
				"z": -1.0210743508,
				"element": "N" 
			},
			{
				"x": -2.5243262081,
				"y": 0.2742181801,
				"z": -0.6002357558,
				"element": "O" 
			},
			{
				"x": -1.41763181,
				"y": 1.0541723025,
				"z": -0.4844542094,
				"element": "C" 
			},
			{
				"x": -1.7374282311,
				"y": 2.3419009374,
				"z": -0.8268854108,
				"element": "C" 
			},
			{
				"x": -0.1935641376,
				"y": 0.4312625804,
				"z": -0.0529549255,
				"element": "C" 
			},
			{
				"x": 1.0693324848,
				"y": 0.9253451839,
				"z": 0.1601746897,
				"element": "C" 
			},
			{
				"x": 1.8639913744,
				"y": -0.180617419,
				"z": 0.5837243741,
				"element": "C" 
			},
			{
				"x": 1.0319159817,
				"y": -1.2621779253,
				"z": 0.5977569632,
				"element": "C" 
			},
			{
				"x": -0.2220391212,
				"y": -0.9088550587,
				"z": 0.2137220726,
				"element": "O" 
			},
			{
				"x": -1.1024444436,
				"y": 3.2116154241,
				"z": -0.8466128399,
				"element": "H" 
			},
			{
				"x": 1.3883178162,
				"y": 1.949367458,
				"z": 0.0303566818,
				"element": "H" 
			},
			{
				"x": 2.912534613,
				"y": -0.1707069239,
				"z": 0.8424453252,
				"element": "H" 
			},
			{
				"x": 1.1693968819,
				"y": -2.3033250403,
				"z": 0.8446231069,
				"element": "H" 
			}
		],
		 "valence_orbital": [ 
			{
				"type": "occ",
				"energy": -0.32739,
				"method": "rhf"
			},
			{
				"type": "occ",
				"energy": -0.32215,
				"method": "rhf"
			},
			{
				"type": "occ",
				"energy": -0.30661,
				"method": "rhf"
			},
			{
				"type": "occ",
				"energy": -0.30327,
				"method": "rhf"
			},
			{
				"type": "occ",
				"energy": -0.23864,
				"method": "rhf"
			},
			{
				"type": "unocc",
				"energy": -0.08752,
				"method": "rhf"
			},
			{
				"type": "unocc",
				"energy": -0.05689,
				"method": "rhf"
			},
			{
				"type": "unocc",
				"energy": 0.00706,
				"method": "rhf"
			},
			{
				"type": "unocc",
				"energy": 0.02289,
				"method": "rhf"
			},
			{
				"type": "unocc",
				"energy": 0.06144,
				"method": "rhf"
			}
		],
		"cosmo_sigma_profile": { 
			"-0.025": 0.0,
			"-0.024": 0.0,
			"-0.023": 0.0,
			"-0.022": 0.0,
			"-0.021": 0.0,
			"-0.02": 0.0,
			"-0.019": 0.0,
			"-0.018": 0.0,
			"-0.017": 0.0,
			"-0.016": 0.0,
			"-0.015": 0.0,
			"-0.014": 0.0,
			"-0.013": 0.0,
			"-0.012": 0.0,
			"-0.011": 0.0236130756548,
			"-0.01": 2.31074210236,
			"-0.009": 5.30664325304,
			"-0.008": 7.1894274972,
			"-0.007": 7.02282438757,
			"-0.006": 8.66779589469,
			"-0.005": 8.95798036875,
			"-0.004": 9.72760002011,
			"-0.003": 14.0994454188,
			"-0.002": 17.0443577169,
			"-0.001": 15.409160701,
			"0.0": 16.9181106221,
			"0.001": 17.0702983435,
			"0.002": 15.2400588595,
			"0.003": 18.0265393306,
			"0.004": 11.1862784082,
			"0.005": 7.58198808416,
			"0.006": 8.41853467737,
			"0.007": 8.61201669288,
			"0.008": 6.54860313968,
			"0.009": 1.75281998474,
			"0.01": 1.52591036083,
			"0.011": 1.36065531245,
			"0.012": 0.738235559819,
			"0.013": 0.0202036780798,
			"0.014": 0.0,
			"0.015": 0.0,
			"0.016": 0.0,
			"0.017": 0.0,
			"0.018": 0.0,
			"0.019": 0.0,
			"0.02": 0.0,
			"0.021": 0.0,
			"0.022": 0.0,
			"0.023": 0.0,
			"0.024": 0.0,
			"0.025": 0.0
		}
	}
}
