{
	 "smiles": "CC(C)(C#N)C#N", 
	 "Tm": 304.65, 
	 "num_atms": 13, 
	 "gaussian": { 
		 "optdone": 1, 
		 "sigma_profile": "yes", 
		 "theory": "DFT", 
		 "functional": "B3LYP", 
		 "basiset": "6-31G**", 
		 "properties": { 
			 "R2extent": 1312.1211, 
			 "electric_dipole_moment_norm": 4.39723884387, 
			 "electric_quadrupole_moment_norm": 13.162570001, 
			 "total_energy": -303.609521796, 
			 "HOMO_LUMO_gap": 0.32572, 
			 "cosmo_polarized_energy": -11.71, 
			 "cosmo_cavitation_energy": 18.51, 
			 "cosmo_dispersion_energy": -12.16, 
			 "cosmo_repulsion_energy": 1.07, 
			 "cosmo_total_nonelectrostatic_energy": 7.41, 
			 "SMD_solvation_energy": 6.37 
		},
		"coords": [
			{
				"x": 0.182649537,
				"y": 1.6388061987,
				"z": -2.0984455636,
				"element": "C" 
			},
			{
				"x": 1.0013717744,
				"y": 0.7730190528,
				"z": -1.1029143878,
				"element": "C" 
			},
			{
				"x": 0.3668261137,
				"y": -0.6341873908,
				"z": -0.9353266229,
				"element": "C" 
			},
			{
				"x": 2.3860037081,
				"y": 0.6281722104,
				"z": -1.6052011404,
				"element": "C" 
			},
			{
				"x": 3.4554027124,
				"y": 0.4951569911,
				"z": -2.0344892533,
				"element": "N" 
			},
			{
				"x": 1.0442874313,
				"y": 1.4496856128,
				"z": 0.212668015,
				"element": "C" 
			},
			{
				"x": 1.0344572585,
				"y": 1.9774595397,
				"z": 1.2456023802,
				"element": "N" 
			},
			{
				"x": 0.6293057071,
				"y": 2.6279582526,
				"z": -2.215745265,
				"element": "H" 
			},
			{
				"x": 0.1553308692,
				"y": 1.1440995282,
				"z": -3.0723275526,
				"element": "H" 
			},
			{
				"x": -0.8383136755,
				"y": 1.752434482,
				"z": -1.7260910396,
				"element": "H" 
			},
			{
				"x": 0.3401730066,
				"y": -1.1381224149,
				"z": -1.9044866523,
				"element": "H" 
			},
			{
				"x": -0.653361897,
				"y": -0.5297780684,
				"z": -0.55817077,
				"element": "H" 
			},
			{
				"x": 0.9429674542,
				"y": -1.2423039944,
				"z": -0.2353721476,
				"element": "H" 
			}
		],
		 "valence_orbital": [ 
			{
				"type": "occ",
				"energy": -0.3744,
				"method": "rhf"
			},
			{
				"type": "occ",
				"energy": -0.35467,
				"method": "rhf"
			},
			{
				"type": "occ",
				"energy": -0.35415,
				"method": "rhf"
			},
			{
				"type": "occ",
				"energy": -0.34353,
				"method": "rhf"
			},
			{
				"type": "occ",
				"energy": -0.33825,
				"method": "rhf"
			},
			{
				"type": "unocc",
				"energy": -0.01253,
				"method": "rhf"
			},
			{
				"type": "unocc",
				"energy": 0.00404,
				"method": "rhf"
			},
			{
				"type": "unocc",
				"energy": 0.028,
				"method": "rhf"
			},
			{
				"type": "unocc",
				"energy": 0.04796,
				"method": "rhf"
			},
			{
				"type": "unocc",
				"energy": 0.05617,
				"method": "rhf"
			}
		],
		"cosmo_sigma_profile": { 
			"-0.025": 0.0,
			"-0.024": 0.0,
			"-0.023": 0.0,
			"-0.022": 0.0,
			"-0.021": 0.0,
			"-0.02": 0.0,
			"-0.019": 0.0,
			"-0.018": 0.0,
			"-0.017": 0.0,
			"-0.016": 0.0,
			"-0.015": 0.0,
			"-0.014": 0.0,
			"-0.013": 0.0,
			"-0.012": 0.0,
			"-0.011": 0.0,
			"-0.01": 0.0,
			"-0.009": 1.05513032296,
			"-0.008": 4.92260604479,
			"-0.007": 11.878502143,
			"-0.006": 13.3973404987,
			"-0.005": 11.6215179592,
			"-0.004": 12.4830675475,
			"-0.003": 17.9874072396,
			"-0.002": 10.5069843515,
			"-0.001": 4.01066183076,
			"0.0": 1.77556549548,
			"0.001": 3.48191615303,
			"0.002": 5.29241171763,
			"0.003": 2.03246543535,
			"0.004": 5.31092424208,
			"0.005": 4.21741019513,
			"0.006": 5.65235349776,
			"0.007": 6.16502843372,
			"0.008": 6.5194242989,
			"0.009": 6.13315570651,
			"0.01": 5.38099497233,
			"0.011": 4.71647085734,
			"0.012": 3.41752908083,
			"0.013": 0.187686199925,
			"0.014": 0.0,
			"0.015": 0.0,
			"0.016": 0.0,
			"0.017": 0.0,
			"0.018": 0.0,
			"0.019": 0.0,
			"0.02": 0.0,
			"0.021": 0.0,
			"0.022": 0.0,
			"0.023": 0.0,
			"0.024": 0.0,
			"0.025": 0.0
		}
	}
}
