{
	 "smiles": "N#CCCP(CCC#N)CCC#N", 
	 "Tm": 371.15, 
	 "num_atms": 25, 
	 "gaussian": { 
		 "optdone": 1, 
		 "sigma_profile": "yes", 
		 "theory": "DFT", 
		 "functional": "B3LYP", 
		 "basiset": "6-31G**", 
		 "properties": { 
			 "R2extent": 3604.9148, 
			 "electric_dipole_moment_norm": 3.70635014131, 
			 "electric_quadrupole_moment_norm": 32.0378068471, 
			 "total_energy": -855.741189013, 
			 "HOMO_LUMO_gap": 0.24783, 
			 "cosmo_polarized_energy": -22.53, 
			 "cosmo_cavitation_energy": 31.14, 
			 "cosmo_dispersion_energy": -20.8, 
			 "cosmo_repulsion_energy": 1.78, 
			 "cosmo_total_nonelectrostatic_energy": 12.11, 
			 "SMD_solvation_energy": 8.86 
		},
		"coords": [
			{
				"x": -2.6292588097,
				"y": 1.7437568219,
				"z": 2.0598699619,
				"element": "N" 
			},
			{
				"x": -2.3026875459,
				"y": 1.756943509,
				"z": 0.945214718,
				"element": "C" 
			},
			{
				"x": -1.8713666788,
				"y": 1.7617160953,
				"z": -0.4534726565,
				"element": "C" 
			},
			{
				"x": -1.0080633399,
				"y": 0.5494075456,
				"z": -0.87500453,
				"element": "C" 
			},
			{
				"x": 0.7337318018,
				"y": 0.2529854591,
				"z": -0.1774730485,
				"element": "P" 
			},
			{
				"x": 0.4631618203,
				"y": -1.1138457404,
				"z": 1.0778592799,
				"element": "C" 
			},
			{
				"x": -0.5043541364,
				"y": -0.9113351405,
				"z": 2.2657574594,
				"element": "C" 
			},
			{
				"x": -0.5167661179,
				"y": -2.0865599327,
				"z": 3.1432136703,
				"element": "C" 
			},
			{
				"x": -0.502252865,
				"y": -3.0319896639,
				"z": 3.8168289858,
				"element": "N" 
			},
			{
				"x": 1.1116047054,
				"y": 1.7093297057,
				"z": 0.9583506042,
				"element": "C" 
			},
			{
				"x": 1.9527226551,
				"y": 2.8097491795,
				"z": 0.2684047087,
				"element": "C" 
			},
			{
				"x": 1.2360067125,
				"y": 3.478715997,
				"z": -0.8207460036,
				"element": "C" 
			},
			{
				"x": 0.6288261469,
				"y": 3.9840295451,
				"z": -1.6721526839,
				"element": "N" 
			},
			{
				"x": -2.7730968738,
				"y": 1.7829864967,
				"z": -1.077865701,
				"element": "H" 
			},
			{
				"x": -1.3416723134,
				"y": 2.6985514367,
				"z": -0.6538980676,
				"element": "H" 
			},
			{
				"x": -1.5714035276,
				"y": -0.3774332781,
				"z": -0.7191703835,
				"element": "H" 
			},
			{
				"x": -0.864520971,
				"y": 0.6404775597,
				"z": -1.9555327535,
				"element": "H" 
			},
			{
				"x": 0.1547024007,
				"y": -1.9920241236,
				"z": 0.4994235131,
				"element": "H" 
			},
			{
				"x": 1.4624975037,
				"y": -1.3525571577,
				"z": 1.4598768845,
				"element": "H" 
			},
			{
				"x": -0.2231088912,
				"y": -0.0391770863,
				"z": 2.8645720843,
				"element": "H" 
			},
			{
				"x": -1.5262333201,
				"y": -0.7243682293,
				"z": 1.9241478355,
				"element": "H" 
			},
			{
				"x": 0.2237483047,
				"y": 2.1462375325,
				"z": 1.4233391032,
				"element": "H" 
			},
			{
				"x": 1.7236876173,
				"y": 1.2991138411,
				"z": 1.769506217,
				"element": "H" 
			},
			{
				"x": 2.8729750122,
				"y": 2.3807407666,
				"z": -0.1433205414,
				"element": "H" 
			},
			{
				"x": 2.2475207102,
				"y": 3.5714488613,
				"z": 0.9998713435,
				"element": "H" 
			}
		],
		 "valence_orbital": [ 
			{
				"type": "occ",
				"energy": -0.33862,
				"method": "rhf"
			},
			{
				"type": "occ",
				"energy": -0.33335,
				"method": "rhf"
			},
			{
				"type": "occ",
				"energy": -0.32567,
				"method": "rhf"
			},
			{
				"type": "occ",
				"energy": -0.32292,
				"method": "rhf"
			},
			{
				"type": "occ",
				"energy": -0.2529,
				"method": "rhf"
			},
			{
				"type": "unocc",
				"energy": -0.00507,
				"method": "rhf"
			},
			{
				"type": "unocc",
				"energy": 0.00443,
				"method": "rhf"
			},
			{
				"type": "unocc",
				"energy": 0.00881,
				"method": "rhf"
			},
			{
				"type": "unocc",
				"energy": 0.02165,
				"method": "rhf"
			},
			{
				"type": "unocc",
				"energy": 0.02393,
				"method": "rhf"
			}
		],
		"cosmo_sigma_profile": { 
			"-0.025": 0.0,
			"-0.024": 0.0,
			"-0.023": 0.0,
			"-0.022": 0.0,
			"-0.021": 0.0,
			"-0.02": 0.0,
			"-0.019": 0.0,
			"-0.018": 0.0,
			"-0.017": 0.0,
			"-0.016": 0.0,
			"-0.015": 0.0,
			"-0.014": 0.0,
			"-0.013": 0.0,
			"-0.012": 0.0,
			"-0.011": 0.0,
			"-0.01": 0.0428209110801,
			"-0.009": 2.11707755675,
			"-0.008": 12.8366378809,
			"-0.007": 24.4982795703,
			"-0.006": 30.0054631511,
			"-0.005": 21.8227188079,
			"-0.004": 16.0539745697,
			"-0.003": 14.4694155246,
			"-0.002": 11.766577916,
			"-0.001": 7.60423026905,
			"0.0": 9.13017348088,
			"0.001": 7.88453112692,
			"0.002": 5.81788173729,
			"0.003": 7.71111016923,
			"0.004": 6.25017497247,
			"0.005": 5.96233850066,
			"0.006": 7.95243367217,
			"0.007": 7.3477089878,
			"0.008": 8.39871762751,
			"0.009": 10.3968134963,
			"0.01": 7.91179264279,
			"0.011": 8.67333394586,
			"0.012": 7.60095851271,
			"0.013": 5.86961233467,
			"0.014": 1.25721469336,
			"0.015": 0.0891075190567,
			"0.016": 0.0,
			"0.017": 0.0,
			"0.018": 0.0,
			"0.019": 0.0,
			"0.02": 0.0,
			"0.021": 0.0,
			"0.022": 0.0,
			"0.023": 0.0,
			"0.024": 0.0,
			"0.025": 0.0
		}
	}
}
