{
	 "smiles": "N#CC1=CC=C(C=C1)C1=NC2=C(N1)C=CC=C2", 
	 "Tm": 600.15, 
	 "num_atms": 26, 
	 "gaussian": { 
		 "optdone": 1, 
		 "sigma_profile": "yes", 
		 "theory": "DFT", 
		 "functional": "B3LYP", 
		 "basiset": "6-31G**", 
		 "properties": { 
			 "R2extent": 6238.3519, 
			 "electric_dipole_moment_norm": 5.29751831899, 
			 "electric_quadrupole_moment_norm": 31.571181101, 
			 "total_energy": -703.173884502, 
			 "HOMO_LUMO_gap": 0.14846, 
			 "cosmo_polarized_energy": -17.88, 
			 "cosmo_cavitation_energy": 31.99, 
			 "cosmo_dispersion_energy": -23.28, 
			 "cosmo_repulsion_energy": 1.76, 
			 "cosmo_total_nonelectrostatic_energy": 10.47, 
			 "SMD_solvation_energy": 4.68 
		},
		"coords": [
			{
				"x": 0.545077196,
				"y": -2.4245678361,
				"z": -6.6142173469,
				"element": "N" 
			},
			{
				"x": 0.4837135414,
				"y": -1.8636330425,
				"z": -5.5965907446,
				"element": "C" 
			},
			{
				"x": 0.406158687,
				"y": -1.1736071605,
				"z": -4.3432835414,
				"element": "C" 
			},
			{
				"x": -0.7741035641,
				"y": -1.2242770978,
				"z": -3.5835091882,
				"element": "C" 
			},
			{
				"x": -0.8468430204,
				"y": -0.55426964,
				"z": -2.3683308257,
				"element": "C" 
			},
			{
				"x": 0.2497803447,
				"y": 0.1788347871,
				"z": -1.8835144652,
				"element": "C" 
			},
			{
				"x": 1.4281125338,
				"y": 0.2241371005,
				"z": -2.6511770196,
				"element": "C" 
			},
			{
				"x": 1.5088049565,
				"y": -0.4417350818,
				"z": -3.8649229268,
				"element": "C" 
			},
			{
				"x": 0.2176870399,
				"y": 0.899808185,
				"z": -0.6090924802,
				"element": "C" 
			},
			{
				"x": 1.2282867699,
				"y": 1.5958384982,
				"z": -0.1263580985,
				"element": "N" 
			},
			{
				"x": 0.7857463593,
				"y": 2.1063811066,
				"z": 1.0776504152,
				"element": "C" 
			},
			{
				"x": -0.5490939916,
				"y": 1.697073476,
				"z": 1.325373907,
				"element": "C" 
			},
			{
				"x": -0.884275219,
				"y": 0.9266370602,
				"z": 0.2285317309,
				"element": "N" 
			},
			{
				"x": -1.2493245171,
				"y": 2.0695782733,
				"z": 2.4748509829,
				"element": "C" 
			},
			{
				"x": -0.5698355505,
				"y": 2.874625944,
				"z": 3.3848158562,
				"element": "C" 
			},
			{
				"x": 0.7587983838,
				"y": 3.2922109151,
				"z": 3.1559449784,
				"element": "C" 
			},
			{
				"x": 1.4494390911,
				"y": 2.9177513152,
				"z": 2.0098817766,
				"element": "C" 
			},
			{
				"x": -1.6249869036,
				"y": -1.7878918436,
				"z": -3.9506350063,
				"element": "H" 
			},
			{
				"x": -1.772534987,
				"y": -0.6118985193,
				"z": -1.8034929223,
				"element": "H" 
			},
			{
				"x": 2.2689141734,
				"y": 0.7918766506,
				"z": -2.2695803163,
				"element": "H" 
			},
			{
				"x": 2.4203474253,
				"y": -0.4025979496,
				"z": -4.4516733825,
				"element": "H" 
			},
			{
				"x": -1.7694149953,
				"y": 0.4716687708,
				"z": 0.0742892275,
				"element": "H" 
			},
			{
				"x": -2.2714823351,
				"y": 1.7510817735,
				"z": 2.6557280848,
				"element": "H" 
			},
			{
				"x": -1.0747696118,
				"y": 3.1890471582,
				"z": 4.2932608067,
				"element": "H" 
			},
			{
				"x": 1.2476512149,
				"y": 3.9199125168,
				"z": 3.894857033,
				"element": "H" 
			},
			{
				"x": 2.4708469787,
				"y": 3.2354146399,
				"z": 1.8280934651,
				"element": "H" 
			}
		],
		 "valence_orbital": [ 
			{
				"type": "occ",
				"energy": -0.28361,
				"method": "rhf"
			},
			{
				"type": "occ",
				"energy": -0.28201,
				"method": "rhf"
			},
			{
				"type": "occ",
				"energy": -0.28016,
				"method": "rhf"
			},
			{
				"type": "occ",
				"energy": -0.23718,
				"method": "rhf"
			},
			{
				"type": "occ",
				"energy": -0.22455,
				"method": "rhf"
			},
			{
				"type": "unocc",
				"energy": -0.07609,
				"method": "rhf"
			},
			{
				"type": "unocc",
				"energy": -0.02938,
				"method": "rhf"
			},
			{
				"type": "unocc",
				"energy": -0.01005,
				"method": "rhf"
			},
			{
				"type": "unocc",
				"energy": 0.0137,
				"method": "rhf"
			},
			{
				"type": "unocc",
				"energy": 0.03294,
				"method": "rhf"
			}
		],
		"cosmo_sigma_profile": { 
			"-0.025": 0.0,
			"-0.024": 0.0,
			"-0.023": 0.0,
			"-0.022": 0.0,
			"-0.021": 0.0,
			"-0.02": 0.0,
			"-0.019": 0.0,
			"-0.018": 0.0304572910501,
			"-0.017": 0.994620468543,
			"-0.016": 1.80250354219,
			"-0.015": 1.64630811456,
			"-0.014": 1.29631934091,
			"-0.013": 0.790559858357,
			"-0.012": 1.82689488429,
			"-0.011": 1.4131070953,
			"-0.01": 1.57458859054,
			"-0.009": 1.83446377627,
			"-0.008": 6.34958750462,
			"-0.007": 9.00577774247,
			"-0.006": 12.8659830342,
			"-0.005": 13.932554842,
			"-0.004": 14.9282520568,
			"-0.003": 14.5099007828,
			"-0.002": 13.7965054769,
			"-0.001": 17.5107084159,
			"0.0": 17.4663193336,
			"0.001": 25.3650546523,
			"0.002": 22.4306069886,
			"0.003": 12.4909818699,
			"0.004": 13.3252542241,
			"0.005": 13.9832910282,
			"0.006": 8.75946301019,
			"0.007": 4.56631817007,
			"0.008": 5.18506954749,
			"0.009": 4.37667068835,
			"0.01": 4.6845367767,
			"0.011": 3.6154674264,
			"0.012": 3.55478408816,
			"0.013": 2.55387835796,
			"0.014": 0.984403086254,
			"0.015": 0.153517160161,
			"0.016": 0.0,
			"0.017": 0.0,
			"0.018": 0.0,
			"0.019": 0.0,
			"0.02": 0.0,
			"0.021": 0.0,
			"0.022": 0.0,
			"0.023": 0.0,
			"0.024": 0.0,
			"0.025": 0.0
		}
	}
}
