{
	 "smiles": "OC(=O)C1CC1C1=CC=C(Br)C=C1", 
	 "Tm": 396.15, 
	 "num_atms": 22, 
	 "gaussian": { 
		 "optdone": 1, 
		 "sigma_profile": "yes", 
		 "theory": "DFT", 
		 "functional": "B3LYP", 
		 "basiset": "6-31G**", 
		 "properties": { 
			 "R2extent": 5723.0819, 
			 "electric_dipole_moment_norm": 2.25809755547, 
			 "electric_quadrupole_moment_norm": 11.685702106, 
			 "total_energy": -3108.32784572, 
			 "HOMO_LUMO_gap": 0.21514, 
			 "cosmo_polarized_energy": -11.26, 
			 "cosmo_cavitation_energy": 28.62, 
			 "cosmo_dispersion_energy": -20.71, 
			 "cosmo_repulsion_energy": 1.67, 
			 "cosmo_total_nonelectrostatic_energy": 9.59, 
			 "SMD_solvation_energy": 4.52 
		},
		"coords": [
			{
				"x": -0.4931707401,
				"y": 2.1730103283,
				"z": -0.7528658533,
				"element": "O" 
			},
			{
				"x": -0.131846502,
				"y": 2.0693905047,
				"z": 0.550677751,
				"element": "C" 
			},
			{
				"x": -0.7701579898,
				"y": 2.5857152367,
				"z": 1.4443656523,
				"element": "O" 
			},
			{
				"x": 1.1023321115,
				"y": 1.2692351245,
				"z": 0.7630290751,
				"element": "C" 
			},
			{
				"x": 2.0922838054,
				"y": 1.0163765215,
				"z": -0.3566096662,
				"element": "C" 
			},
			{
				"x": 1.2761303917,
				"y": -0.1318288274,
				"z": 0.1443446399,
				"element": "C" 
			},
			{
				"x": 0.2103835969,
				"y": -0.813038529,
				"z": -0.6591680869,
				"element": "C" 
			},
			{
				"x": -0.841515234,
				"y": -1.4658346418,
				"z": 0.0006176297,
				"element": "C" 
			},
			{
				"x": -1.8284246097,
				"y": -2.1473336919,
				"z": -0.7087743133,
				"element": "C" 
			},
			{
				"x": -1.7608709758,
				"y": -2.1803544114,
				"z": -2.1012395458,
				"element": "C" 
			},
			{
				"x": -3.1094934704,
				"y": -3.1113025649,
				"z": -3.0872675562,
				"element": "Br" 
			},
			{
				"x": -0.7252729419,
				"y": -1.5471963304,
				"z": -2.7836776141,
				"element": "C" 
			},
			{
				"x": 0.2540240333,
				"y": -0.8690935449,
				"z": -2.0564869373,
				"element": "C" 
			},
			{
				"x": -1.3252229904,
				"y": 2.6743848912,
				"z": -0.7589430405,
				"element": "H" 
			},
			{
				"x": 1.482294044,
				"y": 1.3872834941,
				"z": 1.7715628586,
				"element": "H" 
			},
			{
				"x": 3.148297157,
				"y": 1.0541965508,
				"z": -0.1087568677,
				"element": "H" 
			},
			{
				"x": 1.834364779,
				"y": 1.4417859255,
				"z": -1.3202915351,
				"element": "H" 
			},
			{
				"x": 1.7929108873,
				"y": -0.8052783129,
				"z": 0.8264509,
				"element": "H" 
			},
			{
				"x": -0.8937532199,
				"y": -1.436220565,
				"z": 1.0858377473,
				"element": "H" 
			},
			{
				"x": -2.639263602,
				"y": -2.6449339901,
				"z": -0.189017784,
				"element": "H" 
			},
			{
				"x": -0.6816049398,
				"y": -1.5842967261,
				"z": -3.8662622195,
				"element": "H" 
			},
			{
				"x": 1.0644764096,
				"y": -0.3817664415,
				"z": -2.5893252339,
				"element": "H" 
			}
		],
		 "valence_orbital": [ 
			{
				"type": "occ",
				"energy": -0.29579,
				"method": "rhf"
			},
			{
				"type": "occ",
				"energy": -0.28702,
				"method": "rhf"
			},
			{
				"type": "occ",
				"energy": -0.27059,
				"method": "rhf"
			},
			{
				"type": "occ",
				"energy": -0.26453,
				"method": "rhf"
			},
			{
				"type": "occ",
				"energy": -0.23787,
				"method": "rhf"
			},
			{
				"type": "unocc",
				"energy": -0.02273,
				"method": "rhf"
			},
			{
				"type": "unocc",
				"energy": -0.01479,
				"method": "rhf"
			},
			{
				"type": "unocc",
				"energy": 0.00656,
				"method": "rhf"
			},
			{
				"type": "unocc",
				"energy": 0.00787,
				"method": "rhf"
			},
			{
				"type": "unocc",
				"energy": 0.07411,
				"method": "rhf"
			}
		],
		"cosmo_sigma_profile": { 
			"-0.025": 0.0,
			"-0.024": 0.0,
			"-0.023": 0.0,
			"-0.022": 0.0,
			"-0.021": 0.0,
			"-0.02": 0.0,
			"-0.019": 0.00720828618929,
			"-0.018": 0.749804252815,
			"-0.017": 0.977335910767,
			"-0.016": 0.580469180179,
			"-0.015": 0.834569657306,
			"-0.014": 0.814156709225,
			"-0.013": 0.616135885448,
			"-0.012": 0.3541571356,
			"-0.011": 0.553311723823,
			"-0.01": 0.957548392336,
			"-0.009": 0.425495153972,
			"-0.008": 0.636145358468,
			"-0.007": 5.69553119912,
			"-0.006": 17.3460488104,
			"-0.005": 15.9897273235,
			"-0.004": 14.7525690298,
			"-0.003": 13.6478532422,
			"-0.002": 13.9646623576,
			"-0.001": 17.4765937008,
			"0.0": 15.5466538264,
			"0.001": 16.1626772782,
			"0.002": 18.2324361252,
			"0.003": 20.3292521661,
			"0.004": 19.2622411258,
			"0.005": 12.2195826442,
			"0.006": 5.02076384382,
			"0.007": 3.30198972201,
			"0.008": 1.28306401996,
			"0.009": 1.28078877745,
			"0.01": 1.63380249042,
			"0.011": 2.7002902016,
			"0.012": 5.74418070804,
			"0.013": 2.09642243212,
			"0.014": 0.098879503153,
			"0.015": 0.0,
			"0.016": 0.0,
			"0.017": 0.0,
			"0.018": 0.0,
			"0.019": 0.0,
			"0.02": 0.0,
			"0.021": 0.0,
			"0.022": 0.0,
			"0.023": 0.0,
			"0.024": 0.0,
			"0.025": 0.0
		}
	}
}
