{
	 "smiles": "CC(C)N1C=CC=C1C(=O)NC1=C(C=CC(Cl)=C1)C(O)=O", 
	 "Tm": 500.15, 
	 "num_atms": 36, 
	 "gaussian": { 
		 "optdone": 1, 
		 "sigma_profile": "yes", 
		 "theory": "DFT", 
		 "functional": "B3LYP", 
		 "basiset": "6-31G**", 
		 "properties": { 
			 "R2extent": 8385.7587, 
			 "electric_dipole_moment_norm": 3.58985439955, 
			 "electric_quadrupole_moment_norm": 22.4259789824, 
			 "total_energy": -1376.03427103, 
			 "HOMO_LUMO_gap": 0.14698, 
			 "cosmo_polarized_energy": -18.37, 
			 "cosmo_cavitation_energy": 41.01, 
			 "cosmo_dispersion_energy": -28.66, 
			 "cosmo_repulsion_energy": 2.17, 
			 "cosmo_total_nonelectrostatic_energy": 14.52, 
			 "SMD_solvation_energy": 8.35 
		},
		"coords": [
			{
				"x": 0.3107509366,
				"y": 0.1710641314,
				"z": 3.1636587389,
				"element": "C" 
			},
			{
				"x": -0.1932975986,
				"y": 1.1574911711,
				"z": 2.1051703943,
				"element": "C" 
			},
			{
				"x": -0.8587937173,
				"y": 2.3963317487,
				"z": 2.7218792136,
				"element": "C" 
			},
			{
				"x": 0.8987386033,
				"y": 1.5558822619,
				"z": 1.1843398788,
				"element": "N" 
			},
			{
				"x": 2.0292838823,
				"y": 2.2017218583,
				"z": 1.6210711291,
				"element": "C" 
			},
			{
				"x": 2.6885058775,
				"y": 2.7616835132,
				"z": 0.5437804777,
				"element": "C" 
			},
			{
				"x": 1.9172773283,
				"y": 2.4753341551,
				"z": -0.6027327522,
				"element": "C" 
			},
			{
				"x": 0.8170124363,
				"y": 1.7304515626,
				"z": -0.1992098195,
				"element": "C" 
			},
			{
				"x": -0.1576182232,
				"y": 1.1528843944,
				"z": -1.1440603455,
				"element": "C" 
			},
			{
				"x": -0.4442526986,
				"y": 1.7257122544,
				"z": -2.1902251758,
				"element": "O" 
			},
			{
				"x": -0.6594161528,
				"y": -0.1044899656,
				"z": -0.7996693813,
				"element": "N" 
			},
			{
				"x": -1.5975702067,
				"y": -0.870952334,
				"z": -1.4796029938,
				"element": "C" 
			},
			{
				"x": -1.8262062244,
				"y": -2.2200400814,
				"z": -1.0685215915,
				"element": "C" 
			},
			{
				"x": -2.8374475973,
				"y": -2.9591034602,
				"z": -1.7084138569,
				"element": "C" 
			},
			{
				"x": -3.5893648338,
				"y": -2.4406994775,
				"z": -2.7502628788,
				"element": "C" 
			},
			{
				"x": -3.3107125896,
				"y": -1.1355583786,
				"z": -3.1667906108,
				"element": "C" 
			},
			{
				"x": -4.2315809268,
				"y": -0.4593454779,
				"z": -4.4954254044,
				"element": "Cl" 
			},
			{
				"x": -2.3417146783,
				"y": -0.3516214502,
				"z": -2.5583722685,
				"element": "C" 
			},
			{
				"x": -1.0283640762,
				"y": -2.8340489267,
				"z": 0.0248797614,
				"element": "C" 
			},
			{
				"x": -1.0277862779,
				"y": -4.1840484992,
				"z": 0.1192588541,
				"element": "O" 
			},
			{
				"x": -0.3714495094,
				"y": -2.2027973204,
				"z": 0.8393463963,
				"element": "O" 
			},
			{
				"x": -0.5263365693,
				"y": -0.1460285486,
				"z": 3.7928621604,
				"element": "H" 
			},
			{
				"x": 1.0600160134,
				"y": 0.6278237182,
				"z": 3.8182852585,
				"element": "H" 
			},
			{
				"x": 0.7401909701,
				"y": -0.718860714,
				"z": 2.6991585449,
				"element": "H" 
			},
			{
				"x": -0.9369653515,
				"y": 0.6457442675,
				"z": 1.4934338274,
				"element": "H" 
			},
			{
				"x": -1.1983651768,
				"y": 3.0844741065,
				"z": 1.9425903925,
				"element": "H" 
			},
			{
				"x": -0.1651053614,
				"y": 2.9346082514,
				"z": 3.3754499173,
				"element": "H" 
			},
			{
				"x": -1.7255347171,
				"y": 2.0974641747,
				"z": 3.3200496629,
				"element": "H" 
			},
			{
				"x": 2.2689245621,
				"y": 2.2396771652,
				"z": 2.6732307053,
				"element": "H" 
			},
			{
				"x": 3.6227471727,
				"y": 3.3035814836,
				"z": 0.5850454551,
				"element": "H" 
			},
			{
				"x": 2.1350658289,
				"y": 2.7261057617,
				"z": -1.6306977008,
				"element": "H" 
			},
			{
				"x": -0.2308893134,
				"y": -0.5945929801,
				"z": -0.0164161383,
				"element": "H" 
			},
			{
				"x": -3.0815357766,
				"y": -3.9578719067,
				"z": -1.355770379,
				"element": "H" 
			},
			{
				"x": -4.3712485513,
				"y": -3.0203865169,
				"z": -3.2252679945,
				"element": "H" 
			},
			{
				"x": -2.1385291438,
				"y": 0.6527141437,
				"z": -2.8985829432,
				"element": "H" 
			},
			{
				"x": -1.4131283394,
				"y": -4.5794040856,
				"z": -0.6744685337,
				"element": "H" 
			}
		],
		 "valence_orbital": [ 
			{
				"type": "occ",
				"energy": -0.26772,
				"method": "rhf"
			},
			{
				"type": "occ",
				"energy": -0.26138,
				"method": "rhf"
			},
			{
				"type": "occ",
				"energy": -0.24264,
				"method": "rhf"
			},
			{
				"type": "occ",
				"energy": -0.24046,
				"method": "rhf"
			},
			{
				"type": "occ",
				"energy": -0.2159,
				"method": "rhf"
			},
			{
				"type": "unocc",
				"energy": -0.06892,
				"method": "rhf"
			},
			{
				"type": "unocc",
				"energy": -0.03934,
				"method": "rhf"
			},
			{
				"type": "unocc",
				"energy": -0.00015,
				"method": "rhf"
			},
			{
				"type": "unocc",
				"energy": 0.01983,
				"method": "rhf"
			},
			{
				"type": "unocc",
				"energy": 0.03007,
				"method": "rhf"
			}
		],
		"cosmo_sigma_profile": { 
			"-0.025": 0.0,
			"-0.024": 0.0,
			"-0.023": 0.0,
			"-0.022": 0.0,
			"-0.021": 0.0,
			"-0.02": 0.145867819764,
			"-0.019": 0.713210592086,
			"-0.018": 1.23931926486,
			"-0.017": 0.746216759791,
			"-0.016": 0.894835721837,
			"-0.015": 0.742107891019,
			"-0.014": 1.07090258504,
			"-0.013": 1.26589375062,
			"-0.012": 1.02550514443,
			"-0.011": 1.36294319706,
			"-0.01": 1.27167426208,
			"-0.009": 1.75774628223,
			"-0.008": 4.85214078392,
			"-0.007": 7.71940821121,
			"-0.006": 8.43234241681,
			"-0.005": 13.1969119963,
			"-0.004": 23.9384840595,
			"-0.003": 25.1035188296,
			"-0.002": 25.8416785793,
			"-0.001": 28.1255965025,
			"0.0": 37.8591139182,
			"0.001": 32.8313311451,
			"0.002": 21.6504165384,
			"0.003": 16.7229899381,
			"0.004": 17.7343075408,
			"0.005": 11.3220540416,
			"0.006": 9.96282337249,
			"0.007": 7.39443682754,
			"0.008": 3.80670351523,
			"0.009": 5.73560005507,
			"0.01": 5.21920096825,
			"0.011": 3.79581401893,
			"0.012": 3.50398037703,
			"0.013": 2.30876386026,
			"0.014": 0.619895725095,
			"0.015": 0.0,
			"0.016": 0.0,
			"0.017": 0.0,
			"0.018": 0.0,
			"0.019": 0.0,
			"0.02": 0.0,
			"0.021": 0.0,
			"0.022": 0.0,
			"0.023": 0.0,
			"0.024": 0.0,
			"0.025": 0.0
		}
	}
}
