{
	 "smiles": "CC1=CC=C(CC(=O)C2=CC=C(C)C=C2)C=C1", 
	 "Tm": 374.15, 
	 "num_atms": 33, 
	 "gaussian": { 
		 "optdone": 1, 
		 "sigma_profile": "yes", 
		 "theory": "DFT", 
		 "functional": "B3LYP", 
		 "basiset": "6-31G**", 
		 "properties": { 
			 "R2extent": 5895.9331, 
			 "electric_dipole_moment_norm": 3.21672196187, 
			 "electric_quadrupole_moment_norm": 9.07062020702, 
			 "total_energy": -694.590548324, 
			 "HOMO_LUMO_gap": 0.17456, 
			 "cosmo_polarized_energy": -9.59, 
			 "cosmo_cavitation_energy": 36.47, 
			 "cosmo_dispersion_energy": -25.66, 
			 "cosmo_repulsion_energy": 1.99, 
			 "cosmo_total_nonelectrostatic_energy": 12.81, 
			 "SMD_solvation_energy": 6.52 
		},
		"coords": [
			{
				"x": 2.845648215,
				"y": -3.8815289344,
				"z": -3.4906610971,
				"element": "C" 
			},
			{
				"x": 2.8133913359,
				"y": -2.5620601016,
				"z": -2.7557033174,
				"element": "C" 
			},
			{
				"x": 3.1177803306,
				"y": -2.4916257164,
				"z": -1.3881236067,
				"element": "C" 
			},
			{
				"x": 3.0669135439,
				"y": -1.2837357551,
				"z": -0.6970563399,
				"element": "C" 
			},
			{
				"x": 2.7094325834,
				"y": -0.0972689249,
				"z": -1.3540316897,
				"element": "C" 
			},
			{
				"x": 2.6775782456,
				"y": 1.2238080136,
				"z": -0.5994417832,
				"element": "C" 
			},
			{
				"x": 1.831003145,
				"y": 1.1454409368,
				"z": 0.6749506391,
				"element": "C" 
			},
			{
				"x": 2.3795503694,
				"y": 0.9248340707,
				"z": 1.7468044064,
				"element": "O" 
			},
			{
				"x": 0.3479993107,
				"y": 1.3184817894,
				"z": 0.5972634619,
				"element": "C" 
			},
			{
				"x": -0.3486339721,
				"y": 1.4741430953,
				"z": -0.6093685659,
				"element": "C" 
			},
			{
				"x": -1.7339622175,
				"y": 1.6301474673,
				"z": -0.611120756,
				"element": "C" 
			},
			{
				"x": -2.4622260775,
				"y": 1.6434342456,
				"z": 0.5850358019,
				"element": "C" 
			},
			{
				"x": -3.9581880916,
				"y": 1.8432719718,
				"z": 0.5858736795,
				"element": "C" 
			},
			{
				"x": -1.7596635598,
				"y": 1.4824892429,
				"z": 1.7911296773,
				"element": "C" 
			},
			{
				"x": -0.3808517892,
				"y": 1.3204346936,
				"z": 1.7988842431,
				"element": "C" 
			},
			{
				"x": 2.4086443393,
				"y": -0.1621710975,
				"z": -2.7181680137,
				"element": "C" 
			},
			{
				"x": 2.4624070101,
				"y": -1.3751408284,
				"z": -3.4077700658,
				"element": "C" 
			},
			{
				"x": 3.7090475595,
				"y": -4.4852480889,
				"z": -3.1923523112,
				"element": "H" 
			},
			{
				"x": 1.9483803084,
				"y": -4.4766718906,
				"z": -3.2793321281,
				"element": "H" 
			},
			{
				"x": 2.8939085161,
				"y": -3.7357109402,
				"z": -4.5736809263,
				"element": "H" 
			},
			{
				"x": 3.4011143415,
				"y": -3.3975020995,
				"z": -0.857052462,
				"element": "H" 
			},
			{
				"x": 3.3080696259,
				"y": -1.2533908457,
				"z": 0.3618854585,
				"element": "H" 
			},
			{
				"x": 3.6860389803,
				"y": 1.4902258173,
				"z": -0.2674099321,
				"element": "H" 
			},
			{
				"x": 2.321038344,
				"y": 2.0208040966,
				"z": -1.2588327669,
				"element": "H" 
			},
			{
				"x": 0.180358908,
				"y": 1.4522734159,
				"z": -1.5558131775,
				"element": "H" 
			},
			{
				"x": -2.2586569818,
				"y": 1.7411413167,
				"z": -1.5566082285,
				"element": "H" 
			},
			{
				"x": -4.3889496214,
				"y": 1.6590378766,
				"z": -0.4021418684,
				"element": "H" 
			},
			{
				"x": -4.4494852873,
				"y": 1.1765835186,
				"z": 1.3019344223,
				"element": "H" 
			},
			{
				"x": -4.2172514085,
				"y": 2.8701739318,
				"z": 0.8724925694,
				"element": "H" 
			},
			{
				"x": -2.3067497371,
				"y": 1.4825018748,
				"z": 2.7308850079,
				"element": "H" 
			},
			{
				"x": 0.1649922415,
				"y": 1.191097428,
				"z": 2.7275195399,
				"element": "H" 
			},
			{
				"x": 2.1418894082,
				"y": 0.7459876317,
				"z": -3.2543620277,
				"element": "H" 
			},
			{
				"x": 2.2293320816,
				"y": -1.3965572118,
				"z": -4.4697278434,
				"element": "H" 
			}
		],
		 "valence_orbital": [ 
			{
				"type": "occ",
				"energy": -0.25626,
				"method": "rhf"
			},
			{
				"type": "occ",
				"energy": -0.25112,
				"method": "rhf"
			},
			{
				"type": "occ",
				"energy": -0.24691,
				"method": "rhf"
			},
			{
				"type": "occ",
				"energy": -0.24543,
				"method": "rhf"
			},
			{
				"type": "occ",
				"energy": -0.22724,
				"method": "rhf"
			},
			{
				"type": "unocc",
				"energy": -0.05268,
				"method": "rhf"
			},
			{
				"type": "unocc",
				"energy": -0.00674,
				"method": "rhf"
			},
			{
				"type": "unocc",
				"energy": -0.00018,
				"method": "rhf"
			},
			{
				"type": "unocc",
				"energy": 0.0034,
				"method": "rhf"
			},
			{
				"type": "unocc",
				"energy": 0.04246,
				"method": "rhf"
			}
		],
		"cosmo_sigma_profile": { 
			"-0.025": 0.0,
			"-0.024": 0.0,
			"-0.023": 0.0,
			"-0.022": 0.0,
			"-0.021": 0.0,
			"-0.02": 0.0,
			"-0.019": 0.0,
			"-0.018": 0.0,
			"-0.017": 0.0,
			"-0.016": 0.0,
			"-0.015": 0.0,
			"-0.014": 0.0,
			"-0.013": 0.0,
			"-0.012": 0.0,
			"-0.011": 0.0,
			"-0.01": 0.0,
			"-0.009": 0.00081684437387,
			"-0.008": 0.426649319153,
			"-0.007": 2.14619694539,
			"-0.006": 7.2965705273,
			"-0.005": 20.510014802,
			"-0.004": 31.5276881645,
			"-0.003": 29.4938109008,
			"-0.002": 27.4132825108,
			"-0.001": 28.3060578011,
			"0.0": 28.3595615684,
			"0.001": 20.3684276705,
			"0.002": 19.095468873,
			"0.003": 18.0628048964,
			"0.004": 20.2338838298,
			"0.005": 12.8748811852,
			"0.006": 9.27086828245,
			"0.007": 1.72488335313,
			"0.008": 1.29159107405,
			"0.009": 1.85910144729,
			"0.01": 1.49881878964,
			"0.011": 2.71723419116,
			"0.012": 3.67791875908,
			"0.013": 1.30269493723,
			"0.014": 0.131861727256,
			"0.015": 0.0,
			"0.016": 0.0,
			"0.017": 0.0,
			"0.018": 0.0,
			"0.019": 0.0,
			"0.02": 0.0,
			"0.021": 0.0,
			"0.022": 0.0,
			"0.023": 0.0,
			"0.024": 0.0,
			"0.025": 0.0
		}
	}
}
