{
	 "smiles": "[O-][N+](=O)C1=CC=C(O1)C=NN1CC(=O)NC1=O", 
	 "Tm": 539.15, 
	 "num_atms": 23, 
	 "gaussian": { 
		 "optdone": 1, 
		 "sigma_profile": "yes", 
		 "theory": "DFT", 
		 "functional": "B3LYP", 
		 "basiset": "6-31G**", 
		 "properties": { 
			 "R2extent": 6747.6879, 
			 "electric_dipole_moment_norm": 3.58075103854, 
			 "electric_quadrupole_moment_norm": 20.1332894064, 
			 "total_energy": -903.447920794, 
			 "HOMO_LUMO_gap": 0.13861, 
			 "cosmo_polarized_energy": -24.87, 
			 "cosmo_cavitation_energy": 31.24, 
			 "cosmo_dispersion_energy": -22.61, 
			 "cosmo_repulsion_energy": 1.77, 
			 "cosmo_total_nonelectrostatic_energy": 10.4, 
			 "SMD_solvation_energy": 9.39 
		},
		"coords": [
			{
				"x": -3.1420031412,
				"y": 1.0715945571,
				"z": -4.2300015332,
				"element": "O" 
			},
			{
				"x": -3.3789718085,
				"y": -0.0016135896,
				"z": -3.6758621178,
				"element": "N" 
			},
			{
				"x": -4.3100394451,
				"y": -0.7699083883,
				"z": -3.9391904819,
				"element": "O" 
			},
			{
				"x": -2.5093242512,
				"y": -0.4199568676,
				"z": -2.6259275547,
				"element": "C" 
			},
			{
				"x": -2.528755022,
				"y": -1.5464613319,
				"z": -1.8455831412,
				"element": "C" 
			},
			{
				"x": -1.4199303281,
				"y": -1.4206401787,
				"z": -0.9737026357,
				"element": "C" 
			},
			{
				"x": -0.8079404163,
				"y": -0.2245506074,
				"z": -1.2897775561,
				"element": "C" 
			},
			{
				"x": -1.4768207413,
				"y": 0.3934927581,
				"z": -2.3067762247,
				"element": "O" 
			},
			{
				"x": 0.3486004954,
				"y": 0.4764788344,
				"z": -0.7837124975,
				"element": "C" 
			},
			{
				"x": 1.0275480507,
				"y": -0.0506234742,
				"z": 0.1774824265,
				"element": "N" 
			},
			{
				"x": 2.1032571369,
				"y": 0.6001691957,
				"z": 0.6488437178,
				"element": "N" 
			},
			{
				"x": 2.6413921295,
				"y": 1.8831789574,
				"z": 0.2069422353,
				"element": "C" 
			},
			{
				"x": 3.8552112223,
				"y": 2.0730613611,
				"z": 1.1237063302,
				"element": "C" 
			},
			{
				"x": 4.6238873673,
				"y": 3.0057273482,
				"z": 1.1291732427,
				"element": "O" 
			},
			{
				"x": 3.8820774947,
				"y": 0.9568030315,
				"z": 1.9369450228,
				"element": "N" 
			},
			{
				"x": 2.8489872965,
				"y": 0.0341059821,
				"z": 1.6953485246,
				"element": "C" 
			},
			{
				"x": 2.6603822728,
				"y": -1.0077421562,
				"z": 2.2693320471,
				"element": "O" 
			},
			{
				"x": -3.2521094882,
				"y": -2.3443790815,
				"z": -1.9078505097,
				"element": "H" 
			},
			{
				"x": -1.0949682724,
				"y": -2.1069872818,
				"z": -0.206358029,
				"element": "H" 
			},
			{
				"x": 0.5814258039,
				"y": 1.4320525647,
				"z": -1.2581581433,
				"element": "H" 
			},
			{
				"x": 2.9571227767,
				"y": 1.8639891906,
				"z": -0.8430090427,
				"element": "H" 
			},
			{
				"x": 1.9283471568,
				"y": 2.7047119064,
				"z": 0.3451334529,
				"element": "H" 
			},
			{
				"x": 4.577523711,
				"y": 0.79679727,
				"z": 2.6524024676,
				"element": "H" 
			}
		],
		 "valence_orbital": [ 
			{
				"type": "occ",
				"energy": -0.31069,
				"method": "rhf"
			},
			{
				"type": "occ",
				"energy": -0.30749,
				"method": "rhf"
			},
			{
				"type": "occ",
				"energy": -0.29589,
				"method": "rhf"
			},
			{
				"type": "occ",
				"energy": -0.28983,
				"method": "rhf"
			},
			{
				"type": "occ",
				"energy": -0.24306,
				"method": "rhf"
			},
			{
				"type": "unocc",
				"energy": -0.10445,
				"method": "rhf"
			},
			{
				"type": "unocc",
				"energy": -0.05934,
				"method": "rhf"
			},
			{
				"type": "unocc",
				"energy": -0.0333,
				"method": "rhf"
			},
			{
				"type": "unocc",
				"energy": 0.03176,
				"method": "rhf"
			},
			{
				"type": "unocc",
				"energy": 0.04398,
				"method": "rhf"
			}
		],
		"cosmo_sigma_profile": { 
			"-0.025": 0.0,
			"-0.024": 0.0,
			"-0.023": 0.0,
			"-0.022": 0.0,
			"-0.021": 0.0,
			"-0.02": 0.0,
			"-0.019": 0.0,
			"-0.018": 0.129360390612,
			"-0.017": 1.51280164217,
			"-0.016": 1.12917227334,
			"-0.015": 1.16955216942,
			"-0.014": 0.997851661315,
			"-0.013": 0.528493687579,
			"-0.012": 1.12992490337,
			"-0.011": 1.37549999737,
			"-0.01": 10.3959644481,
			"-0.009": 14.7950354981,
			"-0.008": 9.80124216823,
			"-0.007": 9.06442321573,
			"-0.006": 10.7674191953,
			"-0.005": 10.3539194013,
			"-0.004": 12.3165468021,
			"-0.003": 17.5832524679,
			"-0.002": 14.9719769436,
			"-0.001": 14.1439356247,
			"0.0": 13.1026624352,
			"0.001": 9.59820774368,
			"0.002": 6.75778680957,
			"0.003": 5.81918983442,
			"0.004": 6.57999771561,
			"0.005": 5.92144720066,
			"0.006": 5.52899101687,
			"0.007": 10.1351367866,
			"0.008": 15.3529657273,
			"0.009": 10.9158293894,
			"0.01": 8.9808197176,
			"0.011": 12.4267712516,
			"0.012": 5.79157554071,
			"0.013": 1.72051241816,
			"0.014": 0.86176869554,
			"0.015": 0.0414285477686,
			"0.016": 0.0,
			"0.017": 0.0,
			"0.018": 0.0,
			"0.019": 0.0,
			"0.02": 0.0,
			"0.021": 0.0,
			"0.022": 0.0,
			"0.023": 0.0,
			"0.024": 0.0,
			"0.025": 0.0
		}
	}
}
