{
	 "smiles": "BrC1=C2C=NNC2=CC=C1", 
	 "Tm": 439.15, 
	 "num_atms": 15, 
	 "gaussian": { 
		 "optdone": 1, 
		 "sigma_profile": "yes", 
		 "theory": "DFT", 
		 "functional": "B3LYP", 
		 "basiset": "6-31G**", 
		 "properties": { 
			 "R2extent": 3872.8598, 
			 "electric_dipole_moment_norm": 3.00159300539, 
			 "electric_quadrupole_moment_norm": 4.95450392774, 
			 "total_energy": -2950.6486227, 
			 "HOMO_LUMO_gap": 0.18598, 
			 "cosmo_polarized_energy": -9.17, 
			 "cosmo_cavitation_energy": 21.51, 
			 "cosmo_dispersion_energy": -16.71, 
			 "cosmo_repulsion_energy": 1.34, 
			 "cosmo_total_nonelectrostatic_energy": 6.14, 
			 "SMD_solvation_energy": 1.59 
		},
		"coords": [
			{
				"x": 3.125428389,
				"y": -0.0355746882,
				"z": 3.1041054174,
				"element": "Br" 
			},
			{
				"x": 2.4414374638,
				"y": 0.646751355,
				"z": 1.4595309824,
				"element": "C" 
			},
			{
				"x": 1.0689237326,
				"y": 0.5437235191,
				"z": 1.1817835286,
				"element": "C" 
			},
			{
				"x": -0.0906416916,
				"y": 0.0253673614,
				"z": 1.8328110045,
				"element": "C" 
			},
			{
				"x": -1.1735864681,
				"y": 0.1959441614,
				"z": 1.0966106365,
				"element": "N" 
			},
			{
				"x": -0.7590348106,
				"y": 0.8200008894,
				"z": -0.0374197489,
				"element": "N" 
			},
			{
				"x": 0.5869882864,
				"y": 1.0598780708,
				"z": -0.0501029734,
				"element": "C" 
			},
			{
				"x": 1.4288840079,
				"y": 1.6665624922,
				"z": -0.9958985681,
				"element": "C" 
			},
			{
				"x": 2.7749547889,
				"y": 1.7445907695,
				"z": -0.676127836,
				"element": "C" 
			},
			{
				"x": 3.2885254359,
				"y": 1.2407070921,
				"z": 0.5418209198,
				"element": "C" 
			},
			{
				"x": -0.1564531997,
				"y": -0.4560624494,
				"z": 2.7981531152,
				"element": "H" 
			},
			{
				"x": -1.4394771441,
				"y": 1.0462756308,
				"z": -0.7448284424,
				"element": "H" 
			},
			{
				"x": 1.0469358056,
				"y": 2.0568255685,
				"z": -1.9336679658,
				"element": "H" 
			},
			{
				"x": 3.464354213,
				"y": 2.2055645459,
				"z": -1.3770338128,
				"element": "H" 
			},
			{
				"x": 4.347961191,
				"y": 1.3206456816,
				"z": 0.7553637429,
				"element": "H" 
			}
		],
		 "valence_orbital": [ 
			{
				"type": "occ",
				"energy": -0.29953,
				"method": "rhf"
			},
			{
				"type": "occ",
				"energy": -0.28913,
				"method": "rhf"
			},
			{
				"type": "occ",
				"energy": -0.279,
				"method": "rhf"
			},
			{
				"type": "occ",
				"energy": -0.25219,
				"method": "rhf"
			},
			{
				"type": "occ",
				"energy": -0.22537,
				"method": "rhf"
			},
			{
				"type": "unocc",
				"energy": -0.03939,
				"method": "rhf"
			},
			{
				"type": "unocc",
				"energy": 0.00591,
				"method": "rhf"
			},
			{
				"type": "unocc",
				"energy": 0.00833,
				"method": "rhf"
			},
			{
				"type": "unocc",
				"energy": 0.05081,
				"method": "rhf"
			},
			{
				"type": "unocc",
				"energy": 0.07848,
				"method": "rhf"
			}
		],
		"cosmo_sigma_profile": { 
			"-0.025": 0.0,
			"-0.024": 0.0,
			"-0.023": 0.0,
			"-0.022": 0.0,
			"-0.021": 0.0,
			"-0.02": 0.0,
			"-0.019": 0.0,
			"-0.018": 0.0,
			"-0.017": 0.720649679426,
			"-0.016": 1.88152149648,
			"-0.015": 0.859890534827,
			"-0.014": 0.936357432064,
			"-0.013": 1.35207333646,
			"-0.012": 1.2654448092,
			"-0.011": 0.968366621825,
			"-0.01": 1.12232624194,
			"-0.009": 1.11321346298,
			"-0.008": 2.00572540919,
			"-0.007": 6.18566202792,
			"-0.006": 7.64802018504,
			"-0.005": 8.88234822848,
			"-0.004": 8.20331374415,
			"-0.003": 7.41683197209,
			"-0.002": 8.27888574926,
			"-0.001": 8.41977602036,
			"0.0": 9.02806600749,
			"0.001": 15.330952474,
			"0.002": 24.9806226413,
			"0.003": 23.00378733,
			"0.004": 18.6194074406,
			"0.005": 6.15797510806,
			"0.006": 1.60179835213,
			"0.007": 1.66381139541,
			"0.008": 1.54719322776,
			"0.009": 1.36931174498,
			"0.01": 0.701731689537,
			"0.011": 1.43713937827,
			"0.012": 0.83251100577,
			"0.013": 1.4344650262,
			"0.014": 1.04319714861,
			"0.015": 0.597346293785,
			"0.016": 0.0244196014196,
			"0.017": 0.0,
			"0.018": 0.0,
			"0.019": 0.0,
			"0.02": 0.0,
			"0.021": 0.0,
			"0.022": 0.0,
			"0.023": 0.0,
			"0.024": 0.0,
			"0.025": 0.0
		}
	}
}
