{
	 "smiles": "CCOC1=CC=C(C=CCN)C=C1", 
	 "Tm": 320.15, 
	 "num_atms": 28, 
	 "gaussian": { 
		 "optdone": 1, 
		 "sigma_profile": "yes", 
		 "theory": "DFT", 
		 "functional": "B3LYP", 
		 "basiset": "6-31G**", 
		 "properties": { 
			 "R2extent": 4061.4889, 
			 "electric_dipole_moment_norm": 2.54346466459, 
			 "electric_quadrupole_moment_norm": 8.17433663853, 
			 "total_energy": -558.15732163, 
			 "HOMO_LUMO_gap": 0.18607, 
			 "cosmo_polarized_energy": -9.63, 
			 "cosmo_cavitation_energy": 30.87, 
			 "cosmo_dispersion_energy": -22.52, 
			 "cosmo_repulsion_energy": 1.83, 
			 "cosmo_total_nonelectrostatic_energy": 10.18, 
			 "SMD_solvation_energy": 4.4 
		},
		"coords": [
			{
				"x": 0.7369825632,
				"y": -4.3241536772,
				"z": -1.4112829237,
				"element": "C" 
			},
			{
				"x": 0.3878292279,
				"y": -3.4851171205,
				"z": -2.6365931694,
				"element": "C" 
			},
			{
				"x": -0.6910055309,
				"y": -2.5796000065,
				"z": -2.3934196293,
				"element": "O" 
			},
			{
				"x": -0.4579205362,
				"y": -1.3978704852,
				"z": -1.7502237034,
				"element": "C" 
			},
			{
				"x": -1.5869298266,
				"y": -0.591914851,
				"z": -1.5409439284,
				"element": "C" 
			},
			{
				"x": -1.469095539,
				"y": 0.6396933149,
				"z": -0.9106876448,
				"element": "C" 
			},
			{
				"x": -0.2229527617,
				"y": 1.116415391,
				"z": -0.4538969161,
				"element": "C" 
			},
			{
				"x": -0.0342825438,
				"y": 2.4089279259,
				"z": 0.2239900321,
				"element": "C" 
			},
			{
				"x": -0.8824168048,
				"y": 3.0974150561,
				"z": 1.0082981456,
				"element": "C" 
			},
			{
				"x": -2.2590066161,
				"y": 2.7112379251,
				"z": 1.4781966538,
				"element": "C" 
			},
			{
				"x": -2.4707291632,
				"y": 3.2205279891,
				"z": 2.8421062643,
				"element": "N" 
			},
			{
				"x": 0.8972331101,
				"y": 0.3057020354,
				"z": -0.7007782844,
				"element": "C" 
			},
			{
				"x": 0.7957687461,
				"y": -0.9357558754,
				"z": -1.3272678901,
				"element": "C" 
			},
			{
				"x": 1.5197649263,
				"y": -5.0478594643,
				"z": -1.6625188928,
				"element": "H" 
			},
			{
				"x": 1.0963082955,
				"y": -3.7046765447,
				"z": -0.5852050143,
				"element": "H" 
			},
			{
				"x": -0.1433338922,
				"y": -4.8742117405,
				"z": -1.0667373415,
				"element": "H" 
			},
			{
				"x": 0.0261335724,
				"y": -4.127977027,
				"z": -3.4442319441,
				"element": "H" 
			},
			{
				"x": 1.2626790201,
				"y": -2.9430012197,
				"z": -3.0176425866,
				"element": "H" 
			},
			{
				"x": -2.54709107,
				"y": -0.9481250843,
				"z": -1.900190487,
				"element": "H" 
			},
			{
				"x": -2.3537361228,
				"y": 1.2578210912,
				"z": -0.8057576036,
				"element": "H" 
			},
			{
				"x": 0.9511148025,
				"y": 2.8500269582,
				"z": 0.0731672356,
				"element": "H" 
			},
			{
				"x": -0.5450467995,
				"y": 4.0535760705,
				"z": 1.4058075965,
				"element": "H" 
			},
			{
				"x": -3.0177342329,
				"y": 3.1852158186,
				"z": 0.8370946361,
				"element": "H" 
			},
			{
				"x": -2.402592027,
				"y": 1.6233875316,
				"z": 1.3769908517,
				"element": "H" 
			},
			{
				"x": -3.4196847485,
				"y": 3.0128383647,
				"z": 3.1434354134,
				"element": "H" 
			},
			{
				"x": -1.8531731772,
				"y": 2.7279951988,
				"z": 3.4838437361,
				"element": "H" 
			},
			{
				"x": 1.8775165246,
				"y": 0.6501816306,
				"z": -0.3804235969,
				"element": "H" 
			},
			{
				"x": 1.6923006037,
				"y": -1.5249992053,
				"z": -1.4794290086,
				"element": "H" 
			}
		],
		 "valence_orbital": [ 
			{
				"type": "occ",
				"energy": -0.317,
				"method": "rhf"
			},
			{
				"type": "occ",
				"energy": -0.26176,
				"method": "rhf"
			},
			{
				"type": "occ",
				"energy": -0.24906,
				"method": "rhf"
			},
			{
				"type": "occ",
				"energy": -0.23022,
				"method": "rhf"
			},
			{
				"type": "occ",
				"energy": -0.19986,
				"method": "rhf"
			},
			{
				"type": "unocc",
				"energy": -0.01379,
				"method": "rhf"
			},
			{
				"type": "unocc",
				"energy": -0.0,
				"method": "rhf"
			},
			{
				"type": "unocc",
				"energy": 0.06063,
				"method": "rhf"
			},
			{
				"type": "unocc",
				"energy": 0.08781,
				"method": "rhf"
			},
			{
				"type": "unocc",
				"energy": 0.10023,
				"method": "rhf"
			}
		],
		"cosmo_sigma_profile": { 
			"-0.025": 0.0,
			"-0.024": 0.0,
			"-0.023": 0.0,
			"-0.022": 0.0,
			"-0.021": 0.0,
			"-0.02": 0.0,
			"-0.019": 0.0,
			"-0.018": 0.0,
			"-0.017": 0.0,
			"-0.016": 0.0,
			"-0.015": 0.0,
			"-0.014": 0.0,
			"-0.013": 0.0,
			"-0.012": 0.0,
			"-0.011": 0.0,
			"-0.01": 0.715604861667,
			"-0.009": 2.71311553333,
			"-0.008": 2.48511647837,
			"-0.007": 3.93372358134,
			"-0.006": 7.32173092149,
			"-0.005": 15.5759454372,
			"-0.004": 26.5023717228,
			"-0.003": 25.8877656985,
			"-0.002": 25.0513977113,
			"-0.001": 19.0455323209,
			"0.0": 17.276979623,
			"0.001": 15.3443114654,
			"0.002": 10.5009337734,
			"0.003": 13.0767502584,
			"0.004": 14.9288296769,
			"0.005": 16.1173408255,
			"0.006": 10.3489163174,
			"0.007": 3.33811581594,
			"0.008": 2.50492949632,
			"0.009": 1.79162867177,
			"0.01": 2.28893105371,
			"0.011": 1.42713631633,
			"0.012": 0.414577369149,
			"0.013": 0.421416953572,
			"0.014": 0.57694684227,
			"0.015": 0.628084717971,
			"0.016": 0.790344969275,
			"0.017": 0.4941099119,
			"0.018": 0.557048315252,
			"0.019": 0.494466690428,
			"0.02": 0.28977737496,
			"0.021": 0.0,
			"0.022": 0.0,
			"0.023": 0.0,
			"0.024": 0.0,
			"0.025": 0.0
		}
	}
}
