{
	 "smiles": "CS(=O)(=O)C1=CC(=CC=C1)C(=O)C1=CC=CC=C1", 
	 "Tm": 360.15, 
	 "num_atms": 30, 
	 "gaussian": { 
		 "optdone": 1, 
		 "sigma_profile": "yes", 
		 "theory": "DFT", 
		 "functional": "B3LYP", 
		 "basiset": "6-31G**", 
		 "properties": { 
			 "R2extent": 6120.693, 
			 "electric_dipole_moment_norm": 4.92048686819, 
			 "electric_quadrupole_moment_norm": 26.9488041339, 
			 "total_energy": -1164.51785703, 
			 "HOMO_LUMO_gap": 0.1774, 
			 "cosmo_polarized_energy": -19.22, 
			 "cosmo_cavitation_energy": 36.05, 
			 "cosmo_dispersion_energy": -25.6, 
			 "cosmo_repulsion_energy": 1.92, 
			 "cosmo_total_nonelectrostatic_energy": 12.38, 
			 "SMD_solvation_energy": 6.26 
		},
		"coords": [
			{
				"x": -0.9243425716,
				"y": 1.3341582567,
				"z": 3.6775932281,
				"element": "C" 
			},
			{
				"x": -0.5954373022,
				"y": -0.4420245527,
				"z": 3.5684304465,
				"element": "S" 
			},
			{
				"x": -1.8683374357,
				"y": -1.1076217397,
				"z": 3.2522992283,
				"element": "O" 
			},
			{
				"x": 0.1915036729,
				"y": -0.8160745516,
				"z": 4.7533253193,
				"element": "O" 
			},
			{
				"x": 0.4762642073,
				"y": -0.5869726581,
				"z": 2.125682836,
				"element": "C" 
			},
			{
				"x": -0.0979330271,
				"y": -0.8161411246,
				"z": 0.8746554178,
				"element": "C" 
			},
			{
				"x": 0.732580957,
				"y": -0.9434708054,
				"z": -0.2471487424,
				"element": "C" 
			},
			{
				"x": 2.1247952941,
				"y": -0.8565964855,
				"z": -0.081265757,
				"element": "C" 
			},
			{
				"x": 2.6829585236,
				"y": -0.623321877,
				"z": 1.17274226,
				"element": "C" 
			},
			{
				"x": 1.8582916986,
				"y": -0.4903301863,
				"z": 2.2922673125,
				"element": "C" 
			},
			{
				"x": 0.2140862283,
				"y": -1.2785035261,
				"z": -1.6206450257,
				"element": "C" 
			},
			{
				"x": 0.9385357505,
				"y": -1.8907193809,
				"z": -2.3966064436,
				"element": "O" 
			},
			{
				"x": -1.1670377333,
				"y": -0.8777915692,
				"z": -2.037706952,
				"element": "C" 
			},
			{
				"x": -1.7961893293,
				"y": -1.6478986062,
				"z": -3.0298520984,
				"element": "C" 
			},
			{
				"x": -3.0620949153,
				"y": -1.303185201,
				"z": -3.4925501095,
				"element": "C" 
			},
			{
				"x": -3.7059127524,
				"y": -0.1683585107,
				"z": -2.9892138862,
				"element": "C" 
			},
			{
				"x": -3.0780237741,
				"y": 0.6191854336,
				"z": -2.0230482437,
				"element": "C" 
			},
			{
				"x": -1.8168908606,
				"y": 0.2641982664,
				"z": -1.5436098398,
				"element": "C" 
			},
			{
				"x": -1.4355062005,
				"y": 1.6624003505,
				"z": 2.7716074864,
				"element": "H" 
			},
			{
				"x": 0.0171250736,
				"y": 1.8674042925,
				"z": 3.8161195116,
				"element": "H" 
			},
			{
				"x": -1.5695785476,
				"y": 1.4704198113,
				"z": 4.5479783322,
				"element": "H" 
			},
			{
				"x": -1.1725592936,
				"y": -0.9367302564,
				"z": 0.7970254621,
				"element": "H" 
			},
			{
				"x": 2.7528907841,
				"y": -0.9910443698,
				"z": -0.9555070099,
				"element": "H" 
			},
			{
				"x": 3.7609541536,
				"y": -0.560921284,
				"z": 1.2852592562,
				"element": "H" 
			},
			{
				"x": 2.2726557801,
				"y": -0.3422768793,
				"z": 3.2840779469,
				"element": "H" 
			},
			{
				"x": -1.2717017119,
				"y": -2.5126832693,
				"z": -3.4221536074,
				"element": "H" 
			},
			{
				"x": -3.5473683354,
				"y": -1.9134533961,
				"z": -4.2484765428,
				"element": "H" 
			},
			{
				"x": -4.6922143595,
				"y": 0.1036741776,
				"z": -3.3539490825,
				"element": "H" 
			},
			{
				"x": -3.5686341874,
				"y": 1.5107087644,
				"z": -1.6438652766,
				"element": "H" 
			},
			{
				"x": -1.3266797862,
				"y": 0.8918708768,
				"z": -0.8068654264,
				"element": "H" 
			}
		],
		 "valence_orbital": [ 
			{
				"type": "occ",
				"energy": -0.28354,
				"method": "rhf"
			},
			{
				"type": "occ",
				"energy": -0.2814,
				"method": "rhf"
			},
			{
				"type": "occ",
				"energy": -0.26947,
				"method": "rhf"
			},
			{
				"type": "occ",
				"energy": -0.26722,
				"method": "rhf"
			},
			{
				"type": "occ",
				"energy": -0.25606,
				"method": "rhf"
			},
			{
				"type": "unocc",
				"energy": -0.07866,
				"method": "rhf"
			},
			{
				"type": "unocc",
				"energy": -0.04491,
				"method": "rhf"
			},
			{
				"type": "unocc",
				"energy": -0.02999,
				"method": "rhf"
			},
			{
				"type": "unocc",
				"energy": -0.01562,
				"method": "rhf"
			},
			{
				"type": "unocc",
				"energy": 0.03604,
				"method": "rhf"
			}
		],
		"cosmo_sigma_profile": { 
			"-0.025": 0.0,
			"-0.024": 0.0,
			"-0.023": 0.0,
			"-0.022": 0.0,
			"-0.021": 0.0,
			"-0.02": 0.0,
			"-0.019": 0.0,
			"-0.018": 0.0,
			"-0.017": 0.0,
			"-0.016": 0.0,
			"-0.015": 0.0,
			"-0.014": 0.0,
			"-0.013": 0.0,
			"-0.012": 0.0,
			"-0.011": 0.0,
			"-0.01": 0.0,
			"-0.009": 2.50621076151,
			"-0.008": 9.45247065708,
			"-0.007": 11.9495004182,
			"-0.006": 24.1158818837,
			"-0.005": 24.4340717411,
			"-0.004": 27.0506718065,
			"-0.003": 18.6147108159,
			"-0.002": 15.8509956248,
			"-0.001": 15.6135875359,
			"0.0": 17.9554490154,
			"0.001": 21.6894498373,
			"0.002": 18.3499736159,
			"0.003": 14.2586464164,
			"0.004": 14.9193175193,
			"0.005": 3.79945551552,
			"0.006": 4.49954862417,
			"0.007": 4.19465496066,
			"0.008": 4.18458965252,
			"0.009": 4.7676820361,
			"0.01": 7.66041974131,
			"0.011": 12.6416704997,
			"0.012": 10.3260603763,
			"0.013": 0.543605977792,
			"0.014": 0.0,
			"0.015": 0.0,
			"0.016": 0.0,
			"0.017": 0.0,
			"0.018": 0.0,
			"0.019": 0.0,
			"0.02": 0.0,
			"0.021": 0.0,
			"0.022": 0.0,
			"0.023": 0.0,
			"0.024": 0.0,
			"0.025": 0.0
		}
	}
}
