{
	 "smiles": "CC(=O)NC1(CCCCCC1)C(O)=O", 
	 "Tm": 470.15, 
	 "num_atms": 31, 
	 "gaussian": { 
		 "optdone": 1, 
		 "sigma_profile": "yes", 
		 "theory": "DFT", 
		 "functional": "B3LYP", 
		 "basiset": "6-31G**", 
		 "properties": { 
			 "R2extent": 3008.8647, 
			 "electric_dipole_moment_norm": 5.17407474434, 
			 "electric_quadrupole_moment_norm": 19.7232135789, 
			 "total_energy": -671.760927887, 
			 "HOMO_LUMO_gap": 0.23122, 
			 "cosmo_polarized_energy": -16.33, 
			 "cosmo_cavitation_energy": 30.56, 
			 "cosmo_dispersion_energy": -22.05, 
			 "cosmo_repulsion_energy": 1.74, 
			 "cosmo_total_nonelectrostatic_energy": 10.25, 
			 "SMD_solvation_energy": 6.13 
		},
		"coords": [
			{
				"x": 2.3758034548,
				"y": 0.4430753329,
				"z": -2.4823130107,
				"element": "C" 
			},
			{
				"x": 2.4745899493,
				"y": 1.1876705445,
				"z": -1.1621917596,
				"element": "C" 
			},
			{
				"x": 3.2528427257,
				"y": 2.1222344977,
				"z": -1.0238237087,
				"element": "O" 
			},
			{
				"x": 1.6908906363,
				"y": 0.7936792275,
				"z": -0.0972616674,
				"element": "N" 
			},
			{
				"x": 0.7495310776,
				"y": -0.3157271558,
				"z": 0.0602963506,
				"element": "C" 
			},
			{
				"x": -0.5918498942,
				"y": -0.022288768,
				"z": -0.6745113565,
				"element": "C" 
			},
			{
				"x": -1.5405971769,
				"y": 0.9245339532,
				"z": 0.08067446,
				"element": "C" 
			},
			{
				"x": -2.2720467907,
				"y": 0.3188104372,
				"z": 1.3214655774,
				"element": "C" 
			},
			{
				"x": -1.967066464,
				"y": -1.1605150042,
				"z": 1.6097158376,
				"element": "C" 
			},
			{
				"x": -0.5271507797,
				"y": -1.4346759066,
				"z": 2.1032069025,
				"element": "C" 
			},
			{
				"x": 0.5476824753,
				"y": -0.459512075,
				"z": 1.6014369547,
				"element": "C" 
			},
			{
				"x": 1.4173380471,
				"y": -1.630691601,
				"z": -0.3934637386,
				"element": "C" 
			},
			{
				"x": 0.5193360871,
				"y": -2.5855922882,
				"z": -0.7418430933,
				"element": "O" 
			},
			{
				"x": 2.6082769876,
				"y": -1.8439416933,
				"z": -0.3856321893,
				"element": "O" 
			},
			{
				"x": 3.1746557304,
				"y": -0.3037033795,
				"z": -2.5125321999,
				"element": "H" 
			},
			{
				"x": 2.5470722317,
				"y": 1.1627643934,
				"z": -3.2842138819,
				"element": "H" 
			},
			{
				"x": 1.4278107287,
				"y": -0.0715680284,
				"z": -2.6510221864,
				"element": "H" 
			},
			{
				"x": 1.9408333623,
				"y": 1.3013070515,
				"z": 0.7414321543,
				"element": "H" 
			},
			{
				"x": -0.3507660416,
				"y": 0.4329610915,
				"z": -1.6392939391,
				"element": "H" 
			},
			{
				"x": -1.1009945114,
				"y": -0.9599766209,
				"z": -0.9000187691,
				"element": "H" 
			},
			{
				"x": -2.2914643779,
				"y": 1.2659293511,
				"z": -0.640202665,
				"element": "H" 
			},
			{
				"x": -0.9849644306,
				"y": 1.82456919,
				"z": 0.3690139969,
				"element": "H" 
			},
			{
				"x": -3.3537546882,
				"y": 0.421351857,
				"z": 1.1803025268,
				"element": "H" 
			},
			{
				"x": -2.0375868272,
				"y": 0.9110750592,
				"z": 2.2149218287,
				"element": "H" 
			},
			{
				"x": -2.6697789693,
				"y": -1.5249027729,
				"z": 2.3682250909,
				"element": "H" 
			},
			{
				"x": -2.1719113138,
				"y": -1.7555388298,
				"z": 0.7136175486,
				"element": "H" 
			},
			{
				"x": -0.5053800029,
				"y": -1.3658489643,
				"z": 3.1979190483,
				"element": "H" 
			},
			{
				"x": -0.24754252,
				"y": -2.4658328055,
				"z": 1.8615491941,
				"element": "H" 
			},
			{
				"x": 1.5172382034,
				"y": -0.7290941294,
				"z": 2.0355593892,
				"element": "H" 
			},
			{
				"x": 0.3105983179,
				"y": 0.5445280316,
				"z": 1.9725055741,
				"element": "H" 
			},
			{
				"x": 1.0438547733,
				"y": -3.3797799955,
				"z": -0.9423182689,
				"element": "H" 
			}
		],
		 "valence_orbital": [ 
			{
				"type": "occ",
				"energy": -0.32295,
				"method": "rhf"
			},
			{
				"type": "occ",
				"energy": -0.31947,
				"method": "rhf"
			},
			{
				"type": "occ",
				"energy": -0.28254,
				"method": "rhf"
			},
			{
				"type": "occ",
				"energy": -0.24654,
				"method": "rhf"
			},
			{
				"type": "occ",
				"energy": -0.23801,
				"method": "rhf"
			},
			{
				"type": "unocc",
				"energy": -0.00679,
				"method": "rhf"
			},
			{
				"type": "unocc",
				"energy": 0.03193,
				"method": "rhf"
			},
			{
				"type": "unocc",
				"energy": 0.05839,
				"method": "rhf"
			},
			{
				"type": "unocc",
				"energy": 0.06877,
				"method": "rhf"
			},
			{
				"type": "unocc",
				"energy": 0.09644,
				"method": "rhf"
			}
		],
		"cosmo_sigma_profile": { 
			"-0.025": 0.0,
			"-0.024": 0.0,
			"-0.023": 0.0,
			"-0.022": 0.0,
			"-0.021": 0.0,
			"-0.02": 0.0,
			"-0.019": 0.0722262450106,
			"-0.018": 0.814590447424,
			"-0.017": 1.08619252694,
			"-0.016": 0.445552556109,
			"-0.015": 1.143962658,
			"-0.014": 0.903539778512,
			"-0.013": 0.690277034553,
			"-0.012": 1.08463121705,
			"-0.011": 1.73077136957,
			"-0.01": 1.96732373477,
			"-0.009": 1.45905381462,
			"-0.008": 1.86127623765,
			"-0.007": 2.5516280291,
			"-0.006": 4.14770812527,
			"-0.005": 9.31935424227,
			"-0.004": 13.2271676609,
			"-0.003": 25.0141163063,
			"-0.002": 34.5356504189,
			"-0.001": 32.5485269537,
			"0.0": 26.2434000141,
			"0.001": 17.1636250723,
			"0.002": 6.42758574968,
			"0.003": 5.52309818261,
			"0.004": 5.3657909254,
			"0.005": 4.64335894729,
			"0.006": 4.14349150322,
			"0.007": 2.85026467554,
			"0.008": 3.10849311064,
			"0.009": 2.07552635233,
			"0.01": 3.8383810894,
			"0.011": 4.94417252329,
			"0.012": 4.09913962423,
			"0.013": 3.09808675435,
			"0.014": 6.02998605452,
			"0.015": 2.18164789998,
			"0.016": 0.0974058224986,
			"0.017": 0.0,
			"0.018": 0.0,
			"0.019": 0.0,
			"0.02": 0.0,
			"0.021": 0.0,
			"0.022": 0.0,
			"0.023": 0.0,
			"0.024": 0.0,
			"0.025": 0.0
		}
	}
}
