{
	 "smiles": "O=CC1=CSC(COC2=CC=CC=C2)=N1", 
	 "Tm": 350.15, 
	 "num_atms": 24, 
	 "gaussian": { 
		 "optdone": 1, 
		 "sigma_profile": "yes", 
		 "theory": "DFT", 
		 "functional": "B3LYP", 
		 "basiset": "6-31G**", 
		 "properties": { 
			 "R2extent": 4374.2042, 
			 "electric_dipole_moment_norm": 2.49691988258, 
			 "electric_quadrupole_moment_norm": 18.9756678755, 
			 "total_energy": -1027.94681489, 
			 "HOMO_LUMO_gap": 0.15847, 
			 "cosmo_polarized_energy": -10.44, 
			 "cosmo_cavitation_energy": 30.99, 
			 "cosmo_dispersion_energy": -22.43, 
			 "cosmo_repulsion_energy": 1.72, 
			 "cosmo_total_nonelectrostatic_energy": 10.29, 
			 "SMD_solvation_energy": 4.88 
		},
		"coords": [
			{
				"x": -5.4433867305,
				"y": -0.7308613258,
				"z": 0.531425666,
				"element": "O" 
			},
			{
				"x": -4.5387590654,
				"y": -0.8105846421,
				"z": -0.2777978618,
				"element": "C" 
			},
			{
				"x": -3.1189966805,
				"y": -0.9830052404,
				"z": 0.0879847533,
				"element": "C" 
			},
			{
				"x": -2.6472596399,
				"y": -1.0662970354,
				"z": 1.3751978809,
				"element": "C" 
			},
			{
				"x": -0.9374685179,
				"y": -1.2510595243,
				"z": 1.3725845305,
				"element": "S" 
			},
			{
				"x": -0.9732546451,
				"y": -1.2049668724,
				"z": -0.3936639721,
				"element": "C" 
			},
			{
				"x": 0.2850017569,
				"y": -1.3793438356,
				"z": -1.2059672005,
				"element": "C" 
			},
			{
				"x": 1.4188687734,
				"y": -0.7619033852,
				"z": -0.6200251202,
				"element": "O" 
			},
			{
				"x": 1.5751915194,
				"y": 0.6023167335,
				"z": -0.7458538784,
				"element": "C" 
			},
			{
				"x": 2.7787011794,
				"y": 1.1094711007,
				"z": -0.2398641946,
				"element": "C" 
			},
			{
				"x": 3.0440558167,
				"y": 2.4724649869,
				"z": -0.3219295015,
				"element": "C" 
			},
			{
				"x": 2.1174872889,
				"y": 3.3416654581,
				"z": -0.9073754941,
				"element": "C" 
			},
			{
				"x": 0.9219330548,
				"y": 2.828479767,
				"z": -1.4049191346,
				"element": "C" 
			},
			{
				"x": 0.6374195631,
				"y": 1.4606715013,
				"z": -1.328331622,
				"element": "C" 
			},
			{
				"x": -2.1584388783,
				"y": -1.0593985141,
				"z": -0.9020834022,
				"element": "N" 
			},
			{
				"x": -4.7163383026,
				"y": -0.7593488488,
				"z": -1.3716444593,
				"element": "H" 
			},
			{
				"x": -3.2278664425,
				"y": -1.0100313146,
				"z": 2.2849162033,
				"element": "H" 
			},
			{
				"x": 0.5431661746,
				"y": -2.4418460308,
				"z": -1.2647428532,
				"element": "H" 
			},
			{
				"x": 0.0915512738,
				"y": -1.0199174233,
				"z": -2.2230907785,
				"element": "H" 
			},
			{
				"x": 3.4868778299,
				"y": 0.4187701126,
				"z": 0.2060853838,
				"element": "H" 
			},
			{
				"x": 3.9806434686,
				"y": 2.8576251432,
				"z": 0.0710107095,
				"element": "H" 
			},
			{
				"x": 2.3266788889,
				"y": 4.4048933325,
				"z": -0.9709271256,
				"element": "H" 
			},
			{
				"x": 0.1905863318,
				"y": 3.4923073792,
				"z": -1.8570785971,
				"element": "H" 
			},
			{
				"x": -0.3078940176,
				"y": 1.0905984779,
				"z": -1.7071099315,
				"element": "H" 
			}
		],
		 "valence_orbital": [ 
			{
				"type": "occ",
				"energy": -0.29803,
				"method": "rhf"
			},
			{
				"type": "occ",
				"energy": -0.26401,
				"method": "rhf"
			},
			{
				"type": "occ",
				"energy": -0.26099,
				"method": "rhf"
			},
			{
				"type": "occ",
				"energy": -0.25462,
				"method": "rhf"
			},
			{
				"type": "occ",
				"energy": -0.22923,
				"method": "rhf"
			},
			{
				"type": "unocc",
				"energy": -0.07076,
				"method": "rhf"
			},
			{
				"type": "unocc",
				"energy": -0.03107,
				"method": "rhf"
			},
			{
				"type": "unocc",
				"energy": -0.00563,
				"method": "rhf"
			},
			{
				"type": "unocc",
				"energy": 0.00308,
				"method": "rhf"
			},
			{
				"type": "unocc",
				"energy": 0.00882,
				"method": "rhf"
			}
		],
		"cosmo_sigma_profile": { 
			"-0.025": 0.0,
			"-0.024": 0.0,
			"-0.023": 0.0,
			"-0.022": 0.0,
			"-0.021": 0.0,
			"-0.02": 0.0,
			"-0.019": 0.0,
			"-0.018": 0.0,
			"-0.017": 0.0,
			"-0.016": 0.0,
			"-0.015": 0.0,
			"-0.014": 0.0,
			"-0.013": 0.0,
			"-0.012": 0.0,
			"-0.011": 0.293189405507,
			"-0.01": 1.60450575942,
			"-0.009": 2.44527912493,
			"-0.008": 4.16914070327,
			"-0.007": 7.37608302943,
			"-0.006": 14.1384205916,
			"-0.005": 18.5763689015,
			"-0.004": 18.5181499945,
			"-0.003": 16.7316459773,
			"-0.002": 17.5366738651,
			"-0.001": 20.791761042,
			"0.0": 24.5825492499,
			"0.001": 19.6012505814,
			"0.002": 13.8689261081,
			"0.003": 13.1452252633,
			"0.004": 12.7725248358,
			"0.005": 12.2387460786,
			"0.006": 9.43187751117,
			"0.007": 3.74555992301,
			"0.008": 3.45884002529,
			"0.009": 4.03943101567,
			"0.01": 3.69164834907,
			"0.011": 4.87668172889,
			"0.012": 2.71254635815,
			"0.013": 1.00352328496,
			"0.014": 0.0,
			"0.015": 0.0,
			"0.016": 0.0,
			"0.017": 0.0,
			"0.018": 0.0,
			"0.019": 0.0,
			"0.02": 0.0,
			"0.021": 0.0,
			"0.022": 0.0,
			"0.023": 0.0,
			"0.024": 0.0,
			"0.025": 0.0
		}
	}
}
