{
	 "smiles": "OC(=O)C1=C(Br)C=C(F)C(F)=C1", 
	 "Tm": 393.15, 
	 "num_atms": 15, 
	 "gaussian": { 
		 "optdone": 1, 
		 "sigma_profile": "yes", 
		 "theory": "DFT", 
		 "functional": "B3LYP", 
		 "basiset": "6-31G**", 
		 "properties": { 
			 "R2extent": 3181.9566, 
			 "electric_dipole_moment_norm": 1.24208460259, 
			 "electric_quadrupole_moment_norm": 11.9610499606, 
			 "total_energy": -3190.07132456, 
			 "HOMO_LUMO_gap": 0.18866, 
			 "cosmo_polarized_energy": -8.94, 
			 "cosmo_cavitation_energy": 23.56, 
			 "cosmo_dispersion_energy": -17.63, 
			 "cosmo_repulsion_energy": 1.35, 
			 "cosmo_total_nonelectrostatic_energy": 7.28, 
			 "SMD_solvation_energy": 5.28 
		},
		"coords": [
			{
				"x": -2.8897078303,
				"y": -0.7018315808,
				"z": -0.2737296956,
				"element": "O" 
			},
			{
				"x": -1.6600718871,
				"y": -0.2050377581,
				"z": -0.5753059309,
				"element": "C" 
			},
			{
				"x": -1.511154861,
				"y": 0.646940507,
				"z": -1.4233373891,
				"element": "O" 
			},
			{
				"x": -0.5891449581,
				"y": -0.8355609841,
				"z": 0.2517468023,
				"element": "C" 
			},
			{
				"x": 0.7762244545,
				"y": -0.5048572749,
				"z": 0.1424971084,
				"element": "C" 
			},
			{
				"x": 1.469012443,
				"y": 0.7885153317,
				"z": -1.0677874282,
				"element": "Br" 
			},
			{
				"x": 1.7244528858,
				"y": -1.1373148041,
				"z": 0.9510022572,
				"element": "C" 
			},
			{
				"x": 1.3251133873,
				"y": -2.0964894495,
				"z": 1.8676493705,
				"element": "C" 
			},
			{
				"x": 2.2284072608,
				"y": -2.70481969,
				"z": 2.6438867831,
				"element": "F" 
			},
			{
				"x": -0.0223974318,
				"y": -2.436658926,
				"z": 1.9895543936,
				"element": "C" 
			},
			{
				"x": -0.3859522309,
				"y": -3.3677742506,
				"z": 2.8834562708,
				"element": "F" 
			},
			{
				"x": -0.9630964737,
				"y": -1.814771697,
				"z": 1.1931462776,
				"element": "C" 
			},
			{
				"x": -3.5074271896,
				"y": -0.2331985472,
				"z": -0.8582250822,
				"element": "H" 
			},
			{
				"x": 2.7751014391,
				"y": -0.8877261527,
				"z": 0.8719456229,
				"element": "H" 
			},
			{
				"x": -2.0038590081,
				"y": -2.0906147238,
				"z": 1.3007006396,
				"element": "H" 
			}
		],
		 "valence_orbital": [ 
			{
				"type": "occ",
				"energy": -0.31911,
				"method": "rhf"
			},
			{
				"type": "occ",
				"energy": -0.31056,
				"method": "rhf"
			},
			{
				"type": "occ",
				"energy": -0.2819,
				"method": "rhf"
			},
			{
				"type": "occ",
				"energy": -0.26954,
				"method": "rhf"
			},
			{
				"type": "occ",
				"energy": -0.25534,
				"method": "rhf"
			},
			{
				"type": "unocc",
				"energy": -0.06668,
				"method": "rhf"
			},
			{
				"type": "unocc",
				"energy": -0.03419,
				"method": "rhf"
			},
			{
				"type": "unocc",
				"energy": -0.00642,
				"method": "rhf"
			},
			{
				"type": "unocc",
				"energy": 0.04392,
				"method": "rhf"
			},
			{
				"type": "unocc",
				"energy": 0.0668,
				"method": "rhf"
			}
		],
		"cosmo_sigma_profile": { 
			"-0.025": 0.0,
			"-0.024": 0.0,
			"-0.023": 0.0,
			"-0.022": 0.0,
			"-0.021": 0.0,
			"-0.02": 0.0,
			"-0.019": 0.172546462913,
			"-0.018": 1.1313533194,
			"-0.017": 0.86684852281,
			"-0.016": 0.616484632319,
			"-0.015": 0.552741070529,
			"-0.014": 0.407414047932,
			"-0.013": 0.601505403592,
			"-0.012": 0.771364033453,
			"-0.011": 1.67216140783,
			"-0.01": 0.799864778797,
			"-0.009": 1.84732734861,
			"-0.008": 2.12686150655,
			"-0.007": 4.10757968716,
			"-0.006": 3.85473021778,
			"-0.005": 5.77435613362,
			"-0.004": 7.39512414726,
			"-0.003": 13.7565234408,
			"-0.002": 20.9304518943,
			"-0.001": 22.0853438833,
			"0.0": 16.2553562866,
			"0.001": 11.9161531957,
			"0.002": 15.9487659267,
			"0.003": 27.1818274763,
			"0.004": 10.2148496018,
			"0.005": 4.01875648553,
			"0.006": 3.0562476162,
			"0.007": 1.92837227896,
			"0.008": 2.2223523943,
			"0.009": 2.03434151674,
			"0.01": 2.47059944758,
			"0.011": 5.04910091387,
			"0.012": 1.66291830181,
			"0.013": 0.0,
			"0.014": 0.0,
			"0.015": 0.0,
			"0.016": 0.0,
			"0.017": 0.0,
			"0.018": 0.0,
			"0.019": 0.0,
			"0.02": 0.0,
			"0.021": 0.0,
			"0.022": 0.0,
			"0.023": 0.0,
			"0.024": 0.0,
			"0.025": 0.0
		}
	}
}
