{
	 "smiles": "BrC1=CC=C(C=C1)C#CC1=CC=C(Br)C=C1", 
	 "Tm": 456.15, 
	 "num_atms": 24, 
	 "gaussian": { 
		 "optdone": 1, 
		 "sigma_profile": "yes", 
		 "theory": "DFT", 
		 "functional": "B3LYP", 
		 "basiset": "6-31G**", 
		 "properties": { 
			 "R2extent": 16809.3403, 
			 "electric_dipole_moment_norm": 0.00022360679775, 
			 "electric_quadrupole_moment_norm": 11.0402310497, 
			 "total_energy": -5681.06788312, 
			 "HOMO_LUMO_gap": 0.19012, 
			 "cosmo_polarized_energy": -6.24, 
			 "cosmo_cavitation_energy": 35.39, 
			 "cosmo_dispersion_energy": -26.38, 
			 "cosmo_repulsion_energy": 2.08, 
			 "cosmo_total_nonelectrostatic_energy": 11.08, 
			 "SMD_solvation_energy": 3.7 
		},
		"coords": [
			{
				"x": 5.2252659227,
				"y": 5.5988110246,
				"z": -0.8952844571,
				"element": "Br" 
			},
			{
				"x": 3.9523112778,
				"y": 4.2577538727,
				"z": -0.4182799433,
				"element": "C" 
			},
			{
				"x": 2.838542209,
				"y": 4.0493851805,
				"z": -1.2315991698,
				"element": "C" 
			},
			{
				"x": 1.9122350889,
				"y": 3.071266227,
				"z": -0.88114003,
				"element": "C" 
			},
			{
				"x": 2.0882332883,
				"y": 2.29459238,
				"z": 0.2803942034,
				"element": "C" 
			},
			{
				"x": 3.2220562053,
				"y": 2.5265288155,
				"z": 1.0828997168,
				"element": "C" 
			},
			{
				"x": 4.1518626527,
				"y": 3.5031952798,
				"z": 0.7376663712,
				"element": "C" 
			},
			{
				"x": 1.1360898734,
				"y": 1.2921239356,
				"z": 0.6372087407,
				"element": "C" 
			},
			{
				"x": 0.3253771682,
				"y": 0.4387061129,
				"z": 0.9408784495,
				"element": "C" 
			},
			{
				"x": -0.6264079218,
				"y": -0.5641257541,
				"z": 1.2976266931,
				"element": "C" 
			},
			{
				"x": -0.4836492306,
				"y": -1.8867037394,
				"z": 0.8352724873,
				"element": "C" 
			},
			{
				"x": -1.4099585948,
				"y": -2.866470159,
				"z": 1.1810832028,
				"element": "C" 
			},
			{
				"x": -2.4902964684,
				"y": -2.5277183928,
				"z": 1.99564323,
				"element": "C" 
			},
			{
				"x": -3.7632965687,
				"y": -3.8688980411,
				"z": 2.4721552171,
				"element": "Br" 
			},
			{
				"x": -2.6564343001,
				"y": -1.2258889889,
				"z": 2.4678974757,
				"element": "C" 
			},
			{
				"x": -1.7268052437,
				"y": -0.2504689944,
				"z": 2.11867142,
				"element": "C" 
			},
			{
				"x": 2.6980104303,
				"y": 4.6443283779,
				"z": -2.1267501948,
				"element": "H" 
			},
			{
				"x": 1.0425768203,
				"y": 2.9017442829,
				"z": -1.5073920662,
				"element": "H" 
			},
			{
				"x": 3.3685051368,
				"y": 1.9344237086,
				"z": 1.9802286748,
				"element": "H" 
			},
			{
				"x": 5.0227745349,
				"y": 3.6774842902,
				"z": 1.3590752014,
				"element": "H" 
			},
			{
				"x": 0.3600730611,
				"y": -2.1404553727,
				"z": 0.2020458715,
				"element": "H" 
			},
			{
				"x": -1.295162669,
				"y": -3.8828904023,
				"z": 0.8223133587,
				"element": "H" 
			},
			{
				"x": -3.5015592783,
				"y": -0.9788170603,
				"z": 3.1001372908,
				"element": "H" 
			},
			{
				"x": -1.8474433945,
				"y": 0.7650934168,
				"z": 2.4810482565,
				"element": "H" 
			}
		],
		 "valence_orbital": [ 
			{
				"type": "occ",
				"energy": -0.28813,
				"method": "rhf"
			},
			{
				"type": "occ",
				"energy": -0.2722,
				"method": "rhf"
			},
			{
				"type": "occ",
				"energy": -0.27218,
				"method": "rhf"
			},
			{
				"type": "occ",
				"energy": -0.23323,
				"method": "rhf"
			},
			{
				"type": "occ",
				"energy": -0.23322,
				"method": "rhf"
			},
			{
				"type": "unocc",
				"energy": -0.0431,
				"method": "rhf"
			},
			{
				"type": "unocc",
				"energy": -0.04309,
				"method": "rhf"
			},
			{
				"type": "unocc",
				"energy": -0.02093,
				"method": "rhf"
			},
			{
				"type": "unocc",
				"energy": -0.02085,
				"method": "rhf"
			},
			{
				"type": "unocc",
				"energy": 0.00212,
				"method": "rhf"
			}
		],
		"cosmo_sigma_profile": { 
			"-0.025": 0.0,
			"-0.024": 0.0,
			"-0.023": 0.0,
			"-0.022": 0.0,
			"-0.021": 0.0,
			"-0.02": 0.0,
			"-0.019": 0.0,
			"-0.018": 0.0,
			"-0.017": 0.0,
			"-0.016": 0.0,
			"-0.015": 0.0,
			"-0.014": 0.0,
			"-0.013": 0.0,
			"-0.012": 0.0,
			"-0.011": 0.0,
			"-0.01": 0.0,
			"-0.009": 0.0,
			"-0.008": 2.00063944173,
			"-0.007": 13.6951457194,
			"-0.006": 16.6542723332,
			"-0.005": 14.4513756199,
			"-0.004": 15.0881641949,
			"-0.003": 15.9195401474,
			"-0.002": 14.8834148587,
			"-0.001": 16.4764083593,
			"0.0": 20.9174620635,
			"0.001": 30.7583716119,
			"0.002": 49.1714249097,
			"0.003": 40.3264986656,
			"0.004": 30.7616666795,
			"0.005": 12.1354919882,
			"0.006": 0.0,
			"0.007": 0.0,
			"0.008": 0.0,
			"0.009": 0.0,
			"0.01": 0.0,
			"0.011": 0.0,
			"0.012": 0.0,
			"0.013": 0.0,
			"0.014": 0.0,
			"0.015": 0.0,
			"0.016": 0.0,
			"0.017": 0.0,
			"0.018": 0.0,
			"0.019": 0.0,
			"0.02": 0.0,
			"0.021": 0.0,
			"0.022": 0.0,
			"0.023": 0.0,
			"0.024": 0.0,
			"0.025": 0.0
		}
	}
}
