{
	 "smiles": "CC(N1C(=O)NC2(CCCC2)C1=O)C(O)=O", 
	 "Tm": 497.15, 
	 "num_atms": 30, 
	 "gaussian": { 
		 "optdone": 1, 
		 "sigma_profile": "yes", 
		 "theory": "DFT", 
		 "functional": "B3LYP", 
		 "basiset": "6-31G**", 
		 "properties": { 
			 "R2extent": 4007.9122, 
			 "electric_dipole_moment_norm": 1.30237601713, 
			 "electric_quadrupole_moment_norm": 16.2418926887, 
			 "total_energy": -799.967654178, 
			 "HOMO_LUMO_gap": 0.2502, 
			 "cosmo_polarized_energy": -18.1, 
			 "cosmo_cavitation_energy": 32.55, 
			 "cosmo_dispersion_energy": -22.82, 
			 "cosmo_repulsion_energy": 1.8, 
			 "cosmo_total_nonelectrostatic_energy": 11.53, 
			 "SMD_solvation_energy": 6.93 
		},
		"coords": [
			{
				"x": 2.3159764465,
				"y": -2.4024256911,
				"z": -1.5312457139,
				"element": "C" 
			},
			{
				"x": 1.0356119234,
				"y": -1.738802372,
				"z": -1.00947234,
				"element": "C" 
			},
			{
				"x": 1.2896572282,
				"y": -0.6741177711,
				"z": -0.0548678535,
				"element": "N" 
			},
			{
				"x": 1.9315507257,
				"y": -0.8734429027,
				"z": 1.1910195367,
				"element": "C" 
			},
			{
				"x": 2.4485362594,
				"y": -1.9081703806,
				"z": 1.5642836752,
				"element": "O" 
			},
			{
				"x": 1.8656795973,
				"y": 0.3309815021,
				"z": 1.8456318327,
				"element": "N" 
			},
			{
				"x": 0.9698548177,
				"y": 1.2866972726,
				"z": 1.2015337914,
				"element": "C" 
			},
			{
				"x": -0.3617904362,
				"y": 1.5271595127,
				"z": 1.9787678616,
				"element": "C" 
			},
			{
				"x": -0.7609748931,
				"y": 2.9622655348,
				"z": 1.6165224219,
				"element": "C" 
			},
			{
				"x": 0.5860373816,
				"y": 3.7044434178,
				"z": 1.6297847834,
				"element": "C" 
			},
			{
				"x": 1.5635166152,
				"y": 2.7137842006,
				"z": 0.9606896878,
				"element": "C" 
			},
			{
				"x": 0.6755598009,
				"y": 0.5615584638,
				"z": -0.1191536387,
				"element": "C" 
			},
			{
				"x": 0.0145546206,
				"y": 0.9860614075,
				"z": -1.0483341096,
				"element": "O" 
			},
			{
				"x": 0.0175223081,
				"y": -2.709288934,
				"z": -0.3975468871,
				"element": "C" 
			},
			{
				"x": -0.0534687199,
				"y": -3.8630680605,
				"z": -1.0948534346,
				"element": "O" 
			},
			{
				"x": -0.685317509,
				"y": -2.4657263969,
				"z": 0.5557880426,
				"element": "O" 
			},
			{
				"x": 2.0654283938,
				"y": -3.1513065293,
				"z": -2.2846064443,
				"element": "H" 
			},
			{
				"x": 2.8610699553,
				"y": -2.8804835482,
				"z": -0.7164930907,
				"element": "H" 
			},
			{
				"x": 2.9570137149,
				"y": -1.644504545,
				"z": -1.9892551138,
				"element": "H" 
			},
			{
				"x": 0.5128448526,
				"y": -1.2484471528,
				"z": -1.8408390757,
				"element": "H" 
			},
			{
				"x": 2.0509739845,
				"y": 0.3416523123,
				"z": 2.8379155607,
				"element": "H" 
			},
			{
				"x": -1.1176604113,
				"y": 0.7716958716,
				"z": 1.747836779,
				"element": "H" 
			},
			{
				"x": -0.1438930592,
				"y": 1.4572762243,
				"z": 3.052546297,
				"element": "H" 
			},
			{
				"x": -1.1913944128,
				"y": 2.9803564693,
				"z": 0.6094144321,
				"element": "H" 
			},
			{
				"x": -1.4966954373,
				"y": 3.384386794,
				"z": 2.3079469707,
				"element": "H" 
			},
			{
				"x": 0.5525905531,
				"y": 4.6691945329,
				"z": 1.1154777073,
				"element": "H" 
			},
			{
				"x": 0.8907073317,
				"y": 3.898913854,
				"z": 2.6659255225,
				"element": "H" 
			},
			{
				"x": 1.6115653789,
				"y": 2.9026140809,
				"z": -0.1158089246,
				"element": "H" 
			},
			{
				"x": 2.5815258489,
				"y": 2.7731105037,
				"z": 1.3540452747,
				"element": "H" 
			},
			{
				"x": -0.7436828593,
				"y": -4.3971676707,
				"z": -0.6665535509,
				"element": "H" 
			}
		],
		 "valence_orbital": [ 
			{
				"type": "occ",
				"energy": -0.28576,
				"method": "rhf"
			},
			{
				"type": "occ",
				"energy": -0.28461,
				"method": "rhf"
			},
			{
				"type": "occ",
				"energy": -0.27503,
				"method": "rhf"
			},
			{
				"type": "occ",
				"energy": -0.26442,
				"method": "rhf"
			},
			{
				"type": "occ",
				"energy": -0.25768,
				"method": "rhf"
			},
			{
				"type": "unocc",
				"energy": -0.00748,
				"method": "rhf"
			},
			{
				"type": "unocc",
				"energy": 0.00341,
				"method": "rhf"
			},
			{
				"type": "unocc",
				"energy": 0.05138,
				"method": "rhf"
			},
			{
				"type": "unocc",
				"energy": 0.07377,
				"method": "rhf"
			},
			{
				"type": "unocc",
				"energy": 0.07705,
				"method": "rhf"
			}
		],
		"cosmo_sigma_profile": { 
			"-0.025": 0.0,
			"-0.024": 0.0,
			"-0.023": 0.0,
			"-0.022": 0.0,
			"-0.021": 0.0,
			"-0.02": 0.0,
			"-0.019": 0.408934671064,
			"-0.018": 1.07630304323,
			"-0.017": 1.08572794073,
			"-0.016": 0.216328369957,
			"-0.015": 2.00671406009,
			"-0.014": 1.5656497707,
			"-0.013": 1.94004554167,
			"-0.012": 1.91237471461,
			"-0.011": 2.36154482485,
			"-0.01": 1.98271226085,
			"-0.009": 1.9843218868,
			"-0.008": 2.93712108464,
			"-0.007": 4.21509969277,
			"-0.006": 4.7883386168,
			"-0.005": 7.26276128984,
			"-0.004": 16.8678388143,
			"-0.003": 26.374063083,
			"-0.002": 29.7771113581,
			"-0.001": 30.1588569175,
			"0.0": 26.2957005244,
			"0.001": 12.4835206506,
			"0.002": 7.17972640729,
			"0.003": 8.0008012776,
			"0.004": 6.68829415743,
			"0.005": 6.48971244131,
			"0.006": 6.03074082024,
			"0.007": 6.72321561481,
			"0.008": 5.47397745181,
			"0.009": 5.06045182832,
			"0.01": 5.96678725608,
			"0.011": 8.28430259077,
			"0.012": 8.13423782873,
			"0.013": 2.738368632,
			"0.014": 0.206694542118,
			"0.015": 0.0,
			"0.016": 0.0,
			"0.017": 0.0,
			"0.018": 0.0,
			"0.019": 0.0,
			"0.02": 0.0,
			"0.021": 0.0,
			"0.022": 0.0,
			"0.023": 0.0,
			"0.024": 0.0,
			"0.025": 0.0
		}
	}
}
