{
	 "smiles": "NC1=CC2=C(NC(=O)CC2)C=C1", 
	 "Tm": 444.15, 
	 "num_atms": 22, 
	 "gaussian": { 
		 "optdone": 1, 
		 "sigma_profile": "yes", 
		 "theory": "DFT", 
		 "functional": "B3LYP", 
		 "basiset": "6-31G**", 
		 "properties": { 
			 "R2extent": 2391.7362, 
			 "electric_dipole_moment_norm": 4.69683087411, 
			 "electric_quadrupole_moment_norm": 8.56408755852, 
			 "total_energy": -533.743073621, 
			 "HOMO_LUMO_gap": 0.18233, 
			 "cosmo_polarized_energy": -15.42, 
			 "cosmo_cavitation_energy": 25.12, 
			 "cosmo_dispersion_energy": -18.98, 
			 "cosmo_repulsion_energy": 1.52, 
			 "cosmo_total_nonelectrostatic_energy": 7.65, 
			 "SMD_solvation_energy": 4.41 
		},
		"coords": [
			{
				"x": -1.1471512462,
				"y": -4.2261032844,
				"z": -1.4371298461,
				"element": "N" 
			},
			{
				"x": -0.7178042633,
				"y": -3.0259468483,
				"z": -0.8551660132,
				"element": "C" 
			},
			{
				"x": -1.1925012403,
				"y": -1.7898650135,
				"z": -1.3256774014,
				"element": "C" 
			},
			{
				"x": -0.7364311648,
				"y": -0.5837636588,
				"z": -0.7995425116,
				"element": "C" 
			},
			{
				"x": 0.2379770153,
				"y": -0.6007579113,
				"z": 0.2132969497,
				"element": "C" 
			},
			{
				"x": 0.6988389816,
				"y": 0.6236231586,
				"z": 0.7428094015,
				"element": "N" 
			},
			{
				"x": 0.5658319311,
				"y": 1.8573872574,
				"z": 0.1437600804,
				"element": "C" 
			},
			{
				"x": 1.0279872967,
				"y": 2.8704365773,
				"z": 0.6478246974,
				"element": "O" 
			},
			{
				"x": -0.1643252239,
				"y": 1.8286477803,
				"z": -1.1930633394,
				"element": "C" 
			},
			{
				"x": -1.2681194987,
				"y": 0.7611207377,
				"z": -1.2398953183,
				"element": "C" 
			},
			{
				"x": 0.7205039429,
				"y": -1.8219715687,
				"z": 0.6890279919,
				"element": "C" 
			},
			{
				"x": 0.2437586814,
				"y": -3.0219272654,
				"z": 0.1670692704,
				"element": "C" 
			},
			{
				"x": -2.0639940047,
				"y": -4.1828105099,
				"z": -1.8617481781,
				"element": "H" 
			},
			{
				"x": -1.0605686452,
				"y": -5.0369961929,
				"z": -0.8391158154,
				"element": "H" 
			},
			{
				"x": -1.9372794381,
				"y": -1.7714759388,
				"z": -2.1189271817,
				"element": "H" 
			},
			{
				"x": 1.2516868621,
				"y": 0.6182201818,
				"z": 1.590138857,
				"element": "H" 
			},
			{
				"x": -0.551609908,
				"y": 2.8327969786,
				"z": -1.3767904385,
				"element": "H" 
			},
			{
				"x": 0.5875539537,
				"y": 1.6207605696,
				"z": -1.9668137106,
				"element": "H" 
			},
			{
				"x": -1.6970435475,
				"y": 0.6980117213,
				"z": -2.2450757899,
				"element": "H" 
			},
			{
				"x": -2.0863687486,
				"y": 1.0637483341,
				"z": -0.5698493703,
				"element": "H" 
			},
			{
				"x": 1.4749316952,
				"y": -1.8370213035,
				"z": 1.4716739161,
				"element": "H" 
			},
			{
				"x": 0.6322265692,
				"y": -3.9639138013,
				"z": 0.54539375,
				"element": "H" 
			}
		],
		 "valence_orbital": [ 
			{
				"type": "occ",
				"energy": -0.32007,
				"method": "rhf"
			},
			{
				"type": "occ",
				"energy": -0.26721,
				"method": "rhf"
			},
			{
				"type": "occ",
				"energy": -0.24777,
				"method": "rhf"
			},
			{
				"type": "occ",
				"energy": -0.24343,
				"method": "rhf"
			},
			{
				"type": "occ",
				"energy": -0.18828,
				"method": "rhf"
			},
			{
				"type": "unocc",
				"energy": -0.00595,
				"method": "rhf"
			},
			{
				"type": "unocc",
				"energy": 0.00383,
				"method": "rhf"
			},
			{
				"type": "unocc",
				"energy": 0.04711,
				"method": "rhf"
			},
			{
				"type": "unocc",
				"energy": 0.07856,
				"method": "rhf"
			},
			{
				"type": "unocc",
				"energy": 0.09225,
				"method": "rhf"
			}
		],
		"cosmo_sigma_profile": { 
			"-0.025": 0.0,
			"-0.024": 0.0,
			"-0.023": 0.0,
			"-0.022": 0.0,
			"-0.021": 0.0,
			"-0.02": 0.0,
			"-0.019": 0.0,
			"-0.018": 0.0,
			"-0.017": 0.0,
			"-0.016": 0.0,
			"-0.015": 0.0351109764314,
			"-0.014": 0.756754595227,
			"-0.013": 1.36899536004,
			"-0.012": 2.5424411467,
			"-0.011": 3.98137352129,
			"-0.01": 3.46319799606,
			"-0.009": 5.18773335522,
			"-0.008": 4.27760595266,
			"-0.007": 4.49810892081,
			"-0.006": 7.83212219398,
			"-0.005": 13.7251410915,
			"-0.004": 16.7083779166,
			"-0.003": 16.0533477567,
			"-0.002": 14.8586947423,
			"-0.001": 11.7028646455,
			"0.0": 9.02552859462,
			"0.001": 8.46698112222,
			"0.002": 7.95884583853,
			"0.003": 8.78772990374,
			"0.004": 8.8816857603,
			"0.005": 7.82608061927,
			"0.006": 11.4591713135,
			"0.007": 4.66158940041,
			"0.008": 2.5230313594,
			"0.009": 1.70382251195,
			"0.01": 1.88133083456,
			"0.011": 2.18121202066,
			"0.012": 2.87992123624,
			"0.013": 4.77602302984,
			"0.014": 6.08804388375,
			"0.015": 1.96361846333,
			"0.016": 0.117102483629,
			"0.017": 0.0,
			"0.018": 0.0,
			"0.019": 0.0,
			"0.02": 0.0,
			"0.021": 0.0,
			"0.022": 0.0,
			"0.023": 0.0,
			"0.024": 0.0,
			"0.025": 0.0
		}
	}
}
