{
	 "smiles": "OC(=O)CN1C(CN2CCOCC2)=NC2=CC=CC=C12", 
	 "Tm": 489.15, 
	 "num_atms": 37, 
	 "gaussian": { 
		 "optdone": 1, 
		 "sigma_profile": "yes", 
		 "theory": "DFT", 
		 "functional": "B3LYP", 
		 "basiset": "6-31G**", 
		 "properties": { 
			 "R2extent": 6122.6571, 
			 "electric_dipole_moment_norm": 1.65413887265, 
			 "electric_quadrupole_moment_norm": 13.7103022107, 
			 "total_energy": -933.651409606, 
			 "HOMO_LUMO_gap": 0.20318, 
			 "cosmo_polarized_energy": -20.16, 
			 "cosmo_cavitation_energy": 38.61, 
			 "cosmo_dispersion_energy": -26.76, 
			 "cosmo_repulsion_energy": 2.01, 
			 "cosmo_total_nonelectrostatic_energy": 13.87, 
			 "SMD_solvation_energy": 4.96 
		},
		"coords": [
			{
				"x": 2.3059760313,
				"y": 0.0317484553,
				"z": 1.1854161406,
				"element": "O" 
			},
			{
				"x": 2.605753107,
				"y": 0.9184123865,
				"z": 0.2130593506,
				"element": "C" 
			},
			{
				"x": 3.5612059345,
				"y": 0.8111212048,
				"z": -0.522353076,
				"element": "O" 
			},
			{
				"x": 1.6873254626,
				"y": 2.1368406033,
				"z": 0.2186591601,
				"element": "C" 
			},
			{
				"x": 0.343895685,
				"y": 1.9200314216,
				"z": 0.7055899364,
				"element": "N" 
			},
			{
				"x": -0.7204903471,
				"y": 1.3820806923,
				"z": -0.0058893463,
				"element": "C" 
			},
			{
				"x": -0.5679122635,
				"y": 0.9408178195,
				"z": -1.4326506971,
				"element": "C" 
			},
			{
				"x": 0.4964633754,
				"y": -0.0530958567,
				"z": -1.5661066097,
				"element": "N" 
			},
			{
				"x": 0.1222075273,
				"y": -1.353200015,
				"z": -0.9877123646,
				"element": "C" 
			},
			{
				"x": 1.0953650393,
				"y": -2.4280783421,
				"z": -1.4547621408,
				"element": "C" 
			},
			{
				"x": 1.0592828565,
				"y": -2.628427343,
				"z": -2.8661299964,
				"element": "O" 
			},
			{
				"x": 0.6861025804,
				"y": -1.4716989903,
				"z": -3.6117488387,
				"element": "C" 
			},
			{
				"x": 1.0988072235,
				"y": -0.1792383165,
				"z": -2.908988698,
				"element": "C" 
			},
			{
				"x": -1.8252727754,
				"y": 1.3030743751,
				"z": 0.6943249206,
				"element": "N" 
			},
			{
				"x": -1.4993861359,
				"y": 1.8110240772,
				"z": 1.9447013583,
				"element": "C" 
			},
			{
				"x": -2.2987246289,
				"y": 1.9703752568,
				"z": 3.0831991696,
				"element": "C" 
			},
			{
				"x": -1.7124715496,
				"y": 2.5084081365,
				"z": 4.2245456181,
				"element": "C" 
			},
			{
				"x": -0.3537571666,
				"y": 2.881836815,
				"z": 4.2427928897,
				"element": "C" 
			},
			{
				"x": 0.4596494187,
				"y": 2.729838758,
				"z": 3.1218979416,
				"element": "C" 
			},
			{
				"x": -0.1379831124,
				"y": 2.1950358218,
				"z": 1.9789138629,
				"element": "C" 
			},
			{
				"x": 2.9763639271,
				"y": -0.6696586678,
				"z": 1.1267168082,
				"element": "H" 
			},
			{
				"x": 1.6728239159,
				"y": 2.5224029546,
				"z": -0.8019093837,
				"element": "H" 
			},
			{
				"x": 2.1620324778,
				"y": 2.9031796168,
				"z": 0.8418902692,
				"element": "H" 
			},
			{
				"x": -1.5570113272,
				"y": 0.5831766538,
				"z": -1.7633066979,
				"element": "H" 
			},
			{
				"x": -0.3069264741,
				"y": 1.8056338553,
				"z": -2.0564541502,
				"element": "H" 
			},
			{
				"x": 0.1423635524,
				"y": -1.2849216526,
				"z": 0.1056771317,
				"element": "H" 
			},
			{
				"x": -0.9034199053,
				"y": -1.6461985991,
				"z": -1.27490417,
				"element": "H" 
			},
			{
				"x": 0.8440747387,
				"y": -3.3878443206,
				"z": -0.9915917312,
				"element": "H" 
			},
			{
				"x": 2.1155787847,
				"y": -2.1580039696,
				"z": -1.1381264948,
				"element": "H" 
			},
			{
				"x": -0.4013777566,
				"y": -1.4701834738,
				"z": -3.7898813988,
				"element": "H" 
			},
			{
				"x": 1.1800133617,
				"y": -1.5498070123,
				"z": -4.5866216037,
				"element": "H" 
			},
			{
				"x": 0.8090067239,
				"y": 0.6782191982,
				"z": -3.5257380606,
				"element": "H" 
			},
			{
				"x": 2.1924065692,
				"y": -0.1517987762,
				"z": -2.8133952058,
				"element": "H" 
			},
			{
				"x": -3.3436377161,
				"y": 1.6780832437,
				"z": 3.0609491931,
				"element": "H" 
			},
			{
				"x": -2.3091219661,
				"y": 2.6427676637,
				"z": 5.1219040993,
				"element": "H" 
			},
			{
				"x": 0.0716640662,
				"y": 3.2939184306,
				"z": 5.1531047924,
				"element": "H" 
			},
			{
				"x": 1.5086307658,
				"y": 3.0090278952,
				"z": 3.1509280219,
				"element": "H" 
			}
		],
		 "valence_orbital": [ 
			{
				"type": "occ",
				"energy": -0.26975,
				"method": "rhf"
			},
			{
				"type": "occ",
				"energy": -0.25036,
				"method": "rhf"
			},
			{
				"type": "occ",
				"energy": -0.22687,
				"method": "rhf"
			},
			{
				"type": "occ",
				"energy": -0.22218,
				"method": "rhf"
			},
			{
				"type": "occ",
				"energy": -0.22051,
				"method": "rhf"
			},
			{
				"type": "unocc",
				"energy": -0.01733,
				"method": "rhf"
			},
			{
				"type": "unocc",
				"energy": -0.00092,
				"method": "rhf"
			},
			{
				"type": "unocc",
				"energy": 0.02165,
				"method": "rhf"
			},
			{
				"type": "unocc",
				"energy": 0.04697,
				"method": "rhf"
			},
			{
				"type": "unocc",
				"energy": 0.05097,
				"method": "rhf"
			}
		],
		"cosmo_sigma_profile": { 
			"-0.025": 0.0,
			"-0.024": 0.0,
			"-0.023": 0.0,
			"-0.022": 0.0,
			"-0.021": 0.0,
			"-0.02": 0.0,
			"-0.019": 0.0127944788369,
			"-0.018": 0.591945136945,
			"-0.017": 0.822971132742,
			"-0.016": 0.978714230492,
			"-0.015": 0.613433633095,
			"-0.014": 0.355105105889,
			"-0.013": 0.693892805274,
			"-0.012": 0.741790321334,
			"-0.011": 0.763008202555,
			"-0.01": 1.58904463897,
			"-0.009": 4.46371459167,
			"-0.008": 6.08325148607,
			"-0.007": 9.94698604274,
			"-0.006": 12.0445983568,
			"-0.005": 20.4854080087,
			"-0.004": 29.9272596977,
			"-0.003": 34.0009952283,
			"-0.002": 24.3628992043,
			"-0.001": 17.8290744703,
			"0.0": 14.7170943211,
			"0.001": 12.5700522462,
			"0.002": 12.2706549356,
			"0.003": 13.8941388197,
			"0.004": 15.2307708216,
			"0.005": 16.1693601115,
			"0.006": 13.3457957494,
			"0.007": 7.09254801634,
			"0.008": 4.690004327,
			"0.009": 4.18268420725,
			"0.01": 3.84125947924,
			"0.011": 4.92025279003,
			"0.012": 6.52303402744,
			"0.013": 3.40518584953,
			"0.014": 1.77115593395,
			"0.015": 1.11909780856,
			"0.016": 0.827363846589,
			"0.017": 0.723123036269,
			"0.018": 0.344629999929,
			"0.019": 0.0,
			"0.02": 0.0,
			"0.021": 0.0,
			"0.022": 0.0,
			"0.023": 0.0,
			"0.024": 0.0,
			"0.025": 0.0
		}
	}
}
