{
	 "smiles": "NC1=C(Cl)C=CC(=C1)S(=O)(=O)N1CCOCC1", 
	 "Tm": 451.15, 
	 "num_atms": 30, 
	 "gaussian": { 
		 "optdone": 1, 
		 "sigma_profile": "yes", 
		 "theory": "DFT", 
		 "functional": "B3LYP", 
		 "basiset": "6-31G**", 
		 "properties": { 
			 "R2extent": 6422.0759, 
			 "electric_dipole_moment_norm": 4.10478973274, 
			 "electric_quadrupole_moment_norm": 19.9535492312, 
			 "total_energy": -1582.36050792, 
			 "HOMO_LUMO_gap": 0.18442, 
			 "cosmo_polarized_energy": -17.56, 
			 "cosmo_cavitation_energy": 35.42, 
			 "cosmo_dispersion_energy": -26.15, 
			 "cosmo_repulsion_energy": 2.0, 
			 "cosmo_total_nonelectrostatic_energy": 11.27, 
			 "SMD_solvation_energy": 3.95 
		},
		"coords": [
			{
				"x": -1.0879704341,
				"y": 3.9239629708,
				"z": 1.6109438346,
				"element": "N" 
			},
			{
				"x": -0.5652471639,
				"y": 2.6681517123,
				"z": 1.8387791317,
				"element": "C" 
			},
			{
				"x": 0.5808300406,
				"y": 2.466076053,
				"z": 2.634584964,
				"element": "C" 
			},
			{
				"x": 1.4177036307,
				"y": 3.8688651889,
				"z": 3.2899204205,
				"element": "Cl" 
			},
			{
				"x": 1.0715049967,
				"y": 1.1927631904,
				"z": 2.9187870801,
				"element": "C" 
			},
			{
				"x": 0.4365686407,
				"y": 0.065708532,
				"z": 2.4070486227,
				"element": "C" 
			},
			{
				"x": -0.6921447471,
				"y": 0.2546914231,
				"z": 1.6054671696,
				"element": "C" 
			},
			{
				"x": -1.1944382858,
				"y": 1.518189422,
				"z": 1.3219257584,
				"element": "C" 
			},
			{
				"x": -1.5489963625,
				"y": -1.178400407,
				"z": 0.9425299914,
				"element": "S" 
			},
			{
				"x": -1.6510606277,
				"y": -2.1945013318,
				"z": 1.9954364209,
				"element": "O" 
			},
			{
				"x": -2.7527698107,
				"y": -0.6850806428,
				"z": 0.2570604989,
				"element": "O" 
			},
			{
				"x": -0.4251691659,
				"y": -1.7643293199,
				"z": -0.1800464159,
				"element": "N" 
			},
			{
				"x": -0.2353394143,
				"y": -3.2315207468,
				"z": -0.2666886353,
				"element": "C" 
			},
			{
				"x": -0.6853783753,
				"y": -3.7520746896,
				"z": -1.6274596999,
				"element": "C" 
			},
			{
				"x": 0.0212600721,
				"y": -3.1397023509,
				"z": -2.7077653786,
				"element": "O" 
			},
			{
				"x": 0.4979428669,
				"y": -1.8270903184,
				"z": -2.4358320113,
				"element": "C" 
			},
			{
				"x": -0.4060519538,
				"y": -1.056953437,
				"z": -1.4780564348,
				"element": "C" 
			},
			{
				"x": -0.4734019789,
				"y": 4.7103381907,
				"z": 1.7602651864,
				"element": "H" 
			},
			{
				"x": -1.7148100649,
				"y": 4.0196258936,
				"z": 0.8268031391,
				"element": "H" 
			},
			{
				"x": 1.952557304,
				"y": 1.094729222,
				"z": 3.5433880874,
				"element": "H" 
			},
			{
				"x": 0.8011690114,
				"y": -0.9298708121,
				"z": 2.629333296,
				"element": "H" 
			},
			{
				"x": -2.0886259451,
				"y": 1.6124497694,
				"z": 0.7144905206,
				"element": "H" 
			},
			{
				"x": -0.7951996175,
				"y": -3.7138544539,
				"z": 0.5361385782,
				"element": "H" 
			},
			{
				"x": 0.8269728728,
				"y": -3.4571845943,
				"z": -0.1130479643,
				"element": "H" 
			},
			{
				"x": -0.4985002021,
				"y": -4.8292896322,
				"z": -1.6959953905,
				"element": "H" 
			},
			{
				"x": -1.7674032559,
				"y": -3.5896140742,
				"z": -1.7441824611,
				"element": "H" 
			},
			{
				"x": 0.5432546659,
				"y": -1.3013089942,
				"z": -3.3949668432,
				"element": "H" 
			},
			{
				"x": 1.5191722565,
				"y": -1.8637937918,
				"z": -2.0256054826,
				"element": "H" 
			},
			{
				"x": -0.0135250262,
				"y": -0.0439739757,
				"z": -1.3323592218,
				"element": "H" 
			},
			{
				"x": -1.4140039265,
				"y": -0.9729079956,
				"z": -1.902796761,
				"element": "H" 
			}
		],
		 "valence_orbital": [ 
			{
				"type": "occ",
				"energy": -0.30057,
				"method": "rhf"
			},
			{
				"type": "occ",
				"energy": -0.27045,
				"method": "rhf"
			},
			{
				"type": "occ",
				"energy": -0.25859,
				"method": "rhf"
			},
			{
				"type": "occ",
				"energy": -0.24883,
				"method": "rhf"
			},
			{
				"type": "occ",
				"energy": -0.22445,
				"method": "rhf"
			},
			{
				"type": "unocc",
				"energy": -0.04003,
				"method": "rhf"
			},
			{
				"type": "unocc",
				"energy": -0.01372,
				"method": "rhf"
			},
			{
				"type": "unocc",
				"energy": 0.0179,
				"method": "rhf"
			},
			{
				"type": "unocc",
				"energy": 0.05993,
				"method": "rhf"
			},
			{
				"type": "unocc",
				"energy": 0.06995,
				"method": "rhf"
			}
		],
		"cosmo_sigma_profile": { 
			"-0.025": 0.0,
			"-0.024": 0.0,
			"-0.023": 0.0,
			"-0.022": 0.0,
			"-0.021": 0.0,
			"-0.02": 0.0,
			"-0.019": 0.0,
			"-0.018": 0.0,
			"-0.017": 0.0,
			"-0.016": 0.0,
			"-0.015": 0.0,
			"-0.014": 0.877166604576,
			"-0.013": 1.99487644968,
			"-0.012": 2.29329917948,
			"-0.011": 2.79571783031,
			"-0.01": 2.60958703614,
			"-0.009": 2.34516464731,
			"-0.008": 3.02823461617,
			"-0.007": 6.22153009978,
			"-0.006": 12.5681514529,
			"-0.005": 25.3196262973,
			"-0.004": 27.8816352302,
			"-0.003": 20.3745446653,
			"-0.002": 17.1981209191,
			"-0.001": 14.8839883199,
			"0.0": 14.9961514865,
			"0.001": 20.7179934422,
			"0.002": 23.2486282783,
			"0.003": 17.355677702,
			"0.004": 13.4997830475,
			"0.005": 7.6150657136,
			"0.006": 4.97763416723,
			"0.007": 3.82649478541,
			"0.008": 6.00168183377,
			"0.009": 6.13063814445,
			"0.01": 7.70533055148,
			"0.011": 9.20374436014,
			"0.012": 4.56173702955,
			"0.013": 1.99658681284,
			"0.014": 0.187109552726,
			"0.015": 0.0,
			"0.016": 0.0,
			"0.017": 0.0,
			"0.018": 0.0,
			"0.019": 0.0,
			"0.02": 0.0,
			"0.021": 0.0,
			"0.022": 0.0,
			"0.023": 0.0,
			"0.024": 0.0,
			"0.025": 0.0
		}
	}
}
