{
	 "smiles": "NNC(=O)C1=C(O)C=C(N)C=C1", 
	 "Tm": 468.15, 
	 "num_atms": 21, 
	 "gaussian": { 
		 "optdone": 1, 
		 "sigma_profile": "yes", 
		 "theory": "DFT", 
		 "functional": "B3LYP", 
		 "basiset": "6-31G**", 
		 "properties": { 
			 "R2extent": 2512.1238, 
			 "electric_dipole_moment_norm": 3.87057585509, 
			 "electric_quadrupole_moment_norm": 17.4878991154, 
			 "total_energy": -586.870565209, 
			 "HOMO_LUMO_gap": 0.17895, 
			 "cosmo_polarized_energy": -16.87, 
			 "cosmo_cavitation_energy": 24.84, 
			 "cosmo_dispersion_energy": -19.03, 
			 "cosmo_repulsion_energy": 1.52, 
			 "cosmo_total_nonelectrostatic_energy": 7.33, 
			 "SMD_solvation_energy": 5.4 
		},
		"coords": [
			{
				"x": 1.2708305374,
				"y": -3.1978195393,
				"z": -0.9142179406,
				"element": "N" 
			},
			{
				"x": 0.5436016578,
				"y": -1.9933996513,
				"z": -1.0367498744,
				"element": "N" 
			},
			{
				"x": 0.0445119678,
				"y": -1.3673867291,
				"z": 0.0770849426,
				"element": "C" 
			},
			{
				"x": 0.1265771107,
				"y": -1.9450162068,
				"z": 1.1836112912,
				"element": "O" 
			},
			{
				"x": -0.5615958905,
				"y": -0.0373772659,
				"z": -0.0740429685,
				"element": "C" 
			},
			{
				"x": -0.9245314417,
				"y": 0.6818554377,
				"z": 1.1016040667,
				"element": "C" 
			},
			{
				"x": -0.7598484251,
				"y": 0.1667361396,
				"z": 2.3278107491,
				"element": "O" 
			},
			{
				"x": -1.4631698785,
				"y": 1.9684603567,
				"z": 1.0001085355,
				"element": "C" 
			},
			{
				"x": -1.6805993471,
				"y": 2.5608798032,
				"z": -0.2474918103,
				"element": "C" 
			},
			{
				"x": -2.2652507232,
				"y": 3.8117382475,
				"z": -0.3440986083,
				"element": "N" 
			},
			{
				"x": -1.3523817149,
				"y": 1.8404021696,
				"z": -1.4214508563,
				"element": "C" 
			},
			{
				"x": -0.8101998795,
				"y": 0.5744859518,
				"z": -1.3192147207,
				"element": "C" 
			},
			{
				"x": 1.7313857725,
				"y": -3.17250566,
				"z": -0.0030344211,
				"element": "H" 
			},
			{
				"x": 0.5913521801,
				"y": -3.9549911187,
				"z": -0.8475901975,
				"element": "H" 
			},
			{
				"x": 0.8106866564,
				"y": -1.4397282755,
				"z": -1.8361486823,
				"element": "H" 
			},
			{
				"x": -0.4105266159,
				"y": -0.7554567229,
				"z": 2.19305012,
				"element": "H" 
			},
			{
				"x": -1.7214243166,
				"y": 2.4864767179,
				"z": 1.9185494676,
				"element": "H" 
			},
			{
				"x": -2.116012844,
				"y": 4.3168638296,
				"z": -1.2049261965,
				"element": "H" 
			},
			{
				"x": -2.2270288095,
				"y": 4.3950382404,
				"z": 0.4787382296,
				"element": "H" 
			},
			{
				"x": -1.5452610591,
				"y": 2.2794192672,
				"z": -2.3958828058,
				"element": "H" 
			},
			{
				"x": -0.5980149373,
				"y": 0.0340250085,
				"z": -2.2375083199,
				"element": "H" 
			}
		],
		 "valence_orbital": [ 
			{
				"type": "occ",
				"energy": -0.28851,
				"method": "rhf"
			},
			{
				"type": "occ",
				"energy": -0.26699,
				"method": "rhf"
			},
			{
				"type": "occ",
				"energy": -0.25867,
				"method": "rhf"
			},
			{
				"type": "occ",
				"energy": -0.22413,
				"method": "rhf"
			},
			{
				"type": "occ",
				"energy": -0.20883,
				"method": "rhf"
			},
			{
				"type": "unocc",
				"energy": -0.02988,
				"method": "rhf"
			},
			{
				"type": "unocc",
				"energy": 0.01146,
				"method": "rhf"
			},
			{
				"type": "unocc",
				"energy": 0.06117,
				"method": "rhf"
			},
			{
				"type": "unocc",
				"energy": 0.07507,
				"method": "rhf"
			},
			{
				"type": "unocc",
				"energy": 0.0845,
				"method": "rhf"
			}
		],
		"cosmo_sigma_profile": { 
			"-0.025": 0.0,
			"-0.024": 0.0,
			"-0.023": 0.0,
			"-0.022": 0.0,
			"-0.021": 0.0,
			"-0.02": 0.0,
			"-0.019": 0.0,
			"-0.018": 0.0,
			"-0.017": 0.0,
			"-0.016": 0.0,
			"-0.015": 0.175358044746,
			"-0.014": 1.22348706856,
			"-0.013": 3.36280616227,
			"-0.012": 3.87434296994,
			"-0.011": 5.5196391013,
			"-0.01": 6.07659253794,
			"-0.009": 7.49110667726,
			"-0.008": 6.20403155409,
			"-0.007": 6.45794012067,
			"-0.006": 7.49708085449,
			"-0.005": 7.80259487962,
			"-0.004": 7.03470723511,
			"-0.003": 8.45201911466,
			"-0.002": 7.2766316313,
			"-0.001": 7.62698643232,
			"0.0": 9.79554996736,
			"0.001": 11.9255697809,
			"0.002": 11.361248021,
			"0.003": 12.3870421848,
			"0.004": 12.8980020756,
			"0.005": 14.8839426619,
			"0.006": 6.57358515849,
			"0.007": 5.08734630967,
			"0.008": 4.65367599009,
			"0.009": 3.72169392396,
			"0.01": 4.14783832078,
			"0.011": 4.88196691605,
			"0.012": 4.67810060063,
			"0.013": 1.60214297233,
			"0.014": 0.66423048789,
			"0.015": 0.69177976554,
			"0.016": 0.425037191584,
			"0.017": 0.25743467009,
			"0.018": 0.0,
			"0.019": 0.0,
			"0.02": 0.0,
			"0.021": 0.0,
			"0.022": 0.0,
			"0.023": 0.0,
			"0.024": 0.0,
			"0.025": 0.0
		}
	}
}
