{
	 "smiles": "CCCCC(CC)C(Cl)=O", 
	 "Tm": 340.65, 
	 "num_atms": 25, 
	 "gaussian": { 
		 "optdone": 1, 
		 "sigma_profile": "yes", 
		 "theory": "DFT", 
		 "functional": "B3LYP", 
		 "basiset": "6-31G**", 
		 "properties": { 
			 "R2extent": 2828.3054, 
			 "electric_dipole_moment_norm": 3.41760669621, 
			 "electric_quadrupole_moment_norm": 10.1279307225, 
			 "total_energy": -849.333625704, 
			 "HOMO_LUMO_gap": 0.25442, 
			 "cosmo_polarized_energy": -5.1, 
			 "cosmo_cavitation_energy": 28.68, 
			 "cosmo_dispersion_energy": -19.95, 
			 "cosmo_repulsion_energy": 1.66, 
			 "cosmo_total_nonelectrostatic_energy": 10.39, 
			 "SMD_solvation_energy": 5.18 
		},
		"coords": [
			{
				"x": 3.2971392984,
				"y": 0.6940593452,
				"z": -0.1511996175,
				"element": "C" 
			},
			{
				"x": 2.3838891437,
				"y": 0.7808822894,
				"z": 1.0774494772,
				"element": "C" 
			},
			{
				"x": 0.8791594878,
				"y": 0.7448880697,
				"z": 0.7576650813,
				"element": "C" 
			},
			{
				"x": 0.4103278176,
				"y": -0.5883629219,
				"z": 0.1586048332,
				"element": "C" 
			},
			{
				"x": -1.1168643438,
				"y": -0.700365365,
				"z": -0.0276426687,
				"element": "C" 
			},
			{
				"x": -1.7193852891,
				"y": 0.329324939,
				"z": -1.0361841247,
				"element": "C" 
			},
			{
				"x": -2.33318777,
				"y": 1.5629965076,
				"z": -0.3647728396,
				"element": "C" 
			},
			{
				"x": -1.4536069996,
				"y": -2.1092495505,
				"z": -0.4830072641,
				"element": "C" 
			},
			{
				"x": -3.2414441754,
				"y": -2.5156964115,
				"z": -0.2368707508,
				"element": "Cl" 
			},
			{
				"x": -0.7348208782,
				"y": -2.9237538662,
				"z": -0.9622897983,
				"element": "O" 
			},
			{
				"x": 3.1848965965,
				"y": -0.2577077371,
				"z": -0.6802699443,
				"element": "H" 
			},
			{
				"x": 4.3494945795,
				"y": 0.7850191209,
				"z": 0.1363328336,
				"element": "H" 
			},
			{
				"x": 3.0777473618,
				"y": 1.4981211966,
				"z": -0.8635723975,
				"element": "H" 
			},
			{
				"x": 2.5999577266,
				"y": 1.7111725318,
				"z": 1.6175394117,
				"element": "H" 
			},
			{
				"x": 2.6240263542,
				"y": -0.0357626017,
				"z": 1.7717415437,
				"element": "H" 
			},
			{
				"x": 0.3178387244,
				"y": 0.9410845925,
				"z": 1.6813035125,
				"element": "H" 
			},
			{
				"x": 0.643118455,
				"y": 1.5693757192,
				"z": 0.0723699712,
				"element": "H" 
			},
			{
				"x": 0.7424691505,
				"y": -1.4064561558,
				"z": 0.8101399707,
				"element": "H" 
			},
			{
				"x": 0.8889391679,
				"y": -0.7622133215,
				"z": -0.8111062603,
				"element": "H" 
			},
			{
				"x": -1.6206456404,
				"y": -0.5664192233,
				"z": 0.9373223543,
				"element": "H" 
			},
			{
				"x": -0.9287430231,
				"y": 0.6250758749,
				"z": -1.7358449265,
				"element": "H" 
			},
			{
				"x": -2.4959602213,
				"y": -0.153356986,
				"z": -1.6378531566,
				"element": "H" 
			},
			{
				"x": -2.7133557228,
				"y": 2.260457225,
				"z": -1.1180036952,
				"element": "H" 
			},
			{
				"x": -3.1729662224,
				"y": 1.276374535,
				"z": 0.2770007268,
				"element": "H" 
			},
			{
				"x": -1.6079235775,
				"y": 2.1007121938,
				"z": 0.252347728,
				"element": "H" 
			}
		],
		 "valence_orbital": [ 
			{
				"type": "occ",
				"energy": -0.32957,
				"method": "rhf"
			},
			{
				"type": "occ",
				"energy": -0.32584,
				"method": "rhf"
			},
			{
				"type": "occ",
				"energy": -0.3151,
				"method": "rhf"
			},
			{
				"type": "occ",
				"energy": -0.30752,
				"method": "rhf"
			},
			{
				"type": "occ",
				"energy": -0.28974,
				"method": "rhf"
			},
			{
				"type": "unocc",
				"energy": -0.03532,
				"method": "rhf"
			},
			{
				"type": "unocc",
				"energy": 0.01712,
				"method": "rhf"
			},
			{
				"type": "unocc",
				"energy": 0.07691,
				"method": "rhf"
			},
			{
				"type": "unocc",
				"energy": 0.09558,
				"method": "rhf"
			},
			{
				"type": "unocc",
				"energy": 0.10173,
				"method": "rhf"
			}
		],
		"cosmo_sigma_profile": { 
			"-0.025": 0.0,
			"-0.024": 0.0,
			"-0.023": 0.0,
			"-0.022": 0.0,
			"-0.021": 0.0,
			"-0.02": 0.0,
			"-0.019": 0.0,
			"-0.018": 0.0,
			"-0.017": 0.0,
			"-0.016": 0.0,
			"-0.015": 0.0,
			"-0.014": 0.0,
			"-0.013": 0.0,
			"-0.012": 0.0,
			"-0.011": 0.0,
			"-0.01": 0.0,
			"-0.009": 0.0,
			"-0.008": 0.0,
			"-0.007": 0.364436525064,
			"-0.006": 2.80503334264,
			"-0.005": 4.63399183782,
			"-0.004": 11.7991402769,
			"-0.003": 25.0350076554,
			"-0.002": 36.4118280281,
			"-0.001": 33.7855726641,
			"0.0": 31.7340232991,
			"0.001": 24.7124233729,
			"0.002": 11.6421672022,
			"0.003": 6.7053097706,
			"0.004": 8.98999636298,
			"0.005": 10.406470179,
			"0.006": 5.42152054062,
			"0.007": 2.89500191929,
			"0.008": 4.81011639656,
			"0.009": 2.45175275358,
			"0.01": 0.0654990471095,
			"0.011": 0.0,
			"0.012": 0.0,
			"0.013": 0.0,
			"0.014": 0.0,
			"0.015": 0.0,
			"0.016": 0.0,
			"0.017": 0.0,
			"0.018": 0.0,
			"0.019": 0.0,
			"0.02": 0.0,
			"0.021": 0.0,
			"0.022": 0.0,
			"0.023": 0.0,
			"0.024": 0.0,
			"0.025": 0.0
		}
	}
}
