{
	 "smiles": "O=CC1=C(N=C2SC=CN12)C1=CC=CC=C1", 
	 "Tm": 402.15, 
	 "num_atms": 24, 
	 "gaussian": { 
		 "optdone": 1, 
		 "sigma_profile": "yes", 
		 "theory": "DFT", 
		 "functional": "B3LYP", 
		 "basiset": "6-31G**", 
		 "properties": { 
			 "R2extent": 4779.4328, 
			 "electric_dipole_moment_norm": 0.902834309273, 
			 "electric_quadrupole_moment_norm": 21.0539062079, 
			 "total_energy": -1044.9909022, 
			 "HOMO_LUMO_gap": 0.16055, 
			 "cosmo_polarized_energy": -10.74, 
			 "cosmo_cavitation_energy": 30.39, 
			 "cosmo_dispersion_energy": -22.96, 
			 "cosmo_repulsion_energy": 1.69, 
			 "cosmo_total_nonelectrostatic_energy": 9.12, 
			 "SMD_solvation_energy": 4.68 
		},
		"coords": [
			{
				"x": 0.0873378548,
				"y": -3.023210532,
				"z": -2.0147849146,
				"element": "O" 
			},
			{
				"x": -0.5211904588,
				"y": -1.9594216757,
				"z": -1.9253435072,
				"element": "C" 
			},
			{
				"x": 0.0151359784,
				"y": -0.7837580664,
				"z": -1.2839548749,
				"element": "C" 
			},
			{
				"x": -0.4790952081,
				"y": 0.5128951181,
				"z": -1.0277150702,
				"element": "C" 
			},
			{
				"x": 0.3764588267,
				"y": 1.2204299796,
				"z": -0.220273918,
				"element": "N" 
			},
			{
				"x": 1.3819653911,
				"y": 0.3923478519,
				"z": 0.0022342731,
				"element": "C" 
			},
			{
				"x": 2.8769210951,
				"y": 0.4593825544,
				"z": 0.8987025034,
				"element": "S" 
			},
			{
				"x": 3.2301595404,
				"y": -1.1977690602,
				"z": 0.4017024768,
				"element": "C" 
			},
			{
				"x": 2.2677053963,
				"y": -1.7277394043,
				"z": -0.3868816515,
				"element": "C" 
			},
			{
				"x": 1.2368243089,
				"y": -0.8232187161,
				"z": -0.6083611165,
				"element": "N" 
			},
			{
				"x": -1.7265717068,
				"y": 1.1297195795,
				"z": -1.5004787317,
				"element": "C" 
			},
			{
				"x": -2.3557796541,
				"y": 2.1013171733,
				"z": -0.7025062673,
				"element": "C" 
			},
			{
				"x": -3.5415356184,
				"y": 2.699129688,
				"z": -1.1206079781,
				"element": "C" 
			},
			{
				"x": -4.1168950275,
				"y": 2.3440055526,
				"z": -2.3437295495,
				"element": "C" 
			},
			{
				"x": -3.4897235468,
				"y": 1.3951359599,
				"z": -3.1529349853,
				"element": "C" 
			},
			{
				"x": -2.3004914314,
				"y": 0.79637372,
				"z": -2.7393315778,
				"element": "C" 
			},
			{
				"x": -1.5466598059,
				"y": -1.8519470002,
				"z": -2.3245761771,
				"element": "H" 
			},
			{
				"x": 4.1415900253,
				"y": -1.6755236181,
				"z": 0.728046335,
				"element": "H" 
			},
			{
				"x": 2.209970234,
				"y": -2.7079841847,
				"z": -0.8347798019,
				"element": "H" 
			},
			{
				"x": -1.9003629153,
				"y": 2.3727770914,
				"z": 0.2436645337,
				"element": "H" 
			},
			{
				"x": -4.0195469735,
				"y": 3.4435971909,
				"z": -0.4904371717,
				"element": "H" 
			},
			{
				"x": -5.0417221466,
				"y": 2.8118402603,
				"z": -2.6685004854,
				"element": "H" 
			},
			{
				"x": -3.9177130887,
				"y": 1.1304239979,
				"z": -4.1154192789,
				"element": "H" 
			},
			{
				"x": -1.7958810689,
				"y": 0.0967965399,
				"z": -3.3976330644,
				"element": "H" 
			}
		],
		 "valence_orbital": [ 
			{
				"type": "occ",
				"energy": -0.27906,
				"method": "rhf"
			},
			{
				"type": "occ",
				"energy": -0.25925,
				"method": "rhf"
			},
			{
				"type": "occ",
				"energy": -0.2527,
				"method": "rhf"
			},
			{
				"type": "occ",
				"energy": -0.23687,
				"method": "rhf"
			},
			{
				"type": "occ",
				"energy": -0.22694,
				"method": "rhf"
			},
			{
				"type": "unocc",
				"energy": -0.06639,
				"method": "rhf"
			},
			{
				"type": "unocc",
				"energy": -0.01086,
				"method": "rhf"
			},
			{
				"type": "unocc",
				"energy": -0.00682,
				"method": "rhf"
			},
			{
				"type": "unocc",
				"energy": -0.00547,
				"method": "rhf"
			},
			{
				"type": "unocc",
				"energy": -0.00106,
				"method": "rhf"
			}
		],
		"cosmo_sigma_profile": { 
			"-0.025": 0.0,
			"-0.024": 0.0,
			"-0.023": 0.0,
			"-0.022": 0.0,
			"-0.021": 0.0,
			"-0.02": 0.0,
			"-0.019": 0.0,
			"-0.018": 0.0,
			"-0.017": 0.0,
			"-0.016": 0.0,
			"-0.015": 0.0,
			"-0.014": 0.0,
			"-0.013": 0.0,
			"-0.012": 0.0,
			"-0.011": 0.603161645241,
			"-0.01": 2.53803573674,
			"-0.009": 2.52511351921,
			"-0.008": 3.36636905677,
			"-0.007": 6.76782274115,
			"-0.006": 12.9435417462,
			"-0.005": 14.0489088278,
			"-0.004": 16.4435624022,
			"-0.003": 17.2714811353,
			"-0.002": 21.547861435,
			"-0.001": 22.5670923246,
			"0.0": 23.1313623669,
			"0.001": 22.0057263015,
			"0.002": 18.2580545633,
			"0.003": 13.5293302884,
			"0.004": 14.0219692038,
			"0.005": 11.8178516463,
			"0.006": 3.05759994695,
			"0.007": 3.61754190073,
			"0.008": 2.20772958834,
			"0.009": 2.9139645311,
			"0.01": 2.75896307658,
			"0.011": 3.50883346506,
			"0.012": 3.38115618145,
			"0.013": 2.47272049368,
			"0.014": 1.19989337062,
			"0.015": 0.081022986024,
			"0.016": 0.0,
			"0.017": 0.0,
			"0.018": 0.0,
			"0.019": 0.0,
			"0.02": 0.0,
			"0.021": 0.0,
			"0.022": 0.0,
			"0.023": 0.0,
			"0.024": 0.0,
			"0.0": 0.0
		}
	}
}
