{
	 "smiles": "ClC1=NC=C(C=O)C=N1", 
	 "Tm": 392.15, 
	 "num_atms": 12, 
	 "gaussian": { 
		 "optdone": 1, 
		 "sigma_profile": "yes", 
		 "theory": "DFT", 
		 "functional": "B3LYP", 
		 "basiset": "6-31G**", 
		 "properties": { 
			 "R2extent": 3494.4223, 
			 "electric_dipole_moment_norm": 2.05609197751, 
			 "electric_quadrupole_moment_norm": 8.69355914916, 
			 "total_energy": -837.23226721, 
			 "HOMO_LUMO_gap": 0.18357, 
			 "cosmo_polarized_energy": -10.42, 
			 "cosmo_cavitation_energy": 19.45, 
			 "cosmo_dispersion_energy": -14.55, 
			 "cosmo_repulsion_energy": 1.19, 
			 "cosmo_total_nonelectrostatic_energy": 6.09, 
			 "SMD_solvation_energy": 1.43 
		},
		"coords": [
			{
				"x": 2.205728261,
				"y": 1.5588110698,
				"z": -4.3705469005,
				"element": "Cl" 
			},
			{
				"x": 1.4035667334,
				"y": 0.4412032652,
				"z": -3.2992341836,
				"element": "C" 
			},
			{
				"x": 0.2031458283,
				"y": 0.0172664366,
				"z": -3.6968827678,
				"element": "N" 
			},
			{
				"x": -0.4039080781,
				"y": -0.8363973411,
				"z": -2.8722540128,
				"element": "C" 
			},
			{
				"x": 0.1781228462,
				"y": -1.2603614701,
				"z": -1.669081869,
				"element": "C" 
			},
			{
				"x": -0.5070712837,
				"y": -2.2085717988,
				"z": -0.7629591484,
				"element": "C" 
			},
			{
				"x": -1.602815803,
				"y": -2.6829506301,
				"z": -0.986207214,
				"element": "O" 
			},
			{
				"x": 1.4395394775,
				"y": -0.7344746985,
				"z": -1.3797496188,
				"element": "C" 
			},
			{
				"x": 2.0668819797,
				"y": 0.1221560931,
				"z": -2.1909358974,
				"element": "N" 
			},
			{
				"x": -1.3850156597,
				"y": -1.2040522703,
				"z": -3.1636109674,
				"element": "H" 
			},
			{
				"x": 0.0580538338,
				"y": -2.4664697419,
				"z": 0.1586968295,
				"element": "H" 
			},
			{
				"x": 1.9662718646,
				"y": -1.0089589138,
				"z": -0.4660342498,
				"element": "H" 
			}
		],
		 "valence_orbital": [ 
			{
				"type": "occ",
				"energy": -0.35153,
				"method": "rhf"
			},
			{
				"type": "occ",
				"energy": -0.33234,
				"method": "rhf"
			},
			{
				"type": "occ",
				"energy": -0.29562,
				"method": "rhf"
			},
			{
				"type": "occ",
				"energy": -0.28469,
				"method": "rhf"
			},
			{
				"type": "occ",
				"energy": -0.28139,
				"method": "rhf"
			},
			{
				"type": "unocc",
				"energy": -0.09782,
				"method": "rhf"
			},
			{
				"type": "unocc",
				"energy": -0.07327,
				"method": "rhf"
			},
			{
				"type": "unocc",
				"energy": -0.0038,
				"method": "rhf"
			},
			{
				"type": "unocc",
				"energy": 0.02513,
				"method": "rhf"
			},
			{
				"type": "unocc",
				"energy": 0.09753,
				"method": "rhf"
			}
		],
		"cosmo_sigma_profile": { 
			"-0.025": 0.0,
			"-0.024": 0.0,
			"-0.023": 0.0,
			"-0.022": 0.0,
			"-0.021": 0.0,
			"-0.02": 0.0,
			"-0.019": 0.0,
			"-0.018": 0.0,
			"-0.017": 0.0,
			"-0.016": 0.0,
			"-0.015": 0.0,
			"-0.014": 0.0,
			"-0.013": 0.0,
			"-0.012": 0.0668698200102,
			"-0.011": 1.39135721577,
			"-0.01": 3.6826751768,
			"-0.009": 4.78032353765,
			"-0.008": 6.17450320381,
			"-0.007": 5.48890008731,
			"-0.006": 7.56870903112,
			"-0.005": 8.93253874432,
			"-0.004": 15.8117598764,
			"-0.003": 10.5344966239,
			"-0.002": 7.58709806292,
			"-0.001": 8.2412306444,
			"0.0": 7.56485740361,
			"0.001": 7.70144053791,
			"0.002": 8.74218279754,
			"0.003": 12.4395521912,
			"0.004": 7.9739129674,
			"0.005": 5.23466141568,
			"0.006": 3.94829567159,
			"0.007": 4.59874618528,
			"0.008": 4.10273704688,
			"0.009": 4.28843391105,
			"0.01": 5.93841188833,
			"0.011": 4.52383224341,
			"0.012": 1.93670212004,
			"0.013": 0.821956461661,
			"0.014": 0.0,
			"0.015": 0.0,
			"0.016": 0.0,
			"0.017": 0.0,
			"0.018": 0.0,
			"0.019": 0.0,
			"0.02": 0.0,
			"0.021": 0.0,
			"0.022": 0.0,
			"0.023": 0.0,
			"0.024": 0.0,
			"0.025": 0.0
		}
	}
}
