{
	 "smiles": "NC1=CC(F)=C(F)C(F)=C1", 
	 "Tm": 333.15, 
	 "num_atms": 14, 
	 "gaussian": { 
		 "optdone": 1, 
		 "sigma_profile": "yes", 
		 "theory": "DFT", 
		 "functional": "B3LYP", 
		 "basiset": "6-31G**", 
		 "properties": { 
			 "R2extent": 2915.6765, 
			 "electric_dipole_moment_norm": 4.21987050157, 
			 "electric_quadrupole_moment_norm": 9.67969739506, 
			 "total_energy": -585.288865766, 
			 "HOMO_LUMO_gap": 0.20779, 
			 "cosmo_polarized_energy": -8.48, 
			 "cosmo_cavitation_energy": 20.02, 
			 "cosmo_dispersion_energy": -14.52, 
			 "cosmo_repulsion_energy": 1.12, 
			 "cosmo_total_nonelectrostatic_energy": 6.62, 
			 "SMD_solvation_energy": 5.0 
		},
		"coords": [
			{
				"x": -0.4569299007,
				"y": -0.2081764553,
				"z": -0.5738993994,
				"element": "N" 
			},
			{
				"x": 0.1031489124,
				"y": -0.2057325057,
				"z": 0.7020018586,
				"element": "C" 
			},
			{
				"x": -0.546796885,
				"y": -0.8551055198,
				"z": 1.7660403575,
				"element": "C" 
			},
			{
				"x": 0.0549627554,
				"y": -0.8951157118,
				"z": 3.0156761613,
				"element": "C" 
			},
			{
				"x": -0.5658180718,
				"y": -1.5133573892,
				"z": 4.0343450775,
				"element": "F" 
			},
			{
				"x": 1.2936220136,
				"y": -0.3061708228,
				"z": 3.2562075252,
				"element": "C" 
			},
			{
				"x": 1.8593724042,
				"y": -0.351583756,
				"z": 4.4735161266,
				"element": "F" 
			},
			{
				"x": 1.9246500266,
				"y": 0.3337272998,
				"z": 2.1925726621,
				"element": "C" 
			},
			{
				"x": 3.1190714548,
				"y": 0.9085428711,
				"z": 2.4121588103,
				"element": "F" 
			},
			{
				"x": 1.3540477531,
				"y": 0.394210603,
				"z": 0.9292219461,
				"element": "C" 
			},
			{
				"x": -0.1449585284,
				"y": 0.5332250386,
				"z": -1.1852913712,
				"element": "H" 
			},
			{
				"x": -1.4593137475,
				"y": -0.3304635505,
				"z": -0.6066918527,
				"element": "H" 
			},
			{
				"x": -1.5098548598,
				"y": -1.3362913714,
				"z": 1.6342318793,
				"element": "H" 
			},
			{
				"x": 1.893396673,
				"y": 0.9004912699,
				"z": 0.1360102189,
				"element": "H" 
			}
		],
		 "valence_orbital": [ 
			{
				"type": "occ",
				"energy": -0.38066,
				"method": "rhf"
			},
			{
				"type": "occ",
				"energy": -0.3617,
				"method": "rhf"
			},
			{
				"type": "occ",
				"energy": -0.30321,
				"method": "rhf"
			},
			{
				"type": "occ",
				"energy": -0.25256,
				"method": "rhf"
			},
			{
				"type": "occ",
				"energy": -0.21394,
				"method": "rhf"
			},
			{
				"type": "unocc",
				"energy": -0.00615,
				"method": "rhf"
			},
			{
				"type": "unocc",
				"energy": 0.00778,
				"method": "rhf"
			},
			{
				"type": "unocc",
				"energy": 0.05307,
				"method": "rhf"
			},
			{
				"type": "unocc",
				"energy": 0.07416,
				"method": "rhf"
			},
			{
				"type": "unocc",
				"energy": 0.10687,
				"method": "rhf"
			}
		],
		"cosmo_sigma_profile": { 
			"-0.025": 0.0,
			"-0.024": 0.0,
			"-0.023": 0.0,
			"-0.022": 0.0,
			"-0.021": 0.0,
			"-0.02": 0.0,
			"-0.019": 0.0,
			"-0.018": 0.0,
			"-0.017": 0.0,
			"-0.016": 0.0,
			"-0.015": 0.0,
			"-0.014": 0.073314204888,
			"-0.013": 2.30667127785,
			"-0.012": 2.70379527088,
			"-0.011": 3.18173956688,
			"-0.01": 3.59284340317,
			"-0.009": 3.53287650266,
			"-0.008": 5.04292044729,
			"-0.007": 4.05440246163,
			"-0.006": 3.84659244933,
			"-0.005": 3.62933991162,
			"-0.004": 3.47346683567,
			"-0.003": 3.08105796576,
			"-0.002": 3.35129308428,
			"-0.001": 8.72965046789,
			"0.0": 15.275719502,
			"0.001": 16.1805804355,
			"0.002": 14.4915474865,
			"0.003": 25.1186498634,
			"0.004": 30.5782027631,
			"0.005": 2.55229916348,
			"0.006": 0.950907494236,
			"0.007": 0.401299499648,
			"0.008": 1.21333067704,
			"0.009": 0.545777343292,
			"0.01": 0.77344139962,
			"0.011": 0.484937122904,
			"0.012": 0.807969098515,
			"0.013": 0.549362818828,
			"0.014": 0.232585631149,
			"0.015": 0.0,
			"0.016": 0.0,
			"0.017": 0.0,
			"0.018": 0.0,
			"0.019": 0.0,
			"0.02": 0.0,
			"0.021": 0.0,
			"0.022": 0.0,
			"0.023": 0.0,
			"0.024": 0.0,
			"0.025": 0.0
		}
	}
}
