{
	 "smiles": "CC(=O)CC(=O)NC1=CC(F)=CC=C1", 
	 "Tm": 355.15, 
	 "num_atms": 24, 
	 "gaussian": { 
		 "optdone": 1, 
		 "sigma_profile": "yes", 
		 "theory": "DFT", 
		 "functional": "B3LYP", 
		 "basiset": "6-31G**", 
		 "properties": { 
			 "R2extent": 3773.1413, 
			 "electric_dipole_moment_norm": 3.82862868923, 
			 "electric_quadrupole_moment_norm": 18.0152438107, 
			 "total_energy": -692.134218637, 
			 "HOMO_LUMO_gap": 0.2087, 
			 "cosmo_polarized_energy": -15.19, 
			 "cosmo_cavitation_energy": 29.28, 
			 "cosmo_dispersion_energy": -20.66, 
			 "cosmo_repulsion_energy": 1.62, 
			 "cosmo_total_nonelectrostatic_energy": 10.24, 
			 "SMD_solvation_energy": 6.9 
		},
		"coords": [
			{
				"x": 2.5949738614,
				"y": -0.4527757751,
				"z": -3.1420005661,
				"element": "C" 
			},
			{
				"x": 2.4619711954,
				"y": -1.5118559427,
				"z": -2.0689053724,
				"element": "C" 
			},
			{
				"x": 3.0799881908,
				"y": -2.5562482852,
				"z": -2.1034789772,
				"element": "O" 
			},
			{
				"x": 1.4611957359,
				"y": -1.2553961372,
				"z": -0.932628783,
				"element": "C" 
			},
			{
				"x": 1.6999244036,
				"y": 0.0656339148,
				"z": -0.2135550564,
				"element": "C" 
			},
			{
				"x": 2.7895107397,
				"y": 0.6229429205,
				"z": -0.2290109132,
				"element": "O" 
			},
			{
				"x": 0.6483126241,
				"y": 0.6523807183,
				"z": 0.4665592553,
				"element": "N" 
			},
			{
				"x": -0.7027599799,
				"y": 0.2690198407,
				"z": 0.6295087487,
				"element": "C" 
			},
			{
				"x": -1.6824373318,
				"y": 1.2705092827,
				"z": 0.5526972946,
				"element": "C" 
			},
			{
				"x": -3.0128981025,
				"y": 0.92851463,
				"z": 0.7505770917,
				"element": "C" 
			},
			{
				"x": -3.942860244,
				"y": 1.9006507415,
				"z": 0.6756025171,
				"element": "F" 
			},
			{
				"x": -3.4188024131,
				"y": -0.3769177277,
				"z": 1.0062144085,
				"element": "C" 
			},
			{
				"x": -2.4346708427,
				"y": -1.3617265517,
				"z": 1.082981896,
				"element": "C" 
			},
			{
				"x": -1.0847731306,
				"y": -1.0504355006,
				"z": 0.913892676,
				"element": "C" 
			},
			{
				"x": 3.1023822595,
				"y": 0.4182202407,
				"z": -2.7163440454,
				"element": "H" 
			},
			{
				"x": 3.1765450648,
				"y": -0.8501306619,
				"z": -3.9747502261,
				"element": "H" 
			},
			{
				"x": 1.6115709966,
				"y": -0.1207548752,
				"z": -3.4944966688,
				"element": "H" 
			},
			{
				"x": 0.4411960115,
				"y": -1.3019447195,
				"z": -1.3331540515,
				"element": "H" 
			},
			{
				"x": 1.5739655329,
				"y": -2.0831049327,
				"z": -0.225877521,
				"element": "H" 
			},
			{
				"x": 0.9039489955,
				"y": 1.5697853661,
				"z": 0.8131572155,
				"element": "H" 
			},
			{
				"x": -1.4203809121,
				"y": 2.2992653707,
				"z": 0.3294639388,
				"element": "H" 
			},
			{
				"x": -4.4703360862,
				"y": -0.5984433919,
				"z": 1.1476457517,
				"element": "H" 
			},
			{
				"x": -2.7197188427,
				"y": -2.3864599574,
				"z": 1.3002031753,
				"element": "H" 
			},
			{
				"x": -0.3341477261,
				"y": -1.8216285672,
				"z": 1.0322982121,
				"element": "H" 
			}
		],
		 "valence_orbital": [ 
			{
				"type": "occ",
				"energy": -0.312,
				"method": "rhf"
			},
			{
				"type": "occ",
				"energy": -0.27179,
				"method": "rhf"
			},
			{
				"type": "occ",
				"energy": -0.26753,
				"method": "rhf"
			},
			{
				"type": "occ",
				"energy": -0.24873,
				"method": "rhf"
			},
			{
				"type": "occ",
				"energy": -0.24366,
				"method": "rhf"
			},
			{
				"type": "unocc",
				"energy": -0.03496,
				"method": "rhf"
			},
			{
				"type": "unocc",
				"energy": -0.0214,
				"method": "rhf"
			},
			{
				"type": "unocc",
				"energy": -0.01361,
				"method": "rhf"
			},
			{
				"type": "unocc",
				"energy": 0.01658,
				"method": "rhf"
			},
			{
				"type": "unocc",
				"energy": 0.06867,
				"method": "rhf"
			}
		],
		"cosmo_sigma_profile": { 
			"-0.025": 0.0,
			"-0.024": 0.0,
			"-0.023": 0.0,
			"-0.022": 0.0,
			"-0.021": 0.0,
			"-0.02": 0.0,
			"-0.019": 0.0,
			"-0.018": 0.0,
			"-0.017": 0.0,
			"-0.016": 0.0,
			"-0.015": 0.388236275841,
			"-0.014": 0.829417629218,
			"-0.013": 1.29918761631,
			"-0.012": 1.3201855482,
			"-0.011": 1.00310288544,
			"-0.01": 1.37852989338,
			"-0.009": 3.03337981525,
			"-0.008": 7.1081543352,
			"-0.007": 11.4371011743,
			"-0.006": 13.6103646902,
			"-0.005": 12.8186424387,
			"-0.004": 15.4302314385,
			"-0.003": 12.8345281869,
			"-0.002": 14.9642118403,
			"-0.001": 15.9593914024,
			"0.0": 15.0223711712,
			"0.001": 16.3881997405,
			"0.002": 17.102923083,
			"0.003": 15.6577395739,
			"0.004": 17.2390710239,
			"0.005": 5.68569059857,
			"0.006": 2.50669839244,
			"0.007": 2.65348946763,
			"0.008": 2.93946865347,
			"0.009": 3.28074064089,
			"0.01": 3.96009611982,
			"0.011": 5.68933579515,
			"0.012": 7.58538114357,
			"0.013": 3.84419060967,
			"0.014": 0.23214245546,
			"0.015": 0.0,
			"0.016": 0.0,
			"0.017": 0.0,
			"0.018": 0.0,
			"0.019": 0.0,
			"0.02": 0.0,
			"0.021": 0.0,
			"0.022": 0.0,
			"0.023": 0.0,
			"0.024": 0.0,
			"0.025": 0.0
		}
	}
}
