{
	 "smiles": "CC(=O)N(C(C)=O)C1=CC=C(C=C1C)N=NC1=CC=CC=C1C", 
	 "Tm": 348.15, 
	 "num_atms": 42, 
	 "gaussian": { 
		 "optdone": 1, 
		 "sigma_profile": "yes", 
		 "theory": "DFT", 
		 "functional": "B3LYP", 
		 "basiset": "6-31G**", 
		 "properties": { 
			 "R2extent": 11495.1415, 
			 "electric_dipole_moment_norm": 2.86183447984, 
			 "electric_quadrupole_moment_norm": 10.8364343416, 
			 "total_energy": -1012.06430329, 
			 "HOMO_LUMO_gap": 0.14049, 
			 "cosmo_polarized_energy": -14.26, 
			 "cosmo_cavitation_energy": 46.29, 
			 "cosmo_dispersion_energy": -31.53, 
			 "cosmo_repulsion_energy": 2.39, 
			 "cosmo_total_nonelectrostatic_energy": 17.15, 
			 "SMD_solvation_energy": 8.71 
		},
		"coords": [
			{
				"x": 0.3740500068,
				"y": 1.1744870023,
				"z": 4.1970714209,
				"element": "C" 
			},
			{
				"x": -0.6010845055,
				"y": 2.3171320302,
				"z": 3.9740264243,
				"element": "C" 
			},
			{
				"x": -0.9908937496,
				"y": 3.0047390961,
				"z": 4.9006309537,
				"element": "O" 
			},
			{
				"x": -1.015199334,
				"y": 2.533842347,
				"z": 2.6401268924,
				"element": "N" 
			},
			{
				"x": -1.877253318,
				"y": 3.590837092,
				"z": 2.2117144938,
				"element": "C" 
			},
			{
				"x": -2.4652720294,
				"y": 4.5395378374,
				"z": 3.2279443414,
				"element": "C" 
			},
			{
				"x": -2.1131570345,
				"y": 3.6955297467,
				"z": 1.0225255417,
				"element": "O" 
			},
			{
				"x": -0.5618412097,
				"y": 1.6458332808,
				"z": 1.5886486157,
				"element": "C" 
			},
			{
				"x": -1.237520821,
				"y": 0.4339310329,
				"z": 1.400368943,
				"element": "C" 
			},
			{
				"x": -0.8302779621,
				"y": -0.4628128725,
				"z": 0.4231035905,
				"element": "C" 
			},
			{
				"x": 0.2699735717,
				"y": -0.1365089215,
				"z": -0.385182057,
				"element": "C" 
			},
			{
				"x": 0.928508052,
				"y": 1.0854995742,
				"z": -0.2005192478,
				"element": "C" 
			},
			{
				"x": 0.529932163,
				"y": 1.9998502362,
				"z": 0.778354513,
				"element": "C" 
			},
			{
				"x": 1.2337742691,
				"y": 3.3245848403,
				"z": 0.9316610791,
				"element": "C" 
			},
			{
				"x": 0.794282416,
				"y": -0.9578711807,
				"z": -1.4152021826,
				"element": "N" 
			},
			{
				"x": 0.2022468039,
				"y": -2.0617116938,
				"z": -1.5622765174,
				"element": "N" 
			},
			{
				"x": 0.714640759,
				"y": -2.8889567919,
				"z": -2.5911210568,
				"element": "C" 
			},
			{
				"x": 1.7981807842,
				"y": -2.5262392163,
				"z": -3.4105422554,
				"element": "C" 
			},
			{
				"x": 2.2462893064,
				"y": -3.3896387848,
				"z": -4.4010050063,
				"element": "C" 
			},
			{
				"x": 1.6138240717,
				"y": -4.624686492,
				"z": -4.5810580627,
				"element": "C" 
			},
			{
				"x": 0.5387417891,
				"y": -4.9847508401,
				"z": -3.7689734935,
				"element": "C" 
			},
			{
				"x": 0.0666785722,
				"y": -4.1333679138,
				"z": -2.7632081779,
				"element": "C" 
			},
			{
				"x": -1.0991509828,
				"y": -4.5411467526,
				"z": -1.8952730964,
				"element": "C" 
			},
			{
				"x": -0.0914773972,
				"y": 0.208541521,
				"z": 3.9821433902,
				"element": "H" 
			},
			{
				"x": 1.2530872887,
				"y": 1.2563346127,
				"z": 3.5520565808,
				"element": "H" 
			},
			{
				"x": 0.6751247861,
				"y": 1.2067881944,
				"z": 5.2439466213,
				"element": "H" 
			},
			{
				"x": -1.6846041691,
				"y": 5.0730002462,
				"z": 3.7740528406,
				"element": "H" 
			},
			{
				"x": -3.0499395772,
				"y": 4.0072347743,
				"z": 3.9807406086,
				"element": "H" 
			},
			{
				"x": -3.0933289794,
				"y": 5.2387322835,
				"z": 2.674539947,
				"element": "H" 
			},
			{
				"x": -2.0928732826,
				"y": 0.2086006591,
				"z": 2.0309161544,
				"element": "H" 
			},
			{
				"x": -1.3428845108,
				"y": -1.4042989937,
				"z": 0.267206749,
				"element": "H" 
			},
			{
				"x": 1.7688903508,
				"y": 1.3095437077,
				"z": -0.8506027587,
				"element": "H" 
			},
			{
				"x": 1.5271553719,
				"y": 3.5168704518,
				"z": 1.9692312997,
				"element": "H" 
			},
			{
				"x": 2.1334702502,
				"y": 3.3608836753,
				"z": 0.3129323715,
				"element": "H" 
			},
			{
				"x": 0.5738111453,
				"y": 4.1424274002,
				"z": 0.6233940165,
				"element": "H" 
			},
			{
				"x": 2.2656873022,
				"y": -1.5622747307,
				"z": -3.2460233113,
				"element": "H" 
			},
			{
				"x": 3.0831945565,
				"y": -3.1062174503,
				"z": -5.0326079475,
				"element": "H" 
			},
			{
				"x": 1.9581769455,
				"y": -5.3058017341,
				"z": -5.3541503702,
				"element": "H" 
			},
			{
				"x": 0.0524913041,
				"y": -5.9455588249,
				"z": -3.9155674006,
				"element": "H" 
			},
			{
				"x": -1.9288152869,
				"y": -3.832922745,
				"z": -1.9815064507,
				"element": "H" 
			},
			{
				"x": -0.8202796634,
				"y": -4.5691305258,
				"z": -0.8375124202,
				"element": "H" 
			},
			{
				"x": -1.4624580529,
				"y": -5.5320651775,
				"z": -2.1808055758,
				"element": "H" 
			}
		],
		 "valence_orbital": [ 
			{
				"type": "occ",
				"energy": -0.25985,
				"method": "rhf"
			},
			{
				"type": "occ",
				"energy": -0.25751,
				"method": "rhf"
			},
			{
				"type": "occ",
				"energy": -0.25031,
				"method": "rhf"
			},
			{
				"type": "occ",
				"energy": -0.22873,
				"method": "rhf"
			},
			{
				"type": "occ",
				"energy": -0.22828,
				"method": "rhf"
			},
			{
				"type": "unocc",
				"energy": -0.08779,
				"method": "rhf"
			},
			{
				"type": "unocc",
				"energy": -0.02393,
				"method": "rhf"
			},
			{
				"type": "unocc",
				"energy": -0.01277,
				"method": "rhf"
			},
			{
				"type": "unocc",
				"energy": -0.00403,
				"method": "rhf"
			},
			{
				"type": "unocc",
				"energy": -0.00052,
				"method": "rhf"
			}
		],
		"cosmo_sigma_profile": { 
			"-0.025": 0.0,
			"-0.024": 0.0,
			"-0.023": 0.0,
			"-0.022": 0.0,
			"-0.021": 0.0,
			"-0.02": 0.0,
			"-0.019": 0.0,
			"-0.018": 0.0,
			"-0.017": 0.0,
			"-0.016": 0.0,
			"-0.015": 0.0,
			"-0.014": 0.0,
			"-0.013": 0.0,
			"-0.012": 0.0,
			"-0.011": 0.0,
			"-0.01": 0.0,
			"-0.009": 0.0,
			"-0.008": 0.364504504757,
			"-0.007": 4.8663054103,
			"-0.006": 16.5746274249,
			"-0.005": 31.2046160504,
			"-0.004": 35.9098839982,
			"-0.003": 31.8985572448,
			"-0.002": 35.5338412134,
			"-0.001": 32.4145939954,
			"0.0": 29.9640931328,
			"0.001": 26.8315864948,
			"0.002": 28.9979738154,
			"0.003": 24.9199981691,
			"0.004": 19.9891719331,
			"0.005": 12.4035720409,
			"0.006": 5.75628830707,
			"0.007": 5.33303473514,
			"0.008": 3.4391024483,
			"0.009": 3.76504470354,
			"0.01": 3.46593422959,
			"0.011": 4.98373008129,
			"0.012": 7.00199259334,
			"0.013": 2.29616390427,
			"0.014": 0.038012673352,
			"0.015": 0.0,
			"0.016": 0.0,
			"0.017": 0.0,
			"0.018": 0.0,
			"0.019": 0.0,
			"0.02": 0.0,
			"0.021": 0.0,
			"0.022": 0.0,
			"0.023": 0.0,
			"0.024": 0.0,
			"0.025": 0.0
		}
	}
}
