{
	 "smiles": "CCOC(=O)C1=NN(C(=O)C1CC1C(=O)N(N=C1C(=O)OCC)C1=CC=CC=C1)C1=CC=CC=C1", 
	 "Tm": 452.15, 
	 "num_atms": 59, 
	 "gaussian": { 
		 "optdone": 1, 
		 "sigma_profile": "yes", 
		 "theory": "DFT", 
		 "functional": "B3LYP", 
		 "basiset": "6-31G**", 
		 "properties": { 
			 "R2extent": 21353.8375, 
			 "electric_dipole_moment_norm": 3.18569158112, 
			 "electric_quadrupole_moment_norm": 12.8330253483, 
			 "total_energy": -1637.46696779, 
			 "HOMO_LUMO_gap": 0.14718, 
			 "cosmo_polarized_energy": -19.15, 
			 "cosmo_cavitation_energy": 64.17, 
			 "cosmo_dispersion_energy": -43.79, 
			 "cosmo_repulsion_energy": 3.32, 
			 "cosmo_total_nonelectrostatic_energy": 23.7, 
			 "SMD_solvation_energy": 12.63 
		},
		"coords": [
			{
				"x": -2.2596551273,
				"y": 2.8867134276,
				"z": 4.4285814181,
				"element": "C" 
			},
			{
				"x": -0.9918062166,
				"y": 3.5927348103,
				"z": 3.9733597907,
				"element": "C" 
			},
			{
				"x": 0.0573910352,
				"y": 2.6397895023,
				"z": 3.6628034887,
				"element": "O" 
			},
			{
				"x": 0.0482910542,
				"y": 2.1201129491,
				"z": 2.428827644,
				"element": "C" 
			},
			{
				"x": -0.7652314071,
				"y": 2.4058659037,
				"z": 1.5639971249,
				"element": "O" 
			},
			{
				"x": 1.1472669103,
				"y": 1.1505226025,
				"z": 2.2021202839,
				"element": "C" 
			},
			{
				"x": 2.0160573001,
				"y": 0.9005259186,
				"z": 3.1282723573,
				"element": "N" 
			},
			{
				"x": 2.9353806343,
				"y": -0.0021425308,
				"z": 2.6516847439,
				"element": "N" 
			},
			{
				"x": 2.6583414645,
				"y": -0.3903685953,
				"z": 1.32979643,
				"element": "C" 
			},
			{
				"x": 3.2601742436,
				"y": -1.2111654059,
				"z": 0.6661497851,
				"element": "O" 
			},
			{
				"x": 1.4294391407,
				"y": 0.4215368966,
				"z": 0.9178024754,
				"element": "C" 
			},
			{
				"x": 0.3415370505,
				"y": -0.4982949574,
				"z": 0.3146312245,
				"element": "C" 
			},
			{
				"x": -0.6351988677,
				"y": 0.2264176222,
				"z": -0.6395331075,
				"element": "C" 
			},
			{
				"x": 0.0349918478,
				"y": 0.7713684612,
				"z": -1.8961025511,
				"element": "C" 
			},
			{
				"x": 0.9985258838,
				"y": 1.5148164676,
				"z": -1.9716868008,
				"element": "O" 
			},
			{
				"x": -0.6882676405,
				"y": 0.2266689931,
				"z": -2.9699968688,
				"element": "N" 
			},
			{
				"x": -1.7056570911,
				"y": -0.5992181385,
				"z": -2.5444757064,
				"element": "N" 
			},
			{
				"x": -1.6977931181,
				"y": -0.6350223547,
				"z": -1.252142282,
				"element": "C" 
			},
			{
				"x": -2.6835196357,
				"y": -1.4224773513,
				"z": -0.4735802805,
				"element": "C" 
			},
			{
				"x": -2.6775342691,
				"y": -1.4356091922,
				"z": 0.7459694487,
				"element": "O" 
			},
			{
				"x": -3.5521872933,
				"y": -2.0901690504,
				"z": -1.2465962686,
				"element": "O" 
			},
			{
				"x": -4.5467013382,
				"y": -2.8905506688,
				"z": -0.5583896839,
				"element": "C" 
			},
			{
				"x": -4.0057751177,
				"y": -4.2713758164,
				"z": -0.2205757149,
				"element": "C" 
			},
			{
				"x": -0.4945997277,
				"y": 0.4111826313,
				"z": -4.3697601551,
				"element": "C" 
			},
			{
				"x": 0.5378555996,
				"y": 1.2302477508,
				"z": -4.8492775743,
				"element": "C" 
			},
			{
				"x": 0.6964965136,
				"y": 1.3886744883,
				"z": -6.2262376222,
				"element": "C" 
			},
			{
				"x": -0.1531708915,
				"y": 0.7468703384,
				"z": -7.1268588758,
				"element": "C" 
			},
			{
				"x": -1.1772945391,
				"y": -0.0659925524,
				"z": -6.6371612205,
				"element": "C" 
			},
			{
				"x": -1.3547759457,
				"y": -0.2387771903,
				"z": -5.2667159385,
				"element": "C" 
			},
			{
				"x": 3.9806134697,
				"y": -0.4415469274,
				"z": 3.5146761671,
				"element": "C" 
			},
			{
				"x": 4.0316773413,
				"y": 0.0493079749,
				"z": 4.827278067,
				"element": "C" 
			},
			{
				"x": 5.0509627436,
				"y": -0.3702068246,
				"z": 5.6785177864,
				"element": "C" 
			},
			{
				"x": 6.0208287574,
				"y": -1.2733945032,
				"z": 5.2390099441,
				"element": "C" 
			},
			{
				"x": 5.9605833593,
				"y": -1.7550880519,
				"z": 3.9315397033,
				"element": "C" 
			},
			{
				"x": 4.9491283055,
				"y": -1.3485018505,
				"z": 3.0609488818,
				"element": "C" 
			},
			{
				"x": -2.0566957988,
				"y": 2.2347473651,
				"z": 5.2829373213,
				"element": "H" 
			},
			{
				"x": -3.0057461789,
				"y": 3.6289046348,
				"z": 4.7312247113,
				"element": "H" 
			},
			{
				"x": -2.6816977943,
				"y": 2.2878678548,
				"z": 3.6178968661,
				"element": "H" 
			},
			{
				"x": -1.1757493106,
				"y": 4.2136755501,
				"z": 3.093655193,
				"element": "H" 
			},
			{
				"x": -0.5642358765,
				"y": 4.2059104631,
				"z": 4.7694568907,
				"element": "H" 
			},
			{
				"x": 1.7465874328,
				"y": 1.1310086556,
				"z": 0.1389071478,
				"element": "H" 
			},
			{
				"x": -0.2464462457,
				"y": -0.9701771975,
				"z": 1.1052863071,
				"element": "H" 
			},
			{
				"x": 0.8665342345,
				"y": -1.2902568869,
				"z": -0.2307430721,
				"element": "H" 
			},
			{
				"x": -1.0809590718,
				"y": 1.0679120187,
				"z": -0.091977781,
				"element": "H" 
			},
			{
				"x": -5.3779478908,
				"y": -2.9459132767,
				"z": -1.2645626033,
				"element": "H" 
			},
			{
				"x": -4.8665944497,
				"y": -2.3587029985,
				"z": 0.3406977624,
				"element": "H" 
			},
			{
				"x": -3.1875297482,
				"y": -4.2000308851,
				"z": 0.5001469695,
				"element": "H" 
			},
			{
				"x": -3.6445046558,
				"y": -4.7786321747,
				"z": -1.1196952559,
				"element": "H" 
			},
			{
				"x": -4.8004141701,
				"y": -4.8805436297,
				"z": 0.2227610983,
				"element": "H" 
			},
			{
				"x": 1.1990136123,
				"y": 1.7282860204,
				"z": -4.1547176554,
				"element": "H" 
			},
			{
				"x": 1.4982394302,
				"y": 2.0238558646,
				"z": -6.5915718096,
				"element": "H" 
			},
			{
				"x": -0.019876345,
				"y": 0.8774505974,
				"z": -8.1964818127,
				"element": "H" 
			},
			{
				"x": -1.8479853252,
				"y": -0.573192998,
				"z": -7.324726088,
				"element": "H" 
			},
			{
				"x": -2.147676676,
				"y": -0.8680764586,
				"z": -4.8839240816,
				"element": "H" 
			},
			{
				"x": 3.2788185615,
				"y": 0.7501576956,
				"z": 5.1640516706,
				"element": "H" 
			},
			{
				"x": 5.0836031415,
				"y": 0.0149759645,
				"z": 6.6935998532,
				"element": "H" 
			},
			{
				"x": 6.8128889099,
				"y": -1.5966804923,
				"z": 5.9076205744,
				"element": "H" 
			},
			{
				"x": 6.7078954403,
				"y": -2.4579609315,
				"z": 3.5748618343,
				"element": "H" 
			},
			{
				"x": 4.9037043457,
				"y": -1.7254395316,
				"z": 2.049119846,
				"element": "H" 
			}
		],
		 "valence_orbital": [ 
			{
				"type": "occ",
				"energy": -0.26456,
				"method": "rhf"
			},
			{
				"type": "occ",
				"energy": -0.25185,
				"method": "rhf"
			},
			{
				"type": "occ",
				"energy": -0.25138,
				"method": "rhf"
			},
			{
				"type": "occ",
				"energy": -0.22292,
				"method": "rhf"
			},
			{
				"type": "occ",
				"energy": -0.22251,
				"method": "rhf"
			},
			{
				"type": "unocc",
				"energy": -0.07533,
				"method": "rhf"
			},
			{
				"type": "unocc",
				"energy": -0.0726,
				"method": "rhf"
			},
			{
				"type": "unocc",
				"energy": -0.02385,
				"method": "rhf"
			},
			{
				"type": "unocc",
				"energy": -0.0213,
				"method": "rhf"
			},
			{
				"type": "unocc",
				"energy": -0.00151,
				"method": "rhf"
			}
		],
		"cosmo_sigma_profile": { 
			"-0.025": 0.0,
			"-0.024": 0.0,
			"-0.023": 0.0,
			"-0.022": 0.0,
			"-0.021": 0.0,
			"-0.02": 0.0,
			"-0.019": 0.0,
			"-0.018": 0.0,
			"-0.017": 0.0,
			"-0.016": 0.0,
			"-0.015": 0.0,
			"-0.014": 0.0,
			"-0.013": 0.0,
			"-0.012": 0.0,
			"-0.011": 0.0,
			"-0.01": 0.0452019264925,
			"-0.009": 2.31884971458,
			"-0.008": 4.70559539177,
			"-0.007": 6.98509310058,
			"-0.006": 25.4064429199,
			"-0.005": 38.4146639278,
			"-0.004": 53.7109870757,
			"-0.003": 48.7806331961,
			"-0.002": 42.0653564842,
			"-0.001": 39.1241168659,
			"0.0": 40.0974800812,
			"0.001": 33.9944739377,
			"0.002": 32.1575710836,
			"0.003": 29.3915984183,
			"0.004": 31.2762185082,
			"0.005": 27.7621171218,
			"0.006": 8.89718358523,
			"0.007": 8.05662375471,
			"0.008": 9.12241157121,
			"0.009": 9.98967145446,
			"0.01": 10.5048104748,
			"0.011": 8.59567265889,
			"0.012": 1.64833391799,
			"0.013": 0.0,
			"0.014": 0.0,
			"0.015": 0.0,
			"0.016": 0.0,
			"0.017": 0.0,
			"0.018": 0.0,
			"0.019": 0.0,
			"0.02": 0.0,
			"0.021": 0.0,
			"0.022": 0.0,
			"0.023": 0.0,
			"0.024": 0.0,
			"0.025": 0.0
		}
	}
}
