{
	 "smiles": "CC(=O)NC1=CC(CCNC(=O)C2=CC=CC=C2)=C(NC(C)=O)C=C1CCNC(=O)C1=CC=CC=C1", 
	 "Tm": 558.15, 
	 "num_atms": 66, 
	 "gaussian": { 
		 "optdone": 1, 
		 "sigma_profile": "yes", 
		 "theory": "DFT", 
		 "functional": "B3LYP", 
		 "basiset": "6-31G**", 
		 "properties": { 
			 "R2extent": 21583.0335, 
			 "electric_dipole_moment_norm": 6.39141739053, 
			 "electric_quadrupole_moment_norm": 15.1468118193, 
			 "total_energy": -1605.06487421, 
			 "HOMO_LUMO_gap": 0.14834, 
			 "cosmo_polarized_energy": -32.93, 
			 "cosmo_cavitation_energy": 69.04, 
			 "cosmo_dispersion_energy": -43.47, 
			 "cosmo_repulsion_energy": 3.27, 
			 "cosmo_total_nonelectrostatic_energy": 28.84, 
			 "SMD_solvation_energy": 12.84 
		},
		"coords": [
			{
				"x": -1.8135964861,
				"y": -5.1199688471,
				"z": 3.0599722818,
				"element": "C" 
			},
			{
				"x": -1.8147688108,
				"y": -4.448755562,
				"z": 1.6923602068,
				"element": "C" 
			},
			{
				"x": -2.7533842132,
				"y": -4.5695282177,
				"z": 0.9151078403,
				"element": "O" 
			},
			{
				"x": -0.6936730476,
				"y": -3.6840262603,
				"z": 1.4475555891,
				"element": "N" 
			},
			{
				"x": -0.3665201959,
				"y": -2.9152021549,
				"z": 0.3030077886,
				"element": "C" 
			},
			{
				"x": -1.2989343453,
				"y": -2.6705094109,
				"z": -0.7133166353,
				"element": "C" 
			},
			{
				"x": -0.9870109031,
				"y": -1.9010749216,
				"z": -1.8366208987,
				"element": "C" 
			},
			{
				"x": -2.0452079328,
				"y": -1.7348547175,
				"z": -2.9088914174,
				"element": "C" 
			},
			{
				"x": -3.172994358,
				"y": -0.7305803079,
				"z": -2.5782142419,
				"element": "C" 
			},
			{
				"x": -2.7530404939,
				"y": 0.5982021836,
				"z": -2.1358754443,
				"element": "N" 
			},
			{
				"x": -2.0936018496,
				"y": 1.4819167844,
				"z": -2.9302249647,
				"element": "C" 
			},
			{
				"x": -1.6703460542,
				"y": 1.160206337,
				"z": -4.0496007542,
				"element": "O" 
			},
			{
				"x": -1.8896739144,
				"y": 2.8624525054,
				"z": -2.3774651011,
				"element": "C" 
			},
			{
				"x": -0.8476133904,
				"y": 3.6324187089,
				"z": -2.9115618892,
				"element": "C" 
			},
			{
				"x": -0.6078315748,
				"y": 4.9198972777,
				"z": -2.4374880798,
				"element": "C" 
			},
			{
				"x": -1.416873515,
				"y": 5.4587815783,
				"z": -1.4339151552,
				"element": "C" 
			},
			{
				"x": -2.4712924164,
				"y": 4.7073763159,
				"z": -0.9114305771,
				"element": "C" 
			},
			{
				"x": -2.7078097897,
				"y": 3.4156844336,
				"z": -1.380915852,
				"element": "C" 
			},
			{
				"x": 0.3024825881,
				"y": -1.3343091914,
				"z": -1.9408016409,
				"element": "C" 
			},
			{
				"x": 0.6149007179,
				"y": -0.5183384823,
				"z": -3.0510929714,
				"element": "N" 
			},
			{
				"x": 1.8573691174,
				"y": -0.1170499046,
				"z": -3.4915297431,
				"element": "C" 
			},
			{
				"x": 1.8178384551,
				"y": 0.732476652,
				"z": -4.7550369714,
				"element": "C" 
			},
			{
				"x": 2.917362679,
				"y": -0.4142391157,
				"z": -2.9535035887,
				"element": "O" 
			},
			{
				"x": 1.2443208233,
				"y": -1.6085265305,
				"z": -0.9383555844,
				"element": "C" 
			},
			{
				"x": 0.9417691618,
				"y": -2.3955371645,
				"z": 0.1748095125,
				"element": "C" 
			},
			{
				"x": 2.043675379,
				"y": -2.6557037769,
				"z": 1.187923456,
				"element": "C" 
			},
			{
				"x": 2.1465304519,
				"y": -1.6048347848,
				"z": 2.3109152122,
				"element": "C" 
			},
			{
				"x": 0.9353501279,
				"y": -1.515242504,
				"z": 3.1209928498,
				"element": "N" 
			},
			{
				"x": 0.9639997287,
				"y": -1.6281722771,
				"z": 4.4923496685,
				"element": "C" 
			},
			{
				"x": 1.9834559532,
				"y": -1.9251507903,
				"z": 5.1077450408,
				"element": "O" 
			},
			{
				"x": -0.3396748055,
				"y": -1.3833739297,
				"z": 5.2043526005,
				"element": "C" 
			},
			{
				"x": -0.2753815425,
				"y": -1.1257052435,
				"z": 6.5803088795,
				"element": "C" 
			},
			{
				"x": -1.4385145964,
				"y": -0.8898501856,
				"z": 7.3095943212,
				"element": "C" 
			},
			{
				"x": -2.6826730011,
				"y": -0.9225282308,
				"z": 6.6745085435,
				"element": "C" 
			},
			{
				"x": -2.7580925834,
				"y": -1.1960339674,
				"z": 5.3074167253,
				"element": "C" 
			},
			{
				"x": -1.5927431352,
				"y": -1.4243376358,
				"z": 4.5741269979,
				"element": "C" 
			},
			{
				"x": -2.2434107493,
				"y": -4.4421599946,
				"z": 3.8059982561,
				"element": "H" 
			},
			{
				"x": -0.8118278071,
				"y": -5.4017840212,
				"z": 3.3976044345,
				"element": "H" 
			},
			{
				"x": -2.442379217,
				"y": -6.0092075905,
				"z": 3.0054905918,
				"element": "H" 
			},
			{
				"x": -0.0227053933,
				"y": -3.6349401687,
				"z": 2.2003018751,
				"element": "H" 
			},
			{
				"x": -2.2773212548,
				"y": -3.1249289215,
				"z": -0.6280591401,
				"element": "H" 
			},
			{
				"x": -2.5374683337,
				"y": -2.7016297804,
				"z": -3.0684276164,
				"element": "H" 
			},
			{
				"x": -1.6006736487,
				"y": -1.4608889722,
				"z": -3.8666873244,
				"element": "H" 
			},
			{
				"x": -3.8074897549,
				"y": -0.6190398486,
				"z": -3.4646115126,
				"element": "H" 
			},
			{
				"x": -3.7953771334,
				"y": -1.1349401867,
				"z": -1.7753161673,
				"element": "H" 
			},
			{
				"x": -2.914839519,
				"y": 0.8484182569,
				"z": -1.1734343475,
				"element": "H" 
			},
			{
				"x": -0.2372876013,
				"y": 3.2036797599,
				"z": -3.6984534886,
				"element": "H" 
			},
			{
				"x": 0.2082697651,
				"y": 5.504809232,
				"z": -2.8511557198,
				"element": "H" 
			},
			{
				"x": -1.2320966383,
				"y": 6.464041634,
				"z": -1.066571796,
				"element": "H" 
			},
			{
				"x": -3.1156318705,
				"y": 5.1299329889,
				"z": -0.1462069328,
				"element": "H" 
			},
			{
				"x": -3.5561683816,
				"y": 2.8588202222,
				"z": -0.9928612775,
				"element": "H" 
			},
			{
				"x": -0.1730716187,
				"y": -0.1344109912,
				"z": -3.563063581,
				"element": "H" 
			},
			{
				"x": 2.4963390793,
				"y": 1.5789897471,
				"z": -4.6245489191,
				"element": "H" 
			},
			{
				"x": 0.8183896167,
				"y": 1.0934139564,
				"z": -5.0096965625,
				"element": "H" 
			},
			{
				"x": 2.2012372179,
				"y": 0.1362329817,
				"z": -5.5896057613,
				"element": "H" 
			},
			{
				"x": 2.2451388426,
				"y": -1.2161097441,
				"z": -1.0597334016,
				"element": "H" 
			},
			{
				"x": 3.0026995992,
				"y": -2.6621400825,
				"z": 0.6589252465,
				"element": "H" 
			},
			{
				"x": 1.9433537071,
				"y": -3.6507342303,
				"z": 1.638635844,
				"element": "H" 
			},
			{
				"x": 2.3662227199,
				"y": -0.6240830621,
				"z": 1.8709309631,
				"element": "H" 
			},
			{
				"x": 2.9578385866,
				"y": -1.8582444644,
				"z": 2.9960349765,
				"element": "H" 
			},
			{
				"x": 0.1403616755,
				"y": -1.0545766511,
				"z": 2.7028245758,
				"element": "H" 
			},
			{
				"x": 0.7002828472,
				"y": -1.1192351415,
				"z": 7.0540358283,
				"element": "H" 
			},
			{
				"x": -1.3764772487,
				"y": -0.6837073645,
				"z": 8.3741484542,
				"element": "H" 
			},
			{
				"x": -3.5903071382,
				"y": -0.7428773233,
				"z": 7.2435075914,
				"element": "H" 
			},
			{
				"x": -3.7237140374,
				"y": -1.238731096,
				"z": 4.8119686036,
				"element": "H" 
			},
			{
				"x": -1.6750885391,
				"y": -1.6673478055,
				"z": 3.5184203042,
				"element": "H" 
			}
		],
		 "valence_orbital": [ 
			{
				"type": "occ",
				"energy": -0.25451,
				"method": "rhf"
			},
			{
				"type": "occ",
				"energy": -0.25214,
				"method": "rhf"
			},
			{
				"type": "occ",
				"energy": -0.24082,
				"method": "rhf"
			},
			{
				"type": "occ",
				"energy": -0.2369,
				"method": "rhf"
			},
			{
				"type": "occ",
				"energy": -0.19923,
				"method": "rhf"
			},
			{
				"type": "unocc",
				"energy": -0.05089,
				"method": "rhf"
			},
			{
				"type": "unocc",
				"energy": -0.04363,
				"method": "rhf"
			},
			{
				"type": "unocc",
				"energy": -0.02023,
				"method": "rhf"
			},
			{
				"type": "unocc",
				"energy": -0.01653,
				"method": "rhf"
			},
			{
				"type": "unocc",
				"energy": -0.01452,
				"method": "rhf"
			}
		],
		"cosmo_sigma_profile": { 
			"-0.025": 0.0,
			"-0.024": 0.0,
			"-0.023": 0.0,
			"-0.022": 0.0,
			"-0.021": 0.0,
			"-0.02": 0.0,
			"-0.019": 0.0,
			"-0.018": 0.0,
			"-0.017": 0.0,
			"-0.016": 0.0,
			"-0.015": 0.42286304438,
			"-0.014": 0.981922468981,
			"-0.013": 1.88689344903,
			"-0.012": 3.18889286148,
			"-0.011": 2.67875688386,
			"-0.01": 3.40956303086,
			"-0.009": 4.5416808742,
			"-0.008": 4.76647416336,
			"-0.007": 8.3587692721,
			"-0.006": 23.9772287647,
			"-0.005": 43.2109831004,
			"-0.004": 54.88608438,
			"-0.003": 48.8413612944,
			"-0.002": 50.5523746298,
			"-0.001": 47.4605672655,
			"0.0": 32.4920407376,
			"0.001": 29.72567524,
			"0.002": 29.1155356049,
			"0.003": 31.4106522517,
			"0.004": 37.6234908107,
			"0.005": 21.5597341808,
			"0.006": 7.18096649208,
			"0.007": 7.63571701132,
			"0.008": 5.57841388352,
			"0.009": 4.898416227,
			"0.01": 6.37803174001,
			"0.011": 6.67564055518,
			"0.012": 7.97406874958,
			"0.013": 12.5237541312,
			"0.014": 8.0939650451,
			"0.015": 1.10274374219,
			"0.016": 0.0,
			"0.017": 0.0,
			"0.018": 0.0,
			"0.019": 0.0,
			"0.02": 0.0,
			"0.021": 0.0,
			"0.022": 0.0,
			"0.023": 0.0,
			"0.024": 0.0,
			"0.025": 0.0
		}
	}
}
