{
	 "smiles": "CC(=O)NC1=CC(=C(C=C1)[N+]([O-])=O)C(F)(F)F", 
	 "Tm": 381.15, 
	 "num_atms": 24, 
	 "gaussian": { 
		 "optdone": 1, 
		 "sigma_profile": "yes", 
		 "theory": "DFT", 
		 "functional": "B3LYP", 
		 "basiset": "6-31G**", 
		 "properties": { 
			 "R2extent": 4565.1257, 
			 "electric_dipole_moment_norm": 8.5585720573, 
			 "electric_quadrupole_moment_norm": 15.4833806909, 
			 "total_energy": -981.787778341, 
			 "HOMO_LUMO_gap": 0.16521, 
			 "cosmo_polarized_energy": -19.15, 
			 "cosmo_cavitation_energy": 30.71, 
			 "cosmo_dispersion_energy": -21.84, 
			 "cosmo_repulsion_energy": 1.63, 
			 "cosmo_total_nonelectrostatic_energy": 10.49, 
			 "SMD_solvation_energy": 9.21 
		},
		"coords": [
			{
				"x": 3.0130253655,
				"y": 4.069456492,
				"z": -0.5316753161,
				"element": "C" 
			},
			{
				"x": 2.0444969137,
				"y": 2.9969845653,
				"z": -0.0613592328,
				"element": "C" 
			},
			{
				"x": 1.8822401071,
				"y": 2.7267002609,
				"z": 1.1158038276,
				"element": "O" 
			},
			{
				"x": 1.3904688761,
				"y": 2.3390675862,
				"z": -1.09660818,
				"element": "N" 
			},
			{
				"x": 0.4842314185,
				"y": 1.2743926373,
				"z": -1.0264642931,
				"element": "C" 
			},
			{
				"x": 0.0554166501,
				"y": 0.7124293525,
				"z": 0.1887438449,
				"element": "C" 
			},
			{
				"x": -0.8371671407,
				"y": -0.3584125339,
				"z": 0.2087298264,
				"element": "C" 
			},
			{
				"x": -1.3184565937,
				"y": -0.8623393813,
				"z": -1.0130218599,
				"element": "C" 
			},
			{
				"x": -0.9233734126,
				"y": -0.2868031801,
				"z": -2.2199766663,
				"element": "C" 
			},
			{
				"x": -0.022855749,
				"y": 0.7655700749,
				"z": -2.2321947861,
				"element": "C" 
			},
			{
				"x": -2.2242747139,
				"y": -2.0168928529,
				"z": -1.1170394208,
				"element": "N" 
			},
			{
				"x": -2.9503763165,
				"y": -2.0683732981,
				"z": -2.1113316341,
				"element": "O" 
			},
			{
				"x": -2.1766020582,
				"y": -2.8690860347,
				"z": -0.2358850705,
				"element": "O" 
			},
			{
				"x": -1.265762154,
				"y": -0.8689523396,
				"z": 1.5792198265,
				"element": "C" 
			},
			{
				"x": -0.6743781687,
				"y": -2.0306326616,
				"z": 1.8984563158,
				"element": "F" 
			},
			{
				"x": -2.6000807603,
				"y": -1.0248626633,
				"z": 1.6566784895,
				"element": "F" 
			},
			{
				"x": -0.9226209282,
				"y": 0.0189837438,
				"z": 2.5410230898,
				"element": "F" 
			},
			{
				"x": 3.1577776546,
				"y": 4.781754349,
				"z": 0.2805836821,
				"element": "H" 
			},
			{
				"x": 3.9818643177,
				"y": 3.6128488231,
				"z": -0.7633238529,
				"element": "H" 
			},
			{
				"x": 2.6625200912,
				"y": 4.5986528611,
				"z": -1.4230976407,
				"element": "H" 
			},
			{
				"x": 1.6059473696,
				"y": 2.6566917816,
				"z": -2.031129077,
				"element": "H" 
			},
			{
				"x": 0.4188889977,
				"y": 1.1294437819,
				"z": 1.1149077195,
				"element": "H" 
			},
			{
				"x": -1.3312573363,
				"y": -0.6852962463,
				"z": -3.1401855915,
				"element": "H" 
			},
			{
				"x": 0.2883275703,
				"y": 1.1942748822,
				"z": -3.1811540001,
				"element": "H" 
			}
		],
		 "valence_orbital": [ 
			{
				"type": "occ",
				"energy": -0.3094,
				"method": "rhf"
			},
			{
				"type": "occ",
				"energy": -0.294,
				"method": "rhf"
			},
			{
				"type": "occ",
				"energy": -0.29251,
				"method": "rhf"
			},
			{
				"type": "occ",
				"energy": -0.28077,
				"method": "rhf"
			},
			{
				"type": "occ",
				"energy": -0.25673,
				"method": "rhf"
			},
			{
				"type": "unocc",
				"energy": -0.09152,
				"method": "rhf"
			},
			{
				"type": "unocc",
				"energy": -0.04521,
				"method": "rhf"
			},
			{
				"type": "unocc",
				"energy": -0.02785,
				"method": "rhf"
			},
			{
				"type": "unocc",
				"energy": 0.01523,
				"method": "rhf"
			},
			{
				"type": "unocc",
				"energy": 0.04179,
				"method": "rhf"
			}
		],
		"cosmo_sigma_profile": { 
			"-0.025": 0.0,
			"-0.024": 0.0,
			"-0.023": 0.0,
			"-0.022": 0.0,
			"-0.021": 0.0,
			"-0.02": 0.0,
			"-0.019": 0.0,
			"-0.018": 0.0,
			"-0.017": 0.264791467419,
			"-0.016": 1.15469031018,
			"-0.015": 1.64600495153,
			"-0.014": 1.66828145527,
			"-0.013": 1.94787568269,
			"-0.012": 1.30449252396,
			"-0.011": 1.41407472241,
			"-0.01": 1.87742882256,
			"-0.009": 3.17659514459,
			"-0.008": 4.68781533176,
			"-0.007": 7.49367374683,
			"-0.006": 8.90862173764,
			"-0.005": 10.9890630577,
			"-0.004": 11.924229372,
			"-0.003": 13.297471087,
			"-0.002": 17.6435443942,
			"-0.001": 25.3692982399,
			"0.0": 21.2885235276,
			"0.001": 16.2548103376,
			"0.002": 23.2752965073,
			"0.003": 17.2599509305,
			"0.004": 5.91048733655,
			"0.005": 5.76017853163,
			"0.006": 6.65581180032,
			"0.007": 10.7241076629,
			"0.008": 8.48100311187,
			"0.009": 6.13298255949,
			"0.01": 3.22428868867,
			"0.011": 2.30920648458,
			"0.012": 2.66958595017,
			"0.013": 1.53393883479,
			"0.014": 0.164355803351,
			"0.015": 0.0,
			"0.016": 0.0,
			"0.017": 0.0,
			"0.018": 0.0,
			"0.019": 0.0,
			"0.02": 0.0,
			"0.021": 0.0,
			"0.022": 0.0,
			"0.023": 0.0,
			"0.024": 0.0,
			"0.025": 0.0
		}
	}
}
