{
	 "smiles": "CCOC(=O)CC[C@H](C)[C@H]1CCC2C3C(C[C@H](OC(C)=O)[C@]12C)[C@@]1(C)CC[C@H](C[C@H]1[C@@H](Br)C3=O)OC(C)=O", 
	 "Tm": 406.15, 
	 "num_atms": 83, 
	 "gaussian": { 
		 "optdone": 1, 
		 "sigma_profile": "yes", 
		 "theory": "DFT", 
		 "functional": "B3LYP", 
		 "basiset": "6-31G**", 
		 "properties": { 
			 "R2extent": 25612.9279, 
			 "electric_dipole_moment_norm": 1.15393944382, 
			 "electric_quadrupole_moment_norm": 23.0296907878, 
			 "total_energy": -4268.35415038, 
			 "HOMO_LUMO_gap": 0.1967, 
			 "cosmo_polarized_energy": -21.34, 
			 "cosmo_cavitation_energy": 74.59, 
			 "cosmo_dispersion_energy": -46.54, 
			 "cosmo_repulsion_energy": 3.41, 
			 "cosmo_total_nonelectrostatic_energy": 31.46, 
			 "SMD_solvation_energy": 12.99 
		},
		"coords": [
			{
				"x": 0.2003801719,
				"y": 5.8921962274,
				"z": -1.2319855901,
				"element": "C" 
			},
			{
				"x": -1.1084247931,
				"y": 6.5269975921,
				"z": -0.7890718115,
				"element": "C" 
			},
			{
				"x": -1.4783128456,
				"y": 6.1128033451,
				"z": 0.5505511048,
				"element": "O" 
			},
			{
				"x": -2.1815507376,
				"y": 4.965580313,
				"z": 0.6648110868,
				"element": "C" 
			},
			{
				"x": -2.4647290315,
				"y": 4.2573067246,
				"z": -0.2826398546,
				"element": "O" 
			},
			{
				"x": -2.6183916679,
				"y": 4.7423779022,
				"z": 2.1010670514,
				"element": "C" 
			},
			{
				"x": -2.9508016333,
				"y": 3.2839196977,
				"z": 2.4606890381,
				"element": "C" 
			},
			{
				"x": -1.7902788667,
				"y": 2.3931092014,
				"z": 2.9766680671,
				"element": "C" 
			},
			{
				"x": -1.3244992343,
				"y": 2.8750834317,
				"z": 4.3636548875,
				"element": "C" 
			},
			{
				"x": -0.6484735381,
				"y": 2.2061935745,
				"z": 1.9307958007,
				"element": "C" 
			},
			{
				"x": 0.5808854479,
				"y": 3.1265293223,
				"z": 2.0408173184,
				"element": "C" 
			},
			{
				"x": 1.5432135356,
				"y": 2.5548828715,
				"z": 0.9920221848,
				"element": "C" 
			},
			{
				"x": 1.3362949892,
				"y": 1.0127323853,
				"z": 1.0190627179,
				"element": "C" 
			},
			{
				"x": 1.3365035402,
				"y": 0.3958032927,
				"z": -0.3968872692,
				"element": "C" 
			},
			{
				"x": 0.8429883975,
				"y": -1.0910288335,
				"z": -0.5326627998,
				"element": "C" 
			},
			{
				"x": -0.1572275478,
				"y": -1.4563760946,
				"z": 0.5897873214,
				"element": "C" 
			},
			{
				"x": -0.9360325434,
				"y": -0.2463529996,
				"z": 1.10629543,
				"element": "C" 
			},
			{
				"x": -1.5897994585,
				"y": 0.346909836,
				"z": -0.0515723598,
				"element": "O" 
			},
			{
				"x": -2.9432382596,
				"y": 0.4644906524,
				"z": -0.0420588728,
				"element": "C" 
			},
			{
				"x": -3.4290135028,
				"y": 1.1226618264,
				"z": -1.3078534396,
				"element": "C" 
			},
			{
				"x": -3.6479023402,
				"y": 0.1141327831,
				"z": 0.8814275559,
				"element": "O" 
			},
			{
				"x": -0.0097722676,
				"y": 0.7757270801,
				"z": 1.8153510326,
				"element": "C" 
			},
			{
				"x": 0.3346155754,
				"y": 0.195087308,
				"z": 3.2055149989,
				"element": "C" 
			},
			{
				"x": 1.9989166937,
				"y": -2.1297572078,
				"z": -0.6992761688,
				"element": "C" 
			},
			{
				"x": 2.964553978,
				"y": -2.1051033122,
				"z": 0.5086691513,
				"element": "C" 
			},
			{
				"x": 1.394603471,
				"y": -3.5576275949,
				"z": -0.8321623119,
				"element": "C" 
			},
			{
				"x": 2.3683787603,
				"y": -4.5582330911,
				"z": -1.4649215479,
				"element": "C" 
			},
			{
				"x": 2.7301942664,
				"y": -4.172499643,
				"z": -2.9131354032,
				"element": "C" 
			},
			{
				"x": 2.4549626993,
				"y": -2.6946119792,
				"z": -3.2017679433,
				"element": "C" 
			},
			{
				"x": 2.8302869394,
				"y": -1.8048545767,
				"z": -2.0048189383,
				"element": "C" 
			},
			{
				"x": 2.866183301,
				"y": -0.2966837566,
				"z": -2.3525561912,
				"element": "C" 
			},
			{
				"x": 1.5049782336,
				"y": 0.2989241334,
				"z": -3.710537687,
				"element": "Br" 
			},
			{
				"x": 2.6697756078,
				"y": 0.5626402723,
				"z": -1.1058255182,
				"element": "C" 
			},
			{
				"x": 3.5836673451,
				"y": 1.2687070096,
				"z": -0.7204082306,
				"element": "O" 
			},
			{
				"x": 1.9124676426,
				"y": -4.9066191027,
				"z": -3.86650253,
				"element": "O" 
			},
			{
				"x": 2.3344779805,
				"y": -6.1493205639,
				"z": -4.2023364583,
				"element": "C" 
			},
			{
				"x": 1.4043933046,
				"y": -6.772611027,
				"z": -5.2167981854,
				"element": "C" 
			},
			{
				"x": 3.3271821772,
				"y": -6.6738909173,
				"z": -3.7453309608,
				"element": "O" 
			},
			{
				"x": 1.0027023584,
				"y": 6.1131412857,
				"z": -0.5220796763,
				"element": "H" 
			},
			{
				"x": 0.092463256,
				"y": 4.8085671432,
				"z": -1.3194150463,
				"element": "H" 
			},
			{
				"x": 0.4909268551,
				"y": 6.2872504767,
				"z": -2.2112164208,
				"element": "H" 
			},
			{
				"x": -1.9214488221,
				"y": 6.2709087346,
				"z": -1.4726305572,
				"element": "H" 
			},
			{
				"x": -1.0216301956,
				"y": 7.6140071501,
				"z": -0.7192067801,
				"element": "H" 
			},
			{
				"x": -3.5210908385,
				"y": 5.3586815933,
				"z": 2.2159213442,
				"element": "H" 
			},
			{
				"x": -1.8767723071,
				"y": 5.1890738375,
				"z": 2.7687107141,
				"element": "H" 
			},
			{
				"x": -3.7202383051,
				"y": 3.297556938,
				"z": 3.2416681464,
				"element": "H" 
			},
			{
				"x": -3.4134567708,
				"y": 2.8111614968,
				"z": 1.5899444755,
				"element": "H" 
			},
			{
				"x": -2.2585253794,
				"y": 1.4103902538,
				"z": 3.1198102943,
				"element": "H" 
			},
			{
				"x": -0.893651849,
				"y": 3.8812667728,
				"z": 4.328824928,
				"element": "H" 
			},
			{
				"x": -0.5706995819,
				"y": 2.217607538,
				"z": 4.8026556984,
				"element": "H" 
			},
			{
				"x": -2.1739993686,
				"y": 2.9069366091,
				"z": 5.0550596139,
				"element": "H" 
			},
			{
				"x": -1.0842811295,
				"y": 2.4033965256,
				"z": 0.9464499631,
				"element": "H" 
			},
			{
				"x": 1.025585022,
				"y": 3.0730032711,
				"z": 3.0414223723,
				"element": "H" 
			},
			{
				"x": 0.3465565109,
				"y": 4.18012111,
				"z": 1.856085738,
				"element": "H" 
			},
			{
				"x": 1.2721992815,
				"y": 2.9441541383,
				"z": 0.0027885256,
				"element": "H" 
			},
			{
				"x": 2.5863072345,
				"y": 2.8291961122,
				"z": 1.1570605444,
				"element": "H" 
			},
			{
				"x": 2.1566464024,
				"y": 0.5595274411,
				"z": 1.5861940304,
				"element": "H" 
			},
			{
				"x": 0.6268081164,
				"y": 0.9842229695,
				"z": -0.9924216467,
				"element": "H" 
			},
			{
				"x": 0.2768504449,
				"y": -1.1269239479,
				"z": -1.4691970474,
				"element": "H" 
			},
			{
				"x": 0.3553916238,
				"y": -1.9114468162,
				"z": 1.4419998262,
				"element": "H" 
			},
			{
				"x": -0.8660726862,
				"y": -2.2055434844,
				"z": 0.2243185689,
				"element": "H" 
			},
			{
				"x": -1.724791416,
				"y": -0.5670299215,
				"z": 1.7902410652,
				"element": "H" 
			},
			{
				"x": -3.2611291528,
				"y": 2.2014913504,
				"z": -1.2185709509,
				"element": "H" 
			},
			{
				"x": -2.8716659305,
				"y": 0.763048109,
				"z": -2.1756891371,
				"element": "H" 
			},
			{
				"x": -4.4956349855,
				"y": 0.9318911422,
				"z": -1.42844043,
				"element": "H" 
			},
			{
				"x": 0.864990707,
				"y": -0.7584553791,
				"z": 3.1221791518,
				"element": "H" 
			},
			{
				"x": 0.9926784487,
				"y": 0.8712527869,
				"z": 3.7580461899,
				"element": "H" 
			},
			{
				"x": -0.5601824892,
				"y": 0.0219547848,
				"z": 3.8115283487,
				"element": "H" 
			},
			{
				"x": 3.5088107506,
				"y": -1.1600660755,
				"z": 0.5881822272,
				"element": "H" 
			},
			{
				"x": 3.7156704452,
				"y": -2.8967803203,
				"z": 0.4199856208,
				"element": "H" 
			},
			{
				"x": 2.4374852408,
				"y": -2.2665288331,
				"z": 1.453615292,
				"element": "H" 
			},
			{
				"x": 1.0870375289,
				"y": -3.9161649994,
				"z": 0.1557550922,
				"element": "H" 
			},
			{
				"x": 0.4825267547,
				"y": -3.5182576141,
				"z": -1.4410472863,
				"element": "H" 
			},
			{
				"x": 1.9489084117,
				"y": -5.5678750206,
				"z": -1.4559187013,
				"element": "H" 
			},
			{
				"x": 3.2896503163,
				"y": -4.6135538671,
				"z": -0.874227573,
				"element": "H" 
			},
			{
				"x": 3.7727571806,
				"y": -4.4316245968,
				"z": -3.1131976942,
				"element": "H" 
			},
			{
				"x": 2.9999202519,
				"y": -2.3801353826,
				"z": -4.0971956911,
				"element": "H" 
			},
			{
				"x": 1.3924909609,
				"y": -2.5746253254,
				"z": -3.4320450797,
				"element": "H" 
			},
			{
				"x": 3.8817824716,
				"y": -2.0240558722,
				"z": -1.7678321096,
				"element": "H" 
			},
			{
				"x": 3.8057069252,
				"y": -0.0192290938,
				"z": -2.8257585392,
				"element": "H" 
			},
			{
				"x": 0.3859713492,
				"y": -6.8120925519,
				"z": -4.8193447873,
				"element": "H" 
			},
			{
				"x": 1.3754975906,
				"y": -6.1610962033,
				"z": -6.1235811709,
				"element": "H" 
			},
			{
				"x": 1.750492978,
				"y": -7.7773503482,
				"z": -5.4570061213,
				"element": "H" 
			}
		],
		 "valence_orbital": [ 
			{
				"type": "occ",
				"energy": -0.27747,
				"method": "rhf"
			},
			{
				"type": "occ",
				"energy": -0.27451,
				"method": "rhf"
			},
			{
				"type": "occ",
				"energy": -0.26941,
				"method": "rhf"
			},
			{
				"type": "occ",
				"energy": -0.26606,
				"method": "rhf"
			},
			{
				"type": "occ",
				"energy": -0.2457,
				"method": "rhf"
			},
			{
				"type": "unocc",
				"energy": -0.049,
				"method": "rhf"
			},
			{
				"type": "unocc",
				"energy": 0.00813,
				"method": "rhf"
			},
			{
				"type": "unocc",
				"energy": 0.01172,
				"method": "rhf"
			},
			{
				"type": "unocc",
				"energy": 0.01553,
				"method": "rhf"
			},
			{
				"type": "unocc",
				"energy": 0.01831,
				"method": "rhf"
			}
		],
		"cosmo_sigma_profile": { 
			"-0.025": 0.0,
			"-0.024": 0.0,
			"-0.023": 0.0,
			"-0.022": 0.0,
			"-0.021": 0.0,
			"-0.02": 0.0,
			"-0.019": 0.0,
			"-0.018": 0.0,
			"-0.017": 0.0,
			"-0.016": 0.0,
			"-0.015": 0.0,
			"-0.014": 0.0,
			"-0.013": 0.0,
			"-0.012": 0.0,
			"-0.011": 0.0,
			"-0.01": 0.0,
			"-0.009": 0.0,
			"-0.008": 0.818133134897,
			"-0.007": 3.72734906693,
			"-0.006": 15.5388443999,
			"-0.005": 31.3829200473,
			"-0.004": 50.1765810395,
			"-0.003": 68.1559692747,
			"-0.002": 76.1981292982,
			"-0.001": 74.3039502036,
			"0.0": 63.4659084091,
			"0.001": 44.7427411799,
			"0.002": 28.4936580806,
			"0.003": 22.589250774,
			"0.004": 20.5238913724,
			"0.005": 15.628821957,
			"0.006": 11.6579799021,
			"0.007": 7.31530827818,
			"0.008": 8.9105945757,
			"0.009": 7.74666796343,
			"0.01": 7.36219854448,
			"0.011": 8.22926829762,
			"0.012": 9.43150091906,
			"0.013": 3.53672913014,
			"0.014": 0.183166941315,
			"0.015": 0.0,
			"0.016": 0.0,
			"0.017": 0.0,
			"0.018": 0.0,
			"0.019": 0.0,
			"0.02": 0.0,
			"0.021": 0.0,
			"0.022": 0.0,
			"0.023": 0.0,
			"0.024": 0.0,
			"0.025": 0.0
		}
	}
}
