{
	 "smiles": "COC(=O)C(C#N)=C(SC)SC", 
	 "Tm": 359.15, 
	 "num_atms": 21, 
	 "gaussian": { 
		 "optdone": 1, 
		 "sigma_profile": "yes", 
		 "theory": "DFT", 
		 "functional": "B3LYP", 
		 "basiset": "6-31G**", 
		 "properties": { 
			 "R2extent": 3310.8625, 
			 "electric_dipole_moment_norm": 3.35000417164, 
			 "electric_quadrupole_moment_norm": 18.1951640344, 
			 "total_energy": -1273.70685153, 
			 "HOMO_LUMO_gap": 0.16083, 
			 "cosmo_polarized_energy": -13.63, 
			 "cosmo_cavitation_energy": 28.7, 
			 "cosmo_dispersion_energy": -21.21, 
			 "cosmo_repulsion_energy": 1.63, 
			 "cosmo_total_nonelectrostatic_energy": 9.12, 
			 "SMD_solvation_energy": 8.04 
		},
		"coords": [
			{
				"x": -2.0880350708,
				"y": 0.3667874358,
				"z": -2.6525708122,
				"element": "C" 
			},
			{
				"x": -1.0034023346,
				"y": -0.1458727592,
				"z": -1.8624837479,
				"element": "O" 
			},
			{
				"x": -0.4782668877,
				"y": 0.7187345813,
				"z": -0.9723321514,
				"element": "C" 
			},
			{
				"x": -0.8882359088,
				"y": 1.8557240916,
				"z": -0.8147277379,
				"element": "O" 
			},
			{
				"x": 0.6474200118,
				"y": 0.1177211335,
				"z": -0.2221327632,
				"element": "C" 
			},
			{
				"x": 1.0970463638,
				"y": -1.1634680563,
				"z": -0.6553820194,
				"element": "C" 
			},
			{
				"x": 1.4849659965,
				"y": -2.1986461728,
				"z": -1.0239321047,
				"element": "N" 
			},
			{
				"x": 1.2953053916,
				"y": 0.8010737745,
				"z": 0.7941032946,
				"element": "C" 
			},
			{
				"x": 2.562500768,
				"y": 0.0751720774,
				"z": 1.7996023315,
				"element": "S" 
			},
			{
				"x": 2.0195890115,
				"y": -1.6422285087,
				"z": 2.1452230841,
				"element": "C" 
			},
			{
				"x": 0.9165008778,
				"y": 2.4978626642,
				"z": 1.109954144,
				"element": "S" 
			},
			{
				"x": 1.983868553,
				"y": 2.9443546597,
				"z": 2.5282694077,
				"element": "C" 
			},
			{
				"x": -2.9263295314,
				"y": 0.6551019346,
				"z": -2.013378055,
				"element": "H" 
			},
			{
				"x": -1.7658192281,
				"y": 1.2380803194,
				"z": -3.2281181673,
				"element": "H" 
			},
			{
				"x": -2.3737161516,
				"y": -0.4483971482,
				"z": -3.3165092689,
				"element": "H" 
			},
			{
				"x": 2.5690397311,
				"y": -1.9156687271,
				"z": 3.0489193668,
				"element": "H" 
			},
			{
				"x": 2.2588067758,
				"y": -2.3234422977,
				"z": 1.3315314724,
				"element": "H" 
			},
			{
				"x": 0.9491254115,
				"y": -1.6593128464,
				"z": 2.3547328886,
				"element": "H" 
			},
			{
				"x": 1.7001290154,
				"y": 3.9788216027,
				"z": 2.7389615239,
				"element": "H" 
			},
			{
				"x": 1.7826737709,
				"y": 2.3267599422,
				"z": 3.4039066458,
				"element": "H" 
			},
			{
				"x": 3.0457334345,
				"y": 2.9137422994,
				"z": 2.2802626686,
				"element": "H" 
			}
		],
		 "valence_orbital": [ 
			{
				"type": "occ",
				"energy": -0.32304,
				"method": "rhf"
			},
			{
				"type": "occ",
				"energy": -0.30573,
				"method": "rhf"
			},
			{
				"type": "occ",
				"energy": -0.27537,
				"method": "rhf"
			},
			{
				"type": "occ",
				"energy": -0.26086,
				"method": "rhf"
			},
			{
				"type": "occ",
				"energy": -0.23567,
				"method": "rhf"
			},
			{
				"type": "unocc",
				"energy": -0.07484,
				"method": "rhf"
			},
			{
				"type": "unocc",
				"energy": 0.00617,
				"method": "rhf"
			},
			{
				"type": "unocc",
				"energy": 0.01998,
				"method": "rhf"
			},
			{
				"type": "unocc",
				"energy": 0.02153,
				"method": "rhf"
			},
			{
				"type": "unocc",
				"energy": 0.02954,
				"method": "rhf"
			}
		],
		"cosmo_sigma_profile": { 
			"-0.025": 0.0,
			"-0.024": 0.0,
			"-0.023": 0.0,
			"-0.022": 0.0,
			"-0.021": 0.0,
			"-0.02": 0.0,
			"-0.019": 0.0,
			"-0.018": 0.0,
			"-0.017": 0.0,
			"-0.016": 0.0,
			"-0.015": 0.0,
			"-0.014": 0.0,
			"-0.013": 0.0,
			"-0.012": 0.0,
			"-0.011": 0.0,
			"-0.01": 0.0,
			"-0.009": 0.193025458162,
			"-0.008": 3.59800372505,
			"-0.007": 9.37778506846,
			"-0.006": 15.950348477,
			"-0.005": 18.3550095437,
			"-0.004": 21.3462174365,
			"-0.003": 28.2499614114,
			"-0.002": 20.3752342317,
			"-0.001": 15.134420788,
			"0.0": 12.2209508665,
			"0.001": 11.0034884325,
			"0.002": 9.62236723729,
			"0.003": 9.42817574626,
			"0.004": 7.65318092199,
			"0.005": 7.23529730608,
			"0.006": 6.56922159572,
			"0.007": 6.25089715277,
			"0.008": 6.73172494451,
			"0.009": 5.39352668406,
			"0.01": 5.63010091402,
			"0.011": 6.2879895713,
			"0.012": 4.07871726925,
			"0.013": 1.68871295405,
			"0.014": 0.113240217664,
			"0.015": 0.0,
			"0.016": 0.0,
			"0.017": 0.0,
			"0.018": 0.0,
			"0.019": 0.0,
			"0.02": 0.0,
			"0.021": 0.0,
			"0.022": 0.0,
			"0.023": 0.0,
			"0.024": 0.0,
			"0.025": 0.0
		}
	}
}
