{
	 "smiles": "NC1=C(OC2=C(N)C=CC=C2)C=CC=C1", 
	 "Tm": 335.65, 
	 "num_atms": 27, 
	 "gaussian": { 
		 "optdone": 1, 
		 "sigma_profile": "yes", 
		 "theory": "DFT", 
		 "functional": "B3LYP", 
		 "basiset": "6-31G**", 
		 "properties": { 
			 "R2extent": 3847.635, 
			 "electric_dipole_moment_norm": 2.08528657743, 
			 "electric_quadrupole_moment_norm": 10.4383833418, 
			 "total_energy": -649.233485088, 
			 "HOMO_LUMO_gap": 0.19982, 
			 "cosmo_polarized_energy": -11.83, 
			 "cosmo_cavitation_energy": 30.16, 
			 "cosmo_dispersion_energy": -21.99, 
			 "cosmo_repulsion_energy": 1.72, 
			 "cosmo_total_nonelectrostatic_energy": 9.89, 
			 "SMD_solvation_energy": 5.17 
		},
		"coords": [
			{
				"x": -0.4879760836,
				"y": -0.4448332479,
				"z": 3.794942319,
				"element": "N" 
			},
			{
				"x": -1.2196429972,
				"y": 0.2666438894,
				"z": 2.8282259516,
				"element": "C" 
			},
			{
				"x": -0.5119337716,
				"y": 0.9685061779,
				"z": 1.8352970313,
				"element": "C" 
			},
			{
				"x": 0.8697312645,
				"y": 1.007116394,
				"z": 2.0049191989,
				"element": "O" 
			},
			{
				"x": 1.6775547148,
				"y": 0.7471449453,
				"z": 0.8974078485,
				"element": "C" 
			},
			{
				"x": 1.8295018779,
				"y": -0.5899717759,
				"z": 0.4695080569,
				"element": "C" 
			},
			{
				"x": 1.1042976859,
				"y": -1.6087344049,
				"z": 1.065211841,
				"element": "N" 
			},
			{
				"x": 2.707218621,
				"y": -0.8264700251,
				"z": -0.6032132889,
				"element": "C" 
			},
			{
				"x": 3.4041191129,
				"y": 0.2183755949,
				"z": -1.2076466382,
				"element": "C" 
			},
			{
				"x": 3.2523722082,
				"y": 1.5314375938,
				"z": -0.7588341886,
				"element": "C" 
			},
			{
				"x": 2.380694271,
				"y": 1.7875964046,
				"z": 0.302554171,
				"element": "C" 
			},
			{
				"x": -1.1723703954,
				"y": 1.6098134596,
				"z": 0.7948706298,
				"element": "C" 
			},
			{
				"x": -2.5681306495,
				"y": 1.5648144587,
				"z": 0.7291974098,
				"element": "C" 
			},
			{
				"x": -3.2850854022,
				"y": 0.8830136531,
				"z": 1.7122715851,
				"element": "C" 
			},
			{
				"x": -2.6167636634,
				"y": 0.2406432653,
				"z": 2.7565123484,
				"element": "C" 
			},
			{
				"x": 0.3821420447,
				"y": 0.0118385676,
				"z": 4.0405636563,
				"element": "H" 
			},
			{
				"x": -1.0248542352,
				"y": -0.691083716,
				"z": 4.6167613283,
				"element": "H" 
			},
			{
				"x": 1.4653183296,
				"y": -2.5412745005,
				"z": 0.9308854816,
				"element": "H" 
			},
			{
				"x": 0.7477586068,
				"y": -1.4377031811,
				"z": 1.9987442015,
				"element": "H" 
			},
			{
				"x": 2.840184289,
				"y": -1.846372818,
				"z": -0.9563480334,
				"element": "H" 
			},
			{
				"x": 4.0770475978,
				"y": -0.0007230175,
				"z": -2.0318846851,
				"element": "H" 
			},
			{
				"x": 3.8008574342,
				"y": 2.3441940396,
				"z": -1.2236947489,
				"element": "H" 
			},
			{
				"x": 2.2414606932,
				"y": 2.7913202857,
				"z": 0.6924157435,
				"element": "H" 
			},
			{
				"x": -0.5916870993,
				"y": 2.1323415758,
				"z": 0.0418503227,
				"element": "H" 
			},
			{
				"x": -3.0861289572,
				"y": 2.0634655834,
				"z": -0.0839680709,
				"element": "H" 
			},
			{
				"x": -4.3697503822,
				"y": 0.8478862847,
				"z": 1.6715833517,
				"element": "H" 
			},
			{
				"x": -3.1774351147,
				"y": -0.2998854864,
				"z": 3.515567177,
				"element": "H" 
			}
		],
		 "valence_orbital": [ 
			{
				"type": "occ",
				"energy": -0.30088,
				"method": "rhf"
			},
			{
				"type": "occ",
				"energy": -0.23829,
				"method": "rhf"
			},
			{
				"type": "occ",
				"energy": -0.23059,
				"method": "rhf"
			},
			{
				"type": "occ",
				"energy": -0.20159,
				"method": "rhf"
			},
			{
				"type": "occ",
				"energy": -0.19287,
				"method": "rhf"
			},
			{
				"type": "unocc",
				"energy": 0.00695,
				"method": "rhf"
			},
			{
				"type": "unocc",
				"energy": 0.0085,
				"method": "rhf"
			},
			{
				"type": "unocc",
				"energy": 0.02291,
				"method": "rhf"
			},
			{
				"type": "unocc",
				"energy": 0.02357,
				"method": "rhf"
			},
			{
				"type": "unocc",
				"energy": 0.07728,
				"method": "rhf"
			}
		],
		"cosmo_sigma_profile": { 
			"-0.025": 0.0,
			"-0.024": 0.0,
			"-0.023": 0.0,
			"-0.022": 0.0,
			"-0.021": 0.0,
			"-0.02": 0.0,
			"-0.019": 0.0,
			"-0.018": 0.0,
			"-0.017": 0.0,
			"-0.016": 0.0,
			"-0.015": 0.0,
			"-0.014": 0.0,
			"-0.013": 0.721434500617,
			"-0.012": 3.01066489057,
			"-0.011": 3.29537157283,
			"-0.01": 4.07789088859,
			"-0.009": 3.59854868455,
			"-0.008": 4.76413307447,
			"-0.007": 4.16969116561,
			"-0.006": 7.88041472569,
			"-0.005": 15.4443914866,
			"-0.004": 16.9536585106,
			"-0.003": 20.463185029,
			"-0.002": 15.1278593281,
			"-0.001": 13.9441850863,
			"0.0": 12.0962627078,
			"0.001": 11.8612277537,
			"0.002": 13.2778635611,
			"0.003": 14.8093555237,
			"0.004": 17.4085500915,
			"0.005": 18.6305008715,
			"0.006": 18.9229105083,
			"0.007": 11.6025264728,
			"0.008": 2.7106426189,
			"0.009": 2.46213301521,
			"0.01": 1.09193418776,
			"0.011": 0.615378192942,
			"0.012": 0.589962995271,
			"0.013": 0.606658518982,
			"0.014": 0.072372331063,
			"0.015": 0.0,
			"0.016": 0.0,
			"0.017": 0.0,
			"0.018": 0.0,
			"0.019": 0.0,
			"0.02": 0.0,
			"0.021": 0.0,
			"0.022": 0.0,
			"0.023": 0.0,
			"0.024": 0.0,
			"0.025": 0.0
		}
	}
}
