{
	 "smiles": "COC(=O)C1(CC2=CC=C(OC)C=C2C(=O)O1)C(=O)OC", 
	 "Tm": 415.15, 
	 "num_atms": 35, 
	 "gaussian": { 
		 "optdone": 1, 
		 "sigma_profile": "yes", 
		 "theory": "DFT", 
		 "functional": "B3LYP", 
		 "basiset": "6-31G**", 
		 "properties": { 
			 "R2extent": 8010.8604, 
			 "electric_dipole_moment_norm": 3.84964394457, 
			 "electric_quadrupole_moment_norm": 27.2296182784, 
			 "total_energy": -1068.49815262, 
			 "HOMO_LUMO_gap": 0.17885, 
			 "cosmo_polarized_energy": -18.93, 
			 "cosmo_cavitation_energy": 39.91, 
			 "cosmo_dispersion_energy": -27.22, 
			 "cosmo_repulsion_energy": 2.13, 
			 "cosmo_total_nonelectrostatic_energy": 14.82, 
			 "SMD_solvation_energy": 11.22 
		},
		"coords": [
			{
				"x": -1.7113199411,
				"y": -4.268751003,
				"z": 3.9258266673,
				"element": "C" 
			},
			{
				"x": -1.239084665,
				"y": -3.0982118593,
				"z": 3.2323481823,
				"element": "O" 
			},
			{
				"x": -2.1163073913,
				"y": -2.5273553977,
				"z": 2.3979527954,
				"element": "C" 
			},
			{
				"x": -3.2320413499,
				"y": -2.9375395172,
				"z": 2.1757732453,
				"element": "O" 
			},
			{
				"x": -1.5152493483,
				"y": -1.2525237112,
				"z": 1.7677460913,
				"element": "C" 
			},
			{
				"x": -2.4522078355,
				"y": -0.6836639548,
				"z": 0.6974432833,
				"element": "C" 
			},
			{
				"x": -1.9859687019,
				"y": 0.6923479438,
				"z": 0.2951189975,
				"element": "C" 
			},
			{
				"x": -2.204665467,
				"y": 1.2272832934,
				"z": -0.9803963893,
				"element": "C" 
			},
			{
				"x": -1.7772138515,
				"y": 2.5100698525,
				"z": -1.2971675875,
				"element": "C" 
			},
			{
				"x": -1.1164232739,
				"y": 3.2979939302,
				"z": -0.3380301817,
				"element": "C" 
			},
			{
				"x": -0.7395521824,
				"y": 4.5394723996,
				"z": -0.7513333309,
				"element": "O" 
			},
			{
				"x": -0.0646780603,
				"y": 5.3769399936,
				"z": 0.1782381298,
				"element": "C" 
			},
			{
				"x": -0.8928024082,
				"y": 2.7821359789,
				"z": 0.9383778595,
				"element": "C" 
			},
			{
				"x": -1.3250548142,
				"y": 1.4840021992,
				"z": 1.2422357264,
				"element": "C" 
			},
			{
				"x": -1.0959661934,
				"y": 0.9832041404,
				"z": 2.6250146511,
				"element": "C" 
			},
			{
				"x": -0.7522742364,
				"y": 1.6743531763,
				"z": 3.5534315627,
				"element": "O" 
			},
			{
				"x": -1.3556312776,
				"y": -0.3464800439,
				"z": 2.8633377599,
				"element": "O" 
			},
			{
				"x": -0.1211456234,
				"y": -1.5645425108,
				"z": 1.1797102237,
				"element": "C" 
			},
			{
				"x": 0.889774957,
				"y": -0.9589553616,
				"z": 1.4346938169,
				"element": "O" 
			},
			{
				"x": -0.2082652176,
				"y": -2.5943975372,
				"z": 0.3162705165,
				"element": "O" 
			},
			{
				"x": 1.0303069441,
				"y": -2.9810827715,
				"z": -0.3102905947,
				"element": "C" 
			},
			{
				"x": -2.5827775891,
				"y": -4.0210252599,
				"z": 4.5359668741,
				"element": "H" 
			},
			{
				"x": -1.9836906151,
				"y": -5.0499324529,
				"z": 3.2121757023,
				"element": "H" 
			},
			{
				"x": -0.8812998879,
				"y": -4.5898467082,
				"z": 4.5536539897,
				"element": "H" 
			},
			{
				"x": -3.4632181072,
				"y": -0.6607610076,
				"z": 1.1204842673,
				"element": "H" 
			},
			{
				"x": -2.4835644548,
				"y": -1.3655983751,
				"z": -0.1557887896,
				"element": "H" 
			},
			{
				"x": -2.7137102023,
				"y": 0.6311966182,
				"z": -1.7332079299,
				"element": "H" 
			},
			{
				"x": -1.9392689284,
				"y": 2.9287916198,
				"z": -2.28510331,
				"element": "H" 
			},
			{
				"x": -0.6893381215,
				"y": 5.5924135113,
				"z": 1.0540045645,
				"element": "H" 
			},
			{
				"x": 0.1449318811,
				"y": 6.3063782368,
				"z": -0.3528527202,
				"element": "H" 
			},
			{
				"x": 0.8792283934,
				"y": 4.9288478827,
				"z": 0.5126543994,
				"element": "H" 
			},
			{
				"x": -0.3969657022,
				"y": 3.3463167206,
				"z": 1.7177660106,
				"element": "H" 
			},
			{
				"x": 0.7800934242,
				"y": -3.8164672132,
				"z": -0.9631951696,
				"element": "H" 
			},
			{
				"x": 1.7582137365,
				"y": -3.2850701457,
				"z": 0.4452943576,
				"element": "H" 
			},
			{
				"x": 1.4404361111,
				"y": -2.1488426665,
				"z": -0.8868536708,
				"element": "H" 
			}
		],
		 "valence_orbital": [ 
			{
				"type": "occ",
				"energy": -0.30083,
				"method": "rhf"
			},
			{
				"type": "occ",
				"energy": -0.28031,
				"method": "rhf"
			},
			{
				"type": "occ",
				"energy": -0.26743,
				"method": "rhf"
			},
			{
				"type": "occ",
				"energy": -0.26105,
				"method": "rhf"
			},
			{
				"type": "occ",
				"energy": -0.22711,
				"method": "rhf"
			},
			{
				"type": "unocc",
				"energy": -0.04826,
				"method": "rhf"
			},
			{
				"type": "unocc",
				"energy": -0.0171,
				"method": "rhf"
			},
			{
				"type": "unocc",
				"energy": -0.00419,
				"method": "rhf"
			},
			{
				"type": "unocc",
				"energy": 0.00175,
				"method": "rhf"
			},
			{
				"type": "unocc",
				"energy": 0.05845,
				"method": "rhf"
			}
		],
		"cosmo_sigma_profile": { 
			"-0.025": 0.0,
			"-0.024": 0.0,
			"-0.023": 0.0,
			"-0.022": 0.0,
			"-0.021": 0.0,
			"-0.02": 0.0,
			"-0.019": 0.0,
			"-0.018": 0.0,
			"-0.017": 0.0,
			"-0.016": 0.0,
			"-0.015": 0.0,
			"-0.014": 0.0,
			"-0.013": 0.0,
			"-0.012": 0.0,
			"-0.011": 0.0,
			"-0.01": 0.0,
			"-0.009": 0.0,
			"-0.008": 0.558878869232,
			"-0.007": 14.1055291594,
			"-0.006": 30.2437461419,
			"-0.005": 31.4365466195,
			"-0.004": 36.2569558609,
			"-0.003": 24.8115548793,
			"-0.002": 18.0370832593,
			"-0.001": 13.5773032432,
			"0.0": 14.6865671739,
			"0.001": 16.5029822088,
			"0.002": 21.0538555216,
			"0.003": 18.3147926955,
			"0.004": 10.1337276607,
			"0.005": 9.23538420108,
			"0.006": 8.28284212641,
			"0.007": 7.45311488367,
			"0.008": 9.38972564337,
			"0.009": 9.45333449936,
			"0.01": 11.9938763266,
			"0.011": 8.65196631284,
			"0.012": 2.37483554031,
			"0.013": 0.422823144136,
			"0.014": 0.0,
			"0.015": 0.0,
			"0.016": 0.0,
			"0.017": 0.0,
			"0.018": 0.0,
			"0.019": 0.0,
			"0.02": 0.0,
			"0.021": 0.0,
			"0.022": 0.0,
			"0.023": 0.0,
			"0.024": 0.0,
			"0.025": 0.0
		}
	}
}
