{
	 "smiles": "CCCSC1=CC=CC=C1", 
	 "Tm": 228.15, 
	 "num_atms": 22, 
	 "gaussian": { 
		 "optdone": 1, 
		 "sigma_profile": "yes", 
		 "theory": "DFT", 
		 "functional": "B3LYP", 
		 "basiset": "6-31G**", 
		 "properties": { 
			 "R2extent": 2312.8914, 
			 "electric_dipole_moment_norm": 1.86116031282, 
			 "electric_quadrupole_moment_norm": 8.38806594037, 
			 "total_energy": -748.385565636, 
			 "HOMO_LUMO_gap": 0.20227, 
			 "cosmo_polarized_energy": -5.08, 
			 "cosmo_cavitation_energy": 26.5, 
			 "cosmo_dispersion_energy": -19.28, 
			 "cosmo_repulsion_energy": 1.55, 
			 "cosmo_total_nonelectrostatic_energy": 8.77, 
			 "SMD_solvation_energy": 3.98 
		},
		"coords": [
			{
				"x": 3.2656884939,
				"y": 0.0613822905,
				"z": 2.1104486313,
				"element": "C" 
			},
			{
				"x": 2.4621867104,
				"y": -0.7878473724,
				"z": 1.1177026361,
				"element": "C" 
			},
			{
				"x": 1.0741543117,
				"y": -1.1421512064,
				"z": 1.6534146653,
				"element": "C" 
			},
			{
				"x": 0.0521903753,
				"y": -2.1805749341,
				"z": 0.5215416863,
				"element": "S" 
			},
			{
				"x": -0.316039647,
				"y": -1.0199549977,
				"z": -0.7991205352,
				"element": "C" 
			},
			{
				"x": -1.1676601154,
				"y": 0.073026577,
				"z": -0.5805650905,
				"element": "C" 
			},
			{
				"x": -1.4723114662,
				"y": 0.9458023265,
				"z": -1.6248568775,
				"element": "C" 
			},
			{
				"x": -0.9504432971,
				"y": 0.7233855044,
				"z": -2.9018718069,
				"element": "C" 
			},
			{
				"x": -0.1167381069,
				"y": -0.3723732959,
				"z": -3.1283616732,
				"element": "C" 
			},
			{
				"x": 0.2063441102,
				"y": -1.2379596425,
				"z": -2.0807704699,
				"element": "C" 
			},
			{
				"x": 4.2548747481,
				"y": 0.3036603924,
				"z": 1.7088656334,
				"element": "H" 
			},
			{
				"x": 2.7563663881,
				"y": 1.0063508867,
				"z": 2.330958493,
				"element": "H" 
			},
			{
				"x": 3.4125536124,
				"y": -0.4656003628,
				"z": 3.060143403,
				"element": "H" 
			},
			{
				"x": 2.3537903922,
				"y": -0.2474339802,
				"z": 0.1701446982,
				"element": "H" 
			},
			{
				"x": 3.0035668717,
				"y": -1.7130595332,
				"z": 0.8884993125,
				"element": "H" 
			},
			{
				"x": 1.1498020551,
				"y": -1.7414913926,
				"z": 2.5675947475,
				"element": "H" 
			},
			{
				"x": 0.5067618507,
				"y": -0.2400798926,
				"z": 1.9053769312,
				"element": "H" 
			},
			{
				"x": -1.596455587,
				"y": 0.2305306802,
				"z": 0.4046688484,
				"element": "H" 
			},
			{
				"x": -2.1296667286,
				"y": 1.7919097487,
				"z": -1.4449195969,
				"element": "H" 
			},
			{
				"x": -1.196585716,
				"y": 1.3990306553,
				"z": -3.7159369198,
				"element": "H" 
			},
			{
				"x": 0.2912917679,
				"y": -0.5515941518,
				"z": -4.1191437552,
				"element": "H" 
			},
			{
				"x": 0.8642289764,
				"y": -2.0844582994,
				"z": -2.2500129611,
				"element": "H" 
			}
		],
		 "valence_orbital": [ 
			{
				"type": "occ",
				"energy": -0.33309,
				"method": "rhf"
			},
			{
				"type": "occ",
				"energy": -0.30889,
				"method": "rhf"
			},
			{
				"type": "occ",
				"energy": -0.25603,
				"method": "rhf"
			},
			{
				"type": "occ",
				"energy": -0.25408,
				"method": "rhf"
			},
			{
				"type": "occ",
				"energy": -0.21786,
				"method": "rhf"
			},
			{
				"type": "unocc",
				"energy": -0.01559,
				"method": "rhf"
			},
			{
				"type": "unocc",
				"energy": -0.00534,
				"method": "rhf"
			},
			{
				"type": "unocc",
				"energy": 0.05282,
				"method": "rhf"
			},
			{
				"type": "unocc",
				"energy": 0.07305,
				"method": "rhf"
			},
			{
				"type": "unocc",
				"energy": 0.10406,
				"method": "rhf"
			}
		],
		"cosmo_sigma_profile": { 
			"-0.025": 0.0,
			"-0.024": 0.0,
			"-0.023": 0.0,
			"-0.022": 0.0,
			"-0.021": 0.0,
			"-0.02": 0.0,
			"-0.019": 0.0,
			"-0.018": 0.0,
			"-0.017": 0.0,
			"-0.016": 0.0,
			"-0.015": 0.0,
			"-0.014": 0.0,
			"-0.013": 0.0,
			"-0.012": 0.0,
			"-0.011": 0.0,
			"-0.01": 0.0,
			"-0.009": 0.0,
			"-0.008": 0.0,
			"-0.007": 0.174525621982,
			"-0.006": 7.2463948208,
			"-0.005": 13.5505145939,
			"-0.004": 16.9354405595,
			"-0.003": 20.1628829133,
			"-0.002": 21.5119395983,
			"-0.001": 22.5018640094,
			"0.0": 21.3495581091,
			"0.001": 22.1194107933,
			"0.002": 13.9922359177,
			"0.003": 12.5634146985,
			"0.004": 11.5411053708,
			"0.005": 13.3544723462,
			"0.006": 5.50451273205,
			"0.007": 2.07803967665,
			"0.008": 2.51753895476,
			"0.009": 2.1092675686,
			"0.01": 1.55403565425,
			"0.011": 0.242693203821,
			"0.012": 0.0,
			"0.013": 0.0,
			"0.014": 0.0,
			"0.015": 0.0,
			"0.016": 0.0,
			"0.017": 0.0,
			"0.018": 0.0,
			"0.019": 0.0,
			"0.02": 0.0,
			"0.021": 0.0,
			"0.022": 0.0,
			"0.023": 0.0,
			"0.024": 0.0,
			"0.025": 0.0
		}
	}
}
