{
	 "smiles": "OC1=C(CN2CCOCC2)C2=C(C=CC=C2)C=C1", 
	 "Tm": 326.15, 
	 "num_atms": 35, 
	 "gaussian": { 
		 "optdone": 1, 
		 "sigma_profile": "yes", 
		 "theory": "DFT", 
		 "functional": "B3LYP", 
		 "basiset": "6-31G**", 
		 "properties": { 
			 "R2extent": 5227.6705, 
			 "electric_dipole_moment_norm": 1.76622515835, 
			 "electric_quadrupole_moment_norm": 11.0837516058, 
			 "total_energy": -787.023785422, 
			 "HOMO_LUMO_gap": 0.16544, 
			 "cosmo_polarized_energy": -11.4, 
			 "cosmo_cavitation_energy": 35.65, 
			 "cosmo_dispersion_energy": -25.92, 
			 "cosmo_repulsion_energy": 1.96, 
			 "cosmo_total_nonelectrostatic_energy": 11.68, 
			 "SMD_solvation_energy": 5.42 
		},
		"coords": [
			{
				"x": 2.1602604005,
				"y": 1.3197552959,
				"z": -0.1256644478,
				"element": "O" 
			},
			{
				"x": 1.0924201508,
				"y": 1.1192350417,
				"z": -0.9343398888,
				"element": "C" 
			},
			{
				"x": 0.3463969204,
				"y": -0.0605760095,
				"z": -0.9179420829,
				"element": "C" 
			},
			{
				"x": 0.796494307,
				"y": -1.2030108912,
				"z": -0.0225541827,
				"element": "C" 
			},
			{
				"x": 1.2889793584,
				"y": -0.7403285337,
				"z": 1.295285964,
				"element": "N" 
			},
			{
				"x": 0.2051505528,
				"y": -0.1420744422,
				"z": 2.1079543831,
				"element": "C" 
			},
			{
				"x": 0.6094756798,
				"y": -0.0999470321,
				"z": 3.5752078601,
				"element": "C" 
			},
			{
				"x": 0.797273938,
				"y": -1.4026685253,
				"z": 4.1284278004,
				"element": "O" 
			},
			{
				"x": 1.1963671193,
				"y": -2.3857083233,
				"z": 3.1778773192,
				"element": "C" 
			},
			{
				"x": 2.0314164214,
				"y": -1.7803846721,
				"z": 2.0519091415,
				"element": "C" 
			},
			{
				"x": -0.7696086241,
				"y": -0.192436151,
				"z": -1.8090256071,
				"element": "C" 
			},
			{
				"x": -1.100837755,
				"y": 0.8950235079,
				"z": -2.6897537118,
				"element": "C" 
			},
			{
				"x": -2.2033887699,
				"y": 0.7772125002,
				"z": -3.5745606314,
				"element": "C" 
			},
			{
				"x": -2.968021047,
				"y": -0.3666772179,
				"z": -3.6163855308,
				"element": "C" 
			},
			{
				"x": -2.6456608185,
				"y": -1.4446245161,
				"z": -2.7619214798,
				"element": "C" 
			},
			{
				"x": -1.5816100131,
				"y": -1.3614835903,
				"z": -1.8891577564,
				"element": "C" 
			},
			{
				"x": -0.3072333111,
				"y": 2.0737113195,
				"z": -2.6621567194,
				"element": "C" 
			},
			{
				"x": 0.7577412474,
				"y": 2.1866271182,
				"z": -1.8093408645,
				"element": "C" 
			},
			{
				"x": 2.1349409512,
				"y": 0.5927219934,
				"z": 0.5553074183,
				"element": "H" 
			},
			{
				"x": -0.0102958313,
				"y": -1.9372297441,
				"z": 0.1119086548,
				"element": "H" 
			},
			{
				"x": 1.6308300355,
				"y": -1.7320748776,
				"z": -0.5029427069,
				"element": "H" 
			},
			{
				"x": 0.0002347226,
				"y": 0.8701901187,
				"z": 1.7461400873,
				"element": "H" 
			},
			{
				"x": -0.7287868972,
				"y": -0.7192224506,
				"z": 2.0071675627,
				"element": "H" 
			},
			{
				"x": 1.5283658921,
				"y": 0.4968187423,
				"z": 3.6863342075,
				"element": "H" 
			},
			{
				"x": -0.1746230663,
				"y": 0.3859749286,
				"z": 4.1644689609,
				"element": "H" 
			},
			{
				"x": 0.3133015957,
				"y": -2.8949617026,
				"z": 2.7590423889,
				"element": "H" 
			},
			{
				"x": 1.7799405995,
				"y": -3.1361044623,
				"z": 3.7220483447,
				"element": "H" 
			},
			{
				"x": 2.9364505476,
				"y": -1.3350917749,
				"z": 2.4827040612,
				"element": "H" 
			},
			{
				"x": 2.3562201002,
				"y": -2.5660190096,
				"z": 1.3627868673,
				"element": "H" 
			},
			{
				"x": -2.4318306378,
				"y": 1.616639334,
				"z": -4.2270074765,
				"element": "H" 
			},
			{
				"x": -3.8088933301,
				"y": -0.4444542801,
				"z": -4.2990130879,
				"element": "H" 
			},
			{
				"x": -3.2422186502,
				"y": -2.3523106169,
				"z": -2.7928317965,
				"element": "H" 
			},
			{
				"x": -1.3645174335,
				"y": -2.2164702651,
				"z": -1.2588611639,
				"element": "H" 
			},
			{
				"x": -0.5613510386,
				"y": 2.8910697501,
				"z": -3.3322489029,
				"element": "H" 
			},
			{
				"x": 1.3726166838,
				"y": 3.079979438,
				"z": -1.772062984,
				"element": "H" 
			}
		],
		 "valence_orbital": [ 
			{
				"type": "occ",
				"energy": -0.27053,
				"method": "rhf"
			},
			{
				"type": "occ",
				"energy": -0.25734,
				"method": "rhf"
			},
			{
				"type": "occ",
				"energy": -0.23769,
				"method": "rhf"
			},
			{
				"type": "occ",
				"energy": -0.22344,
				"method": "rhf"
			},
			{
				"type": "occ",
				"energy": -0.19642,
				"method": "rhf"
			},
			{
				"type": "unocc",
				"energy": -0.03098,
				"method": "rhf"
			},
			{
				"type": "unocc",
				"energy": 0.00433,
				"method": "rhf"
			},
			{
				"type": "unocc",
				"energy": 0.03364,
				"method": "rhf"
			},
			{
				"type": "unocc",
				"energy": 0.06811,
				"method": "rhf"
			},
			{
				"type": "unocc",
				"energy": 0.09344,
				"method": "rhf"
			}
		],
		"cosmo_sigma_profile": { 
			"-0.025": 0.0,
			"-0.024": 0.0,
			"-0.023": 0.0,
			"-0.022": 0.0,
			"-0.021": 0.0,
			"-0.02": 0.0,
			"-0.019": 0.0,
			"-0.018": 0.0,
			"-0.017": 0.0,
			"-0.016": 0.0,
			"-0.015": 0.0,
			"-0.014": 0.0,
			"-0.013": 0.0,
			"-0.012": 0.0,
			"-0.011": 0.0,
			"-0.01": 0.0,
			"-0.009": 0.0,
			"-0.008": 0.0,
			"-0.007": 0.698995856611,
			"-0.006": 11.0046775198,
			"-0.005": 28.0483949508,
			"-0.004": 37.8308586594,
			"-0.003": 38.2597897614,
			"-0.002": 25.3262983757,
			"-0.001": 17.2861529787,
			"0.0": 13.3562201782,
			"0.001": 12.1680718619,
			"0.002": 11.3407304247,
			"0.003": 12.5971565505,
			"0.004": 19.815267706,
			"0.005": 21.6849474114,
			"0.006": 10.9835486344,
			"0.007": 3.09984504702,
			"0.008": 2.52245908867,
			"0.009": 2.58953241596,
			"0.01": 2.29831185004,
			"0.011": 2.63102168705,
			"0.012": 3.55289146151,
			"0.013": 3.11425199366,
			"0.014": 0.981553021731,
			"0.015": 0.0,
			"0.016": 0.0,
			"0.017": 0.0,
			"0.018": 0.0,
			"0.019": 0.0,
			"0.02": 0.0,
			"0.021": 0.0,
			"0.022": 0.0,
			"0.023": 0.0,
			"0.024": 0.0,
			"0.025": 0.0
		}
	}
}
