{
	 "smiles": "OC(=O)C=CC1=CC(=CC=C1Cl)[N+]([O-])=O", 
	 "Tm": 493.15, 
	 "num_atms": 21, 
	 "gaussian": { 
		 "optdone": 1, 
		 "sigma_profile": "yes", 
		 "theory": "DFT", 
		 "functional": "B3LYP", 
		 "basiset": "6-31G**", 
		 "properties": { 
			 "R2extent": 5917.3638, 
			 "electric_dipole_moment_norm": 5.29717848387, 
			 "electric_quadrupole_moment_norm": 24.4936572865, 
			 "total_energy": -1162.29821805, 
			 "HOMO_LUMO_gap": 0.16364, 
			 "cosmo_polarized_energy": -19.21, 
			 "cosmo_cavitation_energy": 29.42, 
			 "cosmo_dispersion_energy": -21.25, 
			 "cosmo_repulsion_energy": 1.66, 
			 "cosmo_total_nonelectrostatic_energy": 9.84, 
			 "SMD_solvation_energy": 8.42 
		},
		"coords": [
			{
				"x": 2.5140265354,
				"y": -1.6585101049,
				"z": 1.1170793461,
				"element": "O" 
			},
			{
				"x": 1.6494089982,
				"y": -0.6442037456,
				"z": 1.3892876832,
				"element": "C" 
			},
			{
				"x": 1.8517570613,
				"y": 0.1010331703,
				"z": 2.3183210481,
				"element": "O" 
			},
			{
				"x": 0.4714706101,
				"y": -0.4824384694,
				"z": 0.4912581482,
				"element": "C" 
			},
			{
				"x": 0.4241092176,
				"y": -0.9071903473,
				"z": -0.7836818678,
				"element": "C" 
			},
			{
				"x": -0.6971765617,
				"y": -0.7215554785,
				"z": -1.7130439711,
				"element": "C" 
			},
			{
				"x": -1.9828716061,
				"y": -0.3951877685,
				"z": -1.24943909,
				"element": "C" 
			},
			{
				"x": -3.0314268629,
				"y": -0.2281333377,
				"z": -2.1409639106,
				"element": "C" 
			},
			{
				"x": -2.8687406047,
				"y": -0.3810052398,
				"z": -3.516880489,
				"element": "C" 
			},
			{
				"x": -1.6083093957,
				"y": -0.7132456679,
				"z": -3.9973060636,
				"element": "C" 
			},
			{
				"x": -0.5437074213,
				"y": -0.8821165501,
				"z": -3.1086162763,
				"element": "C" 
			},
			{
				"x": 1.0160056287,
				"y": -1.2919678459,
				"z": -3.7951151223,
				"element": "Cl" 
			},
			{
				"x": -4.3649400893,
				"y": 0.1099927759,
				"z": -1.6126760879,
				"element": "N" 
			},
			{
				"x": -4.4817213611,
				"y": 0.2255581762,
				"z": -0.3943133117,
				"element": "O" 
			},
			{
				"x": -5.2741564585,
				"y": 0.2548040908,
				"z": -2.4273225374,
				"element": "O" 
			},
			{
				"x": 2.1273925818,
				"y": -2.2647917309,
				"z": 0.4701610644,
				"element": "H" 
			},
			{
				"x": -0.3242131692,
				"y": 0.1090933781,
				"z": 0.932964121,
				"element": "H" 
			},
			{
				"x": 1.2935802535,
				"y": -1.4035612188,
				"z": -1.2072325384,
				"element": "H" 
			},
			{
				"x": -2.1811310367,
				"y": -0.2841463148,
				"z": -0.191154701,
				"element": "H" 
			},
			{
				"x": -3.7143610446,
				"y": -0.2454505555,
				"z": -4.1789452884,
				"element": "H" 
			},
			{
				"x": -1.4409952749,
				"y": -0.8416772159,
				"z": -5.0602801554,
				"element": "H" 
			}
		],
		 "valence_orbital": [ 
			{
				"type": "occ",
				"energy": -0.32466,
				"method": "rhf"
			},
			{
				"type": "occ",
				"energy": -0.30884,
				"method": "rhf"
			},
			{
				"type": "occ",
				"energy": -0.29569,
				"method": "rhf"
			},
			{
				"type": "occ",
				"energy": -0.28524,
				"method": "rhf"
			},
			{
				"type": "occ",
				"energy": -0.27322,
				"method": "rhf"
			},
			{
				"type": "unocc",
				"energy": -0.10958,
				"method": "rhf"
			},
			{
				"type": "unocc",
				"energy": -0.09642,
				"method": "rhf"
			},
			{
				"type": "unocc",
				"energy": -0.03548,
				"method": "rhf"
			},
			{
				"type": "unocc",
				"energy": -0.00879,
				"method": "rhf"
			},
			{
				"type": "unocc",
				"energy": -0.00242,
				"method": "rhf"
			}
		],
		"cosmo_sigma_profile": { 
			"-0.025": 0.0,
			"-0.024": 0.0,
			"-0.023": 0.0,
			"-0.022": 0.0,
			"-0.021": 0.0,
			"-0.02": 0.0,
			"-0.019": 0.301052096874,
			"-0.018": 0.946562207546,
			"-0.017": 1.12835346851,
			"-0.016": 1.00932297695,
			"-0.015": 0.963839984791,
			"-0.014": 1.09903480681,
			"-0.013": 1.19122328423,
			"-0.012": 1.09561242412,
			"-0.011": 1.02509616439,
			"-0.01": 2.53708311916,
			"-0.009": 4.86985052034,
			"-0.008": 6.93572416646,
			"-0.007": 8.55267246086,
			"-0.006": 8.17131799099,
			"-0.005": 9.7776249583,
			"-0.004": 10.4930526837,
			"-0.003": 16.8444556832,
			"-0.002": 22.4877733086,
			"-0.001": 26.9695734997,
			"0.0": 18.4753951854,
			"0.001": 11.4207452692,
			"0.002": 9.6453373624,
			"0.003": 10.1150133393,
			"0.004": 5.52254955228,
			"0.005": 5.98093066822,
			"0.006": 5.96056792402,
			"0.007": 11.5279535382,
			"0.008": 8.84033046685,
			"0.009": 6.86693549729,
			"0.01": 6.41389163626,
			"0.011": 5.27401009851,
			"0.012": 5.2783219292,
			"0.013": 1.66879224517,
			"0.014": 0.0139584193331,
			"0.015": 0.0,
			"0.016": 0.0,
			"0.017": 0.0,
			"0.018": 0.0,
			"0.019": 0.0,
			"0.02": 0.0,
			"0.021": 0.0,
			"0.022": 0.0,
			"0.023": 0.0,
			"0.024": 0.0,
			"0.025": 0.0
		}
	}
}
