{
	 "smiles": "CC1(C)OC(=O)C(=CC2=CC=CS2)C(=O)O1", 
	 "Tm": 455.15, 
	 "num_atms": 26, 
	 "gaussian": { 
		 "optdone": 1, 
		 "sigma_profile": "yes", 
		 "theory": "DFT", 
		 "functional": "B3LYP", 
		 "basiset": "6-31G**", 
		 "properties": { 
			 "R2extent": 5277.9061, 
			 "electric_dipole_moment_norm": 3.07955919248, 
			 "electric_quadrupole_moment_norm": 22.1357509502, 
			 "total_energy": -1124.27879812, 
			 "HOMO_LUMO_gap": 0.14421, 
			 "cosmo_polarized_energy": -13.29, 
			 "cosmo_cavitation_energy": 31.7, 
			 "cosmo_dispersion_energy": -23.62, 
			 "cosmo_repulsion_energy": 1.78, 
			 "cosmo_total_nonelectrostatic_energy": 9.86, 
			 "SMD_solvation_energy": 7.41 
		},
		"coords": [
			{
				"x": -0.8082400635,
				"y": 2.6508378007,
				"z": -1.9597988214,
				"element": "C" 
			},
			{
				"x": 0.22989,
				"y": 1.5321216776,
				"z": -2.0427489502,
				"element": "C" 
			},
			{
				"x": 1.3547633016,
				"y": 1.8247497551,
				"z": -3.0201719102,
				"element": "C" 
			},
			{
				"x": 0.8535731604,
				"y": 1.3453169665,
				"z": -0.7648081361,
				"element": "O" 
			},
			{
				"x": 0.1851497303,
				"y": 0.6994523586,
				"z": 0.2360898072,
				"element": "C" 
			},
			{
				"x": 0.6188504242,
				"y": 0.8015108191,
				"z": 1.3646914373,
				"element": "O" 
			},
			{
				"x": -0.9717420917,
				"y": -0.1148630089,
				"z": -0.1821488051,
				"element": "C" 
			},
			{
				"x": -1.8856100203,
				"y": -0.7174050643,
				"z": 0.6447546589,
				"element": "C" 
			},
			{
				"x": -2.0951191346,
				"y": -0.7505615887,
				"z": 2.0597859686,
				"element": "C" 
			},
			{
				"x": -1.3961061256,
				"y": -0.2582392257,
				"z": 3.1574328153,
				"element": "C" 
			},
			{
				"x": -2.0177505452,
				"y": -0.5497410449,
				"z": 4.3919182681,
				"element": "C" 
			},
			{
				"x": -3.1864197684,
				"y": -1.2649280301,
				"z": 4.2531250316,
				"element": "C" 
			},
			{
				"x": -3.5470898596,
				"y": -1.5977766556,
				"z": 2.6084873647,
				"element": "S" 
			},
			{
				"x": -1.1644291117,
				"y": -0.3949631929,
				"z": -1.6349852074,
				"element": "C" 
			},
			{
				"x": -1.9225764599,
				"y": -1.2268419012,
				"z": -2.0814619365,
				"element": "O" 
			},
			{
				"x": -0.3868201841,
				"y": 0.3212758679,
				"z": -2.4964165382,
				"element": "O" 
			},
			{
				"x": -1.5970238364,
				"y": 2.4013071225,
				"z": -1.244717653,
				"element": "H" 
			},
			{
				"x": -0.328697864,
				"y": 3.5783896732,
				"z": -1.6379341271,
				"element": "H" 
			},
			{
				"x": -1.2653903171,
				"y": 2.8051696026,
				"z": -2.9401334217,
				"element": "H" 
			},
			{
				"x": 0.948271735,
				"y": 1.9611537184,
				"z": -4.0247640428,
				"element": "H" 
			},
			{
				"x": 2.056213409,
				"y": 0.9880597312,
				"z": -3.029308521,
				"element": "H" 
			},
			{
				"x": 1.8837493388,
				"y": 2.7313614035,
				"z": -2.718054091,
				"element": "H" 
			},
			{
				"x": -2.6200853879,
				"y": -1.2859183611,
				"z": 0.0743136087,
				"element": "H" 
			},
			{
				"x": -0.4653633667,
				"y": 0.2769865185,
				"z": 3.0398478604,
				"element": "H" 
			},
			{
				"x": -1.6174966478,
				"y": -0.2483561951,
				"z": 5.3528772158,
				"element": "H" 
			},
			{
				"x": -3.8475003148,
				"y": -1.6120987473,
				"z": 5.0359281253,
				"element": "H" 
			}
		],
		 "valence_orbital": [ 
			{
				"type": "occ",
				"energy": -0.30198,
				"method": "rhf"
			},
			{
				"type": "occ",
				"energy": -0.28918,
				"method": "rhf"
			},
			{
				"type": "occ",
				"energy": -0.27237,
				"method": "rhf"
			},
			{
				"type": "occ",
				"energy": -0.27105,
				"method": "rhf"
			},
			{
				"type": "occ",
				"energy": -0.24176,
				"method": "rhf"
			},
			{
				"type": "unocc",
				"energy": -0.09755,
				"method": "rhf"
			},
			{
				"type": "unocc",
				"energy": -0.00931,
				"method": "rhf"
			},
			{
				"type": "unocc",
				"energy": 0.00024,
				"method": "rhf"
			},
			{
				"type": "unocc",
				"energy": 0.00478,
				"method": "rhf"
			},
			{
				"type": "unocc",
				"energy": 0.05542,
				"method": "rhf"
			}
		],
		"cosmo_sigma_profile": { 
			"-0.025": 0.0,
			"-0.024": 0.0,
			"-0.023": 0.0,
			"-0.022": 0.0,
			"-0.021": 0.0,
			"-0.02": 0.0,
			"-0.019": 0.0,
			"-0.018": 0.0,
			"-0.017": 0.0,
			"-0.016": 0.0,
			"-0.015": 0.0,
			"-0.014": 0.0,
			"-0.013": 0.0,
			"-0.012": 0.0,
			"-0.011": 0.0,
			"-0.01": 1.68609402588,
			"-0.009": 2.42227932214,
			"-0.008": 4.42237429487,
			"-0.007": 5.563756116,
			"-0.006": 14.0840014669,
			"-0.005": 21.4897165362,
			"-0.004": 18.1804253577,
			"-0.003": 21.4429267203,
			"-0.002": 23.9614591767,
			"-0.001": 21.4236418609,
			"0.0": 18.6361918165,
			"0.001": 22.2678279345,
			"0.002": 20.2316211447,
			"0.003": 11.382778756,
			"0.004": 4.84405948573,
			"0.005": 4.79918763808,
			"0.006": 3.47353919512,
			"0.007": 5.1496634092,
			"0.008": 4.55019450543,
			"0.009": 5.75088527245,
			"0.01": 6.45491678611,
			"0.011": 7.16379837554,
			"0.012": 5.06576227906,
			"0.013": 1.47417838698,
			"0.014": 0.0,
			"0.015": 0.0,
			"0.016": 0.0,
			"0.017": 0.0,
			"0.018": 0.0,
			"0.019": 0.0,
			"0.02": 0.0,
			"0.021": 0.0,
			"0.022": 0.0,
			"0.023": 0.0,
			"0.024": 0.0,
			"0.025": 0.0
		}
	}
}
