{
	 "smiles": "COC(=O)CCOC1=CC=C(N)C=C1", 
	 "Tm": 325.15, 
	 "num_atms": 27, 
	 "gaussian": { 
		 "optdone": 1, 
		 "sigma_profile": "yes", 
		 "theory": "DFT", 
		 "functional": "B3LYP", 
		 "basiset": "6-31G**", 
		 "properties": { 
			 "R2extent": 4772.2655, 
			 "electric_dipole_moment_norm": 0.250092163012, 
			 "electric_quadrupole_moment_norm": 21.4390610737, 
			 "total_energy": -669.322158749, 
			 "HOMO_LUMO_gap": 0.18805, 
			 "cosmo_polarized_energy": -15.12, 
			 "cosmo_cavitation_energy": 31.47, 
			 "cosmo_dispersion_energy": -22.7, 
			 "cosmo_repulsion_energy": 1.84, 
			 "cosmo_total_nonelectrostatic_energy": 10.61, 
			 "SMD_solvation_energy": 6.93 
		},
		"coords": [
			{
				"x": 2.6677426273,
				"y": 2.932203394,
				"z": -3.4844650923,
				"element": "C" 
			},
			{
				"x": 2.7657899808,
				"y": 1.7013019283,
				"z": -2.7481695495,
				"element": "O" 
			},
			{
				"x": 2.1533421883,
				"y": 1.7002905901,
				"z": -1.5460320542,
				"element": "C" 
			},
			{
				"x": 1.5562779891,
				"y": 2.6530287162,
				"z": -1.0935377849,
				"element": "O" 
			},
			{
				"x": 2.3476083688,
				"y": 0.3768519765,
				"z": -0.8267052215,
				"element": "C" 
			},
			{
				"x": 1.1097422427,
				"y": -0.0222028504,
				"z": -0.0375839373,
				"element": "C" 
			},
			{
				"x": 0.1118742651,
				"y": -0.3822469173,
				"z": -0.9823737404,
				"element": "O" 
			},
			{
				"x": -1.1259025917,
				"y": -0.7485921922,
				"z": -0.512462082,
				"element": "C" 
			},
			{
				"x": -2.0724225692,
				"y": -1.0978640931,
				"z": -1.4842111952,
				"element": "C" 
			},
			{
				"x": -3.3539943201,
				"y": -1.4858338289,
				"z": -1.1160792257,
				"element": "C" 
			},
			{
				"x": -3.7341168007,
				"y": -1.5366804969,
				"z": 0.2371849136,
				"element": "C" 
			},
			{
				"x": -5.0123591081,
				"y": -1.9882691383,
				"z": 0.6082679564,
				"element": "N" 
			},
			{
				"x": -2.7807019959,
				"y": -1.1857558069,
				"z": 1.2002415406,
				"element": "C" 
			},
			{
				"x": -1.4886952589,
				"y": -0.7957462959,
				"z": 0.8360871252,
				"element": "C" 
			},
			{
				"x": 3.2073386082,
				"y": 2.7620337175,
				"z": -4.4159891706,
				"element": "H" 
			},
			{
				"x": 1.6216811161,
				"y": 3.1761871549,
				"z": -3.685012437,
				"element": "H" 
			},
			{
				"x": 3.119202381,
				"y": 3.7543705071,
				"z": -2.9233217109,
				"element": "H" 
			},
			{
				"x": 2.6202087215,
				"y": -0.4037728513,
				"z": -1.5403719723,
				"element": "H" 
			},
			{
				"x": 3.1886074837,
				"y": 0.5028059836,
				"z": -0.1331306147,
				"element": "H" 
			},
			{
				"x": 0.775189295,
				"y": 0.8238905748,
				"z": 0.5760553558,
				"element": "H" 
			},
			{
				"x": 1.3364551272,
				"y": -0.8707614259,
				"z": 0.6236108654,
				"element": "H" 
			},
			{
				"x": -1.7827419136,
				"y": -1.0561660274,
				"z": -2.5293474273,
				"element": "H" 
			},
			{
				"x": -4.0727957502,
				"y": -1.7579885606,
				"z": -1.8853658594,
				"element": "H" 
			},
			{
				"x": -5.7232024661,
				"y": -1.831485723,
				"z": -0.094554901,
				"element": "H" 
			},
			{
				"x": -5.3229654881,
				"y": -1.6474950018,
				"z": 1.5089303218,
				"element": "H" 
			},
			{
				"x": -3.0458474861,
				"y": -1.2194028272,
				"z": 2.2543499467,
				"element": "H" 
			},
			{
				"x": -0.7839146459,
				"y": -0.5283005061,
				"z": 1.6146859509,
				"element": "H" 
			}
		],
		 "valence_orbital": [ 
			{
				"type": "occ",
				"energy": -0.30025,
				"method": "rhf"
			},
			{
				"type": "occ",
				"energy": -0.27137,
				"method": "rhf"
			},
			{
				"type": "occ",
				"energy": -0.27053,
				"method": "rhf"
			},
			{
				"type": "occ",
				"energy": -0.2419,
				"method": "rhf"
			},
			{
				"type": "occ",
				"energy": -0.18183,
				"method": "rhf"
			},
			{
				"type": "unocc",
				"energy": 0.00622,
				"method": "rhf"
			},
			{
				"type": "unocc",
				"energy": 0.0132,
				"method": "rhf"
			},
			{
				"type": "unocc",
				"energy": 0.03543,
				"method": "rhf"
			},
			{
				"type": "unocc",
				"energy": 0.08586,
				"method": "rhf"
			},
			{
				"type": "unocc",
				"energy": 0.10394,
				"method": "rhf"
			}
		],
		"cosmo_sigma_profile": { 
			"-0.025": 0.0,
			"-0.024": 0.0,
			"-0.023": 0.0,
			"-0.022": 0.0,
			"-0.021": 0.0,
			"-0.02": 0.0,
			"-0.019": 0.0,
			"-0.018": 0.0,
			"-0.017": 0.0,
			"-0.016": 0.0,
			"-0.015": 0.0,
			"-0.014": 0.0,
			"-0.013": 0.0,
			"-0.012": 1.14192781804,
			"-0.011": 3.11962448988,
			"-0.01": 2.62598557796,
			"-0.009": 2.95210774692,
			"-0.008": 4.36353456823,
			"-0.007": 6.80105827353,
			"-0.006": 15.5911970343,
			"-0.005": 25.0474411211,
			"-0.004": 23.6552402719,
			"-0.003": 22.8654931956,
			"-0.002": 12.7991070098,
			"-0.001": 10.91877465,
			"0.0": 11.1631484817,
			"0.001": 8.64425396752,
			"0.002": 9.60583185765,
			"0.003": 10.6608325182,
			"0.004": 11.3055286687,
			"0.005": 13.9022041056,
			"0.006": 15.5526689284,
			"0.007": 11.7896943403,
			"0.008": 5.30820849949,
			"0.009": 3.91720491264,
			"0.01": 3.11564928608,
			"0.011": 3.59570339866,
			"0.012": 5.30186045384,
			"0.013": 0.934381772609,
			"0.014": 0.57600050259,
			"0.015": 0.745110760702,
			"0.016": 0.32808894506,
			"0.017": 0.0,
			"0.018": 0.0,
			"0.019": 0.0,
			"0.02": 0.0,
			"0.021": 0.0,
			"0.022": 0.0,
			"0.023": 0.0,
			"0.024": 0.0,
			"0.025": 0.0
		}
	}
}
