{
	 "smiles": "CC(C)(C)OC(=O)N1CCN(CC2=CC=CC=C2)CC1", 
	 "Tm": 345.15, 
	 "num_atms": 44, 
	 "gaussian": { 
		 "optdone": 1, 
		 "sigma_profile": "yes", 
		 "theory": "DFT", 
		 "functional": "B3LYP", 
		 "basiset": "6-31G**", 
		 "properties": { 
			 "R2extent": 9363.3538, 
			 "electric_dipole_moment_norm": 2.27191019849, 
			 "electric_quadrupole_moment_norm": 7.59144300973, 
			 "total_energy": -884.142216786, 
			 "HOMO_LUMO_gap": 0.20811, 
			 "cosmo_polarized_energy": -10.34, 
			 "cosmo_cavitation_energy": 44.16, 
			 "cosmo_dispersion_energy": -30.66, 
			 "cosmo_repulsion_energy": 2.37, 
			 "cosmo_total_nonelectrostatic_energy": 15.87, 
			 "SMD_solvation_energy": 5.93 
		},
		"coords": [
			{
				"x": -3.9439037753,
				"y": -1.2238857318,
				"z": 2.6566967211,
				"element": "C" 
			},
			{
				"x": -3.1362731319,
				"y": -0.0062414774,
				"z": 3.1149642626,
				"element": "C" 
			},
			{
				"x": -4.0088450416,
				"y": 1.2538061834,
				"z": 3.1166689332,
				"element": "C" 
			},
			{
				"x": -2.4909283542,
				"y": -0.2668570308,
				"z": 4.4806006959,
				"element": "C" 
			},
			{
				"x": -2.0990342189,
				"y": 0.0965210531,
				"z": 2.0788072703,
				"element": "O" 
			},
			{
				"x": -1.1709590276,
				"y": 1.0872074145,
				"z": 2.1199628214,
				"element": "C" 
			},
			{
				"x": -1.07650323,
				"y": 1.9411693223,
				"z": 2.9925299137,
				"element": "O" 
			},
			{
				"x": -0.3373863275,
				"y": 1.0081224158,
				"z": 1.0384046089,
				"element": "N" 
			},
			{
				"x": 0.8003841768,
				"y": 1.9275671573,
				"z": 0.9582418603,
				"element": "C" 
			},
			{
				"x": 2.0102518196,
				"y": 1.1936166886,
				"z": 0.388840961,
				"element": "C" 
			},
			{
				"x": 1.7554732043,
				"y": 0.7308303258,
				"z": -0.9821868829,
				"element": "N" 
			},
			{
				"x": 2.6912128061,
				"y": -0.3188010174,
				"z": -1.3780726454,
				"element": "C" 
			},
			{
				"x": 2.74217201,
				"y": -0.5522114014,
				"z": -2.8770801402,
				"element": "C" 
			},
			{
				"x": 2.8207894102,
				"y": -1.8500223036,
				"z": -3.394541329,
				"element": "C" 
			},
			{
				"x": 2.9212003521,
				"y": -2.066466892,
				"z": -4.7710575415,
				"element": "C" 
			},
			{
				"x": 2.9363419316,
				"y": -0.9824979433,
				"z": -5.6489958759,
				"element": "C" 
			},
			{
				"x": 2.8504142867,
				"y": 0.3172982818,
				"z": -5.1422279243,
				"element": "C" 
			},
			{
				"x": 2.754809084,
				"y": 0.5304286689,
				"z": -3.767724124,
				"element": "C" 
			},
			{
				"x": 0.3371805042,
				"y": 0.4092739753,
				"z": -1.2278977764,
				"element": "C" 
			},
			{
				"x": -0.4240088413,
				"y": -0.0456677307,
				"z": 0.021676263,
				"element": "C" 
			},
			{
				"x": -4.7613395386,
				"y": -1.4188026358,
				"z": 3.3573071168,
				"element": "H" 
			},
			{
				"x": -3.3084471465,
				"y": -2.1131368799,
				"z": 2.6096273644,
				"element": "H" 
			},
			{
				"x": -4.3719589092,
				"y": -1.0529844838,
				"z": 1.6644636701,
				"element": "H" 
			},
			{
				"x": -4.420684985,
				"y": 1.43139457,
				"z": 2.1179437178,
				"element": "H" 
			},
			{
				"x": -4.8458820519,
				"y": 1.1205153476,
				"z": 3.8099038461,
				"element": "H" 
			},
			{
				"x": -3.4317351407,
				"y": 2.1266689436,
				"z": 3.4220735571,
				"element": "H" 
			},
			{
				"x": -1.8950647707,
				"y": 0.5888535638,
				"z": 4.7981093116,
				"element": "H" 
			},
			{
				"x": -1.8467813735,
				"y": -1.1508139592,
				"z": 4.4328059738,
				"element": "H" 
			},
			{
				"x": -3.2703054733,
				"y": -0.4548032735,
				"z": 5.2264404245,
				"element": "H" 
			},
			{
				"x": 0.5588858253,
				"y": 2.7972266716,
				"z": 0.3312783424,
				"element": "H" 
			},
			{
				"x": 1.0075867235,
				"y": 2.2958724293,
				"z": 1.9638927277,
				"element": "H" 
			},
			{
				"x": 2.8806253002,
				"y": 1.8622577912,
				"z": 0.3884582248,
				"element": "H" 
			},
			{
				"x": 2.2502881662,
				"y": 0.3544637527,
				"z": 1.068688618,
				"element": "H" 
			},
			{
				"x": 2.49447096,
				"y": -1.2809351275,
				"z": -0.8648820173,
				"element": "H" 
			},
			{
				"x": 3.6858543594,
				"y": 0.0011146387,
				"z": -1.0376992886,
				"element": "H" 
			},
			{
				"x": 2.8038442152,
				"y": -2.6987722905,
				"z": -2.7144417273,
				"element": "H" 
			},
			{
				"x": 2.9806397271,
				"y": -3.0809598213,
				"z": -5.1554746889,
				"element": "H" 
			},
			{
				"x": 3.0099411975,
				"y": -1.1476668225,
				"z": -6.7201824519,
				"element": "H" 
			},
			{
				"x": 2.8579459479,
				"y": 1.1661699817,
				"z": -5.8206024716,
				"element": "H" 
			},
			{
				"x": 2.6764349269,
				"y": 1.5367236991,
				"z": -3.3674024997,
				"element": "H" 
			},
			{
				"x": 0.2773625192,
				"y": -0.3688276816,
				"z": -1.9932704602,
				"element": "H" 
			},
			{
				"x": -0.1700631823,
				"y": 1.2915752538,
				"z": -1.639682524,
				"element": "H" 
			},
			{
				"x": -1.4726270565,
				"y": -0.2273647219,
				"z": -0.2247138035,
				"element": "H" 
			},
			{
				"x": -0.0130778776,
				"y": -0.9921589041,
				"z": 0.4027489664,
				"element": "H" 
			}
		],
		 "valence_orbital": [ 
			{
				"type": "occ",
				"energy": -0.25541,
				"method": "rhf"
			},
			{
				"type": "occ",
				"energy": -0.2482,
				"method": "rhf"
			},
			{
				"type": "occ",
				"energy": -0.24316,
				"method": "rhf"
			},
			{
				"type": "occ",
				"energy": -0.23127,
				"method": "rhf"
			},
			{
				"type": "occ",
				"energy": -0.21073,
				"method": "rhf"
			},
			{
				"type": "unocc",
				"energy": -0.00262,
				"method": "rhf"
			},
			{
				"type": "unocc",
				"energy": 0.00067,
				"method": "rhf"
			},
			{
				"type": "unocc",
				"energy": 0.05911,
				"method": "rhf"
			},
			{
				"type": "unocc",
				"energy": 0.0751,
				"method": "rhf"
			},
			{
				"type": "unocc",
				"energy": 0.0913,
				"method": "rhf"
			}
		],
		"cosmo_sigma_profile": { 
			"-0.025": 0.0,
			"-0.024": 0.0,
			"-0.023": 0.0,
			"-0.022": 0.0,
			"-0.021": 0.0,
			"-0.02": 0.0,
			"-0.019": 0.0,
			"-0.018": 0.0,
			"-0.017": 0.0,
			"-0.016": 0.0,
			"-0.015": 0.0,
			"-0.014": 0.0,
			"-0.013": 0.0,
			"-0.012": 0.0,
			"-0.011": 0.0,
			"-0.01": 0.0,
			"-0.009": 0.0,
			"-0.008": 0.0,
			"-0.007": 0.0,
			"-0.006": 1.33351192715,
			"-0.005": 10.375559156,
			"-0.004": 37.3772917786,
			"-0.003": 56.2031976521,
			"-0.002": 43.7628415854,
			"-0.001": 36.114416764,
			"0.0": 36.7651938055,
			"0.001": 31.5253891798,
			"0.002": 17.5401502823,
			"0.003": 14.4852216791,
			"0.004": 13.4368792096,
			"0.005": 12.6629054953,
			"0.006": 12.0170286025,
			"0.007": 6.14717576637,
			"0.008": 2.41185023592,
			"0.009": 2.18082640314,
			"0.01": 2.04299220276,
			"0.011": 1.93874275676,
			"0.012": 1.51164621602,
			"0.013": 2.68802189709,
			"0.014": 2.12023320703,
			"0.015": 0.0045963476051,
			"0.016": 0.0,
			"0.017": 0.0,
			"0.018": 0.0,
			"0.019": 0.0,
			"0.02": 0.0,
			"0.021": 0.0,
			"0.022": 0.0,
			"0.023": 0.0,
			"0.024": 0.0,
			"0.025": 0.0
		}
	}
}
