{
	 "smiles": "FC1=CC=C(CNC2=NC3=C(S2)C=CC=C3)C=C1", 
	 "Tm": 429.15, 
	 "num_atms": 29, 
	 "gaussian": { 
		 "optdone": 1, 
		 "sigma_profile": "yes", 
		 "theory": "DFT", 
		 "functional": "B3LYP", 
		 "basiset": "6-31G**", 
		 "properties": { 
			 "R2extent": 9079.9596, 
			 "electric_dipole_moment_norm": 1.12819219107, 
			 "electric_quadrupole_moment_norm": 5.77992362493, 
			 "total_energy": -1147.65805078, 
			 "HOMO_LUMO_gap": 0.18639, 
			 "cosmo_polarized_energy": -10.87, 
			 "cosmo_cavitation_energy": 35.87, 
			 "cosmo_dispersion_energy": -26.53, 
			 "cosmo_repulsion_energy": 1.97, 
			 "cosmo_total_nonelectrostatic_energy": 11.31, 
			 "SMD_solvation_energy": 3.98 
		},
		"coords": [
			{
				"x": -1.0942857298,
				"y": 4.9854020556,
				"z": 3.1129734621,
				"element": "F" 
			},
			{
				"x": -0.5558575681,
				"y": 3.8563204302,
				"z": 2.6080593832,
				"element": "C" 
			},
			{
				"x": -1.3634012991,
				"y": 2.9959377352,
				"z": 1.869853046,
				"element": "C" 
			},
			{
				"x": -0.8010455732,
				"y": 1.832004508,
				"z": 1.350607336,
				"element": "C" 
			},
			{
				"x": 0.550973753,
				"y": 1.5240748115,
				"z": 1.5659411303,
				"element": "C" 
			},
			{
				"x": 1.1567831359,
				"y": 0.2667640269,
				"z": 0.9821393095,
				"element": "C" 
			},
			{
				"x": 0.4026438579,
				"y": -0.9183268464,
				"z": 1.3958479548,
				"element": "N" 
			},
			{
				"x": 0.6119238256,
				"y": -2.1158917152,
				"z": 0.7758753143,
				"element": "C" 
			},
			{
				"x": 1.3045620505,
				"y": -2.27147616,
				"z": -0.3099229321,
				"element": "N" 
			},
			{
				"x": 1.278380251,
				"y": -3.5950611736,
				"z": -0.7258476562,
				"element": "C" 
			},
			{
				"x": 0.5419440433,
				"y": -4.4872243167,
				"z": 0.092500452,
				"element": "C" 
			},
			{
				"x": -0.1618954228,
				"y": -3.5926452767,
				"z": 1.440166144,
				"element": "S" 
			},
			{
				"x": 0.4440516825,
				"y": -5.8452091023,
				"z": -0.2013112571,
				"element": "C" 
			},
			{
				"x": 1.0946375602,
				"y": -6.3214264941,
				"z": -1.341097483,
				"element": "C" 
			},
			{
				"x": 1.826302604,
				"y": -5.4520074281,
				"z": -2.1624433663,
				"element": "C" 
			},
			{
				"x": 1.9237047925,
				"y": -4.0949173139,
				"z": -1.8641281225,
				"element": "C" 
			},
			{
				"x": 1.3302016336,
				"y": 2.4102827835,
				"z": 2.3180686692,
				"element": "C" 
			},
			{
				"x": 0.7859343575,
				"y": 3.5845033262,
				"z": 2.8419198586,
				"element": "C" 
			},
			{
				"x": -2.4065552081,
				"y": 3.246400072,
				"z": 1.7097614651,
				"element": "H" 
			},
			{
				"x": -1.4174025783,
				"y": 1.148937721,
				"z": 0.7732612411,
				"element": "H" 
			},
			{
				"x": 2.2144724551,
				"y": 0.1857259695,
				"z": 1.2703791502,
				"element": "H" 
			},
			{
				"x": 1.1355510347,
				"y": 0.2862747499,
				"z": -0.1118656652,
				"element": "H" 
			},
			{
				"x": 0.1112077506,
				"y": -0.9450665418,
				"z": 2.3627335622,
				"element": "H" 
			},
			{
				"x": -0.1227614474,
				"y": -6.5177763744,
				"z": 0.4347943203,
				"element": "H" 
			},
			{
				"x": 1.0306635491,
				"y": -7.3762323856,
				"z": -1.5905017296,
				"element": "H" 
			},
			{
				"x": 2.3250263268,
				"y": -5.8423284518,
				"z": -3.0447619353,
				"element": "H" 
			},
			{
				"x": 2.4883204659,
				"y": -3.4144922153,
				"z": -2.4931628655,
				"element": "H" 
			},
			{
				"x": 2.3779628388,
				"y": 2.1840329407,
				"z": 2.4974731806,
				"element": "H" 
			},
			{
				"x": 1.3809568583,
				"y": 4.2784206657,
				"z": 3.4255880331,
				"element": "H" 
			}
		],
		 "valence_orbital": [ 
			{
				"type": "occ",
				"energy": -0.27425,
				"method": "rhf"
			},
			{
				"type": "occ",
				"energy": -0.268,
				"method": "rhf"
			},
			{
				"type": "occ",
				"energy": -0.24743,
				"method": "rhf"
			},
			{
				"type": "occ",
				"energy": -0.22839,
				"method": "rhf"
			},
			{
				"type": "occ",
				"energy": -0.20701,
				"method": "rhf"
			},
			{
				"type": "unocc",
				"energy": -0.02062,
				"method": "rhf"
			},
			{
				"type": "unocc",
				"energy": -0.01102,
				"method": "rhf"
			},
			{
				"type": "unocc",
				"energy": -0.00939,
				"method": "rhf"
			},
			{
				"type": "unocc",
				"energy": 0.00124,
				"method": "rhf"
			},
			{
				"type": "unocc",
				"energy": 0.00243,
				"method": "rhf"
			}
		],
		"cosmo_sigma_profile": { 
			"-0.025": 0.0,
			"-0.024": 0.0,
			"-0.023": 0.0,
			"-0.022": 0.0,
			"-0.021": 0.0,
			"-0.02": 0.0,
			"-0.019": 0.0,
			"-0.018": 0.0,
			"-0.017": 0.0,
			"-0.016": 0.00685429488908,
			"-0.015": 0.609836936616,
			"-0.014": 0.898532520859,
			"-0.013": 1.26156749022,
			"-0.012": 1.13124331612,
			"-0.011": 0.954152081837,
			"-0.01": 1.15842407622,
			"-0.009": 1.4912666116,
			"-0.008": 1.23075202643,
			"-0.007": 5.83973411963,
			"-0.006": 16.3908061068,
			"-0.005": 19.9188171452,
			"-0.004": 22.5410626463,
			"-0.003": 18.9779847858,
			"-0.002": 16.400287163,
			"-0.001": 15.9870531845,
			"0.0": 16.737470149,
			"0.001": 25.175240001,
			"0.002": 25.8353794857,
			"0.003": 26.6016655951,
			"0.004": 34.3765388402,
			"0.005": 19.1120328198,
			"0.006": 8.33414967004,
			"0.007": 2.07918777157,
			"0.008": 1.9411666161,
			"0.009": 0.528105886153,
			"0.01": 0.948379437539,
			"0.011": 1.66708786679,
			"0.012": 0.952327258196,
			"0.013": 0.71599089139,
			"0.014": 0.40637000029,
			"0.015": 0.0,
			"0.016": 0.0,
			"0.017": 0.0,
			"0.018": 0.0,
			"0.019": 0.0,
			"0.02": 0.0,
			"0.021": 0.0,
			"0.022": 0.0,
			"0.023": 0.0,
			"0.024": 0.0,
			"0.025": 0.0
		}
	}
}
