{
	 "smiles": "CC(C)(C)OC(=O)NCC(=O)NCC(O)=O", 
	 "Tm": 393.15, 
	 "num_atms": 32, 
	 "gaussian": { 
		 "optdone": 1, 
		 "sigma_profile": "yes", 
		 "theory": "DFT", 
		 "functional": "B3LYP", 
		 "basiset": "6-31G**", 
		 "properties": { 
			 "R2extent": 4223.7142, 
			 "electric_dipole_moment_norm": 4.43340455745, 
			 "electric_quadrupole_moment_norm": 20.19430993, 
			 "total_energy": -838.279406687, 
			 "HOMO_LUMO_gap": 0.23408, 
			 "cosmo_polarized_energy": -24.72, 
			 "cosmo_cavitation_energy": 35.99, 
			 "cosmo_dispersion_energy": -23.21, 
			 "cosmo_repulsion_energy": 1.82, 
			 "cosmo_total_nonelectrostatic_energy": 14.6, 
			 "SMD_solvation_energy": 7.52 
		},
		"coords": [
			{
				"x": -0.9367928764,
				"y": -0.3290354895,
				"z": -2.5390349747,
				"element": "C" 
			},
			{
				"x": -0.3067463145,
				"y": 0.9296434882,
				"z": -1.9356342188,
				"element": "C" 
			},
			{
				"x": 1.2121836909,
				"y": 0.9287816578,
				"z": -2.1372492934,
				"element": "C" 
			},
			{
				"x": -0.9710322003,
				"y": 2.1937789756,
				"z": -2.4897209564,
				"element": "C" 
			},
			{
				"x": -0.6172269908,
				"y": 0.7820613711,
				"z": -0.5051744535,
				"element": "O" 
			},
			{
				"x": -0.1674928571,
				"y": 1.6809992056,
				"z": 0.3994062319,
				"element": "C" 
			},
			{
				"x": 0.4051327126,
				"y": 2.7280467625,
				"z": 0.1615479166,
				"element": "O" 
			},
			{
				"x": -0.5021264284,
				"y": 1.2789222934,
				"z": 1.6793301659,
				"element": "N" 
			},
			{
				"x": -0.8251634087,
				"y": -0.0939485363,
				"z": 1.990202573,
				"element": "C" 
			},
			{
				"x": 0.3861807456,
				"y": -1.0377855395,
				"z": 1.8494849911,
				"element": "C" 
			},
			{
				"x": 1.5082602304,
				"y": -0.6176386403,
				"z": 1.6204810724,
				"element": "O" 
			},
			{
				"x": 0.1497783865,
				"y": -2.3796352938,
				"z": 2.045401088,
				"element": "N" 
			},
			{
				"x": -1.1402660313,
				"y": -3.0311974816,
				"z": 2.0749624194,
				"element": "C" 
			},
			{
				"x": -1.7854504863,
				"y": -3.3431750405,
				"z": 0.7226381488,
				"element": "C" 
			},
			{
				"x": -0.8792852694,
				"y": -3.4518315042,
				"z": -0.2722371367,
				"element": "O" 
			},
			{
				"x": -2.9727051264,
				"y": -3.5156067517,
				"z": 0.5727698187,
				"element": "O" 
			},
			{
				"x": -0.5025639768,
				"y": -1.2252695138,
				"z": -2.0856716466,
				"element": "H" 
			},
			{
				"x": -2.017451286,
				"y": -0.340372287,
				"z": -2.3663170079,
				"element": "H" 
			},
			{
				"x": -0.7583227519,
				"y": -0.3597805709,
				"z": -3.6179663975,
				"element": "H" 
			},
			{
				"x": 1.6623067186,
				"y": 1.8266814662,
				"z": -1.7134332886,
				"element": "H" 
			},
			{
				"x": 1.4410656547,
				"y": 0.8883744072,
				"z": -3.2072305852,
				"element": "H" 
			},
			{
				"x": 1.6562921618,
				"y": 0.0535972868,
				"z": -1.6534536282,
				"element": "H" 
			},
			{
				"x": -0.8270312917,
				"y": 2.2397734434,
				"z": -3.5743091031,
				"element": "H" 
			},
			{
				"x": -0.5408418963,
				"y": 3.0872091207,
				"z": -2.0369050495,
				"element": "H" 
			},
			{
				"x": -2.0472100791,
				"y": 2.1774125752,
				"z": -2.2898402001,
				"element": "H" 
			},
			{
				"x": 0.0402334185,
				"y": 1.7819979822,
				"z": 2.3678546058,
				"element": "H" 
			},
			{
				"x": -1.6380533828,
				"y": -0.4220158791,
				"z": 1.3380663563,
				"element": "H" 
			},
			{
				"x": -1.2001050172,
				"y": -0.1411025537,
				"z": 3.0196329731,
				"element": "H" 
			},
			{
				"x": 0.9579984321,
				"y": -2.952863256,
				"z": 1.8387481648,
				"element": "H" 
			},
			{
				"x": -1.0418457585,
				"y": -3.9878210837,
				"z": 2.6017068606,
				"element": "H" 
			},
			{
				"x": -1.8668966034,
				"y": -2.4495009717,
				"z": 2.6448968764,
				"element": "H" 
			},
			{
				"x": -1.3792221183,
				"y": -3.6693996426,
				"z": -1.0774523224,
				"element": "H" 
			}
		],
		 "valence_orbital": [ 
			{
				"type": "occ",
				"energy": -0.2856,
				"method": "rhf"
			},
			{
				"type": "occ",
				"energy": -0.2714,
				"method": "rhf"
			},
			{
				"type": "occ",
				"energy": -0.26261,
				"method": "rhf"
			},
			{
				"type": "occ",
				"energy": -0.25931,
				"method": "rhf"
			},
			{
				"type": "occ",
				"energy": -0.24888,
				"method": "rhf"
			},
			{
				"type": "unocc",
				"energy": -0.0148,
				"method": "rhf"
			},
			{
				"type": "unocc",
				"energy": 0.01328,
				"method": "rhf"
			},
			{
				"type": "unocc",
				"energy": 0.04729,
				"method": "rhf"
			},
			{
				"type": "unocc",
				"energy": 0.05345,
				"method": "rhf"
			},
			{
				"type": "unocc",
				"energy": 0.08032,
				"method": "rhf"
			}
		],
		"cosmo_sigma_profile": { 
			"-0.025": 0.0,
			"-0.024": 0.0,
			"-0.023": 0.0,
			"-0.022": 0.0,
			"-0.021": 0.0,
			"-0.02": 0.0,
			"-0.019": 0.0840958349009,
			"-0.018": 0.675416521923,
			"-0.017": 0.950007748305,
			"-0.016": 0.64549654007,
			"-0.015": 0.702886020376,
			"-0.014": 2.09040554075,
			"-0.013": 2.52235916391,
			"-0.012": 2.69691100343,
			"-0.011": 3.47459858195,
			"-0.01": 3.69299210717,
			"-0.009": 7.67422232997,
			"-0.008": 11.2709328586,
			"-0.007": 8.07280092874,
			"-0.006": 7.56090837714,
			"-0.005": 7.76608119014,
			"-0.004": 16.7541703672,
			"-0.003": 18.3602846726,
			"-0.002": 21.6471805753,
			"-0.001": 21.2564313669,
			"0.0": 25.9042763291,
			"0.001": 20.4098043379,
			"0.002": 11.4761408057,
			"0.003": 12.1172216286,
			"0.004": 9.81917505628,
			"0.005": 7.9469184228,
			"0.006": 6.86048837809,
			"0.007": 7.08281872238,
			"0.008": 5.90889570337,
			"0.009": 4.48574701621,
			"0.01": 5.24173607245,
			"0.011": 7.82345684208,
			"0.012": 7.67532636189,
			"0.013": 8.02326435031,
			"0.014": 2.28319122737,
			"0.015": 0.0,
			"0.016": 0.0,
			"0.017": 0.0,
			"0.018": 0.0,
			"0.019": 0.0,
			"0.02": 0.0,
			"0.021": 0.0,
			"0.022": 0.0,
			"0.023": 0.0,
			"0.024": 0.0,
			"0.025": 0.0
		}
	}
}
