{
	 "smiles": "COC1=CC(N)=C(NC(=O)OC(C)(C)C)C=C1", 
	 "Tm": 390.15, 
	 "num_atms": 35, 
	 "gaussian": { 
		 "optdone": 1, 
		 "sigma_profile": "yes", 
		 "theory": "DFT", 
		 "functional": "B3LYP", 
		 "basiset": "6-31G**", 
		 "properties": { 
			 "R2extent": 5558.2097, 
			 "electric_dipole_moment_norm": 3.53779623212, 
			 "electric_quadrupole_moment_norm": 7.49217642011, 
			 "total_energy": -803.328995401, 
			 "HOMO_LUMO_gap": 0.20049, 
			 "cosmo_polarized_energy": -15.19, 
			 "cosmo_cavitation_energy": 37.43, 
			 "cosmo_dispersion_energy": -25.65, 
			 "cosmo_repulsion_energy": 2.0, 
			 "cosmo_total_nonelectrostatic_energy": 13.79, 
			 "SMD_solvation_energy": 8.09 
		},
		"coords": [
			{
				"x": -1.3084842803,
				"y": 5.3159000548,
				"z": 1.9935727095,
				"element": "C" 
			},
			{
				"x": -2.0152120697,
				"y": 4.7495623177,
				"z": 0.9037463314,
				"element": "O" 
			},
			{
				"x": -1.5311316932,
				"y": 3.6035779205,
				"z": 0.3393768765,
				"element": "C" 
			},
			{
				"x": -0.3902778098,
				"y": 2.9330289618,
				"z": 0.7827112645,
				"element": "C" 
			},
			{
				"x": 0.0551648984,
				"y": 1.7609052879,
				"z": 0.1416217214,
				"element": "C" 
			},
			{
				"x": 1.2405121546,
				"y": 1.1520478679,
				"z": 0.5442875269,
				"element": "N" 
			},
			{
				"x": -0.6887669845,
				"y": 1.2558591958,
				"z": -0.9455243856,
				"element": "C" 
			},
			{
				"x": -0.2425038062,
				"y": 0.1230311378,
				"z": -1.6971793279,
				"element": "N" 
			},
			{
				"x": -0.2236667718,
				"y": -1.201555523,
				"z": -1.3323427283,
				"element": "C" 
			},
			{
				"x": -0.0605255577,
				"y": -2.1077449242,
				"z": -2.132470894,
				"element": "O" 
			},
			{
				"x": -0.3581611347,
				"y": -1.3366651883,
				"z": 0.0118892734,
				"element": "O" 
			},
			{
				"x": -0.4701803625,
				"y": -2.6717428177,
				"z": 0.6277441026,
				"element": "C" 
			},
			{
				"x": 0.8278633664,
				"y": -3.4582292847,
				"z": 0.4179291111,
				"element": "C" 
			},
			{
				"x": -0.674899551,
				"y": -2.3372281896,
				"z": 2.1074196736,
				"element": "C" 
			},
			{
				"x": -1.6910237979,
				"y": -3.4054856474,
				"z": 0.0633489614,
				"element": "C" 
			},
			{
				"x": -1.8383108839,
				"y": 1.9362221093,
				"z": -1.3625159328,
				"element": "C" 
			},
			{
				"x": -2.2660628066,
				"y": 3.1029903105,
				"z": -0.7451584624,
				"element": "C" 
			},
			{
				"x": -1.2721460237,
				"y": 4.6337317061,
				"z": 2.8533593347,
				"element": "H" 
			},
			{
				"x": -1.8576704136,
				"y": 6.2158965759,
				"z": 2.2752461809,
				"element": "H" 
			},
			{
				"x": -0.2834586886,
				"y": 5.5925314323,
				"z": 1.7139190899,
				"element": "H" 
			},
			{
				"x": 0.1847722038,
				"y": 3.3096061009,
				"z": 1.6214671912,
				"element": "H" 
			},
			{
				"x": 1.5564082156,
				"y": 1.4328640529,
				"z": 1.4627393498,
				"element": "H" 
			},
			{
				"x": 1.2355940562,
				"y": 0.1457932368,
				"z": 0.4436364921,
				"element": "H" 
			},
			{
				"x": -0.171069804,
				"y": 0.232202337,
				"z": -2.6993561381,
				"element": "H" 
			},
			{
				"x": 0.7742656732,
				"y": -4.406901895,
				"z": 0.9619891337,
				"element": "H" 
			},
			{
				"x": 1.6837469784,
				"y": -2.8960019535,
				"z": 0.8063022143,
				"element": "H" 
			},
			{
				"x": 0.9907681029,
				"y": -3.6640342618,
				"z": -0.6399052626,
				"element": "H" 
			},
			{
				"x": -1.577046349,
				"y": -1.7348991504,
				"z": 2.24601676,
				"element": "H" 
			},
			{
				"x": 0.1778507583,
				"y": -1.7746210706,
				"z": 2.4996221498,
				"element": "H" 
			},
			{
				"x": -0.7767326226,
				"y": -3.257839095,
				"z": 2.6895488926,
				"element": "H" 
			},
			{
				"x": -1.5578558344,
				"y": -3.6298694682,
				"z": -0.9951479192,
				"element": "H" 
			},
			{
				"x": -2.5914381635,
				"y": -2.7958940934,
				"z": 0.1882845351,
				"element": "H" 
			},
			{
				"x": -1.8374789371,
				"y": -4.3439092054,
				"z": 0.6077725985,
				"element": "H" 
			},
			{
				"x": -2.4018817748,
				"y": 1.5312291353,
				"z": -2.1988993648,
				"element": "H" 
			},
			{
				"x": -3.1532602865,
				"y": 3.6319420269,
				"z": -1.0736510589,
				"element": "H" 
			}
		],
		 "valence_orbital": [ 
			{
				"type": "occ",
				"energy": -0.29068,
				"method": "rhf"
			},
			{
				"type": "occ",
				"energy": -0.26555,
				"method": "rhf"
			},
			{
				"type": "occ",
				"energy": -0.2633,
				"method": "rhf"
			},
			{
				"type": "occ",
				"energy": -0.22295,
				"method": "rhf"
			},
			{
				"type": "occ",
				"energy": -0.19345,
				"method": "rhf"
			},
			{
				"type": "unocc",
				"energy": 0.00704,
				"method": "rhf"
			},
			{
				"type": "unocc",
				"energy": 0.02046,
				"method": "rhf"
			},
			{
				"type": "unocc",
				"energy": 0.05665,
				"method": "rhf"
			},
			{
				"type": "unocc",
				"energy": 0.0705,
				"method": "rhf"
			},
			{
				"type": "unocc",
				"energy": 0.09083,
				"method": "rhf"
			}
		],
		"cosmo_sigma_profile": { 
			"-0.025": 0.0,
			"-0.024": 0.0,
			"-0.023": 0.0,
			"-0.022": 0.0,
			"-0.021": 0.0,
			"-0.02": 0.0,
			"-0.019": 0.0,
			"-0.018": 0.0,
			"-0.017": 0.0,
			"-0.016": 0.0,
			"-0.015": 0.00773664652894,
			"-0.014": 0.748875295263,
			"-0.013": 1.16776956606,
			"-0.012": 2.1584883621,
			"-0.011": 1.88075439913,
			"-0.01": 2.99163728744,
			"-0.009": 2.19223062373,
			"-0.008": 3.55575265624,
			"-0.007": 4.19499930112,
			"-0.006": 9.00794255601,
			"-0.005": 16.1708753926,
			"-0.004": 28.0165665614,
			"-0.003": 31.8780380401,
			"-0.002": 23.454549142,
			"-0.001": 22.1364749958,
			"0.0": 29.1069438432,
			"0.001": 22.5287080711,
			"0.002": 10.6426037149,
			"0.003": 9.84044741221,
			"0.004": 11.4005546396,
			"0.005": 15.6808887313,
			"0.006": 13.5901251903,
			"0.007": 6.22945196329,
			"0.008": 4.79705837162,
			"0.009": 4.55823484265,
			"0.01": 3.4647533526,
			"0.011": 2.87357173175,
			"0.012": 2.93947788139,
			"0.013": 4.31166999819,
			"0.014": 1.8668460141,
			"0.015": 0.203276969235,
			"0.016": 0.0,
			"0.017": 0.0,
			"0.018": 0.0,
			"0.019": 0.0,
			"0.02": 0.0,
			"0.021": 0.0,
			"0.022": 0.0,
			"0.023": 0.0,
			"0.024": 0.0,
			"0.025": 0.0
		}
	}
}
