{
	 "smiles": "NC1=C(C=C(C=C1Cl)[N+]([O-])=O)C#N", 
	 "Tm": 455.15, 
	 "num_atms": 17, 
	 "gaussian": { 
		 "optdone": 1, 
		 "sigma_profile": "yes", 
		 "theory": "DFT", 
		 "functional": "B3LYP", 
		 "basiset": "6-31G**", 
		 "properties": { 
			 "R2extent": 3796.3238, 
			 "electric_dipole_moment_norm": 4.88282689843, 
			 "electric_quadrupole_moment_norm": 14.1981500862, 
			 "total_energy": -1043.93906117, 
			 "HOMO_LUMO_gap": 0.15789, 
			 "cosmo_polarized_energy": -14.91, 
			 "cosmo_cavitation_energy": 25.36, 
			 "cosmo_dispersion_energy": -18.38, 
			 "cosmo_repulsion_energy": 1.45, 
			 "cosmo_total_nonelectrostatic_energy": 8.43, 
			 "SMD_solvation_energy": 7.58 
		},
		"coords": [
			{
				"x": 1.3043364719,
				"y": -3.6866281566,
				"z": 1.0493816197,
				"element": "N" 
			},
			{
				"x": 0.673754623,
				"y": -2.4917274951,
				"z": 1.0649032898,
				"element": "C" 
			},
			{
				"x": -0.6983116202,
				"y": -2.3753568937,
				"z": 0.6825846932,
				"element": "C" 
			},
			{
				"x": -1.353992892,
				"y": -1.1431474046,
				"z": 0.696994423,
				"element": "C" 
			},
			{
				"x": -0.6556759102,
				"y": -0.0101752808,
				"z": 1.0912474924,
				"element": "C" 
			},
			{
				"x": 0.6881026014,
				"y": -0.0773390158,
				"z": 1.4735416001,
				"element": "C" 
			},
			{
				"x": 1.3334613006,
				"y": -1.2978396214,
				"z": 1.4580987566,
				"element": "C" 
			},
			{
				"x": 3.019004045,
				"y": -1.3914080005,
				"z": 1.9360423359,
				"element": "Cl" 
			},
			{
				"x": -1.3344104038,
				"y": 1.2827596425,
				"z": 1.1090384917,
				"element": "N" 
			},
			{
				"x": -2.5172159193,
				"y": 1.3095888225,
				"z": 0.7674203211,
				"element": "O" 
			},
			{
				"x": -0.6804678292,
				"y": 2.2642337238,
				"z": 1.4647346138,
				"element": "O" 
			},
			{
				"x": -1.3805336494,
				"y": -3.5655946128,
				"z": 0.2833772078,
				"element": "C" 
			},
			{
				"x": -1.8701119284,
				"y": -4.5748179582,
				"z": -0.0291577525,
				"element": "N" 
			},
			{
				"x": 2.2715245601,
				"y": -3.7550551498,
				"z": 1.3208888998,
				"element": "H" 
			},
			{
				"x": 0.8127427359,
				"y": -4.5200227053,
				"z": 0.7654289328,
				"element": "H" 
			},
			{
				"x": -2.3934498041,
				"y": -1.0624569158,
				"z": 0.406142613,
				"element": "H" 
			},
			{
				"x": 1.2032436189,
				"y": 0.8254870217,
				"z": 1.7756324618,
				"element": "H" 
			}
		],
		 "valence_orbital": [ 
			{
				"type": "occ",
				"energy": -0.31674,
				"method": "rhf"
			},
			{
				"type": "occ",
				"energy": -0.31588,
				"method": "rhf"
			},
			{
				"type": "occ",
				"energy": -0.29893,
				"method": "rhf"
			},
			{
				"type": "occ",
				"energy": -0.28907,
				"method": "rhf"
			},
			{
				"type": "occ",
				"energy": -0.25389,
				"method": "rhf"
			},
			{
				"type": "unocc",
				"energy": -0.096,
				"method": "rhf"
			},
			{
				"type": "unocc",
				"energy": -0.075,
				"method": "rhf"
			},
			{
				"type": "unocc",
				"energy": -0.01423,
				"method": "rhf"
			},
			{
				"type": "unocc",
				"energy": -0.01111,
				"method": "rhf"
			},
			{
				"type": "unocc",
				"energy": 0.01456,
				"method": "rhf"
			}
		],
		"cosmo_sigma_profile": { 
			"-0.025": 0.0,
			"-0.024": 0.0,
			"-0.023": 0.0,
			"-0.022": 0.0,
			"-0.021": 0.0,
			"-0.02": 0.0,
			"-0.019": 0.0,
			"-0.018": 0.0,
			"-0.017": 0.0,
			"-0.016": 0.0301037108058,
			"-0.015": 1.08496555316,
			"-0.014": 1.69211019004,
			"-0.013": 1.82560242922,
			"-0.012": 2.69803853672,
			"-0.011": 1.75401531609,
			"-0.01": 2.43653840672,
			"-0.009": 3.60322046269,
			"-0.008": 4.51062933629,
			"-0.007": 5.45237911359,
			"-0.006": 6.56328746559,
			"-0.005": 7.69557976269,
			"-0.004": 9.57158525198,
			"-0.003": 17.9808246525,
			"-0.002": 24.2702626541,
			"-0.001": 19.9467357854,
			"0.0": 11.8057637699,
			"0.001": 9.60565580879,
			"0.002": 8.82416023819,
			"0.003": 10.8475396943,
			"0.004": 5.90682808436,
			"0.005": 5.39632778536,
			"0.006": 4.64273977397,
			"0.007": 10.4275472766,
			"0.008": 10.850923832,
			"0.009": 7.42868127877,
			"0.01": 5.83753400797,
			"0.011": 2.7681438092,
			"0.012": 1.95648770407,
			"0.013": 0.266732443966,
			"0.014": 0.0,
			"0.015": 0.0,
			"0.016": 0.0,
			"0.017": 0.0,
			"0.018": 0.0,
			"0.019": 0.0,
			"0.02": 0.0,
			"0.021": 0.0,
			"0.022": 0.0,
			"0.023": 0.0,
			"0.024": 0.0,
			"0.025": 0.0
		}
	}
}
