{
	 "smiles": "NNS(=O)(=O)C1=CC=C(S1)C1=NC=CC=C1", 
	 "Tm": 383.15, 
	 "num_atms": 25, 
	 "gaussian": { 
		 "optdone": 1, 
		 "sigma_profile": "yes", 
		 "theory": "DFT", 
		 "functional": "B3LYP", 
		 "basiset": "6-31G**", 
		 "properties": { 
			 "R2extent": 6113.1869, 
			 "electric_dipole_moment_norm": 7.68117270278, 
			 "electric_quadrupole_moment_norm": 26.2377928149, 
			 "total_energy": -1459.33248866, 
			 "HOMO_LUMO_gap": 0.16201, 
			 "cosmo_polarized_energy": -24.28, 
			 "cosmo_cavitation_energy": 32.76, 
			 "cosmo_dispersion_energy": -24.88, 
			 "cosmo_repulsion_energy": 1.86, 
			 "cosmo_total_nonelectrostatic_energy": 9.74, 
			 "SMD_solvation_energy": 4.21 
		},
		"coords": [
			{
				"x": -3.8220240226,
				"y": 0.8495959665,
				"z": -2.061591157,
				"element": "N" 
			},
			{
				"x": -3.4180107629,
				"y": 0.0738759216,
				"z": -3.1593804863,
				"element": "N" 
			},
			{
				"x": -2.7482982575,
				"y": -1.437336188,
				"z": -2.7460169023,
				"element": "S" 
			},
			{
				"x": -2.1642095895,
				"y": -1.9108006325,
				"z": -4.0030428552,
				"element": "O" 
			},
			{
				"x": -3.7659060246,
				"y": -2.1799270161,
				"z": -2.0142441722,
				"element": "O" 
			},
			{
				"x": -1.4003651587,
				"y": -1.105546751,
				"z": -1.6382944922,
				"element": "C" 
			},
			{
				"x": -0.075627891,
				"y": -1.2155619654,
				"z": -1.9910323629,
				"element": "C" 
			},
			{
				"x": 0.7884233015,
				"y": -0.9279074877,
				"z": -0.9051930495,
				"element": "C" 
			},
			{
				"x": 0.1138503515,
				"y": -0.6070669451,
				"z": 0.2559328481,
				"element": "C" 
			},
			{
				"x": -1.6168014584,
				"y": -0.6570065939,
				"z": 0.0283025192,
				"element": "S" 
			},
			{
				"x": 0.6401787394,
				"y": -0.2485223695,
				"z": 1.5768874336,
				"element": "C" 
			},
			{
				"x": -0.2826831477,
				"y": 0.0519125429,
				"z": 2.5110835141,
				"element": "N" 
			},
			{
				"x": 0.1348117361,
				"y": 0.382177114,
				"z": 3.7341739618,
				"element": "C" 
			},
			{
				"x": 1.4805837453,
				"y": 0.4360599381,
				"z": 4.1020754018,
				"element": "C" 
			},
			{
				"x": 2.4364495264,
				"y": 0.1250031605,
				"z": 3.1346209708,
				"element": "C" 
			},
			{
				"x": 2.017592334,
				"y": -0.2229417865,
				"z": 1.8544258857,
				"element": "C" 
			},
			{
				"x": -3.1882759349,
				"y": 1.6197083281,
				"z": -1.8710883705,
				"element": "H" 
			},
			{
				"x": -4.7651479595,
				"y": 1.1874856556,
				"z": -2.2162042932,
				"element": "H" 
			},
			{
				"x": -2.8354037506,
				"y": 0.5245652579,
				"z": -3.8637962315,
				"element": "H" 
			},
			{
				"x": 0.2443404883,
				"y": -1.5077130867,
				"z": -2.9835362838,
				"element": "H" 
			},
			{
				"x": 1.8689191246,
				"y": -0.962371978,
				"z": -0.9814710778,
				"element": "H" 
			},
			{
				"x": -0.6450785826,
				"y": 0.6152308669,
				"z": 4.4567311763,
				"element": "H" 
			},
			{
				"x": 1.7650933067,
				"y": 0.711104418,
				"z": 5.1122440107,
				"element": "H" 
			},
			{
				"x": 3.4956145798,
				"y": 0.1510726126,
				"z": 3.3736734681,
				"element": "H" 
			},
			{
				"x": 2.7416753068,
				"y": -0.4730889823,
				"z": 1.0868405439,
				"element": "H" 
			}
		],
		 "valence_orbital": [ 
			{
				"type": "occ",
				"energy": -0.28827,
				"method": "rhf"
			},
			{
				"type": "occ",
				"energy": -0.27126,
				"method": "rhf"
			},
			{
				"type": "occ",
				"energy": -0.27002,
				"method": "rhf"
			},
			{
				"type": "occ",
				"energy": -0.2608,
				"method": "rhf"
			},
			{
				"type": "occ",
				"energy": -0.23177,
				"method": "rhf"
			},
			{
				"type": "unocc",
				"energy": -0.06976,
				"method": "rhf"
			},
			{
				"type": "unocc",
				"energy": -0.03294,
				"method": "rhf"
			},
			{
				"type": "unocc",
				"energy": -0.00313,
				"method": "rhf"
			},
			{
				"type": "unocc",
				"energy": 0.03244,
				"method": "rhf"
			},
			{
				"type": "unocc",
				"energy": 0.05073,
				"method": "rhf"
			}
		],
		"cosmo_sigma_profile": { 
			"-0.025": 0.0,
			"-0.024": 0.0,
			"-0.023": 0.0,
			"-0.022": 0.0,
			"-0.021": 0.0,
			"-0.02": 0.0,
			"-0.019": 0.0,
			"-0.018": 0.0,
			"-0.017": 0.0,
			"-0.016": 0.0,
			"-0.015": 1.25420367395,
			"-0.014": 2.25248482516,
			"-0.013": 3.09671157286,
			"-0.012": 4.44833580966,
			"-0.011": 4.00390183728,
			"-0.01": 4.11676290914,
			"-0.009": 5.15018768666,
			"-0.008": 6.39655454394,
			"-0.007": 13.690359091,
			"-0.006": 14.9889505688,
			"-0.005": 12.4930633388,
			"-0.004": 11.1408210047,
			"-0.003": 10.5750914056,
			"-0.002": 7.8370605949,
			"-0.001": 12.1987844185,
			"0.0": 13.9418896577,
			"0.001": 25.9644320714,
			"0.002": 27.2490895968,
			"0.003": 13.9947828396,
			"0.004": 9.17616969795,
			"0.005": 6.85214872202,
			"0.006": 6.79234572179,
			"0.007": 7.35448253538,
			"0.008": 5.65378495815,
			"0.009": 5.75130494572,
			"0.01": 12.2105487662,
			"0.011": 12.9321553805,
			"0.012": 2.71427325878,
			"0.013": 0.0,
			"0.014": 0.0,
			"0.015": 0.0,
			"0.016": 0.0,
			"0.017": 0.0,
			"0.018": 0.0,
			"0.019": 0.0,
			"0.02": 0.0,
			"0.021": 0.0,
			"0.022": 0.0,
			"0.023": 0.0,
			"0.024": 0.0,
			"0.025": 0.0
		}
	}
}
