{
	 "smiles": "COC1=CC=C(C=C1)C1NN2C(S1)=NN=C2C1=CC=CC=C1OC", 
	 "Tm": 477.15, 
	 "num_atms": 40, 
	 "gaussian": { 
		 "optdone": 1, 
		 "sigma_profile": "yes", 
		 "theory": "DFT", 
		 "functional": "B3LYP", 
		 "basiset": "6-31G**", 
		 "properties": { 
			 "R2extent": 11223.9264, 
			 "electric_dipole_moment_norm": 7.11632859416, 
			 "electric_quadrupole_moment_norm": 32.65080971, 
			 "total_energy": -1424.99403288, 
			 "HOMO_LUMO_gap": 0.17721, 
			 "cosmo_polarized_energy": -21.62, 
			 "cosmo_cavitation_energy": 45.7, 
			 "cosmo_dispersion_energy": -32.23, 
			 "cosmo_repulsion_energy": 2.38, 
			 "cosmo_total_nonelectrostatic_energy": 15.85, 
			 "SMD_solvation_energy": 5.5 
		},
		"coords": [
			{
				"x": 2.6234256155,
				"y": 1.5979251717,
				"z": -5.3429147974,
				"element": "C" 
			},
			{
				"x": 3.0013980543,
				"y": 0.4682072771,
				"z": -4.5690650717,
				"element": "O" 
			},
			{
				"x": 2.5251617575,
				"y": 0.363971305,
				"z": -3.298372498,
				"element": "C" 
			},
			{
				"x": 2.9408930311,
				"y": -0.7699709686,
				"z": -2.5837418822,
				"element": "C" 
			},
			{
				"x": 2.5043059853,
				"y": -0.9671361064,
				"z": -1.2808950812,
				"element": "C" 
			},
			{
				"x": 1.6516413727,
				"y": -0.043462231,
				"z": -0.6574523314,
				"element": "C" 
			},
			{
				"x": 1.2450705871,
				"y": 1.085050793,
				"z": -1.3770230289,
				"element": "C" 
			},
			{
				"x": 1.6696126232,
				"y": 1.2928610664,
				"z": -2.6887275788,
				"element": "C" 
			},
			{
				"x": 1.2094374646,
				"y": -0.2686875107,
				"z": 0.7583400658,
				"element": "C" 
			},
			{
				"x": -0.2175858182,
				"y": 0.0784433595,
				"z": 0.9585380193,
				"element": "N" 
			},
			{
				"x": -0.371262305,
				"y": 0.2106939904,
				"z": 2.3629838807,
				"element": "N" 
			},
			{
				"x": 0.7041776932,
				"y": 0.6917004871,
				"z": 3.0443721976,
				"element": "C" 
			},
			{
				"x": 2.128201525,
				"y": 0.8088242986,
				"z": 2.013607847,
				"element": "S" 
			},
			{
				"x": 0.3773754281,
				"y": 1.0398255036,
				"z": 4.2673279373,
				"element": "N" 
			},
			{
				"x": -0.9765922364,
				"y": 0.7954781892,
				"z": 4.3829487198,
				"element": "N" 
			},
			{
				"x": -1.4318469811,
				"y": 0.3198617584,
				"z": 3.2289020166,
				"element": "C" 
			},
			{
				"x": -2.8335779867,
				"y": -0.0143865746,
				"z": 2.960901947,
				"element": "C" 
			},
			{
				"x": -3.8321098077,
				"y": 0.722777719,
				"z": 3.6226230881,
				"element": "C" 
			},
			{
				"x": -5.1804872558,
				"y": 0.4513938666,
				"z": 3.4135724783,
				"element": "C" 
			},
			{
				"x": -5.56332365,
				"y": -0.5582642438,
				"z": 2.5261905961,
				"element": "C" 
			},
			{
				"x": -4.588807057,
				"y": -1.3072082756,
				"z": 1.8687766578,
				"element": "C" 
			},
			{
				"x": -3.237265317,
				"y": -1.04592208,
				"z": 2.0939182359,
				"element": "C" 
			},
			{
				"x": -2.2881526306,
				"y": -1.8224015854,
				"z": 1.4373465738,
				"element": "O" 
			},
			{
				"x": -1.9525019556,
				"y": -3.0356360535,
				"z": 2.1257168731,
				"element": "C" 
			},
			{
				"x": 2.9579056096,
				"y": 2.5347953529,
				"z": -4.8800416718,
				"element": "H" 
			},
			{
				"x": 1.5374181317,
				"y": 1.6389865568,
				"z": -5.4946171918,
				"element": "H" 
			},
			{
				"x": 3.1163847019,
				"y": 1.4784854181,
				"z": -6.30864137,
				"element": "H" 
			},
			{
				"x": 3.5997662973,
				"y": -1.4792795085,
				"z": -3.0731703372,
				"element": "H" 
			},
			{
				"x": 2.8302972263,
				"y": -1.851283138,
				"z": -0.7383593392,
				"element": "H" 
			},
			{
				"x": 0.5816549854,
				"y": 1.8013752774,
				"z": -0.9042519335,
				"element": "H" 
			},
			{
				"x": 1.3333094896,
				"y": 2.1742096393,
				"z": -3.2214349128,
				"element": "H" 
			},
			{
				"x": 1.4204125193,
				"y": -1.303471396,
				"z": 1.0625949982,
				"element": "H" 
			},
			{
				"x": -0.8095377202,
				"y": -0.709226513,
				"z": 0.6808702557,
				"element": "H" 
			},
			{
				"x": -3.5185043304,
				"y": 1.5096064008,
				"z": 4.2998538658,
				"element": "H" 
			},
			{
				"x": -5.9335342164,
				"y": 1.036426472,
				"z": 3.9324702214,
				"element": "H" 
			},
			{
				"x": -6.6146092361,
				"y": -0.7621492977,
				"z": 2.3464523048,
				"element": "H" 
			},
			{
				"x": -4.8567969735,
				"y": -2.1000225467,
				"z": 1.1772677158,
				"element": "H" 
			},
			{
				"x": -1.2220689399,
				"y": -3.5563530493,
				"z": 1.5030668405,
				"element": "H" 
			},
			{
				"x": -1.5167593666,
				"y": -2.8241037559,
				"z": 3.1090241045,
				"element": "H" 
			},
			{
				"x": -2.8386263147,
				"y": -3.6678350685,
				"z": 2.2519415852,
				"element": "H" 
			}
		],
		 "valence_orbital": [ 
			{
				"type": "occ",
				"energy": -0.25557,
				"method": "rhf"
			},
			{
				"type": "occ",
				"energy": -0.24644,
				"method": "rhf"
			},
			{
				"type": "occ",
				"energy": -0.23709,
				"method": "rhf"
			},
			{
				"type": "occ",
				"energy": -0.22928,
				"method": "rhf"
			},
			{
				"type": "occ",
				"energy": -0.21052,
				"method": "rhf"
			},
			{
				"type": "unocc",
				"energy": -0.03331,
				"method": "rhf"
			},
			{
				"type": "unocc",
				"energy": -0.02538,
				"method": "rhf"
			},
			{
				"type": "unocc",
				"energy": -0.01342,
				"method": "rhf"
			},
			{
				"type": "unocc",
				"energy": -0.01073,
				"method": "rhf"
			},
			{
				"type": "unocc",
				"energy": 0.01048,
				"method": "rhf"
			}
		],
		"cosmo_sigma_profile": { 
			"-0.025": 0.0,
			"-0.024": 0.0,
			"-0.023": 0.0,
			"-0.022": 0.0,
			"-0.021": 0.0,
			"-0.02": 0.0,
			"-0.019": 0.0,
			"-0.018": 0.0,
			"-0.017": 0.0,
			"-0.016": 0.0,
			"-0.015": 0.0,
			"-0.014": 0.0,
			"-0.013": 0.0,
			"-0.012": 0.0,
			"-0.011": 0.133760211956,
			"-0.01": 0.877460461808,
			"-0.009": 1.20160710652,
			"-0.008": 4.00848863243,
			"-0.007": 10.6292532072,
			"-0.006": 24.1357393187,
			"-0.005": 34.8605430357,
			"-0.004": 34.2765925881,
			"-0.003": 33.0918204964,
			"-0.002": 24.2721522747,
			"-0.001": 20.2390207261,
			"0.0": 21.5243218832,
			"0.001": 22.1446208037,
			"0.002": 25.3676158582,
			"0.003": 30.3074483999,
			"0.004": 28.1878859054,
			"0.005": 11.8249979707,
			"0.006": 6.33733166208,
			"0.007": 5.61163702526,
			"0.008": 4.46339617109,
			"0.009": 4.02590954345,
			"0.01": 3.44265695423,
			"0.011": 2.56696253534,
			"0.012": 2.86958040131,
			"0.013": 3.36830223123,
			"0.014": 3.16660282277,
			"0.015": 2.63565164259,
			"0.016": 1.95154747463,
			"0.017": 0.38580648331,
			"0.018": 0.0,
			"0.019": 0.0,
			"0.02": 0.0,
			"0.021": 0.0,
			"0.022": 0.0,
			"0.023": 0.0,
			"0.024": 0.0,
			"0.025": 0.0
		}
	}
}
