{
	 "smiles": "COC1=C(C=C(C)C=C1)N1C=CC(=N1)C(O)=O", 
	 "Tm": 432.15, 
	 "num_atms": 29, 
	 "gaussian": { 
		 "optdone": 1, 
		 "sigma_profile": "yes", 
		 "theory": "DFT", 
		 "functional": "B3LYP", 
		 "basiset": "6-31G**", 
		 "properties": { 
			 "R2extent": 4947.7023, 
			 "electric_dipole_moment_norm": 7.44861417043, 
			 "electric_quadrupole_moment_norm": 28.0708644126, 
			 "total_energy": -799.662289917, 
			 "HOMO_LUMO_gap": 0.201, 
			 "cosmo_polarized_energy": -15.78, 
			 "cosmo_cavitation_energy": 34.14, 
			 "cosmo_dispersion_energy": -23.76, 
			 "cosmo_repulsion_energy": 1.84, 
			 "cosmo_total_nonelectrostatic_energy": 12.22, 
			 "SMD_solvation_energy": 7.91 
		},
		"coords": [
			{
				"x": 0.4302933806,
				"y": 1.0773914305,
				"z": 2.5360026687,
				"element": "C" 
			},
			{
				"x": -0.4979643305,
				"y": 0.8476502992,
				"z": 1.4742914232,
				"element": "O" 
			},
			{
				"x": -0.0363255115,
				"y": 1.0899666285,
				"z": 0.2101073972,
				"element": "C" 
			},
			{
				"x": 0.1094292212,
				"y": 0.0266989612,
				"z": -0.6956710581,
				"element": "C" 
			},
			{
				"x": 0.4781837646,
				"y": 0.2704270128,
				"z": -2.0218526323,
				"element": "C" 
			},
			{
				"x": 0.7230644994,
				"y": 1.5679555871,
				"z": -2.4793818657,
				"element": "C" 
			},
			{
				"x": 1.1003225989,
				"y": 1.8285325268,
				"z": -3.9186407062,
				"element": "C" 
			},
			{
				"x": 0.5979329953,
				"y": 2.6208226675,
				"z": -1.5616289126,
				"element": "C" 
			},
			{
				"x": 0.2236800065,
				"y": 2.3879430363,
				"z": -0.2408964999,
				"element": "C" 
			},
			{
				"x": -0.1382313684,
				"y": -1.3135182226,
				"z": -0.2788845766,
				"element": "N" 
			},
			{
				"x": -1.000461346,
				"y": -2.2067874285,
				"z": -0.8589604175,
				"element": "C" 
			},
			{
				"x": -0.9036281351,
				"y": -3.3838354068,
				"z": -0.1516159895,
				"element": "C" 
			},
			{
				"x": 0.0530064044,
				"y": -3.1088549699,
				"z": 0.8499875044,
				"element": "C" 
			},
			{
				"x": 0.5130295937,
				"y": -1.8561905481,
				"z": 0.7679395248,
				"element": "N" 
			},
			{
				"x": 0.5675414139,
				"y": -4.0185919116,
				"z": 1.9045906981,
				"element": "C" 
			},
			{
				"x": 1.508625809,
				"y": -3.4683785206,
				"z": 2.70587575,
				"element": "O" 
			},
			{
				"x": 0.1885810949,
				"y": -5.1580970106,
				"z": 2.0459764603,
				"element": "O" 
			},
			{
				"x": -0.1136582184,
				"y": 0.8883915645,
				"z": 3.4629152743,
				"element": "H" 
			},
			{
				"x": 1.2788379169,
				"y": 0.3882934133,
				"z": 2.4610408404,
				"element": "H" 
			},
			{
				"x": 0.7983103661,
				"y": 2.1107236756,
				"z": 2.5386027777,
				"element": "H" 
			},
			{
				"x": 0.5958308349,
				"y": -0.5758078103,
				"z": -2.6927594637,
				"element": "H" 
			},
			{
				"x": 1.4721501444,
				"y": 0.9228331366,
				"z": -4.4056567622,
				"element": "H" 
			},
			{
				"x": 1.8774066193,
				"y": 2.5955050422,
				"z": -3.9946798004,
				"element": "H" 
			},
			{
				"x": 0.2381908546,
				"y": 2.1827680866,
				"z": -4.4970953523,
				"element": "H" 
			},
			{
				"x": 0.7881534639,
				"y": 3.640044275,
				"z": -1.8879525157,
				"element": "H" 
			},
			{
				"x": 0.0998473079,
				"y": 3.2155234723,
				"z": 0.4506111696,
				"element": "H" 
			},
			{
				"x": -1.6121468331,
				"y": -1.9174476034,
				"z": -1.7001443101,
				"element": "H" 
			},
			{
				"x": -1.4350168449,
				"y": -4.3086964265,
				"z": -0.3103929346,
				"element": "H" 
			},
			{
				"x": 1.6599142975,
				"y": -2.555464957,
				"z": 2.4033723084,
				"element": "H" 
			}
		],
		 "valence_orbital": [ 
			{
				"type": "occ",
				"energy": -0.28874,
				"method": "rhf"
			},
			{
				"type": "occ",
				"energy": -0.26697,
				"method": "rhf"
			},
			{
				"type": "occ",
				"energy": -0.26391,
				"method": "rhf"
			},
			{
				"type": "occ",
				"energy": -0.25752,
				"method": "rhf"
			},
			{
				"type": "occ",
				"energy": -0.24163,
				"method": "rhf"
			},
			{
				"type": "unocc",
				"energy": -0.04063,
				"method": "rhf"
			},
			{
				"type": "unocc",
				"energy": -0.01876,
				"method": "rhf"
			},
			{
				"type": "unocc",
				"energy": -0.01451,
				"method": "rhf"
			},
			{
				"type": "unocc",
				"energy": 0.0204,
				"method": "rhf"
			},
			{
				"type": "unocc",
				"energy": 0.07731,
				"method": "rhf"
			}
		],
		"cosmo_sigma_profile": { 
			"-0.025": 0.0,
			"-0.024": 0.0,
			"-0.023": 0.0,
			"-0.022": 0.0,
			"-0.021": 0.0,
			"-0.02": 0.0,
			"-0.019": 0.0,
			"-0.018": 0.0,
			"-0.017": 0.0,
			"-0.016": 0.0,
			"-0.015": 0.0,
			"-0.014": 0.161239433911,
			"-0.013": 0.622368326616,
			"-0.012": 0.398934480245,
			"-0.011": 0.416105566188,
			"-0.01": 1.93085219319,
			"-0.009": 2.36740276738,
			"-0.008": 3.72741116059,
			"-0.007": 6.91285365474,
			"-0.006": 13.9718919468,
			"-0.005": 19.7597424087,
			"-0.004": 24.5882203997,
			"-0.003": 24.2362101152,
			"-0.002": 21.8675698516,
			"-0.001": 19.8642879522,
			"0.0": 20.443449761,
			"0.001": 17.7424691027,
			"0.002": 18.238024655,
			"0.003": 18.6800226284,
			"0.004": 11.5673676134,
			"0.005": 5.54631929627,
			"0.006": 5.1636851483,
			"0.007": 4.80729694145,
			"0.008": 4.08618963886,
			"0.009": 4.78083051829,
			"0.01": 6.84135993704,
			"0.011": 6.80078065637,
			"0.012": 4.9640031629,
			"0.013": 1.83758886046,
			"0.014": 0.118889212433,
			"0.015": 0.0,
			"0.016": 0.0,
			"0.017": 0.0,
			"0.018": 0.0,
			"0.019": 0.0,
			"0.02": 0.0,
			"0.021": 0.0,
			"0.022": 0.0,
			"0.023": 0.0,
			"0.024": 0.0,
			"0.025": 0.0
		}
	}
}
