{
	 "smiles": "NCCNC(=O)CCN1C=NC2=C1N=CN=C2N", 
	 "Tm": 469.15, 
	 "num_atms": 33, 
	 "gaussian": { 
		 "optdone": 1, 
		 "sigma_profile": "yes", 
		 "theory": "DFT", 
		 "functional": "B3LYP", 
		 "basiset": "6-31G**", 
		 "properties": { 
			 "R2extent": 5893.1346, 
			 "electric_dipole_moment_norm": 3.85414581976, 
			 "electric_quadrupole_moment_norm": 15.1514304592, 
			 "total_energy": -848.629700468, 
			 "HOMO_LUMO_gap": 0.1998, 
			 "cosmo_polarized_energy": -24.86, 
			 "cosmo_cavitation_energy": 37.44, 
			 "cosmo_dispersion_energy": -26.08, 
			 "cosmo_repulsion_energy": 2.07, 
			 "cosmo_total_nonelectrostatic_energy": 13.44, 
			 "SMD_solvation_energy": 0.3 
		},
		"coords": [
			{
				"x": 1.2996159905,
				"y": -4.7337445489,
				"z": -0.4120070716,
				"element": "N" 
			},
			{
				"x": 1.2911774119,
				"y": -3.3502214109,
				"z": 0.0543690109,
				"element": "C" 
			},
			{
				"x": 0.6918253369,
				"y": -3.1404601088,
				"z": 1.4597341589,
				"element": "C" 
			},
			{
				"x": 0.6864730069,
				"y": -1.7458765449,
				"z": 1.883386385,
				"element": "N" 
			},
			{
				"x": -0.3958863155,
				"y": -0.9352300184,
				"z": 1.7105501269,
				"element": "C" 
			},
			{
				"x": -1.4603566475,
				"y": -1.3335368247,
				"z": 1.2430942227,
				"element": "O" 
			},
			{
				"x": -0.2164922084,
				"y": 0.5076859948,
				"z": 2.1863631205,
				"element": "C" 
			},
			{
				"x": -1.1222196462,
				"y": 1.469116242,
				"z": 1.412190494,
				"element": "C" 
			},
			{
				"x": -0.7230562204,
				"y": 1.6191765196,
				"z": 0.0180003834,
				"element": "N" 
			},
			{
				"x": -1.1882335613,
				"y": 0.923833304,
				"z": -1.0849173475,
				"element": "C" 
			},
			{
				"x": -0.6204732123,
				"y": 1.2777253578,
				"z": -2.2147359531,
				"element": "N" 
			},
			{
				"x": 0.2778318046,
				"y": 2.2614916247,
				"z": -1.840035436,
				"element": "C" 
			},
			{
				"x": 0.2372593388,
				"y": 2.4866984576,
				"z": -0.4601237772,
				"element": "C" 
			},
			{
				"x": 0.9814783133,
				"y": 3.3585417617,
				"z": 0.2355697513,
				"element": "N" 
			},
			{
				"x": 1.8130019004,
				"y": 4.0320297477,
				"z": -0.5665572161,
				"element": "C" 
			},
			{
				"x": 1.9669855929,
				"y": 3.9296434903,
				"z": -1.8970885462,
				"element": "N" 
			},
			{
				"x": 1.1994720813,
				"y": 3.0468875336,
				"z": -2.5631775438,
				"element": "C" 
			},
			{
				"x": 1.3261753073,
				"y": 2.9560008667,
				"z": -3.9107768495,
				"element": "N" 
			},
			{
				"x": 1.8111084746,
				"y": -5.3269000409,
				"z": 0.2375222936,
				"element": "H" 
			},
			{
				"x": 0.350241944,
				"y": -5.09694998,
				"z": -0.4525756684,
				"element": "H" 
			},
			{
				"x": 2.3218968634,
				"y": -2.9730249956,
				"z": 0.0364874709,
				"element": "H" 
			},
			{
				"x": 0.724017935,
				"y": -2.743767661,
				"z": -0.6601626576,
				"element": "H" 
			},
			{
				"x": -0.3480988441,
				"y": -3.4772300656,
				"z": 1.4711826792,
				"element": "H" 
			},
			{
				"x": 1.2486415796,
				"y": -3.7314380272,
				"z": 2.1980089703,
				"element": "H" 
			},
			{
				"x": 1.554080029,
				"y": -1.3300500723,
				"z": 2.1887233464,
				"element": "H" 
			},
			{
				"x": -0.4928278657,
				"y": 0.5474099561,
				"z": 3.2481840776,
				"element": "H" 
			},
			{
				"x": 0.826483119,
				"y": 0.834078442,
				"z": 2.1139436533,
				"element": "H" 
			},
			{
				"x": -2.1473474777,
				"y": 1.0950385014,
				"z": 1.4323261442,
				"element": "H" 
			},
			{
				"x": -1.0910161528,
				"y": 2.4603644719,
				"z": 1.8700506935,
				"element": "H" 
			},
			{
				"x": -1.9392114903,
				"y": 0.1544599286,
				"z": -0.9673440344,
				"element": "H" 
			},
			{
				"x": 2.4576466645,
				"y": 4.7614752871,
				"z": -0.0795431363,
				"element": "H" 
			},
			{
				"x": 2.0930028096,
				"y": 3.4401789031,
				"z": -4.3492421149,
				"element": "H" 
			},
			{
				"x": 0.8663041389,
				"y": 2.2036939085,
				"z": -4.3972996297,
				"element": "H" 
			}
		],
		 "valence_orbital": [ 
			{
				"type": "occ",
				"energy": -0.26054,
				"method": "rhf"
			},
			{
				"type": "occ",
				"energy": -0.25331,
				"method": "rhf"
			},
			{
				"type": "occ",
				"energy": -0.24203,
				"method": "rhf"
			},
			{
				"type": "occ",
				"energy": -0.23477,
				"method": "rhf"
			},
			{
				"type": "occ",
				"energy": -0.21128,
				"method": "rhf"
			},
			{
				"type": "unocc",
				"energy": -0.01148,
				"method": "rhf"
			},
			{
				"type": "unocc",
				"energy": 0.01277,
				"method": "rhf"
			},
			{
				"type": "unocc",
				"energy": 0.01582,
				"method": "rhf"
			},
			{
				"type": "unocc",
				"energy": 0.04856,
				"method": "rhf"
			},
			{
				"type": "unocc",
				"energy": 0.06577,
				"method": "rhf"
			}
		],
		"cosmo_sigma_profile": { 
			"-0.025": 0.0,
			"-0.024": 0.0,
			"-0.023": 0.0,
			"-0.022": 0.0,
			"-0.021": 0.0,
			"-0.02": 0.0,
			"-0.019": 0.0,
			"-0.018": 0.0,
			"-0.017": 0.0,
			"-0.016": 0.0,
			"-0.015": 0.115495853875,
			"-0.014": 2.35613378602,
			"-0.013": 3.78255407621,
			"-0.012": 2.85422428052,
			"-0.011": 3.42761259853,
			"-0.01": 4.01570971522,
			"-0.009": 7.0282156692,
			"-0.008": 7.77677248352,
			"-0.007": 9.11625239727,
			"-0.006": 17.6254351139,
			"-0.005": 20.1321701712,
			"-0.004": 19.6117481079,
			"-0.003": 20.0032679246,
			"-0.002": 16.4744681467,
			"-0.001": 15.4485626611,
			"0.0": 22.762303879,
			"0.001": 19.0409066132,
			"0.002": 14.2190157496,
			"0.003": 11.3233757748,
			"0.004": 11.9861246132,
			"0.005": 8.35100842717,
			"0.006": 6.92077462904,
			"0.007": 6.70427130333,
			"0.008": 6.69943462266,
			"0.009": 4.55735883523,
			"0.01": 5.00000609722,
			"0.011": 4.47881922334,
			"0.012": 4.85020532798,
			"0.013": 6.72644309125,
			"0.014": 5.31834261575,
			"0.015": 2.8228248917,
			"0.016": 1.05104566008,
			"0.017": 0.913578343877,
			"0.018": 0.626490304181,
			"0.019": 0.699753424689,
			"0.02": 0.175267500797,
			"0.021": 0.0,
			"0.022": 0.0,
			"0.023": 0.0,
			"0.024": 0.0,
			"0.025": 0.0
		}
	}
}
