{
	 "smiles": "CCN1C(=O)C(=O)C2=C1C=CC(C)=C2", 
	 "Tm": 378.15, 
	 "num_atms": 25, 
	 "gaussian": { 
		 "optdone": 1, 
		 "sigma_profile": "yes", 
		 "theory": "DFT", 
		 "functional": "B3LYP", 
		 "basiset": "6-31G**", 
		 "properties": { 
			 "R2extent": 3381.4182, 
			 "electric_dipole_moment_norm": 6.07456323204, 
			 "electric_quadrupole_moment_norm": 15.1437480803, 
			 "total_energy": -631.015363272, 
			 "HOMO_LUMO_gap": 0.13312, 
			 "cosmo_polarized_energy": -13.16, 
			 "cosmo_cavitation_energy": 29.23, 
			 "cosmo_dispersion_energy": -20.74, 
			 "cosmo_repulsion_energy": 1.62, 
			 "cosmo_total_nonelectrostatic_energy": 10.12, 
			 "SMD_solvation_energy": 6.34 
		},
		"coords": [
			{
				"x": -2.1014497576,
				"y": -2.6972375318,
				"z": -0.1640003754,
				"element": "C" 
			},
			{
				"x": -1.4317488956,
				"y": -1.6423427782,
				"z": -1.0499315648,
				"element": "C" 
			},
			{
				"x": -0.0612855282,
				"y": -1.3436711421,
				"z": -0.6536332488,
				"element": "N" 
			},
			{
				"x": 1.0465487289,
				"y": -1.8753722928,
				"z": -1.2987015807,
				"element": "C" 
			},
			{
				"x": 1.0354801923,
				"y": -2.6198572077,
				"z": -2.2565618726,
				"element": "O" 
			},
			{
				"x": 2.2943540023,
				"y": -1.3117083452,
				"z": -0.5380198507,
				"element": "C" 
			},
			{
				"x": 3.4457714641,
				"y": -1.5591089336,
				"z": -0.8248288231,
				"element": "O" 
			},
			{
				"x": 1.7335761309,
				"y": -0.4699726662,
				"z": 0.52953713,
				"element": "C" 
			},
			{
				"x": 0.3291917579,
				"y": -0.5217770286,
				"z": 0.4205619565,
				"element": "C" 
			},
			{
				"x": -0.4666324541,
				"y": 0.1993327717,
				"z": 1.3018256883,
				"element": "C" 
			},
			{
				"x": 0.176693104,
				"y": 0.9644648037,
				"z": 2.2858491668,
				"element": "C" 
			},
			{
				"x": 1.5728923667,
				"y": 1.0280968696,
				"z": 2.4165599985,
				"element": "C" 
			},
			{
				"x": 2.2165198203,
				"y": 1.8454692078,
				"z": 3.5125466714,
				"element": "C" 
			},
			{
				"x": 2.3536316739,
				"y": 0.2933498075,
				"z": 1.5111767887,
				"element": "C" 
			},
			{
				"x": -2.1403399998,
				"y": -2.3795908349,
				"z": 0.8823804186,
				"element": "H" 
			},
			{
				"x": -3.1266552653,
				"y": -2.8758420199,
				"z": -0.5035365702,
				"element": "H" 
			},
			{
				"x": -1.5543863336,
				"y": -3.6427074662,
				"z": -0.2146134656,
				"element": "H" 
			},
			{
				"x": -1.3729809986,
				"y": -1.9959169542,
				"z": -2.082439904,
				"element": "H" 
			},
			{
				"x": -2.0044311097,
				"y": -0.7076689703,
				"z": -1.0480958279,
				"element": "H" 
			},
			{
				"x": -1.549401509,
				"y": 0.1839106518,
				"z": 1.2402149748,
				"element": "H" 
			},
			{
				"x": -0.4377899344,
				"y": 1.53474995,
				"z": 2.9782010842,
				"element": "H" 
			},
			{
				"x": 2.5089646348,
				"y": 1.2154948602,
				"z": 4.3617370272,
				"element": "H" 
			},
			{
				"x": 3.1215211371,
				"y": 2.3476466002,
				"z": 3.1566238281,
				"element": "H" 
			},
			{
				"x": 1.5347086827,
				"y": 2.6113604121,
				"z": 3.8930457668,
				"element": "H" 
			},
			{
				"x": 3.43914809,
				"y": 0.3137982372,
				"z": 1.5629025838,
				"element": "H" 
			}
		],
		 "valence_orbital": [ 
			{
				"type": "occ",
				"energy": -0.30705,
				"method": "rhf"
			},
			{
				"type": "occ",
				"energy": -0.3041,
				"method": "rhf"
			},
			{
				"type": "occ",
				"energy": -0.27327,
				"method": "rhf"
			},
			{
				"type": "occ",
				"energy": -0.24157,
				"method": "rhf"
			},
			{
				"type": "occ",
				"energy": -0.22536,
				"method": "rhf"
			},
			{
				"type": "unocc",
				"energy": -0.09224,
				"method": "rhf"
			},
			{
				"type": "unocc",
				"energy": -0.01878,
				"method": "rhf"
			},
			{
				"type": "unocc",
				"energy": 0.01096,
				"method": "rhf"
			},
			{
				"type": "unocc",
				"energy": 0.07397,
				"method": "rhf"
			},
			{
				"type": "unocc",
				"energy": 0.09033,
				"method": "rhf"
			}
		],
		"cosmo_sigma_profile": { 
			"-0.025": 0.0,
			"-0.024": 0.0,
			"-0.023": 0.0,
			"-0.022": 0.0,
			"-0.021": 0.0,
			"-0.02": 0.0,
			"-0.019": 0.0,
			"-0.018": 0.0,
			"-0.017": 0.0,
			"-0.016": 0.0,
			"-0.015": 0.0,
			"-0.014": 0.0,
			"-0.013": 0.0,
			"-0.012": 0.0,
			"-0.011": 0.0,
			"-0.01": 0.0,
			"-0.009": 0.0,
			"-0.008": 0.471740357809,
			"-0.007": 5.93209544491,
			"-0.006": 11.2671155696,
			"-0.005": 16.4915588813,
			"-0.004": 22.5420741866,
			"-0.003": 25.2792222711,
			"-0.002": 24.2839165506,
			"-0.001": 25.5947511149,
			"0.0": 22.6571532201,
			"0.001": 14.0784042338,
			"0.002": 11.0773796107,
			"0.003": 12.0777562744,
			"0.004": 3.76010969918,
			"0.005": 2.99014274603,
			"0.006": 2.34300450735,
			"0.007": 3.02884931561,
			"0.008": 2.64760081204,
			"0.009": 4.80607862532,
			"0.01": 6.80365137558,
			"0.011": 8.42774821714,
			"0.012": 5.12262723176,
			"0.013": 0.851969672162,
			"0.014": 0.0,
			"0.015": 0.0,
			"0.016": 0.0,
			"0.017": 0.0,
			"0.018": 0.0,
			"0.019": 0.0,
			"0.02": 0.0,
			"0.021": 0.0,
			"0.022": 0.0,
			"0.023": 0.0,
			"0.024": 0.0,
			"0.025": 0.0
		}
	}
}
