{
	 "smiles": "OC(=O)C1=CC=C(COC2=CC=CC=C2)C=C1", 
	 "Tm": 488.15, 
	 "num_atms": 29, 
	 "gaussian": { 
		 "optdone": 1, 
		 "sigma_profile": "yes", 
		 "theory": "DFT", 
		 "functional": "B3LYP", 
		 "basiset": "6-31G**", 
		 "properties": { 
			 "R2extent": 6110.6902, 
			 "electric_dipole_moment_norm": 4.83611063666, 
			 "electric_quadrupole_moment_norm": 34.1285842799, 
			 "total_energy": -766.392503879, 
			 "HOMO_LUMO_gap": 0.17207, 
			 "cosmo_polarized_energy": -17.43, 
			 "cosmo_cavitation_energy": 33.68, 
			 "cosmo_dispersion_energy": -24.12, 
			 "cosmo_repulsion_energy": 1.87, 
			 "cosmo_total_nonelectrostatic_energy": 11.44, 
			 "SMD_solvation_energy": 6.95 
		},
		"coords": [
			{
				"x": 1.9586991026,
				"y": 5.5248131745,
				"z": 0.5928251592,
				"element": "O" 
			},
			{
				"x": 0.8511821373,
				"y": 4.9600078573,
				"z": 1.1469605445,
				"element": "C" 
			},
			{
				"x": 0.2383203767,
				"y": 5.5508160934,
				"z": 2.0046116601,
				"element": "O" 
			},
			{
				"x": 0.4583945675,
				"y": 3.6054749481,
				"z": 0.6390825351,
				"element": "C" 
			},
			{
				"x": -0.3813232523,
				"y": 2.8238228442,
				"z": 1.4444621138,
				"element": "C" 
			},
			{
				"x": -0.7857471969,
				"y": 1.5604584171,
				"z": 1.0266582792,
				"element": "C" 
			},
			{
				"x": -0.3703048027,
				"y": 1.0550547579,
				"z": -0.211953426,
				"element": "C" 
			},
			{
				"x": -0.8580293788,
				"y": -0.2946487495,
				"z": -0.7064193817,
				"element": "C" 
			},
			{
				"x": -1.2151325487,
				"y": -1.1997297486,
				"z": 0.32841091,
				"element": "O" 
			},
			{
				"x": -0.2263421328,
				"y": -1.8989601107,
				"z": 0.9784260635,
				"element": "C" 
			},
			{
				"x": -0.6786657146,
				"y": -2.8849309693,
				"z": 1.8659838681,
				"element": "C" 
			},
			{
				"x": 0.2381234386,
				"y": -3.6569918516,
				"z": 2.5717357789,
				"element": "C" 
			},
			{
				"x": 1.6125869365,
				"y": -3.4593886094,
				"z": 2.4021530745,
				"element": "C" 
			},
			{
				"x": 2.0545481574,
				"y": -2.4751514878,
				"z": 1.5209411183,
				"element": "C" 
			},
			{
				"x": 1.1457881085,
				"y": -1.687547399,
				"z": 0.8064436151,
				"element": "C" 
			},
			{
				"x": 0.4533248507,
				"y": 1.8417628603,
				"z": -1.0251963481,
				"element": "C" 
			},
			{
				"x": 0.8631997349,
				"y": 3.1063596915,
				"z": -0.6067421623,
				"element": "C" 
			},
			{
				"x": 2.4310651904,
				"y": 4.8741672594,
				"z": 0.0555566908,
				"element": "H" 
			},
			{
				"x": -0.7048636147,
				"y": 3.2287475635,
				"z": 2.3973340161,
				"element": "H" 
			},
			{
				"x": -1.4240054482,
				"y": 0.9523306855,
				"z": 1.6590021256,
				"element": "H" 
			},
			{
				"x": -0.1199830548,
				"y": -0.7471517432,
				"z": -1.3820427236,
				"element": "H" 
			},
			{
				"x": -1.7825615766,
				"y": -0.1584429856,
				"z": -1.2791592283,
				"element": "H" 
			},
			{
				"x": -1.7482560073,
				"y": -3.0288345633,
				"z": 1.9795618275,
				"element": "H" 
			},
			{
				"x": -0.12266773,
				"y": -4.4199560829,
				"z": 3.2556934004,
				"element": "H" 
			},
			{
				"x": 2.3264037191,
				"y": -4.0635769349,
				"z": 2.9532200997,
				"element": "H" 
			},
			{
				"x": 3.1188638899,
				"y": -2.3049515462,
				"z": 1.384611895,
				"element": "H" 
			},
			{
				"x": 1.5142494253,
				"y": -0.9120640377,
				"z": 0.145798449,
				"element": "H" 
			},
			{
				"x": 0.7725962824,
				"y": 1.468305857,
				"z": -1.9952902019,
				"element": "H" 
			},
			{
				"x": 1.4722365406,
				"y": 3.7076048104,
				"z": -1.2778697524,
				"element": "H" 
			}
		],
		 "valence_orbital": [ 
			{
				"type": "occ",
				"energy": -0.27711,
				"method": "rhf"
			},
			{
				"type": "occ",
				"energy": -0.27389,
				"method": "rhf"
			},
			{
				"type": "occ",
				"energy": -0.26415,
				"method": "rhf"
			},
			{
				"type": "occ",
				"energy": -0.25342,
				"method": "rhf"
			},
			{
				"type": "occ",
				"energy": -0.22595,
				"method": "rhf"
			},
			{
				"type": "unocc",
				"energy": -0.05388,
				"method": "rhf"
			},
			{
				"type": "unocc",
				"energy": -0.027,
				"method": "rhf"
			},
			{
				"type": "unocc",
				"energy": -0.00436,
				"method": "rhf"
			},
			{
				"type": "unocc",
				"energy": 0.00833,
				"method": "rhf"
			},
			{
				"type": "unocc",
				"energy": 0.04187,
				"method": "rhf"
			}
		],
		"cosmo_sigma_profile": { 
			"-0.025": 0.0,
			"-0.024": 0.0,
			"-0.023": 0.0,
			"-0.022": 0.0,
			"-0.021": 0.0,
			"-0.02": 0.0,
			"-0.019": 0.106137314856,
			"-0.018": 0.99817732154,
			"-0.017": 0.747375408045,
			"-0.016": 1.3123188021,
			"-0.015": 0.545266097373,
			"-0.014": 0.97941568165,
			"-0.013": 0.940767564853,
			"-0.012": 1.61302252997,
			"-0.011": 0.984085359088,
			"-0.01": 1.14088855264,
			"-0.009": 1.22948881508,
			"-0.008": 1.95232380364,
			"-0.007": 9.2842095418,
			"-0.006": 15.9088552983,
			"-0.005": 21.4289640271,
			"-0.004": 20.0545007628,
			"-0.003": 18.8941159521,
			"-0.002": 15.7375314419,
			"-0.001": 15.835298752,
			"0.0": 14.0449198822,
			"0.001": 15.2699217026,
			"0.002": 18.9180460255,
			"0.003": 23.973949322,
			"0.004": 14.1524686151,
			"0.005": 12.4745986041,
			"0.006": 11.4174620434,
			"0.007": 4.18594009155,
			"0.008": 3.64478432614,
			"0.009": 4.17593909976,
			"0.01": 5.47279311422,
			"0.011": 5.38008755497,
			"0.012": 4.9875965913,
			"0.013": 1.66139556052,
			"0.014": 0.0919612218414,
			"0.015": 0.0,
			"0.016": 0.0,
			"0.017": 0.0,
			"0.018": 0.0,
			"0.019": 0.0,
			"0.02": 0.0,
			"0.021": 0.0,
			"0.022": 0.0,
			"0.023": 0.0,
			"0.024": 0.0,
			"0.025": 0.0
		}
	}
}
