{
	 "smiles": "CCCCNC(=O)N1C=C(F)C(=O)NC1=O", 
	 "Tm": 409.15, 
	 "num_atms": 28, 
	 "gaussian": { 
		 "optdone": 1, 
		 "sigma_profile": "yes", 
		 "theory": "DFT", 
		 "functional": "B3LYP", 
		 "basiset": "6-31G**", 
		 "properties": { 
			 "R2extent": 7063.1271, 
			 "electric_dipole_moment_norm": 4.71691838492, 
			 "electric_quadrupole_moment_norm": 22.3523789678, 
			 "total_energy": -839.989688365, 
			 "HOMO_LUMO_gap": 0.19837, 
			 "cosmo_polarized_energy": -17.84, 
			 "cosmo_cavitation_energy": 32.81, 
			 "cosmo_dispersion_energy": -23.32, 
			 "cosmo_repulsion_energy": 1.83, 
			 "cosmo_total_nonelectrostatic_energy": 11.32, 
			 "SMD_solvation_energy": 8.18 
		},
		"coords": [
			{
				"x": -1.9936234723,
				"y": -3.4060818996,
				"z": -0.4734124079,
				"element": "C" 
			},
			{
				"x": -2.321118785,
				"y": -2.0612003902,
				"z": 0.1829012157,
				"element": "C" 
			},
			{
				"x": -1.0676310201,
				"y": -1.2529825688,
				"z": 0.5401311279,
				"element": "C" 
			},
			{
				"x": -1.4060332168,
				"y": 0.0777415847,
				"z": 1.2164526335,
				"element": "C" 
			},
			{
				"x": -0.2041858109,
				"y": 0.8292387455,
				"z": 1.5813748556,
				"element": "N" 
			},
			{
				"x": 0.1267787816,
				"y": 2.1262273811,
				"z": 1.4043321649,
				"element": "C" 
			},
			{
				"x": 0.990701246,
				"y": 2.7038876001,
				"z": 2.0414518575,
				"element": "O" 
			},
			{
				"x": -0.6421112712,
				"y": 2.888321498,
				"z": 0.4201139575,
				"element": "N" 
			},
			{
				"x": -0.8473240489,
				"y": 4.2290566442,
				"z": 0.752339521,
				"element": "C" 
			},
			{
				"x": -1.3769737727,
				"y": 5.1085579608,
				"z": -0.1129363854,
				"element": "C" 
			},
			{
				"x": -1.6038253437,
				"y": 6.3788475353,
				"z": 0.2402513986,
				"element": "F" 
			},
			{
				"x": -1.7146211865,
				"y": 4.7320139973,
				"z": -1.4840283846,
				"element": "C" 
			},
			{
				"x": -2.1944653607,
				"y": 5.4524311507,
				"z": -2.3375011097,
				"element": "O" 
			},
			{
				"x": -1.3997541262,
				"y": 3.3849295371,
				"z": -1.7371702667,
				"element": "N" 
			},
			{
				"x": -0.8284069517,
				"y": 2.4369480691,
				"z": -0.9004193873,
				"element": "C" 
			},
			{
				"x": -0.5329002495,
				"y": 1.3229951721,
				"z": -1.2928296259,
				"element": "O" 
			},
			{
				"x": -2.90453206,
				"y": -3.9587084829,
				"z": -0.7243018808,
				"element": "H" 
			},
			{
				"x": -1.4229397982,
				"y": -3.2651597735,
				"z": -1.3977522669,
				"element": "H" 
			},
			{
				"x": -1.3943831941,
				"y": -4.0369850224,
				"z": 0.1928246997,
				"element": "H" 
			},
			{
				"x": -2.9211420107,
				"y": -2.2316298041,
				"z": 1.0875819904,
				"element": "H" 
			},
			{
				"x": -2.949850599,
				"y": -1.4680170123,
				"z": -0.4944993158,
				"element": "H" 
			},
			{
				"x": -0.429444334,
				"y": -1.8466964422,
				"z": 1.2106502822,
				"element": "H" 
			},
			{
				"x": -0.4822144411,
				"y": -1.0390484636,
				"z": -0.358870099,
				"element": "H" 
			},
			{
				"x": -1.9924339528,
				"y": -0.099735205,
				"z": 2.1292243451,
				"element": "H" 
			},
			{
				"x": -2.0169339998,
				"y": 0.6906575832,
				"z": 0.5560005109,
				"element": "H" 
			},
			{
				"x": 0.409887882,
				"y": 0.3922741755,
				"z": 2.2572040872,
				"element": "H" 
			},
			{
				"x": -0.5497044163,
				"y": 4.5089685485,
				"z": 1.7534825881,
				"element": "H" 
			},
			{
				"x": -1.5502144875,
				"y": 3.0688478813,
				"z": -2.6883961058,
				"element": "H" 
			}
		],
		 "valence_orbital": [ 
			{
				"type": "occ",
				"energy": -0.30133,
				"method": "rhf"
			},
			{
				"type": "occ",
				"energy": -0.29725,
				"method": "rhf"
			},
			{
				"type": "occ",
				"energy": -0.28039,
				"method": "rhf"
			},
			{
				"type": "occ",
				"energy": -0.27076,
				"method": "rhf"
			},
			{
				"type": "occ",
				"energy": -0.25316,
				"method": "rhf"
			},
			{
				"type": "unocc",
				"energy": -0.05479,
				"method": "rhf"
			},
			{
				"type": "unocc",
				"energy": -0.01559,
				"method": "rhf"
			},
			{
				"type": "unocc",
				"energy": 0.01878,
				"method": "rhf"
			},
			{
				"type": "unocc",
				"energy": 0.06198,
				"method": "rhf"
			},
			{
				"type": "unocc",
				"energy": 0.07949,
				"method": "rhf"
			}
		],
		"cosmo_sigma_profile": { 
			"-0.025": 0.0,
			"-0.024": 0.0,
			"-0.023": 0.0,
			"-0.022": 0.0,
			"-0.021": 0.0,
			"-0.02": 0.0,
			"-0.019": 0.0,
			"-0.018": 0.0,
			"-0.017": 0.322549930165,
			"-0.016": 0.934526399657,
			"-0.015": 1.35004023878,
			"-0.014": 1.49987992973,
			"-0.013": 2.06340254345,
			"-0.012": 1.98907302803,
			"-0.011": 2.57374809069,
			"-0.01": 2.91932174405,
			"-0.009": 3.14666265065,
			"-0.008": 3.73304703853,
			"-0.007": 6.64973902416,
			"-0.006": 8.72145071,
			"-0.005": 11.3370832459,
			"-0.004": 15.0972568905,
			"-0.003": 23.0796582828,
			"-0.002": 27.0740593347,
			"-0.001": 22.2905188034,
			"0.0": 22.5807710419,
			"0.001": 19.4405145012,
			"0.002": 10.6057398888,
			"0.003": 13.3218239514,
			"0.004": 6.88115024337,
			"0.005": 4.81596539102,
			"0.006": 4.42361808878,
			"0.007": 4.66905001043,
			"0.008": 4.6530633903,
			"0.009": 5.14186956685,
			"0.01": 5.99715340266,
			"0.011": 9.9079832185,
			"0.012": 10.862160353,
			"0.013": 1.06289670842,
			"0.014": 0.0,
			"0.015": 0.0,
			"0.016": 0.0,
			"0.017": 0.0,
			"0.018": 0.0,
			"0.019": 0.0,
			"0.02": 0.0,
			"0.021": 0.0,
			"0.022": 0.0,
			"0.023": 0.0,
			"0.024": 0.0,
			"0.025": 0.0
		}
	}
}
