{
	 "smiles": "NC1CCN(CC1)C(N)=O", 
	 "Tm": 338.15, 
	 "num_atms": 23, 
	 "gaussian": { 
		 "optdone": 1, 
		 "sigma_profile": "yes", 
		 "theory": "DFT", 
		 "functional": "B3LYP", 
		 "basiset": "6-31G**", 
		 "properties": { 
			 "R2extent": 1654.0725, 
			 "electric_dipole_moment_norm": 3.76108304216, 
			 "electric_quadrupole_moment_norm": 14.3865486942, 
			 "total_energy": -475.978136278, 
			 "HOMO_LUMO_gap": 0.27819, 
			 "cosmo_polarized_energy": -15.02, 
			 "cosmo_cavitation_energy": 24.01, 
			 "cosmo_dispersion_energy": -18.01, 
			 "cosmo_repulsion_energy": 1.48, 
			 "cosmo_total_nonelectrostatic_energy": 7.48, 
			 "SMD_solvation_energy": 3.06 
		},
		"coords": [
			{
				"x": -2.994791579,
				"y": 1.6994729954,
				"z": -0.0732340668,
				"element": "N" 
			},
			{
				"x": -2.5716070296,
				"y": 0.2972688513,
				"z": 0.0699076571,
				"element": "C" 
			},
			{
				"x": -1.9814673358,
				"y": -0.1972689299,
				"z": -1.2640428109,
				"element": "C" 
			},
			{
				"x": -0.659884906,
				"y": 0.5056966577,
				"z": -1.6022705956,
				"element": "C" 
			},
			{
				"x": 0.30220087,
				"y": 0.3789382771,
				"z": -0.5038836144,
				"element": "N" 
			},
			{
				"x": -0.1931869522,
				"y": 0.8971245628,
				"z": 0.7739572731,
				"element": "C" 
			},
			{
				"x": -1.5056691196,
				"y": 0.2041191308,
				"z": 1.1776956208,
				"element": "C" 
			},
			{
				"x": 1.2925618051,
				"y": -0.577311771,
				"z": -0.6239806144,
				"element": "C" 
			},
			{
				"x": 2.1552508356,
				"y": -0.7010851079,
				"z": 0.4706771926,
				"element": "N" 
			},
			{
				"x": 1.4224405669,
				"y": -1.291179781,
				"z": -1.6145417626,
				"element": "O" 
			},
			{
				"x": -3.6959767006,
				"y": 1.7765580471,
				"z": -0.8065657168,
				"element": "H" 
			},
			{
				"x": -3.4403256151,
				"y": 2.0171556632,
				"z": 0.7847375873,
				"element": "H" 
			},
			{
				"x": -3.4073695775,
				"y": -0.3703022234,
				"z": 0.3446475911,
				"element": "H" 
			},
			{
				"x": -1.8041057926,
				"y": -1.2771181496,
				"z": -1.1997160058,
				"element": "H" 
			},
			{
				"x": -2.7048601626,
				"y": -0.0392832294,
				"z": -2.0752025352,
				"element": "H" 
			},
			{
				"x": -0.8407887581,
				"y": 1.5726227706,
				"z": -1.7736355654,
				"element": "H" 
			},
			{
				"x": -0.2048803646,
				"y": 0.0705515268,
				"z": -2.4912613635,
				"element": "H" 
			},
			{
				"x": 0.5528138362,
				"y": 0.7506535928,
				"z": 1.5553043397,
				"element": "H" 
			},
			{
				"x": -0.3664357425,
				"y": 1.9738021486,
				"z": 0.6668013286,
				"element": "H" 
			},
			{
				"x": -1.8866686651,
				"y": 0.6515181627,
				"z": 2.1056694257,
				"element": "H" 
			},
			{
				"x": -1.30210704,
				"y": -0.8522137406,
				"z": 1.3901139442,
				"element": "H" 
			},
			{
				"x": 2.4235640748,
				"y": 0.15209954,
				"z": 0.9424024715,
				"element": "H" 
			},
			{
				"x": 2.9468933522,
				"y": -1.279218994,
				"z": 0.2227202195,
				"element": "H" 
			}
		],
		 "valence_orbital": [ 
			{
				"type": "occ",
				"energy": -0.31646,
				"method": "rhf"
			},
			{
				"type": "occ",
				"energy": -0.26504,
				"method": "rhf"
			},
			{
				"type": "occ",
				"energy": -0.24493,
				"method": "rhf"
			},
			{
				"type": "occ",
				"energy": -0.23956,
				"method": "rhf"
			},
			{
				"type": "occ",
				"energy": -0.21769,
				"method": "rhf"
			},
			{
				"type": "unocc",
				"energy": 0.0605,
				"method": "rhf"
			},
			{
				"type": "unocc",
				"energy": 0.06652,
				"method": "rhf"
			},
			{
				"type": "unocc",
				"energy": 0.09208,
				"method": "rhf"
			},
			{
				"type": "unocc",
				"energy": 0.11762,
				"method": "rhf"
			},
			{
				"type": "unocc",
				"energy": 0.12695,
				"method": "rhf"
			}
		],
		"cosmo_sigma_profile": { 
			"-0.025": 0.0,
			"-0.024": 0.0,
			"-0.023": 0.0,
			"-0.022": 0.0,
			"-0.021": 0.0,
			"-0.02": 0.0,
			"-0.019": 0.0,
			"-0.018": 0.0,
			"-0.017": 0.0,
			"-0.016": 0.0,
			"-0.015": 0.0,
			"-0.014": 0.0482193430915,
			"-0.013": 1.49982615404,
			"-0.012": 2.05858104747,
			"-0.011": 2.32757866883,
			"-0.01": 3.04387464984,
			"-0.009": 5.67867456989,
			"-0.008": 4.2857117507,
			"-0.007": 4.61084954233,
			"-0.006": 6.76242957534,
			"-0.005": 5.61615420703,
			"-0.004": 7.56430705407,
			"-0.003": 14.9453852968,
			"-0.002": 24.6561263959,
			"-0.001": 25.5433117425,
			"0.0": 15.9984876422,
			"0.001": 8.48489644067,
			"0.002": 4.21590982157,
			"0.003": 5.44920450666,
			"0.004": 4.63326969571,
			"0.005": 4.86715697052,
			"0.006": 2.8179311617,
			"0.007": 3.87100599427,
			"0.008": 2.98088991242,
			"0.009": 2.65226515447,
			"0.01": 2.46994990795,
			"0.011": 2.28531650107,
			"0.012": 2.65201729964,
			"0.013": 2.9529994777,
			"0.014": 4.44647150688,
			"0.015": 5.01819716281,
			"0.016": 0.6055500579,
			"0.017": 0.1510647849,
			"0.018": 0.0,
			"0.019": 0.0,
			"0.02": 0.0,
			"0.021": 0.0,
			"0.022": 0.0,
			"0.023": 0.0,
			"0.024": 0.0,
			"0.025": 0.0
		}
	}
}
