{
	 "smiles": "FC(F)(F)C1=C(C=CC(Cl)=C1)N1N=NN=C1CCl", 
	 "Tm": 375.15, 
	 "num_atms": 23, 
	 "gaussian": { 
		 "optdone": 1, 
		 "sigma_profile": "yes", 
		 "theory": "DFT", 
		 "functional": "B3LYP", 
		 "basiset": "6-31G**", 
		 "properties": { 
			 "R2extent": 5442.6174, 
			 "electric_dipole_moment_norm": 4.69024428042, 
			 "electric_quadrupole_moment_norm": 19.3682013385, 
			 "total_energy": -1784.82541696, 
			 "HOMO_LUMO_gap": 0.20827, 
			 "cosmo_polarized_energy": -13.89, 
			 "cosmo_cavitation_energy": 33.05, 
			 "cosmo_dispersion_energy": -22.77, 
			 "cosmo_repulsion_energy": 1.71, 
			 "cosmo_total_nonelectrostatic_energy": 11.99, 
			 "SMD_solvation_energy": 4.29 
		},
		"coords": [
			{
				"x": 0.711873816,
				"y": 2.5590866887,
				"z": -1.6452008444,
				"element": "F" 
			},
			{
				"x": 0.691476719,
				"y": 1.274526929,
				"z": -2.034204892,
				"element": "C" 
			},
			{
				"x": 1.7749439533,
				"y": 1.057423449,
				"z": -2.8021788171,
				"element": "F" 
			},
			{
				"x": -0.3984666285,
				"y": 1.1152946925,
				"z": -2.8309184744,
				"element": "F" 
			},
			{
				"x": 0.6441104944,
				"y": 0.3280467035,
				"z": -0.855077818,
				"element": "C" 
			},
			{
				"x": -0.3771745862,
				"y": 0.4126183774,
				"z": 0.1054035805,
				"element": "C" 
			},
			{
				"x": -0.3963315893,
				"y": -0.4614789262,
				"z": 1.1909109556,
				"element": "C" 
			},
			{
				"x": 0.5927936634,
				"y": -1.4325456937,
				"z": 1.3300705211,
				"element": "C" 
			},
			{
				"x": 1.5995104755,
				"y": -1.5168618768,
				"z": 0.3698581049,
				"element": "C" 
			},
			{
				"x": 2.846230325,
				"y": -2.7313237585,
				"z": 0.5280264263,
				"element": "Cl" 
			},
			{
				"x": 1.6329099818,
				"y": -0.6453759488,
				"z": -0.7190387719,
				"element": "C" 
			},
			{
				"x": -1.3988890455,
				"y": 1.4084681579,
				"z": 0.0119030622,
				"element": "N" 
			},
			{
				"x": -1.289961863,
				"y": 2.5937773511,
				"z": 0.6801277363,
				"element": "N" 
			},
			{
				"x": -2.3662130562,
				"y": 3.254611867,
				"z": 0.4217632931,
				"element": "N" 
			},
			{
				"x": -3.1983549539,
				"y": 2.5521510361,
				"z": -0.3898653687,
				"element": "N" 
			},
			{
				"x": -2.5926001513,
				"y": 1.4079023247,
				"z": -0.6384953582,
				"element": "C" 
			},
			{
				"x": -3.1410462267,
				"y": 0.3156844633,
				"z": -1.4817531009,
				"element": "C" 
			},
			{
				"x": -3.719557425,
				"y": -1.0947306427,
				"z": -0.4833960656,
				"element": "Cl" 
			},
			{
				"x": -1.1908248518,
				"y": -0.3754109004,
				"z": 1.9234122067,
				"element": "H" 
			},
			{
				"x": 0.5816648648,
				"y": -2.1146380761,
				"z": 2.1722481645,
				"element": "H" 
			},
			{
				"x": 2.4249074718,
				"y": -0.7184201725,
				"z": -1.4529192728,
				"element": "H" 
			},
			{
				"x": -2.397882391,
				"y": -0.0745119317,
				"z": -2.1747011144,
				"element": "H" 
			},
			{
				"x": -4.0032189966,
				"y": 0.696905887,
				"z": -2.0254741528,
				"element": "H" 
			}
		],
		 "valence_orbital": [ 
			{
				"type": "occ",
				"energy": -0.30963,
				"method": "rhf"
			},
			{
				"type": "occ",
				"energy": -0.30921,
				"method": "rhf"
			},
			{
				"type": "occ",
				"energy": -0.30793,
				"method": "rhf"
			},
			{
				"type": "occ",
				"energy": -0.3055,
				"method": "rhf"
			},
			{
				"type": "occ",
				"energy": -0.28018,
				"method": "rhf"
			},
			{
				"type": "unocc",
				"energy": -0.07191,
				"method": "rhf"
			},
			{
				"type": "unocc",
				"energy": -0.05942,
				"method": "rhf"
			},
			{
				"type": "unocc",
				"energy": -0.05226,
				"method": "rhf"
			},
			{
				"type": "unocc",
				"energy": -0.0081,
				"method": "rhf"
			},
			{
				"type": "unocc",
				"energy": 6e-05,
				"method": "rhf"
			}
		],
		"cosmo_sigma_profile": { 
			"-0.025": 0.0,
			"-0.024": 0.0,
			"-0.023": 0.0,
			"-0.022": 0.0,
			"-0.021": 0.0,
			"-0.02": 0.0,
			"-0.019": 0.0,
			"-0.018": 0.0,
			"-0.017": 0.0,
			"-0.016": 0.0,
			"-0.015": 0.0,
			"-0.014": 0.0,
			"-0.013": 0.0,
			"-0.012": 0.00348492780094,
			"-0.011": 0.115239431712,
			"-0.01": 2.04133393608,
			"-0.009": 7.91302427527,
			"-0.008": 10.880574503,
			"-0.007": 9.56492043492,
			"-0.006": 9.32315178376,
			"-0.005": 11.8281868839,
			"-0.004": 11.0640378015,
			"-0.003": 14.6692645995,
			"-0.002": 19.1450909231,
			"-0.001": 24.7792545779,
			"0.0": 22.967372417,
			"0.001": 23.4188129293,
			"0.002": 31.6262442581,
			"0.003": 19.8207596949,
			"0.004": 12.779486833,
			"0.005": 9.52341019169,
			"0.006": 4.9538898625,
			"0.007": 4.53898545607,
			"0.008": 4.44577034087,
			"0.009": 4.87189712511,
			"0.01": 3.84500674183,
			"0.011": 2.94138241047,
			"0.012": 2.62270513096,
			"0.013": 1.35797492879,
			"0.014": 0.451305079912,
			"0.015": 0.0,
			"0.016": 0.0,
			"0.017": 0.0,
			"0.018": 0.0,
			"0.019": 0.0,
			"0.02": 0.0,
			"0.021": 0.0,
			"0.022": 0.0,
			"0.023": 0.0,
			"0.024": 0.0,
			"0.025": 0.0
		}
	}
}
