{
	 "smiles": "COC1=CC2=C(C=C1)C(=CC(S)=N2)C1=CC=CC=C1", 
	 "Tm": 454.15, 
	 "num_atms": 32, 
	 "gaussian": { 
		 "optdone": 1, 
		 "sigma_profile": "yes", 
		 "theory": "DFT", 
		 "functional": "B3LYP", 
		 "basiset": "6-31G**", 
		 "properties": { 
			 "R2extent": 6730.8198, 
			 "electric_dipole_moment_norm": 3.98349101292, 
			 "electric_quadrupole_moment_norm": 7.46637921284, 
			 "total_energy": -1145.70072166, 
			 "HOMO_LUMO_gap": 0.16625, 
			 "cosmo_polarized_energy": -10.59, 
			 "cosmo_cavitation_energy": 38.07, 
			 "cosmo_dispersion_energy": -27.65, 
			 "cosmo_repulsion_energy": 2.09, 
			 "cosmo_total_nonelectrostatic_energy": 12.51, 
			 "SMD_solvation_energy": 5.03 
		},
		"coords": [
			{
				"x": 3.7867808543,
				"y": 4.1903200768,
				"z": -1.251272693,
				"element": "C" 
			},
			{
				"x": 2.7858179972,
				"y": 3.9684779596,
				"z": -0.2698760817,
				"element": "O" 
			},
			{
				"x": 2.1762891571,
				"y": 2.7503908845,
				"z": -0.2157305525,
				"element": "C" 
			},
			{
				"x": 1.2078282405,
				"y": 2.5932028061,
				"z": 0.7627592262,
				"element": "C" 
			},
			{
				"x": 0.5184542127,
				"y": 1.371012701,
				"z": 0.9020833689,
				"element": "C" 
			},
			{
				"x": 0.8243815768,
				"y": 0.2818937386,
				"z": 0.0213540649,
				"element": "C" 
			},
			{
				"x": 1.8182834015,
				"y": 0.4749971287,
				"z": -0.9669413679,
				"element": "C" 
			},
			{
				"x": 2.4843835725,
				"y": 1.6769280696,
				"z": -1.0908490023,
				"element": "C" 
			},
			{
				"x": 0.1020488943,
				"y": -0.9414953762,
				"z": 0.1960761284,
				"element": "C" 
			},
			{
				"x": -0.8427396376,
				"y": -1.0075068759,
				"z": 1.1947834204,
				"element": "C" 
			},
			{
				"x": -1.0659947081,
				"y": 0.1368366116,
				"z": 2.0129822017,
				"element": "C" 
			},
			{
				"x": -2.306294829,
				"y": -0.0093682893,
				"z": 3.2941568286,
				"element": "S" 
			},
			{
				"x": -0.4281686675,
				"y": 1.2752679218,
				"z": 1.8877829329,
				"element": "N" 
			},
			{
				"x": 0.3574234451,
				"y": -2.127172854,
				"z": -0.6781555507,
				"element": "C" 
			},
			{
				"x": -0.3710236538,
				"y": -2.3082035079,
				"z": -1.8626450351,
				"element": "C" 
			},
			{
				"x": -0.1441755566,
				"y": -3.424287231,
				"z": -2.6694974222,
				"element": "C" 
			},
			{
				"x": 0.813740479,
				"y": -4.3715841561,
				"z": -2.3034335522,
				"element": "C" 
			},
			{
				"x": 1.5445303024,
				"y": -4.198222304,
				"z": -1.1266274466,
				"element": "C" 
			},
			{
				"x": 1.3188100936,
				"y": -3.0826672662,
				"z": -0.3187286106,
				"element": "C" 
			},
			{
				"x": 3.3902164286,
				"y": 4.0849402374,
				"z": -2.2691802014,
				"element": "H" 
			},
			{
				"x": 4.1254238456,
				"y": 5.2171812648,
				"z": -1.1054645607,
				"element": "H" 
			},
			{
				"x": 4.6391717757,
				"y": 3.5106032766,
				"z": -1.1251226051,
				"element": "H" 
			},
			{
				"x": 0.9707979445,
				"y": 3.4116664556,
				"z": 1.4323699859,
				"element": "H" 
			},
			{
				"x": 2.0582928513,
				"y": -0.3421724682,
				"z": -1.6391999897,
				"element": "H" 
			},
			{
				"x": 3.2399835923,
				"y": 1.7903877893,
				"z": -1.8587757143,
				"element": "H" 
			},
			{
				"x": -1.4110852696,
				"y": -1.9168861266,
				"z": 1.3590836995,
				"element": "H" 
			},
			{
				"x": -2.1405333272,
				"y": 1.2484272458,
				"z": 3.7451035272,
				"element": "H" 
			},
			{
				"x": -1.1180778451,
				"y": -1.5726429297,
				"z": -2.1468221072,
				"element": "H" 
			},
			{
				"x": -0.7177815597,
				"y": -3.5538625626,
				"z": -3.5828627339,
				"element": "H" 
			},
			{
				"x": 0.9889229802,
				"y": -5.2405827295,
				"z": -2.9310916683,
				"element": "H" 
			},
			{
				"x": 2.2900885989,
				"y": -4.9323784572,
				"z": -0.834730006,
				"element": "H" 
			},
			{
				"x": 1.8861048103,
				"y": -2.9495010335,
				"z": 0.5979715166,
				"element": "H" 
			}
		],
		 "valence_orbital": [ 
			{
				"type": "occ",
				"energy": -0.25738,
				"method": "rhf"
			},
			{
				"type": "occ",
				"energy": -0.25729,
				"method": "rhf"
			},
			{
				"type": "occ",
				"energy": -0.25235,
				"method": "rhf"
			},
			{
				"type": "occ",
				"energy": -0.22027,
				"method": "rhf"
			},
			{
				"type": "occ",
				"energy": -0.21508,
				"method": "rhf"
			},
			{
				"type": "unocc",
				"energy": -0.04883,
				"method": "rhf"
			},
			{
				"type": "unocc",
				"energy": -0.01476,
				"method": "rhf"
			},
			{
				"type": "unocc",
				"energy": -0.00984,
				"method": "rhf"
			},
			{
				"type": "unocc",
				"energy": -0.00068,
				"method": "rhf"
			},
			{
				"type": "unocc",
				"energy": 0.02261,
				"method": "rhf"
			}
		],
		"cosmo_sigma_profile": { 
			"-0.025": 0.0,
			"-0.024": 0.0,
			"-0.023": 0.0,
			"-0.022": 0.0,
			"-0.021": 0.0,
			"-0.02": 0.0,
			"-0.019": 0.0,
			"-0.018": 0.0,
			"-0.017": 0.0,
			"-0.016": 0.0,
			"-0.015": 0.0,
			"-0.014": 0.0,
			"-0.013": 0.0,
			"-0.012": 0.0,
			"-0.011": 0.248760910425,
			"-0.01": 1.70298768732,
			"-0.009": 0.915556900082,
			"-0.008": 1.64736194414,
			"-0.007": 4.59693825166,
			"-0.006": 17.7276756823,
			"-0.005": 27.1059388127,
			"-0.004": 26.2511529687,
			"-0.003": 23.4648779078,
			"-0.002": 18.9722695246,
			"-0.001": 16.4519234456,
			"0.0": 22.0504556303,
			"0.001": 24.3605177885,
			"0.002": 27.4807173592,
			"0.003": 29.6253892703,
			"0.004": 24.0332613907,
			"0.005": 15.72793237,
			"0.006": 8.3351296475,
			"0.007": 5.4973691851,
			"0.008": 3.82142764362,
			"0.009": 2.43322883047,
			"0.01": 2.88521221058,
			"0.011": 0.866018411628,
			"0.012": 0.918995657365,
			"0.013": 0.633076286324,
			"0.014": 0.0,
			"0.015": 0.0,
			"0.016": 0.0,
			"0.017": 0.0,
			"0.018": 0.0,
			"0.019": 0.0,
			"0.02": 0.0,
			"0.021": 0.0,
			"0.022": 0.0,
			"0.023": 0.0,
			"0.024": 0.0,
			"0.025": 0.0
		}
	}
}
