{
	 "smiles": "NC(=S)COCC1=CC=CC=C1", 
	 "Tm": 317.15, 
	 "num_atms": 23, 
	 "gaussian": { 
		 "optdone": 1, 
		 "sigma_profile": "yes", 
		 "theory": "DFT", 
		 "functional": "B3LYP", 
		 "basiset": "6-31G**", 
		 "properties": { 
			 "R2extent": 4956.1517, 
			 "electric_dipole_moment_norm": 4.74883434329, 
			 "electric_quadrupole_moment_norm": 29.9436421536, 
			 "total_energy": -877.74637654, 
			 "HOMO_LUMO_gap": 0.18062, 
			 "cosmo_polarized_energy": -14.9, 
			 "cosmo_cavitation_energy": 28.69, 
			 "cosmo_dispersion_energy": -21.02, 
			 "cosmo_repulsion_energy": 1.67, 
			 "cosmo_total_nonelectrostatic_energy": 9.34, 
			 "SMD_solvation_energy": 3.96 
		},
		"coords": [
			{
				"x": 2.022941854,
				"y": 3.6958641112,
				"z": 0.632616395,
				"element": "N" 
			},
			{
				"x": 2.6096955212,
				"y": 2.7673978412,
				"z": -0.1301748346,
				"element": "C" 
			},
			{
				"x": 4.201039098,
				"y": 2.8025187042,
				"z": -0.6144995857,
				"element": "S" 
			},
			{
				"x": 1.6949091762,
				"y": 1.6250398306,
				"z": -0.5395290572,
				"element": "C" 
			},
			{
				"x": 0.3832005484,
				"y": 1.8366780304,
				"z": -0.0348338992,
				"element": "O" 
			},
			{
				"x": -0.5143959624,
				"y": 0.7560168665,
				"z": -0.2735205778,
				"element": "C" 
			},
			{
				"x": -0.9083786897,
				"y": 0.5950245701,
				"z": -1.7292580772,
				"element": "C" 
			},
			{
				"x": -1.014051146,
				"y": -0.6759217806,
				"z": -2.3035302033,
				"element": "C" 
			},
			{
				"x": -1.4231373751,
				"y": -0.8245855554,
				"z": -3.6306156868,
				"element": "C" 
			},
			{
				"x": -1.7176488839,
				"y": 0.3010665318,
				"z": -4.400520575,
				"element": "C" 
			},
			{
				"x": -1.6039755483,
				"y": 1.5750291774,
				"z": -3.8373556641,
				"element": "C" 
			},
			{
				"x": -1.2057165914,
				"y": 1.7206625636,
				"z": -2.5092511551,
				"element": "C" 
			},
			{
				"x": 2.5608991031,
				"y": 4.4874321456,
				"z": 0.9523454993,
				"element": "H" 
			},
			{
				"x": 1.0489415812,
				"y": 3.5881578708,
				"z": 0.8836410395,
				"element": "H" 
			},
			{
				"x": 1.6984699284,
				"y": 1.552466617,
				"z": -1.633932401,
				"element": "H" 
			},
			{
				"x": 2.119012126,
				"y": 0.6899388997,
				"z": -0.145471179,
				"element": "H" 
			},
			{
				"x": -0.0862531149,
				"y": -0.1838221008,
				"z": 0.1074981995,
				"element": "H" 
			},
			{
				"x": -1.395339476,
				"y": 0.9869316186,
				"z": 0.3361494326,
				"element": "H" 
			},
			{
				"x": -0.7743134126,
				"y": -1.555524344,
				"z": -1.7103603421,
				"element": "H" 
			},
			{
				"x": -1.5010885802,
				"y": -1.8175773467,
				"z": -4.0639926927,
				"element": "H" 
			},
			{
				"x": -2.0291179645,
				"y": 0.1881818589,
				"z": -5.4348929148,
				"element": "H" 
			},
			{
				"x": -1.8269060673,
				"y": 2.4550540183,
				"z": -4.4339898966,
				"element": "H" 
			},
			{
				"x": -1.1113861243,
				"y": 2.7096698717,
				"z": -2.0700218237,
				"element": "H" 
			}
		],
		 "valence_orbital": [ 
			{
				"type": "occ",
				"energy": -0.28417,
				"method": "rhf"
			},
			{
				"type": "occ",
				"energy": -0.25797,
				"method": "rhf"
			},
			{
				"type": "occ",
				"energy": -0.25327,
				"method": "rhf"
			},
			{
				"type": "occ",
				"energy": -0.22382,
				"method": "rhf"
			},
			{
				"type": "occ",
				"energy": -0.2052,
				"method": "rhf"
			},
			{
				"type": "unocc",
				"energy": -0.02458,
				"method": "rhf"
			},
			{
				"type": "unocc",
				"energy": -0.01406,
				"method": "rhf"
			},
			{
				"type": "unocc",
				"energy": -0.00852,
				"method": "rhf"
			},
			{
				"type": "unocc",
				"energy": 0.07239,
				"method": "rhf"
			},
			{
				"type": "unocc",
				"energy": 0.08964,
				"method": "rhf"
			}
		],
		"cosmo_sigma_profile": { 
			"-0.025": 0.0,
			"-0.024": 0.0,
			"-0.023": 0.0,
			"-0.022": 0.0,
			"-0.021": 0.0,
			"-0.02": 0.0,
			"-0.019": 0.0,
			"-0.018": 0.0,
			"-0.017": 0.0,
			"-0.016": 0.0683469413212,
			"-0.015": 1.1811819926,
			"-0.014": 1.47617545231,
			"-0.013": 1.92533209131,
			"-0.012": 2.09312954293,
			"-0.011": 2.02678288769,
			"-0.01": 1.49550220314,
			"-0.009": 1.73688791665,
			"-0.008": 0.718841248983,
			"-0.007": 3.46969891002,
			"-0.006": 12.4170329879,
			"-0.005": 18.9889696838,
			"-0.004": 19.6760735594,
			"-0.003": 19.6204359389,
			"-0.002": 13.909324967,
			"-0.001": 15.9823888957,
			"0.0": 13.8162792844,
			"0.001": 11.529081923,
			"0.002": 11.9605214128,
			"0.003": 12.4358204207,
			"0.004": 11.5433764584,
			"0.005": 12.7880659595,
			"0.006": 9.79983938002,
			"0.007": 3.99081790677,
			"0.008": 4.92343037044,
			"0.009": 6.60949462693,
			"0.01": 6.14197089552,
			"0.011": 4.30410829114,
			"0.012": 2.85352320297,
			"0.013": 0.802198047702,
			"0.014": 0.0,
			"0.015": 0.0,
			"0.016": 0.0,
			"0.017": 0.0,
			"0.018": 0.0,
			"0.019": 0.0,
			"0.02": 0.0,
			"0.021": 0.0,
			"0.022": 0.0,
			"0.023": 0.0,
			"0.024": 0.0,
			"0.025": 0.0
		}
	}
}
