{
	 "smiles": "CC1=CC(C)=C(CC(=O)CSC#N)C(C)=C1", 
	 "Tm": 399.15, 
	 "num_atms": 31, 
	 "gaussian": { 
		 "optdone": 1, 
		 "sigma_profile": "yes", 
		 "theory": "DFT", 
		 "functional": "B3LYP", 
		 "basiset": "6-31G**", 
		 "properties": { 
			 "R2extent": 4811.72, 
			 "electric_dipole_moment_norm": 5.74375101654, 
			 "electric_quadrupole_moment_norm": 21.7818177696, 
			 "total_energy": -1032.57090421, 
			 "HOMO_LUMO_gap": 0.19833, 
			 "cosmo_polarized_energy": -15.86, 
			 "cosmo_cavitation_energy": 36.77, 
			 "cosmo_dispersion_energy": -24.47, 
			 "cosmo_repulsion_energy": 1.86, 
			 "cosmo_total_nonelectrostatic_energy": 14.16, 
			 "SMD_solvation_energy": 8.01 
		},
		"coords": [
			{
				"x": -2.2604655225,
				"y": 0.5996235686,
				"z": -3.3409352026,
				"element": "C" 
			},
			{
				"x": -1.7210350335,
				"y": 0.4448051093,
				"z": -1.938741037,
				"element": "C" 
			},
			{
				"x": -2.2107088312,
				"y": -0.5426067969,
				"z": -1.0808500595,
				"element": "C" 
			},
			{
				"x": -1.7050382185,
				"y": -0.7208714784,
				"z": 0.2120683424,
				"element": "C" 
			},
			{
				"x": -2.3065151735,
				"y": -1.8048142262,
				"z": 1.0829814447,
				"element": "C" 
			},
			{
				"x": -0.6676020892,
				"y": 0.1202341304,
				"z": 0.6686631121,
				"element": "C" 
			},
			{
				"x": -0.0922577147,
				"y": -0.032856593,
				"z": 2.0673819357,
				"element": "C" 
			},
			{
				"x": 1.3494560742,
				"y": -0.5511368304,
				"z": 2.136602246,
				"element": "C" 
			},
			{
				"x": 2.1895479264,
				"y": -0.0282134098,
				"z": 2.8331239287,
				"element": "O" 
			},
			{
				"x": 1.6470344792,
				"y": -1.7951518686,
				"z": 1.2861966903,
				"element": "C" 
			},
			{
				"x": 3.3980858211,
				"y": -2.3439909531,
				"z": 1.3101249313,
				"element": "S" 
			},
			{
				"x": 4.1035845691,
				"y": -1.0530362826,
				"z": 0.4564828022,
				"element": "C" 
			},
			{
				"x": 4.6156132554,
				"y": -0.1926379248,
				"z": -0.1417758036,
				"element": "N" 
			},
			{
				"x": -0.1645883673,
				"y": 1.131792223,
				"z": -0.181083472,
				"element": "C" 
			},
			{
				"x": 0.9396735105,
				"y": 2.0659416849,
				"z": 0.2630564212,
				"element": "C" 
			},
			{
				"x": -0.7015701357,
				"y": 1.2744795398,
				"z": -1.4643454373,
				"element": "C" 
			},
			{
				"x": -3.2748726597,
				"y": 0.1992433239,
				"z": -3.4266170007,
				"element": "H" 
			},
			{
				"x": -2.2827844553,
				"y": 1.6500546788,
				"z": -3.6471486812,
				"element": "H" 
			},
			{
				"x": -1.6352142309,
				"y": 0.0647162622,
				"z": -4.0667820773,
				"element": "H" 
			},
			{
				"x": -3.0135144175,
				"y": -1.1917466043,
				"z": -1.4234027899,
				"element": "H" 
			},
			{
				"x": -2.7540453092,
				"y": -1.397739417,
				"z": 1.9975214237,
				"element": "H" 
			},
			{
				"x": -3.0953614724,
				"y": -2.3357991595,
				"z": 0.5445514999,
				"element": "H" 
			},
			{
				"x": -1.5676690389,
				"y": -2.5539060845,
				"z": 1.3928658196,
				"element": "H" 
			},
			{
				"x": -0.0891129693,
				"y": 0.9167027891,
				"z": 2.6109570182,
				"element": "H" 
			},
			{
				"x": -0.7013343746,
				"y": -0.7289488438,
				"z": 2.6546497426,
				"element": "H" 
			},
			{
				"x": 1.0812828583,
				"y": -2.6478380729,
				"z": 1.6802892294,
				"element": "H" 
			},
			{
				"x": 1.3189436853,
				"y": -1.6425874591,
				"z": 0.2557883852,
				"element": "H" 
			},
			{
				"x": 1.0826611723,
				"y": 2.8655060246,
				"z": -0.4677693608,
				"element": "H" 
			},
			{
				"x": 0.7205488324,
				"y": 2.5329805666,
				"z": 1.2297564187,
				"element": "H" 
			},
			{
				"x": 1.9019252908,
				"y": 1.552644255,
				"z": 0.372855851,
				"element": "H" 
			},
			{
				"x": -0.3111674611,
				"y": 2.0587578487,
				"z": -2.1090663212,
				"element": "H" 
			}
		],
		 "valence_orbital": [ 
			{
				"type": "occ",
				"energy": -0.32797,
				"method": "rhf"
			},
			{
				"type": "occ",
				"energy": -0.27479,
				"method": "rhf"
			},
			{
				"type": "occ",
				"energy": -0.26412,
				"method": "rhf"
			},
			{
				"type": "occ",
				"energy": -0.24461,
				"method": "rhf"
			},
			{
				"type": "occ",
				"energy": -0.23622,
				"method": "rhf"
			},
			{
				"type": "unocc",
				"energy": -0.03789,
				"method": "rhf"
			},
			{
				"type": "unocc",
				"energy": -0.02555,
				"method": "rhf"
			},
			{
				"type": "unocc",
				"energy": -0.01055,
				"method": "rhf"
			},
			{
				"type": "unocc",
				"energy": -0.00347,
				"method": "rhf"
			},
			{
				"type": "unocc",
				"energy": 0.03814,
				"method": "rhf"
			}
		],
		"cosmo_sigma_profile": { 
			"-0.025": 0.0,
			"-0.024": 0.0,
			"-0.023": 0.0,
			"-0.022": 0.0,
			"-0.021": 0.0,
			"-0.02": 0.0,
			"-0.019": 0.0,
			"-0.018": 0.0,
			"-0.017": 0.0,
			"-0.016": 0.0,
			"-0.015": 0.0,
			"-0.014": 0.0,
			"-0.013": 0.0,
			"-0.012": 0.150127051301,
			"-0.011": 1.86771315292,
			"-0.01": 3.20922835108,
			"-0.009": 3.68124382021,
			"-0.008": 4.95413067267,
			"-0.007": 5.42468883846,
			"-0.006": 9.4398904731,
			"-0.005": 15.8413846461,
			"-0.004": 25.8193711911,
			"-0.003": 26.4277058726,
			"-0.002": 23.2232820543,
			"-0.001": 26.0227052997,
			"0.0": 35.6300310687,
			"0.001": 22.0775061826,
			"0.002": 12.348874096,
			"0.003": 12.2628854291,
			"0.004": 11.5266169195,
			"0.005": 10.7927127213,
			"0.006": 10.46293082,
			"0.007": 6.08545899483,
			"0.008": 5.31301463201,
			"0.009": 4.82659822295,
			"0.01": 6.26664334483,
			"0.011": 6.24440645683,
			"0.012": 3.05894068337,
			"0.013": 0.515858172636,
			"0.014": 0.0,
			"0.015": 0.0,
			"0.016": 0.0,
			"0.017": 0.0,
			"0.018": 0.0,
			"0.019": 0.0,
			"0.02": 0.0,
			"0.021": 0.0,
			"0.022": 0.0,
			"0.023": 0.0,
			"0.024": 0.0,
			"0.025": 0.0
		}
	}
}
