{
	 "smiles": "FC(F)(F)C1=NN(C(=O)C1=NNC1=CC(=NN1)C1=CC=CC=C1)C1=CC=CC=C1", 
	 "Tm": 553.15, 
	 "num_atms": 42, 
	 "gaussian": { 
		 "optdone": 1, 
		 "sigma_profile": "yes", 
		 "theory": "DFT", 
		 "functional": "B3LYP", 
		 "basiset": "6-31G**", 
		 "properties": { 
			 "R2extent": 19042.2449, 
			 "electric_dipole_moment_norm": 2.27329614877, 
			 "electric_quadrupole_moment_norm": 10.0304334228, 
			 "total_energy": -1435.03160555, 
			 "HOMO_LUMO_gap": 0.10878, 
			 "cosmo_polarized_energy": -22.42, 
			 "cosmo_cavitation_energy": 50.09, 
			 "cosmo_dispersion_energy": -35.59, 
			 "cosmo_repulsion_energy": 2.56, 
			 "cosmo_total_nonelectrostatic_energy": 17.07, 
			 "SMD_solvation_energy": 7.86 
		},
		"coords": [
			{
				"x": -3.4249087917,
				"y": -1.3441424754,
				"z": -0.6395938389,
				"element": "F" 
			},
			{
				"x": -2.8785819986,
				"y": -1.3243950945,
				"z": 0.6008674141,
				"element": "C" 
			},
			{
				"x": -3.8585716093,
				"y": -1.3537759176,
				"z": 1.4977783178,
				"element": "F" 
			},
			{
				"x": -2.1800333814,
				"y": -2.5049178737,
				"z": 0.7030991488,
				"element": "F" 
			},
			{
				"x": -1.9582644077,
				"y": -0.1603025154,
				"z": 0.766998132,
				"element": "C" 
			},
			{
				"x": -2.2863383951,
				"y": 0.7990954112,
				"z": 1.5861773696,
				"element": "N" 
			},
			{
				"x": -1.3436447126,
				"y": 1.7815178248,
				"z": 1.5191362967,
				"element": "N" 
			},
			{
				"x": -0.3255172234,
				"y": 1.4825198551,
				"z": 0.5793066547,
				"element": "C" 
			},
			{
				"x": 0.6394143628,
				"y": 2.1666189308,
				"z": 0.2961389466,
				"element": "O" 
			},
			{
				"x": -0.7291480705,
				"y": 0.1453692552,
				"z": 0.0568614229,
				"element": "C" 
			},
			{
				"x": 0.0195044869,
				"y": -0.438147586,
				"z": -0.8390260275,
				"element": "N" 
			},
			{
				"x": -0.2581270864,
				"y": -1.6349635389,
				"z": -1.3022467707,
				"element": "N" 
			},
			{
				"x": 0.5745784415,
				"y": -2.2098215047,
				"z": -2.2569313283,
				"element": "C" 
			},
			{
				"x": 1.7150021985,
				"y": -1.7481555732,
				"z": -2.8807390099,
				"element": "C" 
			},
			{
				"x": 2.0900379498,
				"y": -2.8053145769,
				"z": -3.754394671,
				"element": "C" 
			},
			{
				"x": 1.2377178174,
				"y": -3.8356045819,
				"z": -3.6691499156,
				"element": "N" 
			},
			{
				"x": 0.3214512072,
				"y": -3.4537369552,
				"z": -2.750697108,
				"element": "N" 
			},
			{
				"x": 3.242256488,
				"y": -2.8621791265,
				"z": -4.6706500409,
				"element": "C" 
			},
			{
				"x": 3.466536692,
				"y": -4.0043382141,
				"z": -5.4576976935,
				"element": "C" 
			},
			{
				"x": 4.5538139415,
				"y": -4.0626917555,
				"z": -6.3253432916,
				"element": "C" 
			},
			{
				"x": 5.4372369773,
				"y": -2.9843645351,
				"z": -6.4242411902,
				"element": "C" 
			},
			{
				"x": 5.2226099156,
				"y": -1.8456123893,
				"z": -5.6464270978,
				"element": "C" 
			},
			{
				"x": 4.1344157441,
				"y": -1.7843545878,
				"z": -4.7768125465,
				"element": "C" 
			},
			{
				"x": -1.4849562403,
				"y": 2.9341157048,
				"z": 2.3463728669,
				"element": "C" 
			},
			{
				"x": -0.560266181,
				"y": 3.98477579,
				"z": 2.2694615689,
				"element": "C" 
			},
			{
				"x": -0.7272913972,
				"y": 5.0982938726,
				"z": 3.0934665525,
				"element": "C" 
			},
			{
				"x": -1.7958232131,
				"y": 5.1790286988,
				"z": 3.9859520767,
				"element": "C" 
			},
			{
				"x": -2.709821963,
				"y": 4.1256024242,
				"z": 4.0525895961,
				"element": "C" 
			},
			{
				"x": -2.5622958541,
				"y": 3.0038467418,
				"z": 3.2405219585,
				"element": "C" 
			},
			{
				"x": -1.0186137451,
				"y": -2.1909033444,
				"z": -0.9157031598,
				"element": "H" 
			},
			{
				"x": 2.1865537437,
				"y": -0.7943261504,
				"z": -2.7121585623,
				"element": "H" 
			},
			{
				"x": -0.4388300242,
				"y": -4.0781530557,
				"z": -2.52949855,
				"element": "H" 
			},
			{
				"x": 2.7787543901,
				"y": -4.8391637631,
				"z": -5.3777432176,
				"element": "H" 
			},
			{
				"x": 4.7131996679,
				"y": -4.9531278195,
				"z": -6.9269876636,
				"element": "H" 
			},
			{
				"x": 6.2850175311,
				"y": -3.0318121646,
				"z": -7.1015541397,
				"element": "H" 
			},
			{
				"x": 5.9028018385,
				"y": -1.0015233515,
				"z": -5.7154003778,
				"element": "H" 
			},
			{
				"x": 3.9807908058,
				"y": -0.8911460649,
				"z": -4.1790448568,
				"element": "H" 
			},
			{
				"x": 0.2690550244,
				"y": 3.9242161072,
				"z": 1.5791070139,
				"element": "H" 
			},
			{
				"x": -0.0078774855,
				"y": 5.9095155245,
				"z": 3.0299921411,
				"element": "H" 
			},
			{
				"x": -1.915813179,
				"y": 6.0506947492,
				"z": 4.6220661964,
				"element": "H" 
			},
			{
				"x": -3.5474670489,
				"y": 4.1720003493,
				"z": 4.7424805565,
				"element": "H" 
			},
			{
				"x": -3.2696572159,
				"y": 2.1860632764,
				"z": 3.2908668271,
				"element": "H" 
			}
		],
		 "valence_orbital": [ 
			{
				"type": "occ",
				"energy": -0.25336,
				"method": "rhf"
			},
			{
				"type": "occ",
				"energy": -0.24994,
				"method": "rhf"
			},
			{
				"type": "occ",
				"energy": -0.23923,
				"method": "rhf"
			},
			{
				"type": "occ",
				"energy": -0.22685,
				"method": "rhf"
			},
			{
				"type": "occ",
				"energy": -0.21867,
				"method": "rhf"
			},
			{
				"type": "unocc",
				"energy": -0.10989,
				"method": "rhf"
			},
			{
				"type": "unocc",
				"energy": -0.02841,
				"method": "rhf"
			},
			{
				"type": "unocc",
				"energy": -0.02653,
				"method": "rhf"
			},
			{
				"type": "unocc",
				"energy": -0.00334,
				"method": "rhf"
			},
			{
				"type": "unocc",
				"energy": 9e-05,
				"method": "rhf"
			}
		],
		"cosmo_sigma_profile": { 
			"-0.025": 0.0,
			"-0.024": 0.0,
			"-0.023": 0.0,
			"-0.022": 0.16196460679,
			"-0.021": 0.736444443957,
			"-0.02": 0.589646527736,
			"-0.019": 0.86740297505,
			"-0.018": 2.11267767178,
			"-0.017": 1.48250028485,
			"-0.016": 1.48818931505,
			"-0.015": 1.1880011878,
			"-0.014": 1.67269880991,
			"-0.013": 0.802277362348,
			"-0.012": 1.15553429782,
			"-0.011": 0.973029390555,
			"-0.01": 1.28265502229,
			"-0.009": 2.12796760061,
			"-0.008": 4.16344106814,
			"-0.007": 4.15136714172,
			"-0.006": 14.3099074109,
			"-0.005": 24.9210266258,
			"-0.004": 30.070748505,
			"-0.003": 28.0155502201,
			"-0.002": 25.2862069154,
			"-0.001": 23.9704127239,
			"0.0": 28.1395072238,
			"0.001": 39.2716864541,
			"0.002": 41.6225964319,
			"0.003": 32.0038424588,
			"0.004": 28.2295551071,
			"0.005": 26.6837469885,
			"0.006": 11.2138060569,
			"0.007": 4.92523180618,
			"0.008": 2.72703376242,
			"0.009": 3.76206714924,
			"0.01": 3.59138221424,
			"0.011": 4.92569469616,
			"0.012": 4.093722729,
			"0.013": 2.28902984905,
			"0.014": 0.0360968480283,
			"0.015": 0.0,
			"0.016": 0.0,
			"0.017": 0.0,
			"0.018": 0.0,
			"0.019": 0.0,
			"0.02": 0.0,
			"0.021": 0.0,
			"0.022": 0.0,
			"0.023": 0.0,
			"0.024": 0.0,
			"0.025": 0.0
		}
	}
}
