{
	 "smiles": "COC1=C(CC(N)=O)C=CC=C1", 
	 "Tm": 401.15, 
	 "num_atms": 23, 
	 "gaussian": { 
		 "optdone": 1, 
		 "sigma_profile": "yes", 
		 "theory": "DFT", 
		 "functional": "B3LYP", 
		 "basiset": "6-31G**", 
		 "properties": { 
			 "R2extent": 3226.4817, 
			 "electric_dipole_moment_norm": 5.21604268771, 
			 "electric_quadrupole_moment_norm": 18.3516528713, 
			 "total_energy": -554.797220291, 
			 "HOMO_LUMO_gap": 0.21362, 
			 "cosmo_polarized_energy": -13.52, 
			 "cosmo_cavitation_energy": 26.39, 
			 "cosmo_dispersion_energy": -19.04, 
			 "cosmo_repulsion_energy": 1.53, 
			 "cosmo_total_nonelectrostatic_energy": 8.88, 
			 "SMD_solvation_energy": 5.9 
		},
		"coords": [
			{
				"x": -0.6042112373,
				"y": 1.7791365331,
				"z": 0.0099182335,
				"element": "C" 
			},
			{
				"x": -0.9017917725,
				"y": 0.4883874727,
				"z": -0.5065095347,
				"element": "O" 
			},
			{
				"x": 0.1339429423,
				"y": -0.2748688484,
				"z": -1.0030094156,
				"element": "C" 
			},
			{
				"x": -0.194696735,
				"y": -1.6025287603,
				"z": -1.3470134251,
				"element": "C" 
			},
			{
				"x": -1.5978000043,
				"y": -2.1415408632,
				"z": -1.1534475775,
				"element": "C" 
			},
			{
				"x": -2.5141075953,
				"y": -1.8669816965,
				"z": -2.3590702291,
				"element": "C" 
			},
			{
				"x": -2.9455552533,
				"y": -0.5737863073,
				"z": -2.4573113801,
				"element": "N" 
			},
			{
				"x": -2.8339811547,
				"y": -2.7411380819,
				"z": -3.1502150877,
				"element": "O" 
			},
			{
				"x": 0.8125642468,
				"y": -2.4094613698,
				"z": -1.8809331104,
				"element": "C" 
			},
			{
				"x": 2.1137145205,
				"y": -1.93502305,
				"z": -2.0631113399,
				"element": "C" 
			},
			{
				"x": 2.42052379,
				"y": -0.6259341092,
				"z": -1.7031664915,
				"element": "C" 
			},
			{
				"x": 1.4336976035,
				"y": 0.2092792463,
				"z": -1.1716570775,
				"element": "C" 
			},
			{
				"x": -1.5407192862,
				"y": 2.165259099,
				"z": 0.4155003349,
				"element": "H" 
			},
			{
				"x": -0.2434659157,
				"y": 2.4567348879,
				"z": -0.7740087908,
				"element": "H" 
			},
			{
				"x": 0.1430315635,
				"y": 1.7249506364,
				"z": 0.810474287,
				"element": "H" 
			},
			{
				"x": -1.5655664471,
				"y": -3.2261041306,
				"z": -1.0388943873,
				"element": "H" 
			},
			{
				"x": -2.0437451099,
				"y": -1.7064170766,
				"z": -0.2534246588,
				"element": "H" 
			},
			{
				"x": -2.5256004301,
				"y": 0.1430642808,
				"z": -1.88219136,
				"element": "H" 
			},
			{
				"x": -3.4354649325,
				"y": -0.3126275924,
				"z": -3.2998831787,
				"element": "H" 
			},
			{
				"x": 0.564829858,
				"y": -3.4315142713,
				"z": -2.1542516289,
				"element": "H" 
			},
			{
				"x": 2.8773447689,
				"y": -2.5857498096,
				"z": -2.4774954507,
				"element": "H" 
			},
			{
				"x": 3.4280195733,
				"y": -0.2415435048,
				"z": -1.8329563348,
				"element": "H" 
			},
			{
				"x": 1.6854370071,
				"y": 1.2277073158,
				"z": -0.9006423962,
				"element": "H" 
			}
		],
		 "valence_orbital": [ 
			{
				"type": "occ",
				"energy": -0.32589,
				"method": "rhf"
			},
			{
				"type": "occ",
				"energy": -0.25831,
				"method": "rhf"
			},
			{
				"type": "occ",
				"energy": -0.25394,
				"method": "rhf"
			},
			{
				"type": "occ",
				"energy": -0.23609,
				"method": "rhf"
			},
			{
				"type": "occ",
				"energy": -0.22123,
				"method": "rhf"
			},
			{
				"type": "unocc",
				"energy": -0.00761,
				"method": "rhf"
			},
			{
				"type": "unocc",
				"energy": 0.00563,
				"method": "rhf"
			},
			{
				"type": "unocc",
				"energy": 0.04452,
				"method": "rhf"
			},
			{
				"type": "unocc",
				"energy": 0.08205,
				"method": "rhf"
			},
			{
				"type": "unocc",
				"energy": 0.08594,
				"method": "rhf"
			}
		],
		"cosmo_sigma_profile": { 
			"-0.025": 0.0,
			"-0.024": 0.0,
			"-0.023": 0.0,
			"-0.022": 0.0,
			"-0.021": 0.0,
			"-0.02": 0.0,
			"-0.019": 0.0,
			"-0.018": 0.0,
			"-0.017": 0.0,
			"-0.016": 0.0,
			"-0.015": 0.0,
			"-0.014": 0.108122930866,
			"-0.013": 1.32427117913,
			"-0.012": 0.857036046966,
			"-0.011": 0.98693208321,
			"-0.01": 1.2372439931,
			"-0.009": 1.86740420171,
			"-0.008": 1.54103978772,
			"-0.007": 2.43001453132,
			"-0.006": 11.5510001275,
			"-0.005": 20.9370520971,
			"-0.004": 21.0555658444,
			"-0.003": 22.1365358687,
			"-0.002": 14.9211968741,
			"-0.001": 13.6833520599,
			"0.0": 9.34911770543,
			"0.001": 9.7881613349,
			"0.002": 12.9450180178,
			"0.003": 11.5173182032,
			"0.004": 10.2782629908,
			"0.005": 11.3821179068,
			"0.006": 8.14916094824,
			"0.007": 2.38238725427,
			"0.008": 1.48374857403,
			"0.009": 1.071085344,
			"0.01": 1.14281627097,
			"0.011": 1.70611570196,
			"0.012": 1.82609885993,
			"0.013": 3.57548535303,
			"0.014": 5.38645075936,
			"0.015": 2.31359888216,
			"0.016": 0.0200712933068,
			"0.017": 0.0,
			"0.018": 0.0,
			"0.019": 0.0,
			"0.02": 0.0,
			"0.021": 0.0,
			"0.022": 0.0,
			"0.023": 0.0,
			"0.024": 0.0,
			"0.025": 0.0
		}
	}
}
