{
	 "smiles": "OC(=O)C1=CC(=C(Cl)C=C1)S(=O)(=O)NC1=CC=C(Cl)C=C1", 
	 "Tm": 488.15, 
	 "num_atms": 30, 
	 "gaussian": { 
		 "optdone": 1, 
		 "sigma_profile": "yes", 
		 "theory": "DFT", 
		 "functional": "B3LYP", 
		 "basiset": "6-31G**", 
		 "properties": { 
			 "R2extent": 9459.8814, 
			 "electric_dipole_moment_norm": 3.38297468066, 
			 "electric_quadrupole_moment_norm": 14.0943269002, 
			 "total_energy": -2174.95405023, 
			 "HOMO_LUMO_gap": 0.15825, 
			 "cosmo_polarized_energy": -23.66, 
			 "cosmo_cavitation_energy": 40.66, 
			 "cosmo_dispersion_energy": -29.01, 
			 "cosmo_repulsion_energy": 2.18, 
			 "cosmo_total_nonelectrostatic_energy": 13.84, 
			 "SMD_solvation_energy": 6.81 
		},
		"coords": [
			{
				"x": 0.799209734,
				"y": -2.5089911904,
				"z": 3.7852007575,
				"element": "O" 
			},
			{
				"x": 1.9670676236,
				"y": -2.4631229542,
				"z": 3.0992783108,
				"element": "C" 
			},
			{
				"x": 2.7702173534,
				"y": -3.3597135851,
				"z": 3.2005685358,
				"element": "O" 
			},
			{
				"x": 2.2032384717,
				"y": -1.2667218051,
				"z": 2.2214477254,
				"element": "C" 
			},
			{
				"x": 1.1771864562,
				"y": -0.4307185335,
				"z": 1.7734737943,
				"element": "C" 
			},
			{
				"x": 1.4512252359,
				"y": 0.6568418355,
				"z": 0.9404750172,
				"element": "C" 
			},
			{
				"x": 2.7752413387,
				"y": 0.9179110304,
				"z": 0.5566781809,
				"element": "C" 
			},
			{
				"x": 3.205285885,
				"y": 2.2620795247,
				"z": -0.465943557,
				"element": "Cl" 
			},
			{
				"x": 3.8021542129,
				"y": 0.0724692452,
				"z": 0.9880487314,
				"element": "C" 
			},
			{
				"x": 3.5165964853,
				"y": -1.0136895951,
				"z": 1.8060920743,
				"element": "C" 
			},
			{
				"x": 0.0382054942,
				"y": 1.6883658279,
				"z": 0.4840349747,
				"element": "S" 
			},
			{
				"x": -1.1433336743,
				"y": 0.9956788791,
				"z": 0.9972689491,
				"element": "O" 
			},
			{
				"x": 0.3393932441,
				"y": 3.0735514535,
				"z": 0.8382398883,
				"element": "O" 
			},
			{
				"x": 0.0365956811,
				"y": 1.6433035085,
				"z": -1.2082870927,
				"element": "N" 
			},
			{
				"x": -0.8584073738,
				"y": 0.8446881703,
				"z": -1.9717372515,
				"element": "C" 
			},
			{
				"x": -1.6215728687,
				"y": 1.442734488,
				"z": -2.9811389108,
				"element": "C" 
			},
			{
				"x": -2.4537495643,
				"y": 0.6706692413,
				"z": -3.7892083848,
				"element": "C" 
			},
			{
				"x": -2.5407736588,
				"y": -0.7023597755,
				"z": -3.5662772325,
				"element": "C" 
			},
			{
				"x": -3.5989660341,
				"y": -1.6794352491,
				"z": -4.570432183,
				"element": "Cl" 
			},
			{
				"x": -1.7940761555,
				"y": -1.3096643046,
				"z": -2.5566724024,
				"element": "C" 
			},
			{
				"x": -0.9430473238,
				"y": -0.5377655882,
				"z": -1.7702305908,
				"element": "C" 
			},
			{
				"x": 0.3309606326,
				"y": -1.663899486,
				"z": 3.7381091949,
				"element": "H" 
			},
			{
				"x": 0.1359573279,
				"y": -0.6081251494,
				"z": 2.0240374694,
				"element": "H" 
			},
			{
				"x": 4.8196658381,
				"y": 0.2768895726,
				"z": 0.6744860387,
				"element": "H" 
			},
			{
				"x": 4.3036181406,
				"y": -1.6825826665,
				"z": 2.1366724403,
				"element": "H" 
			},
			{
				"x": 0.1963503995,
				"y": 2.5835480104,
				"z": -1.5547222355,
				"element": "H" 
			},
			{
				"x": -1.568127563,
				"y": 2.5166670597,
				"z": -3.1371828445,
				"element": "H" 
			},
			{
				"x": -3.0392365053,
				"y": 1.1343967324,
				"z": -4.5750308426,
				"element": "H" 
			},
			{
				"x": -1.8650865086,
				"y": -2.3796889891,
				"z": -2.3973500897,
				"element": "H" 
			},
			{
				"x": -0.3418923246,
				"y": -1.0155157078,
				"z": -1.0051984648,
				"element": "H" 
			}
		],
		 "valence_orbital": [ 
			{
				"type": "occ",
				"energy": -0.30072,
				"method": "rhf"
			},
			{
				"type": "occ",
				"energy": -0.29402,
				"method": "rhf"
			},
			{
				"type": "occ",
				"energy": -0.28356,
				"method": "rhf"
			},
			{
				"type": "occ",
				"energy": -0.27793,
				"method": "rhf"
			},
			{
				"type": "occ",
				"energy": -0.24107,
				"method": "rhf"
			},
			{
				"type": "unocc",
				"energy": -0.08282,
				"method": "rhf"
			},
			{
				"type": "unocc",
				"energy": -0.06452,
				"method": "rhf"
			},
			{
				"type": "unocc",
				"energy": -0.02887,
				"method": "rhf"
			},
			{
				"type": "unocc",
				"energy": -0.02755,
				"method": "rhf"
			},
			{
				"type": "unocc",
				"energy": -0.0078,
				"method": "rhf"
			}
		],
		"cosmo_sigma_profile": { 
			"-0.025": 0.0,
			"-0.024": 0.0,
			"-0.023": 0.0,
			"-0.022": 0.0,
			"-0.021": 0.0,
			"-0.02": 0.436210741856,
			"-0.019": 1.09207237989,
			"-0.018": 1.0523745204,
			"-0.017": 1.11250443643,
			"-0.016": 1.2032729174,
			"-0.015": 1.67751361655,
			"-0.014": 2.14960730492,
			"-0.013": 2.15599002153,
			"-0.012": 2.24785754294,
			"-0.011": 2.12178476628,
			"-0.01": 1.69501518871,
			"-0.009": 4.30130403901,
			"-0.008": 8.35557753741,
			"-0.007": 12.8067115673,
			"-0.006": 15.4166415685,
			"-0.005": 16.1424403482,
			"-0.004": 13.912848872,
			"-0.003": 16.9903589582,
			"-0.002": 21.4946449483,
			"-0.001": 25.3142288262,
			"0.0": 21.8444488275,
			"0.001": 20.4532652033,
			"0.002": 25.0817730116,
			"0.003": 27.5316373234,
			"0.004": 17.8354204733,
			"0.005": 12.2217763945,
			"0.006": 6.71158970639,
			"0.007": 6.43462990672,
			"0.008": 7.23270941546,
			"0.009": 10.8890769036,
			"0.01": 14.1092548379,
			"0.011": 6.77780793904,
			"0.012": 2.51344625634,
			"0.013": 0.466882795949,
			"0.014": 0.0,
			"0.015": 0.0,
			"0.016": 0.0,
			"0.017": 0.0,
			"0.018": 0.0,
			"0.019": 0.0,
			"0.02": 0.0,
			"0.021": 0.0,
			"0.022": 0.0,
			"0.023": 0.0,
			"0.024": 0.0,
			"0.0": 0.0
		}
	}
}
