{
	 "smiles": "CC(Br)C1=C2C=CC=CC2=CC=C1", 
	 "Tm": 310.15, 
	 "num_atms": 24, 
	 "gaussian": { 
		 "optdone": 1, 
		 "sigma_profile": "yes", 
		 "theory": "DFT", 
		 "functional": "B3LYP", 
		 "basiset": "6-31G**", 
		 "properties": { 
			 "R2extent": 5918.926, 
			 "electric_dipole_moment_norm": 2.40043437111, 
			 "electric_quadrupole_moment_norm": 14.9096549564, 
			 "total_energy": -3035.33040879, 
			 "HOMO_LUMO_gap": 0.16779, 
			 "cosmo_polarized_energy": -6.97, 
			 "cosmo_cavitation_energy": 28.46, 
			 "cosmo_dispersion_energy": -21.14, 
			 "cosmo_repulsion_energy": 1.66, 
			 "cosmo_total_nonelectrostatic_energy": 8.98, 
			 "SMD_solvation_energy": 3.47 
		},
		"coords": [
			{
				"x": 2.3096761407,
				"y": 3.5549066022,
				"z": 1.5028769539,
				"element": "C" 
			},
			{
				"x": 0.8355839366,
				"y": 3.6857633376,
				"z": 1.1285429288,
				"element": "C" 
			},
			{
				"x": 0.6460090596,
				"y": 5.0770874296,
				"z": -0.3387435355,
				"element": "Br" 
			},
			{
				"x": 0.1106913227,
				"y": 2.4063345971,
				"z": 0.7981954183,
				"element": "C" 
			},
			{
				"x": 0.4845683365,
				"y": 1.511889953,
				"z": -0.2647438297,
				"element": "C" 
			},
			{
				"x": 1.492523014,
				"y": 1.8039618219,
				"z": -1.2261919251,
				"element": "C" 
			},
			{
				"x": 1.8185885654,
				"y": 0.9037785548,
				"z": -2.217346007,
				"element": "C" 
			},
			{
				"x": 1.1535758517,
				"y": -0.3400794898,
				"z": -2.3108357102,
				"element": "C" 
			},
			{
				"x": 0.1571299493,
				"y": -0.6481759189,
				"z": -1.4142758706,
				"element": "C" 
			},
			{
				"x": -0.2082057212,
				"y": 0.2586059063,
				"z": -0.3829187481,
				"element": "C" 
			},
			{
				"x": -1.2545855025,
				"y": -0.0596126216,
				"z": 0.5240600816,
				"element": "C" 
			},
			{
				"x": -1.617443024,
				"y": 0.8244527788,
				"z": 1.5100559763,
				"element": "C" 
			},
			{
				"x": -0.9311896768,
				"y": 2.052658286,
				"z": 1.6389405871,
				"element": "C" 
			},
			{
				"x": 2.9134633027,
				"y": 3.1348728846,
				"z": 0.698072374,
				"element": "H" 
			},
			{
				"x": 2.7225625135,
				"y": 4.5287509922,
				"z": 1.7758827735,
				"element": "H" 
			},
			{
				"x": 2.3901883867,
				"y": 2.8863008642,
				"z": 2.3682926492,
				"element": "H" 
			},
			{
				"x": 0.3048638533,
				"y": 4.1787021159,
				"z": 1.9418166776,
				"element": "H" 
			},
			{
				"x": 1.9883705037,
				"y": 2.7655427116,
				"z": -1.2034897878,
				"element": "H" 
			},
			{
				"x": 2.5883880417,
				"y": 1.1577698428,
				"z": -2.9403340385,
				"element": "H" 
			},
			{
				"x": 1.4221638654,
				"y": -1.0412355541,
				"z": -3.095555306,
				"element": "H" 
			},
			{
				"x": -0.3745124025,
				"y": -1.5937530638,
				"z": -1.4837031996,
				"element": "H" 
			},
			{
				"x": -1.7662969774,
				"y": -1.0125177002,
				"z": 0.4171597385,
				"element": "H" 
			},
			{
				"x": -2.4240039339,
				"y": 0.5866515151,
				"z": 2.197032826,
				"element": "H" 
			},
			{
				"x": -1.2244094052,
				"y": 2.7342441547,
				"z": 2.4333089731,
				"element": "H" 
			}
		],
		 "valence_orbital": [ 
			{
				"type": "occ",
				"energy": -0.28562,
				"method": "rhf"
			},
			{
				"type": "occ",
				"energy": -0.26577,
				"method": "rhf"
			},
			{
				"type": "occ",
				"energy": -0.26192,
				"method": "rhf"
			},
			{
				"type": "occ",
				"energy": -0.24707,
				"method": "rhf"
			},
			{
				"type": "occ",
				"energy": -0.21854,
				"method": "rhf"
			},
			{
				"type": "unocc",
				"energy": -0.05075,
				"method": "rhf"
			},
			{
				"type": "unocc",
				"energy": -0.01435,
				"method": "rhf"
			},
			{
				"type": "unocc",
				"energy": -0.00275,
				"method": "rhf"
			},
			{
				"type": "unocc",
				"energy": 0.03869,
				"method": "rhf"
			},
			{
				"type": "unocc",
				"energy": 0.08425,
				"method": "rhf"
			}
		],
		"cosmo_sigma_profile": { 
			"-0.025": 0.0,
			"-0.024": 0.0,
			"-0.023": 0.0,
			"-0.022": 0.0,
			"-0.021": 0.0,
			"-0.02": 0.0,
			"-0.019": 0.0,
			"-0.018": 0.0,
			"-0.017": 0.0,
			"-0.016": 0.0,
			"-0.015": 0.0,
			"-0.014": 0.0,
			"-0.013": 0.0,
			"-0.012": 0.0,
			"-0.011": 0.0,
			"-0.01": 0.0,
			"-0.009": 0.0313203233688,
			"-0.008": 1.69886734045,
			"-0.007": 3.57558634031,
			"-0.006": 13.3288952069,
			"-0.005": 17.4850518148,
			"-0.004": 22.2374252107,
			"-0.003": 17.3912008805,
			"-0.002": 15.6858527547,
			"-0.001": 16.8842529198,
			"0.0": 15.4526733459,
			"0.001": 12.1210421087,
			"0.002": 14.4448246931,
			"0.003": 19.4619299886,
			"0.004": 25.940205744,
			"0.005": 20.4031789059,
			"0.006": 9.49470971415,
			"0.007": 4.55418090806,
			"0.008": 0.0,
			"0.009": 0.0,
			"0.01": 0.0,
			"0.011": 0.0,
			"0.012": 0.0,
			"0.013": 0.0,
			"0.014": 0.0,
			"0.015": 0.0,
			"0.016": 0.0,
			"0.017": 0.0,
			"0.018": 0.0,
			"0.019": 0.0,
			"0.02": 0.0,
			"0.021": 0.0,
			"0.022": 0.0,
			"0.023": 0.0,
			"0.024": 0.0,
			"0.025": 0.0
		}
	}
}
