{
	 "smiles": "CCCCC(C1=CC=CC=C1)C1=CC=CC=C1", 
	 "Tm": 261.15, 
	 "num_atms": 37, 
	 "gaussian": { 
		 "optdone": 1, 
		 "sigma_profile": "yes", 
		 "theory": "DFT", 
		 "functional": "B3LYP", 
		 "basiset": "6-31G**", 
		 "properties": { 
			 "R2extent": 5337.1821, 
			 "electric_dipole_moment_norm": 0.247904981797, 
			 "electric_quadrupole_moment_norm": 3.60446494226, 
			 "total_energy": -659.880573647, 
			 "HOMO_LUMO_gap": 0.22513, 
			 "cosmo_polarized_energy": -5.71, 
			 "cosmo_cavitation_energy": 38.38, 
			 "cosmo_dispersion_energy": -26.03, 
			 "cosmo_repulsion_energy": 2.06, 
			 "cosmo_total_nonelectrostatic_energy": 14.41, 
			 "SMD_solvation_energy": 6.03 
		},
		"coords": [
			{
				"x": -2.8149192086,
				"y": -2.3962680932,
				"z": -0.3242094396,
				"element": "C" 
			},
			{
				"x": -1.5729922586,
				"y": -2.6224192603,
				"z": 0.5462618447,
				"element": "C" 
			},
			{
				"x": -1.5006555404,
				"y": -1.7310389323,
				"z": 1.7993064566,
				"element": "C" 
			},
			{
				"x": -1.4185481076,
				"y": -0.2149923172,
				"z": 1.5471238565,
				"element": "C" 
			},
			{
				"x": -0.115523411,
				"y": 0.2636945849,
				"z": 0.8609713904,
				"element": "C" 
			},
			{
				"x": -0.1687423319,
				"y": 1.7218436938,
				"z": 0.3983423494,
				"element": "C" 
			},
			{
				"x": 0.7019791664,
				"y": 2.1407471976,
				"z": -0.6200490289,
				"element": "C" 
			},
			{
				"x": 0.7089676693,
				"y": 3.4595500225,
				"z": -1.0690094844,
				"element": "C" 
			},
			{
				"x": -0.1600895888,
				"y": 4.3966819187,
				"z": -0.5040525259,
				"element": "C" 
			},
			{
				"x": -1.0306455851,
				"y": 3.9969835633,
				"z": 0.5083330841,
				"element": "C" 
			},
			{
				"x": -1.0354234834,
				"y": 2.6717759773,
				"z": 0.9540675137,
				"element": "C" 
			},
			{
				"x": 1.1107585031,
				"y": 0.0068221178,
				"z": 1.7390525087,
				"element": "C" 
			},
			{
				"x": 2.0358547477,
				"y": -0.9897205017,
				"z": 1.4035108848,
				"element": "C" 
			},
			{
				"x": 3.1473866576,
				"y": -1.2436279086,
				"z": 2.2112540908,
				"element": "C" 
			},
			{
				"x": 3.3517975893,
				"y": -0.4997742402,
				"z": 3.3728523596,
				"element": "C" 
			},
			{
				"x": 2.4385930876,
				"y": 0.5001974617,
				"z": 3.717646269,
				"element": "C" 
			},
			{
				"x": 1.3320854342,
				"y": 0.7509987001,
				"z": 2.9076453616,
				"element": "C" 
			},
			{
				"x": -3.7341095584,
				"y": -2.530112713,
				"z": 0.2582439755,
				"element": "H" 
			},
			{
				"x": -2.8396006516,
				"y": -1.3883856479,
				"z": -0.7515522147,
				"element": "H" 
			},
			{
				"x": -2.8451783891,
				"y": -3.1046984128,
				"z": -1.158674021,
				"element": "H" 
			},
			{
				"x": -0.6707733766,
				"y": -2.4887817418,
				"z": -0.0646696564,
				"element": "H" 
			},
			{
				"x": -1.5533992716,
				"y": -3.6697007648,
				"z": 0.8737201609,
				"element": "H" 
			},
			{
				"x": -2.3913966644,
				"y": -1.923931756,
				"z": 2.4125306305,
				"element": "H" 
			},
			{
				"x": -0.6411190099,
				"y": -2.0394404993,
				"z": 2.4064239454,
				"element": "H" 
			},
			{
				"x": -1.5214271804,
				"y": 0.2948859661,
				"z": 2.5127928703,
				"element": "H" 
			},
			{
				"x": -2.2721165225,
				"y": 0.1077224242,
				"z": 0.9389891958,
				"element": "H" 
			},
			{
				"x": 0.0177395052,
				"y": -0.3379986834,
				"z": -0.0466404183,
				"element": "H" 
			},
			{
				"x": 1.385647713,
				"y": 1.4193508331,
				"z": -1.0615727654,
				"element": "H" 
			},
			{
				"x": 1.3906801745,
				"y": 3.7562939239,
				"z": -1.861413733,
				"element": "H" 
			},
			{
				"x": -0.1588899986,
				"y": 5.4255528866,
				"z": -0.8524063887,
				"element": "H" 
			},
			{
				"x": -1.7137561009,
				"y": 4.7148503026,
				"z": 0.9542863851,
				"element": "H" 
			},
			{
				"x": -1.7291817932,
				"y": 2.3838719299,
				"z": 1.7372966407,
				"element": "H" 
			},
			{
				"x": 1.8854243307,
				"y": -1.5743857949,
				"z": 0.4989572926,
				"element": "H" 
			},
			{
				"x": 3.8519790331,
				"y": -2.0214629268,
				"z": 1.9297881876,
				"element": "H" 
			},
			{
				"x": 4.2155636954,
				"y": -0.6929255334,
				"z": 4.0025823954,
				"element": "H" 
			},
			{
				"x": 2.5923167831,
				"y": 1.090250389,
				"z": 4.6170716105,
				"element": "H" 
			},
			{
				"x": 0.6399139422,
				"y": 1.5445918346,
				"z": 3.1759984161,
				"element": "H" 
			}
		],
		 "valence_orbital": [ 
			{
				"type": "occ",
				"energy": -0.30767,
				"method": "rhf"
			},
			{
				"type": "occ",
				"energy": -0.24692,
				"method": "rhf"
			},
			{
				"type": "occ",
				"energy": -0.24568,
				"method": "rhf"
			},
			{
				"type": "occ",
				"energy": -0.24363,
				"method": "rhf"
			},
			{
				"type": "occ",
				"energy": -0.22943,
				"method": "rhf"
			},
			{
				"type": "unocc",
				"energy": -0.0043,
				"method": "rhf"
			},
			{
				"type": "unocc",
				"energy": -0.00091,
				"method": "rhf"
			},
			{
				"type": "unocc",
				"energy": 0.00406,
				"method": "rhf"
			},
			{
				"type": "unocc",
				"energy": 0.01475,
				"method": "rhf"
			},
			{
				"type": "unocc",
				"energy": 0.08106,
				"method": "rhf"
			}
		],
		"cosmo_sigma_profile": { 
			"-0.025": 0.0,
			"-0.024": 0.0,
			"-0.023": 0.0,
			"-0.022": 0.0,
			"-0.021": 0.0,
			"-0.02": 0.0,
			"-0.019": 0.0,
			"-0.018": 0.0,
			"-0.017": 0.0,
			"-0.016": 0.0,
			"-0.015": 0.0,
			"-0.014": 0.0,
			"-0.013": 0.0,
			"-0.012": 0.0,
			"-0.011": 0.0,
			"-0.01": 0.0,
			"-0.009": 0.0,
			"-0.008": 0.0,
			"-0.007": 0.0,
			"-0.006": 2.24518122319,
			"-0.005": 17.072913876,
			"-0.004": 27.4835920764,
			"-0.003": 31.1053720554,
			"-0.002": 32.8197511145,
			"-0.001": 34.8715895081,
			"0.0": 32.8144924603,
			"0.001": 34.0461932632,
			"0.002": 21.5999097043,
			"0.003": 14.9909427678,
			"0.004": 14.2032094773,
			"0.005": 16.682835218,
			"0.006": 16.8237973344,
			"0.007": 5.4892768581,
			"0.008": 0.0,
			"0.009": 0.0,
			"0.01": 0.0,
			"0.011": 0.0,
			"0.012": 0.0,
			"0.013": 0.0,
			"0.014": 0.0,
			"0.015": 0.0,
			"0.016": 0.0,
			"0.017": 0.0,
			"0.018": 0.0,
			"0.019": 0.0,
			"0.02": 0.0,
			"0.021": 0.0,
			"0.022": 0.0,
			"0.023": 0.0,
			"0.024": 0.0,
			"0.025": 0.0
		}
	}
}
