{
	 "smiles": "CC1=C(C=CC=C1Cl)N1C(S)=NN=C1C1=CC=NC=C1", 
	 "Tm": 596.15, 
	 "num_atms": 31, 
	 "gaussian": { 
		 "optdone": 1, 
		 "sigma_profile": "yes", 
		 "theory": "DFT", 
		 "functional": "B3LYP", 
		 "basiset": "6-31G**", 
		 "properties": { 
			 "R2extent": 7527.5398, 
			 "electric_dipole_moment_norm": 4.33079865729, 
			 "electric_quadrupole_moment_norm": 14.6902406801, 
			 "total_energy": -1617.47797221, 
			 "HOMO_LUMO_gap": 0.17742, 
			 "cosmo_polarized_energy": -16.14, 
			 "cosmo_cavitation_energy": 38.73, 
			 "cosmo_dispersion_energy": -26.69, 
			 "cosmo_repulsion_energy": 2.01, 
			 "cosmo_total_nonelectrostatic_energy": 14.05, 
			 "SMD_solvation_energy": 2.73 
		},
		"coords": [
			{
				"x": 2.5013333048,
				"y": -1.6395293205,
				"z": 0.3034214569,
				"element": "C" 
			},
			{
				"x": 2.3947976912,
				"y": -0.7433185812,
				"z": -0.9020289101,
				"element": "C" 
			},
			{
				"x": 1.3252276167,
				"y": -0.8245277385,
				"z": -1.8159570061,
				"element": "C" 
			},
			{
				"x": 1.241476252,
				"y": -0.0031887546,
				"z": -2.9443651802,
				"element": "C" 
			},
			{
				"x": 2.2321846187,
				"y": 0.9445038344,
				"z": -3.1839080578,
				"element": "C" 
			},
			{
				"x": 3.2971772996,
				"y": 1.0708575869,
				"z": -2.2941038476,
				"element": "C" 
			},
			{
				"x": 3.3629221825,
				"y": 0.2372736165,
				"z": -1.1786130595,
				"element": "C" 
			},
			{
				"x": 4.7248381121,
				"y": 0.4372599447,
				"z": -0.0851455462,
				"element": "Cl" 
			},
			{
				"x": 0.2855148371,
				"y": -1.7946674335,
				"z": -1.6165090746,
				"element": "N" 
			},
			{
				"x": 0.1994107751,
				"y": -3.0126499628,
				"z": -2.2507126443,
				"element": "C" 
			},
			{
				"x": 1.3555664847,
				"y": -3.5266728217,
				"z": -3.480628282,
				"element": "S" 
			},
			{
				"x": -0.825442436,
				"y": -3.7064435363,
				"z": -1.8103042406,
				"element": "N" 
			},
			{
				"x": -1.4446838341,
				"y": -2.9404963967,
				"z": -0.8554091613,
				"element": "N" 
			},
			{
				"x": -0.79205398,
				"y": -1.8027385006,
				"z": -0.7333835911,
				"element": "C" 
			},
			{
				"x": -1.1835251439,
				"y": -0.7472758078,
				"z": 0.2091250096,
				"element": "C" 
			},
			{
				"x": -0.7860655612,
				"y": 0.5942032842,
				"z": 0.113605572,
				"element": "C" 
			},
			{
				"x": -1.2455757626,
				"y": 1.500613685,
				"z": 1.070294726,
				"element": "C" 
			},
			{
				"x": -2.0551788212,
				"y": 1.179375691,
				"z": 2.0846838563,
				"element": "N" 
			},
			{
				"x": -2.440498929,
				"y": -0.1034186458,
				"z": 2.1612155394,
				"element": "C" 
			},
			{
				"x": -2.0405793145,
				"y": -1.0918000997,
				"z": 1.2681871452,
				"element": "C" 
			},
			{
				"x": 1.7560991683,
				"y": -2.4342631149,
				"z": 0.2823046497,
				"element": "H" 
			},
			{
				"x": 2.3634504166,
				"y": -1.0657169128,
				"z": 1.2263534219,
				"element": "H" 
			},
			{
				"x": 3.4935570296,
				"y": -2.0959266225,
				"z": 0.3556839085,
				"element": "H" 
			},
			{
				"x": 0.3974209241,
				"y": -0.1141190581,
				"z": -3.6166497439,
				"element": "H" 
			},
			{
				"x": 2.175186004,
				"y": 1.5865196966,
				"z": -4.0566862188,
				"element": "H" 
			},
			{
				"x": 4.0760170479,
				"y": 1.8070945094,
				"z": -2.4575693756,
				"element": "H" 
			},
			{
				"x": 0.7599006722,
				"y": -4.7272569787,
				"z": -3.6148465913,
				"element": "H" 
			},
			{
				"x": -0.1482646984,
				"y": 0.9444269916,
				"z": -0.6878481391,
				"element": "H" 
			},
			{
				"x": -0.9439670597,
				"y": 2.5449778968,
				"z": 1.0091670278,
				"element": "H" 
			},
			{
				"x": -3.1034662731,
				"y": -0.3554481837,
				"z": 2.9868058271,
				"element": "H" 
			},
			{
				"x": -2.3801786238,
				"y": -2.1154482667,
				"z": 1.3742205299,
				"element": "H" 
			}
		],
		 "valence_orbital": [ 
			{
				"type": "occ",
				"energy": -0.27008,
				"method": "rhf"
			},
			{
				"type": "occ",
				"energy": -0.26671,
				"method": "rhf"
			},
			{
				"type": "occ",
				"energy": -0.26092,
				"method": "rhf"
			},
			{
				"type": "occ",
				"energy": -0.25772,
				"method": "rhf"
			},
			{
				"type": "occ",
				"energy": -0.23309,
				"method": "rhf"
			},
			{
				"type": "unocc",
				"energy": -0.05567,
				"method": "rhf"
			},
			{
				"type": "unocc",
				"energy": -0.04488,
				"method": "rhf"
			},
			{
				"type": "unocc",
				"energy": -0.04025,
				"method": "rhf"
			},
			{
				"type": "unocc",
				"energy": -0.01496,
				"method": "rhf"
			},
			{
				"type": "unocc",
				"energy": 0.00273,
				"method": "rhf"
			}
		],
		"cosmo_sigma_profile": { 
			"-0.025": 0.0,
			"-0.024": 0.0,
			"-0.023": 0.0,
			"-0.022": 0.0,
			"-0.021": 0.0,
			"-0.02": 0.0,
			"-0.019": 0.0,
			"-0.018": 0.0,
			"-0.017": 0.0,
			"-0.016": 0.0,
			"-0.015": 0.0,
			"-0.014": 0.0,
			"-0.013": 0.291844953598,
			"-0.012": 1.41664395402,
			"-0.011": 1.7078798423,
			"-0.01": 1.13328729905,
			"-0.009": 1.01859664349,
			"-0.008": 4.19383999276,
			"-0.007": 11.7180339442,
			"-0.006": 19.0910006529,
			"-0.005": 20.0572053913,
			"-0.004": 20.3828712957,
			"-0.003": 20.7811361526,
			"-0.002": 24.3116128912,
			"-0.001": 26.2333078173,
			"0.0": 26.4090893145,
			"0.001": 35.9257924676,
			"0.002": 27.1937824421,
			"0.003": 16.3606892992,
			"0.004": 14.8387213328,
			"0.005": 7.27529625163,
			"0.006": 5.00485353412,
			"0.007": 3.60601180641,
			"0.008": 4.05980841941,
			"0.009": 2.1399427276,
			"0.01": 2.88363092859,
			"0.011": 3.73487662928,
			"0.012": 4.45552495663,
			"0.013": 3.33771210293,
			"0.014": 3.51428736412,
			"0.015": 1.92958861887,
			"0.016": 1.23321836966,
			"0.017": 0.0869344500338,
			"0.018": 0.0,
			"0.019": 0.0,
			"0.02": 0.0,
			"0.021": 0.0,
			"0.022": 0.0,
			"0.023": 0.0,
			"0.024": 0.0,
			"0.025": 0.0
		}
	}
}
