{
	 "smiles": "CCCCCCCCCCCCS(Cl)(=O)=O", 
	 "Tm": 313.65, 
	 "num_atms": 41, 
	 "gaussian": { 
		 "optdone": 1, 
		 "sigma_profile": "yes", 
		 "theory": "DFT", 
		 "functional": "B3LYP", 
		 "basiset": "6-31G**", 
		 "properties": { 
			 "R2extent": 9956.0982, 
			 "electric_dipole_moment_norm": 4.62374959746, 
			 "electric_quadrupole_moment_norm": 23.1971901458, 
			 "total_energy": -1481.14415384, 
			 "HOMO_LUMO_gap": 0.22225, 
			 "cosmo_polarized_energy": -9.99, 
			 "cosmo_cavitation_energy": 44.35, 
			 "cosmo_dispersion_energy": -30.67, 
			 "cosmo_repulsion_energy": 2.45, 
			 "cosmo_total_nonelectrostatic_energy": 16.13, 
			 "SMD_solvation_energy": 4.81 
		},
		"coords": [
			{
				"x": -4.2321774278,
				"y": -2.0287969372,
				"z": -1.9186616049,
				"element": "C" 
			},
			{
				"x": -4.0301969602,
				"y": -1.5846042667,
				"z": -0.4664956977,
				"element": "C" 
			},
			{
				"x": -3.5171674013,
				"y": -0.1441518089,
				"z": -0.3382347391,
				"element": "C" 
			},
			{
				"x": -3.313106783,
				"y": 0.2994233004,
				"z": 1.1168624827,
				"element": "C" 
			},
			{
				"x": -2.8931123463,
				"y": 1.7701754789,
				"z": 1.2891435767,
				"element": "C" 
			},
			{
				"x": -1.5367311187,
				"y": 2.161769596,
				"z": 0.6753009798,
				"element": "C" 
			},
			{
				"x": -0.3312305102,
				"y": 1.4440931935,
				"z": 1.3015703074,
				"element": "C" 
			},
			{
				"x": 1.0381235654,
				"y": 1.9509937133,
				"z": 0.8153604153,
				"element": "C" 
			},
			{
				"x": 1.3347269284,
				"y": 1.6574623835,
				"z": -0.6634287873,
				"element": "C" 
			},
			{
				"x": 2.6863422496,
				"y": 2.1937322362,
				"z": -1.1667366036,
				"element": "C" 
			},
			{
				"x": 3.9403579614,
				"y": 1.605796811,
				"z": -0.4966210579,
				"element": "C" 
			},
			{
				"x": 4.158863938,
				"y": 0.0974527527,
				"z": -0.6281475713,
				"element": "C" 
			},
			{
				"x": 4.735597132,
				"y": -0.466357879,
				"z": -2.2710675775,
				"element": "S" 
			},
			{
				"x": 2.8928819506,
				"y": -0.6647550694,
				"z": -3.3466143384,
				"element": "Cl" 
			},
			{
				"x": 5.2646825762,
				"y": -1.817607607,
				"z": -2.1295445925,
				"element": "O" 
			},
			{
				"x": 5.493809414,
				"y": 0.5922535669,
				"z": -2.9280206868,
				"element": "O" 
			},
			{
				"x": -4.5994272032,
				"y": -3.0587486984,
				"z": -1.9755791332,
				"element": "H" 
			},
			{
				"x": -3.2938547153,
				"y": -1.9792205595,
				"z": -2.4829852472,
				"element": "H" 
			},
			{
				"x": -4.9587575341,
				"y": -1.3881737791,
				"z": -2.4315680486,
				"element": "H" 
			},
			{
				"x": -3.3244651135,
				"y": -2.2650188972,
				"z": 0.0296509466,
				"element": "H" 
			},
			{
				"x": -4.9775613775,
				"y": -1.680456592,
				"z": 0.0814723389,
				"element": "H" 
			},
			{
				"x": -2.5752059331,
				"y": -0.0520860505,
				"z": -0.895854439,
				"element": "H" 
			},
			{
				"x": -4.2268035207,
				"y": 0.5379428764,
				"z": -0.8290951481,
				"element": "H" 
			},
			{
				"x": -2.5769888342,
				"y": -0.3595729538,
				"z": 1.5968368543,
				"element": "H" 
			},
			{
				"x": -4.2513016973,
				"y": 0.1444295896,
				"z": 1.666877641,
				"element": "H" 
			},
			{
				"x": -3.6717606054,
				"y": 2.4105519996,
				"z": 0.852813889,
				"element": "H" 
			},
			{
				"x": -2.8737496023,
				"y": 2.0065883009,
				"z": 2.3619895982,
				"element": "H" 
			},
			{
				"x": -1.4022226987,
				"y": 3.2453067768,
				"z": 0.7997930918,
				"element": "H" 
			},
			{
				"x": -1.5594074797,
				"y": 1.9858858591,
				"z": -0.4069804766,
				"element": "H" 
			},
			{
				"x": -0.3978922298,
				"y": 0.3639395178,
				"z": 1.1135183788,
				"element": "H" 
			},
			{
				"x": -0.3812466051,
				"y": 1.5637864071,
				"z": 2.3925687033,
				"element": "H" 
			},
			{
				"x": 1.8149085422,
				"y": 1.4964500173,
				"z": 1.4446365858,
				"element": "H" 
			},
			{
				"x": 1.1057798829,
				"y": 3.0349402125,
				"z": 0.988556448,
				"element": "H" 
			},
			{
				"x": 0.5516871374,
				"y": 2.1031623769,
				"z": -1.287542026,
				"element": "H" 
			},
			{
				"x": 1.2662884261,
				"y": 0.5752401125,
				"z": -0.8415445422,
				"element": "H" 
			},
			{
				"x": 2.7519140649,
				"y": 2.0450514112,
				"z": -2.2494938945,
				"element": "H" 
			},
			{
				"x": 2.717527781,
				"y": 3.2795083302,
				"z": -1.0095672479,
				"element": "H" 
			},
			{
				"x": 3.9138475519,
				"y": 1.8037305111,
				"z": 0.5819900794,
				"element": "H" 
			},
			{
				"x": 4.8307907062,
				"y": 2.1156570257,
				"z": -0.8776522791,
				"element": "H" 
			},
			{
				"x": 3.2805497807,
				"y": -0.5110032136,
				"z": -0.40273086,
				"element": "H" 
			},
			{
				"x": 4.9836881086,
				"y": -0.2431700449,
				"z": 0.0067242823,
				"element": "H" 
			}
		],
		 "valence_orbital": [ 
			{
				"type": "occ",
				"energy": -0.32054,
				"method": "rhf"
			},
			{
				"type": "occ",
				"energy": -0.31426,
				"method": "rhf"
			},
			{
				"type": "occ",
				"energy": -0.31068,
				"method": "rhf"
			},
			{
				"type": "occ",
				"energy": -0.30963,
				"method": "rhf"
			},
			{
				"type": "occ",
				"energy": -0.30628,
				"method": "rhf"
			},
			{
				"type": "unocc",
				"energy": -0.08403,
				"method": "rhf"
			},
			{
				"type": "unocc",
				"energy": 0.03633,
				"method": "rhf"
			},
			{
				"type": "unocc",
				"energy": 0.05302,
				"method": "rhf"
			},
			{
				"type": "unocc",
				"energy": 0.06773,
				"method": "rhf"
			},
			{
				"type": "unocc",
				"energy": 0.07559,
				"method": "rhf"
			}
		],
		"cosmo_sigma_profile": { 
			"-0.025": 0.0,
			"-0.024": 0.0,
			"-0.023": 0.0,
			"-0.022": 0.0,
			"-0.021": 0.0,
			"-0.02": 0.0,
			"-0.019": 0.0,
			"-0.018": 0.0,
			"-0.017": 0.0,
			"-0.016": 0.0,
			"-0.015": 0.0,
			"-0.014": 0.0,
			"-0.013": 0.0,
			"-0.012": 0.224306958175,
			"-0.011": 0.999442458393,
			"-0.01": 2.3147980811,
			"-0.009": 3.35129222925,
			"-0.008": 3.59983273708,
			"-0.007": 4.44549377996,
			"-0.006": 7.31506341209,
			"-0.005": 7.48364565238,
			"-0.004": 7.24274447197,
			"-0.003": 11.4855203702,
			"-0.002": 38.888256032,
			"-0.001": 62.4351408793,
			"0.0": 63.5070062368,
			"0.001": 52.2713954765,
			"0.002": 27.2529407451,
			"0.003": 11.0078502133,
			"0.004": 11.6685228297,
			"0.005": 2.76954855018,
			"0.006": 2.46501270673,
			"0.007": 4.6430234365,
			"0.008": 10.0789661125,
			"0.009": 8.44665788343,
			"0.01": 0.881870642491,
			"0.011": 0.0,
			"0.012": 0.0,
			"0.013": 0.0,
			"0.014": 0.0,
			"0.015": 0.0,
			"0.016": 0.0,
			"0.017": 0.0,
			"0.018": 0.0,
			"0.019": 0.0,
			"0.02": 0.0,
			"0.021": 0.0,
			"0.022": 0.0,
			"0.023": 0.0,
			"0.024": 0.0,
			"0.025": 0.0
		}
	}
}
