{
	 "smiles": "OC(=O)C1=CN=C2C=CC(Br)=CN2C1=O", 
	 "Tm": 492.15, 
	 "num_atms": 20, 
	 "gaussian": { 
		 "optdone": 1, 
		 "sigma_profile": "yes", 
		 "theory": "DFT", 
		 "functional": "B3LYP", 
		 "basiset": "6-31G**", 
		 "properties": { 
			 "R2extent": 5298.9232, 
			 "electric_dipole_moment_norm": 3.94349979967, 
			 "electric_quadrupole_moment_norm": 11.9437338274, 
			 "total_energy": -3252.56015673, 
			 "HOMO_LUMO_gap": 0.14691, 
			 "cosmo_polarized_energy": -16.73, 
			 "cosmo_cavitation_energy": 28.04, 
			 "cosmo_dispersion_energy": -21.38, 
			 "cosmo_repulsion_energy": 1.64, 
			 "cosmo_total_nonelectrostatic_energy": 8.29, 
			 "SMD_solvation_energy": 4.32 
		},
		"coords": [
			{
				"x": 3.1210016243,
				"y": 2.5471142869,
				"z": -1.0152008194,
				"element": "O" 
			},
			{
				"x": 2.4204404241,
				"y": 2.829272539,
				"z": 0.1011669687,
				"element": "C" 
			},
			{
				"x": 2.7382584162,
				"y": 3.7323306008,
				"z": 0.8561593826,
				"element": "O" 
			},
			{
				"x": 1.2442643816,
				"y": 1.955827552,
				"z": 0.3272339573,
				"element": "C" 
			},
			{
				"x": 0.489444685,
				"y": 2.2106261103,
				"z": 1.4694831959,
				"element": "C" 
			},
			{
				"x": -0.6031387611,
				"y": 1.5477619625,
				"z": 1.8609085035,
				"element": "N" 
			},
			{
				"x": -1.0114893369,
				"y": 0.5448567431,
				"z": 1.0837500078,
				"element": "C" 
			},
			{
				"x": -2.1682182722,
				"y": -0.2084524904,
				"z": 1.4352870206,
				"element": "C" 
			},
			{
				"x": -2.6097101929,
				"y": -1.2431692562,
				"z": 0.6560683006,
				"element": "C" 
			},
			{
				"x": -1.8955444332,
				"y": -1.5678964778,
				"z": -0.5265814239,
				"element": "C" 
			},
			{
				"x": -2.4810799408,
				"y": -2.9972193255,
				"z": -1.628868836,
				"element": "Br" 
			},
			{
				"x": -0.7866973376,
				"y": -0.8528568525,
				"z": -0.8726308906,
				"element": "C" 
			},
			{
				"x": -0.3518640853,
				"y": 0.1838251237,
				"z": -0.0836516608,
				"element": "N" 
			},
			{
				"x": 0.8689215165,
				"y": 0.8918986318,
				"z": -0.5611865366,
				"element": "C" 
			},
			{
				"x": 1.3714724462,
				"y": 0.4980885925,
				"z": -1.5960280805,
				"element": "O" 
			},
			{
				"x": 3.8488979848,
				"y": 3.1913911557,
				"z": -1.0281337217,
				"element": "H" 
			},
			{
				"x": 0.8166569235,
				"y": 3.027211026,
				"z": 2.1080877189,
				"element": "H" 
			},
			{
				"x": -2.671938946,
				"y": 0.0849747192,
				"z": 2.3482559399,
				"element": "H" 
			},
			{
				"x": -3.4906507094,
				"y": -1.8131369914,
				"z": 0.928500734,
				"element": "H" 
			},
			{
				"x": -0.1804263867,
				"y": -1.0261476499,
				"z": -1.7517197603,
				"element": "H" 
			}
		],
		 "valence_orbital": [ 
			{
				"type": "occ",
				"energy": -0.29537,
				"method": "rhf"
			},
			{
				"type": "occ",
				"energy": -0.28292,
				"method": "rhf"
			},
			{
				"type": "occ",
				"energy": -0.28232,
				"method": "rhf"
			},
			{
				"type": "occ",
				"energy": -0.27358,
				"method": "rhf"
			},
			{
				"type": "occ",
				"energy": -0.23735,
				"method": "rhf"
			},
			{
				"type": "unocc",
				"energy": -0.09044,
				"method": "rhf"
			},
			{
				"type": "unocc",
				"energy": -0.06895,
				"method": "rhf"
			},
			{
				"type": "unocc",
				"energy": -0.02271,
				"method": "rhf"
			},
			{
				"type": "unocc",
				"energy": -0.00729,
				"method": "rhf"
			},
			{
				"type": "unocc",
				"energy": 0.00902,
				"method": "rhf"
			}
		],
		"cosmo_sigma_profile": { 
			"-0.025": 0.0,
			"-0.024": 0.0,
			"-0.023": 0.0,
			"-0.022": 0.0,
			"-0.021": 0.0,
			"-0.02": 0.0,
			"-0.019": 0.0229855955432,
			"-0.018": 0.674262838661,
			"-0.017": 0.845913780934,
			"-0.016": 1.01015624124,
			"-0.015": 0.818459828502,
			"-0.014": 0.5457435011,
			"-0.013": 0.248735799396,
			"-0.012": 0.715969898718,
			"-0.011": 1.21015044318,
			"-0.01": 2.06030041073,
			"-0.009": 3.89254590001,
			"-0.008": 6.05154401088,
			"-0.007": 8.04390628725,
			"-0.006": 11.7899530988,
			"-0.005": 13.2471130066,
			"-0.004": 12.7381417674,
			"-0.003": 16.909043502,
			"-0.002": 22.7443288473,
			"-0.001": 23.2494119114,
			"0.0": 12.7672320943,
			"0.001": 10.626899445,
			"0.002": 12.3728111515,
			"0.003": 14.9300421351,
			"0.004": 5.16280638518,
			"0.005": 5.33518117441,
			"0.006": 4.13583487929,
			"0.007": 3.62298663152,
			"0.008": 3.44929240159,
			"0.009": 4.48758564037,
			"0.01": 5.18776795848,
			"0.011": 7.72383421526,
			"0.012": 7.18696080349,
			"0.013": 2.81976458043,
			"0.014": 2.46935201749,
			"0.015": 0.99038157098,
			"0.016": 0.0695443180686,
			"0.017": 0.0,
			"0.018": 0.0,
			"0.019": 0.0,
			"0.02": 0.0,
			"0.021": 0.0,
			"0.022": 0.0,
			"0.023": 0.0,
			"0.024": 0.0,
			"0.025": 0.0
		}
	}
}
