{
	 "smiles": "OC(=O)C1=CC=C(N=C1Cl)C(F)(F)F", 
	 "Tm": 394.15, 
	 "num_atms": 17, 
	 "gaussian": { 
		 "optdone": 1, 
		 "sigma_profile": "yes", 
		 "theory": "DFT", 
		 "functional": "B3LYP", 
		 "basiset": "6-31G**", 
		 "properties": { 
			 "R2extent": 3803.8558, 
			 "electric_dipole_moment_norm": 4.77147049032, 
			 "electric_quadrupole_moment_norm": 19.6467481714, 
			 "total_energy": -1233.45967163, 
			 "HOMO_LUMO_gap": 0.20097, 
			 "cosmo_polarized_energy": -17.93, 
			 "cosmo_cavitation_energy": 26.17, 
			 "cosmo_dispersion_energy": -18.66, 
			 "cosmo_repulsion_energy": 1.43, 
			 "cosmo_total_nonelectrostatic_energy": 8.93, 
			 "SMD_solvation_energy": 5.42 
		},
		"coords": [
			{
				"x": 3.9355694156,
				"y": 1.5148714977,
				"z": -1.0561168467,
				"element": "O" 
			},
			{
				"x": 3.0283054407,
				"y": 1.2452269471,
				"z": -0.0805051396,
				"element": "C" 
			},
			{
				"x": 3.3397899946,
				"y": 1.2748934765,
				"z": 1.0800697497,
				"element": "O" 
			},
			{
				"x": 1.6627683773,
				"y": 0.8451426792,
				"z": -0.5780230398,
				"element": "C" 
			},
			{
				"x": 1.5491958526,
				"y": -0.134004823,
				"z": -1.5691468796,
				"element": "C" 
			},
			{
				"x": 0.29298392,
				"y": -0.5811280556,
				"z": -1.9771362099,
				"element": "C" 
			},
			{
				"x": -0.8168758269,
				"y": -0.0050553078,
				"z": -1.3699591152,
				"element": "C" 
			},
			{
				"x": -0.7376824516,
				"y": 0.9452645263,
				"z": -0.4330923211,
				"element": "N" 
			},
			{
				"x": 0.4562324624,
				"y": 1.3499425657,
				"z": -0.0451241159,
				"element": "C" 
			},
			{
				"x": 0.4779787186,
				"y": 2.6154962214,
				"z": 1.1570477909,
				"element": "Cl" 
			},
			{
				"x": -2.2302801581,
				"y": -0.4177106981,
				"z": -1.7406670602,
				"element": "C" 
			},
			{
				"x": -2.2171127079,
				"y": -1.3865824452,
				"z": -2.6832049618,
				"element": "F" 
			},
			{
				"x": -2.9234687985,
				"y": 0.6235882409,
				"z": -2.2314901737,
				"element": "F" 
			},
			{
				"x": -2.8925803578,
				"y": -0.8902389607,
				"z": -0.6726487114,
				"element": "F" 
			},
			{
				"x": 3.4957060021,
				"y": 1.5925590305,
				"z": -1.9149269252,
				"element": "H" 
			},
			{
				"x": 2.4475212662,
				"y": -0.5651661799,
				"z": -2.002217702,
				"element": "H" 
			},
			{
				"x": 0.1797488509,
				"y": -1.3474987151,
				"z": -2.7330583384,
				"element": "H" 
			}
		],
		 "valence_orbital": [ 
			{
				"type": "occ",
				"energy": -0.33609,
				"method": "rhf"
			},
			{
				"type": "occ",
				"energy": -0.32613,
				"method": "rhf"
			},
			{
				"type": "occ",
				"energy": -0.31032,
				"method": "rhf"
			},
			{
				"type": "occ",
				"energy": -0.29626,
				"method": "rhf"
			},
			{
				"type": "occ",
				"energy": -0.28776,
				"method": "rhf"
			},
			{
				"type": "unocc",
				"energy": -0.08679,
				"method": "rhf"
			},
			{
				"type": "unocc",
				"energy": -0.06701,
				"method": "rhf"
			},
			{
				"type": "unocc",
				"energy": -0.00401,
				"method": "rhf"
			},
			{
				"type": "unocc",
				"energy": 0.01887,
				"method": "rhf"
			},
			{
				"type": "unocc",
				"energy": 0.05028,
				"method": "rhf"
			}
		],
		"cosmo_sigma_profile": { 
			"-0.025": 0.0,
			"-0.024": 0.0,
			"-0.023": 0.0,
			"-0.022": 0.0,
			"-0.021": 0.0,
			"-0.02": 0.290775313533,
			"-0.019": 1.22952442222,
			"-0.018": 1.11492226402,
			"-0.017": 0.733682706683,
			"-0.016": 1.1027047857,
			"-0.015": 1.0695787588,
			"-0.014": 1.30076844507,
			"-0.013": 1.29317844546,
			"-0.012": 1.17272564585,
			"-0.011": 1.43828219462,
			"-0.01": 3.86706023702,
			"-0.009": 5.33940051893,
			"-0.008": 5.38494956403,
			"-0.007": 3.79757507148,
			"-0.006": 4.57533583504,
			"-0.005": 7.70977045334,
			"-0.004": 11.0384128038,
			"-0.003": 13.1296070478,
			"-0.002": 11.7699067292,
			"-0.001": 9.81355016264,
			"0.0": 9.87203033472,
			"0.001": 14.2235904955,
			"0.002": 33.8100392574,
			"0.003": 20.9683618629,
			"0.004": 8.01484609909,
			"0.005": 6.16937610188,
			"0.006": 4.68382901995,
			"0.007": 4.73884396141,
			"0.008": 5.08518848808,
			"0.009": 6.75950888285,
			"0.01": 5.87676918225,
			"0.011": 5.25198099199,
			"0.012": 0.781603648711,
			"0.013": 0.0,
			"0.014": 0.0,
			"0.015": 0.0,
			"0.016": 0.0,
			"0.017": 0.0,
			"0.018": 0.0,
			"0.019": 0.0,
			"0.02": 0.0,
			"0.021": 0.0,
			"0.022": 0.0,
			"0.023": 0.0,
			"0.024": 0.0,
			"0.025": 0.0
		}
	}
}
