{
	 "smiles": "CC1(C)OC2CC3C4CCC5=CC(=O)C=CC5(C)C4(F)C(O)CC3(C)C2(O1)C(=O)CO", 
	 "Tm": 566.15, 
	 "num_atms": 62, 
	 "gaussian": { 
		 "optdone": 1, 
		 "sigma_profile": "yes", 
		 "theory": "DFT", 
		 "functional": "B3LYP", 
		 "basiset": "6-31G**", 
		 "properties": { 
			 "R2extent": 14866.2654, 
			 "electric_dipole_moment_norm": 5.41239599623, 
			 "electric_quadrupole_moment_norm": 41.9268220388, 
			 "total_energy": -1484.38254369, 
			 "HOMO_LUMO_gap": 0.17646, 
			 "cosmo_polarized_energy": -24.19, 
			 "cosmo_cavitation_energy": 54.98, 
			 "cosmo_dispersion_energy": -37.09, 
			 "cosmo_repulsion_energy": 2.67, 
			 "cosmo_total_nonelectrostatic_energy": 20.56, 
			 "SMD_solvation_energy": 9.63 
		},
		"coords": [
			{
				"x": 1.4314473518,
				"y": -5.3050420143,
				"z": -2.6623452348,
				"element": "C" 
			},
			{
				"x": 0.5869462357,
				"y": -4.5559372068,
				"z": -1.6255290479,
				"element": "C" 
			},
			{
				"x": 0.0852365307,
				"y": -5.4617435415,
				"z": -0.5120697687,
				"element": "C" 
			},
			{
				"x": -0.5225027751,
				"y": -3.9204633966,
				"z": -2.2360389696,
				"element": "O" 
			},
			{
				"x": -0.1141616858,
				"y": -2.6286985862,
				"z": -2.691990927,
				"element": "C" 
			},
			{
				"x": -1.1952728965,
				"y": -1.613840437,
				"z": -2.3442196464,
				"element": "C" 
			},
			{
				"x": -0.8942649903,
				"y": -1.2224961462,
				"z": -0.88376889,
				"element": "C" 
			},
			{
				"x": -1.7120649978,
				"y": -0.0067448154,
				"z": -0.382738271,
				"element": "C" 
			},
			{
				"x": -1.9988622205,
				"y": -0.009083616,
				"z": 1.130931891,
				"element": "C" 
			},
			{
				"x": -3.1505813669,
				"y": 0.9717468363,
				"z": 1.4507444622,
				"element": "C" 
			},
			{
				"x": -3.2509067154,
				"y": 2.0800744535,
				"z": 0.4246639336,
				"element": "C" 
			},
			{
				"x": -4.4371030311,
				"y": 2.5893510835,
				"z": 0.0477334502,
				"element": "C" 
			},
			{
				"x": -4.5726699519,
				"y": 3.6921746741,
				"z": -0.9232033686,
				"element": "C" 
			},
			{
				"x": -5.6686933391,
				"y": 4.1496083874,
				"z": -1.2382442003,
				"element": "O" 
			},
			{
				"x": -3.3100239108,
				"y": 4.2146296495,
				"z": -1.4825405406,
				"element": "C" 
			},
			{
				"x": -2.1214251272,
				"y": 3.6974818279,
				"z": -1.1472546183,
				"element": "C" 
			},
			{
				"x": -1.9307917209,
				"y": 2.587321898,
				"z": -0.1368696986,
				"element": "C" 
			},
			{
				"x": -1.1208299541,
				"y": 3.2136351304,
				"z": 1.0428636236,
				"element": "C" 
			},
			{
				"x": -1.1620343706,
				"y": 1.3679921037,
				"z": -0.830168929,
				"element": "C" 
			},
			{
				"x": -1.4391085842,
				"y": 1.4626538915,
				"z": -2.2257804627,
				"element": "F" 
			},
			{
				"x": 0.3740967744,
				"y": 1.4625692795,
				"z": -0.7502999326,
				"element": "C" 
			},
			{
				"x": 0.8371827034,
				"y": 2.6777627823,
				"z": -1.3318332057,
				"element": "O" 
			},
			{
				"x": 1.0661750305,
				"y": 0.2707198059,
				"z": -1.4263610089,
				"element": "C" 
			},
			{
				"x": 0.6621687174,
				"y": -1.100731213,
				"z": -0.8379157475,
				"element": "C" 
			},
			{
				"x": 1.252713895,
				"y": -1.2758648835,
				"z": 0.5709530455,
				"element": "C" 
			},
			{
				"x": 1.1237657663,
				"y": -2.2933106712,
				"z": -1.791132502,
				"element": "C" 
			},
			{
				"x": 1.3413496623,
				"y": -3.483008708,
				"z": -1.0307980373,
				"element": "O" 
			},
			{
				"x": 2.3787239524,
				"y": -1.9673353027,
				"z": -2.5994911817,
				"element": "C" 
			},
			{
				"x": 2.3172916708,
				"y": -1.3654229152,
				"z": -3.6620055891,
				"element": "O" 
			},
			{
				"x": 3.7430866249,
				"y": -2.3793625446,
				"z": -2.0653469353,
				"element": "C" 
			},
			{
				"x": 4.7690977183,
				"y": -1.9497600528,
				"z": -2.9137081189,
				"element": "O" 
			},
			{
				"x": 0.8372883746,
				"y": -6.1017787256,
				"z": -3.1181200448,
				"element": "H" 
			},
			{
				"x": 1.7643802542,
				"y": -4.6355508144,
				"z": -3.4607390619,
				"element": "H" 
			},
			{
				"x": 2.3130616134,
				"y": -5.7507213311,
				"z": -2.1930941403,
				"element": "H" 
			},
			{
				"x": 0.9276873899,
				"y": -5.9108471811,
				"z": 0.0201341422,
				"element": "H" 
			},
			{
				"x": -0.532927684,
				"y": -6.2609087337,
				"z": -0.9289555839,
				"element": "H" 
			},
			{
				"x": -0.5143004412,
				"y": -4.8809931449,
				"z": 0.1920114841,
				"element": "H" 
			},
			{
				"x": 0.1392648447,
				"y": -2.6498754259,
				"z": -3.7566668077,
				"element": "H" 
			},
			{
				"x": -1.1347716307,
				"y": -0.7450614756,
				"z": -3.0032744102,
				"element": "H" 
			},
			{
				"x": -2.1896526652,
				"y": -2.0532209984,
				"z": -2.4653234335,
				"element": "H" 
			},
			{
				"x": -1.1742598005,
				"y": -2.0808149266,
				"z": -0.2603659684,
				"element": "H" 
			},
			{
				"x": -2.6922919283,
				"y": -0.0769343617,
				"z": -0.8740298567,
				"element": "H" 
			},
			{
				"x": -2.272718244,
				"y": -1.019943086,
				"z": 1.4485660664,
				"element": "H" 
			},
			{
				"x": -1.100036967,
				"y": 0.2500398017,
				"z": 1.6997319782,
				"element": "H" 
			},
			{
				"x": -3.0076126016,
				"y": 1.40521572,
				"z": 2.4494577537,
				"element": "H" 
			},
			{
				"x": -4.1064101385,
				"y": 0.4391247475,
				"z": 1.4843689237,
				"element": "H" 
			},
			{
				"x": -5.3690583837,
				"y": 2.2094892545,
				"z": 0.4601679089,
				"element": "H" 
			},
			{
				"x": -3.3983083204,
				"y": 5.038607775,
				"z": -2.1846857337,
				"element": "H" 
			},
			{
				"x": -1.2055188305,
				"y": 4.1046810332,
				"z": -1.5635171228,
				"element": "H" 
			},
			{
				"x": -1.723195149,
				"y": 4.0019586745,
				"z": 1.501972316,
				"element": "H" 
			},
			{
				"x": -0.8807812381,
				"y": 2.4821966479,
				"z": 1.8190389471,
				"element": "H" 
			},
			{
				"x": -0.1919918142,
				"y": 3.6547500173,
				"z": 0.6779299534,
				"element": "H" 
			},
			{
				"x": 0.6723541258,
				"y": 1.5139491409,
				"z": 0.2992499998,
				"element": "H" 
			},
			{
				"x": 0.5433457706,
				"y": 2.6636719795,
				"z": -2.2544963872,
				"element": "H" 
			},
			{
				"x": 0.8406944595,
				"y": 0.3104582506,
				"z": -2.4962456759,
				"element": "H" 
			},
			{
				"x": 2.1458796908,
				"y": 0.4310880474,
				"z": -1.3350506886,
				"element": "H" 
			},
			{
				"x": 0.9082136695,
				"y": -0.4897722247,
				"z": 1.2471042011,
				"element": "H" 
			},
			{
				"x": 2.3466966904,
				"y": -1.2247985292,
				"z": 0.5512624736,
				"element": "H" 
			},
			{
				"x": 0.972362747,
				"y": -2.2398361091,
				"z": 0.9968854501,
				"element": "H" 
			},
			{
				"x": 3.8553665445,
				"y": -1.9608108623,
				"z": -1.050904684,
				"element": "H" 
			},
			{
				"x": 3.7523561367,
				"y": -3.4709537273,
				"z": -1.9375783369,
				"element": "H" 
			},
			{
				"x": 4.3230985294,
				"y": -1.4856851847,
				"z": -3.6441692358,
				"element": "H" 
			}
		],
		 "valence_orbital": [ 
			{
				"type": "occ",
				"energy": -0.27261,
				"method": "rhf"
			},
			{
				"type": "occ",
				"energy": -0.2675,
				"method": "rhf"
			},
			{
				"type": "occ",
				"energy": -0.26031,
				"method": "rhf"
			},
			{
				"type": "occ",
				"energy": -0.25731,
				"method": "rhf"
			},
			{
				"type": "occ",
				"energy": -0.23415,
				"method": "rhf"
			},
			{
				"type": "unocc",
				"energy": -0.05769,
				"method": "rhf"
			},
			{
				"type": "unocc",
				"energy": -0.04406,
				"method": "rhf"
			},
			{
				"type": "unocc",
				"energy": -0.0004,
				"method": "rhf"
			},
			{
				"type": "unocc",
				"energy": 0.04977,
				"method": "rhf"
			},
			{
				"type": "unocc",
				"energy": 0.05859,
				"method": "rhf"
			}
		],
		"cosmo_sigma_profile": { 
			"-0.025": 0.0,
			"-0.024": 0.0,
			"-0.023": 0.0,
			"-0.022": 0.0,
			"-0.021": 0.0,
			"-0.02": 0.0,
			"-0.019": 0.0,
			"-0.018": 0.0,
			"-0.017": 0.0,
			"-0.016": 0.0,
			"-0.015": 0.0290097851382,
			"-0.014": 0.664756335971,
			"-0.013": 0.506376158883,
			"-0.012": 0.769259702206,
			"-0.011": 1.09887849087,
			"-0.01": 1.86779641123,
			"-0.009": 2.57518616114,
			"-0.008": 4.02098881619,
			"-0.007": 5.13980965939,
			"-0.006": 13.5110303494,
			"-0.005": 28.1147229029,
			"-0.004": 47.2000040848,
			"-0.003": 49.3236079961,
			"-0.002": 44.5568246683,
			"-0.001": 44.5323029594,
			"0.0": 37.3576355816,
			"0.001": 27.1069398912,
			"0.002": 18.189891435,
			"0.003": 13.5178058474,
			"0.004": 11.2612410847,
			"0.005": 11.5176871672,
			"0.006": 9.0185412829,
			"0.007": 7.91085180205,
			"0.008": 5.93029017364,
			"0.009": 6.6337726025,
			"0.01": 6.95144608888,
			"0.011": 6.48345220919,
			"0.012": 6.27890023742,
			"0.013": 7.58260181111,
			"0.014": 6.33208551648,
			"0.015": 0.980582435769,
			"0.016": 0.0,
			"0.017": 0.0,
			"0.018": 0.0,
			"0.019": 0.0,
			"0.02": 0.0,
			"0.021": 0.0,
			"0.022": 0.0,
			"0.023": 0.0,
			"0.024": 0.0,
			"0.025": 0.0
		}
	}
}
