{
	 "smiles": "CC(C)CCC(C)NC(=O)C1CSCN1", 
	 "Tm": 351.15, 
	 "num_atms": 37, 
	 "gaussian": { 
		 "optdone": 1, 
		 "sigma_profile": "yes", 
		 "theory": "DFT", 
		 "functional": "B3LYP", 
		 "basiset": "6-31G**", 
		 "properties": { 
			 "R2extent": 7242.0975, 
			 "electric_dipole_moment_norm": 4.58782045093, 
			 "electric_quadrupole_moment_norm": 14.2702958091, 
			 "total_energy": -1015.36572445, 
			 "HOMO_LUMO_gap": 0.22563, 
			 "cosmo_polarized_energy": -14.37, 
			 "cosmo_cavitation_energy": 38.63, 
			 "cosmo_dispersion_energy": -26.97, 
			 "cosmo_repulsion_energy": 2.11, 
			 "cosmo_total_nonelectrostatic_energy": 13.77, 
			 "SMD_solvation_energy": 3.48 
		},
		"coords": [
			{
				"x": -0.1961694002,
				"y": -2.8915297595,
				"z": 2.5764328143,
				"element": "C" 
			},
			{
				"x": -0.7867231602,
				"y": -1.8270768156,
				"z": 1.6393358187,
				"element": "C" 
			},
			{
				"x": -1.6003255564,
				"y": -2.4911696316,
				"z": 0.5178436681,
				"element": "C" 
			},
			{
				"x": 0.3313498025,
				"y": -0.909489377,
				"z": 1.1004607847,
				"element": "C" 
			},
			{
				"x": -0.1657812226,
				"y": 0.3179586475,
				"z": 0.3244401224,
				"element": "C" 
			},
			{
				"x": 0.950791173,
				"y": 1.2119762108,
				"z": -0.251056276,
				"element": "C" 
			},
			{
				"x": 1.840086911,
				"y": 1.8508256005,
				"z": 0.8273702857,
				"element": "C" 
			},
			{
				"x": 0.343786969,
				"y": 2.2482091518,
				"z": -1.0954996752,
				"element": "N" 
			},
			{
				"x": 0.7612775526,
				"y": 2.7515953354,
				"z": -2.2982769228,
				"element": "C" 
			},
			{
				"x": 0.3149908197,
				"y": 3.8117352868,
				"z": -2.7274832474,
				"element": "O" 
			},
			{
				"x": 1.818436414,
				"y": 1.9574028452,
				"z": -3.1066797629,
				"element": "C" 
			},
			{
				"x": 1.3240756174,
				"y": 0.5813389882,
				"z": -3.5946627513,
				"element": "C" 
			},
			{
				"x": 0.4785011044,
				"y": 0.8889871283,
				"z": -5.2007028548,
				"element": "S" 
			},
			{
				"x": 1.2143057402,
				"y": 2.578241823,
				"z": -5.3515223023,
				"element": "C" 
			},
			{
				"x": 2.2445698265,
				"y": 2.6662650048,
				"z": -4.3083490502,
				"element": "N" 
			},
			{
				"x": -0.981085175,
				"y": -3.5289004351,
				"z": 2.9971444672,
				"element": "H" 
			},
			{
				"x": 0.3478172016,
				"y": -2.4349256084,
				"z": 3.4106040072,
				"element": "H" 
			},
			{
				"x": 0.5044607782,
				"y": -3.541667006,
				"z": 2.0380934285,
				"element": "H" 
			},
			{
				"x": -1.4724197224,
				"y": -1.2018431949,
				"z": 2.2312256273,
				"element": "H" 
			},
			{
				"x": -0.9547014394,
				"y": -3.1106644357,
				"z": -0.1171383848,
				"element": "H" 
			},
			{
				"x": -2.3764233233,
				"y": -3.1423777621,
				"z": 0.933710034,
				"element": "H" 
			},
			{
				"x": -2.0986844507,
				"y": -1.7597048491,
				"z": -0.1253532852,
				"element": "H" 
			},
			{
				"x": 0.9423255933,
				"y": -0.5816708973,
				"z": 1.9506028451,
				"element": "H" 
			},
			{
				"x": 0.9974114502,
				"y": -1.5039677151,
				"z": 0.4567206606,
				"element": "H" 
			},
			{
				"x": -0.7968315066,
				"y": 0.0043020059,
				"z": -0.514137271,
				"element": "H" 
			},
			{
				"x": -0.8049359517,
				"y": 0.9297787772,
				"z": 0.9785504012,
				"element": "H" 
			},
			{
				"x": 1.5798385047,
				"y": 0.5910079589,
				"z": -0.8951991696,
				"element": "H" 
			},
			{
				"x": 1.241523298,
				"y": 2.4722308105,
				"z": 1.5037448538,
				"element": "H" 
			},
			{
				"x": 2.3500312118,
				"y": 1.0926315472,
				"z": 1.4284716227,
				"element": "H" 
			},
			{
				"x": 2.6017195292,
				"y": 2.4896722239,
				"z": 0.3702967349,
				"element": "H" 
			},
			{
				"x": -0.3133051654,
				"y": 2.8687295215,
				"z": -0.6341359576,
				"element": "H" 
			},
			{
				"x": 2.6973577623,
				"y": 1.8128442297,
				"z": -2.4627026733,
				"element": "H" 
			},
			{
				"x": 0.6161263116,
				"y": 0.117396947,
				"z": -2.9064965903,
				"element": "H" 
			},
			{
				"x": 2.1713875269,
				"y": -0.0904483405,
				"z": -3.7490938194,
				"element": "H" 
			},
			{
				"x": 0.4127884998,
				"y": 3.3136094694,
				"z": -5.2300357558,
				"element": "H" 
			},
			{
				"x": 1.6735895828,
				"y": 2.6810724755,
				"z": -6.3386112847,
				"element": "H" 
			},
			{
				"x": 2.3669368932,
				"y": 3.6505238388,
				"z": -4.0759111417,
				"element": "H" 
			}
		],
		 "valence_orbital": [ 
			{
				"type": "occ",
				"energy": -0.31018,
				"method": "rhf"
			},
			{
				"type": "occ",
				"energy": -0.26005,
				"method": "rhf"
			},
			{
				"type": "occ",
				"energy": -0.25165,
				"method": "rhf"
			},
			{
				"type": "occ",
				"energy": -0.23037,
				"method": "rhf"
			},
			{
				"type": "occ",
				"energy": -0.21128,
				"method": "rhf"
			},
			{
				"type": "unocc",
				"energy": 0.01435,
				"method": "rhf"
			},
			{
				"type": "unocc",
				"energy": 0.03593,
				"method": "rhf"
			},
			{
				"type": "unocc",
				"energy": 0.05951,
				"method": "rhf"
			},
			{
				"type": "unocc",
				"energy": 0.07689,
				"method": "rhf"
			},
			{
				"type": "unocc",
				"energy": 0.0815,
				"method": "rhf"
			}
		],
		"cosmo_sigma_profile": { 
			"-0.025": 0.0,
			"-0.024": 0.0,
			"-0.023": 0.0,
			"-0.022": 0.0,
			"-0.021": 0.0,
			"-0.02": 0.0,
			"-0.019": 0.0,
			"-0.018": 0.0,
			"-0.017": 0.0,
			"-0.016": 0.0,
			"-0.015": 0.0,
			"-0.014": 0.0,
			"-0.013": 0.093381741966,
			"-0.012": 1.02448284126,
			"-0.011": 0.785942779886,
			"-0.01": 1.96384774251,
			"-0.009": 2.43406038288,
			"-0.008": 1.99017650435,
			"-0.007": 4.28032707309,
			"-0.006": 9.85995300601,
			"-0.005": 15.8855788906,
			"-0.004": 16.921933277,
			"-0.003": 28.4628925096,
			"-0.002": 39.9399754139,
			"-0.001": 39.0541511665,
			"0.0": 34.5033801702,
			"0.001": 28.4648324754,
			"0.002": 17.8932462008,
			"0.003": 5.65833366419,
			"0.004": 6.27922839636,
			"0.005": 6.42864863682,
			"0.006": 6.48152338891,
			"0.007": 5.14366172288,
			"0.008": 3.67400558659,
			"0.009": 3.79195490081,
			"0.01": 5.2432304798,
			"0.011": 3.23687474956,
			"0.012": 2.00140550758,
			"0.013": 3.98860897496,
			"0.014": 3.20608812683,
			"0.015": 0.955767480586,
			"0.016": 0.863801197716,
			"0.017": 0.154468796323,
			"0.018": 0.0,
			"0.019": 0.0,
			"0.02": 0.0,
			"0.021": 0.0,
			"0.022": 0.0,
			"0.023": 0.0,
			"0.024": 0.0,
			"0.025": 0.0
		}
	}
}
