{
	 "smiles": "CC(C)(C)OC(=O)N1CCNC(=O)C1", 
	 "Tm": 431.15, 
	 "num_atms": 30, 
	 "gaussian": { 
		 "optdone": 1, 
		 "sigma_profile": "yes", 
		 "theory": "DFT", 
		 "functional": "B3LYP", 
		 "basiset": "6-31G**", 
		 "properties": { 
			 "R2extent": 4013.0237, 
			 "electric_dipole_moment_norm": 1.75913865571, 
			 "electric_quadrupole_moment_norm": 21.2388487979, 
			 "total_energy": -687.823291901, 
			 "HOMO_LUMO_gap": 0.25953, 
			 "cosmo_polarized_energy": -14.76, 
			 "cosmo_cavitation_energy": 31.64, 
			 "cosmo_dispersion_energy": -22.56, 
			 "cosmo_repulsion_energy": 1.81, 
			 "cosmo_total_nonelectrostatic_energy": 10.89, 
			 "SMD_solvation_energy": 5.95 
		},
		"coords": [
			{
				"x": -0.9192814344,
				"y": -1.948775157,
				"z": 0.7520029112,
				"element": "C" 
			},
			{
				"x": 0.045391647,
				"y": -1.7356593059,
				"z": -0.4189707304,
				"element": "C" 
			},
			{
				"x": 1.2471111421,
				"y": -2.6844850199,
				"z": -0.3646408867,
				"element": "C" 
			},
			{
				"x": -0.6869726155,
				"y": -1.8618903891,
				"z": -1.7572702993,
				"element": "C" 
			},
			{
				"x": 0.510044191,
				"y": -0.3370462022,
				"z": -0.4422037092,
				"element": "O" 
			},
			{
				"x": 1.2051748227,
				"y": 0.1822141512,
				"z": 0.5948049451,
				"element": "C" 
			},
			{
				"x": 1.5407618348,
				"y": -0.4192093905,
				"z": 1.6057548478,
				"element": "O" 
			},
			{
				"x": 1.4906815366,
				"y": 1.5091399872,
				"z": 0.3718917603,
				"element": "N" 
			},
			{
				"x": 2.323767636,
				"y": 2.2283055014,
				"z": 1.3223417635,
				"element": "C" 
			},
			{
				"x": 1.6113570636,
				"y": 3.5085486796,
				"z": 1.7456634992,
				"element": "C" 
			},
			{
				"x": 1.195699796,
				"y": 4.2515848268,
				"z": 0.5601779885,
				"element": "N" 
			},
			{
				"x": 0.900628878,
				"y": 3.7169393384,
				"z": -0.6615976524,
				"element": "C" 
			},
			{
				"x": 0.4816175976,
				"y": 4.3907479741,
				"z": -1.5928803701,
				"element": "O" 
			},
			{
				"x": 1.1597926122,
				"y": 2.2212859086,
				"z": -0.8563717901,
				"element": "C" 
			},
			{
				"x": -1.7399600402,
				"y": -1.2258760762,
				"z": 0.7045484613,
				"element": "H" 
			},
			{
				"x": -1.3494972188,
				"y": -2.9538395567,
				"z": 0.6935792455,
				"element": "H" 
			},
			{
				"x": -0.4051173582,
				"y": -1.840126939,
				"z": 1.7071037304,
				"element": "H" 
			},
			{
				"x": 1.9332993178,
				"y": -2.4757531274,
				"z": -1.191598031,
				"element": "H" 
			},
			{
				"x": 0.901652836,
				"y": -3.7186670736,
				"z": -0.4636611556,
				"element": "H" 
			},
			{
				"x": 1.7850987161,
				"y": -2.580293285,
				"z": 0.5776369664,
				"element": "H" 
			},
			{
				"x": -1.5197973046,
				"y": -1.1546769579,
				"z": -1.8116373261,
				"element": "H" 
			},
			{
				"x": -0.0076395048,
				"y": -1.6599132277,
				"z": -2.5904556531,
				"element": "H" 
			},
			{
				"x": -1.084936605,
				"y": -2.8743798355,
				"z": -1.8725054864,
				"element": "H" 
			},
			{
				"x": 3.2920207476,
				"y": 2.4764959183,
				"z": 0.8626782638,
				"element": "H" 
			},
			{
				"x": 2.4992502059,
				"y": 1.5772642274,
				"z": 2.178119743,
				"element": "H" 
			},
			{
				"x": 0.7476124322,
				"y": 3.2573613851,
				"z": 2.3771889999,
				"element": "H" 
			},
			{
				"x": 2.2893143191,
				"y": 4.1340452906,
				"z": 2.3368673605,
				"element": "H" 
			},
			{
				"x": 0.9573013848,
				"y": 5.2310162182,
				"z": 0.6472534011,
				"element": "H" 
			},
			{
				"x": 1.9618050155,
				"y": 2.13523229,
				"z": -1.6052705653,
				"element": "H" 
			},
			{
				"x": 0.2621183489,
				"y": 1.7947098466,
				"z": -1.3012502317,
				"element": "H" 
			}
		],
		 "valence_orbital": [ 
			{
				"type": "occ",
				"energy": -0.29177,
				"method": "rhf"
			},
			{
				"type": "occ",
				"energy": -0.27193,
				"method": "rhf"
			},
			{
				"type": "occ",
				"energy": -0.26308,
				"method": "rhf"
			},
			{
				"type": "occ",
				"energy": -0.25138,
				"method": "rhf"
			},
			{
				"type": "occ",
				"energy": -0.23527,
				"method": "rhf"
			},
			{
				"type": "unocc",
				"energy": 0.02426,
				"method": "rhf"
			},
			{
				"type": "unocc",
				"energy": 0.04769,
				"method": "rhf"
			},
			{
				"type": "unocc",
				"energy": 0.07572,
				"method": "rhf"
			},
			{
				"type": "unocc",
				"energy": 0.08698,
				"method": "rhf"
			},
			{
				"type": "unocc",
				"energy": 0.09958,
				"method": "rhf"
			}
		],
		"cosmo_sigma_profile": { 
			"-0.025": 0.0,
			"-0.024": 0.0,
			"-0.023": 0.0,
			"-0.022": 0.0,
			"-0.021": 0.0,
			"-0.02": 0.0,
			"-0.019": 0.0,
			"-0.018": 0.0,
			"-0.017": 0.0,
			"-0.016": 0.0,
			"-0.015": 0.00326052353064,
			"-0.014": 0.860407929107,
			"-0.013": 1.25505198144,
			"-0.012": 0.911937531014,
			"-0.011": 1.09165596744,
			"-0.01": 1.3209885327,
			"-0.009": 0.761537588029,
			"-0.008": 0.894803996106,
			"-0.007": 1.7573220554,
			"-0.006": 10.0669201341,
			"-0.005": 16.743212179,
			"-0.004": 24.6701840824,
			"-0.003": 27.6078480784,
			"-0.002": 23.2333048408,
			"-0.001": 23.3927389238,
			"0.0": 30.1186325611,
			"0.001": 21.993909539,
			"0.002": 7.95141625778,
			"0.003": 6.50581618493,
			"0.004": 5.79311368833,
			"0.005": 4.1286011241,
			"0.006": 3.60408074544,
			"0.007": 3.23523944162,
			"0.008": 3.12900046137,
			"0.009": 2.03135114384,
			"0.01": 2.09995085328,
			"0.011": 2.83980438266,
			"0.012": 4.12937091756,
			"0.013": 6.06973878153,
			"0.014": 6.66407756385,
			"0.015": 1.7133521134,
			"0.016": 0.0,
			"0.017": 0.0,
			"0.018": 0.0,
			"0.019": 0.0,
			"0.02": 0.0,
			"0.021": 0.0,
			"0.022": 0.0,
			"0.023": 0.0,
			"0.024": 0.0,
			"0.025": 0.0
		}
	}
}
