{
	 "smiles": "CCC1=C(C=NN1CC1=CC=CC=C1)C(O)=O", 
	 "Tm": 398.15, 
	 "num_atms": 31, 
	 "gaussian": { 
		 "optdone": 1, 
		 "sigma_profile": "yes", 
		 "theory": "DFT", 
		 "functional": "B3LYP", 
		 "basiset": "6-31G**", 
		 "properties": { 
			 "R2extent": 4719.2846, 
			 "electric_dipole_moment_norm": 4.20290824787, 
			 "electric_quadrupole_moment_norm": 19.938438652, 
			 "total_energy": -763.775474618, 
			 "HOMO_LUMO_gap": 0.23013, 
			 "cosmo_polarized_energy": -17.11, 
			 "cosmo_cavitation_energy": 34.81, 
			 "cosmo_dispersion_energy": -24.12, 
			 "cosmo_repulsion_energy": 1.87, 
			 "cosmo_total_nonelectrostatic_energy": 12.56, 
			 "SMD_solvation_energy": 6.04 
		},
		"coords": [
			{
				"x": -2.228856486,
				"y": -1.2888029885,
				"z": -1.8745132959,
				"element": "C" 
			},
			{
				"x": -1.8062013714,
				"y": -0.7489838121,
				"z": -0.4948593494,
				"element": "C" 
			},
			{
				"x": -0.3577091107,
				"y": -0.9918626691,
				"z": -0.1946227276,
				"element": "C" 
			},
			{
				"x": 0.2787651155,
				"y": -2.1113632598,
				"z": 0.3549150013,
				"element": "C" 
			},
			{
				"x": 1.6544233987,
				"y": -1.7660053096,
				"z": 0.3797682638,
				"element": "C" 
			},
			{
				"x": 1.8682530099,
				"y": -0.553208829,
				"z": -0.1095617633,
				"element": "N" 
			},
			{
				"x": 0.6310700278,
				"y": -0.0993791657,
				"z": -0.4562018891,
				"element": "N" 
			},
			{
				"x": 0.5143453145,
				"y": 1.2595559412,
				"z": -0.9847654018,
				"element": "C" 
			},
			{
				"x": 0.1430710534,
				"y": 2.2964389202,
				"z": 0.0609099923,
				"element": "C" 
			},
			{
				"x": -0.8928586445,
				"y": 3.2040165552,
				"z": -0.1833417922,
				"element": "C" 
			},
			{
				"x": -1.2165392847,
				"y": 4.1827426252,
				"z": 0.7594731565,
				"element": "C" 
			},
			{
				"x": -0.5081214762,
				"y": 4.2567279835,
				"z": 1.9585289711,
				"element": "C" 
			},
			{
				"x": 0.5267576345,
				"y": 3.3512834852,
				"z": 2.2095078792,
				"element": "C" 
			},
			{
				"x": 0.8532779999,
				"y": 2.3782074195,
				"z": 1.2663248318,
				"element": "C" 
			},
			{
				"x": -0.3976747865,
				"y": -3.3489077609,
				"z": 0.7718509798,
				"element": "C" 
			},
			{
				"x": 0.3481989854,
				"y": -4.2334290473,
				"z": 1.4926738676,
				"element": "O" 
			},
			{
				"x": -1.5522461054,
				"y": -3.6185340402,
				"z": 0.5128265418,
				"element": "O" 
			},
			{
				"x": -2.0835094629,
				"y": -2.3708324251,
				"z": -1.9092740058,
				"element": "H" 
			},
			{
				"x": -3.2878283957,
				"y": -1.0793039524,
				"z": -2.0538036752,
				"element": "H" 
			},
			{
				"x": -1.6502617511,
				"y": -0.8332027234,
				"z": -2.6853670627,
				"element": "H" 
			},
			{
				"x": -2.3927241423,
				"y": -1.2605488098,
				"z": 0.2717022125,
				"element": "H" 
			},
			{
				"x": -2.0229348179,
				"y": 0.3214857508,
				"z": -0.4168423307,
				"element": "H" 
			},
			{
				"x": 2.5039952065,
				"y": -2.3561311251,
				"z": 0.7034615374,
				"element": "H" 
			},
			{
				"x": -0.2180050118,
				"y": 1.2571973351,
				"z": -1.7961344429,
				"element": "H" 
			},
			{
				"x": 1.4926264193,
				"y": 1.4787665402,
				"z": -1.4205604626,
				"element": "H" 
			},
			{
				"x": -1.4488786834,
				"y": 3.1485696433,
				"z": -1.1165066118,
				"element": "H" 
			},
			{
				"x": -2.0240428323,
				"y": 4.8805951204,
				"z": 0.5577592254,
				"element": "H" 
			},
			{
				"x": -0.7601859229,
				"y": 5.0141920753,
				"z": 2.6949604359,
				"element": "H" 
			},
			{
				"x": 1.0820313413,
				"y": 3.4054729819,
				"z": 3.1415392023,
				"element": "H" 
			},
			{
				"x": 1.6582149942,
				"y": 1.67455313,
				"z": 1.4583726018,
				"element": "H" 
			},
			{
				"x": 1.2072477848,
				"y": -3.8481095891,
				"z": 1.7128801103,
				"element": "H" 
			}
		],
		 "valence_orbital": [ 
			{
				"type": "occ",
				"energy": -0.26997,
				"method": "rhf"
			},
			{
				"type": "occ",
				"energy": -0.26613,
				"method": "rhf"
			},
			{
				"type": "occ",
				"energy": -0.26054,
				"method": "rhf"
			},
			{
				"type": "occ",
				"energy": -0.25469,
				"method": "rhf"
			},
			{
				"type": "occ",
				"energy": -0.25084,
				"method": "rhf"
			},
			{
				"type": "unocc",
				"energy": -0.02071,
				"method": "rhf"
			},
			{
				"type": "unocc",
				"energy": -0.01707,
				"method": "rhf"
			},
			{
				"type": "unocc",
				"energy": -0.01221,
				"method": "rhf"
			},
			{
				"type": "unocc",
				"energy": 0.00853,
				"method": "rhf"
			},
			{
				"type": "unocc",
				"energy": 0.06396,
				"method": "rhf"
			}
		],
		"cosmo_sigma_profile": { 
			"-0.025": 0.0,
			"-0.024": 0.0,
			"-0.023": 0.0,
			"-0.022": 0.0,
			"-0.021": 0.0,
			"-0.02": 0.0,
			"-0.019": 0.169346613457,
			"-0.018": 0.791028863558,
			"-0.017": 1.02667650866,
			"-0.016": 1.27812605086,
			"-0.015": 0.893576148135,
			"-0.014": 0.932584734392,
			"-0.013": 0.894589125951,
			"-0.012": 1.52686115787,
			"-0.011": 1.513435119,
			"-0.01": 0.94007664194,
			"-0.009": 1.42750435328,
			"-0.008": 1.75928218474,
			"-0.007": 6.59739422069,
			"-0.006": 14.1213130626,
			"-0.005": 15.244493348,
			"-0.004": 19.7069333435,
			"-0.003": 21.9211240034,
			"-0.002": 22.4303541952,
			"-0.001": 24.6925434751,
			"0.0": 22.2613057442,
			"0.001": 21.5088159015,
			"0.002": 17.1489685158,
			"0.003": 12.7756731132,
			"0.004": 12.5095396739,
			"0.005": 13.3821398417,
			"0.006": 7.86500277624,
			"0.007": 3.34458174498,
			"0.008": 4.4710501001,
			"0.009": 3.62945753884,
			"0.01": 4.32081412304,
			"0.011": 5.84478142504,
			"0.012": 4.82130328549,
			"0.013": 3.47551312253,
			"0.014": 1.4158308985,
			"0.015": 0.18269073381,
			"0.016": 0.0,
			"0.017": 0.0,
			"0.018": 0.0,
			"0.019": 0.0,
			"0.02": 0.0,
			"0.021": 0.0,
			"0.022": 0.0,
			"0.023": 0.0,
			"0.024": 0.0,
			"0.025": 0.0
		}
	}
}
