{
	 "smiles": "OC(=O)CC(=O)NC1CC1", 
	 "Tm": 373.15, 
	 "num_atms": 19, 
	 "gaussian": { 
		 "optdone": 1, 
		 "sigma_profile": "yes", 
		 "theory": "DFT", 
		 "functional": "B3LYP", 
		 "basiset": "6-31G**", 
		 "properties": { 
			 "R2extent": 2564.7996, 
			 "electric_dipole_moment_norm": 7.23320490308, 
			 "electric_quadrupole_moment_norm": 18.3453624407, 
			 "total_energy": -514.483163531, 
			 "HOMO_LUMO_gap": 0.24875, 
			 "cosmo_polarized_energy": -16.97, 
			 "cosmo_cavitation_energy": 22.89, 
			 "cosmo_dispersion_energy": -16.83, 
			 "cosmo_repulsion_energy": 1.4, 
			 "cosmo_total_nonelectrostatic_energy": 7.46, 
			 "SMD_solvation_energy": 5.07 
		},
		"coords": [
			{
				"x": 0.54124184,
				"y": 2.4003681098,
				"z": -3.0502853096,
				"element": "O" 
			},
			{
				"x": 1.387648786,
				"y": 1.3713386253,
				"z": -3.0231222734,
				"element": "C" 
			},
			{
				"x": 2.5268493846,
				"y": 1.439752088,
				"z": -3.4218003001,
				"element": "O" 
			},
			{
				"x": 0.8287248743,
				"y": 0.0304776157,
				"z": -2.5050065524,
				"element": "C" 
			},
			{
				"x": -0.3815290118,
				"y": 0.1116753968,
				"z": -1.5908003073,
				"element": "C" 
			},
			{
				"x": -1.1779608687,
				"y": 1.0599859206,
				"z": -1.6450699382,
				"element": "O" 
			},
			{
				"x": -0.5899350453,
				"y": -0.9077778942,
				"z": -0.7174123467,
				"element": "N" 
			},
			{
				"x": 0.1564049838,
				"y": -2.1328091391,
				"z": -0.6072194128,
				"element": "C" 
			},
			{
				"x": 1.4907437569,
				"y": -2.137943007,
				"z": 0.1073592375,
				"element": "C" 
			},
			{
				"x": 0.2789399944,
				"y": -2.7462635868,
				"z": 0.7623178113,
				"element": "C" 
			},
			{
				"x": -0.2999370391,
				"y": 2.1220513462,
				"z": -2.5993484403,
				"element": "H" 
			},
			{
				"x": 0.5273132062,
				"y": -0.5431246666,
				"z": -3.3930013051,
				"element": "H" 
			},
			{
				"x": 1.6530944694,
				"y": -0.5202052437,
				"z": -2.0523693223,
				"element": "H" 
			},
			{
				"x": -1.4628225073,
				"y": -0.8300007794,
				"z": -0.2082549212,
				"element": "H" 
			},
			{
				"x": 0.0421088208,
				"y": -2.8200678345,
				"z": -1.4441876336,
				"element": "H" 
			},
			{
				"x": 1.8473764209,
				"y": -1.1902093378,
				"z": 0.4973643578,
				"element": "H" 
			},
			{
				"x": 2.2650444313,
				"y": -2.7954665026,
				"z": -0.2747863583,
				"element": "H" 
			},
			{
				"x": 0.2079520515,
				"y": -3.8260799042,
				"z": 0.8396783036,
				"element": "H" 
			},
			{
				"x": -0.1651585478,
				"y": -2.2036012066,
				"z": 1.591644711,
				"element": "H" 
			}
		],
		 "valence_orbital": [ 
			{
				"type": "occ",
				"energy": -0.33297,
				"method": "rhf"
			},
			{
				"type": "occ",
				"energy": -0.2947,
				"method": "rhf"
			},
			{
				"type": "occ",
				"energy": -0.28716,
				"method": "rhf"
			},
			{
				"type": "occ",
				"energy": -0.27864,
				"method": "rhf"
			},
			{
				"type": "occ",
				"energy": -0.25733,
				"method": "rhf"
			},
			{
				"type": "unocc",
				"energy": -0.00858,
				"method": "rhf"
			},
			{
				"type": "unocc",
				"energy": 0.02439,
				"method": "rhf"
			},
			{
				"type": "unocc",
				"energy": 0.06759,
				"method": "rhf"
			},
			{
				"type": "unocc",
				"energy": 0.07327,
				"method": "rhf"
			},
			{
				"type": "unocc",
				"energy": 0.08499,
				"method": "rhf"
			}
		],
		"cosmo_sigma_profile": { 
			"-0.025": 0.0,
			"-0.024": 0.0,
			"-0.023": 0.0,
			"-0.022": 0.0,
			"-0.021": 0.0,
			"-0.02": 0.0,
			"-0.019": 0.0,
			"-0.018": 0.0,
			"-0.017": 0.0,
			"-0.016": 0.0,
			"-0.015": 0.0824335664097,
			"-0.014": 0.791573284586,
			"-0.013": 0.944613916018,
			"-0.012": 0.951972670564,
			"-0.011": 0.768332210145,
			"-0.01": 1.23284520609,
			"-0.009": 5.46036666908,
			"-0.008": 3.53495732449,
			"-0.007": 4.87432116384,
			"-0.006": 12.7506930828,
			"-0.005": 18.8814039107,
			"-0.004": 15.6067070016,
			"-0.003": 15.033879593,
			"-0.002": 12.9984449975,
			"-0.001": 12.6891670457,
			"0.0": 8.33895683453,
			"0.001": 5.96774948202,
			"0.002": 6.68464327622,
			"0.003": 4.88560645476,
			"0.004": 3.89348775788,
			"0.005": 3.61842099134,
			"0.006": 3.46647109432,
			"0.007": 2.81387636179,
			"0.008": 4.01900803933,
			"0.009": 3.8372480591,
			"0.01": 5.2902853825,
			"0.011": 7.49254920597,
			"0.012": 8.09082163821,
			"0.013": 4.99024192787,
			"0.014": 0.771198831673,
			"0.015": 0.0,
			"0.016": 0.0,
			"0.017": 0.0,
			"0.018": 0.0,
			"0.019": 0.0,
			"0.02": 0.0,
			"0.021": 0.0,
			"0.022": 0.0,
			"0.023": 0.0,
			"0.024": 0.0,
			"0.025": 0.0
		}
	}
}
