{
	 "smiles": "COCCCN1C(=O)C2=C(C=C(C=C2)C(O)=O)C1=O", 
	 "Tm": 421.15, 
	 "num_atms": 32, 
	 "gaussian": { 
		 "optdone": 1, 
		 "sigma_profile": "yes", 
		 "theory": "DFT", 
		 "functional": "B3LYP", 
		 "basiset": "6-31G**", 
		 "properties": { 
			 "R2extent": 7282.578, 
			 "electric_dipole_moment_norm": 3.67961674227, 
			 "electric_quadrupole_moment_norm": 17.7195743637, 
			 "total_energy": -934.12467412, 
			 "HOMO_LUMO_gap": 0.15096, 
			 "cosmo_polarized_energy": -17.52, 
			 "cosmo_cavitation_energy": 37.47, 
			 "cosmo_dispersion_energy": -26.01, 
			 "cosmo_repulsion_energy": 2.01, 
			 "cosmo_total_nonelectrostatic_energy": 13.47, 
			 "SMD_solvation_energy": 9.0 
		},
		"coords": [
			{
				"x": -4.4936496342,
				"y": 0.5554311598,
				"z": 0.7375974369,
				"element": "C" 
			},
			{
				"x": -4.1518049273,
				"y": 1.9264144665,
				"z": 0.7344579312,
				"element": "O" 
			},
			{
				"x": -2.7834539148,
				"y": 2.1861733773,
				"z": 0.4662199099,
				"element": "C" 
			},
			{
				"x": -1.8913074033,
				"y": 1.9821155186,
				"z": 1.6970263853,
				"element": "C" 
			},
			{
				"x": -0.4256393101,
				"y": 2.3776794227,
				"z": 1.4732723927,
				"element": "C" 
			},
			{
				"x": 0.2801415648,
				"y": 1.5171346685,
				"z": 0.5258490422,
				"element": "N" 
			},
			{
				"x": 0.8565395591,
				"y": 0.2879188285,
				"z": 0.8768539347,
				"element": "C" 
			},
			{
				"x": 0.8194967037,
				"y": -0.2190441197,
				"z": 1.9806827002,
				"element": "O" 
			},
			{
				"x": 1.5044024705,
				"y": -0.2244281755,
				"z": -0.3705811427,
				"element": "C" 
			},
			{
				"x": 1.2962543135,
				"y": 0.7116014109,
				"z": -1.3871914296,
				"element": "C" 
			},
			{
				"x": 1.7866638183,
				"y": 0.5124933201,
				"z": -2.6656807623,
				"element": "C" 
			},
			{
				"x": 2.5056144598,
				"y": -0.6721698905,
				"z": -2.9063903842,
				"element": "C" 
			},
			{
				"x": 2.7140895894,
				"y": -1.6121484941,
				"z": -1.8823817272,
				"element": "C" 
			},
			{
				"x": 2.211998753,
				"y": -1.3960595937,
				"z": -0.5939148247,
				"element": "C" 
			},
			{
				"x": 3.0338017233,
				"y": -0.8858978176,
				"z": -4.2850405974,
				"element": "C" 
			},
			{
				"x": 3.7109007834,
				"y": -2.0511764567,
				"z": -4.4180021689,
				"element": "O" 
			},
			{
				"x": 2.8834485172,
				"y": -0.1092225354,
				"z": -5.2054013083,
				"element": "O" 
			},
			{
				"x": 0.5078092937,
				"y": 1.8486860973,
				"z": -0.8214517281,
				"element": "C" 
			},
			{
				"x": 0.1242625863,
				"y": 2.8622987939,
				"z": -1.3692821252,
				"element": "O" 
			},
			{
				"x": -5.5761861978,
				"y": 0.4964771024,
				"z": 0.8756678818,
				"element": "H" 
			},
			{
				"x": -4.2325515645,
				"y": 0.0700271304,
				"z": -0.2164144642,
				"element": "H" 
			},
			{
				"x": -4.009991312,
				"y": -0.0047620934,
				"z": 1.5516107333,
				"element": "H" 
			},
			{
				"x": -2.7311844473,
				"y": 3.2311519857,
				"z": 0.1418726079,
				"element": "H" 
			},
			{
				"x": -2.4346829887,
				"y": 1.5676040368,
				"z": -0.3759412665,
				"element": "H" 
			},
			{
				"x": -2.287946373,
				"y": 2.5971113279,
				"z": 2.513458418,
				"element": "H" 
			},
			{
				"x": -1.9266938663,
				"y": 0.9415517997,
				"z": 2.0374940434,
				"element": "H" 
			},
			{
				"x": -0.3509434678,
				"y": 3.3959824994,
				"z": 1.0810652128,
				"element": "H" 
			},
			{
				"x": 0.1187850472,
				"y": 2.3256045756,
				"z": 2.4198293801,
				"element": "H" 
			},
			{
				"x": 1.6341624087,
				"y": 1.2295884413,
				"z": -3.4646233398,
				"element": "H" 
			},
			{
				"x": 3.2732274356,
				"y": -2.5137053506,
				"z": -2.1042300082,
				"element": "H" 
			},
			{
				"x": 2.3682431782,
				"y": -2.1146228265,
				"z": 0.203838301,
				"element": "H" 
			},
			{
				"x": 4.0061932013,
				"y": -2.0860086093,
				"z": -5.3428690342,
				"element": "H" 
			}
		],
		 "valence_orbital": [ 
			{
				"type": "occ",
				"energy": -0.294,
				"method": "rhf"
			},
			{
				"type": "occ",
				"energy": -0.28852,
				"method": "rhf"
			},
			{
				"type": "occ",
				"energy": -0.2779,
				"method": "rhf"
			},
			{
				"type": "occ",
				"energy": -0.2758,
				"method": "rhf"
			},
			{
				"type": "occ",
				"energy": -0.25008,
				"method": "rhf"
			},
			{
				"type": "unocc",
				"energy": -0.09912,
				"method": "rhf"
			},
			{
				"type": "unocc",
				"energy": -0.06026,
				"method": "rhf"
			},
			{
				"type": "unocc",
				"energy": -0.01841,
				"method": "rhf"
			},
			{
				"type": "unocc",
				"energy": 0.06234,
				"method": "rhf"
			},
			{
				"type": "unocc",
				"energy": 0.06405,
				"method": "rhf"
			}
		],
		"cosmo_sigma_profile": { 
			"-0.025": 0.0,
			"-0.024": 0.0,
			"-0.023": 0.0,
			"-0.022": 0.0,
			"-0.021": 0.0,
			"-0.02": 0.0,
			"-0.019": 0.392870841028,
			"-0.018": 0.936086266481,
			"-0.017": 0.959932541073,
			"-0.016": 0.504419658511,
			"-0.015": 0.608124461344,
			"-0.014": 0.546145811831,
			"-0.013": 1.09458917454,
			"-0.012": 0.92619784213,
			"-0.011": 0.867917291707,
			"-0.01": 0.586624296555,
			"-0.009": 0.632404333116,
			"-0.008": 3.17230179944,
			"-0.007": 6.1997161685,
			"-0.006": 11.1016662039,
			"-0.005": 16.3701735799,
			"-0.004": 32.001227779,
			"-0.003": 34.1180992818,
			"-0.002": 29.7016709364,
			"-0.001": 30.8930950518,
			"0.0": 24.9269106371,
			"0.001": 12.4436337611,
			"0.002": 9.18733943806,
			"0.003": 9.03070741566,
			"0.004": 7.09096395112,
			"0.005": 6.70171390422,
			"0.006": 7.89130611011,
			"0.007": 6.36022157709,
			"0.008": 5.67070264694,
			"0.009": 6.00881594762,
			"0.01": 9.13774132209,
			"0.011": 14.8949964882,
			"0.012": 4.25407551491,
			"0.013": 1.62499335453,
			"0.014": 0.782474339295,
			"0.015": 0.0,
			"0.016": 0.0,
			"0.017": 0.0,
			"0.018": 0.0,
			"0.019": 0.0,
			"0.02": 0.0,
			"0.021": 0.0,
			"0.022": 0.0,
			"0.023": 0.0,
			"0.024": 0.0,
			"0.025": 0.0
		}
	}
}
