{
	 "smiles": "CC1(CCCC1)NC(=O)C1=CC(F)=NC=C1", 
	 "Tm": 352.15, 
	 "num_atms": 31, 
	 "gaussian": { 
		 "optdone": 1, 
		 "sigma_profile": "yes", 
		 "theory": "DFT", 
		 "functional": "B3LYP", 
		 "basiset": "6-31G**", 
		 "properties": { 
			 "R2extent": 4796.2295, 
			 "electric_dipole_moment_norm": 5.36595292003, 
			 "electric_quadrupole_moment_norm": 13.3705908658, 
			 "total_energy": -750.893782612, 
			 "HOMO_LUMO_gap": 0.20021, 
			 "cosmo_polarized_energy": -12.61, 
			 "cosmo_cavitation_energy": 33.02, 
			 "cosmo_dispersion_energy": -23.16, 
			 "cosmo_repulsion_energy": 1.77, 
			 "cosmo_total_nonelectrostatic_energy": 11.64, 
			 "SMD_solvation_energy": 4.36 
		},
		"coords": [
			{
				"x": 0.8364027263,
				"y": -1.0474429728,
				"z": 1.7044575227,
				"element": "C" 
			},
			{
				"x": -0.3324379466,
				"y": -0.4070589134,
				"z": 0.9332230059,
				"element": "C" 
			},
			{
				"x": -0.1173228003,
				"y": 1.1153660177,
				"z": 0.7321565994,
				"element": "C" 
			},
			{
				"x": -0.5157965717,
				"y": 1.7686908608,
				"z": 2.0768356096,
				"element": "C" 
			},
			{
				"x": -1.4669710745,
				"y": 0.7551393639,
				"z": 2.7808859974,
				"element": "C" 
			},
			{
				"x": -1.6220142286,
				"y": -0.416752615,
				"z": 1.7922784735,
				"element": "C" 
			},
			{
				"x": -0.6273885065,
				"y": -1.1565446399,
				"z": -0.3126958728,
				"element": "N" 
			},
			{
				"x": 0.2064651926,
				"y": -1.7168580872,
				"z": -1.2506149339,
				"element": "C" 
			},
			{
				"x": -0.1386436927,
				"y": -2.7017189545,
				"z": -1.8962759647,
				"element": "O" 
			},
			{
				"x": 1.5391625877,
				"y": -1.0785732535,
				"z": -1.5541507687,
				"element": "C" 
			},
			{
				"x": 2.6697009822,
				"y": -1.8952089538,
				"z": -1.6044929973,
				"element": "C" 
			},
			{
				"x": 3.8706812913,
				"y": -1.2974774347,
				"z": -1.9795959563,
				"element": "C" 
			},
			{
				"x": 4.9745896784,
				"y": -2.0594669732,
				"z": -2.0036034765,
				"element": "F" 
			},
			{
				"x": 4.0295651651,
				"y": -0.0361092537,
				"z": -2.3236319294,
				"element": "N" 
			},
			{
				"x": 2.9287637114,
				"y": 0.729958409,
				"z": -2.3077432992,
				"element": "C" 
			},
			{
				"x": 1.6714082776,
				"y": 0.2666582211,
				"z": -1.927023245,
				"element": "C" 
			},
			{
				"x": 0.9978624586,
				"y": -0.5387530977,
				"z": 2.6595553698,
				"element": "H" 
			},
			{
				"x": 0.6275145226,
				"y": -2.101611607,
				"z": 1.9130060623,
				"element": "H" 
			},
			{
				"x": 1.7693757311,
				"y": -0.9874091322,
				"z": 1.1385062333,
				"element": "H" 
			},
			{
				"x": 0.9044984022,
				"y": 1.3620339046,
				"z": 0.4344157891,
				"element": "H" 
			},
			{
				"x": -0.7866895737,
				"y": 1.4498463502,
				"z": -0.068288273,
				"element": "H" 
			},
			{
				"x": 0.3672586253,
				"y": 1.9598312064,
				"z": 2.6944453677,
				"element": "H" 
			},
			{
				"x": -0.9955162087,
				"y": 2.7381796184,
				"z": 1.9150629562,
				"element": "H" 
			},
			{
				"x": -1.0327545323,
				"y": 0.4101716041,
				"z": 3.7243896779,
				"element": "H" 
			},
			{
				"x": -2.436225353,
				"y": 1.1968842463,
				"z": 3.0283494212,
				"element": "H" 
			},
			{
				"x": -1.7849052781,
				"y": -1.3816064168,
				"z": 2.2848640022,
				"element": "H" 
			},
			{
				"x": -2.477065084,
				"y": -0.2351137865,
				"z": 1.1286384564,
				"element": "H" 
			},
			{
				"x": -1.4797392313,
				"y": -1.7049986874,
				"z": -0.2700888405,
				"element": "H" 
			},
			{
				"x": 2.6194862643,
				"y": -2.9520446072,
				"z": -1.3723796434,
				"element": "H" 
			},
			{
				"x": 3.064672341,
				"y": 1.7642442633,
				"z": -2.6163383511,
				"element": "H" 
			},
			{
				"x": 0.8138621243,
				"y": 0.9277453207,
				"z": -1.9474469924,
				"element": "H" 
			}
		],
		 "valence_orbital": [ 
			{
				"type": "occ",
				"energy": -0.3,
				"method": "rhf"
			},
			{
				"type": "occ",
				"energy": -0.28279,
				"method": "rhf"
			},
			{
				"type": "occ",
				"energy": -0.26713,
				"method": "rhf"
			},
			{
				"type": "occ",
				"energy": -0.26174,
				"method": "rhf"
			},
			{
				"type": "occ",
				"energy": -0.25044,
				"method": "rhf"
			},
			{
				"type": "unocc",
				"energy": -0.05023,
				"method": "rhf"
			},
			{
				"type": "unocc",
				"energy": -0.01719,
				"method": "rhf"
			},
			{
				"type": "unocc",
				"energy": 0.02643,
				"method": "rhf"
			},
			{
				"type": "unocc",
				"energy": 0.06013,
				"method": "rhf"
			},
			{
				"type": "unocc",
				"energy": 0.07832,
				"method": "rhf"
			}
		],
		"cosmo_sigma_profile": { 
			"-0.025": 0.0,
			"-0.024": 0.0,
			"-0.023": 0.0,
			"-0.022": 0.0,
			"-0.021": 0.0,
			"-0.02": 0.0,
			"-0.019": 0.0,
			"-0.018": 0.0,
			"-0.017": 0.0,
			"-0.016": 0.0,
			"-0.015": 0.0,
			"-0.014": 0.0,
			"-0.013": 0.116787082387,
			"-0.012": 0.639753774603,
			"-0.011": 0.541126507992,
			"-0.01": 1.1126155112,
			"-0.009": 0.99750348535,
			"-0.008": 3.19399632005,
			"-0.007": 6.41223102779,
			"-0.006": 7.71067437159,
			"-0.005": 6.53919717686,
			"-0.004": 13.56520935,
			"-0.003": 30.360881144,
			"-0.002": 38.190954464,
			"-0.001": 37.8356111327,
			"0.0": 27.2511572009,
			"0.001": 23.1660376074,
			"0.002": 7.59682743431,
			"0.003": 9.25044759577,
			"0.004": 10.776341844,
			"0.005": 4.00948503235,
			"0.006": 3.47160576777,
			"0.007": 2.77983780528,
			"0.008": 3.06363954654,
			"0.009": 2.43050214706,
			"0.01": 2.8026914359,
			"0.011": 2.4746816716,
			"0.012": 3.99680842248,
			"0.013": 6.30514204903,
			"0.014": 2.93519304965,
			"0.015": 0.136762656456,
			"0.016": 0.0,
			"0.017": 0.0,
			"0.018": 0.0,
			"0.019": 0.0,
			"0.02": 0.0,
			"0.021": 0.0,
			"0.022": 0.0,
			"0.023": 0.0,
			"0.024": 0.0,
			"0.025": 0.0
		}
	}
}
