{
	 "smiles": "CC(Cl)C(=O)C1=C(C)C(C(C)=O)=C(C)N1", 
	 "Tm": 426.15, 
	 "num_atms": 29, 
	 "gaussian": { 
		 "optdone": 1, 
		 "sigma_profile": "yes", 
		 "theory": "DFT", 
		 "functional": "B3LYP", 
		 "basiset": "6-31G**", 
		 "properties": { 
			 "R2extent": 4594.4096, 
			 "electric_dipole_moment_norm": 3.80013388843, 
			 "electric_quadrupole_moment_norm": 18.5566125457, 
			 "total_energy": -1093.01829816, 
			 "HOMO_LUMO_gap": 0.17146, 
			 "cosmo_polarized_energy": -14.49, 
			 "cosmo_cavitation_energy": 32.85, 
			 "cosmo_dispersion_energy": -23.58, 
			 "cosmo_repulsion_energy": 1.84, 
			 "cosmo_total_nonelectrostatic_energy": 11.11, 
			 "SMD_solvation_energy": 6.29 
		},
		"coords": [
			{
				"x": -3.2637947188,
				"y": 2.7648207631,
				"z": 0.2364765743,
				"element": "C" 
			},
			{
				"x": -3.4533634963,
				"y": 1.7274699928,
				"z": -0.8651333387,
				"element": "C" 
			},
			{
				"x": -2.6614977626,
				"y": 2.2483491914,
				"z": -2.434222528,
				"element": "Cl" 
			},
			{
				"x": -3.0428101989,
				"y": 0.3011213554,
				"z": -0.4812742948,
				"element": "C" 
			},
			{
				"x": -3.9558917828,
				"y": -0.527061223,
				"z": -0.4196434339,
				"element": "O" 
			},
			{
				"x": -1.6889755316,
				"y": -0.1285601133,
				"z": -0.1225570662,
				"element": "C" 
			},
			{
				"x": -0.391020641,
				"y": 0.3829041553,
				"z": 0.0026766481,
				"element": "C" 
			},
			{
				"x": 0.1077215828,
				"y": 1.7645621423,
				"z": -0.2937152271,
				"element": "C" 
			},
			{
				"x": 0.4339597094,
				"y": -0.696483572,
				"z": 0.4739552007,
				"element": "C" 
			},
			{
				"x": 1.8772827653,
				"y": -0.5810377303,
				"z": 0.7579925935,
				"element": "C" 
			},
			{
				"x": 2.6745869792,
				"y": -1.8227371034,
				"z": 1.1375732818,
				"element": "C" 
			},
			{
				"x": 2.4558811319,
				"y": 0.499080794,
				"z": 0.6926720888,
				"element": "O" 
			},
			{
				"x": -0.3893274961,
				"y": -1.8355947453,
				"z": 0.6113669107,
				"element": "C" 
			},
			{
				"x": -0.1350274156,
				"y": -3.2437355708,
				"z": 1.0562464429,
				"element": "C" 
			},
			{
				"x": -1.6311786017,
				"y": -1.4656870709,
				"z": 0.2548382111,
				"element": "N" 
			},
			{
				"x": -3.6568610154,
				"y": 3.7317891167,
				"z": -0.0867345842,
				"element": "H" 
			},
			{
				"x": -3.8268321861,
				"y": 2.442630831,
				"z": 1.1196924117,
				"element": "H" 
			},
			{
				"x": -2.2185657633,
				"y": 2.8888275332,
				"z": 0.5204613247,
				"element": "H" 
			},
			{
				"x": -4.5089121584,
				"y": 1.6402025251,
				"z": -1.1199745424,
				"element": "H" 
			},
			{
				"x": 0.3562102004,
				"y": 2.2946596474,
				"z": 0.6326798466,
				"element": "H" 
			},
			{
				"x": -0.6137800822,
				"y": 2.3466913133,
				"z": -0.8620656678,
				"element": "H" 
			},
			{
				"x": 1.0414659706,
				"y": 1.7149638587,
				"z": -0.8568631898,
				"element": "H" 
			},
			{
				"x": 2.319153853,
				"y": -2.2539909495,
				"z": 2.0794661794,
				"element": "H" 
			},
			{
				"x": 3.7184380104,
				"y": -1.5292768667,
				"z": 1.2541827751,
				"element": "H" 
			},
			{
				"x": 2.6006643312,
				"y": -2.6002828037,
				"z": 0.3701071892,
				"element": "H" 
			},
			{
				"x": -1.0641421015,
				"y": -3.8200403032,
				"z": 1.0313537126,
				"element": "H" 
			},
			{
				"x": 0.5885394433,
				"y": -3.7516549082,
				"z": 0.41172925,
				"element": "H" 
			},
			{
				"x": 0.2538557903,
				"y": -3.2843626037,
				"z": 2.0782191627,
				"element": "H" 
			},
			{
				"x": -2.4708788158,
				"y": -2.0307676559,
				"z": 0.245894069,
				"element": "H" 
			}
		],
		 "valence_orbital": [ 
			{
				"type": "occ",
				"energy": -0.2975,
				"method": "rhf"
			},
			{
				"type": "occ",
				"energy": -0.26442,
				"method": "rhf"
			},
			{
				"type": "occ",
				"energy": -0.25469,
				"method": "rhf"
			},
			{
				"type": "occ",
				"energy": -0.2392,
				"method": "rhf"
			},
			{
				"type": "occ",
				"energy": -0.23159,
				"method": "rhf"
			},
			{
				"type": "unocc",
				"energy": -0.06013,
				"method": "rhf"
			},
			{
				"type": "unocc",
				"energy": -0.02975,
				"method": "rhf"
			},
			{
				"type": "unocc",
				"energy": 0.01837,
				"method": "rhf"
			},
			{
				"type": "unocc",
				"energy": 0.06481,
				"method": "rhf"
			},
			{
				"type": "unocc",
				"energy": 0.07132,
				"method": "rhf"
			}
		],
		"cosmo_sigma_profile": { 
			"-0.025": 0.0,
			"-0.024": 0.0,
			"-0.023": 0.0,
			"-0.022": 0.0,
			"-0.021": 0.0,
			"-0.02": 0.0,
			"-0.019": 0.0,
			"-0.018": 0.0,
			"-0.017": 0.0,
			"-0.016": 0.0,
			"-0.015": 0.007645356614,
			"-0.014": 0.452969119511,
			"-0.013": 1.40504229803,
			"-0.012": 0.898670854144,
			"-0.011": 1.28400129174,
			"-0.01": 1.21044611831,
			"-0.009": 0.51318985634,
			"-0.008": 1.75386191253,
			"-0.007": 6.27752705027,
			"-0.006": 13.9302294598,
			"-0.005": 15.349947348,
			"-0.004": 20.650943755,
			"-0.003": 22.8961715477,
			"-0.002": 26.6412083386,
			"-0.001": 24.5584425187,
			"0.0": 21.7833951968,
			"0.001": 16.1007844802,
			"0.002": 15.2847196624,
			"0.003": 16.044890849,
			"0.004": 10.746511808,
			"0.005": 9.68843077919,
			"0.006": 6.65293537319,
			"0.007": 3.92930998649,
			"0.008": 2.2702761884,
			"0.009": 3.27219096926,
			"0.01": 3.27814587882,
			"0.011": 4.87090856607,
			"0.012": 4.74055931027,
			"0.013": 3.36071948303,
			"0.014": 1.49121225831,
			"0.015": 0.140719057267,
			"0.016": 0.0,
			"0.017": 0.0,
			"0.018": 0.0,
			"0.019": 0.0,
			"0.02": 0.0,
			"0.021": 0.0,
			"0.022": 0.0,
			"0.023": 0.0,
			"0.024": 0.0,
			"0.025": 0.0
		}
	}
}
