{
	 "smiles": "ClC1=C(C=CC=C1)C1=C(Cl)C=CC=C1", 
	 "Tm": 334.65, 
	 "num_atms": 22, 
	 "gaussian": { 
		 "optdone": 1, 
		 "sigma_profile": "yes", 
		 "theory": "DFT", 
		 "functional": "B3LYP", 
		 "basiset": "6-31G**", 
		 "properties": { 
			 "R2extent": 3647.8105, 
			 "electric_dipole_moment_norm": 2.33742913048, 
			 "electric_quadrupole_moment_norm": 11.670725262, 
			 "total_energy": -1382.48580834, 
			 "HOMO_LUMO_gap": 0.22247, 
			 "cosmo_polarized_energy": -6.68, 
			 "cosmo_cavitation_energy": 29.71, 
			 "cosmo_dispersion_energy": -21.04, 
			 "cosmo_repulsion_energy": 1.66, 
			 "cosmo_total_nonelectrostatic_energy": 10.34, 
			 "SMD_solvation_energy": 4.48 
		},
		"coords": [
			{
				"x": -2.1351865126,
				"y": 1.6291931213,
				"z": 2.1634710906,
				"element": "Cl" 
			},
			{
				"x": -1.8027711316,
				"y": 1.9446624345,
				"z": 0.4660544916,
				"element": "C" 
			},
			{
				"x": -0.9548448818,
				"y": 1.0929780419,
				"z": -0.2588883381,
				"element": "C" 
			},
			{
				"x": -0.7502456973,
				"y": 1.3841493896,
				"z": -1.6163613627,
				"element": "C" 
			},
			{
				"x": -1.3542328733,
				"y": 2.4828201821,
				"z": -2.2250822399,
				"element": "C" 
			},
			{
				"x": -2.1863115685,
				"y": 3.3171531924,
				"z": -1.4783898316,
				"element": "C" 
			},
			{
				"x": -2.4141196374,
				"y": 3.0481524595,
				"z": -0.1296191572,
				"element": "C" 
			},
			{
				"x": -0.3080556898,
				"y": -0.1116763954,
				"z": 0.3410685515,
				"element": "C" 
			},
			{
				"x": 0.8730536576,
				"y": -0.0472012299,
				"z": 1.0965216648,
				"element": "C" 
			},
			{
				"x": 1.6534984127,
				"y": 1.5005976439,
				"z": 1.3905631014,
				"element": "Cl" 
			},
			{
				"x": 1.4686369305,
				"y": -1.1941879685,
				"z": 1.6218511252,
				"element": "C" 
			},
			{
				"x": 0.8857361064,
				"y": -2.4396519265,
				"z": 1.3927460622,
				"element": "C" 
			},
			{
				"x": -0.2841537996,
				"y": -2.5340502466,
				"z": 0.6387830365,
				"element": "C" 
			},
			{
				"x": -0.8678347207,
				"y": -1.379482118,
				"z": 0.1204114376,
				"element": "C" 
			},
			{
				"x": -0.0981124112,
				"y": 0.7331975279,
				"z": -2.1909216785,
				"element": "H" 
			},
			{
				"x": -1.1743583611,
				"y": 2.6856351016,
				"z": -3.2763428612,
				"element": "H" 
			},
			{
				"x": -2.6622167149,
				"y": 4.1767325621,
				"z": -1.9407593585,
				"element": "H" 
			},
			{
				"x": -3.0631166255,
				"y": 3.6829446758,
				"z": 0.4633981546,
				"element": "H" 
			},
			{
				"x": 2.3813225816,
				"y": -1.1039522631,
				"z": 2.2003731303,
				"element": "H" 
			},
			{
				"x": 1.3499032446,
				"y": -3.3316294483,
				"z": 1.8027140063,
				"element": "H" 
			},
			{
				"x": -0.7419993754,
				"y": -3.5011427807,
				"z": 0.4550826648,
				"element": "H" 
			},
			{
				"x": -1.7807909325,
				"y": -1.4456419555,
				"z": -0.4637736894,
				"element": "H" 
			}
		],
		 "valence_orbital": [ 
			{
				"type": "occ",
				"energy": -0.30867,
				"method": "rhf"
			},
			{
				"type": "occ",
				"energy": -0.26405,
				"method": "rhf"
			},
			{
				"type": "occ",
				"energy": -0.25865,
				"method": "rhf"
			},
			{
				"type": "occ",
				"energy": -0.24672,
				"method": "rhf"
			},
			{
				"type": "occ",
				"energy": -0.24405,
				"method": "rhf"
			},
			{
				"type": "unocc",
				"energy": -0.02158,
				"method": "rhf"
			},
			{
				"type": "unocc",
				"energy": -0.01914,
				"method": "rhf"
			},
			{
				"type": "unocc",
				"energy": -0.00973,
				"method": "rhf"
			},
			{
				"type": "unocc",
				"energy": -0.00718,
				"method": "rhf"
			},
			{
				"type": "unocc",
				"energy": 0.02773,
				"method": "rhf"
			}
		],
		"cosmo_sigma_profile": { 
			"-0.025": 0.0,
			"-0.024": 0.0,
			"-0.023": 0.0,
			"-0.022": 0.0,
			"-0.021": 0.0,
			"-0.02": 0.0,
			"-0.019": 0.0,
			"-0.018": 0.0,
			"-0.017": 0.0,
			"-0.016": 0.0,
			"-0.015": 0.0,
			"-0.014": 0.0,
			"-0.013": 0.0,
			"-0.012": 0.0,
			"-0.011": 0.0,
			"-0.01": 0.0,
			"-0.009": 0.0,
			"-0.008": 0.167114028792,
			"-0.007": 7.62010762536,
			"-0.006": 16.9471706808,
			"-0.005": 18.2485565132,
			"-0.004": 15.5563114,
			"-0.003": 12.2915441501,
			"-0.002": 14.2583405988,
			"-0.001": 15.4497694675,
			"0.0": 16.7054532149,
			"0.001": 19.0993260958,
			"0.002": 24.1030026939,
			"0.003": 26.6053582814,
			"0.004": 36.9447317534,
			"0.005": 18.8737775912,
			"0.006": 0.392964373826,
			"0.007": 0.0,
			"0.008": 0.0,
			"0.009": 0.0,
			"0.01": 0.0,
			"0.011": 0.0,
			"0.012": 0.0,
			"0.013": 0.0,
			"0.014": 0.0,
			"0.015": 0.0,
			"0.016": 0.0,
			"0.017": 0.0,
			"0.018": 0.0,
			"0.019": 0.0,
			"0.02": 0.0,
			"0.021": 0.0,
			"0.022": 0.0,
			"0.023": 0.0,
			"0.024": 0.0,
			"0.025": 0.0
		}
	}
}
