{
	 "smiles": "CN1C=C(CO)C(=N1)C1=CC=CC=C1", 
	 "Tm": 381.15, 
	 "num_atms": 26, 
	 "gaussian": { 
		 "optdone": 1, 
		 "sigma_profile": "yes", 
		 "theory": "DFT", 
		 "functional": "B3LYP", 
		 "basiset": "6-31G**", 
		 "properties": { 
			 "R2extent": 3341.517, 
			 "electric_dipole_moment_norm": 3.83261550902, 
			 "electric_quadrupole_moment_norm": 10.9352590088, 
			 "total_energy": -611.106470216, 
			 "HOMO_LUMO_gap": 0.20031, 
			 "cosmo_polarized_energy": -12.96, 
			 "cosmo_cavitation_energy": 29.43, 
			 "cosmo_dispersion_energy": -21.5, 
			 "cosmo_repulsion_energy": 1.7, 
			 "cosmo_total_nonelectrostatic_energy": 9.63, 
			 "SMD_solvation_energy": 4.59 
		},
		"coords": [
			{
				"x": 0.9849555428,
				"y": 3.46991536,
				"z": 0.0860425328,
				"element": "C" 
			},
			{
				"x": 0.8020700203,
				"y": 2.0427293114,
				"z": 0.2651027592,
				"element": "N" 
			},
			{
				"x": 0.8548131798,
				"y": 1.3262881401,
				"z": 1.415314373,
				"element": "C" 
			},
			{
				"x": 0.6808347648,
				"y": -0.006822694,
				"z": 1.0821852504,
				"element": "C" 
			},
			{
				"x": 0.6285269917,
				"y": -1.1462711098,
				"z": 2.0536821942,
				"element": "C" 
			},
			{
				"x": 1.7932671337,
				"y": -1.981687777,
				"z": 2.0391998762,
				"element": "O" 
			},
			{
				"x": 0.5340779136,
				"y": 0.006061203,
				"z": -0.3421165984,
				"element": "C" 
			},
			{
				"x": 0.6128566471,
				"y": 1.2576706093,
				"z": -0.8141900772,
				"element": "N" 
			},
			{
				"x": 0.2778698788,
				"y": -1.1100723477,
				"z": -1.2722660798,
				"element": "C" 
			},
			{
				"x": 0.6748162203,
				"y": -2.4247761094,
				"z": -0.9743518556,
				"element": "C" 
			},
			{
				"x": 0.4132680998,
				"y": -3.459840905,
				"z": -1.8737229125,
				"element": "C" 
			},
			{
				"x": -0.2363863503,
				"y": -3.2025791359,
				"z": -3.0812887242,
				"element": "C" 
			},
			{
				"x": -0.6237349627,
				"y": -1.8954067144,
				"z": -3.3896173635,
				"element": "C" 
			},
			{
				"x": -0.3717343144,
				"y": -0.8595317254,
				"z": -2.4943969989,
				"element": "C" 
			},
			{
				"x": 1.9515279517,
				"y": 3.6820568481,
				"z": -0.3813725958,
				"element": "H" 
			},
			{
				"x": 0.9399365512,
				"y": 3.9596623477,
				"z": 1.0604442113,
				"element": "H" 
			},
			{
				"x": 0.1903176198,
				"y": 3.8600576482,
				"z": -0.5534303418,
				"element": "H" 
			},
			{
				"x": 0.9899090878,
				"y": 1.8025141534,
				"z": 2.3767942142,
				"element": "H" 
			},
			{
				"x": 0.4586696772,
				"y": -0.7486636384,
				"z": 3.065746839,
				"element": "H" 
			},
			{
				"x": -0.2062591641,
				"y": -1.8152239656,
				"z": 1.8221378148,
				"element": "H" 
			},
			{
				"x": 2.560856698,
				"y": -1.3969519418,
				"z": 1.9862428645,
				"element": "H" 
			},
			{
				"x": 1.2107013471,
				"y": -2.6295612843,
				"z": -0.0527227384,
				"element": "H" 
			},
			{
				"x": 0.7283877439,
				"y": -4.4708332865,
				"z": -1.6301457204,
				"element": "H" 
			},
			{
				"x": -0.4373603455,
				"y": -4.011335797,
				"z": -3.7783708921,
				"element": "H" 
			},
			{
				"x": -1.1289249445,
				"y": -1.684263514,
				"z": -4.328239341,
				"element": "H" 
			},
			{
				"x": -0.675062988,
				"y": 0.1559663253,
				"z": -2.7259606901,
				"element": "H" 
			}
		],
		 "valence_orbital": [ 
			{
				"type": "occ",
				"energy": -0.27604,
				"method": "rhf"
			},
			{
				"type": "occ",
				"energy": -0.26833,
				"method": "rhf"
			},
			{
				"type": "occ",
				"energy": -0.24456,
				"method": "rhf"
			},
			{
				"type": "occ",
				"energy": -0.23745,
				"method": "rhf"
			},
			{
				"type": "occ",
				"energy": -0.21322,
				"method": "rhf"
			},
			{
				"type": "unocc",
				"energy": -0.01291,
				"method": "rhf"
			},
			{
				"type": "unocc",
				"energy": 0.01128,
				"method": "rhf"
			},
			{
				"type": "unocc",
				"energy": 0.02224,
				"method": "rhf"
			},
			{
				"type": "unocc",
				"energy": 0.06936,
				"method": "rhf"
			},
			{
				"type": "unocc",
				"energy": 0.0913,
				"method": "rhf"
			}
		],
		"cosmo_sigma_profile": { 
			"-0.025": 0.0,
			"-0.024": 0.0,
			"-0.023": 0.0,
			"-0.022": 0.0,
			"-0.021": 0.0,
			"-0.02": 0.0,
			"-0.019": 0.0,
			"-0.018": 0.0,
			"-0.017": 0.0,
			"-0.016": 0.0319190266512,
			"-0.015": 0.556891133514,
			"-0.014": 0.637723865623,
			"-0.013": 0.931090015792,
			"-0.012": 1.10132430556,
			"-0.011": 0.654649130889,
			"-0.01": 0.472229498622,
			"-0.009": 2.63570601613,
			"-0.008": 4.32775284348,
			"-0.007": 4.96235778787,
			"-0.006": 11.0233069315,
			"-0.005": 17.3444833222,
			"-0.004": 20.1951618676,
			"-0.003": 24.416716526,
			"-0.002": 16.4066637282,
			"-0.001": 12.9504962898,
			"0.0": 12.1958487715,
			"0.001": 11.1344958898,
			"0.002": 14.1950774648,
			"0.003": 15.331301986,
			"0.004": 16.4683320538,
			"0.005": 13.5803981125,
			"0.006": 12.26454578,
			"0.007": 4.08273241102,
			"0.008": 2.85562227607,
			"0.009": 2.45184513699,
			"0.01": 2.1684185608,
			"0.011": 2.14816946095,
			"0.012": 1.78717301134,
			"0.013": 2.08165821713,
			"0.014": 2.2523212675,
			"0.015": 0.563426252218,
			"0.016": 0.0,
			"0.017": 0.0,
			"0.018": 0.0,
			"0.019": 0.0,
			"0.02": 0.0,
			"0.021": 0.0,
			"0.022": 0.0,
			"0.023": 0.0,
			"0.024": 0.0,
			"0.025": 0.0
		}
	}
}
