{
	 "smiles": "O=C1CCCCCO1", 
	 "Tm": 272.15, 
	 "num_atms": 18, 
	 "gaussian": { 
		 "optdone": 1, 
		 "sigma_profile": "yes", 
		 "theory": "DFT", 
		 "functional": "B3LYP", 
		 "basiset": "6-31G**", 
		 "properties": { 
			 "R2extent": 1305.0861, 
			 "electric_dipole_moment_norm": 4.61208165149, 
			 "electric_quadrupole_moment_norm": 16.7550919066, 
			 "total_energy": -385.122827531, 
			 "HOMO_LUMO_gap": 0.27175, 
			 "cosmo_polarized_energy": -10.54, 
			 "cosmo_cavitation_energy": 19.65, 
			 "cosmo_dispersion_energy": -15.11, 
			 "cosmo_repulsion_energy": 1.27, 
			 "cosmo_total_nonelectrostatic_energy": 5.81, 
			 "SMD_solvation_energy": 3.92 
		},
		"coords": [
			{
				"x": 3.0865083905,
				"y": -0.0714539516,
				"z": 2.0012600691,
				"element": "O" 
			},
			{
				"x": 2.21120519,
				"y": -0.260055182,
				"z": 1.1898943941,
				"element": "C" 
			},
			{
				"x": 0.7335516166,
				"y": -0.2536229058,
				"z": 1.555313017,
				"element": "C" 
			},
			{
				"x": -0.064342608,
				"y": 0.9108022643,
				"z": 0.9284810766,
				"element": "C" 
			},
			{
				"x": -0.4590386187,
				"y": 0.6893999074,
				"z": -0.5371064059,
				"element": "C" 
			},
			{
				"x": 0.7189341401,
				"y": 0.4633658255,
				"z": -1.4936955605,
				"element": "C" 
			},
			{
				"x": 1.6033257625,
				"y": -0.7329286736,
				"z": -1.1409302241,
				"element": "C" 
			},
			{
				"x": 2.5667287065,
				"y": -0.460804235,
				"z": -0.1083630963,
				"element": "O" 
			},
			{
				"x": 0.7119632815,
				"y": -0.1823485566,
				"z": 2.6441223673,
				"element": "H" 
			},
			{
				"x": 0.2708723889,
				"y": -1.2109103343,
				"z": 1.2805248422,
				"element": "H" 
			},
			{
				"x": -0.9764628954,
				"y": 1.0522364523,
				"z": 1.5191541847,
				"element": "H" 
			},
			{
				"x": 0.5131482748,
				"y": 1.8384943173,
				"z": 1.0304402215,
				"element": "H" 
			},
			{
				"x": -1.1294661014,
				"y": -0.1802534487,
				"z": -0.5933980765,
				"element": "H" 
			},
			{
				"x": -1.0446178552,
				"y": 1.5487251347,
				"z": -0.8850384737,
				"element": "H" 
			},
			{
				"x": 1.3575734088,
				"y": 1.3543569713,
				"z": -1.5431984109,
				"element": "H" 
			},
			{
				"x": 0.3285516738,
				"y": 0.3024737126,
				"z": -2.5065755547,
				"element": "H" 
			},
			{
				"x": 0.9977679832,
				"y": -1.6096162516,
				"z": -0.8752765254,
				"element": "H" 
			},
			{
				"x": 2.2219972617,
				"y": -1.0086610462,
				"z": -1.9981078447,
				"element": "H" 
			}
		],
		 "valence_orbital": [ 
			{
				"type": "occ",
				"energy": -0.34348,
				"method": "rhf"
			},
			{
				"type": "occ",
				"energy": -0.33731,
				"method": "rhf"
			},
			{
				"type": "occ",
				"energy": -0.32237,
				"method": "rhf"
			},
			{
				"type": "occ",
				"energy": -0.28659,
				"method": "rhf"
			},
			{
				"type": "occ",
				"energy": -0.25723,
				"method": "rhf"
			},
			{
				"type": "unocc",
				"energy": 0.01452,
				"method": "rhf"
			},
			{
				"type": "unocc",
				"energy": 0.07332,
				"method": "rhf"
			},
			{
				"type": "unocc",
				"energy": 0.09444,
				"method": "rhf"
			},
			{
				"type": "unocc",
				"energy": 0.1118,
				"method": "rhf"
			},
			{
				"type": "unocc",
				"energy": 0.12397,
				"method": "rhf"
			}
		],
		"cosmo_sigma_profile": { 
			"-0.025": 0.0,
			"-0.024": 0.0,
			"-0.023": 0.0,
			"-0.022": 0.0,
			"-0.021": 0.0,
			"-0.02": 0.0,
			"-0.019": 0.0,
			"-0.018": 0.0,
			"-0.017": 0.0,
			"-0.016": 0.0,
			"-0.015": 0.0,
			"-0.014": 0.0,
			"-0.013": 0.0,
			"-0.012": 0.0,
			"-0.011": 0.0,
			"-0.01": 0.0,
			"-0.009": 0.0,
			"-0.008": 0.43028511715,
			"-0.007": 2.32373394962,
			"-0.006": 6.47258782855,
			"-0.005": 9.62033129069,
			"-0.004": 18.9977355526,
			"-0.003": 26.0724678298,
			"-0.002": 22.8534447526,
			"-0.001": 17.4702237447,
			"0.0": 9.52785633743,
			"0.001": 3.39306005049,
			"0.002": 1.84363744361,
			"0.003": 2.06774391655,
			"0.004": 1.9308972979,
			"0.005": 1.849033624,
			"0.006": 2.17931183695,
			"0.007": 1.64773214213,
			"0.008": 2.40650170091,
			"0.009": 2.33531970303,
			"0.01": 2.92384017203,
			"0.011": 3.72196186494,
			"0.012": 6.29813515358,
			"0.013": 4.98422340171,
			"0.014": 1.29590207351,
			"0.015": 0.000499071512904,
			"0.016": 0.0,
			"0.017": 0.0,
			"0.018": 0.0,
			"0.019": 0.0,
			"0.02": 0.0,
			"0.021": 0.0,
			"0.022": 0.0,
			"0.023": 0.0,
			"0.024": 0.0,
			"0.025": 0.0
		}
	}
}
