{
	 "smiles": "COC(=O)C1=C(OC)C=C(NC(=O)OCC(F)(F)F)C(Cl)=C1", 
	 "Tm": 374.15, 
	 "num_atms": 33, 
	 "gaussian": { 
		 "optdone": 1, 
		 "sigma_profile": "yes", 
		 "theory": "DFT", 
		 "functional": "B3LYP", 
		 "basiset": "6-31G**", 
		 "properties": { 
			 "R2extent": 9299.4881, 
			 "electric_dipole_moment_norm": 4.30888352245, 
			 "electric_quadrupole_moment_norm": 21.3779681198, 
			 "total_energy": -1654.50084417, 
			 "HOMO_LUMO_gap": 0.17646, 
			 "cosmo_polarized_energy": -18.17, 
			 "cosmo_cavitation_energy": 42.34, 
			 "cosmo_dispersion_energy": -28.35, 
			 "cosmo_repulsion_energy": 2.17, 
			 "cosmo_total_nonelectrostatic_energy": 16.16, 
			 "SMD_solvation_energy": 11.79 
		},
		"coords": [
			{
				"x": 3.1231541105,
				"y": 1.8806673654,
				"z": -4.18886958,
				"element": "C" 
			},
			{
				"x": 2.272678886,
				"y": 1.8078501353,
				"z": -3.0330093384,
				"element": "O" 
			},
			{
				"x": 2.6085411806,
				"y": 0.8584508338,
				"z": -2.1429318708,
				"element": "C" 
			},
			{
				"x": 3.5612468318,
				"y": 0.1155480044,
				"z": -2.2977743084,
				"element": "O" 
			},
			{
				"x": 1.7166415454,
				"y": 0.7880949111,
				"z": -0.9415623797,
				"element": "C" 
			},
			{
				"x": 0.5854006135,
				"y": 1.6006677349,
				"z": -0.6747513039,
				"element": "C" 
			},
			{
				"x": 0.2396532131,
				"y": 2.5469734278,
				"z": -1.5766549265,
				"element": "O" 
			},
			{
				"x": -0.90354899,
				"y": 3.3548106101,
				"z": -1.3286826351,
				"element": "C" 
			},
			{
				"x": -0.1386851462,
				"y": 1.3839952071,
				"z": 0.5057675834,
				"element": "C" 
			},
			{
				"x": 0.2291240129,
				"y": 0.4013031065,
				"z": 1.429170911,
				"element": "C" 
			},
			{
				"x": -0.5242321855,
				"y": 0.2782700756,
				"z": 2.6256891562,
				"element": "N" 
			},
			{
				"x": -1.3204769212,
				"y": -0.7713223126,
				"z": 3.0085250924,
				"element": "C" 
			},
			{
				"x": -1.9506745407,
				"y": -0.8011055264,
				"z": 4.0443746026,
				"element": "O" 
			},
			{
				"x": -1.3044571677,
				"y": -1.7585347585,
				"z": 2.0677753316,
				"element": "O" 
			},
			{
				"x": -2.1225621457,
				"y": -2.8892257147,
				"z": 2.340786049,
				"element": "C" 
			},
			{
				"x": -3.3630008073,
				"y": -2.842299631,
				"z": 1.4649819999,
				"element": "C" 
			},
			{
				"x": -4.1444504276,
				"y": -3.9082146577,
				"z": 1.7400926184,
				"element": "F" 
			},
			{
				"x": -3.0549361202,
				"y": -2.881570169,
				"z": 0.1549688431,
				"element": "F" 
			},
			{
				"x": -4.0810312179,
				"y": -1.7248087542,
				"z": 1.6829449407,
				"element": "F" 
			},
			{
				"x": 1.3616949661,
				"y": -0.383991154,
				"z": 1.1687461061,
				"element": "C" 
			},
			{
				"x": 1.9219486061,
				"y": -1.5782680201,
				"z": 2.319169174,
				"element": "Cl" 
			},
			{
				"x": 2.0748328435,
				"y": -0.1897671446,
				"z": -0.0064293038,
				"element": "C" 
			},
			{
				"x": 4.1529487295,
				"y": 2.1013113807,
				"z": -3.8970574829,
				"element": "H" 
			},
			{
				"x": 3.1090369945,
				"y": 0.9361753812,
				"z": -4.7383609273,
				"element": "H" 
			},
			{
				"x": 2.7151004267,
				"y": 2.6865758198,
				"z": -4.7985939811,
				"element": "H" 
			},
			{
				"x": -1.8179166683,
				"y": 2.7523732464,
				"z": -1.2648071262,
				"element": "H" 
			},
			{
				"x": -0.9760597859,
				"y": 4.029560913,
				"z": -2.1821289232,
				"element": "H" 
			},
			{
				"x": -0.790728047,
				"y": 3.9444061496,
				"z": -0.4104251079,
				"element": "H" 
			},
			{
				"x": -1.025251,
				"y": 1.9654905297,
				"z": 0.7231053619,
				"element": "H" 
			},
			{
				"x": -0.5928693947,
				"y": 1.0771375573,
				"z": 3.239758048,
				"element": "H" 
			},
			{
				"x": -2.4272308876,
				"y": -2.901059179,
				"z": 3.388522626,
				"element": "H" 
			},
			{
				"x": -1.5490588052,
				"y": -3.7845560761,
				"z": 2.0936054391,
				"element": "H" 
			},
			{
				"x": 2.9500672984,
				"y": -0.7906392918,
				"z": -0.2220446881,
				"element": "H" 
			}
		],
		 "valence_orbital": [ 
			{
				"type": "occ",
				"energy": -0.2968,
				"method": "rhf"
			},
			{
				"type": "occ",
				"energy": -0.2897,
				"method": "rhf"
			},
			{
				"type": "occ",
				"energy": -0.27874,
				"method": "rhf"
			},
			{
				"type": "occ",
				"energy": -0.26527,
				"method": "rhf"
			},
			{
				"type": "occ",
				"energy": -0.2358,
				"method": "rhf"
			},
			{
				"type": "unocc",
				"energy": -0.05934,
				"method": "rhf"
			},
			{
				"type": "unocc",
				"energy": -0.01511,
				"method": "rhf"
			},
			{
				"type": "unocc",
				"energy": 0.02511,
				"method": "rhf"
			},
			{
				"type": "unocc",
				"energy": 0.03134,
				"method": "rhf"
			},
			{
				"type": "unocc",
				"energy": 0.04795,
				"method": "rhf"
			}
		],
		"cosmo_sigma_profile": { 
			"-0.025": 0.0,
			"-0.024": 0.0,
			"-0.023": 0.0,
			"-0.022": 0.0,
			"-0.021": 0.0,
			"-0.02": 0.0,
			"-0.019": 0.0,
			"-0.018": 0.0,
			"-0.017": 0.0172320001875,
			"-0.016": 0.722902430326,
			"-0.015": 1.29486683219,
			"-0.014": 1.34889068665,
			"-0.013": 0.401339237634,
			"-0.012": 1.40240680616,
			"-0.011": 0.842464740499,
			"-0.01": 1.62586332478,
			"-0.009": 3.94548695137,
			"-0.008": 7.32196088691,
			"-0.007": 9.60415275664,
			"-0.006": 20.1680803462,
			"-0.005": 19.6362329304,
			"-0.004": 22.2237625586,
			"-0.003": 21.7734156984,
			"-0.002": 18.0252300257,
			"-0.001": 18.4627490387,
			"0.0": 26.1636281897,
			"0.001": 27.9436695971,
			"0.002": 39.1597810012,
			"0.003": 33.2196710917,
			"0.004": 16.2949546781,
			"0.005": 9.66415430921,
			"0.006": 4.2328954442,
			"0.007": 4.31237129281,
			"0.008": 3.97194788244,
			"0.009": 5.1128743977,
			"0.01": 4.2051419109,
			"0.011": 7.54974959234,
			"0.012": 8.76679763224,
			"0.013": 0.528782490993,
			"0.014": 0.0,
			"0.015": 0.0,
			"0.016": 0.0,
			"0.017": 0.0,
			"0.018": 0.0,
			"0.019": 0.0,
			"0.02": 0.0,
			"0.021": 0.0,
			"0.022": 0.0,
			"0.023": 0.0,
			"0.024": 0.0,
			"0.025": 0.0
		}
	}
}
