{
	 "smiles": "COC(=O)C1=C(CCC(O)=O)C=CC=C1", 
	 "Tm": 348.15, 
	 "num_atms": 27, 
	 "gaussian": { 
		 "optdone": 1, 
		 "sigma_profile": "yes", 
		 "theory": "DFT", 
		 "functional": "B3LYP", 
		 "basiset": "6-31G**", 
		 "properties": { 
			 "R2extent": 3239.7113, 
			 "electric_dipole_moment_norm": 3.30890443501, 
			 "electric_quadrupole_moment_norm": 14.3760818087, 
			 "total_energy": -727.325566195, 
			 "HOMO_LUMO_gap": 0.20349, 
			 "cosmo_polarized_energy": -14.3, 
			 "cosmo_cavitation_energy": 30.79, 
			 "cosmo_dispersion_energy": -21.66, 
			 "cosmo_repulsion_energy": 1.71, 
			 "cosmo_total_nonelectrostatic_energy": 10.85, 
			 "SMD_solvation_energy": 7.51 
		},
		"coords": [
			{
				"x": -2.2368180819,
				"y": -0.8021516985,
				"z": 2.800774372,
				"element": "C" 
			},
			{
				"x": -2.024329547,
				"y": -0.1202297449,
				"z": 1.5559049698,
				"element": "O" 
			},
			{
				"x": -0.7994162196,
				"y": -0.2966644022,
				"z": 1.0030087945,
				"element": "C" 
			},
			{
				"x": 0.0443387307,
				"y": -1.0000553769,
				"z": 1.5290755124,
				"element": "O" 
			},
			{
				"x": -0.6446283134,
				"y": 0.4599123078,
				"z": -0.2749533353,
				"element": "C" 
			},
			{
				"x": 0.438037526,
				"y": 0.2178462204,
				"z": -1.1534538535,
				"element": "C" 
			},
			{
				"x": 1.5196109568,
				"y": -0.8263328504,
				"z": -0.9400721398,
				"element": "C" 
			},
			{
				"x": 2.8591444084,
				"y": -0.2726279724,
				"z": -0.3825579188,
				"element": "C" 
			},
			{
				"x": 2.8348330725,
				"y": 0.1160259496,
				"z": 1.0808481572,
				"element": "C" 
			},
			{
				"x": 2.1757045879,
				"y": 1.2835096616,
				"z": 1.291059679,
				"element": "O" 
			},
			{
				"x": 3.3604934234,
				"y": -0.5028750384,
				"z": 1.978332712,
				"element": "O" 
			},
			{
				"x": 0.5068129026,
				"y": 0.9804168038,
				"z": -2.3285828312,
				"element": "C" 
			},
			{
				"x": -0.4350783228,
				"y": 1.9591479209,
				"z": -2.6343410713,
				"element": "C" 
			},
			{
				"x": -1.4989722638,
				"y": 2.1914256759,
				"z": -1.7619713697,
				"element": "C" 
			},
			{
				"x": -1.6013971873,
				"y": 1.4391501491,
				"z": -0.5977798704,
				"element": "C" 
			},
			{
				"x": -2.1302960783,
				"y": -1.8820525983,
				"z": 2.6717440456,
				"element": "H" 
			},
			{
				"x": -1.5181568417,
				"y": -0.4680006169,
				"z": 3.5534301674,
				"element": "H" 
			},
			{
				"x": -3.2535688586,
				"y": -0.5506611084,
				"z": 3.1026181926,
				"element": "H" 
			},
			{
				"x": 1.751773494,
				"y": -1.2628429424,
				"z": -1.9183621097,
				"element": "H" 
			},
			{
				"x": 1.1728761756,
				"y": -1.629561384,
				"z": -0.2922594491,
				"element": "H" 
			},
			{
				"x": 3.6265940885,
				"y": -1.0433342352,
				"z": -0.4825430724,
				"element": "H" 
			},
			{
				"x": 3.1646911823,
				"y": 0.6004165101,
				"z": -0.9699698111,
				"element": "H" 
			},
			{
				"x": 2.1876530596,
				"y": 1.4192568715,
				"z": 2.2532980344,
				"element": "H" 
			},
			{
				"x": 1.3235596099,
				"y": 0.7926934376,
				"z": -3.0215913839,
				"element": "H" 
			},
			{
				"x": -0.3427226609,
				"y": 2.5315048958,
				"z": -3.553090268,
				"element": "H" 
			},
			{
				"x": -2.2443656672,
				"y": 2.9476908105,
				"z": -1.9885257865,
				"element": "H" 
			},
			{
				"x": -2.4260731758,
				"y": 1.6049927545,
				"z": 0.0843596335,
				"element": "H" 
			}
		],
		 "valence_orbital": [ 
			{
				"type": "occ",
				"energy": -0.30152,
				"method": "rhf"
			},
			{
				"type": "occ",
				"energy": -0.27272,
				"method": "rhf"
			},
			{
				"type": "occ",
				"energy": -0.26192,
				"method": "rhf"
			},
			{
				"type": "occ",
				"energy": -0.25792,
				"method": "rhf"
			},
			{
				"type": "occ",
				"energy": -0.2493,
				"method": "rhf"
			},
			{
				"type": "unocc",
				"energy": -0.04581,
				"method": "rhf"
			},
			{
				"type": "unocc",
				"energy": -0.01111,
				"method": "rhf"
			},
			{
				"type": "unocc",
				"energy": 0.02239,
				"method": "rhf"
			},
			{
				"type": "unocc",
				"energy": 0.05332,
				"method": "rhf"
			},
			{
				"type": "unocc",
				"energy": 0.08668,
				"method": "rhf"
			}
		],
		"cosmo_sigma_profile": { 
			"-0.025": 0.0,
			"-0.024": 0.0,
			"-0.023": 0.0,
			"-0.022": 0.0,
			"-0.021": 0.0,
			"-0.02": 0.0,
			"-0.019": 0.0,
			"-0.018": 0.272839783337,
			"-0.017": 0.80500497618,
			"-0.016": 0.850962469194,
			"-0.015": 0.940442366615,
			"-0.014": 0.67883502152,
			"-0.013": 0.283205913021,
			"-0.012": 0.471981076076,
			"-0.011": 0.61267889095,
			"-0.01": 0.997157669013,
			"-0.009": 0.651900855443,
			"-0.008": 0.795835022117,
			"-0.007": 1.69072693247,
			"-0.006": 13.0097307958,
			"-0.005": 22.4749697791,
			"-0.004": 25.6012285374,
			"-0.003": 23.1412190349,
			"-0.002": 21.1006366243,
			"-0.001": 17.7942908089,
			"0.0": 14.5865572177,
			"0.001": 11.0732754066,
			"0.002": 11.9141753081,
			"0.003": 14.3745654262,
			"0.004": 14.044223803,
			"0.005": 8.51830846262,
			"0.006": 6.06887878816,
			"0.007": 2.86175472857,
			"0.008": 4.35647825808,
			"0.009": 4.18960951603,
			"0.01": 4.51905104926,
			"0.011": 5.51352033988,
			"0.012": 7.36087853448,
			"0.013": 2.11323195275,
			"0.014": 0.139769913338,
			"0.015": 0.0,
			"0.016": 0.0,
			"0.017": 0.0,
			"0.018": 0.0,
			"0.019": 0.0,
			"0.02": 0.0,
			"0.021": 0.0,
			"0.022": 0.0,
			"0.023": 0.0,
			"0.024": 0.0,
			"0.025": 0.0
		}
	}
}
