{
	 "smiles": "OC(=O)C1=C(NC2=CC=CC=C2)OCC1=O", 
	 "Tm": 418.15, 
	 "num_atms": 25, 
	 "gaussian": { 
		 "optdone": 1, 
		 "sigma_profile": "yes", 
		 "theory": "DFT", 
		 "functional": "B3LYP", 
		 "basiset": "6-31G**", 
		 "properties": { 
			 "R2extent": 3944.6413, 
			 "electric_dipole_moment_norm": 4.49702027236, 
			 "electric_quadrupole_moment_norm": 15.5379043651, 
			 "total_energy": -780.239273336, 
			 "HOMO_LUMO_gap": 0.18606, 
			 "cosmo_polarized_energy": -22.15, 
			 "cosmo_cavitation_energy": 30.02, 
			 "cosmo_dispersion_energy": -21.83, 
			 "cosmo_repulsion_energy": 1.72, 
			 "cosmo_total_nonelectrostatic_energy": 9.92, 
			 "SMD_solvation_energy": 7.1 
		},
		"coords": [
			{
				"x": 1.9692193512,
				"y": 1.5123227438,
				"z": -1.9313285543,
				"element": "O" 
			},
			{
				"x": 0.9829167578,
				"y": 0.610008738,
				"z": -1.7205044288,
				"element": "C" 
			},
			{
				"x": 1.1560129619,
				"y": -0.5866057832,
				"z": -1.8929437921,
				"element": "O" 
			},
			{
				"x": -0.2716954151,
				"y": 1.2301023123,
				"z": -1.3044866302,
				"element": "C" 
			},
			{
				"x": -1.4150947174,
				"y": 0.5511866877,
				"z": -0.8967518791,
				"element": "C" 
			},
			{
				"x": -1.6881805062,
				"y": -0.7243320374,
				"z": -0.5592150724,
				"element": "N" 
			},
			{
				"x": -0.8450655044,
				"y": -1.7478810528,
				"z": -0.041464323,
				"element": "C" 
			},
			{
				"x": 0.2559326661,
				"y": -1.4586064572,
				"z": 0.7695493202,
				"element": "C" 
			},
			{
				"x": 0.9990461343,
				"y": -2.502942601,
				"z": 1.315054906,
				"element": "C" 
			},
			{
				"x": 0.6430145999,
				"y": -3.8313873389,
				"z": 1.0733434692,
				"element": "C" 
			},
			{
				"x": -0.4664012304,
				"y": -4.1130109235,
				"z": 0.2749085059,
				"element": "C" 
			},
			{
				"x": -1.2092129874,
				"y": -3.0752148068,
				"z": -0.2856875836,
				"element": "C" 
			},
			{
				"x": -2.5193532014,
				"y": 1.3313479365,
				"z": -0.8131248172,
				"element": "O" 
			},
			{
				"x": -2.1582591065,
				"y": 2.6770333204,
				"z": -1.1836050926,
				"element": "C" 
			},
			{
				"x": -0.650939363,
				"y": 2.6313529624,
				"z": -1.4821544641,
				"element": "C" 
			},
			{
				"x": -0.005900434,
				"y": 3.605186521,
				"z": -1.8228689003,
				"element": "O" 
			},
			{
				"x": 2.7230176349,
				"y": 0.9910377175,
				"z": -2.2538314519,
				"element": "H" 
			},
			{
				"x": -2.6829075556,
				"y": -0.8945750481,
				"z": -0.4701206591,
				"element": "H" 
			},
			{
				"x": 0.5212617895,
				"y": -0.4280126161,
				"z": 0.9769061511,
				"element": "H" 
			},
			{
				"x": 1.856820073,
				"y": -2.274194288,
				"z": 1.9403848371,
				"element": "H" 
			},
			{
				"x": 1.2247502905,
				"y": -4.6398334681,
				"z": 1.5052739642,
				"element": "H" 
			},
			{
				"x": -0.7534037051,
				"y": -5.1419442642,
				"z": 0.0798532452,
				"element": "H" 
			},
			{
				"x": -2.0634713219,
				"y": -3.2897189053,
				"z": -0.9219052899,
				"element": "H" 
			},
			{
				"x": -2.7328844857,
				"y": 2.976275229,
				"z": -2.0647762192,
				"element": "H" 
			},
			{
				"x": -2.3967227249,
				"y": 3.340805422,
				"z": -0.3483052411,
				"element": "H" 
			}
		],
		 "valence_orbital": [ 
			{
				"type": "occ",
				"energy": -0.26923,
				"method": "rhf"
			},
			{
				"type": "occ",
				"energy": -0.25995,
				"method": "rhf"
			},
			{
				"type": "occ",
				"energy": -0.25328,
				"method": "rhf"
			},
			{
				"type": "occ",
				"energy": -0.23856,
				"method": "rhf"
			},
			{
				"type": "occ",
				"energy": -0.22677,
				"method": "rhf"
			},
			{
				"type": "unocc",
				"energy": -0.04071,
				"method": "rhf"
			},
			{
				"type": "unocc",
				"energy": -0.01069,
				"method": "rhf"
			},
			{
				"type": "unocc",
				"energy": -0.00193,
				"method": "rhf"
			},
			{
				"type": "unocc",
				"energy": 0.00624,
				"method": "rhf"
			},
			{
				"type": "unocc",
				"energy": 0.07302,
				"method": "rhf"
			}
		],
		"cosmo_sigma_profile": { 
			"-0.025": 0.0,
			"-0.024": 0.0,
			"-0.023": 0.0,
			"-0.022": 0.0,
			"-0.021": 0.0,
			"-0.02": 0.0,
			"-0.019": 0.0,
			"-0.018": 0.308909126651,
			"-0.017": 1.00692468701,
			"-0.016": 1.76323651877,
			"-0.015": 1.73556788546,
			"-0.014": 1.82462962348,
			"-0.013": 1.80227351203,
			"-0.012": 1.28690261163,
			"-0.011": 1.93302965329,
			"-0.01": 2.06834416831,
			"-0.009": 3.35740505614,
			"-0.008": 7.02212166111,
			"-0.007": 8.97355455588,
			"-0.006": 14.9589823412,
			"-0.005": 17.4828728,
			"-0.004": 18.7921286631,
			"-0.003": 14.5030788802,
			"-0.002": 13.3396346655,
			"-0.001": 13.434763449,
			"0.0": 10.2024824859,
			"0.001": 11.3020379906,
			"0.002": 11.2381910502,
			"0.003": 11.0845208155,
			"0.004": 10.3819428112,
			"0.005": 10.9505664735,
			"0.006": 6.99825942803,
			"0.007": 4.62857729015,
			"0.008": 3.4998705856,
			"0.009": 4.01033815835,
			"0.01": 4.05117903683,
			"0.011": 5.12332838552,
			"0.012": 9.25420818943,
			"0.013": 7.1608358647,
			"0.014": 2.19869903668,
			"0.015": 1.44653623455,
			"0.016": 0.873089273748,
			"0.017": 0.00186644266434,
			"0.018": 0.0,
			"0.019": 0.0,
			"0.02": 0.0,
			"0.021": 0.0,
			"0.022": 0.0,
			"0.023": 0.0,
			"0.024": 0.0,
			"0.025": 0.0
		}
	}
}
