{
	 "smiles": "O=C(NC1(CCC1)C#N)C1=CC=CC=C1", 
	 "Tm": 400.15, 
	 "num_atms": 27, 
	 "gaussian": { 
		 "optdone": 1, 
		 "sigma_profile": "yes", 
		 "theory": "DFT", 
		 "functional": "B3LYP", 
		 "basiset": "6-31G**", 
		 "properties": { 
			 "R2extent": 3462.8791, 
			 "electric_dipole_moment_norm": 3.93120326999, 
			 "electric_quadrupole_moment_norm": 17.4981032626, 
			 "total_energy": -649.196130659, 
			 "HOMO_LUMO_gap": 0.21006, 
			 "cosmo_polarized_energy": -15.19, 
			 "cosmo_cavitation_energy": 30.78, 
			 "cosmo_dispersion_energy": -21.11, 
			 "cosmo_repulsion_energy": 1.66, 
			 "cosmo_total_nonelectrostatic_energy": 11.33, 
			 "SMD_solvation_energy": 6.55 
		},
		"coords": [
			{
				"x": 1.7737134766,
				"y": -1.2274746327,
				"z": -1.8917678985,
				"element": "O" 
			},
			{
				"x": 0.87328549,
				"y": -1.0226394201,
				"z": -1.0855338178,
				"element": "C" 
			},
			{
				"x": 0.6593097909,
				"y": 0.2737467905,
				"z": -0.6408667267,
				"element": "N" 
			},
			{
				"x": -0.0163969066,
				"y": 0.8119930772,
				"z": 0.5342974497,
				"element": "C" 
			},
			{
				"x": 0.2252487568,
				"y": 0.009740551,
				"z": 1.8633654209,
				"element": "C" 
			},
			{
				"x": 1.4075260125,
				"y": 0.9536167898,
				"z": 2.1931810338,
				"element": "C" 
			},
			{
				"x": 0.8405357232,
				"y": 1.9641188241,
				"z": 1.1681701613,
				"element": "C" 
			},
			{
				"x": -1.4104394097,
				"y": 1.1947157096,
				"z": 0.2414999205,
				"element": "C" 
			},
			{
				"x": -2.5048077351,
				"y": 1.5218950139,
				"z": 0.0286944906,
				"element": "N" 
			},
			{
				"x": 0.0075875992,
				"y": -2.145881811,
				"z": -0.5981270575,
				"element": "C" 
			},
			{
				"x": 0.6249513156,
				"y": -3.3954828668,
				"z": -0.4327375852,
				"element": "C" 
			},
			{
				"x": -0.1205387289,
				"y": -4.5010089866,
				"z": -0.0317007502,
				"element": "C" 
			},
			{
				"x": -1.4970168409,
				"y": -4.377315696,
				"z": 0.1782686216,
				"element": "C" 
			},
			{
				"x": -2.1225455703,
				"y": -3.1451777673,
				"z": -0.0168308327,
				"element": "C" 
			},
			{
				"x": -1.3753197532,
				"y": -2.029883525,
				"z": -0.3999413357,
				"element": "C" 
			},
			{
				"x": 1.2654491328,
				"y": 0.9214575022,
				"z": -1.1298482024,
				"element": "H" 
			},
			{
				"x": -0.6169390865,
				"y": 0.146327931,
				"z": 2.5458651462,
				"element": "H" 
			},
			{
				"x": 0.4226287655,
				"y": -1.0553774472,
				"z": 1.7503373386,
				"element": "H" 
			},
			{
				"x": 2.3669941422,
				"y": 0.5380974718,
				"z": 1.8764032181,
				"element": "H" 
			},
			{
				"x": 1.4945685796,
				"y": 1.296261319,
				"z": 3.2261020566,
				"element": "H" 
			},
			{
				"x": 0.196818351,
				"y": 2.7138034453,
				"z": 1.6337706315,
				"element": "H" 
			},
			{
				"x": 1.5324176714,
				"y": 2.4665204496,
				"z": 0.4856720972,
				"element": "H" 
			},
			{
				"x": 1.6883487323,
				"y": -3.480161004,
				"z": -0.6301900372,
				"element": "H" 
			},
			{
				"x": 0.3679253535,
				"y": -5.4610773397,
				"z": 0.1070465587,
				"element": "H" 
			},
			{
				"x": -2.0806990039,
				"y": -5.2412530992,
				"z": 0.483065666,
				"element": "H" 
			},
			{
				"x": -3.1952410783,
				"y": -3.0491181312,
				"z": 0.1224207263,
				"element": "H" 
			},
			{
				"x": -1.8803647796,
				"y": -1.0860431483,
				"z": -0.5712162938,
				"element": "H" 
			}
		],
		 "valence_orbital": [ 
			{
				"type": "occ",
				"energy": -0.32148,
				"method": "rhf"
			},
			{
				"type": "occ",
				"energy": -0.26992,
				"method": "rhf"
			},
			{
				"type": "occ",
				"energy": -0.26825,
				"method": "rhf"
			},
			{
				"type": "occ",
				"energy": -0.26147,
				"method": "rhf"
			},
			{
				"type": "occ",
				"energy": -0.25018,
				"method": "rhf"
			},
			{
				"type": "unocc",
				"energy": -0.04012,
				"method": "rhf"
			},
			{
				"type": "unocc",
				"energy": -0.0134,
				"method": "rhf"
			},
			{
				"type": "unocc",
				"energy": 0.01632,
				"method": "rhf"
			},
			{
				"type": "unocc",
				"energy": 0.02267,
				"method": "rhf"
			},
			{
				"type": "unocc",
				"energy": 0.04354,
				"method": "rhf"
			}
		],
		"cosmo_sigma_profile": { 
			"-0.025": 0.0,
			"-0.024": 0.0,
			"-0.023": 0.0,
			"-0.022": 0.0,
			"-0.021": 0.0,
			"-0.02": 0.0,
			"-0.019": 0.0,
			"-0.018": 0.0,
			"-0.017": 0.0,
			"-0.016": 0.0,
			"-0.015": 0.0,
			"-0.014": 0.512193792243,
			"-0.013": 1.2413804246,
			"-0.012": 1.38971406488,
			"-0.011": 1.21691459851,
			"-0.01": 1.25353026416,
			"-0.009": 1.61689663391,
			"-0.008": 0.861949599322,
			"-0.007": 3.86870316974,
			"-0.006": 14.2585873963,
			"-0.005": 17.3395475601,
			"-0.004": 27.262298338,
			"-0.003": 25.5118386146,
			"-0.002": 22.8766321145,
			"-0.001": 19.2187978713,
			"0.0": 16.0965795768,
			"0.001": 11.3213327522,
			"0.002": 11.3364150911,
			"0.003": 11.0294924487,
			"0.004": 13.2639593716,
			"0.005": 5.54458754084,
			"0.006": 3.2970356871,
			"0.007": 3.64958529214,
			"0.008": 4.74548188371,
			"0.009": 4.67818995978,
			"0.01": 4.45891149079,
			"0.011": 4.11927122441,
			"0.012": 5.21233364134,
			"0.013": 6.66545301114,
			"0.014": 1.57921558985,
			"0.015": 0.00964326829622,
			"0.016": 0.0,
			"0.017": 0.0,
			"0.018": 0.0,
			"0.019": 0.0,
			"0.02": 0.0,
			"0.021": 0.0,
			"0.022": 0.0,
			"0.023": 0.0,
			"0.024": 0.0,
			"0.025": 0.0
		}
	}
}
