{
	 "smiles": "NC1=C(CC2=CC=CC=C2)C2=CC=CC=C2C(Br)=N1", 
	 "Tm": 429.15, 
	 "num_atms": 32, 
	 "gaussian": { 
		 "optdone": 1, 
		 "sigma_profile": "yes", 
		 "theory": "DFT", 
		 "functional": "B3LYP", 
		 "basiset": "6-31G**", 
		 "properties": { 
			 "R2extent": 7839.3851, 
			 "electric_dipole_moment_norm": 3.16833085867, 
			 "electric_quadrupole_moment_norm": 11.4016804191, 
			 "total_energy": -3298.46647267, 
			 "HOMO_LUMO_gap": 0.14918, 
			 "cosmo_polarized_energy": -11.82, 
			 "cosmo_cavitation_energy": 37.18, 
			 "cosmo_dispersion_energy": -27.15, 
			 "cosmo_repulsion_energy": 2.08, 
			 "cosmo_total_nonelectrostatic_energy": 12.11, 
			 "SMD_solvation_energy": 3.36 
		},
		"coords": [
			{
				"x": 1.189663642,
				"y": 3.0419671642,
				"z": -0.38506022,
				"element": "N" 
			},
			{
				"x": 1.4122740521,
				"y": 1.8555281175,
				"z": 0.2946857432,
				"element": "C" 
			},
			{
				"x": 1.2641285074,
				"y": 0.5918504077,
				"z": -0.2754937542,
				"element": "C" 
			},
			{
				"x": 0.9588961501,
				"y": 0.4167003562,
				"z": -1.7506933914,
				"element": "C" 
			},
			{
				"x": -0.5061754661,
				"y": 0.1807723358,
				"z": -2.1046046074,
				"element": "C" 
			},
			{
				"x": -1.5273978832,
				"y": 0.9455441856,
				"z": -1.5235537835,
				"element": "C" 
			},
			{
				"x": -2.8598564248,
				"y": 0.7393151644,
				"z": -1.8811341141,
				"element": "C" 
			},
			{
				"x": -3.1953037228,
				"y": -0.2353300473,
				"z": -2.8239376653,
				"element": "C" 
			},
			{
				"x": -2.1868108614,
				"y": -1.0017078008,
				"z": -3.4082204727,
				"element": "C" 
			},
			{
				"x": -0.8534498572,
				"y": -0.7928735129,
				"z": -3.0492054036,
				"element": "C" 
			},
			{
				"x": 1.4161503481,
				"y": -0.5369555372,
				"z": 0.583426342,
				"element": "C" 
			},
			{
				"x": 1.2388422623,
				"y": -1.8777425621,
				"z": 0.1341085266,
				"element": "C" 
			},
			{
				"x": 1.4028646539,
				"y": -2.943490441,
				"z": 0.9896329792,
				"element": "C" 
			},
			{
				"x": 1.7526359903,
				"y": -2.740522261,
				"z": 2.3450609176,
				"element": "C" 
			},
			{
				"x": 1.9230881838,
				"y": -1.4614853397,
				"z": 2.8219622043,
				"element": "C" 
			},
			{
				"x": 1.7571284417,
				"y": -0.3441625778,
				"z": 1.9661416513,
				"element": "C" 
			},
			{
				"x": 1.9072118884,
				"y": 1.0119970999,
				"z": 2.369609995,
				"element": "C" 
			},
			{
				"x": 2.3982765945,
				"y": 1.4149213231,
				"z": 4.1977103144,
				"element": "Br" 
			},
			{
				"x": 1.7445643223,
				"y": 2.0436087478,
				"z": 1.6046240306,
				"element": "N" 
			},
			{
				"x": 1.5865205991,
				"y": 3.8494386581,
				"z": 0.0744835832,
				"element": "H" 
			},
			{
				"x": 1.2759721563,
				"y": 3.0396177283,
				"z": -1.3894578766,
				"element": "H" 
			},
			{
				"x": 1.3193516268,
				"y": 1.2936240743,
				"z": -2.3053800568,
				"element": "H" 
			},
			{
				"x": 1.5531963527,
				"y": -0.414409315,
				"z": -2.1453371392,
				"element": "H" 
			},
			{
				"x": -1.2768757469,
				"y": 1.7060552535,
				"z": -0.7896068653,
				"element": "H" 
			},
			{
				"x": -3.6387021766,
				"y": 1.3405286311,
				"z": -1.4202235288,
				"element": "H" 
			},
			{
				"x": -4.2338112132,
				"y": -0.3965095635,
				"z": -3.0984544518,
				"element": "H" 
			},
			{
				"x": -2.4352643085,
				"y": -1.7649409278,
				"z": -4.1405118901,
				"element": "H" 
			},
			{
				"x": -0.0723213771,
				"y": -1.3937738479,
				"z": -3.5101506522,
				"element": "H" 
			},
			{
				"x": 0.9449035996,
				"y": -2.060563739,
				"z": -0.8925869025,
				"element": "H" 
			},
			{
				"x": 1.2556190825,
				"y": -3.9544156992,
				"z": 0.6197933192,
				"element": "H" 
			},
			{
				"x": 1.8795460162,
				"y": -3.5917481426,
				"z": 3.0065433417,
				"element": "H" 
			},
			{
				"x": 2.1846345677,
				"y": -1.2867379325,
				"z": 3.8590298273,
				"element": "H" 
			}
		],
		 "valence_orbital": [ 
			{
				"type": "occ",
				"energy": -0.26833,
				"method": "rhf"
			},
			{
				"type": "occ",
				"energy": -0.2544,
				"method": "rhf"
			},
			{
				"type": "occ",
				"energy": -0.24961,
				"method": "rhf"
			},
			{
				"type": "occ",
				"energy": -0.24247,
				"method": "rhf"
			},
			{
				"type": "occ",
				"energy": -0.20225,
				"method": "rhf"
			},
			{
				"type": "unocc",
				"energy": -0.05307,
				"method": "rhf"
			},
			{
				"type": "unocc",
				"energy": -0.01448,
				"method": "rhf"
			},
			{
				"type": "unocc",
				"energy": -0.00327,
				"method": "rhf"
			},
			{
				"type": "unocc",
				"energy": -0.00106,
				"method": "rhf"
			},
			{
				"type": "unocc",
				"energy": 0.01366,
				"method": "rhf"
			}
		],
		"cosmo_sigma_profile": { 
			"-0.025": 0.0,
			"-0.024": 0.0,
			"-0.023": 0.0,
			"-0.022": 0.0,
			"-0.021": 0.0,
			"-0.02": 0.0,
			"-0.019": 0.0,
			"-0.018": 0.0,
			"-0.017": 0.0,
			"-0.016": 0.0,
			"-0.015": 0.0,
			"-0.014": 0.431399987671,
			"-0.013": 1.40954534867,
			"-0.012": 2.63045743905,
			"-0.011": 2.17280406341,
			"-0.01": 2.00884680329,
			"-0.009": 3.23841183985,
			"-0.008": 2.08184283733,
			"-0.007": 2.21300917353,
			"-0.006": 12.3573719495,
			"-0.005": 19.7875386041,
			"-0.004": 21.7945610784,
			"-0.003": 21.5133586987,
			"-0.002": 19.2624370005,
			"-0.001": 17.2700938654,
			"0.0": 24.1907447809,
			"0.001": 25.5193667568,
			"0.002": 25.1591172467,
			"0.003": 28.4585123754,
			"0.004": 27.6568168741,
			"0.005": 17.8703112221,
			"0.006": 11.8237832311,
			"0.007": 4.18703876199,
			"0.008": 2.44184437158,
			"0.009": 2.29499749833,
			"0.01": 1.6300127584,
			"0.011": 0.916934992119,
			"0.012": 0.860149114055,
			"0.013": 0.139394572051,
			"0.014": 0.0,
			"0.015": 0.0,
			"0.016": 0.0,
			"0.017": 0.0,
			"0.018": 0.0,
			"0.019": 0.0,
			"0.02": 0.0,
			"0.021": 0.0,
			"0.022": 0.0,
			"0.023": 0.0,
			"0.024": 0.0,
			"0.025": 0.0
		}
	}
}
