{
	 "smiles": "CC1=C(C)C(=O)C=CC1=O", 
	 "Tm": 328.15, 
	 "num_atms": 18, 
	 "gaussian": { 
		 "optdone": 1, 
		 "sigma_profile": "yes", 
		 "theory": "DFT", 
		 "functional": "B3LYP", 
		 "basiset": "6-31G**", 
		 "properties": { 
			 "R2extent": 1515.7715, 
			 "electric_dipole_moment_norm": 0.694447615015, 
			 "electric_quadrupole_moment_norm": 13.3759351524, 
			 "total_energy": -460.095254846, 
			 "HOMO_LUMO_gap": 0.1413, 
			 "cosmo_polarized_energy": -8.46, 
			 "cosmo_cavitation_energy": 21.95, 
			 "cosmo_dispersion_energy": -16.06, 
			 "cosmo_repulsion_energy": 1.29, 
			 "cosmo_total_nonelectrostatic_energy": 7.18, 
			 "SMD_solvation_energy": 5.21 
		},
		"coords": [
			{
				"x": -1.695685148,
				"y": 2.3217724637,
				"z": 1.2430188295,
				"element": "C" 
			},
			{
				"x": -0.9318934442,
				"y": 1.1819273055,
				"z": 0.6277660545,
				"element": "C" 
			},
			{
				"x": -0.5254282272,
				"y": 0.0551212223,
				"z": 1.2678374406,
				"element": "C" 
			},
			{
				"x": -0.7600927223,
				"y": -0.2724081635,
				"z": 2.7165652782,
				"element": "C" 
			},
			{
				"x": 0.232510062,
				"y": -1.0001986801,
				"z": 0.5212186897,
				"element": "C" 
			},
			{
				"x": 0.6066786881,
				"y": -2.023270348,
				"z": 1.0861321427,
				"element": "O" 
			},
			{
				"x": 0.5282171434,
				"y": -0.7948526556,
				"z": -0.9176320335,
				"element": "C" 
			},
			{
				"x": 0.1266532135,
				"y": 0.3158809302,
				"z": -1.5490086555,
				"element": "C" 
			},
			{
				"x": -0.6243223262,
				"y": 1.3713571215,
				"z": -0.826580957,
				"element": "C" 
			},
			{
				"x": -0.9856608047,
				"y": 2.3837122453,
				"z": -1.4185055942,
				"element": "O" 
			},
			{
				"x": -1.905822599,
				"y": 2.1685283107,
				"z": 2.3005858034,
				"element": "H" 
			},
			{
				"x": -2.6423630586,
				"y": 2.4706645184,
				"z": 0.713386935,
				"element": "H" 
			},
			{
				"x": -1.1368345646,
				"y": 3.2560295469,
				"z": 1.126448261,
				"element": "H" 
			},
			{
				"x": 0.196039793,
				"y": -0.4197463673,
				"z": 3.2295285087,
				"element": "H" 
			},
			{
				"x": -1.3227562839,
				"y": 0.4997538952,
				"z": 3.2393121843,
				"element": "H" 
			},
			{
				"x": -1.2975411117,
				"y": -1.2220351947,
				"z": 2.8056662001,
				"element": "H" 
			},
			{
				"x": 1.0799088708,
				"y": -1.592684887,
				"z": -1.4059234416,
				"element": "H" 
			},
			{
				"x": 0.3203925196,
				"y": 0.5081487365,
				"z": -2.600115646,
				"element": "H" 
			}
		],
		 "valence_orbital": [ 
			{
				"type": "occ",
				"energy": -0.37165,
				"method": "rhf"
			},
			{
				"type": "occ",
				"energy": -0.29852,
				"method": "rhf"
			},
			{
				"type": "occ",
				"energy": -0.27265,
				"method": "rhf"
			},
			{
				"type": "occ",
				"energy": -0.2724,
				"method": "rhf"
			},
			{
				"type": "occ",
				"energy": -0.26071,
				"method": "rhf"
			},
			{
				"type": "unocc",
				"energy": -0.11941,
				"method": "rhf"
			},
			{
				"type": "unocc",
				"energy": -0.01205,
				"method": "rhf"
			},
			{
				"type": "unocc",
				"energy": 0.01655,
				"method": "rhf"
			},
			{
				"type": "unocc",
				"energy": 0.09405,
				"method": "rhf"
			},
			{
				"type": "unocc",
				"energy": 0.1083,
				"method": "rhf"
			}
		],
		"cosmo_sigma_profile": { 
			"-0.025": 0.0,
			"-0.024": 0.0,
			"-0.023": 0.0,
			"-0.022": 0.0,
			"-0.021": 0.0,
			"-0.02": 0.0,
			"-0.019": 0.0,
			"-0.018": 0.0,
			"-0.017": 0.0,
			"-0.016": 0.0,
			"-0.015": 0.0,
			"-0.014": 0.0,
			"-0.013": 0.0,
			"-0.012": 0.0,
			"-0.011": 0.0,
			"-0.01": 0.0,
			"-0.009": 0.150632685398,
			"-0.008": 2.9069062381,
			"-0.007": 4.83966492423,
			"-0.006": 5.30160339093,
			"-0.005": 9.83770942153,
			"-0.004": 17.7037077417,
			"-0.003": 21.8727451266,
			"-0.002": 20.2359261153,
			"-0.001": 24.0159769683,
			"0.0": 18.1005694792,
			"0.001": 6.57121449064,
			"0.002": 3.45879406679,
			"0.003": 2.98010122274,
			"0.004": 3.25142152606,
			"0.005": 2.86219258144,
			"0.006": 3.18311049653,
			"0.007": 3.03666585442,
			"0.008": 3.29209812071,
			"0.009": 3.99613703262,
			"0.01": 5.55246939947,
			"0.011": 8.03870633851,
			"0.012": 3.57830466898,
			"0.013": 0.139973778843,
			"0.014": 0.0,
			"0.015": 0.0,
			"0.016": 0.0,
			"0.017": 0.0,
			"0.018": 0.0,
			"0.019": 0.0,
			"0.02": 0.0,
			"0.021": 0.0,
			"0.022": 0.0,
			"0.023": 0.0,
			"0.024": 0.0,
			"0.025": 0.0
		}
	}
}
