{
	 "smiles": "CCOC(=O)C(=O)C1=C(OC)C=CC(Br)=C1", 
	 "Tm": 343.15, 
	 "num_atms": 27, 
	 "gaussian": { 
		 "optdone": 1, 
		 "sigma_profile": "yes", 
		 "theory": "DFT", 
		 "functional": "B3LYP", 
		 "basiset": "6-31G**", 
		 "properties": { 
			 "R2extent": 7896.3082, 
			 "electric_dipole_moment_norm": 5.47813078705, 
			 "electric_quadrupole_moment_norm": 13.4734191177, 
			 "total_energy": -3298.0838275, 
			 "HOMO_LUMO_gap": 0.16138, 
			 "cosmo_polarized_energy": -13.57, 
			 "cosmo_cavitation_energy": 34.82, 
			 "cosmo_dispersion_energy": -24.42, 
			 "cosmo_repulsion_energy": 1.95, 
			 "cosmo_total_nonelectrostatic_energy": 12.34, 
			 "SMD_solvation_energy": 7.21 
		},
		"coords": [
			{
				"x": -0.2219709186,
				"y": 4.9253103434,
				"z": 1.279762393,
				"element": "C" 
			},
			{
				"x": -0.769302428,
				"y": 4.0423052874,
				"z": 0.1755921304,
				"element": "C" 
			},
			{
				"x": -1.1370329035,
				"y": 2.7746521843,
				"z": 0.7758013312,
				"element": "O" 
			},
			{
				"x": -1.6295006146,
				"y": 1.8565487216,
				"z": -0.0609067292,
				"element": "C" 
			},
			{
				"x": -1.7889803573,
				"y": 1.9951181541,
				"z": -1.2535546147,
				"element": "O" 
			},
			{
				"x": -2.1245573267,
				"y": 0.6110005608,
				"z": 0.6858487529,
				"element": "C" 
			},
			{
				"x": -3.0548943598,
				"y": 0.7501977837,
				"z": 1.4627593216,
				"element": "O" 
			},
			{
				"x": -1.5821173784,
				"y": -0.7266733686,
				"z": 0.3236389299,
				"element": "C" 
			},
			{
				"x": -0.3113243134,
				"y": -0.9208344665,
				"z": -0.26395825,
				"element": "C" 
			},
			{
				"x": 0.4547922135,
				"y": 0.1852675205,
				"z": -0.4340095702,
				"element": "O" 
			},
			{
				"x": 1.6850156819,
				"y": 0.0737497063,
				"z": -1.1402112044,
				"element": "C" 
			},
			{
				"x": 0.1039687658,
				"y": -2.2164425274,
				"z": -0.5987906378,
				"element": "C" 
			},
			{
				"x": -0.7207155865,
				"y": -3.3083458012,
				"z": -0.3333241557,
				"element": "C" 
			},
			{
				"x": -1.960520275,
				"y": -3.1154729264,
				"z": 0.2758543131,
				"element": "C" 
			},
			{
				"x": -3.0743962369,
				"y": -4.6220533091,
				"z": 0.6466335146,
				"element": "Br" 
			},
			{
				"x": -2.3874212315,
				"y": -1.8375719832,
				"z": 0.607326511,
				"element": "C" 
			},
			{
				"x": 0.6595424947,
				"y": 4.4725259101,
				"z": 1.7425411576,
				"element": "H" 
			},
			{
				"x": 0.0652660589,
				"y": 5.8978767575,
				"z": 0.8680273879,
				"element": "H" 
			},
			{
				"x": -0.9736762899,
				"y": 5.0877920612,
				"z": 2.0570285783,
				"element": "H" 
			},
			{
				"x": -1.6566515933,
				"y": 4.4736605681,
				"z": -0.2975884795,
				"element": "H" 
			},
			{
				"x": -0.031685334,
				"y": 3.8562688935,
				"z": -0.6116048239,
				"element": "H" 
			},
			{
				"x": 2.4014991329,
				"y": -0.5544679022,
				"z": -0.5975049216,
				"element": "H" 
			},
			{
				"x": 2.0784549572,
				"y": 1.0878750262,
				"z": -1.2129468733,
				"element": "H" 
			},
			{
				"x": 1.5310607118,
				"y": -0.3297063815,
				"z": -2.1475847469,
				"element": "H" 
			},
			{
				"x": 1.0707107579,
				"y": -2.3873073143,
				"z": -1.0558826842,
				"element": "H" 
			},
			{
				"x": -0.3932824555,
				"y": -4.3083199533,
				"z": -0.5950810544,
				"element": "H" 
			},
			{
				"x": -3.3478811715,
				"y": -1.664553545,
				"z": 1.0785344243,
				"element": "H" 
			}
		],
		 "valence_orbital": [ 
			{
				"type": "occ",
				"energy": -0.29813,
				"method": "rhf"
			},
			{
				"type": "occ",
				"energy": -0.29017,
				"method": "rhf"
			},
			{
				"type": "occ",
				"energy": -0.27561,
				"method": "rhf"
			},
			{
				"type": "occ",
				"energy": -0.24774,
				"method": "rhf"
			},
			{
				"type": "occ",
				"energy": -0.23387,
				"method": "rhf"
			},
			{
				"type": "unocc",
				"energy": -0.07249,
				"method": "rhf"
			},
			{
				"type": "unocc",
				"energy": -0.01394,
				"method": "rhf"
			},
			{
				"type": "unocc",
				"energy": -0.00655,
				"method": "rhf"
			},
			{
				"type": "unocc",
				"energy": 0.00592,
				"method": "rhf"
			},
			{
				"type": "unocc",
				"energy": 0.04032,
				"method": "rhf"
			}
		],
		"cosmo_sigma_profile": { 
			"-0.025": 0.0,
			"-0.024": 0.0,
			"-0.023": 0.0,
			"-0.022": 0.0,
			"-0.021": 0.0,
			"-0.02": 0.0,
			"-0.019": 0.0,
			"-0.018": 0.0,
			"-0.017": 0.0,
			"-0.016": 0.0,
			"-0.015": 0.0,
			"-0.014": 0.0,
			"-0.013": 0.0,
			"-0.012": 0.0,
			"-0.011": 0.0,
			"-0.01": 0.0,
			"-0.009": 0.222621156696,
			"-0.008": 4.23422124814,
			"-0.007": 7.87054347136,
			"-0.006": 15.930229125,
			"-0.005": 20.0862151228,
			"-0.004": 27.1298692019,
			"-0.003": 22.5834122966,
			"-0.002": 18.7789053927,
			"-0.001": 21.1529468471,
			"0.0": 23.4671011459,
			"0.001": 26.7470903813,
			"0.002": 18.3432828899,
			"0.003": 13.2967443063,
			"0.004": 16.5382383111,
			"0.005": 9.78630139577,
			"0.006": 4.73199943066,
			"0.007": 5.32788197958,
			"0.008": 4.93552292565,
			"0.009": 5.02834625508,
			"0.01": 6.36987678081,
			"0.011": 7.12952716068,
			"0.012": 0.88885654696,
			"0.013": 0.0,
			"0.014": 0.0,
			"0.015": 0.0,
			"0.016": 0.0,
			"0.017": 0.0,
			"0.018": 0.0,
			"0.019": 0.0,
			"0.02": 0.0,
			"0.021": 0.0,
			"0.022": 0.0,
			"0.023": 0.0,
			"0.024": 0.0,
			"0.025": 0.0
		}
	}
}
