{
	 "smiles": "CCC(=O)NC1=C(C=C2C=CC=CC2=C1)C(O)=O", 
	 "Tm": 508.15, 
	 "num_atms": 31, 
	 "gaussian": { 
		 "optdone": 1, 
		 "sigma_profile": "yes", 
		 "theory": "DFT", 
		 "functional": "B3LYP", 
		 "basiset": "6-31G**", 
		 "properties": { 
			 "R2extent": 5423.3512, 
			 "electric_dipole_moment_norm": 5.86400694918, 
			 "electric_quadrupole_moment_norm": 20.2802640094, 
			 "total_energy": -821.791898221, 
			 "HOMO_LUMO_gap": 0.1674, 
			 "cosmo_polarized_energy": -18.5, 
			 "cosmo_cavitation_energy": 34.99, 
			 "cosmo_dispersion_energy": -24.74, 
			 "cosmo_repulsion_energy": 1.9, 
			 "cosmo_total_nonelectrostatic_energy": 12.15, 
			 "SMD_solvation_energy": 7.77 
		},
		"coords": [
			{
				"x": 1.6656115891,
				"y": 3.2586255334,
				"z": -1.225015595,
				"element": "C" 
			},
			{
				"x": 0.914646123,
				"y": 2.2721212134,
				"z": -0.3329903789,
				"element": "C" 
			},
			{
				"x": -0.5842897033,
				"y": 2.3008210274,
				"z": -0.5716172595,
				"element": "C" 
			},
			{
				"x": -1.1382567288,
				"y": 3.0360517035,
				"z": -1.3649363128,
				"element": "O" 
			},
			{
				"x": -1.369902743,
				"y": 1.4546838931,
				"z": 0.2529688791,
				"element": "N" 
			},
			{
				"x": -0.8998627938,
				"y": 0.1829162024,
				"z": 0.7629549248,
				"element": "C" 
			},
			{
				"x": -0.4324836696,
				"y": 0.0599038403,
				"z": 2.1101822663,
				"element": "C" 
			},
			{
				"x": -0.0016978456,
				"y": -1.1788160942,
				"z": 2.5500154589,
				"element": "C" 
			},
			{
				"x": -0.0263617257,
				"y": -2.3260750577,
				"z": 1.7232675586,
				"element": "C" 
			},
			{
				"x": 0.4100088347,
				"y": -3.5995694931,
				"z": 2.1811918003,
				"element": "C" 
			},
			{
				"x": 0.3666379508,
				"y": -4.6942095158,
				"z": 1.3485389693,
				"element": "C" 
			},
			{
				"x": -0.1150186535,
				"y": -4.5658386584,
				"z": 0.0210759492,
				"element": "C" 
			},
			{
				"x": -0.5454647539,
				"y": -3.3468801279,
				"z": -0.4527722864,
				"element": "C" 
			},
			{
				"x": -0.5125821967,
				"y": -2.1983408695,
				"z": 0.382279239,
				"element": "C" 
			},
			{
				"x": -0.9367026208,
				"y": -0.9206481684,
				"z": -0.0633395359,
				"element": "C" 
			},
			{
				"x": -0.3783585073,
				"y": 1.1762454748,
				"z": 3.1310384445,
				"element": "C" 
			},
			{
				"x": -0.9095363359,
				"y": 2.3608220815,
				"z": 2.7808636243,
				"element": "O" 
			},
			{
				"x": 0.1171676747,
				"y": 1.0154838077,
				"z": 4.2249922617,
				"element": "O" 
			},
			{
				"x": 2.7384061082,
				"y": 3.2152488313,
				"z": -1.0177896686,
				"element": "H" 
			},
			{
				"x": 1.5069818894,
				"y": 3.0311792027,
				"z": -2.2822243116,
				"element": "H" 
			},
			{
				"x": 1.3199198971,
				"y": 4.2810077362,
				"z": -1.0548144643,
				"element": "H" 
			},
			{
				"x": 1.085872592,
				"y": 2.4898297595,
				"z": 0.7290495836,
				"element": "H" 
			},
			{
				"x": 1.2736821679,
				"y": 1.2468045384,
				"z": -0.4845949028,
				"element": "H" 
			},
			{
				"x": -2.3238059651,
				"y": 1.4378135244,
				"z": -0.0990735183,
				"element": "H" 
			},
			{
				"x": 0.3550784664,
				"y": -1.2514855759,
				"z": 3.5724771059,
				"element": "H" 
			},
			{
				"x": 0.7772014837,
				"y": -3.691406834,
				"z": 3.1995052716,
				"element": "H" 
			},
			{
				"x": 0.7014717096,
				"y": -5.6636247483,
				"z": 1.7050206175,
				"element": "H" 
			},
			{
				"x": -0.1433077705,
				"y": -5.43905621,
				"z": -0.623975055,
				"element": "H" 
			},
			{
				"x": -0.9142175888,
				"y": -3.2489047913,
				"z": -1.4702466758,
				"element": "H" 
			},
			{
				"x": -1.2967711347,
				"y": -0.8084583778,
				"z": -1.0830820924,
				"element": "H" 
			},
			{
				"x": -1.2829657495,
				"y": 2.2889561522,
				"z": 1.8742501027,
				"element": "H" 
			}
		],
		 "valence_orbital": [ 
			{
				"type": "occ",
				"energy": -0.29536,
				"method": "rhf"
			},
			{
				"type": "occ",
				"energy": -0.27941,
				"method": "rhf"
			},
			{
				"type": "occ",
				"energy": -0.26989,
				"method": "rhf"
			},
			{
				"type": "occ",
				"energy": -0.26193,
				"method": "rhf"
			},
			{
				"type": "occ",
				"energy": -0.23843,
				"method": "rhf"
			},
			{
				"type": "unocc",
				"energy": -0.07103,
				"method": "rhf"
			},
			{
				"type": "unocc",
				"energy": -0.04948,
				"method": "rhf"
			},
			{
				"type": "unocc",
				"energy": -0.0066,
				"method": "rhf"
			},
			{
				"type": "unocc",
				"energy": 0.00542,
				"method": "rhf"
			},
			{
				"type": "unocc",
				"energy": 0.02928,
				"method": "rhf"
			}
		],
		"cosmo_sigma_profile": { 
			"-0.025": 0.0,
			"-0.024": 0.0,
			"-0.023": 0.0,
			"-0.022": 0.0,
			"-0.021": 0.0,
			"-0.02": 0.0,
			"-0.019": 0.0,
			"-0.018": 0.0,
			"-0.017": 0.0,
			"-0.016": 0.0,
			"-0.015": 0.454371856683,
			"-0.014": 0.996718257426,
			"-0.013": 1.24662194182,
			"-0.012": 0.518041808985,
			"-0.011": 1.34572567921,
			"-0.01": 1.82833351883,
			"-0.009": 4.40694919944,
			"-0.008": 4.319152189,
			"-0.007": 10.230960044,
			"-0.006": 16.7336538762,
			"-0.005": 19.3589778671,
			"-0.004": 19.9490785339,
			"-0.003": 21.6246220556,
			"-0.002": 22.258640564,
			"-0.001": 16.0261045132,
			"0.0": 20.0512150554,
			"0.001": 21.620514552,
			"0.002": 22.0301723853,
			"0.003": 13.9606502341,
			"0.004": 11.676003841,
			"0.005": 4.03597649643,
			"0.006": 3.85469947662,
			"0.007": 3.16429195688,
			"0.008": 3.98600945812,
			"0.009": 3.77226927773,
			"0.01": 6.26613752303,
			"0.011": 8.08034278283,
			"0.012": 10.7553931979,
			"0.013": 3.84419572386,
			"0.014": 0.475223404302,
			"0.015": 0.0,
			"0.016": 0.0,
			"0.017": 0.0,
			"0.018": 0.0,
			"0.019": 0.0,
			"0.02": 0.0,
			"0.021": 0.0,
			"0.022": 0.0,
			"0.023": 0.0,
			"0.024": 0.0,
			"0.025": 0.0
		}
	}
}
