{
	 "smiles": "CC1CCCCC1N1C(=O)C=CC1=O", 
	 "Tm": 314.15, 
	 "num_atms": 29, 
	 "gaussian": { 
		 "optdone": 1, 
		 "sigma_profile": "yes", 
		 "theory": "DFT", 
		 "functional": "B3LYP", 
		 "basiset": "6-31G**", 
		 "properties": { 
			 "R2extent": 3121.5616, 
			 "electric_dipole_moment_norm": 0.964195192894, 
			 "electric_quadrupole_moment_norm": 14.0585321915, 
			 "total_energy": -633.42474223, 
			 "HOMO_LUMO_gap": 0.17071, 
			 "cosmo_polarized_energy": -8.68, 
			 "cosmo_cavitation_energy": 30.12, 
			 "cosmo_dispersion_energy": -21.33, 
			 "cosmo_repulsion_energy": 1.66, 
			 "cosmo_total_nonelectrostatic_energy": 10.46, 
			 "SMD_solvation_energy": 6.0 
		},
		"coords": [
			{
				"x": -1.3832021791,
				"y": -0.7701448761,
				"z": -1.4137669612,
				"element": "C" 
			},
			{
				"x": 0.0072354187,
				"y": -0.8739519537,
				"z": -0.7658184308,
				"element": "C" 
			},
			{
				"x": 0.1484229042,
				"y": -2.1208626389,
				"z": 0.1287668839,
				"element": "C" 
			},
			{
				"x": -0.7102628013,
				"y": -2.0558909629,
				"z": 1.408925229,
				"element": "C" 
			},
			{
				"x": -0.7042588355,
				"y": -0.6427255587,
				"z": 2.0496342126,
				"element": "C" 
			},
			{
				"x": 0.4734186404,
				"y": 0.2050772401,
				"z": 1.5496415102,
				"element": "C" 
			},
			{
				"x": 0.352212124,
				"y": 0.4327155786,
				"z": 0.0300088343,
				"element": "C" 
			},
			{
				"x": 1.5441434449,
				"y": 1.1121922517,
				"z": -0.500658745,
				"element": "N" 
			},
			{
				"x": 2.8407064535,
				"y": 0.5950537533,
				"z": -0.5410041442,
				"element": "C" 
			},
			{
				"x": 3.1903206294,
				"y": -0.5073505619,
				"z": -0.1624571027,
				"element": "O" 
			},
			{
				"x": 3.7051205224,
				"y": 1.6674399281,
				"z": -1.1463076381,
				"element": "C" 
			},
			{
				"x": 2.9398051855,
				"y": 2.725305219,
				"z": -1.4276280305,
				"element": "C" 
			},
			{
				"x": 1.526631469,
				"y": 2.4126657476,
				"z": -1.0229744676,
				"element": "C" 
			},
			{
				"x": 0.5492101451,
				"y": 3.1273733226,
				"z": -1.1199032858,
				"element": "O" 
			},
			{
				"x": -1.6083057012,
				"y": -1.6673833702,
				"z": -2.0005152232,
				"element": "H" 
			},
			{
				"x": -1.4420507891,
				"y": 0.0939821799,
				"z": -2.084458759,
				"element": "H" 
			},
			{
				"x": -2.1743285058,
				"y": -0.6578168152,
				"z": -0.663994479,
				"element": "H" 
			},
			{
				"x": 0.7396194644,
				"y": -0.9693802533,
				"z": -1.5750624284,
				"element": "H" 
			},
			{
				"x": -0.1094070607,
				"y": -3.0161148239,
				"z": -0.4496866692,
				"element": "H" 
			},
			{
				"x": 1.2044225137,
				"y": -2.2213140606,
				"z": 0.398850618,
				"element": "H" 
			},
			{
				"x": -0.3276622663,
				"y": -2.7941185338,
				"z": 2.122823852,
				"element": "H" 
			},
			{
				"x": -1.7416607007,
				"y": -2.3548152209,
				"z": 1.1906140802,
				"element": "H" 
			},
			{
				"x": -1.6380211554,
				"y": -0.1169225347,
				"z": 1.8104486282,
				"element": "H" 
			},
			{
				"x": -0.6723602358,
				"y": -0.7161360026,
				"z": 3.1417669178,
				"element": "H" 
			},
			{
				"x": 0.4940276786,
				"y": 1.1770873212,
				"z": 2.0552773489,
				"element": "H" 
			},
			{
				"x": 1.4208820586,
				"y": -0.2954379527,
				"z": 1.7743143687,
				"element": "H" 
			},
			{
				"x": -0.4472577227,
				"y": 1.1612769758,
				"z": -0.137943087,
				"element": "H" 
			},
			{
				"x": 4.7670388861,
				"y": 1.5241411587,
				"z": -1.296855789,
				"element": "H" 
			},
			{
				"x": 3.2102604154,
				"y": 3.6757554435,
				"z": -1.8684372431,
				"element": "H" 
			}
		],
		 "valence_orbital": [ 
			{
				"type": "occ",
				"energy": -0.30637,
				"method": "rhf"
			},
			{
				"type": "occ",
				"energy": -0.29898,
				"method": "rhf"
			},
			{
				"type": "occ",
				"energy": -0.28959,
				"method": "rhf"
			},
			{
				"type": "occ",
				"energy": -0.26897,
				"method": "rhf"
			},
			{
				"type": "occ",
				"energy": -0.26552,
				"method": "rhf"
			},
			{
				"type": "unocc",
				"energy": -0.09481,
				"method": "rhf"
			},
			{
				"type": "unocc",
				"energy": 0.05661,
				"method": "rhf"
			},
			{
				"type": "unocc",
				"energy": 0.06594,
				"method": "rhf"
			},
			{
				"type": "unocc",
				"energy": 0.07431,
				"method": "rhf"
			},
			{
				"type": "unocc",
				"energy": 0.09965,
				"method": "rhf"
			}
		],
		"cosmo_sigma_profile": { 
			"-0.025": 0.0,
			"-0.024": 0.0,
			"-0.023": 0.0,
			"-0.022": 0.0,
			"-0.021": 0.0,
			"-0.02": 0.0,
			"-0.019": 0.0,
			"-0.018": 0.0,
			"-0.017": 0.0,
			"-0.016": 0.0,
			"-0.015": 0.0,
			"-0.014": 0.0,
			"-0.013": 0.0,
			"-0.012": 0.0,
			"-0.011": 0.0,
			"-0.01": 0.85934417749,
			"-0.009": 3.75357555868,
			"-0.008": 2.85297129894,
			"-0.007": 3.90124172155,
			"-0.006": 2.72515914627,
			"-0.005": 5.62640951337,
			"-0.004": 9.63536807132,
			"-0.003": 25.8523472928,
			"-0.002": 37.3913859775,
			"-0.001": 37.0188020889,
			"0.0": 32.6310105071,
			"0.001": 24.3071924793,
			"0.002": 9.02744985739,
			"0.003": 3.13938447835,
			"0.004": 3.87640024166,
			"0.005": 3.72205797577,
			"0.006": 3.08830258328,
			"0.007": 2.88994476795,
			"0.008": 3.41979520543,
			"0.009": 3.98578547891,
			"0.01": 4.68077913112,
			"0.011": 8.05685507975,
			"0.012": 3.35273817509,
			"0.013": 0.0866583669887,
			"0.014": 0.0,
			"0.015": 0.0,
			"0.016": 0.0,
			"0.017": 0.0,
			"0.018": 0.0,
			"0.019": 0.0,
			"0.02": 0.0,
			"0.021": 0.0,
			"0.022": 0.0,
			"0.023": 0.0,
			"0.024": 0.0,
			"0.025": 0.0
		}
	}
}
