{
	 "smiles": "CC(C)CCNS(=O)(=O)C1=CC=C(N)C=C1", 
	 "Tm": 393.15, 
	 "num_atms": 34, 
	 "gaussian": { 
		 "optdone": 1, 
		 "sigma_profile": "yes", 
		 "theory": "DFT", 
		 "functional": "B3LYP", 
		 "basiset": "6-31G**", 
		 "properties": { 
			 "R2extent": 6024.5942, 
			 "electric_dipole_moment_norm": 6.33673695051, 
			 "electric_quadrupole_moment_norm": 26.951201056, 
			 "total_energy": -1088.10857438, 
			 "HOMO_LUMO_gap": 0.20068, 
			 "cosmo_polarized_energy": -19.39, 
			 "cosmo_cavitation_energy": 37.76, 
			 "cosmo_dispersion_energy": -26.94, 
			 "cosmo_repulsion_energy": 2.1, 
			 "cosmo_total_nonelectrostatic_energy": 12.92, 
			 "SMD_solvation_energy": 4.98 
		},
		"coords": [
			{
				"x": 4.5455498016,
				"y": -0.5575083042,
				"z": 1.8541010225,
				"element": "C" 
			},
			{
				"x": 3.0261574738,
				"y": -0.7832412372,
				"z": 1.856699604,
				"element": "C" 
			},
			{
				"x": 2.557145845,
				"y": -1.2748256055,
				"z": 3.2356864026,
				"element": "C" 
			},
			{
				"x": 2.2974612184,
				"y": 0.4958635891,
				"z": 1.3985242251,
				"element": "C" 
			},
			{
				"x": 0.7892668079,
				"y": 0.3211184925,
				"z": 1.1754915371,
				"element": "C" 
			},
			{
				"x": 0.091746924,
				"y": 1.5301131349,
				"z": 0.7042722703,
				"element": "N" 
			},
			{
				"x": 0.1349643426,
				"y": 1.9215788881,
				"z": -0.9402975911,
				"element": "S" 
			},
			{
				"x": 1.349777787,
				"y": 1.4001876039,
				"z": -1.5862616108,
				"element": "O" 
			},
			{
				"x": -0.1726573979,
				"y": 3.3566423924,
				"z": -0.9703706812,
				"element": "O" 
			},
			{
				"x": -1.237183652,
				"y": 0.9912148689,
				"z": -1.5933620569,
				"element": "C" 
			},
			{
				"x": -2.5408516795,
				"y": 1.285386436,
				"z": -1.1770915993,
				"element": "C" 
			},
			{
				"x": -3.6108920147,
				"y": 0.5856353015,
				"z": -1.7129857032,
				"element": "C" 
			},
			{
				"x": -3.4002447662,
				"y": -0.4188938035,
				"z": -2.6815770965,
				"element": "C" 
			},
			{
				"x": -4.4745137026,
				"y": -1.0805027448,
				"z": -3.2514433594,
				"element": "N" 
			},
			{
				"x": -2.0832507053,
				"y": -0.6968327973,
				"z": -3.0935999395,
				"element": "C" 
			},
			{
				"x": -1.0106311192,
				"y": 0.0052946262,
				"z": -2.5561280016,
				"element": "C" 
			},
			{
				"x": 5.0822737699,
				"y": -1.4696009053,
				"z": 2.1369490763,
				"element": "H" 
			},
			{
				"x": 4.8255278167,
				"y": 0.2266036305,
				"z": 2.5683330066,
				"element": "H" 
			},
			{
				"x": 4.9012697382,
				"y": -0.2492519709,
				"z": 0.8654539915,
				"element": "H" 
			},
			{
				"x": 2.8046615447,
				"y": -1.5722217948,
				"z": 1.121814545,
				"element": "H" 
			},
			{
				"x": 1.4916260032,
				"y": -1.5254532854,
				"z": 3.2504020565,
				"element": "H" 
			},
			{
				"x": 2.7304989098,
				"y": -0.5085346507,
				"z": 4.0016094494,
				"element": "H" 
			},
			{
				"x": 3.1071288063,
				"y": -2.1727550574,
				"z": 3.5374855601,
				"element": "H" 
			},
			{
				"x": 2.4588815036,
				"y": 1.2879931343,
				"z": 2.1458565236,
				"element": "H" 
			},
			{
				"x": 2.7376878691,
				"y": 0.848852434,
				"z": 0.4605430095,
				"element": "H" 
			},
			{
				"x": 0.2864856283,
				"y": 0.0140974752,
				"z": 2.0989086747,
				"element": "H" 
			},
			{
				"x": 0.6024162432,
				"y": -0.4707226357,
				"z": 0.4420191569,
				"element": "H" 
			},
			{
				"x": 0.3201652463,
				"y": 2.3766367278,
				"z": 1.2207123506,
				"element": "H" 
			},
			{
				"x": -2.7112278602,
				"y": 2.058284031,
				"z": -0.4352086526,
				"element": "H" 
			},
			{
				"x": -4.6236861362,
				"y": 0.8155677721,
				"z": -1.3926440796,
				"element": "H" 
			},
			{
				"x": -4.2801371718,
				"y": -1.9625084883,
				"z": -3.7017672268,
				"element": "H" 
			},
			{
				"x": -5.3412705121,
				"y": -1.0735240931,
				"z": -2.7345869205,
				"element": "H" 
			},
			{
				"x": -1.9068781421,
				"y": -1.4619470934,
				"z": -3.8450438072,
				"element": "H" 
			},
			{
				"x": 0.0046315804,
				"y": -0.2000460708,
				"z": -2.8768941363,
				"element": "H" 
			}
		],
		 "valence_orbital": [ 
			{
				"type": "occ",
				"energy": -0.29544,
				"method": "rhf"
			},
			{
				"type": "occ",
				"energy": -0.28631,
				"method": "rhf"
			},
			{
				"type": "occ",
				"energy": -0.26367,
				"method": "rhf"
			},
			{
				"type": "occ",
				"energy": -0.25578,
				"method": "rhf"
			},
			{
				"type": "occ",
				"energy": -0.21801,
				"method": "rhf"
			},
			{
				"type": "unocc",
				"energy": -0.01733,
				"method": "rhf"
			},
			{
				"type": "unocc",
				"energy": -0.01115,
				"method": "rhf"
			},
			{
				"type": "unocc",
				"energy": 0.06184,
				"method": "rhf"
			},
			{
				"type": "unocc",
				"energy": 0.07651,
				"method": "rhf"
			},
			{
				"type": "unocc",
				"energy": 0.08088,
				"method": "rhf"
			}
		],
		"cosmo_sigma_profile": { 
			"-0.025": 0.0,
			"-0.024": 0.0,
			"-0.023": 0.0,
			"-0.022": 0.0,
			"-0.021": 0.0,
			"-0.02": 0.0,
			"-0.019": 0.0,
			"-0.018": 0.0,
			"-0.017": 0.0,
			"-0.016": 0.0,
			"-0.015": 0.0,
			"-0.014": 0.35952402173,
			"-0.013": 3.1580394527,
			"-0.012": 4.58855647679,
			"-0.011": 3.57708579604,
			"-0.01": 4.38394858353,
			"-0.009": 4.38133855657,
			"-0.008": 4.61338753863,
			"-0.007": 6.67760720679,
			"-0.006": 7.45394885214,
			"-0.005": 10.6319316625,
			"-0.004": 14.9284223617,
			"-0.003": 18.6023082891,
			"-0.002": 31.0754093741,
			"-0.001": 28.8101240448,
			"0.0": 26.6029072692,
			"0.001": 27.0257745691,
			"0.002": 19.1572001531,
			"0.003": 13.0781153287,
			"0.004": 17.3338329825,
			"0.005": 7.22258466293,
			"0.006": 4.90835993007,
			"0.007": 5.08143009401,
			"0.008": 4.05698583594,
			"0.009": 4.12961797162,
			"0.01": 6.29226548818,
			"0.011": 8.37011648802,
			"0.012": 7.90491945749,
			"0.013": 1.14621082701,
			"0.014": 0.0,
			"0.015": 0.0,
			"0.016": 0.0,
			"0.017": 0.0,
			"0.018": 0.0,
			"0.019": 0.0,
			"0.02": 0.0,
			"0.021": 0.0,
			"0.022": 0.0,
			"0.023": 0.0,
			"0.024": 0.0,
			"0.025": 0.0
		}
	}
}
