{
	 "smiles": "C1CC[C@H]2CCCC[C@H]2C1", 
	 "Tm": 230.15, 
	 "num_atms": 28, 
	 "gaussian": { 
		 "optdone": 1, 
		 "sigma_profile": "yes", 
		 "theory": "DFT", 
		 "functional": "B3LYP", 
		 "basiset": "6-31G**", 
		 "properties": { 
			 "R2extent": 1795.1451, 
			 "electric_dipole_moment_norm": 0.0572686650796, 
			 "electric_quadrupole_moment_norm": 0.487026272392, 
			 "total_energy": -391.933030074, 
			 "HOMO_LUMO_gap": 0.34739, 
			 "cosmo_polarized_energy": -0.52, 
			 "cosmo_cavitation_energy": 25.39, 
			 "cosmo_dispersion_energy": -19.38, 
			 "cosmo_repulsion_energy": 1.55, 
			 "cosmo_total_nonelectrostatic_energy": 7.56, 
			 "SMD_solvation_energy": 2.83 
		},
		"coords": [
			{
				"x": 1.5442808708,
				"y": 2.5566791041,
				"z": -0.2646897771,
				"element": "C" 
			},
			{
				"x": 0.2431509292,
				"y": 2.7299421583,
				"z": -1.0593576932,
				"element": "C" 
			},
			{
				"x": -0.7187868261,
				"y": 1.5623145421,
				"z": -0.7981790765,
				"element": "C" 
			},
			{
				"x": -0.992586058,
				"y": 1.3321730839,
				"z": 0.7058858655,
				"element": "C" 
			},
			{
				"x": -1.8047369184,
				"y": 0.0516066313,
				"z": 0.9676457096,
				"element": "C" 
			},
			{
				"x": -1.0428103743,
				"y": -1.2495148678,
				"z": 0.6001948609,
				"element": "C" 
			},
			{
				"x": 0.4948706438,
				"y": -1.0920694368,
				"z": 0.6291053181,
				"element": "C" 
			},
			{
				"x": 0.9719226372,
				"y": -0.0765620533,
				"z": 1.6783086701,
				"element": "C" 
			},
			{
				"x": 0.2790084717,
				"y": 1.3231326264,
				"z": 1.6054511867,
				"element": "C" 
			},
			{
				"x": 1.2425709519,
				"y": 2.4714057533,
				"z": 1.2371595046,
				"element": "C" 
			},
			{
				"x": 2.2283313313,
				"y": 3.3908714263,
				"z": -0.4626552936,
				"element": "H" 
			},
			{
				"x": 2.0614424473,
				"y": 1.6457770203,
				"z": -0.598821282,
				"element": "H" 
			},
			{
				"x": 0.4513429114,
				"y": 2.8119400611,
				"z": -2.1330998944,
				"element": "H" 
			},
			{
				"x": -0.233018352,
				"y": 3.675258147,
				"z": -0.7609368182,
				"element": "H" 
			},
			{
				"x": -1.6771015905,
				"y": 1.7412656525,
				"z": -1.3035052081,
				"element": "H" 
			},
			{
				"x": -0.3021167781,
				"y": 0.6590006222,
				"z": -1.2575291434,
				"element": "H" 
			},
			{
				"x": -1.5987936023,
				"y": 2.1876825873,
				"z": 1.0393584551,
				"element": "H" 
			},
			{
				"x": -2.0615060602,
				"y": 0.0315223559,
				"z": 2.0350004127,
				"element": "H" 
			},
			{
				"x": -2.7590283729,
				"y": 0.0909168766,
				"z": 0.4281970789,
				"element": "H" 
			},
			{
				"x": -1.3454411886,
				"y": -1.5965026163,
				"z": -0.3944628933,
				"element": "H" 
			},
			{
				"x": -1.3445039118,
				"y": -2.0411674161,
				"z": 1.2962676607,
				"element": "H" 
			},
			{
				"x": 0.8549929416,
				"y": -0.7835677816,
				"z": -0.3583133613,
				"element": "H" 
			},
			{
				"x": 0.9628719805,
				"y": -2.0647292488,
				"z": 0.8223154243,
				"element": "H" 
			},
			{
				"x": 2.0596922445,
				"y": 0.0406289804,
				"z": 1.597044439,
				"element": "H" 
			},
			{
				"x": 0.7945299031,
				"y": -0.5026055113,
				"z": 2.674155718,
				"element": "H" 
			},
			{
				"x": -0.0812219793,
				"y": 1.5375466857,
				"z": 2.6204848449,
				"element": "H" 
			},
			{
				"x": 0.7894776841,
				"y": 3.4239657389,
				"z": 1.5480561247,
				"element": "H" 
			},
			{
				"x": 2.170366064,
				"y": 2.3706888782,
				"z": 1.8146191673,
				"element": "H" 
			}
		],
		 "valence_orbital": [ 
			{
				"type": "occ",
				"energy": -0.31749,
				"method": "rhf"
			},
			{
				"type": "occ",
				"energy": -0.3115,
				"method": "rhf"
			},
			{
				"type": "occ",
				"energy": -0.28139,
				"method": "rhf"
			},
			{
				"type": "occ",
				"energy": -0.27626,
				"method": "rhf"
			},
			{
				"type": "occ",
				"energy": -0.27598,
				"method": "rhf"
			},
			{
				"type": "unocc",
				"energy": 0.07141,
				"method": "rhf"
			},
			{
				"type": "unocc",
				"energy": 0.09053,
				"method": "rhf"
			},
			{
				"type": "unocc",
				"energy": 0.108,
				"method": "rhf"
			},
			{
				"type": "unocc",
				"energy": 0.12153,
				"method": "rhf"
			},
			{
				"type": "unocc",
				"energy": 0.13655,
				"method": "rhf"
			}
		],
		"cosmo_sigma_profile": { 
			"-0.025": 0.0,
			"-0.024": 0.0,
			"-0.023": 0.0,
			"-0.022": 0.0,
			"-0.021": 0.0,
			"-0.02": 0.0,
			"-0.019": 0.0,
			"-0.018": 0.0,
			"-0.017": 0.0,
			"-0.016": 0.0,
			"-0.015": 0.0,
			"-0.014": 0.0,
			"-0.013": 0.0,
			"-0.012": 0.0,
			"-0.011": 0.0,
			"-0.01": 0.0,
			"-0.009": 0.0,
			"-0.008": 0.0,
			"-0.007": 0.0,
			"-0.006": 0.0,
			"-0.005": 0.0,
			"-0.004": 0.0,
			"-0.003": 0.74943775381,
			"-0.002": 19.5543811321,
			"-0.001": 47.9509946473,
			"0.0": 58.1272654262,
			"0.001": 43.0350159006,
			"0.002": 23.7395516943,
			"0.003": 0.136293070762,
			"0.004": 0.0,
			"0.005": 0.0,
			"0.006": 0.0,
			"0.007": 0.0,
			"0.008": 0.0,
			"0.009": 0.0,
			"0.01": 0.0,
			"0.011": 0.0,
			"0.012": 0.0,
			"0.013": 0.0,
			"0.014": 0.0,
			"0.015": 0.0,
			"0.016": 0.0,
			"0.017": 0.0,
			"0.018": 0.0,
			"0.019": 0.0,
			"0.02": 0.0,
			"0.021": 0.0,
			"0.022": 0.0,
			"0.023": 0.0,
			"0.024": 0.0,
			"0.025": 0.0
		}
	}
}
