{
	 "smiles": "CC1=NN(C(=O)C1C(=O)C1=CC=CC=C1)C1=CC=CC=C1", 
	 "Tm": 364.15, 
	 "num_atms": 35, 
	 "gaussian": { 
		 "optdone": 1, 
		 "sigma_profile": "yes", 
		 "theory": "DFT", 
		 "functional": "B3LYP", 
		 "basiset": "6-31G**", 
		 "properties": { 
			 "R2extent": 7564.3537, 
			 "electric_dipole_moment_norm": 3.10832745218, 
			 "electric_quadrupole_moment_norm": 14.4827048699, 
			 "total_energy": -916.183932041, 
			 "HOMO_LUMO_gap": 0.1443, 
			 "cosmo_polarized_energy": -13.08, 
			 "cosmo_cavitation_energy": 39.17, 
			 "cosmo_dispersion_energy": -28.2, 
			 "cosmo_repulsion_energy": 2.13, 
			 "cosmo_total_nonelectrostatic_energy": 13.09, 
			 "SMD_solvation_energy": 6.94 
		},
		"coords": [
			{
				"x": 0.4935711727,
				"y": 1.4252950374,
				"z": 3.0382012913,
				"element": "C" 
			},
			{
				"x": 0.4270943753,
				"y": 0.8937291032,
				"z": 1.6469236541,
				"element": "C" 
			},
			{
				"x": 0.6907160562,
				"y": 1.6306050292,
				"z": 0.6273716942,
				"element": "N" 
			},
			{
				"x": 0.5367058709,
				"y": 0.8641765,
				"z": -0.5377172242,
				"element": "N" 
			},
			{
				"x": 0.1782722208,
				"y": -0.4461331442,
				"z": -0.2719221402,
				"element": "C" 
			},
			{
				"x": 0.0097416338,
				"y": -1.3536267022,
				"z": -1.0696955264,
				"element": "O" 
			},
			{
				"x": 0.0614336444,
				"y": -0.5169077843,
				"z": 1.2652354579,
				"element": "C" 
			},
			{
				"x": -1.340090821,
				"y": -0.9500770031,
				"z": 1.754487255,
				"element": "C" 
			},
			{
				"x": -2.1186904854,
				"y": -0.0999306147,
				"z": 2.1567512584,
				"element": "O" 
			},
			{
				"x": -1.6886682477,
				"y": -2.3985893662,
				"z": 1.759552678,
				"element": "C" 
			},
			{
				"x": -2.8764705018,
				"y": -2.7749733817,
				"z": 2.4117269403,
				"element": "C" 
			},
			{
				"x": -3.2526008775,
				"y": -4.111973731,
				"z": 2.4698766317,
				"element": "C" 
			},
			{
				"x": -2.4521584779,
				"y": -5.0888120114,
				"z": 1.8679999684,
				"element": "C" 
			},
			{
				"x": -1.2795587949,
				"y": -4.722228861,
				"z": 1.2055336773,
				"element": "C" 
			},
			{
				"x": -0.8932564546,
				"y": -3.3831335388,
				"z": 1.1520624268,
				"element": "C" 
			},
			{
				"x": 0.7830594455,
				"y": 1.4812033862,
				"z": -1.7938990855,
				"element": "C" 
			},
			{
				"x": 1.171997737,
				"y": 2.828828865,
				"z": -1.8249784174,
				"element": "C" 
			},
			{
				"x": 1.4148251996,
				"y": 3.4488379383,
				"z": -3.0485067363,
				"element": "C" 
			},
			{
				"x": 1.2758450053,
				"y": 2.7448340895,
				"z": -4.245699895,
				"element": "C" 
			},
			{
				"x": 0.888028367,
				"y": 1.4054116355,
				"z": -4.2049679248,
				"element": "C" 
			},
			{
				"x": 0.6393890188,
				"y": 0.7639280921,
				"z": -2.9918332302,
				"element": "C" 
			},
			{
				"x": 1.1796174046,
				"y": 0.8315004315,
				"z": 3.6540113058,
				"element": "H" 
			},
			{
				"x": -0.4972205295,
				"y": 1.3745939269,
				"z": 3.5005791827,
				"element": "H" 
			},
			{
				"x": 0.8344075184,
				"y": 2.4622716635,
				"z": 3.024526166,
				"element": "H" 
			},
			{
				"x": 0.8058464683,
				"y": -1.2346879815,
				"z": 1.6310248125,
				"element": "H" 
			},
			{
				"x": -3.4827333961,
				"y": -1.9989675787,
				"z": 2.8665027884,
				"element": "H" 
			},
			{
				"x": -4.1673277614,
				"y": -4.3965224679,
				"z": 2.9813892579,
				"element": "H" 
			},
			{
				"x": -2.7461106094,
				"y": -6.1337279783,
				"z": 1.9119257701,
				"element": "H" 
			},
			{
				"x": -0.6665275734,
				"y": -5.4783056667,
				"z": 0.7244506854,
				"element": "H" 
			},
			{
				"x": -0.0059576799,
				"y": -3.1052482898,
				"z": 0.5953703466,
				"element": "H" 
			},
			{
				"x": 1.277056824,
				"y": 3.372314218,
				"z": -0.8954534983,
				"element": "H" 
			},
			{
				"x": 1.7147709142,
				"y": 4.4928693443,
				"z": -3.0606583982,
				"element": "H" 
			},
			{
				"x": 1.466446947,
				"y": 3.233633761,
				"z": -5.196349063,
				"element": "H" 
			},
			{
				"x": 0.7742349596,
				"y": 0.8432567707,
				"z": -5.1275359016,
				"element": "H" 
			},
			{
				"x": 0.3398114272,
				"y": -0.2740436905,
				"z": -2.9656862076,
				"element": "H" 
			}
		],
		 "valence_orbital": [ 
			{
				"type": "occ",
				"energy": -0.26712,
				"method": "rhf"
			},
			{
				"type": "occ",
				"energy": -0.26327,
				"method": "rhf"
			},
			{
				"type": "occ",
				"energy": -0.26049,
				"method": "rhf"
			},
			{
				"type": "occ",
				"energy": -0.24638,
				"method": "rhf"
			},
			{
				"type": "occ",
				"energy": -0.21415,
				"method": "rhf"
			},
			{
				"type": "unocc",
				"energy": -0.06985,
				"method": "rhf"
			},
			{
				"type": "unocc",
				"energy": -0.03672,
				"method": "rhf"
			},
			{
				"type": "unocc",
				"energy": -0.01299,
				"method": "rhf"
			},
			{
				"type": "unocc",
				"energy": -0.00943,
				"method": "rhf"
			},
			{
				"type": "unocc",
				"energy": 0.00488,
				"method": "rhf"
			}
		],
		"cosmo_sigma_profile": { 
			"-0.025": 0.0,
			"-0.024": 0.0,
			"-0.023": 0.0,
			"-0.022": 0.0,
			"-0.021": 0.0,
			"-0.02": 0.0,
			"-0.019": 0.0,
			"-0.018": 0.0,
			"-0.017": 0.0,
			"-0.016": 0.0,
			"-0.015": 0.0,
			"-0.014": 0.0,
			"-0.013": 0.0,
			"-0.012": 0.0,
			"-0.011": 0.0633322784284,
			"-0.01": 2.75651578855,
			"-0.009": 3.86262742353,
			"-0.008": 3.04142637816,
			"-0.007": 5.55660478796,
			"-0.006": 16.1384414311,
			"-0.005": 25.4160960839,
			"-0.004": 26.4651655035,
			"-0.003": 23.3674364929,
			"-0.002": 22.8385020838,
			"-0.001": 21.3916773804,
			"0.0": 19.275452941,
			"0.001": 19.9672516304,
			"0.002": 25.4945490592,
			"0.003": 26.8525611414,
			"0.004": 24.0100561964,
			"0.005": 15.7702080523,
			"0.006": 7.32955262823,
			"0.007": 5.88026761734,
			"0.008": 5.09771730433,
			"0.009": 4.47337204702,
			"0.01": 5.00773203412,
			"0.011": 4.59602517744,
			"0.012": 0.069231496728,
			"0.013": 0.0,
			"0.014": 0.0,
			"0.015": 0.0,
			"0.016": 0.0,
			"0.017": 0.0,
			"0.018": 0.0,
			"0.019": 0.0,
			"0.02": 0.0,
			"0.021": 0.0,
			"0.022": 0.0,
			"0.023": 0.0,
			"0.024": 0.0,
			"0.025": 0.0
		}
	}
}
