{
	 "smiles": "NC(=O)OC1=CC=C(CC2=CC=CC=C2)C=C1", 
	 "Tm": 421.15, 
	 "num_atms": 30, 
	 "gaussian": { 
		 "optdone": 1, 
		 "sigma_profile": "yes", 
		 "theory": "DFT", 
		 "functional": "B3LYP", 
		 "basiset": "6-31G**", 
		 "properties": { 
			 "R2extent": 6061.8371, 
			 "electric_dipole_moment_norm": 2.40359891413, 
			 "electric_quadrupole_moment_norm": 18.0430204744, 
			 "total_energy": -746.550886456, 
			 "HOMO_LUMO_gap": 0.22114, 
			 "cosmo_polarized_energy": -13.78, 
			 "cosmo_cavitation_energy": 34.87, 
			 "cosmo_dispersion_energy": -24.86, 
			 "cosmo_repulsion_energy": 1.96, 
			 "cosmo_total_nonelectrostatic_energy": 11.98, 
			 "SMD_solvation_energy": 7.03 
		},
		"coords": [
			{
				"x": 5.6882846205,
				"y": -1.1151366316,
				"z": 1.1305271364,
				"element": "N" 
			},
			{
				"x": 4.4672220702,
				"y": -1.198397274,
				"z": 0.5271291557,
				"element": "C" 
			},
			{
				"x": 4.0169875723,
				"y": -2.1810790545,
				"z": -0.019471613,
				"element": "O" 
			},
			{
				"x": 3.8501707276,
				"y": 0.0267181146,
				"z": 0.6226679156,
				"element": "O" 
			},
			{
				"x": 2.6001913114,
				"y": 0.242651076,
				"z": 0.0464479137,
				"element": "C" 
			},
			{
				"x": 2.245450772,
				"y": -0.2220079088,
				"z": -1.2182123081,
				"element": "C" 
			},
			{
				"x": 0.991338332,
				"y": 0.1174562238,
				"z": -1.7308506275,
				"element": "C" 
			},
			{
				"x": 0.0925218481,
				"y": 0.9153004483,
				"z": -1.0147059723,
				"element": "C" 
			},
			{
				"x": -1.2575084854,
				"y": 1.2959826901,
				"z": -1.600050754,
				"element": "C" 
			},
			{
				"x": -2.4510069402,
				"y": 0.938536004,
				"z": -0.7284932119,
				"element": "C" 
			},
			{
				"x": -2.6587657889,
				"y": -0.3832560277,
				"z": -0.3067039494,
				"element": "C" 
			},
			{
				"x": -3.7642471541,
				"y": -0.7180220017,
				"z": 0.4732825434,
				"element": "C" 
			},
			{
				"x": -4.6832426021,
				"y": 0.2653650345,
				"z": 0.8504673965,
				"element": "C" 
			},
			{
				"x": -4.4858091651,
				"y": 1.5834935281,
				"z": 0.4406939484,
				"element": "C" 
			},
			{
				"x": -3.3769083808,
				"y": 1.9145731822,
				"z": -0.342635444,
				"element": "C" 
			},
			{
				"x": 0.4809013589,
				"y": 1.3712469377,
				"z": 0.2533993006,
				"element": "C" 
			},
			{
				"x": 1.7236099792,
				"y": 1.0391585468,
				"z": 0.7845438486,
				"element": "C" 
			},
			{
				"x": 6.1789926569,
				"y": -1.9814605752,
				"z": 1.278364454,
				"element": "H" 
			},
			{
				"x": 5.903272113,
				"y": -0.3241520948,
				"z": 1.7158437066,
				"element": "H" 
			},
			{
				"x": 2.9233302076,
				"y": -0.8494816945,
				"z": -1.7809911855,
				"element": "H" 
			},
			{
				"x": 0.7126722008,
				"y": -0.2476313422,
				"z": -2.7162785878,
				"element": "H" 
			},
			{
				"x": -1.3639201754,
				"y": 0.8100301625,
				"z": -2.5780537894,
				"element": "H" 
			},
			{
				"x": -1.2782465697,
				"y": 2.3753743449,
				"z": -1.7971377965,
				"element": "H" 
			},
			{
				"x": -1.9427706384,
				"y": -1.1512407847,
				"z": -0.5878293007,
				"element": "H" 
			},
			{
				"x": -3.9090897398,
				"y": -1.7475463273,
				"z": 0.7890768252,
				"element": "H" 
			},
			{
				"x": -5.5439277375,
				"y": 0.0044122195,
				"z": 1.4596714528,
				"element": "H" 
			},
			{
				"x": -5.1922699794,
				"y": 2.3567890105,
				"z": 0.7297776536,
				"element": "H" 
			},
			{
				"x": -3.2307156017,
				"y": 2.9442057586,
				"z": -0.6610039528,
				"element": "H" 
			},
			{
				"x": -0.2016269652,
				"y": 1.9843454622,
				"z": 0.8355743672,
				"element": "H" 
			},
			{
				"x": 2.028510153,
				"y": 1.3900729726,
				"z": 1.7651508747,
				"element": "H" 
			}
		],
		 "valence_orbital": [ 
			{
				"type": "occ",
				"energy": -0.27569,
				"method": "rhf"
			},
			{
				"type": "occ",
				"energy": -0.24922,
				"method": "rhf"
			},
			{
				"type": "occ",
				"energy": -0.24534,
				"method": "rhf"
			},
			{
				"type": "occ",
				"energy": -0.24112,
				"method": "rhf"
			},
			{
				"type": "occ",
				"energy": -0.22462,
				"method": "rhf"
			},
			{
				"type": "unocc",
				"energy": -0.00348,
				"method": "rhf"
			},
			{
				"type": "unocc",
				"energy": -0.0012,
				"method": "rhf"
			},
			{
				"type": "unocc",
				"energy": 0.00069,
				"method": "rhf"
			},
			{
				"type": "unocc",
				"energy": 0.01166,
				"method": "rhf"
			},
			{
				"type": "unocc",
				"energy": 0.05246,
				"method": "rhf"
			}
		],
		"cosmo_sigma_profile": { 
			"-0.025": 0.0,
			"-0.024": 0.0,
			"-0.023": 0.0,
			"-0.022": 0.0,
			"-0.021": 0.0,
			"-0.02": 0.0,
			"-0.019": 0.0,
			"-0.018": 0.0,
			"-0.017": 0.0,
			"-0.016": 0.0,
			"-0.015": 0.962307491801,
			"-0.014": 2.49825309003,
			"-0.013": 2.32581200093,
			"-0.012": 1.63841355997,
			"-0.011": 2.12417148016,
			"-0.01": 2.1271362928,
			"-0.009": 1.42997836268,
			"-0.008": 1.95254160598,
			"-0.007": 1.74478973026,
			"-0.006": 7.15082541649,
			"-0.005": 21.8858977157,
			"-0.004": 23.9173689268,
			"-0.003": 24.1639782012,
			"-0.002": 21.5955874537,
			"-0.001": 19.1974593847,
			"0.0": 18.3647959393,
			"0.001": 15.3663763693,
			"0.002": 17.3609201317,
			"0.003": 19.1405607741,
			"0.004": 21.3195272208,
			"0.005": 19.6990381829,
			"0.006": 11.3582158927,
			"0.007": 5.38171341702,
			"0.008": 1.72642532377,
			"0.009": 1.67906895474,
			"0.01": 1.44684185384,
			"0.011": 2.56309883239,
			"0.012": 3.47716206805,
			"0.013": 4.11273167685,
			"0.014": 0.163204910296,
			"0.015": 0.0,
			"0.016": 0.0,
			"0.017": 0.0,
			"0.018": 0.0,
			"0.019": 0.0,
			"0.02": 0.0,
			"0.021": 0.0,
			"0.022": 0.0,
			"0.023": 0.0,
			"0.024": 0.0,
			"0.025": 0.0
		}
	}
}
