{
	 "smiles": "NS(=O)(=O)C1=C2CCCCC2=CC(=C1)C(O)=O", 
	 "Tm": 549.15, 
	 "num_atms": 30, 
	 "gaussian": { 
		 "optdone": 1, 
		 "sigma_profile": "yes", 
		 "theory": "DFT", 
		 "functional": "B3LYP", 
		 "basiset": "6-31G**", 
		 "properties": { 
			 "R2extent": 5015.6702, 
			 "electric_dipole_moment_norm": 5.76732181173, 
			 "electric_quadrupole_moment_norm": 25.6133119042, 
			 "total_energy": -1180.79518966, 
			 "HOMO_LUMO_gap": 0.20472, 
			 "cosmo_polarized_energy": -25.89, 
			 "cosmo_cavitation_energy": 33.46, 
			 "cosmo_dispersion_energy": -25.18, 
			 "cosmo_repulsion_energy": 1.9, 
			 "cosmo_total_nonelectrostatic_energy": 10.19, 
			 "SMD_solvation_energy": 5.57 
		},
		"coords": [
			{
				"x": -0.581548608,
				"y": -1.683945468,
				"z": -3.1413623784,
				"element": "N" 
			},
			{
				"x": 0.9123045191,
				"y": -1.2866192035,
				"z": -2.4952277909,
				"element": "S" 
			},
			{
				"x": 1.6949527281,
				"y": -2.5217256563,
				"z": -2.5331024257,
				"element": "O" 
			},
			{
				"x": 1.3458972728,
				"y": -0.0766770063,
				"z": -3.1934649172,
				"element": "O" 
			},
			{
				"x": 0.6629406263,
				"y": -0.8894635652,
				"z": -0.7407806167,
				"element": "C" 
			},
			{
				"x": -0.0943185071,
				"y": 0.2196041133,
				"z": -0.3027122708,
				"element": "C" 
			},
			{
				"x": -0.801356975,
				"y": 1.1484853093,
				"z": -1.2775032212,
				"element": "C" 
			},
			{
				"x": -1.2440355239,
				"y": 2.4789175602,
				"z": -0.6564631354,
				"element": "C" 
			},
			{
				"x": -1.9549201007,
				"y": 2.2436288766,
				"z": 0.6771711393,
				"element": "C" 
			},
			{
				"x": -0.988059679,
				"y": 1.5920906717,
				"z": 1.6697421657,
				"element": "C" 
			},
			{
				"x": -0.2115182411,
				"y": 0.4201386326,
				"z": 1.0902874738,
				"element": "C" 
			},
			{
				"x": 0.4191633879,
				"y": -0.4591080511,
				"z": 1.9748588589,
				"element": "C" 
			},
			{
				"x": 1.1864478428,
				"y": -1.5343100442,
				"z": 1.5258933949,
				"element": "C" 
			},
			{
				"x": 1.2977702029,
				"y": -1.7525862832,
				"z": 0.1501124499,
				"element": "C" 
			},
			{
				"x": 1.8199940216,
				"y": -2.4238410595,
				"z": 2.5558269791,
				"element": "C" 
			},
			{
				"x": 2.8301315535,
				"y": -3.2279876892,
				"z": 2.1396118597,
				"element": "O" 
			},
			{
				"x": 1.4652984054,
				"y": -2.4435401773,
				"z": 3.7112570717,
				"element": "O" 
			},
			{
				"x": -1.2211308608,
				"y": -0.9010040835,
				"z": -3.2171975466,
				"element": "H" 
			},
			{
				"x": -0.9907027372,
				"y": -2.5176716862,
				"z": -2.7328152249,
				"element": "H" 
			},
			{
				"x": -0.1600728567,
				"y": 1.3282871119,
				"z": -2.1435557394,
				"element": "H" 
			},
			{
				"x": -1.6981606908,
				"y": 0.6286861695,
				"z": -1.6515472595,
				"element": "H" 
			},
			{
				"x": -0.3666626952,
				"y": 3.1188987336,
				"z": -0.4963795282,
				"element": "H" 
			},
			{
				"x": -1.8930998446,
				"y": 3.0071089893,
				"z": -1.362837872,
				"element": "H" 
			},
			{
				"x": -2.8251579726,
				"y": 1.5923301462,
				"z": 0.5190246205,
				"element": "H" 
			},
			{
				"x": -2.3351389822,
				"y": 3.1832075108,
				"z": 1.0916651772,
				"element": "H" 
			},
			{
				"x": -1.518803211,
				"y": 1.2588436302,
				"z": 2.5686843636,
				"element": "H" 
			},
			{
				"x": -0.2644194014,
				"y": 2.3461934282,
				"z": 2.0110129647,
				"element": "H" 
			},
			{
				"x": 0.3205494646,
				"y": -0.3171826882,
				"z": 3.0469912404,
				"element": "H" 
			},
			{
				"x": 1.840599308,
				"y": -2.5958334041,
				"z": -0.2642673891,
				"element": "H" 
			},
			{
				"x": 3.1010575544,
				"y": -3.0034248176,
				"z": 1.2384775565,
				"element": "H" 
			}
		],
		 "valence_orbital": [ 
			{
				"type": "occ",
				"energy": -0.31568,
				"method": "rhf"
			},
			{
				"type": "occ",
				"energy": -0.30936,
				"method": "rhf"
			},
			{
				"type": "occ",
				"energy": -0.2829,
				"method": "rhf"
			},
			{
				"type": "occ",
				"energy": -0.27422,
				"method": "rhf"
			},
			{
				"type": "occ",
				"energy": -0.27104,
				"method": "rhf"
			},
			{
				"type": "unocc",
				"energy": -0.06632,
				"method": "rhf"
			},
			{
				"type": "unocc",
				"energy": -0.04629,
				"method": "rhf"
			},
			{
				"type": "unocc",
				"energy": 0.02491,
				"method": "rhf"
			},
			{
				"type": "unocc",
				"energy": 0.04089,
				"method": "rhf"
			},
			{
				"type": "unocc",
				"energy": 0.05178,
				"method": "rhf"
			}
		],
		"cosmo_sigma_profile": { 
			"-0.025": 0.0,
			"-0.024": 0.0,
			"-0.023": 0.0,
			"-0.022": 0.0,
			"-0.021": 0.0,
			"-0.02": 0.0299953646177,
			"-0.019": 0.651483355999,
			"-0.018": 0.799127134795,
			"-0.017": 1.30297148896,
			"-0.016": 1.38777107789,
			"-0.015": 2.22732027459,
			"-0.014": 3.57036194303,
			"-0.013": 3.43503454235,
			"-0.012": 4.94737276948,
			"-0.011": 3.05742228907,
			"-0.01": 3.05231074537,
			"-0.009": 3.61285948623,
			"-0.008": 3.41101294361,
			"-0.007": 4.08143838879,
			"-0.006": 4.97150889089,
			"-0.005": 6.60474035036,
			"-0.004": 14.2682680017,
			"-0.003": 27.6439044354,
			"-0.002": 30.3921935246,
			"-0.001": 23.4639523843,
			"0.0": 17.6437122079,
			"0.001": 16.2780435408,
			"0.002": 9.79206521734,
			"0.003": 4.30815277867,
			"0.004": 4.82449019633,
			"0.005": 4.9123888881,
			"0.006": 6.60142118079,
			"0.007": 5.8668395667,
			"0.008": 8.04786714132,
			"0.009": 8.45093997747,
			"0.01": 11.8225388346,
			"0.011": 14.6479188161,
			"0.012": 7.25390230596,
			"0.013": 1.14986320187,
			"0.014": 0.0,
			"0.015": 0.0,
			"0.016": 0.0,
			"0.017": 0.0,
			"0.018": 0.0,
			"0.019": 0.0,
			"0.02": 0.0,
			"0.021": 0.0,
			"0.022": 0.0,
			"0.023": 0.0,
			"0.024": 0.0,
			"0.025": 0.0
		}
	}
}
