{
	 "smiles": "NS(=O)(=O)C1=CC2=C(OCCO2)C=C1", 
	 "Tm": 471.15, 
	 "num_atms": 23, 
	 "gaussian": { 
		 "optdone": 1, 
		 "sigma_profile": "yes", 
		 "theory": "DFT", 
		 "functional": "B3LYP", 
		 "basiset": "6-31G**", 
		 "properties": { 
			 "R2extent": 3848.877, 
			 "electric_dipole_moment_norm": 7.65280127012, 
			 "electric_quadrupole_moment_norm": 19.9574984114, 
			 "total_energy": -1064.01902033, 
			 "HOMO_LUMO_gap": 0.20142, 
			 "cosmo_polarized_energy": -21.23, 
			 "cosmo_cavitation_energy": 28.1, 
			 "cosmo_dispersion_energy": -21.76, 
			 "cosmo_repulsion_energy": 1.66, 
			 "cosmo_total_nonelectrostatic_energy": 8.0, 
			 "SMD_solvation_energy": 4.79 
		},
		"coords": [
			{
				"x": 1.8900240079,
				"y": -0.0010713958,
				"z": -3.174550916,
				"element": "N" 
			},
			{
				"x": 1.7914593884,
				"y": 1.3577951587,
				"z": -2.1825453839,
				"element": "S" 
			},
			{
				"x": 1.0978075652,
				"y": 2.3698127653,
				"z": -2.9776461412,
				"element": "O" 
			},
			{
				"x": 3.1394737153,
				"y": 1.5475640772,
				"z": -1.6490958188,
				"element": "O" 
			},
			{
				"x": 0.7245668208,
				"y": 0.9237504027,
				"z": -0.8059579421,
				"element": "C" 
			},
			{
				"x": -0.6495558653,
				"y": 1.1364657451,
				"z": -0.9203235843,
				"element": "C" 
			},
			{
				"x": -1.4863565388,
				"y": 0.7740444969,
				"z": 0.1329196593,
				"element": "C" 
			},
			{
				"x": -0.9371180379,
				"y": 0.2144996889,
				"z": 1.3037543064,
				"element": "C" 
			},
			{
				"x": -1.7190578826,
				"y": -0.1308773774,
				"z": 2.3711067922,
				"element": "O" 
			},
			{
				"x": -3.0337712058,
				"y": 0.4329063579,
				"z": 2.3411413491,
				"element": "C" 
			},
			{
				"x": -3.6323127312,
				"y": 0.2880621459,
				"z": 0.952396977,
				"element": "C" 
			},
			{
				"x": -2.8330856362,
				"y": 0.9882284636,
				"z": -0.0031113558,
				"element": "O" 
			},
			{
				"x": 0.4408950633,
				"y": 0.004988866,
				"z": 1.3980159706,
				"element": "C" 
			},
			{
				"x": 1.2798843673,
				"y": 0.3551230585,
				"z": 0.3445992737,
				"element": "C" 
			},
			{
				"x": 2.3374658959,
				"y": -0.786836082,
				"z": -2.7127042683,
				"element": "H" 
			},
			{
				"x": 0.9952811087,
				"y": -0.2456655675,
				"z": -3.5875128143,
				"element": "H" 
			},
			{
				"x": -1.0754780088,
				"y": 1.5972145782,
				"z": -1.8046938644,
				"element": "H" 
			},
			{
				"x": -2.9876684479,
				"y": 1.4929532283,
				"z": 2.6229529627,
				"element": "H" 
			},
			{
				"x": -3.6189473,
				"y": -0.1104010691,
				"z": 3.086721351,
				"element": "H" 
			},
			{
				"x": -3.694514726,
				"y": -0.7740106299,
				"z": 0.6792219476,
				"element": "H" 
			},
			{
				"x": -4.6309224948,
				"y": 0.7282989113,
				"z": 0.9017057818,
				"element": "H" 
			},
			{
				"x": 0.8339697802,
				"y": -0.4174231784,
				"z": 2.3168759882,
				"element": "H" 
			},
			{
				"x": 2.3534611622,
				"y": 0.2261773555,
				"z": 0.4219297295,
				"element": "H" 
			}
		],
		 "valence_orbital": [ 
			{
				"type": "occ",
				"energy": -0.30335,
				"method": "rhf"
			},
			{
				"type": "occ",
				"energy": -0.29839,
				"method": "rhf"
			},
			{
				"type": "occ",
				"energy": -0.29797,
				"method": "rhf"
			},
			{
				"type": "occ",
				"energy": -0.25622,
				"method": "rhf"
			},
			{
				"type": "occ",
				"energy": -0.23179,
				"method": "rhf"
			},
			{
				"type": "unocc",
				"energy": -0.03037,
				"method": "rhf"
			},
			{
				"type": "unocc",
				"energy": -0.01528,
				"method": "rhf"
			},
			{
				"type": "unocc",
				"energy": 0.05283,
				"method": "rhf"
			},
			{
				"type": "unocc",
				"energy": 0.07047,
				"method": "rhf"
			},
			{
				"type": "unocc",
				"energy": 0.08376,
				"method": "rhf"
			}
		],
		"cosmo_sigma_profile": { 
			"-0.025": 0.0,
			"-0.024": 0.0,
			"-0.023": 0.0,
			"-0.022": 0.0,
			"-0.021": 0.0,
			"-0.02": 0.0,
			"-0.019": 0.0,
			"-0.018": 0.0,
			"-0.017": 0.0,
			"-0.016": 0.0477291831219,
			"-0.015": 2.07444124186,
			"-0.014": 2.16524534244,
			"-0.013": 2.6790151304,
			"-0.012": 3.24557302732,
			"-0.011": 2.32504720025,
			"-0.01": 2.14630860548,
			"-0.009": 2.60870659008,
			"-0.008": 3.65527664696,
			"-0.007": 14.2481805468,
			"-0.006": 19.2833214325,
			"-0.005": 14.8298139478,
			"-0.004": 11.3549209632,
			"-0.003": 10.0739212692,
			"-0.002": 9.36575472039,
			"-0.001": 7.42679106294,
			"0.0": 9.19315856416,
			"0.001": 11.7653941268,
			"0.002": 18.913291981,
			"0.003": 11.5337667235,
			"0.004": 6.70906607439,
			"0.005": 5.67094921553,
			"0.006": 4.93151030622,
			"0.007": 6.58095842693,
			"0.008": 7.85991326321,
			"0.009": 6.90783966505,
			"0.01": 8.8713351277,
			"0.011": 10.4401594085,
			"0.012": 6.21662260811,
			"0.013": 0.424320575952,
			"0.014": 0.0145607211788,
			"0.015": 0.0,
			"0.016": 0.0,
			"0.017": 0.0,
			"0.018": 0.0,
			"0.019": 0.0,
			"0.02": 0.0,
			"0.021": 0.0,
			"0.022": 0.0,
			"0.023": 0.0,
			"0.024": 0.0,
			"0.0": 0.0
		}
	}
}
