{
	 "smiles": "NC1=NOC2=C1C=CC=C2", 
	 "Tm": 384.15, 
	 "num_atms": 16, 
	 "gaussian": { 
		 "optdone": 1, 
		 "sigma_profile": "yes", 
		 "theory": "DFT", 
		 "functional": "B3LYP", 
		 "basiset": "6-31G**", 
		 "properties": { 
			 "R2extent": 1641.4406, 
			 "electric_dipole_moment_norm": 3.41585255683, 
			 "electric_quadrupole_moment_norm": 15.4428247073, 
			 "total_energy": -455.043959617, 
			 "HOMO_LUMO_gap": 0.18982, 
			 "cosmo_polarized_energy": -12.43, 
			 "cosmo_cavitation_energy": 20.4, 
			 "cosmo_dispersion_energy": -15.52, 
			 "cosmo_repulsion_energy": 1.25, 
			 "cosmo_total_nonelectrostatic_energy": 6.13, 
			 "SMD_solvation_energy": 3.28 
		},
		"coords": [
			{
				"x": -2.0718648872,
				"y": -2.9009603191,
				"z": 1.1311427944,
				"element": "N" 
			},
			{
				"x": -0.9529082283,
				"y": -2.1284764034,
				"z": 1.3858627918,
				"element": "C" 
			},
			{
				"x": -0.0702263678,
				"y": -2.4777650989,
				"z": 2.2919828296,
				"element": "N" 
			},
			{
				"x": 0.9815577594,
				"y": -1.5216952975,
				"z": 2.2276045824,
				"element": "O" 
			},
			{
				"x": 0.6649414481,
				"y": -0.6086401652,
				"z": 1.2822007777,
				"element": "C" 
			},
			{
				"x": -0.5607722913,
				"y": -0.9277647898,
				"z": 0.6880513298,
				"element": "C" 
			},
			{
				"x": -1.0824684881,
				"y": -0.1250566542,
				"z": -0.3354400151,
				"element": "C" 
			},
			{
				"x": -0.3481087399,
				"y": 0.9902138941,
				"z": -0.7220654498,
				"element": "C" 
			},
			{
				"x": 0.8833842841,
				"y": 1.2976578753,
				"z": -0.1058043286,
				"element": "C" 
			},
			{
				"x": 1.4175704215,
				"y": 0.5055371055,
				"z": 0.9061191227,
				"element": "C" 
			},
			{
				"x": -2.9095699147,
				"y": -2.3700270913,
				"z": 0.9322888402,
				"element": "H" 
			},
			{
				"x": -2.230138699,
				"y": -3.6126036841,
				"z": 1.834180034,
				"element": "H" 
			},
			{
				"x": -2.0240353879,
				"y": -0.3674801244,
				"z": -0.8194161884,
				"element": "H" 
			},
			{
				"x": -0.7213014264,
				"y": 1.6339677131,
				"z": -1.512312272,
				"element": "H" 
			},
			{
				"x": 1.4316519901,
				"y": 2.1762538101,
				"z": -0.4329784179,
				"element": "H" 
			},
			{
				"x": 2.3652885273,
				"y": 0.7335392296,
				"z": 1.3805835692,
				"element": "H" 
			}
		],
		 "valence_orbital": [ 
			{
				"type": "occ",
				"energy": -0.34867,
				"method": "rhf"
			},
			{
				"type": "occ",
				"energy": -0.29971,
				"method": "rhf"
			},
			{
				"type": "occ",
				"energy": -0.26992,
				"method": "rhf"
			},
			{
				"type": "occ",
				"energy": -0.24825,
				"method": "rhf"
			},
			{
				"type": "occ",
				"energy": -0.22457,
				"method": "rhf"
			},
			{
				"type": "unocc",
				"energy": -0.03475,
				"method": "rhf"
			},
			{
				"type": "unocc",
				"energy": 0.00527,
				"method": "rhf"
			},
			{
				"type": "unocc",
				"energy": 0.05334,
				"method": "rhf"
			},
			{
				"type": "unocc",
				"energy": 0.06726,
				"method": "rhf"
			},
			{
				"type": "unocc",
				"energy": 0.09395,
				"method": "rhf"
			}
		],
		"cosmo_sigma_profile": { 
			"-0.025": 0.0,
			"-0.024": 0.0,
			"-0.023": 0.0,
			"-0.022": 0.0,
			"-0.021": 0.0,
			"-0.02": 0.0,
			"-0.019": 0.0,
			"-0.018": 0.0,
			"-0.017": 0.0,
			"-0.016": 0.0,
			"-0.015": 0.0,
			"-0.014": 0.841256681864,
			"-0.013": 2.59452629933,
			"-0.012": 2.72667080186,
			"-0.011": 3.29714716831,
			"-0.01": 2.35521713537,
			"-0.009": 2.51027281228,
			"-0.008": 3.19023484984,
			"-0.007": 6.45906255808,
			"-0.006": 8.79078346514,
			"-0.005": 10.0653169099,
			"-0.004": 9.60562789868,
			"-0.003": 7.51424427037,
			"-0.002": 6.03931423908,
			"-0.001": 7.04632095933,
			"0.0": 9.37393965617,
			"0.001": 11.7306094903,
			"0.002": 12.2311807544,
			"0.003": 12.3701817742,
			"0.004": 12.9918494938,
			"0.005": 5.11624212215,
			"0.006": 1.53904688549,
			"0.007": 3.31097701933,
			"0.008": 3.16963303502,
			"0.009": 6.67219125047,
			"0.01": 3.55167573056,
			"0.011": 2.99892444235,
			"0.012": 1.50056820707,
			"0.013": 2.06666128697,
			"0.014": 1.28514506758,
			"0.015": 0.686527886506,
			"0.016": 0.0144928591736,
			"0.017": 0.0,
			"0.018": 0.0,
			"0.019": 0.0,
			"0.02": 0.0,
			"0.021": 0.0,
			"0.022": 0.0,
			"0.023": 0.0,
			"0.024": 0.0,
			"0.025": 0.0
		}
	}
}
