{
	 "smiles": "SC1=C2C=CC=CC2=C(N=N1)C1=CC=CC=C1", 
	 "Tm": 452.15, 
	 "num_atms": 27, 
	 "gaussian": { 
		 "optdone": 1, 
		 "sigma_profile": "yes", 
		 "theory": "DFT", 
		 "functional": "B3LYP", 
		 "basiset": "6-31G**", 
		 "properties": { 
			 "R2extent": 4987.5496, 
			 "electric_dipole_moment_norm": 3.92229685389, 
			 "electric_quadrupole_moment_norm": 10.7689723033, 
			 "total_energy": -1047.17986656, 
			 "HOMO_LUMO_gap": 0.15761, 
			 "cosmo_polarized_energy": -12.35, 
			 "cosmo_cavitation_energy": 32.55, 
			 "cosmo_dispersion_energy": -24.57, 
			 "cosmo_repulsion_energy": 1.83, 
			 "cosmo_total_nonelectrostatic_energy": 9.82, 
			 "SMD_solvation_energy": 3.1 
		},
		"coords": [
			{
				"x": 3.3674066667,
				"y": -3.0676998711,
				"z": 0.6368939589,
				"element": "S" 
			},
			{
				"x": 1.8674271382,
				"y": -2.1284457876,
				"z": 0.4128283536,
				"element": "C" 
			},
			{
				"x": 1.8815425983,
				"y": -0.7062601324,
				"z": 0.5860640865,
				"element": "C" 
			},
			{
				"x": 3.0422227498,
				"y": 0.0442865168,
				"z": 0.8884708714,
				"element": "C" 
			},
			{
				"x": 2.9758122851,
				"y": 1.4194125739,
				"z": 0.9710928947,
				"element": "C" 
			},
			{
				"x": 1.7539267117,
				"y": 2.0867592769,
				"z": 0.7377050358,
				"element": "C" 
			},
			{
				"x": 0.6075604784,
				"y": 1.3736626363,
				"z": 0.4516905878,
				"element": "C" 
			},
			{
				"x": 0.638207154,
				"y": -0.0426607108,
				"z": 0.3928984178,
				"element": "C" 
			},
			{
				"x": -0.502691218,
				"y": -0.8738854657,
				"z": 0.1012535702,
				"element": "C" 
			},
			{
				"x": -0.3946065901,
				"y": -2.1804491888,
				"z": -0.0729324734,
				"element": "N" 
			},
			{
				"x": 0.7970194281,
				"y": -2.8102777273,
				"z": 0.0666479231,
				"element": "N" 
			},
			{
				"x": -1.8844758,
				"y": -0.3388801652,
				"z": -0.0439556793,
				"element": "C" 
			},
			{
				"x": -2.6891569384,
				"y": -0.7940528559,
				"z": -1.1008578718,
				"element": "C" 
			},
			{
				"x": -3.9983635503,
				"y": -0.3393139095,
				"z": -1.2413489613,
				"element": "C" 
			},
			{
				"x": -4.5310203882,
				"y": 0.5672157367,
				"z": -0.3213113837,
				"element": "C" 
			},
			{
				"x": -3.74747745,
				"y": 1.0098172425,
				"z": 0.7453008841,
				"element": "C" 
			},
			{
				"x": -2.4336386647,
				"y": 0.5608463623,
				"z": 0.8841407254,
				"element": "C" 
			},
			{
				"x": 2.7649194364,
				"y": -4.2360423514,
				"z": 0.3432687573,
				"element": "H" 
			},
			{
				"x": 3.9877187784,
				"y": -0.4654559973,
				"z": 1.0436006887,
				"element": "H" 
			},
			{
				"x": 3.8688264236,
				"y": 1.9928865769,
				"z": 1.2003487645,
				"element": "H" 
			},
			{
				"x": 1.7185507088,
				"y": 3.1714550364,
				"z": 0.7764360045,
				"element": "H" 
			},
			{
				"x": -0.3215284786,
				"y": 1.8941226821,
				"z": 0.25410512,
				"element": "H" 
			},
			{
				"x": -2.2736841505,
				"y": -1.5101160085,
				"z": -1.8015810233,
				"element": "H" 
			},
			{
				"x": -4.605344525,
				"y": -0.6945870348,
				"z": -2.0691396634,
				"element": "H" 
			},
			{
				"x": -5.5525016702,
				"y": 0.9199205085,
				"z": -0.4308882863,
				"element": "H" 
			},
			{
				"x": -4.1606234697,
				"y": 1.6977936954,
				"z": 1.4773696599,
				"element": "H" 
			},
			{
				"x": -1.8430276638,
				"y": 0.8865483614,
				"z": 1.7348990383,
				"element": "H" 
			}
		],
		 "valence_orbital": [ 
			{
				"type": "occ",
				"energy": -0.26928,
				"method": "rhf"
			},
			{
				"type": "occ",
				"energy": -0.25949,
				"method": "rhf"
			},
			{
				"type": "occ",
				"energy": -0.25421,
				"method": "rhf"
			},
			{
				"type": "occ",
				"energy": -0.23412,
				"method": "rhf"
			},
			{
				"type": "occ",
				"energy": -0.22488,
				"method": "rhf"
			},
			{
				"type": "unocc",
				"energy": -0.06727,
				"method": "rhf"
			},
			{
				"type": "unocc",
				"energy": -0.04695,
				"method": "rhf"
			},
			{
				"type": "unocc",
				"energy": -0.01646,
				"method": "rhf"
			},
			{
				"type": "unocc",
				"energy": -0.005,
				"method": "rhf"
			},
			{
				"type": "unocc",
				"energy": 0.01679,
				"method": "rhf"
			}
		],
		"cosmo_sigma_profile": { 
			"-0.025": 0.0,
			"-0.024": 0.0,
			"-0.023": 0.0,
			"-0.022": 0.0,
			"-0.021": 0.0,
			"-0.02": 0.0,
			"-0.019": 0.0,
			"-0.018": 0.0,
			"-0.017": 0.0,
			"-0.016": 0.0,
			"-0.015": 0.0,
			"-0.014": 0.0,
			"-0.013": 0.0,
			"-0.012": 0.0537379968541,
			"-0.011": 0.928289579832,
			"-0.01": 1.42375098122,
			"-0.009": 0.914428419628,
			"-0.008": 1.7596499491,
			"-0.007": 7.90750189553,
			"-0.006": 16.7444878974,
			"-0.005": 20.0689272534,
			"-0.004": 20.4629125366,
			"-0.003": 17.401408372,
			"-0.002": 17.5647032456,
			"-0.001": 22.3310866567,
			"0.0": 21.8894276392,
			"0.001": 22.6707559602,
			"0.002": 23.9049457706,
			"0.003": 16.6641833878,
			"0.004": 12.484131102,
			"0.005": 14.2682273152,
			"0.006": 5.18926466397,
			"0.007": 4.07645453617,
			"0.008": 2.31011567674,
			"0.009": 1.95192967309,
			"0.01": 1.86758949627,
			"0.011": 1.78136255986,
			"0.012": 1.87804322706,
			"0.013": 2.00016983506,
			"0.014": 2.90427478001,
			"0.015": 1.37573970519,
			"0.016": 0.424413550925,
			"0.017": 0.0,
			"0.018": 0.0,
			"0.019": 0.0,
			"0.02": 0.0,
			"0.021": 0.0,
			"0.022": 0.0,
			"0.023": 0.0,
			"0.024": 0.0,
			"0.025": 0.0
		}
	}
}
