{
	 "smiles": "NC1=CC=C(SCCCO)C=C1", 
	 "Tm": 336.15, 
	 "num_atms": 25, 
	 "gaussian": { 
		 "optdone": 1, 
		 "sigma_profile": "yes", 
		 "theory": "DFT", 
		 "functional": "B3LYP", 
		 "basiset": "6-31G**", 
		 "properties": { 
			 "R2extent": 3360.3014, 
			 "electric_dipole_moment_norm": 2.30174946074, 
			 "electric_quadrupole_moment_norm": 21.8538843554, 
			 "total_energy": -878.949837473, 
			 "HOMO_LUMO_gap": 0.20051, 
			 "cosmo_polarized_energy": -14.95, 
			 "cosmo_cavitation_energy": 29.92, 
			 "cosmo_dispersion_energy": -21.71, 
			 "cosmo_repulsion_energy": 1.75, 
			 "cosmo_total_nonelectrostatic_energy": 9.96, 
			 "SMD_solvation_energy": 4.44 
		},
		"coords": [
			{
				"x": 3.1094741727,
				"y": -1.293764759,
				"z": -2.6601102872,
				"element": "N" 
			},
			{
				"x": 2.2861323469,
				"y": -0.8333909331,
				"z": -1.634259997,
				"element": "C" 
			},
			{
				"x": 1.4656556329,
				"y": 0.2940601881,
				"z": -1.8221918365,
				"element": "C" 
			},
			{
				"x": 0.6103230112,
				"y": 0.7238550481,
				"z": -0.8138113977,
				"element": "C" 
			},
			{
				"x": 0.5298840637,
				"y": 0.0380477692,
				"z": 0.4074379105,
				"element": "C" 
			},
			{
				"x": -0.534720833,
				"y": 0.6222786593,
				"z": 1.7249372461,
				"element": "S" 
			},
			{
				"x": -2.1914212742,
				"y": 0.0164118522,
				"z": 1.1823106037,
				"element": "C" 
			},
			{
				"x": -2.3713973412,
				"y": -1.4996337691,
				"z": 1.2631821254,
				"element": "C" 
			},
			{
				"x": -3.7604423523,
				"y": -1.9497780148,
				"z": 0.8187554023,
				"element": "C" 
			},
			{
				"x": -3.9313528111,
				"y": -1.5901007352,
				"z": -0.5481221479,
				"element": "O" 
			},
			{
				"x": 1.3494007061,
				"y": -1.0840004231,
				"z": 0.5941585294,
				"element": "C" 
			},
			{
				"x": 2.2168778117,
				"y": -1.5136400933,
				"z": -0.4061773631,
				"element": "C" 
			},
			{
				"x": 3.896020065,
				"y": -1.8562536523,
				"z": -2.3670641061,
				"element": "H" 
			},
			{
				"x": 3.3701514246,
				"y": -0.6039804892,
				"z": -3.3508980037,
				"element": "H" 
			},
			{
				"x": 1.5078803709,
				"y": 0.8358506508,
				"z": -2.7641519763,
				"element": "H" 
			},
			{
				"x": -0.0009679437,
				"y": 1.6076154238,
				"z": -0.9705079046,
				"element": "H" 
			},
			{
				"x": -2.8937424186,
				"y": 0.5270468284,
				"z": 1.8515585623,
				"element": "H" 
			},
			{
				"x": -2.3852295364,
				"y": 0.3712246072,
				"z": 0.1677863096,
				"element": "H" 
			},
			{
				"x": -1.6247114174,
				"y": -1.9914983538,
				"z": 0.6300117697,
				"element": "H" 
			},
			{
				"x": -2.2018717664,
				"y": -1.8408675178,
				"z": 2.2912454819,
				"element": "H" 
			},
			{
				"x": -3.851187569,
				"y": -3.0391498086,
				"z": 0.9583180717,
				"element": "H" 
			},
			{
				"x": -4.5270901508,
				"y": -1.4737763121,
				"z": 1.453568854,
				"element": "H" 
			},
			{
				"x": -4.8238196708,
				"y": -1.8392801078,
				"z": -0.8168121152,
				"element": "H" 
			},
			{
				"x": 1.3095127207,
				"y": -1.6198686186,
				"z": 1.5374512351,
				"element": "H" 
			},
			{
				"x": 2.8429427586,
				"y": -2.3874074394,
				"z": -0.2414149665,
				"element": "H" 
			}
		],
		 "valence_orbital": [ 
			{
				"type": "occ",
				"energy": -0.28748,
				"method": "rhf"
			},
			{
				"type": "occ",
				"energy": -0.26486,
				"method": "rhf"
			},
			{
				"type": "occ",
				"energy": -0.24624,
				"method": "rhf"
			},
			{
				"type": "occ",
				"energy": -0.21552,
				"method": "rhf"
			},
			{
				"type": "occ",
				"energy": -0.19789,
				"method": "rhf"
			},
			{
				"type": "unocc",
				"energy": 0.00262,
				"method": "rhf"
			},
			{
				"type": "unocc",
				"energy": 0.00585,
				"method": "rhf"
			},
			{
				"type": "unocc",
				"energy": 0.06133,
				"method": "rhf"
			},
			{
				"type": "unocc",
				"energy": 0.07404,
				"method": "rhf"
			},
			{
				"type": "unocc",
				"energy": 0.08582,
				"method": "rhf"
			}
		],
		"cosmo_sigma_profile": { 
			"-0.025": 0.0,
			"-0.024": 0.0,
			"-0.023": 0.0,
			"-0.022": 0.0,
			"-0.021": 0.0,
			"-0.02": 0.0,
			"-0.019": 0.0,
			"-0.018": 0.0,
			"-0.017": 0.0,
			"-0.016": 0.250163065922,
			"-0.015": 1.20992578119,
			"-0.014": 0.717870761404,
			"-0.013": 1.6485846556,
			"-0.012": 3.91986030818,
			"-0.011": 3.39802410094,
			"-0.01": 3.87626776209,
			"-0.009": 3.84965377892,
			"-0.008": 3.73271839283,
			"-0.007": 4.25432596679,
			"-0.006": 6.58200634936,
			"-0.005": 10.73356359,
			"-0.004": 15.05319186,
			"-0.003": 23.4002304664,
			"-0.002": 19.8120822855,
			"-0.001": 15.3551242556,
			"0.0": 13.2386248734,
			"0.001": 11.5876581571,
			"0.002": 13.224664041,
			"0.003": 12.2517036093,
			"0.004": 12.7701655474,
			"0.005": 13.991493013,
			"0.006": 14.1634562275,
			"0.007": 6.11533479046,
			"0.008": 4.17653387791,
			"0.009": 4.53517828833,
			"0.01": 3.98333097935,
			"0.011": 3.19797620287,
			"0.012": 1.99292361763,
			"0.013": 1.65165032978,
			"0.014": 1.59917913767,
			"0.015": 0.281464221514,
			"0.016": 0.0,
			"0.017": 0.0,
			"0.018": 0.0,
			"0.019": 0.0,
			"0.02": 0.0,
			"0.021": 0.0,
			"0.022": 0.0,
			"0.023": 0.0,
			"0.024": 0.0,
			"0.025": 0.0
		}
	}
}
