{
	 "smiles": "CCCCC1NC(=O)NC1=O", 
	 "Tm": 413.15, 
	 "num_atms": 23, 
	 "gaussian": { 
		 "optdone": 1, 
		 "sigma_profile": "yes", 
		 "theory": "DFT", 
		 "functional": "B3LYP", 
		 "basiset": "6-31G**", 
		 "properties": { 
			 "R2extent": 2403.5294, 
			 "electric_dipole_moment_norm": 2.81342291524, 
			 "electric_quadrupole_moment_norm": 10.2187847829, 
			 "total_energy": -533.980551747, 
			 "HOMO_LUMO_gap": 0.25156, 
			 "cosmo_polarized_energy": -15.3, 
			 "cosmo_cavitation_energy": 26.42, 
			 "cosmo_dispersion_energy": -19.05, 
			 "cosmo_repulsion_energy": 1.59, 
			 "cosmo_total_nonelectrostatic_energy": 8.96, 
			 "SMD_solvation_energy": 5.26 
		},
		"coords": [
			{
				"x": 1.5993966154,
				"y": 0.8148469714,
				"z": -3.588114339,
				"element": "C" 
			},
			{
				"x": 2.4349450353,
				"y": 0.1674879265,
				"z": -2.477346902,
				"element": "C" 
			},
			{
				"x": 1.6113752973,
				"y": -0.4014032327,
				"z": -1.3096217282,
				"element": "C" 
			},
			{
				"x": 0.8639967135,
				"y": 0.6612915166,
				"z": -0.4936199519,
				"element": "C" 
			},
			{
				"x": 0.1243464334,
				"y": 0.0831475977,
				"z": 0.7198852542,
				"element": "C" 
			},
			{
				"x": -1.0220345906,
				"y": -0.7582971672,
				"z": 0.3983613039,
				"element": "N" 
			},
			{
				"x": -2.1756897149,
				"y": -0.3770523649,
				"z": 1.0401481985,
				"element": "C" 
			},
			{
				"x": -3.2575261503,
				"y": -0.9252256175,
				"z": 1.0434184296,
				"element": "O" 
			},
			{
				"x": -1.8498844125,
				"y": 0.8221244984,
				"z": 1.7114027895,
				"element": "N" 
			},
			{
				"x": -0.5272212876,
				"y": 1.1867734565,
				"z": 1.5732283526,
				"element": "C" 
			},
			{
				"x": 0.0157935213,
				"y": 2.1749342533,
				"z": 2.0197757654,
				"element": "O" 
			},
			{
				"x": 2.2372202759,
				"y": 1.1469827471,
				"z": -4.4134059778,
				"element": "H" 
			},
			{
				"x": 0.8694848684,
				"y": 0.1066159078,
				"z": -3.9972904118,
				"element": "H" 
			},
			{
				"x": 1.047614523,
				"y": 1.6900219249,
				"z": -3.2303461977,
				"element": "H" 
			},
			{
				"x": 3.0320324718,
				"y": -0.6460825859,
				"z": -2.9077470091,
				"element": "H" 
			},
			{
				"x": 3.1552069247,
				"y": 0.8981688694,
				"z": -2.0854224972,
				"element": "H" 
			},
			{
				"x": 0.8935381145,
				"y": -1.1346642979,
				"z": -1.7046069596,
				"element": "H" 
			},
			{
				"x": 2.2828383184,
				"y": -0.9552340375,
				"z": -0.6387811273,
				"element": "H" 
			},
			{
				"x": 0.1368739861,
				"y": 1.1901564258,
				"z": -1.1198837371,
				"element": "H" 
			},
			{
				"x": 1.5680216714,
				"y": 1.4111866934,
				"z": -0.1133903885,
				"element": "H" 
			},
			{
				"x": 0.8413547934,
				"y": -0.4519695612,
				"z": 1.3613408926,
				"element": "H" 
			},
			{
				"x": -0.9554205744,
				"y": -1.6892487204,
				"z": 0.0183990295,
				"element": "H" 
			},
			{
				"x": -2.5388628335,
				"y": 1.3577387966,
				"z": 2.2194172113,
				"element": "H" 
			}
		],
		 "valence_orbital": [ 
			{
				"type": "occ",
				"energy": -0.3334,
				"method": "rhf"
			},
			{
				"type": "occ",
				"energy": -0.29085,
				"method": "rhf"
			},
			{
				"type": "occ",
				"energy": -0.28955,
				"method": "rhf"
			},
			{
				"type": "occ",
				"energy": -0.27001,
				"method": "rhf"
			},
			{
				"type": "occ",
				"energy": -0.26199,
				"method": "rhf"
			},
			{
				"type": "unocc",
				"energy": -0.01043,
				"method": "rhf"
			},
			{
				"type": "unocc",
				"energy": 0.0579,
				"method": "rhf"
			},
			{
				"type": "unocc",
				"energy": 0.06789,
				"method": "rhf"
			},
			{
				"type": "unocc",
				"energy": 0.08652,
				"method": "rhf"
			},
			{
				"type": "unocc",
				"energy": 0.09869,
				"method": "rhf"
			}
		],
		"cosmo_sigma_profile": { 
			"-0.025": 0.0,
			"-0.024": 0.0,
			"-0.023": 0.0,
			"-0.022": 0.0,
			"-0.021": 0.0,
			"-0.02": 0.0,
			"-0.019": 0.0,
			"-0.018": 0.0,
			"-0.017": 0.117119615465,
			"-0.016": 1.34014912678,
			"-0.015": 1.7771372448,
			"-0.014": 1.93780944193,
			"-0.013": 1.82410276955,
			"-0.012": 1.91856967594,
			"-0.011": 2.05564074691,
			"-0.01": 1.49112669265,
			"-0.009": 2.06224606511,
			"-0.008": 2.76616628198,
			"-0.007": 4.89232055322,
			"-0.006": 6.56961153547,
			"-0.005": 6.78541560179,
			"-0.004": 8.57638067943,
			"-0.003": 16.9833019271,
			"-0.002": 25.1001124361,
			"-0.001": 24.588717383,
			"0.0": 23.4165758529,
			"0.001": 16.8434404982,
			"0.002": 7.69190929111,
			"0.003": 3.82135532013,
			"0.004": 3.54532436956,
			"0.005": 2.92992481922,
			"0.006": 3.17184514185,
			"0.007": 2.27470737606,
			"0.008": 1.97633484913,
			"0.009": 2.14114774999,
			"0.01": 4.00977727851,
			"0.011": 4.68496449555,
			"0.012": 9.29778633888,
			"0.013": 8.23612778582,
			"0.014": 1.1154432239,
			"0.015": 0.0,
			"0.016": 0.0,
			"0.017": 0.0,
			"0.018": 0.0,
			"0.019": 0.0,
			"0.02": 0.0,
			"0.021": 0.0,
			"0.022": 0.0,
			"0.023": 0.0,
			"0.024": 0.0,
			"0.025": 0.0
		}
	}
}
