{
	 "smiles": "COC1=CC(OC)=C(N)C=C1Cl", 
	 "Tm": 363.65, 
	 "num_atms": 22, 
	 "gaussian": { 
		 "optdone": 1, 
		 "sigma_profile": "yes", 
		 "theory": "DFT", 
		 "functional": "B3LYP", 
		 "basiset": "6-31G**", 
		 "properties": { 
			 "R2extent": 2800.5498, 
			 "electric_dipole_moment_norm": 2.83235764161, 
			 "electric_quadrupole_moment_norm": 8.70187614598, 
			 "total_energy": -976.237100504, 
			 "HOMO_LUMO_gap": 0.19554, 
			 "cosmo_polarized_energy": -10.33, 
			 "cosmo_cavitation_energy": 27.56, 
			 "cosmo_dispersion_energy": -19.98, 
			 "cosmo_repulsion_energy": 1.61, 
			 "cosmo_total_nonelectrostatic_energy": 9.19, 
			 "SMD_solvation_energy": 5.9 
		},
		"coords": [
			{
				"x": -2.4072504215,
				"y": 0.6998745122,
				"z": 1.7180999654,
				"element": "C" 
			},
			{
				"x": -1.9508906775,
				"y": -0.500118557,
				"z": 1.0902320985,
				"element": "O" 
			},
			{
				"x": -0.6674879331,
				"y": -0.4419948018,
				"z": 0.6039814768,
				"element": "C" 
			},
			{
				"x": 0.3983002755,
				"y": -0.8858460141,
				"z": 1.3943073432,
				"element": "C" 
			},
			{
				"x": 1.699740095,
				"y": -0.8876292126,
				"z": 0.9078021449,
				"element": "C" 
			},
			{
				"x": 2.7573793671,
				"y": -1.2948591218,
				"z": 1.702518844,
				"element": "O" 
			},
			{
				"x": 2.9916960804,
				"y": -2.7075114196,
				"z": 1.6805619774,
				"element": "C" 
			},
			{
				"x": 1.9855520013,
				"y": -0.4319495785,
				"z": -0.3960413233,
				"element": "C" 
			},
			{
				"x": 3.2975881086,
				"y": -0.487821934,
				"z": -0.8649203912,
				"element": "N" 
			},
			{
				"x": 0.9204709988,
				"y": 0.0163656654,
				"z": -1.1879409228,
				"element": "C" 
			},
			{
				"x": -0.3829686395,
				"y": 0.0068215472,
				"z": -0.6922245922,
				"element": "C" 
			},
			{
				"x": -1.6881430115,
				"y": 0.562032404,
				"z": -1.7274902542,
				"element": "Cl" 
			},
			{
				"x": -3.4232798884,
				"y": 0.4995134442,
				"z": 2.0643227146,
				"element": "H" 
			},
			{
				"x": -1.7755303528,
				"y": 0.9624054082,
				"z": 2.5768539516,
				"element": "H" 
			},
			{
				"x": -2.4244038198,
				"y": 1.5395893529,
				"z": 1.0135606464,
				"element": "H" 
			},
			{
				"x": 0.1996318384,
				"y": -1.2344390169,
				"z": 2.4025882096,
				"element": "H" 
			},
			{
				"x": 3.2207090799,
				"y": -3.0566816738,
				"z": 0.6663534496,
				"element": "H" 
			},
			{
				"x": 3.8483540307,
				"y": -2.8912408941,
				"z": 2.3327412887,
				"element": "H" 
			},
			{
				"x": 2.1223142922,
				"y": -3.2576875198,
				"z": 2.0606546363,
				"element": "H" 
			},
			{
				"x": 3.9788557379,
				"y": -0.4706259579,
				"z": -0.1163091367,
				"element": "H" 
			},
			{
				"x": 3.515679576,
				"y": 0.1665963137,
				"z": -1.6036683147,
				"element": "H" 
			},
			{
				"x": 1.1030832622,
				"y": 0.366207054,
				"z": -2.198783812,
				"element": "H" 
			}
		],
		 "valence_orbital": [ 
			{
				"type": "occ",
				"energy": -0.29123,
				"method": "rhf"
			},
			{
				"type": "occ",
				"energy": -0.28188,
				"method": "rhf"
			},
			{
				"type": "occ",
				"energy": -0.26881,
				"method": "rhf"
			},
			{
				"type": "occ",
				"energy": -0.24063,
				"method": "rhf"
			},
			{
				"type": "occ",
				"energy": -0.20214,
				"method": "rhf"
			},
			{
				"type": "unocc",
				"energy": -0.0066,
				"method": "rhf"
			},
			{
				"type": "unocc",
				"energy": 0.01178,
				"method": "rhf"
			},
			{
				"type": "unocc",
				"energy": 0.03549,
				"method": "rhf"
			},
			{
				"type": "unocc",
				"energy": 0.07717,
				"method": "rhf"
			},
			{
				"type": "unocc",
				"energy": 0.11067,
				"method": "rhf"
			}
		],
		"cosmo_sigma_profile": { 
			"-0.025": 0.0,
			"-0.024": 0.0,
			"-0.023": 0.0,
			"-0.022": 0.0,
			"-0.021": 0.0,
			"-0.02": 0.0,
			"-0.019": 0.0,
			"-0.018": 0.0,
			"-0.017": 0.0,
			"-0.016": 0.0,
			"-0.015": 0.0,
			"-0.014": 0.0,
			"-0.013": 0.76816316429,
			"-0.012": 1.55086535958,
			"-0.011": 2.01514949604,
			"-0.01": 2.41718840804,
			"-0.009": 3.17530846669,
			"-0.008": 2.29639060264,
			"-0.007": 4.47301319631,
			"-0.006": 5.99756357461,
			"-0.005": 11.9035527293,
			"-0.004": 16.18552587,
			"-0.003": 24.5074776204,
			"-0.002": 21.6465382387,
			"-0.001": 13.400698873,
			"0.0": 11.2494122189,
			"0.001": 11.2706984876,
			"0.002": 14.6332158133,
			"0.003": 20.3501588968,
			"0.004": 16.9905642584,
			"0.005": 10.7574649237,
			"0.006": 4.82478316584,
			"0.007": 4.01521452939,
			"0.008": 3.26513574835,
			"0.009": 2.47876344508,
			"0.01": 3.53635267531,
			"0.011": 3.16669755825,
			"0.012": 2.63318057389,
			"0.013": 0.452407956921,
			"0.014": 0.343162316702,
			"0.015": 0.0,
			"0.016": 0.0,
			"0.017": 0.0,
			"0.018": 0.0,
			"0.019": 0.0,
			"0.02": 0.0,
			"0.021": 0.0,
			"0.022": 0.0,
			"0.023": 0.0,
			"0.024": 0.0,
			"0.025": 0.0
		}
	}
}
