{
	 "smiles": "OCCC12CC3CC(CC(C3)C1)C2", 
	 "Tm": 347.15, 
	 "num_atms": 33, 
	 "gaussian": { 
		 "optdone": 1, 
		 "sigma_profile": "yes", 
		 "theory": "DFT", 
		 "functional": "B3LYP", 
		 "basiset": "6-31G**", 
		 "properties": { 
			 "R2extent": 2633.3533, 
			 "electric_dipole_moment_norm": 1.56103794637, 
			 "electric_quadrupole_moment_norm": 9.4747871079, 
			 "total_energy": -544.577338909, 
			 "HOMO_LUMO_gap": 0.325, 
			 "cosmo_polarized_energy": -5.29, 
			 "cosmo_cavitation_energy": 29.28, 
			 "cosmo_dispersion_energy": -22.19, 
			 "cosmo_repulsion_energy": 1.73, 
			 "cosmo_total_nonelectrostatic_energy": 8.82, 
			 "SMD_solvation_energy": 3.53 
		},
		"coords": [
			{
				"x": 1.4437585307,
				"y": -0.0193172583,
				"z": 4.1709467373,
				"element": "O" 
			},
			{
				"x": 1.2316015415,
				"y": 1.2501517216,
				"z": 3.5577221579,
				"element": "C" 
			},
			{
				"x": 1.7050621286,
				"y": 1.2137344118,
				"z": 2.1064620506,
				"element": "C" 
			},
			{
				"x": 0.9248339759,
				"y": 0.3484554783,
				"z": 1.0887905254,
				"element": "C" 
			},
			{
				"x": 1.0959607255,
				"y": -1.170662252,
				"z": 1.3509510247,
				"element": "C" 
			},
			{
				"x": 0.3580001438,
				"y": -1.9967607629,
				"z": 0.2768316974,
				"element": "C" 
			},
			{
				"x": -1.144732303,
				"y": -1.6483110288,
				"z": 0.3036310024,
				"element": "C" 
			},
			{
				"x": -1.3296371177,
				"y": -0.1446873041,
				"z": 0.0123439515,
				"element": "C" 
			},
			{
				"x": -0.7520604069,
				"y": 0.1822590486,
				"z": -1.379563903,
				"element": "C" 
			},
			{
				"x": 0.7498574685,
				"y": -0.1676469846,
				"z": -1.4062599115,
				"element": "C" 
			},
			{
				"x": 0.9328954136,
				"y": -1.6711898742,
				"z": -1.1162840764,
				"element": "C" 
			},
			{
				"x": 1.4808986898,
				"y": 0.6555188891,
				"z": -0.3274372707,
				"element": "C" 
			},
			{
				"x": -0.5892790221,
				"y": 0.6774387574,
				"z": 1.0890304312,
				"element": "C" 
			},
			{
				"x": 1.1208738347,
				"y": 0.0300920472,
				"z": 5.079091274,
				"element": "H" 
			},
			{
				"x": 1.8015361028,
				"y": 2.0329873762,
				"z": 4.0843724903,
				"element": "H" 
			},
			{
				"x": 0.1707757643,
				"y": 1.5405602071,
				"z": 3.6067725346,
				"element": "H" 
			},
			{
				"x": 2.7581149658,
				"y": 0.901530201,
				"z": 2.1035491676,
				"element": "H" 
			},
			{
				"x": 1.6914325945,
				"y": 2.2538211099,
				"z": 1.7497791148,
				"element": "H" 
			},
			{
				"x": 0.7241021943,
				"y": -1.4169015519,
				"z": 2.3496473669,
				"element": "H" 
			},
			{
				"x": 2.1655946515,
				"y": -1.4215692559,
				"z": 1.3478980197,
				"element": "H" 
			},
			{
				"x": 0.4907402779,
				"y": -3.0656020738,
				"z": 0.4891260602,
				"element": "H" 
			},
			{
				"x": -1.5716493175,
				"y": -1.8975162099,
				"z": 1.2841442227,
				"element": "H" 
			},
			{
				"x": -1.6864656356,
				"y": -2.2458485365,
				"z": -0.4417708621,
				"element": "H" 
			},
			{
				"x": -2.3979490759,
				"y": 0.1071793687,
				"z": 0.036344985,
				"element": "H" 
			},
			{
				"x": -1.2870247437,
				"y": -0.3848137053,
				"z": -2.1529319125,
				"element": "H" 
			},
			{
				"x": -0.8958786035,
				"y": 1.2468803969,
				"z": -1.6079852383,
				"element": "H" 
			},
			{
				"x": 1.1674367004,
				"y": 0.0728927802,
				"z": -2.3926800992,
				"element": "H" 
			},
			{
				"x": 1.9979421036,
				"y": -1.9357435655,
				"z": -1.1558610879,
				"element": "H" 
			},
			{
				"x": 0.42690296,
				"y": -2.2687287595,
				"z": -1.8864656665,
				"element": "H" 
			},
			{
				"x": 1.3724556895,
				"y": 1.7283810243,
				"z": -0.5409859049,
				"element": "H" 
			},
			{
				"x": 2.557520641,
				"y": 0.4367957013,
				"z": -0.3524082508,
				"element": "H" 
			},
			{
				"x": -1.0226097072,
				"y": 0.4558109623,
				"z": 2.0725502359,
				"element": "H" 
			},
			{
				"x": -0.7374111653,
				"y": 1.7522096414,
				"z": 0.9097491338,
				"element": "H" 
			}
		],
		 "valence_orbital": [ 
			{
				"type": "occ",
				"energy": -0.30442,
				"method": "rhf"
			},
			{
				"type": "occ",
				"energy": -0.27409,
				"method": "rhf"
			},
			{
				"type": "occ",
				"energy": -0.26835,
				"method": "rhf"
			},
			{
				"type": "occ",
				"energy": -0.26704,
				"method": "rhf"
			},
			{
				"type": "occ",
				"energy": -0.25727,
				"method": "rhf"
			},
			{
				"type": "unocc",
				"energy": 0.06773,
				"method": "rhf"
			},
			{
				"type": "unocc",
				"energy": 0.08311,
				"method": "rhf"
			},
			{
				"type": "unocc",
				"energy": 0.11475,
				"method": "rhf"
			},
			{
				"type": "unocc",
				"energy": 0.12473,
				"method": "rhf"
			},
			{
				"type": "unocc",
				"energy": 0.12948,
				"method": "rhf"
			}
		],
		"cosmo_sigma_profile": { 
			"-0.025": 0.0,
			"-0.024": 0.0,
			"-0.023": 0.0,
			"-0.022": 0.0,
			"-0.021": 0.0,
			"-0.02": 0.0,
			"-0.019": 0.0,
			"-0.018": 0.0,
			"-0.017": 0.0,
			"-0.016": 0.14716530057,
			"-0.015": 0.875853122041,
			"-0.014": 1.18200647586,
			"-0.013": 0.697858433362,
			"-0.012": 1.38508161347,
			"-0.011": 0.455004868026,
			"-0.01": 0.593523163591,
			"-0.009": 0.403572456073,
			"-0.008": 1.01071359074,
			"-0.007": 1.23934958983,
			"-0.006": 1.04101698544,
			"-0.005": 0.737607278365,
			"-0.004": 1.29528200732,
			"-0.003": 5.82632737428,
			"-0.002": 24.6541378164,
			"-0.001": 56.1540592305,
			"0.0": 45.6946074898,
			"0.001": 40.8894575407,
			"0.002": 18.5870489424,
			"0.003": 2.43419563841,
			"0.004": 2.1459032146,
			"0.005": 1.96263807992,
			"0.006": 1.86848739861,
			"0.007": 2.15436980378,
			"0.008": 1.32790787763,
			"0.009": 1.65253128729,
			"0.01": 1.2672963952,
			"0.011": 1.55353532404,
			"0.012": 0.576874506562,
			"0.013": 1.09800937283,
			"0.014": 0.92498389729,
			"0.015": 0.695501861061,
			"0.016": 0.0,
			"0.017": 0.0,
			"0.018": 0.0,
			"0.019": 0.0,
			"0.02": 0.0,
			"0.021": 0.0,
			"0.022": 0.0,
			"0.023": 0.0,
			"0.024": 0.0,
			"0.025": 0.0
		}
	}
}
