{
	 "smiles": "C[Si](C1=CC=CC=C1)(C1=CC=CC=C1)[Si](C)(C1=CC=CC=C1)C1=CC=CC=C1", 
	 "Tm": 412.15, 
	 "num_atms": 54, 
	 "gaussian": { 
		 "optdone": 1, 
		 "sigma_profile": "yes", 
		 "theory": "DFT", 
		 "functional": "B3LYP", 
		 "basiset": "6-31G**", 
		 "properties": { 
			 "R2extent": 11194.9017, 
			 "electric_dipole_moment_norm": 0.227280333509, 
			 "electric_quadrupole_moment_norm": 9.10190458915, 
			 "total_energy": -1585.4889496, 
			 "HOMO_LUMO_gap": 0.20029, 
			 "cosmo_polarized_energy": -9.24, 
			 "cosmo_cavitation_energy": 59.47, 
			 "cosmo_dispersion_energy": -33.67, 
			 "cosmo_repulsion_energy": 2.69, 
			 "cosmo_total_nonelectrostatic_energy": 28.49, 
			 "SMD_solvation_energy": 10.59 
		},
		"coords": [
			{
				"x": -1.8937285284,
				"y": -2.3188947152,
				"z": -0.7230318799,
				"element": "C" 
			},
			{
				"x": -0.5551690841,
				"y": -1.0073747159,
				"z": -1.0450706631,
				"element": "Si" 
			},
			{
				"x": 0.9294847201,
				"y": -1.8264580549,
				"z": -1.8964266174,
				"element": "C" 
			},
			{
				"x": 2.1091552462,
				"y": -1.1016594092,
				"z": -2.1629880124,
				"element": "C" 
			},
			{
				"x": 3.2078337906,
				"y": -1.7027582857,
				"z": -2.7792445404,
				"element": "C" 
			},
			{
				"x": 3.1569942967,
				"y": -3.0505519741,
				"z": -3.1412728349,
				"element": "C" 
			},
			{
				"x": 2.0022495726,
				"y": -3.7904606303,
				"z": -2.8839743702,
				"element": "C" 
			},
			{
				"x": 0.9046987408,
				"y": -3.1832850319,
				"z": -2.2694371154,
				"element": "C" 
			},
			{
				"x": -1.2933482185,
				"y": 0.3300236299,
				"z": -2.1744219095,
				"element": "C" 
			},
			{
				"x": -2.3740911461,
				"y": 1.1174809931,
				"z": -1.7274582447,
				"element": "C" 
			},
			{
				"x": -2.9519127393,
				"y": 2.0889735097,
				"z": -2.5461389824,
				"element": "C" 
			},
			{
				"x": -2.4602522731,
				"y": 2.2986815722,
				"z": -3.8366182631,
				"element": "C" 
			},
			{
				"x": -1.3904542595,
				"y": 1.5318561673,
				"z": -4.3000322197,
				"element": "C" 
			},
			{
				"x": -0.8150619467,
				"y": 0.5605438016,
				"z": -3.4771589831,
				"element": "C" 
			},
			{
				"x": 0.1594748349,
				"y": -0.0809876433,
				"z": 1.0251275209,
				"element": "Si" 
			},
			{
				"x": 0.9484164045,
				"y": -1.4634834728,
				"z": 2.0626919759,
				"element": "C" 
			},
			{
				"x": -1.3307472292,
				"y": 0.6112399351,
				"z": 1.9838857446,
				"element": "C" 
			},
			{
				"x": -2.3051508397,
				"y": -0.2628939275,
				"z": 2.5065956714,
				"element": "C" 
			},
			{
				"x": -3.4131110983,
				"y": 0.2147143636,
				"z": 3.2076167365,
				"element": "C" 
			},
			{
				"x": -3.5761619035,
				"y": 1.5878700877,
				"z": 3.403958818,
				"element": "C" 
			},
			{
				"x": -2.6240823734,
				"y": 2.473633798,
				"z": 2.8979181909,
				"element": "C" 
			},
			{
				"x": -1.5165724084,
				"y": 1.9894483097,
				"z": 2.1975610667,
				"element": "C" 
			},
			{
				"x": 1.4322380203,
				"y": 1.2967870381,
				"z": 0.7395422508,
				"element": "C" 
			},
			{
				"x": 2.6617240657,
				"y": 1.3046054822,
				"z": 1.4246064223,
				"element": "C" 
			},
			{
				"x": 3.6021780126,
				"y": 2.3170727673,
				"z": 1.2224870386,
				"element": "C" 
			},
			{
				"x": 3.3342068642,
				"y": 3.3516627839,
				"z": 0.3250654127,
				"element": "C" 
			},
			{
				"x": 2.1228692232,
				"y": 3.3659463957,
				"z": -0.3693131286,
				"element": "C" 
			},
			{
				"x": 1.1868759013,
				"y": 2.3500242668,
				"z": -0.1654548363,
				"element": "C" 
			},
			{
				"x": -2.2380306136,
				"y": -2.7663402584,
				"z": -1.6617991661,
				"element": "H" 
			},
			{
				"x": -1.5305368329,
				"y": -3.1244254256,
				"z": -0.0756584272,
				"element": "H" 
			},
			{
				"x": -2.7633019453,
				"y": -1.8655152652,
				"z": -0.2368588543,
				"element": "H" 
			},
			{
				"x": 2.1742455848,
				"y": -0.0530229154,
				"z": -1.8836727546,
				"element": "H" 
			},
			{
				"x": 4.1041109633,
				"y": -1.1198437011,
				"z": -2.9737445625,
				"element": "H" 
			},
			{
				"x": 4.0121323133,
				"y": -3.5206621651,
				"z": -3.6191900566,
				"element": "H" 
			},
			{
				"x": 1.9546473618,
				"y": -4.8400617216,
				"z": -3.1618938451,
				"element": "H" 
			},
			{
				"x": 0.0163282093,
				"y": -3.7802002867,
				"z": -2.081345065,
				"element": "H" 
			},
			{
				"x": -2.7690620191,
				"y": 0.9771895499,
				"z": -0.723922288,
				"element": "H" 
			},
			{
				"x": -3.7840680413,
				"y": 2.6823528522,
				"z": -2.1767083799,
				"element": "H" 
			},
			{
				"x": -2.9081922493,
				"y": 3.0549712681,
				"z": -4.4754759343,
				"element": "H" 
			},
			{
				"x": -1.0024575386,
				"y": 1.6887814078,
				"z": -5.3030807779,
				"element": "H" 
			},
			{
				"x": 0.0176515723,
				"y": -0.0257660412,
				"z": -3.8553758787,
				"element": "H" 
			},
			{
				"x": 1.2887903099,
				"y": -1.0900205152,
				"z": 3.0344969141,
				"element": "H" 
			},
			{
				"x": 1.8041815922,
				"y": -1.9074112863,
				"z": 1.5440622327,
				"element": "H" 
			},
			{
				"x": 0.2284114709,
				"y": -2.2655305803,
				"z": 2.2559001734,
				"element": "H" 
			},
			{
				"x": -2.199588071,
				"y": -1.3370266713,
				"z": 2.3702516324,
				"element": "H" 
			},
			{
				"x": -4.1472108996,
				"y": -0.4831486581,
				"z": 3.601638294,
				"element": "H" 
			},
			{
				"x": -4.4376706744,
				"y": 1.9632063305,
				"z": 3.9494079578,
				"element": "H" 
			},
			{
				"x": -2.7407047231,
				"y": 3.5433689274,
				"z": 3.0504643747,
				"element": "H" 
			},
			{
				"x": -0.7833072687,
				"y": 2.6955661552,
				"z": 1.8182819149,
				"element": "H" 
			},
			{
				"x": 2.8946179682,
				"y": 0.5095187266,
				"z": 2.1275731824,
				"element": "H" 
			},
			{
				"x": 4.543564064,
				"y": 2.2970358504,
				"z": 1.7651614544,
				"element": "H" 
			},
			{
				"x": 4.064719041,
				"y": 4.140124379,
				"z": 0.1659410338,
				"element": "H" 
			},
			{
				"x": 1.907125007,
				"y": 4.1657542684,
				"z": -1.072632987,
				"element": "H" 
			},
			{
				"x": 0.2553497732,
				"y": 2.3768487346,
				"z": -0.7249344358,
				"element": "H" 
			}
		],
		 "valence_orbital": [ 
			{
				"type": "occ",
				"energy": -0.24631,
				"method": "rhf"
			},
			{
				"type": "occ",
				"energy": -0.24504,
				"method": "rhf"
			},
			{
				"type": "occ",
				"energy": -0.2433,
				"method": "rhf"
			},
			{
				"type": "occ",
				"energy": -0.24236,
				"method": "rhf"
			},
			{
				"type": "occ",
				"energy": -0.22087,
				"method": "rhf"
			},
			{
				"type": "unocc",
				"energy": -0.02058,
				"method": "rhf"
			},
			{
				"type": "unocc",
				"energy": -0.0128,
				"method": "rhf"
			},
			{
				"type": "unocc",
				"energy": -0.01007,
				"method": "rhf"
			},
			{
				"type": "unocc",
				"energy": -0.00264,
				"method": "rhf"
			},
			{
				"type": "unocc",
				"energy": -0.00201,
				"method": "rhf"
			}
		],
		"cosmo_sigma_profile": { 
			"-0.025": 0.0,
			"-0.024": 0.0,
			"-0.023": 0.0,
			"-0.022": 0.0,
			"-0.021": 0.0,
			"-0.02": 0.0,
			"-0.019": 0.0,
			"-0.018": 0.0,
			"-0.017": 0.0,
			"-0.016": 0.0,
			"-0.015": 0.0,
			"-0.014": 0.0,
			"-0.013": 0.0,
			"-0.012": 0.0,
			"-0.011": 0.0,
			"-0.01": 0.0,
			"-0.009": 0.0,
			"-0.008": 0.0,
			"-0.007": 0.0,
			"-0.006": 8.83691724551,
			"-0.005": 28.9445625813,
			"-0.004": 40.6007639653,
			"-0.003": 57.1467207628,
			"-0.002": 42.5477228408,
			"-0.001": 41.6577069779,
			"0.0": 38.3795402768,
			"0.001": 40.5742099954,
			"0.002": 39.3571609518,
			"0.003": 36.1933105697,
			"0.004": 32.1491317253,
			"0.005": 31.5532698684,
			"0.006": 21.5956476862,
			"0.007": 2.09720132068,
			"0.008": 0.0,
			"0.009": 0.0,
			"0.01": 0.0,
			"0.011": 0.0,
			"0.012": 0.0,
			"0.013": 0.0,
			"0.014": 0.0,
			"0.015": 0.0,
			"0.016": 0.0,
			"0.017": 0.0,
			"0.018": 0.0,
			"0.019": 0.0,
			"0.02": 0.0,
			"0.021": 0.0,
			"0.022": 0.0,
			"0.023": 0.0,
			"0.024": 0.0,
			"0.025": 0.0
		}
	}
}
