{
	 "smiles": "BrC1=NN2C(S1)=NC(=CC2=O)C1=CC=CC=C1", 
	 "Tm": 487.15, 
	 "num_atms": 23, 
	 "gaussian": { 
		 "optdone": 1, 
		 "sigma_profile": "yes", 
		 "theory": "DFT", 
		 "functional": "B3LYP", 
		 "basiset": "6-31G**", 
		 "properties": { 
			 "R2extent": 10849.4424, 
			 "electric_dipole_moment_norm": 3.78006961576, 
			 "electric_quadrupole_moment_norm": 18.0513791977, 
			 "total_energy": -3631.82122024, 
			 "HOMO_LUMO_gap": 0.1588, 
			 "cosmo_polarized_energy": -13.03, 
			 "cosmo_cavitation_energy": 32.62, 
			 "cosmo_dispersion_energy": -25.19, 
			 "cosmo_repulsion_energy": 1.88, 
			 "cosmo_total_nonelectrostatic_energy": 9.31, 
			 "SMD_solvation_energy": 2.84 
		},
		"coords": [
			{
				"x": -4.1953838111,
				"y": -1.4272904886,
				"z": -5.1257315471,
				"element": "Br" 
			},
			{
				"x": -3.2025908606,
				"y": -1.0046187814,
				"z": -3.5907115067,
				"element": "C" 
			},
			{
				"x": -1.9205087435,
				"y": -1.0422566607,
				"z": -3.570958893,
				"element": "N" 
			},
			{
				"x": -1.4683331014,
				"y": -0.6891617978,
				"z": -2.32834472,
				"element": "N" 
			},
			{
				"x": -2.4101459882,
				"y": -0.372854375,
				"z": -1.3724092642,
				"element": "C" 
			},
			{
				"x": -4.0181056309,
				"y": -0.5342800373,
				"z": -2.0987858725,
				"element": "S" 
			},
			{
				"x": -2.1718827972,
				"y": -0.0227146657,
				"z": -0.1544182465,
				"element": "N" 
			},
			{
				"x": -0.8394301116,
				"y": 0.0408099105,
				"z": 0.2157757237,
				"element": "C" 
			},
			{
				"x": 0.1774920586,
				"y": -0.230328801,
				"z": -0.6716147985,
				"element": "C" 
			},
			{
				"x": -0.0451768116,
				"y": -0.6329267046,
				"z": -2.0396053779,
				"element": "C" 
			},
			{
				"x": 0.7718641904,
				"y": -0.9008273287,
				"z": -2.8961401344,
				"element": "O" 
			},
			{
				"x": -0.5948505548,
				"y": 0.4361943042,
				"z": 1.6239949399,
				"element": "C" 
			},
			{
				"x": -1.623379091,
				"y": 1.0431349861,
				"z": 2.3643472722,
				"element": "C" 
			},
			{
				"x": -1.4101351705,
				"y": 1.439191342,
				"z": 3.6829244969,
				"element": "C" 
			},
			{
				"x": -0.1708212723,
				"y": 1.2269901274,
				"z": 4.2894238694,
				"element": "C" 
			},
			{
				"x": 0.8546227107,
				"y": 0.6108645125,
				"z": 3.5679204361,
				"element": "C" 
			},
			{
				"x": 0.6454745665,
				"y": 0.2178447572,
				"z": 2.2485748406,
				"element": "C" 
			},
			{
				"x": 1.2178607119,
				"y": -0.1383461782,
				"z": -0.3900459855,
				"element": "H" 
			},
			{
				"x": -2.5848561926,
				"y": 1.1997992042,
				"z": 1.8896811964,
				"element": "H" 
			},
			{
				"x": -2.21411222,
				"y": 1.9136388802,
				"z": 4.2380877503,
				"element": "H" 
			},
			{
				"x": -0.005894602,
				"y": 1.5326403874,
				"z": 5.3185254216,
				"element": "H" 
			},
			{
				"x": 1.8173473219,
				"y": 0.4284325016,
				"z": 4.0361790255,
				"element": "H" 
			},
			{
				"x": 1.4457453994,
				"y": -0.2823350943,
				"z": 1.7133313738,
				"element": "H" 
			}
		],
		 "valence_orbital": [ 
			{
				"type": "occ",
				"energy": -0.29619,
				"method": "rhf"
			},
			{
				"type": "occ",
				"energy": -0.27051,
				"method": "rhf"
			},
			{
				"type": "occ",
				"energy": -0.26133,
				"method": "rhf"
			},
			{
				"type": "occ",
				"energy": -0.25378,
				"method": "rhf"
			},
			{
				"type": "occ",
				"energy": -0.2363,
				"method": "rhf"
			},
			{
				"type": "unocc",
				"energy": -0.0775,
				"method": "rhf"
			},
			{
				"type": "unocc",
				"energy": -0.04519,
				"method": "rhf"
			},
			{
				"type": "unocc",
				"energy": -0.0388,
				"method": "rhf"
			},
			{
				"type": "unocc",
				"energy": -0.02395,
				"method": "rhf"
			},
			{
				"type": "unocc",
				"energy": -0.02155,
				"method": "rhf"
			}
		],
		"cosmo_sigma_profile": { 
			"-0.025": 0.0,
			"-0.024": 0.0,
			"-0.023": 0.0,
			"-0.022": 0.0,
			"-0.021": 0.0,
			"-0.02": 0.0,
			"-0.019": 0.0,
			"-0.018": 0.0,
			"-0.017": 0.0,
			"-0.016": 0.0,
			"-0.015": 0.0,
			"-0.014": 0.0,
			"-0.013": 0.0,
			"-0.012": 0.0,
			"-0.011": 0.0,
			"-0.01": 0.0,
			"-0.009": 1.47009888237,
			"-0.008": 3.97301686329,
			"-0.007": 7.29153027215,
			"-0.006": 14.1495650889,
			"-0.005": 21.5182022299,
			"-0.004": 22.7721516518,
			"-0.003": 20.606710683,
			"-0.002": 22.0443470362,
			"-0.001": 20.6000112415,
			"0.0": 24.455246691,
			"0.001": 26.4716640095,
			"0.002": 17.9155121685,
			"0.003": 14.0027305653,
			"0.004": 15.0656597239,
			"0.005": 9.360486401,
			"0.006": 3.40754701172,
			"0.007": 3.21574293488,
			"0.008": 2.19238383255,
			"0.009": 2.80575646261,
			"0.01": 1.67498547143,
			"0.011": 3.35901430538,
			"0.012": 5.97032679907,
			"0.013": 4.42125622613,
			"0.014": 1.57491364738,
			"0.015": 0.169797771602,
			"0.016": 0.0,
			"0.017": 0.0,
			"0.018": 0.0,
			"0.019": 0.0,
			"0.02": 0.0,
			"0.021": 0.0,
			"0.022": 0.0,
			"0.023": 0.0,
			"0.024": 0.0,
			"0.025": 0.0
		}
	}
}
