{
	 "smiles": "ClC1=CC(C#N)=C(C=C1)N=C=O", 
	 "Tm": 346.15, 
	 "num_atms": 15, 
	 "gaussian": { 
		 "optdone": 1, 
		 "sigma_profile": "yes", 
		 "theory": "DFT", 
		 "functional": "B3LYP", 
		 "basiset": "6-31G**", 
		 "properties": { 
			 "R2extent": 2826.4318, 
			 "electric_dipole_moment_norm": 4.2286592154, 
			 "electric_quadrupole_moment_norm": 9.80642222679, 
			 "total_energy": -951.5555862, 
			 "HOMO_LUMO_gap": 0.18456, 
			 "cosmo_polarized_energy": -10.56, 
			 "cosmo_cavitation_energy": 24.6, 
			 "cosmo_dispersion_energy": -17.11, 
			 "cosmo_repulsion_energy": 1.38, 
			 "cosmo_total_nonelectrostatic_energy": 8.86, 
			 "SMD_solvation_energy": 7.77 
		},
		"coords": [
			{
				"x": 1.2548114949,
				"y": 2.883158997,
				"z": 0.9540453138,
				"element": "Cl" 
			},
			{
				"x": 0.605476468,
				"y": 1.3363191017,
				"z": 0.4560781489,
				"element": "C" 
			},
			{
				"x": 1.3064044914,
				"y": 0.560770975,
				"z": -0.4602423723,
				"element": "C" 
			},
			{
				"x": 0.7864879947,
				"y": -0.680078264,
				"z": -0.8603483765,
				"element": "C" 
			},
			{
				"x": 1.5113123707,
				"y": -1.4763226722,
				"z": -1.8045510322,
				"element": "C" 
			},
			{
				"x": 2.1194248889,
				"y": -2.1029086959,
				"z": -2.5724481686,
				"element": "N" 
			},
			{
				"x": -0.4420842556,
				"y": -1.1365216247,
				"z": -0.3337389403,
				"element": "C" 
			},
			{
				"x": -1.1280984528,
				"y": -0.3340429819,
				"z": 0.588837578,
				"element": "C" 
			},
			{
				"x": -0.6110591094,
				"y": 0.8948000811,
				"z": 0.9835786141,
				"element": "C" 
			},
			{
				"x": -0.922970051,
				"y": -2.3672394904,
				"z": -0.7531836393,
				"element": "N" 
			},
			{
				"x": -1.8719717164,
				"y": -3.0993963563,
				"z": -0.5723624547,
				"element": "C" 
			},
			{
				"x": -2.7325767404,
				"y": -3.8943362622,
				"z": -0.4860550662,
				"element": "O" 
			},
			{
				"x": 2.2492201697,
				"y": 0.9046472483,
				"z": -0.8681844535,
				"element": "H" 
			},
			{
				"x": -2.0724312788,
				"y": -0.6807872619,
				"z": 0.9959738649,
				"element": "H" 
			},
			{
				"x": -1.147546274,
				"y": 1.5097372063,
				"z": 1.6974009837,
				"element": "H" 
			}
		],
		 "valence_orbital": [ 
			{
				"type": "occ",
				"energy": -0.33555,
				"method": "rhf"
			},
			{
				"type": "occ",
				"energy": -0.33252,
				"method": "rhf"
			},
			{
				"type": "occ",
				"energy": -0.32986,
				"method": "rhf"
			},
			{
				"type": "occ",
				"energy": -0.29136,
				"method": "rhf"
			},
			{
				"type": "occ",
				"energy": -0.25866,
				"method": "rhf"
			},
			{
				"type": "unocc",
				"energy": -0.0741,
				"method": "rhf"
			},
			{
				"type": "unocc",
				"energy": -0.05581,
				"method": "rhf"
			},
			{
				"type": "unocc",
				"energy": -0.01658,
				"method": "rhf"
			},
			{
				"type": "unocc",
				"energy": 0.00926,
				"method": "rhf"
			},
			{
				"type": "unocc",
				"energy": 0.02684,
				"method": "rhf"
			}
		],
		"cosmo_sigma_profile": { 
			"-0.025": 0.0,
			"-0.024": 0.0,
			"-0.023": 0.0,
			"-0.022": 0.0,
			"-0.021": 0.0,
			"-0.02": 0.0,
			"-0.019": 0.0,
			"-0.018": 0.0,
			"-0.017": 0.0,
			"-0.016": 0.0,
			"-0.015": 0.0,
			"-0.014": 0.0,
			"-0.013": 0.0,
			"-0.012": 0.0,
			"-0.011": 0.0,
			"-0.01": 2.46706977847,
			"-0.009": 6.14379986544,
			"-0.008": 6.9667697109,
			"-0.007": 7.29117254452,
			"-0.006": 6.1637134363,
			"-0.005": 7.46065076231,
			"-0.004": 10.3382925332,
			"-0.003": 13.6315426061,
			"-0.002": 18.1843612473,
			"-0.001": 21.0784648272,
			"0.0": 19.801571339,
			"0.001": 13.50031055,
			"0.002": 9.58319979514,
			"0.003": 11.645607984,
			"0.004": 12.3858540743,
			"0.005": 6.47479798504,
			"0.006": 9.02706027377,
			"0.007": 6.62393859374,
			"0.008": 3.73134164283,
			"0.009": 3.07609614504,
			"0.01": 3.12475356656,
			"0.011": 2.2505060096,
			"0.012": 2.22359553919,
			"0.013": 0.526000599124,
			"0.014": 0.0,
			"0.015": 0.0,
			"0.016": 0.0,
			"0.017": 0.0,
			"0.018": 0.0,
			"0.019": 0.0,
			"0.02": 0.0,
			"0.021": 0.0,
			"0.022": 0.0,
			"0.023": 0.0,
			"0.024": 0.0,
			"0.025": 0.0
		}
	}
}
