{
	 "smiles": "CC1=CC=CC=C1C1=CC=CC=C1", 
	 "Tm": 273.05, 
	 "num_atms": 25, 
	 "gaussian": { 
		 "optdone": 1, 
		 "sigma_profile": "yes", 
		 "theory": "DFT", 
		 "functional": "B3LYP", 
		 "basiset": "6-31G**", 
		 "properties": { 
			 "R2extent": 3114.9205, 
			 "electric_dipole_moment_norm": 0.353507878271, 
			 "electric_quadrupole_moment_norm": 4.01767134918, 
			 "total_energy": -502.626690147, 
			 "HOMO_LUMO_gap": 0.23078, 
			 "cosmo_polarized_energy": -4.57, 
			 "cosmo_cavitation_energy": 28.34, 
			 "cosmo_dispersion_energy": -20.09, 
			 "cosmo_repulsion_energy": 1.6, 
			 "cosmo_total_nonelectrostatic_energy": 9.85, 
			 "SMD_solvation_energy": 4.76 
		},
		"coords": [
			{
				"x": 0.7545293861,
				"y": 0.9570915705,
				"z": 1.5769593761,
				"element": "C" 
			},
			{
				"x": -0.0133128784,
				"y": 1.287591381,
				"z": 0.3164084432,
				"element": "C" 
			},
			{
				"x": -1.1561457207,
				"y": 2.0941563233,
				"z": 0.377669028,
				"element": "C" 
			},
			{
				"x": -1.8844574918,
				"y": 2.4157790909,
				"z": -0.7680403204,
				"element": "C" 
			},
			{
				"x": -1.4733372284,
				"y": 1.9278242496,
				"z": -2.0077644286,
				"element": "C" 
			},
			{
				"x": -0.3367684278,
				"y": 1.1228380893,
				"z": -2.0862632946,
				"element": "C" 
			},
			{
				"x": 0.4005345188,
				"y": 0.7950531577,
				"z": -0.9404586234,
				"element": "C" 
			},
			{
				"x": 1.6140345344,
				"y": -0.0720240787,
				"z": -1.0737347723,
				"element": "C" 
			},
			{
				"x": 2.8772009393,
				"y": 0.4930950383,
				"z": -1.3047704018,
				"element": "C" 
			},
			{
				"x": 4.0069476289,
				"y": -0.3150300791,
				"z": -1.44166803,
				"element": "C" 
			},
			{
				"x": 3.8915073117,
				"y": -1.7033640023,
				"z": -1.3500756794,
				"element": "C" 
			},
			{
				"x": 2.6396487188,
				"y": -2.2779720086,
				"z": -1.1222971787,
				"element": "C" 
			},
			{
				"x": 1.5108882767,
				"y": -1.468431004,
				"z": -0.9856445143,
				"element": "C" 
			},
			{
				"x": 0.290145361,
				"y": 1.4225660949,
				"z": 2.4508373634,
				"element": "H" 
			},
			{
				"x": 0.7969428381,
				"y": -0.1234735337,
				"z": 1.7506945685,
				"element": "H" 
			},
			{
				"x": 1.7917801741,
				"y": 1.3040172449,
				"z": 1.5190103816,
				"element": "H" 
			},
			{
				"x": -1.4782844666,
				"y": 2.4755982859,
				"z": 1.3435523341,
				"element": "H" 
			},
			{
				"x": -2.7674702285,
				"y": 3.0439301395,
				"z": -0.690335112,
				"element": "H" 
			},
			{
				"x": -2.0306415696,
				"y": 2.1700426969,
				"z": -2.9081171706,
				"element": "H" 
			},
			{
				"x": -0.0088814582,
				"y": 0.7380601117,
				"z": -3.0481481379,
				"element": "H" 
			},
			{
				"x": 2.9692004021,
				"y": 1.5731836473,
				"z": -1.3807455646,
				"element": "H" 
			},
			{
				"x": 4.9766004504,
				"y": 0.1406592912,
				"z": -1.622260457,
				"element": "H" 
			},
			{
				"x": 4.7702391012,
				"y": -2.3329197371,
				"z": -1.4574265141,
				"element": "H" 
			},
			{
				"x": 2.5398412516,
				"y": -3.3576666521,
				"z": -1.0530953534,
				"element": "H" 
			},
			{
				"x": 0.5370585771,
				"y": -1.9185053172,
				"z": -0.8126859418,
				"element": "H" 
			}
		],
		 "valence_orbital": [ 
			{
				"type": "occ",
				"energy": -0.32253,
				"method": "rhf"
			},
			{
				"type": "occ",
				"energy": -0.24882,
				"method": "rhf"
			},
			{
				"type": "occ",
				"energy": -0.24394,
				"method": "rhf"
			},
			{
				"type": "occ",
				"energy": -0.24218,
				"method": "rhf"
			},
			{
				"type": "occ",
				"energy": -0.23497,
				"method": "rhf"
			},
			{
				"type": "unocc",
				"energy": -0.00419,
				"method": "rhf"
			},
			{
				"type": "unocc",
				"energy": 0.00014,
				"method": "rhf"
			},
			{
				"type": "unocc",
				"energy": 0.00216,
				"method": "rhf"
			},
			{
				"type": "unocc",
				"energy": 0.01075,
				"method": "rhf"
			},
			{
				"type": "unocc",
				"energy": 0.09399,
				"method": "rhf"
			}
		],
		"cosmo_sigma_profile": { 
			"-0.025": 0.0,
			"-0.024": 0.0,
			"-0.023": 0.0,
			"-0.022": 0.0,
			"-0.021": 0.0,
			"-0.02": 0.0,
			"-0.019": 0.0,
			"-0.018": 0.0,
			"-0.017": 0.0,
			"-0.016": 0.0,
			"-0.015": 0.0,
			"-0.014": 0.0,
			"-0.013": 0.0,
			"-0.012": 0.0,
			"-0.011": 0.0,
			"-0.01": 0.0,
			"-0.009": 0.0,
			"-0.008": 0.0,
			"-0.007": 0.0,
			"-0.006": 4.27703912635,
			"-0.005": 17.6093858007,
			"-0.004": 21.0012097861,
			"-0.003": 24.7858144269,
			"-0.002": 19.4559585115,
			"-0.001": 21.8111445928,
			"0.0": 20.4536874099,
			"0.001": 20.0394638434,
			"0.002": 15.5288569801,
			"0.003": 14.5307263271,
			"0.004": 14.684758956,
			"0.005": 14.229078259,
			"0.006": 14.7710249791,
			"0.007": 2.78781642402,
			"0.008": 0.0,
			"0.009": 0.0,
			"0.01": 0.0,
			"0.011": 0.0,
			"0.012": 0.0,
			"0.013": 0.0,
			"0.014": 0.0,
			"0.015": 0.0,
			"0.016": 0.0,
			"0.017": 0.0,
			"0.018": 0.0,
			"0.019": 0.0,
			"0.02": 0.0,
			"0.021": 0.0,
			"0.022": 0.0,
			"0.023": 0.0,
			"0.024": 0.0,
			"0.025": 0.0
		}
	}
}
