{
	 "smiles": "NC1=CC2=C(C=C1)N=C(CN1CCOCC1)N2", 
	 "Tm": 434.15, 
	 "num_atms": 33, 
	 "gaussian": { 
		 "optdone": 1, 
		 "sigma_profile": "yes", 
		 "theory": "DFT", 
		 "functional": "B3LYP", 
		 "basiset": "6-31G**", 
		 "properties": { 
			 "R2extent": 5166.9909, 
			 "electric_dipole_moment_norm": 3.6493167155, 
			 "electric_quadrupole_moment_norm": 20.177193034, 
			 "total_energy": -761.129864436, 
			 "HOMO_LUMO_gap": 0.17931, 
			 "cosmo_polarized_energy": -20.08, 
			 "cosmo_cavitation_energy": 34.82, 
			 "cosmo_dispersion_energy": -25.35, 
			 "cosmo_repulsion_energy": 1.97, 
			 "cosmo_total_nonelectrostatic_energy": 11.44, 
			 "SMD_solvation_energy": 1.22 
		},
		"coords": [
			{
				"x": 1.6038976245,
				"y": 4.9499455317,
				"z": 1.0329235924,
				"element": "N" 
			},
			{
				"x": 1.6210617244,
				"y": 3.6475112355,
				"z": 0.5150884846,
				"element": "C" 
			},
			{
				"x": 0.893634554,
				"y": 2.6260296577,
				"z": 1.1387354895,
				"element": "C" 
			},
			{
				"x": 1.0087099128,
				"y": 1.3428145723,
				"z": 0.6025141973,
				"element": "C" 
			},
			{
				"x": 1.8124059733,
				"y": 1.0433129227,
				"z": -0.5222658121,
				"element": "C" 
			},
			{
				"x": 2.5339664376,
				"y": 2.0759940934,
				"z": -1.1339963762,
				"element": "C" 
			},
			{
				"x": 2.4317294126,
				"y": 3.3581189807,
				"z": -0.6135645605,
				"element": "C" 
			},
			{
				"x": 1.7384241447,
				"y": -0.3105763154,
				"z": -0.8268045171,
				"element": "N" 
			},
			{
				"x": 0.9250213602,
				"y": -0.8252526421,
				"z": 0.0658285761,
				"element": "C" 
			},
			{
				"x": 0.4836948498,
				"y": -2.2676655532,
				"z": 0.0978161071,
				"element": "C" 
			},
			{
				"x": -0.679236421,
				"y": -2.6053172875,
				"z": -0.7230456633,
				"element": "N" 
			},
			{
				"x": -1.9498749891,
				"y": -2.0816455652,
				"z": -0.2267563373,
				"element": "C" 
			},
			{
				"x": -3.0497785663,
				"y": -2.387824658,
				"z": -1.2378070392,
				"element": "C" 
			},
			{
				"x": -2.838995692,
				"y": -1.7397034469,
				"z": -2.4902798783,
				"element": "O" 
			},
			{
				"x": -1.4768243949,
				"y": -1.4055923882,
				"z": -2.7574973836,
				"element": "C" 
			},
			{
				"x": -0.4980818979,
				"y": -2.426116681,
				"z": -2.1799534789,
				"element": "C" 
			},
			{
				"x": 0.4468433254,
				"y": 0.1288312881,
				"z": 0.9538021414,
				"element": "N" 
			},
			{
				"x": 0.7768253896,
				"y": 5.180939699,
				"z": 1.5669322058,
				"element": "H" 
			},
			{
				"x": 1.8138368011,
				"y": 5.6711877625,
				"z": 0.3560148365,
				"element": "H" 
			},
			{
				"x": 0.273802574,
				"y": 2.83497562,
				"z": 2.0065499671,
				"element": "H" 
			},
			{
				"x": 3.1573742484,
				"y": 1.8712460194,
				"z": -1.9985305331,
				"element": "H" 
			},
			{
				"x": 2.9898630972,
				"y": 4.1706691552,
				"z": -1.0718156523,
				"element": "H" 
			},
			{
				"x": 1.3308316373,
				"y": -2.8718745068,
				"z": -0.2397044091,
				"element": "H" 
			},
			{
				"x": 0.2629274877,
				"y": -2.5661627292,
				"z": 1.1312894183,
				"element": "H" 
			},
			{
				"x": -2.1899741688,
				"y": -2.5676228037,
				"z": 0.7295390938,
				"element": "H" 
			},
			{
				"x": -1.9371572057,
				"y": -0.9910807493,
				"z": -0.0412730625,
				"element": "H" 
			},
			{
				"x": -4.0193123561,
				"y": -2.0477344749,
				"z": -0.8563813516,
				"element": "H" 
			},
			{
				"x": -3.1057616507,
				"y": -3.4780184722,
				"z": -1.3820912737,
				"element": "H" 
			},
			{
				"x": -1.2443914746,
				"y": -0.4055277551,
				"z": -2.3612337926,
				"element": "H" 
			},
			{
				"x": -1.3764373989,
				"y": -1.3597414585,
				"z": -3.8470150575,
				"element": "H" 
			},
			{
				"x": 0.5202453686,
				"y": -2.0849994227,
				"z": -2.390145418,
				"element": "H" 
			},
			{
				"x": -0.6426096797,
				"y": -3.3906951425,
				"z": -2.6871457325,
				"element": "H" 
			},
			{
				"x": -0.1622600275,
				"y": -0.0467244861,
				"z": 1.7373732194,
				"element": "H" 
			}
		],
		 "valence_orbital": [ 
			{
				"type": "occ",
				"energy": -0.26634,
				"method": "rhf"
			},
			{
				"type": "occ",
				"energy": -0.24027,
				"method": "rhf"
			},
			{
				"type": "occ",
				"energy": -0.22354,
				"method": "rhf"
			},
			{
				"type": "occ",
				"energy": -0.20765,
				"method": "rhf"
			},
			{
				"type": "occ",
				"energy": -0.18727,
				"method": "rhf"
			},
			{
				"type": "unocc",
				"energy": -0.00796,
				"method": "rhf"
			},
			{
				"type": "unocc",
				"energy": 0.0305,
				"method": "rhf"
			},
			{
				"type": "unocc",
				"energy": 0.056,
				"method": "rhf"
			},
			{
				"type": "unocc",
				"energy": 0.07117,
				"method": "rhf"
			},
			{
				"type": "unocc",
				"energy": 0.08362,
				"method": "rhf"
			}
		],
		"cosmo_sigma_profile": { 
			"-0.025": 0.0,
			"-0.024": 0.0,
			"-0.023": 0.0,
			"-0.022": 0.0,
			"-0.021": 0.0,
			"-0.02": 0.0,
			"-0.019": 0.0,
			"-0.018": 0.0,
			"-0.017": 0.0,
			"-0.016": 0.363659608716,
			"-0.015": 1.23313644105,
			"-0.014": 1.43469324194,
			"-0.013": 0.889084185184,
			"-0.012": 3.18094238363,
			"-0.011": 4.46458603639,
			"-0.01": 4.37245620263,
			"-0.009": 4.42913929375,
			"-0.008": 5.02173150904,
			"-0.007": 5.7849225086,
			"-0.006": 7.38767820502,
			"-0.005": 15.1582477778,
			"-0.004": 19.5997459874,
			"-0.003": 27.0320080941,
			"-0.002": 28.815779422,
			"-0.001": 19.9574352838,
			"0.0": 13.9756167788,
			"0.001": 11.0177983612,
			"0.002": 10.443974486,
			"0.003": 10.9122764994,
			"0.004": 11.9440249705,
			"0.005": 12.4925756966,
			"0.006": 15.6846987738,
			"0.007": 8.40475343004,
			"0.008": 4.92111865276,
			"0.009": 4.87213077876,
			"0.01": 2.70025981933,
			"0.011": 3.19991927544,
			"0.012": 3.58224881208,
			"0.013": 3.36773295647,
			"0.014": 3.64552078165,
			"0.015": 1.47109941777,
			"0.016": 0.665163369855,
			"0.017": 0.849018053963,
			"0.018": 0.122560454602,
			"0.019": 0.0,
			"0.02": 0.0,
			"0.021": 0.0,
			"0.022": 0.0,
			"0.023": 0.0,
			"0.024": 0.0,
			"0.025": 0.0
		}
	}
}
