{
	 "smiles": "CC1=NN(C(C)=C1N)C1=C(F)C=CC=C1", 
	 "Tm": 333.15, 
	 "num_atms": 27, 
	 "gaussian": { 
		 "optdone": 1, 
		 "sigma_profile": "yes", 
		 "theory": "DFT", 
		 "functional": "B3LYP", 
		 "basiset": "6-31G**", 
		 "properties": { 
			 "R2extent": 3783.6993, 
			 "electric_dipole_moment_norm": 3.08836715596, 
			 "electric_quadrupole_moment_norm": 13.5854262462, 
			 "total_energy": -690.473957708, 
			 "HOMO_LUMO_gap": 0.17002, 
			 "cosmo_polarized_energy": -13.92, 
			 "cosmo_cavitation_energy": 31.12, 
			 "cosmo_dispersion_energy": -22.01, 
			 "cosmo_repulsion_energy": 1.72, 
			 "cosmo_total_nonelectrostatic_energy": 10.83, 
			 "SMD_solvation_energy": 4.99 
		},
		"coords": [
			{
				"x": 3.1111048014,
				"y": -0.9993933271,
				"z": -1.0717774536,
				"element": "C" 
			},
			{
				"x": 1.7544759746,
				"y": -0.8036774685,
				"z": -0.4717956656,
				"element": "C" 
			},
			{
				"x": 1.5742997858,
				"y": -0.0275792073,
				"z": 0.5917717392,
				"element": "N" 
			},
			{
				"x": 0.2444090676,
				"y": -0.0949837775,
				"z": 0.8651890844,
				"element": "N" 
			},
			{
				"x": -0.4371980445,
				"y": -0.9001477622,
				"z": -0.0314908583,
				"element": "C" 
			},
			{
				"x": -1.9161939499,
				"y": -1.1156034162,
				"z": -0.0200423228,
				"element": "C" 
			},
			{
				"x": 0.5243712904,
				"y": -1.3739044765,
				"z": -0.9058981219,
				"element": "C" 
			},
			{
				"x": 0.3711285716,
				"y": -2.2849334226,
				"z": -1.968999783,
				"element": "N" 
			},
			{
				"x": -0.2742492158,
				"y": 0.5961949007,
				"z": 1.983931887,
				"element": "C" 
			},
			{
				"x": -0.0365542654,
				"y": 1.9686751923,
				"z": 2.1458107381,
				"element": "C" 
			},
			{
				"x": 0.660103719,
				"y": 2.6366142697,
				"z": 1.2134927153,
				"element": "F" 
			},
			{
				"x": -0.5234658619,
				"y": 2.6651139513,
				"z": 3.2448799726,
				"element": "C" 
			},
			{
				"x": -1.2840336584,
				"y": 1.992554705,
				"z": 4.2024909294,
				"element": "C" 
			},
			{
				"x": -1.543274122,
				"y": 0.6289281961,
				"z": 4.0557718443,
				"element": "C" 
			},
			{
				"x": -1.0308734143,
				"y": -0.0641400304,
				"z": 2.9592256144,
				"element": "C" 
			},
			{
				"x": 3.86105634,
				"y": -0.4883857058,
				"z": -0.4643114096,
				"element": "H" 
			},
			{
				"x": 3.3693521899,
				"y": -2.0631567124,
				"z": -1.1291886278,
				"element": "H" 
			},
			{
				"x": 3.1702321415,
				"y": -0.5953718155,
				"z": -2.0910858502,
				"element": "H" 
			},
			{
				"x": -2.4482964512,
				"y": -0.2293953896,
				"z": 0.3378972413,
				"element": "H" 
			},
			{
				"x": -2.2705855577,
				"y": -1.3228631143,
				"z": -1.0362002693,
				"element": "H" 
			},
			{
				"x": -2.2252316455,
				"y": -1.9608668425,
				"z": 0.6080923547,
				"element": "H" 
			},
			{
				"x": -0.5998202417,
				"y": -2.4504046474,
				"z": -2.2083958401,
				"element": "H" 
			},
			{
				"x": 0.8710309218,
				"y": -1.9948000199,
				"z": -2.8028239383,
				"element": "H" 
			},
			{
				"x": -0.3098093373,
				"y": 3.7256332703,
				"z": 3.3241035273,
				"element": "H" 
			},
			{
				"x": -1.6698920099,
				"y": 2.5354425665,
				"z": 5.0597281644,
				"element": "H" 
			},
			{
				"x": -2.1273125386,
				"y": 0.0990888405,
				"z": 4.8015676866,
				"element": "H" 
			},
			{
				"x": -1.1964744896,
				"y": -1.1311387568,
				"z": 2.8543566413,
				"element": "H" 
			}
		],
		 "valence_orbital": [ 
			{
				"type": "occ",
				"energy": -0.27157,
				"method": "rhf"
			},
			{
				"type": "occ",
				"energy": -0.26699,
				"method": "rhf"
			},
			{
				"type": "occ",
				"energy": -0.24907,
				"method": "rhf"
			},
			{
				"type": "occ",
				"energy": -0.22272,
				"method": "rhf"
			},
			{
				"type": "occ",
				"energy": -0.1879,
				"method": "rhf"
			},
			{
				"type": "unocc",
				"energy": -0.01788,
				"method": "rhf"
			},
			{
				"type": "unocc",
				"energy": -0.00319,
				"method": "rhf"
			},
			{
				"type": "unocc",
				"energy": 0.03805,
				"method": "rhf"
			},
			{
				"type": "unocc",
				"energy": 0.06701,
				"method": "rhf"
			},
			{
				"type": "unocc",
				"energy": 0.08313,
				"method": "rhf"
			}
		],
		"cosmo_sigma_profile": { 
			"-0.025": 0.0,
			"-0.024": 0.0,
			"-0.023": 0.0,
			"-0.022": 0.0,
			"-0.021": 0.0,
			"-0.02": 0.0,
			"-0.019": 0.0,
			"-0.018": 0.0,
			"-0.017": 0.0,
			"-0.016": 0.0,
			"-0.015": 0.0,
			"-0.014": 0.0,
			"-0.013": 0.0,
			"-0.012": 0.21563022466,
			"-0.011": 2.46362107189,
			"-0.01": 2.82191989417,
			"-0.009": 3.03807623291,
			"-0.008": 4.07514107614,
			"-0.007": 6.87650329996,
			"-0.006": 12.3198002485,
			"-0.005": 15.8450344792,
			"-0.004": 18.0720329957,
			"-0.003": 17.9114862468,
			"-0.002": 18.8567813075,
			"-0.001": 19.714949586,
			"0.0": 20.32411522,
			"0.001": 16.5607119983,
			"0.002": 14.1478404509,
			"0.003": 16.1448250663,
			"0.004": 18.8176090354,
			"0.005": 9.9608742536,
			"0.006": 5.97233825789,
			"0.007": 4.05451613641,
			"0.008": 3.14056992751,
			"0.009": 1.74457877439,
			"0.01": 3.57275044683,
			"0.011": 1.83069526885,
			"0.012": 2.24244453118,
			"0.013": 1.95809731275,
			"0.014": 1.32607354183,
			"0.015": 1.61446785893,
			"0.016": 1.34506782533,
			"0.017": 0.240851603126,
			"0.018": 0.0,
			"0.019": 0.0,
			"0.02": 0.0,
			"0.021": 0.0,
			"0.022": 0.0,
			"0.023": 0.0,
			"0.024": 0.0,
			"0.025": 0.0
		}
	}
}
