{
	 "smiles": "COC1=C(OCC(=O)N2CCOCC2)C=CC(C=O)=C1", 
	 "Tm": 372.15, 
	 "num_atms": 37, 
	 "gaussian": { 
		 "optdone": 1, 
		 "sigma_profile": "yes", 
		 "theory": "DFT", 
		 "functional": "B3LYP", 
		 "basiset": "6-31G**", 
		 "properties": { 
			 "R2extent": 8124.1116, 
			 "electric_dipole_moment_norm": 1.5063469753, 
			 "electric_quadrupole_moment_norm": 30.0343355605, 
			 "total_energy": -974.556508521, 
			 "HOMO_LUMO_gap": 0.17293, 
			 "cosmo_polarized_energy": -18.12, 
			 "cosmo_cavitation_energy": 40.07, 
			 "cosmo_dispersion_energy": -27.91, 
			 "cosmo_repulsion_energy": 2.15, 
			 "cosmo_total_nonelectrostatic_energy": 14.31, 
			 "SMD_solvation_energy": 8.56 
		},
		"coords": [
			{
				"x": 1.4317717093,
				"y": 0.7217943858,
				"z": -3.2541505565,
				"element": "C" 
			},
			{
				"x": 0.6564838019,
				"y": 0.7967867078,
				"z": -2.061297664,
				"element": "O" 
			},
			{
				"x": 1.2703264895,
				"y": 1.2521776758,
				"z": -0.9284569708,
				"element": "C" 
			},
			{
				"x": 0.4648809039,
				"y": 1.3011083101,
				"z": 0.239889321,
				"element": "C" 
			},
			{
				"x": -0.837691986,
				"y": 0.8755979921,
				"z": 0.2301199023,
				"element": "O" 
			},
			{
				"x": -1.763939667,
				"y": 1.6596846759,
				"z": -0.5431697346,
				"element": "C" 
			},
			{
				"x": -3.1627231845,
				"y": 1.0472121734,
				"z": -0.4747114685,
				"element": "C" 
			},
			{
				"x": -4.1244442331,
				"y": 1.7696115873,
				"z": -0.2233542242,
				"element": "O" 
			},
			{
				"x": -3.3053155065,
				"y": -0.2848983304,
				"z": -0.7330530845,
				"element": "N" 
			},
			{
				"x": -4.6602386088,
				"y": -0.846540289,
				"z": -0.641493361,
				"element": "C" 
			},
			{
				"x": -4.5758867541,
				"y": -2.3599888702,
				"z": -0.4902059364,
				"element": "C" 
			},
			{
				"x": -3.8998653108,
				"y": -2.9913052323,
				"z": -1.5750644374,
				"element": "O" 
			},
			{
				"x": -2.8345635493,
				"y": -2.2261072382,
				"z": -2.1336995012,
				"element": "C" 
			},
			{
				"x": -2.2468086391,
				"y": -1.2087018067,
				"z": -1.1585081138,
				"element": "C" 
			},
			{
				"x": 1.0162955937,
				"y": 1.7180888976,
				"z": 1.4493292185,
				"element": "C" 
			},
			{
				"x": 2.3559119217,
				"y": 2.0987891534,
				"z": 1.5230670615,
				"element": "C" 
			},
			{
				"x": 3.1457639127,
				"y": 2.0692728449,
				"z": 0.3717144791,
				"element": "C" 
			},
			{
				"x": 4.5646472127,
				"y": 2.4763666764,
				"z": 0.4312189422,
				"element": "C" 
			},
			{
				"x": 5.3239698213,
				"y": 2.4784515856,
				"z": -0.5207636017,
				"element": "O" 
			},
			{
				"x": 2.601013634,
				"y": 1.6451230873,
				"z": -0.8529874041,
				"element": "C" 
			},
			{
				"x": 2.2792515991,
				"y": 0.0365232676,
				"z": -3.1358060636,
				"element": "H" 
			},
			{
				"x": 0.7603144333,
				"y": 0.3398148404,
				"z": -4.0238380295,
				"element": "H" 
			},
			{
				"x": 1.8038994272,
				"y": 1.7089764179,
				"z": -3.5521775761,
				"element": "H" 
			},
			{
				"x": -1.847806133,
				"y": 2.6661804672,
				"z": -0.1242673309,
				"element": "H" 
			},
			{
				"x": -1.4305672392,
				"y": 1.728971659,
				"z": -1.5851719593,
				"element": "H" 
			},
			{
				"x": -5.1701855324,
				"y": -0.3972429039,
				"z": 0.2149898459,
				"element": "H" 
			},
			{
				"x": -5.2431169579,
				"y": -0.5844207979,
				"z": -1.5346466835,
				"element": "H" 
			},
			{
				"x": -4.0828998744,
				"y": -2.6071111475,
				"z": 0.4630841656,
				"element": "H" 
			},
			{
				"x": -5.5837362648,
				"y": -2.7852745667,
				"z": -0.460729051,
				"element": "H" 
			},
			{
				"x": -3.1856399902,
				"y": -1.7009586841,
				"z": -3.035842154,
				"element": "H" 
			},
			{
				"x": -2.0553486588,
				"y": -2.9329551587,
				"z": -2.4403791634,
				"element": "H" 
			},
			{
				"x": -1.4378168181,
				"y": -0.6614680004,
				"z": -1.6442431768,
				"element": "H" 
			},
			{
				"x": -1.8097712611,
				"y": -1.7251112299,
				"z": -0.2945597719,
				"element": "H" 
			},
			{
				"x": 0.3713409701,
				"y": 1.7308164055,
				"z": 2.3216220742,
				"element": "H" 
			},
			{
				"x": 2.7830493146,
				"y": 2.424192667,
				"z": 2.4678323484,
				"element": "H" 
			},
			{
				"x": 4.9122671455,
				"y": 2.7935196007,
				"z": 1.4392926113,
				"element": "H" 
			},
			{
				"x": 3.2576782789,
				"y": 1.6281231772,
				"z": -1.7145829511,
				"element": "H" 
			}
		],
		 "valence_orbital": [ 
			{
				"type": "occ",
				"energy": -0.25837,
				"method": "rhf"
			},
			{
				"type": "occ",
				"energy": -0.25703,
				"method": "rhf"
			},
			{
				"type": "occ",
				"energy": -0.2489,
				"method": "rhf"
			},
			{
				"type": "occ",
				"energy": -0.23956,
				"method": "rhf"
			},
			{
				"type": "occ",
				"energy": -0.23853,
				"method": "rhf"
			},
			{
				"type": "unocc",
				"energy": -0.0656,
				"method": "rhf"
			},
			{
				"type": "unocc",
				"energy": -0.01167,
				"method": "rhf"
			},
			{
				"type": "unocc",
				"energy": 0.0135,
				"method": "rhf"
			},
			{
				"type": "unocc",
				"energy": 0.03878,
				"method": "rhf"
			},
			{
				"type": "unocc",
				"energy": 0.06988,
				"method": "rhf"
			}
		],
		"cosmo_sigma_profile": { 
			"-0.025": 0.0,
			"-0.024": 0.0,
			"-0.023": 0.0,
			"-0.022": 0.0,
			"-0.021": 0.0,
			"-0.02": 0.0,
			"-0.019": 0.0,
			"-0.018": 0.0,
			"-0.017": 0.0,
			"-0.016": 0.0,
			"-0.015": 0.0,
			"-0.014": 0.0,
			"-0.013": 0.0,
			"-0.012": 0.0,
			"-0.011": 0.0,
			"-0.01": 0.0,
			"-0.009": 0.0,
			"-0.008": 0.699964012459,
			"-0.007": 7.76887681434,
			"-0.006": 21.5558278803,
			"-0.005": 35.0641585984,
			"-0.004": 42.6724231425,
			"-0.003": 30.5423989844,
			"-0.002": 21.3919420871,
			"-0.001": 18.9322726729,
			"0.0": 16.3025726049,
			"0.001": 20.3353473811,
			"0.002": 20.1652736446,
			"0.003": 15.5888472255,
			"0.004": 8.9806758121,
			"0.005": 6.88984937283,
			"0.006": 4.65077948568,
			"0.007": 4.71289673474,
			"0.008": 5.93624864241,
			"0.009": 3.77525631561,
			"0.01": 4.86023085652,
			"0.011": 7.42981247221,
			"0.012": 6.3464038626,
			"0.013": 6.41598706207,
			"0.014": 5.030797799,
			"0.015": 0.62298886181,
			"0.016": 0.0,
			"0.017": 0.0,
			"0.018": 0.0,
			"0.019": 0.0,
			"0.02": 0.0,
			"0.021": 0.0,
			"0.022": 0.0,
			"0.023": 0.0,
			"0.024": 0.0,
			"0.0": 0.0
		}
	}
}
