{
	 "smiles": "CC1=NC(=CS1)C1=CC=C(S1)C(Cl)=O", 
	 "Tm": 383.15, 
	 "num_atms": 20, 
	 "gaussian": { 
		 "optdone": 1, 
		 "sigma_profile": "yes", 
		 "theory": "DFT", 
		 "functional": "B3LYP", 
		 "basiset": "6-31G**", 
		 "properties": { 
			 "R2extent": 5846.7655, 
			 "electric_dipole_moment_norm": 6.60918694092, 
			 "electric_quadrupole_moment_norm": 20.3381326392, 
			 "total_energy": -1733.11430533, 
			 "HOMO_LUMO_gap": 0.1448, 
			 "cosmo_polarized_energy": -10.89, 
			 "cosmo_cavitation_energy": 30.55, 
			 "cosmo_dispersion_energy": -23.35, 
			 "cosmo_repulsion_energy": 1.75, 
			 "cosmo_total_nonelectrostatic_energy": 8.95, 
			 "SMD_solvation_energy": 4.25 
		},
		"coords": [
			{
				"x": -0.4291650645,
				"y": 2.8209306787,
				"z": 2.1157737977,
				"element": "C" 
			},
			{
				"x": -0.6730137033,
				"y": 1.3963450042,
				"z": 1.7250300633,
				"element": "C" 
			},
			{
				"x": -0.0751171389,
				"y": 0.7891727491,
				"z": 0.7460503814,
				"element": "N" 
			},
			{
				"x": -0.4944740328,
				"y": -0.5238441258,
				"z": 0.6111350852,
				"element": "C" 
			},
			{
				"x": -1.4433295055,
				"y": -0.9240244822,
				"z": 1.5204357077,
				"element": "C" 
			},
			{
				"x": -1.8330551929,
				"y": 0.3778618317,
				"z": 2.5869805791,
				"element": "S" 
			},
			{
				"x": 0.089177254,
				"y": -1.334116887,
				"z": -0.4475722671,
				"element": "C" 
			},
			{
				"x": -0.1672990617,
				"y": -2.6562071762,
				"z": -0.7766903995,
				"element": "C" 
			},
			{
				"x": 0.5951902698,
				"y": -3.1048761969,
				"z": -1.8711455142,
				"element": "C" 
			},
			{
				"x": 1.4346370774,
				"y": -2.1270941642,
				"z": -2.3794323236,
				"element": "C" 
			},
			{
				"x": 1.2840517674,
				"y": -0.6300997962,
				"z": -1.4965545168,
				"element": "S" 
			},
			{
				"x": 2.3203839858,
				"y": -2.349125428,
				"z": -3.5093228322,
				"element": "C" 
			},
			{
				"x": 3.3181587579,
				"y": -0.8793281428,
				"z": -3.9683235426,
				"element": "Cl" 
			},
			{
				"x": 2.4416940138,
				"y": -3.3652184983,
				"z": -4.1306948621,
				"element": "O" 
			},
			{
				"x": -1.3437199029,
				"y": 3.4182511798,
				"z": 2.0407999439,
				"element": "H" 
			},
			{
				"x": -0.064582764,
				"y": 2.8963058466,
				"z": 3.1454448795,
				"element": "H" 
			},
			{
				"x": 0.3218706877,
				"y": 3.2403649171,
				"z": 1.4442928719,
				"element": "H" 
			},
			{
				"x": -1.9204971539,
				"y": -1.8883001696,
				"z": 1.6172085845,
				"element": "H" 
			},
			{
				"x": -0.8804224285,
				"y": -3.2751909663,
				"z": -0.2448160627,
				"element": "H" 
			},
			{
				"x": 0.5510121353,
				"y": -4.1020061738,
				"z": -2.2920995736,
				"element": "H" 
			}
		],
		 "valence_orbital": [ 
			{
				"type": "occ",
				"energy": -0.29366,
				"method": "rhf"
			},
			{
				"type": "occ",
				"energy": -0.28998,
				"method": "rhf"
			},
			{
				"type": "occ",
				"energy": -0.28839,
				"method": "rhf"
			},
			{
				"type": "occ",
				"energy": -0.27219,
				"method": "rhf"
			},
			{
				"type": "occ",
				"energy": -0.23077,
				"method": "rhf"
			},
			{
				"type": "unocc",
				"energy": -0.08597,
				"method": "rhf"
			},
			{
				"type": "unocc",
				"energy": -0.04244,
				"method": "rhf"
			},
			{
				"type": "unocc",
				"energy": -0.00659,
				"method": "rhf"
			},
			{
				"type": "unocc",
				"energy": -0.00255,
				"method": "rhf"
			},
			{
				"type": "unocc",
				"energy": 0.0143,
				"method": "rhf"
			}
		],
		"cosmo_sigma_profile": { 
			"-0.025": 0.0,
			"-0.024": 0.0,
			"-0.023": 0.0,
			"-0.022": 0.0,
			"-0.021": 0.0,
			"-0.02": 0.0,
			"-0.019": 0.0,
			"-0.018": 0.0,
			"-0.017": 0.0,
			"-0.016": 0.0,
			"-0.015": 0.0,
			"-0.014": 0.0,
			"-0.013": 0.0,
			"-0.012": 0.0,
			"-0.011": 0.0469444168746,
			"-0.01": 2.88251249778,
			"-0.009": 4.04190212158,
			"-0.008": 4.95494230584,
			"-0.007": 5.51247717929,
			"-0.006": 11.2549033565,
			"-0.005": 12.748568106,
			"-0.004": 12.1811428814,
			"-0.003": 13.3266114864,
			"-0.002": 17.2166527904,
			"-0.001": 19.3738841729,
			"0.0": 25.0605121687,
			"0.001": 34.5954471292,
			"0.002": 30.1272310794,
			"0.003": 16.7627614213,
			"0.004": 10.9486684973,
			"0.005": 9.26164200305,
			"0.006": 4.21977502686,
			"0.007": 3.92469895754,
			"0.008": 4.08937791861,
			"0.009": 6.75741699374,
			"0.01": 2.63050113889,
			"0.011": 0.677032303209,
			"0.012": 0.00286232315755,
			"0.013": 0.0,
			"0.014": 0.0,
			"0.015": 0.0,
			"0.016": 0.0,
			"0.017": 0.0,
			"0.018": 0.0,
			"0.019": 0.0,
			"0.02": 0.0,
			"0.021": 0.0,
			"0.022": 0.0,
			"0.023": 0.0,
			"0.024": 0.0,
			"0.025": 0.0
		}
	}
}
