{
	 "smiles": "OC(=O)C1=NN(C=CC1=O)C1=CC=C(F)C=C1", 
	 "Tm": 514.15, 
	 "num_atms": 24, 
	 "gaussian": { 
		 "optdone": 1, 
		 "sigma_profile": "yes", 
		 "theory": "DFT", 
		 "functional": "B3LYP", 
		 "basiset": "6-31G**", 
		 "properties": { 
			 "R2extent": 5144.3198, 
			 "electric_dipole_moment_norm": 9.10130601178, 
			 "electric_quadrupole_moment_norm": 30.0638362023, 
			 "total_energy": -858.357201957, 
			 "HOMO_LUMO_gap": 0.15165, 
			 "cosmo_polarized_energy": -26.86, 
			 "cosmo_cavitation_energy": 30.65, 
			 "cosmo_dispersion_energy": -22.0, 
			 "cosmo_repulsion_energy": 1.66, 
			 "cosmo_total_nonelectrostatic_energy": 10.31, 
			 "SMD_solvation_energy": 7.64 
		},
		"coords": [
			{
				"x": -1.069772849,
				"y": -1.7512793403,
				"z": -2.2580993358,
				"element": "O" 
			},
			{
				"x": -2.1698365265,
				"y": -1.1819364722,
				"z": -1.714356124,
				"element": "C" 
			},
			{
				"x": -3.2341352149,
				"y": -1.1848827653,
				"z": -2.2768293,
				"element": "O" 
			},
			{
				"x": -1.9324641683,
				"y": -0.5415701132,
				"z": -0.3611868373,
				"element": "C" 
			},
			{
				"x": -0.6746901549,
				"y": -0.5314147376,
				"z": 0.0007986709,
				"element": "N" 
			},
			{
				"x": -0.3030640686,
				"y": 0.0170458269,
				"z": 1.1648406475,
				"element": "N" 
			},
			{
				"x": -1.2223940047,
				"y": 0.6120631857,
				"z": 2.0024645013,
				"element": "C" 
			},
			{
				"x": -2.541141685,
				"y": 0.6217015977,
				"z": 1.698250246,
				"element": "C" 
			},
			{
				"x": -3.0440586607,
				"y": 0.0107912801,
				"z": 0.4683077288,
				"element": "C" 
			},
			{
				"x": -4.2301891271,
				"y": -0.0345427864,
				"z": 0.1706785937,
				"element": "O" 
			},
			{
				"x": 1.0978888764,
				"y": -0.0184039236,
				"z": 1.4688856062,
				"element": "C" 
			},
			{
				"x": 2.0317276165,
				"y": 0.2050552673,
				"z": 0.4517797201,
				"element": "C" 
			},
			{
				"x": 3.3925480336,
				"y": 0.1733952328,
				"z": 0.7425159625,
				"element": "C" 
			},
			{
				"x": 3.7979135489,
				"y": -0.0688572333,
				"z": 2.0518515573,
				"element": "C" 
			},
			{
				"x": 5.1119723179,
				"y": -0.0909635988,
				"z": 2.3350590333,
				"element": "F" 
			},
			{
				"x": 2.8828837544,
				"y": -0.2922776687,
				"z": 3.0745569784,
				"element": "C" 
			},
			{
				"x": 1.5214295232,
				"y": -0.2762861734,
				"z": 2.7763976742,
				"element": "C" 
			},
			{
				"x": -0.3293674116,
				"y": -1.6206463696,
				"z": -1.6393068959,
				"element": "H" 
			},
			{
				"x": -0.8070473738,
				"y": 1.0800458067,
				"z": 2.8866163706,
				"element": "H" 
			},
			{
				"x": -3.2551688794,
				"y": 1.0994959729,
				"z": 2.3588797271,
				"element": "H" 
			},
			{
				"x": 1.6894082707,
				"y": 0.4065367738,
				"z": -0.5564437967,
				"element": "H" 
			},
			{
				"x": 4.1372063113,
				"y": 0.3459424751,
				"z": -0.0263750619,
				"element": "H" 
			},
			{
				"x": 3.2376572409,
				"y": -0.4940953664,
				"z": 4.07887527,
				"element": "H" 
			},
			{
				"x": 0.7981946307,
				"y": -0.4901168701,
				"z": 3.5562390636,
				"element": "H" 
			}
		],
		 "valence_orbital": [ 
			{
				"type": "occ",
				"energy": -0.29758,
				"method": "rhf"
			},
			{
				"type": "occ",
				"energy": -0.29153,
				"method": "rhf"
			},
			{
				"type": "occ",
				"energy": -0.28019,
				"method": "rhf"
			},
			{
				"type": "occ",
				"energy": -0.24527,
				"method": "rhf"
			},
			{
				"type": "occ",
				"energy": -0.23636,
				"method": "rhf"
			},
			{
				"type": "unocc",
				"energy": -0.08471,
				"method": "rhf"
			},
			{
				"type": "unocc",
				"energy": -0.05914,
				"method": "rhf"
			},
			{
				"type": "unocc",
				"energy": -0.0484,
				"method": "rhf"
			},
			{
				"type": "unocc",
				"energy": -0.02291,
				"method": "rhf"
			},
			{
				"type": "unocc",
				"energy": 0.03737,
				"method": "rhf"
			}
		],
		"cosmo_sigma_profile": { 
			"-0.025": 0.0,
			"-0.024": 0.0,
			"-0.023": 0.0,
			"-0.022": 0.0,
			"-0.021": 0.0,
			"-0.02": 0.0,
			"-0.019": 0.0,
			"-0.018": 0.0,
			"-0.017": 0.0,
			"-0.016": 0.0,
			"-0.015": 0.0,
			"-0.014": 0.36689353943,
			"-0.013": 0.477176722911,
			"-0.012": 0.285222768432,
			"-0.011": 2.82269721808,
			"-0.01": 4.45305734425,
			"-0.009": 5.00484571859,
			"-0.008": 12.056566547,
			"-0.007": 12.2771943685,
			"-0.006": 14.8020205439,
			"-0.005": 18.2535168924,
			"-0.004": 15.7733919788,
			"-0.003": 14.741731932,
			"-0.002": 11.8401752922,
			"-0.001": 14.0353363996,
			"0.0": 19.5050293883,
			"0.001": 17.4692466938,
			"0.002": 13.5656250386,
			"0.003": 8.52421291231,
			"0.004": 11.7779762202,
			"0.005": 2.6793635202,
			"0.006": 2.88197725568,
			"0.007": 3.81760860107,
			"0.008": 3.08831852231,
			"0.009": 4.7471004333,
			"0.01": 6.29035813501,
			"0.011": 6.31562322375,
			"0.012": 6.51658394474,
			"0.013": 5.59055060314,
			"0.014": 3.94201941552,
			"0.015": 1.29574473953,
			"0.016": 1.4972604784,
			"0.017": 0.937516210095,
			"0.018": 0.146159401787,
			"0.019": 0.0,
			"0.02": 0.0,
			"0.021": 0.0,
			"0.022": 0.0,
			"0.023": 0.0,
			"0.024": 0.0,
			"0.025": 0.0
		}
	}
}
