{
	 "smiles": "CC1=CC=C2C(=O)C3=CC=CC=C3C(=O)C2=C1", 
	 "Tm": 447.15, 
	 "num_atms": 27, 
	 "gaussian": { 
		 "optdone": 1, 
		 "sigma_profile": "yes", 
		 "theory": "DFT", 
		 "functional": "B3LYP", 
		 "basiset": "6-31G**", 
		 "properties": { 
			 "R2extent": 4269.8215, 
			 "electric_dipole_moment_norm": 0.674560634784, 
			 "electric_quadrupole_moment_norm": 22.6063329662, 
			 "total_energy": -728.098679036, 
			 "HOMO_LUMO_gap": 0.15412, 
			 "cosmo_polarized_energy": -9.79, 
			 "cosmo_cavitation_energy": 31.17, 
			 "cosmo_dispersion_energy": -23.02, 
			 "cosmo_repulsion_energy": 1.71, 
			 "cosmo_total_nonelectrostatic_energy": 9.87, 
			 "SMD_solvation_energy": 5.92 
		},
		"coords": [
			{
				"x": -4.8077585743,
				"y": 0.4243373547,
				"z": -1.3745693181,
				"element": "C" 
			},
			{
				"x": -3.3051593972,
				"y": 0.5115073855,
				"z": -1.2635517841,
				"element": "C" 
			},
			{
				"x": -2.6175872294,
				"y": 1.640229698,
				"z": -1.7469715797,
				"element": "C" 
			},
			{
				"x": -1.2345895144,
				"y": 1.7344442932,
				"z": -1.6527924851,
				"element": "C" 
			},
			{
				"x": -0.4938781314,
				"y": 0.6983989151,
				"z": -1.0697574569,
				"element": "C" 
			},
			{
				"x": 0.9870211919,
				"y": 0.8222071274,
				"z": -0.9802042681,
				"element": "C" 
			},
			{
				"x": 1.5728956406,
				"y": 1.8129172572,
				"z": -1.4059613394,
				"element": "O" 
			},
			{
				"x": 1.7338488818,
				"y": -0.3069569516,
				"z": -0.3513831635,
				"element": "C" 
			},
			{
				"x": 3.1275158608,
				"y": -0.226524232,
				"z": -0.2500665276,
				"element": "C" 
			},
			{
				"x": 3.8476992554,
				"y": -1.2665018126,
				"z": 0.3322415214,
				"element": "C" 
			},
			{
				"x": 3.1802687595,
				"y": -2.3969556602,
				"z": 0.8188424091,
				"element": "C" 
			},
			{
				"x": 1.7939213831,
				"y": -2.4852155266,
				"z": 0.7221908512,
				"element": "C" 
			},
			{
				"x": 1.062139267,
				"y": -1.4444700702,
				"z": 0.1382713236,
				"element": "C" 
			},
			{
				"x": -0.4224411337,
				"y": -1.5658201549,
				"z": 0.047898387,
				"element": "C" 
			},
			{
				"x": -1.00669252,
				"y": -2.5563930085,
				"z": 0.4750633335,
				"element": "O" 
			},
			{
				"x": -1.1673079744,
				"y": -0.4367221061,
				"z": -0.5815448453,
				"element": "C" 
			},
			{
				"x": -2.5606529461,
				"y": -0.5177860859,
				"z": -0.6832001375,
				"element": "C" 
			},
			{
				"x": -5.1871870353,
				"y": -0.5055618735,
				"z": -0.9442092124,
				"element": "H" 
			},
			{
				"x": -5.2914169532,
				"y": 1.2595597511,
				"z": -0.8553138069,
				"element": "H" 
			},
			{
				"x": -5.1295358394,
				"y": 0.4680894934,
				"z": -2.4214154921,
				"element": "H" 
			},
			{
				"x": -3.1803041053,
				"y": 2.4518994403,
				"z": -2.2018447296,
				"element": "H" 
			},
			{
				"x": -0.7000598011,
				"y": 2.6025223239,
				"z": -2.0239171758,
				"element": "H" 
			},
			{
				"x": 3.6194682679,
				"y": 0.6604084752,
				"z": -0.6349735395,
				"element": "H" 
			},
			{
				"x": 4.9290630058,
				"y": -1.1998710478,
				"z": 0.4087356592,
				"element": "H" 
			},
			{
				"x": 3.7440948458,
				"y": -3.2067902313,
				"z": 1.2725861793,
				"element": "H" 
			},
			{
				"x": 1.2520532769,
				"y": -3.3495496722,
				"z": 1.0911313183,
				"element": "H" 
			},
			{
				"x": -3.0471184813,
				"y": -1.4077030815,
				"z": -0.296084121,
				"element": "H" 
			}
		],
		 "valence_orbital": [ 
			{
				"type": "occ",
				"energy": -0.26734,
				"method": "rhf"
			},
			{
				"type": "occ",
				"energy": -0.2661,
				"method": "rhf"
			},
			{
				"type": "occ",
				"energy": -0.26363,
				"method": "rhf"
			},
			{
				"type": "occ",
				"energy": -0.2575,
				"method": "rhf"
			},
			{
				"type": "occ",
				"energy": -0.25445,
				"method": "rhf"
			},
			{
				"type": "unocc",
				"energy": -0.10033,
				"method": "rhf"
			},
			{
				"type": "unocc",
				"energy": -0.05439,
				"method": "rhf"
			},
			{
				"type": "unocc",
				"energy": -0.0214,
				"method": "rhf"
			},
			{
				"type": "unocc",
				"energy": -0.00874,
				"method": "rhf"
			},
			{
				"type": "unocc",
				"energy": 0.05229,
				"method": "rhf"
			}
		],
		"cosmo_sigma_profile": { 
			"-0.025": 0.0,
			"-0.024": 0.0,
			"-0.023": 0.0,
			"-0.022": 0.0,
			"-0.021": 0.0,
			"-0.02": 0.0,
			"-0.019": 0.0,
			"-0.018": 0.0,
			"-0.017": 0.0,
			"-0.016": 0.0,
			"-0.015": 0.0,
			"-0.014": 0.0,
			"-0.013": 0.0,
			"-0.012": 0.0,
			"-0.011": 0.0,
			"-0.01": 0.0,
			"-0.009": 0.0,
			"-0.008": 0.15775140767,
			"-0.007": 5.46287939655,
			"-0.006": 12.7111519489,
			"-0.005": 21.6205009261,
			"-0.004": 20.9079500491,
			"-0.003": 19.5887763081,
			"-0.002": 18.8629634479,
			"-0.001": 22.6114525094,
			"0.0": 23.3509192795,
			"0.001": 25.8772832546,
			"0.002": 30.5064102733,
			"0.003": 12.8301983532,
			"0.004": 4.01760241836,
			"0.005": 3.48901549822,
			"0.006": 2.98007276155,
			"0.007": 3.23391349989,
			"0.008": 3.89241117659,
			"0.009": 3.8739252249,
			"0.01": 4.4066857936,
			"0.011": 7.71388554697,
			"0.012": 2.82538563154,
			"0.013": 0.0,
			"0.014": 0.0,
			"0.015": 0.0,
			"0.016": 0.0,
			"0.017": 0.0,
			"0.018": 0.0,
			"0.019": 0.0,
			"0.02": 0.0,
			"0.021": 0.0,
			"0.022": 0.0,
			"0.023": 0.0,
			"0.024": 0.0,
			"0.025": 0.0
		}
	}
}
