{
	 "smiles": "CC1=C(N)C=C(S1)C(N)=O", 
	 "Tm": 453.15, 
	 "num_atms": 18, 
	 "gaussian": { 
		 "optdone": 1, 
		 "sigma_profile": "yes", 
		 "theory": "DFT", 
		 "functional": "B3LYP", 
		 "basiset": "6-31G**", 
		 "properties": { 
			 "R2extent": 2594.8262, 
			 "electric_dipole_moment_norm": 3.34916899992, 
			 "electric_quadrupole_moment_norm": 15.6407802708, 
			 "total_energy": -816.382282394, 
			 "HOMO_LUMO_gap": 0.16405, 
			 "cosmo_polarized_energy": -16.44, 
			 "cosmo_cavitation_energy": 23.61, 
			 "cosmo_dispersion_energy": -18.02, 
			 "cosmo_repulsion_energy": 1.44, 
			 "cosmo_total_nonelectrostatic_energy": 7.02, 
			 "SMD_solvation_energy": 4.55 
		},
		"coords": [
			{
				"x": -1.3908491688,
				"y": 0.3372305273,
				"z": -1.733425088,
				"element": "C" 
			},
			{
				"x": -0.0613718542,
				"y": 0.1657438751,
				"z": -1.061974714,
				"element": "C" 
			},
			{
				"x": 0.4158311074,
				"y": -0.9588485949,
				"z": -0.4167163348,
				"element": "C" 
			},
			{
				"x": -0.2726777283,
				"y": -2.177603975,
				"z": -0.3301156452,
				"element": "N" 
			},
			{
				"x": 1.7328166775,
				"y": -0.7792633542,
				"z": 0.1044480219,
				"element": "C" 
			},
			{
				"x": 2.2588806192,
				"y": 0.4614794412,
				"z": -0.1449639222,
				"element": "C" 
			},
			{
				"x": 1.1218213864,
				"y": 1.4487351587,
				"z": -1.0296000123,
				"element": "S" 
			},
			{
				"x": 3.61204283,
				"y": 0.8929152956,
				"z": 0.2822180606,
				"element": "C" 
			},
			{
				"x": 4.0651765026,
				"y": 2.0869207073,
				"z": -0.2297619436,
				"element": "N" 
			},
			{
				"x": 4.2748612319,
				"y": 0.2274993245,
				"z": 1.0700012331,
				"element": "O" 
			},
			{
				"x": -1.4412067204,
				"y": -0.2037410363,
				"z": -2.6872292751,
				"element": "H" 
			},
			{
				"x": -1.6075969398,
				"y": 1.388889037,
				"z": -1.939006708,
				"element": "H" 
			},
			{
				"x": -2.2047387656,
				"y": -0.0392350512,
				"z": -1.0993783033,
				"element": "H" 
			},
			{
				"x": -1.275006474,
				"y": -2.0951253479,
				"z": -0.4447606176,
				"element": "H" 
			},
			{
				"x": -0.0555195972,
				"y": -2.704905,
				"z": 0.5062101173,
				"element": "H" 
			},
			{
				"x": 2.2930747607,
				"y": -1.5353882474,
				"z": 0.6423993803,
				"element": "H" 
			},
			{
				"x": 5.0293549644,
				"y": 2.306467241,
				"z": -0.0262098615,
				"element": "H" 
			},
			{
				"x": 3.6823071681,
				"y": 2.4583299992,
				"z": -1.0861343876,
				"element": "H" 
			}
		],
		 "valence_orbital": [ 
			{
				"type": "occ",
				"energy": -0.3115,
				"method": "rhf"
			},
			{
				"type": "occ",
				"energy": -0.26778,
				"method": "rhf"
			},
			{
				"type": "occ",
				"energy": -0.249,
				"method": "rhf"
			},
			{
				"type": "occ",
				"energy": -0.23713,
				"method": "rhf"
			},
			{
				"type": "occ",
				"energy": -0.20038,
				"method": "rhf"
			},
			{
				"type": "unocc",
				"energy": -0.03633,
				"method": "rhf"
			},
			{
				"type": "unocc",
				"energy": 0.01578,
				"method": "rhf"
			},
			{
				"type": "unocc",
				"energy": 0.0577,
				"method": "rhf"
			},
			{
				"type": "unocc",
				"energy": 0.07049,
				"method": "rhf"
			},
			{
				"type": "unocc",
				"energy": 0.08355,
				"method": "rhf"
			}
		],
		"cosmo_sigma_profile": { 
			"-0.025": 0.0,
			"-0.024": 0.0,
			"-0.023": 0.0,
			"-0.022": 0.0,
			"-0.021": 0.0,
			"-0.02": 0.0,
			"-0.019": 0.0,
			"-0.018": 0.0,
			"-0.017": 0.0,
			"-0.016": 0.0,
			"-0.015": 0.0,
			"-0.014": 0.99399318839,
			"-0.013": 2.23374541978,
			"-0.012": 4.01141059512,
			"-0.011": 5.17234067264,
			"-0.01": 5.7708333151,
			"-0.009": 4.81148772332,
			"-0.008": 5.67462756883,
			"-0.007": 5.14716912587,
			"-0.006": 5.72444156778,
			"-0.005": 8.66909107308,
			"-0.004": 9.55311445045,
			"-0.003": 9.86552504571,
			"-0.002": 11.0283461961,
			"-0.001": 11.8917002723,
			"0.0": 9.54091339776,
			"0.001": 9.33970099805,
			"0.002": 11.6296905996,
			"0.003": 11.0969110829,
			"0.004": 16.0736336164,
			"0.005": 10.0900494812,
			"0.006": 3.67379935824,
			"0.007": 2.07474412516,
			"0.008": 3.32646843233,
			"0.009": 2.1955999746,
			"0.01": 2.44510086709,
			"0.011": 2.72275990752,
			"0.012": 2.36818595428,
			"0.013": 4.94080367878,
			"0.014": 5.53140692744,
			"0.015": 0.9657746128,
			"0.016": 0.13200256443,
			"0.017": 0.0,
			"0.018": 0.0,
			"0.019": 0.0,
			"0.02": 0.0,
			"0.021": 0.0,
			"0.022": 0.0,
			"0.023": 0.0,
			"0.024": 0.0,
			"0.025": 0.0
		}
	}
}
