{
	 "smiles": "CC1=CC=C(C=C1[N+]([O-])=O)S(N)(=O)=O", 
	 "Tm": 416.15, 
	 "num_atms": 22, 
	 "gaussian": { 
		 "optdone": 1, 
		 "sigma_profile": "yes", 
		 "theory": "DFT", 
		 "functional": "B3LYP", 
		 "basiset": "6-31G**", 
		 "properties": { 
			 "R2extent": 3577.9393, 
			 "electric_dipole_moment_norm": 5.85937361925, 
			 "electric_quadrupole_moment_norm": 22.5680154136, 
			 "total_energy": -1079.98121646, 
			 "HOMO_LUMO_gap": 0.18189, 
			 "cosmo_polarized_energy": -21.65, 
			 "cosmo_cavitation_energy": 28.35, 
			 "cosmo_dispersion_energy": -21.13, 
			 "cosmo_repulsion_energy": 1.62, 
			 "cosmo_total_nonelectrostatic_energy": 8.83, 
			 "SMD_solvation_energy": 6.68 
		},
		"coords": [
			{
				"x": 2.3432394749,
				"y": -2.0466859155,
				"z": -0.1417233857,
				"element": "C" 
			},
			{
				"x": 1.0954705293,
				"y": -1.2025570833,
				"z": -0.2091133067,
				"element": "C" 
			},
			{
				"x": -0.1455403155,
				"y": -1.8435587473,
				"z": -0.3607246581,
				"element": "C" 
			},
			{
				"x": -1.3471631291,
				"y": -1.1451752859,
				"z": -0.4316670221,
				"element": "C" 
			},
			{
				"x": -1.3325301354,
				"y": 0.247472228,
				"z": -0.3353761073,
				"element": "C" 
			},
			{
				"x": -0.1320396486,
				"y": 0.9306718024,
				"z": -0.1848722793,
				"element": "C" 
			},
			{
				"x": 1.0576203014,
				"y": 0.2047463828,
				"z": -0.1240513633,
				"element": "C" 
			},
			{
				"x": 2.2876598599,
				"y": 1.0079100628,
				"z": 0.0326858425,
				"element": "N" 
			},
			{
				"x": 3.3666377737,
				"y": 0.4742777302,
				"z": -0.2214212412,
				"element": "O" 
			},
			{
				"x": 2.1583929025,
				"y": 2.1725501108,
				"z": 0.4061303768,
				"element": "O" 
			},
			{
				"x": -2.8794817383,
				"y": 1.1706889002,
				"z": -0.4105325134,
				"element": "S" 
			},
			{
				"x": -3.363695649,
				"y": 1.4404338044,
				"z": 1.1699933844,
				"element": "N" 
			},
			{
				"x": -3.8761763339,
				"y": 0.2704231716,
				"z": -0.985374825,
				"element": "O" 
			},
			{
				"x": -2.5678681187,
				"y": 2.4866674482,
				"z": -0.960343265,
				"element": "O" 
			},
			{
				"x": 2.9630894658,
				"y": -1.790130347,
				"z": 0.7204933958,
				"element": "H" 
			},
			{
				"x": 2.0698934642,
				"y": -3.1028954395,
				"z": -0.0812926254,
				"element": "H" 
			},
			{
				"x": 2.9706406906,
				"y": -1.8929732324,
				"z": -1.0233691959,
				"element": "H" 
			},
			{
				"x": -0.1588413459,
				"y": -2.9268781381,
				"z": -0.4323732829,
				"element": "H" 
			},
			{
				"x": -2.2879089258,
				"y": -1.6649620181,
				"z": -0.5784095169,
				"element": "H" 
			},
			{
				"x": -0.0990263074,
				"y": 2.0118441908,
				"z": -0.1344866622,
				"element": "H" 
			},
			{
				"x": -3.60945608,
				"y": 0.5954259827,
				"z": 1.6743916229,
				"element": "H" 
			},
			{
				"x": -2.754416735,
				"y": 2.0683043922,
				"z": 1.6835366277,
				"element": "H" 
			}
		],
		 "valence_orbital": [ 
			{
				"type": "occ",
				"energy": -0.31702,
				"method": "rhf"
			},
			{
				"type": "occ",
				"energy": -0.31385,
				"method": "rhf"
			},
			{
				"type": "occ",
				"energy": -0.30744,
				"method": "rhf"
			},
			{
				"type": "occ",
				"energy": -0.29495,
				"method": "rhf"
			},
			{
				"type": "occ",
				"energy": -0.28408,
				"method": "rhf"
			},
			{
				"type": "unocc",
				"energy": -0.10219,
				"method": "rhf"
			},
			{
				"type": "unocc",
				"energy": -0.05852,
				"method": "rhf"
			},
			{
				"type": "unocc",
				"energy": -0.02438,
				"method": "rhf"
			},
			{
				"type": "unocc",
				"energy": 0.03811,
				"method": "rhf"
			},
			{
				"type": "unocc",
				"energy": 0.0629,
				"method": "rhf"
			}
		],
		"cosmo_sigma_profile": { 
			"-0.025": 0.0,
			"-0.024": 0.0,
			"-0.023": 0.0,
			"-0.022": 0.0,
			"-0.021": 0.0,
			"-0.02": 0.0,
			"-0.019": 0.0,
			"-0.018": 0.0,
			"-0.017": 0.0,
			"-0.016": 0.713726730943,
			"-0.015": 2.91830386222,
			"-0.014": 2.68803875102,
			"-0.013": 3.18638273231,
			"-0.012": 3.10846754576,
			"-0.011": 2.73230089469,
			"-0.01": 1.52935990444,
			"-0.009": 2.24394651754,
			"-0.008": 6.33092356541,
			"-0.007": 9.13347852097,
			"-0.006": 9.16219975335,
			"-0.005": 11.6613734619,
			"-0.004": 12.6909957811,
			"-0.003": 14.5405811068,
			"-0.002": 16.6185889857,
			"-0.001": 21.458355914,
			"0.0": 13.4099354315,
			"0.001": 9.88900607823,
			"0.002": 4.78231946475,
			"0.003": 4.92845402537,
			"0.004": 5.43486145133,
			"0.005": 6.05378922943,
			"0.006": 7.85543666382,
			"0.007": 12.2642235456,
			"0.008": 9.719050901,
			"0.009": 8.87630016169,
			"0.01": 10.2359596208,
			"0.011": 10.169805024,
			"0.012": 1.76769159621,
			"0.013": 0.0,
			"0.014": 0.0,
			"0.015": 0.0,
			"0.016": 0.0,
			"0.017": 0.0,
			"0.018": 0.0,
			"0.019": 0.0,
			"0.02": 0.0,
			"0.021": 0.0,
			"0.022": 0.0,
			"0.023": 0.0,
			"0.024": 0.0,
			"0.025": 0.0
		}
	}
}
