{
	 "smiles": "CC1=NC2=C(C=CS2)C(=O)N1N", 
	 "Tm": 455.15, 
	 "num_atms": 19, 
	 "gaussian": { 
		 "optdone": 1, 
		 "sigma_profile": "yes", 
		 "theory": "DFT", 
		 "functional": "B3LYP", 
		 "basiset": "6-31G**", 
		 "properties": { 
			 "R2extent": 2685.9605, 
			 "electric_dipole_moment_norm": 0.95635236707, 
			 "electric_quadrupole_moment_norm": 11.2190624385, 
			 "total_energy": -908.61699621, 
			 "HOMO_LUMO_gap": 0.17884, 
			 "cosmo_polarized_energy": -11.43, 
			 "cosmo_cavitation_energy": 24.77, 
			 "cosmo_dispersion_energy": -19.1, 
			 "cosmo_repulsion_energy": 1.46, 
			 "cosmo_total_nonelectrostatic_energy": 7.13, 
			 "SMD_solvation_energy": 3.78 
		},
		"coords": [
			{
				"x": 1.1322721411,
				"y": 2.3998737804,
				"z": -1.3539000048,
				"element": "C" 
			},
			{
				"x": 0.4782382854,
				"y": 1.061170442,
				"z": -1.1809290128,
				"element": "C" 
			},
			{
				"x": 0.0105021184,
				"y": 0.4325627791,
				"z": -2.2283316148,
				"element": "N" 
			},
			{
				"x": -0.5671580884,
				"y": -0.7734176081,
				"z": -1.9918180518,
				"element": "C" 
			},
			{
				"x": -0.7091395312,
				"y": -1.4001776022,
				"z": -0.7569879213,
				"element": "C" 
			},
			{
				"x": -1.3633977118,
				"y": -2.6691013838,
				"z": -0.8359057969,
				"element": "C" 
			},
			{
				"x": -1.7067712583,
				"y": -2.9875731817,
				"z": -2.115126354,
				"element": "C" 
			},
			{
				"x": -1.2469201415,
				"y": -1.755682082,
				"z": -3.2708064863,
				"element": "S" 
			},
			{
				"x": -0.2008527348,
				"y": -0.7253917848,
				"z": 0.4125683919,
				"element": "C" 
			},
			{
				"x": -0.2253110438,
				"y": -1.10125926,
				"z": 1.5794440463,
				"element": "O" 
			},
			{
				"x": 0.3919435443,
				"y": 0.5335465466,
				"z": 0.0925389973,
				"element": "N" 
			},
			{
				"x": 0.9252739209,
				"y": 1.2836882274,
				"z": 1.1677312364,
				"element": "N" 
			},
			{
				"x": 0.6146765939,
				"y": 3.1704611794,
				"z": -0.7756140751,
				"element": "H" 
			},
			{
				"x": 1.1086597509,
				"y": 2.6509408257,
				"z": -2.413947311,
				"element": "H" 
			},
			{
				"x": 2.1657423498,
				"y": 2.3841524073,
				"z": -0.9963810185,
				"element": "H" 
			},
			{
				"x": -1.5575345062,
				"y": -3.2943607653,
				"z": 0.0266298523,
				"element": "H" 
			},
			{
				"x": -2.2083689035,
				"y": -3.8789336777,
				"z": -2.4659292284,
				"element": "H" 
			},
			{
				"x": 0.1660403653,
				"y": 1.390705342,
				"z": 1.842099195,
				"element": "H" 
			},
			{
				"x": 1.5894048496,
				"y": 0.6683958157,
				"z": 1.6399651565,
				"element": "H" 
			}
		],
		 "valence_orbital": [ 
			{
				"type": "occ",
				"energy": -0.29167,
				"method": "rhf"
			},
			{
				"type": "occ",
				"energy": -0.27901,
				"method": "rhf"
			},
			{
				"type": "occ",
				"energy": -0.26907,
				"method": "rhf"
			},
			{
				"type": "occ",
				"energy": -0.26133,
				"method": "rhf"
			},
			{
				"type": "occ",
				"energy": -0.22204,
				"method": "rhf"
			},
			{
				"type": "unocc",
				"energy": -0.0432,
				"method": "rhf"
			},
			{
				"type": "unocc",
				"energy": -0.01009,
				"method": "rhf"
			},
			{
				"type": "unocc",
				"energy": 0.02074,
				"method": "rhf"
			},
			{
				"type": "unocc",
				"energy": 0.02693,
				"method": "rhf"
			},
			{
				"type": "unocc",
				"energy": 0.07136,
				"method": "rhf"
			}
		],
		"cosmo_sigma_profile": { 
			"-0.025": 0.0,
			"-0.024": 0.0,
			"-0.023": 0.0,
			"-0.022": 0.0,
			"-0.021": 0.0,
			"-0.02": 0.0,
			"-0.019": 0.0,
			"-0.018": 0.0,
			"-0.017": 0.0,
			"-0.016": 0.0,
			"-0.015": 0.0,
			"-0.014": 0.0,
			"-0.013": 0.293262637117,
			"-0.012": 2.4543243784,
			"-0.011": 3.14482515641,
			"-0.01": 2.33936222634,
			"-0.009": 3.29290212558,
			"-0.008": 5.5015016703,
			"-0.007": 5.25215449571,
			"-0.006": 6.82462158463,
			"-0.005": 11.0080842809,
			"-0.004": 14.7088279886,
			"-0.003": 13.6434740128,
			"-0.002": 12.407257108,
			"-0.001": 14.3576298262,
			"0.0": 13.4801462585,
			"0.001": 17.3272656886,
			"0.002": 16.5871075168,
			"0.003": 15.3679886727,
			"0.004": 9.63757031888,
			"0.005": 4.50739147165,
			"0.006": 2.94563453568,
			"0.007": 3.46925488048,
			"0.008": 2.49213669186,
			"0.009": 2.97081682784,
			"0.01": 2.89445801526,
			"0.011": 3.91267911114,
			"0.012": 3.72140141345,
			"0.013": 4.97749124238,
			"0.014": 0.712764493747,
			"0.015": 0.0,
			"0.016": 0.0,
			"0.017": 0.0,
			"0.018": 0.0,
			"0.019": 0.0,
			"0.02": 0.0,
			"0.021": 0.0,
			"0.022": 0.0,
			"0.023": 0.0,
			"0.024": 0.0,
			"0.025": 0.0
		}
	}
}
