{
	 "smiles": "CC1=CC2=C(C=C1)C1C(C3C2C2(Cl)C(Cl)=C(Cl)C3(Cl)C2(Cl)Cl)C2(Cl)C(Cl)=C(Cl)C1(Cl)C2(Cl)Cl", 
	 "Tm": 435.15, 
	 "num_atms": 43, 
	 "gaussian": { 
		 "optdone": 1, 
		 "sigma_profile": "yes", 
		 "theory": "DFT", 
		 "functional": "B3LYP", 
		 "basiset": "6-31G**", 
		 "properties": { 
			 "R2extent": 19744.2474, 
			 "electric_dipole_moment_norm": 3.06632971645, 
			 "electric_quadrupole_moment_norm": 17.9709867417, 
			 "total_energy": -6328.45305953, 
			 "HOMO_LUMO_gap": 0.19823, 
			 "cosmo_polarized_energy": -9.65, 
			 "cosmo_cavitation_energy": 59.54, 
			 "cosmo_dispersion_energy": -38.05, 
			 "cosmo_repulsion_energy": 2.78, 
			 "cosmo_total_nonelectrostatic_energy": 24.28, 
			 "SMD_solvation_energy": 6.16 
		},
		"coords": [
			{
				"x": 3.7571687896,
				"y": 1.1902561612,
				"z": -3.2459275282,
				"element": "C" 
			},
			{
				"x": 2.4456330551,
				"y": 0.7560306159,
				"z": -2.6376777693,
				"element": "C" 
			},
			{
				"x": 2.0976163791,
				"y": 1.1166897885,
				"z": -1.3361659606,
				"element": "C" 
			},
			{
				"x": 0.8922243602,
				"y": 0.714563838,
				"z": -0.7363059743,
				"element": "C" 
			},
			{
				"x": 0.0519226845,
				"y": -0.1673051426,
				"z": -1.4319203736,
				"element": "C" 
			},
			{
				"x": 0.3658864951,
				"y": -0.4726771865,
				"z": -2.767979796,
				"element": "C" 
			},
			{
				"x": 1.53219773,
				"y": -0.017671618,
				"z": -3.3659136061,
				"element": "C" 
			},
			{
				"x": -1.1798545742,
				"y": -0.8133563173,
				"z": -0.8365387989,
				"element": "C" 
			},
			{
				"x": -1.6542077085,
				"y": -0.3034738578,
				"z": 0.5779824401,
				"element": "C" 
			},
			{
				"x": -0.8063136071,
				"y": 0.7827380337,
				"z": 1.2805924291,
				"element": "C" 
			},
			{
				"x": 0.5325148908,
				"y": 1.2866523074,
				"z": 0.6206792176,
				"element": "C" 
			},
			{
				"x": 0.3078863439,
				"y": 2.8658311949,
				"z": 0.5917033817,
				"element": "C" 
			},
			{
				"x": 1.7698321344,
				"y": 3.8689834813,
				"z": 0.4508487927,
				"element": "Cl" 
			},
			{
				"x": -0.7900252908,
				"y": 3.1397159702,
				"z": -0.4343835563,
				"element": "C" 
			},
			{
				"x": -0.5349107131,
				"y": 3.8212597658,
				"z": -1.9823826888,
				"element": "Cl" 
			},
			{
				"x": -1.9382747199,
				"y": 2.6846795773,
				"z": 0.0881849568,
				"element": "C" 
			},
			{
				"x": -3.4857146216,
				"y": 2.6483886513,
				"z": -0.6542845511,
				"element": "Cl" 
			},
			{
				"x": -1.6225501392,
				"y": 2.1157407797,
				"z": 1.4746311661,
				"element": "C" 
			},
			{
				"x": -3.0092523895,
				"y": 1.9842681553,
				"z": 2.5770951604,
				"element": "Cl" 
			},
			{
				"x": -0.5005268089,
				"y": 3.1073778952,
				"z": 1.9076977241,
				"element": "C" 
			},
			{
				"x": 0.3765573841,
				"y": 2.628075264,
				"z": 3.3997866298,
				"element": "Cl" 
			},
			{
				"x": -1.059871586,
				"y": 4.7952337452,
				"z": 2.125945995,
				"element": "Cl" 
			},
			{
				"x": -1.8581178463,
				"y": -1.6552294882,
				"z": 1.390565337,
				"element": "C" 
			},
			{
				"x": -1.9867727031,
				"y": -1.5150100678,
				"z": 3.1561012352,
				"element": "Cl" 
			},
			{
				"x": -3.0481872354,
				"y": -2.336870311,
				"z": 0.7096870789,
				"element": "C" 
			},
			{
				"x": -4.6447436458,
				"y": -2.3234580272,
				"z": 1.3282876887,
				"element": "Cl" 
			},
			{
				"x": -2.6245577115,
				"y": -2.7864960451,
				"z": -0.4786353241,
				"element": "C" 
			},
			{
				"x": -3.5561559678,
				"y": -3.4766597581,
				"z": -1.739958244,
				"element": "Cl" 
			},
			{
				"x": -1.146886655,
				"y": -2.4096228137,
				"z": -0.6140743101,
				"element": "C" 
			},
			{
				"x": -0.2312900955,
				"y": -3.396699847,
				"z": -1.7679360924,
				"element": "Cl" 
			},
			{
				"x": -0.7108597142,
				"y": -2.5729067678,
				"z": 0.8736950986,
				"element": "C" 
			},
			{
				"x": -0.8071836417,
				"y": -4.2615170661,
				"z": 1.4771785306,
				"element": "Cl" 
			},
			{
				"x": 0.9378773199,
				"y": -1.9768600217,
				"z": 1.2363187806,
				"element": "Cl" 
			},
			{
				"x": 3.6167730368,
				"y": 1.5739998312,
				"z": -4.2619160456,
				"element": "H" 
			},
			{
				"x": 4.4577309865,
				"y": 0.3490661278,
				"z": -3.3135395359,
				"element": "H" 
			},
			{
				"x": 4.2359070284,
				"y": 1.9730294666,
				"z": -2.6516983933,
				"element": "H" 
			},
			{
				"x": 2.7786057759,
				"y": 1.7448710684,
				"z": -0.7737383374,
				"element": "H" 
			},
			{
				"x": -0.3167090261,
				"y": -1.0885632748,
				"z": -3.3436766384,
				"element": "H" 
			},
			{
				"x": 1.7433622218,
				"y": -0.278315836,
				"z": -4.3997483387,
				"element": "H" 
			},
			{
				"x": -1.9945623151,
				"y": -0.6574376583,
				"z": -1.5488059447,
				"element": "H" 
			},
			{
				"x": -2.6605667219,
				"y": 0.100830851,
				"z": 0.4652437884,
				"element": "H" 
			},
			{
				"x": -0.5611187031,
				"y": 0.4274199892,
				"z": 2.2800216164,
				"element": "H" 
			},
			{
				"x": 1.3500175252,
				"y": 1.1007285459,
				"z": 1.3210607598,
				"element": "H" 
			}
		],
		 "valence_orbital": [ 
			{
				"type": "occ",
				"energy": -0.31066,
				"method": "rhf"
			},
			{
				"type": "occ",
				"energy": -0.26898,
				"method": "rhf"
			},
			{
				"type": "occ",
				"energy": -0.2674,
				"method": "rhf"
			},
			{
				"type": "occ",
				"energy": -0.25673,
				"method": "rhf"
			},
			{
				"type": "occ",
				"energy": -0.2486,
				"method": "rhf"
			},
			{
				"type": "unocc",
				"energy": -0.05037,
				"method": "rhf"
			},
			{
				"type": "unocc",
				"energy": -0.04807,
				"method": "rhf"
			},
			{
				"type": "unocc",
				"energy": -0.0453,
				"method": "rhf"
			},
			{
				"type": "unocc",
				"energy": -0.04353,
				"method": "rhf"
			},
			{
				"type": "unocc",
				"energy": -0.0257,
				"method": "rhf"
			}
		],
		"cosmo_sigma_profile": { 
			"-0.025": 0.0,
			"-0.024": 0.0,
			"-0.023": 0.0,
			"-0.022": 0.0,
			"-0.021": 0.0,
			"-0.02": 0.0,
			"-0.019": 0.0,
			"-0.018": 0.0,
			"-0.017": 0.0,
			"-0.016": 0.0,
			"-0.015": 0.0,
			"-0.014": 0.0,
			"-0.013": 0.0,
			"-0.012": 0.0,
			"-0.011": 0.0,
			"-0.01": 0.01876199912,
			"-0.009": 0.925671356757,
			"-0.008": 3.58946200386,
			"-0.007": 6.62507528737,
			"-0.006": 9.58431734261,
			"-0.005": 19.3573866476,
			"-0.004": 32.0569124333,
			"-0.003": 33.6191419961,
			"-0.002": 38.0997165687,
			"-0.001": 46.6814463399,
			"0.0": 55.7980425157,
			"0.001": 56.5636061527,
			"0.002": 79.5294511316,
			"0.003": 78.4432072402,
			"0.004": 32.9287284967,
			"0.005": 4.99139899884,
			"0.006": 0.41638436801,
			"0.007": 0.0,
			"0.008": 0.0,
			"0.009": 0.0,
			"0.01": 0.0,
			"0.011": 0.0,
			"0.012": 0.0,
			"0.013": 0.0,
			"0.014": 0.0,
			"0.015": 0.0,
			"0.016": 0.0,
			"0.017": 0.0,
			"0.018": 0.0,
			"0.019": 0.0,
			"0.02": 0.0,
			"0.021": 0.0,
			"0.022": 0.0,
			"0.023": 0.0,
			"0.024": 0.0,
			"0.025": 0.0
		}
	}
}
