{
	 "smiles": "ClCCCOC1=CC=C(C=CC(=O)C2=CC=CC=C2)C=C1", 
	 "Tm": 347.15, 
	 "num_atms": 38, 
	 "gaussian": { 
		 "optdone": 1, 
		 "sigma_profile": "yes", 
		 "theory": "DFT", 
		 "functional": "B3LYP", 
		 "basiset": "6-31G**", 
		 "properties": { 
			 "R2extent": 9520.6945, 
			 "electric_dipole_moment_norm": 3.88616149047, 
			 "electric_quadrupole_moment_norm": 24.4073087625, 
			 "total_energy": -1306.78351982, 
			 "HOMO_LUMO_gap": 0.15276, 
			 "cosmo_polarized_energy": -14.34, 
			 "cosmo_cavitation_energy": 43.86, 
			 "cosmo_dispersion_energy": -29.97, 
			 "cosmo_repulsion_energy": 2.36, 
			 "cosmo_total_nonelectrostatic_energy": 16.25, 
			 "SMD_solvation_energy": 7.52 
		},
		"coords": [
			{
				"x": -0.4688117439,
				"y": -3.1740259667,
				"z": 4.5098643433,
				"element": "Cl" 
			},
			{
				"x": 1.1203123056,
				"y": -3.3817724823,
				"z": 3.64157699,
				"element": "C" 
			},
			{
				"x": 2.1157788745,
				"y": -2.2840108756,
				"z": 3.9960750221,
				"element": "C" 
			},
			{
				"x": 1.7204870559,
				"y": -0.8990986521,
				"z": 3.5013863371,
				"element": "C" 
			},
			{
				"x": 1.670324841,
				"y": -0.9552057053,
				"z": 2.0759773404,
				"element": "O" 
			},
			{
				"x": 1.2995566533,
				"y": 0.1595271989,
				"z": 1.3835935178,
				"element": "C" 
			},
			{
				"x": 0.9720751396,
				"y": 1.388460075,
				"z": 1.9693831083,
				"element": "C" 
			},
			{
				"x": 0.6169226097,
				"y": 2.4617748138,
				"z": 1.1533123114,
				"element": "C" 
			},
			{
				"x": 0.5559454085,
				"y": 2.3464723622,
				"z": -0.2444575541,
				"element": "C" 
			},
			{
				"x": 0.1710237572,
				"y": 3.5195310172,
				"z": -1.0391976769,
				"element": "C" 
			},
			{
				"x": -0.3581601156,
				"y": 3.5932923349,
				"z": -2.2766855727,
				"element": "C" 
			},
			{
				"x": -0.7417193642,
				"y": 2.5002648652,
				"z": -3.2262512002,
				"element": "C" 
			},
			{
				"x": -0.2668865121,
				"y": 2.5145376743,
				"z": -4.3577206315,
				"element": "O" 
			},
			{
				"x": -1.7549092144,
				"y": 1.4651286382,
				"z": -2.8390832303,
				"element": "C" 
			},
			{
				"x": -1.963782919,
				"y": 0.3890543347,
				"z": -3.7168943308,
				"element": "C" 
			},
			{
				"x": -2.9158412798,
				"y": -0.5826895496,
				"z": -3.4252493108,
				"element": "C" 
			},
			{
				"x": -3.6803163167,
				"y": -0.4837169794,
				"z": -2.2580311435,
				"element": "C" 
			},
			{
				"x": -3.4884006574,
				"y": 0.5900101532,
				"z": -1.3864147824,
				"element": "C" 
			},
			{
				"x": -2.529056908,
				"y": 1.5606896383,
				"z": -1.6735429529,
				"element": "C" 
			},
			{
				"x": 0.9164001561,
				"y": 1.1060363462,
				"z": -0.8110332304,
				"element": "C" 
			},
			{
				"x": 1.278143033,
				"y": 0.0315556926,
				"z": -0.0143554698,
				"element": "C" 
			},
			{
				"x": 0.8892954486,
				"y": -3.3768644904,
				"z": 2.5765399638,
				"element": "H" 
			},
			{
				"x": 1.4930993202,
				"y": -4.3645434321,
				"z": 3.9313038523,
				"element": "H" 
			},
			{
				"x": 3.0788066604,
				"y": -2.5565089443,
				"z": 3.545393222,
				"element": "H" 
			},
			{
				"x": 2.2618331096,
				"y": -2.2461155655,
				"z": 5.0807432976,
				"element": "H" 
			},
			{
				"x": 2.4622282444,
				"y": -0.1560216937,
				"z": 3.8242078007,
				"element": "H" 
			},
			{
				"x": 0.74192324,
				"y": -0.6096064269,
				"z": 3.9047915911,
				"element": "H" 
			},
			{
				"x": 0.9954727298,
				"y": 1.5208626374,
				"z": 3.0443013048,
				"element": "H" 
			},
			{
				"x": 0.3688586561,
				"y": 3.413044779,
				"z": 1.6176130831,
				"element": "H" 
			},
			{
				"x": 0.3744305567,
				"y": 4.4725673995,
				"z": -0.5500577898,
				"element": "H" 
			},
			{
				"x": -0.4489603026,
				"y": 4.5800667017,
				"z": -2.7267554561,
				"element": "H" 
			},
			{
				"x": -1.3671341341,
				"y": 0.3421040388,
				"z": -4.6219012862,
				"element": "H" 
			},
			{
				"x": -3.067752272,
				"y": -1.4157066359,
				"z": -4.1056984782,
				"element": "H" 
			},
			{
				"x": -4.4260284795,
				"y": -1.2405470978,
				"z": -2.0310475084,
				"element": "H" 
			},
			{
				"x": -4.0864816219,
				"y": 0.6717596078,
				"z": -0.4835223436,
				"element": "H" 
			},
			{
				"x": -2.3834215608,
				"y": 2.3976481946,
				"z": -0.9996864325,
				"element": "H" 
			},
			{
				"x": 0.940545536,
				"y": 0.9916672014,
				"z": -1.8890721047,
				"element": "H" 
			},
			{
				"x": 1.5624000658,
				"y": -0.9198212075,
				"z": -0.4518046,
				"element": "H" 
			}
		],
		 "valence_orbital": [ 
			{
				"type": "occ",
				"energy": -0.26171,
				"method": "rhf"
			},
			{
				"type": "occ",
				"energy": -0.25352,
				"method": "rhf"
			},
			{
				"type": "occ",
				"energy": -0.25193,
				"method": "rhf"
			},
			{
				"type": "occ",
				"energy": -0.24406,
				"method": "rhf"
			},
			{
				"type": "occ",
				"energy": -0.21385,
				"method": "rhf"
			},
			{
				"type": "unocc",
				"energy": -0.06109,
				"method": "rhf"
			},
			{
				"type": "unocc",
				"energy": -0.02673,
				"method": "rhf"
			},
			{
				"type": "unocc",
				"energy": -0.00948,
				"method": "rhf"
			},
			{
				"type": "unocc",
				"energy": -0.00103,
				"method": "rhf"
			},
			{
				"type": "unocc",
				"energy": 0.02209,
				"method": "rhf"
			}
		],
		"cosmo_sigma_profile": { 
			"-0.025": 0.0,
			"-0.024": 0.0,
			"-0.023": 0.0,
			"-0.022": 0.0,
			"-0.021": 0.0,
			"-0.02": 0.0,
			"-0.019": 0.0,
			"-0.018": 0.0,
			"-0.017": 0.0,
			"-0.016": 0.0,
			"-0.015": 0.0,
			"-0.014": 0.0,
			"-0.013": 0.0,
			"-0.012": 0.0,
			"-0.011": 0.0,
			"-0.01": 0.0,
			"-0.009": 0.0,
			"-0.008": 0.069755061266,
			"-0.007": 5.8025149842,
			"-0.006": 25.1458950687,
			"-0.005": 36.5807156561,
			"-0.004": 36.9437730635,
			"-0.003": 25.6428340327,
			"-0.002": 22.6755701564,
			"-0.001": 20.4103907877,
			"0.0": 19.5497865327,
			"0.001": 22.841858523,
			"0.002": 23.4433762394,
			"0.003": 26.4599287375,
			"0.004": 31.5474136784,
			"0.005": 20.4549284217,
			"0.006": 9.90424857468,
			"0.007": 8.20430188859,
			"0.008": 3.05484691751,
			"0.009": 1.36418145569,
			"0.01": 1.58142797068,
			"0.011": 3.31705767896,
			"0.012": 4.03359947979,
			"0.013": 2.13555594768,
			"0.014": 0.347623088223,
			"0.015": 0.0,
			"0.016": 0.0,
			"0.017": 0.0,
			"0.018": 0.0,
			"0.019": 0.0,
			"0.02": 0.0,
			"0.021": 0.0,
			"0.022": 0.0,
			"0.023": 0.0,
			"0.024": 0.0,
			"0.025": 0.0
		}
	}
}
