{
	 "smiles": "CC1(C)N=C(C2=CC=CC=C2)C(C)(C)N1O", 
	 "Tm": 352.65, 
	 "num_atms": 34, 
	 "gaussian": { 
		 "optdone": 1, 
		 "sigma_profile": "yes", 
		 "theory": "DFT", 
		 "functional": "B3LYP", 
		 "basiset": "6-31G**", 
		 "properties": { 
			 "R2extent": 4296.8065, 
			 "electric_dipole_moment_norm": 2.39804923636, 
			 "electric_quadrupole_moment_norm": 10.8814951629, 
			 "total_energy": -690.901001081, 
			 "HOMO_LUMO_gap": 0.17139, 
			 "cosmo_polarized_energy": -11.86, 
			 "cosmo_cavitation_energy": 34.29, 
			 "cosmo_dispersion_energy": -24.1, 
			 "cosmo_repulsion_energy": 1.85, 
			 "cosmo_total_nonelectrostatic_energy": 12.04, 
			 "SMD_solvation_energy": 3.91 
		},
		"coords": [
			{
				"x": -0.3572993356,
				"y": 0.692588994,
				"z": 2.4736849986,
				"element": "C" 
			},
			{
				"x": -0.5712806694,
				"y": 1.0324115677,
				"z": 0.9849196329,
				"element": "C" 
			},
			{
				"x": -2.0131913694,
				"y": 1.4987144324,
				"z": 0.7503957214,
				"element": "C" 
			},
			{
				"x": -0.2869425632,
				"y": -0.1502355572,
				"z": 0.1803076413,
				"element": "N" 
			},
			{
				"x": 0.7979047027,
				"y": 0.0110107324,
				"z": -0.4894383391,
				"element": "C" 
			},
			{
				"x": 1.2813207251,
				"y": -1.0710931419,
				"z": -1.3847162046,
				"element": "C" 
			},
			{
				"x": 2.5475713901,
				"y": -1.063593806,
				"z": -1.990925035,
				"element": "C" 
			},
			{
				"x": 2.9525574708,
				"y": -2.1165151591,
				"z": -2.8132080791,
				"element": "C" 
			},
			{
				"x": 2.0990315498,
				"y": -3.1934498309,
				"z": -3.0476944962,
				"element": "C" 
			},
			{
				"x": 0.8344794359,
				"y": -3.2133344046,
				"z": -2.4506602237,
				"element": "C" 
			},
			{
				"x": 0.431087,
				"y": -2.1665359219,
				"z": -1.629407754,
				"element": "C" 
			},
			{
				"x": 1.4900514248,
				"y": 1.363236748,
				"z": -0.2522359601,
				"element": "C" 
			},
			{
				"x": 2.7565049792,
				"y": 1.2177254365,
				"z": 0.6237481765,
				"element": "C" 
			},
			{
				"x": 1.8072047562,
				"y": 2.170792515,
				"z": -1.5234203986,
				"element": "C" 
			},
			{
				"x": 0.3614093952,
				"y": 2.0518129979,
				"z": 0.4325150479,
				"element": "N" 
			},
			{
				"x": 0.7436543707,
				"y": 3.0659184218,
				"z": 1.3374800167,
				"element": "O" 
			},
			{
				"x": 0.6622389093,
				"y": 0.3481632402,
				"z": 2.6734726908,
				"element": "H" 
			},
			{
				"x": -0.5744480122,
				"y": 1.5593454098,
				"z": 3.1048645401,
				"element": "H" 
			},
			{
				"x": -1.0355638298,
				"y": -0.1155174004,
				"z": 2.7574621248,
				"element": "H" 
			},
			{
				"x": -2.1826270258,
				"y": 2.4438538796,
				"z": 1.2748009333,
				"element": "H" 
			},
			{
				"x": -2.7285259064,
				"y": 0.7547875502,
				"z": 1.1133157624,
				"element": "H" 
			},
			{
				"x": -2.1787940964,
				"y": 1.6619106541,
				"z": -0.3168409658,
				"element": "H" 
			},
			{
				"x": 3.2320630756,
				"y": -0.2414594498,
				"z": -1.8243235099,
				"element": "H" 
			},
			{
				"x": 3.9377345745,
				"y": -2.0912406991,
				"z": -3.2699217775,
				"element": "H" 
			},
			{
				"x": 2.4138095413,
				"y": -4.0106023526,
				"z": -3.6904524789,
				"element": "H" 
			},
			{
				"x": 0.161751682,
				"y": -4.0474439905,
				"z": -2.6290940316,
				"element": "H" 
			},
			{
				"x": -0.5460513205,
				"y": -2.1705316546,
				"z": -1.159631931,
				"element": "H" 
			},
			{
				"x": 3.12581042,
				"y": 2.2082002941,
				"z": 0.9065517123,
				"element": "H" 
			},
			{
				"x": 3.555886043,
				"y": 0.7111395568,
				"z": 0.0790410107,
				"element": "H" 
			},
			{
				"x": 2.5671303121,
				"y": 0.6379343427,
				"z": 1.5323764765,
				"element": "H" 
			},
			{
				"x": 0.9457250058,
				"y": 2.1784591401,
				"z": -2.1954553798,
				"element": "H" 
			},
			{
				"x": 2.6755198401,
				"y": 1.7902518256,
				"z": -2.0672765111,
				"element": "H" 
			},
			{
				"x": 2.0131287116,
				"y": 3.2044942256,
				"z": -1.2288557857,
				"element": "H" 
			},
			{
				"x": 1.212748813,
				"y": 2.6388014041,
				"z": 2.0777223755,
				"element": "H" 
			}
		],
		 "valence_orbital": [ 
			{
				"type": "occ",
				"energy": -0.29282,
				"method": "rhf"
			},
			{
				"type": "occ",
				"energy": -0.25548,
				"method": "rhf"
			},
			{
				"type": "occ",
				"energy": -0.25337,
				"method": "rhf"
			},
			{
				"type": "occ",
				"energy": -0.24085,
				"method": "rhf"
			},
			{
				"type": "occ",
				"energy": -0.21552,
				"method": "rhf"
			},
			{
				"type": "unocc",
				"energy": -0.04413,
				"method": "rhf"
			},
			{
				"type": "unocc",
				"energy": -0.00439,
				"method": "rhf"
			},
			{
				"type": "unocc",
				"energy": 0.04385,
				"method": "rhf"
			},
			{
				"type": "unocc",
				"energy": 0.05913,
				"method": "rhf"
			},
			{
				"type": "unocc",
				"energy": 0.08783,
				"method": "rhf"
			}
		],
		"cosmo_sigma_profile": { 
			"-0.025": 0.0,
			"-0.024": 0.0,
			"-0.023": 0.0,
			"-0.022": 0.0,
			"-0.021": 0.0,
			"-0.02": 0.0,
			"-0.019": 0.0,
			"-0.018": 0.0,
			"-0.017": 0.0,
			"-0.016": 0.0,
			"-0.015": 0.0428923551719,
			"-0.014": 0.462966171728,
			"-0.013": 0.705932075225,
			"-0.012": 1.08093285577,
			"-0.011": 1.10885939811,
			"-0.01": 1.14022384882,
			"-0.009": 1.26239907583,
			"-0.008": 1.63674928162,
			"-0.007": 3.55909031364,
			"-0.006": 9.59283518304,
			"-0.005": 14.3936922657,
			"-0.004": 20.3469802442,
			"-0.003": 25.9559825675,
			"-0.002": 26.3296195051,
			"-0.001": 25.7770022559,
			"0.0": 30.2737527478,
			"0.001": 23.2450565662,
			"0.002": 13.878045117,
			"0.003": 13.5244442265,
			"0.004": 15.1306697346,
			"0.005": 13.4812372927,
			"0.006": 3.91665729919,
			"0.007": 3.33823027063,
			"0.008": 2.95770502148,
			"0.009": 2.87912187528,
			"0.01": 3.02777342115,
			"0.011": 2.50005252144,
			"0.012": 3.57703085052,
			"0.013": 3.51088132357,
			"0.014": 0.594091479903,
			"0.015": 0.0165602928501,
			"0.016": 0.0,
			"0.017": 0.0,
			"0.018": 0.0,
			"0.019": 0.0,
			"0.02": 0.0,
			"0.021": 0.0,
			"0.022": 0.0,
			"0.023": 0.0,
			"0.024": 0.0,
			"0.025": 0.0
		}
	}
}
