{
	 "smiles": "NC(CC(O)=O)C1CCCCC1", 
	 "Tm": 507.15, 
	 "num_atms": 29, 
	 "gaussian": { 
		 "optdone": 1, 
		 "sigma_profile": "yes", 
		 "theory": "DFT", 
		 "functional": "B3LYP", 
		 "basiset": "6-31G**", 
		 "properties": { 
			 "R2extent": 3104.4395, 
			 "electric_dipole_moment_norm": 4.10210153702, 
			 "electric_quadrupole_moment_norm": 16.9089949018, 
			 "total_energy": -558.420101283, 
			 "HOMO_LUMO_gap": 0.23663, 
			 "cosmo_polarized_energy": -16.17, 
			 "cosmo_cavitation_energy": 29.15, 
			 "cosmo_dispersion_energy": -21.32, 
			 "cosmo_repulsion_energy": 1.72, 
			 "cosmo_total_nonelectrostatic_energy": 9.54, 
			 "SMD_solvation_energy": 4.27 
		},
		"coords": [
			{
				"x": 1.6803188188,
				"y": 0.0097600954,
				"z": -1.4290708443,
				"element": "N" 
			},
			{
				"x": 0.5422112707,
				"y": 0.858183203,
				"z": -1.0732264664,
				"element": "C" 
			},
			{
				"x": -0.6254064214,
				"y": 0.8070008162,
				"z": -2.0859428383,
				"element": "C" 
			},
			{
				"x": -0.2418381384,
				"y": 1.2868301215,
				"z": -3.4801083608,
				"element": "C" 
			},
			{
				"x": -1.2611947071,
				"y": 1.3330872216,
				"z": -4.3797694164,
				"element": "O" 
			},
			{
				"x": 0.868812043,
				"y": 1.6144898657,
				"z": -3.8236492572,
				"element": "O" 
			},
			{
				"x": 0.0627524589,
				"y": 0.5677210282,
				"z": 0.3694189701,
				"element": "C" 
			},
			{
				"x": 1.133533299,
				"y": 1.018810157,
				"z": 1.3975298027,
				"element": "C" 
			},
			{
				"x": 1.0321468106,
				"y": 0.2711862445,
				"z": 2.7465126402,
				"element": "C" 
			},
			{
				"x": -0.4220541666,
				"y": -0.0968620803,
				"z": 3.067584563,
				"element": "C" 
			},
			{
				"x": -0.9915292894,
				"y": -1.0730977321,
				"z": 2.0092046914,
				"element": "C" 
			},
			{
				"x": -0.3175695763,
				"y": -0.9021326648,
				"z": 0.626634693,
				"element": "C" 
			},
			{
				"x": 2.0650028358,
				"y": 0.3383796859,
				"z": -2.3107235686,
				"element": "H" 
			},
			{
				"x": 1.3780868869,
				"y": -0.9511440874,
				"z": -1.5734766587,
				"element": "H" 
			},
			{
				"x": 0.9180411376,
				"y": 1.8894788123,
				"z": -1.0863409585,
				"element": "H" 
			},
			{
				"x": -1.0148141348,
				"y": -0.217259725,
				"z": -2.176308648,
				"element": "H" 
			},
			{
				"x": -1.4667849648,
				"y": 1.4228083186,
				"z": -1.7350885585,
				"element": "H" 
			},
			{
				"x": -2.0879689041,
				"y": 1.0556191443,
				"z": -3.9597121545,
				"element": "H" 
			},
			{
				"x": -0.8445851316,
				"y": 1.1707241562,
				"z": 0.5264441437,
				"element": "H" 
			},
			{
				"x": 2.1222580018,
				"y": 0.8560892444,
				"z": 0.9568086055,
				"element": "H" 
			},
			{
				"x": 1.0287634635,
				"y": 2.0986891013,
				"z": 1.5629664328,
				"element": "H" 
			},
			{
				"x": 1.632333314,
				"y": -0.64741571,
				"z": 2.7106407012,
				"element": "H" 
			},
			{
				"x": 1.4631238652,
				"y": 0.8827113856,
				"z": 3.5472417864,
				"element": "H" 
			},
			{
				"x": -0.5031267262,
				"y": -0.5361722761,
				"z": 4.0682006637,
				"element": "H" 
			},
			{
				"x": -1.022653174,
				"y": 0.8221315498,
				"z": 3.0891468663,
				"element": "H" 
			},
			{
				"x": -0.8583337613,
				"y": -2.1085178858,
				"z": 2.3446165237,
				"element": "H" 
			},
			{
				"x": -2.0735558948,
				"y": -0.9194250912,
				"z": 1.9152364645,
				"element": "H" 
			},
			{
				"x": 0.5942285134,
				"y": -1.5103976945,
				"z": 0.5817519197,
				"element": "H" 
			},
			{
				"x": -0.9858977283,
				"y": -1.2893752041,
				"z": -0.1528217377,
				"element": "H" 
			}
		],
		 "valence_orbital": [ 
			{
				"type": "occ",
				"energy": -0.29725,
				"method": "rhf"
			},
			{
				"type": "occ",
				"energy": -0.29562,
				"method": "rhf"
			},
			{
				"type": "occ",
				"energy": -0.29245,
				"method": "rhf"
			},
			{
				"type": "occ",
				"energy": -0.27817,
				"method": "rhf"
			},
			{
				"type": "occ",
				"energy": -0.23304,
				"method": "rhf"
			},
			{
				"type": "unocc",
				"energy": 0.00359,
				"method": "rhf"
			},
			{
				"type": "unocc",
				"energy": 0.05078,
				"method": "rhf"
			},
			{
				"type": "unocc",
				"energy": 0.07093,
				"method": "rhf"
			},
			{
				"type": "unocc",
				"energy": 0.09664,
				"method": "rhf"
			},
			{
				"type": "unocc",
				"energy": 0.10027,
				"method": "rhf"
			}
		],
		"cosmo_sigma_profile": { 
			"-0.025": 0.0,
			"-0.024": 0.0,
			"-0.023": 0.0,
			"-0.022": 0.0,
			"-0.021": 0.0,
			"-0.02": 0.0,
			"-0.019": 0.411935921141,
			"-0.018": 0.933224570855,
			"-0.017": 1.11470905322,
			"-0.016": 1.17226902859,
			"-0.015": 1.24644366137,
			"-0.014": 0.967979199393,
			"-0.013": 1.00560098474,
			"-0.012": 1.19561845159,
			"-0.011": 1.47989166293,
			"-0.01": 1.36887500039,
			"-0.009": 1.51075533707,
			"-0.008": 3.37887425994,
			"-0.007": 5.47437481179,
			"-0.006": 7.78974835658,
			"-0.005": 7.85042611103,
			"-0.004": 6.72301011995,
			"-0.003": 9.36390443513,
			"-0.002": 19.749898936,
			"-0.001": 31.5484661322,
			"0.0": 32.9759852376,
			"0.001": 23.7845096773,
			"0.002": 17.4413753786,
			"0.003": 4.41569146257,
			"0.004": 2.93786400088,
			"0.005": 4.00109732815,
			"0.006": 3.04922216351,
			"0.007": 3.19458931894,
			"0.008": 3.82548467552,
			"0.009": 3.55948428888,
			"0.01": 4.63511596748,
			"0.011": 6.23173237842,
			"0.012": 3.99556461491,
			"0.013": 2.67365747465,
			"0.014": 0.945559051242,
			"0.015": 0.706526657984,
			"0.016": 0.597873381625,
			"0.017": 0.356463661351,
			"0.018": 0.322204384517,
			"0.019": 0.0,
			"0.02": 0.0,
			"0.021": 0.0,
			"0.022": 0.0,
			"0.023": 0.0,
			"0.024": 0.0,
			"0.025": 0.0
		}
	}
}
