{
	 "smiles": "CN1N=C(C(=C1N)C1=CC=CC=C1)C(F)(F)F", 
	 "Tm": 360.15, 
	 "num_atms": 27, 
	 "gaussian": { 
		 "optdone": 1, 
		 "sigma_profile": "yes", 
		 "theory": "DFT", 
		 "functional": "B3LYP", 
		 "basiset": "6-31G**", 
		 "properties": { 
			 "R2extent": 4415.9484, 
			 "electric_dipole_moment_norm": 5.43424362814, 
			 "electric_quadrupole_moment_norm": 17.9020219163, 
			 "total_energy": -888.964356455, 
			 "HOMO_LUMO_gap": 0.19711, 
			 "cosmo_polarized_energy": -13.64, 
			 "cosmo_cavitation_energy": 31.91, 
			 "cosmo_dispersion_energy": -22.65, 
			 "cosmo_repulsion_energy": 1.71, 
			 "cosmo_total_nonelectrostatic_energy": 10.98, 
			 "SMD_solvation_energy": 5.46 
		},
		"coords": [
			{
				"x": -3.0378894425,
				"y": -3.5480466728,
				"z": -0.4366523644,
				"element": "C" 
			},
			{
				"x": -2.3803763039,
				"y": -2.2898277694,
				"z": -0.1465098861,
				"element": "N" 
			},
			{
				"x": -2.8201799131,
				"y": -1.5084543426,
				"z": 0.8695164739,
				"element": "N" 
			},
			{
				"x": -2.0129200803,
				"y": -0.4548006022,
				"z": 0.849255552,
				"element": "C" 
			},
			{
				"x": -1.02375024,
				"y": -0.529568206,
				"z": -0.172579598,
				"element": "C" 
			},
			{
				"x": -1.3059067049,
				"y": -1.7521904101,
				"z": -0.7872300008,
				"element": "C" 
			},
			{
				"x": -0.7192997809,
				"y": -2.3920340903,
				"z": -1.8773110572,
				"element": "N" 
			},
			{
				"x": 0.0612247005,
				"y": 0.3965911335,
				"z": -0.5396912943,
				"element": "C" 
			},
			{
				"x": 0.3388036809,
				"y": 0.6651689218,
				"z": -1.8934443431,
				"element": "C" 
			},
			{
				"x": 1.3918919138,
				"y": 1.5054279602,
				"z": -2.2581332441,
				"element": "C" 
			},
			{
				"x": 2.1803422444,
				"y": 2.1074190918,
				"z": -1.2774931428,
				"element": "C" 
			},
			{
				"x": 1.9046730187,
				"y": 1.8629513042,
				"z": 0.0703137303,
				"element": "C" 
			},
			{
				"x": 0.8628533031,
				"y": 1.0141970125,
				"z": 0.4375794106,
				"element": "C" 
			},
			{
				"x": -2.2161811778,
				"y": 0.630207881,
				"z": 1.8602484569,
				"element": "C" 
			},
			{
				"x": -3.4197934966,
				"y": 0.5554760872,
				"z": 2.4486513288,
				"element": "F" 
			},
			{
				"x": -2.1004944667,
				"y": 1.8545229305,
				"z": 1.3000512493,
				"element": "F" 
			},
			{
				"x": -1.2845897312,
				"y": 0.5707854958,
				"z": 2.8530122842,
				"element": "F" 
			},
			{
				"x": -2.4727601481,
				"y": -4.4012888658,
				"z": -0.0423093828,
				"element": "H" 
			},
			{
				"x": -3.1564604221,
				"y": -3.66184095,
				"z": -1.5177888279,
				"element": "H" 
			},
			{
				"x": -4.0165935957,
				"y": -3.522357396,
				"z": 0.0411329697,
				"element": "H" 
			},
			{
				"x": -0.5298933918,
				"y": -3.3764309732,
				"z": -1.7201349674,
				"element": "H" 
			},
			{
				"x": 0.1269316477,
				"y": -1.9187493112,
				"z": -2.172804519,
				"element": "H" 
			},
			{
				"x": -0.3017530341,
				"y": 0.244078725,
				"z": -2.6641671419,
				"element": "H" 
			},
			{
				"x": 1.5838833271,
				"y": 1.7009782157,
				"z": -3.3095266427,
				"element": "H" 
			},
			{
				"x": 2.9969086058,
				"y": 2.765911535,
				"z": -1.5588544248,
				"element": "H" 
			},
			{
				"x": 2.5100126338,
				"y": 2.3305036233,
				"z": 0.8418483373,
				"element": "H" 
			},
			{
				"x": 0.6658168538,
				"y": 0.8226696723,
				"z": 1.4863210443,
				"element": "H" 
			}
		],
		 "valence_orbital": [ 
			{
				"type": "occ",
				"energy": -0.29875,
				"method": "rhf"
			},
			{
				"type": "occ",
				"energy": -0.27465,
				"method": "rhf"
			},
			{
				"type": "occ",
				"energy": -0.25151,
				"method": "rhf"
			},
			{
				"type": "occ",
				"energy": -0.24353,
				"method": "rhf"
			},
			{
				"type": "occ",
				"energy": -0.21013,
				"method": "rhf"
			},
			{
				"type": "unocc",
				"energy": -0.01302,
				"method": "rhf"
			},
			{
				"type": "unocc",
				"energy": -0.00469,
				"method": "rhf"
			},
			{
				"type": "unocc",
				"energy": 0.0122,
				"method": "rhf"
			},
			{
				"type": "unocc",
				"energy": 0.05978,
				"method": "rhf"
			},
			{
				"type": "unocc",
				"energy": 0.07014,
				"method": "rhf"
			}
		],
		"cosmo_sigma_profile": { 
			"-0.025": 0.0,
			"-0.024": 0.0,
			"-0.023": 0.0,
			"-0.022": 0.0,
			"-0.021": 0.0,
			"-0.02": 0.0,
			"-0.019": 0.0,
			"-0.018": 0.0,
			"-0.017": 0.0,
			"-0.016": 0.0,
			"-0.015": 0.0,
			"-0.014": 0.381581543868,
			"-0.013": 1.51475788564,
			"-0.012": 2.60910771841,
			"-0.011": 2.99912894118,
			"-0.01": 2.72278046046,
			"-0.009": 1.88638145225,
			"-0.008": 2.67835253696,
			"-0.007": 4.33683675604,
			"-0.006": 13.311826203,
			"-0.005": 15.9499649384,
			"-0.004": 18.0953364371,
			"-0.003": 18.7149645537,
			"-0.002": 11.5958390759,
			"-0.001": 10.8216188299,
			"0.0": 12.6916883071,
			"0.001": 16.3046273507,
			"0.002": 26.5300818082,
			"0.003": 40.9807546717,
			"0.004": 16.7597234252,
			"0.005": 13.4167804943,
			"0.006": 7.56280858649,
			"0.007": 2.57821765626,
			"0.008": 1.58846263418,
			"0.009": 1.70488553142,
			"0.01": 1.99121131883,
			"0.011": 1.210741097,
			"0.012": 2.17450256883,
			"0.013": 1.03403582541,
			"0.014": 0.852061378574,
			"0.015": 0.177908565016,
			"0.016": 0.0,
			"0.017": 0.0,
			"0.018": 0.0,
			"0.019": 0.0,
			"0.02": 0.0,
			"0.021": 0.0,
			"0.022": 0.0,
			"0.023": 0.0,
			"0.024": 0.0,
			"0.025": 0.0
		}
	}
}
