{
	 "smiles": "CC1=CC=C(C=C1)C1=CSN=N1", 
	 "Tm": 347.15, 
	 "num_atms": 20, 
	 "gaussian": { 
		 "optdone": 1, 
		 "sigma_profile": "yes", 
		 "theory": "DFT", 
		 "functional": "B3LYP", 
		 "basiset": "6-31G**", 
		 "properties": { 
			 "R2extent": 3622.6499, 
			 "electric_dipole_moment_norm": 3.60103926943, 
			 "electric_quadrupole_moment_norm": 12.9085964253, 
			 "total_energy": -855.436381146, 
			 "HOMO_LUMO_gap": 0.16612, 
			 "cosmo_polarized_energy": -8.57, 
			 "cosmo_cavitation_energy": 25.94, 
			 "cosmo_dispersion_energy": -19.89, 
			 "cosmo_repulsion_energy": 1.51, 
			 "cosmo_total_nonelectrostatic_energy": 7.56, 
			 "SMD_solvation_energy": 2.79 
		},
		"coords": [
			{
				"x": -1.5437861962,
				"y": 0.067517371,
				"z": 3.4413074668,
				"element": "C" 
			},
			{
				"x": -0.9132511944,
				"y": -0.3263800065,
				"z": 2.1273831065,
				"element": "C" 
			},
			{
				"x": -0.8160908679,
				"y": 0.5849916674,
				"z": 1.0675580697,
				"element": "C" 
			},
			{
				"x": -0.2093505108,
				"y": 0.2365533234,
				"z": -0.1357786011,
				"element": "C" 
			},
			{
				"x": 0.3237684237,
				"y": -1.0493979397,
				"z": -0.3218971911,
				"element": "C" 
			},
			{
				"x": 0.2248474119,
				"y": -1.9674793565,
				"z": 0.7354424988,
				"element": "C" 
			},
			{
				"x": -0.3833362007,
				"y": -1.6098879467,
				"z": 1.9348756819,
				"element": "C" 
			},
			{
				"x": 0.9610051485,
				"y": -1.4065551099,
				"z": -1.6005316734,
				"element": "C" 
			},
			{
				"x": 1.5461822775,
				"y": -2.6011650677,
				"z": -1.9647162319,
				"element": "C" 
			},
			{
				"x": 2.1385681355,
				"y": -2.4971722231,
				"z": -3.5567749069,
				"element": "S" 
			},
			{
				"x": 1.5801379288,
				"y": -0.8354874559,
				"z": -3.6943333594,
				"element": "N" 
			},
			{
				"x": 1.0190592075,
				"y": -0.4706083767,
				"z": -2.6180591815,
				"element": "N" 
			},
			{
				"x": -0.7981038,
				"y": 0.489365309,
				"z": 4.1271752645,
				"element": "H" 
			},
			{
				"x": -2.3202407182,
				"y": 0.8254999603,
				"z": 3.3012101962,
				"element": "H" 
			},
			{
				"x": -1.9956946141,
				"y": -0.7932355589,
				"z": 3.9434366163,
				"element": "H" 
			},
			{
				"x": -1.2242427234,
				"y": 1.5858365453,
				"z": 1.1850103232,
				"element": "H" 
			},
			{
				"x": -0.1451850572,
				"y": 0.9548794953,
				"z": -0.9453700785,
				"element": "H" 
			},
			{
				"x": 0.6195320221,
				"y": -2.9734584875,
				"z": 0.6257984123,
				"element": "H" 
			},
			{
				"x": -0.449891569,
				"y": -2.3416235166,
				"z": 2.7361964093,
				"element": "H" 
			},
			{
				"x": 1.6426728965,
				"y": -3.4976926261,
				"z": -1.3702328217,
				"element": "H" 
			}
		],
		 "valence_orbital": [ 
			{
				"type": "occ",
				"energy": -0.31116,
				"method": "rhf"
			},
			{
				"type": "occ",
				"energy": -0.29406,
				"method": "rhf"
			},
			{
				"type": "occ",
				"energy": -0.2615,
				"method": "rhf"
			},
			{
				"type": "occ",
				"energy": -0.25601,
				"method": "rhf"
			},
			{
				"type": "occ",
				"energy": -0.2268,
				"method": "rhf"
			},
			{
				"type": "unocc",
				"energy": -0.06068,
				"method": "rhf"
			},
			{
				"type": "unocc",
				"energy": -0.02695,
				"method": "rhf"
			},
			{
				"type": "unocc",
				"energy": -0.01204,
				"method": "rhf"
			},
			{
				"type": "unocc",
				"energy": -0.00505,
				"method": "rhf"
			},
			{
				"type": "unocc",
				"energy": 0.06317,
				"method": "rhf"
			}
		],
		"cosmo_sigma_profile": { 
			"-0.025": 0.0,
			"-0.024": 0.0,
			"-0.023": 0.0,
			"-0.022": 0.0,
			"-0.021": 0.0,
			"-0.02": 0.0,
			"-0.019": 0.0,
			"-0.018": 0.0,
			"-0.017": 0.0,
			"-0.016": 0.0,
			"-0.015": 0.0,
			"-0.014": 0.0,
			"-0.013": 0.0,
			"-0.012": 0.0,
			"-0.011": 1.60597998123,
			"-0.01": 2.80108068536,
			"-0.009": 2.57488802204,
			"-0.008": 2.42072449018,
			"-0.007": 2.17939748817,
			"-0.006": 4.45375215584,
			"-0.005": 9.23909891117,
			"-0.004": 17.6066012992,
			"-0.003": 14.898084672,
			"-0.002": 18.9645857496,
			"-0.001": 22.2444967976,
			"0.0": 25.5252553859,
			"0.001": 20.4045797642,
			"0.002": 13.6361817926,
			"0.003": 10.4018474478,
			"0.004": 10.7058559111,
			"0.005": 11.7876633542,
			"0.006": 4.32278863868,
			"0.007": 1.97892059138,
			"0.008": 2.36792265556,
			"0.009": 3.68557665101,
			"0.01": 3.35762725241,
			"0.011": 2.13456215635,
			"0.012": 1.22428783888,
			"0.013": 0.342457789586,
			"0.014": 0.0,
			"0.015": 0.0,
			"0.016": 0.0,
			"0.017": 0.0,
			"0.018": 0.0,
			"0.019": 0.0,
			"0.02": 0.0,
			"0.021": 0.0,
			"0.022": 0.0,
			"0.023": 0.0,
			"0.024": 0.0,
			"0.025": 0.0
		}
	}
}
