{
	 "smiles": "OC(=O)C(CC1=CC=CS1)NC(=O)OCC1C2=C(C=CC=C2)C2=C1C=CC=C2", 
	 "Tm": 442.15, 
	 "num_atms": 47, 
	 "gaussian": { 
		 "optdone": 1, 
		 "sigma_profile": "yes", 
		 "theory": "DFT", 
		 "functional": "B3LYP", 
		 "basiset": "6-31G**", 
		 "properties": { 
			 "R2extent": 10778.7399, 
			 "electric_dipole_moment_norm": 1.44515514392, 
			 "electric_quadrupole_moment_norm": 10.8652588957, 
			 "total_energy": -1603.66422267, 
			 "HOMO_LUMO_gap": 0.1836, 
			 "cosmo_polarized_energy": -20.02, 
			 "cosmo_cavitation_energy": 51.14, 
			 "cosmo_dispersion_energy": -33.45, 
			 "cosmo_repulsion_energy": 2.46, 
			 "cosmo_total_nonelectrostatic_energy": 20.16, 
			 "SMD_solvation_energy": 9.59 
		},
		"coords": [
			{
				"x": 1.2508175731,
				"y": 0.1943282479,
				"z": 1.7368107703,
				"element": "O" 
			},
			{
				"x": 1.2308326796,
				"y": -0.9155985452,
				"z": 0.9795844236,
				"element": "C" 
			},
			{
				"x": 2.0966490524,
				"y": -1.2028594282,
				"z": 0.1823192217,
				"element": "O" 
			},
			{
				"x": 0.0253760822,
				"y": -1.8195763729,
				"z": 1.2924071752,
				"element": "C" 
			},
			{
				"x": -0.2908327544,
				"y": -2.7362902256,
				"z": 0.0869950302,
				"element": "C" 
			},
			{
				"x": -1.1298302527,
				"y": -3.9333838147,
				"z": 0.4287855888,
				"element": "C" 
			},
			{
				"x": -0.7588550133,
				"y": -5.2523705638,
				"z": 0.3638055727,
				"element": "C" 
			},
			{
				"x": -1.7938549481,
				"y": -6.1626345164,
				"z": 0.739874485,
				"element": "C" 
			},
			{
				"x": -2.952018622,
				"y": -5.526643859,
				"z": 1.0873093153,
				"element": "C" 
			},
			{
				"x": -2.7918626789,
				"y": -3.8020200028,
				"z": 0.9670497478,
				"element": "S" 
			},
			{
				"x": -1.1320252623,
				"y": -1.097574856,
				"z": 1.8027189592,
				"element": "N" 
			},
			{
				"x": -1.7291647942,
				"y": 0.0011936952,
				"z": 1.2433886794,
				"element": "C" 
			},
			{
				"x": -2.5831216007,
				"y": 0.6670041749,
				"z": 1.7970799896,
				"element": "O" 
			},
			{
				"x": -1.2580943408,
				"y": 0.2282200393,
				"z": -0.0138133828,
				"element": "O" 
			},
			{
				"x": -1.8122482247,
				"y": 1.3626211507,
				"z": -0.7030347539,
				"element": "C" 
			},
			{
				"x": -0.7206734938,
				"y": 2.0274137461,
				"z": -1.5485677879,
				"element": "C" 
			},
			{
				"x": -0.0863070114,
				"y": 1.1210312159,
				"z": -2.5935615322,
				"element": "C" 
			},
			{
				"x": 1.3083483132,
				"y": 1.0593530623,
				"z": -2.4051140539,
				"element": "C" 
			},
			{
				"x": 2.1043287233,
				"y": 0.2837409114,
				"z": -3.2498096929,
				"element": "C" 
			},
			{
				"x": 1.492939612,
				"y": -0.426877321,
				"z": -4.2845705213,
				"element": "C" 
			},
			{
				"x": 0.1078230582,
				"y": -0.3639276155,
				"z": -4.4731432587,
				"element": "C" 
			},
			{
				"x": -0.6910377638,
				"y": 0.4128112691,
				"z": -3.6259241329,
				"element": "C" 
			},
			{
				"x": 1.662361369,
				"y": 1.9035310971,
				"z": -1.2560191913,
				"element": "C" 
			},
			{
				"x": 0.4863625193,
				"y": 2.4894835537,
				"z": -0.7455743673,
				"element": "C" 
			},
			{
				"x": 0.5363105204,
				"y": 3.3357010105,
				"z": 0.3562276133,
				"element": "C" 
			},
			{
				"x": 1.7734273405,
				"y": 3.5934763695,
				"z": 0.9590859613,
				"element": "C" 
			},
			{
				"x": 2.9432164336,
				"y": 3.0065508506,
				"z": 0.4589457631,
				"element": "C" 
			},
			{
				"x": 2.8972470237,
				"y": 2.1584780255,
				"z": -0.6534327365,
				"element": "C" 
			},
			{
				"x": 1.9992299069,
				"y": 0.739802861,
				"z": 1.4315983236,
				"element": "H" 
			},
			{
				"x": 0.3587532655,
				"y": -2.4614875801,
				"z": 2.1173317677,
				"element": "H" 
			},
			{
				"x": -0.7574166176,
				"y": -2.1243173206,
				"z": -0.6910639969,
				"element": "H" 
			},
			{
				"x": 0.6623407603,
				"y": -3.0855639635,
				"z": -0.3170363215,
				"element": "H" 
			},
			{
				"x": 0.2308203264,
				"y": -5.5627105717,
				"z": 0.0448288797,
				"element": "H" 
			},
			{
				"x": -1.6770131839,
				"y": -7.2405469124,
				"z": 0.748479182,
				"element": "H" 
			},
			{
				"x": -3.8861012859,
				"y": -5.9613956064,
				"z": 1.4154489866,
				"element": "H" 
			},
			{
				"x": -1.4025473764,
				"y": -1.2393620608,
				"z": 2.7632873407,
				"element": "H" 
			},
			{
				"x": -2.2277268104,
				"y": 2.0550365054,
				"z": 0.0317044038,
				"element": "H" 
			},
			{
				"x": -2.6300934596,
				"y": 1.0105861064,
				"z": -1.3419689905,
				"element": "H" 
			},
			{
				"x": -1.2040518917,
				"y": 2.8870132406,
				"z": -2.0377817134,
				"element": "H" 
			},
			{
				"x": 3.1789595596,
				"y": 0.2254841912,
				"z": -3.1040986795,
				"element": "H" 
			},
			{
				"x": 2.0982254665,
				"y": -1.0365425583,
				"z": -4.949210135,
				"element": "H" 
			},
			{
				"x": -0.351496963,
				"y": -0.9229201115,
				"z": -5.2832528983,
				"element": "H" 
			},
			{
				"x": -1.7664815161,
				"y": 0.4562366658,
				"z": -3.7797495843,
				"element": "H" 
			},
			{
				"x": -0.3682924111,
				"y": 3.7843210705,
				"z": 0.7582132639,
				"element": "H" 
			},
			{
				"x": 1.8264307405,
				"y": 4.2502366673,
				"z": 1.8223038371,
				"element": "H" 
			},
			{
				"x": 3.8968087788,
				"y": 3.2183098046,
				"z": 0.9346944491,
				"element": "H" 
			},
			{
				"x": 3.8064391717,
				"y": 1.7027382739,
				"z": -1.0341509997,
				"element": "H" 
			}
		],
		 "valence_orbital": [ 
			{
				"type": "occ",
				"energy": -0.25418,
				"method": "rhf"
			},
			{
				"type": "occ",
				"energy": -0.24695,
				"method": "rhf"
			},
			{
				"type": "occ",
				"energy": -0.24238,
				"method": "rhf"
			},
			{
				"type": "occ",
				"energy": -0.22266,
				"method": "rhf"
			},
			{
				"type": "occ",
				"energy": -0.21933,
				"method": "rhf"
			},
			{
				"type": "unocc",
				"energy": -0.03573,
				"method": "rhf"
			},
			{
				"type": "unocc",
				"energy": -0.01842,
				"method": "rhf"
			},
			{
				"type": "unocc",
				"energy": -0.00674,
				"method": "rhf"
			},
			{
				"type": "unocc",
				"energy": 0.00416,
				"method": "rhf"
			},
			{
				"type": "unocc",
				"energy": 0.00762,
				"method": "rhf"
			}
		],
		"cosmo_sigma_profile": { 
			"-0.025": 0.0,
			"-0.024": 0.0,
			"-0.023": 0.0,
			"-0.022": 0.0,
			"-0.021": 0.0,
			"-0.02": 0.0,
			"-0.019": 0.0,
			"-0.018": 0.0,
			"-0.017": 0.0,
			"-0.016": 0.0,
			"-0.015": 0.709338401698,
			"-0.014": 1.12412457403,
			"-0.013": 1.25412937697,
			"-0.012": 1.2983856351,
			"-0.011": 1.31520549432,
			"-0.01": 1.95379439959,
			"-0.009": 3.7528517404,
			"-0.008": 4.19411088956,
			"-0.007": 7.62268683331,
			"-0.006": 31.084021486,
			"-0.005": 33.17214363,
			"-0.004": 31.7701145174,
			"-0.003": 29.9238680323,
			"-0.002": 26.7433261065,
			"-0.001": 23.6922680697,
			"0.0": 22.3704734822,
			"0.001": 21.6560237232,
			"0.002": 25.8800900054,
			"0.003": 30.1620157592,
			"0.004": 31.1857932451,
			"0.005": 29.7178518324,
			"0.006": 15.9064326547,
			"0.007": 8.24606036662,
			"0.008": 3.55940769068,
			"0.009": 4.14753947593,
			"0.01": 3.24423946669,
			"0.011": 4.30443945639,
			"0.012": 4.54569100678,
			"0.013": 4.70947357012,
			"0.014": 0.309816738686,
			"0.015": 0.0,
			"0.016": 0.0,
			"0.017": 0.0,
			"0.018": 0.0,
			"0.019": 0.0,
			"0.02": 0.0,
			"0.021": 0.0,
			"0.022": 0.0,
			"0.023": 0.0,
			"0.024": 0.0,
			"0.025": 0.0
		}
	}
}
