{
	 "smiles": "N[C@@H](CO)CC1=CC=CC=C1", 
	 "Tm": 364.65, 
	 "num_atms": 24, 
	 "gaussian": { 
		 "optdone": 1, 
		 "sigma_profile": "yes", 
		 "theory": "DFT", 
		 "functional": "B3LYP", 
		 "basiset": "6-31G**", 
		 "properties": { 
			 "R2extent": 2206.009, 
			 "electric_dipole_moment_norm": 0.921890367669, 
			 "electric_quadrupole_moment_norm": 4.44534815284, 
			 "total_energy": -480.758362823, 
			 "HOMO_LUMO_gap": 0.2346, 
			 "cosmo_polarized_energy": -9.78, 
			 "cosmo_cavitation_energy": 26.25, 
			 "cosmo_dispersion_energy": -19.05, 
			 "cosmo_repulsion_energy": 1.57, 
			 "cosmo_total_nonelectrostatic_energy": 8.77, 
			 "SMD_solvation_energy": 3.82 
		},
		"coords": [
			{
				"x": 2.7317399595,
				"y": 1.363556657,
				"z": 0.6439423159,
				"element": "N" 
			},
			{
				"x": 1.8510847898,
				"y": 0.4724865664,
				"z": 1.4073990512,
				"element": "C" 
			},
			{
				"x": 0.7318824052,
				"y": 1.3106862286,
				"z": 2.0167495849,
				"element": "C" 
			},
			{
				"x": 1.3382142834,
				"y": 2.2325366456,
				"z": 2.9237022529,
				"element": "O" 
			},
			{
				"x": 1.3077537894,
				"y": -0.6699892851,
				"z": 0.5164520369,
				"element": "C" 
			},
			{
				"x": 0.2735662086,
				"y": -0.2882158196,
				"z": -0.5260410289,
				"element": "C" 
			},
			{
				"x": 0.5858398987,
				"y": 0.5666013593,
				"z": -1.5962188858,
				"element": "C" 
			},
			{
				"x": -0.3777939517,
				"y": 0.8937281653,
				"z": -2.5503039881,
				"element": "C" 
			},
			{
				"x": -1.6705640025,
				"y": 0.3715368313,
				"z": -2.4597460628,
				"element": "C" 
			},
			{
				"x": -1.9934801734,
				"y": -0.4793125638,
				"z": -1.4027761893,
				"element": "C" 
			},
			{
				"x": -1.0280342474,
				"y": -0.802887278,
				"z": -0.4467729586,
				"element": "C" 
			},
			{
				"x": 2.9509808493,
				"y": 2.1640831863,
				"z": 1.2330799312,
				"element": "H" 
			},
			{
				"x": 3.6119583449,
				"y": 0.893085404,
				"z": 0.4468668277,
				"element": "H" 
			},
			{
				"x": 2.3746306071,
				"y": -0.0078313868,
				"z": 2.253957282,
				"element": "H" 
			},
			{
				"x": 0.1961829697,
				"y": 1.8351680142,
				"z": 1.2148749491,
				"element": "H" 
			},
			{
				"x": 0.0181775145,
				"y": 0.6525276392,
				"z": 2.5363113896,
				"element": "H" 
			},
			{
				"x": 0.689444106,
				"y": 2.9123560678,
				"z": 3.1403323711,
				"element": "H" 
			},
			{
				"x": 2.1714688963,
				"y": -1.1394766965,
				"z": 0.0261713271,
				"element": "H" 
			},
			{
				"x": 0.8814327362,
				"y": -1.4368829991,
				"z": 1.1740457741,
				"element": "H" 
			},
			{
				"x": 1.5824653782,
				"y": 0.9902200433,
				"z": -1.654772163,
				"element": "H" 
			},
			{
				"x": -0.1172549775,
				"y": 1.558045015,
				"z": -3.3700548408,
				"element": "H" 
			},
			{
				"x": -2.4173047134,
				"y": 0.6243840569,
				"z": -3.2073266436,
				"element": "H" 
			},
			{
				"x": -2.9945546464,
				"y": -0.8941697343,
				"z": -1.3211303742,
				"element": "H" 
			},
			{
				"x": -1.2874360245,
				"y": -1.471436117,
				"z": 0.3712580416,
				"element": "H" 
			}
		],
		 "valence_orbital": [ 
			{
				"type": "occ",
				"energy": -0.31954,
				"method": "rhf"
			},
			{
				"type": "occ",
				"energy": -0.27045,
				"method": "rhf"
			},
			{
				"type": "occ",
				"energy": -0.24075,
				"method": "rhf"
			},
			{
				"type": "occ",
				"energy": -0.23305,
				"method": "rhf"
			},
			{
				"type": "occ",
				"energy": -0.22752,
				"method": "rhf"
			},
			{
				"type": "unocc",
				"energy": 0.00708,
				"method": "rhf"
			},
			{
				"type": "unocc",
				"energy": 0.0098,
				"method": "rhf"
			},
			{
				"type": "unocc",
				"energy": 0.07375,
				"method": "rhf"
			},
			{
				"type": "unocc",
				"energy": 0.0884,
				"method": "rhf"
			},
			{
				"type": "unocc",
				"energy": 0.10692,
				"method": "rhf"
			}
		],
		"cosmo_sigma_profile": { 
			"-0.025": 0.0,
			"-0.024": 0.0,
			"-0.023": 0.0,
			"-0.022": 0.0,
			"-0.021": 0.0,
			"-0.02": 0.0,
			"-0.019": 0.0,
			"-0.018": 0.0,
			"-0.017": 0.0,
			"-0.016": 0.319461450066,
			"-0.015": 1.32777772648,
			"-0.014": 0.855515873082,
			"-0.013": 0.886353829037,
			"-0.012": 1.01686285725,
			"-0.011": 0.879476613037,
			"-0.01": 0.991817707776,
			"-0.009": 2.07068845102,
			"-0.008": 2.55340540203,
			"-0.007": 2.88264284756,
			"-0.006": 5.20116100642,
			"-0.005": 11.3529547472,
			"-0.004": 14.9437899718,
			"-0.003": 22.6938910762,
			"-0.002": 22.7575040067,
			"-0.001": 16.0790188294,
			"0.0": 14.4853858473,
			"0.001": 11.8220181661,
			"0.002": 8.51092298864,
			"0.003": 10.9065249115,
			"0.004": 10.4936756543,
			"0.005": 11.9179744329,
			"0.006": 10.1005267271,
			"0.007": 6.44283575196,
			"0.008": 2.15805161647,
			"0.009": 2.26806284927,
			"0.01": 1.91742154559,
			"0.011": 1.3720581088,
			"0.012": 1.85190765607,
			"0.013": 1.73881932432,
			"0.014": 1.88160359875,
			"0.015": 0.42651609486,
			"0.016": 0.0,
			"0.017": 0.0,
			"0.018": 0.0,
			"0.019": 0.0,
			"0.02": 0.0,
			"0.021": 0.0,
			"0.022": 0.0,
			"0.023": 0.0,
			"0.024": 0.0,
			"0.025": 0.0
		}
	}
}
