{
	 "smiles": "CC(=O)C1=C(Cl)N=C2SC=CN12", 
	 "Tm": 433.15, 
	 "num_atms": 17, 
	 "gaussian": { 
		 "optdone": 1, 
		 "sigma_profile": "yes", 
		 "theory": "DFT", 
		 "functional": "B3LYP", 
		 "basiset": "6-31G**", 
		 "properties": { 
			 "R2extent": 2816.0978, 
			 "electric_dipole_moment_norm": 2.07376309881, 
			 "electric_quadrupole_moment_norm": 17.0757252528, 
			 "total_energy": -1312.84231085, 
			 "HOMO_LUMO_gap": 0.1797, 
			 "cosmo_polarized_energy": -9.06, 
			 "cosmo_cavitation_energy": 24.9, 
			 "cosmo_dispersion_energy": -19.28, 
			 "cosmo_repulsion_energy": 1.46, 
			 "cosmo_total_nonelectrostatic_energy": 7.07, 
			 "SMD_solvation_energy": 3.1 
		},
		"coords": [
			{
				"x": 2.3807235382,
				"y": 1.2644055816,
				"z": -0.7027894047,
				"element": "C" 
			},
			{
				"x": 1.2866831871,
				"y": 0.2224569193,
				"z": -0.7938212466,
				"element": "C" 
			},
			{
				"x": 1.1472891952,
				"y": -0.4677211779,
				"z": -1.8033520932,
				"element": "O" 
			},
			{
				"x": 0.380165439,
				"y": 0.0366102337,
				"z": 0.3372601786,
				"element": "C" 
			},
			{
				"x": 0.207421404,
				"y": 0.5947106609,
				"z": 1.6120956198,
				"element": "C" 
			},
			{
				"x": 1.1554339182,
				"y": 1.8529405604,
				"z": 2.3277416856,
				"element": "Cl" 
			},
			{
				"x": -0.8193106425,
				"y": 0.057336737,
				"z": 2.3098606528,
				"element": "N" 
			},
			{
				"x": -1.3092011719,
				"y": -0.8513264814,
				"z": 1.4786225631,
				"element": "C" 
			},
			{
				"x": -2.6157456673,
				"y": -2.0017501643,
				"z": 1.5336676222,
				"element": "S" 
			},
			{
				"x": -2.1909394714,
				"y": -2.5299015806,
				"z": -0.0943764944,
				"element": "C" 
			},
			{
				"x": -1.1338723108,
				"y": -1.8630882037,
				"z": -0.6100807834,
				"element": "C" 
			},
			{
				"x": -0.6434577165,
				"y": -0.9176367885,
				"z": 0.285960403,
				"element": "N" 
			},
			{
				"x": 2.9423340636,
				"y": 1.2496299767,
				"z": -1.6375355762,
				"element": "H" 
			},
			{
				"x": 1.9616037954,
				"y": 2.2619531103,
				"z": -0.5375482255,
				"element": "H" 
			},
			{
				"x": 3.0520835709,
				"y": 1.057935082,
				"z": 0.1366728725,
				"element": "H" 
			},
			{
				"x": -2.7608985996,
				"y": -3.3127532879,
				"z": -0.5717548956,
				"element": "H" 
			},
			{
				"x": -0.6561125314,
				"y": -1.9696011774,
				"z": -1.5711228781,
				"element": "H" 
			}
		],
		 "valence_orbital": [ 
			{
				"type": "occ",
				"energy": -0.32759,
				"method": "rhf"
			},
			{
				"type": "occ",
				"energy": -0.3113,
				"method": "rhf"
			},
			{
				"type": "occ",
				"energy": -0.26011,
				"method": "rhf"
			},
			{
				"type": "occ",
				"energy": -0.24987,
				"method": "rhf"
			},
			{
				"type": "occ",
				"energy": -0.23975,
				"method": "rhf"
			},
			{
				"type": "unocc",
				"energy": -0.06005,
				"method": "rhf"
			},
			{
				"type": "unocc",
				"energy": -0.0125,
				"method": "rhf"
			},
			{
				"type": "unocc",
				"energy": -0.00728,
				"method": "rhf"
			},
			{
				"type": "unocc",
				"energy": 0.02943,
				"method": "rhf"
			},
			{
				"type": "unocc",
				"energy": 0.03199,
				"method": "rhf"
			}
		],
		"cosmo_sigma_profile": { 
			"-0.025": 0.0,
			"-0.024": 0.0,
			"-0.023": 0.0,
			"-0.022": 0.0,
			"-0.021": 0.0,
			"-0.02": 0.0,
			"-0.019": 0.0,
			"-0.018": 0.0,
			"-0.017": 0.0,
			"-0.016": 0.0,
			"-0.015": 0.0,
			"-0.014": 0.0,
			"-0.013": 0.0,
			"-0.012": 0.0,
			"-0.011": 0.828305518837,
			"-0.01": 2.55521374418,
			"-0.009": 2.7827363545,
			"-0.008": 2.72626537408,
			"-0.007": 3.44492362114,
			"-0.006": 6.24065499274,
			"-0.005": 9.00725768602,
			"-0.004": 11.6117261121,
			"-0.003": 17.1818360206,
			"-0.002": 23.1044471947,
			"-0.001": 27.329347229,
			"0.0": 21.3563759627,
			"0.001": 17.4081767934,
			"0.002": 14.4640980743,
			"0.003": 10.5687139313,
			"0.004": 6.71788865727,
			"0.005": 3.70440264128,
			"0.006": 3.72079700056,
			"0.007": 2.88515530334,
			"0.008": 2.31326766002,
			"0.009": 2.7152041894,
			"0.01": 3.16463873265,
			"0.011": 3.07491662468,
			"0.012": 2.9414163634,
			"0.013": 2.31622714793,
			"0.014": 1.20704864795,
			"0.015": 0.14807509584,
			"0.016": 0.0,
			"0.017": 0.0,
			"0.018": 0.0,
			"0.019": 0.0,
			"0.02": 0.0,
			"0.021": 0.0,
			"0.022": 0.0,
			"0.023": 0.0,
			"0.024": 0.0,
			"0.025": 0.0
		}
	}
}
