{
	 "smiles": "CC(C)N(C(=O)COC1=NN=C(S1)C(F)(F)F)C1=CC=C(F)C=C1", 
	 "Tm": 351.15, 
	 "num_atms": 37, 
	 "gaussian": { 
		 "optdone": 1, 
		 "sigma_profile": "yes", 
		 "theory": "DFT", 
		 "functional": "B3LYP", 
		 "basiset": "6-31G**", 
		 "properties": { 
			 "R2extent": 12179.9838, 
			 "electric_dipole_moment_norm": 7.69033040513, 
			 "electric_quadrupole_moment_norm": 23.8442480779, 
			 "total_energy": -1653.51404817, 
			 "HOMO_LUMO_gap": 0.20364, 
			 "cosmo_polarized_energy": -18.48, 
			 "cosmo_cavitation_energy": 45.17, 
			 "cosmo_dispersion_energy": -30.81, 
			 "cosmo_repulsion_energy": 2.22, 
			 "cosmo_total_nonelectrostatic_energy": 16.58, 
			 "SMD_solvation_energy": 8.47 
		},
		"coords": [
			{
				"x": 2.8426089543,
				"y": 0.6294697391,
				"z": -2.0876434381,
				"element": "C" 
			},
			{
				"x": 1.6605063001,
				"y": 1.3604423936,
				"z": -2.7414286365,
				"element": "C" 
			},
			{
				"x": 1.8753160815,
				"y": 2.8737756323,
				"z": -2.8986137235,
				"element": "C" 
			},
			{
				"x": 0.3319897903,
				"y": 1.0235007379,
				"z": -2.1408638831,
				"element": "N" 
			},
			{
				"x": -0.0595546388,
				"y": 1.1693251249,
				"z": -0.8341874047,
				"element": "C" 
			},
			{
				"x": -1.1599131326,
				"y": 0.8026522934,
				"z": -0.4285715063,
				"element": "O" 
			},
			{
				"x": 0.8939608893,
				"y": 1.7905830596,
				"z": 0.1931371918,
				"element": "C" 
			},
			{
				"x": 1.5230337821,
				"y": 0.7530868059,
				"z": 0.9652198981,
				"element": "O" 
			},
			{
				"x": 0.9767632165,
				"y": 0.3333916036,
				"z": 2.1133405954,
				"element": "C" 
			},
			{
				"x": 1.7441299046,
				"y": -0.1358023153,
				"z": 3.0591427023,
				"element": "N" 
			},
			{
				"x": 1.032064543,
				"y": -0.5505697777,
				"z": 4.1443619477,
				"element": "N" 
			},
			{
				"x": -0.2475538174,
				"y": -0.3802788259,
				"z": 4.0050925934,
				"element": "C" 
			},
			{
				"x": -0.7542375093,
				"y": 0.2828016594,
				"z": 2.4690565904,
				"element": "S" 
			},
			{
				"x": -1.2275117496,
				"y": -0.6803659545,
				"z": 5.1071105732,
				"element": "C" 
			},
			{
				"x": -2.4012211588,
				"y": -1.1066710719,
				"z": 4.5890257314,
				"element": "F" 
			},
			{
				"x": -1.4947258914,
				"y": 0.4246764606,
				"z": 5.8349659215,
				"element": "F" 
			},
			{
				"x": -0.761293323,
				"y": -1.6198938452,
				"z": 5.935570761,
				"element": "F" 
			},
			{
				"x": -0.6501181767,
				"y": 0.4726137582,
				"z": -3.0446620778,
				"element": "C" 
			},
			{
				"x": -0.5051776833,
				"y": -0.832900148,
				"z": -3.5231481995,
				"element": "C" 
			},
			{
				"x": -1.4230272503,
				"y": -1.3561233662,
				"z": -4.4332910475,
				"element": "C" 
			},
			{
				"x": -2.4869770492,
				"y": -0.5594236575,
				"z": -4.8408948126,
				"element": "C" 
			},
			{
				"x": -3.3788976929,
				"y": -1.0594420082,
				"z": -5.718302717,
				"element": "F" 
			},
			{
				"x": -2.6592855538,
				"y": 0.7380248737,
				"z": -4.370125843,
				"element": "C" 
			},
			{
				"x": -1.7302262969,
				"y": 1.2528742848,
				"z": -3.4683263071,
				"element": "C" 
			},
			{
				"x": 2.6492683619,
				"y": -0.4454239547,
				"z": -2.0325728627,
				"element": "H" 
			},
			{
				"x": 3.7377729556,
				"y": 0.7822450275,
				"z": -2.6988593246,
				"element": "H" 
			},
			{
				"x": 3.071508944,
				"y": 0.9754158902,
				"z": -1.0777868971,
				"element": "H" 
			},
			{
				"x": 1.5741202577,
				"y": 0.9581926061,
				"z": -3.7538401473,
				"element": "H" 
			},
			{
				"x": 1.0221074783,
				"y": 3.3322336843,
				"z": -3.4068405445,
				"element": "H" 
			},
			{
				"x": 2.7689941756,
				"y": 3.0570959343,
				"z": -3.5035340807,
				"element": "H" 
			},
			{
				"x": 2.0186649972,
				"y": 3.3881458958,
				"z": -1.9438056688,
				"element": "H" 
			},
			{
				"x": 0.2925885763,
				"y": 2.437045489,
				"z": 0.8385813864,
				"element": "H" 
			},
			{
				"x": 1.713163557,
				"y": 2.367342429,
				"z": -0.2287828195,
				"element": "H" 
			},
			{
				"x": 0.3222500065,
				"y": -1.4438552619,
				"z": -3.1762187154,
				"element": "H" 
			},
			{
				"x": -1.3302679825,
				"y": -2.3660735144,
				"z": -4.8169173349,
				"element": "H" 
			},
			{
				"x": -3.5061894907,
				"y": 1.3237983871,
				"z": -4.709870244,
				"element": "H" 
			},
			{
				"x": -1.8466343742,
				"y": 2.2600899309,
				"z": -3.0825176564,
				"element": "H" 
			}
		],
		 "valence_orbital": [ 
			{
				"type": "occ",
				"energy": -0.2758,
				"method": "rhf"
			},
			{
				"type": "occ",
				"energy": -0.27557,
				"method": "rhf"
			},
			{
				"type": "occ",
				"energy": -0.27176,
				"method": "rhf"
			},
			{
				"type": "occ",
				"energy": -0.25924,
				"method": "rhf"
			},
			{
				"type": "occ",
				"energy": -0.25001,
				"method": "rhf"
			},
			{
				"type": "unocc",
				"energy": -0.04637,
				"method": "rhf"
			},
			{
				"type": "unocc",
				"energy": -0.0284,
				"method": "rhf"
			},
			{
				"type": "unocc",
				"energy": -0.02555,
				"method": "rhf"
			},
			{
				"type": "unocc",
				"energy": -0.0119,
				"method": "rhf"
			},
			{
				"type": "unocc",
				"energy": 0.00317,
				"method": "rhf"
			}
		],
		"cosmo_sigma_profile": { 
			"-0.025": 0.0,
			"-0.024": 0.0,
			"-0.023": 0.0,
			"-0.022": 0.0,
			"-0.021": 0.0,
			"-0.02": 0.0,
			"-0.019": 0.0,
			"-0.018": 0.0,
			"-0.017": 0.0,
			"-0.016": 0.0,
			"-0.015": 0.0,
			"-0.014": 0.0,
			"-0.013": 0.0,
			"-0.012": 0.0,
			"-0.011": 0.0,
			"-0.01": 0.166404746436,
			"-0.009": 4.31288324931,
			"-0.008": 7.04920189396,
			"-0.007": 12.4558521313,
			"-0.006": 13.8910948766,
			"-0.005": 22.2347686075,
			"-0.004": 27.9386679653,
			"-0.003": 28.1984653351,
			"-0.002": 28.462249474,
			"-0.001": 30.3892683816,
			"0.0": 30.8132859606,
			"0.001": 31.9944201705,
			"0.002": 40.8129734744,
			"0.003": 17.8739180141,
			"0.004": 17.9568223953,
			"0.005": 8.33941085197,
			"0.006": 4.85175923769,
			"0.007": 4.73544776209,
			"0.008": 5.61407535861,
			"0.009": 4.95824653304,
			"0.01": 5.76143869412,
			"0.011": 4.8590123246,
			"0.012": 5.278221317,
			"0.013": 3.37081945624,
			"0.014": 0.703656150717,
			"0.015": 0.0,
			"0.016": 0.0,
			"0.017": 0.0,
			"0.018": 0.0,
			"0.019": 0.0,
			"0.02": 0.0,
			"0.021": 0.0,
			"0.022": 0.0,
			"0.023": 0.0,
			"0.024": 0.0,
			"0.025": 0.0
		}
	}
}
