{
	 "smiles": "NC1=NC=NC2=C1N=CN2", 
	 "Tm": 635.15, 
	 "num_atms": 15, 
	 "gaussian": { 
		 "optdone": 1, 
		 "sigma_profile": "yes", 
		 "theory": "DFT", 
		 "functional": "B3LYP", 
		 "basiset": "6-31G**", 
		 "properties": { 
			 "R2extent": 1661.4976, 
			 "electric_dipole_moment_norm": 2.40339482191, 
			 "electric_quadrupole_moment_norm": 14.2306253735, 
			 "total_energy": -467.321230547, 
			 "HOMO_LUMO_gap": 0.20042, 
			 "cosmo_polarized_energy": -15.89, 
			 "cosmo_cavitation_energy": 19.54, 
			 "cosmo_dispersion_energy": -15.26, 
			 "cosmo_repulsion_energy": 1.23, 
			 "cosmo_total_nonelectrostatic_energy": 5.51, 
			 "SMD_solvation_energy": -1.19 
		},
		"coords": [
			{
				"x": -2.4619667803,
				"y": -0.9429632686,
				"z": -0.9974011815,
				"element": "N" 
			},
			{
				"x": -1.6309199608,
				"y": -0.2949102644,
				"z": -0.1440440499,
				"element": "C" 
			},
			{
				"x": -1.3244325448,
				"y": 0.9917644055,
				"z": -0.3873485823,
				"element": "N" 
			},
			{
				"x": -0.5228512198,
				"y": 1.6319475264,
				"z": 0.480479296,
				"element": "C" 
			},
			{
				"x": 0.0470815399,
				"y": 1.1670554189,
				"z": 1.5969622366,
				"element": "N" 
			},
			{
				"x": -0.2738314604,
				"y": -0.1159731986,
				"z": 1.8044554363,
				"element": "C" 
			},
			{
				"x": -1.0928377923,
				"y": -0.9183775827,
				"z": 1.0020141594,
				"element": "C" 
			},
			{
				"x": -1.2036048471,
				"y": -2.201352485,
				"z": 1.5125744217,
				"element": "N" 
			},
			{
				"x": -0.4702567654,
				"y": -2.1731982628,
				"z": 2.5986753294,
				"element": "C" 
			},
			{
				"x": 0.1177465615,
				"y": -0.9458637257,
				"z": 2.8331184157,
				"element": "N" 
			},
			{
				"x": -2.5813778678,
				"y": -1.9388118785,
				"z": -0.9078950424,
				"element": "H" 
			},
			{
				"x": -2.7013859427,
				"y": -0.4868922374,
				"z": -1.8632072956,
				"element": "H" 
			},
			{
				"x": -0.309655246,
				"y": 2.6706274053,
				"z": 0.2354386126,
				"element": "H" 
			},
			{
				"x": -0.3172465047,
				"y": -3.0085275352,
				"z": 3.2691497339,
				"element": "H" 
			},
			{
				"x": 0.7197388307,
				"y": -0.6897243171,
				"z": 3.6011285102,
				"element": "H" 
			}
		],
		 "valence_orbital": [ 
			{
				"type": "occ",
				"energy": -0.29169,
				"method": "rhf"
			},
			{
				"type": "occ",
				"energy": -0.28013,
				"method": "rhf"
			},
			{
				"type": "occ",
				"energy": -0.26298,
				"method": "rhf"
			},
			{
				"type": "occ",
				"energy": -0.24591,
				"method": "rhf"
			},
			{
				"type": "occ",
				"energy": -0.21777,
				"method": "rhf"
			},
			{
				"type": "unocc",
				"energy": -0.01735,
				"method": "rhf"
			},
			{
				"type": "unocc",
				"energy": 0.01004,
				"method": "rhf"
			},
			{
				"type": "unocc",
				"energy": 0.04337,
				"method": "rhf"
			},
			{
				"type": "unocc",
				"energy": 0.07642,
				"method": "rhf"
			},
			{
				"type": "unocc",
				"energy": 0.0911,
				"method": "rhf"
			}
		],
		"cosmo_sigma_profile": { 
			"-0.025": 0.0,
			"-0.024": 0.0,
			"-0.023": 0.0,
			"-0.022": 0.0,
			"-0.021": 0.0,
			"-0.02": 0.0,
			"-0.019": 0.0,
			"-0.018": 0.0203115390783,
			"-0.017": 1.24066997906,
			"-0.016": 1.76439177598,
			"-0.015": 1.42030393594,
			"-0.014": 2.0169800307,
			"-0.013": 3.39486614877,
			"-0.012": 2.46677282758,
			"-0.011": 3.25098552385,
			"-0.01": 4.83061601209,
			"-0.009": 4.52422630715,
			"-0.008": 4.47413077353,
			"-0.007": 4.5097000692,
			"-0.006": 5.22823977262,
			"-0.005": 3.83959793852,
			"-0.004": 4.9801461041,
			"-0.003": 5.16493215774,
			"-0.002": 4.16428923303,
			"-0.001": 7.24705336877,
			"0.0": 14.7597190242,
			"0.001": 13.2507341163,
			"0.002": 9.54895000883,
			"0.003": 7.11181050266,
			"0.004": 7.16848063442,
			"0.005": 5.84153938461,
			"0.006": 4.64169676125,
			"0.007": 3.95728175009,
			"0.008": 5.01197486598,
			"0.009": 3.72584764708,
			"0.01": 2.84314023277,
			"0.011": 2.20891824115,
			"0.012": 2.91809935852,
			"0.013": 3.35172717763,
			"0.014": 2.24411946478,
			"0.015": 2.62853327329,
			"0.016": 1.22873986475,
			"0.017": 0.0532827619076,
			"0.018": 0.0,
			"0.019": 0.0,
			"0.02": 0.0,
			"0.021": 0.0,
			"0.022": 0.0,
			"0.023": 0.0,
			"0.024": 0.0,
			"0.025": 0.0
		}
	}
}
