{
	 "smiles": "CC1=NC(=NO1)C1COCCN1C(=O)OC(C)(C)C", 
	 "Tm": 370.15, 
	 "num_atms": 38, 
	 "gaussian": { 
		 "optdone": 1, 
		 "sigma_profile": "yes", 
		 "theory": "DFT", 
		 "functional": "B3LYP", 
		 "basiset": "6-31G**", 
		 "properties": { 
			 "R2extent": 5228.8379, 
			 "electric_dipole_moment_norm": 3.00470046094, 
			 "electric_quadrupole_moment_norm": 18.9900054816, 
			 "total_energy": -933.849649818, 
			 "HOMO_LUMO_gap": 0.21225, 
			 "cosmo_polarized_energy": -16.03, 
			 "cosmo_cavitation_energy": 39.6, 
			 "cosmo_dispersion_energy": -26.22, 
			 "cosmo_repulsion_energy": 2.01, 
			 "cosmo_total_nonelectrostatic_energy": 15.39, 
			 "SMD_solvation_energy": 4.64 
		},
		"coords": [
			{
				"x": -4.9908154494,
				"y": -0.4339487734,
				"z": -1.1311450203,
				"element": "C" 
			},
			{
				"x": -3.6926287639,
				"y": 0.2803622556,
				"z": -1.2664977122,
				"element": "C" 
			},
			{
				"x": -2.5724610699,
				"y": -0.1582708806,
				"z": -1.7607443229,
				"element": "N" 
			},
			{
				"x": -1.742049522,
				"y": 0.9323876977,
				"z": -1.6125948632,
				"element": "C" 
			},
			{
				"x": -2.3055601174,
				"y": 1.9864585863,
				"z": -1.0822133198,
				"element": "N" 
			},
			{
				"x": -3.6224662793,
				"y": 1.5554618636,
				"z": -0.8384358255,
				"element": "O" 
			},
			{
				"x": -0.3329755948,
				"y": 0.959931503,
				"z": -2.1276596665,
				"element": "C" 
			},
			{
				"x": 0.4185413306,
				"y": 2.2886034569,
				"z": -1.8592639803,
				"element": "C" 
			},
			{
				"x": 1.8248392898,
				"y": 2.0754908093,
				"z": -1.9215965283,
				"element": "O" 
			},
			{
				"x": 2.1932047509,
				"y": 1.1646737086,
				"z": -2.9454988851,
				"element": "C" 
			},
			{
				"x": 1.6867360979,
				"y": -0.2660042741,
				"z": -2.6002043291,
				"element": "C" 
			},
			{
				"x": 0.5185723373,
				"y": -0.1618023486,
				"z": -1.71827153,
				"element": "N" 
			},
			{
				"x": 0.7076116534,
				"y": -0.5367352275,
				"z": -0.3963547719,
				"element": "C" 
			},
			{
				"x": 1.5958037248,
				"y": -1.2918415907,
				"z": -0.0359456783,
				"element": "O" 
			},
			{
				"x": -0.2300123536,
				"y": 0.0139378852,
				"z": 0.4021815158,
				"element": "O" 
			},
			{
				"x": -0.3005229836,
				"y": -0.3227339149,
				"z": 1.8361833355,
				"element": "C" 
			},
			{
				"x": 0.9792951391,
				"y": 0.1366186523,
				"z": 2.5422574703,
				"element": "C" 
			},
			{
				"x": -0.5572885345,
				"y": -1.8231562666,
				"z": 2.0081520153,
				"element": "C" 
			},
			{
				"x": -1.5043160286,
				"y": 0.4947788092,
				"z": 2.3116763425,
				"element": "C" 
			},
			{
				"x": -5.2906899554,
				"y": -0.4941400125,
				"z": -0.0803934401,
				"element": "H" 
			},
			{
				"x": -5.7808366757,
				"y": 0.0960453186,
				"z": -1.6718673112,
				"element": "H" 
			},
			{
				"x": -4.887998651,
				"y": -1.4410543065,
				"z": -1.534925238,
				"element": "H" 
			},
			{
				"x": -0.4394627047,
				"y": 0.8330023632,
				"z": -3.2140911162,
				"element": "H" 
			},
			{
				"x": 0.2049322511,
				"y": 2.6580329394,
				"z": -0.854700625,
				"element": "H" 
			},
			{
				"x": 0.1010110431,
				"y": 3.0508335323,
				"z": -2.5874811646,
				"element": "H" 
			},
			{
				"x": 1.8021126386,
				"y": 1.4977795284,
				"z": -3.9207481416,
				"element": "H" 
			},
			{
				"x": 3.2843883754,
				"y": 1.1847313806,
				"z": -3.0030577952,
				"element": "H" 
			},
			{
				"x": 1.4195858087,
				"y": -0.8119449133,
				"z": -3.5143420777,
				"element": "H" 
			},
			{
				"x": 2.440905053,
				"y": -0.8389183326,
				"z": -2.0627811958,
				"element": "H" 
			},
			{
				"x": 1.8437755159,
				"y": -0.4254413886,
				"z": 2.1892933866,
				"element": "H" 
			},
			{
				"x": 1.1508062479,
				"y": 1.2024252152,
				"z": 2.3618349858,
				"element": "H" 
			},
			{
				"x": 0.8744629069,
				"y": -0.0128604821,
				"z": 3.6218925482,
				"element": "H" 
			},
			{
				"x": -1.4453011329,
				"y": -2.1222122387,
				"z": 1.442416616,
				"element": "H" 
			},
			{
				"x": -0.7351656624,
				"y": -2.0448023371,
				"z": 3.0655652596,
				"element": "H" 
			},
			{
				"x": 0.2949115632,
				"y": -2.4089942157,
				"z": 1.6633144521,
				"element": "H" 
			},
			{
				"x": -1.6513069155,
				"y": 0.3511964211,
				"z": 3.3863209881,
				"element": "H" 
			},
			{
				"x": -2.4157638236,
				"y": 0.1827472919,
				"z": 1.7937292008,
				"element": "H" 
			},
			{
				"x": -1.3503735095,
				"y": 1.559862285,
				"z": 2.1189964224,
				"element": "H" 
			}
		],
		 "valence_orbital": [ 
			{
				"type": "occ",
				"energy": -0.28694,
				"method": "rhf"
			},
			{
				"type": "occ",
				"energy": -0.28491,
				"method": "rhf"
			},
			{
				"type": "occ",
				"energy": -0.26736,
				"method": "rhf"
			},
			{
				"type": "occ",
				"energy": -0.26177,
				"method": "rhf"
			},
			{
				"type": "occ",
				"energy": -0.23691,
				"method": "rhf"
			},
			{
				"type": "unocc",
				"energy": -0.02466,
				"method": "rhf"
			},
			{
				"type": "unocc",
				"energy": 0.03128,
				"method": "rhf"
			},
			{
				"type": "unocc",
				"energy": 0.04946,
				"method": "rhf"
			},
			{
				"type": "unocc",
				"energy": 0.07401,
				"method": "rhf"
			},
			{
				"type": "unocc",
				"energy": 0.08046,
				"method": "rhf"
			}
		],
		"cosmo_sigma_profile": { 
			"-0.025": 0.0,
			"-0.024": 0.0,
			"-0.023": 0.0,
			"-0.022": 0.0,
			"-0.021": 0.0,
			"-0.02": 0.0,
			"-0.019": 0.0,
			"-0.018": 0.0,
			"-0.017": 0.0,
			"-0.016": 0.0,
			"-0.015": 0.0,
			"-0.014": 0.0,
			"-0.013": 0.0,
			"-0.012": 0.0,
			"-0.011": 0.0,
			"-0.01": 0.0,
			"-0.009": 0.561014855636,
			"-0.008": 4.89576974767,
			"-0.007": 8.98701027651,
			"-0.006": 13.9339615123,
			"-0.005": 21.7938642195,
			"-0.004": 31.8258196064,
			"-0.003": 33.5726712886,
			"-0.002": 27.8848532169,
			"-0.001": 24.2283868533,
			"0.0": 30.1417767032,
			"0.001": 22.7077783312,
			"0.002": 11.1840551946,
			"0.003": 9.54906781729,
			"0.004": 10.6618426379,
			"0.005": 9.75046811384,
			"0.006": 9.26279607249,
			"0.007": 7.91268668099,
			"0.008": 5.23261538758,
			"0.009": 6.05663314445,
			"0.01": 3.91355584515,
			"0.011": 4.88889246069,
			"0.012": 6.01772322625,
			"0.013": 3.85113116054,
			"0.014": 0.750061005227,
			"0.015": 0.399953423712,
			"0.016": 0.0,
			"0.017": 0.0,
			"0.018": 0.0,
			"0.019": 0.0,
			"0.02": 0.0,
			"0.021": 0.0,
			"0.022": 0.0,
			"0.023": 0.0,
			"0.024": 0.0,
			"0.025": 0.0
		}
	}
}
