{
	 "smiles": "CC(C)(C)C1=CC(=CC(=C1O)C(C)(C)C)C(NCC=C)=N/CC=C", 
	 "Tm": 475.15, 
	 "num_atms": 56, 
	 "gaussian": { 
		 "optdone": 1, 
		 "sigma_profile": "yes", 
		 "theory": "DFT", 
		 "functional": "B3LYP", 
		 "basiset": "6-31G**", 
		 "properties": { 
			 "R2extent": 10141.599, 
			 "electric_dipole_moment_norm": 3.22977756974, 
			 "electric_quadrupole_moment_norm": 14.1643142499, 
			 "total_energy": -1004.20366371, 
			 "HOMO_LUMO_gap": 0.1995, 
			 "cosmo_polarized_energy": -11.5, 
			 "cosmo_cavitation_energy": 55.06, 
			 "cosmo_dispersion_energy": -35.22, 
			 "cosmo_repulsion_energy": 2.78, 
			 "cosmo_total_nonelectrostatic_energy": 22.62, 
			 "SMD_solvation_energy": 8.77 
		},
		"coords": [
			{
				"x": -3.8252155713,
				"y": -0.4038223273,
				"z": -1.9728251209,
				"element": "C" 
			},
			{
				"x": -2.8204229853,
				"y": 0.7682608802,
				"z": -2.1514956877,
				"element": "C" 
			},
			{
				"x": -3.4852651789,
				"y": 1.9976215511,
				"z": -1.4950649435,
				"element": "C" 
			},
			{
				"x": -2.6395959917,
				"y": 1.1318456725,
				"z": -3.6513604705,
				"element": "C" 
			},
			{
				"x": -1.4562019481,
				"y": 0.4295182798,
				"z": -1.4956837739,
				"element": "C" 
			},
			{
				"x": -0.9713248563,
				"y": 1.199088171,
				"z": -0.436826058,
				"element": "C" 
			},
			{
				"x": 0.2573186805,
				"y": 0.9320756208,
				"z": 0.1746502138,
				"element": "C" 
			},
			{
				"x": 1.0163722664,
				"y": -0.1363940383,
				"z": -0.3018773804,
				"element": "C" 
			},
			{
				"x": 0.5968770291,
				"y": -0.9631895335,
				"z": -1.352634142,
				"element": "C" 
			},
			{
				"x": -0.6530687026,
				"y": -0.6591588834,
				"z": -1.9392818332,
				"element": "C" 
			},
			{
				"x": -1.0695021761,
				"y": -1.4609531363,
				"z": -2.9696258507,
				"element": "O" 
			},
			{
				"x": 1.5536719019,
				"y": -2.123570619,
				"z": -1.7484307095,
				"element": "C" 
			},
			{
				"x": 1.0973547169,
				"y": -3.027706342,
				"z": -2.9143120893,
				"element": "C" 
			},
			{
				"x": 2.9205827699,
				"y": -1.5187784194,
				"z": -2.1587295268,
				"element": "C" 
			},
			{
				"x": 1.7501446404,
				"y": -3.0418495084,
				"z": -0.515475097,
				"element": "C" 
			},
			{
				"x": 0.7655566881,
				"y": 1.7954159429,
				"z": 1.2898666901,
				"element": "C" 
			},
			{
				"x": 2.0848266454,
				"y": 2.1949428937,
				"z": 1.1056374982,
				"element": "N" 
			},
			{
				"x": 2.7315637112,
				"y": 3.1193540462,
				"z": 2.0356699653,
				"element": "C" 
			},
			{
				"x": 2.3887444525,
				"y": 4.5646854987,
				"z": 1.7779426875,
				"element": "C" 
			},
			{
				"x": 3.2821196214,
				"y": 5.5091269329,
				"z": 1.4823434581,
				"element": "C" 
			},
			{
				"x": 0.1453304016,
				"y": 2.1606963093,
				"z": 2.3541229445,
				"element": "N" 
			},
			{
				"x": -1.1399400354,
				"y": 1.5945684296,
				"z": 2.7318204048,
				"element": "C" 
			},
			{
				"x": -1.1099857327,
				"y": 1.1819503281,
				"z": 4.1837417089,
				"element": "C" 
			},
			{
				"x": -1.5342944128,
				"y": 0.0079051906,
				"z": 4.649157639,
				"element": "C" 
			},
			{
				"x": -3.4962571121,
				"y": -1.3584601358,
				"z": -2.3953695774,
				"element": "H" 
			},
			{
				"x": -4.0053363191,
				"y": -0.5830157328,
				"z": -0.9085029689,
				"element": "H" 
			},
			{
				"x": -4.782710411,
				"y": -0.1542983455,
				"z": -2.4424831075,
				"element": "H" 
			},
			{
				"x": -4.4419319058,
				"y": 2.1958399661,
				"z": -1.9887034518,
				"element": "H" 
			},
			{
				"x": -2.8711408999,
				"y": 2.8976534474,
				"z": -1.5946309523,
				"element": "H" 
			},
			{
				"x": -3.6906022697,
				"y": 1.8348598439,
				"z": -0.4328279659,
				"element": "H" 
			},
			{
				"x": -3.6105672372,
				"y": 1.3610999544,
				"z": -4.1034298072,
				"element": "H" 
			},
			{
				"x": -2.0034841142,
				"y": 2.0170926532,
				"z": -3.7473204502,
				"element": "H" 
			},
			{
				"x": -2.1746117246,
				"y": 0.3488483109,
				"z": -4.2579498726,
				"element": "H" 
			},
			{
				"x": -1.5439920225,
				"y": 2.0431714708,
				"z": -0.0766463631,
				"element": "H" 
			},
			{
				"x": 1.9673195709,
				"y": -0.3330022998,
				"z": 0.1802979358,
				"element": "H" 
			},
			{
				"x": -1.9331423789,
				"y": -1.1690537862,
				"z": -3.2746751083,
				"element": "H" 
			},
			{
				"x": 1.8694100374,
				"y": -3.7884509132,
				"z": -3.0773463029,
				"element": "H" 
			},
			{
				"x": 0.9686786861,
				"y": -2.4712824177,
				"z": -3.8443227106,
				"element": "H" 
			},
			{
				"x": 0.1582916621,
				"y": -3.5396370188,
				"z": -2.6982376471,
				"element": "H" 
			},
			{
				"x": 3.375096769,
				"y": -0.9280306111,
				"z": -1.358496143,
				"element": "H" 
			},
			{
				"x": 3.6224873416,
				"y": -2.3194148701,
				"z": -2.4176067935,
				"element": "H" 
			},
			{
				"x": 2.8114500083,
				"y": -0.870252039,
				"z": -3.0344279574,
				"element": "H" 
			},
			{
				"x": 0.7993249063,
				"y": -3.4914532681,
				"z": -0.2109427366,
				"element": "H" 
			},
			{
				"x": 2.4449459636,
				"y": -3.8536167679,
				"z": -0.7588136963,
				"element": "H" 
			},
			{
				"x": 2.1559879647,
				"y": -2.5046800085,
				"z": 0.3461719011,
				"element": "H" 
			},
			{
				"x": 2.370620293,
				"y": 2.2788613127,
				"z": 0.1394588565,
				"element": "H" 
			},
			{
				"x": 2.3998694463,
				"y": 2.8302570228,
				"z": 3.0369454153,
				"element": "H" 
			},
			{
				"x": 3.8155416405,
				"y": 2.9699130947,
				"z": 1.9715383069,
				"element": "H" 
			},
			{
				"x": 1.3294610152,
				"y": 4.8068611395,
				"z": 1.8432083816,
				"element": "H" 
			},
			{
				"x": 2.990882129,
				"y": 6.5406695682,
				"z": 1.3059812036,
				"element": "H" 
			},
			{
				"x": 4.3454788683,
				"y": 5.2867848676,
				"z": 1.4151820567,
				"element": "H" 
			},
			{
				"x": -1.4595212829,
				"y": 0.7414554858,
				"z": 2.1159878736,
				"element": "H" 
			},
			{
				"x": -1.9101001171,
				"y": 2.3760144688,
				"z": 2.6147284807,
				"element": "H" 
			},
			{
				"x": -0.705979702,
				"y": 1.9286094284,
				"z": 4.8664483722,
				"element": "H" 
			},
			{
				"x": -1.5065481808,
				"y": -0.2318501609,
				"z": 5.7083360123,
				"element": "H" 
			},
			{
				"x": -1.9267665586,
				"y": -0.7606265997,
				"z": 3.9866182893,
				"element": "H" 
			}
		],
		 "valence_orbital": [ 
			{
				"type": "occ",
				"energy": -0.24445,
				"method": "rhf"
			},
			{
				"type": "occ",
				"energy": -0.24221,
				"method": "rhf"
			},
			{
				"type": "occ",
				"energy": -0.22954,
				"method": "rhf"
			},
			{
				"type": "occ",
				"energy": -0.21953,
				"method": "rhf"
			},
			{
				"type": "occ",
				"energy": -0.20855,
				"method": "rhf"
			},
			{
				"type": "unocc",
				"energy": -0.00905,
				"method": "rhf"
			},
			{
				"type": "unocc",
				"energy": -0.00496,
				"method": "rhf"
			},
			{
				"type": "unocc",
				"energy": 0.02253,
				"method": "rhf"
			},
			{
				"type": "unocc",
				"energy": 0.03181,
				"method": "rhf"
			},
			{
				"type": "unocc",
				"energy": 0.06034,
				"method": "rhf"
			}
		],
		"cosmo_sigma_profile": { 
			"-0.025": 0.0,
			"-0.024": 0.0,
			"-0.023": 0.0,
			"-0.022": 0.0,
			"-0.021": 0.0,
			"-0.02": 0.0,
			"-0.019": 0.0,
			"-0.018": 0.0,
			"-0.017": 0.0,
			"-0.016": 0.0,
			"-0.015": 0.0436954288683,
			"-0.014": 0.339479476519,
			"-0.013": 0.634991887499,
			"-0.012": 1.10735490524,
			"-0.011": 1.73606744811,
			"-0.01": 2.22105718548,
			"-0.009": 1.03153587293,
			"-0.008": 1.59487012637,
			"-0.007": 1.53594393201,
			"-0.006": 3.5258434087,
			"-0.005": 9.02771421676,
			"-0.004": 25.8651126661,
			"-0.003": 46.6953224545,
			"-0.002": 52.5462309481,
			"-0.001": 54.7415911413,
			"0.0": 54.538169939,
			"0.001": 51.4262269419,
			"0.002": 32.8431123714,
			"0.003": 20.6390617304,
			"0.004": 19.477704992,
			"0.005": 15.9708168354,
			"0.006": 11.8415001494,
			"0.007": 9.68795600221,
			"0.008": 4.65845418179,
			"0.009": 2.38634448352,
			"0.01": 1.10825932694,
			"0.011": 0.718896203199,
			"0.012": 0.643355277373,
			"0.013": 0.605045404271,
			"0.014": 0.195692922842,
			"0.015": 0.0,
			"0.016": 0.0,
			"0.017": 0.0,
			"0.018": 0.0,
			"0.019": 0.0,
			"0.02": 0.0,
			"0.021": 0.0,
			"0.022": 0.0,
			"0.023": 0.0,
			"0.024": 0.0,
			"0.025": 0.0
		}
	}
}
