{
	 "smiles": "OC[C@H](O)[C@@H](O)[C@H](O[C@H]1O[C@H](CO)[C@@H](O)[C@H](O)[C@H]1O)[C@H](O)CO", 
	 "Tm": 424.15, 
	 "num_atms": 47, 
	 "gaussian": { 
		 "optdone": 1, 
		 "sigma_profile": "yes", 
		 "theory": "DFT", 
		 "functional": "B3LYP", 
		 "basiset": "6-31G**", 
		 "properties": { 
			 "R2extent": 8109.1012, 
			 "electric_dipole_moment_norm": 7.23268603356, 
			 "electric_quadrupole_moment_norm": 24.4808087948, 
			 "total_energy": -1299.11715494, 
			 "HOMO_LUMO_gap": 0.2705, 
			 "cosmo_polarized_energy": -32.53, 
			 "cosmo_cavitation_energy": 45.07, 
			 "cosmo_dispersion_energy": -30.91, 
			 "cosmo_repulsion_energy": 2.37, 
			 "cosmo_total_nonelectrostatic_energy": 16.53, 
			 "SMD_solvation_energy": 6.92 
		},
		"coords": [
			{
				"x": -1.4607747174,
				"y": -0.7059268053,
				"z": -3.752790247,
				"element": "O" 
			},
			{
				"x": -1.3585028959,
				"y": 0.6701950087,
				"z": -3.4040607877,
				"element": "C" 
			},
			{
				"x": 0.1076671215,
				"y": 1.1068248073,
				"z": -3.4249204814,
				"element": "C" 
			},
			{
				"x": 0.6732171987,
				"y": 0.7797723951,
				"z": -4.701692487,
				"element": "O" 
			},
			{
				"x": 1.0065113622,
				"y": 0.4420781961,
				"z": -2.3634593791,
				"element": "C" 
			},
			{
				"x": 2.3651595921,
				"y": 0.8161743569,
				"z": -2.6255209529,
				"element": "O" 
			},
			{
				"x": 0.7328578741,
				"y": 0.7889487989,
				"z": -0.8887001681,
				"element": "C" 
			},
			{
				"x": -0.4587545038,
				"y": 0.1160041041,
				"z": -0.4560098471,
				"element": "O" 
			},
			{
				"x": -0.2611584686,
				"y": -1.1677722829,
				"z": 0.0893999446,
				"element": "C" 
			},
			{
				"x": 0.2280852386,
				"y": -1.1306862222,
				"z": 1.4083966399,
				"element": "O" 
			},
			{
				"x": -0.6924840928,
				"y": -1.0456596292,
				"z": 2.5149078004,
				"element": "C" 
			},
			{
				"x": -0.6336496331,
				"y": -2.3842613332,
				"z": 3.2615035506,
				"element": "C" 
			},
			{
				"x": -1.3090309863,
				"y": -2.2089557624,
				"z": 4.4983890843,
				"element": "O" 
			},
			{
				"x": -2.1349526187,
				"y": -0.6192630307,
				"z": 2.1799397035,
				"element": "C" 
			},
			{
				"x": -2.1562582034,
				"y": 0.8034115507,
				"z": 2.265468288,
				"element": "O" 
			},
			{
				"x": -2.6505926299,
				"y": -1.1194435353,
				"z": 0.7983785599,
				"element": "C" 
			},
			{
				"x": -3.7711988216,
				"y": -2.0054802294,
				"z": 0.8782142708,
				"element": "O" 
			},
			{
				"x": -1.5941514836,
				"y": -1.9025971236,
				"z": 0.0301428184,
				"element": "C" 
			},
			{
				"x": -1.9808074288,
				"y": -2.1059569831,
				"z": -1.3238514177,
				"element": "O" 
			},
			{
				"x": 0.5476662628,
				"y": 2.2872288199,
				"z": -0.612764609,
				"element": "C" 
			},
			{
				"x": 1.5597794816,
				"y": 3.069843673,
				"z": -1.250766845,
				"element": "O" 
			},
			{
				"x": 0.5779415356,
				"y": 2.6243990314,
				"z": 0.8806052001,
				"element": "C" 
			},
			{
				"x": 0.5247649606,
				"y": 4.0277171261,
				"z": 1.061273574,
				"element": "O" 
			},
			{
				"x": -1.523431281,
				"y": -1.2183083754,
				"z": -2.9267606084,
				"element": "H" 
			},
			{
				"x": -1.8140545662,
				"y": 0.8776569146,
				"z": -2.4305621918,
				"element": "H" 
			},
			{
				"x": -1.8936465813,
				"y": 1.2447148708,
				"z": -4.1692338854,
				"element": "H" 
			},
			{
				"x": 0.1837740152,
				"y": 2.1946458393,
				"z": -3.3243582103,
				"element": "H" 
			},
			{
				"x": 0.31005644,
				"y": -0.0985062776,
				"z": -4.9094190796,
				"element": "H" 
			},
			{
				"x": 0.9007273597,
				"y": -0.6482869911,
				"z": -2.4786182391,
				"element": "H" 
			},
			{
				"x": 2.4232863612,
				"y": 0.8361026076,
				"z": -3.5973688473,
				"element": "H" 
			},
			{
				"x": 1.5928374774,
				"y": 0.429078738,
				"z": -0.307657833,
				"element": "H" 
			},
			{
				"x": 0.5013517091,
				"y": -1.7104325464,
				"z": -0.4834502119,
				"element": "H" 
			},
			{
				"x": -0.3000037743,
				"y": -0.2762685498,
				"z": 3.1861934256,
				"element": "H" 
			},
			{
				"x": 0.4258747473,
				"y": -2.6402225186,
				"z": 3.4002582274,
				"element": "H" 
			},
			{
				"x": -1.0954046793,
				"y": -3.183938057,
				"z": 2.6616011441,
				"element": "H" 
			},
			{
				"x": -1.2825981079,
				"y": -3.0435043496,
				"z": 4.9812590736,
				"element": "H" 
			},
			{
				"x": -2.7722273122,
				"y": -1.0624101044,
				"z": 2.9578712706,
				"element": "H" 
			},
			{
				"x": -3.0687998113,
				"y": 1.11283871,
				"z": 2.205034766,
				"element": "H" 
			},
			{
				"x": -2.893542879,
				"y": -0.2297607323,
				"z": 0.2038423969,
				"element": "H" 
			},
			{
				"x": -4.5564129238,
				"y": -1.5008191169,
				"z": 1.1250708576,
				"element": "H" 
			},
			{
				"x": -1.4557094437,
				"y": -2.8777538483,
				"z": 0.5158292008,
				"element": "H" 
			},
			{
				"x": -2.8901411667,
				"y": -2.4383219257,
				"z": -1.2983636631,
				"element": "H" 
			},
			{
				"x": -0.429488523,
				"y": 2.5995577093,
				"z": -1.0109605719,
				"element": "H" 
			},
			{
				"x": 2.1508003822,
				"y": 2.4749105757,
				"z": -1.7466205352,
				"element": "H" 
			},
			{
				"x": -0.2838529224,
				"y": 2.1869835297,
				"z": 1.3902889156,
				"element": "H" 
			},
			{
				"x": 1.4965626363,
				"y": 2.1962779119,
				"z": 1.3199262682,
				"element": "H" 
			},
			{
				"x": 1.1892087001,
				"y": 4.3827710551,
				"z": 0.4511161181,
				"element": "H" 
			}
		],
		 "valence_orbital": [ 
			{
				"type": "occ",
				"energy": -0.27428,
				"method": "rhf"
			},
			{
				"type": "occ",
				"energy": -0.2726,
				"method": "rhf"
			},
			{
				"type": "occ",
				"energy": -0.26542,
				"method": "rhf"
			},
			{
				"type": "occ",
				"energy": -0.25352,
				"method": "rhf"
			},
			{
				"type": "occ",
				"energy": -0.23553,
				"method": "rhf"
			},
			{
				"type": "unocc",
				"energy": 0.03497,
				"method": "rhf"
			},
			{
				"type": "unocc",
				"energy": 0.05353,
				"method": "rhf"
			},
			{
				"type": "unocc",
				"energy": 0.06333,
				"method": "rhf"
			},
			{
				"type": "unocc",
				"energy": 0.06542,
				"method": "rhf"
			},
			{
				"type": "unocc",
				"energy": 0.07401,
				"method": "rhf"
			}
		],
		"cosmo_sigma_profile": { 
			"-0.025": 0.0,
			"-0.024": 0.0,
			"-0.023": 0.0,
			"-0.022": 0.0,
			"-0.021": 0.0,
			"-0.02": 0.0,
			"-0.019": 0.0,
			"-0.018": 0.0,
			"-0.017": 0.816009860428,
			"-0.016": 4.17174030134,
			"-0.015": 4.16032551332,
			"-0.014": 3.56797420581,
			"-0.013": 3.45981117213,
			"-0.012": 3.29370424573,
			"-0.011": 5.16496120771,
			"-0.01": 4.9098046566,
			"-0.009": 3.65955621483,
			"-0.008": 5.71308272683,
			"-0.007": 10.4415686153,
			"-0.006": 11.7536231796,
			"-0.005": 21.278953484,
			"-0.004": 26.4360967402,
			"-0.003": 26.1479026576,
			"-0.002": 23.66019111,
			"-0.001": 19.8378262214,
			"0.0": 15.8087127405,
			"0.001": 15.4246926066,
			"0.002": 15.7436319809,
			"0.003": 14.9067902423,
			"0.004": 15.809633874,
			"0.005": 13.3895729965,
			"0.006": 9.74473498632,
			"0.007": 10.6203820428,
			"0.008": 10.0876692985,
			"0.009": 9.14648322644,
			"0.01": 9.02274272804,
			"0.011": 9.14268522581,
			"0.012": 7.49269471249,
			"0.013": 6.00818652518,
			"0.014": 4.4288050201,
			"0.015": 1.5022151945,
			"0.016": 0.0,
			"0.017": 0.0,
			"0.018": 0.0,
			"0.019": 0.0,
			"0.02": 0.0,
			"0.021": 0.0,
			"0.022": 0.0,
			"0.023": 0.0,
			"0.024": 0.0,
			"0.025": 0.0
		}
	}
}
