{
	 "smiles": "CCCC=C(C)C", 
	 "Tm": 143.15, 
	 "num_atms": 21, 
	 "gaussian": { 
		 "optdone": 1, 
		 "sigma_profile": "yes", 
		 "theory": "DFT", 
		 "functional": "B3LYP", 
		 "basiset": "6-31G**", 
		 "properties": { 
			 "R2extent": 1383.5843, 
			 "electric_dipole_moment_norm": 0.224201895621, 
			 "electric_quadrupole_moment_norm": 1.26026789216, 
			 "total_energy": -275.185151373, 
			 "HOMO_LUMO_gap": 0.26064, 
			 "cosmo_polarized_energy": -1.5, 
			 "cosmo_cavitation_energy": 22.82, 
			 "cosmo_dispersion_energy": -16.47, 
			 "cosmo_repulsion_energy": 1.43, 
			 "cosmo_total_nonelectrostatic_energy": 7.78, 
			 "SMD_solvation_energy": 4.19 
		},
		"coords": [
			{
				"x": 3.0676863641,
				"y": -1.5370140256,
				"z": -1.9834808892,
				"element": "C" 
			},
			{
				"x": 1.7865488918,
				"y": -1.4374710895,
				"z": -1.1499904596,
				"element": "C" 
			},
			{
				"x": 1.7351668415,
				"y": -0.1705902235,
				"z": -0.2728538656,
				"element": "C" 
			},
			{
				"x": 0.5112671381,
				"y": -0.1145015584,
				"z": 0.6011520635,
				"element": "C" 
			},
			{
				"x": -0.482955131,
				"y": 0.7872777734,
				"z": 0.6005449307,
				"element": "C" 
			},
			{
				"x": -1.6420285977,
				"y": 0.6593616074,
				"z": 1.5610337807,
				"element": "C" 
			},
			{
				"x": -0.561787285,
				"y": 1.9869567671,
				"z": -0.3121108685,
				"element": "C" 
			},
			{
				"x": 3.1694054729,
				"y": -0.67998867,
				"z": -2.6593076468,
				"element": "H" 
			},
			{
				"x": 3.0774790068,
				"y": -2.4449356914,
				"z": -2.5955076294,
				"element": "H" 
			},
			{
				"x": 3.9568936279,
				"y": -1.5579677218,
				"z": -1.3427702578,
				"element": "H" 
			},
			{
				"x": 0.9097280292,
				"y": -1.4495263578,
				"z": -1.8096486767,
				"element": "H" 
			},
			{
				"x": 1.6952152509,
				"y": -2.3238100053,
				"z": -0.5079592652,
				"element": "H" 
			},
			{
				"x": 1.8087928566,
				"y": 0.7139996302,
				"z": -0.9148540715,
				"element": "H" 
			},
			{
				"x": 2.6319272118,
				"y": -0.1569626611,
				"z": 0.3656502516,
				"element": "H" 
			},
			{
				"x": 0.4342830823,
				"y": -0.9356092129,
				"z": 1.3167187747,
				"element": "H" 
			},
			{
				"x": -1.7209465513,
				"y": 1.5445682667,
				"z": 2.2066070208,
				"element": "H" 
			},
			{
				"x": -1.5453848592,
				"y": -0.2204740184,
				"z": 2.203240754,
				"element": "H" 
			},
			{
				"x": -2.5962272898,
				"y": 0.5843580235,
				"z": 1.022148004,
				"element": "H" 
			},
			{
				"x": 0.274816383,
				"y": 2.0566040544,
				"z": -1.0095201806,
				"element": "H" 
			},
			{
				"x": -1.4887522969,
				"y": 1.963899391,
				"z": -0.9002761274,
				"element": "H" 
			},
			{
				"x": -0.5905281459,
				"y": 2.9165257219,
				"z": 0.2718843582,
				"element": "H" 
			}
		],
		 "valence_orbital": [ 
			{
				"type": "occ",
				"energy": -0.34324,
				"method": "rhf"
			},
			{
				"type": "occ",
				"energy": -0.33431,
				"method": "rhf"
			},
			{
				"type": "occ",
				"energy": -0.32203,
				"method": "rhf"
			},
			{
				"type": "occ",
				"energy": -0.31436,
				"method": "rhf"
			},
			{
				"type": "occ",
				"energy": -0.22544,
				"method": "rhf"
			},
			{
				"type": "unocc",
				"energy": 0.0352,
				"method": "rhf"
			},
			{
				"type": "unocc",
				"energy": 0.09463,
				"method": "rhf"
			},
			{
				"type": "unocc",
				"energy": 0.10824,
				"method": "rhf"
			},
			{
				"type": "unocc",
				"energy": 0.12092,
				"method": "rhf"
			},
			{
				"type": "unocc",
				"energy": 0.13968,
				"method": "rhf"
			}
		],
		"cosmo_sigma_profile": { 
			"-0.025": 0.0,
			"-0.024": 0.0,
			"-0.023": 0.0,
			"-0.022": 0.0,
			"-0.021": 0.0,
			"-0.02": 0.0,
			"-0.019": 0.0,
			"-0.018": 0.0,
			"-0.017": 0.0,
			"-0.016": 0.0,
			"-0.015": 0.0,
			"-0.014": 0.0,
			"-0.013": 0.0,
			"-0.012": 0.0,
			"-0.011": 0.0,
			"-0.01": 0.0,
			"-0.009": 0.0,
			"-0.008": 0.0,
			"-0.007": 0.0,
			"-0.006": 0.0,
			"-0.005": 0.127576784877,
			"-0.004": 2.51586602164,
			"-0.003": 15.6179918117,
			"-0.002": 29.9543279821,
			"-0.001": 30.4156273669,
			"0.0": 31.6908836252,
			"0.001": 33.2987061739,
			"0.002": 15.0272005934,
			"0.003": 5.131333845,
			"0.004": 4.15576450962,
			"0.005": 3.54891627797,
			"0.006": 2.7153870309,
			"0.007": 2.05122228416,
			"0.008": 0.359054123474,
			"0.009": 0.0,
			"0.01": 0.0,
			"0.011": 0.0,
			"0.012": 0.0,
			"0.013": 0.0,
			"0.014": 0.0,
			"0.015": 0.0,
			"0.016": 0.0,
			"0.017": 0.0,
			"0.018": 0.0,
			"0.019": 0.0,
			"0.02": 0.0,
			"0.021": 0.0,
			"0.022": 0.0,
			"0.023": 0.0,
			"0.024": 0.0,
			"0.025": 0.0
		}
	}
}
