{
	 "smiles": "C(SCC1=CC=CO1)C1=CC=CO1", 
	 "Tm": 304.15, 
	 "num_atms": 23, 
	 "gaussian": { 
		 "optdone": 1, 
		 "sigma_profile": "yes", 
		 "theory": "DFT", 
		 "functional": "B3LYP", 
		 "basiset": "6-31G**", 
		 "properties": { 
			 "R2extent": 3569.9811, 
			 "electric_dipole_moment_norm": 2.07401313882, 
			 "electric_quadrupole_moment_norm": 8.61397000401, 
			 "total_energy": -935.671529202, 
			 "HOMO_LUMO_gap": 0.21284, 
			 "cosmo_polarized_energy": -8.37, 
			 "cosmo_cavitation_energy": 28.84, 
			 "cosmo_dispersion_energy": -20.8, 
			 "cosmo_repulsion_energy": 1.6, 
			 "cosmo_total_nonelectrostatic_energy": 9.64, 
			 "SMD_solvation_energy": 6.1 
		},
		"coords": [
			{
				"x": -2.20886561,
				"y": 0.2919959523,
				"z": 0.1325257553,
				"element": "C" 
			},
			{
				"x": -2.2032129165,
				"y": 1.6833294535,
				"z": 1.3559453073,
				"element": "S" 
			},
			{
				"x": -0.378569322,
				"y": 1.850326623,
				"z": 1.6673358782,
				"element": "C" 
			},
			{
				"x": 0.2612077466,
				"y": 0.6656040303,
				"z": 2.2874427576,
				"element": "C" 
			},
			{
				"x": 0.9957497903,
				"y": -0.3689194866,
				"z": 1.7766970408,
				"element": "C" 
			},
			{
				"x": 1.3143914794,
				"y": -1.2281607317,
				"z": 2.8795684366,
				"element": "C" 
			},
			{
				"x": 0.7485296348,
				"y": -0.6553403864,
				"z": 3.976845636,
				"element": "C" 
			},
			{
				"x": 0.1036131561,
				"y": 0.4965485171,
				"z": 3.6363713862,
				"element": "O" 
			},
			{
				"x": -1.7258349371,
				"y": 0.6274245849,
				"z": -1.2303099152,
				"element": "C" 
			},
			{
				"x": -2.3524215924,
				"y": 0.914127066,
				"z": -2.4086482792,
				"element": "C" 
			},
			{
				"x": -1.323235438,
				"y": 1.1648721028,
				"z": -3.3747572938,
				"element": "C" 
			},
			{
				"x": -0.1423901028,
				"y": 1.0153234953,
				"z": -2.7172480183,
				"element": "C" 
			},
			{
				"x": -0.3649742649,
				"y": 0.6861343511,
				"z": -1.4097238452,
				"element": "O" 
			},
			{
				"x": -3.2531847121,
				"y": -0.023891767,
				"z": 0.0819517694,
				"element": "H" 
			},
			{
				"x": -1.6271088324,
				"y": -0.5290135153,
				"z": 0.5626481937,
				"element": "H" 
			},
			{
				"x": 0.1130900832,
				"y": 2.0846580797,
				"z": 0.7221471597,
				"element": "H" 
			},
			{
				"x": -0.30328181,
				"y": 2.7215538263,
				"z": 2.3238586543,
				"element": "H" 
			},
			{
				"x": 1.2718497582,
				"y": -0.4923111104,
				"z": 0.7393390684,
				"element": "H" 
			},
			{
				"x": 1.8881186702,
				"y": -2.1434479092,
				"z": 2.8547477445,
				"element": "H" 
			},
			{
				"x": 0.7175811837,
				"y": -0.9192343389,
				"z": 5.0226021621,
				"element": "H" 
			},
			{
				"x": -3.4207659751,
				"y": 0.9460373842,
				"z": -2.5683301814,
				"element": "H" 
			},
			{
				"x": -1.450725144,
				"y": 1.4185895864,
				"z": -4.4172994491,
				"element": "H" 
			},
			{
				"x": 0.8921391548,
				"y": 1.0951941925,
				"z": -3.012609968,
				"element": "H" 
			}
		],
		 "valence_orbital": [ 
			{
				"type": "occ",
				"energy": -0.27885,
				"method": "rhf"
			},
			{
				"type": "occ",
				"energy": -0.27502,
				"method": "rhf"
			},
			{
				"type": "occ",
				"energy": -0.23019,
				"method": "rhf"
			},
			{
				"type": "occ",
				"energy": -0.22195,
				"method": "rhf"
			},
			{
				"type": "occ",
				"energy": -0.21305,
				"method": "rhf"
			},
			{
				"type": "unocc",
				"energy": -0.00021,
				"method": "rhf"
			},
			{
				"type": "unocc",
				"energy": 0.00373,
				"method": "rhf"
			},
			{
				"type": "unocc",
				"energy": 0.04826,
				"method": "rhf"
			},
			{
				"type": "unocc",
				"energy": 0.06305,
				"method": "rhf"
			},
			{
				"type": "unocc",
				"energy": 0.07989,
				"method": "rhf"
			}
		],
		"cosmo_sigma_profile": { 
			"-0.025": 0.0,
			"-0.024": 0.0,
			"-0.023": 0.0,
			"-0.022": 0.0,
			"-0.021": 0.0,
			"-0.02": 0.0,
			"-0.019": 0.0,
			"-0.018": 0.0,
			"-0.017": 0.0,
			"-0.016": 0.0,
			"-0.015": 0.0,
			"-0.014": 0.0,
			"-0.013": 0.0,
			"-0.012": 0.0,
			"-0.011": 0.0,
			"-0.01": 0.0,
			"-0.009": 1.35805159133,
			"-0.008": 4.50390225625,
			"-0.007": 10.2414382574,
			"-0.006": 14.6446462846,
			"-0.005": 13.2128145908,
			"-0.004": 16.4517082902,
			"-0.003": 18.8268031602,
			"-0.002": 15.9625361533,
			"-0.001": 14.8950170494,
			"0.0": 14.8029805284,
			"0.001": 15.0771541649,
			"0.002": 16.8807084694,
			"0.003": 16.7051995163,
			"0.004": 15.6012904814,
			"0.005": 16.114432313,
			"0.006": 12.1014229492,
			"0.007": 5.06032953935,
			"0.008": 4.65833030812,
			"0.009": 3.14982016877,
			"0.01": 2.10195240073,
			"0.011": 0.703524170055,
			"0.012": 0.0,
			"0.013": 0.0,
			"0.014": 0.0,
			"0.015": 0.0,
			"0.016": 0.0,
			"0.017": 0.0,
			"0.018": 0.0,
			"0.019": 0.0,
			"0.02": 0.0,
			"0.021": 0.0,
			"0.022": 0.0,
			"0.023": 0.0,
			"0.024": 0.0,
			"0.025": 0.0
		}
	}
}
