{
	 "smiles": "CCOC1=C2OC(=CC2=CC=C1)C(C)=O", 
	 "Tm": 346.15, 
	 "num_atms": 27, 
	 "gaussian": { 
		 "optdone": 1, 
		 "sigma_profile": "yes", 
		 "theory": "DFT", 
		 "functional": "B3LYP", 
		 "basiset": "6-31G**", 
		 "properties": { 
			 "R2extent": 3321.0915, 
			 "electric_dipole_moment_norm": 2.43757406657, 
			 "electric_quadrupole_moment_norm": 13.9135997926, 
			 "total_energy": -690.164221894, 
			 "HOMO_LUMO_gap": 0.15036, 
			 "cosmo_polarized_energy": -9.08, 
			 "cosmo_cavitation_energy": 31.08, 
			 "cosmo_dispersion_energy": -21.79, 
			 "cosmo_repulsion_energy": 1.71, 
			 "cosmo_total_nonelectrostatic_energy": 11.0, 
			 "SMD_solvation_energy": 6.66 
		},
		"coords": [
			{
				"x": -0.9921410167,
				"y": -3.2191709065,
				"z": 0.2796728101,
				"element": "C" 
			},
			{
				"x": 0.4085906199,
				"y": -2.9210425094,
				"z": 0.7986193839,
				"element": "C" 
			},
			{
				"x": 1.326888844,
				"y": -2.5751733905,
				"z": -0.2534477257,
				"element": "O" 
			},
			{
				"x": 1.2098148344,
				"y": -1.3976667371,
				"z": -0.9257776441,
				"element": "C" 
			},
			{
				"x": 0.5900346071,
				"y": -0.217189663,
				"z": -0.4829553813,
				"element": "C" 
			},
			{
				"x": -0.0656774976,
				"y": -0.0203196129,
				"z": 0.7059524797,
				"element": "O" 
			},
			{
				"x": -0.5094533157,
				"y": 1.2899174877,
				"z": 0.6940086129,
				"element": "C" 
			},
			{
				"x": -0.1527303523,
				"y": 1.9212473682,
				"z": -0.4609725844,
				"element": "C" 
			},
			{
				"x": 0.5675286059,
				"y": 0.9669551909,
				"z": -1.2536919216,
				"element": "C" 
			},
			{
				"x": 1.1909988524,
				"y": 1.0071055344,
				"z": -2.5120884723,
				"element": "C" 
			},
			{
				"x": 1.8140967648,
				"y": -0.1516355347,
				"z": -2.9548723627,
				"element": "C" 
			},
			{
				"x": 1.8180720334,
				"y": -1.3258537766,
				"z": -2.1831425689,
				"element": "C" 
			},
			{
				"x": -1.2561476168,
				"y": 1.7900296031,
				"z": 1.8617755989,
				"element": "C" 
			},
			{
				"x": -1.4849505541,
				"y": 0.8335872977,
				"z": 3.0145025272,
				"element": "C" 
			},
			{
				"x": -1.6628298559,
				"y": 2.9431759238,
				"z": 1.8702474168,
				"element": "O" 
			},
			{
				"x": -0.9626217832,
				"y": -4.0029047953,
				"z": -0.4828162533,
				"element": "H" 
			},
			{
				"x": -1.6270994445,
				"y": -3.5626436235,
				"z": 1.1033999223,
				"element": "H" 
			},
			{
				"x": -1.4558105514,
				"y": -2.328677402,
				"z": -0.1536504509,
				"element": "H" 
			},
			{
				"x": 0.3906919926,
				"y": -2.1373055484,
				"z": 1.5603017458,
				"element": "H" 
			},
			{
				"x": 0.8521492112,
				"y": -3.8168185637,
				"z": 1.241253914,
				"element": "H" 
			},
			{
				"x": -0.3842513707,
				"y": 2.9485817585,
				"z": -0.700664106,
				"element": "H" 
			},
			{
				"x": 1.1848289367,
				"y": 1.9121948228,
				"z": -3.1099203591,
				"element": "H" 
			},
			{
				"x": 2.3079254213,
				"y": -0.1638490687,
				"z": -3.9218342436,
				"element": "H" 
			},
			{
				"x": 2.3051779707,
				"y": -2.2239793638,
				"z": -2.5483030344,
				"element": "H" 
			},
			{
				"x": -2.0256794354,
				"y": -0.0568616256,
				"z": 2.6762712349,
				"element": "H" 
			},
			{
				"x": -0.5286861431,
				"y": 0.4892262234,
				"z": 3.423374581,
				"element": "H" 
			},
			{
				"x": -2.0569197572,
				"y": 1.3441709114,
				"z": 3.7897568805,
				"element": "H" 
			}
		],
		 "valence_orbital": [ 
			{
				"type": "occ",
				"energy": -0.31873,
				"method": "rhf"
			},
			{
				"type": "occ",
				"energy": -0.28204,
				"method": "rhf"
			},
			{
				"type": "occ",
				"energy": -0.2555,
				"method": "rhf"
			},
			{
				"type": "occ",
				"energy": -0.24136,
				"method": "rhf"
			},
			{
				"type": "occ",
				"energy": -0.21502,
				"method": "rhf"
			},
			{
				"type": "unocc",
				"energy": -0.06466,
				"method": "rhf"
			},
			{
				"type": "unocc",
				"energy": 0.00702,
				"method": "rhf"
			},
			{
				"type": "unocc",
				"energy": 0.01579,
				"method": "rhf"
			},
			{
				"type": "unocc",
				"energy": 0.07744,
				"method": "rhf"
			},
			{
				"type": "unocc",
				"energy": 0.08297,
				"method": "rhf"
			}
		],
		"cosmo_sigma_profile": { 
			"-0.025": 0.0,
			"-0.024": 0.0,
			"-0.023": 0.0,
			"-0.022": 0.0,
			"-0.021": 0.0,
			"-0.02": 0.0,
			"-0.019": 0.0,
			"-0.018": 0.0,
			"-0.017": 0.0,
			"-0.016": 0.0,
			"-0.015": 0.0,
			"-0.014": 0.0,
			"-0.013": 0.0,
			"-0.012": 0.0,
			"-0.011": 0.0,
			"-0.01": 0.0,
			"-0.009": 0.290873738347,
			"-0.008": 1.26429460171,
			"-0.007": 2.40864912419,
			"-0.006": 10.7526885827,
			"-0.005": 17.5152193359,
			"-0.004": 21.8776138023,
			"-0.003": 24.4381710901,
			"-0.002": 25.0948108852,
			"-0.001": 23.687714482,
			"0.0": 24.1991605855,
			"0.001": 20.2887199348,
			"0.002": 16.5816712646,
			"0.003": 14.311593865,
			"0.004": 10.8726506486,
			"0.005": 9.02674127976,
			"0.006": 3.39563156573,
			"0.007": 2.88784585306,
			"0.008": 2.45937824231,
			"0.009": 3.5007333396,
			"0.01": 3.30294193651,
			"0.011": 3.94760126113,
			"0.012": 4.14089360837,
			"0.013": 1.18334385018,
			"0.014": 0.0365145006261,
			"0.015": 0.0,
			"0.016": 0.0,
			"0.017": 0.0,
			"0.018": 0.0,
			"0.019": 0.0,
			"0.02": 0.0,
			"0.021": 0.0,
			"0.022": 0.0,
			"0.023": 0.0,
			"0.024": 0.0,
			"0.025": 0.0
		}
	}
}
