{
	 "smiles": "OC(=O)C1=C(N=NS1)C1=CC=CC=C1", 
	 "Tm": 417.15, 
	 "num_atms": 20, 
	 "gaussian": { 
		 "optdone": 1, 
		 "sigma_profile": "yes", 
		 "theory": "DFT", 
		 "functional": "B3LYP", 
		 "basiset": "6-31G**", 
		 "properties": { 
			 "R2extent": 3762.1026, 
			 "electric_dipole_moment_norm": 2.45588777838, 
			 "electric_quadrupole_moment_norm": 13.4865337322, 
			 "total_energy": -1004.67914532, 
			 "HOMO_LUMO_gap": 0.14776, 
			 "cosmo_polarized_energy": -11.12, 
			 "cosmo_cavitation_energy": 26.79, 
			 "cosmo_dispersion_energy": -20.48, 
			 "cosmo_repulsion_energy": 1.55, 
			 "cosmo_total_nonelectrostatic_energy": 7.85, 
			 "SMD_solvation_energy": 3.9 
		},
		"coords": [
			{
				"x": -0.3913270113,
				"y": -1.1137551707,
				"z": 2.2997789916,
				"element": "O" 
			},
			{
				"x": 0.2625622574,
				"y": -0.7682436809,
				"z": 1.1616197972,
				"element": "C" 
			},
			{
				"x": 1.3096972344,
				"y": -0.1566048954,
				"z": 1.1776111318,
				"element": "O" 
			},
			{
				"x": -0.4812666008,
				"y": -1.2288099302,
				"z": -0.0283827408,
				"element": "C" 
			},
			{
				"x": -0.2607544399,
				"y": -1.0103184326,
				"z": -1.3869628268,
				"element": "C" 
			},
			{
				"x": -1.2783904448,
				"y": -1.5387725872,
				"z": -2.1657855312,
				"element": "N" 
			},
			{
				"x": -2.2171051457,
				"y": -2.1323622069,
				"z": -1.5373265716,
				"element": "N" 
			},
			{
				"x": -1.9566485217,
				"y": -2.1033533421,
				"z": 0.1563709127,
				"element": "S" 
			},
			{
				"x": 0.8252906986,
				"y": -0.3249649668,
				"z": -2.1149015582,
				"element": "C" 
			},
			{
				"x": 2.1533669078,
				"y": -0.2937766263,
				"z": -1.6591357616,
				"element": "C" 
			},
			{
				"x": 3.1403186739,
				"y": 0.3354119141,
				"z": -2.4155951994,
				"element": "C" 
			},
			{
				"x": 2.8218566514,
				"y": 0.9424421273,
				"z": -3.6313382226,
				"element": "C" 
			},
			{
				"x": 1.5052306558,
				"y": 0.9093675535,
				"z": -4.0965888167,
				"element": "C" 
			},
			{
				"x": 0.5160022689,
				"y": 0.2752327377,
				"z": -3.3510004277,
				"element": "C" 
			},
			{
				"x": 0.1456594327,
				"y": -0.7805209516,
				"z": 3.0379310359,
				"element": "H" 
			},
			{
				"x": 2.4120896154,
				"y": -0.7540303614,
				"z": -0.7159375867,
				"element": "H" 
			},
			{
				"x": 4.163403772,
				"y": 0.3480618367,
				"z": -2.0516822792,
				"element": "H" 
			},
			{
				"x": 3.5947067359,
				"y": 1.4348356557,
				"z": -4.2145796188,
				"element": "H" 
			},
			{
				"x": 1.2482226663,
				"y": 1.3750186467,
				"z": -5.0434270556,
				"element": "H" 
			},
			{
				"x": -0.5035154062,
				"y": 0.2342426804,
				"z": -3.7170676722,
				"element": "H" 
			}
		],
		 "valence_orbital": [ 
			{
				"type": "occ",
				"energy": -0.3038,
				"method": "rhf"
			},
			{
				"type": "occ",
				"energy": -0.30174,
				"method": "rhf"
			},
			{
				"type": "occ",
				"energy": -0.26903,
				"method": "rhf"
			},
			{
				"type": "occ",
				"energy": -0.25499,
				"method": "rhf"
			},
			{
				"type": "occ",
				"energy": -0.24311,
				"method": "rhf"
			},
			{
				"type": "unocc",
				"energy": -0.09535,
				"method": "rhf"
			},
			{
				"type": "unocc",
				"energy": -0.03338,
				"method": "rhf"
			},
			{
				"type": "unocc",
				"energy": -0.0153,
				"method": "rhf"
			},
			{
				"type": "unocc",
				"energy": -0.00387,
				"method": "rhf"
			},
			{
				"type": "unocc",
				"energy": 0.01103,
				"method": "rhf"
			}
		],
		"cosmo_sigma_profile": { 
			"-0.025": 0.0,
			"-0.024": 0.0,
			"-0.023": 0.0,
			"-0.022": 0.0,
			"-0.021": 0.0,
			"-0.02": 0.0350200105032,
			"-0.019": 0.813695410181,
			"-0.018": 0.929443839003,
			"-0.017": 0.902991794185,
			"-0.016": 1.03719407759,
			"-0.015": 0.911207974766,
			"-0.014": 0.469396402013,
			"-0.013": 0.585188902569,
			"-0.012": 0.675147655172,
			"-0.011": 0.980624553159,
			"-0.01": 0.447169951974,
			"-0.009": 0.703316640078,
			"-0.008": 0.760269230147,
			"-0.007": 1.62598443467,
			"-0.006": 7.04004721392,
			"-0.005": 15.4269502482,
			"-0.004": 19.1696243937,
			"-0.003": 18.5968492104,
			"-0.002": 17.7640823558,
			"-0.001": 20.3337079137,
			"0.0": 15.8260903352,
			"0.001": 10.4586973557,
			"0.002": 12.2161219985,
			"0.003": 13.6012616641,
			"0.004": 17.3493404097,
			"0.005": 10.7509903952,
			"0.006": 5.46636771581,
			"0.007": 3.83515258875,
			"0.008": 4.56929919951,
			"0.009": 6.0000143497,
			"0.01": 5.71330109838,
			"0.011": 3.13589282349,
			"0.012": 0.538518648221,
			"0.013": 0.0,
			"0.014": 0.0,
			"0.015": 0.0,
			"0.016": 0.0,
			"0.017": 0.0,
			"0.018": 0.0,
			"0.019": 0.0,
			"0.02": 0.0,
			"0.021": 0.0,
			"0.022": 0.0,
			"0.023": 0.0,
			"0.024": 0.0,
			"0.025": 0.0
		}
	}
}
