{
	 "smiles": "CC(=O)NCCCCCC(N)=O", 
	 "Tm": 386.15, 
	 "num_atms": 28, 
	 "gaussian": { 
		 "optdone": 1, 
		 "sigma_profile": "yes", 
		 "theory": "DFT", 
		 "functional": "B3LYP", 
		 "basiset": "6-31G**", 
		 "properties": { 
			 "R2extent": 3835.6052, 
			 "electric_dipole_moment_norm": 6.93127769174, 
			 "electric_quadrupole_moment_norm": 12.413516395, 
			 "total_energy": -574.489523353, 
			 "HOMO_LUMO_gap": 0.25851, 
			 "cosmo_polarized_energy": -21.34, 
			 "cosmo_cavitation_energy": 30.87, 
			 "cosmo_dispersion_energy": -21.54, 
			 "cosmo_repulsion_energy": 1.79, 
			 "cosmo_total_nonelectrostatic_energy": 11.13, 
			 "SMD_solvation_energy": 6.2 
		},
		"coords": [
			{
				"x": -2.0138799668,
				"y": -1.7470736364,
				"z": 4.1559701029,
				"element": "C" 
			},
			{
				"x": -2.8573561157,
				"y": -1.6818359433,
				"z": 2.8901742089,
				"element": "C" 
			},
			{
				"x": -4.0817368639,
				"y": -1.6966188957,
				"z": 2.928235555,
				"element": "O" 
			},
			{
				"x": -2.1907865886,
				"y": -1.5885208842,
				"z": 1.6937152836,
				"element": "N" 
			},
			{
				"x": -0.7639788585,
				"y": -1.701846139,
				"z": 1.4220225535,
				"element": "C" 
			},
			{
				"x": -0.2893885094,
				"y": -0.6822001519,
				"z": 0.3763581985,
				"element": "C" 
			},
			{
				"x": -0.3992099708,
				"y": 0.7734130341,
				"z": 0.8511640488,
				"element": "C" 
			},
			{
				"x": -0.1172208464,
				"y": 1.8394110515,
				"z": -0.2201815046,
				"element": "C" 
			},
			{
				"x": 1.3034239228,
				"y": 1.821234735,
				"z": -0.803979939,
				"element": "C" 
			},
			{
				"x": 1.4934245016,
				"y": 0.7715139378,
				"z": -1.9006288503,
				"element": "C" 
			},
			{
				"x": 2.7615394934,
				"y": 0.2656240896,
				"z": -2.0094562631,
				"element": "N" 
			},
			{
				"x": 0.5886195249,
				"y": 0.4146935593,
				"z": -2.6422809151,
				"element": "O" 
			},
			{
				"x": -1.3580423779,
				"y": -0.8752268277,
				"z": 4.2510958166,
				"element": "H" 
			},
			{
				"x": -2.6964003162,
				"y": -1.7757553778,
				"z": 5.0047662492,
				"element": "H" 
			},
			{
				"x": -1.3829122152,
				"y": -2.6421810387,
				"z": 4.1734895505,
				"element": "H" 
			},
			{
				"x": -2.8162994447,
				"y": -1.605275607,
				"z": 0.8969632675,
				"element": "H" 
			},
			{
				"x": -0.2214922526,
				"y": -1.5491981334,
				"z": 2.3590476459,
				"element": "H" 
			},
			{
				"x": -0.5180245521,
				"y": -2.716983694,
				"z": 1.0755632342,
				"element": "H" 
			},
			{
				"x": 0.7490560013,
				"y": -0.9274536309,
				"z": 0.1221152727,
				"element": "H" 
			},
			{
				"x": -0.8598932547,
				"y": -0.8157554096,
				"z": -0.551422756,
				"element": "H" 
			},
			{
				"x": 0.2824333868,
				"y": 0.9250047608,
				"z": 1.7019734311,
				"element": "H" 
			},
			{
				"x": -1.4111220646,
				"y": 0.9376216871,
				"z": 1.2406606108,
				"element": "H" 
			},
			{
				"x": -0.8202453089,
				"y": 1.7264981126,
				"z": -1.052644538,
				"element": "H" 
			},
			{
				"x": -0.2993540432,
				"y": 2.8260659258,
				"z": 0.2211168489,
				"element": "H" 
			},
			{
				"x": 2.053770444,
				"y": 1.6939892184,
				"z": -0.0126467713,
				"element": "H" 
			},
			{
				"x": 1.5133486045,
				"y": 2.7912301199,
				"z": -1.2749214507,
				"element": "H" 
			},
			{
				"x": 2.9622677427,
				"y": -0.327559088,
				"z": -2.801007518,
				"element": "H" 
			},
			{
				"x": 3.5333599284,
				"y": 0.6430842258,
				"z": -1.4837613725,
				"element": "H" 
			}
		],
		 "valence_orbital": [ 
			{
				"type": "occ",
				"energy": -0.32667,
				"method": "rhf"
			},
			{
				"type": "occ",
				"energy": -0.27341,
				"method": "rhf"
			},
			{
				"type": "occ",
				"energy": -0.25223,
				"method": "rhf"
			},
			{
				"type": "occ",
				"energy": -0.23975,
				"method": "rhf"
			},
			{
				"type": "occ",
				"energy": -0.2344,
				"method": "rhf"
			},
			{
				"type": "unocc",
				"energy": 0.02411,
				"method": "rhf"
			},
			{
				"type": "unocc",
				"energy": 0.03758,
				"method": "rhf"
			},
			{
				"type": "unocc",
				"energy": 0.06531,
				"method": "rhf"
			},
			{
				"type": "unocc",
				"energy": 0.08446,
				"method": "rhf"
			},
			{
				"type": "unocc",
				"energy": 0.09928,
				"method": "rhf"
			}
		],
		"cosmo_sigma_profile": { 
			"-0.025": 0.0,
			"-0.024": 0.0,
			"-0.023": 0.0,
			"-0.022": 0.0,
			"-0.021": 0.0,
			"-0.02": 0.0,
			"-0.019": 0.0,
			"-0.018": 0.0,
			"-0.017": 0.0,
			"-0.016": 0.0,
			"-0.015": 0.0,
			"-0.014": 1.30653271229,
			"-0.013": 2.31206897127,
			"-0.012": 3.1383816628,
			"-0.011": 3.86762695607,
			"-0.01": 3.12987685328,
			"-0.009": 3.68337646607,
			"-0.008": 2.72965301648,
			"-0.007": 3.4638227636,
			"-0.006": 5.52020442695,
			"-0.005": 14.4798164615,
			"-0.004": 18.7311865811,
			"-0.003": 23.7058836178,
			"-0.002": 29.5360602856,
			"-0.001": 24.792445766,
			"0.0": 22.0733580109,
			"0.001": 12.4950681548,
			"0.002": 8.05630879109,
			"0.003": 4.85895957444,
			"0.004": 3.92313655637,
			"0.005": 4.23580544705,
			"0.006": 3.82951519279,
			"0.007": 2.49895919314,
			"0.008": 3.5151533942,
			"0.009": 3.50818585222,
			"0.01": 2.16142539853,
			"0.011": 2.71037951742,
			"0.012": 3.37148098617,
			"0.013": 4.49084504248,
			"0.014": 10.6533827845,
			"0.015": 5.81846078553,
			"0.016": 0.45911378252,
			"0.017": 0.0,
			"0.018": 0.0,
			"0.019": 0.0,
			"0.02": 0.0,
			"0.021": 0.0,
			"0.022": 0.0,
			"0.023": 0.0,
			"0.024": 0.0,
			"0.025": 0.0
		}
	}
}
