{
	 "smiles": "CC1=C(Cl)C(=O)OC2=C1C=CC(OP(=O)(OCCCl)OCCCl)=C2", 
	 "Tm": 364.15, 
	 "num_atms": 38, 
	 "gaussian": { 
		 "optdone": 1, 
		 "sigma_profile": "yes", 
		 "theory": "DFT", 
		 "functional": "B3LYP", 
		 "basiset": "6-31G**", 
		 "properties": { 
			 "R2extent": 16249.1125, 
			 "electric_dipole_moment_norm": 6.44827834232, 
			 "electric_quadrupole_moment_norm": 30.3470553962, 
			 "total_energy": -2715.28385691, 
			 "HOMO_LUMO_gap": 0.16332, 
			 "cosmo_polarized_energy": -23.84, 
			 "cosmo_cavitation_energy": 50.29, 
			 "cosmo_dispersion_energy": -35.12, 
			 "cosmo_repulsion_energy": 2.72, 
			 "cosmo_total_nonelectrostatic_energy": 17.89, 
			 "SMD_solvation_energy": 10.34 
		},
		"coords": [
			{
				"x": -3.8808696538,
				"y": -3.7844755585,
				"z": 1.0893961008,
				"element": "C" 
			},
			{
				"x": -2.9195417603,
				"y": -3.4567102619,
				"z": -0.0195004915,
				"element": "C" 
			},
			{
				"x": -2.7508780949,
				"y": -4.2413966972,
				"z": -1.1203890698,
				"element": "C" 
			},
			{
				"x": -3.6361168503,
				"y": -5.7235962746,
				"z": -1.3687045709,
				"element": "Cl" 
			},
			{
				"x": -1.8120389155,
				"y": -3.9247692317,
				"z": -2.2092596481,
				"element": "C" 
			},
			{
				"x": -1.6221360534,
				"y": -4.5769271637,
				"z": -3.2033670789,
				"element": "O" 
			},
			{
				"x": -1.0868080769,
				"y": -2.7522983794,
				"z": -2.0467101574,
				"element": "O" 
			},
			{
				"x": -1.2216120854,
				"y": -1.9379651015,
				"z": -0.9639942225,
				"element": "C" 
			},
			{
				"x": -2.1217930123,
				"y": -2.2419576092,
				"z": 0.0734217989,
				"element": "C" 
			},
			{
				"x": -2.1959205438,
				"y": -1.33496697,
				"z": 1.1501271561,
				"element": "C" 
			},
			{
				"x": -1.4098481613,
				"y": -0.1949039943,
				"z": 1.1871440268,
				"element": "C" 
			},
			{
				"x": -0.5236355611,
				"y": 0.0655568305,
				"z": 0.1326534834,
				"element": "C" 
			},
			{
				"x": 0.1995266406,
				"y": 1.2471532061,
				"z": 0.2379621592,
				"element": "O" 
			},
			{
				"x": 1.6616346244,
				"y": 1.5228176711,
				"z": -0.4392531385,
				"element": "P" 
			},
			{
				"x": 1.7830417644,
				"y": 1.2033225901,
				"z": -1.8742738377,
				"element": "O" 
			},
			{
				"x": 2.7003316336,
				"y": 0.7435461286,
				"z": 0.4922446723,
				"element": "O" 
			},
			{
				"x": 2.7975603618,
				"y": 0.9850257226,
				"z": 1.9163039395,
				"element": "C" 
			},
			{
				"x": 3.9418466303,
				"y": 0.1134080211,
				"z": 2.4071044652,
				"element": "C" 
			},
			{
				"x": 4.1224630156,
				"y": 0.3157438085,
				"z": 4.1934396252,
				"element": "Cl" 
			},
			{
				"x": 1.8566442853,
				"y": 3.0531897136,
				"z": -0.0069176901,
				"element": "O" 
			},
			{
				"x": 1.5280039307,
				"y": 4.114488835,
				"z": -0.9303462393,
				"element": "C" 
			},
			{
				"x": 2.6625414892,
				"y": 4.4078254919,
				"z": -1.8931119329,
				"element": "C" 
			},
			{
				"x": 4.1385627072,
				"y": 5.0190403987,
				"z": -1.0420307372,
				"element": "Cl" 
			},
			{
				"x": -0.4220337157,
				"y": -0.7932208408,
				"z": -0.9557418679,
				"element": "C" 
			},
			{
				"x": -4.4088376348,
				"y": -4.7170961275,
				"z": 0.9006184595,
				"element": "H" 
			},
			{
				"x": -3.3488676471,
				"y": -3.8743271993,
				"z": 2.0429971366,
				"element": "H" 
			},
			{
				"x": -4.6209808231,
				"y": -2.9845363169,
				"z": 1.2030335822,
				"element": "H" 
			},
			{
				"x": -2.8787505536,
				"y": -1.5297877224,
				"z": 1.9689408957,
				"element": "H" 
			},
			{
				"x": -1.467941303,
				"y": 0.5038387434,
				"z": 2.0140027353,
				"element": "H" 
			},
			{
				"x": 1.858149018,
				"y": 0.7076915547,
				"z": 2.4030803387,
				"element": "H" 
			},
			{
				"x": 3.0024939034,
				"y": 2.0430158271,
				"z": 2.0969237437,
				"element": "H" 
			},
			{
				"x": 3.7464338392,
				"y": -0.9411362738,
				"z": 2.2109434154,
				"element": "H" 
			},
			{
				"x": 4.8845894933,
				"y": 0.4033903225,
				"z": 1.9429253968,
				"element": "H" 
			},
			{
				"x": 0.636535323,
				"y": 3.8509785761,
				"z": -1.5108052549,
				"element": "H" 
			},
			{
				"x": 1.3017422658,
				"y": 4.9813113148,
				"z": -0.3070506981,
				"element": "H" 
			},
			{
				"x": 2.9471685056,
				"y": 3.5091800134,
				"z": -2.4403608986,
				"element": "H" 
			},
			{
				"x": 2.3537628962,
				"y": 5.1844676211,
				"z": -2.5959934374,
				"element": "H" 
			},
			{
				"x": 0.2458781184,
				"y": -0.5916206682,
				"z": -1.7842521595,
				"element": "H" 
			}
		],
		 "valence_orbital": [ 
			{
				"type": "occ",
				"energy": -0.30374,
				"method": "rhf"
			},
			{
				"type": "occ",
				"energy": -0.29947,
				"method": "rhf"
			},
			{
				"type": "occ",
				"energy": -0.28573,
				"method": "rhf"
			},
			{
				"type": "occ",
				"energy": -0.26714,
				"method": "rhf"
			},
			{
				"type": "occ",
				"energy": -0.23921,
				"method": "rhf"
			},
			{
				"type": "unocc",
				"energy": -0.07589,
				"method": "rhf"
			},
			{
				"type": "unocc",
				"energy": -0.02877,
				"method": "rhf"
			},
			{
				"type": "unocc",
				"energy": -0.01049,
				"method": "rhf"
			},
			{
				"type": "unocc",
				"energy": 0.00089,
				"method": "rhf"
			},
			{
				"type": "unocc",
				"energy": 0.01359,
				"method": "rhf"
			}
		],
		"cosmo_sigma_profile": { 
			"-0.025": 0.0,
			"-0.024": 0.0,
			"-0.023": 0.0,
			"-0.022": 0.0,
			"-0.021": 0.0,
			"-0.02": 0.0,
			"-0.019": 0.0,
			"-0.018": 0.0,
			"-0.017": 0.0,
			"-0.016": 0.0,
			"-0.015": 0.0,
			"-0.014": 0.0,
			"-0.013": 0.0,
			"-0.012": 0.0,
			"-0.011": 0.0,
			"-0.01": 0.0,
			"-0.009": 3.10397622653,
			"-0.008": 14.8865603603,
			"-0.007": 21.4918084805,
			"-0.006": 27.3680742004,
			"-0.005": 24.797787226,
			"-0.004": 24.7409673952,
			"-0.003": 24.5901288944,
			"-0.002": 28.9739165814,
			"-0.001": 29.585141891,
			"0.0": 30.8075276781,
			"0.001": 27.3284421625,
			"0.002": 22.9698979271,
			"0.003": 19.0763808046,
			"0.004": 22.0077073672,
			"0.005": 21.7510747692,
			"0.006": 23.2915419372,
			"0.007": 7.96796983162,
			"0.008": 5.51096681845,
			"0.009": 3.54416293208,
			"0.01": 4.46971654254,
			"0.011": 8.02706676199,
			"0.012": 7.11253982524,
			"0.013": 2.15794527791,
			"0.014": 0.061039091381,
			"0.015": 0.0,
			"0.016": 0.0,
			"0.017": 0.0,
			"0.018": 0.0,
			"0.019": 0.0,
			"0.02": 0.0,
			"0.021": 0.0,
			"0.022": 0.0,
			"0.023": 0.0,
			"0.024": 0.0,
			"0.025": 0.0
		}
	}
}
