{
	 "smiles": "NC1=NC(F)=CC=C1", 
	 "Tm": 333.15, 
	 "num_atms": 13, 
	 "gaussian": { 
		 "optdone": 1, 
		 "sigma_profile": "yes", 
		 "theory": "DFT", 
		 "functional": "B3LYP", 
		 "basiset": "6-31G**", 
		 "properties": { 
			 "R2extent": 1242.7922, 
			 "electric_dipole_moment_norm": 3.26943459791, 
			 "electric_quadrupole_moment_norm": 6.94637864502, 
			 "total_energy": -402.894085813, 
			 "HOMO_LUMO_gap": 0.20215, 
			 "cosmo_polarized_energy": -9.33, 
			 "cosmo_cavitation_energy": 17.63, 
			 "cosmo_dispersion_energy": -13.32, 
			 "cosmo_repulsion_energy": 1.1, 
			 "cosmo_total_nonelectrostatic_energy": 5.41, 
			 "SMD_solvation_energy": 2.19 
		},
		"coords": [
			{
				"x": 1.1891222353,
				"y": 0.9288653853,
				"z": -1.7946786193,
				"element": "N" 
			},
			{
				"x": 0.0804795519,
				"y": 1.1939929059,
				"z": -1.0193793121,
				"element": "C" 
			},
			{
				"x": -0.1418247434,
				"y": 0.3430254523,
				"z": -0.0014601337,
				"element": "N" 
			},
			{
				"x": -1.2209221446,
				"y": 0.5413167392,
				"z": 0.725756323,
				"element": "C" 
			},
			{
				"x": -1.4070325364,
				"y": -0.330072499,
				"z": 1.7322576641,
				"element": "F" 
			},
			{
				"x": -2.1565754743,
				"y": 1.5551768214,
				"z": 0.5504325952,
				"element": "C" 
			},
			{
				"x": -1.9088561822,
				"y": 2.4348231195,
				"z": -0.5058232213,
				"element": "C" 
			},
			{
				"x": -0.7867700495,
				"y": 2.2666775154,
				"z": -1.307860394,
				"element": "C" 
			},
			{
				"x": 1.5877420191,
				"y": 1.6923683723,
				"z": -2.31895203,
				"element": "H" 
			},
			{
				"x": 1.8546783787,
				"y": 0.2950893426,
				"z": -1.3761761555,
				"element": "H" 
			},
			{
				"x": -3.0146929383,
				"y": 1.6411200522,
				"z": 1.2046333733,
				"element": "H" 
			},
			{
				"x": -2.5960810919,
				"y": 3.2527464986,
				"z": -0.7020876786,
				"element": "H" 
			},
			{
				"x": -0.5816670245,
				"y": 2.9341702944,
				"z": -2.1383624112,
				"element": "H" 
			}
		],
		 "valence_orbital": [ 
			{
				"type": "occ",
				"energy": -0.37446,
				"method": "rhf"
			},
			{
				"type": "occ",
				"energy": -0.31549,
				"method": "rhf"
			},
			{
				"type": "occ",
				"energy": -0.27847,
				"method": "rhf"
			},
			{
				"type": "occ",
				"energy": -0.27658,
				"method": "rhf"
			},
			{
				"type": "occ",
				"energy": -0.21606,
				"method": "rhf"
			},
			{
				"type": "unocc",
				"energy": -0.01391,
				"method": "rhf"
			},
			{
				"type": "unocc",
				"energy": 0.01003,
				"method": "rhf"
			},
			{
				"type": "unocc",
				"energy": 0.08123,
				"method": "rhf"
			},
			{
				"type": "unocc",
				"energy": 0.10232,
				"method": "rhf"
			},
			{
				"type": "unocc",
				"energy": 0.12911,
				"method": "rhf"
			}
		],
		"cosmo_sigma_profile": { 
			"-0.025": 0.0,
			"-0.024": 0.0,
			"-0.023": 0.0,
			"-0.022": 0.0,
			"-0.021": 0.0,
			"-0.02": 0.0,
			"-0.019": 0.0,
			"-0.018": 0.0,
			"-0.017": 0.0,
			"-0.016": 0.0,
			"-0.015": 0.0,
			"-0.014": 0.401655257474,
			"-0.013": 1.93471076831,
			"-0.012": 2.5532532342,
			"-0.011": 2.5930582117,
			"-0.01": 1.92417850401,
			"-0.009": 2.93525327565,
			"-0.008": 2.60869855782,
			"-0.007": 6.07725044793,
			"-0.006": 6.97871921242,
			"-0.005": 6.99796517726,
			"-0.004": 6.36885912287,
			"-0.003": 4.78688846451,
			"-0.002": 5.0323527077,
			"-0.001": 5.33175981976,
			"0.0": 8.00152297737,
			"0.001": 12.1716469859,
			"0.002": 10.7444571365,
			"0.003": 13.0571641173,
			"0.004": 16.8758467543,
			"0.005": 6.26796232121,
			"0.006": 2.9744217862,
			"0.007": 2.96026278867,
			"0.008": 2.67853478191,
			"0.009": 1.91794186428,
			"0.01": 1.73577899272,
			"0.011": 1.79888003143,
			"0.012": 1.6316801976,
			"0.013": 0.831130481661,
			"0.014": 0.711084598121,
			"0.015": 0.1702977452,
			"0.016": 0.0,
			"0.017": 0.0,
			"0.018": 0.0,
			"0.019": 0.0,
			"0.02": 0.0,
			"0.021": 0.0,
			"0.022": 0.0,
			"0.023": 0.0,
			"0.024": 0.0,
			"0.025": 0.0
		}
	}
}
