{
	 "smiles": "CCC1=C(C(=O)C2=CC(I)=C(O)C(I)=C2)C2=C(O1)C=CC=C2", 
	 "Tm": 440.15, 
	 "num_atms": 34, 
	 "gaussian": { 
		 "optdone": 1, 
		 "sigma_profile": "no", 
		 "theory": "DFT", 
		 "functional": "B3LYP", 
		 "basiset": "6-31G**", 
		 "properties": { 
			 "R2extent": 8219.0116, 
			 "electric_dipole_moment_norm": 3.75300923127, 
			 "electric_quadrupole_moment_norm": 9.9778504178, 
			 "total_energy": -903.483858447, 
			 "HOMO_LUMO_gap": 0.15681, 
			 "cosmo_polarized_energy": -220727.49, 
			 "cosmo_cavitation_energy": 44.62, 
			 "cosmo_dispersion_energy": -33.78, 
			 "cosmo_repulsion_energy": 2.55, 
			 "cosmo_total_nonelectrostatic_energy": 13.4, 
			 "SMD_solvation_energy": 6.62 
		},
		"coords": [
			{
				"x": 1.0430879113,
				"y": 2.8827629867,
				"z": 0.1408266609,
				"element": "C" 
			},
			{
				"x": 0.6704676126,
				"y": 1.5063975658,
				"z": 0.7243432318,
				"element": "C" 
			},
			{
				"x": 1.0545761056,
				"y": 0.3767972707,
				"z": -0.1762164473,
				"element": "C" 
			},
			{
				"x": 0.3568788684,
				"y": -0.5853623699,
				"z": -0.8710151124,
				"element": "C" 
			},
			{
				"x": -1.0943744074,
				"y": -0.8698292576,
				"z": -0.9228985631,
				"element": "C" 
			},
			{
				"x": -1.605659298,
				"y": -1.2432005401,
				"z": -1.9755627399,
				"element": "O" 
			},
			{
				"x": -1.9453596776,
				"y": -0.7616222406,
				"z": 0.3076266517,
				"element": "C" 
			},
			{
				"x": -1.4323945829,
				"y": -0.9187310244,
				"z": 1.6002645215,
				"element": "C" 
			},
			{
				"x": -2.2901875278,
				"y": -0.8908257032,
				"z": 2.6952499447,
				"element": "C" 
			},
			{
				"x": -1.4938458149,
				"y": -1.1558043137,
				"z": 4.6493306948,
				"element": "I" 
			},
			{
				"x": -3.6772500067,
				"y": -0.6991452467,
				"z": 2.5458611964,
				"element": "C" 
			},
			{
				"x": -4.5441960588,
				"y": -0.6532610236,
				"z": 3.5717177252,
				"element": "O" 
			},
			{
				"x": -4.1764424121,
				"y": -0.5510150887,
				"z": 1.233925568,
				"element": "C" 
			},
			{
				"x": -6.2493867183,
				"y": -0.2657945018,
				"z": 0.9434813716,
				"element": "I" 
			},
			{
				"x": -3.3291850659,
				"y": -0.5974933344,
				"z": 0.1379483086,
				"element": "C" 
			},
			{
				"x": 1.334982149,
				"y": -1.2710046081,
				"z": -1.7017715805,
				"element": "C" 
			},
			{
				"x": 2.5678310475,
				"y": -0.679796047,
				"z": -1.397266685,
				"element": "C" 
			},
			{
				"x": 2.3907811955,
				"y": 0.3292312235,
				"z": -0.4799166965,
				"element": "O" 
			},
			{
				"x": 3.7767882799,
				"y": -1.0713887785,
				"z": -1.9570861892,
				"element": "C" 
			},
			{
				"x": 3.7159410444,
				"y": -2.115570816,
				"z": -2.8801840138,
				"element": "C" 
			},
			{
				"x": 2.4918986861,
				"y": -2.7243487262,
				"z": -3.2143418188,
				"element": "C" 
			},
			{
				"x": 1.2925126129,
				"y": -2.314607206,
				"z": -2.6363385528,
				"element": "C" 
			},
			{
				"x": 0.7599702874,
				"y": 3.6761027588,
				"z": 0.8386482761,
				"element": "H" 
			},
			{
				"x": 2.1181257707,
				"y": 2.9526062344,
				"z": -0.0420174607,
				"element": "H" 
			},
			{
				"x": 0.5241911449,
				"y": 3.0591770372,
				"z": -0.8060975532,
				"element": "H" 
			},
			{
				"x": 1.1730099811,
				"y": 1.3763003845,
				"z": 1.6922819983,
				"element": "H" 
			},
			{
				"x": -0.4029865685,
				"y": 1.4580717119,
				"z": 0.9145427189,
				"element": "H" 
			},
			{
				"x": -0.372061901,
				"y": -1.0856585047,
				"z": 1.7453559063,
				"element": "H" 
			},
			{
				"x": -4.0678416526,
				"y": -0.7764959203,
				"z": 4.4096744539,
				"element": "H" 
			},
			{
				"x": -3.7172005154,
				"y": -0.5121824277,
				"z": -0.8700936726,
				"element": "H" 
			},
			{
				"x": 4.709224514,
				"y": -0.5867013384,
				"z": -1.6894695777,
				"element": "H" 
			},
			{
				"x": 4.6305856064,
				"y": -2.4608462107,
				"z": -3.3525351176,
				"element": "H" 
			},
			{
				"x": 2.483876111,
				"y": -3.5282104078,
				"z": -3.9443827179,
				"element": "H" 
			},
			{
				"x": 0.3468432792,
				"y": -2.7700515372,
				"z": -2.9061847294,
				"element": "H" 
			}
		],
		 "valence_orbital": [ 
			{
				"type": "occ",
				"energy": -0.26082,
				"method": "rhf"
			},
			{
				"type": "occ",
				"energy": -0.25142,
				"method": "rhf"
			},
			{
				"type": "occ",
				"energy": -0.24343,
				"method": "rhf"
			},
			{
				"type": "occ",
				"energy": -0.24235,
				"method": "rhf"
			},
			{
				"type": "occ",
				"energy": -0.22702,
				"method": "rhf"
			},
			{
				"type": "unocc",
				"energy": -0.07021,
				"method": "rhf"
			},
			{
				"type": "unocc",
				"energy": -0.06748,
				"method": "rhf"
			},
			{
				"type": "unocc",
				"energy": -0.0396,
				"method": "rhf"
			},
			{
				"type": "unocc",
				"energy": -0.03371,
				"method": "rhf"
			},
			{
				"type": "unocc",
				"energy": -0.02562,
				"method": "rhf"
			}
		],
		"cosmo_sigma_profile": { 
			"0.0": 0.0,
			"0.0": 0.0,
			"0.0": 0.0,
			"0.0": 0.0,
			"0.0": 0.0,
			"0.0": 0.0,
			"0.0": 0.0,
			"0.0": 0.0,
			"0.0": 0.0,
			"0.0": 0.0,
			"0.0": 0.0,
			"0.0": 0.0,
			"0.0": 0.0,
			"0.0": 0.0,
			"0.0": 0.0,
			"0.0": 0.0,
			"0.0": 0.0,
			"0.0": 0.0,
			"0.0": 0.0,
			"0.0": 0.0,
			"0.0": 0.0,
			"0.0": 0.0,
			"0.0": 0.0,
			"0.0": 0.0,
			"0.0": 0.0,
			"0.0": 0.0,
			"0.0": 0.0,
			"0.0": 0.0,
			"0.0": 0.0,
			"0.0": 0.0,
			"0.0": 0.0,
			"0.0": 0.0,
			"0.0": 0.0,
			"0.0": 0.0,
			"0.0": 0.0,
			"0.0": 0.0,
			"0.0": 0.0,
			"0.0": 0.0,
			"0.0": 0.0,
			"0.0": 0.0,
			"0.0": 0.0,
			"0.0": 0.0,
			"0.0": 0.0,
			"0.0": 0.0,
			"0.0": 0.0,
			"0.0": 0.0,
			"0.0": 0.0,
			"0.0": 0.0,
			"0.0": 0.0,
			"0.0": 0.0,
			"0.0": 0.0
		}
	}
}
