{
	 "smiles": "NC1=C(C=CC(F)=C1)S(N)(=O)=O", 
	 "Tm": 403.15, 
	 "num_atms": 19, 
	 "gaussian": { 
		 "optdone": 1, 
		 "sigma_profile": "yes", 
		 "theory": "DFT", 
		 "functional": "B3LYP", 
		 "basiset": "6-31G**", 
		 "properties": { 
			 "R2extent": 2520.7342, 
			 "electric_dipole_moment_norm": 4.65065067598, 
			 "electric_quadrupole_moment_norm": 17.4415950865, 
			 "total_energy": -990.768738745, 
			 "HOMO_LUMO_gap": 0.20303, 
			 "cosmo_polarized_energy": -17.72, 
			 "cosmo_cavitation_energy": 24.49, 
			 "cosmo_dispersion_energy": -18.87, 
			 "cosmo_repulsion_energy": 1.42, 
			 "cosmo_total_nonelectrostatic_energy": 7.04, 
			 "SMD_solvation_energy": 4.35 
		},
		"coords": [
			{
				"x": 0.2687431482,
				"y": 1.665023891,
				"z": -1.9543142578,
				"element": "N" 
			},
			{
				"x": 0.6231700775,
				"y": 0.9645497314,
				"z": -0.8081547244,
				"element": "C" 
			},
			{
				"x": 0.1060155357,
				"y": -0.3298805253,
				"z": -0.551738123,
				"element": "C" 
			},
			{
				"x": 0.4869320707,
				"y": -1.0513683312,
				"z": 0.5816168559,
				"element": "C" 
			},
			{
				"x": 1.4053461161,
				"y": -0.5249257095,
				"z": 1.4843608413,
				"element": "C" 
			},
			{
				"x": 1.9260886362,
				"y": 0.7371182814,
				"z": 1.2107792977,
				"element": "C" 
			},
			{
				"x": 2.8201975295,
				"y": 1.2689088137,
				"z": 2.0641357595,
				"element": "F" 
			},
			{
				"x": 1.558294234,
				"y": 1.48454172,
				"z": 0.101135911,
				"element": "C" 
			},
			{
				"x": -1.0173866601,
				"y": -1.0892902749,
				"z": -1.7159937986,
				"element": "S" 
			},
			{
				"x": -0.120896094,
				"y": -1.3918746069,
				"z": -3.1069151847,
				"element": "N" 
			},
			{
				"x": -2.0059019316,
				"y": -0.073465218,
				"z": -2.1053485791,
				"element": "O" 
			},
			{
				"x": -1.4132653409,
				"y": -2.3926321891,
				"z": -1.1892191799,
				"element": "O" 
			},
			{
				"x": 0.5619813992,
				"y": 2.6324021222,
				"z": -1.9653685283,
				"element": "H" 
			},
			{
				"x": -0.6992325689,
				"y": 1.5370892734,
				"z": -2.2379059964,
				"element": "H" 
			},
			{
				"x": 0.0506821886,
				"y": -2.0314517635,
				"z": 0.7406251172,
				"element": "H" 
			},
			{
				"x": 1.7162441689,
				"y": -1.0633378951,
				"z": 2.3714293555,
				"element": "H" 
			},
			{
				"x": 1.9895507256,
				"y": 2.4697201158,
				"z": -0.0437397213,
				"element": "H" 
			},
			{
				"x": 0.2878872655,
				"y": -0.5351742371,
				"z": -3.4754627877,
				"element": "H" 
			},
			{
				"x": 0.5773494999,
				"y": -2.1128531982,
				"z": -2.947822257,
				"element": "H" 
			}
		],
		 "valence_orbital": [ 
			{
				"type": "occ",
				"energy": -0.32151,
				"method": "rhf"
			},
			{
				"type": "occ",
				"energy": -0.31112,
				"method": "rhf"
			},
			{
				"type": "occ",
				"energy": -0.30493,
				"method": "rhf"
			},
			{
				"type": "occ",
				"energy": -0.26634,
				"method": "rhf"
			},
			{
				"type": "occ",
				"energy": -0.23669,
				"method": "rhf"
			},
			{
				"type": "unocc",
				"energy": -0.03366,
				"method": "rhf"
			},
			{
				"type": "unocc",
				"energy": -0.01728,
				"method": "rhf"
			},
			{
				"type": "unocc",
				"energy": 0.05468,
				"method": "rhf"
			},
			{
				"type": "unocc",
				"energy": 0.0669,
				"method": "rhf"
			},
			{
				"type": "unocc",
				"energy": 0.07542,
				"method": "rhf"
			}
		],
		"cosmo_sigma_profile": { 
			"-0.025": 0.0,
			"-0.024": 0.0,
			"-0.023": 0.0,
			"-0.022": 0.0,
			"-0.021": 0.0,
			"-0.02": 0.0,
			"-0.019": 0.0,
			"-0.018": 0.0,
			"-0.017": 0.0,
			"-0.016": 0.108840735859,
			"-0.015": 1.34808510905,
			"-0.014": 2.20138997383,
			"-0.013": 3.66380223617,
			"-0.012": 3.89481977827,
			"-0.011": 4.234120005,
			"-0.01": 4.77732762212,
			"-0.009": 3.21039432494,
			"-0.008": 5.48714383489,
			"-0.007": 7.9357135478,
			"-0.006": 6.92128936944,
			"-0.005": 8.07132648043,
			"-0.004": 6.06408638504,
			"-0.003": 7.0445644094,
			"-0.002": 6.82593027356,
			"-0.001": 9.42732626426,
			"0.0": 13.5605469757,
			"0.001": 15.2414161642,
			"0.002": 17.2585287453,
			"0.003": 12.8207860678,
			"0.004": 13.1061334994,
			"0.005": 3.66221566233,
			"0.006": 3.43469053274,
			"0.007": 5.64176566872,
			"0.008": 5.15114046698,
			"0.009": 4.52970205843,
			"0.01": 7.31675318075,
			"0.011": 8.56901749099,
			"0.012": 3.70100690142,
			"0.013": 0.346231780246,
			"0.014": 0.0,
			"0.015": 0.0,
			"0.016": 0.0,
			"0.017": 0.0,
			"0.018": 0.0,
			"0.019": 0.0,
			"0.02": 0.0,
			"0.021": 0.0,
			"0.022": 0.0,
			"0.023": 0.0,
			"0.024": 0.0,
			"0.025": 0.0
		}
	}
}
