{
	 "smiles": "CC(O)C1=CC(O)=CC=C1", 
	 "Tm": 386.15, 
	 "num_atms": 20, 
	 "gaussian": { 
		 "optdone": 1, 
		 "sigma_profile": "yes", 
		 "theory": "DFT", 
		 "functional": "B3LYP", 
		 "basiset": "6-31G**", 
		 "properties": { 
			 "R2extent": 1803.2003, 
			 "electric_dipole_moment_norm": 0.671080188949, 
			 "electric_quadrupole_moment_norm": 7.76264660989, 
			 "total_energy": -461.320885628, 
			 "HOMO_LUMO_gap": 0.21685, 
			 "cosmo_polarized_energy": -11.04, 
			 "cosmo_cavitation_energy": 23.4, 
			 "cosmo_dispersion_energy": -17.09, 
			 "cosmo_repulsion_energy": 1.41, 
			 "cosmo_total_nonelectrostatic_energy": 7.72, 
			 "SMD_solvation_energy": 4.44 
		},
		"coords": [
			{
				"x": -0.807782198,
				"y": -1.0058385278,
				"z": -2.9380898944,
				"element": "C" 
			},
			{
				"x": -1.5929809316,
				"y": -0.434262662,
				"z": -1.7566356269,
				"element": "C" 
			},
			{
				"x": -2.7170831149,
				"y": -1.2951947534,
				"z": -1.5741942763,
				"element": "O" 
			},
			{
				"x": -0.7401537203,
				"y": -0.3273083398,
				"z": -0.499660399,
				"element": "C" 
			},
			{
				"x": -0.6403376106,
				"y": -1.4195511975,
				"z": 0.369408367,
				"element": "C" 
			},
			{
				"x": 0.1672892131,
				"y": -1.345063306,
				"z": 1.507737767,
				"element": "C" 
			},
			{
				"x": 0.2945962183,
				"y": -2.3859730088,
				"z": 2.3848107081,
				"element": "O" 
			},
			{
				"x": 0.8819360022,
				"y": -0.1750286206,
				"z": 1.7892750797,
				"element": "C" 
			},
			{
				"x": 0.7769605444,
				"y": 0.9108193164,
				"z": 0.9236633956,
				"element": "C" 
			},
			{
				"x": -0.0305434627,
				"y": 0.8437547039,
				"z": -0.2144634662,
				"element": "C" 
			},
			{
				"x": 0.0513937828,
				"y": -0.3715616958,
				"z": -3.1728857424,
				"element": "H" 
			},
			{
				"x": -1.4533821706,
				"y": -1.0712028894,
				"z": -3.8187701197,
				"element": "H" 
			},
			{
				"x": -0.4437384006,
				"y": -2.0089968268,
				"z": -2.6970560759,
				"element": "H" 
			},
			{
				"x": -1.934446567,
				"y": 0.5792067942,
				"z": -2.024553649,
				"element": "H" 
			},
			{
				"x": -3.2176597926,
				"y": -0.9633046358,
				"z": -0.8167815504,
				"element": "H" 
			},
			{
				"x": -1.2049000125,
				"y": -2.3228729633,
				"z": 0.1487841358,
				"element": "H" 
			},
			{
				"x": -0.2351403725,
				"y": -3.1292307858,
				"z": 2.0682785033,
				"element": "H" 
			},
			{
				"x": 1.5001219298,
				"y": -0.1364019203,
				"z": 2.6799504756,
				"element": "H" 
			},
			{
				"x": 1.3252826067,
				"y": 1.8225525388,
				"z": 1.1438787594,
				"element": "H" 
			},
			{
				"x": -0.1116319432,
				"y": 1.7011587798,
				"z": -0.8775963914,
				"element": "H" 
			}
		],
		 "valence_orbital": [ 
			{
				"type": "occ",
				"energy": -0.33097,
				"method": "rhf"
			},
			{
				"type": "occ",
				"energy": -0.31833,
				"method": "rhf"
			},
			{
				"type": "occ",
				"energy": -0.27587,
				"method": "rhf"
			},
			{
				"type": "occ",
				"energy": -0.24448,
				"method": "rhf"
			},
			{
				"type": "occ",
				"energy": -0.21975,
				"method": "rhf"
			},
			{
				"type": "unocc",
				"energy": -0.0029,
				"method": "rhf"
			},
			{
				"type": "unocc",
				"energy": 0.01175,
				"method": "rhf"
			},
			{
				"type": "unocc",
				"energy": 0.07301,
				"method": "rhf"
			},
			{
				"type": "unocc",
				"energy": 0.08438,
				"method": "rhf"
			},
			{
				"type": "unocc",
				"energy": 0.10513,
				"method": "rhf"
			}
		],
		"cosmo_sigma_profile": { 
			"-0.025": 0.0,
			"-0.024": 0.0,
			"-0.023": 0.0,
			"-0.022": 0.0,
			"-0.021": 0.0,
			"-0.02": 0.0,
			"-0.019": 0.0,
			"-0.018": 0.104947429326,
			"-0.017": 0.874107097679,
			"-0.016": 1.50956963726,
			"-0.015": 0.971333113627,
			"-0.014": 2.37548244409,
			"-0.013": 1.77523634825,
			"-0.012": 1.36799110132,
			"-0.011": 2.09043848782,
			"-0.01": 1.69666095262,
			"-0.009": 1.70491084009,
			"-0.008": 1.99289296642,
			"-0.007": 2.13419187636,
			"-0.006": 3.28031029884,
			"-0.005": 9.24583066564,
			"-0.004": 12.64046318,
			"-0.003": 15.822750017,
			"-0.002": 14.6843237459,
			"-0.001": 13.2271610324,
			"0.0": 14.9104055166,
			"0.001": 11.5292051892,
			"0.002": 8.8043263439,
			"0.003": 8.80345855989,
			"0.004": 11.0946251848,
			"0.005": 11.4985847458,
			"0.006": 10.0617192606,
			"0.007": 3.23626349374,
			"0.008": 2.19285506771,
			"0.009": 2.90086566928,
			"0.01": 2.64251786975,
			"0.011": 3.03647784807,
			"0.012": 2.60981149249,
			"0.013": 1.38857836726,
			"0.014": 1.66957539229,
			"0.015": 0.0821783139618,
			"0.016": 0.0,
			"0.017": 0.0,
			"0.018": 0.0,
			"0.019": 0.0,
			"0.02": 0.0,
			"0.021": 0.0,
			"0.022": 0.0,
			"0.023": 0.0,
			"0.024": 0.0,
			"0.025": 0.0
		}
	}
}
