{
	 "smiles": "CC(C)N1C=C(C(N)=S)C(=O)N(CC2=CC=CC=C2)C1=O", 
	 "Tm": 447.15, 
	 "num_atms": 38, 
	 "gaussian": { 
		 "optdone": 1, 
		 "sigma_profile": "yes", 
		 "theory": "DFT", 
		 "functional": "B3LYP", 
		 "basiset": "6-31G**", 
		 "properties": { 
			 "R2extent": 7728.8576, 
			 "electric_dipole_moment_norm": 2.7831026607, 
			 "electric_quadrupole_moment_norm": 25.6359373377, 
			 "total_energy": -1294.80228814, 
			 "HOMO_LUMO_gap": 0.14054, 
			 "cosmo_polarized_energy": -16.76, 
			 "cosmo_cavitation_energy": 42.17, 
			 "cosmo_dispersion_energy": -29.72, 
			 "cosmo_repulsion_energy": 2.24, 
			 "cosmo_total_nonelectrostatic_energy": 14.69, 
			 "SMD_solvation_energy": 7.21 
		},
		"coords": [
			{
				"x": 1.6157526572,
				"y": -2.3200220962,
				"z": 3.4524980004,
				"element": "C" 
			},
			{
				"x": 2.6450565468,
				"y": -1.679877467,
				"z": 2.5162199998,
				"element": "C" 
			},
			{
				"x": 3.7849160956,
				"y": -2.628657524,
				"z": 2.1336144749,
				"element": "C" 
			},
			{
				"x": 1.9785069087,
				"y": -1.1379369209,
				"z": 1.2936802708,
				"element": "N" 
			},
			{
				"x": 1.3387036296,
				"y": -1.967248782,
				"z": 0.435551076,
				"element": "C" 
			},
			{
				"x": 0.7020952304,
				"y": -1.5591460738,
				"z": -0.7013908747,
				"element": "C" 
			},
			{
				"x": 0.0386057176,
				"y": -2.5735126266,
				"z": -1.5642945032,
				"element": "C" 
			},
			{
				"x": -0.5704431687,
				"y": -2.0892827374,
				"z": -2.6541759833,
				"element": "N" 
			},
			{
				"x": 0.0436911069,
				"y": -4.2212545883,
				"z": -1.2130354323,
				"element": "S" 
			},
			{
				"x": 0.703089294,
				"y": -0.1306268377,
				"z": -1.0055424517,
				"element": "C" 
			},
			{
				"x": 0.1662151694,
				"y": 0.3932029495,
				"z": -1.988143056,
				"element": "O" 
			},
			{
				"x": 1.385801785,
				"y": 0.6850485652,
				"z": -0.0833404795,
				"element": "N" 
			},
			{
				"x": 1.4137205246,
				"y": 2.1497078057,
				"z": -0.3423142271,
				"element": "C" 
			},
			{
				"x": 0.2658563362,
				"y": 2.8946831096,
				"z": 0.3107266365,
				"element": "C" 
			},
			{
				"x": 0.4118850902,
				"y": 3.4406841925,
				"z": 1.5931573736,
				"element": "C" 
			},
			{
				"x": -0.6430531686,
				"y": 4.132437046,
				"z": 2.1901910164,
				"element": "C" 
			},
			{
				"x": -1.8541480482,
				"y": 4.2854139713,
				"z": 1.5125647049,
				"element": "C" 
			},
			{
				"x": -2.0067255432,
				"y": 3.7434028121,
				"z": 0.2346729333,
				"element": "C" 
			},
			{
				"x": -0.9527879596,
				"y": 3.0520556575,
				"z": -0.3638395765,
				"element": "C" 
			},
			{
				"x": 2.0331075728,
				"y": 0.2484036833,
				"z": 1.0680212761,
				"element": "C" 
			},
			{
				"x": 2.6140885149,
				"y": 1.0069142006,
				"z": 1.8295730698,
				"element": "O" 
			},
			{
				"x": 0.8255104174,
				"y": -1.6096628249,
				"z": 3.7111191269,
				"element": "H" 
			},
			{
				"x": 1.1524591372,
				"y": -3.2074934971,
				"z": 3.0087280463,
				"element": "H" 
			},
			{
				"x": 2.109460988,
				"y": -2.6319593595,
				"z": 4.3776123279,
				"element": "H" 
			},
			{
				"x": 3.0631433445,
				"y": -0.7951917724,
				"z": 2.9963391827,
				"element": "H" 
			},
			{
				"x": 4.5043941422,
				"y": -2.1327509581,
				"z": 1.475972315,
				"element": "H" 
			},
			{
				"x": 4.312954595,
				"y": -2.9463609209,
				"z": 3.0375431988,
				"element": "H" 
			},
			{
				"x": 3.4186799607,
				"y": -3.5294500544,
				"z": 1.630046393,
				"element": "H" 
			},
			{
				"x": 1.336635235,
				"y": -3.025935429,
				"z": 0.6745615177,
				"element": "H" 
			},
			{
				"x": -1.0327653976,
				"y": -2.7428648161,
				"z": -3.2681004547,
				"element": "H" 
			},
			{
				"x": -0.5524566531,
				"y": -1.0868897744,
				"z": -2.834864017,
				"element": "H" 
			},
			{
				"x": 1.3800479872,
				"y": 2.2621547491,
				"z": -1.4249952589,
				"element": "H" 
			},
			{
				"x": 2.3705178458,
				"y": 2.5086716535,
				"z": 0.0350708186,
				"element": "H" 
			},
			{
				"x": 1.3520222251,
				"y": 3.3123001407,
				"z": 2.1206052109,
				"element": "H" 
			},
			{
				"x": -0.517609175,
				"y": 4.5543664873,
				"z": 3.1834563667,
				"element": "H" 
			},
			{
				"x": -2.6740047044,
				"y": 4.8265026809,
				"z": 1.9766117401,
				"element": "H" 
			},
			{
				"x": -2.9459021595,
				"y": 3.861782087,
				"z": -0.2984610891,
				"element": "H" 
			},
			{
				"x": -1.0691220803,
				"y": 2.6235932688,
				"z": -1.3545396734,
				"element": "H" 
			}
		],
		 "valence_orbital": [ 
			{
				"type": "occ",
				"energy": -0.25968,
				"method": "rhf"
			},
			{
				"type": "occ",
				"energy": -0.24991,
				"method": "rhf"
			},
			{
				"type": "occ",
				"energy": -0.24821,
				"method": "rhf"
			},
			{
				"type": "occ",
				"energy": -0.21654,
				"method": "rhf"
			},
			{
				"type": "occ",
				"energy": -0.20788,
				"method": "rhf"
			},
			{
				"type": "unocc",
				"energy": -0.06734,
				"method": "rhf"
			},
			{
				"type": "unocc",
				"energy": -0.03016,
				"method": "rhf"
			},
			{
				"type": "unocc",
				"energy": -0.00813,
				"method": "rhf"
			},
			{
				"type": "unocc",
				"energy": -0.00178,
				"method": "rhf"
			},
			{
				"type": "unocc",
				"energy": 0.01775,
				"method": "rhf"
			}
		],
		"cosmo_sigma_profile": { 
			"-0.025": 0.0,
			"-0.024": 0.0,
			"-0.023": 0.0,
			"-0.022": 0.0,
			"-0.021": 0.0,
			"-0.02": 0.0,
			"-0.019": 0.0,
			"-0.018": 0.0,
			"-0.017": 0.0,
			"-0.016": 0.0,
			"-0.015": 0.190418940572,
			"-0.014": 1.12207999221,
			"-0.013": 1.23819213613,
			"-0.012": 0.853927313988,
			"-0.011": 1.19421673648,
			"-0.01": 2.01140194043,
			"-0.009": 2.44467578735,
			"-0.008": 2.25604567343,
			"-0.007": 4.48124774754,
			"-0.006": 9.90950401093,
			"-0.005": 26.3701061241,
			"-0.004": 36.8390123763,
			"-0.003": 35.6702323713,
			"-0.002": 30.8318925634,
			"-0.001": 29.5801137263,
			"0.0": 24.1577708312,
			"0.001": 13.996946044,
			"0.002": 14.7195373304,
			"0.003": 16.2100866239,
			"0.004": 15.5870432553,
			"0.005": 15.5475567316,
			"0.006": 11.3949269842,
			"0.007": 7.77081111005,
			"0.008": 6.39410195627,
			"0.009": 8.14960526799,
			"0.01": 9.94873836544,
			"0.011": 6.42960033643,
			"0.012": 2.60533534511,
			"0.013": 0.145447992601,
			"0.014": 0.0,
			"0.015": 0.0,
			"0.016": 0.0,
			"0.017": 0.0,
			"0.018": 0.0,
			"0.019": 0.0,
			"0.02": 0.0,
			"0.021": 0.0,
			"0.022": 0.0,
			"0.023": 0.0,
			"0.024": 0.0,
			"0.025": 0.0
		}
	}
}
