{
	 "smiles": "COC1=CC(=CC=C1N=C=S)[N+]([O-])=O", 
	 "Tm": 381.15, 
	 "num_atms": 20, 
	 "gaussian": { 
		 "optdone": 1, 
		 "sigma_profile": "yes", 
		 "theory": "DFT", 
		 "functional": "B3LYP", 
		 "basiset": "6-31G**", 
		 "properties": { 
			 "R2extent": 4576.8816, 
			 "electric_dipole_moment_norm": 2.11904169614, 
			 "electric_quadrupole_moment_norm": 24.7873143057, 
			 "total_energy": -1041.7104495, 
			 "HOMO_LUMO_gap": 0.1396, 
			 "cosmo_polarized_energy": -9.56, 
			 "cosmo_cavitation_energy": 28.58, 
			 "cosmo_dispersion_energy": -20.78, 
			 "cosmo_repulsion_energy": 1.6, 
			 "cosmo_total_nonelectrostatic_energy": 9.4, 
			 "SMD_solvation_energy": 8.03 
		},
		"coords": [
			{
				"x": -1.5386628994,
				"y": 2.9663981866,
				"z": 0.3466260326,
				"element": "C" 
			},
			{
				"x": -1.148737779,
				"y": 1.6487169952,
				"z": 0.7265687054,
				"element": "O" 
			},
			{
				"x": 0.1493781869,
				"y": 1.2963908697,
				"z": 0.5986188771,
				"element": "C" 
			},
			{
				"x": 1.1609845599,
				"y": 2.1233820251,
				"z": 0.1182306272,
				"element": "C" 
			},
			{
				"x": 2.4624807595,
				"y": 1.6231495759,
				"z": 0.0408917562,
				"element": "C" 
			},
			{
				"x": 2.7965301637,
				"y": 0.3285501095,
				"z": 0.4240889021,
				"element": "C" 
			},
			{
				"x": 1.7841652256,
				"y": -0.4961903631,
				"z": 0.9038216879,
				"element": "C" 
			},
			{
				"x": 0.4675130432,
				"y": -0.0321904513,
				"z": 0.9966549138,
				"element": "C" 
			},
			{
				"x": -0.5189106498,
				"y": -0.8639714829,
				"z": 1.4739412909,
				"element": "N" 
			},
			{
				"x": -1.687787848,
				"y": -0.9821524941,
				"z": 1.7399658875,
				"element": "C" 
			},
			{
				"x": -3.1854294307,
				"y": -1.2949879181,
				"z": 2.1366652577,
				"element": "S" 
			},
			{
				"x": 3.5164597129,
				"y": 2.5113154174,
				"z": -0.4686569527,
				"element": "N" 
			},
			{
				"x": 3.1914890097,
				"y": 3.6524103394,
				"z": -0.8003353948,
				"element": "O" 
			},
			{
				"x": 4.6599625096,
				"y": 2.0615763058,
				"z": -0.5332319216,
				"element": "O" 
			},
			{
				"x": -1.3415444084,
				"y": 3.1468625685,
				"z": -0.716425776,
				"element": "H" 
			},
			{
				"x": -2.6107705566,
				"y": 3.0221517181,
				"z": 0.5338219371,
				"element": "H" 
			},
			{
				"x": -1.0208219135,
				"y": 3.7218275523,
				"z": 0.9488415819,
				"element": "H" 
			},
			{
				"x": 0.9754449582,
				"y": 3.1402809913,
				"z": -0.1975528261,
				"element": "H" 
			},
			{
				"x": 3.8208935561,
				"y": -0.0098151165,
				"z": 0.344065135,
				"element": "H" 
			},
			{
				"x": 1.9949638001,
				"y": -1.513104829,
				"z": 1.2148002788,
				"element": "H" 
			}
		],
		 "valence_orbital": [ 
			{
				"type": "occ",
				"energy": -0.31123,
				"method": "rhf"
			},
			{
				"type": "occ",
				"energy": -0.29593,
				"method": "rhf"
			},
			{
				"type": "occ",
				"energy": -0.27468,
				"method": "rhf"
			},
			{
				"type": "occ",
				"energy": -0.27057,
				"method": "rhf"
			},
			{
				"type": "occ",
				"energy": -0.23987,
				"method": "rhf"
			},
			{
				"type": "unocc",
				"energy": -0.10027,
				"method": "rhf"
			},
			{
				"type": "unocc",
				"energy": -0.0353,
				"method": "rhf"
			},
			{
				"type": "unocc",
				"energy": -0.03476,
				"method": "rhf"
			},
			{
				"type": "unocc",
				"energy": -0.02552,
				"method": "rhf"
			},
			{
				"type": "unocc",
				"energy": 0.03696,
				"method": "rhf"
			}
		],
		"cosmo_sigma_profile": { 
			"-0.025": 0.0,
			"-0.024": 0.0,
			"-0.023": 0.0,
			"-0.022": 0.0,
			"-0.021": 0.0,
			"-0.02": 0.0,
			"-0.019": 0.0,
			"-0.018": 0.0,
			"-0.017": 0.0,
			"-0.016": 0.0,
			"-0.015": 0.0,
			"-0.014": 0.0,
			"-0.013": 0.0,
			"-0.012": 0.0,
			"-0.011": 0.0,
			"-0.01": 0.0,
			"-0.009": 0.398858096423,
			"-0.008": 4.64498932131,
			"-0.007": 10.8379091593,
			"-0.006": 13.6884340876,
			"-0.005": 11.8197964928,
			"-0.004": 14.5809820893,
			"-0.003": 11.0076965154,
			"-0.002": 17.6706691072,
			"-0.001": 25.0378036066,
			"0.0": 25.4876677717,
			"0.001": 18.6382126337,
			"0.002": 13.1511181093,
			"0.003": 12.0443983296,
			"0.004": 18.4740995576,
			"0.005": 9.89634730003,
			"0.006": 4.38536666189,
			"0.007": 7.97859996995,
			"0.008": 7.20406240826,
			"0.009": 4.28974608551,
			"0.01": 2.55991092566,
			"0.011": 0.0851542549056,
			"0.012": 0.0,
			"0.013": 0.0,
			"0.014": 0.0,
			"0.015": 0.0,
			"0.016": 0.0,
			"0.017": 0.0,
			"0.018": 0.0,
			"0.019": 0.0,
			"0.02": 0.0,
			"0.021": 0.0,
			"0.022": 0.0,
			"0.023": 0.0,
			"0.024": 0.0,
			"0.025": 0.0
		}
	}
}
