{
	 "smiles": "C(SSCC1=CC=CO1)C1=CC=CO1", 
	 "Tm": 283.15, 
	 "num_atms": 24, 
	 "gaussian": { 
		 "optdone": 1, 
		 "sigma_profile": "yes", 
		 "theory": "DFT", 
		 "functional": "B3LYP", 
		 "basiset": "6-31G**", 
		 "properties": { 
			 "R2extent": 4369.0734, 
			 "electric_dipole_moment_norm": 3.10788312682, 
			 "electric_quadrupole_moment_norm": 6.79562690118, 
			 "total_energy": -1333.86229098, 
			 "HOMO_LUMO_gap": 0.19313, 
			 "cosmo_polarized_energy": -9.56, 
			 "cosmo_cavitation_energy": 32.23, 
			 "cosmo_dispersion_energy": -22.85, 
			 "cosmo_repulsion_energy": 1.73, 
			 "cosmo_total_nonelectrostatic_energy": 11.1, 
			 "SMD_solvation_energy": 6.01 
		},
		"coords": [
			{
				"x": 1.58285261,
				"y": -1.7234389725,
				"z": -0.3133518825,
				"element": "C" 
			},
			{
				"x": 1.300804095,
				"y": -0.8251624907,
				"z": 1.3050566692,
				"element": "S" 
			},
			{
				"x": 0.9385212819,
				"y": 1.1369778317,
				"z": 0.7347505777,
				"element": "S" 
			},
			{
				"x": -0.9274855897,
				"y": 1.1987927691,
				"z": 0.5427215188,
				"element": "C" 
			},
			{
				"x": -1.360105185,
				"y": 2.5997035852,
				"z": 0.3403571633,
				"element": "C" 
			},
			{
				"x": -1.5988113933,
				"y": 3.3558244097,
				"z": -0.7740575102,
				"element": "C" 
			},
			{
				"x": -1.964501746,
				"y": 4.6612336559,
				"z": -0.3142545607,
				"element": "C" 
			},
			{
				"x": -1.9155737184,
				"y": 4.6068215653,
				"z": 1.0458497811,
				"element": "C" 
			},
			{
				"x": -1.547990348,
				"y": 3.3642579037,
				"z": 1.4619564774,
				"element": "O" 
			},
			{
				"x": 0.4195690146,
				"y": -1.7800492772,
				"z": -1.2235472466,
				"element": "C" 
			},
			{
				"x": 0.1018918981,
				"y": -1.1051914608,
				"z": -2.3696345451,
				"element": "C" 
			},
			{
				"x": -1.1964906605,
				"y": -1.5646667879,
				"z": -2.7685651457,
				"element": "C" 
			},
			{
				"x": -1.5723853344,
				"y": -2.482918003,
				"z": -1.8359031879,
				"element": "C" 
			},
			{
				"x": -0.6022972222,
				"y": -2.627409481,
				"z": -0.889605941,
				"element": "O" 
			},
			{
				"x": 1.8829422086,
				"y": -2.724872572,
				"z": 0.0140701027,
				"element": "H" 
			},
			{
				"x": 2.4289881763,
				"y": -1.2527576599,
				"z": -0.8158757695,
				"element": "H" 
			},
			{
				"x": -1.3618509646,
				"y": 0.7772812181,
				"z": 1.4511024341,
				"element": "H" 
			},
			{
				"x": -1.2016948287,
				"y": 0.5857594336,
				"z": -0.3162004378,
				"element": "H" 
			},
			{
				"x": -1.5250229992,
				"y": 3.0174247465,
				"z": -1.7977512231,
				"element": "H" 
			},
			{
				"x": -2.2292228904,
				"y": 5.5190538862,
				"z": -0.9153600378,
				"element": "H" 
			},
			{
				"x": -2.1093487014,
				"y": 5.3258116893,
				"z": 1.8266983303,
				"element": "H" 
			},
			{
				"x": 0.7214303441,
				"y": -0.3719577123,
				"z": -2.8657177666,
				"element": "H" 
			},
			{
				"x": -1.7647216512,
				"y": -1.2574258456,
				"z": -3.6347191768,
				"element": "H" 
			},
			{
				"x": -2.4473963956,
				"y": -3.1015924312,
				"z": -1.7102186233,
				"element": "H" 
			}
		],
		 "valence_orbital": [ 
			{
				"type": "occ",
				"energy": -0.27991,
				"method": "rhf"
			},
			{
				"type": "occ",
				"energy": -0.2488,
				"method": "rhf"
			},
			{
				"type": "occ",
				"energy": -0.24175,
				"method": "rhf"
			},
			{
				"type": "occ",
				"energy": -0.22499,
				"method": "rhf"
			},
			{
				"type": "occ",
				"energy": -0.2197,
				"method": "rhf"
			},
			{
				"type": "unocc",
				"energy": -0.02657,
				"method": "rhf"
			},
			{
				"type": "unocc",
				"energy": -0.00846,
				"method": "rhf"
			},
			{
				"type": "unocc",
				"energy": 0.00401,
				"method": "rhf"
			},
			{
				"type": "unocc",
				"energy": 0.04683,
				"method": "rhf"
			},
			{
				"type": "unocc",
				"energy": 0.04871,
				"method": "rhf"
			}
		],
		"cosmo_sigma_profile": { 
			"-0.025": 0.0,
			"-0.024": 0.0,
			"-0.023": 0.0,
			"-0.022": 0.0,
			"-0.021": 0.0,
			"-0.02": 0.0,
			"-0.019": 0.0,
			"-0.018": 0.0,
			"-0.017": 0.0,
			"-0.016": 0.0,
			"-0.015": 0.0,
			"-0.014": 0.0,
			"-0.013": 0.0,
			"-0.012": 0.0,
			"-0.011": 0.0,
			"-0.01": 0.0,
			"-0.009": 2.18424664928,
			"-0.008": 5.76927994181,
			"-0.007": 12.7754120036,
			"-0.006": 15.599384597,
			"-0.005": 14.956323334,
			"-0.004": 18.0238111327,
			"-0.003": 17.1573209974,
			"-0.002": 16.0407372406,
			"-0.001": 16.5075463036,
			"0.0": 14.9907375995,
			"0.001": 16.594043704,
			"0.002": 21.7872509894,
			"0.003": 22.8878316751,
			"0.004": 21.5303433865,
			"0.005": 18.9383728955,
			"0.006": 10.221799984,
			"0.007": 8.06112570824,
			"0.008": 6.78380196437,
			"0.009": 1.31333028552,
			"0.01": 0.0,
			"0.011": 0.0,
			"0.012": 0.0,
			"0.013": 0.0,
			"0.014": 0.0,
			"0.015": 0.0,
			"0.016": 0.0,
			"0.017": 0.0,
			"0.018": 0.0,
			"0.019": 0.0,
			"0.02": 0.0,
			"0.021": 0.0,
			"0.022": 0.0,
			"0.023": 0.0,
			"0.024": 0.0,
			"0.025": 0.0
		}
	}
}
