{
	 "smiles": "CC(=N/NC1=CC=C(C=C1)[N+]([O-])=O)C1=NC2=C3C=CC=CC3=CC=C2N=C1C", 
	 "Tm": 544.15, 
	 "num_atms": 45, 
	 "gaussian": { 
		 "optdone": 1, 
		 "sigma_profile": "yes", 
		 "theory": "DFT", 
		 "functional": "B3LYP", 
		 "basiset": "6-31G**", 
		 "properties": { 
			 "R2extent": 18797.3422, 
			 "electric_dipole_moment_norm": 7.8407877117, 
			 "electric_quadrupole_moment_norm": 38.8549404335, 
			 "total_energy": -1234.59368503, 
			 "HOMO_LUMO_gap": 0.12622, 
			 "cosmo_polarized_energy": -18.83, 
			 "cosmo_cavitation_energy": 49.93, 
			 "cosmo_dispersion_energy": -35.82, 
			 "cosmo_repulsion_energy": 2.6, 
			 "cosmo_total_nonelectrostatic_energy": 16.7, 
			 "SMD_solvation_energy": 7.93 
		},
		"coords": [
			{
				"x": -2.2381844086,
				"y": 0.3097109993,
				"z": -0.503474202,
				"element": "C" 
			},
			{
				"x": -0.8288506767,
				"y": 0.1772781864,
				"z": 0.024631629,
				"element": "C" 
			},
			{
				"x": -0.4828538327,
				"y": -0.7494940709,
				"z": 0.8662240253,
				"element": "N" 
			},
			{
				"x": -1.4239281167,
				"y": -1.6208191179,
				"z": 1.2779347455,
				"element": "N" 
			},
			{
				"x": -1.1353372357,
				"y": -2.6361149965,
				"z": 2.17334319,
				"element": "C" 
			},
			{
				"x": 0.1572066596,
				"y": -2.8170108726,
				"z": 2.7034714556,
				"element": "C" 
			},
			{
				"x": 0.3970415079,
				"y": -3.8490912894,
				"z": 3.597690729,
				"element": "C" 
			},
			{
				"x": -0.6447997715,
				"y": -4.7029808459,
				"z": 3.9671752459,
				"element": "C" 
			},
			{
				"x": -1.9321585201,
				"y": -4.537872844,
				"z": 3.4511319247,
				"element": "C" 
			},
			{
				"x": -2.1750610671,
				"y": -3.5078032572,
				"z": 2.5575911157,
				"element": "C" 
			},
			{
				"x": -0.3860110416,
				"y": -5.7865295611,
				"z": 4.9081703279,
				"element": "N" 
			},
			{
				"x": 0.7605649187,
				"y": -5.9069040023,
				"z": 5.3465850681,
				"element": "O" 
			},
			{
				"x": -1.3292458231,
				"y": -6.5215814412,
				"z": 5.2123597058,
				"element": "O" 
			},
			{
				"x": 0.2018319873,
				"y": 1.1413789362,
				"z": -0.4333466801,
				"element": "C" 
			},
			{
				"x": -0.2336138347,
				"y": 2.0612861531,
				"z": -1.2949272216,
				"element": "N" 
			},
			{
				"x": 0.618368567,
				"y": 2.9858831161,
				"z": -1.7742588268,
				"element": "C" 
			},
			{
				"x": 0.1528769176,
				"y": 3.9904720052,
				"z": -2.712141193,
				"element": "C" 
			},
			{
				"x": -1.1849210177,
				"y": 4.0438365075,
				"z": -3.1563037174,
				"element": "C" 
			},
			{
				"x": -1.5910179496,
				"y": 5.0171574532,
				"z": -4.0514577096,
				"element": "C" 
			},
			{
				"x": -0.6710753408,
				"y": 5.9701533248,
				"z": -4.5321649388,
				"element": "C" 
			},
			{
				"x": 0.6447020671,
				"y": 5.9362772936,
				"z": -4.1100981578,
				"element": "C" 
			},
			{
				"x": 1.0870643566,
				"y": 4.9522089769,
				"z": -3.1955919436,
				"element": "C" 
			},
			{
				"x": 2.4528244535,
				"y": 4.906218803,
				"z": -2.7491053205,
				"element": "C" 
			},
			{
				"x": 2.8855757585,
				"y": 3.9603582391,
				"z": -1.8680967411,
				"element": "C" 
			},
			{
				"x": 1.9746004369,
				"y": 2.9791774734,
				"z": -1.3621564255,
				"element": "C" 
			},
			{
				"x": 2.4239570983,
				"y": 2.0479550277,
				"z": -0.4879271441,
				"element": "N" 
			},
			{
				"x": 1.5854297032,
				"y": 1.137127029,
				"z": -0.0156990164,
				"element": "C" 
			},
			{
				"x": 2.1938219165,
				"y": 0.1534129693,
				"z": 0.9475777342,
				"element": "C" 
			},
			{
				"x": -2.5453149614,
				"y": -0.5999702644,
				"z": -1.0366982064,
				"element": "H" 
			},
			{
				"x": -2.9508615421,
				"y": 0.4765945954,
				"z": 0.3153333722,
				"element": "H" 
			},
			{
				"x": -2.3030389812,
				"y": 1.1487624564,
				"z": -1.1909430843,
				"element": "H" 
			},
			{
				"x": -2.3753670679,
				"y": -1.5471296256,
				"z": 0.9350362955,
				"element": "H" 
			},
			{
				"x": 0.9514541606,
				"y": -2.145942808,
				"z": 2.4057765778,
				"element": "H" 
			},
			{
				"x": 1.3821583745,
				"y": -4.0079841638,
				"z": 4.018513205,
				"element": "H" 
			},
			{
				"x": -2.7174957871,
				"y": -5.2170808975,
				"z": 3.7580007123,
				"element": "H" 
			},
			{
				"x": -3.173421645,
				"y": -3.3709124603,
				"z": 2.1504012198,
				"element": "H" 
			},
			{
				"x": -1.8844860343,
				"y": 3.3061198794,
				"z": -2.7803618257,
				"element": "H" 
			},
			{
				"x": -2.6238253205,
				"y": 5.0480407767,
				"z": -4.386199821,
				"element": "H" 
			},
			{
				"x": -0.9975762052,
				"y": 6.7312479861,
				"z": -5.2348014048,
				"element": "H" 
			},
			{
				"x": 1.3586214189,
				"y": 6.6687580013,
				"z": -4.4775923535,
				"element": "H" 
			},
			{
				"x": 3.1430556993,
				"y": 5.6521597813,
				"z": -3.1343886002,
				"element": "H" 
			},
			{
				"x": 3.9139548792,
				"y": 3.9168564182,
				"z": -1.5249962082,
				"element": "H" 
			},
			{
				"x": 1.6963771843,
				"y": 0.1874214072,
				"z": 1.9212472082,
				"element": "H" 
			},
			{
				"x": 2.0952158108,
				"y": -0.874077951,
				"z": 0.5853865915,
				"element": "H" 
			},
			{
				"x": 3.2493423051,
				"y": 0.4043466738,
				"z": 1.0633486637,
				"element": "H" 
			}
		],
		 "valence_orbital": [ 
			{
				"type": "occ",
				"energy": -0.27652,
				"method": "rhf"
			},
			{
				"type": "occ",
				"energy": -0.25004,
				"method": "rhf"
			},
			{
				"type": "occ",
				"energy": -0.24546,
				"method": "rhf"
			},
			{
				"type": "occ",
				"energy": -0.23878,
				"method": "rhf"
			},
			{
				"type": "occ",
				"energy": -0.21305,
				"method": "rhf"
			},
			{
				"type": "unocc",
				"energy": -0.08683,
				"method": "rhf"
			},
			{
				"type": "unocc",
				"energy": -0.06836,
				"method": "rhf"
			},
			{
				"type": "unocc",
				"energy": -0.05271,
				"method": "rhf"
			},
			{
				"type": "unocc",
				"energy": -0.02839,
				"method": "rhf"
			},
			{
				"type": "unocc",
				"energy": -0.02316,
				"method": "rhf"
			}
		],
		"cosmo_sigma_profile": { 
			"-0.025": 0.0,
			"-0.024": 0.0,
			"-0.023": 0.0,
			"-0.022": 0.0,
			"-0.021": 0.0,
			"-0.02": 0.0,
			"-0.019": 0.0,
			"-0.018": 0.0,
			"-0.017": 0.0,
			"-0.016": 0.0,
			"-0.015": 0.481196186415,
			"-0.014": 1.67723475807,
			"-0.013": 1.31495517245,
			"-0.012": 1.30753716699,
			"-0.011": 2.23585088308,
			"-0.01": 1.52900855643,
			"-0.009": 2.40376588892,
			"-0.008": 2.82196098716,
			"-0.007": 7.90315544042,
			"-0.006": 18.6049560879,
			"-0.005": 22.1042128529,
			"-0.004": 25.8930444442,
			"-0.003": 26.7859970181,
			"-0.002": 28.2930183499,
			"-0.001": 35.2337163294,
			"0.0": 40.5197336262,
			"0.001": 37.2874290731,
			"0.002": 39.9945448076,
			"0.003": 32.4930814926,
			"0.004": 21.7979179494,
			"0.005": 10.3390993152,
			"0.006": 5.6739558483,
			"0.007": 5.85616102455,
			"0.008": 10.2779775699,
			"0.009": 7.2769546652,
			"0.01": 5.71243591926,
			"0.011": 3.18601530443,
			"0.012": 0.920253295581,
			"0.013": 0.831588792786,
			"0.014": 0.396005639394,
			"0.015": 0.0,
			"0.016": 0.0,
			"0.017": 0.0,
			"0.018": 0.0,
			"0.019": 0.0,
			"0.02": 0.0,
			"0.021": 0.0,
			"0.022": 0.0,
			"0.023": 0.0,
			"0.024": 0.0,
			"0.025": 0.0
		}
	}
}
