{
	 "smiles": "CCC(=O)OC=C", 
	 "Tm": 193.15, 
	 "num_atms": 15, 
	 "gaussian": { 
		 "optdone": 1, 
		 "sigma_profile": "yes", 
		 "theory": "DFT", 
		 "functional": "B3LYP", 
		 "basiset": "6-31G**", 
		 "properties": { 
			 "R2extent": 1007.4911, 
			 "electric_dipole_moment_norm": 1.77792605583, 
			 "electric_quadrupole_moment_norm": 6.34916232506, 
			 "total_energy": -345.789412105, 
			 "HOMO_LUMO_gap": 0.23795, 
			 "cosmo_polarized_energy": -5.49, 
			 "cosmo_cavitation_energy": 19.28, 
			 "cosmo_dispersion_energy": -13.79, 
			 "cosmo_repulsion_energy": 1.2, 
			 "cosmo_total_nonelectrostatic_energy": 6.68, 
			 "SMD_solvation_energy": 5.83 
		},
		"coords": [
			{
				"x": -0.4206140584,
				"y": -1.4190373208,
				"z": 2.4010034321,
				"element": "C" 
			},
			{
				"x": 0.4122503312,
				"y": -0.3221521591,
				"z": 1.7171295173,
				"element": "C" 
			},
			{
				"x": -0.2234957403,
				"y": 0.2014361841,
				"z": 0.4488071574,
				"element": "C" 
			},
			{
				"x": -0.5733778959,
				"y": 1.3398608653,
				"z": 0.2449939706,
				"element": "O" 
			},
			{
				"x": -0.3580682736,
				"y": -0.8091307409,
				"z": -0.4700820588,
				"element": "O" 
			},
			{
				"x": -0.934862278,
				"y": -0.5045475884,
				"z": -1.6913394566,
				"element": "C" 
			},
			{
				"x": -1.0805438543,
				"y": -1.449990337,
				"z": -2.612918922,
				"element": "C" 
			},
			{
				"x": -0.5515490925,
				"y": -2.2794795037,
				"z": 1.7405377237,
				"element": "H" 
			},
			{
				"x": -1.4113666843,
				"y": -1.0462154344,
				"z": 2.6784514287,
				"element": "H" 
			},
			{
				"x": 0.0788366289,
				"y": -1.7576301602,
				"z": 3.3131738917,
				"element": "H" 
			},
			{
				"x": 0.5539227942,
				"y": 0.5363190622,
				"z": 2.3772074553,
				"element": "H" 
			},
			{
				"x": 1.4012262964,
				"y": -0.7195616199,
				"z": 1.4590001643,
				"element": "H" 
			},
			{
				"x": -1.2334772026,
				"y": 0.5315177417,
				"z": -1.7990629198,
				"element": "H" 
			},
			{
				"x": -1.5324242871,
				"y": -1.2054473493,
				"z": -3.5664810701,
				"element": "H" 
			},
			{
				"x": -0.7577566836,
				"y": -2.4707416395,
				"z": -2.440020314,
				"element": "H" 
			}
		],
		 "valence_orbital": [ 
			{
				"type": "occ",
				"energy": -0.36245,
				"method": "rhf"
			},
			{
				"type": "occ",
				"energy": -0.35693,
				"method": "rhf"
			},
			{
				"type": "occ",
				"energy": -0.3468,
				"method": "rhf"
			},
			{
				"type": "occ",
				"energy": -0.2782,
				"method": "rhf"
			},
			{
				"type": "occ",
				"energy": -0.24903,
				"method": "rhf"
			},
			{
				"type": "unocc",
				"energy": -0.01108,
				"method": "rhf"
			},
			{
				"type": "unocc",
				"energy": 0.03815,
				"method": "rhf"
			},
			{
				"type": "unocc",
				"energy": 0.10065,
				"method": "rhf"
			},
			{
				"type": "unocc",
				"energy": 0.12886,
				"method": "rhf"
			},
			{
				"type": "unocc",
				"energy": 0.13476,
				"method": "rhf"
			}
		],
		"cosmo_sigma_profile": { 
			"-0.025": 0.0,
			"-0.024": 0.0,
			"-0.023": 0.0,
			"-0.022": 0.0,
			"-0.021": 0.0,
			"-0.02": 0.0,
			"-0.019": 0.0,
			"-0.018": 0.0,
			"-0.017": 0.0,
			"-0.016": 0.0,
			"-0.015": 0.0,
			"-0.014": 0.0,
			"-0.013": 0.0,
			"-0.012": 0.0,
			"-0.011": 0.0,
			"-0.01": 0.0,
			"-0.009": 0.0,
			"-0.008": 0.0313078866569,
			"-0.007": 1.6149898729,
			"-0.006": 6.60977319868,
			"-0.005": 10.1128596892,
			"-0.004": 14.6473509122,
			"-0.003": 17.0464075787,
			"-0.002": 18.8665914777,
			"-0.001": 14.7639907474,
			"0.0": 15.2224204775,
			"0.001": 8.53366163569,
			"0.002": 6.53418585307,
			"0.003": 6.88441931469,
			"0.004": 7.33837429321,
			"0.005": 7.02973112482,
			"0.006": 3.34633534369,
			"0.007": 1.80852722512,
			"0.008": 1.50388787398,
			"0.009": 1.36312711898,
			"0.01": 3.03569680414,
			"0.011": 4.07851223663,
			"0.012": 1.89939834626,
			"0.013": 0.191380528877,
			"0.014": 0.0,
			"0.015": 0.0,
			"0.016": 0.0,
			"0.017": 0.0,
			"0.018": 0.0,
			"0.019": 0.0,
			"0.02": 0.0,
			"0.021": 0.0,
			"0.022": 0.0,
			"0.023": 0.0,
			"0.024": 0.0,
			"0.025": 0.0
		}
	}
}
