{
	 "smiles": "[O-][N+](=O)C1=CC=C(C=C1)C1=NN=C(NC2=NCCN2)S1", 
	 "Tm": 513.15, 
	 "num_atms": 30, 
	 "gaussian": { 
		 "optdone": 1, 
		 "sigma_profile": "yes", 
		 "theory": "DFT", 
		 "functional": "B3LYP", 
		 "basiset": "6-31G**", 
		 "properties": { 
			 "R2extent": 10981.3291, 
			 "electric_dipole_moment_norm": 6.47358131331, 
			 "electric_quadrupole_moment_norm": 34.6581303955, 
			 "total_energy": -1302.20702886, 
			 "HOMO_LUMO_gap": 0.12759, 
			 "cosmo_polarized_energy": -20.42, 
			 "cosmo_cavitation_energy": 37.25, 
			 "cosmo_dispersion_energy": -28.29, 
			 "cosmo_repulsion_energy": 2.11, 
			 "cosmo_total_nonelectrostatic_energy": 11.07, 
			 "SMD_solvation_energy": 2.17 
		},
		"coords": [
			{
				"x": -6.126446663,
				"y": -0.1181415907,
				"z": -3.421447456,
				"element": "O" 
			},
			{
				"x": -5.9192883039,
				"y": -0.9321814342,
				"z": -2.5211236334,
				"element": "N" 
			},
			{
				"x": -6.7778806145,
				"y": -1.6570104845,
				"z": -2.0188732917,
				"element": "O" 
			},
			{
				"x": -4.5469921489,
				"y": -1.047102129,
				"z": -2.0092365167,
				"element": "C" 
			},
			{
				"x": -3.5524120588,
				"y": -0.2398834495,
				"z": -2.5567531468,
				"element": "C" 
			},
			{
				"x": -2.2554939078,
				"y": -0.3524086261,
				"z": -2.0696208401,
				"element": "C" 
			},
			{
				"x": -1.9496622546,
				"y": -1.2644052843,
				"z": -1.0439807356,
				"element": "C" 
			},
			{
				"x": -2.9780425507,
				"y": -2.0667248056,
				"z": -0.5098830347,
				"element": "C" 
			},
			{
				"x": -4.2756856504,
				"y": -1.9605132519,
				"z": -0.9893282629,
				"element": "C" 
			},
			{
				"x": -0.5920915202,
				"y": -1.4050390524,
				"z": -0.5126029172,
				"element": "C" 
			},
			{
				"x": -0.2745571313,
				"y": -2.2306269539,
				"z": 0.4462340632,
				"element": "N" 
			},
			{
				"x": 1.0379473541,
				"y": -2.226486171,
				"z": 0.7823881864,
				"element": "N" 
			},
			{
				"x": 1.7402344157,
				"y": -1.374030233,
				"z": 0.0702619965,
				"element": "C" 
			},
			{
				"x": 3.0823362695,
				"y": -1.2233635288,
				"z": 0.3009020549,
				"element": "N" 
			},
			{
				"x": 4.0099861361,
				"y": -0.4116476015,
				"z": -0.3383903161,
				"element": "C" 
			},
			{
				"x": 5.1024201746,
				"y": -0.0637614947,
				"z": 0.2298365134,
				"element": "N" 
			},
			{
				"x": 5.8210197451,
				"y": 0.7685312115,
				"z": -0.7432814235,
				"element": "C" 
			},
			{
				"x": 5.0073629879,
				"y": 0.6916343079,
				"z": -2.0721133341,
				"element": "C" 
			},
			{
				"x": 3.7436183337,
				"y": 0.0621452376,
				"z": -1.626883349,
				"element": "N" 
			},
			{
				"x": 0.7965849492,
				"y": -0.4714169852,
				"z": -1.1069289052,
				"element": "S" 
			},
			{
				"x": -3.8058235716,
				"y": 0.4566760233,
				"z": -3.3457732108,
				"element": "H" 
			},
			{
				"x": -1.4789365554,
				"y": 0.2775476474,
				"z": -2.4928012745,
				"element": "H" 
			},
			{
				"x": -2.7359516349,
				"y": -2.7670367976,
				"z": 0.2808502059,
				"element": "H" 
			},
			{
				"x": -5.0788995466,
				"y": -2.5682966942,
				"z": -0.5921245167,
				"element": "H" 
			},
			{
				"x": 3.4073074595,
				"y": -1.6316720666,
				"z": 1.1692185844,
				"element": "H" 
			},
			{
				"x": 5.8721020126,
				"y": 1.7981486813,
				"z": -0.3682787821,
				"element": "H" 
			},
			{
				"x": 6.8520928096,
				"y": 0.4198920518,
				"z": -0.8654693322,
				"element": "H" 
			},
			{
				"x": 5.5070458187,
				"y": 0.0673471143,
				"z": -2.8223435079,
				"element": "H" 
			},
			{
				"x": 4.8178185469,
				"y": 1.6731857828,
				"z": -2.514410363,
				"element": "H" 
			},
			{
				"x": 3.3433870994,
				"y": -0.6149594233,
				"z": -2.2668434542,
				"element": "H" 
			}
		],
		 "valence_orbital": [ 
			{
				"type": "occ",
				"energy": -0.28447,
				"method": "rhf"
			},
			{
				"type": "occ",
				"energy": -0.28407,
				"method": "rhf"
			},
			{
				"type": "occ",
				"energy": -0.27753,
				"method": "rhf"
			},
			{
				"type": "occ",
				"energy": -0.25266,
				"method": "rhf"
			},
			{
				"type": "occ",
				"energy": -0.2284,
				"method": "rhf"
			},
			{
				"type": "unocc",
				"energy": -0.10081,
				"method": "rhf"
			},
			{
				"type": "unocc",
				"energy": -0.05157,
				"method": "rhf"
			},
			{
				"type": "unocc",
				"energy": -0.03253,
				"method": "rhf"
			},
			{
				"type": "unocc",
				"energy": -0.01255,
				"method": "rhf"
			},
			{
				"type": "unocc",
				"energy": -0.00644,
				"method": "rhf"
			}
		],
		"cosmo_sigma_profile": { 
			"-0.025": 0.0,
			"-0.024": 0.0,
			"-0.023": 0.0,
			"-0.022": 0.0,
			"-0.021": 0.0,
			"-0.02": 0.0,
			"-0.019": 0.0,
			"-0.018": 0.0,
			"-0.017": 0.0,
			"-0.016": 0.384176292628,
			"-0.015": 0.79787863701,
			"-0.014": 1.86218959098,
			"-0.013": 2.01677284982,
			"-0.012": 1.66104534648,
			"-0.011": 3.05248859634,
			"-0.01": 1.6093138707,
			"-0.009": 2.52846143287,
			"-0.008": 6.26566177928,
			"-0.007": 9.72390177835,
			"-0.006": 11.7791870279,
			"-0.005": 14.8115474688,
			"-0.004": 23.442308729,
			"-0.003": 26.0132967103,
			"-0.002": 27.960527912,
			"-0.001": 23.478650511,
			"0.0": 27.6118340905,
			"0.001": 23.0290725982,
			"0.002": 11.7724818237,
			"0.003": 7.72136308934,
			"0.004": 6.94227727786,
			"0.005": 6.61033525592,
			"0.006": 8.09501816716,
			"0.007": 11.0822461828,
			"0.008": 11.9194629689,
			"0.009": 8.33488795022,
			"0.01": 5.7061847091,
			"0.011": 4.15827165667,
			"0.012": 3.40607701019,
			"0.013": 2.17330832766,
			"0.014": 2.12458304948,
			"0.015": 0.871576552716,
			"0.016": 0.915831431052,
			"0.017": 0.879348966679,
			"0.018": 0.100109912477,
			"0.019": 0.0,
			"0.02": 0.0,
			"0.021": 0.0,
			"0.022": 0.0,
			"0.023": 0.0,
			"0.024": 0.0,
			"0.025": 0.0
		}
	}
}
