{
	 "smiles": "NC(=O)NC(CC(O)=O)C(O)=O", 
	 "Tm": 447.15, 
	 "num_atms": 20, 
	 "gaussian": { 
		 "optdone": 1, 
		 "sigma_profile": "yes", 
		 "theory": "DFT", 
		 "functional": "B3LYP", 
		 "basiset": "6-31G**", 
		 "properties": { 
			 "R2extent": 2841.673, 
			 "electric_dipole_moment_norm": 7.2046142506, 
			 "electric_quadrupole_moment_norm": 20.2471595744, 
			 "total_energy": -681.032538562, 
			 "HOMO_LUMO_gap": 0.22509, 
			 "cosmo_polarized_energy": -25.63, 
			 "cosmo_cavitation_energy": 24.76, 
			 "cosmo_dispersion_energy": -18.12, 
			 "cosmo_repulsion_energy": 1.48, 
			 "cosmo_total_nonelectrostatic_energy": 8.11, 
			 "SMD_solvation_energy": 6.74 
		},
		"coords": [
			{
				"x": 1.7105215012,
				"y": -0.1567796298,
				"z": -1.8612828133,
				"element": "N" 
			},
			{
				"x": 0.7516126554,
				"y": 0.0368586301,
				"z": -0.8979148259,
				"element": "C" 
			},
			{
				"x": 0.5336169108,
				"y": -0.8172757506,
				"z": -0.026481622,
				"element": "O" 
			},
			{
				"x": 0.054524523,
				"y": 1.2081052643,
				"z": -0.9742208395,
				"element": "N" 
			},
			{
				"x": -1.115007807,
				"y": 1.4217320731,
				"z": -0.1381275144,
				"element": "C" 
			},
			{
				"x": -0.773806226,
				"y": 1.723842001,
				"z": 1.3566291215,
				"element": "C" 
			},
			{
				"x": -1.350711619,
				"y": 0.7108383197,
				"z": 2.3544051249,
				"element": "C" 
			},
			{
				"x": -1.1130904886,
				"y": -0.5791392239,
				"z": 2.0848448275,
				"element": "O" 
			},
			{
				"x": -1.9748054946,
				"y": 1.0589371884,
				"z": 3.3304173487,
				"element": "O" 
			},
			{
				"x": -1.9058212391,
				"y": 2.5538377691,
				"z": -0.7818123959,
				"element": "C" 
			},
			{
				"x": -3.0278039541,
				"y": 2.8246274758,
				"z": -0.1005820213,
				"element": "O" 
			},
			{
				"x": -1.5736787709,
				"y": 3.1333225198,
				"z": -1.7957872136,
				"element": "O" 
			},
			{
				"x": 2.3405656251,
				"y": -0.9226116876,
				"z": -1.6763353874,
				"element": "H" 
			},
			{
				"x": 2.0972243125,
				"y": 0.6328979499,
				"z": -2.3558061943,
				"element": "H" 
			},
			{
				"x": 0.0894450463,
				"y": 1.7864493641,
				"z": -1.8058489668,
				"element": "H" 
			},
			{
				"x": -1.7625931483,
				"y": 0.5349590157,
				"z": -0.174629779,
				"element": "H" 
			},
			{
				"x": 0.3165398551,
				"y": 1.7291010148,
				"z": 1.4540926771,
				"element": "H" 
			},
			{
				"x": -1.1428073389,
				"y": 2.7031861417,
				"z": 1.6613427848,
				"element": "H" 
			},
			{
				"x": -0.5107168606,
				"y": -0.6902192673,
				"z": 1.3050689602,
				"element": "H" 
			},
			{
				"x": -3.4818074824,
				"y": 3.5475308317,
				"z": -0.5656712713,
				"element": "H" 
			}
		],
		 "valence_orbital": [ 
			{
				"type": "occ",
				"energy": -0.30138,
				"method": "rhf"
			},
			{
				"type": "occ",
				"energy": -0.29319,
				"method": "rhf"
			},
			{
				"type": "occ",
				"energy": -0.28947,
				"method": "rhf"
			},
			{
				"type": "occ",
				"energy": -0.28101,
				"method": "rhf"
			},
			{
				"type": "occ",
				"energy": -0.24819,
				"method": "rhf"
			},
			{
				"type": "unocc",
				"energy": -0.0231,
				"method": "rhf"
			},
			{
				"type": "unocc",
				"energy": 0.02628,
				"method": "rhf"
			},
			{
				"type": "unocc",
				"energy": 0.02705,
				"method": "rhf"
			},
			{
				"type": "unocc",
				"energy": 0.05002,
				"method": "rhf"
			},
			{
				"type": "unocc",
				"energy": 0.05442,
				"method": "rhf"
			}
		],
		"cosmo_sigma_profile": { 
			"-0.025": 0.0,
			"-0.024": 0.0,
			"-0.023": 0.0,
			"-0.022": 0.0,
			"-0.021": 0.0,
			"-0.02": 0.12698375109,
			"-0.019": 0.966652017357,
			"-0.018": 1.04527712554,
			"-0.017": 1.03437622067,
			"-0.016": 1.41103033308,
			"-0.015": 2.50799495292,
			"-0.014": 3.90712723029,
			"-0.013": 3.00139323971,
			"-0.012": 3.57396733785,
			"-0.011": 3.41415561579,
			"-0.01": 3.01330618297,
			"-0.009": 4.16403345387,
			"-0.008": 5.67290194929,
			"-0.007": 8.96929758611,
			"-0.006": 8.20973615204,
			"-0.005": 9.18764968115,
			"-0.004": 10.412284241,
			"-0.003": 8.62377622467,
			"-0.002": 9.26680369483,
			"-0.001": 8.185447532,
			"0.0": 7.74566645127,
			"0.001": 8.00616661887,
			"0.002": 6.84047760222,
			"0.003": 6.75004791119,
			"0.004": 6.03196678405,
			"0.005": 5.98108446038,
			"0.006": 6.65092397969,
			"0.007": 6.50527262121,
			"0.008": 6.65313569497,
			"0.009": 5.75977365069,
			"0.01": 8.56219030383,
			"0.011": 8.0762931336,
			"0.012": 8.44310598364,
			"0.013": 5.3606424087,
			"0.014": 1.18254550946,
			"0.015": 0.0,
			"0.016": 0.0,
			"0.017": 0.0,
			"0.018": 0.0,
			"0.019": 0.0,
			"0.02": 0.0,
			"0.021": 0.0,
			"0.022": 0.0,
			"0.023": 0.0,
			"0.024": 0.0,
			"0.025": 0.0
		}
	}
}
