{
	 "smiles": "ClC1=C(Cl)C=C(CC#N)C=C1", 
	 "Tm": 313.15, 
	 "num_atms": 16, 
	 "gaussian": { 
		 "optdone": 1, 
		 "sigma_profile": "yes", 
		 "theory": "DFT", 
		 "functional": "B3LYP", 
		 "basiset": "6-31G**", 
		 "properties": { 
			 "R2extent": 3935.9053, 
			 "electric_dipole_moment_norm": 1.89043217546, 
			 "electric_quadrupole_moment_norm": 17.3997753896, 
			 "total_energy": -1282.9796898, 
			 "HOMO_LUMO_gap": 0.21896, 
			 "cosmo_polarized_energy": -10.77, 
			 "cosmo_cavitation_energy": 24.98, 
			 "cosmo_dispersion_energy": -18.09, 
			 "cosmo_repulsion_energy": 1.45, 
			 "cosmo_total_nonelectrostatic_energy": 8.34, 
			 "SMD_solvation_energy": 5.01 
		},
		"coords": [
			{
				"x": 1.1435714343,
				"y": -1.9949160666,
				"z": -4.1581788442,
				"element": "Cl" 
			},
			{
				"x": 0.4855694388,
				"y": -1.6274232687,
				"z": -2.5847815455,
				"element": "C" 
			},
			{
				"x": -0.0903203995,
				"y": -0.3799507618,
				"z": -2.3026217144,
				"element": "C" 
			},
			{
				"x": -0.1817678718,
				"y": 0.8771596352,
				"z": -3.5104273352,
				"element": "Cl" 
			},
			{
				"x": -0.605423136,
				"y": -0.1250686423,
				"z": -1.0321715519,
				"element": "C" 
			},
			{
				"x": -0.556182181,
				"y": -1.0989130226,
				"z": -0.0306176483,
				"element": "C" 
			},
			{
				"x": -1.1379258182,
				"y": -0.7529393575,
				"z": 1.3364989312,
				"element": "C" 
			},
			{
				"x": -1.0477777737,
				"y": -1.8294577289,
				"z": 2.3247595738,
				"element": "C" 
			},
			{
				"x": -0.9733695073,
				"y": -2.6863905613,
				"z": 3.1034474207,
				"element": "N" 
			},
			{
				"x": 0.0182262524,
				"y": -2.3390407185,
				"z": -0.3169491694,
				"element": "C" 
			},
			{
				"x": 0.5345284191,
				"y": -2.5990849294,
				"z": -1.585132069,
				"element": "C" 
			},
			{
				"x": -1.0465133744,
				"y": 0.8472948184,
				"z": -0.8362382621,
				"element": "H" 
			},
			{
				"x": -2.1948448005,
				"y": -0.475573631,
				"z": 1.2350689097,
				"element": "H" 
			},
			{
				"x": -0.6286211485,
				"y": 0.1272914101,
				"z": 1.7489786779,
				"element": "H" 
			},
			{
				"x": 0.0657529939,
				"y": -3.1079681462,
				"z": 0.4471793929,
				"element": "H" 
			},
			{
				"x": 0.9806974724,
				"y": -3.5617190289,
				"z": -1.8085147663,
				"element": "H" 
			}
		],
		 "valence_orbital": [ 
			{
				"type": "occ",
				"energy": -0.33562,
				"method": "rhf"
			},
			{
				"type": "occ",
				"energy": -0.3349,
				"method": "rhf"
			},
			{
				"type": "occ",
				"energy": -0.31789,
				"method": "rhf"
			},
			{
				"type": "occ",
				"energy": -0.27344,
				"method": "rhf"
			},
			{
				"type": "occ",
				"energy": -0.25972,
				"method": "rhf"
			},
			{
				"type": "unocc",
				"energy": -0.04076,
				"method": "rhf"
			},
			{
				"type": "unocc",
				"energy": -0.0343,
				"method": "rhf"
			},
			{
				"type": "unocc",
				"energy": -0.00869,
				"method": "rhf"
			},
			{
				"type": "unocc",
				"energy": 0.02234,
				"method": "rhf"
			},
			{
				"type": "unocc",
				"energy": 0.02878,
				"method": "rhf"
			}
		],
		"cosmo_sigma_profile": { 
			"-0.025": 0.0,
			"-0.024": 0.0,
			"-0.023": 0.0,
			"-0.022": 0.0,
			"-0.021": 0.0,
			"-0.02": 0.0,
			"-0.019": 0.0,
			"-0.018": 0.0,
			"-0.017": 0.0,
			"-0.016": 0.0,
			"-0.015": 0.0,
			"-0.014": 0.0,
			"-0.013": 0.0,
			"-0.012": 0.0,
			"-0.011": 0.0,
			"-0.01": 1.63107305325,
			"-0.009": 8.15730420421,
			"-0.008": 10.035189118,
			"-0.007": 8.44853202444,
			"-0.006": 8.86095902785,
			"-0.005": 6.8650971814,
			"-0.004": 7.34178258579,
			"-0.003": 9.87421167717,
			"-0.002": 10.617053378,
			"-0.001": 12.3490691571,
			"0.0": 18.875663953,
			"0.001": 22.6921286762,
			"0.002": 18.4154168094,
			"0.003": 16.7156015275,
			"0.004": 17.7479379677,
			"0.005": 7.03636391389,
			"0.006": 2.53542011942,
			"0.007": 2.58639938509,
			"0.008": 2.9341194629,
			"0.009": 3.13886732008,
			"0.01": 2.95547276131,
			"0.011": 2.83509577114,
			"0.012": 2.20469692103,
			"0.013": 1.37155616017,
			"0.014": 0.0257805060818,
			"0.015": 0.0,
			"0.016": 0.0,
			"0.017": 0.0,
			"0.018": 0.0,
			"0.019": 0.0,
			"0.02": 0.0,
			"0.021": 0.0,
			"0.022": 0.0,
			"0.023": 0.0,
			"0.024": 0.0,
			"0.025": 0.0
		}
	}
}
