{
	 "smiles": "CC(C)P(C1=CC=CC=C1)C1=CC=CC=C1", 
	 "Tm": 313.15, 
	 "num_atms": 33, 
	 "gaussian": { 
		 "optdone": 1, 
		 "sigma_profile": "yes", 
		 "theory": "DFT", 
		 "functional": "B3LYP", 
		 "basiset": "6-31G**", 
		 "properties": { 
			 "R2extent": 4211.494, 
			 "electric_dipole_moment_norm": 1.35794644224, 
			 "electric_quadrupole_moment_norm": 8.14946365474, 
			 "total_energy": -923.198534268, 
			 "HOMO_LUMO_gap": 0.18905, 
			 "cosmo_polarized_energy": -6.5, 
			 "cosmo_cavitation_energy": 35.73, 
			 "cosmo_dispersion_energy": -25.35, 
			 "cosmo_repulsion_energy": 2.08, 
			 "cosmo_total_nonelectrostatic_energy": 12.46, 
			 "SMD_solvation_energy": 6.07 
		},
		"coords": [
			{
				"x": -1.8683316801,
				"y": -1.5178353275,
				"z": -2.380475235,
				"element": "C" 
			},
			{
				"x": -0.4069142047,
				"y": -1.186818766,
				"z": -2.0341399684,
				"element": "C" 
			},
			{
				"x": 0.0604739237,
				"y": 0.0878053737,
				"z": -2.7468235604,
				"element": "C" 
			},
			{
				"x": -0.206102072,
				"y": -1.2392264185,
				"z": -0.1455902189,
				"element": "P" 
			},
			{
				"x": 1.5872895758,
				"y": -0.8620610719,
				"z": 0.1111987599,
				"element": "C" 
			},
			{
				"x": 2.0125710412,
				"y": -0.2510630337,
				"z": 1.3052652247,
				"element": "C" 
			},
			{
				"x": 3.3683993373,
				"y": -0.0863032111,
				"z": 1.5870989696,
				"element": "C" 
			},
			{
				"x": 4.3359674949,
				"y": -0.5376276847,
				"z": 0.6871680566,
				"element": "C" 
			},
			{
				"x": 3.9320527357,
				"y": -1.1605249561,
				"z": -0.4938095142,
				"element": "C" 
			},
			{
				"x": 2.5745661638,
				"y": -1.3241520707,
				"z": -0.7765219965,
				"element": "C" 
			},
			{
				"x": -1.0489727904,
				"y": 0.3236806646,
				"z": 0.3900243677,
				"element": "C" 
			},
			{
				"x": -2.3345999827,
				"y": 0.1903771912,
				"z": 0.9408251652,
				"element": "C" 
			},
			{
				"x": -3.0672287871,
				"y": 1.3104241201,
				"z": 1.3401540866,
				"element": "C" 
			},
			{
				"x": -2.5181857557,
				"y": 2.5860449769,
				"z": 1.2081797268,
				"element": "C" 
			},
			{
				"x": -1.2357030921,
				"y": 2.7354715833,
				"z": 0.6743148072,
				"element": "C" 
			},
			{
				"x": -0.5091573747,
				"y": 1.6162852687,
				"z": 0.2665526327,
				"element": "C" 
			},
			{
				"x": -2.1878012363,
				"y": -2.4636896591,
				"z": -1.9319538021,
				"element": "H" 
			},
			{
				"x": -1.9924043951,
				"y": -1.5981137944,
				"z": -3.4665380073,
				"element": "H" 
			},
			{
				"x": -2.5454519067,
				"y": -0.7318042715,
				"z": -2.0287388562,
				"element": "H" 
			},
			{
				"x": 0.209476575,
				"y": -2.0299205855,
				"z": -2.3750151008,
				"element": "H" 
			},
			{
				"x": -0.5524498734,
				"y": 0.9465740123,
				"z": -2.4562924799,
				"element": "H" 
			},
			{
				"x": 1.1042141414,
				"y": 0.3256015785,
				"z": -2.5232928852,
				"element": "H" 
			},
			{
				"x": -0.0311249529,
				"y": -0.031281158,
				"z": -3.8336737544,
				"element": "H" 
			},
			{
				"x": 1.2761130617,
				"y": 0.1043789424,
				"z": 2.0199913529,
				"element": "H" 
			},
			{
				"x": 3.6685373078,
				"y": 0.395145895,
				"z": 2.5139075007,
				"element": "H" 
			},
			{
				"x": 5.391975824,
				"y": -0.4094342117,
				"z": 0.9065370364,
				"element": "H" 
			},
			{
				"x": 4.6737474374,
				"y": -1.521192804,
				"z": -1.2013765421,
				"element": "H" 
			},
			{
				"x": 2.2914167129,
				"y": -1.8203390698,
				"z": -1.6997970043,
				"element": "H" 
			},
			{
				"x": -2.7594510122,
				"y": -0.8024217558,
				"z": 1.0642431793,
				"element": "H" 
			},
			{
				"x": -4.0601649159,
				"y": 1.184301941,
				"z": 1.7627433665,
				"element": "H" 
			},
			{
				"x": -3.0820148927,
				"y": 3.4589656147,
				"z": 1.5250195097,
				"element": "H" 
			},
			{
				"x": -0.8006834002,
				"y": 3.7261420243,
				"z": 0.5732248347,
				"element": "H" 
			},
			{
				"x": 0.4893409922,
				"y": 1.7467106633,
				"z": -0.1380096514,
				"element": "H" 
			}
		],
		 "valence_orbital": [ 
			{
				"type": "occ",
				"energy": -0.26632,
				"method": "rhf"
			},
			{
				"type": "occ",
				"energy": -0.25389,
				"method": "rhf"
			},
			{
				"type": "occ",
				"energy": -0.25193,
				"method": "rhf"
			},
			{
				"type": "occ",
				"energy": -0.2469,
				"method": "rhf"
			},
			{
				"type": "occ",
				"energy": -0.20687,
				"method": "rhf"
			},
			{
				"type": "unocc",
				"energy": -0.01782,
				"method": "rhf"
			},
			{
				"type": "unocc",
				"energy": -0.00768,
				"method": "rhf"
			},
			{
				"type": "unocc",
				"energy": -0.00687,
				"method": "rhf"
			},
			{
				"type": "unocc",
				"energy": 0.00353,
				"method": "rhf"
			},
			{
				"type": "unocc",
				"energy": 0.06103,
				"method": "rhf"
			}
		],
		"cosmo_sigma_profile": { 
			"-0.025": 0.0,
			"-0.024": 0.0,
			"-0.023": 0.0,
			"-0.022": 0.0,
			"-0.021": 0.0,
			"-0.02": 0.0,
			"-0.019": 0.0,
			"-0.018": 0.0,
			"-0.017": 0.0,
			"-0.016": 0.0,
			"-0.015": 0.0,
			"-0.014": 0.0,
			"-0.013": 0.0,
			"-0.012": 0.0,
			"-0.011": 0.0,
			"-0.01": 0.0,
			"-0.009": 0.0,
			"-0.008": 0.0,
			"-0.007": 0.00394386630659,
			"-0.006": 8.01155516283,
			"-0.005": 19.2162790937,
			"-0.004": 22.7140605447,
			"-0.003": 26.9436422758,
			"-0.002": 27.6701846891,
			"-0.001": 30.9892287056,
			"0.0": 32.0222085523,
			"0.001": 30.829354988,
			"0.002": 18.427609817,
			"0.003": 15.8753877037,
			"0.004": 16.1850383954,
			"0.005": 17.1534333428,
			"0.006": 11.6364880231,
			"0.007": 1.06269187729,
			"0.008": 0.526672928413,
			"0.009": 1.26197611636,
			"0.01": 0.651222403819,
			"0.011": 0.666841388872,
			"0.012": 0.406918443644,
			"0.013": 1.00336975296,
			"0.014": 0.486194160853,
			"0.015": 0.217835322475,
			"0.016": 0.0,
			"0.017": 0.0,
			"0.018": 0.0,
			"0.019": 0.0,
			"0.02": 0.0,
			"0.021": 0.0,
			"0.022": 0.0,
			"0.023": 0.0,
			"0.024": 0.0,
			"0.025": 0.0
		}
	}
}
