{
	 "smiles": "CSC(NC1=CC=CC=C1)=C(C#N)C#N", 
	 "Tm": 353.15, 
	 "num_atms": 24, 
	 "gaussian": { 
		 "optdone": 1, 
		 "sigma_profile": "yes", 
		 "theory": "DFT", 
		 "functional": "B3LYP", 
		 "basiset": "6-31G**", 
		 "properties": { 
			 "R2extent": 4110.6862, 
			 "electric_dipole_moment_norm": 6.29361281777, 
			 "electric_quadrupole_moment_norm": 19.0014294431, 
			 "total_energy": -986.980636068, 
			 "HOMO_LUMO_gap": 0.15657, 
			 "cosmo_polarized_energy": -19.06, 
			 "cosmo_cavitation_energy": 31.75, 
			 "cosmo_dispersion_energy": -21.7, 
			 "cosmo_repulsion_energy": 1.67, 
			 "cosmo_total_nonelectrostatic_energy": 11.72, 
			 "SMD_solvation_energy": 7.81 
		},
		"coords": [
			{
				"x": -0.5290848704,
				"y": -2.1311949661,
				"z": 3.8444039063,
				"element": "C" 
			},
			{
				"x": -1.5479540676,
				"y": -2.0261848284,
				"z": 2.3258115351,
				"element": "S" 
			},
			{
				"x": -0.4862889449,
				"y": -1.2914302622,
				"z": 1.1081424655,
				"element": "C" 
			},
			{
				"x": -0.6513115855,
				"y": -1.8812986664,
				"z": -0.1085876871,
				"element": "N" 
			},
			{
				"x": -0.5106816393,
				"y": -1.3395952042,
				"z": -1.4177475367,
				"element": "C" 
			},
			{
				"x": -0.7626927944,
				"y": 0.008190523,
				"z": -1.6987452947,
				"element": "C" 
			},
			{
				"x": -0.673990642,
				"y": 0.4615640114,
				"z": -3.0132667695,
				"element": "C" 
			},
			{
				"x": -0.3506361337,
				"y": -0.4155517383,
				"z": -4.0502025568,
				"element": "C" 
			},
			{
				"x": -0.11256502,
				"y": -1.7610233157,
				"z": -3.7652125231,
				"element": "C" 
			},
			{
				"x": -0.1873284073,
				"y": -2.2243537205,
				"z": -2.4534600956,
				"element": "C" 
			},
			{
				"x": 0.3822735297,
				"y": -0.2362087182,
				"z": 1.3670580848,
				"element": "C" 
			},
			{
				"x": 0.2647293156,
				"y": 0.5508567221,
				"z": 2.548166985,
				"element": "C" 
			},
			{
				"x": 0.1707958403,
				"y": 1.199999701,
				"z": 3.5118289319,
				"element": "N" 
			},
			{
				"x": 1.4428600398,
				"y": 0.1053473076,
				"z": 0.4769483382,
				"element": "C" 
			},
			{
				"x": 2.3291519011,
				"y": 0.385676722,
				"z": -0.2253656538,
				"element": "N" 
			},
			{
				"x": -0.4750522047,
				"y": -1.1720514418,
				"z": 4.3570713818,
				"element": "H" 
			},
			{
				"x": 0.4706328418,
				"y": -2.4942887283,
				"z": 3.6025514766,
				"element": "H" 
			},
			{
				"x": -1.0394938602,
				"y": -2.8652471094,
				"z": 4.4716161319,
				"element": "H" 
			},
			{
				"x": -1.0095741509,
				"y": -2.8271836068,
				"z": -0.0726437468,
				"element": "H" 
			},
			{
				"x": -1.0317699639,
				"y": 0.6922386706,
				"z": -0.9021895222,
				"element": "H" 
			},
			{
				"x": -0.8659444302,
				"y": 1.5087975535,
				"z": -3.2253948164,
				"element": "H" 
			},
			{
				"x": -0.284093212,
				"y": -0.0531133117,
				"z": -5.0711230688,
				"element": "H" 
			},
			{
				"x": 0.1404456551,
				"y": -2.4531792631,
				"z": -4.5625287728,
				"element": "H" 
			},
			{
				"x": 0.0132728035,
				"y": -3.26826633,
				"z": -2.2272311928,
				"element": "H" 
			}
		],
		 "valence_orbital": [ 
			{
				"type": "occ",
				"energy": -0.32717,
				"method": "rhf"
			},
			{
				"type": "occ",
				"energy": -0.29423,
				"method": "rhf"
			},
			{
				"type": "occ",
				"energy": -0.26827,
				"method": "rhf"
			},
			{
				"type": "occ",
				"energy": -0.26035,
				"method": "rhf"
			},
			{
				"type": "occ",
				"energy": -0.23029,
				"method": "rhf"
			},
			{
				"type": "unocc",
				"energy": -0.07372,
				"method": "rhf"
			},
			{
				"type": "unocc",
				"energy": -0.02118,
				"method": "rhf"
			},
			{
				"type": "unocc",
				"energy": -0.00795,
				"method": "rhf"
			},
			{
				"type": "unocc",
				"energy": -0.00166,
				"method": "rhf"
			},
			{
				"type": "unocc",
				"energy": 0.01607,
				"method": "rhf"
			}
		],
		"cosmo_sigma_profile": { 
			"-0.025": 0.0,
			"-0.024": 0.0,
			"-0.023": 0.0,
			"-0.022": 0.0,
			"-0.021": 0.0,
			"-0.02": 0.0,
			"-0.019": 0.0,
			"-0.018": 0.0,
			"-0.017": 0.0216685609112,
			"-0.016": 0.788060651718,
			"-0.015": 1.07320152928,
			"-0.014": 0.951293558608,
			"-0.013": 1.75728142556,
			"-0.012": 0.721156644204,
			"-0.011": 1.24344032396,
			"-0.01": 1.48312766915,
			"-0.009": 1.42870352945,
			"-0.008": 4.23540953687,
			"-0.007": 9.87104833139,
			"-0.006": 17.1595855952,
			"-0.005": 17.6162236863,
			"-0.004": 20.5694026818,
			"-0.003": 21.0219729,
			"-0.002": 18.8894008549,
			"-0.001": 15.6142048499,
			"0.0": 11.9567112126,
			"0.001": 12.5569738114,
			"0.002": 15.4001377682,
			"0.003": 13.6894476197,
			"0.004": 14.9967314554,
			"0.005": 11.1428606014,
			"0.006": 6.81065058862,
			"0.007": 6.06176542936,
			"0.008": 5.51892453261,
			"0.009": 6.35029612044,
			"0.01": 5.54567827788,
			"0.011": 5.3671325991,
			"0.012": 5.01283539796,
			"0.013": 3.17848966467,
			"0.014": 0.163604487434,
			"0.015": 0.0,
			"0.016": 0.0,
			"0.017": 0.0,
			"0.018": 0.0,
			"0.019": 0.0,
			"0.02": 0.0,
			"0.021": 0.0,
			"0.022": 0.0,
			"0.023": 0.0,
			"0.024": 0.0,
			"0.025": 0.0
		}
	}
}
