{
	 "smiles": "CC(N1N=NC(=N1)C1=CC=CC=C1)C(O)=O", 
	 "Tm": 417.15, 
	 "num_atms": 26, 
	 "gaussian": { 
		 "optdone": 1, 
		 "sigma_profile": "yes", 
		 "theory": "DFT", 
		 "functional": "B3LYP", 
		 "basiset": "6-31G**", 
		 "properties": { 
			 "R2extent": 5255.6985, 
			 "electric_dipole_moment_norm": 4.43022515681, 
			 "electric_quadrupole_moment_norm": 21.0941075386, 
			 "total_energy": -756.514978188, 
			 "HOMO_LUMO_gap": 0.1933, 
			 "cosmo_polarized_energy": -13.55, 
			 "cosmo_cavitation_energy": 30.87, 
			 "cosmo_dispersion_energy": -22.77, 
			 "cosmo_repulsion_energy": 1.76, 
			 "cosmo_total_nonelectrostatic_energy": 9.86, 
			 "SMD_solvation_energy": 4.23 
		},
		"coords": [
			{
				"x": 1.8158188351,
				"y": -1.985448252,
				"z": 2.5169159184,
				"element": "C" 
			},
			{
				"x": 0.4456103374,
				"y": -2.6252304087,
				"z": 2.332591344,
				"element": "C" 
			},
			{
				"x": -0.3432632554,
				"y": -1.9100438055,
				"z": 1.3078322298,
				"element": "N" 
			},
			{
				"x": -1.5369891646,
				"y": -2.3460231228,
				"z": 0.9058313193,
				"element": "N" 
			},
			{
				"x": -1.9865385481,
				"y": -1.4788973154,
				"z": 0.038119586,
				"element": "N" 
			},
			{
				"x": -1.0373310356,
				"y": -0.5078540707,
				"z": -0.0534705642,
				"element": "C" 
			},
			{
				"x": 0.0086995351,
				"y": -0.7638922032,
				"z": 0.7439110761,
				"element": "N" 
			},
			{
				"x": -1.1484035531,
				"y": 0.6691426342,
				"z": -0.9201051752,
				"element": "C" 
			},
			{
				"x": -2.2913280232,
				"y": 0.8458130429,
				"z": -1.7144156106,
				"element": "C" 
			},
			{
				"x": -2.3997201659,
				"y": 1.9632973956,
				"z": -2.5392575446,
				"element": "C" 
			},
			{
				"x": -1.373659863,
				"y": 2.9102749172,
				"z": -2.5792798517,
				"element": "C" 
			},
			{
				"x": -0.2344521768,
				"y": 2.736182809,
				"z": -1.7892587279,
				"element": "C" 
			},
			{
				"x": -0.1189380159,
				"y": 1.6216210732,
				"z": -0.9620096853,
				"element": "C" 
			},
			{
				"x": 0.5603958316,
				"y": -4.1528604624,
				"z": 2.0390841641,
				"element": "C" 
			},
			{
				"x": -0.4874703266,
				"y": -4.7557217773,
				"z": 1.4725090949,
				"element": "O" 
			},
			{
				"x": 1.5392206853,
				"y": -4.7611940706,
				"z": 2.3966201139,
				"element": "O" 
			},
			{
				"x": 2.3552467858,
				"y": -2.5585866432,
				"z": 3.2707753429,
				"element": "H" 
			},
			{
				"x": 2.3885631437,
				"y": -2.0145953943,
				"z": 1.5878762306,
				"element": "H" 
			},
			{
				"x": 1.7188757256,
				"y": -0.9473608297,
				"z": 2.8376867993,
				"element": "H" 
			},
			{
				"x": -0.1291801213,
				"y": -2.5462671604,
				"z": 3.2649583972,
				"element": "H" 
			},
			{
				"x": -3.0829721097,
				"y": 0.1051152372,
				"z": -1.677278605,
				"element": "H" 
			},
			{
				"x": -3.2865196944,
				"y": 2.0948705493,
				"z": -3.1520462222,
				"element": "H" 
			},
			{
				"x": -1.4609035978,
				"y": 3.7802761245,
				"z": -3.2235356781,
				"element": "H" 
			},
			{
				"x": 0.565599026,
				"y": 3.4699378552,
				"z": -1.8179922565,
				"element": "H" 
			},
			{
				"x": 0.7636098906,
				"y": 1.4807198639,
				"z": -0.3467819736,
				"element": "H" 
			},
			{
				"x": -1.1812701449,
				"y": -4.1047759859,
				"z": 1.221820278,
				"element": "H" 
			}
		],
		 "valence_orbital": [ 
			{
				"type": "occ",
				"energy": -0.32023,
				"method": "rhf"
			},
			{
				"type": "occ",
				"energy": -0.31176,
				"method": "rhf"
			},
			{
				"type": "occ",
				"energy": -0.2822,
				"method": "rhf"
			},
			{
				"type": "occ",
				"energy": -0.26425,
				"method": "rhf"
			},
			{
				"type": "occ",
				"energy": -0.24962,
				"method": "rhf"
			},
			{
				"type": "unocc",
				"energy": -0.05632,
				"method": "rhf"
			},
			{
				"type": "unocc",
				"energy": -0.043,
				"method": "rhf"
			},
			{
				"type": "unocc",
				"energy": -0.01244,
				"method": "rhf"
			},
			{
				"type": "unocc",
				"energy": -0.00396,
				"method": "rhf"
			},
			{
				"type": "unocc",
				"energy": 0.05426,
				"method": "rhf"
			}
		],
		"cosmo_sigma_profile": { 
			"-0.025": 0.0,
			"-0.024": 0.0,
			"-0.023": 0.0,
			"-0.022": 0.0,
			"-0.021": 0.0,
			"-0.02": 0.0,
			"-0.019": 0.0,
			"-0.018": 0.0,
			"-0.017": 0.0,
			"-0.016": 0.0,
			"-0.015": 0.0,
			"-0.014": 0.0,
			"-0.013": 0.0,
			"-0.012": 0.219265771612,
			"-0.011": 2.67646462888,
			"-0.01": 3.96250606664,
			"-0.009": 4.89678622571,
			"-0.008": 4.25138426078,
			"-0.007": 5.28079219727,
			"-0.006": 15.0189208894,
			"-0.005": 19.5825805188,
			"-0.004": 17.8607199677,
			"-0.003": 15.0331890309,
			"-0.002": 16.0687949087,
			"-0.001": 15.9491220711,
			"0.0": 16.0870128065,
			"0.001": 16.353874652,
			"0.002": 14.3760941134,
			"0.003": 15.5827818695,
			"0.004": 17.5020266851,
			"0.005": 10.0472673206,
			"0.006": 5.28421864107,
			"0.007": 5.61718440925,
			"0.008": 4.77049920131,
			"0.009": 5.37740815489,
			"0.01": 5.97168565034,
			"0.011": 6.41488937377,
			"0.012": 2.96017357843,
			"0.013": 0.320209906285,
			"0.014": 0.0,
			"0.015": 0.0,
			"0.016": 0.0,
			"0.017": 0.0,
			"0.018": 0.0,
			"0.019": 0.0,
			"0.02": 0.0,
			"0.021": 0.0,
			"0.022": 0.0,
			"0.023": 0.0,
			"0.024": 0.0,
			"0.025": 0.0
		}
	}
}
