{
	 "smiles": "CC(C)NC(=O)N(C)C1=CC=C(O)C=C1", 
	 "Tm": 432.15, 
	 "num_atms": 31, 
	 "gaussian": { 
		 "optdone": 1, 
		 "sigma_profile": "yes", 
		 "theory": "DFT", 
		 "functional": "B3LYP", 
		 "basiset": "6-31G**", 
		 "properties": { 
			 "R2extent": 4361.4815, 
			 "electric_dipole_moment_norm": 4.4026339673, 
			 "electric_quadrupole_moment_norm": 10.3407555652, 
			 "total_energy": -688.792149778, 
			 "HOMO_LUMO_gap": 0.20225, 
			 "cosmo_polarized_energy": -15.75, 
			 "cosmo_cavitation_energy": 34.16, 
			 "cosmo_dispersion_energy": -23.36, 
			 "cosmo_repulsion_energy": 1.88, 
			 "cosmo_total_nonelectrostatic_energy": 12.68, 
			 "SMD_solvation_energy": 6.95 
		},
		"coords": [
			{
				"x": -2.2087306881,
				"y": 0.7727829324,
				"z": 2.5541625319,
				"element": "C" 
			},
			{
				"x": -2.5826493756,
				"y": 0.2813515182,
				"z": 1.1533467333,
				"element": "C" 
			},
			{
				"x": -2.8771565484,
				"y": -1.2257156754,
				"z": 1.1241345865,
				"element": "C" 
			},
			{
				"x": -1.5203962723,
				"y": 0.6516367642,
				"z": 0.2159556271,
				"element": "N" 
			},
			{
				"x": -1.7900967323,
				"y": 0.7583831922,
				"z": -1.1311252705,
				"element": "C" 
			},
			{
				"x": -2.9357382116,
				"y": 0.72931191,
				"z": -1.5783022262,
				"element": "O" 
			},
			{
				"x": -0.6749294646,
				"y": 0.9159231224,
				"z": -1.9549917109,
				"element": "N" 
			},
			{
				"x": -0.8900356715,
				"y": 1.0798795814,
				"z": -3.3898972135,
				"element": "C" 
			},
			{
				"x": 0.6534497015,
				"y": 1.0835397651,
				"z": -1.4553400042,
				"element": "C" 
			},
			{
				"x": 1.6028265042,
				"y": 0.0679716909,
				"z": -1.6205256201,
				"element": "C" 
			},
			{
				"x": 2.913204887,
				"y": 0.235810693,
				"z": -1.1739347318,
				"element": "C" 
			},
			{
				"x": 3.2879203935,
				"y": 1.4271121334,
				"z": -0.5425532226,
				"element": "C" 
			},
			{
				"x": 4.5510027312,
				"y": 1.6518774976,
				"z": -0.0773740837,
				"element": "O" 
			},
			{
				"x": 2.345426057,
				"y": 2.4478997462,
				"z": -0.3653689053,
				"element": "C" 
			},
			{
				"x": 1.0445531149,
				"y": 2.2767242827,
				"z": -0.8267979834,
				"element": "C" 
			},
			{
				"x": -2.0344843371,
				"y": 1.8527321205,
				"z": 2.5581940241,
				"element": "H" 
			},
			{
				"x": -3.0087268842,
				"y": 0.547998703,
				"z": 3.266086238,
				"element": "H" 
			},
			{
				"x": -1.2982708119,
				"y": 0.2787080652,
				"z": 2.9172335363,
				"element": "H" 
			},
			{
				"x": -3.4755486354,
				"y": 0.8103399113,
				"z": 0.8085682607,
				"element": "H" 
			},
			{
				"x": -3.1558616368,
				"y": -1.5322444138,
				"z": 0.1127692501,
				"element": "H" 
			},
			{
				"x": -1.9991879065,
				"y": -1.8036372028,
				"z": 1.437681026,
				"element": "H" 
			},
			{
				"x": -3.7037357402,
				"y": -1.4752143848,
				"z": 1.7986077023,
				"element": "H" 
			},
			{
				"x": -0.5696150756,
				"y": 0.4534378977,
				"z": 0.4943036248,
				"element": "H" 
			},
			{
				"x": -0.2905852663,
				"y": 0.3591524776,
				"z": -3.9573189015,
				"element": "H" 
			},
			{
				"x": -0.61605201,
				"y": 2.090441186,
				"z": -3.718202245,
				"element": "H" 
			},
			{
				"x": -1.9479559246,
				"y": 0.9117865223,
				"z": -3.5877888421,
				"element": "H" 
			},
			{
				"x": 1.3078502031,
				"y": -0.8596139363,
				"z": -2.1021366116,
				"element": "H" 
			},
			{
				"x": 3.6411697001,
				"y": -0.5612473338,
				"z": -1.3103084504,
				"element": "H" 
			},
			{
				"x": 5.1026725753,
				"y": 0.8816372882,
				"z": -0.265891374,
				"element": "H" 
			},
			{
				"x": 2.653199325,
				"y": 3.3655821798,
				"z": 0.1247143645,
				"element": "H" 
			},
			{
				"x": 0.3130820001,
				"y": 3.0685517654,
				"z": -0.6987001088,
				"element": "H" 
			}
		],
		 "valence_orbital": [ 
			{
				"type": "occ",
				"energy": -0.2654,
				"method": "rhf"
			},
			{
				"type": "occ",
				"energy": -0.25419,
				"method": "rhf"
			},
			{
				"type": "occ",
				"energy": -0.23775,
				"method": "rhf"
			},
			{
				"type": "occ",
				"energy": -0.23545,
				"method": "rhf"
			},
			{
				"type": "occ",
				"energy": -0.21732,
				"method": "rhf"
			},
			{
				"type": "unocc",
				"energy": -0.01507,
				"method": "rhf"
			},
			{
				"type": "unocc",
				"energy": -0.0032,
				"method": "rhf"
			},
			{
				"type": "unocc",
				"energy": 0.06105,
				"method": "rhf"
			},
			{
				"type": "unocc",
				"energy": 0.07252,
				"method": "rhf"
			},
			{
				"type": "unocc",
				"energy": 0.08786,
				"method": "rhf"
			}
		],
		"cosmo_sigma_profile": { 
			"-0.025": 0.0,
			"-0.024": 0.0,
			"-0.023": 0.0,
			"-0.022": 0.0,
			"-0.021": 0.0,
			"-0.02": 0.0,
			"-0.019": 0.0,
			"-0.018": 0.423470658256,
			"-0.017": 1.26500754371,
			"-0.016": 1.1160365788,
			"-0.015": 0.893747139191,
			"-0.014": 1.21507581686,
			"-0.013": 0.973224844648,
			"-0.012": 0.836393588645,
			"-0.011": 0.987897092685,
			"-0.01": 1.46315785849,
			"-0.009": 2.37226377244,
			"-0.008": 2.70489366948,
			"-0.007": 3.04276068709,
			"-0.006": 8.28585358003,
			"-0.005": 9.86727722091,
			"-0.004": 17.1124001678,
			"-0.003": 25.4328029889,
			"-0.002": 27.2108907252,
			"-0.001": 29.2535599581,
			"0.0": 24.7550678137,
			"0.001": 26.2890569093,
			"0.002": 15.1440342326,
			"0.003": 15.9632648373,
			"0.004": 12.5631842514,
			"0.005": 7.13126934987,
			"0.006": 5.07559617493,
			"0.007": 4.16294684375,
			"0.008": 2.49712314532,
			"0.009": 2.92700369605,
			"0.01": 3.76660247555,
			"0.011": 2.82825259939,
			"0.012": 1.77626995857,
			"0.013": 2.02401591927,
			"0.014": 2.95007003781,
			"0.015": 3.98026408324,
			"0.016": 0.0497678257455,
			"0.017": 0.0,
			"0.018": 0.0,
			"0.019": 0.0,
			"0.02": 0.0,
			"0.021": 0.0,
			"0.022": 0.0,
			"0.023": 0.0,
			"0.024": 0.0,
			"0.025": 0.0
		}
	}
}
