{
	 "smiles": "BrC1=NN=CS1", 
	 "Tm": 344.65, 
	 "num_atms": 7, 
	 "gaussian": { 
		 "optdone": 1, 
		 "sigma_profile": "yes", 
		 "theory": "DFT", 
		 "functional": "B3LYP", 
		 "basiset": "6-31G**", 
		 "properties": { 
			 "R2extent": 4421.5152, 
			 "electric_dipole_moment_norm": 3.0578457139, 
			 "electric_quadrupole_moment_norm": 8.52052192885, 
			 "total_energy": -3155.85523074, 
			 "HOMO_LUMO_gap": 0.22214, 
			 "cosmo_polarized_energy": -8.18, 
			 "cosmo_cavitation_energy": 15.73, 
			 "cosmo_dispersion_energy": -13.01, 
			 "cosmo_repulsion_energy": 1.06, 
			 "cosmo_total_nonelectrostatic_energy": 3.78, 
			 "SMD_solvation_energy": 0.04 
		},
		"coords": [
			{
				"x": 1.9992577451,
				"y": 2.8370953969,
				"z": 3.6008069092,
				"element": "Br" 
			},
			{
				"x": 1.1054839322,
				"y": 1.3682810877,
				"z": 2.843417406,
				"element": "C" 
			},
			{
				"x": -0.1830761287,
				"y": 1.2319777384,
				"z": 2.8655977309,
				"element": "N" 
			},
			{
				"x": -0.5906836331,
				"y": 0.0764424926,
				"z": 2.2478370637,
				"element": "N" 
			},
			{
				"x": 0.4008444058,
				"y": -0.622899008,
				"z": 1.7788715722,
				"element": "C" 
			},
			{
				"x": 1.976689186,
				"y": 0.0718527632,
				"z": 2.0510100902,
				"element": "S" 
			},
			{
				"x": 0.2675844926,
				"y": -1.5643504709,
				"z": 1.2604592277,
				"element": "H" 
			}
		],
		 "valence_orbital": [ 
			{
				"type": "occ",
				"energy": -0.3298,
				"method": "rhf"
			},
			{
				"type": "occ",
				"energy": -0.31728,
				"method": "rhf"
			},
			{
				"type": "occ",
				"energy": -0.31481,
				"method": "rhf"
			},
			{
				"type": "occ",
				"energy": -0.28405,
				"method": "rhf"
			},
			{
				"type": "occ",
				"energy": -0.28008,
				"method": "rhf"
			},
			{
				"type": "unocc",
				"energy": -0.05794,
				"method": "rhf"
			},
			{
				"type": "unocc",
				"energy": -0.03221,
				"method": "rhf"
			},
			{
				"type": "unocc",
				"energy": -0.00674,
				"method": "rhf"
			},
			{
				"type": "unocc",
				"energy": 0.00653,
				"method": "rhf"
			},
			{
				"type": "unocc",
				"energy": 0.08776,
				"method": "rhf"
			}
		],
		"cosmo_sigma_profile": { 
			"-0.025": 0.0,
			"-0.024": 0.0,
			"-0.023": 0.0,
			"-0.022": 0.0,
			"-0.021": 0.0,
			"-0.02": 0.0,
			"-0.019": 0.0,
			"-0.018": 0.0,
			"-0.017": 0.0,
			"-0.016": 0.0,
			"-0.015": 0.0,
			"-0.014": 0.0,
			"-0.013": 0.0,
			"-0.012": 1.28184556824,
			"-0.011": 3.11118475369,
			"-0.01": 1.67759454924,
			"-0.009": 2.09268911125,
			"-0.008": 1.99888095644,
			"-0.007": 2.89805621288,
			"-0.006": 3.19290768008,
			"-0.005": 4.34904684327,
			"-0.004": 10.1797129472,
			"-0.003": 13.0188755076,
			"-0.002": 12.9814235324,
			"-0.001": 12.103196382,
			"0.0": 10.809232503,
			"0.001": 10.1651879488,
			"0.002": 11.6513734562,
			"0.003": 4.99948645244,
			"0.004": 3.6974118915,
			"0.005": 2.48876497757,
			"0.006": 2.33250726918,
			"0.007": 1.81776960514,
			"0.008": 2.9204261179,
			"0.009": 2.79363859911,
			"0.01": 3.12197997131,
			"0.011": 2.82516376193,
			"0.012": 2.51500189806,
			"0.013": 2.0824563297,
			"0.014": 0.492146271719,
			"0.015": 0.0,
			"0.016": 0.0,
			"0.017": 0.0,
			"0.018": 0.0,
			"0.019": 0.0,
			"0.02": 0.0,
			"0.021": 0.0,
			"0.022": 0.0,
			"0.023": 0.0,
			"0.024": 0.0,
			"0.025": 0.0
		}
	}
}
