{
	 "smiles": "ClC1=CC=C(CC2=C(NN=C2N=CC2=CC=C(OCC3=CC=CC=C3)C=C2)N=CC2=CC=C(OCC3=CC=CC=C3)C=C2)C=C1", 
	 "Tm": 419.15, 
	 "num_atms": 76, 
	 "gaussian": { 
		 "optdone": 1, 
		 "sigma_profile": "yes", 
		 "theory": "DFT", 
		 "functional": "B3LYP", 
		 "basiset": "6-31G**", 
		 "properties": { 
			 "R2extent": 62466.8646, 
			 "electric_dipole_moment_norm": 4.30249776409, 
			 "electric_quadrupole_moment_norm": 58.6230993646, 
			 "total_energy": -2296.33656576, 
			 "HOMO_LUMO_gap": 0.13834, 
			 "cosmo_polarized_energy": -25.36, 
			 "cosmo_cavitation_energy": 85.34, 
			 "cosmo_dispersion_energy": -57.11, 
			 "cosmo_repulsion_energy": 4.27, 
			 "cosmo_total_nonelectrostatic_energy": 32.5, 
			 "SMD_solvation_energy": 11.61 
		},
		"coords": [
			{
				"x": -4.2221603386,
				"y": 0.6573591837,
				"z": -4.5395328529,
				"element": "Cl" 
			},
			{
				"x": -3.0187849693,
				"y": 0.9970396718,
				"z": -3.2964238286,
				"element": "C" 
			},
			{
				"x": -1.7284914206,
				"y": 0.4867575879,
				"z": -3.4331491015,
				"element": "C" 
			},
			{
				"x": -0.7819441811,
				"y": 0.7636841077,
				"z": -2.4470248831,
				"element": "C" 
			},
			{
				"x": -1.1067340381,
				"y": 1.5437831607,
				"z": -1.3296434942,
				"element": "C" 
			},
			{
				"x": -0.0687575731,
				"y": 1.8279590774,
				"z": -0.2523476478,
				"element": "C" 
			},
			{
				"x": 0.0713381067,
				"y": 0.7223430605,
				"z": 0.7527442716,
				"element": "C" 
			},
			{
				"x": -0.6266600223,
				"y": 0.5731344262,
				"z": 1.9462658082,
				"element": "C" 
			},
			{
				"x": -0.18808567,
				"y": -0.6125665406,
				"z": 2.4942517074,
				"element": "N" 
			},
			{
				"x": 0.7698336286,
				"y": -1.2141369806,
				"z": 1.7572385053,
				"element": "N" 
			},
			{
				"x": 0.9033237033,
				"y": -0.4274777776,
				"z": 0.6782917051,
				"element": "C" 
			},
			{
				"x": 1.7830016085,
				"y": -0.6814346906,
				"z": -0.370244735,
				"element": "N" 
			},
			{
				"x": 2.2667793184,
				"y": -1.8647575152,
				"z": -0.5169266868,
				"element": "C" 
			},
			{
				"x": 3.2355973831,
				"y": -2.1962779961,
				"z": -1.558968595,
				"element": "C" 
			},
			{
				"x": 3.742863116,
				"y": -1.2278161623,
				"z": -2.4410649645,
				"element": "C" 
			},
			{
				"x": 4.6588004176,
				"y": -1.5620646108,
				"z": -3.4323105246,
				"element": "C" 
			},
			{
				"x": 5.0949420494,
				"y": -2.8916239011,
				"z": -3.5533853985,
				"element": "C" 
			},
			{
				"x": 6.0006329824,
				"y": -3.3347565652,
				"z": -4.474492987,
				"element": "O" 
			},
			{
				"x": 6.6676187972,
				"y": -2.3931171079,
				"z": -5.3155276386,
				"element": "C" 
			},
			{
				"x": 5.8323385172,
				"y": -1.8980081291,
				"z": -6.4805529459,
				"element": "C" 
			},
			{
				"x": 6.05459682,
				"y": -0.6206436755,
				"z": -7.0078731969,
				"element": "C" 
			},
			{
				"x": 5.3348827322,
				"y": -0.1762490839,
				"z": -8.1183938605,
				"element": "C" 
			},
			{
				"x": 4.3778605111,
				"y": -1.0041046263,
				"z": -8.7072971502,
				"element": "C" 
			},
			{
				"x": 4.1477093836,
				"y": -2.2776631958,
				"z": -8.1820238094,
				"element": "C" 
			},
			{
				"x": 4.8734314914,
				"y": -2.7244937364,
				"z": -7.0776786891,
				"element": "C" 
			},
			{
				"x": 4.597273204,
				"y": -3.871509472,
				"z": -2.6811702865,
				"element": "C" 
			},
			{
				"x": 3.6809951008,
				"y": -3.5235298717,
				"z": -1.6996028965,
				"element": "C" 
			},
			{
				"x": -1.5588332663,
				"y": 1.4279287889,
				"z": 2.4894471246,
				"element": "N" 
			},
			{
				"x": -2.4222275068,
				"y": 1.017998446,
				"z": 3.3538836135,
				"element": "C" 
			},
			{
				"x": -3.3791696732,
				"y": 1.9084299132,
				"z": 3.999107425,
				"element": "C" 
			},
			{
				"x": -4.3254264901,
				"y": 1.3859353508,
				"z": 4.8923980166,
				"element": "C" 
			},
			{
				"x": -5.2601065908,
				"y": 2.2024389966,
				"z": 5.5267701474,
				"element": "C" 
			},
			{
				"x": -5.2570255333,
				"y": 3.5782307971,
				"z": 5.2630448045,
				"element": "C" 
			},
			{
				"x": -6.1239413081,
				"y": 4.4800270037,
				"z": 5.8050757257,
				"element": "O" 
			},
			{
				"x": -7.2055998815,
				"y": 4.018210953,
				"z": 6.6168376916,
				"element": "C" 
			},
			{
				"x": -6.8062445177,
				"y": 3.6470380637,
				"z": 8.031772666,
				"element": "C" 
			},
			{
				"x": -5.7677133707,
				"y": 4.3220569999,
				"z": 8.6838928999,
				"element": "C" 
			},
			{
				"x": -5.4438457027,
				"y": 4.0088815872,
				"z": 10.0040388628,
				"element": "C" 
			},
			{
				"x": -6.1591868234,
				"y": 3.024562306,
				"z": 10.6899380026,
				"element": "C" 
			},
			{
				"x": -7.1978937815,
				"y": 2.3500838223,
				"z": 10.0464280798,
				"element": "C" 
			},
			{
				"x": -7.5157723493,
				"y": 2.6576617741,
				"z": 8.7223041327,
				"element": "C" 
			},
			{
				"x": -4.308632253,
				"y": 4.1191085322,
				"z": 4.3740814856,
				"element": "C" 
			},
			{
				"x": -3.3851848666,
				"y": 3.2978428944,
				"z": 3.7542758093,
				"element": "C" 
			},
			{
				"x": -2.4114777252,
				"y": 2.0372135175,
				"z": -1.217093113,
				"element": "C" 
			},
			{
				"x": -3.3727606077,
				"y": 1.7710076124,
				"z": -2.1933873603,
				"element": "C" 
			},
			{
				"x": -1.4701081252,
				"y": -0.1156886216,
				"z": -4.2972749282,
				"element": "H" 
			},
			{
				"x": 0.222550975,
				"y": 0.3597845967,
				"z": -2.5382828573,
				"element": "H" 
			},
			{
				"x": 0.9058361643,
				"y": 1.9877442393,
				"z": -0.7249578186,
				"element": "H" 
			},
			{
				"x": -0.3401632494,
				"y": 2.7486228425,
				"z": 0.2742643725,
				"element": "H" 
			},
			{
				"x": -0.3319005458,
				"y": -0.9289208618,
				"z": 3.4408392273,
				"element": "H" 
			},
			{
				"x": 1.9669594182,
				"y": -2.6859346373,
				"z": 0.1463564686,
				"element": "H" 
			},
			{
				"x": 3.4012799866,
				"y": -0.2033869925,
				"z": -2.3356106825,
				"element": "H" 
			},
			{
				"x": 5.0112014362,
				"y": -0.7978700505,
				"z": -4.1139936583,
				"element": "H" 
			},
			{
				"x": 7.5379142699,
				"y": -2.9455399451,
				"z": -5.6864075083,
				"element": "H" 
			},
			{
				"x": 7.0439534041,
				"y": -1.5497535589,
				"z": -4.7221571504,
				"element": "H" 
			},
			{
				"x": 6.7934541545,
				"y": 0.031868117,
				"z": -6.5473661607,
				"element": "H" 
			},
			{
				"x": 5.5154650941,
				"y": 0.818270077,
				"z": -8.5163140719,
				"element": "H" 
			},
			{
				"x": 3.8115810896,
				"y": -0.6576739612,
				"z": -9.5669285372,
				"element": "H" 
			},
			{
				"x": 3.401086519,
				"y": -2.9249373015,
				"z": -8.633372613,
				"element": "H" 
			},
			{
				"x": 4.6934708426,
				"y": -3.7125072467,
				"z": -6.6655334932,
				"element": "H" 
			},
			{
				"x": 4.9498899889,
				"y": -4.8915725009,
				"z": -2.7919389271,
				"element": "H" 
			},
			{
				"x": 3.301609496,
				"y": -4.2873990833,
				"z": -1.0252899147,
				"element": "H" 
			},
			{
				"x": -2.4973076085,
				"y": -0.0414886375,
				"z": 3.6428751581,
				"element": "H" 
			},
			{
				"x": -4.3305622353,
				"y": 0.3185159281,
				"z": 5.1003966281,
				"element": "H" 
			},
			{
				"x": -5.9595621239,
				"y": 1.7700345496,
				"z": 6.2309132126,
				"element": "H" 
			},
			{
				"x": -7.7199277932,
				"y": 3.1818945796,
				"z": 6.1260589652,
				"element": "H" 
			},
			{
				"x": -7.8993139056,
				"y": 4.8656394501,
				"z": 6.6317198333,
				"element": "H" 
			},
			{
				"x": -5.2111092697,
				"y": 5.0849926608,
				"z": 8.1485055365,
				"element": "H" 
			},
			{
				"x": -4.6322773624,
				"y": 4.5350473672,
				"z": 10.4985761045,
				"element": "H" 
			},
			{
				"x": -5.9061376957,
				"y": 2.7826375206,
				"z": 11.7180740717,
				"element": "H" 
			},
			{
				"x": -7.7557669862,
				"y": 1.5794258412,
				"z": 10.5706801161,
				"element": "H" 
			},
			{
				"x": -8.3217809577,
				"y": 2.1240324226,
				"z": 8.2229752331,
				"element": "H" 
			},
			{
				"x": -4.3277491683,
				"y": 5.1883312435,
				"z": 4.1899311722,
				"element": "H" 
			},
			{
				"x": -2.6515647558,
				"y": 3.7074524603,
				"z": 3.0681099967,
				"element": "H" 
			},
			{
				"x": -2.6838370682,
				"y": 2.6331448796,
				"z": -0.3500543704,
				"element": "H" 
			},
			{
				"x": -4.3812423988,
				"y": 2.159448627,
				"z": -2.1012652435,
				"element": "H" 
			}
		],
		 "valence_orbital": [ 
			{
				"type": "occ",
				"energy": -0.24391,
				"method": "rhf"
			},
			{
				"type": "occ",
				"energy": -0.24277,
				"method": "rhf"
			},
			{
				"type": "occ",
				"energy": -0.2255,
				"method": "rhf"
			},
			{
				"type": "occ",
				"energy": -0.20633,
				"method": "rhf"
			},
			{
				"type": "occ",
				"energy": -0.19974,
				"method": "rhf"
			},
			{
				"type": "unocc",
				"energy": -0.0614,
				"method": "rhf"
			},
			{
				"type": "unocc",
				"energy": -0.04622,
				"method": "rhf"
			},
			{
				"type": "unocc",
				"energy": -0.01704,
				"method": "rhf"
			},
			{
				"type": "unocc",
				"energy": -0.01287,
				"method": "rhf"
			},
			{
				"type": "unocc",
				"energy": -0.00957,
				"method": "rhf"
			}
		],
		"cosmo_sigma_profile": { 
			"-0.025": 0.0,
			"-0.024": 0.0,
			"-0.023": 0.0,
			"-0.022": 0.0,
			"-0.021": 0.0,
			"-0.02": 0.0,
			"-0.019": 0.0,
			"-0.018": 0.0,
			"-0.017": 0.155768637256,
			"-0.016": 0.948100950709,
			"-0.015": 1.51341677612,
			"-0.014": 1.18395944804,
			"-0.013": 1.17486013346,
			"-0.012": 1.11748775682,
			"-0.011": 1.44787803341,
			"-0.01": 1.34673920527,
			"-0.009": 1.5251023503,
			"-0.008": 2.60764495354,
			"-0.007": 15.7030890443,
			"-0.006": 37.8713394853,
			"-0.005": 50.8398202297,
			"-0.004": 56.3551131554,
			"-0.003": 46.5992531124,
			"-0.002": 41.2261270007,
			"-0.001": 41.0318054471,
			"0.0": 40.5951958732,
			"0.001": 46.6966113765,
			"0.002": 59.1524661479,
			"0.003": 76.512355124,
			"0.004": 76.7222581059,
			"0.005": 43.0289646064,
			"0.006": 17.7194813467,
			"0.007": 6.98166616431,
			"0.008": 4.67522017315,
			"0.009": 4.55944228741,
			"0.01": 2.49303329687,
			"0.011": 1.17961713127,
			"0.012": 1.00697923445,
			"0.013": 0.891204131472,
			"0.014": 0.911524653077,
			"0.015": 0.41023230949,
			"0.016": 0.00130499795683,
			"0.017": 0.0,
			"0.018": 0.0,
			"0.019": 0.0,
			"0.02": 0.0,
			"0.021": 0.0,
			"0.022": 0.0,
			"0.023": 0.0,
			"0.024": 0.0,
			"0.025": 0.0
		}
	}
}
