{
	 "smiles": "CCOC", 
	 "Tm": 160.15, 
	 "num_atms": 12, 
	 "gaussian": { 
		 "optdone": 1, 
		 "sigma_profile": "yes", 
		 "theory": "DFT", 
		 "functional": "B3LYP", 
		 "basiset": "6-31G**", 
		 "properties": { 
			 "R2extent": 405.6399, 
			 "electric_dipole_moment_norm": 1.27226065333, 
			 "electric_quadrupole_moment_norm": 2.46644794796, 
			 "total_energy": -194.349485156, 
			 "HOMO_LUMO_gap": 0.33885, 
			 "cosmo_polarized_energy": -3.47, 
			 "cosmo_cavitation_energy": 14.34, 
			 "cosmo_dispersion_energy": -10.85, 
			 "cosmo_repulsion_energy": 1.0, 
			 "cosmo_total_nonelectrostatic_energy": 4.49, 
			 "SMD_solvation_energy": 3.42 
		},
		"coords": [
			{
				"x": -1.5986846093,
				"y": 1.4476294586,
				"z": 0.4785223005,
				"element": "C" 
			},
			{
				"x": -1.1061745345,
				"y": 0.0629326971,
				"z": 0.8994399591,
				"element": "C" 
			},
			{
				"x": 0.0153972642,
				"y": -0.3954157733,
				"z": 0.1595532163,
				"element": "O" 
			},
			{
				"x": 1.2350003819,
				"y": 0.218785548,
				"z": 0.5174383725,
				"element": "C" 
			},
			{
				"x": -2.5128575951,
				"y": 1.7052010153,
				"z": 1.0243777684,
				"element": "H" 
			},
			{
				"x": -1.8209690114,
				"y": 1.4629451489,
				"z": -0.5927831712,
				"element": "H" 
			},
			{
				"x": -0.85944456,
				"y": 2.2275958999,
				"z": 0.6859059474,
				"element": "H" 
			},
			{
				"x": -1.8925304895,
				"y": -0.6788765956,
				"z": 0.7230471336,
				"element": "H" 
			},
			{
				"x": -0.8789458902,
				"y": 0.0515209719,
				"z": 1.9790707568,
				"element": "H" 
			},
			{
				"x": 1.2633630451,
				"y": 1.2907776247,
				"z": 0.2717149289,
				"element": "H" 
			},
			{
				"x": 1.4461962819,
				"y": 0.1079620008,
				"z": 1.5936178807,
				"element": "H" 
			},
			{
				"x": 2.0245497169,
				"y": -0.2837579964,
				"z": -0.0473050929,
				"element": "H" 
			}
		],
		 "valence_orbital": [ 
			{
				"type": "occ",
				"energy": -0.39346,
				"method": "rhf"
			},
			{
				"type": "occ",
				"energy": -0.37234,
				"method": "rhf"
			},
			{
				"type": "occ",
				"energy": -0.34987,
				"method": "rhf"
			},
			{
				"type": "occ",
				"energy": -0.30341,
				"method": "rhf"
			},
			{
				"type": "occ",
				"energy": -0.24821,
				"method": "rhf"
			},
			{
				"type": "unocc",
				"energy": 0.09064,
				"method": "rhf"
			},
			{
				"type": "unocc",
				"energy": 0.12775,
				"method": "rhf"
			},
			{
				"type": "unocc",
				"energy": 0.1344,
				"method": "rhf"
			},
			{
				"type": "unocc",
				"energy": 0.15193,
				"method": "rhf"
			},
			{
				"type": "unocc",
				"energy": 0.161,
				"method": "rhf"
			}
		],
		"cosmo_sigma_profile": { 
			"-0.025": 0.0,
			"-0.024": 0.0,
			"-0.023": 0.0,
			"-0.022": 0.0,
			"-0.021": 0.0,
			"-0.02": 0.0,
			"-0.019": 0.0,
			"-0.018": 0.0,
			"-0.017": 0.0,
			"-0.016": 0.0,
			"-0.015": 0.0,
			"-0.014": 0.0,
			"-0.013": 0.0,
			"-0.012": 0.0,
			"-0.011": 0.0,
			"-0.01": 0.0,
			"-0.009": 0.0,
			"-0.008": 0.0,
			"-0.007": 0.0,
			"-0.006": 0.0,
			"-0.005": 1.06502463758,
			"-0.004": 7.92887048071,
			"-0.003": 21.0064795955,
			"-0.002": 22.5821541908,
			"-0.001": 17.2545771954,
			"0.0": 11.0999423404,
			"0.001": 9.28697446637,
			"0.002": 3.34215910751,
			"0.003": 1.9168194205,
			"0.004": 1.73398293352,
			"0.005": 1.70432493025,
			"0.006": 1.17238869787,
			"0.007": 1.56431718372,
			"0.008": 1.07317833894,
			"0.009": 1.38159981257,
			"0.01": 1.07397544195,
			"0.011": 1.42624522718,
			"0.012": 1.6426270472,
			"0.013": 1.52714701796,
			"0.014": 1.42106696607,
			"0.015": 0.0,
			"0.016": 0.0,
			"0.017": 0.0,
			"0.018": 0.0,
			"0.019": 0.0,
			"0.02": 0.0,
			"0.021": 0.0,
			"0.022": 0.0,
			"0.023": 0.0,
			"0.024": 0.0,
			"0.025": 0.0
		}
	}
}
