{
	 "smiles": "COC1=NC(OC)=NC(Cl)=C1", 
	 "Tm": 348.15, 
	 "num_atms": 18, 
	 "gaussian": { 
		 "optdone": 1, 
		 "sigma_profile": "yes", 
		 "theory": "DFT", 
		 "functional": "B3LYP", 
		 "basiset": "6-31G**", 
		 "properties": { 
			 "R2extent": 2450.087, 
			 "electric_dipole_moment_norm": 1.62345962685, 
			 "electric_quadrupole_moment_norm": 8.66642072484, 
			 "total_energy": -952.995880688, 
			 "HOMO_LUMO_gap": 0.21808, 
			 "cosmo_polarized_energy": -7.38, 
			 "cosmo_cavitation_energy": 24.54, 
			 "cosmo_dispersion_energy": -18.49, 
			 "cosmo_repulsion_energy": 1.52, 
			 "cosmo_total_nonelectrostatic_energy": 7.57, 
			 "SMD_solvation_energy": 3.96 
		},
		"coords": [
			{
				"x": 2.0238825768,
				"y": 3.2526342423,
				"z": -0.2667344265,
				"element": "C" 
			},
			{
				"x": 0.6655089072,
				"y": 2.8055140387,
				"z": -0.3972775771,
				"element": "O" 
			},
			{
				"x": 0.4604550797,
				"y": 1.4902078069,
				"z": -0.535330927,
				"element": "C" 
			},
			{
				"x": 1.496140517,
				"y": 0.6602511326,
				"z": -0.5468965551,
				"element": "N" 
			},
			{
				"x": 1.1963714435,
				"y": -0.6379169593,
				"z": -0.6893520953,
				"element": "C" 
			},
			{
				"x": 2.2640333889,
				"y": -1.4431027405,
				"z": -0.6967242754,
				"element": "O" 
			},
			{
				"x": 2.0296507135,
				"y": -2.8491791098,
				"z": -0.8454265027,
				"element": "C" 
			},
			{
				"x": -0.0180698637,
				"y": -1.1755927586,
				"z": -0.8191599242,
				"element": "N" 
			},
			{
				"x": -1.0242672981,
				"y": -0.3047741843,
				"z": -0.8018100216,
				"element": "C" 
			},
			{
				"x": -2.6356547751,
				"y": -0.9797086076,
				"z": -0.9703075242,
				"element": "Cl" 
			},
			{
				"x": -0.8771902564,
				"y": 1.060876224,
				"z": -0.6627293007,
				"element": "C" 
			},
			{
				"x": 1.9588468594,
				"y": 4.3362078507,
				"z": -0.1681082701,
				"element": "H" 
			},
			{
				"x": 2.495107547,
				"y": 2.8135757915,
				"z": 0.6161425261,
				"element": "H" 
			},
			{
				"x": 2.6095784575,
				"y": 2.9810692003,
				"z": -1.1484987123,
				"element": "H" 
			},
			{
				"x": 3.0191542441,
				"y": -3.3063048553,
				"z": -0.8248194022,
				"element": "H" 
			},
			{
				"x": 1.4137006166,
				"y": -3.2324812786,
				"z": -0.0276884358,
				"element": "H" 
			},
			{
				"x": 1.5278754506,
				"y": -3.0649044428,
				"z": -1.7923660343,
				"element": "H" 
			},
			{
				"x": -1.7048236085,
				"y": 1.7551286498,
				"z": -0.6505125415,
				"element": "H" 
			}
		],
		 "valence_orbital": [ 
			{
				"type": "occ",
				"energy": -0.31858,
				"method": "rhf"
			},
			{
				"type": "occ",
				"energy": -0.30674,
				"method": "rhf"
			},
			{
				"type": "occ",
				"energy": -0.2839,
				"method": "rhf"
			},
			{
				"type": "occ",
				"energy": -0.27337,
				"method": "rhf"
			},
			{
				"type": "occ",
				"energy": -0.24883,
				"method": "rhf"
			},
			{
				"type": "unocc",
				"energy": -0.03075,
				"method": "rhf"
			},
			{
				"type": "unocc",
				"energy": -0.01105,
				"method": "rhf"
			},
			{
				"type": "unocc",
				"energy": 0.02992,
				"method": "rhf"
			},
			{
				"type": "unocc",
				"energy": 0.11292,
				"method": "rhf"
			},
			{
				"type": "unocc",
				"energy": 0.11617,
				"method": "rhf"
			}
		],
		"cosmo_sigma_profile": { 
			"-0.025": 0.0,
			"-0.024": 0.0,
			"-0.023": 0.0,
			"-0.022": 0.0,
			"-0.021": 0.0,
			"-0.02": 0.0,
			"-0.019": 0.0,
			"-0.018": 0.0,
			"-0.017": 0.0,
			"-0.016": 0.0,
			"-0.015": 0.0,
			"-0.014": 0.0,
			"-0.013": 0.0,
			"-0.012": 0.0,
			"-0.011": 0.0,
			"-0.01": 0.0,
			"-0.009": 0.633538699008,
			"-0.008": 1.34620923799,
			"-0.007": 3.26120043016,
			"-0.006": 9.41987211555,
			"-0.005": 14.0823637121,
			"-0.004": 19.8512313607,
			"-0.003": 21.2965762644,
			"-0.002": 17.6976058151,
			"-0.001": 16.7463118458,
			"0.0": 15.9785367563,
			"0.001": 11.8541860392,
			"0.002": 9.02623537435,
			"0.003": 14.4650470957,
			"0.004": 11.6046611452,
			"0.005": 5.79939515846,
			"0.006": 5.63850225089,
			"0.007": 3.78642879533,
			"0.008": 4.7380131108,
			"0.009": 4.01382290528,
			"0.01": 2.5848055144,
			"0.011": 2.66730470424,
			"0.012": 1.39088482293,
			"0.013": 0.517096907083,
			"0.014": 0.0,
			"0.015": 0.0,
			"0.016": 0.0,
			"0.017": 0.0,
			"0.018": 0.0,
			"0.019": 0.0,
			"0.02": 0.0,
			"0.021": 0.0,
			"0.022": 0.0,
			"0.023": 0.0,
			"0.024": 0.0,
			"0.025": 0.0
		}
	}
}
