{
	 "smiles": "OC1=CC=C(C=C1)[N+]([O-])=O", 
	 "Tm": 387.15, 
	 "num_atms": 15, 
	 "gaussian": { 
		 "optdone": 1, 
		 "sigma_profile": "yes", 
		 "theory": "DFT", 
		 "functional": "B3LYP", 
		 "basiset": "6-31G**", 
		 "properties": { 
			 "R2extent": 1861.2584, 
			 "electric_dipole_moment_norm": 5.330975845, 
			 "electric_quadrupole_moment_norm": 15.5167987356, 
			 "total_energy": -511.971357683, 
			 "HOMO_LUMO_gap": 0.1728, 
			 "cosmo_polarized_energy": -13.22, 
			 "cosmo_cavitation_energy": 20.21, 
			 "cosmo_dispersion_energy": -15.16, 
			 "cosmo_repulsion_energy": 1.22, 
			 "cosmo_total_nonelectrostatic_energy": 6.28, 
			 "SMD_solvation_energy": 6.26 
		},
		"coords": [
			{
				"x": -3.1867449412,
				"y": 1.4314894329,
				"z": -0.5475843532,
				"element": "O" 
			},
			{
				"x": -1.8377974365,
				"y": 1.3054964062,
				"z": -0.4748190731,
				"element": "C" 
			},
			{
				"x": -1.0224173349,
				"y": 2.2539305306,
				"z": 0.1615744064,
				"element": "C" 
			},
			{
				"x": 0.3539385736,
				"y": 2.0695474172,
				"z": 0.2035497712,
				"element": "C" 
			},
			{
				"x": 0.9055086371,
				"y": 0.9359755305,
				"z": -0.3923147003,
				"element": "C" 
			},
			{
				"x": 0.1056836415,
				"y": -0.0162934853,
				"z": -1.0292494606,
				"element": "C" 
			},
			{
				"x": -1.2679679305,
				"y": 0.1691443215,
				"z": -1.0703224499,
				"element": "C" 
			},
			{
				"x": 2.3541351769,
				"y": 0.7409755877,
				"z": -0.3486582972,
				"element": "N" 
			},
			{
				"x": 3.0321788882,
				"y": 1.5988226063,
				"z": 0.220122165,
				"element": "O" 
			},
			{
				"x": 2.8134333855,
				"y": -0.269445068,
				"z": -0.8837373575,
				"element": "O" 
			},
			{
				"x": -3.4632552695,
				"y": 2.2458719278,
				"z": -0.106567841,
				"element": "H" 
			},
			{
				"x": -1.4666355026,
				"y": 3.1331245432,
				"z": 0.6219531081,
				"element": "H" 
			},
			{
				"x": 1.0065010022,
				"y": 2.7850504776,
				"z": 0.6876997358,
				"element": "H" 
			},
			{
				"x": 0.5724906547,
				"y": -0.8830190996,
				"z": -1.479954928,
				"element": "H" 
			},
			{
				"x": -1.9184515445,
				"y": -0.5495711285,
				"z": -1.5560907257,
				"element": "H" 
			}
		],
		 "valence_orbital": [ 
			{
				"type": "occ",
				"energy": -0.30361,
				"method": "rhf"
			},
			{
				"type": "occ",
				"energy": -0.30197,
				"method": "rhf"
			},
			{
				"type": "occ",
				"energy": -0.28432,
				"method": "rhf"
			},
			{
				"type": "occ",
				"energy": -0.28187,
				"method": "rhf"
			},
			{
				"type": "occ",
				"energy": -0.25406,
				"method": "rhf"
			},
			{
				"type": "unocc",
				"energy": -0.08126,
				"method": "rhf"
			},
			{
				"type": "unocc",
				"energy": -0.02981,
				"method": "rhf"
			},
			{
				"type": "unocc",
				"energy": 0.01205,
				"method": "rhf"
			},
			{
				"type": "unocc",
				"energy": 0.04765,
				"method": "rhf"
			},
			{
				"type": "unocc",
				"energy": 0.07931,
				"method": "rhf"
			}
		],
		"cosmo_sigma_profile": { 
			"-0.025": 0.0,
			"-0.024": 0.0,
			"-0.023": 0.0,
			"-0.022": 0.0,
			"-0.021": 0.0,
			"-0.02": 0.0,
			"-0.019": 0.647389824185,
			"-0.018": 1.5024393572,
			"-0.017": 1.07263798636,
			"-0.016": 1.2449557649,
			"-0.015": 1.00385597251,
			"-0.014": 0.483901895045,
			"-0.013": 0.876345846239,
			"-0.012": 1.33659391667,
			"-0.011": 1.03443084359,
			"-0.01": 1.22808816154,
			"-0.009": 1.26585612674,
			"-0.008": 3.05763482059,
			"-0.007": 6.88338579286,
			"-0.006": 8.25099096863,
			"-0.005": 6.79055235284,
			"-0.004": 6.87070435344,
			"-0.003": 7.53588617734,
			"-0.002": 7.66524749826,
			"-0.001": 10.2443456779,
			"0.0": 12.051617611,
			"0.001": 17.9919941635,
			"0.002": 13.2304842438,
			"0.003": 6.70781212689,
			"0.004": 3.00875252453,
			"0.005": 4.76105667729,
			"0.006": 3.65219728028,
			"0.007": 5.97922481591,
			"0.008": 12.5505865789,
			"0.009": 5.89342644966,
			"0.01": 5.99702312833,
			"0.011": 1.28006020308,
			"0.012": 0.0,
			"0.013": 0.0,
			"0.014": 0.0,
			"0.015": 0.0,
			"0.016": 0.0,
			"0.017": 0.0,
			"0.018": 0.0,
			"0.019": 0.0,
			"0.02": 0.0,
			"0.021": 0.0,
			"0.022": 0.0,
			"0.023": 0.0,
			"0.024": 0.0,
			"0.025": 0.0
		}
	}
}
