{
	 "smiles": "CN(C1=C(F)C(F)=C(C(F)=C1F)C1=C(F)C(F)=C(F)C(F)=C1F)N(=O)=O", 
	 "Tm": 413.15, 
	 "num_atms": 29, 
	 "gaussian": { 
		 "optdone": 1, 
		 "sigma_profile": "yes", 
		 "theory": "DFT", 
		 "functional": "B3LYP", 
		 "basiset": "6-31G**", 
		 "properties": { 
			 "R2extent": 10750.0151, 
			 "electric_dipole_moment_norm": 3.49884386762, 
			 "electric_quadrupole_moment_norm": 18.3567992308, 
			 "total_energy": -1655.4656718, 
			 "HOMO_LUMO_gap": 0.18818, 
			 "cosmo_polarized_energy": -10.2, 
			 "cosmo_cavitation_energy": 40.05, 
			 "cosmo_dispersion_energy": -26.62, 
			 "cosmo_repulsion_energy": 1.83, 
			 "cosmo_total_nonelectrostatic_energy": 15.26, 
			 "SMD_solvation_energy": 12.9 
		},
		"coords": [
			{
				"x": 0.3174673199,
				"y": 4.0204215122,
				"z": -1.4002597145,
				"element": "C" 
			},
			{
				"x": -0.7059241103,
				"y": 2.9901262826,
				"z": -1.5735512,
				"element": "N" 
			},
			{
				"x": -0.6516157654,
				"y": 1.7301235546,
				"z": -0.9413013076,
				"element": "C" 
			},
			{
				"x": 0.5117043058,
				"y": 0.9536740718,
				"z": -0.9700089894,
				"element": "C" 
			},
			{
				"x": 1.5833944628,
				"y": 1.3886811503,
				"z": -1.6480602413,
				"element": "F" 
			},
			{
				"x": 0.5765968387,
				"y": -0.2651490312,
				"z": -0.3041335807,
				"element": "C" 
			},
			{
				"x": 1.7116566203,
				"y": -0.9716910084,
				"z": -0.3745527453,
				"element": "F" 
			},
			{
				"x": -0.5210908375,
				"y": -0.7688530797,
				"z": 0.4016989922,
				"element": "C" 
			},
			{
				"x": -1.6850132242,
				"y": 0.0093193079,
				"z": 0.4176289354,
				"element": "C" 
			},
			{
				"x": -2.7573845611,
				"y": -0.411085277,
				"z": 1.0991489225,
				"element": "F" 
			},
			{
				"x": -1.7516794752,
				"y": 1.2385989911,
				"z": -0.2284417541,
				"element": "C" 
			},
			{
				"x": -2.8717953332,
				"y": 1.9555792469,
				"z": -0.1547256506,
				"element": "F" 
			},
			{
				"x": -0.4537066845,
				"y": -2.0687664064,
				"z": 1.1047382304,
				"element": "C" 
			},
			{
				"x": -1.3966242185,
				"y": -3.075736911,
				"z": 0.8656995652,
				"element": "C" 
			},
			{
				"x": -2.3727590244,
				"y": -2.8795815266,
				"z": -0.0268379335,
				"element": "F" 
			},
			{
				"x": -1.343327583,
				"y": -4.2999941737,
				"z": 1.5256693069,
				"element": "C" 
			},
			{
				"x": -2.2543467148,
				"y": -5.2440862624,
				"z": 1.275365302,
				"element": "F" 
			},
			{
				"x": -0.3239184769,
				"y": -4.542746552,
				"z": 2.4441352472,
				"element": "C" 
			},
			{
				"x": -0.2623239616,
				"y": -5.7137076022,
				"z": 3.0780532776,
				"element": "F" 
			},
			{
				"x": 0.6312705896,
				"y": -3.560900226,
				"z": 2.6998722964,
				"element": "C" 
			},
			{
				"x": 1.6041679176,
				"y": -3.7906095795,
				"z": 3.5861995949,
				"element": "F" 
			},
			{
				"x": 0.5556470951,
				"y": -2.3403490927,
				"z": 2.0359742101,
				"element": "C" 
			},
			{
				"x": 1.4731635959,
				"y": -1.4077106226,
				"z": 2.3188413927,
				"element": "F" 
			},
			{
				"x": -1.5261727055,
				"y": 3.1101228452,
				"z": -2.7022100736,
				"element": "N" 
			},
			{
				"x": -2.2774508438,
				"y": 2.1748398813,
				"z": -2.9480756957,
				"element": "O" 
			},
			{
				"x": -1.4228737437,
				"y": 4.1623701319,
				"z": -3.3234553958,
				"element": "O" 
			},
			{
				"x": 1.0482989669,
				"y": 4.0096929643,
				"z": -2.2131881737,
				"element": "H" 
			},
			{
				"x": -0.1608802581,
				"y": 4.9994744747,
				"z": -1.3590207032,
				"element": "H" 
			},
			{
				"x": 0.8187198093,
				"y": 3.8205429368,
				"z": -0.4533021146,
				"element": "H" 
			}
		],
		 "valence_orbital": [ 
			{
				"type": "occ",
				"energy": -0.30216,
				"method": "rhf"
			},
			{
				"type": "occ",
				"energy": -0.28962,
				"method": "rhf"
			},
			{
				"type": "occ",
				"energy": -0.26981,
				"method": "rhf"
			},
			{
				"type": "occ",
				"energy": -0.26839,
				"method": "rhf"
			},
			{
				"type": "occ",
				"energy": -0.26486,
				"method": "rhf"
			},
			{
				"type": "unocc",
				"energy": -0.07668,
				"method": "rhf"
			},
			{
				"type": "unocc",
				"energy": -0.05365,
				"method": "rhf"
			},
			{
				"type": "unocc",
				"energy": -0.03006,
				"method": "rhf"
			},
			{
				"type": "unocc",
				"energy": -0.02784,
				"method": "rhf"
			},
			{
				"type": "unocc",
				"energy": -0.02678,
				"method": "rhf"
			}
		],
		"cosmo_sigma_profile": { 
			"-0.025": 0.0,
			"-0.024": 0.0,
			"-0.023": 0.0,
			"-0.022": 0.0,
			"-0.021": 0.0,
			"-0.02": 0.0,
			"-0.019": 0.0,
			"-0.018": 0.0,
			"-0.017": 0.0,
			"-0.016": 0.0,
			"-0.015": 0.0,
			"-0.014": 0.0,
			"-0.013": 0.0,
			"-0.012": 0.0,
			"-0.011": 0.0,
			"-0.01": 0.0,
			"-0.009": 0.871679396363,
			"-0.008": 3.62273091449,
			"-0.007": 5.34047853024,
			"-0.006": 8.53422330511,
			"-0.005": 16.03330818,
			"-0.004": 39.6947997119,
			"-0.003": 26.3800146512,
			"-0.002": 19.8316801984,
			"-0.001": 19.8502821431,
			"0.0": 16.9798886984,
			"0.001": 27.1115498388,
			"0.002": 74.5322720158,
			"0.003": 32.8022820648,
			"0.004": 3.38679742376,
			"0.005": 3.59730264246,
			"0.006": 4.49400383439,
			"0.007": 9.44689847154,
			"0.008": 7.40113373515,
			"0.009": 4.05676415303,
			"0.01": 1.03986241504,
			"0.011": 0.0,
			"0.012": 0.0,
			"0.013": 0.0,
			"0.014": 0.0,
			"0.015": 0.0,
			"0.016": 0.0,
			"0.017": 0.0,
			"0.018": 0.0,
			"0.019": 0.0,
			"0.02": 0.0,
			"0.021": 0.0,
			"0.022": 0.0,
			"0.023": 0.0,
			"0.024": 0.0,
			"0.025": 0.0
		}
	}
}
