{
	 "smiles": "COC(=O)CNC(SC)=C(C#N)C#N", 
	 "Tm": 363.15, 
	 "num_atms": 23, 
	 "gaussian": { 
		 "optdone": 1, 
		 "sigma_profile": "yes", 
		 "theory": "DFT", 
		 "functional": "B3LYP", 
		 "basiset": "6-31G**", 
		 "properties": { 
			 "R2extent": 4476.4237, 
			 "electric_dipole_moment_norm": 6.79935103668, 
			 "electric_quadrupole_moment_norm": 33.4637303091, 
			 "total_energy": -1023.11020744, 
			 "HOMO_LUMO_gap": 0.17061, 
			 "cosmo_polarized_energy": -22.41, 
			 "cosmo_cavitation_energy": 31.74, 
			 "cosmo_dispersion_energy": -21.06, 
			 "cosmo_repulsion_energy": 1.65, 
			 "cosmo_total_nonelectrostatic_energy": 12.33, 
			 "SMD_solvation_energy": 9.34 
		},
		"coords": [
			{
				"x": -1.8222312491,
				"y": -1.1660378112,
				"z": -2.0919383916,
				"element": "C" 
			},
			{
				"x": -0.7690414935,
				"y": -0.7106444566,
				"z": -1.2159925987,
				"element": "O" 
			},
			{
				"x": -1.0793710348,
				"y": -0.6223242603,
				"z": 0.0865020911,
				"element": "C" 
			},
			{
				"x": -2.1477797785,
				"y": -0.9111536054,
				"z": 0.5713834268,
				"element": "O" 
			},
			{
				"x": 0.1068051999,
				"y": -0.1488926452,
				"z": 0.9271958182,
				"element": "C" 
			},
			{
				"x": 1.231287474,
				"y": 0.3381469149,
				"z": 0.1417440421,
				"element": "N" 
			},
			{
				"x": 1.8056337645,
				"y": 1.5650390732,
				"z": 0.2532853921,
				"element": "C" 
			},
			{
				"x": 1.8206542362,
				"y": 2.4014785394,
				"z": 1.8154917674,
				"element": "S" 
			},
			{
				"x": 2.4081684674,
				"y": 1.0877464759,
				"z": 2.9542848694,
				"element": "C" 
			},
			{
				"x": 2.3844812994,
				"y": 2.1901923345,
				"z": -0.8463281104,
				"element": "C" 
			},
			{
				"x": 3.190790802,
				"y": 3.359967923,
				"z": -0.7409812086,
				"element": "C" 
			},
			{
				"x": 3.853184117,
				"y": 4.317199419,
				"z": -0.7001544675,
				"element": "N" 
			},
			{
				"x": 2.192251225,
				"y": 1.620150467,
				"z": -2.1399877752,
				"element": "C" 
			},
			{
				"x": 2.0029361035,
				"y": 1.0951321166,
				"z": -3.163870579,
				"element": "N" 
			},
			{
				"x": -2.6888782691,
				"y": -0.5073409336,
				"z": -2.0095286901,
				"element": "H" 
			},
			{
				"x": -2.1164880075,
				"y": -2.1841845904,
				"z": -1.8280178667,
				"element": "H" 
			},
			{
				"x": -1.3998554187,
				"y": -1.1289217758,
				"z": -3.0946053378,
				"element": "H" 
			},
			{
				"x": -0.2570377863,
				"y": 0.6379857104,
				"z": 1.5913341125,
				"element": "H" 
			},
			{
				"x": 0.3987327739,
				"y": -1.0002991878,
				"z": 1.556332276,
				"element": "H" 
			},
			{
				"x": 1.2993085434,
				"y": -0.0815115431,
				"z": -0.7813683218,
				"element": "H" 
			},
			{
				"x": 3.3281586742,
				"y": 0.6416317249,
				"z": 2.5750753788,
				"element": "H" 
			},
			{
				"x": 2.6218408344,
				"y": 1.6048847321,
				"z": 3.8919366942,
				"element": "H" 
			},
			{
				"x": 1.6555495225,
				"y": 0.3198553786,
				"z": 3.1363074786,
				"element": "H" 
			}
		],
		 "valence_orbital": [ 
			{
				"type": "occ",
				"energy": -0.33201,
				"method": "rhf"
			},
			{
				"type": "occ",
				"energy": -0.3267,
				"method": "rhf"
			},
			{
				"type": "occ",
				"energy": -0.3072,
				"method": "rhf"
			},
			{
				"type": "occ",
				"energy": -0.27989,
				"method": "rhf"
			},
			{
				"type": "occ",
				"energy": -0.23832,
				"method": "rhf"
			},
			{
				"type": "unocc",
				"energy": -0.06771,
				"method": "rhf"
			},
			{
				"type": "unocc",
				"energy": -0.0188,
				"method": "rhf"
			},
			{
				"type": "unocc",
				"energy": -0.00761,
				"method": "rhf"
			},
			{
				"type": "unocc",
				"energy": 0.01307,
				"method": "rhf"
			},
			{
				"type": "unocc",
				"energy": 0.03676,
				"method": "rhf"
			}
		],
		"cosmo_sigma_profile": { 
			"-0.025": 0.0,
			"-0.024": 0.0,
			"-0.023": 0.0,
			"-0.022": 0.0,
			"-0.021": 0.0,
			"-0.02": 0.0,
			"-0.019": 0.0,
			"-0.018": 0.0,
			"-0.017": 0.0,
			"-0.016": 0.0,
			"-0.015": 0.0,
			"-0.014": 0.0,
			"-0.013": 0.0,
			"-0.012": 0.422932262008,
			"-0.011": 0.861191778265,
			"-0.01": 1.28130663234,
			"-0.009": 6.21964529044,
			"-0.008": 11.6852664325,
			"-0.007": 14.5672313413,
			"-0.006": 16.7830780326,
			"-0.005": 18.2473165777,
			"-0.004": 23.1017710963,
			"-0.003": 20.5308869682,
			"-0.002": 16.9380432911,
			"-0.001": 14.5767619807,
			"0.0": 9.53768019145,
			"0.001": 9.04530507846,
			"0.002": 11.0393092148,
			"0.003": 9.21777566159,
			"0.004": 6.53775734739,
			"0.005": 7.24219552563,
			"0.006": 7.13183435253,
			"0.007": 7.07397978616,
			"0.008": 7.83493279752,
			"0.009": 7.88116329678,
			"0.01": 8.51678512037,
			"0.011": 10.9036030012,
			"0.012": 6.4707568872,
			"0.013": 3.02581379488,
			"0.014": 0.228388969653,
			"0.015": 0.0,
			"0.016": 0.0,
			"0.017": 0.0,
			"0.018": 0.0,
			"0.019": 0.0,
			"0.02": 0.0,
			"0.021": 0.0,
			"0.022": 0.0,
			"0.023": 0.0,
			"0.024": 0.0,
			"0.025": 0.0
		}
	}
}
