{
	 "smiles": "ClC1=CC=CC=C1C(N1C=CN=C1)(C1=CC=CC=C1)C1=CC=CC=C1", 
	 "Tm": 420.15, 
	 "num_atms": 42, 
	 "gaussian": { 
		 "optdone": 1, 
		 "sigma_profile": "yes", 
		 "theory": "DFT", 
		 "functional": "B3LYP", 
		 "basiset": "6-31G**", 
		 "properties": { 
			 "R2extent": 7924.4504, 
			 "electric_dipole_moment_norm": 4.97053431836, 
			 "electric_quadrupole_moment_norm": 18.3376126186, 
			 "total_energy": -1418.24785869, 
			 "HOMO_LUMO_gap": 0.18281, 
			 "cosmo_polarized_energy": -13.41, 
			 "cosmo_cavitation_energy": 44.36, 
			 "cosmo_dispersion_energy": -29.96, 
			 "cosmo_repulsion_energy": 2.25, 
			 "cosmo_total_nonelectrostatic_energy": 16.64, 
			 "SMD_solvation_energy": 5.96 
		},
		"coords": [
			{
				"x": 1.786756919,
				"y": -1.9607622105,
				"z": 2.0167211932,
				"element": "Cl" 
			},
			{
				"x": 1.7832035142,
				"y": -0.2422458686,
				"z": 2.3945498398,
				"element": "C" 
			},
			{
				"x": 2.8599434335,
				"y": 0.2021541312,
				"z": 3.1646977668,
				"element": "C" 
			},
			{
				"x": 2.9671023661,
				"y": 1.5443562813,
				"z": 3.5198732346,
				"element": "C" 
			},
			{
				"x": 1.9882284094,
				"y": 2.4380384578,
				"z": 3.097488569,
				"element": "C" 
			},
			{
				"x": 0.913419224,
				"y": 1.9830255189,
				"z": 2.3343171548,
				"element": "C" 
			},
			{
				"x": 0.7641834464,
				"y": 0.6372357948,
				"z": 1.9618568018,
				"element": "C" 
			},
			{
				"x": -0.4318652057,
				"y": 0.1931343772,
				"z": 1.066321106,
				"element": "C" 
			},
			{
				"x": -1.3153273092,
				"y": -0.7285033401,
				"z": 1.8385700228,
				"element": "N" 
			},
			{
				"x": -1.2096925369,
				"y": -1.1307509525,
				"z": 3.1619927888,
				"element": "C" 
			},
			{
				"x": -2.3633698642,
				"y": -1.8159573004,
				"z": 3.4411994757,
				"element": "C" 
			},
			{
				"x": -3.1960975306,
				"y": -1.8385021784,
				"z": 2.3448431125,
				"element": "N" 
			},
			{
				"x": -2.5493141716,
				"y": -1.1726677533,
				"z": 1.4154894388,
				"element": "C" 
			},
			{
				"x": 0.1445658243,
				"y": -0.4811594874,
				"z": -0.2079756441,
				"element": "C" 
			},
			{
				"x": -0.346792985,
				"y": -1.6792490626,
				"z": -0.737254649,
				"element": "C" 
			},
			{
				"x": 0.1912017815,
				"y": -2.2180103751,
				"z": -1.9082596083,
				"element": "C" 
			},
			{
				"x": 1.230636261,
				"y": -1.5719523224,
				"z": -2.574884355,
				"element": "C" 
			},
			{
				"x": 1.736559878,
				"y": -0.3810996456,
				"z": -2.0521480018,
				"element": "C" 
			},
			{
				"x": 1.2015642588,
				"y": 0.1537462202,
				"z": -0.8810487115,
				"element": "C" 
			},
			{
				"x": -1.3373501953,
				"y": 1.4074681543,
				"z": 0.6883132129,
				"element": "C" 
			},
			{
				"x": -2.2029548712,
				"y": 1.9316973564,
				"z": 1.6659464771,
				"element": "C" 
			},
			{
				"x": -3.0282518357,
				"y": 3.018202947,
				"z": 1.3882935835,
				"element": "C" 
			},
			{
				"x": -3.0180205915,
				"y": 3.6036261486,
				"z": 0.1193848832,
				"element": "C" 
			},
			{
				"x": -2.1748092122,
				"y": 3.0866759643,
				"z": -0.8602841485,
				"element": "C" 
			},
			{
				"x": -1.3412300254,
				"y": 1.9986089003,
				"z": -0.5794991862,
				"element": "C" 
			},
			{
				"x": 3.6107895993,
				"y": -0.51546932,
				"z": 3.4759299677,
				"element": "H" 
			},
			{
				"x": 3.8103283213,
				"y": 1.8797821859,
				"z": 4.1159029843,
				"element": "H" 
			},
			{
				"x": 2.0523432805,
				"y": 3.4906010634,
				"z": 3.3553534689,
				"element": "H" 
			},
			{
				"x": 0.1683102487,
				"y": 2.6980261595,
				"z": 2.0125302838,
				"element": "H" 
			},
			{
				"x": -0.3481288441,
				"y": -0.9085172332,
				"z": 3.7664625711,
				"element": "H" 
			},
			{
				"x": -2.6378908465,
				"y": -2.2950464611,
				"z": 4.3710396835,
				"element": "H" 
			},
			{
				"x": -2.9279854935,
				"y": -0.9478098231,
				"z": 0.4292708218,
				"element": "H" 
			},
			{
				"x": -1.1315563138,
				"y": -2.2222080771,
				"z": -0.2266995546,
				"element": "H" 
			},
			{
				"x": -0.2043814712,
				"y": -3.1542824018,
				"z": -2.2914614338,
				"element": "H" 
			},
			{
				"x": 1.6480963074,
				"y": -1.9943734084,
				"z": -3.4841661535,
				"element": "H" 
			},
			{
				"x": 2.5544352336,
				"y": 0.1320656809,
				"z": -2.5499469077,
				"element": "H" 
			},
			{
				"x": 1.6174401792,
				"y": 1.0736879616,
				"z": -0.4823377137,
				"element": "H" 
			},
			{
				"x": -2.233788603,
				"y": 1.4794607099,
				"z": 2.652287303,
				"element": "H" 
			},
			{
				"x": -3.6871607611,
				"y": 3.4010994391,
				"z": 2.1622551505,
				"element": "H" 
			},
			{
				"x": -3.6665126218,
				"y": 4.4464159414,
				"z": -0.1014534223,
				"element": "H" 
			},
			{
				"x": -2.16314668,
				"y": 3.5210061508,
				"z": -1.8558872544,
				"element": "H" 
			},
			{
				"x": -0.7054805168,
				"y": 1.6109516769,
				"z": -1.3650841514,
				"element": "H" 
			}
		],
		 "valence_orbital": [ 
			{
				"type": "occ",
				"energy": -0.25415,
				"method": "rhf"
			},
			{
				"type": "occ",
				"energy": -0.25106,
				"method": "rhf"
			},
			{
				"type": "occ",
				"energy": -0.24894,
				"method": "rhf"
			},
			{
				"type": "occ",
				"energy": -0.24544,
				"method": "rhf"
			},
			{
				"type": "occ",
				"energy": -0.21426,
				"method": "rhf"
			},
			{
				"type": "unocc",
				"energy": -0.03145,
				"method": "rhf"
			},
			{
				"type": "unocc",
				"energy": -0.02548,
				"method": "rhf"
			},
			{
				"type": "unocc",
				"energy": -0.01541,
				"method": "rhf"
			},
			{
				"type": "unocc",
				"energy": -0.01121,
				"method": "rhf"
			},
			{
				"type": "unocc",
				"energy": -0.0039,
				"method": "rhf"
			}
		],
		"cosmo_sigma_profile": { 
			"-0.025": 0.0,
			"-0.024": 0.0,
			"-0.023": 0.0,
			"-0.022": 0.0,
			"-0.021": 0.0,
			"-0.02": 0.0,
			"-0.019": 0.0,
			"-0.018": 0.0,
			"-0.017": 0.0,
			"-0.016": 0.0,
			"-0.015": 0.0,
			"-0.014": 0.0,
			"-0.013": 0.0,
			"-0.012": 0.0,
			"-0.011": 0.0,
			"-0.01": 0.0,
			"-0.009": 0.117445445341,
			"-0.008": 1.11844477905,
			"-0.007": 6.1411123575,
			"-0.006": 20.5772019079,
			"-0.005": 29.9472965094,
			"-0.004": 32.3987953268,
			"-0.003": 31.0903465444,
			"-0.002": 26.2725415126,
			"-0.001": 24.9753315742,
			"0.0": 28.3583342144,
			"0.001": 24.4864983164,
			"0.002": 29.4580660241,
			"0.003": 29.3496773044,
			"0.004": 29.4015668858,
			"0.005": 19.7135991218,
			"0.006": 8.28180554203,
			"0.007": 2.61145510372,
			"0.008": 1.26436620128,
			"0.009": 2.09826585771,
			"0.01": 1.97427119588,
			"0.011": 0.708259806292,
			"0.012": 0.85251235392,
			"0.013": 1.29114896306,
			"0.014": 1.48673469127,
			"0.015": 1.21376138887,
			"0.016": 0.959373240648,
			"0.017": 1.17458736991,
			"0.018": 0.722346830133,
			"0.019": 0.0329012784178,
			"0.02": 0.0,
			"0.021": 0.0,
			"0.022": 0.0,
			"0.023": 0.0,
			"0.024": 0.0,
			"0.025": 0.0
		}
	}
}
