{
	 "smiles": "COC(=O)C1=C(OC)C(OC)=C(OC)C(C(=O)OC)=C1C(=O)OC", 
	 "Tm": 357.65, 
	 "num_atms": 42, 
	 "gaussian": { 
		 "optdone": 1, 
		 "sigma_profile": "yes", 
		 "theory": "DFT", 
		 "functional": "B3LYP", 
		 "basiset": "6-31G**", 
		 "properties": { 
			 "R2extent": 8207.3986, 
			 "electric_dipole_moment_norm": 2.91775702552, 
			 "electric_quadrupole_moment_norm": 16.1129701368, 
			 "total_energy": -1259.41494733, 
			 "HOMO_LUMO_gap": 0.18929, 
			 "cosmo_polarized_energy": -18.39, 
			 "cosmo_cavitation_energy": 47.1, 
			 "cosmo_dispersion_energy": -30.18, 
			 "cosmo_repulsion_energy": 2.35, 
			 "cosmo_total_nonelectrostatic_energy": 19.27, 
			 "SMD_solvation_energy": 14.28 
		},
		"coords": [
			{
				"x": -2.7743565726,
				"y": 1.7499267937,
				"z": -2.2319558869,
				"element": "C" 
			},
			{
				"x": -1.5680302997,
				"y": 1.4078990693,
				"z": -1.5291492259,
				"element": "O" 
			},
			{
				"x": -1.7159338324,
				"y": 1.2236534122,
				"z": -0.2062575547,
				"element": "C" 
			},
			{
				"x": -2.7343774074,
				"y": 1.4495865827,
				"z": 0.4096039097,
				"element": "O" 
			},
			{
				"x": -0.4254758391,
				"y": 0.7806110339,
				"z": 0.4346975599,
				"element": "C" 
			},
			{
				"x": 0.2027097268,
				"y": 1.6958593656,
				"z": 1.2852698983,
				"element": "C" 
			},
			{
				"x": -0.3041622918,
				"y": 2.9614826118,
				"z": 1.4262149142,
				"element": "O" 
			},
			{
				"x": -1.0928730358,
				"y": 3.1645182538,
				"z": 2.6136289393,
				"element": "C" 
			},
			{
				"x": 1.3923356655,
				"y": 1.3503384469,
				"z": 1.9463871237,
				"element": "C" 
			},
			{
				"x": 1.9856175952,
				"y": 2.2180039041,
				"z": 2.822965475,
				"element": "O" 
			},
			{
				"x": 2.7290858183,
				"y": 3.2806703847,
				"z": 2.2041643763,
				"element": "C" 
			},
			{
				"x": 1.9602729855,
				"y": 0.0868685161,
				"z": 1.7300192524,
				"element": "C" 
			},
			{
				"x": 3.1481928808,
				"y": -0.2585636633,
				"z": 2.3185628981,
				"element": "O" 
			},
			{
				"x": 3.069420027,
				"y": -0.5477646888,
				"z": 3.7242958589,
				"element": "C" 
			},
			{
				"x": 1.3421351988,
				"y": -0.8318293559,
				"z": 0.8729860289,
				"element": "C" 
			},
			{
				"x": 2.0066081033,
				"y": -2.1848755688,
				"z": 0.7947357225,
				"element": "C" 
			},
			{
				"x": 1.7442252238,
				"y": -3.1105302021,
				"z": 1.5309992627,
				"element": "O" 
			},
			{
				"x": 2.9717629982,
				"y": -2.2029164122,
				"z": -0.1376224191,
				"element": "O" 
			},
			{
				"x": 3.7038759674,
				"y": -3.4353667421,
				"z": -0.232526254,
				"element": "C" 
			},
			{
				"x": 0.1453670959,
				"y": -0.4896631037,
				"z": 0.2188907596,
				"element": "C" 
			},
			{
				"x": -0.6069982241,
				"y": -1.4615572574,
				"z": -0.6311305312,
				"element": "C" 
			},
			{
				"x": -1.7909229688,
				"y": -1.3703867625,
				"z": -0.8898441753,
				"element": "O" 
			},
			{
				"x": 0.1672693626,
				"y": -2.4688543688,
				"z": -1.0798916068,
				"element": "O" 
			},
			{
				"x": -0.5174808826,
				"y": -3.4810138942,
				"z": -1.8366190106,
				"element": "C" 
			},
			{
				"x": -3.494465397,
				"y": 0.9316047996,
				"z": -2.1544114304,
				"element": "H" 
			},
			{
				"x": -3.2166276871,
				"y": 2.6598484678,
				"z": -1.8198089213,
				"element": "H" 
			},
			{
				"x": -2.4765087916,
				"y": 1.9020855491,
				"z": -3.2693248859,
				"element": "H" 
			},
			{
				"x": -0.500099633,
				"y": 2.9598628901,
				"z": 3.5110743622,
				"element": "H" 
			},
			{
				"x": -1.983233788,
				"y": 2.5302470165,
				"z": 2.5824690735,
				"element": "H" 
			},
			{
				"x": -1.3875567035,
				"y": 4.2152913978,
				"z": 2.6008902019,
				"element": "H" 
			},
			{
				"x": 2.078689953,
				"y": 3.8906060308,
				"z": 1.5704537888,
				"element": "H" 
			},
			{
				"x": 3.1252106623,
				"y": 3.8876076773,
				"z": 3.0201390118,
				"element": "H" 
			},
			{
				"x": 3.5585058492,
				"y": 2.8754918901,
				"z": 1.6137955604,
				"element": "H" 
			},
			{
				"x": 2.415807012,
				"y": -1.4096707923,
				"z": 3.8985110853,
				"element": "H" 
			},
			{
				"x": 2.7106939305,
				"y": 0.3216696402,
				"z": 4.2825081109,
				"element": "H" 
			},
			{
				"x": 4.0860039411,
				"y": -0.7919933161,
				"z": 4.0375331342,
				"element": "H" 
			},
			{
				"x": 4.1996456691,
				"y": -3.6612531647,
				"z": 0.7148172825,
				"element": "H" 
			},
			{
				"x": 3.0342576254,
				"y": -4.2610193199,
				"z": -0.4866709145,
				"element": "H" 
			},
			{
				"x": 4.4385219954,
				"y": -3.2802508029,
				"z": -1.022375137,
				"element": "H" 
			},
			{
				"x": -1.3002791917,
				"y": -3.9459064628,
				"z": -1.2327918205,
				"element": "H" 
			},
			{
				"x": -0.9686414224,
				"y": -3.0468655348,
				"z": -2.7318281683,
				"element": "H" 
			},
			{
				"x": 0.2452086813,
				"y": -4.2111523207,
				"z": -2.1054056482,
				"element": "H" 
			}
		],
		 "valence_orbital": [ 
			{
				"type": "occ",
				"energy": -0.27718,
				"method": "rhf"
			},
			{
				"type": "occ",
				"energy": -0.274,
				"method": "rhf"
			},
			{
				"type": "occ",
				"energy": -0.26706,
				"method": "rhf"
			},
			{
				"type": "occ",
				"energy": -0.2473,
				"method": "rhf"
			},
			{
				"type": "occ",
				"energy": -0.24153,
				"method": "rhf"
			},
			{
				"type": "unocc",
				"energy": -0.05224,
				"method": "rhf"
			},
			{
				"type": "unocc",
				"energy": -0.02089,
				"method": "rhf"
			},
			{
				"type": "unocc",
				"energy": 0.01273,
				"method": "rhf"
			},
			{
				"type": "unocc",
				"energy": 0.02696,
				"method": "rhf"
			},
			{
				"type": "unocc",
				"energy": 0.04723,
				"method": "rhf"
			}
		],
		"cosmo_sigma_profile": { 
			"-0.025": 0.0,
			"-0.024": 0.0,
			"-0.023": 0.0,
			"-0.022": 0.0,
			"-0.021": 0.0,
			"-0.02": 0.0,
			"-0.019": 0.0,
			"-0.018": 0.0,
			"-0.017": 0.0,
			"-0.016": 0.0,
			"-0.015": 0.0,
			"-0.014": 0.0,
			"-0.013": 0.0,
			"-0.012": 0.0,
			"-0.011": 0.0,
			"-0.01": 0.0,
			"-0.009": 0.0,
			"-0.008": 0.0,
			"-0.007": 4.78650228929,
			"-0.006": 22.8096801424,
			"-0.005": 32.2418126521,
			"-0.004": 46.5265832227,
			"-0.003": 52.0086612015,
			"-0.002": 29.7378318297,
			"-0.001": 22.5475301907,
			"0.0": 21.6826699227,
			"0.001": 16.7870493834,
			"0.002": 17.6396078357,
			"0.003": 13.7149889641,
			"0.004": 14.550962453,
			"0.005": 15.1937617568,
			"0.006": 12.0103062966,
			"0.007": 10.0835449732,
			"0.008": 10.3682014039,
			"0.009": 8.92601809552,
			"0.01": 8.01006275192,
			"0.011": 9.98089372136,
			"0.012": 3.1179471176,
			"0.013": 0.109933456878,
			"0.014": 0.0,
			"0.015": 0.0,
			"0.016": 0.0,
			"0.017": 0.0,
			"0.018": 0.0,
			"0.019": 0.0,
			"0.02": 0.0,
			"0.021": 0.0,
			"0.022": 0.0,
			"0.023": 0.0,
			"0.024": 0.0,
			"0.025": 0.0
		}
	}
}
