{
	 "smiles": "NC1=C(OCC(=O)N2CCOCC2)C=CC=C1", 
	 "Tm": 385.15, 
	 "num_atms": 33, 
	 "gaussian": { 
		 "optdone": 1, 
		 "sigma_profile": "yes", 
		 "theory": "DFT", 
		 "functional": "B3LYP", 
		 "basiset": "6-31G**", 
		 "properties": { 
			 "R2extent": 5242.3334, 
			 "electric_dipole_moment_norm": 4.43795211556, 
			 "electric_quadrupole_moment_norm": 19.9771832436, 
			 "total_energy": -802.069567201, 
			 "HOMO_LUMO_gap": 0.19456, 
			 "cosmo_polarized_energy": -19.05, 
			 "cosmo_cavitation_energy": 34.92, 
			 "cosmo_dispersion_energy": -24.41, 
			 "cosmo_repulsion_energy": 1.91, 
			 "cosmo_total_nonelectrostatic_energy": 12.42, 
			 "SMD_solvation_energy": 5.55 
		},
		"coords": [
			{
				"x": -2.719589709,
				"y": -0.0109609724,
				"z": 1.8634106052,
				"element": "N" 
			},
			{
				"x": -2.0995840074,
				"y": -0.1169064998,
				"z": 0.6259553882,
				"element": "C" 
			},
			{
				"x": -1.6130139691,
				"y": 1.0405571177,
				"z": -0.018479817,
				"element": "C" 
			},
			{
				"x": -1.7165453757,
				"y": 2.2519220954,
				"z": 0.6608075839,
				"element": "O" 
			},
			{
				"x": -0.5169742614,
				"y": 2.6789167257,
				"z": 1.3130204081,
				"element": "C" 
			},
			{
				"x": 0.567688839,
				"y": 3.1247008488,
				"z": 0.3159888756,
				"element": "C" 
			},
			{
				"x": 0.3668870995,
				"y": 4.1299182902,
				"z": -0.3580706914,
				"element": "O" 
			},
			{
				"x": 1.7495818979,
				"y": 2.4243853881,
				"z": 0.2472963516,
				"element": "N" 
			},
			{
				"x": 2.7649657959,
				"y": 2.888841677,
				"z": -0.7050416707,
				"element": "C" 
			},
			{
				"x": 4.1550904044,
				"y": 2.7107073201,
				"z": -0.1000754208,
				"element": "C" 
			},
			{
				"x": 4.37985711,
				"y": 1.3646511564,
				"z": 0.3041090784,
				"element": "O" 
			},
			{
				"x": 3.4228556161,
				"y": 0.9574550567,
				"z": 1.2681939125,
				"element": "C" 
			},
			{
				"x": 1.9970465152,
				"y": 1.0595301255,
				"z": 0.7206584456,
				"element": "C" 
			},
			{
				"x": -1.0890645307,
				"y": 0.9813491728,
				"z": -1.3076630618,
				"element": "C" 
			},
			{
				"x": -0.9891285165,
				"y": -0.2455225708,
				"z": -1.9690179223,
				"element": "C" 
			},
			{
				"x": -1.4312162912,
				"y": -1.4047486273,
				"z": -1.3271124556,
				"element": "C" 
			},
			{
				"x": -1.9886815238,
				"y": -1.3430538078,
				"z": -0.0511571142,
				"element": "C" 
			},
			{
				"x": -2.630436652,
				"y": 0.8867650828,
				"z": 2.3147396055,
				"element": "H" 
			},
			{
				"x": -2.6655562974,
				"y": -0.8084371653,
				"z": 2.4779786475,
				"element": "H" 
			},
			{
				"x": -0.17904763,
				"y": 1.9180997867,
				"z": 2.0253230858,
				"element": "H" 
			},
			{
				"x": -0.7931495183,
				"y": 3.5783338055,
				"z": 1.8685432253,
				"element": "H" 
			},
			{
				"x": 2.5570277878,
				"y": 3.9335009994,
				"z": -0.9380641509,
				"element": "H" 
			},
			{
				"x": 2.6898070154,
				"y": 2.3069435382,
				"z": -1.6351868737,
				"element": "H" 
			},
			{
				"x": 4.925662675,
				"y": 2.9468063151,
				"z": -0.8392793368,
				"element": "H" 
			},
			{
				"x": 4.2745296864,
				"y": 3.389438283,
				"z": 0.7603633667,
				"element": "H" 
			},
			{
				"x": 3.5111302077,
				"y": 1.5726078955,
				"z": 2.1795967172,
				"element": "H" 
			},
			{
				"x": 3.6548771252,
				"y": -0.0807358398,
				"z": 1.5233801504,
				"element": "H" 
			},
			{
				"x": 1.8741148155,
				"y": 0.3563039083,
				"z": -0.1150628611,
				"element": "H" 
			},
			{
				"x": 1.2827221977,
				"y": 0.7789826708,
				"z": 1.493929278,
				"element": "H" 
			},
			{
				"x": -0.7702270239,
				"y": 1.9060393704,
				"z": -1.7780179753,
				"element": "H" 
			},
			{
				"x": -0.5809248841,
				"y": -0.2912857437,
				"z": -2.9736157021,
				"element": "H" 
			},
			{
				"x": -1.3587643898,
				"y": -2.3657290535,
				"z": -1.8285378543,
				"element": "H" 
			},
			{
				"x": -2.3581402083,
				"y": -2.2458763498,
				"z": 0.4289881824,
				"element": "H" 
			}
		],
		 "valence_orbital": [ 
			{
				"type": "occ",
				"energy": -0.27569,
				"method": "rhf"
			},
			{
				"type": "occ",
				"energy": -0.24873,
				"method": "rhf"
			},
			{
				"type": "occ",
				"energy": -0.24048,
				"method": "rhf"
			},
			{
				"type": "occ",
				"energy": -0.23808,
				"method": "rhf"
			},
			{
				"type": "occ",
				"energy": -0.20041,
				"method": "rhf"
			},
			{
				"type": "unocc",
				"energy": -0.00585,
				"method": "rhf"
			},
			{
				"type": "unocc",
				"energy": 0.01184,
				"method": "rhf"
			},
			{
				"type": "unocc",
				"energy": 0.01761,
				"method": "rhf"
			},
			{
				"type": "unocc",
				"energy": 0.07251,
				"method": "rhf"
			},
			{
				"type": "unocc",
				"energy": 0.0902,
				"method": "rhf"
			}
		],
		"cosmo_sigma_profile": { 
			"-0.025": 0.0,
			"-0.024": 0.0,
			"-0.023": 0.0,
			"-0.022": 0.0,
			"-0.021": 0.0,
			"-0.02": 0.0,
			"-0.019": 0.0,
			"-0.018": 0.0,
			"-0.017": 0.0,
			"-0.016": 0.0,
			"-0.015": 0.0,
			"-0.014": 0.0,
			"-0.013": 0.556949077987,
			"-0.012": 1.14030136097,
			"-0.011": 1.67040473503,
			"-0.01": 2.16275219798,
			"-0.009": 3.42710048742,
			"-0.008": 4.89064222364,
			"-0.007": 6.67071614753,
			"-0.006": 13.6544092897,
			"-0.005": 24.8066028223,
			"-0.004": 34.6185168463,
			"-0.003": 26.5460879869,
			"-0.002": 19.16082777,
			"-0.001": 14.3282662545,
			"0.0": 13.0852473285,
			"0.001": 12.0458198187,
			"0.002": 10.5859414458,
			"0.003": 10.2155161029,
			"0.004": 12.6626519444,
			"0.005": 12.3825178823,
			"0.006": 10.7607363765,
			"0.007": 5.9234206533,
			"0.008": 3.79349338221,
			"0.009": 4.23726534889,
			"0.01": 5.43540776846,
			"0.011": 4.60564913376,
			"0.012": 4.82061600964,
			"0.013": 6.33731029918,
			"0.014": 3.4232038524,
			"0.015": 0.583055671672,
			"0.016": 0.0,
			"0.017": 0.0,
			"0.018": 0.0,
			"0.019": 0.0,
			"0.02": 0.0,
			"0.021": 0.0,
			"0.022": 0.0,
			"0.023": 0.0,
			"0.024": 0.0,
			"0.025": 0.0
		}
	}
}
