{
	 "smiles": "NCC(O)CN1CCOCC1", 
	 "Tm": 311.15, 
	 "num_atms": 27, 
	 "gaussian": { 
		 "optdone": 1, 
		 "sigma_profile": "yes", 
		 "theory": "DFT", 
		 "functional": "B3LYP", 
		 "basiset": "6-31G**", 
		 "properties": { 
			 "R2extent": 2397.8017, 
			 "electric_dipole_moment_norm": 3.08700801586, 
			 "electric_quadrupole_moment_norm": 8.84494328755, 
			 "total_energy": -536.297532685, 
			 "HOMO_LUMO_gap": 0.25559, 
			 "cosmo_polarized_energy": -11.86, 
			 "cosmo_cavitation_energy": 27.13, 
			 "cosmo_dispersion_energy": -20.03, 
			 "cosmo_repulsion_energy": 1.64, 
			 "cosmo_total_nonelectrostatic_energy": 8.74, 
			 "SMD_solvation_energy": 2.4 
		},
		"coords": [
			{
				"x": 3.4163835018,
				"y": 0.4367326497,
				"z": -0.9126811262,
				"element": "N" 
			},
			{
				"x": 3.3691823455,
				"y": 0.4395377548,
				"z": 0.5504449378,
				"element": "C" 
			},
			{
				"x": 2.286430767,
				"y": 1.4010479385,
				"z": 1.0487932854,
				"element": "C" 
			},
			{
				"x": 2.5645377172,
				"y": 2.7415420181,
				"z": 0.6215193842,
				"element": "O" 
			},
			{
				"x": 0.8826937233,
				"y": 1.079052885,
				"z": 0.5162767129,
				"element": "C" 
			},
			{
				"x": 0.461255281,
				"y": -0.2720541245,
				"z": 0.904353615,
				"element": "N" 
			},
			{
				"x": 0.332765048,
				"y": -1.2209637628,
				"z": -0.2117911291,
				"element": "C" 
			},
			{
				"x": -0.9982406729,
				"y": -1.0672934809,
				"z": -0.9533033245,
				"element": "C" 
			},
			{
				"x": -2.1001073663,
				"y": -1.1828303733,
				"z": -0.0548982407,
				"element": "O" 
			},
			{
				"x": -2.031641419,
				"y": -0.2053820686,
				"z": 0.9778204883,
				"element": "C" 
			},
			{
				"x": -0.7234704394,
				"y": -0.3395170182,
				"z": 1.765349321,
				"element": "C" 
			},
			{
				"x": 4.2134608425,
				"y": -0.0992291989,
				"z": -1.2432013289,
				"element": "H" 
			},
			{
				"x": 3.5412258326,
				"y": 1.3945791803,
				"z": -1.232839231,
				"element": "H" 
			},
			{
				"x": 4.3242126999,
				"y": 0.7292065839,
				"z": 1.0305409347,
				"element": "H" 
			},
			{
				"x": 3.1250504133,
				"y": -0.5664771297,
				"z": 0.9079463835,
				"element": "H" 
			},
			{
				"x": 2.2613294465,
				"y": 1.3425029449,
				"z": 2.1485109216,
				"element": "H" 
			},
			{
				"x": 3.3641571126,
				"y": 3.0371303271,
				"z": 1.0754969206,
				"element": "H" 
			},
			{
				"x": 0.1983512079,
				"y": 1.8409155562,
				"z": 0.9078737232,
				"element": "H" 
			},
			{
				"x": 0.8964324812,
				"y": 1.2018860045,
				"z": -0.571820914,
				"element": "H" 
			},
			{
				"x": 0.3857695534,
				"y": -2.2391394119,
				"z": 0.1976369662,
				"element": "H" 
			},
			{
				"x": 1.1793904092,
				"y": -1.0824970975,
				"z": -0.8913813325,
				"element": "H" 
			},
			{
				"x": -1.1278082204,
				"y": -1.8549647612,
				"z": -1.7029454915,
				"element": "H" 
			},
			{
				"x": -1.0372482355,
				"y": -0.0933021335,
				"z": -1.4714428487,
				"element": "H" 
			},
			{
				"x": -2.9017188945,
				"y": -0.3722884819,
				"z": 1.6219207703,
				"element": "H" 
			},
			{
				"x": -2.1146829822,
				"y": 0.8077343062,
				"z": 0.5462265082,
				"element": "H" 
			},
			{
				"x": -0.656940226,
				"y": 0.4325174188,
				"z": 2.5402480108,
				"element": "H" 
			},
			{
				"x": -0.7238699269,
				"y": -1.3142465252,
				"z": 2.2720460833,
				"element": "H" 
			}
		],
		 "valence_orbital": [ 
			{
				"type": "occ",
				"energy": -0.30218,
				"method": "rhf"
			},
			{
				"type": "occ",
				"energy": -0.27133,
				"method": "rhf"
			},
			{
				"type": "occ",
				"energy": -0.2593,
				"method": "rhf"
			},
			{
				"type": "occ",
				"energy": -0.23329,
				"method": "rhf"
			},
			{
				"type": "occ",
				"energy": -0.18953,
				"method": "rhf"
			},
			{
				"type": "unocc",
				"energy": 0.06606,
				"method": "rhf"
			},
			{
				"type": "unocc",
				"energy": 0.08928,
				"method": "rhf"
			},
			{
				"type": "unocc",
				"energy": 0.10891,
				"method": "rhf"
			},
			{
				"type": "unocc",
				"energy": 0.11891,
				"method": "rhf"
			},
			{
				"type": "unocc",
				"energy": 0.12373,
				"method": "rhf"
			}
		],
		"cosmo_sigma_profile": { 
			"-0.025": 0.0,
			"-0.024": 0.0,
			"-0.023": 0.0,
			"-0.022": 0.0,
			"-0.021": 0.0,
			"-0.02": 0.0,
			"-0.019": 0.0,
			"-0.018": 0.0,
			"-0.017": 0.0,
			"-0.016": 0.0192451681758,
			"-0.015": 1.04698502704,
			"-0.014": 0.790040608177,
			"-0.013": 0.954661782061,
			"-0.012": 0.810601527337,
			"-0.011": 0.860179258378,
			"-0.01": 1.56601203154,
			"-0.009": 2.56520415145,
			"-0.008": 2.44671714876,
			"-0.007": 2.7680482074,
			"-0.006": 4.50690398631,
			"-0.005": 6.06551021983,
			"-0.004": 15.9586072156,
			"-0.003": 30.3423749694,
			"-0.002": 31.6477368372,
			"-0.001": 22.3886736079,
			"0.0": 14.5651099978,
			"0.001": 9.87209405944,
			"0.002": 6.39786163702,
			"0.003": 6.27068881811,
			"0.004": 6.39033782869,
			"0.005": 5.24265995809,
			"0.006": 4.12756830892,
			"0.007": 4.24838836299,
			"0.008": 3.87617715599,
			"0.009": 3.11897269731,
			"0.01": 4.56064571241,
			"0.011": 4.04940434717,
			"0.012": 3.0259729418,
			"0.013": 3.47561316668,
			"0.014": 3.59023444761,
			"0.015": 0.49243992434,
			"0.016": 0.0,
			"0.017": 0.0,
			"0.018": 0.0,
			"0.019": 0.0,
			"0.02": 0.0,
			"0.021": 0.0,
			"0.022": 0.0,
			"0.023": 0.0,
			"0.024": 0.0,
			"0.025": 0.0
		}
	}
}
