{
	 "smiles": "CCCCCCC(NC)C(O)=O", 
	 "Tm": 533.15, 
	 "num_atms": 31, 
	 "gaussian": { 
		 "optdone": 1, 
		 "sigma_profile": "yes", 
		 "theory": "DFT", 
		 "functional": "B3LYP", 
		 "basiset": "6-31G**", 
		 "properties": { 
			 "R2extent": 3207.1144, 
			 "electric_dipole_moment_norm": 4.51920478182, 
			 "electric_quadrupole_moment_norm": 10.911837431, 
			 "total_energy": -559.620305863, 
			 "HOMO_LUMO_gap": 0.23936, 
			 "cosmo_polarized_energy": -16.8, 
			 "cosmo_cavitation_energy": 32.04, 
			 "cosmo_dispersion_energy": -21.99, 
			 "cosmo_repulsion_energy": 1.8, 
			 "cosmo_total_nonelectrostatic_energy": 11.86, 
			 "SMD_solvation_energy": 4.87 
		},
		"coords": [
			{
				"x": -2.1683158515,
				"y": -0.7064216711,
				"z": -2.8046369475,
				"element": "C" 
			},
			{
				"x": -0.8304412167,
				"y": -1.341729641,
				"z": -2.408408906,
				"element": "C" 
			},
			{
				"x": -0.9554466213,
				"y": -2.5253823636,
				"z": -1.4323551846,
				"element": "C" 
			},
			{
				"x": -1.5832382934,
				"y": -2.2000976575,
				"z": -0.062938615,
				"element": "C" 
			},
			{
				"x": -0.8832364387,
				"y": -1.0967569447,
				"z": 0.7480905515,
				"element": "C" 
			},
			{
				"x": 0.5691626222,
				"y": -1.4265794167,
				"z": 1.1207390698,
				"element": "C" 
			},
			{
				"x": 1.2751999876,
				"y": -0.3314213786,
				"z": 1.9581079701,
				"element": "C" 
			},
			{
				"x": 0.6069708498,
				"y": -0.1608536602,
				"z": 3.232336586,
				"element": "N" 
			},
			{
				"x": 1.312945076,
				"y": 0.6784525892,
				"z": 4.1971474569,
				"element": "C" 
			},
			{
				"x": 1.2993471144,
				"y": 0.9886881013,
				"z": 1.1667937787,
				"element": "C" 
			},
			{
				"x": 2.0914479536,
				"y": 0.9615524381,
				"z": 0.0558744672,
				"element": "O" 
			},
			{
				"x": 0.6837917439,
				"y": 1.9856623912,
				"z": 1.4398730931,
				"element": "O" 
			},
			{
				"x": -2.6780355461,
				"y": -0.2567919797,
				"z": -1.946279168,
				"element": "H" 
			},
			{
				"x": -2.8456513083,
				"y": -1.4512797605,
				"z": -3.2389650845,
				"element": "H" 
			},
			{
				"x": -2.0229368251,
				"y": 0.084187261,
				"z": -3.5477782715,
				"element": "H" 
			},
			{
				"x": -0.1743288348,
				"y": -0.5713668598,
				"z": -1.9821908534,
				"element": "H" 
			},
			{
				"x": -0.3220894173,
				"y": -1.6970684549,
				"z": -3.3140271278,
				"element": "H" 
			},
			{
				"x": -1.5577165007,
				"y": -3.312245338,
				"z": -1.906624764,
				"element": "H" 
			},
			{
				"x": 0.0392792682,
				"y": -2.9668370578,
				"z": -1.2846817176,
				"element": "H" 
			},
			{
				"x": -1.6110323706,
				"y": -3.1229334822,
				"z": 0.533179157,
				"element": "H" 
			},
			{
				"x": -2.6308494729,
				"y": -1.9079976028,
				"z": -0.204770327,
				"element": "H" 
			},
			{
				"x": -1.4455687395,
				"y": -0.9077627662,
				"z": 1.6678761583,
				"element": "H" 
			},
			{
				"x": -0.9090464294,
				"y": -0.1530743242,
				"z": 0.1900877508,
				"element": "H" 
			},
			{
				"x": 1.1592463987,
				"y": -1.6154065018,
				"z": 0.2157273942,
				"element": "H" 
			},
			{
				"x": 0.6046291761,
				"y": -2.3634485269,
				"z": 1.6946059279,
				"element": "H" 
			},
			{
				"x": 2.3400134966,
				"y": -0.6329694868,
				"z": 2.0781443643,
				"element": "H" 
			},
			{
				"x": 0.444746047,
				"y": -1.0803732011,
				"z": 3.6325407678,
				"element": "H" 
			},
			{
				"x": 2.360460838,
				"y": 0.3718525892,
				"z": 4.3753150045,
				"element": "H" 
			},
			{
				"x": 1.3109277319,
				"y": 1.7127158873,
				"z": 3.8476206831,
				"element": "H" 
			},
			{
				"x": 0.7818861954,
				"y": 0.6458730494,
				"z": 5.1525273276,
				"element": "H" 
			},
			{
				"x": 2.546079367,
				"y": 0.1094137695,
				"z": -0.010030542,
				"element": "H" 
			}
		],
		 "valence_orbital": [ 
			{
				"type": "occ",
				"energy": -0.31412,
				"method": "rhf"
			},
			{
				"type": "occ",
				"energy": -0.31144,
				"method": "rhf"
			},
			{
				"type": "occ",
				"energy": -0.31041,
				"method": "rhf"
			},
			{
				"type": "occ",
				"energy": -0.26621,
				"method": "rhf"
			},
			{
				"type": "occ",
				"energy": -0.22931,
				"method": "rhf"
			},
			{
				"type": "unocc",
				"energy": 0.01005,
				"method": "rhf"
			},
			{
				"type": "unocc",
				"energy": 0.0437,
				"method": "rhf"
			},
			{
				"type": "unocc",
				"energy": 0.07943,
				"method": "rhf"
			},
			{
				"type": "unocc",
				"energy": 0.08306,
				"method": "rhf"
			},
			{
				"type": "unocc",
				"energy": 0.11205,
				"method": "rhf"
			}
		],
		"cosmo_sigma_profile": { 
			"-0.025": 0.0,
			"-0.024": 0.0,
			"-0.023": 0.0,
			"-0.022": 0.0,
			"-0.021": 0.0,
			"-0.02": 0.0,
			"-0.019": 0.0847593144656,
			"-0.018": 0.779749987012,
			"-0.017": 0.97460022486,
			"-0.016": 0.87647096371,
			"-0.015": 1.26235042397,
			"-0.014": 0.772462713857,
			"-0.013": 0.656052985905,
			"-0.012": 1.38434900664,
			"-0.011": 1.40068953323,
			"-0.01": 2.4835990434,
			"-0.009": 2.50363285318,
			"-0.008": 3.01969367015,
			"-0.007": 2.68387005199,
			"-0.006": 4.30649573222,
			"-0.005": 4.22139579786,
			"-0.004": 10.4908470912,
			"-0.003": 15.1160502127,
			"-0.002": 33.5047360082,
			"-0.001": 37.829047871,
			"0.0": 39.7143161701,
			"0.001": 28.1452299672,
			"0.002": 11.7176763017,
			"0.003": 2.44593480385,
			"0.004": 3.67851305166,
			"0.005": 2.41123538323,
			"0.006": 2.37650925554,
			"0.007": 2.64438184468,
			"0.008": 3.50914911394,
			"0.009": 3.58996951867,
			"0.01": 4.10515202542,
			"0.011": 6.15095331888,
			"0.012": 5.47264496551,
			"0.013": 2.99933298565,
			"0.014": 1.40736579467,
			"0.015": 0.631543014208,
			"0.016": 0.649792146874,
			"0.017": 0.706565177915,
			"0.018": 0.0555301946388,
			"0.019": 0.0,
			"0.02": 0.0,
			"0.021": 0.0,
			"0.022": 0.0,
			"0.023": 0.0,
			"0.024": 0.0,
			"0.025": 0.0
		}
	}
}
