{
	 "smiles": "CCN(CC)C1=NC2=C(NC1=O)C=CC=C2", 
	 "Tm": 425.15, 
	 "num_atms": 31, 
	 "gaussian": { 
		 "optdone": 1, 
		 "sigma_profile": "yes", 
		 "theory": "DFT", 
		 "functional": "B3LYP", 
		 "basiset": "6-31G**", 
		 "properties": { 
			 "R2extent": 4494.9194, 
			 "electric_dipole_moment_norm": 0.642884834165, 
			 "electric_quadrupole_moment_norm": 12.6868330055, 
			 "total_energy": -705.828372711, 
			 "HOMO_LUMO_gap": 0.15034, 
			 "cosmo_polarized_energy": -11.46, 
			 "cosmo_cavitation_energy": 33.18, 
			 "cosmo_dispersion_energy": -23.94, 
			 "cosmo_repulsion_energy": 1.84, 
			 "cosmo_total_nonelectrostatic_energy": 11.08, 
			 "SMD_solvation_energy": 5.28 
		},
		"coords": [
			{
				"x": -0.7224186911,
				"y": -2.4221709116,
				"z": -0.2535651049,
				"element": "C" 
			},
			{
				"x": -1.9339718769,
				"y": -1.4846196669,
				"z": -0.2459691574,
				"element": "C" 
			},
			{
				"x": -1.7549818982,
				"y": -0.2726602001,
				"z": -1.0610331749,
				"element": "N" 
			},
			{
				"x": -2.5541154922,
				"y": -0.1738906155,
				"z": -2.2939365252,
				"element": "C" 
			},
			{
				"x": -1.9261670313,
				"y": -0.8899642259,
				"z": -3.4916357659,
				"element": "C" 
			},
			{
				"x": -0.9720697903,
				"y": 0.7233978852,
				"z": -0.5449553993,
				"element": "C" 
			},
			{
				"x": -0.5137729067,
				"y": 0.587796671,
				"z": 0.6778527063,
				"element": "N" 
			},
			{
				"x": 0.2688089739,
				"y": 1.5631620252,
				"z": 1.253459563,
				"element": "C" 
			},
			{
				"x": 0.614177166,
				"y": 2.7448102924,
				"z": 0.5615739511,
				"element": "C" 
			},
			{
				"x": 0.1411864168,
				"y": 2.8481947139,
				"z": -0.7406204774,
				"element": "N" 
			},
			{
				"x": -0.6039266772,
				"y": 1.9043802039,
				"z": -1.4080755248,
				"element": "C" 
			},
			{
				"x": -0.8864509687,
				"y": 2.0582441013,
				"z": -2.5953217889,
				"element": "O" 
			},
			{
				"x": 1.3966462665,
				"y": 3.7383710823,
				"z": 1.1597803785,
				"element": "C" 
			},
			{
				"x": 1.8462122712,
				"y": 3.5580376082,
				"z": 2.4637718493,
				"element": "C" 
			},
			{
				"x": 1.5168260108,
				"y": 2.3902270029,
				"z": 3.1688182222,
				"element": "C" 
			},
			{
				"x": 0.7396507931,
				"y": 1.4067289017,
				"z": 2.5711604728,
				"element": "C" 
			},
			{
				"x": -0.9350690238,
				"y": -3.3072905668,
				"z": 0.35593456,
				"element": "H" 
			},
			{
				"x": -0.4817403268,
				"y": -2.7551095689,
				"z": -1.2675894788,
				"element": "H" 
			},
			{
				"x": 0.1509204051,
				"y": -1.9207074125,
				"z": 0.1683298228,
				"element": "H" 
			},
			{
				"x": -2.8113560701,
				"y": -2.0040921279,
				"z": -0.6412580388,
				"element": "H" 
			},
			{
				"x": -2.1535315216,
				"y": -1.182836049,
				"z": 0.7826092699,
				"element": "H" 
			},
			{
				"x": -2.7049282252,
				"y": 0.8737408692,
				"z": -2.5377838749,
				"element": "H" 
			},
			{
				"x": -3.5349173526,
				"y": -0.6096880712,
				"z": -2.0675213709,
				"element": "H" 
			},
			{
				"x": -1.7600590575,
				"y": -1.9530233126,
				"z": -3.2890318073,
				"element": "H" 
			},
			{
				"x": -0.9715799958,
				"y": -0.4235847721,
				"z": -3.7458813076,
				"element": "H" 
			},
			{
				"x": -2.5880442647,
				"y": -0.8123410235,
				"z": -4.3611446335,
				"element": "H" 
			},
			{
				"x": 0.4061156648,
				"y": 3.6411871669,
				"z": -1.3128725008,
				"element": "H" 
			},
			{
				"x": 1.6467324474,
				"y": 4.6382229352,
				"z": 0.6031419934,
				"element": "H" 
			},
			{
				"x": 2.4539660438,
				"y": 4.3256440559,
				"z": 2.932731238,
				"element": "H" 
			},
			{
				"x": 1.8707095376,
				"y": 2.2553688995,
				"z": 4.1863794039,
				"element": "H" 
			},
			{
				"x": 0.4704491738,
				"y": 0.4969641101,
				"z": 3.0979525001,
				"element": "H" 
			}
		],
		 "valence_orbital": [ 
			{
				"type": "occ",
				"energy": -0.28848,
				"method": "rhf"
			},
			{
				"type": "occ",
				"energy": -0.27034,
				"method": "rhf"
			},
			{
				"type": "occ",
				"energy": -0.24119,
				"method": "rhf"
			},
			{
				"type": "occ",
				"energy": -0.23043,
				"method": "rhf"
			},
			{
				"type": "occ",
				"energy": -0.19442,
				"method": "rhf"
			},
			{
				"type": "unocc",
				"energy": -0.04408,
				"method": "rhf"
			},
			{
				"type": "unocc",
				"energy": 0.00103,
				"method": "rhf"
			},
			{
				"type": "unocc",
				"energy": 0.01302,
				"method": "rhf"
			},
			{
				"type": "unocc",
				"energy": 0.0827,
				"method": "rhf"
			},
			{
				"type": "unocc",
				"energy": 0.09068,
				"method": "rhf"
			}
		],
		"cosmo_sigma_profile": { 
			"-0.025": 0.0,
			"-0.024": 0.0,
			"-0.023": 0.0,
			"-0.022": 0.0,
			"-0.021": 0.0,
			"-0.02": 0.0,
			"-0.019": 0.0,
			"-0.018": 0.0,
			"-0.017": 0.0,
			"-0.016": 0.326922394137,
			"-0.015": 1.38353376765,
			"-0.014": 0.886200598032,
			"-0.013": 1.52159260526,
			"-0.012": 1.02315757724,
			"-0.011": 1.23815075479,
			"-0.01": 1.04233860837,
			"-0.009": 0.920721089949,
			"-0.008": 1.33719689481,
			"-0.007": 1.98574822693,
			"-0.006": 5.74666356828,
			"-0.005": 11.3810709725,
			"-0.004": 17.0469787262,
			"-0.003": 27.6482666503,
			"-0.002": 29.4846558651,
			"-0.001": 27.4020369526,
			"0.0": 23.7777280589,
			"0.001": 25.7245033815,
			"0.002": 17.7745737723,
			"0.003": 12.2857692662,
			"0.004": 13.1324356229,
			"0.005": 12.6206789535,
			"0.006": 7.20619540013,
			"0.007": 2.56716922921,
			"0.008": 3.4451622609,
			"0.009": 2.60339438865,
			"0.01": 2.40543641432,
			"0.011": 1.41545953717,
			"0.012": 2.73789381129,
			"0.013": 3.09746854922,
			"0.014": 0.922515844339,
			"0.015": 0.329597323886,
			"0.016": 0.0719985412769,
			"0.017": 0.0,
			"0.018": 0.0,
			"0.019": 0.0,
			"0.02": 0.0,
			"0.021": 0.0,
			"0.022": 0.0,
			"0.023": 0.0,
			"0.024": 0.0,
			"0.025": 0.0
		}
	}
}
