{
	 "smiles": "O=C(CC#N)NCC#C", 
	 "Tm": 382.15, 
	 "num_atms": 15, 
	 "gaussian": { 
		 "optdone": 1, 
		 "sigma_profile": "yes", 
		 "theory": "DFT", 
		 "functional": "B3LYP", 
		 "basiset": "6-31G**", 
		 "properties": { 
			 "R2extent": 1489.3986, 
			 "electric_dipole_moment_norm": 0.843795200271, 
			 "electric_quadrupole_moment_norm": 13.4904309409, 
			 "total_energy": -416.89603381, 
			 "HOMO_LUMO_gap": 0.2704, 
			 "cosmo_polarized_energy": -14.44, 
			 "cosmo_cavitation_energy": 21.8, 
			 "cosmo_dispersion_energy": -14.55, 
			 "cosmo_repulsion_energy": 1.22, 
			 "cosmo_total_nonelectrostatic_energy": 8.47, 
			 "SMD_solvation_energy": 6.77 
		},
		"coords": [
			{
				"x": -1.5323798362,
				"y": -0.5185352137,
				"z": 1.2451135393,
				"element": "O" 
			},
			{
				"x": -0.7375249241,
				"y": 0.0674380212,
				"z": 0.5265976522,
				"element": "C" 
			},
			{
				"x": -1.1996979978,
				"y": 1.3454864655,
				"z": -0.2125030353,
				"element": "C" 
			},
			{
				"x": -0.1948940226,
				"y": 2.0076353286,
				"z": -1.039834091,
				"element": "C" 
			},
			{
				"x": 0.6438232165,
				"y": 2.4913962253,
				"z": -1.6811549613,
				"element": "N" 
			},
			{
				"x": 0.5483499796,
				"y": -0.3165488523,
				"z": 0.3225113377,
				"element": "N" 
			},
			{
				"x": 1.0820217481,
				"y": -1.5354999423,
				"z": 0.9269364296,
				"element": "C" 
			},
			{
				"x": 1.7407908433,
				"y": -2.3985106979,
				"z": -0.0544054405,
				"element": "C" 
			},
			{
				"x": 2.3066817885,
				"y": -3.0969076318,
				"z": -0.859774628,
				"element": "C" 
			},
			{
				"x": -1.5701876159,
				"y": 2.0401883744,
				"z": 0.5482284229,
				"element": "H" 
			},
			{
				"x": -2.0602978816,
				"y": 1.0643458718,
				"z": -0.8284059753,
				"element": "H" 
			},
			{
				"x": 1.1368163594,
				"y": 0.2043741602,
				"z": -0.3133741322,
				"element": "H" 
			},
			{
				"x": 1.7874935441,
				"y": -1.2811357024,
				"z": 1.729464749,
				"element": "H" 
			},
			{
				"x": 0.2319647579,
				"y": -2.0436613774,
				"z": 1.3932840962,
				"element": "H" 
			},
			{
				"x": 2.7945400407,
				"y": -3.7204650293,
				"z": -1.5730839633,
				"element": "H" 
			}
		],
		 "valence_orbital": [ 
			{
				"type": "occ",
				"energy": -0.34262,
				"method": "rhf"
			},
			{
				"type": "occ",
				"energy": -0.29632,
				"method": "rhf"
			},
			{
				"type": "occ",
				"energy": -0.28354,
				"method": "rhf"
			},
			{
				"type": "occ",
				"energy": -0.27735,
				"method": "rhf"
			},
			{
				"type": "occ",
				"energy": -0.26824,
				"method": "rhf"
			},
			{
				"type": "unocc",
				"energy": 0.00216,
				"method": "rhf"
			},
			{
				"type": "unocc",
				"energy": 0.01081,
				"method": "rhf"
			},
			{
				"type": "unocc",
				"energy": 0.02255,
				"method": "rhf"
			},
			{
				"type": "unocc",
				"energy": 0.03095,
				"method": "rhf"
			},
			{
				"type": "unocc",
				"energy": 0.04253,
				"method": "rhf"
			}
		],
		"cosmo_sigma_profile": { 
			"-0.025": 0.0,
			"-0.024": 0.0,
			"-0.023": 0.0,
			"-0.022": 0.0,
			"-0.021": 0.0,
			"-0.02": 0.0,
			"-0.019": 0.0,
			"-0.018": 0.0,
			"-0.017": 0.0,
			"-0.016": 0.0,
			"-0.015": 0.0,
			"-0.014": 0.023075512986,
			"-0.013": 0.719535384457,
			"-0.012": 1.37577150041,
			"-0.011": 2.82401711758,
			"-0.01": 7.58261880748,
			"-0.009": 6.31654726323,
			"-0.008": 8.51611860227,
			"-0.007": 10.7423864949,
			"-0.006": 10.9774972216,
			"-0.005": 10.1778288459,
			"-0.004": 7.2097325039,
			"-0.003": 5.83634949422,
			"-0.002": 7.06700528328,
			"-0.001": 8.2018345307,
			"0.0": 7.90028434917,
			"0.001": 6.02857904911,
			"0.002": 6.33557977796,
			"0.003": 7.97380270911,
			"0.004": 7.02742814253,
			"0.005": 9.55100802329,
			"0.006": 10.7855421252,
			"0.007": 5.2377571511,
			"0.008": 4.04269898152,
			"0.009": 4.61019066817,
			"0.01": 4.05120627234,
			"0.011": 4.34531719093,
			"0.012": 5.98732408028,
			"0.013": 4.40908927152,
			"0.014": 0.298185104857,
			"0.015": 0.0,
			"0.016": 0.0,
			"0.017": 0.0,
			"0.018": 0.0,
			"0.019": 0.0,
			"0.02": 0.0,
			"0.021": 0.0,
			"0.022": 0.0,
			"0.023": 0.0,
			"0.024": 0.0,
			"0.025": 0.0
		}
	}
}
