{
	 "smiles": "NCC1=CC=C(C=C1)C1=CC2=C(OCC2)C=C1", 
	 "Tm": 351.15, 
	 "num_atms": 32, 
	 "gaussian": { 
		 "optdone": 1, 
		 "sigma_profile": "yes", 
		 "theory": "DFT", 
		 "functional": "B3LYP", 
		 "basiset": "6-31G**", 
		 "properties": { 
			 "R2extent": 6648.6402, 
			 "electric_dipole_moment_norm": 2.47300087545, 
			 "electric_quadrupole_moment_norm": 14.1110541871, 
			 "total_energy": -710.609993219, 
			 "HOMO_LUMO_gap": 0.17969, 
			 "cosmo_polarized_energy": -11.23, 
			 "cosmo_cavitation_energy": 35.03, 
			 "cosmo_dispersion_energy": -25.72, 
			 "cosmo_repulsion_energy": 2.0, 
			 "cosmo_total_nonelectrostatic_energy": 11.31, 
			 "SMD_solvation_energy": 4.1 
		},
		"coords": [
			{
				"x": 0.6654194404,
				"y": -2.3695365438,
				"z": -5.8751296838,
				"element": "N" 
			},
			{
				"x": -0.2411487946,
				"y": -1.2158323322,
				"z": -5.734725659,
				"element": "C" 
			},
			{
				"x": -0.4358253388,
				"y": -0.7054521809,
				"z": -4.3182710856,
				"element": "C" 
			},
			{
				"x": 0.4098634676,
				"y": 0.2726268022,
				"z": -3.7781424301,
				"element": "C" 
			},
			{
				"x": 0.273543805,
				"y": 0.6969417573,
				"z": -2.4582505526,
				"element": "C" 
			},
			{
				"x": -0.7244357593,
				"y": 0.1647073047,
				"z": -1.6233952536,
				"element": "C" 
			},
			{
				"x": -1.5771446355,
				"y": -0.8104603303,
				"z": -2.1699460536,
				"element": "C" 
			},
			{
				"x": -1.4330744296,
				"y": -1.2356799971,
				"z": -3.488619565,
				"element": "C" 
			},
			{
				"x": -0.8769024297,
				"y": 0.619100707,
				"z": -0.2185618538,
				"element": "C" 
			},
			{
				"x": -1.2261070355,
				"y": -0.2929900319,
				"z": 0.7999262757,
				"element": "C" 
			},
			{
				"x": -1.3573168842,
				"y": 0.147048613,
				"z": 2.108152769,
				"element": "C" 
			},
			{
				"x": -1.1476274704,
				"y": 1.4934461262,
				"z": 2.4179815279,
				"element": "C" 
			},
			{
				"x": -1.3148551425,
				"y": 1.7799389628,
				"z": 3.7419532287,
				"element": "O" 
			},
			{
				"x": -1.4461517038,
				"y": 0.5180613422,
				"z": 4.4464031577,
				"element": "C" 
			},
			{
				"x": -1.7512169702,
				"y": -0.5662592869,
				"z": 3.3830188708,
				"element": "C" 
			},
			{
				"x": -0.8085675147,
				"y": 2.4250565288,
				"z": 1.4431041454,
				"element": "C" 
			},
			{
				"x": -0.6794608474,
				"y": 1.9681058166,
				"z": 0.1292005188,
				"element": "C" 
			},
			{
				"x": 0.3217893116,
				"y": -3.1332097626,
				"z": -5.2951673449,
				"element": "H" 
			},
			{
				"x": 1.5748646274,
				"y": -2.1252148425,
				"z": -5.4867227439,
				"element": "H" 
			},
			{
				"x": 0.150538867,
				"y": -0.4105928325,
				"z": -6.3668484902,
				"element": "H" 
			},
			{
				"x": -1.2095925619,
				"y": -1.5048610608,
				"z": -6.1591422177,
				"element": "H" 
			},
			{
				"x": 1.1917697863,
				"y": 0.7053173987,
				"z": -4.3992679891,
				"element": "H" 
			},
			{
				"x": 0.9613152515,
				"y": 1.4380070081,
				"z": -2.0611738449,
				"element": "H" 
			},
			{
				"x": -2.3818889256,
				"y": -1.2154669827,
				"z": -1.5629678001,
				"element": "H" 
			},
			{
				"x": -2.1190260865,
				"y": -1.9809713433,
				"z": -3.8867314482,
				"element": "H" 
			},
			{
				"x": -1.3652105596,
				"y": -1.3428839092,
				"z": 0.5574852215,
				"element": "H" 
			},
			{
				"x": -2.2333150908,
				"y": 0.6370510648,
				"z": 5.1941360606,
				"element": "H" 
			},
			{
				"x": -0.4979594378,
				"y": 0.3199715587,
				"z": 4.9606479797,
				"element": "H" 
			},
			{
				"x": -2.8148284734,
				"y": -0.835856053,
				"z": 3.3733648088,
				"element": "H" 
			},
			{
				"x": -1.1833102922,
				"y": -1.4839325212,
				"z": 3.5648928086,
				"element": "H" 
			},
			{
				"x": -0.6580300027,
				"y": 3.4682579628,
				"z": 1.6988264159,
				"element": "H" 
			},
			{
				"x": -0.43860817,
				"y": 2.6831610568,
				"z": -0.6516297731,
				"element": "H" 
			}
		],
		 "valence_orbital": [ 
			{
				"type": "occ",
				"energy": -0.25668,
				"method": "rhf"
			},
			{
				"type": "occ",
				"energy": -0.24849,
				"method": "rhf"
			},
			{
				"type": "occ",
				"energy": -0.24661,
				"method": "rhf"
			},
			{
				"type": "occ",
				"energy": -0.23109,
				"method": "rhf"
			},
			{
				"type": "occ",
				"energy": -0.19922,
				"method": "rhf"
			},
			{
				"type": "unocc",
				"energy": -0.01953,
				"method": "rhf"
			},
			{
				"type": "unocc",
				"energy": -0.00607,
				"method": "rhf"
			},
			{
				"type": "unocc",
				"energy": -0.00032,
				"method": "rhf"
			},
			{
				"type": "unocc",
				"energy": 0.03769,
				"method": "rhf"
			},
			{
				"type": "unocc",
				"energy": 0.09114,
				"method": "rhf"
			}
		],
		"cosmo_sigma_profile": { 
			"-0.025": 0.0,
			"-0.024": 0.0,
			"-0.023": 0.0,
			"-0.022": 0.0,
			"-0.021": 0.0,
			"-0.02": 0.0,
			"-0.019": 0.0,
			"-0.018": 0.0,
			"-0.017": 0.0,
			"-0.016": 0.0,
			"-0.015": 0.0,
			"-0.014": 0.0,
			"-0.013": 0.0,
			"-0.012": 0.0,
			"-0.011": 0.0,
			"-0.01": 0.160870629032,
			"-0.009": 1.91074240569,
			"-0.008": 2.4703373481,
			"-0.007": 3.136735647,
			"-0.006": 8.38370981388,
			"-0.005": 30.7683762847,
			"-0.004": 32.2301003457,
			"-0.003": 30.6487497958,
			"-0.002": 21.8796329348,
			"-0.001": 18.0842072885,
			"0.0": 14.0891408148,
			"0.001": 14.0026685575,
			"0.002": 13.9190370518,
			"0.003": 15.7071520726,
			"0.004": 20.0645055578,
			"0.005": 18.554694709,
			"0.006": 14.0733530137,
			"0.007": 2.58507879279,
			"0.008": 2.07110601581,
			"0.009": 1.76179942016,
			"0.01": 2.16659273034,
			"0.011": 2.5961133256,
			"0.012": 1.3544224803,
			"0.013": 0.811326689128,
			"0.014": 0.616932886912,
			"0.015": 0.240806642746,
			"0.016": 0.621037816758,
			"0.017": 0.935505496593,
			"0.018": 0.68693879936,
			"0.019": 0.56551034947,
			"0.02": 0.426098765717,
			"0.021": 0.0,
			"0.022": 0.0,
			"0.023": 0.0,
			"0.024": 0.0,
			"0.025": 0.0
		}
	}
}
