{
	 "smiles": "CC(OC(=O)NC1=CC=CC=C1)C(O)=O", 
	 "Tm": 413.15, 
	 "num_atms": 26, 
	 "gaussian": { 
		 "optdone": 1, 
		 "sigma_profile": "yes", 
		 "theory": "DFT", 
		 "functional": "B3LYP", 
		 "basiset": "6-31G**", 
		 "properties": { 
			 "R2extent": 4349.7778, 
			 "electric_dipole_moment_norm": 1.18910444453, 
			 "electric_quadrupole_moment_norm": 20.2713629379, 
			 "total_energy": -743.378194839, 
			 "HOMO_LUMO_gap": 0.21472, 
			 "cosmo_polarized_energy": -15.48, 
			 "cosmo_cavitation_energy": 30.99, 
			 "cosmo_dispersion_energy": -21.97, 
			 "cosmo_repulsion_energy": 1.73, 
			 "cosmo_total_nonelectrostatic_energy": 10.75, 
			 "SMD_solvation_energy": 7.73 
		},
		"coords": [
			{
				"x": -0.710100015,
				"y": 3.0930803915,
				"z": -3.017910956,
				"element": "C" 
			},
			{
				"x": 0.420210478,
				"y": 2.0989924816,
				"z": -2.7459897903,
				"element": "C" 
			},
			{
				"x": 0.2352063999,
				"y": 1.4602866166,
				"z": -1.4789879237,
				"element": "O" 
			},
			{
				"x": 0.8467892784,
				"y": 2.0485251901,
				"z": -0.4223986586,
				"element": "C" 
			},
			{
				"x": 1.4804471021,
				"y": 3.0883734937,
				"z": -0.482121257,
				"element": "O" 
			},
			{
				"x": 0.6692918751,
				"y": 1.3506847042,
				"z": 0.7439093899,
				"element": "N" 
			},
			{
				"x": 0.0075232408,
				"y": 0.1360056773,
				"z": 1.0477300268,
				"element": "C" 
			},
			{
				"x": -0.3087810883,
				"y": -0.0835749102,
				"z": 2.3979785311,
				"element": "C" 
			},
			{
				"x": -0.9261674308,
				"y": -1.2657399725,
				"z": 2.7975297405,
				"element": "C" 
			},
			{
				"x": -1.2448380993,
				"y": -2.2451467009,
				"z": 1.8556037613,
				"element": "C" 
			},
			{
				"x": -0.9279026647,
				"y": -2.0252020961,
				"z": 0.5147344178,
				"element": "C" 
			},
			{
				"x": -0.2995142848,
				"y": -0.8506910183,
				"z": 0.0986145808,
				"element": "C" 
			},
			{
				"x": 0.4882381483,
				"y": 0.9795225271,
				"z": -3.7778123386,
				"element": "C" 
			},
			{
				"x": 0.6755509532,
				"y": 1.4946502853,
				"z": -5.0149715335,
				"element": "O" 
			},
			{
				"x": 0.4008728185,
				"y": -0.2058200204,
				"z": -3.5603379557,
				"element": "O" 
			},
			{
				"x": -0.6790775621,
				"y": 3.8804635112,
				"z": -2.2616503168,
				"element": "H" 
			},
			{
				"x": -0.5881326619,
				"y": 3.5451006026,
				"z": -4.0046128434,
				"element": "H" 
			},
			{
				"x": -1.6812308605,
				"y": 2.5921272942,
				"z": -2.9724724508,
				"element": "H" 
			},
			{
				"x": 1.3790560149,
				"y": 2.6274002158,
				"z": -2.7426122785,
				"element": "H" 
			},
			{
				"x": 1.0648439433,
				"y": 1.8496872617,
				"z": 1.5281180843,
				"element": "H" 
			},
			{
				"x": -0.0721598482,
				"y": 0.6808492209,
				"z": 3.1346187895,
				"element": "H" 
			},
			{
				"x": -1.1616402361,
				"y": -1.415799525,
				"z": 3.8472524677,
				"element": "H" 
			},
			{
				"x": -1.7301331805,
				"y": -3.1663868404,
				"z": 2.1629601158,
				"element": "H" 
			},
			{
				"x": -1.1626482692,
				"y": -2.781276444,
				"z": -0.2291651665,
				"element": "H" 
			},
			{
				"x": -0.054608406,
				"y": -0.7077451534,
				"z": -0.945186478,
				"element": "H" 
			},
			{
				"x": 0.7169043549,
				"y": 0.7375332072,
				"z": -5.6231199581,
				"element": "H" 
			}
		],
		 "valence_orbital": [ 
			{
				"type": "occ",
				"energy": -0.30296,
				"method": "rhf"
			},
			{
				"type": "occ",
				"energy": -0.28941,
				"method": "rhf"
			},
			{
				"type": "occ",
				"energy": -0.28101,
				"method": "rhf"
			},
			{
				"type": "occ",
				"energy": -0.24896,
				"method": "rhf"
			},
			{
				"type": "occ",
				"energy": -0.21898,
				"method": "rhf"
			},
			{
				"type": "unocc",
				"energy": -0.00426,
				"method": "rhf"
			},
			{
				"type": "unocc",
				"energy": -0.0027,
				"method": "rhf"
			},
			{
				"type": "unocc",
				"energy": 0.00048,
				"method": "rhf"
			},
			{
				"type": "unocc",
				"energy": 0.05959,
				"method": "rhf"
			},
			{
				"type": "unocc",
				"energy": 0.06477,
				"method": "rhf"
			}
		],
		"cosmo_sigma_profile": { 
			"-0.025": 0.0,
			"-0.024": 0.0,
			"-0.023": 0.0,
			"-0.022": 0.0,
			"-0.021": 0.0,
			"-0.02": 0.0,
			"-0.019": 0.439639281979,
			"-0.018": 0.939858940527,
			"-0.017": 1.03352748563,
			"-0.016": 0.936303993326,
			"-0.015": 1.32270989972,
			"-0.014": 1.73316961923,
			"-0.013": 1.91969296219,
			"-0.012": 2.03377907758,
			"-0.011": 1.53289058824,
			"-0.01": 1.82519160107,
			"-0.009": 1.76387905901,
			"-0.008": 3.54377067172,
			"-0.007": 4.47532441857,
			"-0.006": 8.83977444631,
			"-0.005": 14.4972289573,
			"-0.004": 17.99409147,
			"-0.003": 19.4384159743,
			"-0.002": 18.3758625455,
			"-0.001": 17.4296777883,
			"0.0": 15.4267338624,
			"0.001": 14.0209039407,
			"0.002": 13.1621368127,
			"0.003": 13.9068087133,
			"0.004": 13.3984376317,
			"0.005": 15.4256407174,
			"0.006": 12.2119460309,
			"0.007": 5.16333818952,
			"0.008": 3.63083874255,
			"0.009": 3.76799510465,
			"0.01": 4.37224593844,
			"0.011": 4.85805375912,
			"0.012": 4.38451948499,
			"0.013": 2.6619353204,
			"0.014": 0.0117733368801,
			"0.015": 0.0,
			"0.016": 0.0,
			"0.017": 0.0,
			"0.018": 0.0,
			"0.019": 0.0,
			"0.02": 0.0,
			"0.021": 0.0,
			"0.022": 0.0,
			"0.023": 0.0,
			"0.024": 0.0,
			"0.025": 0.0
		}
	}
}
