{
	 "smiles": "NC1=CN=C(OC2=CC=C(C=C2)C(F)(F)F)C=C1", 
	 "Tm": 390.15, 
	 "num_atms": 27, 
	 "gaussian": { 
		 "optdone": 1, 
		 "sigma_profile": "yes", 
		 "theory": "DFT", 
		 "functional": "B3LYP", 
		 "basiset": "6-31G**", 
		 "properties": { 
			 "R2extent": 7521.2935, 
			 "electric_dipole_moment_norm": 6.10423756582, 
			 "electric_quadrupole_moment_norm": 14.5129739654, 
			 "total_energy": -946.948997693, 
			 "HOMO_LUMO_gap": 0.17686, 
			 "cosmo_polarized_energy": -12.55, 
			 "cosmo_cavitation_energy": 33.68, 
			 "cosmo_dispersion_energy": -24.17, 
			 "cosmo_repulsion_energy": 1.81, 
			 "cosmo_total_nonelectrostatic_energy": 11.32, 
			 "SMD_solvation_energy": 6.36 
		},
		"coords": [
			{
				"x": -2.828838628,
				"y": 3.5523703488,
				"z": -2.0121145561,
				"element": "N" 
			},
			{
				"x": -1.8041946922,
				"y": 2.6075336185,
				"z": -1.9323238011,
				"element": "C" 
			},
			{
				"x": -1.3617650521,
				"y": 2.1076214118,
				"z": -0.6993564425,
				"element": "C" 
			},
			{
				"x": -0.3407595151,
				"y": 1.253026958,
				"z": -0.5637209299,
				"element": "N" 
			},
			{
				"x": 0.279103424,
				"y": 0.8441204161,
				"z": -1.6566603979,
				"element": "C" 
			},
			{
				"x": 1.370650726,
				"y": 0.0087034905,
				"z": -1.5656624086,
				"element": "O" 
			},
			{
				"x": 1.5973024883,
				"y": -0.8030025848,
				"z": -0.476219888,
				"element": "C" 
			},
			{
				"x": 2.9402516884,
				"y": -1.0306035467,
				"z": -0.1635663679,
				"element": "C" 
			},
			{
				"x": 3.2745818084,
				"y": -1.910770845,
				"z": 0.8606102098,
				"element": "C" 
			},
			{
				"x": 2.2690054516,
				"y": -2.5646814389,
				"z": 1.5775701392,
				"element": "C" 
			},
			{
				"x": 0.9277322378,
				"y": -2.3334562639,
				"z": 1.2571489521,
				"element": "C" 
			},
			{
				"x": 0.5837500741,
				"y": -1.4583439875,
				"z": 0.231330958,
				"element": "C" 
			},
			{
				"x": 2.6231740393,
				"y": -3.466255013,
				"z": 2.7243089467,
				"element": "C" 
			},
			{
				"x": 1.7173701622,
				"y": -4.4587212155,
				"z": 2.8855183335,
				"element": "F" 
			},
			{
				"x": 3.8341197911,
				"y": -4.0459382301,
				"z": 2.5568110412,
				"element": "F" 
			},
			{
				"x": 2.674304511,
				"y": -2.7953852071,
				"z": 3.9009587165,
				"element": "F" 
			},
			{
				"x": -0.0722033662,
				"y": 1.2610141479,
				"z": -2.9464498,
				"element": "C" 
			},
			{
				"x": -1.1227303245,
				"y": 2.1560473199,
				"z": -3.077916951,
				"element": "C" 
			},
			{
				"x": -3.4472166468,
				"y": 3.578394141,
				"z": -1.2125272093,
				"element": "H" 
			},
			{
				"x": -3.3457327825,
				"y": 3.5528135297,
				"z": -2.8809202068,
				"element": "H" 
			},
			{
				"x": -1.8513518019,
				"y": 2.4206677507,
				"z": 0.2224513072,
				"element": "H" 
			},
			{
				"x": 3.7047172822,
				"y": -0.5161654084,
				"z": -0.7356554321,
				"element": "H" 
			},
			{
				"x": 4.3163788487,
				"y": -2.0940941358,
				"z": 1.1000453179,
				"element": "H" 
			},
			{
				"x": 0.1476711551,
				"y": -2.8508106415,
				"z": 1.8054086596,
				"element": "H" 
			},
			{
				"x": -0.4554277473,
				"y": -1.2812108786,
				"z": -0.0120574672,
				"element": "H" 
			},
			{
				"x": 0.4726569291,
				"y": 0.8874397807,
				"z": -3.8059034941,
				"element": "H" 
			},
			{
				"x": -1.419250061,
				"y": 2.5093864834,
				"z": -4.0622072293,
				"element": "H" 
			}
		],
		 "valence_orbital": [ 
			{
				"type": "occ",
				"energy": -0.28489,
				"method": "rhf"
			},
			{
				"type": "occ",
				"energy": -0.27474,
				"method": "rhf"
			},
			{
				"type": "occ",
				"energy": -0.25793,
				"method": "rhf"
			},
			{
				"type": "occ",
				"energy": -0.24507,
				"method": "rhf"
			},
			{
				"type": "occ",
				"energy": -0.20719,
				"method": "rhf"
			},
			{
				"type": "unocc",
				"energy": -0.03033,
				"method": "rhf"
			},
			{
				"type": "unocc",
				"energy": -0.01579,
				"method": "rhf"
			},
			{
				"type": "unocc",
				"energy": -0.0081,
				"method": "rhf"
			},
			{
				"type": "unocc",
				"energy": 0.01151,
				"method": "rhf"
			},
			{
				"type": "unocc",
				"energy": 0.068,
				"method": "rhf"
			}
		],
		"cosmo_sigma_profile": { 
			"-0.025": 0.0,
			"-0.024": 0.0,
			"-0.023": 0.0,
			"-0.022": 0.0,
			"-0.021": 0.0,
			"-0.02": 0.0,
			"-0.019": 0.0,
			"-0.018": 0.0,
			"-0.017": 0.0,
			"-0.016": 0.0,
			"-0.015": 0.0,
			"-0.014": 0.0,
			"-0.013": 1.22359513076,
			"-0.012": 2.77159294043,
			"-0.011": 3.39676130403,
			"-0.01": 4.25707929591,
			"-0.009": 2.8642857494,
			"-0.008": 3.29401069623,
			"-0.007": 10.1549499206,
			"-0.006": 14.6276767634,
			"-0.005": 13.0435163758,
			"-0.004": 10.9635067682,
			"-0.003": 12.3458052562,
			"-0.002": 10.4032805755,
			"-0.001": 12.5533170831,
			"0.0": 15.6640075485,
			"0.001": 22.4633516637,
			"0.002": 36.0153491504,
			"0.003": 55.0440298641,
			"0.004": 14.9487197024,
			"0.005": 4.77357132065,
			"0.006": 3.56549248798,
			"0.007": 4.49078301655,
			"0.008": 2.12057744919,
			"0.009": 1.9446911786,
			"0.01": 2.02456325575,
			"0.011": 1.29928547532,
			"0.012": 1.65282950885,
			"0.013": 1.6050615378,
			"0.014": 0.73360356664,
			"0.015": 0.0693513790059,
			"0.016": 0.0,
			"0.017": 0.0,
			"0.018": 0.0,
			"0.019": 0.0,
			"0.02": 0.0,
			"0.021": 0.0,
			"0.022": 0.0,
			"0.023": 0.0,
			"0.024": 0.0,
			"0.025": 0.0
		}
	}
}
