{
	 "smiles": "ClC1=CC=CC(=C1)N1CCN(CCCN2N=C3C=CC=CN3C2=O)CC1", 
	 "Tm": 360.15, 
	 "num_atms": 48, 
	 "gaussian": { 
		 "optdone": 1, 
		 "sigma_profile": "yes", 
		 "theory": "DFT", 
		 "functional": "B3LYP", 
		 "basiset": "6-31G**", 
		 "properties": { 
			 "R2extent": 10237.7568, 
			 "electric_dipole_moment_norm": 2.3461477234, 
			 "electric_quadrupole_moment_norm": 14.9225863891, 
			 "total_energy": -1546.43058784, 
			 "HOMO_LUMO_gap": 0.1425, 
			 "cosmo_polarized_energy": -15.72, 
			 "cosmo_cavitation_energy": 50.22, 
			 "cosmo_dispersion_energy": -32.36, 
			 "cosmo_repulsion_energy": 2.39, 
			 "cosmo_total_nonelectrostatic_energy": 20.25, 
			 "SMD_solvation_energy": 5.99 
		},
		"coords": [
			{
				"x": 0.2394135877,
				"y": 3.6360471235,
				"z": 3.4709366473,
				"element": "Cl" 
			},
			{
				"x": 0.2805941039,
				"y": 3.3834154648,
				"z": 1.7225838052,
				"element": "C" 
			},
			{
				"x": 0.1552926624,
				"y": 4.4834143292,
				"z": 0.8786787379,
				"element": "C" 
			},
			{
				"x": 0.1912802496,
				"y": 4.2366220756,
				"z": -0.4947678981,
				"element": "C" 
			},
			{
				"x": 0.3426058676,
				"y": 2.9520357769,
				"z": -1.0068658952,
				"element": "C" 
			},
			{
				"x": 0.4539594884,
				"y": 1.8364131119,
				"z": -0.1437598266,
				"element": "C" 
			},
			{
				"x": 0.4313038264,
				"y": 2.0853541821,
				"z": 1.2497244313,
				"element": "C" 
			},
			{
				"x": 0.5740867133,
				"y": 0.5357618537,
				"z": -0.6092253474,
				"element": "N" 
			},
			{
				"x": 0.5729224852,
				"y": 0.2105642201,
				"z": -2.027717494,
				"element": "C" 
			},
			{
				"x": -0.0922362777,
				"y": -1.151512523,
				"z": -2.3013798646,
				"element": "C" 
			},
			{
				"x": 0.2390817256,
				"y": -2.1620459119,
				"z": -1.2809337476,
				"element": "N" 
			},
			{
				"x": 0.2894017065,
				"y": -3.5231756455,
				"z": -1.8083673565,
				"element": "C" 
			},
			{
				"x": -1.0835979746,
				"y": -4.0602898516,
				"z": -2.2437559781,
				"element": "C" 
			},
			{
				"x": -2.0017816047,
				"y": -4.5232239261,
				"z": -1.1005588401,
				"element": "C" 
			},
			{
				"x": -2.2615084642,
				"y": -3.5101072805,
				"z": -0.0901705549,
				"element": "N" 
			},
			{
				"x": -1.7107952188,
				"y": -3.6240961128,
				"z": 1.1744312266,
				"element": "N" 
			},
			{
				"x": -2.0158944827,
				"y": -2.4880031041,
				"z": 1.7582407443,
				"element": "C" 
			},
			{
				"x": -1.7357802825,
				"y": -2.0074266201,
				"z": 3.073197706,
				"element": "C" 
			},
			{
				"x": -2.1539336276,
				"y": -0.7517237974,
				"z": 3.4143868728,
				"element": "C" 
			},
			{
				"x": -2.8665242957,
				"y": 0.0826699473,
				"z": 2.4824947614,
				"element": "C" 
			},
			{
				"x": -3.1443816921,
				"y": -0.3815995676,
				"z": 1.2356469667,
				"element": "C" 
			},
			{
				"x": -2.7313040252,
				"y": -1.6486870197,
				"z": 0.8995934486,
				"element": "N" 
			},
			{
				"x": -2.8727838007,
				"y": -2.3088603635,
				"z": -0.3371173989,
				"element": "C" 
			},
			{
				"x": -3.4087031605,
				"y": -1.883539707,
				"z": -1.3557430151,
				"element": "O" 
			},
			{
				"x": 1.3982538167,
				"y": -1.7867919342,
				"z": -0.4856940046,
				"element": "C" 
			},
			{
				"x": 1.087538363,
				"y": -0.5041336825,
				"z": 0.2858198332,
				"element": "C" 
			},
			{
				"x": 0.0432638828,
				"y": 5.4840909411,
				"z": 1.2776281639,
				"element": "H" 
			},
			{
				"x": 0.1114919367,
				"y": 5.0708654017,
				"z": -1.1863104829,
				"element": "H" 
			},
			{
				"x": 0.3948325085,
				"y": 2.8267209542,
				"z": -2.0808634975,
				"element": "H" 
			},
			{
				"x": 0.5056204985,
				"y": 1.2752733152,
				"z": 1.9615624337,
				"element": "H" 
			},
			{
				"x": -0.0010247506,
				"y": 0.9621416554,
				"z": -2.5703578627,
				"element": "H" 
			},
			{
				"x": 1.5935685188,
				"y": 0.2306101833,
				"z": -2.4428534249,
				"element": "H" 
			},
			{
				"x": 0.2392820699,
				"y": -1.475856412,
				"z": -3.3045630467,
				"element": "H" 
			},
			{
				"x": -1.1795753061,
				"y": -1.0279363165,
				"z": -2.3397987094,
				"element": "H" 
			},
			{
				"x": 0.9832391732,
				"y": -3.5925537122,
				"z": -2.6704578167,
				"element": "H" 
			},
			{
				"x": 0.696873392,
				"y": -4.1731579813,
				"z": -1.0245451578,
				"element": "H" 
			},
			{
				"x": -1.6111596998,
				"y": -3.3133884312,
				"z": -2.8437282699,
				"element": "H" 
			},
			{
				"x": -0.9276331758,
				"y": -4.9291511985,
				"z": -2.8953315394,
				"element": "H" 
			},
			{
				"x": -1.5621998367,
				"y": -5.3647653648,
				"z": -0.5602039031,
				"element": "H" 
			},
			{
				"x": -2.9608064805,
				"y": -4.8498874841,
				"z": -1.5176352152,
				"element": "H" 
			},
			{
				"x": -1.1958479312,
				"y": -2.651066311,
				"z": 3.7576891804,
				"element": "H" 
			},
			{
				"x": -1.9447857442,
				"y": -0.3660102946,
				"z": 4.4070758953,
				"element": "H" 
			},
			{
				"x": -3.1763867481,
				"y": 1.0806161991,
				"z": 2.7668651511,
				"element": "H" 
			},
			{
				"x": -3.667472587,
				"y": 0.1580728869,
				"z": 0.455755107,
				"element": "H" 
			},
			{
				"x": 2.3229940328,
				"y": -1.6664706132,
				"z": -1.0836257785,
				"element": "H" 
			},
			{
				"x": 1.5962782491,
				"y": -2.5787980737,
				"z": 0.2431648158,
				"element": "H" 
			},
			{
				"x": 0.3405489682,
				"y": -0.7402614063,
				"z": 1.0542059636,
				"element": "H" 
			},
			{
				"x": 1.99568934,
				"y": -0.1546689753,
				"z": 0.8004500341,
				"element": "H" 
			}
		],
		 "valence_orbital": [ 
			{
				"type": "occ",
				"energy": -0.26238,
				"method": "rhf"
			},
			{
				"type": "occ",
				"energy": -0.23949,
				"method": "rhf"
			},
			{
				"type": "occ",
				"energy": -0.21522,
				"method": "rhf"
			},
			{
				"type": "occ",
				"energy": -0.19385,
				"method": "rhf"
			},
			{
				"type": "occ",
				"energy": -0.19052,
				"method": "rhf"
			},
			{
				"type": "unocc",
				"energy": -0.04802,
				"method": "rhf"
			},
			{
				"type": "unocc",
				"energy": -0.00215,
				"method": "rhf"
			},
			{
				"type": "unocc",
				"energy": 0.00802,
				"method": "rhf"
			},
			{
				"type": "unocc",
				"energy": 0.01284,
				"method": "rhf"
			},
			{
				"type": "unocc",
				"energy": 0.03698,
				"method": "rhf"
			}
		],
		"cosmo_sigma_profile": { 
			"-0.025": 0.0,
			"-0.024": 0.0,
			"-0.023": 0.0,
			"-0.022": 0.0,
			"-0.021": 0.0,
			"-0.02": 0.0,
			"-0.019": 0.0,
			"-0.018": 0.0,
			"-0.017": 0.0,
			"-0.016": 0.0,
			"-0.015": 0.0,
			"-0.014": 0.0,
			"-0.013": 0.0,
			"-0.012": 0.0,
			"-0.011": 0.0,
			"-0.01": 0.0,
			"-0.009": 1.09026348426,
			"-0.008": 3.11514886501,
			"-0.007": 9.86846262159,
			"-0.006": 15.6836805591,
			"-0.005": 21.1176408623,
			"-0.004": 32.6305847955,
			"-0.003": 43.8612695463,
			"-0.002": 47.9818880157,
			"-0.001": 38.7266930211,
			"0.0": 28.8567128044,
			"0.001": 22.4351944806,
			"0.002": 25.1631612036,
			"0.003": 25.0786552331,
			"0.004": 23.9348478771,
			"0.005": 23.9792703775,
			"0.006": 12.3032365785,
			"0.007": 3.42482308859,
			"0.008": 1.84174600936,
			"0.009": 3.00395548173,
			"0.01": 1.78351207322,
			"0.011": 2.56840251936,
			"0.012": 1.76793276019,
			"0.013": 4.94082553773,
			"0.014": 3.96618367905,
			"0.015": 0.579187546128,
			"0.016": 0.0,
			"0.017": 0.0,
			"0.018": 0.0,
			"0.019": 0.0,
			"0.02": 0.0,
			"0.021": 0.0,
			"0.022": 0.0,
			"0.023": 0.0,
			"0.024": 0.0,
			"0.025": 0.0
		}
	}
}
