{
	 "smiles": "OC(=O)C1=CC=C(CSC2=NC=C(C=C2)C(F)(F)F)O1", 
	 "Tm": 450.15, 
	 "num_atms": 28, 
	 "gaussian": { 
		 "optdone": 1, 
		 "sigma_profile": "yes", 
		 "theory": "DFT", 
		 "functional": "B3LYP", 
		 "basiset": "6-31G**", 
		 "properties": { 
			 "R2extent": 8679.184, 
			 "electric_dipole_moment_norm": 2.21000454751, 
			 "electric_quadrupole_moment_norm": 17.1948115209, 
			 "total_energy": -1440.22402003, 
			 "HOMO_LUMO_gap": 0.1797, 
			 "cosmo_polarized_energy": -14.69, 
			 "cosmo_cavitation_energy": 38.02, 
			 "cosmo_dispersion_energy": -26.45, 
			 "cosmo_repulsion_energy": 1.96, 
			 "cosmo_total_nonelectrostatic_energy": 13.53, 
			 "SMD_solvation_energy": 8.3 
		},
		"coords": [
			{
				"x": 3.1948836792,
				"y": -2.8182402775,
				"z": -0.1312389938,
				"element": "O" 
			},
			{
				"x": 2.4820961292,
				"y": -3.9495022348,
				"z": -0.3378430649,
				"element": "C" 
			},
			{
				"x": 2.9915906858,
				"y": -5.0275303326,
				"z": -0.5792425761,
				"element": "O" 
			},
			{
				"x": 1.0377696984,
				"y": -3.7467119973,
				"z": -0.2420349504,
				"element": "C" 
			},
			{
				"x": 0.0156247789,
				"y": -4.6477266113,
				"z": -0.3857136478,
				"element": "C" 
			},
			{
				"x": -1.1885878735,
				"y": -3.9168645414,
				"z": -0.1899807755,
				"element": "C" 
			},
			{
				"x": -0.8190574797,
				"y": -2.6194993658,
				"z": 0.0640691737,
				"element": "C" 
			},
			{
				"x": -1.5999720766,
				"y": -1.3908318998,
				"z": 0.3453506024,
				"element": "C" 
			},
			{
				"x": -1.6386231089,
				"y": -0.1968969134,
				"z": -1.0711025272,
				"element": "S" 
			},
			{
				"x": -0.5753415932,
				"y": 1.110602199,
				"z": -0.482317113,
				"element": "C" 
			},
			{
				"x": -0.1492373802,
				"y": 1.102222756,
				"z": 0.7789498207,
				"element": "N" 
			},
			{
				"x": 0.6303721008,
				"y": 2.1074274676,
				"z": 1.1946993911,
				"element": "C" 
			},
			{
				"x": 1.0095140245,
				"y": 3.1662155019,
				"z": 0.3741846735,
				"element": "C" 
			},
			{
				"x": 0.5572497334,
				"y": 3.1701312666,
				"z": -0.9526797364,
				"element": "C" 
			},
			{
				"x": -0.2421389046,
				"y": 2.1302792437,
				"z": -1.3949023645,
				"element": "C" 
			},
			{
				"x": 1.8453907435,
				"y": 4.2981388615,
				"z": 0.8954984236,
				"element": "C" 
			},
			{
				"x": 1.0932625919,
				"y": 5.389417543,
				"z": 1.1697612258,
				"element": "F" 
			},
			{
				"x": 2.4935754913,
				"y": 3.9656225581,
				"z": 2.0315293621,
				"element": "F" 
			},
			{
				"x": 2.7725256158,
				"y": 4.6847299791,
				"z": -0.0101232372,
				"element": "F" 
			},
			{
				"x": 0.5341674061,
				"y": -2.5047054033,
				"z": 0.0360533585,
				"element": "O" 
			},
			{
				"x": 4.1266569633,
				"y": -3.0784748462,
				"z": -0.2202225609,
				"element": "H" 
			},
			{
				"x": 0.1342709356,
				"y": -5.6983844004,
				"z": -0.6047172281,
				"element": "H" 
			},
			{
				"x": -2.2003361836,
				"y": -4.2942826335,
				"z": -0.2299916855,
				"element": "H" 
			},
			{
				"x": -2.6358315436,
				"y": -1.6505331054,
				"z": 0.5675247473,
				"element": "H" 
			},
			{
				"x": -1.1755666965,
				"y": -0.8238681911,
				"z": 1.1796037746,
				"element": "H" 
			},
			{
				"x": 0.9686163897,
				"y": 2.0602652418,
				"z": 2.2259138405,
				"element": "H" 
			},
			{
				"x": 0.8436480054,
				"y": 3.9716250526,
				"z": -1.6261787153,
				"element": "H" 
			},
			{
				"x": -0.5982221325,
				"y": 2.0926750827,
				"z": -2.4189492173,
				"element": "H" 
			}
		],
		 "valence_orbital": [ 
			{
				"type": "occ",
				"energy": -0.2948,
				"method": "rhf"
			},
			{
				"type": "occ",
				"energy": -0.2838,
				"method": "rhf"
			},
			{
				"type": "occ",
				"energy": -0.28039,
				"method": "rhf"
			},
			{
				"type": "occ",
				"energy": -0.24565,
				"method": "rhf"
			},
			{
				"type": "occ",
				"energy": -0.23247,
				"method": "rhf"
			},
			{
				"type": "unocc",
				"energy": -0.05277,
				"method": "rhf"
			},
			{
				"type": "unocc",
				"energy": -0.04545,
				"method": "rhf"
			},
			{
				"type": "unocc",
				"energy": -0.0387,
				"method": "rhf"
			},
			{
				"type": "unocc",
				"energy": 0.00781,
				"method": "rhf"
			},
			{
				"type": "unocc",
				"energy": 0.03837,
				"method": "rhf"
			}
		],
		"cosmo_sigma_profile": { 
			"-0.025": 0.0,
			"-0.024": 0.0,
			"-0.023": 0.0,
			"-0.022": 0.0,
			"-0.021": 0.0,
			"-0.02": 0.0,
			"-0.019": 0.222525620764,
			"-0.018": 1.0737359129,
			"-0.017": 0.823722606337,
			"-0.016": 0.586527503181,
			"-0.015": 0.533522389891,
			"-0.014": 0.910633789738,
			"-0.013": 0.558399554092,
			"-0.012": 1.0786984722,
			"-0.011": 0.786287974088,
			"-0.01": 0.511472265545,
			"-0.009": 2.57740351116,
			"-0.008": 10.9071700204,
			"-0.007": 14.8508246397,
			"-0.006": 10.5710625729,
			"-0.005": 11.5278708363,
			"-0.004": 13.597509287,
			"-0.003": 15.8624587327,
			"-0.002": 16.6010220084,
			"-0.001": 21.8573205736,
			"0.0": 30.0877365465,
			"0.001": 26.1802159965,
			"0.002": 35.8369540917,
			"0.003": 36.1578486211,
			"0.004": 10.6900921498,
			"0.005": 8.69797888253,
			"0.006": 8.15405102121,
			"0.007": 6.23491074139,
			"0.008": 4.28694395342,
			"0.009": 3.58571652832,
			"0.01": 3.88526536991,
			"0.011": 3.87226037442,
			"0.012": 4.7765673692,
			"0.013": 0.204290135938,
			"0.014": 0.0,
			"0.015": 0.0,
			"0.016": 0.0,
			"0.017": 0.0,
			"0.018": 0.0,
			"0.019": 0.0,
			"0.02": 0.0,
			"0.021": 0.0,
			"0.022": 0.0,
			"0.023": 0.0,
			"0.024": 0.0,
			"0.025": 0.0
		}
	}
}
