{
	 "smiles": "NC(=O)NC1=C(C=CC=C1)[N+]([O-])=O", 
	 "Tm": 460.15, 
	 "num_atms": 20, 
	 "gaussian": { 
		 "optdone": 1, 
		 "sigma_profile": "yes", 
		 "theory": "DFT", 
		 "functional": "B3LYP", 
		 "basiset": "6-31G**", 
		 "properties": { 
			 "R2extent": 3348.4513, 
			 "electric_dipole_moment_norm": 6.16872660279, 
			 "electric_quadrupole_moment_norm": 18.337630321, 
			 "total_energy": -660.814406252, 
			 "HOMO_LUMO_gap": 0.14607, 
			 "cosmo_polarized_energy": -16.63, 
			 "cosmo_cavitation_energy": 24.92, 
			 "cosmo_dispersion_energy": -18.66, 
			 "cosmo_repulsion_energy": 1.48, 
			 "cosmo_total_nonelectrostatic_energy": 7.74, 
			 "SMD_solvation_energy": 7.36 
		},
		"coords": [
			{
				"x": 1.7334134742,
				"y": 2.4628130549,
				"z": 3.3198529992,
				"element": "N" 
			},
			{
				"x": 2.3301456646,
				"y": 1.5559676287,
				"z": 2.4640089865,
				"element": "C" 
			},
			{
				"x": 3.4232593227,
				"y": 1.0619907617,
				"z": 2.6787778366,
				"element": "O" 
			},
			{
				"x": 1.6242319685,
				"y": 1.210213189,
				"z": 1.3028543204,
				"element": "N" 
			},
			{
				"x": 0.3076942283,
				"y": 1.4063258152,
				"z": 0.9220550149,
				"element": "C" 
			},
			{
				"x": -0.0942144555,
				"y": 1.3349983313,
				"z": -0.4425936385,
				"element": "C" 
			},
			{
				"x": -1.4270951102,
				"y": 1.5351973579,
				"z": -0.8245343983,
				"element": "C" 
			},
			{
				"x": -2.4020094691,
				"y": 1.798388085,
				"z": 0.1225865444,
				"element": "C" 
			},
			{
				"x": -2.0340557217,
				"y": 1.8472001081,
				"z": 1.4721945989,
				"element": "C" 
			},
			{
				"x": -0.7173721986,
				"y": 1.6525016493,
				"z": 1.8640544726,
				"element": "C" 
			},
			{
				"x": 0.8437954336,
				"y": 1.0470587096,
				"z": -1.5258817311,
				"element": "N" 
			},
			{
				"x": 0.4665482988,
				"y": 1.2264646781,
				"z": -2.681836905,
				"element": "O" 
			},
			{
				"x": 1.9769485947,
				"y": 0.6240831931,
				"z": -1.2436712408,
				"element": "O" 
			},
			{
				"x": 1.1202393575,
				"y": 3.1647354891,
				"z": 2.9285061707,
				"element": "H" 
			},
			{
				"x": 2.37791875,
				"y": 2.7993024538,
				"z": 4.021919446,
				"element": "H" 
			},
			{
				"x": 2.2087918104,
				"y": 0.7638619477,
				"z": 0.6027758921,
				"element": "H" 
			},
			{
				"x": -1.6620966291,
				"y": 1.4744244601,
				"z": -1.8793549595,
				"element": "H" 
			},
			{
				"x": -3.4326844446,
				"y": 1.9469372974,
				"z": -0.179934544,
				"element": "H" 
			},
			{
				"x": -2.7872122916,
				"y": 2.021699701,
				"z": 2.2351154343,
				"element": "H" 
			},
			{
				"x": -0.4641465831,
				"y": 1.6504360891,
				"z": 2.9163057007,
				"element": "H" 
			}
		],
		 "valence_orbital": [ 
			{
				"type": "occ",
				"energy": -0.30115,
				"method": "rhf"
			},
			{
				"type": "occ",
				"energy": -0.2913,
				"method": "rhf"
			},
			{
				"type": "occ",
				"energy": -0.28712,
				"method": "rhf"
			},
			{
				"type": "occ",
				"energy": -0.27219,
				"method": "rhf"
			},
			{
				"type": "occ",
				"energy": -0.24265,
				"method": "rhf"
			},
			{
				"type": "unocc",
				"energy": -0.09658,
				"method": "rhf"
			},
			{
				"type": "unocc",
				"energy": -0.03217,
				"method": "rhf"
			},
			{
				"type": "unocc",
				"energy": -0.01035,
				"method": "rhf"
			},
			{
				"type": "unocc",
				"energy": 0.0442,
				"method": "rhf"
			},
			{
				"type": "unocc",
				"energy": 0.07307,
				"method": "rhf"
			}
		],
		"cosmo_sigma_profile": { 
			"-0.025": 0.0,
			"-0.024": 0.0,
			"-0.023": 0.0,
			"-0.022": 0.0,
			"-0.021": 0.0,
			"-0.02": 0.0,
			"-0.019": 0.0,
			"-0.018": 0.0,
			"-0.017": 0.0,
			"-0.016": 0.0,
			"-0.015": 0.0220549729014,
			"-0.014": 1.58052630134,
			"-0.013": 2.02034747405,
			"-0.012": 2.81697069404,
			"-0.011": 2.61904145952,
			"-0.01": 2.21225546627,
			"-0.009": 2.62104735291,
			"-0.008": 2.70211098069,
			"-0.007": 7.45281234789,
			"-0.006": 12.3391173204,
			"-0.005": 14.6425075825,
			"-0.004": 10.2932570655,
			"-0.003": 13.9300974165,
			"-0.002": 13.5937731708,
			"-0.001": 11.2557726023,
			"0.0": 14.0448203878,
			"0.001": 13.6156792915,
			"0.002": 11.9653808769,
			"0.003": 9.66845195327,
			"0.004": 4.28189855357,
			"0.005": 3.91896350785,
			"0.006": 5.54601884491,
			"0.007": 7.31120653263,
			"0.008": 6.81368354939,
			"0.009": 5.39589187646,
			"0.01": 4.54135007122,
			"0.011": 1.25812903033,
			"0.012": 2.90899410101,
			"0.013": 6.20843880363,
			"0.014": 2.16531780702,
			"0.015": 0.0,
			"0.016": 0.0,
			"0.017": 0.0,
			"0.018": 0.0,
			"0.019": 0.0,
			"0.02": 0.0,
			"0.021": 0.0,
			"0.022": 0.0,
			"0.023": 0.0,
			"0.024": 0.0,
			"0.025": 0.0
		}
	}
}
