{
	 "smiles": "O=C(NCC#C)C1=CC(=CC=C1)C#N", 
	 "Tm": 406.15, 
	 "num_atms": 22, 
	 "gaussian": { 
		 "optdone": 1, 
		 "sigma_profile": "yes", 
		 "theory": "DFT", 
		 "functional": "B3LYP", 
		 "basiset": "6-31G**", 
		 "properties": { 
			 "R2extent": 3056.3137, 
			 "electric_dipole_moment_norm": 3.22191039137, 
			 "electric_quadrupole_moment_norm": 25.2103995198, 
			 "total_energy": -608.632135389, 
			 "HOMO_LUMO_gap": 0.19601, 
			 "cosmo_polarized_energy": -17.17, 
			 "cosmo_cavitation_energy": 29.07, 
			 "cosmo_dispersion_energy": -19.27, 
			 "cosmo_repulsion_energy": 1.52, 
			 "cosmo_total_nonelectrostatic_energy": 11.32, 
			 "SMD_solvation_energy": 7.95 
		},
		"coords": [
			{
				"x": 1.9883053661,
				"y": -1.8755511852,
				"z": 1.5116543859,
				"element": "O" 
			},
			{
				"x": 0.9958746789,
				"y": -1.2053243437,
				"z": 1.2493256263,
				"element": "C" 
			},
			{
				"x": -0.1471755461,
				"y": -1.3251982385,
				"z": 2.0025515468,
				"element": "N" 
			},
			{
				"x": -1.5119457193,
				"y": -0.9149105268,
				"z": 1.6824397279,
				"element": "C" 
			},
			{
				"x": -1.9933621115,
				"y": 0.2253400593,
				"z": 2.4739135567,
				"element": "C" 
			},
			{
				"x": -2.3889130422,
				"y": 1.1649437065,
				"z": 3.1206978182,
				"element": "C" 
			},
			{
				"x": 1.0225277942,
				"y": -0.2253880562,
				"z": 0.1049883651,
				"element": "C" 
			},
			{
				"x": 0.4170860524,
				"y": 1.0336213495,
				"z": 0.1552397446,
				"element": "C" 
			},
			{
				"x": 0.568140347,
				"y": 1.9254495068,
				"z": -0.9203891921,
				"element": "C" 
			},
			{
				"x": 1.3189059438,
				"y": 1.5546979253,
				"z": -2.0475037235,
				"element": "C" 
			},
			{
				"x": 1.9306197979,
				"y": 0.3029407726,
				"z": -2.084820276,
				"element": "C" 
			},
			{
				"x": 1.7967627827,
				"y": -0.5749565961,
				"z": -1.011651483,
				"element": "C" 
			},
			{
				"x": -0.0468532686,
				"y": 3.2207465673,
				"z": -0.8633066973,
				"element": "C" 
			},
			{
				"x": -0.5476927022,
				"y": 4.2696868186,
				"z": -0.8203966395,
				"element": "N" 
			},
			{
				"x": -0.0289453543,
				"y": -1.9634797515,
				"z": 2.778978233,
				"element": "H" 
			},
			{
				"x": -2.1787182683,
				"y": -1.7721197461,
				"z": 1.8390030707,
				"element": "H" 
			},
			{
				"x": -1.5685990534,
				"y": -0.6755358781,
				"z": 0.616539352,
				"element": "H" 
			},
			{
				"x": -2.7346489774,
				"y": 1.9961243824,
				"z": 3.6916077899,
				"element": "H" 
			},
			{
				"x": -0.1515948117,
				"y": 1.3468308738,
				"z": 1.0242516041,
				"element": "H" 
			},
			{
				"x": 1.4233673552,
				"y": 2.2494417018,
				"z": -2.8741205302,
				"element": "H" 
			},
			{
				"x": 2.5212950619,
				"y": 0.0173856341,
				"z": -2.9495263399,
				"element": "H" 
			},
			{
				"x": 2.2951636749,
				"y": -1.5383449758,
				"z": -1.0124759397,
				"element": "H" 
			}
		],
		 "valence_orbital": [ 
			{
				"type": "occ",
				"energy": -0.28831,
				"method": "rhf"
			},
			{
				"type": "occ",
				"energy": -0.28257,
				"method": "rhf"
			},
			{
				"type": "occ",
				"energy": -0.27596,
				"method": "rhf"
			},
			{
				"type": "occ",
				"energy": -0.27145,
				"method": "rhf"
			},
			{
				"type": "occ",
				"energy": -0.25803,
				"method": "rhf"
			},
			{
				"type": "unocc",
				"energy": -0.06202,
				"method": "rhf"
			},
			{
				"type": "unocc",
				"energy": -0.04694,
				"method": "rhf"
			},
			{
				"type": "unocc",
				"energy": 0.02158,
				"method": "rhf"
			},
			{
				"type": "unocc",
				"energy": 0.027,
				"method": "rhf"
			},
			{
				"type": "unocc",
				"energy": 0.03274,
				"method": "rhf"
			}
		],
		"cosmo_sigma_profile": { 
			"-0.025": 0.0,
			"-0.024": 0.0,
			"-0.023": 0.0,
			"-0.022": 0.0,
			"-0.021": 0.0,
			"-0.02": 0.0,
			"-0.019": 0.0,
			"-0.018": 0.0,
			"-0.017": 0.0,
			"-0.016": 0.0,
			"-0.015": 0.18434227145,
			"-0.014": 1.33099999186,
			"-0.013": 1.26039063254,
			"-0.012": 2.08828388057,
			"-0.011": 2.3344854745,
			"-0.01": 1.90521494726,
			"-0.009": 3.33815771354,
			"-0.008": 9.32136633236,
			"-0.007": 12.2885012943,
			"-0.006": 14.3451198385,
			"-0.005": 13.1948258809,
			"-0.004": 11.5811797594,
			"-0.003": 14.7771428756,
			"-0.002": 14.7308541473,
			"-0.001": 14.5763452584,
			"0.0": 15.964684522,
			"0.001": 17.0873902952,
			"0.002": 13.3768272667,
			"0.003": 8.6712931373,
			"0.004": 7.88084297947,
			"0.005": 9.44387088788,
			"0.006": 9.49349144674,
			"0.007": 4.92737443907,
			"0.008": 4.44788224501,
			"0.009": 5.24930063176,
			"0.01": 4.361608276,
			"0.011": 4.52180522035,
			"0.012": 4.56255628932,
			"0.013": 6.83457622582,
			"0.014": 1.61223551298,
			"0.015": 0.0,
			"0.016": 0.0,
			"0.017": 0.0,
			"0.018": 0.0,
			"0.019": 0.0,
			"0.02": 0.0,
			"0.021": 0.0,
			"0.022": 0.0,
			"0.023": 0.0,
			"0.024": 0.0,
			"0.025": 0.0
		}
	}
}
