{
	 "smiles": "NC1=C(I)C=CC(F)=C1", 
	 "Tm": 314.15, 
	 "num_atms": 14, 
	 "gaussian": { 
		 "optdone": 1, 
		 "sigma_profile": "no", 
		 "theory": "DFT", 
		 "functional": "B3LYP", 
		 "basiset": "6-31G**", 
		 "properties": { 
			 "R2extent": 1470.8007, 
			 "electric_dipole_moment_norm": 1.71494646272, 
			 "electric_quadrupole_moment_norm": 9.94897096789, 
			 "total_energy": -397.625604596, 
			 "HOMO_LUMO_gap": 0.1759, 
			 "cosmo_polarized_energy": -86857.58, 
			 "cosmo_cavitation_energy": 21.43, 
			 "cosmo_dispersion_energy": -17.43, 
			 "cosmo_repulsion_energy": 1.36, 
			 "cosmo_total_nonelectrostatic_energy": 5.36, 
			 "SMD_solvation_energy": 3.3 
		},
		"coords": [
			{
				"x": -1.9988272016,
				"y": -0.2220461556,
				"z": 1.57047805,
				"element": "N" 
			},
			{
				"x": -0.8457358996,
				"y": 0.3332187471,
				"z": 1.0494003409,
				"element": "C" 
			},
			{
				"x": -0.7577109805,
				"y": 0.8211443612,
				"z": -0.2730398043,
				"element": "C" 
			},
			{
				"x": -2.4690717342,
				"y": 0.8137458295,
				"z": -1.5329356582,
				"element": "I" 
			},
			{
				"x": 0.4395191382,
				"y": 1.3228383382,
				"z": -0.7836333535,
				"element": "C" 
			},
			{
				"x": 1.591524588,
				"y": 1.3596481115,
				"z": -0.0002272237,
				"element": "C" 
			},
			{
				"x": 1.4993944065,
				"y": 0.8803157936,
				"z": 1.3021843584,
				"element": "C" 
			},
			{
				"x": 2.5966321689,
				"y": 0.9053034612,
				"z": 2.0866848096,
				"element": "F" 
			},
			{
				"x": 0.3245470234,
				"y": 0.3777459129,
				"z": 1.8339709765,
				"element": "C" 
			},
			{
				"x": -2.8667304652,
				"y": 0.0189174092,
				"z": 1.1125928577,
				"element": "H" 
			},
			{
				"x": -2.0618096094,
				"y": -0.2541262165,
				"z": 2.5771396246,
				"element": "H" 
			},
			{
				"x": 0.4736219367,
				"y": 1.6912583363,
				"z": -1.8027222877,
				"element": "H" 
			},
			{
				"x": 2.5298134633,
				"y": 1.7459828464,
				"z": -0.3795441499,
				"element": "H" 
			},
			{
				"x": 0.3162331657,
				"y": 0.0113532249,
				"z": 2.8554514595,
				"element": "H" 
			}
		],
		 "valence_orbital": [ 
			{
				"type": "occ",
				"energy": -0.3211,
				"method": "rhf"
			},
			{
				"type": "occ",
				"energy": -0.29116,
				"method": "rhf"
			},
			{
				"type": "occ",
				"energy": -0.27505,
				"method": "rhf"
			},
			{
				"type": "occ",
				"energy": -0.24272,
				"method": "rhf"
			},
			{
				"type": "occ",
				"energy": -0.21557,
				"method": "rhf"
			},
			{
				"type": "unocc",
				"energy": -0.03967,
				"method": "rhf"
			},
			{
				"type": "unocc",
				"energy": -0.01282,
				"method": "rhf"
			},
			{
				"type": "unocc",
				"energy": 0.004,
				"method": "rhf"
			},
			{
				"type": "unocc",
				"energy": 0.0349,
				"method": "rhf"
			},
			{
				"type": "unocc",
				"energy": 0.05007,
				"method": "rhf"
			}
		],
		"cosmo_sigma_profile": { 
			"0.0": 0.0,
			"0.0": 0.0,
			"0.0": 0.0,
			"0.0": 0.0,
			"0.0": 0.0,
			"0.0": 0.0,
			"0.0": 0.0,
			"0.0": 0.0,
			"0.0": 0.0,
			"0.0": 0.0,
			"0.0": 0.0,
			"0.0": 0.0,
			"0.0": 0.0,
			"0.0": 0.0,
			"0.0": 0.0,
			"0.0": 0.0,
			"0.0": 0.0,
			"0.0": 0.0,
			"0.0": 0.0,
			"0.0": 0.0,
			"0.0": 0.0,
			"0.0": 0.0,
			"0.0": 0.0,
			"0.0": 0.0,
			"0.0": 0.0,
			"0.0": 0.0,
			"0.0": 0.0,
			"0.0": 0.0,
			"0.0": 0.0,
			"0.0": 0.0,
			"0.0": 0.0,
			"0.0": 0.0,
			"0.0": 0.0,
			"0.0": 0.0,
			"0.0": 0.0,
			"0.0": 0.0,
			"0.0": 0.0,
			"0.0": 0.0,
			"0.0": 0.0,
			"0.0": 0.0,
			"0.0": 0.0,
			"0.0": 0.0,
			"0.0": 0.0,
			"0.0": 0.0,
			"0.0": 0.0,
			"0.0": 0.0,
			"0.0": 0.0,
			"0.0": 0.0,
			"0.0": 0.0,
			"0.0": 0.0,
			"0.0": 0.0
		}
	}
}
