{
	 "smiles": "NC1=NC2=C(C=CC=C2)N1CC1=CC=C(F)C=C1", 
	 "Tm": 465.15, 
	 "num_atms": 30, 
	 "gaussian": { 
		 "optdone": 1, 
		 "sigma_profile": "yes", 
		 "theory": "DFT", 
		 "functional": "B3LYP", 
		 "basiset": "6-31G**", 
		 "properties": { 
			 "R2extent": 5624.3066, 
			 "electric_dipole_moment_norm": 3.34733289351, 
			 "electric_quadrupole_moment_norm": 14.8682517637, 
			 "total_energy": -804.830536446, 
			 "HOMO_LUMO_gap": 0.17243, 
			 "cosmo_polarized_energy": -15.1, 
			 "cosmo_cavitation_energy": 34.45, 
			 "cosmo_dispersion_energy": -24.34, 
			 "cosmo_repulsion_energy": 1.84, 
			 "cosmo_total_nonelectrostatic_energy": 11.95, 
			 "SMD_solvation_energy": 4.03 
		},
		"coords": [
			{
				"x": 0.1055596251,
				"y": 2.465069175,
				"z": -1.5633049243,
				"element": "N" 
			},
			{
				"x": -0.5207913999,
				"y": 1.9563011897,
				"z": -0.43953563,
				"element": "C" 
			},
			{
				"x": -0.4701355626,
				"y": 2.4806165531,
				"z": 0.7614303824,
				"element": "N" 
			},
			{
				"x": -1.313217201,
				"y": 1.6821590627,
				"z": 1.5253411681,
				"element": "C" 
			},
			{
				"x": -1.8656088463,
				"y": 0.6423183953,
				"z": 0.7368358687,
				"element": "C" 
			},
			{
				"x": -2.7309563678,
				"y": -0.3166525394,
				"z": 1.2575294258,
				"element": "C" 
			},
			{
				"x": -3.0513079973,
				"y": -0.209817178,
				"z": 2.6135756665,
				"element": "C" 
			},
			{
				"x": -2.5153434759,
				"y": 0.8158636388,
				"z": 3.4105247236,
				"element": "C" 
			},
			{
				"x": -1.6443534714,
				"y": 1.7682019046,
				"z": 2.8806245671,
				"element": "C" 
			},
			{
				"x": -1.341914274,
				"y": 0.8458981635,
				"z": -0.5414168912,
				"element": "N" 
			},
			{
				"x": -1.6553437831,
				"y": 0.1258151627,
				"z": -1.7643578927,
				"element": "C" 
			},
			{
				"x": -0.5258385244,
				"y": -0.7589378729,
				"z": -2.2712168172,
				"element": "C" 
			},
			{
				"x": -0.2307673456,
				"y": -0.8097554073,
				"z": -3.6391102256,
				"element": "C" 
			},
			{
				"x": 0.7758601105,
				"y": -1.6442428901,
				"z": -4.1289310711,
				"element": "C" 
			},
			{
				"x": 1.4884533422,
				"y": -2.4244256718,
				"z": -3.2269838461,
				"element": "C" 
			},
			{
				"x": 2.466353077,
				"y": -3.2299915721,
				"z": -3.6873204033,
				"element": "F" 
			},
			{
				"x": 1.227167406,
				"y": -2.3931715085,
				"z": -1.8602212541,
				"element": "C" 
			},
			{
				"x": 0.2167914567,
				"y": -1.5573881874,
				"z": -1.3891273606,
				"element": "C" 
			},
			{
				"x": 0.5541178714,
				"y": 1.7710441165,
				"z": -2.1506565027,
				"element": "H" 
			},
			{
				"x": 0.7361575164,
				"y": 3.2164520101,
				"z": -1.3130548741,
				"element": "H" 
			},
			{
				"x": -3.1459554253,
				"y": -1.1139899771,
				"z": 0.6473147438,
				"element": "H" 
			},
			{
				"x": -3.726319996,
				"y": -0.9354829544,
				"z": 3.0574421553,
				"element": "H" 
			},
			{
				"x": -2.7854134153,
				"y": 0.8654849662,
				"z": 4.4614078063,
				"element": "H" 
			},
			{
				"x": -1.2274125093,
				"y": 2.5608902536,
				"z": 3.4935983594,
				"element": "H" 
			},
			{
				"x": -1.929829839,
				"y": 0.8513179288,
				"z": -2.5386457887,
				"element": "H" 
			},
			{
				"x": -2.5490268782,
				"y": -0.4739111846,
				"z": -1.5626091071,
				"element": "H" 
			},
			{
				"x": -0.7943378442,
				"y": -0.1927680356,
				"z": -4.3347448424,
				"element": "H" 
			},
			{
				"x": 1.0145110256,
				"y": -1.6907229068,
				"z": -5.1858648629,
				"element": "H" 
			},
			{
				"x": 1.8102817063,
				"y": -3.0146944242,
				"z": -1.1893472706,
				"element": "H" 
			},
			{
				"x": 0.0063210194,
				"y": -1.5194802104,
				"z": -0.3242753024,
				"element": "H" 
			}
		],
		 "valence_orbital": [ 
			{
				"type": "occ",
				"energy": -0.27474,
				"method": "rhf"
			},
			{
				"type": "occ",
				"energy": -0.26518,
				"method": "rhf"
			},
			{
				"type": "occ",
				"energy": -0.255,
				"method": "rhf"
			},
			{
				"type": "occ",
				"energy": -0.21548,
				"method": "rhf"
			},
			{
				"type": "occ",
				"energy": -0.19925,
				"method": "rhf"
			},
			{
				"type": "unocc",
				"energy": -0.02682,
				"method": "rhf"
			},
			{
				"type": "unocc",
				"energy": -0.01688,
				"method": "rhf"
			},
			{
				"type": "unocc",
				"energy": 0.00276,
				"method": "rhf"
			},
			{
				"type": "unocc",
				"energy": 0.02969,
				"method": "rhf"
			},
			{
				"type": "unocc",
				"energy": 0.06068,
				"method": "rhf"
			}
		],
		"cosmo_sigma_profile": { 
			"-0.025": 0.0,
			"-0.024": 0.0,
			"-0.023": 0.0,
			"-0.022": 0.0,
			"-0.021": 0.0,
			"-0.02": 0.0,
			"-0.019": 0.0,
			"-0.018": 0.0,
			"-0.017": 0.0,
			"-0.016": 0.0,
			"-0.015": 0.0,
			"-0.014": 0.12507598289,
			"-0.013": 1.13312047993,
			"-0.012": 1.17646403487,
			"-0.011": 2.47588355394,
			"-0.01": 2.20587395593,
			"-0.009": 2.14361181422,
			"-0.008": 3.97473765541,
			"-0.007": 11.3048838881,
			"-0.006": 15.7547096274,
			"-0.005": 19.4878562744,
			"-0.004": 19.9901450445,
			"-0.003": 17.4767619635,
			"-0.002": 19.0145693655,
			"-0.001": 13.7967554598,
			"0.0": 16.7387022024,
			"0.001": 19.675917779,
			"0.002": 19.0259909151,
			"0.003": 18.8718530006,
			"0.004": 22.5925867968,
			"0.005": 14.171644675,
			"0.006": 10.7326133007,
			"0.007": 8.50333230006,
			"0.008": 2.75199246006,
			"0.009": 1.83031194955,
			"0.01": 1.83094093672,
			"0.011": 1.64925768758,
			"0.012": 1.94861663527,
			"0.013": 1.16811529496,
			"0.014": 0.914286356197,
			"0.015": 0.866995145127,
			"0.016": 1.06147094324,
			"0.017": 1.14072031944,
			"0.018": 0.364722796847,
			"0.019": 0.0,
			"0.02": 0.0,
			"0.021": 0.0,
			"0.022": 0.0,
			"0.023": 0.0,
			"0.024": 0.0,
			"0.025": 0.0
		}
	}
}
