{
	 "smiles": "OC(=O)CC1=CC=C(C=C1)N1CCCC1=O", 
	 "Tm": 394.15, 
	 "num_atms": 29, 
	 "gaussian": { 
		 "optdone": 1, 
		 "sigma_profile": "yes", 
		 "theory": "DFT", 
		 "functional": "B3LYP", 
		 "basiset": "6-31G**", 
		 "properties": { 
			 "R2extent": 5734.9705, 
			 "electric_dipole_moment_norm": 6.75641782678, 
			 "electric_quadrupole_moment_norm": 21.6630995405, 
			 "total_energy": -745.568565461, 
			 "HOMO_LUMO_gap": 0.19838, 
			 "cosmo_polarized_energy": -18.78, 
			 "cosmo_cavitation_energy": 32.24, 
			 "cosmo_dispersion_energy": -23.61, 
			 "cosmo_repulsion_energy": 1.84, 
			 "cosmo_total_nonelectrostatic_energy": 10.47, 
			 "SMD_solvation_energy": 6.47 
		},
		"coords": [
			{
				"x": 2.7752334669,
				"y": -2.8270215078,
				"z": 1.7194374393,
				"element": "O" 
			},
			{
				"x": 3.1455465827,
				"y": -3.1680286249,
				"z": 0.4638851276,
				"element": "C" 
			},
			{
				"x": 4.2697728907,
				"y": -3.5322342542,
				"z": 0.2251951299,
				"element": "O" 
			},
			{
				"x": 2.0482550291,
				"y": -3.1089511831,
				"z": -0.6140623084,
				"element": "C" 
			},
			{
				"x": 0.868916043,
				"y": -2.2158491702,
				"z": -0.3061486879,
				"element": "C" 
			},
			{
				"x": -0.265774242,
				"y": -2.7063857256,
				"z": 0.3587230267,
				"element": "C" 
			},
			{
				"x": -1.3437245539,
				"y": -1.8871583495,
				"z": 0.686416225,
				"element": "C" 
			},
			{
				"x": -1.3177373161,
				"y": -0.5223964296,
				"z": 0.3437167262,
				"element": "C" 
			},
			{
				"x": -0.1881726626,
				"y": -0.0221891865,
				"z": -0.3307026285,
				"element": "C" 
			},
			{
				"x": 0.8815500782,
				"y": -0.8563110091,
				"z": -0.6428282713,
				"element": "C" 
			},
			{
				"x": -2.3819703558,
				"y": 0.3486525303,
				"z": 0.6641290759,
				"element": "N" 
			},
			{
				"x": -2.2769177637,
				"y": 1.7988855695,
				"z": 0.4515527904,
				"element": "C" 
			},
			{
				"x": -3.4990940966,
				"y": 2.3733386582,
				"z": 1.1894926803,
				"element": "C" 
			},
			{
				"x": -4.5167566319,
				"y": 1.2300196379,
				"z": 1.141388902,
				"element": "C" 
			},
			{
				"x": -3.6641524083,
				"y": -0.032532276,
				"z": 1.0579676196,
				"element": "C" 
			},
			{
				"x": -4.0488633488,
				"y": -1.1679758215,
				"z": 1.2768020528,
				"element": "O" 
			},
			{
				"x": 1.8536702369,
				"y": -2.5197656585,
				"z": 1.7112553446,
				"element": "H" 
			},
			{
				"x": 1.7152649082,
				"y": -4.1440098108,
				"z": -0.7606907785,
				"element": "H" 
			},
			{
				"x": 2.5487231899,
				"y": -2.8129995265,
				"z": -1.53949828,
				"element": "H" 
			},
			{
				"x": -0.3183217245,
				"y": -3.7612814229,
				"z": 0.6194967136,
				"element": "H" 
			},
			{
				"x": -2.2115913763,
				"y": -2.2925131617,
				"z": 1.1854549492,
				"element": "H" 
			},
			{
				"x": -0.1386919558,
				"y": 1.0187447297,
				"z": -0.6267313623,
				"element": "H" 
			},
			{
				"x": 1.7396743887,
				"y": -0.4400295827,
				"z": -1.1643427663,
				"element": "H" 
			},
			{
				"x": -1.332793334,
				"y": 2.1761938933,
				"z": 0.8548337474,
				"element": "H" 
			},
			{
				"x": -2.3027329048,
				"y": 2.0327038743,
				"z": -0.6220712063,
				"element": "H" 
			},
			{
				"x": -3.231005649,
				"y": 2.5950968826,
				"z": 2.2271459922,
				"element": "H" 
			},
			{
				"x": -3.853124301,
				"y": 3.299077684,
				"z": 0.730488561,
				"element": "H" 
			},
			{
				"x": -5.1865750013,
				"y": 1.1746767187,
				"z": 2.0016365953,
				"element": "H" 
			},
			{
				"x": -5.1422071879,
				"y": 1.2715425225,
				"z": 0.2406575903,
				"element": "H" 
			}
		],
		 "valence_orbital": [ 
			{
				"type": "occ",
				"energy": -0.30512,
				"method": "rhf"
			},
			{
				"type": "occ",
				"energy": -0.26882,
				"method": "rhf"
			},
			{
				"type": "occ",
				"energy": -0.26478,
				"method": "rhf"
			},
			{
				"type": "occ",
				"energy": -0.25975,
				"method": "rhf"
			},
			{
				"type": "occ",
				"energy": -0.22774,
				"method": "rhf"
			},
			{
				"type": "unocc",
				"energy": -0.02936,
				"method": "rhf"
			},
			{
				"type": "unocc",
				"energy": -0.02181,
				"method": "rhf"
			},
			{
				"type": "unocc",
				"energy": 0.02012,
				"method": "rhf"
			},
			{
				"type": "unocc",
				"energy": 0.02685,
				"method": "rhf"
			},
			{
				"type": "unocc",
				"energy": 0.07047,
				"method": "rhf"
			}
		],
		"cosmo_sigma_profile": { 
			"-0.025": 0.0,
			"-0.024": 0.0,
			"-0.023": 0.0,
			"-0.022": 0.0,
			"-0.021": 0.0,
			"-0.02": 0.0,
			"-0.019": 0.0,
			"-0.018": 0.0,
			"-0.017": 0.0,
			"-0.016": 0.0,
			"-0.015": 0.0,
			"-0.014": 0.0206283647028,
			"-0.013": 0.618421217857,
			"-0.012": 0.760164733138,
			"-0.011": 0.59645105392,
			"-0.01": 1.04888980231,
			"-0.009": 1.39638068838,
			"-0.008": 2.99134683966,
			"-0.007": 8.67616463016,
			"-0.006": 19.7302854949,
			"-0.005": 25.964179245,
			"-0.004": 30.9406177281,
			"-0.003": 23.0104558299,
			"-0.002": 17.7581726679,
			"-0.001": 13.3299755481,
			"0.0": 12.2093398958,
			"0.001": 9.84921863484,
			"0.002": 10.5884332693,
			"0.003": 11.3796916567,
			"0.004": 11.170404328,
			"0.005": 7.105004722,
			"0.006": 3.55680909348,
			"0.007": 5.33531197407,
			"0.008": 3.49486985921,
			"0.009": 4.12582174331,
			"0.01": 6.07439444985,
			"0.011": 7.22116065345,
			"0.012": 9.01228770421,
			"0.013": 5.94244399143,
			"0.014": 1.64464360882,
			"0.015": 0.0266354926362,
			"0.016": 0.0,
			"0.017": 0.0,
			"0.018": 0.0,
			"0.019": 0.0,
			"0.02": 0.0,
			"0.021": 0.0,
			"0.022": 0.0,
			"0.023": 0.0,
			"0.024": 0.0,
			"0.025": 0.0
		}
	}
}
