{
	 "smiles": "OC(=O)C1CC2CCCC(C1)C2=O", 
	 "Tm": 403.15, 
	 "num_atms": 27, 
	 "gaussian": { 
		 "optdone": 1, 
		 "sigma_profile": "yes", 
		 "theory": "DFT", 
		 "functional": "B3LYP", 
		 "basiset": "6-31G**", 
		 "properties": { 
			 "R2extent": 2362.5429, 
			 "electric_dipole_moment_norm": 6.4761152445, 
			 "electric_quadrupole_moment_norm": 16.3731222688, 
			 "total_energy": -615.181131817, 
			 "HOMO_LUMO_gap": 0.21403, 
			 "cosmo_polarized_energy": -20.93, 
			 "cosmo_cavitation_energy": 26.91, 
			 "cosmo_dispersion_energy": -19.96, 
			 "cosmo_repulsion_energy": 1.56, 
			 "cosmo_total_nonelectrostatic_energy": 8.51, 
			 "SMD_solvation_energy": 5.14 
		},
		"coords": [
			{
				"x": 1.7673350697,
				"y": -3.5808763627,
				"z": -0.3382967752,
				"element": "O" 
			},
			{
				"x": 1.4555951865,
				"y": -2.4710037059,
				"z": 0.3851466166,
				"element": "C" 
			},
			{
				"x": 2.3358719721,
				"y": -1.81430837,
				"z": 0.8819794531,
				"element": "O" 
			},
			{
				"x": -0.0444894768,
				"y": -2.1750757714,
				"z": 0.5394275292,
				"element": "C" 
			},
			{
				"x": -0.263594508,
				"y": -0.9518526175,
				"z": 1.4495389594,
				"element": "C" 
			},
			{
				"x": -0.0124826315,
				"y": 0.4147558222,
				"z": 0.7388026012,
				"element": "C" 
			},
			{
				"x": -1.3060078054,
				"y": 1.275158253,
				"z": 0.6400733677,
				"element": "C" 
			},
			{
				"x": -2.3761654142,
				"y": 0.6219333858,
				"z": -0.2526748689,
				"element": "C" 
			},
			{
				"x": -1.8180634141,
				"y": 0.2119620068,
				"z": -1.6269850979,
				"element": "C" 
			},
			{
				"x": -0.5184078505,
				"y": -0.6356665063,
				"z": -1.5062819376,
				"element": "C" 
			},
			{
				"x": -0.7731265905,
				"y": -2.0130796269,
				"z": -0.8212138397,
				"element": "C" 
			},
			{
				"x": 0.4498323789,
				"y": 0.2250980695,
				"z": -0.6985956111,
				"element": "C" 
			},
			{
				"x": 1.3992117735,
				"y": 0.7993016429,
				"z": -1.192291593,
				"element": "O" 
			},
			{
				"x": 0.9628330196,
				"y": -4.0195639691,
				"z": -0.6485127468,
				"element": "H" 
			},
			{
				"x": -0.4637646916,
				"y": -3.0618907692,
				"z": 1.0377748227,
				"element": "H" 
			},
			{
				"x": -1.289165535,
				"y": -0.9899663383,
				"z": 1.8329962162,
				"element": "H" 
			},
			{
				"x": 0.4033423071,
				"y": -1.0367307583,
				"z": 2.3096298653,
				"element": "H" 
			},
			{
				"x": 0.7605881908,
				"y": 0.9789621574,
				"z": 1.2645839335,
				"element": "H" 
			},
			{
				"x": -1.0362250016,
				"y": 2.2565804568,
				"z": 0.2300581866,
				"element": "H" 
			},
			{
				"x": -1.7045528101,
				"y": 1.4517154345,
				"z": 1.6466202123,
				"element": "H" 
			},
			{
				"x": -2.7925101579,
				"y": -0.2579238066,
				"z": 0.2541710954,
				"element": "H" 
			},
			{
				"x": -3.2171876991,
				"y": 1.3114839587,
				"z": -0.387852864,
				"element": "H" 
			},
			{
				"x": -2.5703977844,
				"y": -0.3486769347,
				"z": -2.1956681004,
				"element": "H" 
			},
			{
				"x": -1.5847837316,
				"y": 1.110774702,
				"z": -2.2113027517,
				"element": "H" 
			},
			{
				"x": -0.0878885019,
				"y": -0.7753813088,
				"z": -2.5013370311,
				"element": "H" 
			},
			{
				"x": -0.4850820123,
				"y": -2.814936021,
				"z": -1.5109564025,
				"element": "H" 
			},
			{
				"x": -1.845714282,
				"y": -2.1487930228,
				"z": -0.6455332393,
				"element": "H" 
			}
		],
		 "valence_orbital": [ 
			{
				"type": "occ",
				"energy": -0.32134,
				"method": "rhf"
			},
			{
				"type": "occ",
				"energy": -0.31664,
				"method": "rhf"
			},
			{
				"type": "occ",
				"energy": -0.31322,
				"method": "rhf"
			},
			{
				"type": "occ",
				"energy": -0.27115,
				"method": "rhf"
			},
			{
				"type": "occ",
				"energy": -0.23114,
				"method": "rhf"
			},
			{
				"type": "unocc",
				"energy": -0.01711,
				"method": "rhf"
			},
			{
				"type": "unocc",
				"energy": 0.01052,
				"method": "rhf"
			},
			{
				"type": "unocc",
				"energy": 0.03998,
				"method": "rhf"
			},
			{
				"type": "unocc",
				"energy": 0.07538,
				"method": "rhf"
			},
			{
				"type": "unocc",
				"energy": 0.08781,
				"method": "rhf"
			}
		],
		"cosmo_sigma_profile": { 
			"-0.025": 0.0,
			"-0.024": 0.0,
			"-0.023": 0.0,
			"-0.022": 0.0,
			"-0.021": 0.0,
			"-0.02": 0.0,
			"-0.019": 0.169913460956,
			"-0.018": 1.15241253624,
			"-0.017": 1.02685022262,
			"-0.016": 1.09028164327,
			"-0.015": 1.11819491132,
			"-0.014": 0.710218207197,
			"-0.013": 0.793822944377,
			"-0.012": 1.17171406597,
			"-0.011": 1.45350873261,
			"-0.01": 1.37520423798,
			"-0.009": 0.861293529458,
			"-0.008": 1.8088603765,
			"-0.007": 3.61950404891,
			"-0.006": 4.43024901835,
			"-0.005": 10.1695332305,
			"-0.004": 21.8096952893,
			"-0.003": 30.615415858,
			"-0.002": 26.7248900416,
			"-0.001": 22.1597848454,
			"0.0": 14.0515238246,
			"0.001": 3.46233535096,
			"0.002": 2.70306673207,
			"0.003": 2.90984470733,
			"0.004": 3.34056800372,
			"0.005": 3.14318873534,
			"0.006": 3.40889181319,
			"0.007": 3.40532518081,
			"0.008": 4.52881936275,
			"0.009": 5.62899299767,
			"0.01": 7.09379518102,
			"0.011": 8.32378391424,
			"0.012": 9.05108469888,
			"0.013": 4.50977000918,
			"0.014": 0.653156170621,
			"0.015": 0.0,
			"0.016": 0.0,
			"0.017": 0.0,
			"0.018": 0.0,
			"0.019": 0.0,
			"0.02": 0.0,
			"0.021": 0.0,
			"0.022": 0.0,
			"0.023": 0.0,
			"0.024": 0.0,
			"0.0": 0.0
		}
	}
}
