{
	 "smiles": "CC1=CC(N2N=C(CCC2=O)C(O)=O)=C(C)C=C1", 
	 "Tm": 423.15, 
	 "num_atms": 32, 
	 "gaussian": { 
		 "optdone": 1, 
		 "sigma_profile": "yes", 
		 "theory": "DFT", 
		 "functional": "B3LYP", 
		 "basiset": "6-31G**", 
		 "properties": { 
			 "R2extent": 4937.5155, 
			 "electric_dipole_moment_norm": 2.93338983942, 
			 "electric_quadrupole_moment_norm": 26.4261189979, 
			 "total_energy": -839.001704791, 
			 "HOMO_LUMO_gap": 0.16502, 
			 "cosmo_polarized_energy": -16.23, 
			 "cosmo_cavitation_energy": 35.74, 
			 "cosmo_dispersion_energy": -24.99, 
			 "cosmo_repulsion_energy": 1.96, 
			 "cosmo_total_nonelectrostatic_energy": 12.71, 
			 "SMD_solvation_energy": 7.55 
		},
		"coords": [
			{
				"x": -4.6334553844,
				"y": -0.8838675762,
				"z": -0.290672945,
				"element": "C" 
			},
			{
				"x": -3.2569972822,
				"y": -1.3743515752,
				"z": 0.0914832854,
				"element": "C" 
			},
			{
				"x": -2.1629458105,
				"y": -0.50714209,
				"z": 0.1237857091,
				"element": "C" 
			},
			{
				"x": -0.8846805526,
				"y": -0.9641916318,
				"z": 0.4536081589,
				"element": "C" 
			},
			{
				"x": 0.1898269983,
				"y": -0.0021435368,
				"z": 0.4303385486,
				"element": "N" 
			},
			{
				"x": 0.4151258137,
				"y": 0.5810343984,
				"z": -0.7926900081,
				"element": "N" 
			},
			{
				"x": 1.162964242,
				"y": 1.6265795818,
				"z": -0.8827169908,
				"element": "C" 
			},
			{
				"x": 1.8192430045,
				"y": 2.2969162391,
				"z": 0.2852611371,
				"element": "C" 
			},
			{
				"x": 2.0975371685,
				"y": 1.2474983089,
				"z": 1.3645767088,
				"element": "C" 
			},
			{
				"x": 0.9126625671,
				"y": 0.3237580296,
				"z": 1.5908336065,
				"element": "C" 
			},
			{
				"x": 0.6279717417,
				"y": -0.159969651,
				"z": 2.6699345099,
				"element": "O" 
			},
			{
				"x": 1.3188088662,
				"y": 2.1934636387,
				"z": -2.2651209246,
				"element": "C" 
			},
			{
				"x": 0.6595120376,
				"y": 1.5326563887,
				"z": -3.2316934312,
				"element": "O" 
			},
			{
				"x": 1.9887380119,
				"y": 3.1787938224,
				"z": -2.4818411975,
				"element": "O" 
			},
			{
				"x": -0.6431846426,
				"y": -2.3125130708,
				"z": 0.7601115765,
				"element": "C" 
			},
			{
				"x": 0.7272000406,
				"y": -2.8384272463,
				"z": 1.1014415487,
				"element": "C" 
			},
			{
				"x": -1.7514373643,
				"y": -3.1700799499,
				"z": 0.7371491039,
				"element": "C" 
			},
			{
				"x": -3.0280018026,
				"y": -2.7183347333,
				"z": 0.4134442017,
				"element": "C" 
			},
			{
				"x": -5.4064048991,
				"y": -1.3337906441,
				"z": 0.340505442,
				"element": "H" 
			},
			{
				"x": -4.7120192808,
				"y": 0.2028943244,
				"z": -0.1973157328,
				"element": "H" 
			},
			{
				"x": -4.873074245,
				"y": -1.1426624089,
				"z": -1.3294738585,
				"element": "H" 
			},
			{
				"x": -2.2963116862,
				"y": 0.5457519541,
				"z": -0.1078227367,
				"element": "H" 
			},
			{
				"x": 1.1414055592,
				"y": 3.0747052282,
				"z": 0.6660915167,
				"element": "H" 
			},
			{
				"x": 2.7247395821,
				"y": 2.8124640744,
				"z": -0.0414071661,
				"element": "H" 
			},
			{
				"x": 2.3541360323,
				"y": 1.6921932202,
				"z": 2.3273806757,
				"element": "H" 
			},
			{
				"x": 2.942723834,
				"y": 0.6135768418,
				"z": 1.0630057464,
				"element": "H" 
			},
			{
				"x": 0.1994395029,
				"y": 0.7838072488,
				"z": -2.8054781147,
				"element": "H" 
			},
			{
				"x": 0.7559557862,
				"y": -3.9272648228,
				"z": 1.0111864719,
				"element": "H" 
			},
			{
				"x": 1.0029508519,
				"y": -2.5686621064,
				"z": 2.1260862933,
				"element": "H" 
			},
			{
				"x": 1.4939520635,
				"y": -2.4246790324,
				"z": 0.4378036361,
				"element": "H" 
			},
			{
				"x": -1.6012985093,
				"y": -4.2203297946,
				"z": 0.9730969809,
				"element": "H" 
			},
			{
				"x": -3.8578822444,
				"y": -3.4206834294,
				"z": 0.4066082478,
				"element": "H" 
			}
		],
		 "valence_orbital": [ 
			{
				"type": "occ",
				"energy": -0.28422,
				"method": "rhf"
			},
			{
				"type": "occ",
				"energy": -0.27584,
				"method": "rhf"
			},
			{
				"type": "occ",
				"energy": -0.26545,
				"method": "rhf"
			},
			{
				"type": "occ",
				"energy": -0.24898,
				"method": "rhf"
			},
			{
				"type": "occ",
				"energy": -0.24022,
				"method": "rhf"
			},
			{
				"type": "unocc",
				"energy": -0.0752,
				"method": "rhf"
			},
			{
				"type": "unocc",
				"energy": -0.02196,
				"method": "rhf"
			},
			{
				"type": "unocc",
				"energy": -0.00627,
				"method": "rhf"
			},
			{
				"type": "unocc",
				"energy": 0.00988,
				"method": "rhf"
			},
			{
				"type": "unocc",
				"energy": 0.06168,
				"method": "rhf"
			}
		],
		"cosmo_sigma_profile": { 
			"-0.025": 0.0,
			"-0.024": 0.0,
			"-0.023": 0.0,
			"-0.022": 0.0,
			"-0.021": 0.0,
			"-0.02": 0.0,
			"-0.019": 0.0,
			"-0.018": 0.0,
			"-0.017": 0.0,
			"-0.016": 0.0,
			"-0.015": 0.0,
			"-0.014": 0.446435397214,
			"-0.013": 0.443613279644,
			"-0.012": 0.498035785673,
			"-0.011": 0.778323909446,
			"-0.01": 0.917567344724,
			"-0.009": 0.61972049994,
			"-0.008": 1.65780509202,
			"-0.007": 10.3853124783,
			"-0.006": 15.8217314832,
			"-0.005": 26.0391051676,
			"-0.004": 28.8074408305,
			"-0.003": 24.9452224064,
			"-0.002": 22.2423031799,
			"-0.001": 21.6965702833,
			"0.0": 22.3424566021,
			"0.001": 14.5598247431,
			"0.002": 10.9945115962,
			"0.003": 10.5138783997,
			"0.004": 10.5594939131,
			"0.005": 13.8890727769,
			"0.006": 5.15605201489,
			"0.007": 4.33940027168,
			"0.008": 4.94129643451,
			"0.009": 6.21722166459,
			"0.01": 7.58285716414,
			"0.011": 7.72551370404,
			"0.012": 7.30792851663,
			"0.013": 1.85973886839,
			"0.014": 0.0,
			"0.015": 0.0,
			"0.016": 0.0,
			"0.017": 0.0,
			"0.018": 0.0,
			"0.019": 0.0,
			"0.02": 0.0,
			"0.021": 0.0,
			"0.022": 0.0,
			"0.023": 0.0,
			"0.024": 0.0,
			"0.025": 0.0
		}
	}
}
