{
	 "smiles": "NCCCC1=NC(=NN1)C1CC1", 
	 "Tm": 481.15, 
	 "num_atms": 26, 
	 "gaussian": { 
		 "optdone": 1, 
		 "sigma_profile": "yes", 
		 "theory": "DFT", 
		 "functional": "B3LYP", 
		 "basiset": "6-31G**", 
		 "properties": { 
			 "R2extent": 3114.4379, 
			 "electric_dipole_moment_norm": 1.66655899686, 
			 "electric_quadrupole_moment_norm": 12.5389248778, 
			 "total_energy": -532.26258508, 
			 "HOMO_LUMO_gap": 0.24667, 
			 "cosmo_polarized_energy": -15.54, 
			 "cosmo_cavitation_energy": 29.12, 
			 "cosmo_dispersion_energy": -20.76, 
			 "cosmo_repulsion_energy": 1.73, 
			 "cosmo_total_nonelectrostatic_energy": 10.09, 
			 "SMD_solvation_energy": 0.71 
		},
		"coords": [
			{
				"x": -2.4466925185,
				"y": -1.1702742545,
				"z": -2.4618518041,
				"element": "N" 
			},
			{
				"x": -1.8999970218,
				"y": 0.1002329567,
				"z": -1.9736182875,
				"element": "C" 
			},
			{
				"x": -0.6560667333,
				"y": 0.4804442024,
				"z": -2.7795613388,
				"element": "C" 
			},
			{
				"x": -0.0320622925,
				"y": 1.8214919018,
				"z": -2.3558002232,
				"element": "C" 
			},
			{
				"x": 0.5618695973,
				"y": 1.7906243377,
				"z": -0.9792451183,
				"element": "C" 
			},
			{
				"x": 1.3676411962,
				"y": 0.8620565382,
				"z": -0.4858795176,
				"element": "N" 
			},
			{
				"x": 1.6406177487,
				"y": 1.3093906833,
				"z": 0.7807287437,
				"element": "C" 
			},
			{
				"x": 1.0529965991,
				"y": 2.4567781908,
				"z": 1.1007605247,
				"element": "N" 
			},
			{
				"x": 0.3662504767,
				"y": 2.7455996555,
				"z": -0.0407834162,
				"element": "N" 
			},
			{
				"x": 2.5151669798,
				"y": 0.584812449,
				"z": 1.7220418968,
				"element": "C" 
			},
			{
				"x": 2.5314412889,
				"y": -0.9321293895,
				"z": 1.7118220235,
				"element": "C" 
			},
			{
				"x": 3.7174289761,
				"y": -0.1738490931,
				"z": 1.1922316468,
				"element": "C" 
			},
			{
				"x": -3.3030551999,
				"y": -1.3945453017,
				"z": -1.9610644093,
				"element": "H" 
			},
			{
				"x": -1.7935146141,
				"y": -1.9223916695,
				"z": -2.2514427272,
				"element": "H" 
			},
			{
				"x": -1.6480578155,
				"y": 0.0974190762,
				"z": -0.8988021293,
				"element": "H" 
			},
			{
				"x": -2.6700268762,
				"y": 0.8708370587,
				"z": -2.1138167197,
				"element": "H" 
			},
			{
				"x": -0.9241013054,
				"y": 0.5222053594,
				"z": -3.8405332972,
				"element": "H" 
			},
			{
				"x": 0.1040943521,
				"y": -0.3018427462,
				"z": -2.6678362377,
				"element": "H" 
			},
			{
				"x": 0.7592145295,
				"y": 2.0870350537,
				"z": -3.0679433171,
				"element": "H" 
			},
			{
				"x": -0.779447749,
				"y": 2.6236870625,
				"z": -2.4103568428,
				"element": "H" 
			},
			{
				"x": -0.1909335531,
				"y": 3.5849095555,
				"z": -0.0934285867,
				"element": "H" 
			},
			{
				"x": 2.6192205236,
				"y": 1.0800923345,
				"z": 2.6819555803,
				"element": "H" 
			},
			{
				"x": 1.8900487544,
				"y": -1.4191168825,
				"z": 0.9845138751,
				"element": "H" 
			},
			{
				"x": 2.612639126,
				"y": -1.4396434978,
				"z": 2.6683310371,
				"element": "H" 
			},
			{
				"x": 3.8684616627,
				"y": -0.1536568595,
				"z": 0.1178580813,
				"element": "H" 
			},
			{
				"x": 4.6260638682,
				"y": -0.1523667218,
				"z": 1.7863205633,
				"element": "H" 
			}
		],
		 "valence_orbital": [ 
			{
				"type": "occ",
				"energy": -0.29248,
				"method": "rhf"
			},
			{
				"type": "occ",
				"energy": -0.27613,
				"method": "rhf"
			},
			{
				"type": "occ",
				"energy": -0.26699,
				"method": "rhf"
			},
			{
				"type": "occ",
				"energy": -0.23669,
				"method": "rhf"
			},
			{
				"type": "occ",
				"energy": -0.22906,
				"method": "rhf"
			},
			{
				"type": "unocc",
				"energy": 0.01761,
				"method": "rhf"
			},
			{
				"type": "unocc",
				"energy": 0.05361,
				"method": "rhf"
			},
			{
				"type": "unocc",
				"energy": 0.07301,
				"method": "rhf"
			},
			{
				"type": "unocc",
				"energy": 0.08521,
				"method": "rhf"
			},
			{
				"type": "unocc",
				"energy": 0.1075,
				"method": "rhf"
			}
		],
		"cosmo_sigma_profile": { 
			"-0.025": 0.0,
			"-0.024": 0.0,
			"-0.023": 0.0,
			"-0.022": 0.0,
			"-0.021": 0.0,
			"-0.02": 0.0,
			"-0.019": 0.0,
			"-0.018": 0.0,
			"-0.017": 0.564639667261,
			"-0.016": 1.59081970981,
			"-0.015": 1.34395608431,
			"-0.014": 1.19445288366,
			"-0.013": 0.863879292256,
			"-0.012": 1.13690120849,
			"-0.011": 1.22937700333,
			"-0.01": 1.92128709718,
			"-0.009": 3.5551049117,
			"-0.008": 3.53950337361,
			"-0.007": 4.32374647768,
			"-0.006": 5.88747126741,
			"-0.005": 11.9637639095,
			"-0.004": 17.3419517745,
			"-0.003": 21.8970752673,
			"-0.002": 21.9866027319,
			"-0.001": 20.3107866775,
			"0.0": 17.8100331142,
			"0.001": 11.8864598538,
			"0.002": 11.0504372024,
			"0.003": 12.1277716267,
			"0.004": 13.335008952,
			"0.005": 6.59749573418,
			"0.006": 3.60689094557,
			"0.007": 4.61671463675,
			"0.008": 4.6849031642,
			"0.009": 2.88833385674,
			"0.01": 2.04541731411,
			"0.011": 4.33951331716,
			"0.012": 2.44557952063,
			"0.013": 1.67063749306,
			"0.014": 2.0889567201,
			"0.015": 2.35180782717,
			"0.016": 1.06586602563,
			"0.017": 0.78420468483,
			"0.018": 0.259990780914,
			"0.019": 0.805984889661,
			"0.02": 0.348363450961,
			"0.021": 0.0,
			"0.022": 0.0,
			"0.023": 0.0,
			"0.024": 0.0,
			"0.025": 0.0
		}
	}
}
