{
	 "smiles": "OCC1=CC(CN2C=NC=N2)=CC=C1", 
	 "Tm": 330.65, 
	 "num_atms": 25, 
	 "gaussian": { 
		 "optdone": 1, 
		 "sigma_profile": "yes", 
		 "theory": "DFT", 
		 "functional": "B3LYP", 
		 "basiset": "6-31G**", 
		 "properties": { 
			 "R2extent": 3816.7178, 
			 "electric_dipole_moment_norm": 2.5936071445, 
			 "electric_quadrupole_moment_norm": 14.4236995847, 
			 "total_energy": -627.145072218, 
			 "HOMO_LUMO_gap": 0.23226, 
			 "cosmo_polarized_energy": -15.0, 
			 "cosmo_cavitation_energy": 29.4, 
			 "cosmo_dispersion_energy": -20.93, 
			 "cosmo_repulsion_energy": 1.65, 
			 "cosmo_total_nonelectrostatic_energy": 10.13, 
			 "SMD_solvation_energy": 3.06 
		},
		"coords": [
			{
				"x": -3.3867825033,
				"y": -1.4916526241,
				"z": -0.1229690479,
				"element": "O" 
			},
			{
				"x": -2.3278385505,
				"y": -1.5984999283,
				"z": -1.0631948208,
				"element": "C" 
			},
			{
				"x": -0.9512690486,
				"y": -1.6722259711,
				"z": -0.4271897456,
				"element": "C" 
			},
			{
				"x": 0.170574859,
				"y": -1.1912647766,
				"z": -1.1069976667,
				"element": "C" 
			},
			{
				"x": 1.4485387182,
				"y": -1.2833643424,
				"z": -0.5412282667,
				"element": "C" 
			},
			{
				"x": 2.6628675429,
				"y": -0.7742225736,
				"z": -1.2971287232,
				"element": "C" 
			},
			{
				"x": 2.5600609562,
				"y": 0.625550447,
				"z": -1.7031660018,
				"element": "N" 
			},
			{
				"x": 2.9114050692,
				"y": 1.7463571722,
				"z": -1.0330653023,
				"element": "C" 
			},
			{
				"x": 2.5836975005,
				"y": 2.825151572,
				"z": -1.7254667329,
				"element": "N" 
			},
			{
				"x": 2.0090163036,
				"y": 2.2927836767,
				"z": -2.8391696701,
				"element": "C" 
			},
			{
				"x": 1.9671914143,
				"y": 0.9672390553,
				"z": -2.8776959746,
				"element": "N" 
			},
			{
				"x": 1.5964845062,
				"y": -1.8596521991,
				"z": 0.7237586296,
				"element": "C" 
			},
			{
				"x": 0.4798856728,
				"y": -2.3415256271,
				"z": 1.4108916259,
				"element": "C" 
			},
			{
				"x": -0.787511731,
				"y": -2.2491458375,
				"z": 0.839661175,
				"element": "C" 
			},
			{
				"x": -3.2456879018,
				"y": -0.6799190373,
				"z": 0.3825949456,
				"element": "H" 
			},
			{
				"x": -2.5311382573,
				"y": -2.5226941087,
				"z": -1.6176670028,
				"element": "H" 
			},
			{
				"x": -2.3509094322,
				"y": -0.7780977927,
				"z": -1.7971333835,
				"element": "H" 
			},
			{
				"x": 0.0573626607,
				"y": -0.7249348025,
				"z": -2.0829550484,
				"element": "H" 
			},
			{
				"x": 2.8204304502,
				"y": -1.3432845474,
				"z": -2.2175478884,
				"element": "H" 
			},
			{
				"x": 3.5622242837,
				"y": -0.8764371378,
				"z": -0.6835358637,
				"element": "H" 
			},
			{
				"x": 3.399504289,
				"y": 1.726542934,
				"z": -0.0682002207,
				"element": "H" 
			},
			{
				"x": 1.6181238926,
				"y": 2.8943097088,
				"z": -3.6483849756,
				"element": "H" 
			},
			{
				"x": 2.5834031937,
				"y": -1.9300562156,
				"z": 1.1749487939,
				"element": "H" 
			},
			{
				"x": 0.6010598797,
				"y": -2.7858547295,
				"z": 2.3947784475,
				"element": "H" 
			},
			{
				"x": -1.6630937677,
				"y": -2.6139023148,
				"z": 1.3674627184,
				"element": "H" 
			}
		],
		 "valence_orbital": [ 
			{
				"type": "occ",
				"energy": -0.28187,
				"method": "rhf"
			},
			{
				"type": "occ",
				"energy": -0.27572,
				"method": "rhf"
			},
			{
				"type": "occ",
				"energy": -0.2659,
				"method": "rhf"
			},
			{
				"type": "occ",
				"energy": -0.25492,
				"method": "rhf"
			},
			{
				"type": "occ",
				"energy": -0.25011,
				"method": "rhf"
			},
			{
				"type": "unocc",
				"energy": -0.01785,
				"method": "rhf"
			},
			{
				"type": "unocc",
				"energy": -0.01297,
				"method": "rhf"
			},
			{
				"type": "unocc",
				"energy": 0.00677,
				"method": "rhf"
			},
			{
				"type": "unocc",
				"energy": 0.05246,
				"method": "rhf"
			},
			{
				"type": "unocc",
				"energy": 0.08232,
				"method": "rhf"
			}
		],
		"cosmo_sigma_profile": { 
			"-0.025": 0.0,
			"-0.024": 0.0,
			"-0.023": 0.0,
			"-0.022": 0.0,
			"-0.021": 0.0,
			"-0.02": 0.0,
			"-0.019": 0.0,
			"-0.018": 0.0,
			"-0.017": 0.0,
			"-0.016": 0.186872868303,
			"-0.015": 0.914833745155,
			"-0.014": 0.803933894786,
			"-0.013": 1.00826894634,
			"-0.012": 0.933325331355,
			"-0.011": 1.18971461819,
			"-0.01": 3.46079186555,
			"-0.009": 3.97880615886,
			"-0.008": 6.26591633572,
			"-0.007": 9.03170157036,
			"-0.006": 10.7791450813,
			"-0.005": 16.223614165,
			"-0.004": 19.2818625693,
			"-0.003": 15.7501390991,
			"-0.002": 14.6087587672,
			"-0.001": 13.9309601704,
			"0.0": 13.7165715365,
			"0.001": 13.7349615632,
			"0.002": 15.1097225061,
			"0.003": 11.4611975723,
			"0.004": 12.8311983849,
			"0.005": 12.2098594573,
			"0.006": 7.10089348787,
			"0.007": 4.15993230713,
			"0.008": 2.9919892309,
			"0.009": 2.20189161065,
			"0.01": 4.27171884431,
			"0.011": 3.13748305171,
			"0.012": 3.53524618177,
			"0.013": 2.84227001794,
			"0.014": 3.91986284596,
			"0.015": 1.32335805498,
			"0.016": 1.04196405093,
			"0.017": 0.350940705381,
			"0.018": 0.0,
			"0.019": 0.0,
			"0.02": 0.0,
			"0.021": 0.0,
			"0.022": 0.0,
			"0.023": 0.0,
			"0.024": 0.0,
			"0.025": 0.0
		}
	}
}
