{
	 "smiles": "ClC(=O)C1=NN=C(O1)C1=CC=CC=C1", 
	 "Tm": 358.15, 
	 "num_atms": 19, 
	 "gaussian": { 
		 "optdone": 1, 
		 "sigma_profile": "yes", 
		 "theory": "DFT", 
		 "functional": "B3LYP", 
		 "basiset": "6-31G**", 
		 "properties": { 
			 "R2extent": 4725.3444, 
			 "electric_dipole_moment_norm": 4.98055257477, 
			 "electric_quadrupole_moment_norm": 5.16144947859, 
			 "total_energy": -1066.07846895, 
			 "HOMO_LUMO_gap": 0.15965, 
			 "cosmo_polarized_energy": -9.49, 
			 "cosmo_cavitation_energy": 27.35, 
			 "cosmo_dispersion_energy": -20.23, 
			 "cosmo_repulsion_energy": 1.59, 
			 "cosmo_total_nonelectrostatic_energy": 8.71, 
			 "SMD_solvation_energy": 4.01 
		},
		"coords": [
			{
				"x": -0.2174623907,
				"y": -5.3735855732,
				"z": 1.0091821736,
				"element": "Cl" 
			},
			{
				"x": -0.1502755637,
				"y": -3.8781610056,
				"z": 0.0367837114,
				"element": "C" 
			},
			{
				"x": -0.2199691535,
				"y": -3.8824366784,
				"z": -1.1571181222,
				"element": "O" 
			},
			{
				"x": -0.0025540868,
				"y": -2.6635569028,
				"z": 0.8520369857,
				"element": "C" 
			},
			{
				"x": 0.0842196818,
				"y": -2.5207391306,
				"z": 2.1426479722,
				"element": "N" 
			},
			{
				"x": 0.2093648629,
				"y": -1.172642902,
				"z": 2.37900902,
				"element": "N" 
			},
			{
				"x": 0.1903675891,
				"y": -0.5794135522,
				"z": 1.2071574981,
				"element": "C" 
			},
			{
				"x": 0.0575911967,
				"y": -1.4719697974,
				"z": 0.1924066742,
				"element": "O" 
			},
			{
				"x": 0.290881767,
				"y": 0.8417808866,
				"z": 0.9147356518,
				"element": "C" 
			},
			{
				"x": 0.4279824352,
				"y": 1.7473255781,
				"z": 1.9808448471,
				"element": "C" 
			},
			{
				"x": 0.5255453823,
				"y": 3.1101130164,
				"z": 1.7191538295,
				"element": "C" 
			},
			{
				"x": 0.4874531539,
				"y": 3.5774751648,
				"z": 0.4019529086,
				"element": "C" 
			},
			{
				"x": 0.3511537825,
				"y": 2.6777649773,
				"z": -0.658119219,
				"element": "C" 
			},
			{
				"x": 0.2526209694,
				"y": 1.3113564528,
				"z": -0.4080819332,
				"element": "C" 
			},
			{
				"x": 0.4558338436,
				"y": 1.368159739,
				"z": 2.9966987161,
				"element": "H" 
			},
			{
				"x": 0.6314744469,
				"y": 3.8098483011,
				"z": 2.542365189,
				"element": "H" 
			},
			{
				"x": 0.5639563112,
				"y": 4.6421879608,
				"z": 0.2022707582,
				"element": "H" 
			},
			{
				"x": 0.3215637053,
				"y": 3.0408150468,
				"z": -1.6807591801,
				"element": "H" 
			},
			{
				"x": 0.1466520671,
				"y": 0.6086784184,
				"z": -1.2277674807,
				"element": "H" 
			}
		],
		 "valence_orbital": [ 
			{
				"type": "occ",
				"energy": -0.32779,
				"method": "rhf"
			},
			{
				"type": "occ",
				"energy": -0.31105,
				"method": "rhf"
			},
			{
				"type": "occ",
				"energy": -0.29896,
				"method": "rhf"
			},
			{
				"type": "occ",
				"energy": -0.27837,
				"method": "rhf"
			},
			{
				"type": "occ",
				"energy": -0.26302,
				"method": "rhf"
			},
			{
				"type": "unocc",
				"energy": -0.10337,
				"method": "rhf"
			},
			{
				"type": "unocc",
				"energy": -0.05772,
				"method": "rhf"
			},
			{
				"type": "unocc",
				"energy": -0.0268,
				"method": "rhf"
			},
			{
				"type": "unocc",
				"energy": 0.01166,
				"method": "rhf"
			},
			{
				"type": "unocc",
				"energy": 0.03288,
				"method": "rhf"
			}
		],
		"cosmo_sigma_profile": { 
			"-0.025": 0.0,
			"-0.024": 0.0,
			"-0.023": 0.0,
			"-0.022": 0.0,
			"-0.021": 0.0,
			"-0.02": 0.0,
			"-0.019": 0.0,
			"-0.018": 0.0,
			"-0.017": 0.0,
			"-0.016": 0.0,
			"-0.015": 0.0,
			"-0.014": 0.0,
			"-0.013": 0.0,
			"-0.012": 0.0,
			"-0.011": 0.0,
			"-0.01": 0.0,
			"-0.009": 0.684488342926,
			"-0.008": 4.50665169924,
			"-0.007": 10.3764098773,
			"-0.006": 15.225013337,
			"-0.005": 15.9692671397,
			"-0.004": 13.3676266092,
			"-0.003": 14.9691641422,
			"-0.002": 14.193312364,
			"-0.001": 15.0283608498,
			"0.0": 16.9431887746,
			"0.001": 16.4728463962,
			"0.002": 21.9736319358,
			"0.003": 22.481511307,
			"0.004": 8.08587061299,
			"0.005": 4.2494976419,
			"0.006": 5.61788616999,
			"0.007": 7.15962578342,
			"0.008": 5.92728308696,
			"0.009": 3.77785720198,
			"0.01": 2.97712112554,
			"0.011": 2.02545256591,
			"0.012": 2.03792387369,
			"0.013": 0.284939862575,
			"0.014": 0.0,
			"0.015": 0.0,
			"0.016": 0.0,
			"0.017": 0.0,
			"0.018": 0.0,
			"0.019": 0.0,
			"0.02": 0.0,
			"0.021": 0.0,
			"0.022": 0.0,
			"0.023": 0.0,
			"0.024": 0.0,
			"0.025": 0.0
		}
	}
}
