{
	 "smiles": "COC1=C(OC)C(OC)=C2C(=C1)[C@H]1C=C[C@](OC)(ON1C1=CC=CC=C1)C2=O", 
	 "Tm": 387.5, 
	 "num_atms": 49, 
	 "gaussian": { 
		 "optdone": 1, 
		 "sigma_profile": "yes", 
		 "theory": "DFT", 
		 "functional": "B3LYP", 
		 "basiset": "6-31G**", 
		 "properties": { 
			 "R2extent": 12239.6593, 
			 "electric_dipole_moment_norm": 3.3557842079, 
			 "electric_quadrupole_moment_norm": 13.8969579866, 
			 "total_energy": -1318.81457253, 
			 "HOMO_LUMO_gap": 0.14203, 
			 "cosmo_polarized_energy": -16.92, 
			 "cosmo_cavitation_energy": 50.06, 
			 "cosmo_dispersion_energy": -34.32, 
			 "cosmo_repulsion_energy": 2.58, 
			 "cosmo_total_nonelectrostatic_energy": 18.33, 
			 "SMD_solvation_energy": 10.47 
		},
		"coords": [
			{
				"x": 4.1096445686,
				"y": -0.6159934318,
				"z": -2.261308896,
				"element": "C" 
			},
			{
				"x": 2.850372686,
				"y": 0.0377507029,
				"z": -2.4511628462,
				"element": "O" 
			},
			{
				"x": 1.9285334938,
				"y": 0.0841883786,
				"z": -1.4558207508,
				"element": "C" 
			},
			{
				"x": 2.2030776482,
				"y": 0.099403652,
				"z": -0.0799392093,
				"element": "C" 
			},
			{
				"x": 3.4997745425,
				"y": 0.0649571813,
				"z": 0.3840162663,
				"element": "O" 
			},
			{
				"x": 3.9959502094,
				"y": 1.3319604128,
				"z": 0.8410738542,
				"element": "C" 
			},
			{
				"x": 1.13803703,
				"y": 0.1371434648,
				"z": 0.8421387494,
				"element": "C" 
			},
			{
				"x": 1.4726346931,
				"y": 0.2397990588,
				"z": 2.1644086347,
				"element": "O" 
			},
			{
				"x": 1.7747851624,
				"y": -0.996564219,
				"z": 2.8252740697,
				"element": "C" 
			},
			{
				"x": -0.2080925287,
				"y": 0.1888972016,
				"z": 0.4192794396,
				"element": "C" 
			},
			{
				"x": -0.4608411574,
				"y": 0.2464228187,
				"z": -0.9787199269,
				"element": "C" 
			},
			{
				"x": 0.5925675987,
				"y": 0.1714978523,
				"z": -1.8773697049,
				"element": "C" 
			},
			{
				"x": -1.8669960898,
				"y": 0.3698035336,
				"z": -1.5514418565,
				"element": "C" 
			},
			{
				"x": -2.8485883671,
				"y": -0.661709817,
				"z": -1.0311142664,
				"element": "C" 
			},
			{
				"x": -3.3177058248,
				"y": -0.4553795873,
				"z": 0.1979996891,
				"element": "C" 
			},
			{
				"x": -2.7076690341,
				"y": 0.6711456658,
				"z": 0.9819200404,
				"element": "C" 
			},
			{
				"x": -3.5578886161,
				"y": 0.9918586748,
				"z": 2.0233095348,
				"element": "O" 
			},
			{
				"x": -3.1323669683,
				"y": 2.0364438621,
				"z": 2.9095950891,
				"element": "C" 
			},
			{
				"x": -2.4571251813,
				"y": 1.8787397629,
				"z": 0.1782326325,
				"element": "O" 
			},
			{
				"x": -2.4030071522,
				"y": 1.7251012699,
				"z": -1.2321631909,
				"element": "N" 
			},
			{
				"x": -3.6388422372,
				"y": 2.0797928053,
				"z": -1.8590257279,
				"element": "C" 
			},
			{
				"x": -4.7979093111,
				"y": 2.3821876245,
				"z": -1.1340943564,
				"element": "C" 
			},
			{
				"x": -5.9540598809,
				"y": 2.7789293619,
				"z": -1.8089274498,
				"element": "C" 
			},
			{
				"x": -5.9753861453,
				"y": 2.8761729235,
				"z": -3.199924244,
				"element": "C" 
			},
			{
				"x": -4.8134879939,
				"y": 2.5850219987,
				"z": -3.9198646375,
				"element": "C" 
			},
			{
				"x": -3.6496265517,
				"y": 2.2021897266,
				"z": -3.2587454284,
				"element": "C" 
			},
			{
				"x": -1.3026043878,
				"y": 0.169732618,
				"z": 1.4400922027,
				"element": "C" 
			},
			{
				"x": -1.1661030413,
				"y": -0.2599176962,
				"z": 2.5720930615,
				"element": "O" 
			},
			{
				"x": 3.9927990237,
				"y": -1.551311849,
				"z": -1.7065375247,
				"element": "H" 
			},
			{
				"x": 4.8250170805,
				"y": 0.0204283929,
				"z": -1.7362546707,
				"element": "H" 
			},
			{
				"x": 4.4754353882,
				"y": -0.8288814316,
				"z": -3.2682508339,
				"element": "H" 
			},
			{
				"x": 5.017365662,
				"y": 1.1529593879,
				"z": 1.1836881828,
				"element": "H" 
			},
			{
				"x": 3.3899701106,
				"y": 1.7103082207,
				"z": 1.6686401324,
				"element": "H" 
			},
			{
				"x": 4.0084706934,
				"y": 2.0641964529,
				"z": 0.0240739724,
				"element": "H" 
			},
			{
				"x": 0.8817241857,
				"y": -1.6249026154,
				"z": 2.8742656469,
				"element": "H" 
			},
			{
				"x": 2.0822138898,
				"y": -0.7275805351,
				"z": 3.8375373903,
				"element": "H" 
			},
			{
				"x": 2.5949709786,
				"y": -1.5173583586,
				"z": 2.3198778271,
				"element": "H" 
			},
			{
				"x": 0.4120360934,
				"y": 0.183722544,
				"z": -2.9473843421,
				"element": "H" 
			},
			{
				"x": -1.8026308742,
				"y": 0.3146126427,
				"z": -2.6384410887,
				"element": "H" 
			},
			{
				"x": -3.2100018736,
				"y": -1.4531622997,
				"z": -1.6800028029,
				"element": "H" 
			},
			{
				"x": -4.0731655661,
				"y": -1.0532218656,
				"z": 0.695442593,
				"element": "H" 
			},
			{
				"x": -3.9409052796,
				"y": 2.15025469,
				"z": 3.6336503581,
				"element": "H" 
			},
			{
				"x": -2.2130901855,
				"y": 1.7612477158,
				"z": 3.4324697666,
				"element": "H" 
			},
			{
				"x": -2.9933689423,
				"y": 2.9767572453,
				"z": 2.3683603986,
				"element": "H" 
			},
			{
				"x": -4.7870823649,
				"y": 2.3053331361,
				"z": -0.0543759428,
				"element": "H" 
			},
			{
				"x": -6.847378751,
				"y": 3.0087771339,
				"z": -1.2345220192,
				"element": "H" 
			},
			{
				"x": -6.8790960731,
				"y": 3.1840896496,
				"z": -3.7169897493,
				"element": "H" 
			},
			{
				"x": -4.8058790102,
				"y": 2.6727592457,
				"z": -5.0028037527,
				"element": "H" 
			},
			{
				"x": -2.7399813485,
				"y": 2.0203966973,
				"z": -3.8234543133,
				"element": "H" 
			}
		],
		 "valence_orbital": [ 
			{
				"type": "occ",
				"energy": -0.24397,
				"method": "rhf"
			},
			{
				"type": "occ",
				"energy": -0.24118,
				"method": "rhf"
			},
			{
				"type": "occ",
				"energy": -0.2314,
				"method": "rhf"
			},
			{
				"type": "occ",
				"energy": -0.22759,
				"method": "rhf"
			},
			{
				"type": "occ",
				"energy": -0.20016,
				"method": "rhf"
			},
			{
				"type": "unocc",
				"energy": -0.05813,
				"method": "rhf"
			},
			{
				"type": "unocc",
				"energy": -0.01548,
				"method": "rhf"
			},
			{
				"type": "unocc",
				"energy": 0.00165,
				"method": "rhf"
			},
			{
				"type": "unocc",
				"energy": 0.00594,
				"method": "rhf"
			},
			{
				"type": "unocc",
				"energy": 0.01215,
				"method": "rhf"
			}
		],
		"cosmo_sigma_profile": { 
			"-0.025": 0.0,
			"-0.024": 0.0,
			"-0.023": 0.0,
			"-0.022": 0.0,
			"-0.021": 0.0,
			"-0.02": 0.0,
			"-0.019": 0.0,
			"-0.018": 0.0,
			"-0.017": 0.0,
			"-0.016": 0.0,
			"-0.015": 0.0,
			"-0.014": 0.0,
			"-0.013": 0.0,
			"-0.012": 0.0,
			"-0.011": 0.0,
			"-0.01": 0.0216741641724,
			"-0.009": 1.75623895101,
			"-0.008": 5.27482488907,
			"-0.007": 8.61548208643,
			"-0.006": 15.2578301175,
			"-0.005": 26.6780807155,
			"-0.004": 38.2337815092,
			"-0.003": 49.4987737803,
			"-0.002": 39.4936682781,
			"-0.001": 23.5976869858,
			"0.0": 25.3005525191,
			"0.001": 27.215876386,
			"0.002": 25.5576896247,
			"0.003": 19.0486289553,
			"0.004": 19.0485662167,
			"0.005": 20.1675590032,
			"0.006": 15.5092801785,
			"0.007": 7.15708514109,
			"0.008": 6.90674789458,
			"0.009": 7.6501146024,
			"0.01": 7.68190246154,
			"0.011": 5.63259964414,
			"0.012": 2.368865127,
			"0.013": 0.0923364087024,
			"0.014": 0.0,
			"0.015": 0.0,
			"0.016": 0.0,
			"0.017": 0.0,
			"0.018": 0.0,
			"0.019": 0.0,
			"0.02": 0.0,
			"0.021": 0.0,
			"0.022": 0.0,
			"0.023": 0.0,
			"0.024": 0.0,
			"0.025": 0.0
		}
	}
}
