{
	 "smiles": "CC(=O)C1=CC(F)=CN=C1", 
	 "Tm": 322.15, 
	 "num_atms": 16, 
	 "gaussian": { 
		 "optdone": 1, 
		 "sigma_profile": "yes", 
		 "theory": "DFT", 
		 "functional": "B3LYP", 
		 "basiset": "6-31G**", 
		 "properties": { 
			 "R2extent": 1898.0553, 
			 "electric_dipole_moment_norm": 3.07018109889, 
			 "electric_quadrupole_moment_norm": 7.88180617118, 
			 "total_energy": -500.160243384, 
			 "HOMO_LUMO_gap": 0.17998, 
			 "cosmo_polarized_energy": -9.66, 
			 "cosmo_cavitation_energy": 21.19, 
			 "cosmo_dispersion_energy": -15.36, 
			 "cosmo_repulsion_energy": 1.21, 
			 "cosmo_total_nonelectrostatic_energy": 7.03, 
			 "SMD_solvation_energy": 3.6 
		},
		"coords": [
			{
				"x": -1.7405054031,
				"y": 1.1543387002,
				"z": 0.3333051477,
				"element": "C" 
			},
			{
				"x": -1.1464656641,
				"y": 0.1239367753,
				"z": 1.2763296234,
				"element": "C" 
			},
			{
				"x": -1.4104637197,
				"y": 0.1332169663,
				"z": 2.4674258074,
				"element": "O" 
			},
			{
				"x": -0.2173690366,
				"y": -0.9146248635,
				"z": 0.7154633713,
				"element": "C" 
			},
			{
				"x": 0.1295529495,
				"y": -0.9822834995,
				"z": -0.6394974085,
				"element": "C" 
			},
			{
				"x": 0.997715058,
				"y": -1.989901124,
				"z": -1.0311726535,
				"element": "C" 
			},
			{
				"x": 1.3618280007,
				"y": -2.0976392535,
				"z": -2.3221102516,
				"element": "F" 
			},
			{
				"x": 1.4988523025,
				"y": -2.8951750334,
				"z": -0.0991373524,
				"element": "C" 
			},
			{
				"x": 1.1713897059,
				"y": -2.8360017602,
				"z": 1.1968531497,
				"element": "N" 
			},
			{
				"x": 0.3355499884,
				"y": -1.8692368601,
				"z": 1.5858188697,
				"element": "C" 
			},
			{
				"x": -2.3828228198,
				"y": 1.8230041097,
				"z": 0.9065851168,
				"element": "H" 
			},
			{
				"x": -2.3297096438,
				"y": 0.6722332312,
				"z": -0.4548982336,
				"element": "H" 
			},
			{
				"x": -0.9535457076,
				"y": 1.7385614204,
				"z": -0.1568278552,
				"element": "H" 
			},
			{
				"x": -0.2514909362,
				"y": -0.2856117783,
				"z": -1.3779182714,
				"element": "H" 
			},
			{
				"x": 2.1792292414,
				"y": -3.681229158,
				"z": -0.4188655903,
				"element": "H" 
			},
			{
				"x": 0.0757556843,
				"y": -1.8294878727,
				"z": 2.6394465304,
				"element": "H" 
			}
		],
		 "valence_orbital": [ 
			{
				"type": "occ",
				"energy": -0.37123,
				"method": "rhf"
			},
			{
				"type": "occ",
				"energy": -0.30532,
				"method": "rhf"
			},
			{
				"type": "occ",
				"energy": -0.28193,
				"method": "rhf"
			},
			{
				"type": "occ",
				"energy": -0.2698,
				"method": "rhf"
			},
			{
				"type": "occ",
				"energy": -0.25569,
				"method": "rhf"
			},
			{
				"type": "unocc",
				"energy": -0.07571,
				"method": "rhf"
			},
			{
				"type": "unocc",
				"energy": -0.03441,
				"method": "rhf"
			},
			{
				"type": "unocc",
				"energy": 0.02228,
				"method": "rhf"
			},
			{
				"type": "unocc",
				"energy": 0.07618,
				"method": "rhf"
			},
			{
				"type": "unocc",
				"energy": 0.11541,
				"method": "rhf"
			}
		],
		"cosmo_sigma_profile": { 
			"-0.025": 0.0,
			"-0.024": 0.0,
			"-0.023": 0.0,
			"-0.022": 0.0,
			"-0.021": 0.0,
			"-0.02": 0.0,
			"-0.019": 0.0,
			"-0.018": 0.0,
			"-0.017": 0.0,
			"-0.016": 0.0,
			"-0.015": 0.0,
			"-0.014": 0.0,
			"-0.013": 0.0,
			"-0.012": 0.0,
			"-0.011": 0.0,
			"-0.01": 0.0917040619826,
			"-0.009": 2.13702212241,
			"-0.008": 5.25271752427,
			"-0.007": 8.2993840101,
			"-0.006": 9.72097265785,
			"-0.005": 9.08520473868,
			"-0.004": 10.1135795528,
			"-0.003": 9.99057217222,
			"-0.002": 19.7075116269,
			"-0.001": 21.2989872277,
			"0.0": 12.2092725146,
			"0.001": 6.61613546231,
			"0.002": 7.33467169954,
			"0.003": 12.0955199515,
			"0.004": 7.98109275447,
			"0.005": 2.35504023625,
			"0.006": 3.21286107365,
			"0.007": 2.67380047081,
			"0.008": 2.58402641957,
			"0.009": 2.8672696003,
			"0.01": 3.59027290788,
			"0.011": 4.6437464222,
			"0.012": 3.17314220484,
			"0.013": 1.40928617976,
			"0.014": 0.54955164575,
			"0.015": 1.10777028964,
			"0.016": 0.042131972018,
			"0.017": 0.0,
			"0.018": 0.0,
			"0.019": 0.0,
			"0.02": 0.0,
			"0.021": 0.0,
			"0.022": 0.0,
			"0.023": 0.0,
			"0.024": 0.0,
			"0.025": 0.0
		}
	}
}
