{
	 "smiles": "CNC(=S)C#N", 
	 "Tm": 314.65, 
	 "num_atms": 10, 
	 "gaussian": { 
		 "optdone": 1, 
		 "sigma_profile": "yes", 
		 "theory": "DFT", 
		 "functional": "B3LYP", 
		 "basiset": "6-31G**", 
		 "properties": { 
			 "R2extent": 877.543, 
			 "electric_dipole_moment_norm": 5.34297823316, 
			 "electric_quadrupole_moment_norm": 7.11551915112, 
			 "total_energy": -624.392396628, 
			 "HOMO_LUMO_gap": 0.15011, 
			 "cosmo_polarized_energy": -14.04, 
			 "cosmo_cavitation_energy": 17.06, 
			 "cosmo_dispersion_energy": -12.44, 
			 "cosmo_repulsion_energy": 1.04, 
			 "cosmo_total_nonelectrostatic_energy": 5.66, 
			 "SMD_solvation_energy": 3.39 
		},
		"coords": [
			{
				"x": -0.7700117594,
				"y": -1.0370505289,
				"z": -1.1727463326,
				"element": "C" 
			},
			{
				"x": -0.2209801257,
				"y": 0.2230830379,
				"z": -0.6986577938,
				"element": "N" 
			},
			{
				"x": -0.3166268678,
				"y": 0.6344418443,
				"z": 0.5820845577,
				"element": "C" 
			},
			{
				"x": -1.0536828396,
				"y": -0.1892444288,
				"z": 1.8201076025,
				"element": "S" 
			},
			{
				"x": 0.302828552,
				"y": 1.920700008,
				"z": 0.8231720087,
				"element": "C" 
			},
			{
				"x": 0.7988035454,
				"y": 2.953585705,
				"z": 1.0227199795,
				"element": "N" 
			},
			{
				"x": -1.8514087383,
				"y": -1.0704920679,
				"z": -1.0071817791,
				"element": "H" 
			},
			{
				"x": -0.3216852568,
				"y": -1.8775025127,
				"z": -0.6336792626,
				"element": "H" 
			},
			{
				"x": -0.5564570104,
				"y": -1.1255829816,
				"z": -2.2386461722,
				"element": "H" 
			},
			{
				"x": 0.2567205006,
				"y": 0.8239619247,
				"z": -1.3568728081,
				"element": "H" 
			}
		],
		 "valence_orbital": [ 
			{
				"type": "occ",
				"energy": -0.37947,
				"method": "rhf"
			},
			{
				"type": "occ",
				"energy": -0.35481,
				"method": "rhf"
			},
			{
				"type": "occ",
				"energy": -0.33602,
				"method": "rhf"
			},
			{
				"type": "occ",
				"energy": -0.25971,
				"method": "rhf"
			},
			{
				"type": "occ",
				"energy": -0.23829,
				"method": "rhf"
			},
			{
				"type": "unocc",
				"energy": -0.08818,
				"method": "rhf"
			},
			{
				"type": "unocc",
				"energy": 0.00652,
				"method": "rhf"
			},
			{
				"type": "unocc",
				"energy": 0.04555,
				"method": "rhf"
			},
			{
				"type": "unocc",
				"energy": 0.08203,
				"method": "rhf"
			},
			{
				"type": "unocc",
				"energy": 0.08451,
				"method": "rhf"
			}
		],
		"cosmo_sigma_profile": { 
			"-0.025": 0.0,
			"-0.024": 0.0,
			"-0.023": 0.0,
			"-0.022": 0.0,
			"-0.021": 0.0,
			"-0.02": 0.0,
			"-0.019": 0.0,
			"-0.018": 0.420639021229,
			"-0.017": 1.97365707105,
			"-0.016": 1.4444279387,
			"-0.015": 1.04510283763,
			"-0.014": 1.62470028627,
			"-0.013": 1.15440563453,
			"-0.012": 1.2223053807,
			"-0.011": 1.47171414399,
			"-0.01": 1.28693799072,
			"-0.009": 1.22580254645,
			"-0.008": 2.35959943888,
			"-0.007": 3.40704511906,
			"-0.006": 6.48611572388,
			"-0.005": 9.07289667695,
			"-0.004": 9.9098586732,
			"-0.003": 11.3466575268,
			"-0.002": 6.40441243873,
			"-0.001": 3.80872338223,
			"0.0": 3.62495181671,
			"0.001": 5.25195242979,
			"0.002": 6.47508917508,
			"0.003": 6.7246588467,
			"0.004": 7.6627903237,
			"0.005": 8.74049960781,
			"0.006": 10.5598054166,
			"0.007": 8.28942057419,
			"0.008": 6.82469140304,
			"0.009": 4.49007351407,
			"0.01": 3.06346836683,
			"0.011": 2.08594735774,
			"0.012": 0.388401208762,
			"0.013": 0.0,
			"0.014": 0.0,
			"0.015": 0.0,
			"0.016": 0.0,
			"0.017": 0.0,
			"0.018": 0.0,
			"0.019": 0.0,
			"0.02": 0.0,
			"0.021": 0.0,
			"0.022": 0.0,
			"0.023": 0.0,
			"0.024": 0.0,
			"0.025": 0.0
		}
	}
}
