{
	 "smiles": "CC1CCC(C)C1C", 
	 "Tm": 159.15, 
	 "num_atms": 24, 
	 "gaussian": { 
		 "optdone": 1, 
		 "sigma_profile": "yes", 
		 "theory": "DFT", 
		 "functional": "B3LYP", 
		 "basiset": "6-31G**", 
		 "properties": { 
			 "R2extent": 1437.2536, 
			 "electric_dipole_moment_norm": 0.0402816335319, 
			 "electric_quadrupole_moment_norm": 1.0047042749, 
			 "total_energy": -314.515847626, 
			 "HOMO_LUMO_gap": 0.37215, 
			 "cosmo_polarized_energy": -0.6, 
			 "cosmo_cavitation_energy": 23.52, 
			 "cosmo_dispersion_energy": -17.19, 
			 "cosmo_repulsion_energy": 1.42, 
			 "cosmo_total_nonelectrostatic_energy": 7.75, 
			 "SMD_solvation_energy": 3.66 
		},
		"coords": [
			{
				"x": 2.5867146124,
				"y": -1.0631811768,
				"z": -0.588514266,
				"element": "C" 
			},
			{
				"x": 1.115840791,
				"y": -0.6561464895,
				"z": -0.4944612624,
				"element": "C" 
			},
			{
				"x": 0.8780267779,
				"y": 0.8626666246,
				"z": -0.5509843145,
				"element": "C" 
			},
			{
				"x": -0.6316501724,
				"y": 1.0122026012,
				"z": -0.8381072491,
				"element": "C" 
			},
			{
				"x": -1.0859683413,
				"y": -0.3136808475,
				"z": -1.5313825775,
				"element": "C" 
			},
			{
				"x": -2.2289120211,
				"y": -0.9853888416,
				"z": -0.7563536357,
				"element": "C" 
			},
			{
				"x": 0.2185375717,
				"y": -1.1684886741,
				"z": -1.643862069,
				"element": "C" 
			},
			{
				"x": 0.0262006884,
				"y": -2.6857588253,
				"z": -1.6956782276,
				"element": "C" 
			},
			{
				"x": 3.0257011296,
				"y": -0.7214296766,
				"z": -1.534165628,
				"element": "H" 
			},
			{
				"x": 2.7145905211,
				"y": -2.1495627653,
				"z": -0.5348582172,
				"element": "H" 
			},
			{
				"x": 3.1726930076,
				"y": -0.6236514291,
				"z": 0.2263946709,
				"element": "H" 
			},
			{
				"x": 0.7073513145,
				"y": -1.0376062385,
				"z": 0.4550741833,
				"element": "H" 
			},
			{
				"x": 1.1914634029,
				"y": 1.3802457024,
				"z": 0.3621469508,
				"element": "H" 
			},
			{
				"x": 1.4698171714,
				"y": 1.283500393,
				"z": -1.3753426703,
				"element": "H" 
			},
			{
				"x": -0.8484155108,
				"y": 1.8938620161,
				"z": -1.4497663628,
				"element": "H" 
			},
			{
				"x": -1.1820233806,
				"y": 1.144074286,
				"z": 0.1009733078,
				"element": "H" 
			},
			{
				"x": -1.4568429515,
				"y": -0.1021919058,
				"z": -2.5419007718,
				"element": "H" 
			},
			{
				"x": -3.0796748725,
				"y": -0.3005029748,
				"z": -0.66815361,
				"element": "H" 
			},
			{
				"x": -1.9229866289,
				"y": -1.2565590709,
				"z": 0.2611362424,
				"element": "H" 
			},
			{
				"x": -2.5872424403,
				"y": -1.8935750361,
				"z": -1.2514880528,
				"element": "H" 
			},
			{
				"x": 0.7160638404,
				"y": -0.8665534785,
				"z": -2.5789284275,
				"element": "H" 
			},
			{
				"x": -0.4059367716,
				"y": -3.0733034617,
				"z": -0.7668646529,
				"element": "H" 
			},
			{
				"x": 0.9818801502,
				"y": -3.196836582,
				"z": -1.8528173775,
				"element": "H" 
			},
			{
				"x": -0.6369278881,
				"y": -2.9778341489,
				"z": -2.5177959828,
				"element": "H" 
			}
		],
		 "valence_orbital": [ 
			{
				"type": "occ",
				"energy": -0.31645,
				"method": "rhf"
			},
			{
				"type": "occ",
				"energy": -0.30923,
				"method": "rhf"
			},
			{
				"type": "occ",
				"energy": -0.30592,
				"method": "rhf"
			},
			{
				"type": "occ",
				"energy": -0.29867,
				"method": "rhf"
			},
			{
				"type": "occ",
				"energy": -0.28961,
				"method": "rhf"
			},
			{
				"type": "unocc",
				"energy": 0.08254,
				"method": "rhf"
			},
			{
				"type": "unocc",
				"energy": 0.10337,
				"method": "rhf"
			},
			{
				"type": "unocc",
				"energy": 0.11158,
				"method": "rhf"
			},
			{
				"type": "unocc",
				"energy": 0.11532,
				"method": "rhf"
			},
			{
				"type": "unocc",
				"energy": 0.14501,
				"method": "rhf"
			}
		],
		"cosmo_sigma_profile": { 
			"-0.025": 0.0,
			"-0.024": 0.0,
			"-0.023": 0.0,
			"-0.022": 0.0,
			"-0.021": 0.0,
			"-0.02": 0.0,
			"-0.019": 0.0,
			"-0.018": 0.0,
			"-0.017": 0.0,
			"-0.016": 0.0,
			"-0.015": 0.0,
			"-0.014": 0.0,
			"-0.013": 0.0,
			"-0.012": 0.0,
			"-0.011": 0.0,
			"-0.01": 0.0,
			"-0.009": 0.0,
			"-0.008": 0.0,
			"-0.007": 0.0,
			"-0.006": 0.0,
			"-0.005": 0.0,
			"-0.004": 0.0,
			"-0.003": 2.16526163579,
			"-0.002": 23.0199520624,
			"-0.001": 41.488916436,
			"0.0": 46.2364724822,
			"0.001": 40.4864825354,
			"0.002": 24.0413945915,
			"0.003": 2.28633689267,
			"0.004": 0.0,
			"0.005": 0.0,
			"0.006": 0.0,
			"0.007": 0.0,
			"0.008": 0.0,
			"0.009": 0.0,
			"0.01": 0.0,
			"0.011": 0.0,
			"0.012": 0.0,
			"0.013": 0.0,
			"0.014": 0.0,
			"0.015": 0.0,
			"0.016": 0.0,
			"0.017": 0.0,
			"0.018": 0.0,
			"0.019": 0.0,
			"0.02": 0.0,
			"0.021": 0.0,
			"0.022": 0.0,
			"0.023": 0.0,
			"0.024": 0.0,
			"0.025": 0.0
		}
	}
}
