{
	 "smiles": "CC1C2=C(C=CC=C2)C2=C1C=CC=C2", 
	 "Tm": 319.65, 
	 "num_atms": 26, 
	 "gaussian": { 
		 "optdone": 1, 
		 "sigma_profile": "yes", 
		 "theory": "DFT", 
		 "functional": "B3LYP", 
		 "basiset": "6-31G**", 
		 "properties": { 
			 "R2extent": 2855.9261, 
			 "electric_dipole_moment_norm": 0.497258986847, 
			 "electric_quadrupole_moment_norm": 7.56028524197, 
			 "total_energy": -540.744299569, 
			 "HOMO_LUMO_gap": 0.18403, 
			 "cosmo_polarized_energy": -5.24, 
			 "cosmo_cavitation_energy": 28.67, 
			 "cosmo_dispersion_energy": -20.87, 
			 "cosmo_repulsion_energy": 1.61, 
			 "cosmo_total_nonelectrostatic_energy": 9.41, 
			 "SMD_solvation_energy": 4.31 
		},
		"coords": [
			{
				"x": 2.0232653924,
				"y": 0.709574605,
				"z": 1.0464761286,
				"element": "C" 
			},
			{
				"x": 0.4933250741,
				"y": 0.7588197958,
				"z": 0.8752039589,
				"element": "C" 
			},
			{
				"x": -0.2548818342,
				"y": -0.2417375248,
				"z": 1.7432844979,
				"element": "C" 
			},
			{
				"x": -1.052763207,
				"y": -1.0882881067,
				"z": 0.9458579803,
				"element": "C" 
			},
			{
				"x": -1.8306875229,
				"y": -2.0889137369,
				"z": 1.5325846887,
				"element": "C" 
			},
			{
				"x": -1.8031277064,
				"y": -2.2374721011,
				"z": 2.9211177462,
				"element": "C" 
			},
			{
				"x": -1.0111406471,
				"y": -1.3984417895,
				"z": 3.7125932317,
				"element": "C" 
			},
			{
				"x": -0.2323294242,
				"y": -0.3942440777,
				"z": 3.1252869287,
				"element": "C" 
			},
			{
				"x": -0.8826574703,
				"y": -0.7000271193,
				"z": -0.4610869143,
				"element": "C" 
			},
			{
				"x": 0.0188009375,
				"y": 0.3830178565,
				"z": -0.5205414838,
				"element": "C" 
			},
			{
				"x": 0.3565546499,
				"y": 0.9496669584,
				"z": -1.7446874404,
				"element": "C" 
			},
			{
				"x": -0.2096431964,
				"y": 0.4304496417,
				"z": -2.9150337853,
				"element": "C" 
			},
			{
				"x": -1.1045497683,
				"y": -0.6434460555,
				"z": -2.8554313953,
				"element": "C" 
			},
			{
				"x": -1.4483751469,
				"y": -1.2164922261,
				"z": -1.6289470153,
				"element": "C" 
			},
			{
				"x": 2.5141913039,
				"y": 1.4256001827,
				"z": 0.3797362024,
				"element": "H" 
			},
			{
				"x": 2.3095966604,
				"y": 0.9580230257,
				"z": 2.0733784047,
				"element": "H" 
			},
			{
				"x": 2.4061331553,
				"y": -0.2892431364,
				"z": 0.8169454673,
				"element": "H" 
			},
			{
				"x": 0.1554879196,
				"y": 1.7783220497,
				"z": 1.1157299303,
				"element": "H" 
			},
			{
				"x": -2.4483573636,
				"y": -2.7433634902,
				"z": 0.9234816819,
				"element": "H" 
			},
			{
				"x": -2.4026900093,
				"y": -3.0118620626,
				"z": 3.3913345831,
				"element": "H" 
			},
			{
				"x": -1.0009391997,
				"y": -1.5269038584,
				"z": 4.7911929137,
				"element": "H" 
			},
			{
				"x": 0.3794118409,
				"y": 0.2545920984,
				"z": 3.7473153178,
				"element": "H" 
			},
			{
				"x": 1.0501415045,
				"y": 1.7851915105,
				"z": -1.7992508623,
				"element": "H" 
			},
			{
				"x": 0.0473631253,
				"y": 0.864993623,
				"z": -3.8768574759,
				"element": "H" 
			},
			{
				"x": -1.5363410397,
				"y": -1.0351440584,
				"z": -3.772158088,
				"element": "H" 
			},
			{
				"x": -2.1444880277,
				"y": -2.0499720041,
				"z": -1.5893252016,
				"element": "H" 
			}
		],
		 "valence_orbital": [ 
			{
				"type": "occ",
				"energy": -0.3208,
				"method": "rhf"
			},
			{
				"type": "occ",
				"energy": -0.27748,
				"method": "rhf"
			},
			{
				"type": "occ",
				"energy": -0.24604,
				"method": "rhf"
			},
			{
				"type": "occ",
				"energy": -0.23979,
				"method": "rhf"
			},
			{
				"type": "occ",
				"energy": -0.2113,
				"method": "rhf"
			},
			{
				"type": "unocc",
				"energy": -0.02727,
				"method": "rhf"
			},
			{
				"type": "unocc",
				"energy": -0.0076,
				"method": "rhf"
			},
			{
				"type": "unocc",
				"energy": 0.01198,
				"method": "rhf"
			},
			{
				"type": "unocc",
				"energy": 0.04429,
				"method": "rhf"
			},
			{
				"type": "unocc",
				"energy": 0.09624,
				"method": "rhf"
			}
		],
		"cosmo_sigma_profile": { 
			"-0.025": 0.0,
			"-0.024": 0.0,
			"-0.023": 0.0,
			"-0.022": 0.0,
			"-0.021": 0.0,
			"-0.02": 0.0,
			"-0.019": 0.0,
			"-0.018": 0.0,
			"-0.017": 0.0,
			"-0.016": 0.0,
			"-0.015": 0.0,
			"-0.014": 0.0,
			"-0.013": 0.0,
			"-0.012": 0.0,
			"-0.011": 0.0,
			"-0.01": 0.0,
			"-0.009": 0.0,
			"-0.008": 0.0,
			"-0.007": 0.0,
			"-0.006": 4.54965165771,
			"-0.005": 18.7449739299,
			"-0.004": 23.936809835,
			"-0.003": 27.427619541,
			"-0.002": 18.8155181721,
			"-0.001": 19.6589028227,
			"0.0": 16.0999377811,
			"0.001": 17.6236252984,
			"0.002": 14.4191883132,
			"0.003": 15.285909413,
			"0.004": 17.3575301513,
			"0.005": 16.8313313877,
			"0.006": 15.6882815594,
			"0.007": 2.15848082246,
			"0.008": 0.0,
			"0.009": 0.0,
			"0.01": 0.0,
			"0.011": 0.0,
			"0.012": 0.0,
			"0.013": 0.0,
			"0.014": 0.0,
			"0.015": 0.0,
			"0.016": 0.0,
			"0.017": 0.0,
			"0.018": 0.0,
			"0.019": 0.0,
			"0.02": 0.0,
			"0.021": 0.0,
			"0.022": 0.0,
			"0.023": 0.0,
			"0.024": 0.0,
			"0.025": 0.0
		}
	}
}
