{
	 "smiles": "CCOC(=O)NC(N)=N", 
	 "Tm": 378.15, 
	 "num_atms": 18, 
	 "gaussian": { 
		 "optdone": 1, 
		 "sigma_profile": "yes", 
		 "theory": "DFT", 
		 "functional": "B3LYP", 
		 "basiset": "6-31G**", 
		 "properties": { 
			 "R2extent": 1940.9683, 
			 "electric_dipole_moment_norm": 1.44772930135, 
			 "electric_quadrupole_moment_norm": 17.1106747903, 
			 "total_energy": -472.576079497, 
			 "HOMO_LUMO_gap": 0.25551, 
			 "cosmo_polarized_energy": -15.18, 
			 "cosmo_cavitation_energy": 22.2, 
			 "cosmo_dispersion_energy": -16.29, 
			 "cosmo_repulsion_energy": 1.39, 
			 "cosmo_total_nonelectrostatic_energy": 7.3, 
			 "SMD_solvation_energy": 4.5 
		},
		"coords": [
			{
				"x": -1.0289684036,
				"y": 0.4982499513,
				"z": -2.5272136139,
				"element": "C" 
			},
			{
				"x": -2.0376233265,
				"y": -0.0735885493,
				"z": -1.5443913741,
				"element": "C" 
			},
			{
				"x": -1.3966700914,
				"y": -0.9441660194,
				"z": -0.5757816624,
				"element": "O" 
			},
			{
				"x": -0.8491079589,
				"y": -0.328902541,
				"z": 0.4931580962,
				"element": "C" 
			},
			{
				"x": -0.8797416391,
				"y": 0.8682188823,
				"z": 0.7037621807,
				"element": "O" 
			},
			{
				"x": -0.2221327907,
				"y": -1.2112787423,
				"z": 1.3524578965,
				"element": "N" 
			},
			{
				"x": -0.1393758096,
				"y": -2.6268090982,
				"z": 1.3380898182,
				"element": "C" 
			},
			{
				"x": 0.7633259279,
				"y": -3.0568348539,
				"z": 2.3155791132,
				"element": "N" 
			},
			{
				"x": -0.7845535636,
				"y": -3.4633657913,
				"z": 0.6288312715,
				"element": "N" 
			},
			{
				"x": -1.5501288855,
				"y": 1.0862548722,
				"z": -3.2900322024,
				"element": "H" 
			},
			{
				"x": -0.3226060531,
				"y": 1.1540612058,
				"z": -2.0127090717,
				"element": "H" 
			},
			{
				"x": -0.4754166205,
				"y": -0.3012486151,
				"z": -3.0281199699,
				"element": "H" 
			},
			{
				"x": -2.5636160875,
				"y": 0.7183124808,
				"z": -1.0072984306,
				"element": "H" 
			},
			{
				"x": -2.7627304013,
				"y": -0.7214140333,
				"z": -2.0418526285,
				"element": "H" 
			},
			{
				"x": 0.1261242837,
				"y": -0.7493582797,
				"z": 2.1815232648,
				"element": "H" 
			},
			{
				"x": 1.6593824456,
				"y": -2.5829727029,
				"z": 2.3015442485,
				"element": "H" 
			},
			{
				"x": 0.8688345462,
				"y": -4.0630464925,
				"z": 2.2732053118,
				"element": "H" 
			},
			{
				"x": -1.4760955722,
				"y": -2.9968116734,
				"z": 0.0476477521,
				"element": "H" 
			}
		],
		 "valence_orbital": [ 
			{
				"type": "occ",
				"energy": -0.30755,
				"method": "rhf"
			},
			{
				"type": "occ",
				"energy": -0.28744,
				"method": "rhf"
			},
			{
				"type": "occ",
				"energy": -0.28101,
				"method": "rhf"
			},
			{
				"type": "occ",
				"energy": -0.26585,
				"method": "rhf"
			},
			{
				"type": "occ",
				"energy": -0.24244,
				"method": "rhf"
			},
			{
				"type": "unocc",
				"energy": 0.01307,
				"method": "rhf"
			},
			{
				"type": "unocc",
				"energy": 0.06658,
				"method": "rhf"
			},
			{
				"type": "unocc",
				"energy": 0.0769,
				"method": "rhf"
			},
			{
				"type": "unocc",
				"energy": 0.1033,
				"method": "rhf"
			},
			{
				"type": "unocc",
				"energy": 0.11378,
				"method": "rhf"
			}
		],
		"cosmo_sigma_profile": { 
			"-0.025": 0.0,
			"-0.024": 0.0,
			"-0.023": 0.0,
			"-0.022": 0.0,
			"-0.021": 0.0,
			"-0.02": 0.0,
			"-0.019": 0.0,
			"-0.018": 0.0,
			"-0.017": 0.0,
			"-0.016": 0.0,
			"-0.015": 0.79343299325,
			"-0.014": 1.85732995931,
			"-0.013": 2.74652960356,
			"-0.012": 3.67122978806,
			"-0.011": 2.7435031653,
			"-0.01": 2.64032221715,
			"-0.009": 3.83914641065,
			"-0.008": 1.74820430149,
			"-0.007": 2.58860368345,
			"-0.006": 5.98932812839,
			"-0.005": 7.71982162092,
			"-0.004": 13.8401000312,
			"-0.003": 15.8799678574,
			"-0.002": 14.8816533067,
			"-0.001": 15.9472948105,
			"0.0": 14.8268232614,
			"0.001": 9.01948877514,
			"0.002": 3.10904782276,
			"0.003": 3.80622614448,
			"0.004": 4.6462740195,
			"0.005": 5.52929646835,
			"0.006": 4.24459121208,
			"0.007": 3.41551137486,
			"0.008": 3.56986636862,
			"0.009": 2.52902642144,
			"0.01": 2.89844641067,
			"0.011": 3.93495049262,
			"0.012": 6.96443493624,
			"0.013": 3.51501612546,
			"0.014": 1.12630660405,
			"0.015": 1.05359267375,
			"0.016": 1.31507112147,
			"0.017": 1.04236003496,
			"0.018": 0.827696847722,
			"0.019": 0.0559531751381,
			"0.02": 0.0,
			"0.021": 0.0,
			"0.022": 0.0,
			"0.023": 0.0,
			"0.024": 0.0,
			"0.025": 0.0
		}
	}
}
