{
	 "smiles": "O=S1(=O)NC2=NC=NN2C2=C1C=CC=C2", 
	 "Tm": 558.15, 
	 "num_atms": 21, 
	 "gaussian": { 
		 "optdone": 1, 
		 "sigma_profile": "yes", 
		 "theory": "DFT", 
		 "functional": "B3LYP", 
		 "basiset": "6-31G**", 
		 "properties": { 
			 "R2extent": 3343.742, 
			 "electric_dipole_moment_norm": 3.750229109, 
			 "electric_quadrupole_moment_norm": 11.906647133, 
			 "total_energy": -1076.01464676, 
			 "HOMO_LUMO_gap": 0.19304, 
			 "cosmo_polarized_energy": -15.63, 
			 "cosmo_cavitation_energy": 26.83, 
			 "cosmo_dispersion_energy": -20.77, 
			 "cosmo_repulsion_energy": 1.52, 
			 "cosmo_total_nonelectrostatic_energy": 7.59, 
			 "SMD_solvation_energy": 1.18 
		},
		"coords": [
			{
				"x": 0.8609344619,
				"y": -0.6208059515,
				"z": -3.8198401079,
				"element": "O" 
			},
			{
				"x": -0.0318441732,
				"y": -0.1762662331,
				"z": -2.7549427962,
				"element": "S" 
			},
			{
				"x": -0.8589564551,
				"y": 1.0158947773,
				"z": -2.9364756588,
				"element": "O" 
			},
			{
				"x": -1.0233553052,
				"y": -1.5232747931,
				"z": -2.3509245971,
				"element": "N" 
			},
			{
				"x": -1.7143616933,
				"y": -1.4619237812,
				"z": -1.1535509373,
				"element": "C" 
			},
			{
				"x": -2.88985542,
				"y": -1.9712791872,
				"z": -0.8572127114,
				"element": "N" 
			},
			{
				"x": -2.9890833696,
				"y": -1.6892947154,
				"z": 0.4808371234,
				"element": "C" 
			},
			{
				"x": -1.9738931239,
				"y": -1.0422330672,
				"z": 1.0197677332,
				"element": "N" 
			},
			{
				"x": -1.1327705917,
				"y": -0.8928792828,
				"z": -0.0572438673,
				"element": "N" 
			},
			{
				"x": 0.1505066379,
				"y": -0.3345161467,
				"z": 0.004386648,
				"element": "C" 
			},
			{
				"x": 0.8279263106,
				"y": -0.0608157953,
				"z": -1.1962750149,
				"element": "C" 
			},
			{
				"x": 2.1375402544,
				"y": 0.4196350045,
				"z": -1.1852221526,
				"element": "C" 
			},
			{
				"x": 2.7679070339,
				"y": 0.6521130812,
				"z": 0.0347342781,
				"element": "C" 
			},
			{
				"x": 2.0845319966,
				"y": 0.4049408513,
				"z": 1.2304864509,
				"element": "C" 
			},
			{
				"x": 0.7851306823,
				"y": -0.0954235258,
				"z": 1.2263443209,
				"element": "C" 
			},
			{
				"x": -1.5440233937,
				"y": -1.9044187938,
				"z": -3.136157264,
				"element": "H" 
			},
			{
				"x": -3.8530008902,
				"y": -1.9668484652,
				"z": 1.0686489257,
				"element": "H" 
			},
			{
				"x": 2.644795133,
				"y": 0.6024072523,
				"z": -2.1266078613,
				"element": "H" 
			},
			{
				"x": 3.7865609256,
				"y": 1.024617515,
				"z": 0.053467884,
				"element": "H" 
			},
			{
				"x": 2.5751286041,
				"y": 0.5915781627,
				"z": 2.1807066065,
				"element": "H" 
			},
			{
				"x": 0.2498823757,
				"y": -0.3115069059,
				"z": 2.1429729981,
				"element": "H" 
			}
		],
		 "valence_orbital": [ 
			{
				"type": "occ",
				"energy": -0.31913,
				"method": "rhf"
			},
			{
				"type": "occ",
				"energy": -0.29907,
				"method": "rhf"
			},
			{
				"type": "occ",
				"energy": -0.28943,
				"method": "rhf"
			},
			{
				"type": "occ",
				"energy": -0.2731,
				"method": "rhf"
			},
			{
				"type": "occ",
				"energy": -0.25278,
				"method": "rhf"
			},
			{
				"type": "unocc",
				"energy": -0.05974,
				"method": "rhf"
			},
			{
				"type": "unocc",
				"energy": -0.04851,
				"method": "rhf"
			},
			{
				"type": "unocc",
				"energy": 0.00792,
				"method": "rhf"
			},
			{
				"type": "unocc",
				"energy": 0.03003,
				"method": "rhf"
			},
			{
				"type": "unocc",
				"energy": 0.03732,
				"method": "rhf"
			}
		],
		"cosmo_sigma_profile": { 
			"-0.025": 0.0,
			"-0.024": 0.0,
			"-0.023": 0.0,
			"-0.022": 0.0,
			"-0.021": 0.0,
			"-0.02": 0.0,
			"-0.019": 0.73086805483,
			"-0.018": 1.29072012346,
			"-0.017": 0.935524385844,
			"-0.016": 1.04101392559,
			"-0.015": 0.979024801084,
			"-0.014": 0.53938352262,
			"-0.013": 0.761597853264,
			"-0.012": 1.15742581113,
			"-0.011": 0.604669159578,
			"-0.01": 1.06057023654,
			"-0.009": 3.4682426746,
			"-0.008": 7.73357223359,
			"-0.007": 12.6655976383,
			"-0.006": 10.0357142418,
			"-0.005": 8.9427998098,
			"-0.004": 10.9289806449,
			"-0.003": 10.3776072468,
			"-0.002": 13.4291624742,
			"-0.001": 15.9956932379,
			"0.0": 20.2500263528,
			"0.001": 17.481418417,
			"0.002": 11.9926396307,
			"0.003": 6.74787166032,
			"0.004": 5.61530476006,
			"0.005": 4.97858509319,
			"0.006": 4.91506500076,
			"0.007": 6.14523790737,
			"0.008": 6.74745726592,
			"0.009": 14.1683759236,
			"0.01": 9.31180335995,
			"0.011": 1.96533451962,
			"0.012": 1.93371320452,
			"0.013": 1.04154043654,
			"0.014": 0.728463156831,
			"0.015": 0.556981530087,
			"0.016": 0.0,
			"0.017": 0.0,
			"0.018": 0.0,
			"0.019": 0.0,
			"0.02": 0.0,
			"0.021": 0.0,
			"0.022": 0.0,
			"0.023": 0.0,
			"0.024": 0.0,
			"0.025": 0.0
		}
	}
}
