{
	 "smiles": "COC1=CC=C(CNC(=O)C(=O)C2=CNC3=CC=C(C=C23)N(=O)=O)C=C1", 
	 "Tm": 547.15, 
	 "num_atms": 41, 
	 "gaussian": { 
		 "optdone": 1, 
		 "sigma_profile": "yes", 
		 "theory": "DFT", 
		 "functional": "B3LYP", 
		 "basiset": "6-31G**", 
		 "properties": { 
			 "R2extent": 14710.8915, 
			 "electric_dipole_moment_norm": 5.8162162348, 
			 "electric_quadrupole_moment_norm": 43.2170009154, 
			 "total_energy": -1235.23834751, 
			 "HOMO_LUMO_gap": 0.13187, 
			 "cosmo_polarized_energy": -25.81, 
			 "cosmo_cavitation_energy": 47.14, 
			 "cosmo_dispersion_energy": -33.78, 
			 "cosmo_repulsion_energy": 2.52, 
			 "cosmo_total_nonelectrostatic_energy": 15.88, 
			 "SMD_solvation_energy": 11.26 
		},
		"coords": [
			{
				"x": 2.6335814637,
				"y": 6.7360941836,
				"z": -0.011855981,
				"element": "C" 
			},
			{
				"x": 1.564700686,
				"y": 6.5403453035,
				"z": 0.9005984295,
				"element": "O" 
			},
			{
				"x": 0.9533194014,
				"y": 5.3206734255,
				"z": 0.9280965282,
				"element": "C" 
			},
			{
				"x": -0.0924992795,
				"y": 5.1844150591,
				"z": 1.8515349789,
				"element": "C" 
			},
			{
				"x": -0.7756958215,
				"y": 3.9777553811,
				"z": 1.9528846883,
				"element": "C" 
			},
			{
				"x": -0.4387892087,
				"y": 2.882749163,
				"z": 1.1452956068,
				"element": "C" 
			},
			{
				"x": -1.1985646342,
				"y": 1.5754703688,
				"z": 1.250844283,
				"element": "C" 
			},
			{
				"x": -2.1278834454,
				"y": 1.3633307524,
				"z": 0.1317676397,
				"element": "N" 
			},
			{
				"x": -2.1397128456,
				"y": 0.4554931224,
				"z": -0.8756533768,
				"element": "C" 
			},
			{
				"x": -3.039915231,
				"y": 0.4322948633,
				"z": -1.7175567362,
				"element": "O" 
			},
			{
				"x": -0.9739005287,
				"y": -0.5517690511,
				"z": -0.9771727182,
				"element": "C" 
			},
			{
				"x": 0.1663087518,
				"y": -0.2335209105,
				"z": -0.6417984783,
				"element": "O" 
			},
			{
				"x": -1.2745180253,
				"y": -1.8669771578,
				"z": -1.5257730717,
				"element": "C" 
			},
			{
				"x": -2.4848065067,
				"y": -2.3372278685,
				"z": -2.0101868608,
				"element": "C" 
			},
			{
				"x": -2.3429884322,
				"y": -3.6351738408,
				"z": -2.4121591167,
				"element": "N" 
			},
			{
				"x": -1.0388482761,
				"y": -4.0555600967,
				"z": -2.2109377417,
				"element": "C" 
			},
			{
				"x": -0.4412268833,
				"y": -5.2926524958,
				"z": -2.4726528829,
				"element": "C" 
			},
			{
				"x": 0.9034926368,
				"y": -5.4306260168,
				"z": -2.1637782483,
				"element": "C" 
			},
			{
				"x": 1.6068112572,
				"y": -4.3458522788,
				"z": -1.6090984675,
				"element": "C" 
			},
			{
				"x": 1.02680714,
				"y": -3.1104416156,
				"z": -1.3437684912,
				"element": "C" 
			},
			{
				"x": -0.3294425256,
				"y": -2.960546979,
				"z": -1.651587519,
				"element": "C" 
			},
			{
				"x": 3.0312092226,
				"y": -4.5327905327,
				"z": -1.2964444111,
				"element": "N" 
			},
			{
				"x": 3.6426088541,
				"y": -3.5821717214,
				"z": -0.8100063358,
				"element": "O" 
			},
			{
				"x": 3.5311368819,
				"y": -5.632888295,
				"z": -1.5392999298,
				"element": "O" 
			},
			{
				"x": 0.6080712159,
				"y": 3.0306103805,
				"z": 0.2293462988,
				"element": "C" 
			},
			{
				"x": 1.3041109528,
				"y": 4.234609898,
				"z": 0.1143362185,
				"element": "C" 
			},
			{
				"x": 3.4694767134,
				"y": 6.0539977364,
				"z": 0.1899356823,
				"element": "H" 
			},
			{
				"x": 2.9679630885,
				"y": 7.7646982616,
				"z": 0.1320792002,
				"element": "H" 
			},
			{
				"x": 2.3082935316,
				"y": 6.6052119516,
				"z": -1.0519970373,
				"element": "H" 
			},
			{
				"x": -0.3474753473,
				"y": 6.0341054696,
				"z": 2.4763615199,
				"element": "H" 
			},
			{
				"x": -1.5817081289,
				"y": 3.8845381049,
				"z": 2.6777267246,
				"element": "H" 
			},
			{
				"x": -0.512732035,
				"y": 0.7315190045,
				"z": 1.2818938837,
				"element": "H" 
			},
			{
				"x": -1.78604603,
				"y": 1.5673470669,
				"z": 2.1768079122,
				"element": "H" 
			},
			{
				"x": -2.8947869025,
				"y": 2.0220777294,
				"z": 0.0530447542,
				"element": "H" 
			},
			{
				"x": -3.4187289878,
				"y": -1.8064871948,
				"z": -2.1066700913,
				"element": "H" 
			},
			{
				"x": -3.0780023285,
				"y": -4.193425691,
				"z": -2.8186801957,
				"element": "H" 
			},
			{
				"x": -1.0017945146,
				"y": -6.1172379841,
				"z": -2.9016056073,
				"element": "H" 
			},
			{
				"x": 1.4317523064,
				"y": -6.3583757355,
				"z": -2.3401047568,
				"element": "H" 
			},
			{
				"x": 1.6058899457,
				"y": -2.3013374856,
				"z": -0.9212351507,
				"element": "H" 
			},
			{
				"x": 0.8838152145,
				"y": 2.1876250452,
				"z": -0.3972878185,
				"element": "H" 
			},
			{
				"x": 2.1135166538,
				"y": 4.3130006801,
				"z": -0.6018433242,
				"element": "H" 
			}
		],
		 "valence_orbital": [ 
			{
				"type": "occ",
				"energy": -0.26025,
				"method": "rhf"
			},
			{
				"type": "occ",
				"energy": -0.25056,
				"method": "rhf"
			},
			{
				"type": "occ",
				"energy": -0.24622,
				"method": "rhf"
			},
			{
				"type": "occ",
				"energy": -0.23711,
				"method": "rhf"
			},
			{
				"type": "occ",
				"energy": -0.21635,
				"method": "rhf"
			},
			{
				"type": "unocc",
				"energy": -0.08448,
				"method": "rhf"
			},
			{
				"type": "unocc",
				"energy": -0.06457,
				"method": "rhf"
			},
			{
				"type": "unocc",
				"energy": -0.03443,
				"method": "rhf"
			},
			{
				"type": "unocc",
				"energy": -0.00258,
				"method": "rhf"
			},
			{
				"type": "unocc",
				"energy": 0.00694,
				"method": "rhf"
			}
		],
		"cosmo_sigma_profile": { 
			"-0.025": 0.0,
			"-0.024": 0.0,
			"-0.023": 0.0,
			"-0.022": 0.0,
			"-0.021": 0.0,
			"-0.02": 0.0,
			"-0.019": 0.0,
			"-0.018": 0.490345419924,
			"-0.017": 2.20569274776,
			"-0.016": 1.64516584865,
			"-0.015": 1.31443111847,
			"-0.014": 1.90716403367,
			"-0.013": 2.52322717962,
			"-0.012": 2.16739707876,
			"-0.011": 2.56263651097,
			"-0.01": 3.06357944165,
			"-0.009": 2.94985710791,
			"-0.008": 5.38485530985,
			"-0.007": 5.5292906085,
			"-0.006": 16.9674761277,
			"-0.005": 26.2005697892,
			"-0.004": 24.17570648,
			"-0.003": 26.930430803,
			"-0.002": 22.5475682579,
			"-0.001": 24.2993473391,
			"0.0": 30.5693330232,
			"0.001": 32.5514667871,
			"0.002": 27.3230156786,
			"0.003": 17.6851621844,
			"0.004": 16.706443397,
			"0.005": 18.1287936814,
			"0.006": 12.1401767753,
			"0.007": 10.8845336053,
			"0.008": 13.1318645796,
			"0.009": 8.81142889201,
			"0.01": 7.74784333343,
			"0.011": 2.75515911874,
			"0.012": 2.59636864408,
			"0.013": 3.05410849728,
			"0.014": 0.874469616079,
			"0.015": 0.0,
			"0.016": 0.0,
			"0.017": 0.0,
			"0.018": 0.0,
			"0.019": 0.0,
			"0.02": 0.0,
			"0.021": 0.0,
			"0.022": 0.0,
			"0.023": 0.0,
			"0.024": 0.0,
			"0.025": 0.0
		}
	}
}
