{
	 "smiles": "ClCC(=O)C1=CC2=C(C=C1)N(CC2)C=O", 
	 "Tm": 420.15, 
	 "num_atms": 25, 
	 "gaussian": { 
		 "optdone": 1, 
		 "sigma_profile": "yes", 
		 "theory": "DFT", 
		 "functional": "B3LYP", 
		 "basiset": "6-31G**", 
		 "properties": { 
			 "R2extent": 5784.6786, 
			 "electric_dipole_moment_norm": 3.67966411646, 
			 "electric_quadrupole_moment_norm": 29.9352890678, 
			 "total_energy": -1090.59726332, 
			 "HOMO_LUMO_gap": 0.16344, 
			 "cosmo_polarized_energy": -18.9, 
			 "cosmo_cavitation_energy": 30.96, 
			 "cosmo_dispersion_energy": -22.78, 
			 "cosmo_repulsion_energy": 1.77, 
			 "cosmo_total_nonelectrostatic_energy": 9.95, 
			 "SMD_solvation_energy": 6.18 
		},
		"coords": [
			{
				"x": -0.3488036259,
				"y": -3.2362661357,
				"z": 2.8611828933,
				"element": "Cl" 
			},
			{
				"x": -0.0995955861,
				"y": -1.5501488245,
				"z": 2.3165464541,
				"element": "C" 
			},
			{
				"x": 0.2326583548,
				"y": -1.4394548381,
				"z": 0.8213661157,
				"element": "C" 
			},
			{
				"x": 0.3094596605,
				"y": -2.4233402543,
				"z": 0.1099640992,
				"element": "O" 
			},
			{
				"x": 0.4561714482,
				"y": -0.0630508801,
				"z": 0.2876427541,
				"element": "C" 
			},
			{
				"x": 0.3763733382,
				"y": 1.1018597716,
				"z": 1.0777466279,
				"element": "C" 
			},
			{
				"x": 0.5987264586,
				"y": 2.3408068473,
				"z": 0.5004648967,
				"element": "C" 
			},
			{
				"x": 0.9027122095,
				"y": 2.4372159368,
				"z": -0.8671497222,
				"element": "C" 
			},
			{
				"x": 0.9876805682,
				"y": 1.2959953972,
				"z": -1.6728358611,
				"element": "C" 
			},
			{
				"x": 0.7619249411,
				"y": 0.0588127218,
				"z": -1.079289935,
				"element": "C" 
			},
			{
				"x": 1.0847611638,
				"y": 3.7791667225,
				"z": -1.2206478738,
				"element": "N" 
			},
			{
				"x": 0.9025475572,
				"y": 4.6732812734,
				"z": -0.0563528155,
				"element": "C" 
			},
			{
				"x": 0.5720758953,
				"y": 3.7212956875,
				"z": 1.1235521539,
				"element": "C" 
			},
			{
				"x": 1.3927070212,
				"y": 4.2941387636,
				"z": -2.4527712087,
				"element": "C" 
			},
			{
				"x": 1.531413959,
				"y": 5.4869076446,
				"z": -2.660559776,
				"element": "O" 
			},
			{
				"x": -1.0124181286,
				"y": -0.9917585973,
				"z": 2.5396881195,
				"element": "H" 
			},
			{
				"x": 0.7123632878,
				"y": -1.1261258721,
				"z": 2.9129891696,
				"element": "H" 
			},
			{
				"x": 0.1423927967,
				"y": 1.0445065935,
				"z": 2.1366043934,
				"element": "H" 
			},
			{
				"x": 1.2214726868,
				"y": 1.3572948119,
				"z": -2.729689362,
				"element": "H" 
			},
			{
				"x": 0.8177907897,
				"y": -0.8512587349,
				"z": -1.666758667,
				"element": "H" 
			},
			{
				"x": 1.8174893018,
				"y": 5.2501725481,
				"z": 0.1013722756,
				"element": "H" 
			},
			{
				"x": 0.101016339,
				"y": 5.3849040198,
				"z": -0.2706889084,
				"element": "H" 
			},
			{
				"x": -0.4069917285,
				"y": 3.9493366595,
				"z": 1.5580147739,
				"element": "H" 
			},
			{
				"x": 1.3075362465,
				"y": 3.8147187395,
				"z": 1.9295942215,
				"element": "H" 
			},
			{
				"x": 1.5024350454,
				"y": 3.5252899984,
				"z": -3.2366848186,
				"element": "H" 
			}
		],
		 "valence_orbital": [ 
			{
				"type": "occ",
				"energy": -0.29898,
				"method": "rhf"
			},
			{
				"type": "occ",
				"energy": -0.27612,
				"method": "rhf"
			},
			{
				"type": "occ",
				"energy": -0.27375,
				"method": "rhf"
			},
			{
				"type": "occ",
				"energy": -0.26423,
				"method": "rhf"
			},
			{
				"type": "occ",
				"energy": -0.23268,
				"method": "rhf"
			},
			{
				"type": "unocc",
				"energy": -0.06924,
				"method": "rhf"
			},
			{
				"type": "unocc",
				"energy": -0.03172,
				"method": "rhf"
			},
			{
				"type": "unocc",
				"energy": -0.00092,
				"method": "rhf"
			},
			{
				"type": "unocc",
				"energy": 0.02296,
				"method": "rhf"
			},
			{
				"type": "unocc",
				"energy": 0.04401,
				"method": "rhf"
			}
		],
		"cosmo_sigma_profile": { 
			"-0.025": 0.0,
			"-0.024": 0.0,
			"-0.023": 0.0,
			"-0.022": 0.0,
			"-0.021": 0.0,
			"-0.02": 0.0,
			"-0.019": 0.0,
			"-0.018": 0.0,
			"-0.017": 0.0,
			"-0.016": 0.0,
			"-0.015": 0.0,
			"-0.014": 0.0,
			"-0.013": 0.0,
			"-0.012": 0.0,
			"-0.011": 0.0,
			"-0.01": 1.42041419621,
			"-0.009": 10.4564223127,
			"-0.008": 9.4466039173,
			"-0.007": 7.72792620341,
			"-0.006": 13.7982224393,
			"-0.005": 22.3383350952,
			"-0.004": 20.9586691971,
			"-0.003": 16.7796857093,
			"-0.002": 15.5281919307,
			"-0.001": 12.991166193,
			"0.0": 11.1342591767,
			"0.001": 13.716817976,
			"0.002": 13.6950725557,
			"0.003": 15.492531914,
			"0.004": 8.32030871172,
			"0.005": 9.12932565055,
			"0.006": 9.80529783072,
			"0.007": 3.89767658923,
			"0.008": 4.27647439018,
			"0.009": 3.90214984802,
			"0.01": 3.82919073139,
			"0.011": 6.68357456274,
			"0.012": 7.40789918539,
			"0.013": 5.63360178664,
			"0.014": 0.964284914982,
			"0.015": 0.0,
			"0.016": 0.0,
			"0.017": 0.0,
			"0.018": 0.0,
			"0.019": 0.0,
			"0.02": 0.0,
			"0.021": 0.0,
			"0.022": 0.0,
			"0.023": 0.0,
			"0.024": 0.0,
			"0.025": 0.0
		}
	}
}
