{
	 "smiles": "O=N(=O)C1(CCCCC1)N(=O)=O", 
	 "Tm": 309.15, 
	 "num_atms": 22, 
	 "gaussian": { 
		 "optdone": 1, 
		 "sigma_profile": "yes", 
		 "theory": "DFT", 
		 "functional": "B3LYP", 
		 "basiset": "6-31G**", 
		 "properties": { 
			 "R2extent": 1990.6859, 
			 "electric_dipole_moment_norm": 4.73659661044, 
			 "electric_quadrupole_moment_norm": 6.75347419555, 
			 "total_energy": -644.871002449, 
			 "HOMO_LUMO_gap": 0.21863, 
			 "cosmo_polarized_energy": -9.01, 
			 "cosmo_cavitation_energy": 24.74, 
			 "cosmo_dispersion_energy": -17.74, 
			 "cosmo_repulsion_energy": 1.4, 
			 "cosmo_total_nonelectrostatic_energy": 8.4, 
			 "SMD_solvation_energy": 7.71 
		},
		"coords": [
			{
				"x": -2.4836738397,
				"y": -0.3138005418,
				"z": 1.1600297583,
				"element": "O" 
			},
			{
				"x": -1.3263408643,
				"y": -0.4761934734,
				"z": 1.5247460557,
				"element": "N" 
			},
			{
				"x": -0.9419041521,
				"y": -1.2760975269,
				"z": 2.3651015532,
				"element": "O" 
			},
			{
				"x": -0.274016157,
				"y": 0.4136496383,
				"z": 0.8224892428,
				"element": "C" 
			},
			{
				"x": 1.1372152884,
				"y": 0.1482641211,
				"z": 1.3493683696,
				"element": "C" 
			},
			{
				"x": 1.7294231198,
				"y": -1.1699132531,
				"z": 0.8185570145,
				"element": "C" 
			},
			{
				"x": 1.6046679743,
				"y": -1.2884886701,
				"z": -0.7069930139,
				"element": "C" 
			},
			{
				"x": 0.1495078161,
				"y": -1.1000784515,
				"z": -1.1586944436,
				"element": "C" 
			},
			{
				"x": -0.4109757507,
				"y": 0.2525537689,
				"z": -0.6875611287,
				"element": "C" 
			},
			{
				"x": -0.6773950789,
				"y": 1.8342080097,
				"z": 1.2736375614,
				"element": "N" 
			},
			{
				"x": -0.6640045431,
				"y": 2.7214461904,
				"z": 0.433062427,
				"element": "O" 
			},
			{
				"x": -0.9228211714,
				"y": 1.9665017148,
				"z": 2.4652665646,
				"element": "O" 
			},
			{
				"x": 1.7506593369,
				"y": 0.9917219886,
				"z": 1.0079611054,
				"element": "H" 
			},
			{
				"x": 1.1193218794,
				"y": 0.1690876253,
				"z": 2.4407116435,
				"element": "H" 
			},
			{
				"x": 1.2154917017,
				"y": -2.008140644,
				"z": 1.2989547201,
				"element": "H" 
			},
			{
				"x": 2.7796987964,
				"y": -1.2231860363,
				"z": 1.12452713,
				"element": "H" 
			},
			{
				"x": 1.9793294938,
				"y": -2.2635561318,
				"z": -1.0365476804,
				"element": "H" 
			},
			{
				"x": 2.2347343751,
				"y": -0.529434214,
				"z": -1.1912931653,
				"element": "H" 
			},
			{
				"x": 0.0733680294,
				"y": -1.1465169476,
				"z": -2.2498925916,
				"element": "H" 
			},
			{
				"x": -0.4707671836,
				"y": -1.9188774971,
				"z": -0.7708225711,
				"element": "H" 
			},
			{
				"x": 0.1525579524,
				"y": 1.071271344,
				"z": -1.1431829395,
				"element": "H" 
			},
			{
				"x": -1.4588770231,
				"y": 0.3808789866,
				"z": -0.966325612,
				"element": "H" 
			}
		],
		 "valence_orbital": [ 
			{
				"type": "occ",
				"energy": -0.32981,
				"method": "rhf"
			},
			{
				"type": "occ",
				"energy": -0.32317,
				"method": "rhf"
			},
			{
				"type": "occ",
				"energy": -0.31602,
				"method": "rhf"
			},
			{
				"type": "occ",
				"energy": -0.31299,
				"method": "rhf"
			},
			{
				"type": "occ",
				"energy": -0.30967,
				"method": "rhf"
			},
			{
				"type": "unocc",
				"energy": -0.09104,
				"method": "rhf"
			},
			{
				"type": "unocc",
				"energy": -0.08603,
				"method": "rhf"
			},
			{
				"type": "unocc",
				"energy": 0.05206,
				"method": "rhf"
			},
			{
				"type": "unocc",
				"energy": 0.07551,
				"method": "rhf"
			},
			{
				"type": "unocc",
				"energy": 0.10977,
				"method": "rhf"
			}
		],
		"cosmo_sigma_profile": { 
			"-0.025": 0.0,
			"-0.024": 0.0,
			"-0.023": 0.0,
			"-0.022": 0.0,
			"-0.021": 0.0,
			"-0.02": 0.0,
			"-0.019": 0.0,
			"-0.018": 0.0,
			"-0.017": 0.0,
			"-0.016": 0.0,
			"-0.015": 0.0,
			"-0.014": 0.0,
			"-0.013": 0.0,
			"-0.012": 0.0,
			"-0.011": 0.0,
			"-0.01": 0.00159156191363,
			"-0.009": 0.514758476038,
			"-0.008": 2.47105818274,
			"-0.007": 4.21007178988,
			"-0.006": 6.91483037673,
			"-0.005": 11.314288325,
			"-0.004": 18.6656635048,
			"-0.003": 25.9439966408,
			"-0.002": 20.301907818,
			"-0.001": 18.5890485608,
			"0.0": 12.0225541181,
			"0.001": 6.6650263633,
			"0.002": 6.58379050982,
			"0.003": 5.38776192221,
			"0.004": 7.18230682859,
			"0.005": 8.82760084283,
			"0.006": 18.9284009529,
			"0.007": 10.6187303809,
			"0.008": 6.73397320995,
			"0.009": 1.39200487963,
			"0.01": 0.0,
			"0.011": 0.0,
			"0.012": 0.0,
			"0.013": 0.0,
			"0.014": 0.0,
			"0.015": 0.0,
			"0.016": 0.0,
			"0.017": 0.0,
			"0.018": 0.0,
			"0.019": 0.0,
			"0.02": 0.0,
			"0.021": 0.0,
			"0.022": 0.0,
			"0.023": 0.0,
			"0.024": 0.0,
			"0.025": 0.0
		}
	}
}
