{
	 "smiles": "CSC(C)(C)C=NO", 
	 "Tm": 294.15, 
	 "num_atms": 19, 
	 "gaussian": { 
		 "optdone": 1, 
		 "sigma_profile": "yes", 
		 "theory": "DFT", 
		 "functional": "B3LYP", 
		 "basiset": "6-31G**", 
		 "properties": { 
			 "R2extent": 1436.5564, 
			 "electric_dipole_moment_norm": 1.40260050977, 
			 "electric_quadrupole_moment_norm": 5.55263929677, 
			 "total_energy": -725.267801426, 
			 "HOMO_LUMO_gap": 0.21403, 
			 "cosmo_polarized_energy": -8.14, 
			 "cosmo_cavitation_energy": 23.09, 
			 "cosmo_dispersion_energy": -16.86, 
			 "cosmo_repulsion_energy": 1.37, 
			 "cosmo_total_nonelectrostatic_energy": 7.6, 
			 "SMD_solvation_energy": 4.67 
		},
		"coords": [
			{
				"x": -1.1749496808,
				"y": -0.4085291195,
				"z": -2.1026998507,
				"element": "C" 
			},
			{
				"x": 0.6352076955,
				"y": -0.648714088,
				"z": -2.1014634845,
				"element": "S" 
			},
			{
				"x": 1.0678683107,
				"y": -0.4142306712,
				"z": -0.2882618164,
				"element": "C" 
			},
			{
				"x": 2.5826139261,
				"y": -0.6765129335,
				"z": -0.2125122301,
				"element": "C" 
			},
			{
				"x": 0.3001096686,
				"y": -1.3915124702,
				"z": 0.6068917843,
				"element": "C" 
			},
			{
				"x": 0.7924600266,
				"y": 1.0297805692,
				"z": 0.033561821,
				"element": "C" 
			},
			{
				"x": -0.1780351532,
				"y": 1.3651705891,
				"z": 0.7937041025,
				"element": "N" 
			},
			{
				"x": -0.2571754969,
				"y": 2.7639102624,
				"z": 0.9197658167,
				"element": "O" 
			},
			{
				"x": -1.6993014548,
				"y": -1.2744616267,
				"z": -1.6931321232,
				"element": "H" 
			},
			{
				"x": -1.4463046084,
				"y": 0.4892023545,
				"z": -1.5419667542,
				"element": "H" 
			},
			{
				"x": -1.4671756977,
				"y": -0.2773210255,
				"z": -3.1469371208,
				"element": "H" 
			},
			{
				"x": 2.930575659,
				"y": -0.5416881421,
				"z": 0.8170780599,
				"element": "H" 
			},
			{
				"x": 2.8098926482,
				"y": -1.7005181626,
				"z": -0.522455333,
				"element": "H" 
			},
			{
				"x": 3.1423354623,
				"y": 0.0096839125,
				"z": -0.8555785535,
				"element": "H" 
			},
			{
				"x": -0.7769658574,
				"y": -1.2206375816,
				"z": 0.5672950705,
				"element": "H" 
			},
			{
				"x": 0.6101758881,
				"y": -1.2619671399,
				"z": 1.649377772,
				"element": "H" 
			},
			{
				"x": 0.5093719663,
				"y": -2.4203113745,
				"z": 0.302267515,
				"element": "H" 
			},
			{
				"x": 1.4289116593,
				"y": 1.787602696,
				"z": -0.4306908544,
				"element": "H" 
			},
			{
				"x": -1.0008149613,
				"y": 2.8747539515,
				"z": 1.5269561788,
				"element": "H" 
			}
		],
		 "valence_orbital": [ 
			{
				"type": "occ",
				"energy": -0.34216,
				"method": "rhf"
			},
			{
				"type": "occ",
				"energy": -0.30742,
				"method": "rhf"
			},
			{
				"type": "occ",
				"energy": -0.27838,
				"method": "rhf"
			},
			{
				"type": "occ",
				"energy": -0.25523,
				"method": "rhf"
			},
			{
				"type": "occ",
				"energy": -0.22123,
				"method": "rhf"
			},
			{
				"type": "unocc",
				"energy": -0.0072,
				"method": "rhf"
			},
			{
				"type": "unocc",
				"energy": 0.04787,
				"method": "rhf"
			},
			{
				"type": "unocc",
				"energy": 0.07342,
				"method": "rhf"
			},
			{
				"type": "unocc",
				"energy": 0.07836,
				"method": "rhf"
			},
			{
				"type": "unocc",
				"energy": 0.09489,
				"method": "rhf"
			}
		],
		"cosmo_sigma_profile": { 
			"-0.025": 0.0,
			"-0.024": 0.0,
			"-0.023": 0.0,
			"-0.022": 0.0,
			"-0.021": 0.0,
			"-0.02": 0.0,
			"-0.019": 0.0,
			"-0.018": 0.00126621185385,
			"-0.017": 0.712235920221,
			"-0.016": 1.30037123118,
			"-0.015": 0.791152073656,
			"-0.014": 0.593155343542,
			"-0.013": 0.580957251871,
			"-0.012": 0.944117631501,
			"-0.011": 0.615527057639,
			"-0.01": 0.542710024231,
			"-0.009": 1.03251470281,
			"-0.008": 0.750398771801,
			"-0.007": 1.11404911848,
			"-0.006": 4.17647707194,
			"-0.005": 6.93817727577,
			"-0.004": 16.291043197,
			"-0.003": 18.9281649034,
			"-0.002": 19.6184065107,
			"-0.001": 22.6283719379,
			"0.0": 18.0014691895,
			"0.001": 10.6302181567,
			"0.002": 7.0964251329,
			"0.003": 5.79484298621,
			"0.004": 5.87058091478,
			"0.005": 5.68404669007,
			"0.006": 6.9099508943,
			"0.007": 6.01320995076,
			"0.008": 4.67007047054,
			"0.009": 4.86486781478,
			"0.01": 4.32464797093,
			"0.011": 3.42792546422,
			"0.012": 0.74414463883,
			"0.013": 0.0,
			"0.014": 0.0,
			"0.015": 0.0,
			"0.016": 0.0,
			"0.017": 0.0,
			"0.018": 0.0,
			"0.019": 0.0,
			"0.02": 0.0,
			"0.021": 0.0,
			"0.022": 0.0,
			"0.023": 0.0,
			"0.024": 0.0,
			"0.025": 0.0
		}
	}
}
