{
	 "smiles": "OCCCSC1=CC=C(C=C1)C(O)=O", 
	 "Tm": 442.15, 
	 "num_atms": 26, 
	 "gaussian": { 
		 "optdone": 1, 
		 "sigma_profile": "yes", 
		 "theory": "DFT", 
		 "functional": "B3LYP", 
		 "basiset": "6-31G**", 
		 "properties": { 
			 "R2extent": 4481.7827, 
			 "electric_dipole_moment_norm": 2.09844587016, 
			 "electric_quadrupole_moment_norm": 13.2474814867, 
			 "total_energy": -1012.16390928, 
			 "HOMO_LUMO_gap": 0.17131, 
			 "cosmo_polarized_energy": -15.68, 
			 "cosmo_cavitation_energy": 31.62, 
			 "cosmo_dispersion_energy": -22.83, 
			 "cosmo_repulsion_energy": 1.79, 
			 "cosmo_total_nonelectrostatic_energy": 10.58, 
			 "SMD_solvation_energy": 5.96 
		},
		"coords": [
			{
				"x": 3.4907455473,
				"y": -1.7735147393,
				"z": -0.5528627224,
				"element": "O" 
			},
			{
				"x": 2.2481236687,
				"y": -1.5444295162,
				"z": 0.0990957471,
				"element": "C" 
			},
			{
				"x": 2.3961645528,
				"y": -1.5397698712,
				"z": 1.6230600068,
				"element": "C" 
			},
			{
				"x": 1.083187504,
				"y": -1.4446320353,
				"z": 2.4071765883,
				"element": "C" 
			},
			{
				"x": 0.2146294487,
				"y": 0.1812399763,
				"z": 2.3127183838,
				"element": "S" 
			},
			{
				"x": -0.782046731,
				"y": 0.0848715862,
				"z": 0.8315839052,
				"element": "C" 
			},
			{
				"x": -1.5310056395,
				"y": -1.0498401187,
				"z": 0.4827584691,
				"element": "C" 
			},
			{
				"x": -2.3350371363,
				"y": -1.0399143259,
				"z": -0.6528174995,
				"element": "C" 
			},
			{
				"x": -2.4260509909,
				"y": 0.1129412693,
				"z": -1.4455518327,
				"element": "C" 
			},
			{
				"x": -1.6961324256,
				"y": 1.2535546299,
				"z": -1.0862180002,
				"element": "C" 
			},
			{
				"x": -0.8753030358,
				"y": 1.2389234808,
				"z": 0.0356255164,
				"element": "C" 
			},
			{
				"x": -3.2744325259,
				"y": 0.1785502987,
				"z": -2.6616017524,
				"element": "C" 
			},
			{
				"x": -3.9333336512,
				"y": -0.9813755033,
				"z": -2.9142177148,
				"element": "O" 
			},
			{
				"x": -3.389313502,
				"y": 1.1539308633,
				"z": -3.3781468105,
				"element": "O" 
			},
			{
				"x": 4.0492723335,
				"y": -1.0001543202,
				"z": -0.4018297559,
				"element": "H" 
			},
			{
				"x": 1.779848482,
				"y": -0.6120675136,
				"z": -0.2464055366,
				"element": "H" 
			},
			{
				"x": 1.593266463,
				"y": -2.3665307963,
				"z": -0.2111184693,
				"element": "H" 
			},
			{
				"x": 2.9015237355,
				"y": -2.4700383595,
				"z": 1.9145485696,
				"element": "H" 
			},
			{
				"x": 3.0548883195,
				"y": -0.7142050829,
				"z": 1.9232774747,
				"element": "H" 
			},
			{
				"x": 0.3886115486,
				"y": -2.2398493836,
				"z": 2.122805424,
				"element": "H" 
			},
			{
				"x": 1.2773244684,
				"y": -1.5655145535,
				"z": 3.4768193582,
				"element": "H" 
			},
			{
				"x": -1.5013943656,
				"y": -1.939120224,
				"z": 1.1035257442,
				"element": "H" 
			},
			{
				"x": -2.907645051,
				"y": -1.9208403848,
				"z": -0.9202843664,
				"element": "H" 
			},
			{
				"x": -1.773630102,
				"y": 2.1383198933,
				"z": -1.7091790612,
				"element": "H" 
			},
			{
				"x": -0.2938618723,
				"y": 2.1175166567,
				"z": 0.2968565987,
				"element": "H" 
			},
			{
				"x": -4.4489990427,
				"y": -0.819651926,
				"z": -3.7211182641,
				"element": "H" 
			}
		],
		 "valence_orbital": [ 
			{
				"type": "occ",
				"energy": -0.28703,
				"method": "rhf"
			},
			{
				"type": "occ",
				"energy": -0.27802,
				"method": "rhf"
			},
			{
				"type": "occ",
				"energy": -0.26778,
				"method": "rhf"
			},
			{
				"type": "occ",
				"energy": -0.2665,
				"method": "rhf"
			},
			{
				"type": "occ",
				"energy": -0.22625,
				"method": "rhf"
			},
			{
				"type": "unocc",
				"energy": -0.05494,
				"method": "rhf"
			},
			{
				"type": "unocc",
				"energy": -0.01873,
				"method": "rhf"
			},
			{
				"type": "unocc",
				"energy": 0.02997,
				"method": "rhf"
			},
			{
				"type": "unocc",
				"energy": 0.05023,
				"method": "rhf"
			},
			{
				"type": "unocc",
				"energy": 0.06308,
				"method": "rhf"
			}
		],
		"cosmo_sigma_profile": { 
			"-0.025": 0.0,
			"-0.024": 0.0,
			"-0.023": 0.0,
			"-0.022": 0.0,
			"-0.021": 0.0,
			"-0.02": 0.0,
			"-0.019": 0.0,
			"-0.018": 0.726404194412,
			"-0.017": 0.962462241949,
			"-0.016": 0.875281884066,
			"-0.015": 1.5178839537,
			"-0.014": 1.98566162241,
			"-0.013": 1.4048945514,
			"-0.012": 1.57751184969,
			"-0.011": 2.2429002791,
			"-0.01": 1.73929653026,
			"-0.009": 0.889270361233,
			"-0.008": 3.16541047356,
			"-0.007": 6.32063027655,
			"-0.006": 13.0053127531,
			"-0.005": 13.6989877985,
			"-0.004": 15.6527281104,
			"-0.003": 19.594337708,
			"-0.002": 18.4663962675,
			"-0.001": 16.8433671813,
			"0.0": 19.4340670073,
			"0.001": 18.1248814471,
			"0.002": 17.6180827036,
			"0.003": 18.1055118898,
			"0.004": 7.82286035184,
			"0.005": 7.92770656969,
			"0.006": 6.97538829379,
			"0.007": 7.40202720332,
			"0.008": 4.71646141128,
			"0.009": 4.0084158729,
			"0.01": 3.4316069348,
			"0.011": 4.17421132669,
			"0.012": 5.94132891532,
			"0.013": 1.86828213963,
			"0.014": 2.32892055608,
			"0.015": 1.09070947066,
			"0.016": 0.0,
			"0.017": 0.0,
			"0.018": 0.0,
			"0.019": 0.0,
			"0.02": 0.0,
			"0.021": 0.0,
			"0.022": 0.0,
			"0.023": 0.0,
			"0.024": 0.0,
			"0.025": 0.0
		}
	}
}
