{
	 "smiles": "COC(=O)C1=C(N)C(=CS1)S(=O)(=O)C(C)C", 
	 "Tm": 414.15, 
	 "num_atms": 29, 
	 "gaussian": { 
		 "optdone": 1, 
		 "sigma_profile": "yes", 
		 "theory": "DFT", 
		 "functional": "B3LYP", 
		 "basiset": "6-31G**", 
		 "properties": { 
			 "R2extent": 5203.0683, 
			 "electric_dipole_moment_norm": 3.86986993321, 
			 "electric_quadrupole_moment_norm": 16.5961808522, 
			 "total_energy": -1502.7702305, 
			 "HOMO_LUMO_gap": 0.16089, 
			 "cosmo_polarized_energy": -14.81, 
			 "cosmo_cavitation_energy": 34.46, 
			 "cosmo_dispersion_energy": -25.58, 
			 "cosmo_repulsion_energy": 1.91, 
			 "cosmo_total_nonelectrostatic_energy": 10.79, 
			 "SMD_solvation_energy": 6.4 
		},
		"coords": [
			{
				"x": 1.0974865601,
				"y": 1.0140485655,
				"z": -4.3823766782,
				"element": "C" 
			},
			{
				"x": 0.215998525,
				"y": 0.6349925011,
				"z": -3.3143927121,
				"element": "O" 
			},
			{
				"x": 0.7260801947,
				"y": 0.7562795697,
				"z": -2.0660234616,
				"element": "C" 
			},
			{
				"x": 1.8656003037,
				"y": 1.1550000374,
				"z": -1.8442454437,
				"element": "O" 
			},
			{
				"x": -0.2165085701,
				"y": 0.3713844024,
				"z": -1.0370738687,
				"element": "C" 
			},
			{
				"x": 0.0477112076,
				"y": 0.4295904062,
				"z": 0.3345284719,
				"element": "C" 
			},
			{
				"x": 1.2398548846,
				"y": 0.7813256569,
				"z": 0.8814418859,
				"element": "N" 
			},
			{
				"x": -1.1202024237,
				"y": 0.0346484893,
				"z": 1.0898506188,
				"element": "C" 
			},
			{
				"x": -2.2017255842,
				"y": -0.2739093103,
				"z": 0.3044017785,
				"element": "C" 
			},
			{
				"x": -1.8631346654,
				"y": -0.1368059423,
				"z": -1.371212645,
				"element": "S" 
			},
			{
				"x": -1.2259475395,
				"y": -0.0085240882,
				"z": 2.8704149017,
				"element": "S" 
			},
			{
				"x": -2.6432316429,
				"y": 0.147235366,
				"z": 3.2362403871,
				"element": "O" 
			},
			{
				"x": -0.2072553092,
				"y": 0.9349672865,
				"z": 3.3840984062,
				"element": "O" 
			},
			{
				"x": -0.7147696886,
				"y": -1.6987549385,
				"z": 3.396346172,
				"element": "C" 
			},
			{
				"x": -1.7044372695,
				"y": -2.7500500851,
				"z": 2.8952561667,
				"element": "C" 
			},
			{
				"x": 0.739377919,
				"y": -1.9873020787,
				"z": 3.0251768696,
				"element": "C" 
			},
			{
				"x": 0.5327324363,
				"y": 0.8495598396,
				"z": -5.2998211036,
				"element": "H" 
			},
			{
				"x": 2.0014524711,
				"y": 0.399950384,
				"z": -4.3729179546,
				"element": "H" 
			},
			{
				"x": 1.3835591212,
				"y": 2.0649274666,
				"z": -4.2918310656,
				"element": "H" 
			},
			{
				"x": 1.2213515708,
				"y": 1.1023795736,
				"z": 1.8414109269,
				"element": "H" 
			},
			{
				"x": 1.9149165442,
				"y": 1.1658559625,
				"z": 0.2307277738,
				"element": "H" 
			},
			{
				"x": -3.1840543944,
				"y": -0.5551811532,
				"z": 0.6580684245,
				"element": "H" 
			},
			{
				"x": -0.8077067135,
				"y": -1.5907661313,
				"z": 4.4845907552,
				"element": "H" 
			},
			{
				"x": -1.4497897528,
				"y": -3.7195941515,
				"z": 3.3348347883,
				"element": "H" 
			},
			{
				"x": -2.7279253698,
				"y": -2.4995828942,
				"z": 3.1817163911,
				"element": "H" 
			},
			{
				"x": -1.6546834827,
				"y": -2.8545022401,
				"z": 1.80678559,
				"element": "H" 
			},
			{
				"x": 0.8737994444,
				"y": -2.0453992774,
				"z": 1.9410713559,
				"element": "H" 
			},
			{
				"x": 1.4111575703,
				"y": -1.2220848869,
				"z": 3.418207037,
				"element": "H" 
			},
			{
				"x": 1.0299936533,
				"y": -2.9526883297,
				"z": 3.451626232,
				"element": "H" 
			}
		],
		 "valence_orbital": [ 
			{
				"type": "occ",
				"energy": -0.30269,
				"method": "rhf"
			},
			{
				"type": "occ",
				"energy": -0.28813,
				"method": "rhf"
			},
			{
				"type": "occ",
				"energy": -0.28175,
				"method": "rhf"
			},
			{
				"type": "occ",
				"energy": -0.26899,
				"method": "rhf"
			},
			{
				"type": "occ",
				"energy": -0.21958,
				"method": "rhf"
			},
			{
				"type": "unocc",
				"energy": -0.05869,
				"method": "rhf"
			},
			{
				"type": "unocc",
				"energy": -0.00319,
				"method": "rhf"
			},
			{
				"type": "unocc",
				"energy": 0.01248,
				"method": "rhf"
			},
			{
				"type": "unocc",
				"energy": 0.05717,
				"method": "rhf"
			},
			{
				"type": "unocc",
				"energy": 0.06998,
				"method": "rhf"
			}
		],
		"cosmo_sigma_profile": { 
			"-0.025": 0.0,
			"-0.024": 0.0,
			"-0.023": 0.0,
			"-0.022": 0.0,
			"-0.021": 0.0,
			"-0.02": 0.0,
			"-0.019": 0.0,
			"-0.018": 0.0,
			"-0.017": 0.0,
			"-0.016": 0.0,
			"-0.015": 0.0,
			"-0.014": 0.0,
			"-0.013": 0.0,
			"-0.012": 0.0,
			"-0.011": 0.974947561319,
			"-0.01": 2.45751250523,
			"-0.009": 3.63838587098,
			"-0.008": 4.36616522666,
			"-0.007": 4.73681431533,
			"-0.006": 11.1138390953,
			"-0.005": 19.2803172907,
			"-0.004": 24.1544833298,
			"-0.003": 26.1474401016,
			"-0.002": 23.7842154448,
			"-0.001": 26.4371137178,
			"0.0": 23.7875977066,
			"0.001": 19.3400182452,
			"0.002": 16.8801872578,
			"0.003": 11.0147670193,
			"0.004": 7.75806234626,
			"0.005": 6.08169691025,
			"0.006": 6.48807542175,
			"0.007": 3.85913951037,
			"0.008": 4.16578262145,
			"0.009": 5.40776868419,
			"0.01": 6.67971849414,
			"0.011": 8.07985988337,
			"0.012": 7.83413246313,
			"0.013": 0.372756188669,
			"0.014": 0.0,
			"0.015": 0.0,
			"0.016": 0.0,
			"0.017": 0.0,
			"0.018": 0.0,
			"0.019": 0.0,
			"0.02": 0.0,
			"0.021": 0.0,
			"0.022": 0.0,
			"0.023": 0.0,
			"0.024": 0.0,
			"0.025": 0.0
		}
	}
}
