{
	 "smiles": "CCCC(=O)C1=CC=C(F)C=C1", 
	 "Tm": 310.15, 
	 "num_atms": 23, 
	 "gaussian": { 
		 "optdone": 1, 
		 "sigma_profile": "yes", 
		 "theory": "DFT", 
		 "functional": "B3LYP", 
		 "basiset": "6-31G**", 
		 "properties": { 
			 "R2extent": 3842.8187, 
			 "electric_dipole_moment_norm": 2.37748441846, 
			 "electric_quadrupole_moment_norm": 8.44880220801, 
			 "total_energy": -562.761991134, 
			 "HOMO_LUMO_gap": 0.19044, 
			 "cosmo_polarized_energy": -7.61, 
			 "cosmo_cavitation_energy": 27.13, 
			 "cosmo_dispersion_energy": -19.31, 
			 "cosmo_repulsion_energy": 1.53, 
			 "cosmo_total_nonelectrostatic_energy": 9.35, 
			 "SMD_solvation_energy": 5.61 
		},
		"coords": [
			{
				"x": 1.0596387076,
				"y": 3.0985808249,
				"z": 0.7936490413,
				"element": "C" 
			},
			{
				"x": 1.0651960324,
				"y": 1.9273171604,
				"z": -0.1929717069,
				"element": "C" 
			},
			{
				"x": 0.2253190374,
				"y": 2.2158671584,
				"z": -1.4563896189,
				"element": "C" 
			},
			{
				"x": 0.2941114403,
				"y": 1.0701383264,
				"z": -2.4582840156,
				"element": "C" 
			},
			{
				"x": 1.112149279,
				"y": 1.1041171276,
				"z": -3.3676184056,
				"element": "O" 
			},
			{
				"x": -0.6106631749,
				"y": -0.1153834481,
				"z": -2.3015706858,
				"element": "C" 
			},
			{
				"x": -0.4723517422,
				"y": -1.1707258708,
				"z": -3.2201530576,
				"element": "C" 
			},
			{
				"x": -1.2748126637,
				"y": -2.3018126037,
				"z": -3.1387779456,
				"element": "C" 
			},
			{
				"x": -2.2238986703,
				"y": -2.3715833962,
				"z": -2.121132124,
				"element": "C" 
			},
			{
				"x": -3.0057392577,
				"y": -3.4636649775,
				"z": -2.0338452785,
				"element": "F" 
			},
			{
				"x": -2.3905067155,
				"y": -1.349923796,
				"z": -1.1924182468,
				"element": "C" 
			},
			{
				"x": -1.5786887236,
				"y": -0.2212759317,
				"z": -1.2899480291,
				"element": "C" 
			},
			{
				"x": 1.4618435668,
				"y": 4.0067064101,
				"z": 0.3315281329,
				"element": "H" 
			},
			{
				"x": 0.0441737574,
				"y": 3.3242632154,
				"z": 1.1388521793,
				"element": "H" 
			},
			{
				"x": 1.668930589,
				"y": 2.8742985244,
				"z": 1.675037266,
				"element": "H" 
			},
			{
				"x": 2.0932405129,
				"y": 1.7057870043,
				"z": -0.5030108875,
				"element": "H" 
			},
			{
				"x": 0.6905136934,
				"y": 1.0231978964,
				"z": 0.3026104138,
				"element": "H" 
			},
			{
				"x": -0.8103571859,
				"y": 2.4364579561,
				"z": -1.1728559226,
				"element": "H" 
			},
			{
				"x": 0.626236956,
				"y": 3.0972006668,
				"z": -1.9655804711,
				"element": "H" 
			},
			{
				"x": 0.2799147407,
				"y": -1.0744728008,
				"z": -3.9955775677,
				"element": "H" 
			},
			{
				"x": -1.1812259771,
				"y": -3.1237366952,
				"z": -3.8403359034,
				"element": "H" 
			},
			{
				"x": -3.1428223522,
				"y": -1.4478464821,
				"z": -0.4175314389,
				"element": "H" 
			},
			{
				"x": -1.70860185,
				"y": 0.5765937309,
				"z": -0.5668757277,
				"element": "H" 
			}
		],
		 "valence_orbital": [ 
			{
				"type": "occ",
				"energy": -0.33981,
				"method": "rhf"
			},
			{
				"type": "occ",
				"energy": -0.33568,
				"method": "rhf"
			},
			{
				"type": "occ",
				"energy": -0.27157,
				"method": "rhf"
			},
			{
				"type": "occ",
				"energy": -0.25443,
				"method": "rhf"
			},
			{
				"type": "occ",
				"energy": -0.24633,
				"method": "rhf"
			},
			{
				"type": "unocc",
				"energy": -0.05589,
				"method": "rhf"
			},
			{
				"type": "unocc",
				"energy": -0.02078,
				"method": "rhf"
			},
			{
				"type": "unocc",
				"energy": 0.03974,
				"method": "rhf"
			},
			{
				"type": "unocc",
				"energy": 0.07346,
				"method": "rhf"
			},
			{
				"type": "unocc",
				"energy": 0.10078,
				"method": "rhf"
			}
		],
		"cosmo_sigma_profile": { 
			"-0.025": 0.0,
			"-0.024": 0.0,
			"-0.023": 0.0,
			"-0.022": 0.0,
			"-0.021": 0.0,
			"-0.02": 0.0,
			"-0.019": 0.0,
			"-0.018": 0.0,
			"-0.017": 0.0,
			"-0.016": 0.0,
			"-0.015": 0.0,
			"-0.014": 0.0,
			"-0.013": 0.0,
			"-0.012": 0.0,
			"-0.011": 0.0,
			"-0.01": 0.0,
			"-0.009": 0.0,
			"-0.008": 2.05223042688,
			"-0.007": 6.7117426481,
			"-0.006": 7.59144929374,
			"-0.005": 9.26216234829,
			"-0.004": 10.2294815526,
			"-0.003": 20.5757120746,
			"-0.002": 23.3270347973,
			"-0.001": 25.0092735027,
			"0.0": 25.0504425221,
			"0.001": 22.4193781425,
			"0.002": 17.6211302644,
			"0.003": 15.1644942663,
			"0.004": 11.0949799484,
			"0.005": 2.29144003696,
			"0.006": 1.28451597174,
			"0.007": 1.55390529407,
			"0.008": 1.3786102797,
			"0.009": 1.6599425802,
			"0.01": 1.96797811335,
			"0.011": 2.6234617942,
			"0.012": 3.80254404168,
			"0.013": 1.99714128761,
			"0.014": 0.38427819556,
			"0.015": 0.0,
			"0.016": 0.0,
			"0.017": 0.0,
			"0.018": 0.0,
			"0.019": 0.0,
			"0.02": 0.0,
			"0.021": 0.0,
			"0.022": 0.0,
			"0.023": 0.0,
			"0.024": 0.0,
			"0.025": 0.0
		}
	}
}
