{
	 "smiles": "ClC1=NC=NC2=C1C1=C(CCCC1)S2", 
	 "Tm": 369.15, 
	 "num_atms": 23, 
	 "gaussian": { 
		 "optdone": 1, 
		 "sigma_profile": "yes", 
		 "theory": "DFT", 
		 "functional": "B3LYP", 
		 "basiset": "6-31G**", 
		 "properties": { 
			 "R2extent": 5540.8759, 
			 "electric_dipole_moment_norm": 3.76383842507, 
			 "electric_quadrupole_moment_norm": 9.30539268811, 
			 "total_energy": -1354.38446589, 
			 "HOMO_LUMO_gap": 0.18037, 
			 "cosmo_polarized_energy": -6.55, 
			 "cosmo_cavitation_energy": 28.5, 
			 "cosmo_dispersion_energy": -22.26, 
			 "cosmo_repulsion_energy": 1.68, 
			 "cosmo_total_nonelectrostatic_energy": 7.93, 
			 "SMD_solvation_energy": 0.28 
		},
		"coords": [
			{
				"x": 1.7827562796,
				"y": -1.3103054986,
				"z": -4.6786596919,
				"element": "Cl" 
			},
			{
				"x": 2.0748022262,
				"y": -2.0158439458,
				"z": -3.0909568551,
				"element": "C" 
			},
			{
				"x": 3.0411148002,
				"y": -2.9095943986,
				"z": -3.0377332171,
				"element": "N" 
			},
			{
				"x": 3.2868251234,
				"y": -3.4869471246,
				"z": -1.8492817342,
				"element": "C" 
			},
			{
				"x": 2.6443266759,
				"y": -3.2550191955,
				"z": -0.7073797042,
				"element": "N" 
			},
			{
				"x": 1.675764598,
				"y": -2.3462277868,
				"z": -0.7972989603,
				"element": "C" 
			},
			{
				"x": 1.304639832,
				"y": -1.639084722,
				"z": -1.9746344379,
				"element": "C" 
			},
			{
				"x": 0.218106595,
				"y": -0.7094452862,
				"z": -1.7445181335,
				"element": "C" 
			},
			{
				"x": -0.2103002498,
				"y": -0.7499629216,
				"z": -0.4464502504,
				"element": "C" 
			},
			{
				"x": -1.3312568638,
				"y": 0.0705972977,
				"z": 0.1305579774,
				"element": "C" 
			},
			{
				"x": -2.1908575222,
				"y": 0.6739557733,
				"z": -0.9930052842,
				"element": "C" 
			},
			{
				"x": -1.3039904455,
				"y": 1.2809502218,
				"z": -2.0865787376,
				"element": "C" 
			},
			{
				"x": -0.4169033177,
				"y": 0.2181803008,
				"z": -2.7579331563,
				"element": "C" 
			},
			{
				"x": 0.6812257271,
				"y": -1.8826455071,
				"z": 0.5649786293,
				"element": "S" 
			},
			{
				"x": 4.0902257652,
				"y": -4.2182850217,
				"z": -1.8261094158,
				"element": "H" 
			},
			{
				"x": -0.9124829798,
				"y": 0.8733688801,
				"z": 0.7543944983,
				"element": "H" 
			},
			{
				"x": -1.9469428856,
				"y": -0.5435729255,
				"z": 0.7985521923,
				"element": "H" 
			},
			{
				"x": -2.8236004187,
				"y": -0.110540326,
				"z": -1.4274994502,
				"element": "H" 
			},
			{
				"x": -2.8634234416,
				"y": 1.4302565902,
				"z": -0.5744792019,
				"element": "H" 
			},
			{
				"x": -1.9168153068,
				"y": 1.7758080232,
				"z": -2.8474712415,
				"element": "H" 
			},
			{
				"x": -0.6672561355,
				"y": 2.0570137193,
				"z": -1.6415377963,
				"element": "H" 
			},
			{
				"x": 0.3582372265,
				"y": 0.706372896,
				"z": -3.3552493124,
				"element": "H" 
			},
			{
				"x": -1.0106952823,
				"y": -0.3723290424,
				"z": -3.4688067165,
				"element": "H" 
			}
		],
		 "valence_orbital": [ 
			{
				"type": "occ",
				"energy": -0.31171,
				"method": "rhf"
			},
			{
				"type": "occ",
				"energy": -0.30426,
				"method": "rhf"
			},
			{
				"type": "occ",
				"energy": -0.26998,
				"method": "rhf"
			},
			{
				"type": "occ",
				"energy": -0.26849,
				"method": "rhf"
			},
			{
				"type": "occ",
				"energy": -0.23376,
				"method": "rhf"
			},
			{
				"type": "unocc",
				"energy": -0.05339,
				"method": "rhf"
			},
			{
				"type": "unocc",
				"energy": -0.03851,
				"method": "rhf"
			},
			{
				"type": "unocc",
				"energy": 0.00183,
				"method": "rhf"
			},
			{
				"type": "unocc",
				"energy": 0.02322,
				"method": "rhf"
			},
			{
				"type": "unocc",
				"energy": 0.03714,
				"method": "rhf"
			}
		],
		"cosmo_sigma_profile": { 
			"-0.025": 0.0,
			"-0.024": 0.0,
			"-0.023": 0.0,
			"-0.022": 0.0,
			"-0.021": 0.0,
			"-0.02": 0.0,
			"-0.019": 0.0,
			"-0.018": 0.0,
			"-0.017": 0.0,
			"-0.016": 0.0,
			"-0.015": 0.0,
			"-0.014": 0.0,
			"-0.013": 0.0,
			"-0.012": 0.0,
			"-0.011": 0.0,
			"-0.01": 0.0,
			"-0.009": 0.117257536569,
			"-0.008": 1.72070341821,
			"-0.007": 1.85903524948,
			"-0.006": 2.22805512503,
			"-0.005": 6.09477909572,
			"-0.004": 12.4389513906,
			"-0.003": 29.0205349935,
			"-0.002": 36.3507782444,
			"-0.001": 33.3417783034,
			"0.0": 26.0816324381,
			"0.001": 22.0291917629,
			"0.002": 16.9467496257,
			"0.003": 12.063830421,
			"0.004": 8.97442243367,
			"0.005": 3.9900060334,
			"0.006": 3.49457836282,
			"0.007": 2.85750112591,
			"0.008": 1.83951677064,
			"0.009": 2.0597723694,
			"0.01": 2.00325619429,
			"0.011": 1.99305447071,
			"0.012": 1.77316073692,
			"0.013": 1.43509575414,
			"0.014": 0.654447422585,
			"0.015": 0.0,
			"0.016": 0.0,
			"0.017": 0.0,
			"0.018": 0.0,
			"0.019": 0.0,
			"0.02": 0.0,
			"0.021": 0.0,
			"0.022": 0.0,
			"0.023": 0.0,
			"0.024": 0.0,
			"0.025": 0.0
		}
	}
}
