{
	 "smiles": "OC(=O)C1=C(Cl)C=CC(=C1)S(F)(=O)=O", 
	 "Tm": 423.15, 
	 "num_atms": 18, 
	 "gaussian": { 
		 "optdone": 1, 
		 "sigma_profile": "yes", 
		 "theory": "DFT", 
		 "functional": "B3LYP", 
		 "basiset": "6-31G**", 
		 "properties": { 
			 "R2extent": 4148.8336, 
			 "electric_dipole_moment_norm": 6.0530347587, 
			 "electric_quadrupole_moment_norm": 13.0627399787, 
			 "total_energy": -1528.2040323, 
			 "HOMO_LUMO_gap": 0.20304, 
			 "cosmo_polarized_energy": -15.89, 
			 "cosmo_cavitation_energy": 26.96, 
			 "cosmo_dispersion_energy": -20.6, 
			 "cosmo_repulsion_energy": 1.53, 
			 "cosmo_total_nonelectrostatic_energy": 7.89, 
			 "SMD_solvation_energy": 5.08 
		},
		"coords": [
			{
				"x": -3.5537422461,
				"y": -0.2314655978,
				"z": 1.0572081689,
				"element": "O" 
			},
			{
				"x": -2.3281249949,
				"y": 0.2666867732,
				"z": 1.2742035166,
				"element": "C" 
			},
			{
				"x": -2.1914793032,
				"y": 1.3214355754,
				"z": 1.8484170638,
				"element": "O" 
			},
			{
				"x": -1.1045274325,
				"y": -0.4934818777,
				"z": 0.77613134,
				"element": "C" 
			},
			{
				"x": -1.0174001405,
				"y": -1.7859339216,
				"z": 0.2272312099,
				"element": "C" 
			},
			{
				"x": -2.425734006,
				"y": -2.8283925461,
				"z": 0.0133723135,
				"element": "Cl" 
			},
			{
				"x": 0.1996205717,
				"y": -2.338701263,
				"z": -0.1828796591,
				"element": "C" 
			},
			{
				"x": 1.3738495855,
				"y": -1.608536839,
				"z": -0.05325252,
				"element": "C" 
			},
			{
				"x": 1.3021278105,
				"y": -0.3272901828,
				"z": 0.4966337362,
				"element": "C" 
			},
			{
				"x": 0.0956744224,
				"y": 0.2252583814,
				"z": 0.9030480732,
				"element": "C" 
			},
			{
				"x": 2.7987982463,
				"y": 0.6229196827,
				"z": 0.6690126568,
				"element": "S" 
			},
			{
				"x": 3.2095562987,
				"y": 0.1815772257,
				"z": 2.1726938632,
				"element": "F" 
			},
			{
				"x": 2.4890604084,
				"y": 2.0364201202,
				"z": 0.7346217003,
				"element": "O" 
			},
			{
				"x": 3.8220664697,
				"y": 0.0747919714,
				"z": -0.2006353632,
				"element": "O" 
			},
			{
				"x": -3.5276603002,
				"y": -1.0839310145,
				"z": 0.5934634026,
				"element": "H" 
			},
			{
				"x": 0.2166074531,
				"y": -3.3373317003,
				"z": -0.6036537881,
				"element": "H" 
			},
			{
				"x": 2.323974505,
				"y": -2.0165046746,
				"z": -0.3791317123,
				"element": "H" 
			},
			{
				"x": 0.0431326521,
				"y": 1.2234798874,
				"z": 1.3228159977,
				"element": "H" 
			}
		],
		 "valence_orbital": [ 
			{
				"type": "occ",
				"energy": -0.3392,
				"method": "rhf"
			},
			{
				"type": "occ",
				"energy": -0.33807,
				"method": "rhf"
			},
			{
				"type": "occ",
				"energy": -0.31116,
				"method": "rhf"
			},
			{
				"type": "occ",
				"energy": -0.30611,
				"method": "rhf"
			},
			{
				"type": "occ",
				"energy": -0.29912,
				"method": "rhf"
			},
			{
				"type": "unocc",
				"energy": -0.09608,
				"method": "rhf"
			},
			{
				"type": "unocc",
				"energy": -0.07731,
				"method": "rhf"
			},
			{
				"type": "unocc",
				"energy": -0.02594,
				"method": "rhf"
			},
			{
				"type": "unocc",
				"energy": -0.00257,
				"method": "rhf"
			},
			{
				"type": "unocc",
				"energy": 0.01959,
				"method": "rhf"
			}
		],
		"cosmo_sigma_profile": { 
			"-0.025": 0.0,
			"-0.024": 0.0,
			"-0.023": 0.0,
			"-0.022": 0.0,
			"-0.021": 0.0,
			"-0.02": 0.0,
			"-0.019": 0.0,
			"-0.018": 0.0,
			"-0.017": 0.0,
			"-0.016": 0.0,
			"-0.015": 0.0,
			"-0.014": 0.0515939325792,
			"-0.013": 0.756986436818,
			"-0.012": 1.03718733515,
			"-0.011": 1.75979838212,
			"-0.01": 3.3037792623,
			"-0.009": 5.94193330921,
			"-0.008": 6.10885461695,
			"-0.007": 7.96340660895,
			"-0.006": 8.09741645286,
			"-0.005": 10.2644347819,
			"-0.004": 13.7839841546,
			"-0.003": 21.6256069867,
			"-0.002": 21.3087073138,
			"-0.001": 14.6359244239,
			"0.0": 10.0258297957,
			"0.001": 12.805949871,
			"0.002": 17.1180359764,
			"0.003": 7.63339331225,
			"0.004": 4.62124774752,
			"0.005": 4.97195274976,
			"0.006": 5.92203482668,
			"0.007": 8.42825421803,
			"0.008": 13.2270713206,
			"0.009": 7.77328951305,
			"0.01": 5.59373718648,
			"0.011": 3.8083714238,
			"0.012": 1.90298574726,
			"0.013": 0.122623686623,
			"0.014": 0.0,
			"0.015": 0.0,
			"0.016": 0.0,
			"0.017": 0.0,
			"0.018": 0.0,
			"0.019": 0.0,
			"0.02": 0.0,
			"0.021": 0.0,
			"0.022": 0.0,
			"0.023": 0.0,
			"0.024": 0.0,
			"0.025": 0.0
		}
	}
}
