{
	 "smiles": "OS(=O)(=O)CCN1CCN(CCS(O)(=O)=O)CC1", 
	 "Tm": 573.15, 
	 "num_atms": 36, 
	 "gaussian": { 
		 "optdone": 1, 
		 "sigma_profile": "yes", 
		 "theory": "DFT", 
		 "functional": "B3LYP", 
		 "basiset": "6-31G**", 
		 "properties": { 
			 "R2extent": 9757.2627, 
			 "electric_dipole_moment_norm": 5.20510470212, 
			 "electric_quadrupole_moment_norm": 49.2079045413, 
			 "total_energy": -1672.78056239, 
			 "HOMO_LUMO_gap": 0.2627, 
			 "cosmo_polarized_energy": -32.03, 
			 "cosmo_cavitation_energy": 39.98, 
			 "cosmo_dispersion_energy": -29.24, 
			 "cosmo_repulsion_energy": 2.16, 
			 "cosmo_total_nonelectrostatic_energy": 12.9, 
			 "SMD_solvation_energy": 1.7 
		},
		"coords": [
			{
				"x": -1.9095566113,
				"y": 3.4171761938,
				"z": -1.2409696915,
				"element": "O" 
			},
			{
				"x": -2.7169044006,
				"y": 3.9682670989,
				"z": 0.0454189324,
				"element": "S" 
			},
			{
				"x": -2.6205364561,
				"y": 5.4212213339,
				"z": 0.0365308623,
				"element": "O" 
			},
			{
				"x": -4.016770411,
				"y": 3.3002389577,
				"z": 0.141358168,
				"element": "O" 
			},
			{
				"x": -1.6717248532,
				"y": 3.293202408,
				"z": 1.3721281423,
				"element": "C" 
			},
			{
				"x": -1.6646339632,
				"y": 1.759873709,
				"z": 1.3479772759,
				"element": "C" 
			},
			{
				"x": -1.1566886526,
				"y": 1.2049175069,
				"z": 0.0745598787,
				"element": "N" 
			},
			{
				"x": -1.6875995075,
				"y": -0.1490743132,
				"z": -0.1863717406,
				"element": "C" 
			},
			{
				"x": -1.1869471181,
				"y": -0.6535545938,
				"z": -1.5467691718,
				"element": "C" 
			},
			{
				"x": 0.2715898735,
				"y": -0.6481775481,
				"z": -1.6791131014,
				"element": "N" 
			},
			{
				"x": 0.9652354743,
				"y": -1.7569699606,
				"z": -1.0243138088,
				"element": "C" 
			},
			{
				"x": 2.1898225935,
				"y": -2.1632968599,
				"z": -1.859729164,
				"element": "C" 
			},
			{
				"x": 3.0894061371,
				"y": -3.5014345507,
				"z": -1.0521076793,
				"element": "S" 
			},
			{
				"x": 4.182496603,
				"y": -3.8282520078,
				"z": -2.238159343,
				"element": "O" 
			},
			{
				"x": 2.1973809794,
				"y": -4.6447321364,
				"z": -0.9048301453,
				"element": "O" 
			},
			{
				"x": 3.8455311005,
				"y": -2.9881572445,
				"z": 0.0931045175,
				"element": "O" 
			},
			{
				"x": 0.796571966,
				"y": 0.6793130198,
				"z": -1.3502907844,
				"element": "C" 
			},
			{
				"x": 0.319872398,
				"y": 1.2042760758,
				"z": 0.0130729786,
				"element": "C" 
			},
			{
				"x": -1.6757200596,
				"y": 2.4582441517,
				"z": -1.0056788515,
				"element": "H" 
			},
			{
				"x": -2.1017151602,
				"y": 3.655062641,
				"z": 2.3095668061,
				"element": "H" 
			},
			{
				"x": -0.6816786081,
				"y": 3.739396238,
				"z": 1.2525140884,
				"element": "H" 
			},
			{
				"x": -1.0790809628,
				"y": 1.3881949088,
				"z": 2.2036432129,
				"element": "H" 
			},
			{
				"x": -2.6943107665,
				"y": 1.416164303,
				"z": 1.4755789355,
				"element": "H" 
			},
			{
				"x": -2.7808674446,
				"y": -0.0932555439,
				"z": -0.1893468233,
				"element": "H" 
			},
			{
				"x": -1.3879507051,
				"y": -0.8455122722,
				"z": 0.6161599253,
				"element": "H" 
			},
			{
				"x": -1.5639332893,
				"y": -1.664183924,
				"z": -1.7296283223,
				"element": "H" 
			},
			{
				"x": -1.5981222302,
				"y": -0.0053343985,
				"z": -2.3315848955,
				"element": "H" 
			},
			{
				"x": 0.2915347897,
				"y": -2.6156961779,
				"z": -0.9657438803,
				"element": "H" 
			},
			{
				"x": 1.2874640966,
				"y": -1.5347810254,
				"z": 0.0051789058,
				"element": "H" 
			},
			{
				"x": 1.8888546819,
				"y": -2.5251125939,
				"z": -2.8450540538,
				"element": "H" 
			},
			{
				"x": 2.9037462541,
				"y": -1.3455181959,
				"z": -1.9811178171,
				"element": "H" 
			},
			{
				"x": 5.0534572549,
				"y": -3.8609003918,
				"z": -1.8065130909,
				"element": "H" 
			},
			{
				"x": 0.4747481522,
				"y": 1.3797195882,
				"z": -2.1312649555,
				"element": "H" 
			},
			{
				"x": 1.8907022135,
				"y": 0.6602330295,
				"z": -1.3691127992,
				"element": "H" 
			},
			{
				"x": 0.7332874201,
				"y": 0.5909968268,
				"z": 0.8323400226,
				"element": "H" 
			},
			{
				"x": 0.6833392118,
				"y": 2.2269457477,
				"z": 0.1545674673,
				"element": "H" 
			}
		],
		 "valence_orbital": [ 
			{
				"type": "occ",
				"energy": -0.31047,
				"method": "rhf"
			},
			{
				"type": "occ",
				"energy": -0.30651,
				"method": "rhf"
			},
			{
				"type": "occ",
				"energy": -0.29003,
				"method": "rhf"
			},
			{
				"type": "occ",
				"energy": -0.27733,
				"method": "rhf"
			},
			{
				"type": "occ",
				"energy": -0.2404,
				"method": "rhf"
			},
			{
				"type": "unocc",
				"energy": 0.0223,
				"method": "rhf"
			},
			{
				"type": "unocc",
				"energy": 0.03686,
				"method": "rhf"
			},
			{
				"type": "unocc",
				"energy": 0.05218,
				"method": "rhf"
			},
			{
				"type": "unocc",
				"energy": 0.06019,
				"method": "rhf"
			},
			{
				"type": "unocc",
				"energy": 0.06787,
				"method": "rhf"
			}
		],
		"cosmo_sigma_profile": { 
			"-0.025": 0.0,
			"-0.024": 0.0,
			"-0.023": 0.0,
			"-0.022": 0.0,
			"-0.021": 0.0,
			"-0.02": 0.452567011268,
			"-0.019": 1.01196688627,
			"-0.018": 1.03673409345,
			"-0.017": 0.475702811872,
			"-0.016": 0.757312633669,
			"-0.015": 0.606530815625,
			"-0.014": 0.77860448649,
			"-0.013": 1.2966299283,
			"-0.012": 0.980751270583,
			"-0.011": 0.321550169183,
			"-0.01": 0.757652671317,
			"-0.009": 6.55299147926,
			"-0.008": 11.1931605116,
			"-0.007": 10.4700126194,
			"-0.006": 23.3384848101,
			"-0.005": 34.6878940172,
			"-0.004": 36.847368699,
			"-0.003": 26.9338828516,
			"-0.002": 15.5306606511,
			"-0.001": 10.2687504585,
			"0.0": 7.15377949325,
			"0.001": 6.81347175866,
			"0.002": 7.03807422567,
			"0.003": 5.35868266788,
			"0.004": 5.9634215113,
			"0.005": 7.13296858333,
			"0.006": 7.96973744168,
			"0.007": 8.82897014266,
			"0.008": 10.5492004708,
			"0.009": 12.1440306662,
			"0.01": 23.2123382434,
			"0.011": 20.6965570989,
			"0.012": 4.74853180465,
			"0.013": 0.326897286009,
			"0.014": 0.0,
			"0.015": 0.0,
			"0.016": 0.0,
			"0.017": 0.0,
			"0.018": 0.0,
			"0.019": 0.0,
			"0.02": 0.0,
			"0.021": 0.0,
			"0.022": 0.0,
			"0.023": 0.0,
			"0.024": 0.0,
			"0.025": 0.0
		}
	}
}
