{
	 "smiles": "CC(=O)C1=CC(=C(Cl)S1)[N+]([O-])=O", 
	 "Tm": 348.15, 
	 "num_atms": 16, 
	 "gaussian": { 
		 "optdone": 1, 
		 "sigma_profile": "yes", 
		 "theory": "DFT", 
		 "functional": "B3LYP", 
		 "basiset": "6-31G**", 
		 "properties": { 
			 "R2extent": 3331.1717, 
			 "electric_dipole_moment_norm": 2.14994989709, 
			 "electric_quadrupole_moment_norm": 19.3830281945, 
			 "total_energy": -1369.72268755, 
			 "HOMO_LUMO_gap": 0.17056, 
			 "cosmo_polarized_energy": -10.98, 
			 "cosmo_cavitation_energy": 25.31, 
			 "cosmo_dispersion_energy": -18.97, 
			 "cosmo_repulsion_energy": 1.47, 
			 "cosmo_total_nonelectrostatic_energy": 7.81, 
			 "SMD_solvation_energy": 6.88 
		},
		"coords": [
			{
				"x": 0.5284539334,
				"y": 1.6334536381,
				"z": 3.0623971456,
				"element": "C" 
			},
			{
				"x": 0.3459871925,
				"y": 0.4240376381,
				"z": 2.1682196771,
				"element": "C" 
			},
			{
				"x": 0.5362752091,
				"y": -0.7180216706,
				"z": 2.5595938246,
				"element": "O" 
			},
			{
				"x": -0.0793324142,
				"y": 0.6564076036,
				"z": 0.7713377798,
				"element": "C" 
			},
			{
				"x": -0.3529301453,
				"y": 1.8193815668,
				"z": 0.101397734,
				"element": "C" 
			},
			{
				"x": -0.7343381997,
				"y": 1.5938744343,
				"z": -1.2490664813,
				"element": "C" 
			},
			{
				"x": -0.746351208,
				"y": 0.2518607715,
				"z": -1.593527185,
				"element": "C" 
			},
			{
				"x": -1.1355320389,
				"y": -0.4893200622,
				"z": -3.0868352197,
				"element": "Cl" 
			},
			{
				"x": -0.2878133252,
				"y": -0.747757763,
				"z": -0.2558136885,
				"element": "S" 
			},
			{
				"x": -1.064882522,
				"y": 2.7069607039,
				"z": -2.1231108548,
				"element": "N" 
			},
			{
				"x": -0.9936031588,
				"y": 3.8323140613,
				"z": -1.6239994544,
				"element": "O" 
			},
			{
				"x": -1.3887970544,
				"y": 2.4653870864,
				"z": -3.2829573227,
				"element": "O" 
			},
			{
				"x": -0.407052667,
				"y": 2.1965406492,
				"z": 3.1491202363,
				"element": "H" 
			},
			{
				"x": 0.8426573674,
				"y": 1.2954211797,
				"z": 4.0500991268,
				"element": "H" 
			},
			{
				"x": 1.2840324478,
				"y": 2.3107796965,
				"z": 2.6500495474,
				"element": "H" 
			},
			{
				"x": -0.2951734165,
				"y": 2.8135804663,
				"z": 0.5228951349,
				"element": "H" 
			}
		],
		 "valence_orbital": [ 
			{
				"type": "occ",
				"energy": -0.31681,
				"method": "rhf"
			},
			{
				"type": "occ",
				"energy": -0.30158,
				"method": "rhf"
			},
			{
				"type": "occ",
				"energy": -0.30106,
				"method": "rhf"
			},
			{
				"type": "occ",
				"energy": -0.279,
				"method": "rhf"
			},
			{
				"type": "occ",
				"energy": -0.27408,
				"method": "rhf"
			},
			{
				"type": "unocc",
				"energy": -0.10352,
				"method": "rhf"
			},
			{
				"type": "unocc",
				"energy": -0.08774,
				"method": "rhf"
			},
			{
				"type": "unocc",
				"energy": -0.01215,
				"method": "rhf"
			},
			{
				"type": "unocc",
				"energy": -0.00281,
				"method": "rhf"
			},
			{
				"type": "unocc",
				"energy": 0.00834,
				"method": "rhf"
			}
		],
		"cosmo_sigma_profile": { 
			"-0.025": 0.0,
			"-0.024": 0.0,
			"-0.023": 0.0,
			"-0.022": 0.0,
			"-0.021": 0.0,
			"-0.02": 0.0,
			"-0.019": 0.0,
			"-0.018": 0.0,
			"-0.017": 0.0,
			"-0.016": 0.0,
			"-0.015": 0.0,
			"-0.014": 0.0,
			"-0.013": 0.0,
			"-0.012": 0.0,
			"-0.011": 0.0,
			"-0.01": 0.0,
			"-0.009": 1.57273738739,
			"-0.008": 3.59708499977,
			"-0.007": 9.52634851474,
			"-0.006": 9.2683729957,
			"-0.005": 10.9451333339,
			"-0.004": 17.7111329856,
			"-0.003": 22.6810669395,
			"-0.002": 22.699937221,
			"-0.001": 18.1209569651,
			"0.0": 16.3403264756,
			"0.001": 12.3465439985,
			"0.002": 6.33863916974,
			"0.003": 5.76488423125,
			"0.004": 4.46554980204,
			"0.005": 5.93747730051,
			"0.006": 5.28477090342,
			"0.007": 12.6915471681,
			"0.008": 7.4549983515,
			"0.009": 5.57771311308,
			"0.01": 4.37038951476,
			"0.011": 3.53518158143,
			"0.012": 1.40266131002,
			"0.013": 0.175802875194,
			"0.014": 0.0,
			"0.015": 0.0,
			"0.016": 0.0,
			"0.017": 0.0,
			"0.018": 0.0,
			"0.019": 0.0,
			"0.02": 0.0,
			"0.021": 0.0,
			"0.022": 0.0,
			"0.023": 0.0,
			"0.024": 0.0,
			"0.025": 0.0
		}
	}
}
