{
	 "smiles": "OC(=O)C1=C(NS(=O)(=O)C2=CC(Cl)=C(Cl)C=C2)C=CC=C1", 
	 "Tm": 418.15, 
	 "num_atms": 30, 
	 "gaussian": { 
		 "optdone": 1, 
		 "sigma_profile": "yes", 
		 "theory": "DFT", 
		 "functional": "B3LYP", 
		 "basiset": "6-31G**", 
		 "properties": { 
			 "R2extent": 7914.4782, 
			 "electric_dipole_moment_norm": 5.16621276856, 
			 "electric_quadrupole_moment_norm": 8.99761703508, 
			 "total_energy": -2174.95925315, 
			 "HOMO_LUMO_gap": 0.19076, 
			 "cosmo_polarized_energy": -22.32, 
			 "cosmo_cavitation_energy": 40.26, 
			 "cosmo_dispersion_energy": -27.85, 
			 "cosmo_repulsion_energy": 2.11, 
			 "cosmo_total_nonelectrostatic_energy": 14.52, 
			 "SMD_solvation_energy": 6.73 
		},
		"coords": [
			{
				"x": 2.5807187555,
				"y": 3.1770046483,
				"z": 1.3051817467,
				"element": "O" 
			},
			{
				"x": 1.2636348611,
				"y": 3.3097586263,
				"z": 1.5511953256,
				"element": "C" 
			},
			{
				"x": 0.6738924291,
				"y": 4.3620850668,
				"z": 1.412002699,
				"element": "O" 
			},
			{
				"x": 0.6130765228,
				"y": 2.0795417862,
				"z": 2.1110738124,
				"element": "C" 
			},
			{
				"x": 1.0175325612,
				"y": 0.747234274,
				"z": 1.8809018519,
				"element": "C" 
			},
			{
				"x": 2.0779765305,
				"y": 0.4294525227,
				"z": 0.9847753399,
				"element": "N" 
			},
			{
				"x": 1.8912916614,
				"y": 0.536419771,
				"z": -0.697663957,
				"element": "S" 
			},
			{
				"x": 1.212699835,
				"y": 1.7990780982,
				"z": -0.9749771887,
				"element": "O" 
			},
			{
				"x": 3.2022368759,
				"y": 0.1872358734,
				"z": -1.2406847621,
				"element": "O" 
			},
			{
				"x": 0.7558759554,
				"y": -0.7824058214,
				"z": -1.1587778338,
				"element": "C" 
			},
			{
				"x": -0.6168910558,
				"y": -0.545397094,
				"z": -1.1045027322,
				"element": "C" 
			},
			{
				"x": -1.501628173,
				"y": -1.5745854882,
				"z": -1.4304597939,
				"element": "C" 
			},
			{
				"x": -3.2139555512,
				"y": -1.2600865599,
				"z": -1.3579822198,
				"element": "Cl" 
			},
			{
				"x": -1.0022348017,
				"y": -2.8301035452,
				"z": -1.8126811986,
				"element": "C" 
			},
			{
				"x": -2.0706542905,
				"y": -4.1410787339,
				"z": -2.2284826172,
				"element": "Cl" 
			},
			{
				"x": 0.3782735448,
				"y": -3.0449817048,
				"z": -1.8729737943,
				"element": "C" 
			},
			{
				"x": 1.2645502945,
				"y": -2.0238058316,
				"z": -1.5453699348,
				"element": "C" 
			},
			{
				"x": 0.3606747939,
				"y": -0.2972176159,
				"z": 2.5469215853,
				"element": "C" 
			},
			{
				"x": -0.6848461856,
				"y": -0.0391028046,
				"z": 3.4301232983,
				"element": "C" 
			},
			{
				"x": -1.1190144084,
				"y": 1.2727740938,
				"z": 3.6251909779,
				"element": "C" 
			},
			{
				"x": -0.4779091946,
				"y": 2.3138756854,
				"z": 2.9605049577,
				"element": "C" 
			},
			{
				"x": 2.8654545073,
				"y": 4.0289831105,
				"z": 0.9341014101,
				"element": "H" 
			},
			{
				"x": 2.6151776594,
				"y": -0.3980705259,
				"z": 1.2236537376,
				"element": "H" 
			},
			{
				"x": -0.9974864972,
				"y": 0.4323405824,
				"z": -0.8341806742,
				"element": "H" 
			},
			{
				"x": 0.7461296855,
				"y": -4.0156822098,
				"z": -2.1858475263,
				"element": "H" 
			},
			{
				"x": 2.3361379333,
				"y": -2.1754500476,
				"z": -1.6109868676,
				"element": "H" 
			},
			{
				"x": 0.6729952862,
				"y": -1.3203954027,
				"z": 2.3560832409,
				"element": "H" 
			},
			{
				"x": -1.1715979259,
				"y": -0.8628571469,
				"z": 3.9434705554,
				"element": "H" 
			},
			{
				"x": -1.9480408179,
				"y": 1.4835081514,
				"z": 4.2932899396,
				"element": "H" 
			},
			{
				"x": -0.7934707912,
				"y": 3.342128242,
				"z": 3.0984006222,
				"element": "H" 
			}
		],
		 "valence_orbital": [ 
			{
				"type": "occ",
				"energy": -0.28529,
				"method": "rhf"
			},
			{
				"type": "occ",
				"energy": -0.28218,
				"method": "rhf"
			},
			{
				"type": "occ",
				"energy": -0.2734,
				"method": "rhf"
			},
			{
				"type": "occ",
				"energy": -0.26743,
				"method": "rhf"
			},
			{
				"type": "occ",
				"energy": -0.25481,
				"method": "rhf"
			},
			{
				"type": "unocc",
				"energy": -0.06405,
				"method": "rhf"
			},
			{
				"type": "unocc",
				"energy": -0.0528,
				"method": "rhf"
			},
			{
				"type": "unocc",
				"energy": -0.04559,
				"method": "rhf"
			},
			{
				"type": "unocc",
				"energy": -0.02787,
				"method": "rhf"
			},
			{
				"type": "unocc",
				"energy": -0.01367,
				"method": "rhf"
			}
		],
		"cosmo_sigma_profile": { 
			"-0.025": 0.0,
			"-0.024": 0.0,
			"-0.023": 0.0,
			"-0.022": 0.0,
			"-0.021": 0.0,
			"-0.02": 0.0,
			"-0.019": 0.0713410934218,
			"-0.018": 0.999266680686,
			"-0.017": 0.895591193273,
			"-0.016": 1.85973897849,
			"-0.015": 2.0334014431,
			"-0.014": 1.3958100086,
			"-0.013": 2.14726943528,
			"-0.012": 1.98643883742,
			"-0.011": 2.58097323341,
			"-0.01": 1.80239287054,
			"-0.009": 3.7085264875,
			"-0.008": 6.62731764324,
			"-0.007": 11.9665117247,
			"-0.006": 14.1707662871,
			"-0.005": 13.6639957399,
			"-0.004": 14.7049380889,
			"-0.003": 15.9110827032,
			"-0.002": 21.1542795746,
			"-0.001": 31.7935785192,
			"0.0": 28.4979945943,
			"0.001": 22.3853881895,
			"0.002": 24.7791615475,
			"0.003": 29.6172335455,
			"0.004": 13.7301325932,
			"0.005": 8.89141062104,
			"0.006": 6.0097843642,
			"0.007": 6.78853866602,
			"0.008": 6.6261682584,
			"0.009": 7.43469274452,
			"0.01": 10.8127810178,
			"0.011": 8.36584574104,
			"0.012": 4.24094968547,
			"0.013": 0.140332226957,
			"0.014": 0.0,
			"0.015": 0.0,
			"0.016": 0.0,
			"0.017": 0.0,
			"0.018": 0.0,
			"0.019": 0.0,
			"0.02": 0.0,
			"0.021": 0.0,
			"0.022": 0.0,
			"0.023": 0.0,
			"0.024": 0.0,
			"0.0": 0.0
		}
	}
}
