{
	 "smiles": "CC12CC(O)C3C(CCC4=CC(=O)C=CC34C)C1CC(=C)C2(O)C(=O)CO", 
	 "Tm": 507.15, 
	 "num_atms": 55, 
	 "gaussian": { 
		 "optdone": 1, 
		 "sigma_profile": "yes", 
		 "theory": "DFT", 
		 "functional": "B3LYP", 
		 "basiset": "6-31G**", 
		 "properties": { 
			 "R2extent": 9621.6986, 
			 "electric_dipole_moment_norm": 5.36817106378, 
			 "electric_quadrupole_moment_norm": 38.1862416803, 
			 "total_energy": -1231.25119055, 
			 "HOMO_LUMO_gap": 0.16886, 
			 "cosmo_polarized_energy": -22.65, 
			 "cosmo_cavitation_energy": 49.48, 
			 "cosmo_dispersion_energy": -33.37, 
			 "cosmo_repulsion_energy": 2.45, 
			 "cosmo_total_nonelectrostatic_energy": 18.56, 
			 "SMD_solvation_energy": 8.97 
		},
		"coords": [
			{
				"x": 0.4235832708,
				"y": 3.4125655326,
				"z": -0.6006999724,
				"element": "C" 
			},
			{
				"x": -0.1842132239,
				"y": 2.014955572,
				"z": -0.369080579,
				"element": "C" 
			},
			{
				"x": 0.097102528,
				"y": 1.1843030066,
				"z": -1.6588112492,
				"element": "C" 
			},
			{
				"x": 0.190908942,
				"y": -0.330622102,
				"z": -1.4396971422,
				"element": "C" 
			},
			{
				"x": -0.9913399177,
				"y": -0.831070201,
				"z": -0.8370439037,
				"element": "O" 
			},
			{
				"x": 1.4458571384,
				"y": -0.6430012396,
				"z": -0.5860328238,
				"element": "C" 
			},
			{
				"x": 1.6965946322,
				"y": 0.4711380335,
				"z": 0.5159595375,
				"element": "C" 
			},
			{
				"x": 2.4356929301,
				"y": 0.0036297124,
				"z": 1.7899334807,
				"element": "C" 
			},
			{
				"x": 3.2733542365,
				"y": -1.2633503593,
				"z": 1.5477016123,
				"element": "C" 
			},
			{
				"x": 2.2973896968,
				"y": -2.3381676774,
				"z": 1.1630994306,
				"element": "C" 
			},
			{
				"x": 1.9545244152,
				"y": -3.3170914995,
				"z": 2.021955482,
				"element": "C" 
			},
			{
				"x": 0.8489044225,
				"y": -4.2596860778,
				"z": 1.7720731462,
				"element": "C" 
			},
			{
				"x": 0.567975789,
				"y": -5.1605156098,
				"z": 2.5616565238,
				"element": "O" 
			},
			{
				"x": 0.0928272409,
				"y": -4.0327996406,
				"z": 0.5276219264,
				"element": "C" 
			},
			{
				"x": 0.4279215371,
				"y": -3.0688345912,
				"z": -0.343646274,
				"element": "C" 
			},
			{
				"x": 1.6477993181,
				"y": -2.1850893979,
				"z": -0.2003949655,
				"element": "C" 
			},
			{
				"x": 2.6603967634,
				"y": -2.7723833287,
				"z": -1.2475472069,
				"element": "C" 
			},
			{
				"x": 0.4634528733,
				"y": 1.3222191067,
				"z": 0.8856632166,
				"element": "C" 
			},
			{
				"x": -0.6478586447,
				"y": 0.5660438332,
				"z": 1.6572588758,
				"element": "C" 
			},
			{
				"x": -1.965253852,
				"y": 1.0270084695,
				"z": 1.0754903113,
				"element": "C" 
			},
			{
				"x": -3.181964612,
				"y": 0.6282439905,
				"z": 1.4544117128,
				"element": "C" 
			},
			{
				"x": -1.7189914439,
				"y": 2.1335711382,
				"z": 0.0522526506,
				"element": "C" 
			},
			{
				"x": -1.8835396106,
				"y": 3.3944544713,
				"z": 0.7305447306,
				"element": "O" 
			},
			{
				"x": -2.6891163849,
				"y": 2.09495107,
				"z": -1.1283712178,
				"element": "C" 
			},
			{
				"x": -2.9148667832,
				"y": 1.071563773,
				"z": -1.7684035439,
				"element": "O" 
			},
			{
				"x": -3.3968331974,
				"y": 3.3717720352,
				"z": -1.5417985572,
				"element": "C" 
			},
			{
				"x": -4.1676821652,
				"y": 3.186470182,
				"z": -2.6934512459,
				"element": "O" 
			},
			{
				"x": 0.0321851756,
				"y": 3.8753295199,
				"z": -1.5143059422,
				"element": "H" 
			},
			{
				"x": 1.5079857511,
				"y": 3.3202666351,
				"z": -0.7242038921,
				"element": "H" 
			},
			{
				"x": 0.2246543408,
				"y": 4.0838054346,
				"z": 0.2339505581,
				"element": "H" 
			},
			{
				"x": 1.055486589,
				"y": 1.5221826103,
				"z": -2.0705520688,
				"element": "H" 
			},
			{
				"x": -0.6418524383,
				"y": 1.3986090637,
				"z": -2.4351053087,
				"element": "H" 
			},
			{
				"x": 0.3342737166,
				"y": -0.8098306719,
				"z": -2.4238874371,
				"element": "H" 
			},
			{
				"x": -1.7588849567,
				"y": -0.3948548607,
				"z": -1.2489616604,
				"element": "H" 
			},
			{
				"x": 2.2565537319,
				"y": -0.4595941575,
				"z": -1.2987906936,
				"element": "H" 
			},
			{
				"x": 2.385567798,
				"y": 1.1691513345,
				"z": 0.0220382485,
				"element": "H" 
			},
			{
				"x": 1.7191878804,
				"y": -0.2257043732,
				"z": 2.5863626094,
				"element": "H" 
			},
			{
				"x": 3.0653839393,
				"y": 0.8212499958,
				"z": 2.1607719323,
				"element": "H" 
			},
			{
				"x": 3.8204041413,
				"y": -1.5434343828,
				"z": 2.4529173291,
				"element": "H" 
			},
			{
				"x": 4.0145577604,
				"y": -1.0802639319,
				"z": 0.7579905546,
				"element": "H" 
			},
			{
				"x": 2.4611749714,
				"y": -3.4252057523,
				"z": 2.9783231963,
				"element": "H" 
			},
			{
				"x": -0.7463891064,
				"y": -4.6976450247,
				"z": 0.3447245897,
				"element": "H" 
			},
			{
				"x": -0.1360100393,
				"y": -2.9631167989,
				"z": -1.2627611751,
				"element": "H" 
			},
			{
				"x": 2.2596463937,
				"y": -2.6643333357,
				"z": -2.2611024818,
				"element": "H" 
			},
			{
				"x": 2.8364946489,
				"y": -3.8338306816,
				"z": -1.0577828617,
				"element": "H" 
			},
			{
				"x": 3.6189108308,
				"y": -2.2453026673,
				"z": -1.2040181943,
				"element": "H" 
			},
			{
				"x": 0.8291354431,
				"y": 2.1292500254,
				"z": 1.5329436819,
				"element": "H" 
			},
			{
				"x": -0.6009983681,
				"y": 0.7805275382,
				"z": 2.7308063846,
				"element": "H" 
			},
			{
				"x": -0.5632691605,
				"y": -0.5160637982,
				"z": 1.5371126627,
				"element": "H" 
			},
			{
				"x": -3.3134286753,
				"y": -0.1014808445,
				"z": 2.2480556928,
				"element": "H" 
			},
			{
				"x": -4.0890660585,
				"y": 0.9799289807,
				"z": 0.9702392858,
				"element": "H" 
			},
			{
				"x": -2.5050629587,
				"y": 3.2360608615,
				"z": 1.4541568886,
				"element": "H" 
			},
			{
				"x": -2.6398390326,
				"y": 4.1584351892,
				"z": -1.6829499815,
				"element": "H" 
			},
			{
				"x": -4.0083075247,
				"y": 3.7089452969,
				"z": -0.6887154853,
				"element": "H" 
			},
			{
				"x": -4.112320692,
				"y": 2.2375405936,
				"z": -2.8998003877,
				"element": "H" 
			}
		],
		 "valence_orbital": [ 
			{
				"type": "occ",
				"energy": -0.26984,
				"method": "rhf"
			},
			{
				"type": "occ",
				"energy": -0.26084,
				"method": "rhf"
			},
			{
				"type": "occ",
				"energy": -0.25356,
				"method": "rhf"
			},
			{
				"type": "occ",
				"energy": -0.24583,
				"method": "rhf"
			},
			{
				"type": "occ",
				"energy": -0.22338,
				"method": "rhf"
			},
			{
				"type": "unocc",
				"energy": -0.05452,
				"method": "rhf"
			},
			{
				"type": "unocc",
				"energy": -0.04626,
				"method": "rhf"
			},
			{
				"type": "unocc",
				"energy": -0.01182,
				"method": "rhf"
			},
			{
				"type": "unocc",
				"energy": 0.01208,
				"method": "rhf"
			},
			{
				"type": "unocc",
				"energy": 0.04693,
				"method": "rhf"
			}
		],
		"cosmo_sigma_profile": { 
			"-0.025": 0.0,
			"-0.024": 0.0,
			"-0.023": 0.0,
			"-0.022": 0.0,
			"-0.021": 0.0,
			"-0.02": 0.0,
			"-0.019": 0.0,
			"-0.018": 0.0,
			"-0.017": 0.0,
			"-0.016": 0.0,
			"-0.015": 0.0159245010777,
			"-0.014": 0.511843475836,
			"-0.013": 0.566811492694,
			"-0.012": 0.957191826125,
			"-0.011": 1.78102908718,
			"-0.01": 2.10354809885,
			"-0.009": 1.5761371207,
			"-0.008": 2.41376423991,
			"-0.007": 4.56572100128,
			"-0.006": 8.86955570315,
			"-0.005": 22.0772307215,
			"-0.004": 37.2044893101,
			"-0.003": 45.8470920279,
			"-0.002": 47.7763680294,
			"-0.001": 44.718688136,
			"0.0": 33.9487499715,
			"0.001": 24.0969083255,
			"0.002": 19.108670549,
			"0.003": 13.0270530582,
			"0.004": 10.7533659247,
			"0.005": 8.8900822455,
			"0.006": 6.94272850827,
			"0.007": 6.44797586238,
			"0.008": 6.83975409589,
			"0.009": 5.27523273839,
			"0.01": 3.61124656721,
			"0.011": 4.39247624198,
			"0.012": 4.51401710865,
			"0.013": 5.60970705769,
			"0.014": 6.9695334844,
			"0.015": 2.33387643662,
			"0.016": 0.206206929554,
			"0.017": 0.0,
			"0.018": 0.0,
			"0.019": 0.0,
			"0.02": 0.0,
			"0.021": 0.0,
			"0.022": 0.0,
			"0.023": 0.0,
			"0.024": 0.0,
			"0.025": 0.0
		}
	}
}
