{
	 "smiles": "CCCCCCCCCCCCCCCC(C)CC", 
	 "Tm": 274.15, 
	 "num_atms": 59, 
	 "gaussian": { 
		 "optdone": 1, 
		 "sigma_profile": "yes", 
		 "theory": "DFT", 
		 "functional": "B3LYP", 
		 "basiset": "6-31G**", 
		 "properties": { 
			 "R2extent": 8150.3995, 
			 "electric_dipole_moment_norm": 0.112408051313, 
			 "electric_quadrupole_moment_norm": 0.936429196469, 
			 "total_energy": -748.187501393, 
			 "HOMO_LUMO_gap": 0.34665, 
			 "cosmo_polarized_energy": -1.31, 
			 "cosmo_cavitation_energy": 55.72, 
			 "cosmo_dispersion_energy": -33.13, 
			 "cosmo_repulsion_energy": 2.6, 
			 "cosmo_total_nonelectrostatic_energy": 25.2, 
			 "SMD_solvation_energy": 7.2 
		},
		"coords": [
			{
				"x": 3.6007044408,
				"y": -2.4443020695,
				"z": 0.4021143874,
				"element": "C" 
			},
			{
				"x": 3.068731632,
				"y": -3.0758482246,
				"z": 1.6942976279,
				"element": "C" 
			},
			{
				"x": 2.2051962912,
				"y": -2.1385418437,
				"z": 2.5554678025,
				"element": "C" 
			},
			{
				"x": 2.9581929056,
				"y": -0.9236394065,
				"z": 3.1172612031,
				"element": "C" 
			},
			{
				"x": 2.1596668507,
				"y": -0.0978692836,
				"z": 4.1409702781,
				"element": "C" 
			},
			{
				"x": 0.8825784582,
				"y": 0.5842026037,
				"z": 3.618455845,
				"element": "C" 
			},
			{
				"x": 1.1133935337,
				"y": 1.5966315906,
				"z": 2.4867735532,
				"element": "C" 
			},
			{
				"x": -0.1116347481,
				"y": 2.480480866,
				"z": 2.2067669541,
				"element": "C" 
			},
			{
				"x": 0.0871771606,
				"y": 3.4684264192,
				"z": 1.0408730026,
				"element": "C" 
			},
			{
				"x": -0.1030087624,
				"y": 2.8685479148,
				"z": -0.3658543061,
				"element": "C" 
			},
			{
				"x": -1.5780280053,
				"y": 2.6993763229,
				"z": -0.7647227943,
				"element": "C" 
			},
			{
				"x": -1.7965114059,
				"y": 2.1873637672,
				"z": -2.2002057364,
				"element": "C" 
			},
			{
				"x": -1.4488449515,
				"y": 0.7087596093,
				"z": -2.4524955083,
				"element": "C" 
			},
			{
				"x": -2.3948798354,
				"y": -0.2770195678,
				"z": -1.7440439557,
				"element": "C" 
			},
			{
				"x": -2.34306309,
				"y": -1.7430659134,
				"z": -2.2240288487,
				"element": "C" 
			},
			{
				"x": -1.1704335939,
				"y": -2.6468112451,
				"z": -1.7670024808,
				"element": "C" 
			},
			{
				"x": 0.175078181,
				"y": -2.2997216423,
				"z": -2.4254191338,
				"element": "C" 
			},
			{
				"x": -1.0137255887,
				"y": -2.7342198252,
				"z": -0.2348989816,
				"element": "C" 
			},
			{
				"x": -2.2456348842,
				"y": -3.252618629,
				"z": 0.5159676956,
				"element": "C" 
			},
			{
				"x": 2.7798045476,
				"y": -2.0748585058,
				"z": -0.2235734118,
				"element": "H" 
			},
			{
				"x": 4.2684373428,
				"y": -1.6006770009,
				"z": 0.604619677,
				"element": "H" 
			},
			{
				"x": 4.1650054239,
				"y": -3.1732743675,
				"z": -0.1891173499,
				"element": "H" 
			},
			{
				"x": 2.475695637,
				"y": -3.9635812322,
				"z": 1.4384972033,
				"element": "H" 
			},
			{
				"x": 3.9132425809,
				"y": -3.4396112598,
				"z": 2.2960659184,
				"element": "H" 
			},
			{
				"x": 1.3429035541,
				"y": -1.8039296657,
				"z": 1.9627502044,
				"element": "H" 
			},
			{
				"x": 1.7907861787,
				"y": -2.7148066918,
				"z": 3.3946218106,
				"element": "H" 
			},
			{
				"x": 3.2853037449,
				"y": -0.2733405132,
				"z": 2.2966290062,
				"element": "H" 
			},
			{
				"x": 3.8783209545,
				"y": -1.2762152786,
				"z": 3.6042701161,
				"element": "H" 
			},
			{
				"x": 2.8203795274,
				"y": 0.6759236603,
				"z": 4.5557556488,
				"element": "H" 
			},
			{
				"x": 1.8898161927,
				"y": -0.7483942485,
				"z": 4.9844537277,
				"element": "H" 
			},
			{
				"x": 0.4067506194,
				"y": 1.1022573724,
				"z": 4.4626067906,
				"element": "H" 
			},
			{
				"x": 0.15769953,
				"y": -0.1718940516,
				"z": 3.2881395529,
				"element": "H" 
			},
			{
				"x": 1.410998263,
				"y": 1.0703409171,
				"z": 1.5703618023,
				"element": "H" 
			},
			{
				"x": 1.9605895367,
				"y": 2.2470822453,
				"z": 2.7497635491,
				"element": "H" 
			},
			{
				"x": -0.3452990115,
				"y": 3.0432933856,
				"z": 3.1203447915,
				"element": "H" 
			},
			{
				"x": -0.9889262043,
				"y": 1.846930543,
				"z": 2.0157267217,
				"element": "H" 
			},
			{
				"x": -0.6087287132,
				"y": 4.3106177106,
				"z": 1.1534689183,
				"element": "H" 
			},
			{
				"x": 1.0938528472,
				"y": 3.9004882938,
				"z": 1.1200270913,
				"element": "H" 
			},
			{
				"x": 0.4241583912,
				"y": 1.9075622425,
				"z": -0.4336019731,
				"element": "H" 
			},
			{
				"x": 0.3782230153,
				"y": 3.5261206112,
				"z": -1.102583826,
				"element": "H" 
			},
			{
				"x": -2.0898193801,
				"y": 2.0400620324,
				"z": -0.0518144488,
				"element": "H" 
			},
			{
				"x": -2.0690857778,
				"y": 3.6775059135,
				"z": -0.6688165644,
				"element": "H" 
			},
			{
				"x": -2.8486071306,
				"y": 2.3451831841,
				"z": -2.4751567286,
				"element": "H" 
			},
			{
				"x": -1.209109743,
				"y": 2.8134757327,
				"z": -2.8860308652,
				"element": "H" 
			},
			{
				"x": -1.4990571239,
				"y": 0.5240391253,
				"z": -3.534264429,
				"element": "H" 
			},
			{
				"x": -0.4081618678,
				"y": 0.5205559848,
				"z": -2.1663569125,
				"element": "H" 
			},
			{
				"x": -3.4223199865,
				"y": 0.0785178803,
				"z": -1.9063082203,
				"element": "H" 
			},
			{
				"x": -2.2408514984,
				"y": -0.2342722789,
				"z": -0.6586028207,
				"element": "H" 
			},
			{
				"x": -3.2736513986,
				"y": -2.2264120529,
				"z": -1.9015280401,
				"element": "H" 
			},
			{
				"x": -2.3755534298,
				"y": -1.7540291026,
				"z": -3.3226846715,
				"element": "H" 
			},
			{
				"x": -1.4360120041,
				"y": -3.6577564472,
				"z": -2.113972943,
				"element": "H" 
			},
			{
				"x": 0.076419791,
				"y": -2.1983586677,
				"z": -3.5117380966,
				"element": "H" 
			},
			{
				"x": 0.9142368903,
				"y": -3.0848986674,
				"z": -2.2300937696,
				"element": "H" 
			},
			{
				"x": 0.5892988323,
				"y": -1.3618405287,
				"z": -2.0415821787,
				"element": "H" 
			},
			{
				"x": -0.7303355631,
				"y": -1.7493002846,
				"z": 0.1611404068,
				"element": "H" 
			},
			{
				"x": -0.1635955789,
				"y": -3.394834714,
				"z": -0.0184697533,
				"element": "H" 
			},
			{
				"x": -3.0987720679,
				"y": -2.5725149075,
				"z": 0.4261934135,
				"element": "H" 
			},
			{
				"x": -2.0324667399,
				"y": -3.3705119858,
				"z": 1.5835331393,
				"element": "H" 
			},
			{
				"x": -2.5605247701,
				"y": -4.2299758246,
				"z": 0.1316509099,
				"element": "H" 
			}
		],
		 "valence_orbital": [ 
			{
				"type": "occ",
				"energy": -0.30152,
				"method": "rhf"
			},
			{
				"type": "occ",
				"energy": -0.29998,
				"method": "rhf"
			},
			{
				"type": "occ",
				"energy": -0.29866,
				"method": "rhf"
			},
			{
				"type": "occ",
				"energy": -0.29452,
				"method": "rhf"
			},
			{
				"type": "occ",
				"energy": -0.2932,
				"method": "rhf"
			},
			{
				"type": "unocc",
				"energy": 0.05345,
				"method": "rhf"
			},
			{
				"type": "unocc",
				"energy": 0.08263,
				"method": "rhf"
			},
			{
				"type": "unocc",
				"energy": 0.08792,
				"method": "rhf"
			},
			{
				"type": "unocc",
				"energy": 0.09279,
				"method": "rhf"
			},
			{
				"type": "unocc",
				"energy": 0.09956,
				"method": "rhf"
			}
		],
		"cosmo_sigma_profile": { 
			"-0.025": 0.0,
			"-0.024": 0.0,
			"-0.023": 0.0,
			"-0.022": 0.0,
			"-0.021": 0.0,
			"-0.02": 0.0,
			"-0.019": 0.0,
			"-0.018": 0.0,
			"-0.017": 0.0,
			"-0.016": 0.0,
			"-0.015": 0.0,
			"-0.014": 0.0,
			"-0.013": 0.0,
			"-0.012": 0.0,
			"-0.011": 0.0,
			"-0.01": 0.0,
			"-0.009": 0.0,
			"-0.008": 0.0,
			"-0.007": 0.0,
			"-0.006": 0.0,
			"-0.005": 0.0,
			"-0.004": 0.00302969753667,
			"-0.003": 3.48968751786,
			"-0.002": 44.2500024047,
			"-0.001": 105.023890985,
			"0.0": 119.881873357,
			"0.001": 102.330065855,
			"0.002": 47.9495782196,
			"0.003": 1.50257091351,
			"0.004": 0.0,
			"0.005": 0.0,
			"0.006": 0.0,
			"0.007": 0.0,
			"0.008": 0.0,
			"0.009": 0.0,
			"0.01": 0.0,
			"0.011": 0.0,
			"0.012": 0.0,
			"0.013": 0.0,
			"0.014": 0.0,
			"0.015": 0.0,
			"0.016": 0.0,
			"0.017": 0.0,
			"0.018": 0.0,
			"0.019": 0.0,
			"0.02": 0.0,
			"0.021": 0.0,
			"0.022": 0.0,
			"0.023": 0.0,
			"0.024": 0.0,
			"0.025": 0.0
		}
	}
}
