{
	 "smiles": "CC1=NN(N=C1CO)C1=CC=CC=C1", 
	 "Tm": 348.65, 
	 "num_atms": 25, 
	 "gaussian": { 
		 "optdone": 1, 
		 "sigma_profile": "yes", 
		 "theory": "DFT", 
		 "functional": "B3LYP", 
		 "basiset": "6-31G**", 
		 "properties": { 
			 "R2extent": 3716.9619, 
			 "electric_dipole_moment_norm": 1.71593144677, 
			 "electric_quadrupole_moment_norm": 12.3152490884, 
			 "total_energy": -627.139312225, 
			 "HOMO_LUMO_gap": 0.18693, 
			 "cosmo_polarized_energy": -9.07, 
			 "cosmo_cavitation_energy": 29.17, 
			 "cosmo_dispersion_energy": -21.53, 
			 "cosmo_repulsion_energy": 1.71, 
			 "cosmo_total_nonelectrostatic_energy": 9.35, 
			 "SMD_solvation_energy": 3.71 
		},
		"coords": [
			{
				"x": 3.7403757039,
				"y": 0.3748449058,
				"z": -2.3190074261,
				"element": "C" 
			},
			{
				"x": 2.3737213346,
				"y": 0.0767212009,
				"z": -1.7914600831,
				"element": "C" 
			},
			{
				"x": 2.1811138204,
				"y": -0.5647065875,
				"z": -0.6379478727,
				"element": "N" 
			},
			{
				"x": 0.8513940459,
				"y": -0.6406542336,
				"z": -0.5142013065,
				"element": "N" 
			},
			{
				"x": 0.1647727584,
				"y": -0.084498348,
				"z": -1.5198047392,
				"element": "N" 
			},
			{
				"x": 1.1031526852,
				"y": 0.3797520954,
				"z": -2.3405744244,
				"element": "C" 
			},
			{
				"x": 0.7177063991,
				"y": 1.0514074106,
				"z": -3.629101277,
				"element": "C" 
			},
			{
				"x": -0.6220085184,
				"y": 1.4969125487,
				"z": -3.633673079,
				"element": "O" 
			},
			{
				"x": 0.220493647,
				"y": -1.2513060315,
				"z": 0.6026599199,
				"element": "C" 
			},
			{
				"x": 1.0060641057,
				"y": -1.821476244,
				"z": 1.6094809238,
				"element": "C" 
			},
			{
				"x": 0.3798537204,
				"y": -2.4195726679,
				"z": 2.7012216061,
				"element": "C" 
			},
			{
				"x": -1.0132611431,
				"y": -2.452305409,
				"z": 2.7933993071,
				"element": "C" 
			},
			{
				"x": -1.7835736863,
				"y": -1.8786024146,
				"z": 1.7798652905,
				"element": "C" 
			},
			{
				"x": -1.1753667232,
				"y": -1.275532878,
				"z": 0.6804890794,
				"element": "C" 
			},
			{
				"x": 4.4949322975,
				"y": 0.0709054184,
				"z": -1.5908749542,
				"element": "H" 
			},
			{
				"x": 3.9343306357,
				"y": -0.1584219559,
				"z": -3.2566861302,
				"element": "H" 
			},
			{
				"x": 3.8645119679,
				"y": 1.4447108682,
				"z": -2.5202596425,
				"element": "H" 
			},
			{
				"x": 1.3623405939,
				"y": 1.9230602883,
				"z": -3.8002118566,
				"element": "H" 
			},
			{
				"x": 0.9086582327,
				"y": 0.3549875219,
				"z": -4.4654574932,
				"element": "H" 
			},
			{
				"x": -1.1191771046,
				"y": 0.8994364207,
				"z": -3.0570969673,
				"element": "H" 
			},
			{
				"x": 2.0851138684,
				"y": -1.788688541,
				"z": 1.5248649545,
				"element": "H" 
			},
			{
				"x": 0.9885104577,
				"y": -2.8625566427,
				"z": 3.483964239,
				"element": "H" 
			},
			{
				"x": -1.4939616644,
				"y": -2.920163248,
				"z": 3.6470575531,
				"element": "H" 
			},
			{
				"x": -2.8676253305,
				"y": -1.8976243569,
				"z": 1.8415996975,
				"element": "H" 
			},
			{
				"x": -1.7622721038,
				"y": -0.8262291203,
				"z": -0.1107453189,
				"element": "H" 
			}
		],
		 "valence_orbital": [ 
			{
				"type": "occ",
				"energy": -0.29313,
				"method": "rhf"
			},
			{
				"type": "occ",
				"energy": -0.29083,
				"method": "rhf"
			},
			{
				"type": "occ",
				"energy": -0.26795,
				"method": "rhf"
			},
			{
				"type": "occ",
				"energy": -0.25817,
				"method": "rhf"
			},
			{
				"type": "occ",
				"energy": -0.22553,
				"method": "rhf"
			},
			{
				"type": "unocc",
				"energy": -0.0386,
				"method": "rhf"
			},
			{
				"type": "unocc",
				"energy": -0.00868,
				"method": "rhf"
			},
			{
				"type": "unocc",
				"energy": 0.03039,
				"method": "rhf"
			},
			{
				"type": "unocc",
				"energy": 0.04764,
				"method": "rhf"
			},
			{
				"type": "unocc",
				"energy": 0.08618,
				"method": "rhf"
			}
		],
		"cosmo_sigma_profile": { 
			"-0.025": 0.0,
			"-0.024": 0.0,
			"-0.023": 0.0,
			"-0.022": 0.0,
			"-0.021": 0.0,
			"-0.02": 0.0,
			"-0.019": 0.0,
			"-0.018": 0.0,
			"-0.017": 0.0,
			"-0.016": 0.0,
			"-0.015": 0.0,
			"-0.014": 0.0,
			"-0.013": 0.00110928912815,
			"-0.012": 0.510968892067,
			"-0.011": 0.403039143937,
			"-0.01": 0.57745884401,
			"-0.009": 0.243595012634,
			"-0.008": 0.952053260735,
			"-0.007": 1.36929163696,
			"-0.006": 11.7246245166,
			"-0.005": 24.1823578763,
			"-0.004": 21.3666508954,
			"-0.003": 19.7872778668,
			"-0.002": 15.966342084,
			"-0.001": 17.4303972937,
			"0.0": 18.7679440698,
			"0.001": 18.2193081455,
			"0.002": 16.8214284896,
			"0.003": 15.317498021,
			"0.004": 16.1197326488,
			"0.005": 11.1594256461,
			"0.006": 4.21038260592,
			"0.007": 2.53599302662,
			"0.008": 3.13600489687,
			"0.009": 1.81322419578,
			"0.01": 2.576429438,
			"0.011": 1.81284276023,
			"0.012": 1.44995018313,
			"0.013": 2.09346531429,
			"0.014": 2.03531958217,
			"0.015": 0.0320175800054,
			"0.016": 0.0,
			"0.017": 0.0,
			"0.018": 0.0,
			"0.019": 0.0,
			"0.02": 0.0,
			"0.021": 0.0,
			"0.022": 0.0,
			"0.023": 0.0,
			"0.024": 0.0,
			"0.025": 0.0
		}
	}
}
