{
	 "smiles": "CCOC(=O)C1=CC=C(COC(C)=O)O1", 
	 "Tm": 315.45, 
	 "num_atms": 27, 
	 "gaussian": { 
		 "optdone": 1, 
		 "sigma_profile": "yes", 
		 "theory": "DFT", 
		 "functional": "B3LYP", 
		 "basiset": "6-31G**", 
		 "properties": { 
			 "R2extent": 5379.0477, 
			 "electric_dipole_moment_norm": 3.39937534556, 
			 "electric_quadrupole_moment_norm": 10.2018763691, 
			 "total_energy": -764.417788886, 
			 "HOMO_LUMO_gap": 0.19569, 
			 "cosmo_polarized_energy": -13.74, 
			 "cosmo_cavitation_energy": 33.07, 
			 "cosmo_dispersion_energy": -23.53, 
			 "cosmo_repulsion_energy": 1.92, 
			 "cosmo_total_nonelectrostatic_energy": 11.46, 
			 "SMD_solvation_energy": 8.74 
		},
		"coords": [
			{
				"x": -0.203061658,
				"y": -3.1823663912,
				"z": -3.2528458506,
				"element": "C" 
			},
			{
				"x": 0.547944211,
				"y": -3.548501499,
				"z": -1.9814033635,
				"element": "C" 
			},
			{
				"x": 0.1033095731,
				"y": -2.7510782493,
				"z": -0.8579237547,
				"element": "O" 
			},
			{
				"x": 0.697832653,
				"y": -1.5426323578,
				"z": -0.7122648523,
				"element": "C" 
			},
			{
				"x": 1.5617296822,
				"y": -1.099415031,
				"z": -1.440842089,
				"element": "O" 
			},
			{
				"x": 0.1488702168,
				"y": -0.84824873,
				"z": 0.4596639913,
				"element": "C" 
			},
			{
				"x": -0.8030100586,
				"y": -1.1838432502,
				"z": 1.3876887388,
				"element": "C" 
			},
			{
				"x": -0.8878082532,
				"y": -0.0822093408,
				"z": 2.2849635968,
				"element": "C" 
			},
			{
				"x": 0.016896816,
				"y": 0.8470071953,
				"z": 1.8424005465,
				"element": "C" 
			},
			{
				"x": 0.4065361823,
				"y": 2.1892455307,
				"z": 2.340043259,
				"element": "C" 
			},
			{
				"x": -0.1782210722,
				"y": 3.1918897563,
				"z": 1.4735795013,
				"element": "O" 
			},
			{
				"x": 0.1334188483,
				"y": 4.4728294936,
				"z": 1.7915295984,
				"element": "C" 
			},
			{
				"x": -0.4897278339,
				"y": 5.4353737517,
				"z": 0.8097100305,
				"element": "C" 
			},
			{
				"x": 0.8245359591,
				"y": 4.7730655764,
				"z": 2.7398933116,
				"element": "O" 
			},
			{
				"x": 0.6551655306,
				"y": 0.3889398272,
				"z": 0.7333757206,
				"element": "O" 
			},
			{
				"x": 0.0975510014,
				"y": -3.850860547,
				"z": -4.066548624,
				"element": "H" 
			},
			{
				"x": 0.0248189742,
				"y": -2.1560967182,
				"z": -3.5506885991,
				"element": "H" 
			},
			{
				"x": -1.2832968498,
				"y": -3.2793229599,
				"z": -3.1096514679,
				"element": "H" 
			},
			{
				"x": 0.3460875847,
				"y": -4.5785875823,
				"z": -1.6781771278,
				"element": "H" 
			},
			{
				"x": 1.6245673974,
				"y": -3.410719061,
				"z": -2.1063999406,
				"element": "H" 
			},
			{
				"x": -1.3622721732,
				"y": -2.1068380689,
				"z": 1.4122184251,
				"element": "H" 
			},
			{
				"x": -1.5330929334,
				"y": 0.0167059035,
				"z": 3.1461678899,
				"element": "H" 
			},
			{
				"x": 0.0462228643,
				"y": 2.3327880946,
				"z": 3.362075717,
				"element": "H" 
			},
			{
				"x": 1.4933589174,
				"y": 2.313528347,
				"z": 2.3439875249,
				"element": "H" 
			},
			{
				"x": -1.5693313138,
				"y": 5.2712513687,
				"z": 0.7513414652,
				"element": "H" 
			},
			{
				"x": -0.2807960067,
				"y": 6.457576685,
				"z": 1.1233462057,
				"element": "H" 
			},
			{
				"x": -0.0790282591,
				"y": 5.2623182567,
				"z": -0.1896398531,
				"element": "H" 
			}
		],
		 "valence_orbital": [ 
			{
				"type": "occ",
				"energy": -0.30046,
				"method": "rhf"
			},
			{
				"type": "occ",
				"energy": -0.29356,
				"method": "rhf"
			},
			{
				"type": "occ",
				"energy": -0.27674,
				"method": "rhf"
			},
			{
				"type": "occ",
				"energy": -0.2763,
				"method": "rhf"
			},
			{
				"type": "occ",
				"energy": -0.24237,
				"method": "rhf"
			},
			{
				"type": "unocc",
				"energy": -0.04668,
				"method": "rhf"
			},
			{
				"type": "unocc",
				"energy": 0.00987,
				"method": "rhf"
			},
			{
				"type": "unocc",
				"energy": 0.02732,
				"method": "rhf"
			},
			{
				"type": "unocc",
				"energy": 0.09704,
				"method": "rhf"
			},
			{
				"type": "unocc",
				"energy": 0.10334,
				"method": "rhf"
			}
		],
		"cosmo_sigma_profile": { 
			"-0.025": 0.0,
			"-0.024": 0.0,
			"-0.023": 0.0,
			"-0.022": 0.0,
			"-0.021": 0.0,
			"-0.02": 0.0,
			"-0.019": 0.0,
			"-0.018": 0.0,
			"-0.017": 0.0,
			"-0.016": 0.0,
			"-0.015": 0.0,
			"-0.014": 0.0,
			"-0.013": 0.0,
			"-0.012": 0.0,
			"-0.011": 0.0,
			"-0.01": 0.0,
			"-0.009": 0.336738422885,
			"-0.008": 5.31289679809,
			"-0.007": 9.75345784861,
			"-0.006": 14.0951916293,
			"-0.005": 18.1428337222,
			"-0.004": 24.3471184891,
			"-0.003": 25.3584035094,
			"-0.002": 25.7378855382,
			"-0.001": 21.8503888889,
			"0.0": 20.2739385804,
			"0.001": 15.8665674801,
			"0.002": 13.1502771472,
			"0.003": 12.4116069796,
			"0.004": 6.45113623189,
			"0.005": 6.787697538,
			"0.006": 7.21191527866,
			"0.007": 5.56135583554,
			"0.008": 3.62684324428,
			"0.009": 4.36805525335,
			"0.01": 4.98689475023,
			"0.011": 6.74031557645,
			"0.012": 8.48346997857,
			"0.013": 1.62540553312,
			"0.014": 0.0,
			"0.015": 0.0,
			"0.016": 0.0,
			"0.017": 0.0,
			"0.018": 0.0,
			"0.019": 0.0,
			"0.02": 0.0,
			"0.021": 0.0,
			"0.022": 0.0,
			"0.023": 0.0,
			"0.024": 0.0,
			"0.025": 0.0
		}
	}
}
