{
	 "smiles": "CC(C)N1C=C2C=C(N)C=CC2=N1", 
	 "Tm": 379.15, 
	 "num_atms": 26, 
	 "gaussian": { 
		 "optdone": 1, 
		 "sigma_profile": "yes", 
		 "theory": "DFT", 
		 "functional": "B3LYP", 
		 "basiset": "6-31G**", 
		 "properties": { 
			 "R2extent": 3186.8691, 
			 "electric_dipole_moment_norm": 2.49112611885, 
			 "electric_quadrupole_moment_norm": 16.7461878943, 
			 "total_energy": -553.145875805, 
			 "HOMO_LUMO_gap": 0.15917, 
			 "cosmo_polarized_energy": -13.19, 
			 "cosmo_cavitation_energy": 29.02, 
			 "cosmo_dispersion_energy": -21.11, 
			 "cosmo_repulsion_energy": 1.67, 
			 "cosmo_total_nonelectrostatic_energy": 9.59, 
			 "SMD_solvation_energy": 3.93 
		},
		"coords": [
			{
				"x": -0.1670015116,
				"y": -0.5082120759,
				"z": 3.2354773505,
				"element": "C" 
			},
			{
				"x": -0.7311843879,
				"y": 0.4327239476,
				"z": 2.1644731597,
				"element": "C" 
			},
			{
				"x": -2.2541101214,
				"y": 0.5854604446,
				"z": 2.2534148158,
				"element": "C" 
			},
			{
				"x": -0.3245177684,
				"y": 0.0002306706,
				"z": 0.8193504165,
				"element": "N" 
			},
			{
				"x": -0.6478799811,
				"y": -1.1654898928,
				"z": 0.1950009784,
				"element": "C" 
			},
			{
				"x": -0.0288555534,
				"y": -1.1272650068,
				"z": -1.057381358,
				"element": "C" 
			},
			{
				"x": 0.0377493273,
				"y": -1.9896491203,
				"z": -2.1811166179,
				"element": "C" 
			},
			{
				"x": 0.780166027,
				"y": -1.5897692605,
				"z": -3.277483377,
				"element": "C" 
			},
			{
				"x": 0.9497166861,
				"y": -2.4188300489,
				"z": -4.3984564905,
				"element": "N" 
			},
			{
				"x": 1.4592342043,
				"y": -0.3232287575,
				"z": -3.2697575561,
				"element": "C" 
			},
			{
				"x": 1.4008457022,
				"y": 0.5324669176,
				"z": -2.1985194121,
				"element": "C" 
			},
			{
				"x": 0.6483157552,
				"y": 0.1374273356,
				"z": -1.0637628012,
				"element": "C" 
			},
			{
				"x": 0.4585197785,
				"y": 0.814915663,
				"z": 0.0893836477,
				"element": "N" 
			},
			{
				"x": -0.6018392766,
				"y": -1.5101220886,
				"z": 3.1569087508,
				"element": "H" 
			},
			{
				"x": -0.3973321258,
				"y": -0.1202367217,
				"z": 4.2326277313,
				"element": "H" 
			},
			{
				"x": 0.918670753,
				"y": -0.5958602013,
				"z": 3.1407955384,
				"element": "H" 
			},
			{
				"x": -0.2640036325,
				"y": 1.4152214124,
				"z": 2.2660253008,
				"element": "H" 
			},
			{
				"x": -2.7602585416,
				"y": -0.3790678006,
				"z": 2.1412042289,
				"element": "H" 
			},
			{
				"x": -2.5317847699,
				"y": 0.9976718613,
				"z": 3.2285163925,
				"element": "H" 
			},
			{
				"x": -2.6221055176,
				"y": 1.2599118498,
				"z": 1.4755307644,
				"element": "H" 
			},
			{
				"x": -1.269486716,
				"y": -1.9108641132,
				"z": 0.6673814232,
				"element": "H" 
			},
			{
				"x": -0.4777271481,
				"y": -2.9468052737,
				"z": -2.1840503506,
				"element": "H" 
			},
			{
				"x": 0.2441191496,
				"y": -3.1378421292,
				"z": -4.4914666669,
				"element": "H" 
			},
			{
				"x": 1.0695279306,
				"y": -1.918454533,
				"z": -5.2696254817,
				"element": "H" 
			},
			{
				"x": 2.0419712517,
				"y": -0.0511147813,
				"z": -4.1467446728,
				"element": "H" 
			},
			{
				"x": 1.9162504863,
				"y": 1.487581703,
				"z": -2.2090257139,
				"element": "H" 
			}
		],
		 "valence_orbital": [ 
			{
				"type": "occ",
				"energy": -0.28664,
				"method": "rhf"
			},
			{
				"type": "occ",
				"energy": -0.27278,
				"method": "rhf"
			},
			{
				"type": "occ",
				"energy": -0.26397,
				"method": "rhf"
			},
			{
				"type": "occ",
				"energy": -0.21217,
				"method": "rhf"
			},
			{
				"type": "occ",
				"energy": -0.1775,
				"method": "rhf"
			},
			{
				"type": "unocc",
				"energy": -0.01833,
				"method": "rhf"
			},
			{
				"type": "unocc",
				"energy": 0.05202,
				"method": "rhf"
			},
			{
				"type": "unocc",
				"energy": 0.06166,
				"method": "rhf"
			},
			{
				"type": "unocc",
				"energy": 0.0821,
				"method": "rhf"
			},
			{
				"type": "unocc",
				"energy": 0.09063,
				"method": "rhf"
			}
		],
		"cosmo_sigma_profile": { 
			"-0.025": 0.0,
			"-0.024": 0.0,
			"-0.023": 0.0,
			"-0.022": 0.0,
			"-0.021": 0.0,
			"-0.02": 0.0,
			"-0.019": 0.0,
			"-0.018": 0.0,
			"-0.017": 0.0,
			"-0.016": 0.0,
			"-0.015": 0.0,
			"-0.014": 0.0,
			"-0.013": 0.0,
			"-0.012": 1.27015860697,
			"-0.011": 2.821290832,
			"-0.01": 2.95295174067,
			"-0.009": 3.11738418831,
			"-0.008": 4.28164709141,
			"-0.007": 6.00124220708,
			"-0.006": 8.20503173601,
			"-0.005": 12.5819221637,
			"-0.004": 20.7764169694,
			"-0.003": 20.1250475306,
			"-0.002": 19.1465579738,
			"-0.001": 18.4499319109,
			"0.0": 20.0200538501,
			"0.001": 11.8672370824,
			"0.002": 6.8904760262,
			"0.003": 7.46546302461,
			"0.004": 11.0098576656,
			"0.005": 13.5071139675,
			"0.006": 14.8150526739,
			"0.007": 6.54977864641,
			"0.008": 3.13948975283,
			"0.009": 1.69143014787,
			"0.01": 2.28710084729,
			"0.011": 1.58274173377,
			"0.012": 1.77217513982,
			"0.013": 1.99849806933,
			"0.014": 1.73284379431,
			"0.015": 1.63088568789,
			"0.016": 0.950285290066,
			"0.017": 0.204231900351,
			"0.018": 0.0,
			"0.019": 0.0,
			"0.02": 0.0,
			"0.021": 0.0,
			"0.022": 0.0,
			"0.023": 0.0,
			"0.024": 0.0,
			"0.025": 0.0
		}
	}
}
