{
	 "smiles": "O=CC1=NC2=CC=CC=C2C=C1", 
	 "Tm": 342.65, 
	 "num_atms": 19, 
	 "gaussian": { 
		 "optdone": 1, 
		 "sigma_profile": "yes", 
		 "theory": "DFT", 
		 "functional": "B3LYP", 
		 "basiset": "6-31G**", 
		 "properties": { 
			 "R2extent": 2496.4815, 
			 "electric_dipole_moment_norm": 4.94467363129, 
			 "electric_quadrupole_moment_norm": 11.7513705039, 
			 "total_energy": -515.247328101, 
			 "HOMO_LUMO_gap": 0.15998, 
			 "cosmo_polarized_energy": -13.07, 
			 "cosmo_cavitation_energy": 23.87, 
			 "cosmo_dispersion_energy": -17.65, 
			 "cosmo_repulsion_energy": 1.38, 
			 "cosmo_total_nonelectrostatic_energy": 7.6, 
			 "SMD_solvation_energy": 3.67 
		},
		"coords": [
			{
				"x": -2.795856322,
				"y": 1.3636605505,
				"z": -1.560319426,
				"element": "O" 
			},
			{
				"x": -1.936802808,
				"y": 0.5112638711,
				"z": -1.5692899955,
				"element": "C" 
			},
			{
				"x": -0.7188903038,
				"y": 0.5028457845,
				"z": -0.6956801184,
				"element": "C" 
			},
			{
				"x": -0.5601062784,
				"y": 1.5028390184,
				"z": 0.1573572504,
				"element": "N" 
			},
			{
				"x": 0.5424464651,
				"y": 1.4964057698,
				"z": 0.9490141165,
				"element": "C" 
			},
			{
				"x": 0.7197683766,
				"y": 2.5683427146,
				"z": 1.8685510653,
				"element": "C" 
			},
			{
				"x": 1.8214610029,
				"y": 2.6036165643,
				"z": 2.6903656605,
				"element": "C" 
			},
			{
				"x": 2.7969440902,
				"y": 1.5735747559,
				"z": 2.6344442435,
				"element": "C" 
			},
			{
				"x": 2.6559334343,
				"y": 0.522862824,
				"z": 1.7568114186,
				"element": "C" 
			},
			{
				"x": 1.530387738,
				"y": 0.4552617472,
				"z": 0.8939071383,
				"element": "C" 
			},
			{
				"x": 1.3199889834,
				"y": -0.5947567033,
				"z": -0.0333113903,
				"element": "C" 
			},
			{
				"x": 0.1982965159,
				"y": -0.5738402892,
				"z": -0.8281022225,
				"element": "C" 
			},
			{
				"x": -1.9984406592,
				"y": -0.3624478096,
				"z": -2.2585425618,
				"element": "H" 
			},
			{
				"x": -0.0414835777,
				"y": 3.3410377981,
				"z": 1.8891683408,
				"element": "H" 
			},
			{
				"x": 1.9523712202,
				"y": 3.4235517529,
				"z": 3.3902943741,
				"element": "H" 
			},
			{
				"x": 3.66014991,
				"y": 1.6195468456,
				"z": 3.2918765266,
				"element": "H" 
			},
			{
				"x": 3.4017456714,
				"y": -0.266618309,
				"z": 1.7126342686,
				"element": "H" 
			},
			{
				"x": 2.0455045049,
				"y": -1.4011320572,
				"z": -0.1046050647,
				"element": "H" 
			},
			{
				"x": 0.0040820361,
				"y": -1.3618148287,
				"z": -1.5501736239,
				"element": "H" 
			}
		],
		 "valence_orbital": [ 
			{
				"type": "occ",
				"energy": -0.31813,
				"method": "rhf"
			},
			{
				"type": "occ",
				"energy": -0.2693,
				"method": "rhf"
			},
			{
				"type": "occ",
				"energy": -0.26361,
				"method": "rhf"
			},
			{
				"type": "occ",
				"energy": -0.25098,
				"method": "rhf"
			},
			{
				"type": "occ",
				"energy": -0.24344,
				"method": "rhf"
			},
			{
				"type": "unocc",
				"energy": -0.08346,
				"method": "rhf"
			},
			{
				"type": "unocc",
				"energy": -0.04376,
				"method": "rhf"
			},
			{
				"type": "unocc",
				"energy": 0.00101,
				"method": "rhf"
			},
			{
				"type": "unocc",
				"energy": 0.02429,
				"method": "rhf"
			},
			{
				"type": "unocc",
				"energy": 0.08636,
				"method": "rhf"
			}
		],
		"cosmo_sigma_profile": { 
			"-0.025": 0.0,
			"-0.024": 0.0,
			"-0.023": 0.0,
			"-0.022": 0.0,
			"-0.021": 0.0,
			"-0.02": 0.0,
			"-0.019": 0.0,
			"-0.018": 0.0,
			"-0.017": 0.0,
			"-0.016": 0.0,
			"-0.015": 0.0,
			"-0.014": 0.0,
			"-0.013": 0.0,
			"-0.012": 0.0,
			"-0.011": 0.0,
			"-0.01": 0.0,
			"-0.009": 0.660666243651,
			"-0.008": 5.374630412,
			"-0.007": 11.9095000593,
			"-0.006": 15.8156302175,
			"-0.005": 15.3096609102,
			"-0.004": 13.1134130647,
			"-0.003": 9.99649073542,
			"-0.002": 10.6556840602,
			"-0.001": 10.3423626078,
			"0.0": 14.8968037466,
			"0.001": 18.2468393921,
			"0.002": 16.2213273724,
			"0.003": 13.8692069927,
			"0.004": 6.60421856079,
			"0.005": 2.16580481704,
			"0.006": 1.70490940188,
			"0.007": 3.3744129535,
			"0.008": 2.2204242948,
			"0.009": 3.0926294961,
			"0.01": 3.24013660916,
			"0.011": 4.70260379103,
			"0.012": 3.58648723478,
			"0.013": 1.51061471008,
			"0.014": 1.32391155974,
			"0.015": 0.811712230821,
			"0.016": 1.200617432,
			"0.017": 0.690012440187,
			"0.018": 0.0288338125286,
			"0.019": 0.0,
			"0.02": 0.0,
			"0.021": 0.0,
			"0.022": 0.0,
			"0.023": 0.0,
			"0.024": 0.0,
			"0.025": 0.0
		}
	}
}
