{
	 "smiles": "C[C@@]1(Cl)CC2=C(C[C@@H]1CCC#N)NC1=C2C=CC=C1", 
	 "Tm": 414.2, 
	 "num_atms": 36, 
	 "gaussian": { 
		 "optdone": 1, 
		 "sigma_profile": "yes", 
		 "theory": "DFT", 
		 "functional": "B3LYP", 
		 "basiset": "6-31G**", 
		 "properties": { 
			 "R2extent": 6308.174, 
			 "electric_dipole_moment_norm": 5.79508419525, 
			 "electric_quadrupole_moment_norm": 27.9220940429, 
			 "total_energy": -1189.65942354, 
			 "HOMO_LUMO_gap": 0.19112, 
			 "cosmo_polarized_energy": -18.83, 
			 "cosmo_cavitation_energy": 39.28, 
			 "cosmo_dispersion_energy": -27.26, 
			 "cosmo_repulsion_energy": 2.09, 
			 "cosmo_total_nonelectrostatic_energy": 14.11, 
			 "SMD_solvation_energy": 6.64 
		},
		"coords": [
			{
				"x": -1.2871288427,
				"y": 2.223995269,
				"z": 1.2377527548,
				"element": "C" 
			},
			{
				"x": -0.8758647362,
				"y": 1.628039652,
				"z": -0.1121607381,
				"element": "C" 
			},
			{
				"x": -1.2683764579,
				"y": 2.9379485706,
				"z": -1.3732127654,
				"element": "Cl" 
			},
			{
				"x": 0.6393111295,
				"y": 1.3496098074,
				"z": -0.1769562713,
				"element": "C" 
			},
			{
				"x": 0.9556911854,
				"y": 0.0996678906,
				"z": 0.5977177514,
				"element": "C" 
			},
			{
				"x": 0.0006865997,
				"y": -0.8287046907,
				"z": 0.9324836442,
				"element": "C" 
			},
			{
				"x": -1.4621055439,
				"y": -0.7231923652,
				"z": 0.6346602442,
				"element": "C" 
			},
			{
				"x": -1.7022827236,
				"y": 0.355883777,
				"z": -0.4598842514,
				"element": "C" 
			},
			{
				"x": -1.3985405384,
				"y": -0.2139361617,
				"z": -1.8631499705,
				"element": "C" 
			},
			{
				"x": -2.565649918,
				"y": -1.0704671671,
				"z": -2.4014029299,
				"element": "C" 
			},
			{
				"x": -2.2601123979,
				"y": -1.6869572944,
				"z": -3.6950345082,
				"element": "C" 
			},
			{
				"x": -2.0042339614,
				"y": -2.173562709,
				"z": -4.7172619743,
				"element": "N" 
			},
			{
				"x": 0.5919851413,
				"y": -1.8706910442,
				"z": 1.627383474,
				"element": "N" 
			},
			{
				"x": 1.9481402319,
				"y": -1.6247027104,
				"z": 1.7483852247,
				"element": "C" 
			},
			{
				"x": 2.214132906,
				"y": -0.3823347952,
				"z": 1.1059720342,
				"element": "C" 
			},
			{
				"x": 3.5327581349,
				"y": 0.1027078727,
				"z": 1.0847832333,
				"element": "C" 
			},
			{
				"x": 4.5355742219,
				"y": -0.6431483881,
				"z": 1.6928763208,
				"element": "C" 
			},
			{
				"x": 4.2492283458,
				"y": -1.8708961597,
				"z": 2.3228530529,
				"element": "C" 
			},
			{
				"x": 2.9543109748,
				"y": -2.3783878739,
				"z": 2.3592906029,
				"element": "C" 
			},
			{
				"x": -0.7976517339,
				"y": 3.1888143885,
				"z": 1.387991916,
				"element": "H" 
			},
			{
				"x": -2.3687949656,
				"y": 2.3767734898,
				"z": 1.2881968007,
				"element": "H" 
			},
			{
				"x": -0.9826583454,
				"y": 1.562077189,
				"z": 2.0533212043,
				"element": "H" 
			},
			{
				"x": 1.1809637421,
				"y": 2.2147395162,
				"z": 0.2227952951,
				"element": "H" 
			},
			{
				"x": 0.950538832,
				"y": 1.2517726662,
				"z": -1.2242117123,
				"element": "H" 
			},
			{
				"x": -1.8627709143,
				"y": -1.6874629899,
				"z": 0.2952077095,
				"element": "H" 
			},
			{
				"x": -2.0260525367,
				"y": -0.4697794502,
				"z": 1.5427576481,
				"element": "H" 
			},
			{
				"x": -2.7588125792,
				"y": 0.6489796755,
				"z": -0.4263512741,
				"element": "H" 
			},
			{
				"x": -0.4872353484,
				"y": -0.8200083025,
				"z": -1.8310019826,
				"element": "H" 
			},
			{
				"x": -1.221408691,
				"y": 0.6006873632,
				"z": -2.5685528576,
				"element": "H" 
			},
			{
				"x": -3.4626358096,
				"y": -0.4504196189,
				"z": -2.5189053125,
				"element": "H" 
			},
			{
				"x": -2.8272773497,
				"y": -1.8732556953,
				"z": -1.7014564966,
				"element": "H" 
			},
			{
				"x": 0.1112895749,
				"y": -2.6784761463,
				"z": 1.9888723749,
				"element": "H" 
			},
			{
				"x": 3.7656805894,
				"y": 1.0465868726,
				"z": 0.5995999684,
				"element": "H" 
			},
			{
				"x": 5.5581544691,
				"y": -0.277619563,
				"z": 1.6827944338,
				"element": "H" 
			},
			{
				"x": 5.0538914548,
				"y": -2.4322251497,
				"z": 2.7884802036,
				"element": "H" 
			},
			{
				"x": 2.7357558604,
				"y": -3.3255557248,
				"z": 2.8446671532,
				"element": "H" 
			}
		],
		 "valence_orbital": [ 
			{
				"type": "occ",
				"energy": -0.29679,
				"method": "rhf"
			},
			{
				"type": "occ",
				"energy": -0.29443,
				"method": "rhf"
			},
			{
				"type": "occ",
				"energy": -0.27501,
				"method": "rhf"
			},
			{
				"type": "occ",
				"energy": -0.22362,
				"method": "rhf"
			},
			{
				"type": "occ",
				"energy": -0.20543,
				"method": "rhf"
			},
			{
				"type": "unocc",
				"energy": -0.01431,
				"method": "rhf"
			},
			{
				"type": "unocc",
				"energy": 0.00905,
				"method": "rhf"
			},
			{
				"type": "unocc",
				"energy": 0.0224,
				"method": "rhf"
			},
			{
				"type": "unocc",
				"energy": 0.03267,
				"method": "rhf"
			},
			{
				"type": "unocc",
				"energy": 0.03813,
				"method": "rhf"
			}
		],
		"cosmo_sigma_profile": { 
			"-0.025": 0.0,
			"-0.024": 0.0,
			"-0.023": 0.0,
			"-0.022": 0.0,
			"-0.021": 0.0,
			"-0.02": 0.0,
			"-0.019": 0.0,
			"-0.018": 0.0,
			"-0.017": 0.0,
			"-0.016": 0.00766769966064,
			"-0.015": 1.33270532058,
			"-0.014": 1.08885868147,
			"-0.013": 1.35469479982,
			"-0.012": 1.00614257206,
			"-0.011": 1.57824428715,
			"-0.01": 1.26506477088,
			"-0.009": 1.6680425619,
			"-0.008": 6.06316864943,
			"-0.007": 9.26261755715,
			"-0.006": 10.3754230538,
			"-0.005": 21.0423745029,
			"-0.004": 32.8086008501,
			"-0.003": 29.4090611875,
			"-0.002": 25.9614639396,
			"-0.001": 20.0194978631,
			"0.0": 17.2797652193,
			"0.001": 13.8362892864,
			"0.002": 12.977768083,
			"0.003": 13.3415804723,
			"0.004": 15.2812849737,
			"0.005": 19.2264774536,
			"0.006": 19.187902391,
			"0.007": 15.8256209431,
			"0.008": 5.78860179734,
			"0.009": 3.64059671659,
			"0.01": 3.46844644011,
			"0.011": 3.04159438869,
			"0.012": 2.58240437859,
			"0.013": 2.26031070079,
			"0.014": 0.611693903676,
			"0.015": 0.0,
			"0.016": 0.0,
			"0.017": 0.0,
			"0.018": 0.0,
			"0.019": 0.0,
			"0.02": 0.0,
			"0.021": 0.0,
			"0.022": 0.0,
			"0.023": 0.0,
			"0.024": 0.0,
			"0.025": 0.0
		}
	}
}
