{
	 "smiles": "CC1=C2N=C(Cl)C=CC2=C(Cl)C=C1", 
	 "Tm": 335.15, 
	 "num_atms": 20, 
	 "gaussian": { 
		 "optdone": 1, 
		 "sigma_profile": "yes", 
		 "theory": "DFT", 
		 "functional": "B3LYP", 
		 "basiset": "6-31G**", 
		 "properties": { 
			 "R2extent": 3358.6176, 
			 "electric_dipole_moment_norm": 1.69278537624, 
			 "electric_quadrupole_moment_norm": 12.7355765759, 
			 "total_energy": -1360.43775075, 
			 "HOMO_LUMO_gap": 0.16702, 
			 "cosmo_polarized_energy": -5.82, 
			 "cosmo_cavitation_energy": 27.49, 
			 "cosmo_dispersion_energy": -20.64, 
			 "cosmo_repulsion_energy": 1.63, 
			 "cosmo_total_nonelectrostatic_energy": 8.48, 
			 "SMD_solvation_energy": 2.96 
		},
		"coords": [
			{
				"x": 1.9252853968,
				"y": 1.5446542918,
				"z": -2.5497784986,
				"element": "C" 
			},
			{
				"x": 1.5484493274,
				"y": 0.3824522212,
				"z": -1.6715345931,
				"element": "C" 
			},
			{
				"x": 0.6063625319,
				"y": 0.5656833167,
				"z": -0.6120652465,
				"element": "C" 
			},
			{
				"x": 0.0782664871,
				"y": 1.8131503555,
				"z": -0.4390006282,
				"element": "N" 
			},
			{
				"x": -0.7795473352,
				"y": 1.9983076311,
				"z": 0.5188442561,
				"element": "C" 
			},
			{
				"x": -1.4399592364,
				"y": 3.6237639783,
				"z": 0.7114309161,
				"element": "Cl" 
			},
			{
				"x": -1.2252838621,
				"y": 0.9991642583,
				"z": 1.419145408,
				"element": "C" 
			},
			{
				"x": -0.7089186603,
				"y": -0.263595056,
				"z": 1.2657648321,
				"element": "C" 
			},
			{
				"x": 0.2325545855,
				"y": -0.5276535479,
				"z": 0.2369149748,
				"element": "C" 
			},
			{
				"x": 0.8260224671,
				"y": -1.7966679035,
				"z": -0.0063080797,
				"element": "C" 
			},
			{
				"x": 0.4021995883,
				"y": -3.1731019373,
				"z": 1.0066228764,
				"element": "Cl" 
			},
			{
				"x": 1.7315874089,
				"y": -1.9710480189,
				"z": -1.0252384402,
				"element": "C" 
			},
			{
				"x": 2.0842167302,
				"y": -0.8777448183,
				"z": -1.849003241,
				"element": "C" 
			},
			{
				"x": 2.6520243719,
				"y": 1.2403694232,
				"z": -3.3072958416,
				"element": "H" 
			},
			{
				"x": 2.3535583614,
				"y": 2.3610186171,
				"z": -1.9597775531,
				"element": "H" 
			},
			{
				"x": 1.0459304871,
				"y": 1.9589802309,
				"z": -3.0528105332,
				"element": "H" 
			},
			{
				"x": -1.9450860729,
				"y": 1.2365764128,
				"z": 2.1927292,
				"element": "H" 
			},
			{
				"x": -1.0150853135,
				"y": -1.0664513428,
				"z": 1.9270571247,
				"element": "H" 
			},
			{
				"x": 2.1739604655,
				"y": -2.9461100859,
				"z": -1.1957842724,
				"element": "H" 
			},
			{
				"x": 2.8024622712,
				"y": -1.0436480266,
				"z": -2.6471126604,
				"element": "H" 
			}
		],
		 "valence_orbital": [ 
			{
				"type": "occ",
				"energy": -0.3167,
				"method": "rhf"
			},
			{
				"type": "occ",
				"energy": -0.30791,
				"method": "rhf"
			},
			{
				"type": "occ",
				"energy": -0.28038,
				"method": "rhf"
			},
			{
				"type": "occ",
				"energy": -0.26144,
				"method": "rhf"
			},
			{
				"type": "occ",
				"energy": -0.2365,
				"method": "rhf"
			},
			{
				"type": "unocc",
				"energy": -0.06948,
				"method": "rhf"
			},
			{
				"type": "unocc",
				"energy": -0.03545,
				"method": "rhf"
			},
			{
				"type": "unocc",
				"energy": 0.00696,
				"method": "rhf"
			},
			{
				"type": "unocc",
				"energy": 0.01983,
				"method": "rhf"
			},
			{
				"type": "unocc",
				"energy": 0.03251,
				"method": "rhf"
			}
		],
		"cosmo_sigma_profile": { 
			"-0.025": 0.0,
			"-0.024": 0.0,
			"-0.023": 0.0,
			"-0.022": 0.0,
			"-0.021": 0.0,
			"-0.02": 0.0,
			"-0.019": 0.0,
			"-0.018": 0.0,
			"-0.017": 0.0,
			"-0.016": 0.0,
			"-0.015": 0.0,
			"-0.014": 0.0,
			"-0.013": 0.0,
			"-0.012": 0.0,
			"-0.011": 0.0,
			"-0.01": 0.0,
			"-0.009": 0.384469110782,
			"-0.008": 3.11111053389,
			"-0.007": 7.07579164639,
			"-0.006": 8.6544544666,
			"-0.005": 8.04150223024,
			"-0.004": 11.2395770217,
			"-0.003": 10.7880295944,
			"-0.002": 16.8573989325,
			"-0.001": 26.1078955141,
			"0.0": 30.9174570955,
			"0.001": 29.7006613078,
			"0.002": 21.3824075105,
			"0.003": 16.346533756,
			"0.004": 18.0766542981,
			"0.005": 7.43484801558,
			"0.006": 2.68490536787,
			"0.007": 1.99899287768,
			"0.008": 1.46134638334,
			"0.009": 0.972364075095,
			"0.01": 1.23163477527,
			"0.011": 0.79101940945,
			"0.012": 0.317462578349,
			"0.013": 0.0,
			"0.014": 0.0,
			"0.015": 0.0,
			"0.016": 0.0,
			"0.017": 0.0,
			"0.018": 0.0,
			"0.019": 0.0,
			"0.02": 0.0,
			"0.021": 0.0,
			"0.022": 0.0,
			"0.023": 0.0,
			"0.024": 0.0,
			"0.025": 0.0
		}
	}
}
