{
	 "smiles": "OCC(O)CN1C=C(I)C(=O)C(I)=C1", 
	 "Tm": 434.15, 
	 "num_atms": 23, 
	 "gaussian": { 
		 "optdone": 1, 
		 "sigma_profile": "no", 
		 "theory": "DFT", 
		 "functional": "B3LYP", 
		 "basiset": "6-31G**", 
		 "properties": { 
			 "R2extent": 3080.2907, 
			 "electric_dipole_moment_norm": 10.1405663106, 
			 "electric_quadrupole_moment_norm": 9.19413260509, 
			 "total_energy": -613.430482473, 
			 "HOMO_LUMO_gap": 0.1727, 
			 "cosmo_polarized_energy": -217664.81, 
			 "cosmo_cavitation_energy": 33.03, 
			 "cosmo_dispersion_energy": -25.71, 
			 "cosmo_repulsion_energy": 2.0, 
			 "cosmo_total_nonelectrostatic_energy": 9.32, 
			 "SMD_solvation_energy": 4.64 
		},
		"coords": [
			{
				"x": -2.6362639481,
				"y": 0.6196262776,
				"z": 0.6529470359,
				"element": "O" 
			},
			{
				"x": -3.210071176,
				"y": 0.2481254124,
				"z": -0.5826077796,
				"element": "C" 
			},
			{
				"x": -2.1926682571,
				"y": 0.1814866258,
				"z": -1.7242627561,
				"element": "C" 
			},
			{
				"x": -1.6290585338,
				"y": 1.4853884051,
				"z": -1.8192731182,
				"element": "O" 
			},
			{
				"x": -1.0980340348,
				"y": -0.900190668,
				"z": -1.5751268996,
				"element": "C" 
			},
			{
				"x": -0.1032967714,
				"y": -0.6587609177,
				"z": -0.5251703724,
				"element": "N" 
			},
			{
				"x": 0.9780527706,
				"y": 0.1469628534,
				"z": -0.7806338044,
				"element": "C" 
			},
			{
				"x": 1.9033042909,
				"y": 0.4335818246,
				"z": 0.1742189952,
				"element": "C" 
			},
			{
				"x": 3.539805411,
				"y": 1.6665518473,
				"z": -0.3064669867,
				"element": "I" 
			},
			{
				"x": 1.8284956907,
				"y": -0.0895276648,
				"z": 1.5497556352,
				"element": "C" 
			},
			{
				"x": 2.6494049524,
				"y": 0.1493750719,
				"z": 2.4271567876,
				"element": "O" 
			},
			{
				"x": 0.6404451671,
				"y": -0.9431814419,
				"z": 1.7257543021,
				"element": "C" 
			},
			{
				"x": 0.3467958472,
				"y": -1.8077082947,
				"z": 3.620964194,
				"element": "I" 
			},
			{
				"x": -0.257858286,
				"y": -1.1851471723,
				"z": 0.7336801245,
				"element": "C" 
			},
			{
				"x": -2.1867330209,
				"y": 1.4657435727,
				"z": 0.5166265419,
				"element": "H" 
			},
			{
				"x": -3.6691290539,
				"y": -0.7360889345,
				"z": -0.4381605531,
				"element": "H" 
			},
			{
				"x": -4.0049902453,
				"y": 0.9459053079,
				"z": -0.8866051233,
				"element": "H" 
			},
			{
				"x": -2.7515669546,
				"y": -0.0783637183,
				"z": -2.6385209225,
				"element": "H" 
			},
			{
				"x": -1.2363227372,
				"y": 1.612051682,
				"z": -2.6916797055,
				"element": "H" 
			},
			{
				"x": -1.5652936287,
				"y": -1.8719909453,
				"z": -1.3901386829,
				"element": "H" 
			},
			{
				"x": -0.5540560743,
				"y": -0.9860478193,
				"z": -2.5221550247,
				"element": "H" 
			},
			{
				"x": 1.0489879572,
				"y": 0.5336301468,
				"z": -1.7882564499,
				"element": "H" 
			},
			{
				"x": -1.137249365,
				"y": -1.7960214507,
				"z": 0.8845545626,
				"element": "H" 
			}
		],
		 "valence_orbital": [ 
			{
				"type": "occ",
				"energy": -0.26283,
				"method": "rhf"
			},
			{
				"type": "occ",
				"energy": -0.25833,
				"method": "rhf"
			},
			{
				"type": "occ",
				"energy": -0.24484,
				"method": "rhf"
			},
			{
				"type": "occ",
				"energy": -0.23701,
				"method": "rhf"
			},
			{
				"type": "occ",
				"energy": -0.21867,
				"method": "rhf"
			},
			{
				"type": "unocc",
				"energy": -0.04597,
				"method": "rhf"
			},
			{
				"type": "unocc",
				"energy": -0.0318,
				"method": "rhf"
			},
			{
				"type": "unocc",
				"energy": -0.02881,
				"method": "rhf"
			},
			{
				"type": "unocc",
				"energy": -0.01907,
				"method": "rhf"
			},
			{
				"type": "unocc",
				"energy": 0.01272,
				"method": "rhf"
			}
		],
		"cosmo_sigma_profile": { 
			"0.0": 0.0,
			"0.0": 0.0,
			"0.0": 0.0,
			"0.0": 0.0,
			"0.0": 0.0,
			"0.0": 0.0,
			"0.0": 0.0,
			"0.0": 0.0,
			"0.0": 0.0,
			"0.0": 0.0,
			"0.0": 0.0,
			"0.0": 0.0,
			"0.0": 0.0,
			"0.0": 0.0,
			"0.0": 0.0,
			"0.0": 0.0,
			"0.0": 0.0,
			"0.0": 0.0,
			"0.0": 0.0,
			"0.0": 0.0,
			"0.0": 0.0,
			"0.0": 0.0,
			"0.0": 0.0,
			"0.0": 0.0,
			"0.0": 0.0,
			"0.0": 0.0,
			"0.0": 0.0,
			"0.0": 0.0,
			"0.0": 0.0,
			"0.0": 0.0,
			"0.0": 0.0,
			"0.0": 0.0,
			"0.0": 0.0,
			"0.0": 0.0,
			"0.0": 0.0,
			"0.0": 0.0,
			"0.0": 0.0,
			"0.0": 0.0,
			"0.0": 0.0,
			"0.0": 0.0,
			"0.0": 0.0,
			"0.0": 0.0,
			"0.0": 0.0,
			"0.0": 0.0,
			"0.0": 0.0,
			"0.0": 0.0,
			"0.0": 0.0,
			"0.0": 0.0,
			"0.0": 0.0,
			"0.0": 0.0,
			"0.0": 0.0
		}
	}
}
