{
	 "smiles": "CC1CSC2=C(NC1=O)C=C(Cl)C=C2", 
	 "Tm": 496.15, 
	 "num_atms": 24, 
	 "gaussian": { 
		 "optdone": 1, 
		 "sigma_profile": "yes", 
		 "theory": "DFT", 
		 "functional": "B3LYP", 
		 "basiset": "6-31G**", 
		 "properties": { 
			 "R2extent": 3898.2975, 
			 "electric_dipole_moment_norm": 2.42522431334, 
			 "electric_quadrupole_moment_norm": 11.7910089602, 
			 "total_energy": -1375.45850835, 
			 "HOMO_LUMO_gap": 0.19094, 
			 "cosmo_polarized_energy": -11.97, 
			 "cosmo_cavitation_energy": 29.83, 
			 "cosmo_dispersion_energy": -22.22, 
			 "cosmo_repulsion_energy": 1.71, 
			 "cosmo_total_nonelectrostatic_energy": 9.31, 
			 "SMD_solvation_energy": 4.82 
		},
		"coords": [
			{
				"x": 0.8849286072,
				"y": 1.7355838736,
				"z": 0.7560215452,
				"element": "C" 
			},
			{
				"x": 0.0445402975,
				"y": 1.1424139654,
				"z": 1.9053462594,
				"element": "C" 
			},
			{
				"x": -1.4744309041,
				"y": 1.3559778059,
				"z": 1.7163813487,
				"element": "C" 
			},
			{
				"x": -2.4261280939,
				"y": 0.0067616516,
				"z": 0.89800755,
				"element": "S" 
			},
			{
				"x": -1.3342793268,
				"y": -0.6079899954,
				"z": -0.3691208707,
				"element": "C" 
			},
			{
				"x": -0.1034274556,
				"y": -1.2251776456,
				"z": -0.0582746031,
				"element": "C" 
			},
			{
				"x": 0.4097242285,
				"y": -1.2639717995,
				"z": 1.2514474735,
				"element": "N" 
			},
			{
				"x": 0.4440126911,
				"y": -0.29822639,
				"z": 2.24641119,
				"element": "C" 
			},
			{
				"x": 0.8759955645,
				"y": -0.595024993,
				"z": 3.3496347446,
				"element": "O" 
			},
			{
				"x": 0.6254872266,
				"y": -1.8666549813,
				"z": -1.0696005036,
				"element": "C" 
			},
			{
				"x": 0.128724459,
				"y": -1.9017385943,
				"z": -2.3690280277,
				"element": "C" 
			},
			{
				"x": 1.0541248187,
				"y": -2.7231305796,
				"z": -3.6140466509,
				"element": "Cl" 
			},
			{
				"x": -1.0749662119,
				"y": -1.2821058655,
				"z": -2.7007606338,
				"element": "C" 
			},
			{
				"x": -1.7876268407,
				"y": -0.632739954,
				"z": -1.694694454,
				"element": "C" 
			},
			{
				"x": 0.6470132528,
				"y": 1.3005762543,
				"z": -0.2162655332,
				"element": "H" 
			},
			{
				"x": 1.9528192599,
				"y": 1.589296437,
				"z": 0.9445231103,
				"element": "H" 
			},
			{
				"x": 0.7030719814,
				"y": 2.8132917281,
				"z": 0.6931384718,
				"element": "H" 
			},
			{
				"x": 0.3164535862,
				"y": 1.682551054,
				"z": 2.8173104525,
				"element": "H" 
			},
			{
				"x": -1.6462979108,
				"y": 2.2938923868,
				"z": 1.179812325,
				"element": "H" 
			},
			{
				"x": -1.96252041,
				"y": 1.4361365096,
				"z": 2.691723593,
				"element": "H" 
			},
			{
				"x": 0.8482459669,
				"y": -2.1273088666,
				"z": 1.5495641954,
				"element": "H" 
			},
			{
				"x": 1.5771531723,
				"y": -2.3317376925,
				"z": -0.8358874369,
				"element": "H" 
			},
			{
				"x": -1.4439887098,
				"y": -1.3063959802,
				"z": -3.7194488787,
				"element": "H" 
			},
			{
				"x": -2.730829249,
				"y": -0.150878329,
				"z": -1.9304946668,
				"element": "H" 
			}
		],
		 "valence_orbital": [ 
			{
				"type": "occ",
				"energy": -0.30551,
				"method": "rhf"
			},
			{
				"type": "occ",
				"energy": -0.27005,
				"method": "rhf"
			},
			{
				"type": "occ",
				"energy": -0.25945,
				"method": "rhf"
			},
			{
				"type": "occ",
				"energy": -0.24672,
				"method": "rhf"
			},
			{
				"type": "occ",
				"energy": -0.22918,
				"method": "rhf"
			},
			{
				"type": "unocc",
				"energy": -0.03824,
				"method": "rhf"
			},
			{
				"type": "unocc",
				"energy": -0.0322,
				"method": "rhf"
			},
			{
				"type": "unocc",
				"energy": 0.01345,
				"method": "rhf"
			},
			{
				"type": "unocc",
				"energy": 0.01897,
				"method": "rhf"
			},
			{
				"type": "unocc",
				"energy": 0.04371,
				"method": "rhf"
			}
		],
		"cosmo_sigma_profile": { 
			"-0.025": 0.0,
			"-0.024": 0.0,
			"-0.023": 0.0,
			"-0.022": 0.0,
			"-0.021": 0.0,
			"-0.02": 0.0,
			"-0.019": 0.0,
			"-0.018": 0.0,
			"-0.017": 0.0,
			"-0.016": 0.0,
			"-0.015": 0.431166301349,
			"-0.014": 1.1430378483,
			"-0.013": 1.21280424203,
			"-0.012": 1.296834394,
			"-0.011": 0.933786318851,
			"-0.01": 1.27227830912,
			"-0.009": 1.87996707724,
			"-0.008": 2.68858889221,
			"-0.007": 6.5788992363,
			"-0.006": 11.0426912774,
			"-0.005": 14.9672918162,
			"-0.004": 16.7168447822,
			"-0.003": 16.5790196827,
			"-0.002": 18.3822599995,
			"-0.001": 18.2843067519,
			"0.0": 22.5765751412,
			"0.001": 19.6052049803,
			"0.002": 20.1945304332,
			"0.003": 14.4033777022,
			"0.004": 14.9845908522,
			"0.005": 9.30277322342,
			"0.006": 4.09715742409,
			"0.007": 3.42085732256,
			"0.008": 3.12914319107,
			"0.009": 1.9692774926,
			"0.01": 1.6824703423,
			"0.011": 1.96276833993,
			"0.012": 3.26821250012,
			"0.013": 5.29109372543,
			"0.014": 1.61074380428,
			"0.015": 0.0168659457127,
			"0.016": 0.0,
			"0.017": 0.0,
			"0.018": 0.0,
			"0.019": 0.0,
			"0.02": 0.0,
			"0.021": 0.0,
			"0.022": 0.0,
			"0.023": 0.0,
			"0.024": 0.0,
			"0.025": 0.0
		}
	}
}
