{
	 "smiles": "NC(=O)CCCNC(C1=CC=C(Cl)C=C1)=C1C=C(F)C=CC1=O", 
	 "Tm": 407.15, 
	 "num_atms": 39, 
	 "gaussian": { 
		 "optdone": 1, 
		 "sigma_profile": "yes", 
		 "theory": "DFT", 
		 "functional": "B3LYP", 
		 "basiset": "6-31G**", 
		 "properties": { 
			 "R2extent": 10693.0006, 
			 "electric_dipole_moment_norm": 0.856926793839, 
			 "electric_quadrupole_moment_norm": 21.8758505419, 
			 "total_energy": -1477.4491282, 
			 "HOMO_LUMO_gap": 0.12261, 
			 "cosmo_polarized_energy": -21.19, 
			 "cosmo_cavitation_energy": 45.51, 
			 "cosmo_dispersion_energy": -31.05, 
			 "cosmo_repulsion_energy": 2.4, 
			 "cosmo_total_nonelectrostatic_energy": 16.85, 
			 "SMD_solvation_energy": 7.94 
		},
		"coords": [
			{
				"x": -5.7404940736,
				"y": 0.1240996148,
				"z": -1.0755412317,
				"element": "N" 
			},
			{
				"x": -4.7783943226,
				"y": -0.7507928675,
				"z": -1.4920482534,
				"element": "C" 
			},
			{
				"x": -5.0353923793,
				"y": -1.899980331,
				"z": -1.8245119159,
				"element": "O" 
			},
			{
				"x": -3.364802978,
				"y": -0.1711610558,
				"z": -1.5431479728,
				"element": "C" 
			},
			{
				"x": -2.3018259787,
				"y": -1.2602245942,
				"z": -1.3707770262,
				"element": "C" 
			},
			{
				"x": -0.8643459585,
				"y": -0.7564145728,
				"z": -1.5721778966,
				"element": "C" 
			},
			{
				"x": -0.5330150858,
				"y": 0.3140548882,
				"z": -0.637457688,
				"element": "N" 
			},
			{
				"x": 0.2550387945,
				"y": 0.2651206447,
				"z": 0.4317183802,
				"element": "C" 
			},
			{
				"x": 1.1715983227,
				"y": -0.8979937736,
				"z": 0.6218846312,
				"element": "C" 
			},
			{
				"x": 1.016283639,
				"y": -1.7599938989,
				"z": 1.7168149639,
				"element": "C" 
			},
			{
				"x": 1.8659709439,
				"y": -2.8513017522,
				"z": 1.8914039901,
				"element": "C" 
			},
			{
				"x": 2.8867926152,
				"y": -3.0739921419,
				"z": 0.9672361471,
				"element": "C" 
			},
			{
				"x": 3.9635904729,
				"y": -4.4409389058,
				"z": 1.1834608101,
				"element": "Cl" 
			},
			{
				"x": 3.0667277532,
				"y": -2.2256885902,
				"z": -0.1258555412,
				"element": "C" 
			},
			{
				"x": 2.2042818909,
				"y": -1.1441922125,
				"z": -0.2951601034,
				"element": "C" 
			},
			{
				"x": 0.2031581025,
				"y": 1.3422925125,
				"z": 1.3678826609,
				"element": "C" 
			},
			{
				"x": 1.1107441267,
				"y": 1.407160829,
				"z": 2.4690285222,
				"element": "C" 
			},
			{
				"x": 1.0077556912,
				"y": 2.4201757893,
				"z": 3.3783495043,
				"element": "C" 
			},
			{
				"x": 1.8696627554,
				"y": 2.485853787,
				"z": 4.4229342047,
				"element": "F" 
			},
			{
				"x": 0.0194797968,
				"y": 3.4251769268,
				"z": 3.2678076667,
				"element": "C" 
			},
			{
				"x": -0.8608935406,
				"y": 3.4054625067,
				"z": 2.2165837051,
				"element": "C" 
			},
			{
				"x": -0.8064230743,
				"y": 2.3890914436,
				"z": 1.19690473,
				"element": "C" 
			},
			{
				"x": -1.6077274083,
				"y": 2.4220443617,
				"z": 0.2028090142,
				"element": "O" 
			},
			{
				"x": -6.696437392,
				"y": -0.1961752269,
				"z": -1.045126618,
				"element": "H" 
			},
			{
				"x": -5.5237450674,
				"y": 1.0554741168,
				"z": -0.7597808036,
				"element": "H" 
			},
			{
				"x": -3.24877136,
				"y": 0.3096640241,
				"z": -2.5254986607,
				"element": "H" 
			},
			{
				"x": -3.2457865213,
				"y": 0.6208374842,
				"z": -0.7952104417,
				"element": "H" 
			},
			{
				"x": -2.3881458375,
				"y": -1.706228822,
				"z": -0.3729230132,
				"element": "H" 
			},
			{
				"x": -2.5004487406,
				"y": -2.0622215786,
				"z": -2.088324499,
				"element": "H" 
			},
			{
				"x": -0.7470462739,
				"y": -0.3627674868,
				"z": -2.5899252998,
				"element": "H" 
			},
			{
				"x": -0.1586922769,
				"y": -1.5806942955,
				"z": -1.4551167333,
				"element": "H" 
			},
			{
				"x": -1.1219582912,
				"y": 1.1980358593,
				"z": -0.6081456307,
				"element": "H" 
			},
			{
				"x": 0.2234166066,
				"y": -1.5779412603,
				"z": 2.4352473216,
				"element": "H" 
			},
			{
				"x": 1.739822231,
				"y": -3.5207946678,
				"z": 2.734784751,
				"element": "H" 
			},
			{
				"x": 3.8702256287,
				"y": -2.4087869534,
				"z": -0.8303851134,
				"element": "H" 
			},
			{
				"x": 2.3431266353,
				"y": -0.4771012337,
				"z": -1.1406467679,
				"element": "H" 
			},
			{
				"x": 1.89012002,
				"y": 0.6644487717,
				"z": 2.5911609883,
				"element": "H" 
			},
			{
				"x": -0.01690169,
				"y": 4.2047816249,
				"z": 4.0230350192,
				"element": "H" 
			},
			{
				"x": -1.6208477759,
				"y": 4.1710110364,
				"z": 2.1007141997,
				"element": "H" 
			}
		],
		 "valence_orbital": [ 
			{
				"type": "occ",
				"energy": -0.26579,
				"method": "rhf"
			},
			{
				"type": "occ",
				"energy": -0.25775,
				"method": "rhf"
			},
			{
				"type": "occ",
				"energy": -0.24875,
				"method": "rhf"
			},
			{
				"type": "occ",
				"energy": -0.23948,
				"method": "rhf"
			},
			{
				"type": "occ",
				"energy": -0.19501,
				"method": "rhf"
			},
			{
				"type": "unocc",
				"energy": -0.0724,
				"method": "rhf"
			},
			{
				"type": "unocc",
				"energy": -0.03605,
				"method": "rhf"
			},
			{
				"type": "unocc",
				"energy": -0.03553,
				"method": "rhf"
			},
			{
				"type": "unocc",
				"energy": 0.01509,
				"method": "rhf"
			},
			{
				"type": "unocc",
				"energy": 0.02114,
				"method": "rhf"
			}
		],
		"cosmo_sigma_profile": { 
			"-0.025": 0.0,
			"-0.024": 0.0,
			"-0.023": 0.0,
			"-0.022": 0.0,
			"-0.021": 0.0,
			"-0.02": 0.0,
			"-0.019": 0.0,
			"-0.018": 0.0,
			"-0.017": 0.0,
			"-0.016": 0.0,
			"-0.015": 0.112379997672,
			"-0.014": 1.31070476534,
			"-0.013": 2.31239037184,
			"-0.012": 2.36058985727,
			"-0.011": 2.46070689188,
			"-0.01": 2.30910298903,
			"-0.009": 1.79875406947,
			"-0.008": 6.18044267122,
			"-0.007": 12.2423621454,
			"-0.006": 18.6428877982,
			"-0.005": 22.1223803727,
			"-0.004": 28.2114694811,
			"-0.003": 31.4226231404,
			"-0.002": 22.0230395356,
			"-0.001": 20.3672231964,
			"0.0": 24.3723665458,
			"0.001": 28.2773358663,
			"0.002": 30.1905100657,
			"0.003": 27.0486503523,
			"0.004": 26.5476026093,
			"0.005": 17.7666382591,
			"0.006": 4.16248228819,
			"0.007": 2.99551167624,
			"0.008": 2.66008617181,
			"0.009": 2.9180563009,
			"0.01": 2.84096871597,
			"0.011": 2.19997614484,
			"0.012": 2.9943258261,
			"0.013": 4.53233177583,
			"0.014": 7.02869074381,
			"0.015": 3.13075269464,
			"0.016": 1.19859936364,
			"0.017": 0.0889589220827,
			"0.018": 0.0,
			"0.019": 0.0,
			"0.02": 0.0,
			"0.021": 0.0,
			"0.022": 0.0,
			"0.023": 0.0,
			"0.024": 0.0,
			"0.025": 0.0
		}
	}
}
