{
	 "smiles": "NC1=C2C=C(Br)C=C(F)C2=NC=N1", 
	 "Tm": 617.15, 
	 "num_atms": 18, 
	 "gaussian": { 
		 "optdone": 1, 
		 "sigma_profile": "yes", 
		 "theory": "DFT", 
		 "functional": "B3LYP", 
		 "basiset": "6-31G**", 
		 "properties": { 
			 "R2extent": 5652.7168, 
			 "electric_dipole_moment_norm": 3.75523782203, 
			 "electric_quadrupole_moment_norm": 10.1887003018, 
			 "total_energy": -3143.36941006, 
			 "HOMO_LUMO_gap": 0.1693, 
			 "cosmo_polarized_energy": -13.51, 
			 "cosmo_cavitation_energy": 25.45, 
			 "cosmo_dispersion_energy": -19.52, 
			 "cosmo_repulsion_energy": 1.51, 
			 "cosmo_total_nonelectrostatic_energy": 7.44, 
			 "SMD_solvation_energy": 0.8 
		},
		"coords": [
			{
				"x": -1.5785873741,
				"y": 0.0380547574,
				"z": 2.2131495118,
				"element": "N" 
			},
			{
				"x": -1.4679470215,
				"y": 0.730190512,
				"z": 1.0431935957,
				"element": "C" 
			},
			{
				"x": -0.2680805553,
				"y": 1.4592122334,
				"z": 0.710317444,
				"element": "C" 
			},
			{
				"x": 0.8834769661,
				"y": 1.5245539648,
				"z": 1.5298989181,
				"element": "C" 
			},
			{
				"x": 1.9624297373,
				"y": 2.2732402281,
				"z": 1.1131713937,
				"element": "C" 
			},
			{
				"x": 3.5261492699,
				"y": 2.3728155197,
				"z": 2.2021052318,
				"element": "Br" 
			},
			{
				"x": 1.9499495572,
				"y": 2.9723626076,
				"z": -0.1111109529,
				"element": "C" 
			},
			{
				"x": 0.8329150132,
				"y": 2.8928104331,
				"z": -0.9085224723,
				"element": "C" 
			},
			{
				"x": 0.8162097627,
				"y": 3.5455416327,
				"z": -2.0752820293,
				"element": "F" 
			},
			{
				"x": -0.3127899041,
				"y": 2.1355292869,
				"z": -0.5406006077,
				"element": "C" 
			},
			{
				"x": -1.3825773702,
				"y": 2.0784635691,
				"z": -1.3827784884,
				"element": "N" 
			},
			{
				"x": -2.3898880014,
				"y": 1.34634594,
				"z": -0.9576307379,
				"element": "C" 
			},
			{
				"x": -2.5009245432,
				"y": 0.6757061666,
				"z": 0.2117663376,
				"element": "N" 
			},
			{
				"x": -1.0068789254,
				"y": 0.2831037364,
				"z": 3.0045779868,
				"element": "H" 
			},
			{
				"x": -2.4994514069,
				"y": -0.3260868172,
				"z": 2.4107861461,
				"element": "H" 
			},
			{
				"x": 0.9413586988,
				"y": 0.9815916317,
				"z": 2.4656514043,
				"element": "H" 
			},
			{
				"x": 2.8008050765,
				"y": 3.5596285676,
				"z": -0.433410284,
				"element": "H" 
			},
			{
				"x": -3.2533689795,
				"y": 1.27233603,
				"z": -1.6165823974,
				"element": "H" 
			}
		],
		 "valence_orbital": [ 
			{
				"type": "occ",
				"energy": -0.29761,
				"method": "rhf"
			},
			{
				"type": "occ",
				"energy": -0.27719,
				"method": "rhf"
			},
			{
				"type": "occ",
				"energy": -0.27334,
				"method": "rhf"
			},
			{
				"type": "occ",
				"energy": -0.25736,
				"method": "rhf"
			},
			{
				"type": "occ",
				"energy": -0.22989,
				"method": "rhf"
			},
			{
				"type": "unocc",
				"energy": -0.06059,
				"method": "rhf"
			},
			{
				"type": "unocc",
				"energy": -0.03982,
				"method": "rhf"
			},
			{
				"type": "unocc",
				"energy": -0.00802,
				"method": "rhf"
			},
			{
				"type": "unocc",
				"energy": 0.01679,
				"method": "rhf"
			},
			{
				"type": "unocc",
				"energy": 0.05713,
				"method": "rhf"
			}
		],
		"cosmo_sigma_profile": { 
			"-0.025": 0.0,
			"-0.024": 0.0,
			"-0.023": 0.0,
			"-0.022": 0.0,
			"-0.021": 0.0,
			"-0.02": 0.0,
			"-0.019": 0.0,
			"-0.018": 0.0,
			"-0.017": 0.0,
			"-0.016": 0.627851135406,
			"-0.015": 1.60140849095,
			"-0.014": 2.29629408966,
			"-0.013": 2.08070270955,
			"-0.012": 3.13985819951,
			"-0.011": 2.32074236669,
			"-0.01": 2.66712730759,
			"-0.009": 2.94993668321,
			"-0.008": 3.39628419828,
			"-0.007": 5.15926712711,
			"-0.006": 5.75832685636,
			"-0.005": 5.67201083219,
			"-0.004": 6.82668619977,
			"-0.003": 8.87375972721,
			"-0.002": 11.6272013223,
			"-0.001": 21.2773462222,
			"0.0": 22.6739325907,
			"0.001": 22.0021603944,
			"0.002": 11.711275058,
			"0.003": 18.2964273633,
			"0.004": 19.4251539339,
			"0.005": 4.80290847603,
			"0.006": 3.86352962651,
			"0.007": 3.30612068987,
			"0.008": 2.95335202924,
			"0.009": 2.13295806448,
			"0.01": 2.14252861788,
			"0.011": 2.50704194628,
			"0.012": 1.83644203614,
			"0.013": 1.75853146615,
			"0.014": 1.77886116637,
			"0.015": 1.15242292599,
			"0.016": 0.199564525854,
			"0.017": 0.0,
			"0.018": 0.0,
			"0.019": 0.0,
			"0.02": 0.0,
			"0.021": 0.0,
			"0.022": 0.0,
			"0.023": 0.0,
			"0.024": 0.0,
			"0.025": 0.0
		}
	}
}
