{
	 "smiles": "CS(=O)(=O)C1=CC2=C(C=C1)N=NN2O", 
	 "Tm": 466.15, 
	 "num_atms": 21, 
	 "gaussian": { 
		 "optdone": 1, 
		 "sigma_profile": "yes", 
		 "theory": "DFT", 
		 "functional": "B3LYP", 
		 "basiset": "6-31G**", 
		 "properties": { 
			 "R2extent": 4167.429, 
			 "electric_dipole_moment_norm": 2.33740736073, 
			 "electric_quadrupole_moment_norm": 23.3809349509, 
			 "total_energy": -1058.90577231, 
			 "HOMO_LUMO_gap": 0.18628, 
			 "cosmo_polarized_energy": -22.34, 
			 "cosmo_cavitation_energy": 27.68, 
			 "cosmo_dispersion_energy": -20.67, 
			 "cosmo_repulsion_energy": 1.57, 
			 "cosmo_total_nonelectrostatic_energy": 8.57, 
			 "SMD_solvation_energy": 3.93 
		},
		"coords": [
			{
				"x": 2.1116554882,
				"y": 0.2793143516,
				"z": 1.0124103047,
				"element": "C" 
			},
			{
				"x": 1.9483415248,
				"y": -1.1828128532,
				"z": -0.039476956,
				"element": "S" 
			},
			{
				"x": 1.5122006561,
				"y": -2.298646729,
				"z": 0.8141339493,
				"element": "O" 
			},
			{
				"x": 3.1650613473,
				"y": -1.2778057502,
				"z": -0.859395527,
				"element": "O" 
			},
			{
				"x": 0.5753426578,
				"y": -0.7632330201,
				"z": -1.1334682088,
				"element": "C" 
			},
			{
				"x": -0.6861204166,
				"y": -1.2278990957,
				"z": -0.7950771376,
				"element": "C" 
			},
			{
				"x": -1.7032196694,
				"y": -0.8637319224,
				"z": -1.684180659,
				"element": "C" 
			},
			{
				"x": -1.479598439,
				"y": -0.0847087055,
				"z": -2.8383597601,
				"element": "C" 
			},
			{
				"x": -0.183085263,
				"y": 0.3568816785,
				"z": -3.1565087207,
				"element": "C" 
			},
			{
				"x": 0.84141906,
				"y": 0.0071784093,
				"z": -2.2941202096,
				"element": "C" 
			},
			{
				"x": -2.6789432967,
				"y": 0.096854574,
				"z": -3.4964016658,
				"element": "N" 
			},
			{
				"x": -3.6133282993,
				"y": -0.5018052499,
				"z": -2.8223166965,
				"element": "N" 
			},
			{
				"x": -3.0443258604,
				"y": -1.0977113957,
				"z": -1.7508445648,
				"element": "N" 
			},
			{
				"x": -3.8052503628,
				"y": -1.7207742454,
				"z": -0.8000399124,
				"element": "O" 
			},
			{
				"x": 1.1895971485,
				"y": 0.4192832749,
				"z": 1.5780233056,
				"element": "H" 
			},
			{
				"x": 2.3303071836,
				"y": 1.1483049681,
				"z": 0.3903840648,
				"element": "H" 
			},
			{
				"x": 2.9458886242,
				"y": 0.0758483199,
				"z": 1.6870760723,
				"element": "H" 
			},
			{
				"x": -0.8518879695,
				"y": -1.8380767628,
				"z": 0.0847518982,
				"element": "H" 
			},
			{
				"x": -0.0031093762,
				"y": 0.9397870876,
				"z": -4.0531534967,
				"element": "H" 
			},
			{
				"x": 1.8657464541,
				"y": 0.2935542444,
				"z": -2.5057242754,
				"element": "H" 
			},
			{
				"x": -4.1267911919,
				"y": -2.5365011783,
				"z": -1.2205118046,
				"element": "H" 
			}
		],
		 "valence_orbital": [ 
			{
				"type": "occ",
				"energy": -0.30366,
				"method": "rhf"
			},
			{
				"type": "occ",
				"energy": -0.29825,
				"method": "rhf"
			},
			{
				"type": "occ",
				"energy": -0.28911,
				"method": "rhf"
			},
			{
				"type": "occ",
				"energy": -0.28166,
				"method": "rhf"
			},
			{
				"type": "occ",
				"energy": -0.26175,
				"method": "rhf"
			},
			{
				"type": "unocc",
				"energy": -0.07547,
				"method": "rhf"
			},
			{
				"type": "unocc",
				"energy": -0.02591,
				"method": "rhf"
			},
			{
				"type": "unocc",
				"energy": 0.00456,
				"method": "rhf"
			},
			{
				"type": "unocc",
				"energy": 0.02852,
				"method": "rhf"
			},
			{
				"type": "unocc",
				"energy": 0.05831,
				"method": "rhf"
			}
		],
		"cosmo_sigma_profile": { 
			"-0.025": 0.0,
			"-0.024": 0.0,
			"-0.023": 0.0,
			"-0.022": 0.0,
			"-0.021": 0.211142829891,
			"-0.02": 1.48622486411,
			"-0.019": 1.10268486302,
			"-0.018": 1.24762786827,
			"-0.017": 0.977312782432,
			"-0.016": 0.69220502972,
			"-0.015": 0.678861588635,
			"-0.014": 0.726416518934,
			"-0.013": 1.04281115869,
			"-0.012": 0.838633107515,
			"-0.011": 0.902280534103,
			"-0.01": 0.778759509635,
			"-0.009": 4.66314605477,
			"-0.008": 11.7292244277,
			"-0.007": 11.9133378206,
			"-0.006": 13.0882800217,
			"-0.005": 11.5801870065,
			"-0.004": 13.5028279994,
			"-0.003": 11.758912238,
			"-0.002": 11.3278125546,
			"-0.001": 13.6929770483,
			"0.0": 13.0897530138,
			"0.001": 12.5773268462,
			"0.002": 8.05155139734,
			"0.003": 4.79039304919,
			"0.004": 6.5032334394,
			"0.005": 5.41803205399,
			"0.006": 6.04128929227,
			"0.007": 5.58308838065,
			"0.008": 8.6762176501,
			"0.009": 6.37303256068,
			"0.01": 9.42152862745,
			"0.011": 11.1794769717,
			"0.012": 8.24779130421,
			"0.013": 1.15909717554,
			"0.014": 0.881508570386,
			"0.015": 0.194828802525,
			"0.016": 0.0,
			"0.017": 0.0,
			"0.018": 0.0,
			"0.019": 0.0,
			"0.02": 0.0,
			"0.021": 0.0,
			"0.022": 0.0,
			"0.023": 0.0,
			"0.024": 0.0,
			"0.025": 0.0
		}
	}
}
