{
	 "smiles": "OC(=O)C1=CC=C(O1)S(=O)(=O)NC1=C(F)C(Cl)=CC=C1", 
	 "Tm": 425.15, 
	 "num_atms": 27, 
	 "gaussian": { 
		 "optdone": 1, 
		 "sigma_profile": "yes", 
		 "theory": "DFT", 
		 "functional": "B3LYP", 
		 "basiset": "6-31G**", 
		 "properties": { 
			 "R2extent": 6801.8882, 
			 "electric_dipole_moment_norm": 4.13079113367, 
			 "electric_quadrupole_moment_norm": 31.4265274362, 
			 "total_energy": -1812.37074997, 
			 "HOMO_LUMO_gap": 0.18827, 
			 "cosmo_polarized_energy": -19.88, 
			 "cosmo_cavitation_energy": 36.32, 
			 "cosmo_dispersion_energy": -25.32, 
			 "cosmo_repulsion_energy": 1.87, 
			 "cosmo_total_nonelectrostatic_energy": 12.88, 
			 "SMD_solvation_energy": 6.89 
		},
		"coords": [
			{
				"x": -3.9527672364,
				"y": -0.8990375763,
				"z": 1.1549523866,
				"element": "O" 
			},
			{
				"x": -4.0801530729,
				"y": -0.1256019869,
				"z": 0.0570064947,
				"element": "C" 
			},
			{
				"x": -5.1502198941,
				"y": 0.2892590005,
				"z": -0.3203586622,
				"element": "O" 
			},
			{
				"x": -2.8277967385,
				"y": 0.1969956528,
				"z": -0.6605481588,
				"element": "C" 
			},
			{
				"x": -2.5548065983,
				"y": 1.0880138807,
				"z": -1.6618240458,
				"element": "C" 
			},
			{
				"x": -1.149080401,
				"y": 1.0223720035,
				"z": -1.8956892536,
				"element": "C" 
			},
			{
				"x": -0.6729383532,
				"y": 0.0855229607,
				"z": -1.0223780781,
				"element": "C" 
			},
			{
				"x": -1.6757992925,
				"y": -0.4355248504,
				"z": -0.2668520966,
				"element": "O" 
			},
			{
				"x": 0.9461305608,
				"y": -0.6106373922,
				"z": -0.7819629328,
				"element": "S" 
			},
			{
				"x": 0.9983925512,
				"y": -1.9517753637,
				"z": -1.3514761314,
				"element": "O" 
			},
			{
				"x": 1.8821158029,
				"y": 0.4397649733,
				"z": -1.1636147367,
				"element": "O" 
			},
			{
				"x": 1.033037366,
				"y": -0.8593391874,
				"z": 0.8904306436,
				"element": "N" 
			},
			{
				"x": 0.7686704898,
				"y": 0.1913187042,
				"z": 1.8066892151,
				"element": "C" 
			},
			{
				"x": -0.3114878993,
				"y": 0.0682857265,
				"z": 2.6875082821,
				"element": "C" 
			},
			{
				"x": -1.0857052593,
				"y": -1.04219314,
				"z": 2.5999302855,
				"element": "F" 
			},
			{
				"x": -0.5953298779,
				"y": 1.0452784762,
				"z": 3.6366811876,
				"element": "C" 
			},
			{
				"x": -1.9461844266,
				"y": 0.8277888236,
				"z": 4.7151395394,
				"element": "Cl" 
			},
			{
				"x": 0.2003113745,
				"y": 2.1908980138,
				"z": 3.6934487747,
				"element": "C" 
			},
			{
				"x": 1.2681725747,
				"y": 2.3316303775,
				"z": 2.8063171321,
				"element": "C" 
			},
			{
				"x": 1.5663482393,
				"y": 1.3380375548,
				"z": 1.8746136323,
				"element": "C" 
			},
			{
				"x": -3.0201419693,
				"y": -1.0710646628,
				"z": 1.3644363549,
				"element": "H" 
			},
			{
				"x": -3.2801979117,
				"y": 1.7214412488,
				"z": -2.1500402254,
				"element": "H" 
			},
			{
				"x": -0.5622167425,
				"y": 1.5891203835,
				"z": -2.6027430925,
				"element": "H" 
			},
			{
				"x": 0.5910632039,
				"y": -1.7443270502,
				"z": 1.122298319,
				"element": "H" 
			},
			{
				"x": -0.0222699419,
				"y": 2.9543590611,
				"z": 4.4300504298,
				"element": "H" 
			},
			{
				"x": 1.8865787201,
				"y": 3.2217200594,
				"z": 2.8550993423,
				"element": "H" 
			},
			{
				"x": 2.4030747322,
				"y": 1.4338943091,
				"z": 1.1931853941,
				"element": "H" 
			}
		],
		 "valence_orbital": [ 
			{
				"type": "occ",
				"energy": -0.3241,
				"method": "rhf"
			},
			{
				"type": "occ",
				"energy": -0.2929,
				"method": "rhf"
			},
			{
				"type": "occ",
				"energy": -0.27724,
				"method": "rhf"
			},
			{
				"type": "occ",
				"energy": -0.2748,
				"method": "rhf"
			},
			{
				"type": "occ",
				"energy": -0.26731,
				"method": "rhf"
			},
			{
				"type": "unocc",
				"energy": -0.07904,
				"method": "rhf"
			},
			{
				"type": "unocc",
				"energy": -0.04881,
				"method": "rhf"
			},
			{
				"type": "unocc",
				"energy": -0.03774,
				"method": "rhf"
			},
			{
				"type": "unocc",
				"energy": -0.00988,
				"method": "rhf"
			},
			{
				"type": "unocc",
				"energy": -0.00392,
				"method": "rhf"
			}
		],
		"cosmo_sigma_profile": { 
			"-0.025": 0.0,
			"-0.024": 0.0,
			"-0.023": 0.0,
			"-0.022": 0.0,
			"-0.021": 0.0,
			"-0.02": 0.0,
			"-0.019": 0.0,
			"-0.018": 0.0,
			"-0.017": 0.0,
			"-0.016": 0.436972407653,
			"-0.015": 0.578658743356,
			"-0.014": 0.497696787625,
			"-0.013": 1.02348568046,
			"-0.012": 1.61447965223,
			"-0.011": 2.40372560654,
			"-0.01": 5.58847622906,
			"-0.009": 5.72656717323,
			"-0.008": 8.19445506069,
			"-0.007": 12.925188954,
			"-0.006": 14.7552973813,
			"-0.005": 13.5145364252,
			"-0.004": 13.8252678206,
			"-0.003": 15.3586626086,
			"-0.002": 19.8997833789,
			"-0.001": 22.7439779076,
			"0.0": 26.9232635033,
			"0.001": 20.3074514258,
			"0.002": 20.914904953,
			"0.003": 17.4276494719,
			"0.004": 11.7226613462,
			"0.005": 6.7369341115,
			"0.006": 5.59952043402,
			"0.007": 6.62215426504,
			"0.008": 7.16576210741,
			"0.009": 14.4227722492,
			"0.01": 10.990709254,
			"0.011": 5.63796385571,
			"0.012": 2.25284131973,
			"0.013": 0.146855535071,
			"0.014": 0.0,
			"0.015": 0.0,
			"0.016": 0.0,
			"0.017": 0.0,
			"0.018": 0.0,
			"0.019": 0.0,
			"0.02": 0.0,
			"0.021": 0.0,
			"0.022": 0.0,
			"0.023": 0.0,
			"0.024": 0.0,
			"0.025": 0.0
		}
	}
}
