{
	 "smiles": "CC(C)(C)OC(=O)N1C2CCC1CC(O)C2", 
	 "Tm": 414.15, 
	 "num_atms": 37, 
	 "gaussian": { 
		 "optdone": 1, 
		 "sigma_profile": "yes", 
		 "theory": "DFT", 
		 "functional": "B3LYP", 
		 "basiset": "6-31G**", 
		 "properties": { 
			 "R2extent": 3974.9203, 
			 "electric_dipole_moment_norm": 2.84789678359, 
			 "electric_quadrupole_moment_norm": 8.2905506325, 
			 "total_energy": -750.383087987, 
			 "HOMO_LUMO_gap": 0.28341, 
			 "cosmo_polarized_energy": -12.01, 
			 "cosmo_cavitation_energy": 35.98, 
			 "cosmo_dispersion_energy": -24.99, 
			 "cosmo_repulsion_energy": 1.97, 
			 "cosmo_total_nonelectrostatic_energy": 12.96, 
			 "SMD_solvation_energy": 5.68 
		},
		"coords": [
			{
				"x": -0.225062357,
				"y": -2.4705038914,
				"z": 2.3694307958,
				"element": "C" 
			},
			{
				"x": 0.4891049105,
				"y": -1.1305875704,
				"z": 2.5805175909,
				"element": "C" 
			},
			{
				"x": 1.9716233504,
				"y": -1.3511234059,
				"z": 2.8945741793,
				"element": "C" 
			},
			{
				"x": -0.176143557,
				"y": -0.2855571499,
				"z": 3.6726056264,
				"element": "C" 
			},
			{
				"x": 0.5384659752,
				"y": -0.379810464,
				"z": 1.318366772,
				"element": "O" 
			},
			{
				"x": -0.6059326109,
				"y": 0.0361045276,
				"z": 0.7122507572,
				"element": "C" 
			},
			{
				"x": -1.7442668503,
				"y": -0.2014819286,
				"z": 1.0931816943,
				"element": "O" 
			},
			{
				"x": -0.3158783663,
				"y": 0.7923095343,
				"z": -0.3858726958,
				"element": "N" 
			},
			{
				"x": -1.3271740767,
				"y": 1.1949973641,
				"z": -1.3714094182,
				"element": "C" 
			},
			{
				"x": -0.7316889957,
				"y": 2.5362752048,
				"z": -1.8687733769,
				"element": "C" 
			},
			{
				"x": 0.8046497006,
				"y": 2.3851051239,
				"z": -1.6553021675,
				"element": "C" 
			},
			{
				"x": 0.9758530331,
				"y": 0.9620589588,
				"z": -1.0659896608,
				"element": "C" 
			},
			{
				"x": 1.1176377037,
				"y": -0.1274940994,
				"z": -2.1744805591,
				"element": "C" 
			},
			{
				"x": -0.2202965174,
				"y": -0.8500274825,
				"z": -2.4399611932,
				"element": "C" 
			},
			{
				"x": -0.2013216663,
				"y": -1.559970966,
				"z": -3.6756890005,
				"element": "O" 
			},
			{
				"x": -1.4102549058,
				"y": 0.1188254878,
				"z": -2.4972479197,
				"element": "C" 
			},
			{
				"x": -0.1585291074,
				"y": -3.071778092,
				"z": 3.2821577576,
				"element": "H" 
			},
			{
				"x": 0.2527045191,
				"y": -3.0312933296,
				"z": 1.5593269111,
				"element": "H" 
			},
			{
				"x": -1.2753358317,
				"y": -2.3162007158,
				"z": 2.1220985542,
				"element": "H" 
			},
			{
				"x": 2.456824614,
				"y": -1.9147829883,
				"z": 2.0921162414,
				"element": "H" 
			},
			{
				"x": 2.0797434498,
				"y": -1.913682884,
				"z": 3.8267177399,
				"element": "H" 
			},
			{
				"x": 2.4897069846,
				"y": -0.3939771299,
				"z": 3.005551144,
				"element": "H" 
			},
			{
				"x": 0.333313439,
				"y": 0.6786532117,
				"z": 3.7688428454,
				"element": "H" 
			},
			{
				"x": -1.2269507698,
				"y": -0.10936332,
				"z": 3.4421496447,
				"element": "H" 
			},
			{
				"x": -0.1053394708,
				"y": -0.8043565983,
				"z": 4.6342839988,
				"element": "H" 
			},
			{
				"x": -2.2884353029,
				"y": 1.314118674,
				"z": -0.8725610789,
				"element": "H" 
			},
			{
				"x": -0.9992241842,
				"y": 2.7361867545,
				"z": -2.9095270766,
				"element": "H" 
			},
			{
				"x": -1.1192436255,
				"y": 3.3620173826,
				"z": -1.265663775,
				"element": "H" 
			},
			{
				"x": 1.379882124,
				"y": 2.5145376525,
				"z": -2.5759477305,
				"element": "H" 
			},
			{
				"x": 1.1632056455,
				"y": 3.1276120595,
				"z": -0.9368166333,
				"element": "H" 
			},
			{
				"x": 1.7889429672,
				"y": 0.9019016589,
				"z": -0.3441476416,
				"element": "H" 
			},
			{
				"x": 1.4542272891,
				"y": 0.32344522,
				"z": -3.114670013,
				"element": "H" 
			},
			{
				"x": 1.8738740898,
				"y": -0.8681745908,
				"z": -1.8872550818,
				"element": "H" 
			},
			{
				"x": -0.3974018001,
				"y": -1.5527004415,
				"z": -1.611893082,
				"element": "H" 
			},
			{
				"x": 0.4652566306,
				"y": -2.2559294491,
				"z": -3.607902574,
				"element": "H" 
			},
			{
				"x": -2.335499003,
				"y": -0.4589166922,
				"z": -2.4163520169,
				"element": "H" 
			},
			{
				"x": -1.4176374272,
				"y": 0.5936643749,
				"z": -3.4847095577,
				"element": "H" 
			}
		],
		 "valence_orbital": [ 
			{
				"type": "occ",
				"energy": -0.30764,
				"method": "rhf"
			},
			{
				"type": "occ",
				"energy": -0.28244,
				"method": "rhf"
			},
			{
				"type": "occ",
				"energy": -0.26485,
				"method": "rhf"
			},
			{
				"type": "occ",
				"energy": -0.25529,
				"method": "rhf"
			},
			{
				"type": "occ",
				"energy": -0.23133,
				"method": "rhf"
			},
			{
				"type": "unocc",
				"energy": 0.05208,
				"method": "rhf"
			},
			{
				"type": "unocc",
				"energy": 0.0663,
				"method": "rhf"
			},
			{
				"type": "unocc",
				"energy": 0.0767,
				"method": "rhf"
			},
			{
				"type": "unocc",
				"energy": 0.09184,
				"method": "rhf"
			},
			{
				"type": "unocc",
				"energy": 0.0987,
				"method": "rhf"
			}
		],
		"cosmo_sigma_profile": { 
			"-0.025": 0.0,
			"-0.024": 0.0,
			"-0.023": 0.0,
			"-0.022": 0.0,
			"-0.021": 0.0,
			"-0.02": 0.0,
			"-0.019": 0.0,
			"-0.018": 0.0,
			"-0.017": 0.0,
			"-0.016": 0.0267479322215,
			"-0.015": 1.06002545441,
			"-0.014": 0.878672236997,
			"-0.013": 0.882103829877,
			"-0.012": 1.03812201124,
			"-0.011": 1.07141528328,
			"-0.01": 0.621053311807,
			"-0.009": 0.636703801326,
			"-0.008": 0.710932645207,
			"-0.007": 1.4328827471,
			"-0.006": 1.37917552649,
			"-0.005": 2.16291024098,
			"-0.004": 21.6276960213,
			"-0.003": 43.4482421779,
			"-0.002": 39.249189031,
			"-0.001": 34.3638169177,
			"0.0": 37.532207251,
			"0.001": 27.4205421772,
			"0.002": 9.66808313602,
			"0.003": 7.9828342053,
			"0.004": 6.56801706212,
			"0.005": 5.89305281118,
			"0.006": 6.40231803634,
			"0.007": 2.93066639454,
			"0.008": 2.65471199648,
			"0.009": 2.41295439956,
			"0.01": 2.71634336825,
			"0.011": 3.51651956645,
			"0.012": 2.19218242449,
			"0.013": 4.47338322671,
			"0.014": 4.24124671127,
			"0.015": 0.406239351128,
			"0.016": 0.0,
			"0.017": 0.0,
			"0.018": 0.0,
			"0.019": 0.0,
			"0.02": 0.0,
			"0.021": 0.0,
			"0.022": 0.0,
			"0.023": 0.0,
			"0.024": 0.0,
			"0.025": 0.0
		}
	}
}
