{
	 "smiles": "OCC1=C2OCCOC2=CC=C1", 
	 "Tm": 327.65, 
	 "num_atms": 22, 
	 "gaussian": { 
		 "optdone": 1, 
		 "sigma_profile": "yes", 
		 "theory": "DFT", 
		 "functional": "B3LYP", 
		 "basiset": "6-31G**", 
		 "properties": { 
			 "R2extent": 2046.4033, 
			 "electric_dipole_moment_norm": 2.90751704724, 
			 "electric_quadrupole_moment_norm": 15.869770895, 
			 "total_energy": -574.626186719, 
			 "HOMO_LUMO_gap": 0.21367, 
			 "cosmo_polarized_energy": -10.13, 
			 "cosmo_cavitation_energy": 24.51, 
			 "cosmo_dispersion_energy": -18.75, 
			 "cosmo_repulsion_energy": 1.5, 
			 "cosmo_total_nonelectrostatic_energy": 7.25, 
			 "SMD_solvation_energy": 4.31 
		},
		"coords": [
			{
				"x": -2.5194816622,
				"y": -1.3592243795,
				"z": -1.3922451491,
				"element": "O" 
			},
			{
				"x": -2.3358777496,
				"y": -0.3850755511,
				"z": -0.3746404908,
				"element": "C" 
			},
			{
				"x": -0.9682525439,
				"y": 0.271239526,
				"z": -0.3939113407,
				"element": "C" 
			},
			{
				"x": 0.1828432559,
				"y": -0.524245643,
				"z": -0.294406324,
				"element": "C" 
			},
			{
				"x": 0.0112273434,
				"y": -1.8964207988,
				"z": -0.2034668372,
				"element": "O" 
			},
			{
				"x": 1.2018860209,
				"y": -2.6492088985,
				"z": -0.4514005972,
				"element": "C" 
			},
			{
				"x": 2.3690732021,
				"y": -2.0308116626,
				"z": 0.2992629203,
				"element": "C" 
			},
			{
				"x": 2.6018913463,
				"y": -0.7029381774,
				"z": -0.1637314371,
				"element": "O" 
			},
			{
				"x": 1.4596366821,
				"y": 0.0546555514,
				"z": -0.279983019,
				"element": "C" 
			},
			{
				"x": 1.5944052704,
				"y": 1.4401476776,
				"z": -0.3905681356,
				"element": "C" 
			},
			{
				"x": 0.4593334614,
				"y": 2.2377003552,
				"z": -0.5032946919,
				"element": "C" 
			},
			{
				"x": -0.811182748,
				"y": 1.6549936715,
				"z": -0.4987158136,
				"element": "C" 
			},
			{
				"x": -1.8428874013,
				"y": -2.0327692102,
				"z": -1.2355257015,
				"element": "H" 
			},
			{
				"x": -3.103585399,
				"y": 0.3778268622,
				"z": -0.5338083017,
				"element": "H" 
			},
			{
				"x": -2.5142437549,
				"y": -0.8212435271,
				"z": 0.6224377777,
				"element": "H" 
			},
			{
				"x": 1.0015069076,
				"y": -3.668011055,
				"z": -0.1101538337,
				"element": "H" 
			},
			{
				"x": 1.414980375,
				"y": -2.6643114801,
				"z": -1.528601503,
				"element": "H" 
			},
			{
				"x": 3.2920354489,
				"y": -2.5893638586,
				"z": 0.1236934811,
				"element": "H" 
			},
			{
				"x": 2.1559065724,
				"y": -2.0218617477,
				"z": 1.3772324379,
				"element": "H" 
			},
			{
				"x": 2.5939338049,
				"y": 1.8624889167,
				"z": -0.3825709862,
				"element": "H" 
			},
			{
				"x": 0.5646659299,
				"y": 3.3145319729,
				"z": -0.591714079,
				"element": "H" 
			},
			{
				"x": -1.6961143622,
				"y": 2.2792014559,
				"z": -0.5853883756,
				"element": "H" 
			}
		],
		 "valence_orbital": [ 
			{
				"type": "occ",
				"energy": -0.3188,
				"method": "rhf"
			},
			{
				"type": "occ",
				"energy": -0.29996,
				"method": "rhf"
			},
			{
				"type": "occ",
				"energy": -0.25492,
				"method": "rhf"
			},
			{
				"type": "occ",
				"energy": -0.23319,
				"method": "rhf"
			},
			{
				"type": "occ",
				"energy": -0.21562,
				"method": "rhf"
			},
			{
				"type": "unocc",
				"energy": -0.00195,
				"method": "rhf"
			},
			{
				"type": "unocc",
				"energy": 0.01277,
				"method": "rhf"
			},
			{
				"type": "unocc",
				"energy": 0.07034,
				"method": "rhf"
			},
			{
				"type": "unocc",
				"energy": 0.09665,
				"method": "rhf"
			},
			{
				"type": "unocc",
				"energy": 0.10835,
				"method": "rhf"
			}
		],
		"cosmo_sigma_profile": { 
			"-0.025": 0.0,
			"-0.024": 0.0,
			"-0.023": 0.0,
			"-0.022": 0.0,
			"-0.021": 0.0,
			"-0.02": 0.0,
			"-0.019": 0.0,
			"-0.018": 0.0,
			"-0.017": 0.0,
			"-0.016": 0.0,
			"-0.015": 0.0,
			"-0.014": 0.0,
			"-0.013": 0.0,
			"-0.012": 0.0,
			"-0.011": 0.0,
			"-0.01": 0.34144234154,
			"-0.009": 0.456139413498,
			"-0.008": 1.24463930342,
			"-0.007": 7.88287840659,
			"-0.006": 15.4080516966,
			"-0.005": 20.0431540544,
			"-0.004": 18.3162127419,
			"-0.003": 16.3351559567,
			"-0.002": 13.7646886226,
			"-0.001": 11.05792358,
			"0.0": 8.87667141549,
			"0.001": 8.76879398533,
			"0.002": 9.12234103697,
			"0.003": 10.8176381104,
			"0.004": 11.1177416741,
			"0.005": 11.318245151,
			"0.006": 8.26929919931,
			"0.007": 3.60226866596,
			"0.008": 3.27117314694,
			"0.009": 2.49480051798,
			"0.01": 2.97971999307,
			"0.011": 1.70459647932,
			"0.012": 1.1544289764,
			"0.013": 2.08580339892,
			"0.014": 2.02945360375,
			"0.015": 1.48291441279,
			"0.016": 0.0,
			"0.017": 0.0,
			"0.018": 0.0,
			"0.019": 0.0,
			"0.02": 0.0,
			"0.021": 0.0,
			"0.022": 0.0,
			"0.023": 0.0,
			"0.024": 0.0,
			"0.025": 0.0
		}
	}
}
