{
	 "smiles": "CCCC1CCC2=C(C1)SC(=O)N2", 
	 "Tm": 393.15, 
	 "num_atms": 28, 
	 "gaussian": { 
		 "optdone": 1, 
		 "sigma_profile": "yes", 
		 "theory": "DFT", 
		 "functional": "B3LYP", 
		 "basiset": "6-31G**", 
		 "properties": { 
			 "R2extent": 3930.5984, 
			 "electric_dipole_moment_norm": 5.05872882452, 
			 "electric_quadrupole_moment_norm": 23.1461957892, 
			 "total_energy": -918.295488829, 
			 "HOMO_LUMO_gap": 0.2165, 
			 "cosmo_polarized_energy": -11.28, 
			 "cosmo_cavitation_energy": 30.2, 
			 "cosmo_dispersion_energy": -22.42, 
			 "cosmo_repulsion_energy": 1.75, 
			 "cosmo_total_nonelectrostatic_energy": 9.53, 
			 "SMD_solvation_energy": 4.78 
		},
		"coords": [
			{
				"x": 2.517163367,
				"y": -0.3693698802,
				"z": -0.6614291315,
				"element": "C" 
			},
			{
				"x": 1.0916876206,
				"y": -0.2894620049,
				"z": -0.1018752765,
				"element": "C" 
			},
			{
				"x": 0.8911486179,
				"y": 0.9572106576,
				"z": 0.7747460371,
				"element": "C" 
			},
			{
				"x": -0.5137450736,
				"y": 1.2557690131,
				"z": 1.3543497766,
				"element": "C" 
			},
			{
				"x": -0.9341403903,
				"y": 0.3755856921,
				"z": 2.5553940281,
				"element": "C" 
			},
			{
				"x": -1.3272038062,
				"y": -1.0725563875,
				"z": 2.2028559207,
				"element": "C" 
			},
			{
				"x": -2.1476353471,
				"y": -1.0942320487,
				"z": 0.9496038527,
				"element": "C" 
			},
			{
				"x": -2.272824688,
				"y": -0.0572742375,
				"z": 0.0971005343,
				"element": "C" 
			},
			{
				"x": -1.6307218689,
				"y": 1.2876860722,
				"z": 0.2773089385,
				"element": "C" 
			},
			{
				"x": -3.3210299049,
				"y": -0.4736067002,
				"z": -1.2692021787,
				"element": "S" 
			},
			{
				"x": -3.5762226023,
				"y": -2.1554368001,
				"z": -0.6206108376,
				"element": "C" 
			},
			{
				"x": -4.248345912,
				"y": -3.0290965294,
				"z": -1.1236942311,
				"element": "O" 
			},
			{
				"x": -2.8541861288,
				"y": -2.232003894,
				"z": 0.5536635127,
				"element": "N" 
			},
			{
				"x": 2.6510038713,
				"y": -1.258820609,
				"z": -1.2853915904,
				"element": "H" 
			},
			{
				"x": 3.2595483491,
				"y": -0.4126615419,
				"z": 0.1440242819,
				"element": "H" 
			},
			{
				"x": 2.7509183517,
				"y": 0.5068307211,
				"z": -1.2771357838,
				"element": "H" 
			},
			{
				"x": 0.3771047074,
				"y": -0.281448077,
				"z": -0.9330311034,
				"element": "H" 
			},
			{
				"x": 0.8829292488,
				"y": -1.2008972917,
				"z": 0.4692420364,
				"element": "H" 
			},
			{
				"x": 1.1857929611,
				"y": 1.8314348683,
				"z": 0.1766521249,
				"element": "H" 
			},
			{
				"x": 1.6032557716,
				"y": 0.9212356045,
				"z": 1.6119503862,
				"element": "H" 
			},
			{
				"x": -0.4403846752,
				"y": 2.2757639324,
				"z": 1.7539250049,
				"element": "H" 
			},
			{
				"x": -1.7984514159,
				"y": 0.8533136383,
				"z": 3.0333286793,
				"element": "H" 
			},
			{
				"x": -0.1320631182,
				"y": 0.3657520299,
				"z": 3.3020235551,
				"element": "H" 
			},
			{
				"x": -1.8960755366,
				"y": -1.5107471318,
				"z": 3.034372454,
				"element": "H" 
			},
			{
				"x": -0.4366630355,
				"y": -1.7040546367,
				"z": 2.0805936621,
				"element": "H" 
			},
			{
				"x": -1.2162214384,
				"y": 1.642925267,
				"z": -0.6749809255,
				"element": "H" 
			},
			{
				"x": -2.3971324484,
				"y": 2.022474592,
				"z": 0.5619255022,
				"element": "H" 
			},
			{
				"x": -2.8700054763,
				"y": -3.0978143179,
				"z": 1.0742907708,
				"element": "H" 
			}
		],
		 "valence_orbital": [ 
			{
				"type": "occ",
				"energy": -0.31655,
				"method": "rhf"
			},
			{
				"type": "occ",
				"energy": -0.31383,
				"method": "rhf"
			},
			{
				"type": "occ",
				"energy": -0.28163,
				"method": "rhf"
			},
			{
				"type": "occ",
				"energy": -0.26107,
				"method": "rhf"
			},
			{
				"type": "occ",
				"energy": -0.20406,
				"method": "rhf"
			},
			{
				"type": "unocc",
				"energy": 0.01244,
				"method": "rhf"
			},
			{
				"type": "unocc",
				"energy": 0.01641,
				"method": "rhf"
			},
			{
				"type": "unocc",
				"energy": 0.04236,
				"method": "rhf"
			},
			{
				"type": "unocc",
				"energy": 0.0665,
				"method": "rhf"
			},
			{
				"type": "unocc",
				"energy": 0.07571,
				"method": "rhf"
			}
		],
		"cosmo_sigma_profile": { 
			"-0.025": 0.0,
			"-0.024": 0.0,
			"-0.023": 0.0,
			"-0.022": 0.0,
			"-0.021": 0.0,
			"-0.02": 0.0,
			"-0.019": 0.0,
			"-0.018": 0.0,
			"-0.017": 0.0260360978038,
			"-0.016": 0.750651061321,
			"-0.015": 1.19175432064,
			"-0.014": 1.43648431151,
			"-0.013": 0.740616486958,
			"-0.012": 0.813564506465,
			"-0.011": 1.05732224368,
			"-0.01": 1.33654667295,
			"-0.009": 0.999396831536,
			"-0.008": 1.10843354273,
			"-0.007": 1.70580686609,
			"-0.006": 1.52949188288,
			"-0.005": 3.44384584194,
			"-0.004": 9.99618927856,
			"-0.003": 21.9715823198,
			"-0.002": 38.4139070755,
			"-0.001": 35.1058957862,
			"0.0": 28.283190618,
			"0.001": 24.9822153475,
			"0.002": 19.8631130778,
			"0.003": 10.4570608565,
			"0.004": 5.40452652155,
			"0.005": 5.10009514624,
			"0.006": 3.29058302095,
			"0.007": 1.39514664167,
			"0.008": 1.72649186196,
			"0.009": 1.10323214086,
			"0.01": 1.85257070787,
			"0.011": 1.68122262706,
			"0.012": 5.34059766527,
			"0.013": 4.94647471901,
			"0.014": 0.307962794296,
			"0.015": 0.0,
			"0.016": 0.0,
			"0.017": 0.0,
			"0.018": 0.0,
			"0.019": 0.0,
			"0.02": 0.0,
			"0.021": 0.0,
			"0.022": 0.0,
			"0.023": 0.0,
			"0.024": 0.0,
			"0.025": 0.0
		}
	}
}
