{
	 "smiles": "NC(=O)C1=CSC(=C1)C(=O)CCl", 
	 "Tm": 449.15, 
	 "num_atms": 18, 
	 "gaussian": { 
		 "optdone": 1, 
		 "sigma_profile": "yes", 
		 "theory": "DFT", 
		 "functional": "B3LYP", 
		 "basiset": "6-31G**", 
		 "properties": { 
			 "R2extent": 3902.0138, 
			 "electric_dipole_moment_norm": 5.7332182533, 
			 "electric_quadrupole_moment_norm": 14.6880269693, 
			 "total_energy": -1333.93647891, 
			 "HOMO_LUMO_gap": 0.1773, 
			 "cosmo_polarized_energy": -19.0, 
			 "cosmo_cavitation_energy": 26.74, 
			 "cosmo_dispersion_energy": -19.93, 
			 "cosmo_repulsion_energy": 1.57, 
			 "cosmo_total_nonelectrostatic_energy": 8.37, 
			 "SMD_solvation_energy": 5.69 
		},
		"coords": [
			{
				"x": 0.0596669497,
				"y": 1.7400845279,
				"z": 3.1544887315,
				"element": "N" 
			},
			{
				"x": -0.6281215216,
				"y": 2.069976255,
				"z": 2.0111505071,
				"element": "C" 
			},
			{
				"x": -1.1525373035,
				"y": 3.1632595611,
				"z": 1.8519049921,
				"element": "O" 
			},
			{
				"x": -0.6703449963,
				"y": 1.0235277374,
				"z": 0.9430389707,
				"element": "C" 
			},
			{
				"x": 0.1424768672,
				"y": -0.0866506718,
				"z": 0.8408474858,
				"element": "C" 
			},
			{
				"x": -0.1950364617,
				"y": -1.0225914866,
				"z": -0.5617702185,
				"element": "S" 
			},
			{
				"x": -1.4764864071,
				"y": 0.0767562668,
				"z": -1.0386161226,
				"element": "C" 
			},
			{
				"x": -1.587872983,
				"y": 1.1121764003,
				"z": -0.1390006791,
				"element": "C" 
			},
			{
				"x": -2.3503196363,
				"y": -0.1035630037,
				"z": -2.21420071,
				"element": "C" 
			},
			{
				"x": -3.2494389058,
				"y": 0.6857788093,
				"z": -2.4535077414,
				"element": "O" 
			},
			{
				"x": -2.1673232013,
				"y": -1.3214514291,
				"z": -3.1227546415,
				"element": "C" 
			},
			{
				"x": -0.6096185478,
				"y": -1.2490601708,
				"z": -4.0493006818,
				"element": "Cl" 
			},
			{
				"x": 0.1787598187,
				"y": 0.7735635398,
				"z": 3.4159339539,
				"element": "H" 
			},
			{
				"x": -0.0111971728,
				"y": 2.4085864133,
				"z": 3.908577157,
				"element": "H" 
			},
			{
				"x": 0.9586856632,
				"y": -0.3772157143,
				"z": 1.4890887579,
				"element": "H" 
			},
			{
				"x": -2.3110469228,
				"y": 1.91035054,
				"z": -0.2456458282,
				"element": "H" 
			},
			{
				"x": -2.979549368,
				"y": -1.3249564783,
				"z": -3.8472079025,
				"element": "H" 
			},
			{
				"x": -2.1569958709,
				"y": -2.2550710964,
				"z": -2.5552260303,
				"element": "H" 
			}
		],
		 "valence_orbital": [ 
			{
				"type": "occ",
				"energy": -0.28501,
				"method": "rhf"
			},
			{
				"type": "occ",
				"energy": -0.277,
				"method": "rhf"
			},
			{
				"type": "occ",
				"energy": -0.26966,
				"method": "rhf"
			},
			{
				"type": "occ",
				"energy": -0.26346,
				"method": "rhf"
			},
			{
				"type": "occ",
				"energy": -0.26187,
				"method": "rhf"
			},
			{
				"type": "unocc",
				"energy": -0.08457,
				"method": "rhf"
			},
			{
				"type": "unocc",
				"energy": -0.03881,
				"method": "rhf"
			},
			{
				"type": "unocc",
				"energy": 0.0045,
				"method": "rhf"
			},
			{
				"type": "unocc",
				"energy": 0.00506,
				"method": "rhf"
			},
			{
				"type": "unocc",
				"energy": 0.05559,
				"method": "rhf"
			}
		],
		"cosmo_sigma_profile": { 
			"-0.025": 0.0,
			"-0.024": 0.0,
			"-0.023": 0.0,
			"-0.022": 0.0,
			"-0.021": 0.0,
			"-0.02": 0.0,
			"-0.019": 0.0,
			"-0.018": 0.0,
			"-0.017": 0.0,
			"-0.016": 0.0,
			"-0.015": 0.370145133042,
			"-0.014": 2.29296777259,
			"-0.013": 3.07326329499,
			"-0.012": 3.12512032737,
			"-0.011": 3.88052011107,
			"-0.01": 4.98634744252,
			"-0.009": 6.88618876028,
			"-0.008": 7.55307286031,
			"-0.007": 6.24902396066,
			"-0.006": 8.53128914193,
			"-0.005": 7.02131784496,
			"-0.004": 7.18473780902,
			"-0.003": 8.06124061019,
			"-0.002": 8.09831213525,
			"-0.001": 13.7123154554,
			"0.0": 21.2963351467,
			"0.001": 22.5543607784,
			"0.002": 13.3224591732,
			"0.003": 9.54190801213,
			"0.004": 13.4971906773,
			"0.005": 11.1627629187,
			"0.006": 4.30805322609,
			"0.007": 3.90919768107,
			"0.008": 2.68264341037,
			"0.009": 3.50489242299,
			"0.01": 4.99827299828,
			"0.011": 5.72850901217,
			"0.012": 3.00031634724,
			"0.013": 5.26858113398,
			"0.014": 2.03796346366,
			"0.015": 0.022672536982,
			"0.016": 0.0,
			"0.017": 0.0,
			"0.018": 0.0,
			"0.019": 0.0,
			"0.02": 0.0,
			"0.021": 0.0,
			"0.022": 0.0,
			"0.023": 0.0,
			"0.024": 0.0,
			"0.025": 0.0
		}
	}
}
