{
	 "smiles": "CC(=O)NC1=CC2=C(CCC2)C=C1", 
	 "Tm": 380.15, 
	 "num_atms": 26, 
	 "gaussian": { 
		 "optdone": 1, 
		 "sigma_profile": "yes", 
		 "theory": "DFT", 
		 "functional": "B3LYP", 
		 "basiset": "6-31G**", 
		 "properties": { 
			 "R2extent": 3960.4365, 
			 "electric_dipole_moment_norm": 2.96096525815, 
			 "electric_quadrupole_moment_norm": 22.4126010055, 
			 "total_energy": -557.014373788, 
			 "HOMO_LUMO_gap": 0.20184, 
			 "cosmo_polarized_energy": -11.86, 
			 "cosmo_cavitation_energy": 28.52, 
			 "cosmo_dispersion_energy": -21.37, 
			 "cosmo_repulsion_energy": 1.7, 
			 "cosmo_total_nonelectrostatic_energy": 8.85, 
			 "SMD_solvation_energy": 4.95 
		},
		"coords": [
			{
				"x": 2.3772256147,
				"y": -5.08652482,
				"z": -2.2786398089,
				"element": "C" 
			},
			{
				"x": 2.1434119798,
				"y": -3.5956428116,
				"z": -2.0686781252,
				"element": "C" 
			},
			{
				"x": 2.89683441,
				"y": -2.7609826736,
				"z": -2.5506321761,
				"element": "O" 
			},
			{
				"x": 1.0351419217,
				"y": -3.2950578395,
				"z": -1.3088794519,
				"element": "N" 
			},
			{
				"x": 0.5320203998,
				"y": -2.0304671317,
				"z": -0.926035069,
				"element": "C" 
			},
			{
				"x": 1.1351684652,
				"y": -0.8188801063,
				"z": -1.3036397262,
				"element": "C" 
			},
			{
				"x": 0.5511506085,
				"y": 0.3723185441,
				"z": -0.8802760157,
				"element": "C" 
			},
			{
				"x": -0.6077989267,
				"y": 0.3866213624,
				"z": -0.092648548,
				"element": "C" 
			},
			{
				"x": -1.0115543985,
				"y": 1.8077909734,
				"z": 0.2395231951,
				"element": "C" 
			},
			{
				"x": -0.2197759199,
				"y": 2.6448415545,
				"z": -0.7981064071,
				"element": "C" 
			},
			{
				"x": 1.024286418,
				"y": 1.7875536599,
				"z": -1.143701647,
				"element": "C" 
			},
			{
				"x": -1.1996080021,
				"y": -0.8174568359,
				"z": 0.2830000109,
				"element": "C" 
			},
			{
				"x": -0.6306425168,
				"y": -2.0194176406,
				"z": -0.1357370741,
				"element": "C" 
			},
			{
				"x": 1.6441800172,
				"y": -5.7331968919,
				"z": -1.7880507021,
				"element": "H" 
			},
			{
				"x": 3.374896887,
				"y": -5.3376049781,
				"z": -1.908522301,
				"element": "H" 
			},
			{
				"x": 2.3680286936,
				"y": -5.2927020818,
				"z": -3.3524835648,
				"element": "H" 
			},
			{
				"x": 0.5004293111,
				"y": -4.0820129148,
				"z": -0.972330051,
				"element": "H" 
			},
			{
				"x": 2.0275247902,
				"y": -0.8366592909,
				"z": -1.9140037549,
				"element": "H" 
			},
			{
				"x": -2.0925468271,
				"y": 1.9770468615,
				"z": 0.1839683212,
				"element": "H" 
			},
			{
				"x": -0.7048933705,
				"y": 2.063988347,
				"z": 1.2641765528,
				"element": "H" 
			},
			{
				"x": 0.0375461245,
				"y": 3.6434115123,
				"z": -0.4334819264,
				"element": "H" 
			},
			{
				"x": -0.8307627997,
				"y": 2.7718183733,
				"z": -1.6989428009,
				"element": "H" 
			},
			{
				"x": 1.3766162415,
				"y": 1.9405818463,
				"z": -2.1690840596,
				"element": "H" 
			},
			{
				"x": 1.866464398,
				"y": 2.0327891745,
				"z": -0.4808844692,
				"element": "H" 
			},
			{
				"x": -2.1004792825,
				"y": -0.8324397603,
				"z": 0.8911980963,
				"element": "H" 
			},
			{
				"x": -1.0946642371,
				"y": -2.9622164322,
				"z": 0.1471915028,
				"element": "H" 
			}
		],
		 "valence_orbital": [ 
			{
				"type": "occ",
				"energy": -0.32359,
				"method": "rhf"
			},
			{
				"type": "occ",
				"energy": -0.28861,
				"method": "rhf"
			},
			{
				"type": "occ",
				"energy": -0.24789,
				"method": "rhf"
			},
			{
				"type": "occ",
				"energy": -0.23884,
				"method": "rhf"
			},
			{
				"type": "occ",
				"energy": -0.208,
				"method": "rhf"
			},
			{
				"type": "unocc",
				"energy": -0.00616,
				"method": "rhf"
			},
			{
				"type": "unocc",
				"energy": 0.00321,
				"method": "rhf"
			},
			{
				"type": "unocc",
				"energy": 0.05106,
				"method": "rhf"
			},
			{
				"type": "unocc",
				"energy": 0.06625,
				"method": "rhf"
			},
			{
				"type": "unocc",
				"energy": 0.10307,
				"method": "rhf"
			}
		],
		"cosmo_sigma_profile": { 
			"-0.025": 0.0,
			"-0.024": 0.0,
			"-0.023": 0.0,
			"-0.022": 0.0,
			"-0.021": 0.0,
			"-0.02": 0.0,
			"-0.019": 0.0,
			"-0.018": 0.0,
			"-0.017": 0.0,
			"-0.016": 0.0,
			"-0.015": 0.570552122856,
			"-0.014": 1.44560272218,
			"-0.013": 1.17457039442,
			"-0.012": 1.74761774444,
			"-0.011": 1.46119660525,
			"-0.01": 1.70121173322,
			"-0.009": 1.69189966239,
			"-0.008": 0.974029523211,
			"-0.007": 2.40028515456,
			"-0.006": 4.60211784404,
			"-0.005": 9.83306753059,
			"-0.004": 11.748685572,
			"-0.003": 21.7221860866,
			"-0.002": 28.8944674981,
			"-0.001": 30.1168071229,
			"0.0": 21.2509900314,
			"0.001": 16.2459659769,
			"0.002": 9.86642188084,
			"0.003": 8.86623257882,
			"0.004": 10.0223296205,
			"0.005": 10.9330300239,
			"0.006": 9.52055559168,
			"0.007": 3.32513319954,
			"0.008": 1.48916652,
			"0.009": 1.88892480881,
			"0.01": 1.54940554766,
			"0.011": 1.48287293309,
			"0.012": 2.26324512955,
			"0.013": 3.39220901558,
			"0.014": 2.40051389697,
			"0.015": 0.590516086044,
			"0.016": 0.0,
			"0.017": 0.0,
			"0.018": 0.0,
			"0.019": 0.0,
			"0.02": 0.0,
			"0.021": 0.0,
			"0.022": 0.0,
			"0.023": 0.0,
			"0.024": 0.0,
			"0.025": 0.0
		}
	}
}
