{
	 "smiles": "CN(C)C1=CC=C(C=C1)C1C2=C(CC(C)(C)CC2=O)NC2=C1C1=C(C=CC=C1)C=C2", 
	 "Tm": 600.15, 
	 "num_atms": 58, 
	 "gaussian": { 
		 "optdone": 1, 
		 "sigma_profile": "yes", 
		 "theory": "DFT", 
		 "functional": "B3LYP", 
		 "basiset": "6-31G**", 
		 "properties": { 
			 "R2extent": 13584.9842, 
			 "electric_dipole_moment_norm": 4.58810906039, 
			 "electric_quadrupole_moment_norm": 16.4416134896, 
			 "total_energy": -1230.50902145, 
			 "HOMO_LUMO_gap": 0.13545, 
			 "cosmo_polarized_energy": -21.2, 
			 "cosmo_cavitation_energy": 56.45, 
			 "cosmo_dispersion_energy": -38.56, 
			 "cosmo_repulsion_energy": 2.87, 
			 "cosmo_total_nonelectrostatic_energy": 20.77, 
			 "SMD_solvation_energy": 8.23 
		},
		"coords": [
			{
				"x": -6.2095864461,
				"y": -1.5812821799,
				"z": 1.1115323382,
				"element": "C" 
			},
			{
				"x": -5.5888107426,
				"y": -0.7035358073,
				"z": 0.1345933975,
				"element": "N" 
			},
			{
				"x": -6.1797772455,
				"y": -0.6530858189,
				"z": -1.1909343792,
				"element": "C" 
			},
			{
				"x": -4.241302101,
				"y": -0.3717188961,
				"z": 0.2857591694,
				"element": "C" 
			},
			{
				"x": -3.5171282956,
				"y": 0.2619156618,
				"z": -0.7479861329,
				"element": "C" 
			},
			{
				"x": -2.184788235,
				"y": 0.626488892,
				"z": -0.572811004,
				"element": "C" 
			},
			{
				"x": -1.5016111924,
				"y": 0.375933119,
				"z": 0.6221701285,
				"element": "C" 
			},
			{
				"x": -2.2124889395,
				"y": -0.2695160201,
				"z": 1.6418858924,
				"element": "C" 
			},
			{
				"x": -3.544837682,
				"y": -0.640527149,
				"z": 1.4846711581,
				"element": "C" 
			},
			{
				"x": -0.0214872949,
				"y": 0.7439088074,
				"z": 0.812569534,
				"element": "C" 
			},
			{
				"x": 0.8854990998,
				"y": -0.3826983081,
				"z": 0.3319361396,
				"element": "C" 
			},
			{
				"x": 1.5344468184,
				"y": -0.3140339272,
				"z": -0.8654829561,
				"element": "C" 
			},
			{
				"x": 2.3256240403,
				"y": -1.4564954818,
				"z": -1.4530737421,
				"element": "C" 
			},
			{
				"x": 2.9385364439,
				"y": -2.3847847857,
				"z": -0.3785923985,
				"element": "C" 
			},
			{
				"x": 3.4734127566,
				"y": -3.6594170327,
				"z": -1.052517921,
				"element": "C" 
			},
			{
				"x": 4.0985289038,
				"y": -1.6731944401,
				"z": 0.3461664196,
				"element": "C" 
			},
			{
				"x": 1.8223275993,
				"y": -2.7461700141,
				"z": 0.6234594769,
				"element": "C" 
			},
			{
				"x": 1.0615807968,
				"y": -1.549646049,
				"z": 1.1932736555,
				"element": "C" 
			},
			{
				"x": 0.6026468022,
				"y": -1.5983946544,
				"z": 2.3348568262,
				"element": "O" 
			},
			{
				"x": 1.4837197539,
				"y": 0.8389102104,
				"z": -1.6104487563,
				"element": "N" 
			},
			{
				"x": 1.0376963371,
				"y": 2.0529740118,
				"z": -1.0652218188,
				"element": "C" 
			},
			{
				"x": 0.345141324,
				"y": 2.0604995865,
				"z": 0.1374574048,
				"element": "C" 
			},
			{
				"x": -0.0414538343,
				"y": 3.321566878,
				"z": 0.6946095792,
				"element": "C" 
			},
			{
				"x": 0.2903093947,
				"y": 4.5380676489,
				"z": 0.0079708163,
				"element": "C" 
			},
			{
				"x": -0.0838229784,
				"y": 5.7857427315,
				"z": 0.5706682884,
				"element": "C" 
			},
			{
				"x": -0.7652560239,
				"y": 5.8487834993,
				"z": 1.7652878936,
				"element": "C" 
			},
			{
				"x": -1.1066010905,
				"y": 4.653964028,
				"z": 2.440017612,
				"element": "C" 
			},
			{
				"x": -0.7596587106,
				"y": 3.4260795404,
				"z": 1.9192090542,
				"element": "C" 
			},
			{
				"x": 0.983924706,
				"y": 4.4647912048,
				"z": -1.230192441,
				"element": "C" 
			},
			{
				"x": 1.3488142428,
				"y": 3.2540690523,
				"z": -1.7566916396,
				"element": "C" 
			},
			{
				"x": -5.7366414618,
				"y": -2.5755294572,
				"z": 1.1657610792,
				"element": "H" 
			},
			{
				"x": -7.2613153204,
				"y": -1.7171006697,
				"z": 0.8521141749,
				"element": "H" 
			},
			{
				"x": -6.1751059945,
				"y": -1.1386878235,
				"z": 2.1129741717,
				"element": "H" 
			},
			{
				"x": -7.2353474142,
				"y": -0.9230008392,
				"z": -1.1221221127,
				"element": "H" 
			},
			{
				"x": -5.6961335753,
				"y": -1.3353531074,
				"z": -1.909473055,
				"element": "H" 
			},
			{
				"x": -6.128690733,
				"y": 0.360211249,
				"z": -1.6043897743,
				"element": "H" 
			},
			{
				"x": -3.9922461821,
				"y": 0.4809482613,
				"z": -1.6966125234,
				"element": "H" 
			},
			{
				"x": -1.6733935295,
				"y": 1.1263421612,
				"z": -1.390957076,
				"element": "H" 
			},
			{
				"x": -1.6999398996,
				"y": -0.5132719859,
				"z": 2.5674352525,
				"element": "H" 
			},
			{
				"x": -4.0398355438,
				"y": -1.143919979,
				"z": 2.3062670931,
				"element": "H" 
			},
			{
				"x": 0.1449134701,
				"y": 0.8337328515,
				"z": 1.8916462213,
				"element": "H" 
			},
			{
				"x": 1.6599247315,
				"y": -2.0451398402,
				"z": -2.1012505157,
				"element": "H" 
			},
			{
				"x": 3.1211102699,
				"y": -1.0643512226,
				"z": -2.1020365565,
				"element": "H" 
			},
			{
				"x": 4.2576908804,
				"y": -3.4226161638,
				"z": -1.7812026441,
				"element": "H" 
			},
			{
				"x": 3.9045506426,
				"y": -4.3391953726,
				"z": -0.309772811,
				"element": "H" 
			},
			{
				"x": 2.6770077874,
				"y": -4.1988660411,
				"z": -1.5774825109,
				"element": "H" 
			},
			{
				"x": 4.9008315987,
				"y": -1.419728248,
				"z": -0.3564096308,
				"element": "H" 
			},
			{
				"x": 3.7696170552,
				"y": -0.7502312621,
				"z": 0.8321804719,
				"element": "H" 
			},
			{
				"x": 4.5245534798,
				"y": -2.3234002721,
				"z": 1.1174903864,
				"element": "H" 
			},
			{
				"x": 2.213305316,
				"y": -3.3232142759,
				"z": 1.467373674,
				"element": "H" 
			},
			{
				"x": 1.078792012,
				"y": -3.3837669263,
				"z": 0.1218778876,
				"element": "H" 
			},
			{
				"x": 2.0564867886,
				"y": 0.8905557632,
				"z": -2.4396180409,
				"element": "H" 
			},
			{
				"x": 0.1796054693,
				"y": 6.695714163,
				"z": 0.0369270293,
				"element": "H" 
			},
			{
				"x": -1.0463840312,
				"y": 6.809356745,
				"z": 2.1869635205,
				"element": "H" 
			},
			{
				"x": -1.6544954717,
				"y": 4.7041239565,
				"z": 3.3767258521,
				"element": "H" 
			},
			{
				"x": -1.0547663794,
				"y": 2.5243638124,
				"z": 2.4422959892,
				"element": "H" 
			},
			{
				"x": 1.2265887917,
				"y": 5.3852410778,
				"z": -1.7543108849,
				"element": "H" 
			},
			{
				"x": 1.8883190358,
				"y": 3.2006891381,
				"z": -2.6997362624,
				"element": "H" 
			}
		],
		 "valence_orbital": [ 
			{
				"type": "occ",
				"energy": -0.22865,
				"method": "rhf"
			},
			{
				"type": "occ",
				"energy": -0.22185,
				"method": "rhf"
			},
			{
				"type": "occ",
				"energy": -0.2162,
				"method": "rhf"
			},
			{
				"type": "occ",
				"energy": -0.18928,
				"method": "rhf"
			},
			{
				"type": "occ",
				"energy": -0.17487,
				"method": "rhf"
			},
			{
				"type": "unocc",
				"energy": -0.03942,
				"method": "rhf"
			},
			{
				"type": "unocc",
				"energy": -0.02204,
				"method": "rhf"
			},
			{
				"type": "unocc",
				"energy": 0.00623,
				"method": "rhf"
			},
			{
				"type": "unocc",
				"energy": 0.01942,
				"method": "rhf"
			},
			{
				"type": "unocc",
				"energy": 0.02882,
				"method": "rhf"
			}
		],
		"cosmo_sigma_profile": { 
			"-0.025": 0.0,
			"-0.024": 0.0,
			"-0.023": 0.0,
			"-0.022": 0.0,
			"-0.021": 0.0,
			"-0.02": 0.0,
			"-0.019": 0.0,
			"-0.018": 0.0,
			"-0.017": 0.0,
			"-0.016": 0.0036107206753,
			"-0.015": 0.855254970529,
			"-0.014": 1.49021365674,
			"-0.013": 1.35809293691,
			"-0.012": 1.63247513534,
			"-0.011": 1.22992336112,
			"-0.01": 2.00646927072,
			"-0.009": 1.35522630231,
			"-0.008": 1.9415225669,
			"-0.007": 3.00961086629,
			"-0.006": 10.6872041386,
			"-0.005": 24.6827151263,
			"-0.004": 35.5077563112,
			"-0.003": 50.912200489,
			"-0.002": 49.8955834596,
			"-0.001": 45.7707719084,
			"0.0": 35.3419655013,
			"0.001": 33.111803344,
			"0.002": 23.7334456439,
			"0.003": 20.4017466996,
			"0.004": 27.1319349548,
			"0.005": 24.5132300928,
			"0.006": 16.79698433,
			"0.007": 10.3651801635,
			"0.008": 7.53321827831,
			"0.009": 2.05570012215,
			"0.01": 1.11373399439,
			"0.011": 1.72913795466,
			"0.012": 2.00354605012,
			"0.013": 2.03349676485,
			"0.014": 3.22362692749,
			"0.015": 1.43473843466,
			"0.016": 0.296977366932,
			"0.017": 0.0,
			"0.018": 0.0,
			"0.019": 0.0,
			"0.02": 0.0,
			"0.021": 0.0,
			"0.022": 0.0,
			"0.023": 0.0,
			"0.024": 0.0,
			"0.025": 0.0
		}
	}
}
