{
	 "smiles": "OC(=O)C=CC1=CC=C(OC(F)(F)C(F)C(F)(F)F)C=C1", 
	 "Tm": 434.15, 
	 "num_atms": 29, 
	 "gaussian": { 
		 "optdone": 1, 
		 "sigma_profile": "yes", 
		 "theory": "DFT", 
		 "functional": "B3LYP", 
		 "basiset": "6-31G**", 
		 "properties": { 
			 "R2extent": 9447.8378, 
			 "electric_dipole_moment_norm": 1.9749910734, 
			 "electric_quadrupole_moment_norm": 23.6470817386, 
			 "total_energy": -1286.79843698, 
			 "HOMO_LUMO_gap": 0.16708, 
			 "cosmo_polarized_energy": -13.63, 
			 "cosmo_cavitation_energy": 37.24, 
			 "cosmo_dispersion_energy": -25.62, 
			 "cosmo_repulsion_energy": 1.84, 
			 "cosmo_total_nonelectrostatic_energy": 13.46, 
			 "SMD_solvation_energy": 9.9 
		},
		"coords": [
			{
				"x": 1.9703029062,
				"y": -5.5154583178,
				"z": -0.5108503461,
				"element": "O" 
			},
			{
				"x": 0.634258747,
				"y": -5.4457694962,
				"z": -0.7585604732,
				"element": "C" 
			},
			{
				"x": -0.0505663095,
				"y": -6.4416567781,
				"z": -0.8943767535,
				"element": "O" 
			},
			{
				"x": 0.1138674294,
				"y": -4.070743971,
				"z": -0.8432283889,
				"element": "C" 
			},
			{
				"x": 0.875220071,
				"y": -2.9706617229,
				"z": -0.6923233972,
				"element": "C" 
			},
			{
				"x": 0.4373936581,
				"y": -1.5756012446,
				"z": -0.7608274283,
				"element": "C" 
			},
			{
				"x": 1.3889229126,
				"y": -0.5582899162,
				"z": -0.5737337636,
				"element": "C" 
			},
			{
				"x": 1.0455947524,
				"y": 0.7913018202,
				"z": -0.6313915366,
				"element": "C" 
			},
			{
				"x": -0.2875975248,
				"y": 1.1343982395,
				"z": -0.8632210614,
				"element": "C" 
			},
			{
				"x": -0.7285304323,
				"y": 2.4492203333,
				"z": -1.001288746,
				"element": "O" 
			},
			{
				"x": -0.3608817841,
				"y": 3.4286042882,
				"z": -0.1115237565,
				"element": "C" 
			},
			{
				"x": -0.9732452156,
				"y": 4.5500957815,
				"z": -0.5281748105,
				"element": "F" 
			},
			{
				"x": 0.9846554947,
				"y": 3.6659007267,
				"z": -0.1556380589,
				"element": "F" 
			},
			{
				"x": -0.7195033952,
				"y": 3.1271213227,
				"z": 1.3572016085,
				"element": "C" 
			},
			{
				"x": -0.1910583746,
				"y": 4.1239351031,
				"z": 2.1420680161,
				"element": "F" 
			},
			{
				"x": -2.2232638873,
				"y": 3.0671438427,
				"z": 1.646637162,
				"element": "C" 
			},
			{
				"x": -2.8073609859,
				"y": 2.1014820893,
				"z": 0.9087574621,
				"element": "F" 
			},
			{
				"x": -2.8359592069,
				"y": 4.2280733447,
				"z": 1.3914297361,
				"element": "F" 
			},
			{
				"x": -2.4102780646,
				"y": 2.7695588387,
				"z": 2.9442429892,
				"element": "F" 
			},
			{
				"x": -1.2578472138,
				"y": 0.1463909803,
				"z": -1.057531476,
				"element": "C" 
			},
			{
				"x": -0.8958020484,
				"y": -1.192095682,
				"z": -1.0096092753,
				"element": "C" 
			},
			{
				"x": 2.1796168878,
				"y": -6.4630291422,
				"z": -0.4808049943,
				"element": "H" 
			},
			{
				"x": -0.9518124439,
				"y": -4.0268949094,
				"z": -1.0408048648,
				"element": "H" 
			},
			{
				"x": 1.9349930447,
				"y": -3.1181970585,
				"z": -0.4969517127,
				"element": "H" 
			},
			{
				"x": 2.4250348118,
				"y": -0.8294873494,
				"z": -0.390897664,
				"element": "H" 
			},
			{
				"x": 1.7990327453,
				"y": 1.558372927,
				"z": -0.5114818484,
				"element": "H" 
			},
			{
				"x": -0.2814838358,
				"y": 2.1653051712,
				"z": 1.6413902673,
				"element": "H" 
			},
			{
				"x": -2.2829824273,
				"y": 0.4481756113,
				"z": -1.2385434891,
				"element": "H" 
			},
			{
				"x": -1.6601203111,
				"y": -1.9468948321,
				"z": -1.161863396,
				"element": "H" 
			}
		],
		 "valence_orbital": [ 
			{
				"type": "occ",
				"energy": -0.32169,
				"method": "rhf"
			},
			{
				"type": "occ",
				"energy": -0.31031,
				"method": "rhf"
			},
			{
				"type": "occ",
				"energy": -0.28256,
				"method": "rhf"
			},
			{
				"type": "occ",
				"energy": -0.27686,
				"method": "rhf"
			},
			{
				"type": "occ",
				"energy": -0.24589,
				"method": "rhf"
			},
			{
				"type": "unocc",
				"energy": -0.07881,
				"method": "rhf"
			},
			{
				"type": "unocc",
				"energy": -0.0321,
				"method": "rhf"
			},
			{
				"type": "unocc",
				"energy": 0.00558,
				"method": "rhf"
			},
			{
				"type": "unocc",
				"energy": 0.04476,
				"method": "rhf"
			},
			{
				"type": "unocc",
				"energy": 0.06923,
				"method": "rhf"
			}
		],
		"cosmo_sigma_profile": { 
			"-0.025": 0.0,
			"-0.024": 0.0,
			"-0.023": 0.0,
			"-0.022": 0.0,
			"-0.021": 0.0,
			"-0.02": 0.0,
			"-0.019": 0.0141619555179,
			"-0.018": 0.470125286864,
			"-0.017": 0.860030552386,
			"-0.016": 0.975546579655,
			"-0.015": 1.2095211653,
			"-0.014": 0.122297518315,
			"-0.013": 0.703241583633,
			"-0.012": 0.822994088342,
			"-0.011": 2.57574408439,
			"-0.01": 2.25924610107,
			"-0.009": 3.54864416764,
			"-0.008": 7.71657692571,
			"-0.007": 10.9175860719,
			"-0.006": 10.093474029,
			"-0.005": 11.7461307577,
			"-0.004": 8.59201184922,
			"-0.003": 11.4326218994,
			"-0.002": 13.408824941,
			"-0.001": 17.3117197142,
			"0.0": 24.0265519598,
			"0.001": 43.9069908902,
			"0.002": 62.6702062446,
			"0.003": 28.4916022943,
			"0.004": 7.02299747343,
			"0.005": 4.14412956818,
			"0.006": 4.19096922273,
			"0.007": 2.79632538362,
			"0.008": 3.08009384779,
			"0.009": 1.34082488389,
			"0.01": 1.91340585613,
			"0.011": 2.57030069899,
			"0.012": 5.4858609282,
			"0.013": 2.18299885595,
			"0.014": 0.0862226190531,
			"0.015": 0.0,
			"0.016": 0.0,
			"0.017": 0.0,
			"0.018": 0.0,
			"0.019": 0.0,
			"0.02": 0.0,
			"0.021": 0.0,
			"0.022": 0.0,
			"0.023": 0.0,
			"0.024": 0.0,
			"0.025": 0.0
		}
	}
}
