{
	 "smiles": "CC(C)[C@@H](N(C)C)C(O)=O", 
	 "Tm": 428.15, 
	 "num_atms": 25, 
	 "gaussian": { 
		 "optdone": 1, 
		 "sigma_profile": "yes", 
		 "theory": "DFT", 
		 "functional": "B3LYP", 
		 "basiset": "6-31G**", 
		 "properties": { 
			 "R2extent": 1657.8583, 
			 "electric_dipole_moment_norm": 1.23427131944, 
			 "electric_quadrupole_moment_norm": 6.81492679344, 
			 "total_energy": -480.995292141, 
			 "HOMO_LUMO_gap": 0.2178, 
			 "cosmo_polarized_energy": -8.39, 
			 "cosmo_cavitation_energy": 26.23, 
			 "cosmo_dispersion_energy": -18.25, 
			 "cosmo_repulsion_energy": 1.49, 
			 "cosmo_total_nonelectrostatic_energy": 9.46, 
			 "SMD_solvation_energy": 4.96 
		},
		"coords": [
			{
				"x": 0.0596689542,
				"y": -2.4096932881,
				"z": -0.1426894927,
				"element": "C" 
			},
			{
				"x": -0.4125804119,
				"y": -1.2637161956,
				"z": 0.7606954995,
				"element": "C" 
			},
			{
				"x": 0.2381559949,
				"y": -1.3576754035,
				"z": 2.1504293527,
				"element": "C" 
			},
			{
				"x": -0.1145196847,
				"y": 0.1099690456,
				"z": 0.1182956093,
				"element": "C" 
			},
			{
				"x": -0.6126723258,
				"y": 0.2313935929,
				"z": -1.2619950166,
				"element": "N" 
			},
			{
				"x": 0.0143188365,
				"y": 1.3040316033,
				"z": -2.0261123594,
				"element": "C" 
			},
			{
				"x": -2.064758636,
				"y": 0.2251277005,
				"z": -1.4210437332,
				"element": "C" 
			},
			{
				"x": -0.6660163727,
				"y": 1.2513330803,
				"z": 0.9816847321,
				"element": "C" 
			},
			{
				"x": 0.1733947286,
				"y": 2.3173893836,
				"z": 1.0215794901,
				"element": "O" 
			},
			{
				"x": -1.7591474177,
				"y": 1.2721906254,
				"z": 1.509219367,
				"element": "O" 
			},
			{
				"x": -0.1980570685,
				"y": -3.3772277514,
				"z": 0.3008848752,
				"element": "H" 
			},
			{
				"x": -0.3885412477,
				"y": -2.3490416176,
				"z": -1.1364538934,
				"element": "H" 
			},
			{
				"x": 1.1491417491,
				"y": -2.3823744851,
				"z": -0.268983773,
				"element": "H" 
			},
			{
				"x": -1.4973220484,
				"y": -1.3402943728,
				"z": 0.9017749862,
				"element": "H" 
			},
			{
				"x": 1.3285427716,
				"y": -1.2564235461,
				"z": 2.0839835752,
				"element": "H" 
			},
			{
				"x": -0.1369897119,
				"y": -0.5870171652,
				"z": 2.8303393156,
				"element": "H" 
			},
			{
				"x": 0.0249517331,
				"y": -2.329697812,
				"z": 2.6064515537,
				"element": "H" 
			},
			{
				"x": 0.9730540087,
				"y": 0.2332950593,
				"z": 0.0622824585,
				"element": "H" 
			},
			{
				"x": -0.2599586419,
				"y": 1.1959747705,
				"z": -3.0809286313,
				"element": "H" 
			},
			{
				"x": 1.1030875651,
				"y": 1.2264653611,
				"z": -1.9490416109,
				"element": "H" 
			},
			{
				"x": -0.2756703731,
				"y": 2.3197495891,
				"z": -1.7038839361,
				"element": "H" 
			},
			{
				"x": -2.2960662061,
				"y": 0.1389068753,
				"z": -2.4878119679,
				"element": "H" 
			},
			{
				"x": -2.5006400631,
				"y": -0.6378153092,
				"z": -0.9133190396,
				"element": "H" 
			},
			{
				"x": -2.5628284467,
				"y": 1.1296242075,
				"z": -1.033165563,
				"element": "H" 
			},
			{
				"x": -0.2943476856,
				"y": 3.0092260522,
				"z": 1.5216082022,
				"element": "H" 
			}
		],
		 "valence_orbital": [ 
			{
				"type": "occ",
				"energy": -0.3303,
				"method": "rhf"
			},
			{
				"type": "occ",
				"energy": -0.32238,
				"method": "rhf"
			},
			{
				"type": "occ",
				"energy": -0.31533,
				"method": "rhf"
			},
			{
				"type": "occ",
				"energy": -0.27941,
				"method": "rhf"
			},
			{
				"type": "occ",
				"energy": -0.21158,
				"method": "rhf"
			},
			{
				"type": "unocc",
				"energy": 0.00622,
				"method": "rhf"
			},
			{
				"type": "unocc",
				"energy": 0.0731,
				"method": "rhf"
			},
			{
				"type": "unocc",
				"energy": 0.09154,
				"method": "rhf"
			},
			{
				"type": "unocc",
				"energy": 0.11357,
				"method": "rhf"
			},
			{
				"type": "unocc",
				"energy": 0.11411,
				"method": "rhf"
			}
		],
		"cosmo_sigma_profile": { 
			"-0.025": 0.0,
			"-0.024": 0.0,
			"-0.023": 0.0,
			"-0.022": 0.0,
			"-0.021": 0.0,
			"-0.02": 0.0,
			"-0.019": 0.0,
			"-0.018": 0.394911320981,
			"-0.017": 0.947726806114,
			"-0.016": 1.23227423368,
			"-0.015": 0.323695040589,
			"-0.014": 0.444170805791,
			"-0.013": 0.362094610881,
			"-0.012": 1.07387719706,
			"-0.011": 1.23798167725,
			"-0.01": 0.915194837097,
			"-0.009": 0.416707200561,
			"-0.008": 0.376002947103,
			"-0.007": 0.505675059663,
			"-0.006": 1.3824397633,
			"-0.005": 4.27127645559,
			"-0.004": 11.8252559204,
			"-0.003": 19.441287045,
			"-0.002": 27.6568245164,
			"-0.001": 32.2405069891,
			"0.0": 27.3247010339,
			"0.001": 19.226687548,
			"0.002": 11.5082025621,
			"0.003": 4.91636740759,
			"0.004": 4.47417636977,
			"0.005": 4.3411868892,
			"0.006": 3.95790169471,
			"0.007": 4.34582935426,
			"0.008": 2.49404487688,
			"0.009": 3.23478980013,
			"0.01": 3.11663360038,
			"0.011": 2.97847230693,
			"0.012": 4.51556615739,
			"0.013": 0.893381890276,
			"0.014": 0.0,
			"0.015": 0.0,
			"0.016": 0.0,
			"0.017": 0.0,
			"0.018": 0.0,
			"0.019": 0.0,
			"0.02": 0.0,
			"0.021": 0.0,
			"0.022": 0.0,
			"0.023": 0.0,
			"0.024": 0.0,
			"0.025": 0.0
		}
	}
}
