{
	 "smiles": "[O-][N+](=O)C1=CC2=C(C=C1)C(=O)C(C1=CC(=CC=C1)C1=[N+]([O-])C3=CC(=CC=C3C1=O)[N+]([O-])=O)=[N+]2[O-]", 
	 "Tm": 560.15, 
	 "num_atms": 44, 
	 "gaussian": { 
		 "optdone": 1, 
		 "sigma_profile": "yes", 
		 "theory": "DFT", 
		 "functional": "B3LYP", 
		 "basiset": "6-31G**", 
		 "properties": { 
			 "R2extent": 25597.9049, 
			 "electric_dipole_moment_norm": 5.20196426554, 
			 "electric_quadrupole_moment_norm": 28.62333508, 
			 "total_energy": -1664.82333126, 
			 "HOMO_LUMO_gap": 0.09497, 
			 "cosmo_polarized_energy": -22.93, 
			 "cosmo_cavitation_energy": 53.17, 
			 "cosmo_dispersion_energy": -38.05, 
			 "cosmo_repulsion_energy": 2.67, 
			 "cosmo_total_nonelectrostatic_energy": 17.79, 
			 "SMD_solvation_energy": 15.58 
		},
		"coords": [
			{
				"x": 3.4796409945,
				"y": -7.612629666,
				"z": 2.7868757857,
				"element": "O" 
			},
			{
				"x": 3.3553764068,
				"y": -6.3903033738,
				"z": 2.8182077451,
				"element": "N" 
			},
			{
				"x": 4.1016672888,
				"y": -5.6168319652,
				"z": 3.4132992092,
				"element": "O" 
			},
			{
				"x": 2.2186708656,
				"y": -5.7997510027,
				"z": 2.0825520529,
				"element": "C" 
			},
			{
				"x": 2.067051646,
				"y": -4.4043308979,
				"z": 2.1112405472,
				"element": "C" 
			},
			{
				"x": 0.9853218699,
				"y": -3.9390774341,
				"z": 1.4018486111,
				"element": "C" 
			},
			{
				"x": 0.0992090495,
				"y": -4.7476701322,
				"z": 0.7062328215,
				"element": "C" 
			},
			{
				"x": 0.2662409197,
				"y": -6.1225911856,
				"z": 0.6902336344,
				"element": "C" 
			},
			{
				"x": 1.3552524703,
				"y": -6.6544392491,
				"z": 1.3982179088,
				"element": "C" 
			},
			{
				"x": -0.9171178621,
				"y": -3.8370184991,
				"z": 0.0855749934,
				"element": "C" 
			},
			{
				"x": -1.8573425369,
				"y": -4.1934817024,
				"z": -0.6040180793,
				"element": "O" 
			},
			{
				"x": -0.5303698191,
				"y": -2.4512198048,
				"z": 0.4885047724,
				"element": "C" 
			},
			{
				"x": -1.2023877388,
				"y": -1.2053179843,
				"z": 0.1400705881,
				"element": "C" 
			},
			{
				"x": -0.7298977687,
				"y": 0.0465279856,
				"z": 0.5849185303,
				"element": "C" 
			},
			{
				"x": -1.4033573849,
				"y": 1.2334379267,
				"z": 0.2300264371,
				"element": "C" 
			},
			{
				"x": -2.5595909971,
				"y": 1.1544392206,
				"z": -0.5778362025,
				"element": "C" 
			},
			{
				"x": -3.0201706659,
				"y": -0.0832395219,
				"z": -1.0134355995,
				"element": "C" 
			},
			{
				"x": -2.3605275154,
				"y": -1.2574444228,
				"z": -0.6672452333,
				"element": "C" 
			},
			{
				"x": -0.9417320412,
				"y": 2.5435815568,
				"z": 0.6724192925,
				"element": "C" 
			},
			{
				"x": 0.1450669112,
				"y": 2.7674403115,
				"z": 1.439372581,
				"element": "N" 
			},
			{
				"x": 0.9693516395,
				"y": 1.9539821664,
				"z": 1.9269104919,
				"element": "O" 
			},
			{
				"x": 0.3201692759,
				"y": 4.1888428217,
				"z": 1.6951199697,
				"element": "C" 
			},
			{
				"x": 1.320218347,
				"y": 4.7720637274,
				"z": 2.4364562868,
				"element": "C" 
			},
			{
				"x": 1.2393109891,
				"y": 6.1714985511,
				"z": 2.5141984335,
				"element": "C" 
			},
			{
				"x": 0.2372716371,
				"y": 6.9204842373,
				"z": 1.8983706858,
				"element": "C" 
			},
			{
				"x": -0.7589378747,
				"y": 6.2704629162,
				"z": 1.153319406,
				"element": "C" 
			},
			{
				"x": -0.696748684,
				"y": 4.8895909982,
				"z": 1.0644561217,
				"element": "C" 
			},
			{
				"x": -1.5573458564,
				"y": 3.8725612112,
				"z": 0.3770828134,
				"element": "C" 
			},
			{
				"x": -2.5528852786,
				"y": 4.1192946041,
				"z": -0.2822058676,
				"element": "O" 
			},
			{
				"x": 2.2733084271,
				"y": 6.8850169079,
				"z": 3.2912357981,
				"element": "N" 
			},
			{
				"x": 2.1938843122,
				"y": 8.109900028,
				"z": 3.3532778866,
				"element": "O" 
			},
			{
				"x": 3.1452098294,
				"y": 6.2031933991,
				"z": 3.824381689,
				"element": "O" 
			},
			{
				"x": 0.5776477075,
				"y": -2.5506895894,
				"z": 1.2513090993,
				"element": "N" 
			},
			{
				"x": 1.2551523819,
				"y": -1.6521146668,
				"z": 1.8102436446,
				"element": "O" 
			},
			{
				"x": 2.7474321438,
				"y": -3.7570898872,
				"z": 2.6479402289,
				"element": "H" 
			},
			{
				"x": -0.4219591834,
				"y": -6.7625984201,
				"z": 0.1488046016,
				"element": "H" 
			},
			{
				"x": 1.5462521166,
				"y": -7.7196850999,
				"z": 1.4287530573,
				"element": "H" 
			},
			{
				"x": 0.1529661783,
				"y": 0.0965665473,
				"z": 1.2009484732,
				"element": "H" 
			},
			{
				"x": -3.0819314599,
				"y": 2.0609889553,
				"z": -0.8537879305,
				"element": "H" 
			},
			{
				"x": -3.909567541,
				"y": -0.1336402465,
				"z": -1.6341501575,
				"element": "H" 
			},
			{
				"x": -2.7287486202,
				"y": -2.2144318306,
				"z": -1.0128067239,
				"element": "H" 
			},
			{
				"x": 2.1054585175,
				"y": 4.207898932,
				"z": 2.9212296467,
				"element": "H" 
			},
			{
				"x": 0.2504084977,
				"y": 7.9973142464,
				"z": 2.0098857126,
				"element": "H" 
			},
			{
				"x": -1.5507215943,
				"y": 6.8266093319,
				"z": 0.6632662368,
				"element": "H" 
			}
		],
		 "valence_orbital": [ 
			{
				"type": "occ",
				"energy": -0.29071,
				"method": "rhf"
			},
			{
				"type": "occ",
				"energy": -0.28469,
				"method": "rhf"
			},
			{
				"type": "occ",
				"energy": -0.281,
				"method": "rhf"
			},
			{
				"type": "occ",
				"energy": -0.24512,
				"method": "rhf"
			},
			{
				"type": "occ",
				"energy": -0.23155,
				"method": "rhf"
			},
			{
				"type": "unocc",
				"energy": -0.13658,
				"method": "rhf"
			},
			{
				"type": "unocc",
				"energy": -0.13658,
				"method": "rhf"
			},
			{
				"type": "unocc",
				"energy": -0.10309,
				"method": "rhf"
			},
			{
				"type": "unocc",
				"energy": -0.10189,
				"method": "rhf"
			},
			{
				"type": "unocc",
				"energy": -0.06154,
				"method": "rhf"
			}
		],
		"cosmo_sigma_profile": { 
			"-0.025": 0.0,
			"-0.024": 0.0,
			"-0.023": 0.0,
			"-0.022": 0.0,
			"-0.021": 0.0,
			"-0.02": 0.0,
			"-0.019": 0.0,
			"-0.018": 0.0,
			"-0.017": 0.0,
			"-0.016": 0.0,
			"-0.015": 0.0,
			"-0.014": 0.0,
			"-0.013": 0.0,
			"-0.012": 0.0,
			"-0.011": 0.0,
			"-0.01": 0.382990286677,
			"-0.009": 7.36077127437,
			"-0.008": 14.9339880993,
			"-0.007": 17.4612288064,
			"-0.006": 19.701237797,
			"-0.005": 25.5616381513,
			"-0.004": 29.8310713131,
			"-0.003": 46.3799168714,
			"-0.002": 42.0167498843,
			"-0.001": 29.2229555259,
			"0.0": 22.0153030308,
			"0.001": 21.6948598675,
			"0.002": 24.5033753518,
			"0.003": 16.5998279754,
			"0.004": 11.30164435,
			"0.005": 13.7555408297,
			"0.006": 16.8685793168,
			"0.007": 24.5839595398,
			"0.008": 21.2309737731,
			"0.009": 21.3895539144,
			"0.01": 5.65262171951,
			"0.011": 0.349768133335,
			"0.012": 0.0,
			"0.013": 0.0,
			"0.014": 0.0,
			"0.015": 0.0,
			"0.016": 0.0,
			"0.017": 0.0,
			"0.018": 0.0,
			"0.019": 0.0,
			"0.02": 0.0,
			"0.021": 0.0,
			"0.022": 0.0,
			"0.023": 0.0,
			"0.024": 0.0,
			"0.025": 0.0
		}
	}
}
