{
	 "smiles": "CCOC1=CC=C(C=C1)C(C)O", 
	 "Tm": 320.15, 
	 "num_atms": 26, 
	 "gaussian": { 
		 "optdone": 1, 
		 "sigma_profile": "yes", 
		 "theory": "DFT", 
		 "functional": "B3LYP", 
		 "basiset": "6-31G**", 
		 "properties": { 
			 "R2extent": 3257.1177, 
			 "electric_dipole_moment_norm": 2.71027706886, 
			 "electric_quadrupole_moment_norm": 3.2240958469, 
			 "total_energy": -539.945562487, 
			 "HOMO_LUMO_gap": 0.21226, 
			 "cosmo_polarized_energy": -8.84, 
			 "cosmo_cavitation_energy": 28.9, 
			 "cosmo_dispersion_energy": -21.01, 
			 "cosmo_repulsion_energy": 1.71, 
			 "cosmo_total_nonelectrostatic_energy": 9.61, 
			 "SMD_solvation_energy": 5.36 
		},
		"coords": [
			{
				"x": 4.0971440531,
				"y": -1.971440926,
				"z": 1.1683908025,
				"element": "C" 
			},
			{
				"x": 2.5956488028,
				"y": -1.7677698913,
				"z": 1.0633982833,
				"element": "C" 
			},
			{
				"x": 2.3647624972,
				"y": -0.7767158555,
				"z": 0.0643281198,
				"element": "O" 
			},
			{
				"x": 1.078438721,
				"y": -0.4213656507,
				"z": -0.2231217618,
				"element": "C" 
			},
			{
				"x": 0.9232438044,
				"y": 0.5565519999,
				"z": -1.2183784352,
				"element": "C" 
			},
			{
				"x": -0.3450751881,
				"y": 0.9873441694,
				"z": -1.5837817644,
				"element": "C" 
			},
			{
				"x": -1.4938118192,
				"y": 0.46167005,
				"z": -0.9699888778,
				"element": "C" 
			},
			{
				"x": -1.3245442398,
				"y": -0.5026399457,
				"z": 0.0244333773,
				"element": "C" 
			},
			{
				"x": -0.0555980182,
				"y": -0.9530226589,
				"z": 0.402066875,
				"element": "C" 
			},
			{
				"x": -2.8793584003,
				"y": 0.9165143242,
				"z": -1.4001754847,
				"element": "C" 
			},
			{
				"x": -3.3750733288,
				"y": 0.1872785503,
				"z": -2.6497661617,
				"element": "C" 
			},
			{
				"x": -2.9091940172,
				"y": 2.3088801522,
				"z": -1.7199222876,
				"element": "O" 
			},
			{
				"x": 4.5937553338,
				"y": -1.03828149,
				"z": 1.4485688593,
				"element": "H" 
			},
			{
				"x": 4.3227390533,
				"y": -2.7268883959,
				"z": 1.9273487556,
				"element": "H" 
			},
			{
				"x": 4.5081692847,
				"y": -2.30614832,
				"z": 0.2118909583,
				"element": "H" 
			},
			{
				"x": 2.0921007311,
				"y": -2.7048890827,
				"z": 0.7856722593,
				"element": "H" 
			},
			{
				"x": 2.177909229,
				"y": -1.4359750332,
				"z": 2.0248783629,
				"element": "H" 
			},
			{
				"x": 1.8144657984,
				"y": 0.9617229403,
				"z": -1.6870645323,
				"element": "H" 
			},
			{
				"x": -0.4596374107,
				"y": 1.7506042671,
				"z": -2.3478082529,
				"element": "H" 
			},
			{
				"x": -2.1980388601,
				"y": -0.9171667562,
				"z": 0.5235538194,
				"element": "H" 
			},
			{
				"x": 0.0340908825,
				"y": -1.7014645947,
				"z": 1.1803751397,
				"element": "H" 
			},
			{
				"x": -3.5809574631,
				"y": 0.7045205265,
				"z": -0.5755052631,
				"element": "H" 
			},
			{
				"x": -3.4354307831,
				"y": -0.8896447719,
				"z": -2.4687062134,
				"element": "H" 
			},
			{
				"x": -2.6893178985,
				"y": 0.3614543017,
				"z": -3.4843706433,
				"element": "H" 
			},
			{
				"x": -4.3659338699,
				"y": 0.5563868137,
				"z": -2.9310506915,
				"element": "H" 
			},
			{
				"x": -2.5291968947,
				"y": 2.7861852774,
				"z": -0.9702652425,
				"element": "H" 
			}
		],
		 "valence_orbital": [ 
			{
				"type": "occ",
				"energy": -0.318,
				"method": "rhf"
			},
			{
				"type": "occ",
				"energy": -0.3092,
				"method": "rhf"
			},
			{
				"type": "occ",
				"energy": -0.26684,
				"method": "rhf"
			},
			{
				"type": "occ",
				"energy": -0.24802,
				"method": "rhf"
			},
			{
				"type": "occ",
				"energy": -0.21254,
				"method": "rhf"
			},
			{
				"type": "unocc",
				"energy": -0.00028,
				"method": "rhf"
			},
			{
				"type": "unocc",
				"energy": 0.01197,
				"method": "rhf"
			},
			{
				"type": "unocc",
				"energy": 0.09046,
				"method": "rhf"
			},
			{
				"type": "unocc",
				"energy": 0.09704,
				"method": "rhf"
			},
			{
				"type": "unocc",
				"energy": 0.1036,
				"method": "rhf"
			}
		],
		"cosmo_sigma_profile": { 
			"-0.025": 0.0,
			"-0.024": 0.0,
			"-0.023": 0.0,
			"-0.022": 0.0,
			"-0.021": 0.0,
			"-0.02": 0.0,
			"-0.019": 0.0,
			"-0.018": 0.0,
			"-0.017": 0.0,
			"-0.016": 0.0,
			"-0.015": 0.508209417817,
			"-0.014": 0.85970007938,
			"-0.013": 0.847550215496,
			"-0.012": 1.1085492637,
			"-0.011": 0.483335928516,
			"-0.01": 0.520798133705,
			"-0.009": 0.648922205268,
			"-0.008": 0.986668961154,
			"-0.007": 1.38195237348,
			"-0.006": 3.63401911358,
			"-0.005": 11.2773823312,
			"-0.004": 23.2030963196,
			"-0.003": 27.9830227375,
			"-0.002": 23.0998458406,
			"-0.001": 21.9223331635,
			"0.0": 21.9943823582,
			"0.001": 17.1288724486,
			"0.002": 9.21560497805,
			"0.003": 9.21985063897,
			"0.004": 11.8018822001,
			"0.005": 11.5743728685,
			"0.006": 10.4898210447,
			"0.007": 2.45250377253,
			"0.008": 2.71838955015,
			"0.009": 2.62633753672,
			"0.01": 2.65343088446,
			"0.011": 1.13301949742,
			"0.012": 1.57240365969,
			"0.013": 1.27350223292,
			"0.014": 1.91224738514,
			"0.015": 0.326959282489,
			"0.016": 0.0,
			"0.017": 0.0,
			"0.018": 0.0,
			"0.019": 0.0,
			"0.02": 0.0,
			"0.021": 0.0,
			"0.022": 0.0,
			"0.023": 0.0,
			"0.024": 0.0,
			"0.025": 0.0
		}
	}
}
