{
	 "smiles": "OC(=O)C(CC1=CC=C(Cl)C=C1)NC(=O)OCC1C2=C(C=CC=C2)C2=C1C=CC=C2", 
	 "Tm": 420.15, 
	 "num_atms": 50, 
	 "gaussian": { 
		 "optdone": 1, 
		 "sigma_profile": "yes", 
		 "theory": "DFT", 
		 "functional": "B3LYP", 
		 "basiset": "6-31G**", 
		 "properties": { 
			 "R2extent": 13162.0944, 
			 "electric_dipole_moment_norm": 4.35111030543, 
			 "electric_quadrupole_moment_norm": 24.3054509312, 
			 "total_energy": -1742.50804229, 
			 "HOMO_LUMO_gap": 0.1842, 
			 "cosmo_polarized_energy": -19.62, 
			 "cosmo_cavitation_energy": 56.29, 
			 "cosmo_dispersion_energy": -34.8, 
			 "cosmo_repulsion_energy": 2.62, 
			 "cosmo_total_nonelectrostatic_energy": 24.1, 
			 "SMD_solvation_energy": 9.91 
		},
		"coords": [
			{
				"x": -0.7683173031,
				"y": -4.8908053747,
				"z": 1.9515099158,
				"element": "O" 
			},
			{
				"x": -0.4514041037,
				"y": -3.7801636254,
				"z": 2.6510530767,
				"element": "C" 
			},
			{
				"x": -0.8261053977,
				"y": -3.5828234179,
				"z": 3.7854550338,
				"element": "O" 
			},
			{
				"x": 0.4136769267,
				"y": -2.8286494559,
				"z": 1.8347272498,
				"element": "C" 
			},
			{
				"x": -0.3206424486,
				"y": -2.3546604004,
				"z": 0.5425115875,
				"element": "C" 
			},
			{
				"x": -1.6313859084,
				"y": -1.6435189698,
				"z": 0.7916361177,
				"element": "C" 
			},
			{
				"x": -2.844712216,
				"y": -2.3457340906,
				"z": 0.7710472454,
				"element": "C" 
			},
			{
				"x": -4.0591468711,
				"y": -1.7050211443,
				"z": 1.0168592743,
				"element": "C" 
			},
			{
				"x": -4.0585604555,
				"y": -0.337960249,
				"z": 1.2875691147,
				"element": "C" 
			},
			{
				"x": -5.5842896242,
				"y": 0.4845219845,
				"z": 1.5933236998,
				"element": "Cl" 
			},
			{
				"x": -2.8694815138,
				"y": 0.3890652863,
				"z": 1.310613269,
				"element": "C" 
			},
			{
				"x": -1.6647711177,
				"y": -0.2679276678,
				"z": 1.0610884946,
				"element": "C" 
			},
			{
				"x": 0.8101667673,
				"y": -1.7472271031,
				"z": 2.7137230125,
				"element": "N" 
			},
			{
				"x": 1.9330624006,
				"y": -0.9864703461,
				"z": 2.5938846379,
				"element": "C" 
			},
			{
				"x": 2.2847121811,
				"y": -0.1432663143,
				"z": 3.3988963786,
				"element": "O" 
			},
			{
				"x": 2.6064535651,
				"y": -1.3002069872,
				"z": 1.4450884689,
				"element": "O" 
			},
			{
				"x": 3.7960313198,
				"y": -0.5418422075,
				"z": 1.174440683,
				"element": "C" 
			},
			{
				"x": 3.6213846678,
				"y": 0.3421191815,
				"z": -0.066441148,
				"element": "C" 
			},
			{
				"x": 3.3644895017,
				"y": -0.4041795667,
				"z": -1.3679517694,
				"element": "C" 
			},
			{
				"x": 2.2175695753,
				"y": 0.1094263126,
				"z": -2.0069389235,
				"element": "C" 
			},
			{
				"x": 1.7999465365,
				"y": -0.4082607165,
				"z": -3.2352539478,
				"element": "C" 
			},
			{
				"x": 2.5361057826,
				"y": -1.4436649951,
				"z": -3.8159798665,
				"element": "C" 
			},
			{
				"x": 3.6742208684,
				"y": -1.9528864468,
				"z": -3.1813815307,
				"element": "C" 
			},
			{
				"x": 4.096003397,
				"y": -1.4317811869,
				"z": -1.9523384155,
				"element": "C" 
			},
			{
				"x": 1.6534658398,
				"y": 1.1776419647,
				"z": -1.1693549434,
				"element": "C" 
			},
			{
				"x": 2.449419939,
				"y": 1.3128786553,
				"z": -0.0125972854,
				"element": "C" 
			},
			{
				"x": 2.1206721098,
				"y": 2.2447039786,
				"z": 0.9662326069,
				"element": "C" 
			},
			{
				"x": 0.9950583146,
				"y": 3.0562692586,
				"z": 0.77646369,
				"element": "C" 
			},
			{
				"x": 0.213814509,
				"y": 2.9340954205,
				"z": -0.3782313927,
				"element": "C" 
			},
			{
				"x": 0.5343570423,
				"y": 1.991634295,
				"z": -1.3586429056,
				"element": "C" 
			},
			{
				"x": -1.3260266277,
				"y": -5.4324752436,
				"z": 2.5354013909,
				"element": "H" 
			},
			{
				"x": 1.3001251886,
				"y": -3.3859881455,
				"z": 1.5118473768,
				"element": "H" 
			},
			{
				"x": 0.3784001691,
				"y": -1.6992631421,
				"z": 0.01652424,
				"element": "H" 
			},
			{
				"x": -0.4799171252,
				"y": -3.2346550256,
				"z": -0.0879256584,
				"element": "H" 
			},
			{
				"x": -2.8430096444,
				"y": -3.4108304605,
				"z": 0.554939575,
				"element": "H" 
			},
			{
				"x": -4.9931580335,
				"y": -2.2556229772,
				"z": 0.9941922222,
				"element": "H" 
			},
			{
				"x": -2.8853278845,
				"y": 1.4539913823,
				"z": 1.5143392516,
				"element": "H" 
			},
			{
				"x": -0.7424451334,
				"y": 0.3041948153,
				"z": 1.0672013288,
				"element": "H" 
			},
			{
				"x": 0.3005193106,
				"y": -1.65081805,
				"z": 3.5818357618,
				"element": "H" 
			},
			{
				"x": 4.0351656869,
				"y": 0.060494064,
				"z": 2.0526754532,
				"element": "H" 
			},
			{
				"x": 4.5984994679,
				"y": -1.2677826102,
				"z": 1.0098693166,
				"element": "H" 
			},
			{
				"x": 4.561625338,
				"y": 0.9096386837,
				"z": -0.1559285812,
				"element": "H" 
			},
			{
				"x": 0.9180949682,
				"y": -0.0159330845,
				"z": -3.7341636588,
				"element": "H" 
			},
			{
				"x": 2.2228205991,
				"y": -1.8568861932,
				"z": -4.7705036551,
				"element": "H" 
			},
			{
				"x": 4.2361796357,
				"y": -2.7574261036,
				"z": -3.6468663618,
				"element": "H" 
			},
			{
				"x": 4.984626735,
				"y": -1.8306699478,
				"z": -1.4691195421,
				"element": "H" 
			},
			{
				"x": 2.7086822825,
				"y": 2.3317316899,
				"z": 1.8747298637,
				"element": "H" 
			},
			{
				"x": 0.7267215094,
				"y": 3.7867468362,
				"z": 1.5340225778,
				"element": "H" 
			},
			{
				"x": -0.65275218,
				"y": 3.5754387645,
				"z": -0.5120061452,
				"element": "H" 
			},
			{
				"x": -0.0808185467,
				"y": 1.8958086763,
				"z": -2.2489761844,
				"element": "H" 
			}
		],
		 "valence_orbital": [ 
			{
				"type": "occ",
				"energy": -0.25751,
				"method": "rhf"
			},
			{
				"type": "occ",
				"energy": -0.2527,
				"method": "rhf"
			},
			{
				"type": "occ",
				"energy": -0.24689,
				"method": "rhf"
			},
			{
				"type": "occ",
				"energy": -0.23819,
				"method": "rhf"
			},
			{
				"type": "occ",
				"energy": -0.21903,
				"method": "rhf"
			},
			{
				"type": "unocc",
				"energy": -0.03483,
				"method": "rhf"
			},
			{
				"type": "unocc",
				"energy": -0.01758,
				"method": "rhf"
			},
			{
				"type": "unocc",
				"energy": -0.01569,
				"method": "rhf"
			},
			{
				"type": "unocc",
				"energy": -0.01156,
				"method": "rhf"
			},
			{
				"type": "unocc",
				"energy": -0.0038,
				"method": "rhf"
			}
		],
		"cosmo_sigma_profile": { 
			"-0.025": 0.0,
			"-0.024": 0.0,
			"-0.023": 0.0,
			"-0.022": 0.0,
			"-0.021": 0.0,
			"-0.02": 0.0,
			"-0.019": 0.529472693603,
			"-0.018": 1.07589138303,
			"-0.017": 0.934090921249,
			"-0.016": 1.00550837785,
			"-0.015": 0.270679968745,
			"-0.014": 0.487798062869,
			"-0.013": 0.418404056867,
			"-0.012": 1.42503630626,
			"-0.011": 1.6130928369,
			"-0.01": 0.956946736769,
			"-0.009": 1.09758360743,
			"-0.008": 2.23407167991,
			"-0.007": 7.12389464463,
			"-0.006": 24.6866113674,
			"-0.005": 34.5056515884,
			"-0.004": 33.3487046988,
			"-0.003": 32.441129887,
			"-0.002": 28.8629293413,
			"-0.001": 33.4066401284,
			"0.0": 33.2431133937,
			"0.001": 35.9170438099,
			"0.002": 38.9066373682,
			"0.003": 35.5537565118,
			"0.004": 35.8716701221,
			"0.005": 26.9684567387,
			"0.006": 9.86212511892,
			"0.007": 4.67588978419,
			"0.008": 4.38731580545,
			"0.009": 3.03957455135,
			"0.01": 4.33691946663,
			"0.011": 4.48152778203,
			"0.012": 2.49099063303,
			"0.013": 3.8888470629,
			"0.014": 0.864014991723,
			"0.015": 0.0,
			"0.016": 0.0,
			"0.017": 0.0,
			"0.018": 0.0,
			"0.019": 0.0,
			"0.02": 0.0,
			"0.021": 0.0,
			"0.022": 0.0,
			"0.023": 0.0,
			"0.024": 0.0,
			"0.025": 0.0
		}
	}
}
