{
	 "smiles": "ClC1=CC=CC(CBr)=C1Cl", 
	 "Tm": 303.65, 
	 "num_atms": 15, 
	 "gaussian": { 
		 "optdone": 1, 
		 "sigma_profile": "yes", 
		 "theory": "DFT", 
		 "functional": "B3LYP", 
		 "basiset": "6-31G**", 
		 "properties": { 
			 "R2extent": 3891.5963, 
			 "electric_dipole_moment_norm": 3.23880014203, 
			 "electric_quadrupole_moment_norm": 5.93274244427, 
			 "total_energy": -3761.54737195, 
			 "HOMO_LUMO_gap": 0.20403, 
			 "cosmo_polarized_energy": -6.98, 
			 "cosmo_cavitation_energy": 24.71, 
			 "cosmo_dispersion_energy": -18.65, 
			 "cosmo_repulsion_energy": 1.51, 
			 "cosmo_total_nonelectrostatic_energy": 7.57, 
			 "SMD_solvation_energy": 2.5 
		},
		"coords": [
			{
				"x": 2.4922730154,
				"y": -2.5296512517,
				"z": -2.91733723,
				"element": "Cl" 
			},
			{
				"x": 1.9049139599,
				"y": -1.5278519211,
				"z": -1.612126619,
				"element": "C" 
			},
			{
				"x": 2.4221504505,
				"y": -1.7362026518,
				"z": -0.332521907,
				"element": "C" 
			},
			{
				"x": 1.978787121,
				"y": -0.9527857696,
				"z": 0.7296974081,
				"element": "C" 
			},
			{
				"x": 1.0230877083,
				"y": 0.0347397462,
				"z": 0.512492467,
				"element": "C" 
			},
			{
				"x": 0.4892908592,
				"y": 0.262496375,
				"z": -0.7626767443,
				"element": "C" 
			},
			{
				"x": -0.5232487865,
				"y": 1.3462327055,
				"z": -0.9475571018,
				"element": "C" 
			},
			{
				"x": -2.3957939898,
				"y": 0.6599200278,
				"z": -0.7917871132,
				"element": "Br" 
			},
			{
				"x": 0.9392388281,
				"y": -0.5349112142,
				"z": -1.8329925536,
				"element": "C" 
			},
			{
				"x": 0.2913312377,
				"y": -0.2851127299,
				"z": -3.4355391781,
				"element": "Cl" 
			},
			{
				"x": 3.1670284984,
				"y": -2.5100148911,
				"z": -0.1852430274,
				"element": "H" 
			},
			{
				"x": 2.3818430927,
				"y": -1.1150649246,
				"z": 1.7240997035,
				"element": "H" 
			},
			{
				"x": 0.6721873116,
				"y": 0.6438294749,
				"z": 1.3402793422,
				"element": "H" 
			},
			{
				"x": -0.4454785055,
				"y": 2.1016240597,
				"z": -0.1687528084,
				"element": "H" 
			},
			{
				"x": -0.4824108011,
				"y": 1.8079529649,
				"z": -1.930234638,
				"element": "H" 
			}
		],
		 "valence_orbital": [ 
			{
				"type": "occ",
				"energy": -0.31359,
				"method": "rhf"
			},
			{
				"type": "occ",
				"energy": -0.28075,
				"method": "rhf"
			},
			{
				"type": "occ",
				"energy": -0.27476,
				"method": "rhf"
			},
			{
				"type": "occ",
				"energy": -0.26271,
				"method": "rhf"
			},
			{
				"type": "occ",
				"energy": -0.25804,
				"method": "rhf"
			},
			{
				"type": "unocc",
				"energy": -0.05401,
				"method": "rhf"
			},
			{
				"type": "unocc",
				"energy": -0.03125,
				"method": "rhf"
			},
			{
				"type": "unocc",
				"energy": -0.00369,
				"method": "rhf"
			},
			{
				"type": "unocc",
				"energy": 0.01647,
				"method": "rhf"
			},
			{
				"type": "unocc",
				"energy": 0.05657,
				"method": "rhf"
			}
		],
		"cosmo_sigma_profile": { 
			"-0.025": 0.0,
			"-0.024": 0.0,
			"-0.023": 0.0,
			"-0.022": 0.0,
			"-0.021": 0.0,
			"-0.02": 0.0,
			"-0.019": 0.0,
			"-0.018": 0.0,
			"-0.017": 0.0,
			"-0.016": 0.0,
			"-0.015": 0.0,
			"-0.014": 0.0,
			"-0.013": 0.0,
			"-0.012": 0.0,
			"-0.011": 0.0,
			"-0.01": 0.0288911385794,
			"-0.009": 1.94028174662,
			"-0.008": 6.26733346756,
			"-0.007": 9.48970672137,
			"-0.006": 9.87441775352,
			"-0.005": 9.84256053835,
			"-0.004": 8.34072076064,
			"-0.003": 9.00300624638,
			"-0.002": 11.271883956,
			"-0.001": 12.7147655654,
			"0.0": 19.9130080674,
			"0.001": 22.3468123018,
			"0.002": 20.590899046,
			"0.003": 20.5053553329,
			"0.004": 18.2972203888,
			"0.005": 13.4724572052,
			"0.006": 11.2102020597,
			"0.007": 0.769277555723,
			"0.008": 0.0,
			"0.009": 0.0,
			"0.01": 0.0,
			"0.011": 0.0,
			"0.012": 0.0,
			"0.013": 0.0,
			"0.014": 0.0,
			"0.015": 0.0,
			"0.016": 0.0,
			"0.017": 0.0,
			"0.018": 0.0,
			"0.019": 0.0,
			"0.02": 0.0,
			"0.021": 0.0,
			"0.022": 0.0,
			"0.023": 0.0,
			"0.024": 0.0,
			"0.025": 0.0
		}
	}
}
