{
	 "smiles": "ClC1=CC=C2C(=C1)N=CC=C2N1CCNCC1", 
	 "Tm": 387.15, 
	 "num_atms": 31, 
	 "gaussian": { 
		 "optdone": 1, 
		 "sigma_profile": "yes", 
		 "theory": "DFT", 
		 "functional": "B3LYP", 
		 "basiset": "6-31G**", 
		 "properties": { 
			 "R2extent": 8504.8952, 
			 "electric_dipole_moment_norm": 5.6412778056, 
			 "electric_quadrupole_moment_norm": 15.3256206419, 
			 "total_energy": -1128.25212365, 
			 "HOMO_LUMO_gap": 0.16221, 
			 "cosmo_polarized_energy": -12.49, 
			 "cosmo_cavitation_energy": 34.03, 
			 "cosmo_dispersion_energy": -25.55, 
			 "cosmo_repulsion_energy": 1.95, 
			 "cosmo_total_nonelectrostatic_energy": 10.44, 
			 "SMD_solvation_energy": -0.05 
		},
		"coords": [
			{
				"x": 1.905799503,
				"y": 2.4728196828,
				"z": -6.6198257608,
				"element": "Cl" 
			},
			{
				"x": 1.7501124624,
				"y": 1.6531896832,
				"z": -5.0715695847,
				"element": "C" 
			},
			{
				"x": 0.775290733,
				"y": 0.6412951079,
				"z": -4.9363853607,
				"element": "C" 
			},
			{
				"x": 0.6267006595,
				"y": 0.006357286,
				"z": -3.7224744724,
				"element": "C" 
			},
			{
				"x": 1.428433064,
				"y": 0.342978808,
				"z": -2.599078191,
				"element": "C" 
			},
			{
				"x": 2.4674031851,
				"y": 1.3146860397,
				"z": -2.7834061629,
				"element": "C" 
			},
			{
				"x": 2.586159173,
				"y": 1.9815192104,
				"z": -4.0327311798,
				"element": "C" 
			},
			{
				"x": 3.3946326923,
				"y": 1.626753016,
				"z": -1.8314508734,
				"element": "N" 
			},
			{
				"x": 3.3167267671,
				"y": 0.9544449586,
				"z": -0.7001087264,
				"element": "C" 
			},
			{
				"x": 2.3262669194,
				"y": 0.0048371496,
				"z": -0.384431209,
				"element": "C" 
			},
			{
				"x": 1.3175754323,
				"y": -0.2848829044,
				"z": -1.3021316164,
				"element": "C" 
			},
			{
				"x": 0.2898853543,
				"y": -1.1709131833,
				"z": -1.0010032352,
				"element": "N" 
			},
			{
				"x": 0.4346741708,
				"y": -2.0319156021,
				"z": 0.1779104441,
				"element": "C" 
			},
			{
				"x": -0.7378887245,
				"y": -3.0148129975,
				"z": 0.2354351,
				"element": "C" 
			},
			{
				"x": -2.0451154899,
				"y": -2.3483842687,
				"z": 0.3485424113,
				"element": "N" 
			},
			{
				"x": -2.0355263474,
				"y": -0.9718478645,
				"z": -0.1619539299,
				"element": "C" 
			},
			{
				"x": -1.1104517162,
				"y": -0.8739385935,
				"z": -1.3754110512,
				"element": "C" 
			},
			{
				"x": 0.1642647822,
				"y": 0.3631512627,
				"z": -5.787582232,
				"element": "H" 
			},
			{
				"x": -0.0963518288,
				"y": -0.7954173926,
				"z": -3.647046354,
				"element": "H" 
			},
			{
				"x": 3.3649650616,
				"y": 2.7276118324,
				"z": -4.1347911692,
				"element": "H" 
			},
			{
				"x": 4.0723424842,
				"y": 1.1868271205,
				"z": 0.0505928539,
				"element": "H" 
			},
			{
				"x": 2.3384124055,
				"y": -0.4454220819,
				"z": 0.5996266952,
				"element": "H" 
			},
			{
				"x": 0.4652634207,
				"y": -1.4495070559,
				"z": 1.1143772297,
				"element": "H" 
			},
			{
				"x": 1.3838720843,
				"y": -2.5743333688,
				"z": 0.1023138227,
				"element": "H" 
			},
			{
				"x": -0.7161127727,
				"y": -3.6352308286,
				"z": -0.6706371103,
				"element": "H" 
			},
			{
				"x": -0.6019247826,
				"y": -3.6933116545,
				"z": 1.0830596159,
				"element": "H" 
			},
			{
				"x": -2.358093719,
				"y": -2.35314983,
				"z": 1.3130939771,
				"element": "H" 
			},
			{
				"x": -3.0498733929,
				"y": -0.689082367,
				"z": -0.4697323133,
				"element": "H" 
			},
			{
				"x": -1.7071357252,
				"y": -0.2283954635,
				"z": 0.5844464721,
				"element": "H" 
			},
			{
				"x": -1.1647241117,
				"y": 0.1340338085,
				"z": -1.7896484533,
				"element": "H" 
			},
			{
				"x": -1.4693817439,
				"y": -1.5720595096,
				"z": -2.143799636,
				"element": "H" 
			}
		],
		 "valence_orbital": [ 
			{
				"type": "occ",
				"energy": -0.25372,
				"method": "rhf"
			},
			{
				"type": "occ",
				"energy": -0.25019,
				"method": "rhf"
			},
			{
				"type": "occ",
				"energy": -0.24067,
				"method": "rhf"
			},
			{
				"type": "occ",
				"energy": -0.2303,
				"method": "rhf"
			},
			{
				"type": "occ",
				"energy": -0.20741,
				"method": "rhf"
			},
			{
				"type": "unocc",
				"energy": -0.0452,
				"method": "rhf"
			},
			{
				"type": "unocc",
				"energy": -0.01658,
				"method": "rhf"
			},
			{
				"type": "unocc",
				"energy": 0.02217,
				"method": "rhf"
			},
			{
				"type": "unocc",
				"energy": 0.03529,
				"method": "rhf"
			},
			{
				"type": "unocc",
				"energy": 0.06113,
				"method": "rhf"
			}
		],
		"cosmo_sigma_profile": { 
			"-0.025": 0.0,
			"-0.024": 0.0,
			"-0.023": 0.0,
			"-0.022": 0.0,
			"-0.021": 0.0,
			"-0.02": 0.0,
			"-0.019": 0.0,
			"-0.018": 0.0,
			"-0.017": 0.0,
			"-0.016": 0.0,
			"-0.015": 0.0,
			"-0.014": 0.0,
			"-0.013": 0.0,
			"-0.012": 0.0,
			"-0.011": 0.201241083846,
			"-0.01": 1.22919140279,
			"-0.009": 1.47370854326,
			"-0.008": 1.32792136359,
			"-0.007": 5.30301635803,
			"-0.006": 11.8048878504,
			"-0.005": 18.8693493534,
			"-0.004": 26.5486941844,
			"-0.003": 31.0545237407,
			"-0.002": 23.1185049527,
			"-0.001": 16.6108855702,
			"0.0": 13.9112600578,
			"0.001": 16.8815767911,
			"0.002": 28.9673168406,
			"0.003": 26.4331703769,
			"0.004": 15.9496736626,
			"0.005": 10.6265691391,
			"0.006": 3.37734385236,
			"0.007": 2.32926246577,
			"0.008": 2.42138796324,
			"0.009": 1.94171108458,
			"0.01": 1.17399614282,
			"0.011": 1.66912618718,
			"0.012": 1.88262826097,
			"0.013": 1.13542647194,
			"0.014": 1.38066464781,
			"0.015": 1.28885741544,
			"0.016": 1.6136460106,
			"0.017": 0.784910710967,
			"0.018": 0.48814648285,
			"0.019": 0.0543265610089,
			"0.02": 0.0,
			"0.021": 0.0,
			"0.022": 0.0,
			"0.023": 0.0,
			"0.024": 0.0,
			"0.025": 0.0
		}
	}
}
