{
	 "smiles": "CC1=C(N)C(C(O)=O)=C(Cl)C=C1", 
	 "Tm": 426.15, 
	 "num_atms": 20, 
	 "gaussian": { 
		 "optdone": 1, 
		 "sigma_profile": "yes", 
		 "theory": "DFT", 
		 "functional": "B3LYP", 
		 "basiset": "6-31G**", 
		 "properties": { 
			 "R2extent": 2904.6805, 
			 "electric_dipole_moment_norm": 4.43881315894, 
			 "electric_quadrupole_moment_norm": 13.3546826656, 
			 "total_energy": -975.086931869, 
			 "HOMO_LUMO_gap": 0.16489, 
			 "cosmo_polarized_energy": -10.98, 
			 "cosmo_cavitation_energy": 24.74, 
			 "cosmo_dispersion_energy": -19.15, 
			 "cosmo_repulsion_energy": 1.5, 
			 "cosmo_total_nonelectrostatic_energy": 7.09, 
			 "SMD_solvation_energy": 4.82 
		},
		"coords": [
			{
				"x": 1.1654049002,
				"y": -1.1912093677,
				"z": -2.139915309,
				"element": "C" 
			},
			{
				"x": 0.232295059,
				"y": -0.3736178834,
				"z": -1.2831972793,
				"element": "C" 
			},
			{
				"x": 0.7351532515,
				"y": 0.7505406162,
				"z": -0.5613222936,
				"element": "C" 
			},
			{
				"x": 2.0558573829,
				"y": 1.055252378,
				"z": -0.679775638,
				"element": "N" 
			},
			{
				"x": -0.1489700889,
				"y": 1.5588051261,
				"z": 0.2378586129,
				"element": "C" 
			},
			{
				"x": 0.4356027577,
				"y": 2.7539987602,
				"z": 0.9313280815,
				"element": "C" 
			},
			{
				"x": -0.3666465659,
				"y": 3.7344425298,
				"z": 1.377704772,
				"element": "O" 
			},
			{
				"x": 1.6397954741,
				"y": 2.9052388204,
				"z": 1.0851855838,
				"element": "O" 
			},
			{
				"x": -1.5018366855,
				"y": 1.1421681368,
				"z": 0.294289288,
				"element": "C" 
			},
			{
				"x": -2.7157710054,
				"y": 1.9741758794,
				"z": 1.2977472873,
				"element": "Cl" 
			},
			{
				"x": -1.9896415238,
				"y": 0.0423411034,
				"z": -0.3862995057,
				"element": "C" 
			},
			{
				"x": -1.1076537351,
				"y": -0.6983583821,
				"z": -1.1796829326,
				"element": "C" 
			},
			{
				"x": 1.9667195311,
				"y": -1.6551811026,
				"z": -1.5481390724,
				"element": "H" 
			},
			{
				"x": 1.6454930257,
				"y": -0.580563029,
				"z": -2.9156511169,
				"element": "H" 
			},
			{
				"x": 0.625322171,
				"y": -1.997383786,
				"z": -2.6414645458,
				"element": "H" 
			},
			{
				"x": 2.6711980562,
				"y": 0.3998501366,
				"z": -1.1288162428,
				"element": "H" 
			},
			{
				"x": 2.4255688871,
				"y": 1.7473570607,
				"z": -0.0362855269,
				"element": "H" 
			},
			{
				"x": -1.305082319,
				"y": 3.5244436385,
				"z": 1.2435879502,
				"element": "H" 
			},
			{
				"x": -3.032618266,
				"y": -0.2349862607,
				"z": -0.2999813946,
				"element": "H" 
			},
			{
				"x": -1.4864903069,
				"y": -1.5591143744,
				"z": -1.7243707182,
				"element": "H" 
			}
		],
		 "valence_orbital": [ 
			{
				"type": "occ",
				"energy": -0.31719,
				"method": "rhf"
			},
			{
				"type": "occ",
				"energy": -0.30804,
				"method": "rhf"
			},
			{
				"type": "occ",
				"energy": -0.27612,
				"method": "rhf"
			},
			{
				"type": "occ",
				"energy": -0.26137,
				"method": "rhf"
			},
			{
				"type": "occ",
				"energy": -0.21441,
				"method": "rhf"
			},
			{
				"type": "unocc",
				"energy": -0.04952,
				"method": "rhf"
			},
			{
				"type": "unocc",
				"energy": -0.00427,
				"method": "rhf"
			},
			{
				"type": "unocc",
				"energy": 0.00581,
				"method": "rhf"
			},
			{
				"type": "unocc",
				"energy": 0.04797,
				"method": "rhf"
			},
			{
				"type": "unocc",
				"energy": 0.07632,
				"method": "rhf"
			}
		],
		"cosmo_sigma_profile": { 
			"-0.025": 0.0,
			"-0.024": 0.0,
			"-0.023": 0.0,
			"-0.022": 0.0,
			"-0.021": 0.0,
			"-0.02": 0.0,
			"-0.019": 0.0,
			"-0.018": 0.0,
			"-0.017": 0.0,
			"-0.016": 0.0,
			"-0.015": 0.0,
			"-0.014": 0.0,
			"-0.013": 0.431281431635,
			"-0.012": 1.45577068275,
			"-0.011": 2.33605337384,
			"-0.01": 2.4632894397,
			"-0.009": 2.53941629323,
			"-0.008": 3.31519663267,
			"-0.007": 5.96170916747,
			"-0.006": 8.69867890679,
			"-0.005": 10.4105507555,
			"-0.004": 12.1881043772,
			"-0.003": 13.7267661342,
			"-0.002": 13.2451853225,
			"-0.001": 15.6612465217,
			"0.0": 16.0401706582,
			"0.001": 15.7232427126,
			"0.002": 20.2573869085,
			"0.003": 17.9302899773,
			"0.004": 9.99786163766,
			"0.005": 2.34701386711,
			"0.006": 3.27301988958,
			"0.007": 3.12565434942,
			"0.008": 2.95218844636,
			"0.009": 2.99783044572,
			"0.01": 3.77041056377,
			"0.011": 3.88905625244,
			"0.012": 2.84387412981,
			"0.013": 1.70403066324,
			"0.014": 0.350859594997,
			"0.015": 0.0,
			"0.016": 0.0,
			"0.017": 0.0,
			"0.018": 0.0,
			"0.019": 0.0,
			"0.02": 0.0,
			"0.021": 0.0,
			"0.022": 0.0,
			"0.023": 0.0,
			"0.024": 0.0,
			"0.025": 0.0
		}
	}
}
