{
	 "smiles": "ON=C(CC1=NC=CN1C(F)F)C1=CC=CC=C1", 
	 "Tm": 424.15, 
	 "num_atms": 29, 
	 "gaussian": { 
		 "optdone": 1, 
		 "sigma_profile": "yes", 
		 "theory": "DFT", 
		 "functional": "B3LYP", 
		 "basiset": "6-31G**", 
		 "properties": { 
			 "R2extent": 5381.6599, 
			 "electric_dipole_moment_norm": 1.51795532543, 
			 "electric_quadrupole_moment_norm": 11.2058955961, 
			 "total_energy": -902.999919893, 
			 "HOMO_LUMO_gap": 0.18619, 
			 "cosmo_polarized_energy": -11.91, 
			 "cosmo_cavitation_energy": 33.79, 
			 "cosmo_dispersion_energy": -23.5, 
			 "cosmo_repulsion_energy": 1.77, 
			 "cosmo_total_nonelectrostatic_energy": 12.05, 
			 "SMD_solvation_energy": 5.63 
		},
		"coords": [
			{
				"x": 1.9276974498,
				"y": 3.5914302477,
				"z": 0.0925008852,
				"element": "O" 
			},
			{
				"x": 1.1453583389,
				"y": 2.8789351341,
				"z": -0.8410542972,
				"element": "N" 
			},
			{
				"x": 0.3891987608,
				"y": 1.9893439594,
				"z": -0.2951573595,
				"element": "C" 
			},
			{
				"x": 0.322728973,
				"y": 1.7632240879,
				"z": 1.2114934953,
				"element": "C" 
			},
			{
				"x": 0.9356736067,
				"y": 0.4824305095,
				"z": 1.7126581783,
				"element": "C" 
			},
			{
				"x": 0.2380401972,
				"y": -0.5287996917,
				"z": 2.1807314667,
				"element": "N" 
			},
			{
				"x": 1.1543521338,
				"y": -1.4934489881,
				"z": 2.5482447592,
				"element": "C" 
			},
			{
				"x": 2.4274880521,
				"y": -1.0666392425,
				"z": 2.3036427227,
				"element": "C" 
			},
			{
				"x": 2.2916907654,
				"y": 0.2063134204,
				"z": 1.762917339,
				"element": "N" 
			},
			{
				"x": 3.3881624951,
				"y": 1.041408837,
				"z": 1.3899956592,
				"element": "C" 
			},
			{
				"x": 4.158239482,
				"y": 0.3981857106,
				"z": 0.4693670589,
				"element": "F" 
			},
			{
				"x": 4.1843238281,
				"y": 1.260756056,
				"z": 2.4750284028,
				"element": "F" 
			},
			{
				"x": -0.482352925,
				"y": 1.2131731717,
				"z": -1.218092711,
				"element": "C" 
			},
			{
				"x": -0.5192689149,
				"y": 1.5271392603,
				"z": -2.5911301859,
				"element": "C" 
			},
			{
				"x": -1.3416461926,
				"y": 0.818610744,
				"z": -3.4589893152,
				"element": "C" 
			},
			{
				"x": -2.1465440725,
				"y": -0.2199040589,
				"z": -2.9789668539,
				"element": "C" 
			},
			{
				"x": -2.1153891445,
				"y": -0.5410558061,
				"z": -1.6234854118,
				"element": "C" 
			},
			{
				"x": -1.2919439066,
				"y": 0.166883144,
				"z": -0.7452072468,
				"element": "C" 
			},
			{
				"x": 2.4011622086,
				"y": 4.2121097039,
				"z": -0.4775327216,
				"element": "H" 
			},
			{
				"x": 0.767034044,
				"y": 2.6275034076,
				"z": 1.7094191585,
				"element": "H" 
			},
			{
				"x": -0.7264196533,
				"y": 1.7181280992,
				"z": 1.512235518,
				"element": "H" 
			},
			{
				"x": 0.8386244436,
				"y": -2.4378004447,
				"z": 2.9685605353,
				"element": "H" 
			},
			{
				"x": 3.3963912232,
				"y": -1.5157935603,
				"z": 2.4517437487,
				"element": "H" 
			},
			{
				"x": 3.044283814,
				"y": 1.9948030273,
				"z": 0.9861138532,
				"element": "H" 
			},
			{
				"x": 0.1014679874,
				"y": 2.33438641,
				"z": -2.9621208762,
				"element": "H" 
			},
			{
				"x": -1.3585668331,
				"y": 1.0777700294,
				"z": -4.5138297669,
				"element": "H" 
			},
			{
				"x": -2.7898052061,
				"y": -0.7718215243,
				"z": -3.6583732427,
				"element": "H" 
			},
			{
				"x": -2.7312135281,
				"y": -1.3491740502,
				"z": -1.239590557,
				"element": "H" 
			},
			{
				"x": -1.2693674272,
				"y": -0.1217975932,
				"z": 0.2997777645,
				"element": "H" 
			}
		],
		 "valence_orbital": [ 
			{
				"type": "occ",
				"energy": -0.28657,
				"method": "rhf"
			},
			{
				"type": "occ",
				"energy": -0.27748,
				"method": "rhf"
			},
			{
				"type": "occ",
				"energy": -0.25141,
				"method": "rhf"
			},
			{
				"type": "occ",
				"energy": -0.23342,
				"method": "rhf"
			},
			{
				"type": "occ",
				"energy": -0.23307,
				"method": "rhf"
			},
			{
				"type": "unocc",
				"energy": -0.04688,
				"method": "rhf"
			},
			{
				"type": "unocc",
				"energy": -0.00121,
				"method": "rhf"
			},
			{
				"type": "unocc",
				"energy": 0.00452,
				"method": "rhf"
			},
			{
				"type": "unocc",
				"energy": 0.03922,
				"method": "rhf"
			},
			{
				"type": "unocc",
				"energy": 0.05646,
				"method": "rhf"
			}
		],
		"cosmo_sigma_profile": { 
			"-0.025": 0.0,
			"-0.024": 0.0,
			"-0.023": 0.0,
			"-0.022": 0.0,
			"-0.021": 0.0,
			"-0.02": 0.0,
			"-0.019": 0.0,
			"-0.018": 0.778007344593,
			"-0.017": 0.99793479869,
			"-0.016": 1.00604646364,
			"-0.015": 0.927964493064,
			"-0.014": 0.576321829996,
			"-0.013": 0.784459493145,
			"-0.012": 0.394801637257,
			"-0.011": 0.661784389309,
			"-0.01": 0.813545269445,
			"-0.009": 2.80978075404,
			"-0.008": 2.80215849002,
			"-0.007": 5.65234515484,
			"-0.006": 12.6845236168,
			"-0.005": 16.5316646614,
			"-0.004": 22.0101946429,
			"-0.003": 18.435738258,
			"-0.002": 16.3324762563,
			"-0.001": 14.1913469157,
			"0.0": 14.7765247163,
			"0.001": 16.1271290206,
			"0.002": 20.9519650187,
			"0.003": 30.6847649983,
			"0.004": 34.706073989,
			"0.005": 16.3291211209,
			"0.006": 5.37504577796,
			"0.007": 3.96647800218,
			"0.008": 3.0699526668,
			"0.009": 1.45654568427,
			"0.01": 1.0819566075,
			"0.011": 0.995939141868,
			"0.012": 0.7057421189,
			"0.013": 0.773341408079,
			"0.014": 0.894728162565,
			"0.015": 0.514103960412,
			"0.016": 0.372533851578,
			"0.017": 0.0,
			"0.018": 0.0,
			"0.019": 0.0,
			"0.02": 0.0,
			"0.021": 0.0,
			"0.022": 0.0,
			"0.023": 0.0,
			"0.024": 0.0,
			"0.025": 0.0
		}
	}
}
