{
	 "smiles": "CN1C(=CC2=C1C=CC(=C2)C(F)(F)F)C(O)=O", 
	 "Tm": 473.15, 
	 "num_atms": 25, 
	 "gaussian": { 
		 "optdone": 1, 
		 "sigma_profile": "yes", 
		 "theory": "DFT", 
		 "functional": "B3LYP", 
		 "basiset": "6-31G**", 
		 "properties": { 
			 "R2extent": 5825.0828, 
			 "electric_dipole_moment_norm": 2.85354250713, 
			 "electric_quadrupole_moment_norm": 17.5647142724, 
			 "total_energy": -928.743913399, 
			 "HOMO_LUMO_gap": 0.16513, 
			 "cosmo_polarized_energy": -10.45, 
			 "cosmo_cavitation_energy": 31.03, 
			 "cosmo_dispersion_energy": -22.26, 
			 "cosmo_repulsion_energy": 1.63, 
			 "cosmo_total_nonelectrostatic_energy": 10.4, 
			 "SMD_solvation_energy": 7.39 
		},
		"coords": [
			{
				"x": -1.6675793491,
				"y": -1.8579008475,
				"z": -2.3022520221,
				"element": "C" 
			},
			{
				"x": -1.483292166,
				"y": -0.9046686314,
				"z": -1.213207993,
				"element": "N" 
			},
			{
				"x": -2.0431588281,
				"y": -0.9829707592,
				"z": 0.0627037967,
				"element": "C" 
			},
			{
				"x": -1.6413823712,
				"y": 0.1006396495,
				"z": 0.8179687981,
				"element": "C" 
			},
			{
				"x": -0.7976737201,
				"y": 0.8943059927,
				"z": -0.0059958919,
				"element": "C" 
			},
			{
				"x": -0.7197127613,
				"y": 0.2371147088,
				"z": -1.2705174999,
				"element": "C" 
			},
			{
				"x": 0.0457422877,
				"y": 0.769895918,
				"z": -2.3236582564,
				"element": "C" 
			},
			{
				"x": 0.7225735481,
				"y": 1.9534388842,
				"z": -2.0953564016,
				"element": "C" 
			},
			{
				"x": 0.652831095,
				"y": 2.6152918256,
				"z": -0.8434090355,
				"element": "C" 
			},
			{
				"x": -0.097897958,
				"y": 2.0981897011,
				"z": 0.1979620367,
				"element": "C" 
			},
			{
				"x": 1.4199320699,
				"y": 3.8957231659,
				"z": -0.6806251633,
				"element": "C" 
			},
			{
				"x": 1.2718526239,
				"y": 4.4349824338,
				"z": 0.5486764026,
				"element": "F" 
			},
			{
				"x": 1.0275475266,
				"y": 4.8309710144,
				"z": -1.5795364854,
				"element": "F" 
			},
			{
				"x": 2.7475955127,
				"y": 3.7117816356,
				"z": -0.8811829522,
				"element": "F" 
			},
			{
				"x": -2.9188335754,
				"y": -2.0861854916,
				"z": 0.4631154818,
				"element": "C" 
			},
			{
				"x": -3.3424599381,
				"y": -1.9520824994,
				"z": 1.744034125,
				"element": "O" 
			},
			{
				"x": -3.2507433593,
				"y": -3.0274544637,
				"z": -0.2369877548,
				"element": "O" 
			},
			{
				"x": -1.3195918351,
				"y": -2.8504159802,
				"z": -2.0111006709,
				"element": "H" 
			},
			{
				"x": -1.0958883104,
				"y": -1.5132344854,
				"z": -3.1634818818,
				"element": "H" 
			},
			{
				"x": -2.7213985992,
				"y": -1.9352179562,
				"z": -2.5753723569,
				"element": "H" 
			},
			{
				"x": -1.9301647654,
				"y": 0.2849831245,
				"z": 1.841786332,
				"element": "H" 
			},
			{
				"x": 0.1128960465,
				"y": 0.2805260671,
				"z": -3.2891814102,
				"element": "H" 
			},
			{
				"x": 1.3212442088,
				"y": 2.3894438357,
				"z": -2.8884532268,
				"element": "H" 
			},
			{
				"x": -0.1444642875,
				"y": 2.6124785136,
				"z": 1.151198888,
				"element": "H" 
			},
			{
				"x": -3.9099730946,
				"y": -2.7215353558,
				"z": 1.9145731419,
				"element": "H" 
			}
		],
		 "valence_orbital": [ 
			{
				"type": "occ",
				"energy": -0.32672,
				"method": "rhf"
			},
			{
				"type": "occ",
				"energy": -0.29617,
				"method": "rhf"
			},
			{
				"type": "occ",
				"energy": -0.28728,
				"method": "rhf"
			},
			{
				"type": "occ",
				"energy": -0.24215,
				"method": "rhf"
			},
			{
				"type": "occ",
				"energy": -0.22539,
				"method": "rhf"
			},
			{
				"type": "unocc",
				"energy": -0.06026,
				"method": "rhf"
			},
			{
				"type": "unocc",
				"energy": -0.00724,
				"method": "rhf"
			},
			{
				"type": "unocc",
				"energy": 0.01174,
				"method": "rhf"
			},
			{
				"type": "unocc",
				"energy": 0.07305,
				"method": "rhf"
			},
			{
				"type": "unocc",
				"energy": 0.08592,
				"method": "rhf"
			}
		],
		"cosmo_sigma_profile": { 
			"-0.025": 0.0,
			"-0.024": 0.0,
			"-0.023": 0.0,
			"-0.022": 0.0,
			"-0.021": 0.0,
			"-0.02": 0.0,
			"-0.019": 0.114901990581,
			"-0.018": 0.816399168824,
			"-0.017": 1.17051890131,
			"-0.016": 0.72793211513,
			"-0.015": 0.427142281087,
			"-0.014": 0.947874053273,
			"-0.013": 0.724478910438,
			"-0.012": 0.527562359253,
			"-0.011": 0.974595632352,
			"-0.01": 0.597028388344,
			"-0.009": 1.68099492463,
			"-0.008": 3.25908187248,
			"-0.007": 6.96589312,
			"-0.006": 9.67553057825,
			"-0.005": 12.5286604738,
			"-0.004": 12.6455046609,
			"-0.003": 17.6315039686,
			"-0.002": 16.6566904519,
			"-0.001": 14.0695246893,
			"0.0": 13.5870069908,
			"0.001": 18.4104238823,
			"0.002": 27.6887582829,
			"0.003": 49.8978916271,
			"0.004": 16.6361391399,
			"0.005": 3.53641123753,
			"0.006": 2.62593224723,
			"0.007": 2.2802999659,
			"0.008": 3.00618404863,
			"0.009": 1.57100107099,
			"0.01": 1.75926677656,
			"0.011": 3.26560909551,
			"0.012": 2.36507976179,
			"0.013": 0.0553037653071,
			"0.014": 0.0,
			"0.015": 0.0,
			"0.016": 0.0,
			"0.017": 0.0,
			"0.018": 0.0,
			"0.019": 0.0,
			"0.02": 0.0,
			"0.021": 0.0,
			"0.022": 0.0,
			"0.023": 0.0,
			"0.024": 0.0,
			"0.025": 0.0
		}
	}
}
