{
	 "smiles": "FC(F)(F)C1=CC(=CC(=C1)C(F)(F)F)S(Cl)(=O)=O", 
	 "Tm": 309.15, 
	 "num_atms": 21, 
	 "gaussian": { 
		 "optdone": 1, 
		 "sigma_profile": "yes", 
		 "theory": "DFT", 
		 "functional": "B3LYP", 
		 "basiset": "6-31G**", 
		 "properties": { 
			 "R2extent": 6023.0053, 
			 "electric_dipole_moment_norm": 2.65421411344, 
			 "electric_quadrupole_moment_norm": 7.39204109769, 
			 "total_energy": -1914.46600444, 
			 "HOMO_LUMO_gap": 0.20922, 
			 "cosmo_polarized_energy": -8.8, 
			 "cosmo_cavitation_energy": 32.97, 
			 "cosmo_dispersion_energy": -22.84, 
			 "cosmo_repulsion_energy": 1.63, 
			 "cosmo_total_nonelectrostatic_energy": 11.76, 
			 "SMD_solvation_energy": 6.66 
		},
		"coords": [
			{
				"x": 2.7948050581,
				"y": -0.8226471718,
				"z": 3.0656806869,
				"element": "F" 
			},
			{
				"x": 1.5222823024,
				"y": -1.2477245479,
				"z": 2.9461523273,
				"element": "C" 
			},
			{
				"x": 0.868936086,
				"y": -0.9375048505,
				"z": 4.0840067998,
				"element": "F" 
			},
			{
				"x": 1.5508946263,
				"y": -2.5930605882,
				"z": 2.8534606933,
				"element": "F" 
			},
			{
				"x": 0.8455278161,
				"y": -0.6353104667,
				"z": 1.7422743588,
				"element": "C" 
			},
			{
				"x": 1.6076766682,
				"y": -0.2447745476,
				"z": 0.6411466992,
				"element": "C" 
			},
			{
				"x": 0.9422982907,
				"y": 0.2599780432,
				"z": -0.4734446982,
				"element": "C" 
			},
			{
				"x": -0.4440546903,
				"y": 0.3828721759,
				"z": -0.528693238,
				"element": "C" 
			},
			{
				"x": -1.1850168502,
				"y": -0.0099007968,
				"z": 0.5858699258,
				"element": "C" 
			},
			{
				"x": -0.5451970157,
				"y": -0.5167491161,
				"z": 1.7184669857,
				"element": "C" 
			},
			{
				"x": -2.6863105206,
				"y": 0.1594847641,
				"z": 0.5898344758,
				"element": "C" 
			},
			{
				"x": -3.1885611174,
				"y": 0.1370750043,
				"z": -0.6596143838,
				"element": "F" 
			},
			{
				"x": -3.2866756656,
				"y": -0.8169341251,
				"z": 1.2997397957,
				"element": "F" 
			},
			{
				"x": -3.0385851517,
				"y": 1.3358984056,
				"z": 1.1480935466,
				"element": "F" 
			},
			{
				"x": 1.9071123733,
				"y": 0.7420554823,
				"z": -1.9066987403,
				"element": "S" 
			},
			{
				"x": 2.2777309819,
				"y": 2.7873845513,
				"z": -1.4727833916,
				"element": "Cl" 
			},
			{
				"x": 1.0484665233,
				"y": 0.7157397073,
				"z": -3.0825298679,
				"element": "O" 
			},
			{
				"x": 3.1961762833,
				"y": 0.0665610512,
				"z": -1.8558706294,
				"element": "O" 
			},
			{
				"x": 2.6876193957,
				"y": -0.3343087851,
				"z": 0.647144195,
				"element": "H" 
			},
			{
				"x": -0.9307430307,
				"y": 0.7611533928,
				"z": -1.4199676499,
				"element": "H" 
			},
			{
				"x": -1.129182363,
				"y": -0.8216875821,
				"z": 2.5792321092,
				"element": "H" 
			}
		],
		 "valence_orbital": [ 
			{
				"type": "occ",
				"energy": -0.35599,
				"method": "rhf"
			},
			{
				"type": "occ",
				"energy": -0.35039,
				"method": "rhf"
			},
			{
				"type": "occ",
				"energy": -0.3295,
				"method": "rhf"
			},
			{
				"type": "occ",
				"energy": -0.32004,
				"method": "rhf"
			},
			{
				"type": "occ",
				"energy": -0.31804,
				"method": "rhf"
			},
			{
				"type": "unocc",
				"energy": -0.10882,
				"method": "rhf"
			},
			{
				"type": "unocc",
				"energy": -0.07928,
				"method": "rhf"
			},
			{
				"type": "unocc",
				"energy": -0.07168,
				"method": "rhf"
			},
			{
				"type": "unocc",
				"energy": 0.02698,
				"method": "rhf"
			},
			{
				"type": "unocc",
				"energy": 0.05014,
				"method": "rhf"
			}
		],
		"cosmo_sigma_profile": { 
			"-0.025": 0.0,
			"-0.024": 0.0,
			"-0.023": 0.0,
			"-0.022": 0.0,
			"-0.021": 0.0,
			"-0.02": 0.0,
			"-0.019": 0.0,
			"-0.018": 0.0,
			"-0.017": 0.0,
			"-0.016": 0.0,
			"-0.015": 0.0,
			"-0.014": 0.0,
			"-0.013": 0.0,
			"-0.012": 0.0,
			"-0.011": 0.0,
			"-0.01": 0.106359048556,
			"-0.009": 4.04742473522,
			"-0.008": 6.12007400593,
			"-0.007": 7.72287598026,
			"-0.006": 6.20546169299,
			"-0.005": 9.57937175895,
			"-0.004": 14.3845056575,
			"-0.003": 24.4452778457,
			"-0.002": 22.1428863466,
			"-0.001": 13.712353495,
			"0.0": 17.0793739971,
			"0.001": 28.440506786,
			"0.002": 62.6270709392,
			"0.003": 24.7463089487,
			"0.004": 3.92876268925,
			"0.005": 2.56190161821,
			"0.006": 4.14956249937,
			"0.007": 8.27300318209,
			"0.008": 7.68080684406,
			"0.009": 1.03339187931,
			"0.01": 0.0,
			"0.011": 0.0,
			"0.012": 0.0,
			"0.013": 0.0,
			"0.014": 0.0,
			"0.015": 0.0,
			"0.016": 0.0,
			"0.017": 0.0,
			"0.018": 0.0,
			"0.019": 0.0,
			"0.02": 0.0,
			"0.021": 0.0,
			"0.022": 0.0,
			"0.023": 0.0,
			"0.024": 0.0,
			"0.025": 0.0
		}
	}
}
