{
	 "smiles": "NC1=CN(N=C1)C1=CC=C(C=C1)C(F)(F)F", 
	 "Tm": 433.15, 
	 "num_atms": 24, 
	 "gaussian": { 
		 "optdone": 1, 
		 "sigma_profile": "yes", 
		 "theory": "DFT", 
		 "functional": "B3LYP", 
		 "basiset": "6-31G**", 
		 "properties": { 
			 "R2extent": 5931.972, 
			 "electric_dipole_moment_norm": 4.76761618946, 
			 "electric_quadrupole_moment_norm": 11.6348648308, 
			 "total_energy": -849.64047122, 
			 "HOMO_LUMO_gap": 0.16604, 
			 "cosmo_polarized_energy": -12.34, 
			 "cosmo_cavitation_energy": 30.19, 
			 "cosmo_dispersion_energy": -21.87, 
			 "cosmo_repulsion_energy": 1.62, 
			 "cosmo_total_nonelectrostatic_energy": 9.94, 
			 "SMD_solvation_energy": 6.06 
		},
		"coords": [
			{
				"x": 3.28462417,
				"y": 1.4407684442,
				"z": -3.0775384581,
				"element": "N" 
			},
			{
				"x": 2.6932647413,
				"y": 1.386268085,
				"z": -1.8106898183,
				"element": "C" 
			},
			{
				"x": 1.8777822226,
				"y": 0.4078155996,
				"z": -1.2785484229,
				"element": "C" 
			},
			{
				"x": 1.488158334,
				"y": 0.8483981526,
				"z": -0.0303949041,
				"element": "N" 
			},
			{
				"x": 2.0210456746,
				"y": 2.0571150438,
				"z": 0.2624071573,
				"element": "N" 
			},
			{
				"x": 2.7406497628,
				"y": 2.3880518606,
				"z": -0.8017566643,
				"element": "C" 
			},
			{
				"x": 0.655308936,
				"y": 0.1990414388,
				"z": 0.9045512019,
				"element": "C" 
			},
			{
				"x": 0.5708471366,
				"y": 0.6947160685,
				"z": 2.2144109668,
				"element": "C" 
			},
			{
				"x": -0.2421151076,
				"y": 0.0575354411,
				"z": 3.1426946909,
				"element": "C" 
			},
			{
				"x": -0.9741141975,
				"y": -1.0800959001,
				"z": 2.7854848693,
				"element": "C" 
			},
			{
				"x": -0.8904829025,
				"y": -1.5692691674,
				"z": 1.4807902124,
				"element": "C" 
			},
			{
				"x": -0.0842444424,
				"y": -0.9345391654,
				"z": 0.5405254416,
				"element": "C" 
			},
			{
				"x": -1.8894398345,
				"y": -1.7298338225,
				"z": 3.7828703393,
				"element": "C" 
			},
			{
				"x": -1.4009017396,
				"y": -1.6480695682,
				"z": 5.0414364904,
				"element": "F" 
			},
			{
				"x": -3.111547216,
				"y": -1.1452622205,
				"z": 3.8031621064,
				"element": "F" 
			},
			{
				"x": -2.0889864095,
				"y": -3.0391177316,
				"z": 3.5080244683,
				"element": "F" 
			},
			{
				"x": 3.4289318863,
				"y": 0.5322994983,
				"z": -3.499652783,
				"element": "H" 
			},
			{
				"x": 4.1483440369,
				"y": 1.9684842448,
				"z": -3.0914384538,
				"element": "H" 
			},
			{
				"x": 1.5733737039,
				"y": -0.5461701445,
				"z": -1.6768416018,
				"element": "H" 
			},
			{
				"x": 3.2701599691,
				"y": 3.3318055229,
				"z": -0.8239911338,
				"element": "H" 
			},
			{
				"x": 1.1471024764,
				"y": 1.5715418361,
				"z": 2.4796251764,
				"element": "H" 
			},
			{
				"x": -0.2986383838,
				"y": 0.4377466321,
				"z": 4.1571144298,
				"element": "H" 
			},
			{
				"x": -1.4565577677,
				"y": -2.4496148618,
				"z": 1.1969784807,
				"element": "H" 
			},
			{
				"x": -0.0481650494,
				"y": -1.3183152867,
				"z": -0.4722237914,
				"element": "H" 
			}
		],
		 "valence_orbital": [ 
			{
				"type": "occ",
				"energy": -0.29512,
				"method": "rhf"
			},
			{
				"type": "occ",
				"energy": -0.28817,
				"method": "rhf"
			},
			{
				"type": "occ",
				"energy": -0.26806,
				"method": "rhf"
			},
			{
				"type": "occ",
				"energy": -0.24281,
				"method": "rhf"
			},
			{
				"type": "occ",
				"energy": -0.20436,
				"method": "rhf"
			},
			{
				"type": "unocc",
				"energy": -0.03832,
				"method": "rhf"
			},
			{
				"type": "unocc",
				"energy": -0.01716,
				"method": "rhf"
			},
			{
				"type": "unocc",
				"energy": 0.02778,
				"method": "rhf"
			},
			{
				"type": "unocc",
				"energy": 0.06335,
				"method": "rhf"
			},
			{
				"type": "unocc",
				"energy": 0.08304,
				"method": "rhf"
			}
		],
		"cosmo_sigma_profile": { 
			"-0.025": 0.0,
			"-0.024": 0.0,
			"-0.023": 0.0,
			"-0.022": 0.0,
			"-0.021": 0.0,
			"-0.02": 0.0,
			"-0.019": 0.0,
			"-0.018": 0.0,
			"-0.017": 0.0,
			"-0.016": 0.0,
			"-0.015": 0.0,
			"-0.014": 0.0,
			"-0.013": 0.530376137849,
			"-0.012": 2.6998532332,
			"-0.011": 3.08200459526,
			"-0.01": 4.36506191418,
			"-0.009": 5.6165869773,
			"-0.008": 6.4197012416,
			"-0.007": 10.526866039,
			"-0.006": 9.5921363396,
			"-0.005": 11.0305982121,
			"-0.004": 8.45653475436,
			"-0.003": 8.62659842155,
			"-0.002": 9.74657121498,
			"-0.001": 10.6504380525,
			"0.0": 14.3864126013,
			"0.001": 19.9377153993,
			"0.002": 30.1925914776,
			"0.003": 47.2128086695,
			"0.004": 13.7530283184,
			"0.005": 5.62679154704,
			"0.006": 3.63689399031,
			"0.007": 2.38842644732,
			"0.008": 2.86774969145,
			"0.009": 2.47862931216,
			"0.01": 2.04285411382,
			"0.011": 2.14579569959,
			"0.012": 1.94451226151,
			"0.013": 0.928249216994,
			"0.014": 0.65293894146,
			"0.015": 0.642418705827,
			"0.016": 0.261280244,
			"0.017": 0.0,
			"0.018": 0.0,
			"0.019": 0.0,
			"0.02": 0.0,
			"0.021": 0.0,
			"0.022": 0.0,
			"0.023": 0.0,
			"0.024": 0.0,
			"0.025": 0.0
		}
	}
}
