{
	 "smiles": "FC(F)(F)C1=NN(C(=O)C1=N/NC1=CC=C(Br)C=C1)C1=CC=CC=C1", 
	 "Tm": 448.15, 
	 "num_atms": 35, 
	 "gaussian": { 
		 "optdone": 1, 
		 "sigma_profile": "yes", 
		 "theory": "DFT", 
		 "functional": "B3LYP", 
		 "basiset": "6-31G**", 
		 "properties": { 
			 "R2extent": 18297.3262, 
			 "electric_dipole_moment_norm": 2.31240852792, 
			 "electric_quadrupole_moment_norm": 6.86962878546, 
			 "total_energy": -3780.8422865, 
			 "HOMO_LUMO_gap": 0.11588, 
			 "cosmo_polarized_energy": -10.64, 
			 "cosmo_cavitation_energy": 45.21, 
			 "cosmo_dispersion_energy": -32.32, 
			 "cosmo_repulsion_energy": 2.36, 
			 "cosmo_total_nonelectrostatic_energy": 15.25, 
			 "SMD_solvation_energy": 6.81 
		},
		"coords": [
			{
				"x": -0.9546985325,
				"y": 1.3286532227,
				"z": -2.6028789615,
				"element": "F" 
			},
			{
				"x": -1.812048564,
				"y": 0.3798923248,
				"z": -2.1689338032,
				"element": "C" 
			},
			{
				"x": -3.0607295151,
				"y": 0.8070483743,
				"z": -2.3982675196,
				"element": "F" 
			},
			{
				"x": -1.5983217502,
				"y": -0.7224544887,
				"z": -2.9190633809,
				"element": "F" 
			},
			{
				"x": -1.5794818098,
				"y": 0.0830237087,
				"z": -0.716757672,
				"element": "C" 
			},
			{
				"x": -2.5234665696,
				"y": 0.2404445487,
				"z": 0.1647917314,
				"element": "N" 
			},
			{
				"x": -2.0077826628,
				"y": -0.1121345289,
				"z": 1.4038406137,
				"element": "N" 
			},
			{
				"x": -0.6795986633,
				"y": -0.512618437,
				"z": 1.3180291189,
				"element": "C" 
			},
			{
				"x": 0.0832814435,
				"y": -0.8901242971,
				"z": 2.2205694393,
				"element": "O" 
			},
			{
				"x": -0.3642399061,
				"y": -0.389473951,
				"z": -0.1107825049,
				"element": "C" 
			},
			{
				"x": 0.7808355743,
				"y": -0.6546818629,
				"z": -0.7003158469,
				"element": "N" 
			},
			{
				"x": 1.7607074925,
				"y": -1.0770437391,
				"z": 0.0557699951,
				"element": "N" 
			},
			{
				"x": 3.0202463794,
				"y": -1.3865302266,
				"z": -0.4780921825,
				"element": "C" 
			},
			{
				"x": 4.0157050326,
				"y": -1.8328201166,
				"z": 0.4009053933,
				"element": "C" 
			},
			{
				"x": 5.2809280859,
				"y": -2.1516119386,
				"z": -0.084365501,
				"element": "C" 
			},
			{
				"x": 5.5441300723,
				"y": -2.0222434005,
				"z": -1.4475236072,
				"element": "C" 
			},
			{
				"x": 7.2753159309,
				"y": -2.4577731732,
				"z": -2.1173685755,
				"element": "Br" 
			},
			{
				"x": 4.5557205401,
				"y": -1.5777657963,
				"z": -2.3288058024,
				"element": "C" 
			},
			{
				"x": 3.2908456324,
				"y": -1.2584924791,
				"z": -1.8473370661,
				"element": "C" 
			},
			{
				"x": -2.8499342636,
				"y": -0.0276479152,
				"z": 2.5488736316,
				"element": "C" 
			},
			{
				"x": -4.1731019121,
				"y": 0.40593194,
				"z": 2.390946983,
				"element": "C" 
			},
			{
				"x": -5.0039750991,
				"y": 0.4916721906,
				"z": 3.5056471999,
				"element": "C" 
			},
			{
				"x": -4.5323040355,
				"y": 0.1507297134,
				"z": 4.7746820977,
				"element": "C" 
			},
			{
				"x": -3.2133154163,
				"y": -0.2795529821,
				"z": 4.9195568941,
				"element": "C" 
			},
			{
				"x": -2.3633461078,
				"y": -0.3730989273,
				"z": 3.8174766114,
				"element": "C" 
			},
			{
				"x": 1.5806655371,
				"y": -1.1773777777,
				"z": 1.0641746077,
				"element": "H" 
			},
			{
				"x": 3.8025721836,
				"y": -1.9309320887,
				"z": 1.4617766634,
				"element": "H" 
			},
			{
				"x": 6.0541562466,
				"y": -2.4972398244,
				"z": 0.5916462123,
				"element": "H" 
			},
			{
				"x": 4.7744444454,
				"y": -1.481959423,
				"z": -3.3860580761,
				"element": "H" 
			},
			{
				"x": 2.5126521523,
				"y": -0.9123861663,
				"z": -2.5168024621,
				"element": "H" 
			},
			{
				"x": -4.5338003274,
				"y": 0.6690818789,
				"z": 1.4050697835,
				"element": "H" 
			},
			{
				"x": -6.0284011352,
				"y": 0.8284601378,
				"z": 3.3762636978,
				"element": "H" 
			},
			{
				"x": -5.1852028009,
				"y": 0.2198142315,
				"z": 5.6394249969,
				"element": "H" 
			},
			{
				"x": -2.8325079512,
				"y": -0.5481093634,
				"z": 5.9006657801,
				"element": "H" 
			},
			{
				"x": -1.3413497264,
				"y": -0.7068793676,
				"z": 3.9319415109,
				"element": "H" 
			}
		],
		 "valence_orbital": [ 
			{
				"type": "occ",
				"energy": -0.28008,
				"method": "rhf"
			},
			{
				"type": "occ",
				"energy": -0.27213,
				"method": "rhf"
			},
			{
				"type": "occ",
				"energy": -0.25502,
				"method": "rhf"
			},
			{
				"type": "occ",
				"energy": -0.23432,
				"method": "rhf"
			},
			{
				"type": "occ",
				"energy": -0.22541,
				"method": "rhf"
			},
			{
				"type": "unocc",
				"energy": -0.10953,
				"method": "rhf"
			},
			{
				"type": "unocc",
				"energy": -0.03328,
				"method": "rhf"
			},
			{
				"type": "unocc",
				"energy": -0.02756,
				"method": "rhf"
			},
			{
				"type": "unocc",
				"energy": -0.01413,
				"method": "rhf"
			},
			{
				"type": "unocc",
				"energy": -0.00477,
				"method": "rhf"
			}
		],
		"cosmo_sigma_profile": { 
			"-0.025": 0.0,
			"-0.024": 0.0,
			"-0.023": 0.0,
			"-0.022": 0.0,
			"-0.021": 0.0,
			"-0.02": 0.0,
			"-0.019": 0.0,
			"-0.018": 0.0,
			"-0.017": 0.0,
			"-0.016": 0.0,
			"-0.015": 0.0,
			"-0.014": 0.0415287206934,
			"-0.013": 0.817396318568,
			"-0.012": 0.974731083609,
			"-0.011": 0.915037659154,
			"-0.01": 1.37835316411,
			"-0.009": 1.97803286372,
			"-0.008": 4.64266314718,
			"-0.007": 7.75281710693,
			"-0.006": 14.8519857315,
			"-0.005": 19.4084394017,
			"-0.004": 22.4831912126,
			"-0.003": 23.7537188655,
			"-0.002": 23.2200200711,
			"-0.001": 24.996923852,
			"0.0": 29.2878694285,
			"0.001": 34.3612833435,
			"0.002": 61.2197446913,
			"0.003": 39.4630071613,
			"0.004": 28.4479539594,
			"0.005": 15.0325397261,
			"0.006": 3.49861780348,
			"0.007": 3.63805103983,
			"0.008": 2.47684971875,
			"0.009": 1.73473422559,
			"0.01": 2.55137323283,
			"0.011": 0.224407539983,
			"0.012": 0.0,
			"0.013": 0.0,
			"0.014": 0.0,
			"0.015": 0.0,
			"0.016": 0.0,
			"0.017": 0.0,
			"0.018": 0.0,
			"0.019": 0.0,
			"0.02": 0.0,
			"0.021": 0.0,
			"0.022": 0.0,
			"0.023": 0.0,
			"0.024": 0.0,
			"0.025": 0.0
		}
	}
}
