{
	 "smiles": "CC=CC1=CC=CC=C1", 
	 "Tm": 244.95, 
	 "num_atms": 19, 
	 "gaussian": { 
		 "optdone": 1, 
		 "sigma_profile": "yes", 
		 "theory": "DFT", 
		 "functional": "B3LYP", 
		 "basiset": "6-31G**", 
		 "properties": { 
			 "R2extent": 1670.2632, 
			 "electric_dipole_moment_norm": 0.312890140465, 
			 "electric_quadrupole_moment_norm": 5.24785162138, 
			 "total_energy": -348.971481944, 
			 "HOMO_LUMO_gap": 0.19737, 
			 "cosmo_polarized_energy": -3.66, 
			 "cosmo_cavitation_energy": 22.08, 
			 "cosmo_dispersion_energy": -16.3, 
			 "cosmo_repulsion_energy": 1.34, 
			 "cosmo_total_nonelectrostatic_energy": 7.12, 
			 "SMD_solvation_energy": 3.93 
		},
		"coords": [
			{
				"x": 1.1611653381,
				"y": -2.8329945015,
				"z": -2.222300589,
				"element": "C" 
			},
			{
				"x": 1.8790361396,
				"y": -2.8908070181,
				"z": -0.9034066309,
				"element": "C" 
			},
			{
				"x": 1.6139474349,
				"y": -2.2116131828,
				"z": 0.2258104399,
				"element": "C" 
			},
			{
				"x": 0.5224174646,
				"y": -1.2598803798,
				"z": 0.5063275186,
				"element": "C" 
			},
			{
				"x": -0.7707263939,
				"y": -1.3822829659,
				"z": -0.0351363912,
				"element": "C" 
			},
			{
				"x": -1.7665954343,
				"y": -0.4545300322,
				"z": 0.2701804591,
				"element": "C" 
			},
			{
				"x": -1.4991048387,
				"y": 0.6125056998,
				"z": 1.129464373,
				"element": "C" 
			},
			{
				"x": -0.2274819737,
				"y": 0.7363776834,
				"z": 1.69427982,
				"element": "C" 
			},
			{
				"x": 0.7651378561,
				"y": -0.1928201039,
				"z": 1.3919265564,
				"element": "C" 
			},
			{
				"x": 1.8843362865,
				"y": -2.8302144279,
				"z": -3.0459818034,
				"element": "H" 
			},
			{
				"x": 0.5217059188,
				"y": -3.7135914139,
				"z": -2.3739927204,
				"element": "H" 
			},
			{
				"x": 0.5331626212,
				"y": -1.9441131279,
				"z": -2.3162260941,
				"element": "H" 
			},
			{
				"x": 2.7457175768,
				"y": -3.5508411085,
				"z": -0.8792913111,
				"element": "H" 
			},
			{
				"x": 2.312151712,
				"y": -2.345804317,
				"z": 1.0518520974,
				"element": "H" 
			},
			{
				"x": -1.0075500604,
				"y": -2.2274405009,
				"z": -0.672038158,
				"element": "H" 
			},
			{
				"x": -2.7588578099,
				"y": -0.5733356095,
				"z": -0.1564295743,
				"element": "H" 
			},
			{
				"x": -2.2766546955,
				"y": 1.332779533,
				"z": 1.3669890803,
				"element": "H" 
			},
			{
				"x": -0.0105694375,
				"y": 1.5555898525,
				"z": 2.3742532962,
				"element": "H" 
			},
			{
				"x": 1.7517622952,
				"y": -0.0916840788,
				"z": 1.8374196316,
				"element": "H" 
			}
		],
		 "valence_orbital": [ 
			{
				"type": "occ",
				"energy": -0.33511,
				"method": "rhf"
			},
			{
				"type": "occ",
				"energy": -0.3266,
				"method": "rhf"
			},
			{
				"type": "occ",
				"energy": -0.27899,
				"method": "rhf"
			},
			{
				"type": "occ",
				"energy": -0.24669,
				"method": "rhf"
			},
			{
				"type": "occ",
				"energy": -0.21814,
				"method": "rhf"
			},
			{
				"type": "unocc",
				"energy": -0.02077,
				"method": "rhf"
			},
			{
				"type": "unocc",
				"energy": 0.00225,
				"method": "rhf"
			},
			{
				"type": "unocc",
				"energy": 0.05595,
				"method": "rhf"
			},
			{
				"type": "unocc",
				"energy": 0.09274,
				"method": "rhf"
			},
			{
				"type": "unocc",
				"energy": 0.11437,
				"method": "rhf"
			}
		],
		"cosmo_sigma_profile": { 
			"-0.025": 0.0,
			"-0.024": 0.0,
			"-0.023": 0.0,
			"-0.022": 0.0,
			"-0.021": 0.0,
			"-0.02": 0.0,
			"-0.019": 0.0,
			"-0.018": 0.0,
			"-0.017": 0.0,
			"-0.016": 0.0,
			"-0.015": 0.0,
			"-0.014": 0.0,
			"-0.013": 0.0,
			"-0.012": 0.0,
			"-0.011": 0.0,
			"-0.01": 0.0,
			"-0.009": 0.0,
			"-0.008": 0.0,
			"-0.007": 0.0,
			"-0.006": 2.1140732095,
			"-0.005": 10.8416404566,
			"-0.004": 18.3527668103,
			"-0.003": 22.5517323213,
			"-0.002": 18.397367853,
			"-0.001": 16.5945188214,
			"0.0": 15.0758503612,
			"0.001": 12.0360650926,
			"0.002": 10.3336978895,
			"0.003": 10.2347963318,
			"0.004": 13.1019049596,
			"0.005": 12.667983676,
			"0.006": 11.4483961142,
			"0.007": 1.80235109994,
			"0.008": 0.0,
			"0.009": 0.0,
			"0.01": 0.0,
			"0.011": 0.0,
			"0.012": 0.0,
			"0.013": 0.0,
			"0.014": 0.0,
			"0.015": 0.0,
			"0.016": 0.0,
			"0.017": 0.0,
			"0.018": 0.0,
			"0.019": 0.0,
			"0.02": 0.0,
			"0.021": 0.0,
			"0.022": 0.0,
			"0.023": 0.0,
			"0.024": 0.0,
			"0.025": 0.0
		}
	}
}
