{
	 "smiles": "OCC1=CC(Cl)=NC=C1", 
	 "Tm": 339.65, 
	 "num_atms": 15, 
	 "gaussian": { 
		 "optdone": 1, 
		 "sigma_profile": "yes", 
		 "theory": "DFT", 
		 "functional": "B3LYP", 
		 "basiset": "6-31G**", 
		 "properties": { 
			 "R2extent": 2023.69, 
			 "electric_dipole_moment_norm": 2.95037961117, 
			 "electric_quadrupole_moment_norm": 7.81372705692, 
			 "total_energy": -822.407693806, 
			 "HOMO_LUMO_gap": 0.22226, 
			 "cosmo_polarized_energy": -10.93, 
			 "cosmo_cavitation_energy": 21.04, 
			 "cosmo_dispersion_energy": -15.88, 
			 "cosmo_repulsion_energy": 1.32, 
			 "cosmo_total_nonelectrostatic_energy": 6.48, 
			 "SMD_solvation_energy": 2.09 
		},
		"coords": [
			{
				"x": -2.0794246684,
				"y": 3.1572695097,
				"z": -0.3979618295,
				"element": "O" 
			},
			{
				"x": -0.7227768194,
				"y": 2.8783441583,
				"z": -0.6923723229,
				"element": "C" 
			},
			{
				"x": -0.120079453,
				"y": 1.7872277322,
				"z": 0.1737134986,
				"element": "C" 
			},
			{
				"x": 0.9942051232,
				"y": 1.0650223882,
				"z": -0.2573233762,
				"element": "C" 
			},
			{
				"x": 1.5159993811,
				"y": 0.0975895129,
				"z": 0.6038224426,
				"element": "C" 
			},
			{
				"x": 2.9242024246,
				"y": -0.8231409316,
				"z": 0.0712076073,
				"element": "Cl" 
			},
			{
				"x": 1.0331181945,
				"y": -0.1967960708,
				"z": 1.7967951271,
				"element": "N" 
			},
			{
				"x": -0.0405804271,
				"y": 0.4998610255,
				"z": 2.2000642192,
				"element": "C" 
			},
			{
				"x": -0.6481652243,
				"y": 1.492016722,
				"z": 1.4360222062,
				"element": "C" 
			},
			{
				"x": -2.5987681438,
				"y": 2.3716530347,
				"z": -0.6154842963,
				"element": "H" 
			},
			{
				"x": -0.1850725812,
				"y": 3.8168689005,
				"z": -0.5122336496,
				"element": "H" 
			},
			{
				"x": -0.5750146083,
				"y": 2.6283644002,
				"z": -1.7542219837,
				"element": "H" 
			},
			{
				"x": 1.444821336,
				"y": 1.2382244412,
				"z": -1.2287707567,
				"element": "H" 
			},
			{
				"x": -0.4262772364,
				"y": 0.2452232284,
				"z": 3.1848953165,
				"element": "H" 
			},
			{
				"x": -1.5152872975,
				"y": 2.0299719487,
				"z": 1.8021477974,
				"element": "H" 
			}
		],
		 "valence_orbital": [ 
			{
				"type": "occ",
				"energy": -0.31483,
				"method": "rhf"
			},
			{
				"type": "occ",
				"energy": -0.3019,
				"method": "rhf"
			},
			{
				"type": "occ",
				"energy": -0.28598,
				"method": "rhf"
			},
			{
				"type": "occ",
				"energy": -0.27583,
				"method": "rhf"
			},
			{
				"type": "occ",
				"energy": -0.26134,
				"method": "rhf"
			},
			{
				"type": "unocc",
				"energy": -0.03908,
				"method": "rhf"
			},
			{
				"type": "unocc",
				"energy": -0.02598,
				"method": "rhf"
			},
			{
				"type": "unocc",
				"energy": 0.03416,
				"method": "rhf"
			},
			{
				"type": "unocc",
				"energy": 0.06614,
				"method": "rhf"
			},
			{
				"type": "unocc",
				"energy": 0.10915,
				"method": "rhf"
			}
		],
		"cosmo_sigma_profile": { 
			"-0.025": 0.0,
			"-0.024": 0.0,
			"-0.023": 0.0,
			"-0.022": 0.0,
			"-0.021": 0.0,
			"-0.02": 0.0,
			"-0.019": 0.0,
			"-0.018": 0.0,
			"-0.017": 0.0389765573061,
			"-0.016": 0.833328641775,
			"-0.015": 1.17787126168,
			"-0.014": 0.889989494662,
			"-0.013": 0.535395895342,
			"-0.012": 1.0206231319,
			"-0.011": 1.05734224228,
			"-0.01": 1.17286613483,
			"-0.009": 0.90624542918,
			"-0.008": 2.85680068086,
			"-0.007": 6.97667511713,
			"-0.006": 11.4054136295,
			"-0.005": 11.6693103314,
			"-0.004": 8.58587743093,
			"-0.003": 8.72364001722,
			"-0.002": 7.95777099283,
			"-0.001": 9.65243060123,
			"0.0": 15.8219079858,
			"0.001": 17.0588379575,
			"0.002": 10.2030111194,
			"0.003": 8.17777072528,
			"0.004": 11.1800697081,
			"0.005": 8.76106413621,
			"0.006": 3.58468378785,
			"0.007": 3.24597538135,
			"0.008": 2.43716274298,
			"0.009": 2.28673212873,
			"0.01": 2.1421560654,
			"0.011": 2.70238521179,
			"0.012": 2.21981450393,
			"0.013": 2.89951923848,
			"0.014": 1.48195824499,
			"0.015": 0.435794522106,
			"0.016": 0.0,
			"0.017": 0.0,
			"0.018": 0.0,
			"0.019": 0.0,
			"0.02": 0.0,
			"0.021": 0.0,
			"0.022": 0.0,
			"0.023": 0.0,
			"0.024": 0.0,
			"0.025": 0.0
		}
	}
}
