{
	 "smiles": "CC1=CC2=C(C=CC=C2N)N=N1", 
	 "Tm": 463.15, 
	 "num_atms": 21, 
	 "gaussian": { 
		 "optdone": 1, 
		 "sigma_profile": "yes", 
		 "theory": "DFT", 
		 "functional": "B3LYP", 
		 "basiset": "6-31G**", 
		 "properties": { 
			 "R2extent": 2205.9223, 
			 "electric_dipole_moment_norm": 5.16724831608, 
			 "electric_quadrupole_moment_norm": 12.1183163719, 
			 "total_energy": -512.611515249, 
			 "HOMO_LUMO_gap": 0.14678, 
			 "cosmo_polarized_energy": -15.76, 
			 "cosmo_cavitation_energy": 24.66, 
			 "cosmo_dispersion_energy": -18.62, 
			 "cosmo_repulsion_energy": 1.47, 
			 "cosmo_total_nonelectrostatic_energy": 7.51, 
			 "SMD_solvation_energy": 2.22 
		},
		"coords": [
			{
				"x": -3.2851304423,
				"y": -0.7751351878,
				"z": -1.4582722894,
				"element": "C" 
			},
			{
				"x": -2.031064986,
				"y": -0.1123063983,
				"z": -0.9552170513,
				"element": "C" 
			},
			{
				"x": -0.7817939698,
				"y": -0.3517310244,
				"z": -1.4928753608,
				"element": "C" 
			},
			{
				"x": 0.3331803648,
				"y": 0.3148090116,
				"z": -0.9489389889,
				"element": "C" 
			},
			{
				"x": 0.0637495445,
				"y": 1.1730908865,
				"z": 0.1584536585,
				"element": "C" 
			},
			{
				"x": 1.1202342827,
				"y": 1.8545235183,
				"z": 0.8167712415,
				"element": "C" 
			},
			{
				"x": 2.4070882642,
				"y": 1.6771665479,
				"z": 0.368022099,
				"element": "C" 
			},
			{
				"x": 2.6873316431,
				"y": 0.8525025188,
				"z": -0.7480584809,
				"element": "C" 
			},
			{
				"x": 1.6822062061,
				"y": 0.1760358481,
				"z": -1.4200024008,
				"element": "C" 
			},
			{
				"x": 1.954002511,
				"y": -0.6761666018,
				"z": -2.4930355243,
				"element": "N" 
			},
			{
				"x": -1.2051483682,
				"y": 1.3666604221,
				"z": 0.6326028857,
				"element": "N" 
			},
			{
				"x": -2.2169303533,
				"y": 0.7522891899,
				"z": 0.0893050675,
				"element": "N" 
			},
			{
				"x": -3.7573101993,
				"y": -1.3580712976,
				"z": -0.6607201245,
				"element": "H" 
			},
			{
				"x": -3.0781594812,
				"y": -1.4407838512,
				"z": -2.3004082439,
				"element": "H" 
			},
			{
				"x": -4.0141226618,
				"y": -0.0228791229,
				"z": -1.7766681362,
				"element": "H" 
			},
			{
				"x": -0.6715529009,
				"y": -1.0639635966,
				"z": -2.3054984284,
				"element": "H" 
			},
			{
				"x": 0.8733740081,
				"y": 2.4921925715,
				"z": 1.657882919,
				"element": "H" 
			},
			{
				"x": 3.2314709216,
				"y": 2.1861784831,
				"z": 0.8588713124,
				"element": "H" 
			},
			{
				"x": 3.7144437086,
				"y": 0.7528044694,
				"z": -1.0908119511,
				"element": "H" 
			},
			{
				"x": 2.8876430272,
				"y": -0.5798488711,
				"z": -2.8697806703,
				"element": "H" 
			},
			{
				"x": 1.2636888809,
				"y": -0.6703675154,
				"z": -3.2322215328,
				"element": "H" 
			}
		],
		 "valence_orbital": [ 
			{
				"type": "occ",
				"energy": -0.30623,
				"method": "rhf"
			},
			{
				"type": "occ",
				"energy": -0.29154,
				"method": "rhf"
			},
			{
				"type": "occ",
				"energy": -0.25895,
				"method": "rhf"
			},
			{
				"type": "occ",
				"energy": -0.21777,
				"method": "rhf"
			},
			{
				"type": "occ",
				"energy": -0.20743,
				"method": "rhf"
			},
			{
				"type": "unocc",
				"energy": -0.06065,
				"method": "rhf"
			},
			{
				"type": "unocc",
				"energy": -0.024,
				"method": "rhf"
			},
			{
				"type": "unocc",
				"energy": 0.02753,
				"method": "rhf"
			},
			{
				"type": "unocc",
				"energy": 0.06302,
				"method": "rhf"
			},
			{
				"type": "unocc",
				"energy": 0.08056,
				"method": "rhf"
			}
		],
		"cosmo_sigma_profile": { 
			"-0.025": 0.0,
			"-0.024": 0.0,
			"-0.023": 0.0,
			"-0.022": 0.0,
			"-0.021": 0.0,
			"-0.02": 0.0,
			"-0.019": 0.0,
			"-0.018": 0.0,
			"-0.017": 0.0,
			"-0.016": 0.0,
			"-0.015": 0.0,
			"-0.014": 0.013408707149,
			"-0.013": 2.07943244726,
			"-0.012": 3.19258725062,
			"-0.011": 3.57127765187,
			"-0.01": 3.49800150546,
			"-0.009": 2.71836494516,
			"-0.008": 3.99655785585,
			"-0.007": 4.0396206568,
			"-0.006": 8.2492217917,
			"-0.005": 11.7746562394,
			"-0.004": 12.8561647921,
			"-0.003": 11.3781893639,
			"-0.002": 10.9287587328,
			"-0.001": 16.1020085759,
			"0.0": 17.9900045849,
			"0.001": 15.3549849422,
			"0.002": 11.8855577329,
			"0.003": 11.8247148494,
			"0.004": 10.9785560248,
			"0.005": 6.59764363638,
			"0.006": 3.03600213161,
			"0.007": 2.24106669329,
			"0.008": 2.84982132092,
			"0.009": 2.66992811988,
			"0.01": 2.73940149477,
			"0.011": 2.3161758721,
			"0.012": 2.15522860904,
			"0.013": 2.82343403727,
			"0.014": 2.32130877852,
			"0.015": 2.48547340821,
			"0.016": 1.81015359533,
			"0.017": 0.358266838487,
			"0.018": 0.0,
			"0.019": 0.0,
			"0.02": 0.0,
			"0.021": 0.0,
			"0.022": 0.0,
			"0.023": 0.0,
			"0.024": 0.0,
			"0.025": 0.0
		}
	}
}
