{
	 "smiles": "CCC(C)C1=CC=CC(C(C)CC)=C1O", 
	 "Tm": 231.15, 
	 "num_atms": 37, 
	 "gaussian": { 
		 "optdone": 1, 
		 "sigma_profile": "yes", 
		 "theory": "DFT", 
		 "functional": "B3LYP", 
		 "basiset": "6-31G**", 
		 "properties": { 
			 "R2extent": 4675.9481, 
			 "electric_dipole_moment_norm": 1.69667740599, 
			 "electric_quadrupole_moment_norm": 6.99414936858, 
			 "total_energy": -621.995604926, 
			 "HOMO_LUMO_gap": 0.2157, 
			 "cosmo_polarized_energy": -6.6, 
			 "cosmo_cavitation_energy": 36.3, 
			 "cosmo_dispersion_energy": -25.26, 
			 "cosmo_repulsion_energy": 2.0, 
			 "cosmo_total_nonelectrostatic_energy": 13.04, 
			 "SMD_solvation_energy": 6.24 
		},
		"coords": [
			{
				"x": 5.0018441181,
				"y": -1.973723106,
				"z": 0.8631381611,
				"element": "C" 
			},
			{
				"x": 4.0832993673,
				"y": -2.0597030813,
				"z": -0.3660509412,
				"element": "C" 
			},
			{
				"x": 2.9567931354,
				"y": -0.9992211804,
				"z": -0.4797474498,
				"element": "C" 
			},
			{
				"x": 3.4719020118,
				"y": 0.4186186626,
				"z": -0.1379504345,
				"element": "C" 
			},
			{
				"x": 1.6715485539,
				"y": -1.3221924848,
				"z": 0.2856775627,
				"element": "C" 
			},
			{
				"x": 1.6179067153,
				"y": -2.2498087682,
				"z": 1.3321054093,
				"element": "C" 
			},
			{
				"x": 0.4338226417,
				"y": -2.4954963042,
				"z": 2.0261196542,
				"element": "C" 
			},
			{
				"x": -0.7261425478,
				"y": -1.8111720819,
				"z": 1.6737620914,
				"element": "C" 
			},
			{
				"x": -0.7369061589,
				"y": -0.8890888194,
				"z": 0.6213341895,
				"element": "C" 
			},
			{
				"x": -2.0148531037,
				"y": -0.1519674367,
				"z": 0.2338608216,
				"element": "C" 
			},
			{
				"x": -2.5111325103,
				"y": 0.7435717889,
				"z": 1.3855924613,
				"element": "C" 
			},
			{
				"x": -3.1299251369,
				"y": -1.1145508367,
				"z": -0.2354047072,
				"element": "C" 
			},
			{
				"x": -2.7679618195,
				"y": -1.9321162371,
				"z": -1.4788862359,
				"element": "C" 
			},
			{
				"x": 0.470838378,
				"y": -0.6626984933,
				"z": -0.0634094166,
				"element": "C" 
			},
			{
				"x": 0.4262054977,
				"y": 0.2429210298,
				"z": -1.0995426294,
				"element": "O" 
			},
			{
				"x": 5.5973463101,
				"y": -1.0559051027,
				"z": 0.8554656772,
				"element": "H" 
			},
			{
				"x": 5.7022521788,
				"y": -2.8153875616,
				"z": 0.8664708838,
				"element": "H" 
			},
			{
				"x": 4.452604496,
				"y": -1.9965392622,
				"z": 1.8085320774,
				"element": "H" 
			},
			{
				"x": 4.7143690994,
				"y": -1.9633636531,
				"z": -1.2585426372,
				"element": "H" 
			},
			{
				"x": 3.6327208723,
				"y": -3.0571791224,
				"z": -0.4255326962,
				"element": "H" 
			},
			{
				"x": 2.6945466236,
				"y": -0.9994460847,
				"z": -1.552674642,
				"element": "H" 
			},
			{
				"x": 2.7102105052,
				"y": 1.1802102596,
				"z": -0.3273682425,
				"element": "H" 
			},
			{
				"x": 3.7398342418,
				"y": 0.4887011624,
				"z": 0.9196511691,
				"element": "H" 
			},
			{
				"x": 4.3580936587,
				"y": 0.6682446635,
				"z": -0.7324459167,
				"element": "H" 
			},
			{
				"x": 2.5113458385,
				"y": -2.7961132789,
				"z": 1.6103768283,
				"element": "H" 
			},
			{
				"x": 0.4196014164,
				"y": -3.2171721379,
				"z": 2.8374411673,
				"element": "H" 
			},
			{
				"x": -1.646826243,
				"y": -2.0014085156,
				"z": 2.2189127284,
				"element": "H" 
			},
			{
				"x": -1.7740151436,
				"y": 0.5005033985,
				"z": -0.6104428109,
				"element": "H" 
			},
			{
				"x": -3.3939140525,
				"y": 1.3152017458,
				"z": 1.0777692607,
				"element": "H" 
			},
			{
				"x": -2.7893780232,
				"y": 0.1514192468,
				"z": 2.264659942,
				"element": "H" 
			},
			{
				"x": -1.7377490883,
				"y": 1.4534411028,
				"z": 1.6949177928,
				"element": "H" 
			},
			{
				"x": -3.3985041895,
				"y": -1.7923844617,
				"z": 0.5862105709,
				"element": "H" 
			},
			{
				"x": -4.0289983902,
				"y": -0.5182258131,
				"z": -0.4406252236,
				"element": "H" 
			},
			{
				"x": -1.9016404241,
				"y": -2.574713475,
				"z": -1.2927607702,
				"element": "H" 
			},
			{
				"x": -2.519841331,
				"y": -1.277750495,
				"z": -2.322177114,
				"element": "H" 
			},
			{
				"x": -3.6010418721,
				"y": -2.5729212842,
				"z": -1.7865361836,
				"element": "H" 
			},
			{
				"x": 1.2509443748,
				"y": 0.1987160176,
				"z": -1.5974003975,
				"element": "H" 
			}
		],
		 "valence_orbital": [ 
			{
				"type": "occ",
				"energy": -0.31388,
				"method": "rhf"
			},
			{
				"type": "occ",
				"energy": -0.30583,
				"method": "rhf"
			},
			{
				"type": "occ",
				"energy": -0.30157,
				"method": "rhf"
			},
			{
				"type": "occ",
				"energy": -0.23115,
				"method": "rhf"
			},
			{
				"type": "occ",
				"energy": -0.21015,
				"method": "rhf"
			},
			{
				"type": "unocc",
				"energy": 0.00555,
				"method": "rhf"
			},
			{
				"type": "unocc",
				"energy": 0.01909,
				"method": "rhf"
			},
			{
				"type": "unocc",
				"energy": 0.06089,
				"method": "rhf"
			},
			{
				"type": "unocc",
				"energy": 0.0914,
				"method": "rhf"
			},
			{
				"type": "unocc",
				"energy": 0.1029,
				"method": "rhf"
			}
		],
		"cosmo_sigma_profile": { 
			"-0.025": 0.0,
			"-0.024": 0.0,
			"-0.023": 0.0,
			"-0.022": 0.0,
			"-0.021": 0.0,
			"-0.02": 0.0,
			"-0.019": 0.0,
			"-0.018": 0.0,
			"-0.017": 0.0,
			"-0.016": 0.155577115248,
			"-0.015": 0.527720021159,
			"-0.014": 0.652840108076,
			"-0.013": 1.07184524525,
			"-0.012": 0.77548486986,
			"-0.011": 0.385234595701,
			"-0.01": 1.11688309645,
			"-0.009": 1.13848013347,
			"-0.008": 1.50059251839,
			"-0.007": 0.651979871968,
			"-0.006": 0.886819752465,
			"-0.005": 3.90196293688,
			"-0.004": 11.0408794424,
			"-0.003": 21.4902408111,
			"-0.002": 40.6700881195,
			"-0.001": 41.0822236013,
			"0.0": 43.0301095682,
			"0.001": 40.4005233885,
			"0.002": 23.4207888006,
			"0.003": 10.9670629381,
			"0.004": 8.55855380507,
			"0.005": 8.64646031405,
			"0.006": 8.03340929698,
			"0.007": 6.5236928957,
			"0.008": 1.67006715091,
			"0.009": 1.81445611305,
			"0.01": 1.34869620257,
			"0.011": 0.423574291996,
			"0.012": 0.0,
			"0.013": 0.0,
			"0.014": 0.0,
			"0.015": 0.0,
			"0.016": 0.0,
			"0.017": 0.0,
			"0.018": 0.0,
			"0.019": 0.0,
			"0.02": 0.0,
			"0.021": 0.0,
			"0.022": 0.0,
			"0.023": 0.0,
			"0.024": 0.0,
			"0.025": 0.0
		}
	}
}
