{
	 "smiles": "OC(=O)CNC(=O)CC1CCCCC1", 
	 "Tm": 390.15, 
	 "num_atms": 31, 
	 "gaussian": { 
		 "optdone": 1, 
		 "sigma_profile": "yes", 
		 "theory": "DFT", 
		 "functional": "B3LYP", 
		 "basiset": "6-31G**", 
		 "properties": { 
			 "R2extent": 4166.9558, 
			 "electric_dipole_moment_norm": 2.269214461, 
			 "electric_quadrupole_moment_norm": 26.8649367621, 
			 "total_energy": -671.76541472, 
			 "HOMO_LUMO_gap": 0.26156, 
			 "cosmo_polarized_energy": -18.93, 
			 "cosmo_cavitation_energy": 32.29, 
			 "cosmo_dispersion_energy": -23.06, 
			 "cosmo_repulsion_energy": 1.86, 
			 "cosmo_total_nonelectrostatic_energy": 11.09, 
			 "SMD_solvation_energy": 6.31 
		},
		"coords": [
			{
				"x": -1.3045247496,
				"y": -1.4285970627,
				"z": 3.9313545457,
				"element": "O" 
			},
			{
				"x": -1.77530829,
				"y": -0.1708003542,
				"z": 3.8398846595,
				"element": "C" 
			},
			{
				"x": -1.5805959446,
				"y": 0.6643389773,
				"z": 4.6864162027,
				"element": "O" 
			},
			{
				"x": -2.6019010121,
				"y": 0.1278254747,
				"z": 2.5755483271,
				"element": "C" 
			},
			{
				"x": -2.6010755211,
				"y": -0.9425831627,
				"z": 1.5858319966,
				"element": "N" 
			},
			{
				"x": -1.7243876517,
				"y": -1.0711832144,
				"z": 0.5052586748,
				"element": "C" 
			},
			{
				"x": -2.0010827948,
				"y": -1.8384920189,
				"z": -0.4017816978,
				"element": "O" 
			},
			{
				"x": -0.4277080376,
				"y": -0.2759315374,
				"z": 0.581697001,
				"element": "C" 
			},
			{
				"x": 0.5241898791,
				"y": -0.540370803,
				"z": -0.5948546569,
				"element": "C" 
			},
			{
				"x": 1.9513739339,
				"y": -0.0520478518,
				"z": -0.2399419739,
				"element": "C" 
			},
			{
				"x": 2.7860541249,
				"y": 0.1967323228,
				"z": -1.5025868365,
				"element": "C" 
			},
			{
				"x": 2.1956662016,
				"y": 1.3576140849,
				"z": -2.3399856428,
				"element": "C" 
			},
			{
				"x": 0.6644554013,
				"y": 1.4802781319,
				"z": -2.1592895649,
				"element": "C" 
			},
			{
				"x": 0.0222569477,
				"y": 0.1076833114,
				"z": -1.9171974624,
				"element": "C" 
			},
			{
				"x": -1.6065220043,
				"y": -1.9083963311,
				"z": 3.1369465416,
				"element": "H" 
			},
			{
				"x": -3.6301925645,
				"y": 0.3060287578,
				"z": 2.9030090142,
				"element": "H" 
			},
			{
				"x": -2.2391057288,
				"y": 1.0752430491,
				"z": 2.1681230551,
				"element": "H" 
			},
			{
				"x": -3.4835271779,
				"y": -1.4056390476,
				"z": 1.4022897195,
				"element": "H" 
			},
			{
				"x": 0.0623739718,
				"y": -0.5185189236,
				"z": 1.5352015649,
				"element": "H" 
			},
			{
				"x": -0.6623215341,
				"y": 0.7966491466,
				"z": 0.6392025199,
				"element": "H" 
			},
			{
				"x": 0.5552546144,
				"y": -1.6246852598,
				"z": -0.7466485808,
				"element": "H" 
			},
			{
				"x": 1.8953595104,
				"y": 0.8813769341,
				"z": 0.338339361,
				"element": "H" 
			},
			{
				"x": 2.4394100002,
				"y": -0.7841784331,
				"z": 0.4143130923,
				"element": "H" 
			},
			{
				"x": 3.8279580085,
				"y": 0.4094150994,
				"z": -1.2393493904,
				"element": "H" 
			},
			{
				"x": 2.8048592625,
				"y": -0.7244142487,
				"z": -2.0993790707,
				"element": "H" 
			},
			{
				"x": 2.6723711391,
				"y": 2.3034015958,
				"z": -2.0560470657,
				"element": "H" 
			},
			{
				"x": 2.4339363607,
				"y": 1.2001892172,
				"z": -3.3985651379,
				"element": "H" 
			},
			{
				"x": 0.4434038372,
				"y": 2.1393218469,
				"z": -1.3085273718,
				"element": "H" 
			},
			{
				"x": 0.2166779039,
				"y": 1.9634783673,
				"z": -3.0348416464,
				"element": "H" 
			},
			{
				"x": 0.2675751677,
				"y": -0.5525621603,
				"z": -2.7577370643,
				"element": "H" 
			},
			{
				"x": -1.0696232538,
				"y": 0.1785240924,
				"z": -1.9090831126,
				"element": "H" 
			}
		],
		 "valence_orbital": [ 
			{
				"type": "occ",
				"energy": -0.3018,
				"method": "rhf"
			},
			{
				"type": "occ",
				"energy": -0.29926,
				"method": "rhf"
			},
			{
				"type": "occ",
				"energy": -0.29823,
				"method": "rhf"
			},
			{
				"type": "occ",
				"energy": -0.27357,
				"method": "rhf"
			},
			{
				"type": "occ",
				"energy": -0.26234,
				"method": "rhf"
			},
			{
				"type": "unocc",
				"energy": -0.00078,
				"method": "rhf"
			},
			{
				"type": "unocc",
				"energy": 0.00145,
				"method": "rhf"
			},
			{
				"type": "unocc",
				"energy": 0.05387,
				"method": "rhf"
			},
			{
				"type": "unocc",
				"energy": 0.06817,
				"method": "rhf"
			},
			{
				"type": "unocc",
				"energy": 0.08597,
				"method": "rhf"
			}
		],
		"cosmo_sigma_profile": { 
			"-0.025": 0.0,
			"-0.024": 0.0,
			"-0.023": 0.0,
			"-0.022": 0.0,
			"-0.021": 0.0,
			"-0.02": 0.0,
			"-0.019": 0.0,
			"-0.018": 0.0,
			"-0.017": 0.0,
			"-0.016": 0.0,
			"-0.015": 0.430083925483,
			"-0.014": 1.88716357466,
			"-0.013": 2.70097817518,
			"-0.012": 1.99395834471,
			"-0.011": 3.4103149485,
			"-0.01": 4.63966961415,
			"-0.009": 6.16231321257,
			"-0.008": 6.44229214623,
			"-0.007": 5.28933687514,
			"-0.006": 7.01800636356,
			"-0.005": 7.78744378066,
			"-0.004": 9.56767733675,
			"-0.003": 10.618455659,
			"-0.002": 27.4881832439,
			"-0.001": 32.9702452237,
			"0.0": 30.9075616886,
			"0.001": 23.4685210895,
			"0.002": 10.3488224648,
			"0.003": 3.78776216117,
			"0.004": 3.77035301178,
			"0.005": 2.40964415522,
			"0.006": 4.44520062613,
			"0.007": 4.01537825326,
			"0.008": 3.71700029254,
			"0.009": 4.98897406459,
			"0.01": 6.78088575113,
			"0.011": 6.91889727756,
			"0.012": 7.58757458915,
			"0.013": 7.42767146992,
			"0.014": 1.1036255106,
			"0.015": 0.0,
			"0.016": 0.0,
			"0.017": 0.0,
			"0.018": 0.0,
			"0.019": 0.0,
			"0.02": 0.0,
			"0.021": 0.0,
			"0.022": 0.0,
			"0.023": 0.0,
			"0.024": 0.0,
			"0.025": 0.0
		}
	}
}
