{
	 "smiles": "O(C1=CC=CC2=CC=CC=C12)C1=CC=CC2=CC=CC=C12", 
	 "Tm": 383.15, 
	 "num_atms": 35, 
	 "gaussian": { 
		 "optdone": 1, 
		 "sigma_profile": "yes", 
		 "theory": "DFT", 
		 "functional": "B3LYP", 
		 "basiset": "6-31G**", 
		 "properties": { 
			 "R2extent": 7535.3571, 
			 "electric_dipole_moment_norm": 0.626239842233, 
			 "electric_quadrupole_moment_norm": 8.18531796145, 
			 "total_energy": -845.804675003, 
			 "HOMO_LUMO_gap": 0.1574, 
			 "cosmo_polarized_energy": -7.31, 
			 "cosmo_cavitation_energy": 38.66, 
			 "cosmo_dispersion_energy": -27.72, 
			 "cosmo_repulsion_energy": 2.07, 
			 "cosmo_total_nonelectrostatic_energy": 13.0, 
			 "SMD_solvation_energy": 6.07 
		},
		"coords": [
			{
				"x": 0.4902066656,
				"y": 1.0684561724,
				"z": 0.0281202536,
				"element": "O" 
			},
			{
				"x": 0.758732557,
				"y": -0.0770032397,
				"z": 0.7532274859,
				"element": "C" 
			},
			{
				"x": 1.9910593729,
				"y": -0.6951116727,
				"z": 0.7420580571,
				"element": "C" 
			},
			{
				"x": 2.217821551,
				"y": -1.8217417197,
				"z": 1.5663999409,
				"element": "C" 
			},
			{
				"x": 1.2273391903,
				"y": -2.3057875636,
				"z": 2.3900828649,
				"element": "C" 
			},
			{
				"x": -0.0479342598,
				"y": -1.680369173,
				"z": 2.4253332115,
				"element": "C" 
			},
			{
				"x": -1.0961487109,
				"y": -2.1482054551,
				"z": 3.2636966964,
				"element": "C" 
			},
			{
				"x": -2.3248530244,
				"y": -1.5278628304,
				"z": 3.2760440693,
				"element": "C" 
			},
			{
				"x": -2.5667079154,
				"y": -0.4061693701,
				"z": 2.4460528777,
				"element": "C" 
			},
			{
				"x": -1.5758961159,
				"y": 0.0773946265,
				"z": 1.6208345013,
				"element": "C" 
			},
			{
				"x": -0.2987110574,
				"y": -0.5427518314,
				"z": 1.5900233914,
				"element": "C" 
			},
			{
				"x": 0.9835785702,
				"y": 1.2485634924,
				"z": -1.2501817934,
				"element": "C" 
			},
			{
				"x": 1.0440575178,
				"y": 0.2295946827,
				"z": -2.1769275339,
				"element": "C" 
			},
			{
				"x": 1.4913317708,
				"y": 0.5023161939,
				"z": -3.4906352203,
				"element": "C" 
			},
			{
				"x": 1.8584989206,
				"y": 1.7754265095,
				"z": -3.8623607852,
				"element": "C" 
			},
			{
				"x": 1.7965542432,
				"y": 2.8434532277,
				"z": -2.9273679334,
				"element": "C" 
			},
			{
				"x": 2.1647928005,
				"y": 4.1722711501,
				"z": -3.2725193036,
				"element": "C" 
			},
			{
				"x": 2.1007855447,
				"y": 5.1890553955,
				"z": -2.3469135984,
				"element": "C" 
			},
			{
				"x": 1.6653320841,
				"y": 4.9251821566,
				"z": -1.025434219,
				"element": "C" 
			},
			{
				"x": 1.2989797381,
				"y": 3.6509185694,
				"z": -0.6531680749,
				"element": "C" 
			},
			{
				"x": 1.3540059586,
				"y": 2.5840389865,
				"z": -1.5888423097,
				"element": "C" 
			},
			{
				"x": 2.7808773231,
				"y": -0.3152159934,
				"z": 0.1037129224,
				"element": "H" 
			},
			{
				"x": 3.1933688781,
				"y": -2.2986518301,
				"z": 1.5463764184,
				"element": "H" 
			},
			{
				"x": 1.4073846835,
				"y": -3.1696904925,
				"z": 3.0237077116,
				"element": "H" 
			},
			{
				"x": -0.9078686227,
				"y": -3.0099598585,
				"z": 3.8988452884,
				"element": "H" 
			},
			{
				"x": -3.1148248926,
				"y": -1.8981036607,
				"z": 3.9232375676,
				"element": "H" 
			},
			{
				"x": -3.5410028212,
				"y": 0.0736410553,
				"z": 2.4616014095,
				"element": "H" 
			},
			{
				"x": -1.7531488962,
				"y": 0.9359443517,
				"z": 0.9831443269,
				"element": "H" 
			},
			{
				"x": 0.7477356246,
				"y": -0.7749480841,
				"z": -1.896399678,
				"element": "H" 
			},
			{
				"x": 1.5342468398,
				"y": -0.3105866946,
				"z": -4.2095832672,
				"element": "H" 
			},
			{
				"x": 2.1985602797,
				"y": 1.9804301326,
				"z": -4.8735766284,
				"element": "H" 
			},
			{
				"x": 2.499555094,
				"y": 4.3715322836,
				"z": -4.2872676801,
				"element": "H" 
			},
			{
				"x": 2.3855203626,
				"y": 6.1990781829,
				"z": -2.6275803307,
				"element": "H" 
			},
			{
				"x": 1.6216595291,
				"y": 5.7345187647,
				"z": -0.3023999642,
				"element": "H" 
			},
			{
				"x": 0.9639112166,
				"y": 3.4412435354,
				"z": 0.3562593258,
				"element": "H" 
			}
		],
		 "valence_orbital": [ 
			{
				"type": "occ",
				"energy": -0.26352,
				"method": "rhf"
			},
			{
				"type": "occ",
				"energy": -0.24584,
				"method": "rhf"
			},
			{
				"type": "occ",
				"energy": -0.24291,
				"method": "rhf"
			},
			{
				"type": "occ",
				"energy": -0.21691,
				"method": "rhf"
			},
			{
				"type": "occ",
				"energy": -0.19831,
				"method": "rhf"
			},
			{
				"type": "unocc",
				"energy": -0.04091,
				"method": "rhf"
			},
			{
				"type": "unocc",
				"energy": -0.03158,
				"method": "rhf"
			},
			{
				"type": "unocc",
				"energy": -0.01329,
				"method": "rhf"
			},
			{
				"type": "unocc",
				"energy": -0.00587,
				"method": "rhf"
			},
			{
				"type": "unocc",
				"energy": 0.03312,
				"method": "rhf"
			}
		],
		"cosmo_sigma_profile": { 
			"-0.025": 0.0,
			"-0.024": 0.0,
			"-0.023": 0.0,
			"-0.022": 0.0,
			"-0.021": 0.0,
			"-0.02": 0.0,
			"-0.019": 0.0,
			"-0.018": 0.0,
			"-0.017": 0.0,
			"-0.016": 0.0,
			"-0.015": 0.0,
			"-0.014": 0.0,
			"-0.013": 0.0,
			"-0.012": 0.0,
			"-0.011": 0.0,
			"-0.01": 0.0,
			"-0.009": 0.0,
			"-0.008": 0.0,
			"-0.007": 0.5068101579,
			"-0.006": 18.3610036759,
			"-0.005": 28.0514671562,
			"-0.004": 28.778949361,
			"-0.003": 24.2792976692,
			"-0.002": 19.0031246597,
			"-0.001": 18.521034983,
			"0.0": 18.6496958362,
			"0.001": 21.7397990295,
			"0.002": 25.0504590111,
			"0.003": 37.5139646828,
			"0.004": 41.1029249776,
			"0.005": 27.5925196338,
			"0.006": 2.1651022181,
			"0.007": 0.0,
			"0.008": 0.0,
			"0.009": 0.0,
			"0.01": 0.0,
			"0.011": 0.0,
			"0.012": 0.0,
			"0.013": 0.0,
			"0.014": 0.0,
			"0.015": 0.0,
			"0.016": 0.0,
			"0.017": 0.0,
			"0.018": 0.0,
			"0.019": 0.0,
			"0.02": 0.0,
			"0.021": 0.0,
			"0.022": 0.0,
			"0.023": 0.0,
			"0.024": 0.0,
			"0.025": 0.0
		}
	}
}
