{
	 "smiles": "CC1=CC=C(OC2CCNCC2)C=C1", 
	 "Tm": 318.15, 
	 "num_atms": 31, 
	 "gaussian": { 
		 "optdone": 1, 
		 "sigma_profile": "yes", 
		 "theory": "DFT", 
		 "functional": "B3LYP", 
		 "basiset": "6-31G**", 
		 "properties": { 
			 "R2extent": 3210.9378, 
			 "electric_dipole_moment_norm": 1.63681784875, 
			 "electric_quadrupole_moment_norm": 5.84526657733, 
			 "total_energy": -597.485736334, 
			 "HOMO_LUMO_gap": 0.2123, 
			 "cosmo_polarized_energy": -7.53, 
			 "cosmo_cavitation_energy": 31.12, 
			 "cosmo_dispersion_energy": -22.68, 
			 "cosmo_repulsion_energy": 1.79, 
			 "cosmo_total_nonelectrostatic_energy": 10.24, 
			 "SMD_solvation_energy": 2.44 
		},
		"coords": [
			{
				"x": 1.2261133739,
				"y": 3.1478881321,
				"z": -3.7653412028,
				"element": "C" 
			},
			{
				"x": 1.0356416686,
				"y": 2.4000888058,
				"z": -2.4660572531,
				"element": "C" 
			},
			{
				"x": -0.0326549931,
				"y": 2.6975670401,
				"z": -1.6093942747,
				"element": "C" 
			},
			{
				"x": -0.196009441,
				"y": 2.0331887556,
				"z": -0.393937662,
				"element": "C" 
			},
			{
				"x": 0.7062261431,
				"y": 1.0340930804,
				"z": -0.0115523981,
				"element": "C" 
			},
			{
				"x": 0.6028342538,
				"y": 0.4405731445,
				"z": 1.2269591657,
				"element": "O" 
			},
			{
				"x": -0.1384900107,
				"y": -0.7827510022,
				"z": 1.4641697621,
				"element": "C" 
			},
			{
				"x": 0.4231323816,
				"y": -2.0222313022,
				"z": 0.7399283757,
				"element": "C" 
			},
			{
				"x": -0.1487339526,
				"y": -2.2504271765,
				"z": -0.6660249656,
				"element": "C" 
			},
			{
				"x": -1.6131081295,
				"y": -2.2604398387,
				"z": -0.5935349989,
				"element": "N" 
			},
			{
				"x": -2.1302122974,
				"y": -0.9529206098,
				"z": -0.1779562777,
				"element": "C" 
			},
			{
				"x": -1.6604481556,
				"y": -0.6574447603,
				"z": 1.253004915,
				"element": "C" 
			},
			{
				"x": 1.7913452263,
				"y": 0.7422735343,
				"z": -0.8456223928,
				"element": "C" 
			},
			{
				"x": 1.9436683976,
				"y": 1.4136581802,
				"z": -2.0586916286,
				"element": "C" 
			},
			{
				"x": 0.2688964387,
				"y": 3.4727003986,
				"z": -4.1848036998,
				"element": "H" 
			},
			{
				"x": 1.7291789993,
				"y": 2.5283273564,
				"z": -4.5141801815,
				"element": "H" 
			},
			{
				"x": 1.839472932,
				"y": 4.0468627799,
				"z": -3.6234213013,
				"element": "H" 
			},
			{
				"x": -0.7462788803,
				"y": 3.4675914288,
				"z": -1.8934863048,
				"element": "H" 
			},
			{
				"x": -1.015201416,
				"y": 2.2881681939,
				"z": 0.2706415816,
				"element": "H" 
			},
			{
				"x": 0.0382041357,
				"y": -0.9154687097,
				"z": 2.5360307579,
				"element": "H" 
			},
			{
				"x": 1.5164367717,
				"y": -1.9654559543,
				"z": 0.7154960952,
				"element": "H" 
			},
			{
				"x": 0.1567790664,
				"y": -2.8938241167,
				"z": 1.3504814786,
				"element": "H" 
			},
			{
				"x": 0.2372973823,
				"y": -1.4850074321,
				"z": -1.3605878802,
				"element": "H" 
			},
			{
				"x": 0.1888750056,
				"y": -3.2248190065,
				"z": -1.0376911555,
				"element": "H" 
			},
			{
				"x": -1.9958600016,
				"y": -2.5027794599,
				"z": -1.5032738447,
				"element": "H" 
			},
			{
				"x": -1.819074037,
				"y": -0.1385672771,
				"z": -0.8542226278,
				"element": "H" 
			},
			{
				"x": -3.2256136698,
				"y": -0.9889182505,
				"z": -0.1967458904,
				"element": "H" 
			},
			{
				"x": -1.9920378553,
				"y": 0.3339162227,
				"z": 1.5793556529,
				"element": "H" 
			},
			{
				"x": -2.1343091683,
				"y": -1.3927726714,
				"z": 1.9149732266,
				"element": "H" 
			},
			{
				"x": 2.513847488,
				"y": -0.0040082082,
				"z": -0.531299923,
				"element": "H" 
			},
			{
				"x": 2.7897823434,
				"y": 1.1704387227,
				"z": -2.6973151479,
				"element": "H" 
			}
		],
		 "valence_orbital": [ 
			{
				"type": "occ",
				"energy": -0.30075,
				"method": "rhf"
			},
			{
				"type": "occ",
				"energy": -0.25583,
				"method": "rhf"
			},
			{
				"type": "occ",
				"energy": -0.24649,
				"method": "rhf"
			},
			{
				"type": "occ",
				"energy": -0.22633,
				"method": "rhf"
			},
			{
				"type": "occ",
				"energy": -0.21192,
				"method": "rhf"
			},
			{
				"type": "unocc",
				"energy": 0.00038,
				"method": "rhf"
			},
			{
				"type": "unocc",
				"energy": 0.00774,
				"method": "rhf"
			},
			{
				"type": "unocc",
				"energy": 0.08075,
				"method": "rhf"
			},
			{
				"type": "unocc",
				"energy": 0.08633,
				"method": "rhf"
			},
			{
				"type": "unocc",
				"energy": 0.10555,
				"method": "rhf"
			}
		],
		"cosmo_sigma_profile": { 
			"-0.025": 0.0,
			"-0.024": 0.0,
			"-0.023": 0.0,
			"-0.022": 0.0,
			"-0.021": 0.0,
			"-0.02": 0.0,
			"-0.019": 0.0,
			"-0.018": 0.0,
			"-0.017": 0.0,
			"-0.016": 0.0,
			"-0.015": 0.0,
			"-0.014": 0.0,
			"-0.013": 0.0,
			"-0.012": 0.0,
			"-0.011": 0.0,
			"-0.01": 0.648159957171,
			"-0.009": 1.2964713324,
			"-0.008": 1.12282360638,
			"-0.007": 0.84431526261,
			"-0.006": 2.79347688479,
			"-0.005": 9.31751746106,
			"-0.004": 23.4372163928,
			"-0.003": 32.2391856361,
			"-0.002": 27.4208934283,
			"-0.001": 29.8077610531,
			"0.0": 33.8198918659,
			"0.001": 16.6564934247,
			"0.002": 10.0600930538,
			"0.003": 9.75972203654,
			"0.004": 10.4317367709,
			"0.005": 10.1161613348,
			"0.006": 7.65405295209,
			"0.007": 2.71085078046,
			"0.008": 1.85903287514,
			"0.009": 1.64768375838,
			"0.01": 1.47084994385,
			"0.011": 1.72802723723,
			"0.012": 2.53311079719,
			"0.013": 0.898996746297,
			"0.014": 0.299139942458,
			"0.015": 0.414116885673,
			"0.016": 0.771180492945,
			"0.017": 0.443800767451,
			"0.018": 0.334453568737,
			"0.019": 0.167886554736,
			"0.02": 0.0,
			"0.021": 0.0,
			"0.022": 0.0,
			"0.023": 0.0,
			"0.024": 0.0,
			"0.025": 0.0
		}
	}
}
