{
	 "smiles": "NC1=C(Br)C=C(Br)C(Cl)=C1Cl", 
	 "Tm": 371.15, 
	 "num_atms": 14, 
	 "gaussian": { 
		 "optdone": 1, 
		 "sigma_profile": "yes", 
		 "theory": "DFT", 
		 "functional": "B3LYP", 
		 "basiset": "6-31G**", 
		 "properties": { 
			 "R2extent": 5368.5672, 
			 "electric_dipole_moment_norm": 2.72862812417, 
			 "electric_quadrupole_moment_norm": 8.05188290774, 
			 "total_energy": -6348.38489365, 
			 "HOMO_LUMO_gap": 0.18167, 
			 "cosmo_polarized_energy": -6.35, 
			 "cosmo_cavitation_energy": 25.96, 
			 "cosmo_dispersion_energy": -20.67, 
			 "cosmo_repulsion_energy": 1.65, 
			 "cosmo_total_nonelectrostatic_energy": 6.95, 
			 "SMD_solvation_energy": 1.67 
		},
		"coords": [
			{
				"x": 1.0776560235,
				"y": 0.3997364352,
				"z": 2.3443482151,
				"element": "N" 
			},
			{
				"x": 0.0860183722,
				"y": 0.1377637842,
				"z": 1.4354958496,
				"element": "C" 
			},
			{
				"x": -0.7928822982,
				"y": 1.1395055811,
				"z": 0.9741794591,
				"element": "C" 
			},
			{
				"x": -0.6494316372,
				"y": 2.9056192315,
				"z": 1.6909207333,
				"element": "Br" 
			},
			{
				"x": -1.7630525801,
				"y": 0.8887946697,
				"z": 0.0169880534,
				"element": "C" 
			},
			{
				"x": -1.9044284516,
				"y": -0.3869245338,
				"z": -0.5242129166,
				"element": "C" 
			},
			{
				"x": -3.252816767,
				"y": -0.6638721239,
				"z": -1.833858815,
				"element": "Br" 
			},
			{
				"x": -1.0613181888,
				"y": -1.4205573956,
				"z": -0.093327346,
				"element": "C" 
			},
			{
				"x": -1.2188484432,
				"y": -3.0230384503,
				"z": -0.7441506459,
				"element": "Cl" 
			},
			{
				"x": -0.0841784268,
				"y": -1.1502102586,
				"z": 0.8751669288,
				"element": "C" 
			},
			{
				"x": 0.9798609694,
				"y": -2.421048317,
				"z": 1.4396305708,
				"element": "Cl" 
			},
			{
				"x": 0.9951942921,
				"y": 1.2547431131,
				"z": 2.8735697234,
				"element": "H" 
			},
			{
				"x": 1.4924325094,
				"y": -0.386546689,
				"z": 2.8197653585,
				"element": "H" 
			},
			{
				"x": -2.4169053739,
				"y": 1.6862349532,
				"z": -0.3112151685,
				"element": "H" 
			}
		],
		 "valence_orbital": [ 
			{
				"type": "occ",
				"energy": -0.31143,
				"method": "rhf"
			},
			{
				"type": "occ",
				"energy": -0.29197,
				"method": "rhf"
			},
			{
				"type": "occ",
				"energy": -0.28998,
				"method": "rhf"
			},
			{
				"type": "occ",
				"energy": -0.25581,
				"method": "rhf"
			},
			{
				"type": "occ",
				"energy": -0.22367,
				"method": "rhf"
			},
			{
				"type": "unocc",
				"energy": -0.042,
				"method": "rhf"
			},
			{
				"type": "unocc",
				"energy": -0.03799,
				"method": "rhf"
			},
			{
				"type": "unocc",
				"energy": -0.02054,
				"method": "rhf"
			},
			{
				"type": "unocc",
				"energy": 0.00432,
				"method": "rhf"
			},
			{
				"type": "unocc",
				"energy": 0.02981,
				"method": "rhf"
			}
		],
		"cosmo_sigma_profile": { 
			"-0.025": 0.0,
			"-0.024": 0.0,
			"-0.023": 0.0,
			"-0.022": 0.0,
			"-0.021": 0.0,
			"-0.02": 0.0,
			"-0.019": 0.0,
			"-0.018": 0.0,
			"-0.017": 0.0,
			"-0.016": 0.0,
			"-0.015": 0.0,
			"-0.014": 0.0610447222438,
			"-0.013": 1.10568667269,
			"-0.012": 2.15256165661,
			"-0.011": 1.70140026867,
			"-0.01": 2.03541715207,
			"-0.009": 1.70880736632,
			"-0.008": 3.93834175717,
			"-0.007": 2.71232482726,
			"-0.006": 4.44368010963,
			"-0.005": 6.60829132416,
			"-0.004": 7.61340531771,
			"-0.003": 9.65528566287,
			"-0.002": 11.6414515708,
			"-0.001": 20.3216022129,
			"0.0": 32.0681513623,
			"0.001": 27.784996081,
			"0.002": 22.8325807292,
			"0.003": 27.5044277412,
			"0.004": 25.8633069762,
			"0.005": 4.94434881822,
			"0.006": 0.633942202616,
			"0.007": 1.12848810767,
			"0.008": 0.383460140508,
			"0.009": 0.472219101626,
			"0.01": 0.344131835237,
			"0.011": 0.0329453571373,
			"0.012": 0.0,
			"0.013": 0.0,
			"0.014": 0.0,
			"0.015": 0.0,
			"0.016": 0.0,
			"0.017": 0.0,
			"0.018": 0.0,
			"0.019": 0.0,
			"0.02": 0.0,
			"0.021": 0.0,
			"0.022": 0.0,
			"0.023": 0.0,
			"0.024": 0.0,
			"0.025": 0.0
		}
	}
}
