{
	 "smiles": "C=CC1OCC2(CO1)COC(OC2)C=C", 
	 "Tm": 317.65, 
	 "num_atms": 31, 
	 "gaussian": { 
		 "optdone": 1, 
		 "sigma_profile": "yes", 
		 "theory": "DFT", 
		 "functional": "B3LYP", 
		 "basiset": "6-31G**", 
		 "properties": { 
			 "R2extent": 4215.701, 
			 "electric_dipole_moment_norm": 1.49483886757, 
			 "electric_quadrupole_moment_norm": 4.31745588628, 
			 "total_energy": -729.612224248, 
			 "HOMO_LUMO_gap": 0.25625, 
			 "cosmo_polarized_energy": -11.27, 
			 "cosmo_cavitation_energy": 32.64, 
			 "cosmo_dispersion_energy": -23.3, 
			 "cosmo_repulsion_energy": 1.8, 
			 "cosmo_total_nonelectrostatic_energy": 11.14, 
			 "SMD_solvation_energy": 6.42 
		},
		"coords": [
			{
				"x": 2.1147142404,
				"y": -1.8499966895,
				"z": -4.2259954162,
				"element": "C" 
			},
			{
				"x": 1.3569664975,
				"y": -2.6270443542,
				"z": -3.4568922032,
				"element": "C" 
			},
			{
				"x": 0.2301796944,
				"y": -2.1321619193,
				"z": -2.5970376811,
				"element": "C" 
			},
			{
				"x": 0.2633082335,
				"y": -0.7247011753,
				"z": -2.5113171219,
				"element": "O" 
			},
			{
				"x": -0.7876827029,
				"y": -0.2140623018,
				"z": -1.695528883,
				"element": "C" 
			},
			{
				"x": -0.7319326863,
				"y": -0.8282285776,
				"z": -0.2866586383,
				"element": "C" 
			},
			{
				"x": -0.7174878501,
				"y": -2.3537061546,
				"z": -0.4666255036,
				"element": "C" 
			},
			{
				"x": 0.3519677238,
				"y": -2.7442309675,
				"z": -1.3240982034,
				"element": "O" 
			},
			{
				"x": 0.5410838736,
				"y": -0.351691217,
				"z": 0.4582298504,
				"element": "C" 
			},
			{
				"x": 0.2374063207,
				"y": 0.8193027964,
				"z": 1.2191827924,
				"element": "O" 
			},
			{
				"x": -0.597782332,
				"y": 0.5211310098,
				"z": 2.3154425126,
				"element": "C" 
			},
			{
				"x": -1.6203833757,
				"y": -0.4118573072,
				"z": 1.9436864126,
				"element": "O" 
			},
			{
				"x": -1.9369848718,
				"y": -0.361191178,
				"z": 0.5562955241,
				"element": "C" 
			},
			{
				"x": -1.1829617099,
				"y": 1.8092067034,
				"z": 2.8223059748,
				"element": "C" 
			},
			{
				"x": -1.0543742641,
				"y": 2.2221598238,
				"z": 4.0810238758,
				"element": "C" 
			},
			{
				"x": 1.9641355677,
				"y": -0.7764284508,
				"z": -4.2622543192,
				"element": "H" 
			},
			{
				"x": 2.9086288281,
				"y": -2.2677736852,
				"z": -4.8373043459,
				"element": "H" 
			},
			{
				"x": 1.504286195,
				"y": -3.7035808877,
				"z": -3.4142848203,
				"element": "H" 
			},
			{
				"x": -0.7486515693,
				"y": -2.4337275858,
				"z": -3.0268452024,
				"element": "H" 
			},
			{
				"x": -0.6488040415,
				"y": 0.8704234079,
				"z": -1.6532155249,
				"element": "H" 
			},
			{
				"x": -1.7654213951,
				"y": -0.4204238347,
				"z": -2.1644072812,
				"element": "H" 
			},
			{
				"x": -0.5670537205,
				"y": -2.8675164806,
				"z": 0.4869349108,
				"element": "H" 
			},
			{
				"x": -1.6803017033,
				"y": -2.688928412,
				"z": -0.8914762899,
				"element": "H" 
			},
			{
				"x": 0.9280204367,
				"y": -1.1426617134,
				"z": 1.1167682586,
				"element": "H" 
			},
			{
				"x": 1.3299328516,
				"y": -0.0774045581,
				"z": -0.2434840565,
				"element": "H" 
			},
			{
				"x": -0.0307222633,
				"y": 0.0119312998,
				"z": 3.111366529,
				"element": "H" 
			},
			{
				"x": -2.2411455821,
				"y": 0.6522445172,
				"z": 0.2552476875,
				"element": "H" 
			},
			{
				"x": -2.8024189614,
				"y": -1.0177226154,
				"z": 0.4224533573,
				"element": "H" 
			},
			{
				"x": -1.7416790253,
				"y": 2.3940347312,
				"z": 2.0940475855,
				"element": "H" 
			},
			{
				"x": -0.493108843,
				"y": 1.6458094282,
				"z": 4.8128456249,
				"element": "H" 
			},
			{
				"x": -1.5008335654,
				"y": 3.1481963477,
				"z": 4.4300945946,
				"element": "H" 
			}
		],
		 "valence_orbital": [ 
			{
				"type": "occ",
				"energy": -0.27588,
				"method": "rhf"
			},
			{
				"type": "occ",
				"energy": -0.26721,
				"method": "rhf"
			},
			{
				"type": "occ",
				"energy": -0.26684,
				"method": "rhf"
			},
			{
				"type": "occ",
				"energy": -0.26199,
				"method": "rhf"
			},
			{
				"type": "occ",
				"energy": -0.25115,
				"method": "rhf"
			},
			{
				"type": "unocc",
				"energy": 0.0051,
				"method": "rhf"
			},
			{
				"type": "unocc",
				"energy": 0.01018,
				"method": "rhf"
			},
			{
				"type": "unocc",
				"energy": 0.08488,
				"method": "rhf"
			},
			{
				"type": "unocc",
				"energy": 0.09514,
				"method": "rhf"
			},
			{
				"type": "unocc",
				"energy": 0.09835,
				"method": "rhf"
			}
		],
		"cosmo_sigma_profile": { 
			"-0.025": 0.0,
			"-0.024": 0.0,
			"-0.023": 0.0,
			"-0.022": 0.0,
			"-0.021": 0.0,
			"-0.02": 0.0,
			"-0.019": 0.0,
			"-0.018": 0.0,
			"-0.017": 0.0,
			"-0.016": 0.0,
			"-0.015": 0.0,
			"-0.014": 0.0,
			"-0.013": 0.0,
			"-0.012": 0.0,
			"-0.011": 0.0,
			"-0.01": 0.0,
			"-0.009": 0.0,
			"-0.008": 0.0,
			"-0.007": 0.756469905717,
			"-0.006": 13.4771175514,
			"-0.005": 34.799965744,
			"-0.004": 31.2243406953,
			"-0.003": 24.4157993395,
			"-0.002": 20.857227651,
			"-0.001": 17.7980889184,
			"0.0": 14.2862494726,
			"0.001": 12.7700391094,
			"0.002": 10.6993301352,
			"0.003": 10.0070101048,
			"0.004": 11.5978890843,
			"0.005": 10.7420011512,
			"0.006": 9.8922090354,
			"0.007": 7.91592612952,
			"0.008": 5.94829977575,
			"0.009": 5.66861716441,
			"0.01": 3.93832251907,
			"0.011": 3.77563085745,
			"0.012": 3.7766178674,
			"0.013": 0.970237030205,
			"0.014": 0.0,
			"0.015": 0.0,
			"0.016": 0.0,
			"0.017": 0.0,
			"0.018": 0.0,
			"0.019": 0.0,
			"0.02": 0.0,
			"0.021": 0.0,
			"0.022": 0.0,
			"0.023": 0.0,
			"0.024": 0.0,
			"0.025": 0.0
		}
	}
}
