{
	 "smiles": "OC(=O)C1=CC(N2CCCS2(=O)=O)=C(Cl)C=C1", 
	 "Tm": 486.15, 
	 "num_atms": 27, 
	 "gaussian": { 
		 "optdone": 1, 
		 "sigma_profile": "yes", 
		 "theory": "DFT", 
		 "functional": "B3LYP", 
		 "basiset": "6-31G**", 
		 "properties": { 
			 "R2extent": 6081.7498, 
			 "electric_dipole_moment_norm": 6.21897377145, 
			 "electric_quadrupole_moment_norm": 38.7333367838, 
			 "total_energy": -1601.04671047, 
			 "HOMO_LUMO_gap": 0.18905, 
			 "cosmo_polarized_energy": -25.53, 
			 "cosmo_cavitation_energy": 33.88, 
			 "cosmo_dispersion_energy": -24.49, 
			 "cosmo_repulsion_energy": 1.86, 
			 "cosmo_total_nonelectrostatic_energy": 11.24, 
			 "SMD_solvation_energy": 5.5 
		},
		"coords": [
			{
				"x": 0.2068592331,
				"y": 2.9526625485,
				"z": 5.3972060012,
				"element": "O" 
			},
			{
				"x": 0.0208480198,
				"y": 2.9094253056,
				"z": 4.0504532084,
				"element": "C" 
			},
			{
				"x": -0.1095542454,
				"y": 3.9303744046,
				"z": 3.4201648721,
				"element": "O" 
			},
			{
				"x": -0.023577788,
				"y": 1.5453383317,
				"z": 3.4257722229,
				"element": "C" 
			},
			{
				"x": 0.2784413248,
				"y": 1.4434231197,
				"z": 2.0636472471,
				"element": "C" 
			},
			{
				"x": 0.2490457367,
				"y": 0.2084184642,
				"z": 1.4070039798,
				"element": "C" 
			},
			{
				"x": 0.5946976052,
				"y": 0.0960482981,
				"z": 0.0375155204,
				"element": "N" 
			},
			{
				"x": -0.4291628334,
				"y": -0.0538444731,
				"z": -1.0148367048,
				"element": "C" 
			},
			{
				"x": 0.2551338787,
				"y": 0.288212959,
				"z": -2.3644278467,
				"element": "C" 
			},
			{
				"x": 1.7636509472,
				"y": 0.103577056,
				"z": -2.181442075,
				"element": "C" 
			},
			{
				"x": 2.0438124297,
				"y": 0.8020484037,
				"z": -0.5334841385,
				"element": "S" 
			},
			{
				"x": 1.94538171,
				"y": 2.2661972256,
				"z": -0.6277061613,
				"element": "O" 
			},
			{
				"x": 3.1692887122,
				"y": 0.2067428213,
				"z": 0.1867279188,
				"element": "O" 
			},
			{
				"x": -0.1307954929,
				"y": -0.9312281253,
				"z": 2.1450788039,
				"element": "C" 
			},
			{
				"x": -0.1678017467,
				"y": -2.5059544871,
				"z": 1.3844492498,
				"element": "Cl" 
			},
			{
				"x": -0.4805060441,
				"y": -0.8325008042,
				"z": 3.4903106488,
				"element": "C" 
			},
			{
				"x": -0.4174031645,
				"y": 0.4021931743,
				"z": 4.1318574375,
				"element": "C" 
			},
			{
				"x": 0.4817255645,
				"y": 2.0853014329,
				"z": 5.7255526673,
				"element": "H" 
			},
			{
				"x": 0.5468573636,
				"y": 2.338792285,
				"z": 1.5134393192,
				"element": "H" 
			},
			{
				"x": -0.7914692257,
				"y": -1.0866732498,
				"z": -1.005536072,
				"element": "H" 
			},
			{
				"x": -1.2786546509,
				"y": 0.613720819,
				"z": -0.8322684051,
				"element": "H" 
			},
			{
				"x": 0.0545267807,
				"y": 1.3284459868,
				"z": -2.6319303979,
				"element": "H" 
			},
			{
				"x": -0.1263567755,
				"y": -0.3479046814,
				"z": -3.166454934,
				"element": "H" 
			},
			{
				"x": 2.3721431024,
				"y": 0.6638274841,
				"z": -2.8926243739,
				"element": "H" 
			},
			{
				"x": 2.0767336223,
				"y": -0.9424682923,
				"z": -2.1496329074,
				"element": "H" 
			},
			{
				"x": -0.7901543332,
				"y": -1.7215101299,
				"z": 4.0278351746,
				"element": "H" 
			},
			{
				"x": -0.7175097305,
				"y": 0.4650341233,
				"z": 5.1743297448,
				"element": "H" 
			}
		],
		 "valence_orbital": [ 
			{
				"type": "occ",
				"energy": -0.30738,
				"method": "rhf"
			},
			{
				"type": "occ",
				"energy": -0.28928,
				"method": "rhf"
			},
			{
				"type": "occ",
				"energy": -0.28315,
				"method": "rhf"
			},
			{
				"type": "occ",
				"energy": -0.26719,
				"method": "rhf"
			},
			{
				"type": "occ",
				"energy": -0.25222,
				"method": "rhf"
			},
			{
				"type": "unocc",
				"energy": -0.06317,
				"method": "rhf"
			},
			{
				"type": "unocc",
				"energy": -0.04197,
				"method": "rhf"
			},
			{
				"type": "unocc",
				"energy": 0.01044,
				"method": "rhf"
			},
			{
				"type": "unocc",
				"energy": 0.02948,
				"method": "rhf"
			},
			{
				"type": "unocc",
				"energy": 0.04858,
				"method": "rhf"
			}
		],
		"cosmo_sigma_profile": { 
			"-0.025": 0.0,
			"-0.024": 0.0,
			"-0.023": 0.0,
			"-0.022": 0.0,
			"-0.021": 0.0,
			"-0.02": 0.0,
			"-0.019": 0.414750785656,
			"-0.018": 1.25705342207,
			"-0.017": 1.09859735221,
			"-0.016": 1.07905902763,
			"-0.015": 0.618481459904,
			"-0.014": 1.13919037079,
			"-0.013": 0.88564246336,
			"-0.012": 1.62688038953,
			"-0.011": 1.15802331373,
			"-0.01": 1.34956106655,
			"-0.009": 4.67806153807,
			"-0.008": 10.250798703,
			"-0.007": 9.2236440162,
			"-0.006": 16.9603236668,
			"-0.005": 21.0567852292,
			"-0.004": 18.8788907756,
			"-0.003": 17.7241576518,
			"-0.002": 12.8768253505,
			"-0.001": 14.8843593401,
			"0.0": 18.2642190081,
			"0.001": 19.182649165,
			"0.002": 11.2750207131,
			"0.003": 11.392808473,
			"0.004": 9.76587042742,
			"0.005": 6.78258932966,
			"0.006": 4.41325566346,
			"0.007": 5.33891428148,
			"0.008": 5.45832264574,
			"0.009": 7.63914429612,
			"0.01": 14.2641093046,
			"0.011": 15.2241350034,
			"0.012": 5.42373845549,
			"0.013": 0.723449299801,
			"0.014": 0.0,
			"0.015": 0.0,
			"0.016": 0.0,
			"0.017": 0.0,
			"0.018": 0.0,
			"0.019": 0.0,
			"0.02": 0.0,
			"0.021": 0.0,
			"0.022": 0.0,
			"0.023": 0.0,
			"0.024": 0.0,
			"0.025": 0.0
		}
	}
}
