{
	 "smiles": "CC1(C)C2CCC1(C)C(=O)OC2C(Br)C1=CC=CC=C1", 
	 "Tm": 414.15, 
	 "num_atms": 41, 
	 "gaussian": { 
		 "optdone": 1, 
		 "sigma_profile": "yes", 
		 "theory": "DFT", 
		 "functional": "B3LYP", 
		 "basiset": "6-31G**", 
		 "properties": { 
			 "R2extent": 6584.3016, 
			 "electric_dipole_moment_norm": 3.11860994836, 
			 "electric_quadrupole_moment_norm": 13.1036861741, 
			 "total_energy": -3382.33074571, 
			 "HOMO_LUMO_gap": 0.21864, 
			 "cosmo_polarized_energy": -11.61, 
			 "cosmo_cavitation_energy": 40.39, 
			 "cosmo_dispersion_energy": -28.04, 
			 "cosmo_repulsion_energy": 2.1, 
			 "cosmo_total_nonelectrostatic_energy": 14.45, 
			 "SMD_solvation_energy": 5.9 
		},
		"coords": [
			{
				"x": -0.9002476217,
				"y": -3.0672242982,
				"z": -0.0415593141,
				"element": "C" 
			},
			{
				"x": -0.2008475607,
				"y": -1.7025396397,
				"z": 0.1584810874,
				"element": "C" 
			},
			{
				"x": 1.1266392163,
				"y": -1.7793183406,
				"z": -0.6164986618,
				"element": "C" 
			},
			{
				"x": -1.1677785435,
				"y": -0.5365391103,
				"z": -0.2223138711,
				"element": "C" 
			},
			{
				"x": -2.2747713054,
				"y": -0.669397334,
				"z": 0.8479474248,
				"element": "C" 
			},
			{
				"x": -1.4787782039,
				"y": -0.9853837093,
				"z": 2.1433919483,
				"element": "C" 
			},
			{
				"x": -0.0231114486,
				"y": -1.3566598544,
				"z": 1.6800314311,
				"element": "C" 
			},
			{
				"x": 0.6038675089,
				"y": -2.447344431,
				"z": 2.5516981396,
				"element": "C" 
			},
			{
				"x": 0.864719454,
				"y": -0.106838859,
				"z": 1.7476793578,
				"element": "C" 
			},
			{
				"x": 1.7574453955,
				"y": 0.0611310412,
				"z": 2.5424693222,
				"element": "O" 
			},
			{
				"x": 0.6511145746,
				"y": 0.8663063124,
				"z": 0.8068331071,
				"element": "O" 
			},
			{
				"x": -0.5294415463,
				"y": 0.867289097,
				"z": -0.0280956496,
				"element": "C" 
			},
			{
				"x": -0.1413320144,
				"y": 1.6991493883,
				"z": -1.2760807566,
				"element": "C" 
			},
			{
				"x": -1.8618417581,
				"y": 2.2720622978,
				"z": -2.1277189116,
				"element": "Br" 
			},
			{
				"x": 0.8229028424,
				"y": 1.1211619857,
				"z": -2.2817684658,
				"element": "C" 
			},
			{
				"x": 0.4312195192,
				"y": 0.317525488,
				"z": -3.3604774531,
				"element": "C" 
			},
			{
				"x": 1.3839866783,
				"y": -0.2137969901,
				"z": -4.2296051991,
				"element": "C" 
			},
			{
				"x": 2.741326541,
				"y": 0.0505263423,
				"z": -4.0351492215,
				"element": "C" 
			},
			{
				"x": 3.1402924105,
				"y": 0.8591612484,
				"z": -2.9701780958,
				"element": "C" 
			},
			{
				"x": 2.1872526965,
				"y": 1.396776733,
				"z": -2.1045200112,
				"element": "C" 
			},
			{
				"x": -0.1976033437,
				"y": -3.8847940079,
				"z": 0.1435726988,
				"element": "H" 
			},
			{
				"x": -1.7616436669,
				"y": -3.2245180609,
				"z": 0.610904728,
				"element": "H" 
			},
			{
				"x": -1.2443868471,
				"y": -3.1616543906,
				"z": -1.0776015306,
				"element": "H" 
			},
			{
				"x": 1.7414371699,
				"y": -2.5921603479,
				"z": -0.2150158383,
				"element": "H" 
			},
			{
				"x": 0.9416053264,
				"y": -2.0011544342,
				"z": -1.671271726,
				"element": "H" 
			},
			{
				"x": 1.7140600342,
				"y": -0.8633184237,
				"z": -0.5742539048,
				"element": "H" 
			},
			{
				"x": -1.5546819857,
				"y": -0.6236847379,
				"z": -1.2413551412,
				"element": "H" 
			},
			{
				"x": -2.9644569245,
				"y": -1.479314605,
				"z": 0.5999420707,
				"element": "H" 
			},
			{
				"x": -2.8769918558,
				"y": 0.2396926292,
				"z": 0.9294296734,
				"element": "H" 
			},
			{
				"x": -1.9130661584,
				"y": -1.8266216733,
				"z": 2.6912678566,
				"element": "H" 
			},
			{
				"x": -1.4686853801,
				"y": -0.1399911937,
				"z": 2.8391014233,
				"element": "H" 
			},
			{
				"x": -0.0210689858,
				"y": -3.3445320008,
				"z": 2.5522651671,
				"element": "H" 
			},
			{
				"x": 0.707911354,
				"y": -2.0966669256,
				"z": 3.581046709,
				"element": "H" 
			},
			{
				"x": 1.6042839663,
				"y": -2.7171600645,
				"z": 2.202585372,
				"element": "H" 
			},
			{
				"x": -1.2570406505,
				"y": 1.4967959887,
				"z": 0.4947547683,
				"element": "H" 
			},
			{
				"x": 0.2629697507,
				"y": 2.6368495814,
				"z": -0.8940924711,
				"element": "H" 
			},
			{
				"x": -0.623158122,
				"y": 0.132696766,
				"z": -3.5364219698,
				"element": "H" 
			},
			{
				"x": 1.0634409469,
				"y": -0.8282546233,
				"z": -5.0660583458,
				"element": "H" 
			},
			{
				"x": 3.4807746379,
				"y": -0.360504872,
				"z": -4.716219745,
				"element": "H" 
			},
			{
				"x": 4.192210913,
				"y": 1.0808274207,
				"z": -2.8158336225,
				"element": "H" 
			},
			{
				"x": 2.5030729866,
				"y": 2.0232206076,
				"z": -1.2753123791,
				"element": "H" 
			}
		],
		 "valence_orbital": [ 
			{
				"type": "occ",
				"energy": -0.28665,
				"method": "rhf"
			},
			{
				"type": "occ",
				"energy": -0.28148,
				"method": "rhf"
			},
			{
				"type": "occ",
				"energy": -0.25962,
				"method": "rhf"
			},
			{
				"type": "occ",
				"energy": -0.25799,
				"method": "rhf"
			},
			{
				"type": "occ",
				"energy": -0.25224,
				"method": "rhf"
			},
			{
				"type": "unocc",
				"energy": -0.0336,
				"method": "rhf"
			},
			{
				"type": "unocc",
				"energy": -0.01209,
				"method": "rhf"
			},
			{
				"type": "unocc",
				"energy": 0.00685,
				"method": "rhf"
			},
			{
				"type": "unocc",
				"energy": 0.01395,
				"method": "rhf"
			},
			{
				"type": "unocc",
				"energy": 0.06393,
				"method": "rhf"
			}
		],
		"cosmo_sigma_profile": { 
			"-0.025": 0.0,
			"-0.024": 0.0,
			"-0.023": 0.0,
			"-0.022": 0.0,
			"-0.021": 0.0,
			"-0.02": 0.0,
			"-0.019": 0.0,
			"-0.018": 0.0,
			"-0.017": 0.0,
			"-0.016": 0.0,
			"-0.015": 0.0,
			"-0.014": 0.0,
			"-0.013": 0.0,
			"-0.012": 0.0,
			"-0.011": 0.0,
			"-0.01": 0.0,
			"-0.009": 0.00508213311876,
			"-0.008": 1.51402190002,
			"-0.007": 3.00183554003,
			"-0.006": 12.401457684,
			"-0.005": 16.5227636025,
			"-0.004": 27.3641593547,
			"-0.003": 37.0576219773,
			"-0.002": 34.5384861857,
			"-0.001": 32.9463400684,
			"0.0": 32.3707373832,
			"0.001": 28.1055932653,
			"0.002": 17.0527081242,
			"0.003": 15.9049796408,
			"0.004": 19.9136789374,
			"0.005": 14.0533114956,
			"0.006": 4.47398005476,
			"0.007": 2.29739399774,
			"0.008": 1.98047147905,
			"0.009": 1.96741665457,
			"0.01": 2.77393980031,
			"0.011": 4.04165115654,
			"0.012": 5.66453461959,
			"0.013": 2.53450605276,
			"0.014": 0.289824919405,
			"0.015": 0.0,
			"0.016": 0.0,
			"0.017": 0.0,
			"0.018": 0.0,
			"0.019": 0.0,
			"0.02": 0.0,
			"0.021": 0.0,
			"0.022": 0.0,
			"0.023": 0.0,
			"0.024": 0.0,
			"0.025": 0.0
		}
	}
}
