{
	 "smiles": "ON=CC1=C(Cl)C=C(Cl)C=C1", 
	 "Tm": 408.15, 
	 "num_atms": 16, 
	 "gaussian": { 
		 "optdone": 1, 
		 "sigma_profile": "yes", 
		 "theory": "DFT", 
		 "functional": "B3LYP", 
		 "basiset": "6-31G**", 
		 "properties": { 
			 "R2extent": 3478.4037, 
			 "electric_dipole_moment_norm": 1.68538219108, 
			 "electric_quadrupole_moment_norm": 6.67939890634, 
			 "total_energy": -1320.05269092, 
			 "HOMO_LUMO_gap": 0.17934, 
			 "cosmo_polarized_energy": -6.91, 
			 "cosmo_cavitation_energy": 24.23, 
			 "cosmo_dispersion_energy": -18.41, 
			 "cosmo_repulsion_energy": 1.48, 
			 "cosmo_total_nonelectrostatic_energy": 7.31, 
			 "SMD_solvation_energy": 3.79 
		},
		"coords": [
			{
				"x": -1.8398944689,
				"y": -1.603095123,
				"z": -0.5818350878,
				"element": "O" 
			},
			{
				"x": -1.9632975484,
				"y": -0.5197481609,
				"z": 0.2922058849,
				"element": "N" 
			},
			{
				"x": -0.9486152424,
				"y": 0.2714445491,
				"z": 0.3199620326,
				"element": "C" 
			},
			{
				"x": 0.3378964561,
				"y": 0.2751203589,
				"z": -0.3880032351,
				"element": "C" 
			},
			{
				"x": 1.2734751919,
				"y": 1.3074421537,
				"z": -0.1405880993,
				"element": "C" 
			},
			{
				"x": 0.9340438235,
				"y": 2.601970453,
				"z": 1.004587937,
				"element": "Cl" 
			},
			{
				"x": 2.5085623772,
				"y": 1.3643426137,
				"z": -0.7803768413,
				"element": "C" 
			},
			{
				"x": 2.8377307005,
				"y": 0.369630011,
				"z": -1.6981645408,
				"element": "C" 
			},
			{
				"x": 4.3903462263,
				"y": 0.4346441682,
				"z": -2.5072804805,
				"element": "Cl" 
			},
			{
				"x": 1.9513502908,
				"y": -0.6683695669,
				"z": -1.9768689668,
				"element": "C" 
			},
			{
				"x": 0.7226707268,
				"y": -0.7068652356,
				"z": -1.3270521205,
				"element": "C" 
			},
			{
				"x": -2.6818316925,
				"y": -2.0607136508,
				"z": -0.4571799431,
				"element": "H" 
			},
			{
				"x": -1.1100285564,
				"y": 1.0882578044,
				"z": 1.0165331073,
				"element": "H" 
			},
			{
				"x": 3.1987319011,
				"y": 2.1703148213,
				"z": -0.5650501029,
				"element": "H" 
			},
			{
				"x": 2.2183783905,
				"y": -1.4369742435,
				"z": -2.692988456,
				"element": "H" 
			},
			{
				"x": 0.0355814237,
				"y": -1.5109009527,
				"z": -1.5426010878,
				"element": "H" 
			}
		],
		 "valence_orbital": [ 
			{
				"type": "occ",
				"energy": -0.32224,
				"method": "rhf"
			},
			{
				"type": "occ",
				"energy": -0.29505,
				"method": "rhf"
			},
			{
				"type": "occ",
				"energy": -0.28082,
				"method": "rhf"
			},
			{
				"type": "occ",
				"energy": -0.26755,
				"method": "rhf"
			},
			{
				"type": "occ",
				"energy": -0.24147,
				"method": "rhf"
			},
			{
				"type": "unocc",
				"energy": -0.06213,
				"method": "rhf"
			},
			{
				"type": "unocc",
				"energy": -0.02829,
				"method": "rhf"
			},
			{
				"type": "unocc",
				"energy": 0.00092,
				"method": "rhf"
			},
			{
				"type": "unocc",
				"energy": 0.03628,
				"method": "rhf"
			},
			{
				"type": "unocc",
				"energy": 0.04294,
				"method": "rhf"
			}
		],
		"cosmo_sigma_profile": { 
			"-0.025": 0.0,
			"-0.024": 0.0,
			"-0.023": 0.0,
			"-0.022": 0.0,
			"-0.021": 0.0,
			"-0.02": 0.0,
			"-0.019": 0.00196262319316,
			"-0.018": 0.659617426389,
			"-0.017": 1.08626356261,
			"-0.016": 0.85230936776,
			"-0.015": 1.20979976211,
			"-0.014": 0.703245023012,
			"-0.013": 0.332626801603,
			"-0.012": 0.339190764251,
			"-0.011": 0.666162854015,
			"-0.01": 0.777425254326,
			"-0.009": 1.51037138232,
			"-0.008": 3.44919548907,
			"-0.007": 4.2305296963,
			"-0.006": 5.82053087247,
			"-0.005": 5.81213714187,
			"-0.004": 5.68290881366,
			"-0.003": 8.91096245049,
			"-0.002": 13.3216676391,
			"-0.001": 15.7982067144,
			"0.0": 24.5217925256,
			"0.001": 30.0437228185,
			"0.002": 21.1361077751,
			"0.003": 17.7020367356,
			"0.004": 19.1407816394,
			"0.005": 4.56264806181,
			"0.006": 2.86294118254,
			"0.007": 2.41109476619,
			"0.008": 1.86285883755,
			"0.009": 0.704963910442,
			"0.01": 0.774513671265,
			"0.011": 1.427874868,
			"0.012": 0.614301320268,
			"0.013": 0.661175484749,
			"0.014": 0.0,
			"0.015": 0.0,
			"0.016": 0.0,
			"0.017": 0.0,
			"0.018": 0.0,
			"0.019": 0.0,
			"0.02": 0.0,
			"0.021": 0.0,
			"0.022": 0.0,
			"0.023": 0.0,
			"0.024": 0.0,
			"0.025": 0.0
		}
	}
}
