{
	 "smiles": "CCN(CCO)CCCC(C)NC1=C2C=CC(Cl)=CC2=NC=C1", 
	 "Tm": 363.15, 
	 "num_atms": 49, 
	 "gaussian": { 
		 "optdone": 1, 
		 "sigma_profile": "yes", 
		 "theory": "DFT", 
		 "functional": "B3LYP", 
		 "basiset": "6-31G**", 
		 "properties": { 
			 "R2extent": 9690.7643, 
			 "electric_dipole_moment_norm": 4.14924641471, 
			 "electric_quadrupole_moment_norm": 19.7557364112, 
			 "total_energy": -1401.25243404, 
			 "HOMO_LUMO_gap": 0.1389, 
			 "cosmo_polarized_energy": -15.53, 
			 "cosmo_cavitation_energy": 49.29, 
			 "cosmo_dispersion_energy": -32.7, 
			 "cosmo_repulsion_energy": 2.48, 
			 "cosmo_total_nonelectrostatic_energy": 19.07, 
			 "SMD_solvation_energy": 4.01 
		},
		"coords": [
			{
				"x": -2.7078658691,
				"y": -1.1739634462,
				"z": 3.0061943327,
				"element": "C" 
			},
			{
				"x": -1.7925705034,
				"y": -2.291231719,
				"z": 3.5430607697,
				"element": "C" 
			},
			{
				"x": -0.7305933467,
				"y": -2.7925174403,
				"z": 2.6727491845,
				"element": "N" 
			},
			{
				"x": -1.1685910613,
				"y": -3.6150906545,
				"z": 1.5405904088,
				"element": "C" 
			},
			{
				"x": -1.4703571896,
				"y": -2.9460239168,
				"z": 0.1777407452,
				"element": "C" 
			},
			{
				"x": -0.3305505872,
				"y": -2.7904039323,
				"z": -0.6575424434,
				"element": "O" 
			},
			{
				"x": 0.3383212179,
				"y": -1.8361064119,
				"z": 2.4174396467,
				"element": "C" 
			},
			{
				"x": 1.6369862812,
				"y": -2.5000629645,
				"z": 1.943429856,
				"element": "C" 
			},
			{
				"x": 2.8054971165,
				"y": -1.5204965137,
				"z": 1.7446788823,
				"element": "C" 
			},
			{
				"x": 2.5653706634,
				"y": -0.3282848714,
				"z": 0.7978791467,
				"element": "C" 
			},
			{
				"x": 3.8638123541,
				"y": 0.4607899255,
				"z": 0.5806135288,
				"element": "C" 
			},
			{
				"x": 1.9704864089,
				"y": -0.8243221203,
				"z": -0.4784308414,
				"element": "N" 
			},
			{
				"x": 1.8145717032,
				"y": 0.054104963,
				"z": -1.5737200753,
				"element": "C" 
			},
			{
				"x": 0.9223017581,
				"y": 1.1762575426,
				"z": -1.5249144112,
				"element": "C" 
			},
			{
				"x": 0.0719261103,
				"y": 1.4739671101,
				"z": -0.4276056824,
				"element": "C" 
			},
			{
				"x": -0.7565897924,
				"y": 2.5736106991,
				"z": -0.438446363,
				"element": "C" 
			},
			{
				"x": -0.7645709739,
				"y": 3.4247776919,
				"z": -1.5667484291,
				"element": "C" 
			},
			{
				"x": -1.8159896878,
				"y": 4.8323640033,
				"z": -1.5496400837,
				"element": "Cl" 
			},
			{
				"x": 0.0110114785,
				"y": 3.1597961557,
				"z": -2.6690701327,
				"element": "C" 
			},
			{
				"x": 0.8580673542,
				"y": 2.0191746852,
				"z": -2.6835743511,
				"element": "C" 
			},
			{
				"x": 1.5549493516,
				"y": 1.7803152676,
				"z": -3.8324156436,
				"element": "N" 
			},
			{
				"x": 2.3106208928,
				"y": 0.700736432,
				"z": -3.8545500815,
				"element": "C" 
			},
			{
				"x": 2.4815081322,
				"y": -0.1788459513,
				"z": -2.7652128023,
				"element": "C" 
			},
			{
				"x": -2.1348462145,
				"y": -0.2930923163,
				"z": 2.6973373967,
				"element": "H" 
			},
			{
				"x": -3.407493034,
				"y": -0.8541682159,
				"z": 3.7867953414,
				"element": "H" 
			},
			{
				"x": -3.3009126676,
				"y": -1.5083892309,
				"z": 2.149238915,
				"element": "H" 
			},
			{
				"x": -2.4136492408,
				"y": -3.1482861917,
				"z": 3.8326661352,
				"element": "H" 
			},
			{
				"x": -1.3144651819,
				"y": -1.9366300852,
				"z": 4.466030951,
				"element": "H" 
			},
			{
				"x": -0.4178853876,
				"y": -4.3910500477,
				"z": 1.3393514984,
				"element": "H" 
			},
			{
				"x": -2.0716256871,
				"y": -4.1424346176,
				"z": 1.8707249236,
				"element": "H" 
			},
			{
				"x": -2.0003406329,
				"y": -1.9930040906,
				"z": 0.316588838,
				"element": "H" 
			},
			{
				"x": -2.1483267506,
				"y": -3.6101356275,
				"z": -0.3726048666,
				"element": "H" 
			},
			{
				"x": 0.160924519,
				"y": -1.9869679183,
				"z": -0.4204101625,
				"element": "H" 
			},
			{
				"x": 0.5347534149,
				"y": -1.3052023276,
				"z": 3.358876562,
				"element": "H" 
			},
			{
				"x": 0.0442580869,
				"y": -1.0553406461,
				"z": 1.6900326116,
				"element": "H" 
			},
			{
				"x": 1.9300907566,
				"y": -3.2532854777,
				"z": 2.6839032456,
				"element": "H" 
			},
			{
				"x": 1.4475366586,
				"y": -3.0375996084,
				"z": 1.0103015567,
				"element": "H" 
			},
			{
				"x": 3.6750586524,
				"y": -2.0843846095,
				"z": 1.3767227917,
				"element": "H" 
			},
			{
				"x": 3.1112859464,
				"y": -1.1027027751,
				"z": 2.7123686826,
				"element": "H" 
			},
			{
				"x": 1.8353292632,
				"y": 0.3419449668,
				"z": 1.2588408338,
				"element": "H" 
			},
			{
				"x": 3.7013421244,
				"y": 1.3324988593,
				"z": -0.0590445858,
				"element": "H" 
			},
			{
				"x": 4.6305797611,
				"y": -0.1673598203,
				"z": 0.112086863,
				"element": "H" 
			},
			{
				"x": 4.2584735126,
				"y": 0.8142402678,
				"z": 1.5387965875,
				"element": "H" 
			},
			{
				"x": 2.4977251264,
				"y": -1.638941559,
				"z": -0.7843049064,
				"element": "H" 
			},
			{
				"x": 0.046925449,
				"y": 0.8084269703,
				"z": 0.4268759576,
				"element": "H" 
			},
			{
				"x": -1.4098806396,
				"y": 2.7868178336,
				"z": 0.4000686335,
				"element": "H" 
			},
			{
				"x": -0.0085946173,
				"y": 3.788925674,
				"z": -3.5507619807,
				"element": "H" 
			},
			{
				"x": 2.8514388632,
				"y": 0.5067822791,
				"z": -4.7803340734,
				"element": "H" 
			},
			{
				"x": 3.1580461076,
				"y": -1.0238062194,
				"z": -2.8598529103,
				"element": "H" 
			}
		],
		 "valence_orbital": [ 
			{
				"type": "occ",
				"energy": -0.26185,
				"method": "rhf"
			},
			{
				"type": "occ",
				"energy": -0.25927,
				"method": "rhf"
			},
			{
				"type": "occ",
				"energy": -0.25032,
				"method": "rhf"
			},
			{
				"type": "occ",
				"energy": -0.22725,
				"method": "rhf"
			},
			{
				"type": "occ",
				"energy": -0.19649,
				"method": "rhf"
			},
			{
				"type": "unocc",
				"energy": -0.05759,
				"method": "rhf"
			},
			{
				"type": "unocc",
				"energy": -0.02527,
				"method": "rhf"
			},
			{
				"type": "unocc",
				"energy": 0.01376,
				"method": "rhf"
			},
			{
				"type": "unocc",
				"energy": 0.02715,
				"method": "rhf"
			},
			{
				"type": "unocc",
				"energy": 0.05591,
				"method": "rhf"
			}
		],
		"cosmo_sigma_profile": { 
			"-0.025": 0.0,
			"-0.024": 0.0,
			"-0.023": 0.0,
			"-0.022": 0.0,
			"-0.021": 0.0,
			"-0.02": 0.0,
			"-0.019": 0.0,
			"-0.018": 0.0,
			"-0.017": 0.0,
			"-0.016": 0.0,
			"-0.015": 0.0,
			"-0.014": 0.0,
			"-0.013": 0.0668223564001,
			"-0.012": 1.02463671063,
			"-0.011": 1.45716695517,
			"-0.01": 1.62015276017,
			"-0.009": 1.27137362318,
			"-0.008": 2.37245110376,
			"-0.007": 7.1046597605,
			"-0.006": 12.6620878539,
			"-0.005": 12.2317741957,
			"-0.004": 18.7145576475,
			"-0.003": 45.3277033953,
			"-0.002": 46.5210186075,
			"-0.001": 42.5146655274,
			"0.0": 42.6976750919,
			"0.001": 42.4726160809,
			"0.002": 34.90477612,
			"0.003": 18.8075817478,
			"0.004": 16.0161833147,
			"0.005": 10.2227260121,
			"0.006": 3.55453523298,
			"0.007": 3.74987530439,
			"0.008": 3.34341377747,
			"0.009": 2.66893752494,
			"0.01": 3.07835478501,
			"0.011": 2.28394479137,
			"0.012": 1.99783709692,
			"0.013": 2.81239397939,
			"0.014": 2.67612967536,
			"0.015": 3.09425463878,
			"0.016": 1.21583296997,
			"0.017": 0.108544941069,
			"0.018": 0.0,
			"0.019": 0.0,
			"0.02": 0.0,
			"0.021": 0.0,
			"0.022": 0.0,
			"0.023": 0.0,
			"0.024": 0.0,
			"0.025": 0.0
		}
	}
}
