{
	 "smiles": "NC1=CC=C(C=C1)C1=CN2CCCCC2=N1", 
	 "Tm": 483.15, 
	 "num_atms": 31, 
	 "gaussian": { 
		 "optdone": 1, 
		 "sigma_profile": "yes", 
		 "theory": "DFT", 
		 "functional": "B3LYP", 
		 "basiset": "6-31G**", 
		 "properties": { 
			 "R2extent": 5502.0696, 
			 "electric_dipole_moment_norm": 3.08354369192, 
			 "electric_quadrupole_moment_norm": 23.389275104, 
			 "total_energy": -668.702042755, 
			 "HOMO_LUMO_gap": 0.17845, 
			 "cosmo_polarized_energy": -16.72, 
			 "cosmo_cavitation_energy": 33.17, 
			 "cosmo_dispersion_energy": -24.93, 
			 "cosmo_repulsion_energy": 1.93, 
			 "cosmo_total_nonelectrostatic_energy": 10.17, 
			 "SMD_solvation_energy": 3.17 
		},
		"coords": [
			{
				"x": -5.8037169303,
				"y": 2.1584517832,
				"z": -1.5072412861,
				"element": "N" 
			},
			{
				"x": -4.5620750644,
				"y": 1.6260810389,
				"z": -1.1404674619,
				"element": "C" 
			},
			{
				"x": -3.4080064307,
				"y": 2.4279416748,
				"z": -1.1323661838,
				"element": "C" 
			},
			{
				"x": -2.1672393544,
				"y": 1.8823226616,
				"z": -0.822663932,
				"element": "C" 
			},
			{
				"x": -2.0216519213,
				"y": 0.5208717492,
				"z": -0.5093231768,
				"element": "C" 
			},
			{
				"x": -3.179690848,
				"y": -0.2741094172,
				"z": -0.5189787594,
				"element": "C" 
			},
			{
				"x": -4.4238614621,
				"y": 0.2634037928,
				"z": -0.8273782185,
				"element": "C" 
			},
			{
				"x": -0.7207544894,
				"y": -0.0731700487,
				"z": -0.179608662,
				"element": "C" 
			},
			{
				"x": 0.5257329624,
				"y": 0.5201883448,
				"z": -0.1418900358,
				"element": "C" 
			},
			{
				"x": 1.410292691,
				"y": -0.4734192355,
				"z": 0.2316100483,
				"element": "N" 
			},
			{
				"x": 2.8651308086,
				"y": -0.3723039909,
				"z": 0.3138683731,
				"element": "C" 
			},
			{
				"x": 3.4385482829,
				"y": -1.5657869043,
				"z": 1.0847795033,
				"element": "C" 
			},
			{
				"x": 2.8317866352,
				"y": -2.885326265,
				"z": 0.5853673339,
				"element": "C" 
			},
			{
				"x": 1.3131451071,
				"y": -2.9051273281,
				"z": 0.8293173972,
				"element": "C" 
			},
			{
				"x": 0.6743547415,
				"y": -1.6206114017,
				"z": 0.3907351034,
				"element": "C" 
			},
			{
				"x": -0.6045241885,
				"y": -1.4112834615,
				"z": 0.1575535038,
				"element": "N" 
			},
			{
				"x": -6.6014779354,
				"y": 1.6502523307,
				"z": -1.1496526238,
				"element": "H" 
			},
			{
				"x": -5.899866189,
				"y": 3.1527786876,
				"z": -1.3504246344,
				"element": "H" 
			},
			{
				"x": -3.488798676,
				"y": 3.485311381,
				"z": -1.3744699046,
				"element": "H" 
			},
			{
				"x": -1.2978099655,
				"y": 2.5345946691,
				"z": -0.8215046076,
				"element": "H" 
			},
			{
				"x": -3.0837632499,
				"y": -1.3268154982,
				"z": -0.2755464003,
				"element": "H" 
			},
			{
				"x": -5.3031629321,
				"y": -0.3771602324,
				"z": -0.8306227742,
				"element": "H" 
			},
			{
				"x": 0.8638656174,
				"y": 1.5248503309,
				"z": -0.3443831137,
				"element": "H" 
			},
			{
				"x": 3.1261582627,
				"y": 0.5727964515,
				"z": 0.8018547216,
				"element": "H" 
			},
			{
				"x": 3.2826514482,
				"y": -0.3445511554,
				"z": -0.7020128759,
				"element": "H" 
			},
			{
				"x": 4.5277695868,
				"y": -1.5657072121,
				"z": 0.9706765714,
				"element": "H" 
			},
			{
				"x": 3.2264723075,
				"y": -1.4468752744,
				"z": 2.1549798237,
				"element": "H" 
			},
			{
				"x": 3.0381407664,
				"y": -2.9964175982,
				"z": -0.4873766326,
				"element": "H" 
			},
			{
				"x": 3.3035393474,
				"y": -3.7356969215,
				"z": 1.0884606394,
				"element": "H" 
			},
			{
				"x": 0.8331097249,
				"y": -3.7380211479,
				"z": 0.3066905692,
				"element": "H" 
			},
			{
				"x": 1.1172013469,
				"y": -3.0592618032,
				"z": 1.9001176948,
				"element": "H" 
			}
		],
		 "valence_orbital": [ 
			{
				"type": "occ",
				"energy": -0.25424,
				"method": "rhf"
			},
			{
				"type": "occ",
				"energy": -0.25015,
				"method": "rhf"
			},
			{
				"type": "occ",
				"energy": -0.23165,
				"method": "rhf"
			},
			{
				"type": "occ",
				"energy": -0.2212,
				"method": "rhf"
			},
			{
				"type": "occ",
				"energy": -0.1701,
				"method": "rhf"
			},
			{
				"type": "unocc",
				"energy": 0.00835,
				"method": "rhf"
			},
			{
				"type": "unocc",
				"energy": 0.01823,
				"method": "rhf"
			},
			{
				"type": "unocc",
				"energy": 0.04234,
				"method": "rhf"
			},
			{
				"type": "unocc",
				"energy": 0.08202,
				"method": "rhf"
			},
			{
				"type": "unocc",
				"energy": 0.0877,
				"method": "rhf"
			}
		],
		"cosmo_sigma_profile": { 
			"-0.025": 0.0,
			"-0.024": 0.0,
			"-0.023": 0.0,
			"-0.022": 0.0,
			"-0.021": 0.0,
			"-0.02": 0.0,
			"-0.019": 0.0,
			"-0.018": 0.0,
			"-0.017": 0.0,
			"-0.016": 0.0,
			"-0.015": 0.0,
			"-0.014": 0.0,
			"-0.013": 0.0158563196076,
			"-0.012": 2.26254694548,
			"-0.011": 2.11467130629,
			"-0.01": 3.09404723598,
			"-0.009": 2.83475359798,
			"-0.008": 4.33680647963,
			"-0.007": 5.41070502884,
			"-0.006": 9.09946839803,
			"-0.005": 14.6234680971,
			"-0.004": 26.2033665404,
			"-0.003": 33.3607077522,
			"-0.002": 24.9413801205,
			"-0.001": 20.610681269,
			"0.0": 13.6280053519,
			"0.001": 7.87935756323,
			"0.002": 8.61681582687,
			"0.003": 8.8537042555,
			"0.004": 9.59954230432,
			"0.005": 11.4305867673,
			"0.006": 18.8468915047,
			"0.007": 13.9980363898,
			"0.008": 4.03919271042,
			"0.009": 3.0335419988,
			"0.01": 2.94165277417,
			"0.011": 2.37051570294,
			"0.012": 1.020502359,
			"0.013": 2.34088261606,
			"0.014": 1.52665238691,
			"0.015": 1.49369453192,
			"0.016": 1.03221831193,
			"0.017": 0.161804367377,
			"0.018": 0.0,
			"0.019": 0.0,
			"0.02": 0.0,
			"0.021": 0.0,
			"0.022": 0.0,
			"0.023": 0.0,
			"0.024": 0.0,
			"0.025": 0.0
		}
	}
}
