{
	 "smiles": "ClC1=CC=CC2=C1C(=O)C2", 
	 "Tm": 344.15, 
	 "num_atms": 15, 
	 "gaussian": { 
		 "optdone": 1, 
		 "sigma_profile": "yes", 
		 "theory": "DFT", 
		 "functional": "B3LYP", 
		 "basiset": "6-31G**", 
		 "properties": { 
			 "R2extent": 2269.7884, 
			 "electric_dipole_moment_norm": 4.43349837262, 
			 "electric_quadrupole_moment_norm": 6.25493257837, 
			 "total_energy": -843.237414809, 
			 "HOMO_LUMO_gap": 0.18821, 
			 "cosmo_polarized_energy": -8.31, 
			 "cosmo_cavitation_energy": 21.6, 
			 "cosmo_dispersion_energy": -16.01, 
			 "cosmo_repulsion_energy": 1.32, 
			 "cosmo_total_nonelectrostatic_energy": 6.9, 
			 "SMD_solvation_energy": 3.87 
		},
		"coords": [
			{
				"x": 3.3527282149,
				"y": -0.4388867414,
				"z": -1.9325700833,
				"element": "Cl" 
			},
			{
				"x": 1.8181361876,
				"y": -1.0610855186,
				"z": -1.3830802091,
				"element": "C" 
			},
			{
				"x": 1.6118544727,
				"y": -2.4369499894,
				"z": -1.2400306007,
				"element": "C" 
			},
			{
				"x": 0.3744887699,
				"y": -2.9309699547,
				"z": -0.797267987,
				"element": "C" 
			},
			{
				"x": -0.7038266793,
				"y": -2.0908700352,
				"z": -0.4794927149,
				"element": "C" 
			},
			{
				"x": -0.4788372764,
				"y": -0.7309538094,
				"z": -0.6279816946,
				"element": "C" 
			},
			{
				"x": 0.752604486,
				"y": -0.2233557627,
				"z": -1.0693707882,
				"element": "C" 
			},
			{
				"x": 0.2502048331,
				"y": 1.1867686417,
				"z": -0.9755669246,
				"element": "C" 
			},
			{
				"x": 0.6870681104,
				"y": 2.2879419177,
				"z": -1.1815374376,
				"element": "O" 
			},
			{
				"x": -1.1394097954,
				"y": 0.6374570704,
				"z": -0.4791985527,
				"element": "C" 
			},
			{
				"x": 2.4172907845,
				"y": -3.1247503389,
				"z": -1.4741838756,
				"element": "H" 
			},
			{
				"x": 0.258046143,
				"y": -4.0068909856,
				"z": -0.7005421772,
				"element": "H" 
			},
			{
				"x": -1.6488576724,
				"y": -2.5021944906,
				"z": -0.1396570899,
				"element": "H" 
			},
			{
				"x": -1.4094060227,
				"y": 0.9424216277,
				"z": 0.5375451844,
				"element": "H" 
			},
			{
				"x": -1.9770845558,
				"y": 0.8520183691,
				"z": -1.1514650491,
				"element": "H" 
			}
		],
		 "valence_orbital": [ 
			{
				"type": "occ",
				"energy": -0.34238,
				"method": "rhf"
			},
			{
				"type": "occ",
				"energy": -0.31926,
				"method": "rhf"
			},
			{
				"type": "occ",
				"energy": -0.27236,
				"method": "rhf"
			},
			{
				"type": "occ",
				"energy": -0.2617,
				"method": "rhf"
			},
			{
				"type": "occ",
				"energy": -0.25659,
				"method": "rhf"
			},
			{
				"type": "unocc",
				"energy": -0.06838,
				"method": "rhf"
			},
			{
				"type": "unocc",
				"energy": -0.02732,
				"method": "rhf"
			},
			{
				"type": "unocc",
				"energy": 0.02522,
				"method": "rhf"
			},
			{
				"type": "unocc",
				"energy": 0.03643,
				"method": "rhf"
			},
			{
				"type": "unocc",
				"energy": 0.0959,
				"method": "rhf"
			}
		],
		"cosmo_sigma_profile": { 
			"-0.025": 0.0,
			"-0.024": 0.0,
			"-0.023": 0.0,
			"-0.022": 0.0,
			"-0.021": 0.0,
			"-0.02": 0.0,
			"-0.019": 0.0,
			"-0.018": 0.0,
			"-0.017": 0.0,
			"-0.016": 0.0,
			"-0.015": 0.0,
			"-0.014": 0.0,
			"-0.013": 0.0,
			"-0.012": 0.0,
			"-0.011": 0.0,
			"-0.01": 0.0,
			"-0.009": 0.0,
			"-0.008": 1.96429317344,
			"-0.007": 8.15993556559,
			"-0.006": 12.5982743699,
			"-0.005": 11.5982365789,
			"-0.004": 10.4051835196,
			"-0.003": 11.4124802959,
			"-0.002": 14.6468789249,
			"-0.001": 12.4364598651,
			"0.0": 15.0667626672,
			"0.001": 15.9925548638,
			"0.002": 17.3027267933,
			"0.003": 12.2656494167,
			"0.004": 10.6753742421,
			"0.005": 3.2888738259,
			"0.006": 2.20516340933,
			"0.007": 1.49442135376,
			"0.008": 1.71761185444,
			"0.009": 2.66150970449,
			"0.01": 3.80621137813,
			"0.011": 5.04887858025,
			"0.012": 1.82756321357,
			"0.013": 0.015238929619,
			"0.014": 0.0,
			"0.015": 0.0,
			"0.016": 0.0,
			"0.017": 0.0,
			"0.018": 0.0,
			"0.019": 0.0,
			"0.02": 0.0,
			"0.021": 0.0,
			"0.022": 0.0,
			"0.023": 0.0,
			"0.024": 0.0,
			"0.025": 0.0
		}
	}
}
