{
	 "smiles": "FC(F)=C(Cl)Cl", 
	 "Tm": 157.15, 
	 "num_atms": 6, 
	 "gaussian": { 
		 "optdone": 1, 
		 "sigma_profile": "yes", 
		 "theory": "DFT", 
		 "functional": "B3LYP", 
		 "basiset": "6-31G**", 
		 "properties": { 
			 "R2extent": 1383.7243, 
			 "electric_dipole_moment_norm": 0.37758269293, 
			 "electric_quadrupole_moment_norm": 0.666000202703, 
			 "total_energy": -1196.22066853, 
			 "HOMO_LUMO_gap": 0.24694, 
			 "cosmo_polarized_energy": -1.18, 
			 "cosmo_cavitation_energy": 15.34, 
			 "cosmo_dispersion_energy": -11.42, 
			 "cosmo_repulsion_energy": 0.97, 
			 "cosmo_total_nonelectrostatic_energy": 4.89, 
			 "SMD_solvation_energy": 3.79 
		},
		"coords": [
			{
				"x": -0.2710841759,
				"y": -2.3510770149,
				"z": -0.4054713096,
				"element": "F" 
			},
			{
				"x": -1.0209507015,
				"y": -1.6053973462,
				"z": 0.3806442091,
				"element": "C" 
			},
			{
				"x": -1.2532324572,
				"y": -2.1856137703,
				"z": 1.5406940868,
				"element": "F" 
			},
			{
				"x": -1.4903802248,
				"y": -0.4029408955,
				"z": 0.0415306954,
				"element": "C" 
			},
			{
				"x": -2.4701300386,
				"y": 0.5117103322,
				"z": 1.1359562828,
				"element": "Cl" 
			},
			{
				"x": -1.137122402,
				"y": 0.2872186947,
				"z": -1.5054539645,
				"element": "Cl" 
			}
		],
		 "valence_orbital": [ 
			{
				"type": "occ",
				"energy": -0.4125,
				"method": "rhf"
			},
			{
				"type": "occ",
				"energy": -0.35846,
				"method": "rhf"
			},
			{
				"type": "occ",
				"energy": -0.34502,
				"method": "rhf"
			},
			{
				"type": "occ",
				"energy": -0.33147,
				"method": "rhf"
			},
			{
				"type": "occ",
				"energy": -0.25837,
				"method": "rhf"
			},
			{
				"type": "unocc",
				"energy": -0.01143,
				"method": "rhf"
			},
			{
				"type": "unocc",
				"energy": -0.00549,
				"method": "rhf"
			},
			{
				"type": "unocc",
				"energy": 0.01016,
				"method": "rhf"
			},
			{
				"type": "unocc",
				"energy": 0.13085,
				"method": "rhf"
			},
			{
				"type": "unocc",
				"energy": 0.21647,
				"method": "rhf"
			}
		],
		"cosmo_sigma_profile": { 
			"-0.025": 0.0,
			"-0.024": 0.0,
			"-0.023": 0.0,
			"-0.022": 0.0,
			"-0.021": 0.0,
			"-0.02": 0.0,
			"-0.019": 0.0,
			"-0.018": 0.0,
			"-0.017": 0.0,
			"-0.016": 0.0,
			"-0.015": 0.0,
			"-0.014": 0.0,
			"-0.013": 0.0,
			"-0.012": 0.0,
			"-0.011": 0.0,
			"-0.01": 0.0,
			"-0.009": 0.0,
			"-0.008": 0.0,
			"-0.007": 0.0,
			"-0.006": 1.18343517463,
			"-0.005": 4.36639802756,
			"-0.004": 7.63349135157,
			"-0.003": 8.78966274464,
			"-0.002": 10.5416873362,
			"-0.001": 12.6014271711,
			"0.0": 15.1501413601,
			"0.001": 31.4904300976,
			"0.002": 24.9597503942,
			"0.003": 11.9044508838,
			"0.004": 0.28626558557,
			"0.005": 0.0,
			"0.006": 0.0,
			"0.007": 0.0,
			"0.008": 0.0,
			"0.009": 0.0,
			"0.01": 0.0,
			"0.011": 0.0,
			"0.012": 0.0,
			"0.013": 0.0,
			"0.014": 0.0,
			"0.015": 0.0,
			"0.016": 0.0,
			"0.017": 0.0,
			"0.018": 0.0,
			"0.019": 0.0,
			"0.02": 0.0,
			"0.021": 0.0,
			"0.022": 0.0,
			"0.023": 0.0,
			"0.024": 0.0,
			"0.025": 0.0
		}
	}
}
