{
	 "smiles": "O=C(OCCOC(=O)C1=CC=CC=C1)C1=CC=CC=C1", 
	 "Tm": 346.65, 
	 "num_atms": 34, 
	 "gaussian": { 
		 "optdone": 1, 
		 "sigma_profile": "yes", 
		 "theory": "DFT", 
		 "functional": "B3LYP", 
		 "basiset": "6-31G**", 
		 "properties": { 
			 "R2extent": 8361.3612, 
			 "electric_dipole_moment_norm": 3.04009999342, 
			 "electric_quadrupole_moment_norm": 6.55627076775, 
			 "total_energy": -919.065986502, 
			 "HOMO_LUMO_gap": 0.21161, 
			 "cosmo_polarized_energy": -11.65, 
			 "cosmo_cavitation_energy": 39.67, 
			 "cosmo_dispersion_energy": -27.81, 
			 "cosmo_repulsion_energy": 2.14, 
			 "cosmo_total_nonelectrostatic_energy": 14.0, 
			 "SMD_solvation_energy": 8.48 
		},
		"coords": [
			{
				"x": 0.1254917783,
				"y": 3.3974662863,
				"z": -0.7278444028,
				"element": "O" 
			},
			{
				"x": -0.6782740654,
				"y": 2.4864536925,
				"z": -0.6513927631,
				"element": "C" 
			},
			{
				"x": -0.4683822047,
				"y": 1.3731816208,
				"z": 0.0924155753,
				"element": "O" 
			},
			{
				"x": 0.7745376301,
				"y": 1.3151129329,
				"z": 0.8176187929,
				"element": "C" 
			},
			{
				"x": 1.9334393073,
				"y": 0.8703641059,
				"z": -0.0605002165,
				"element": "C" 
			},
			{
				"x": 1.7157483416,
				"y": -0.4335159055,
				"z": -0.6320457779,
				"element": "O" 
			},
			{
				"x": 1.9886806724,
				"y": -1.4929746026,
				"z": 0.1677687934,
				"element": "C" 
			},
			{
				"x": 2.3875951119,
				"y": -1.378041979,
				"z": 1.312101983,
				"element": "O" 
			},
			{
				"x": 1.7493801881,
				"y": -2.7957918124,
				"z": -0.5129429783,
				"element": "C" 
			},
			{
				"x": 2.0093445418,
				"y": -3.9678904198,
				"z": 0.2107925842,
				"element": "C" 
			},
			{
				"x": 1.8031116955,
				"y": -5.2122355065,
				"z": -0.3791444544,
				"element": "C" 
			},
			{
				"x": 1.3353364513,
				"y": -5.2924006922,
				"z": -1.6937917919,
				"element": "C" 
			},
			{
				"x": 1.0742590624,
				"y": -4.1261246952,
				"z": -2.4175041546,
				"element": "C" 
			},
			{
				"x": 1.279904757,
				"y": -2.8781711761,
				"z": -1.8316016994,
				"element": "C" 
			},
			{
				"x": -1.9930262766,
				"y": 2.4634701625,
				"z": -1.3505811607,
				"element": "C" 
			},
			{
				"x": -2.330273669,
				"y": 3.5692422939,
				"z": -2.143498415,
				"element": "C" 
			},
			{
				"x": -3.5480502994,
				"y": 3.5983990869,
				"z": -2.8181426394,
				"element": "C" 
			},
			{
				"x": -4.4343137743,
				"y": 2.5235265586,
				"z": -2.7053356596,
				"element": "C" 
			},
			{
				"x": -4.1007944585,
				"y": 1.4195115014,
				"z": -1.9166524179,
				"element": "C" 
			},
			{
				"x": -2.8832840715,
				"y": 1.3859808356,
				"z": -1.238794569,
				"element": "C" 
			},
			{
				"x": 1.0035632722,
				"y": 2.2999187999,
				"z": 1.2343469531,
				"element": "H" 
			},
			{
				"x": 0.6054666881,
				"y": 0.5989561177,
				"z": 1.6219533136,
				"element": "H" 
			},
			{
				"x": 2.8484249195,
				"y": 0.8613204165,
				"z": 0.5383887875,
				"element": "H" 
			},
			{
				"x": 2.0501725163,
				"y": 1.5419016531,
				"z": -0.9112823201,
				"element": "H" 
			},
			{
				"x": 2.3715451366,
				"y": -3.8786907169,
				"z": 1.2293806294,
				"element": "H" 
			},
			{
				"x": 2.0058901841,
				"y": -6.1189524213,
				"z": 0.1830791483,
				"element": "H" 
			},
			{
				"x": 1.1743287593,
				"y": -6.263240419,
				"z": -2.1540207311,
				"element": "H" 
			},
			{
				"x": 0.7106367681,
				"y": -4.1896371355,
				"z": -3.4388650694,
				"element": "H" 
			},
			{
				"x": 1.0796951176,
				"y": -1.9682373913,
				"z": -2.3853188255,
				"element": "H" 
			},
			{
				"x": -1.6252193579,
				"y": 4.39051966,
				"z": -2.214739002,
				"element": "H" 
			},
			{
				"x": -3.807627187,
				"y": 4.4563379122,
				"z": -3.4312597426,
				"element": "H" 
			},
			{
				"x": -5.3843597894,
				"y": 2.5462635976,
				"z": -3.2317953283,
				"element": "H" 
			},
			{
				"x": -4.7901369557,
				"y": 0.5848217426,
				"z": -1.8298712322,
				"element": "H" 
			},
			{
				"x": -2.6160107902,
				"y": 0.5335558966,
				"z": -0.6251212091,
				"element": "H" 
			}
		],
		 "valence_orbital": [ 
			{
				"type": "occ",
				"energy": -0.27433,
				"method": "rhf"
			},
			{
				"type": "occ",
				"energy": -0.26145,
				"method": "rhf"
			},
			{
				"type": "occ",
				"energy": -0.26044,
				"method": "rhf"
			},
			{
				"type": "occ",
				"energy": -0.2596,
				"method": "rhf"
			},
			{
				"type": "occ",
				"energy": -0.25958,
				"method": "rhf"
			},
			{
				"type": "unocc",
				"energy": -0.04797,
				"method": "rhf"
			},
			{
				"type": "unocc",
				"energy": -0.04706,
				"method": "rhf"
			},
			{
				"type": "unocc",
				"energy": -0.00894,
				"method": "rhf"
			},
			{
				"type": "unocc",
				"energy": -0.00889,
				"method": "rhf"
			},
			{
				"type": "unocc",
				"energy": 0.05552,
				"method": "rhf"
			}
		],
		"cosmo_sigma_profile": { 
			"-0.025": 0.0,
			"-0.024": 0.0,
			"-0.023": 0.0,
			"-0.022": 0.0,
			"-0.021": 0.0,
			"-0.02": 0.0,
			"-0.019": 0.0,
			"-0.018": 0.0,
			"-0.017": 0.0,
			"-0.016": 0.0,
			"-0.015": 0.0,
			"-0.014": 0.0,
			"-0.013": 0.0,
			"-0.012": 0.0,
			"-0.011": 0.0,
			"-0.01": 0.0,
			"-0.009": 0.0,
			"-0.008": 0.012954656051,
			"-0.007": 5.77886250543,
			"-0.006": 24.3640493105,
			"-0.005": 26.9587927326,
			"-0.004": 31.4324486817,
			"-0.003": 21.7090434842,
			"-0.002": 21.8672555767,
			"-0.001": 18.0587332459,
			"0.0": 22.1901079543,
			"0.001": 26.4252034089,
			"0.002": 25.9368574237,
			"0.003": 28.2369742556,
			"0.004": 28.9374472659,
			"0.005": 8.50095851965,
			"0.006": 4.58359403459,
			"0.007": 1.91531502754,
			"0.008": 3.42202190221,
			"0.009": 2.97363928555,
			"0.01": 3.68837386799,
			"0.011": 5.83531919823,
			"0.012": 5.00517249286,
			"0.013": 0.0,
			"0.014": 0.0,
			"0.015": 0.0,
			"0.016": 0.0,
			"0.017": 0.0,
			"0.018": 0.0,
			"0.019": 0.0,
			"0.02": 0.0,
			"0.021": 0.0,
			"0.022": 0.0,
			"0.023": 0.0,
			"0.024": 0.0,
			"0.025": 0.0
		}
	}
}
