{
	 "smiles": "CC1=CC(=CC(C)=C1)C(=O)N(NC(=O)C1=CC=C2OCCCC2=C1C)C(C)(C)C", 
	 "Tm": 459.15, 
	 "num_atms": 59, 
	 "gaussian": { 
		 "optdone": 1, 
		 "sigma_profile": "yes", 
		 "theory": "DFT", 
		 "functional": "B3LYP", 
		 "basiset": "6-31G**", 
		 "properties": { 
			 "R2extent": 16614.7993, 
			 "electric_dipole_moment_norm": 0.239663806195, 
			 "electric_quadrupole_moment_norm": 24.8893296649, 
			 "total_energy": -1267.83115114, 
			 "HOMO_LUMO_gap": 0.18155, 
			 "cosmo_polarized_energy": -17.14, 
			 "cosmo_cavitation_energy": 58.86, 
			 "cosmo_dispersion_energy": -38.83, 
			 "cosmo_repulsion_energy": 2.94, 
			 "cosmo_total_nonelectrostatic_energy": 22.97, 
			 "SMD_solvation_energy": 11.13 
		},
		"coords": [
			{
				"x": -0.4668745592,
				"y": 4.9106094673,
				"z": 1.4583572781,
				"element": "C" 
			},
			{
				"x": 0.6036482128,
				"y": 3.8623986389,
				"z": 1.656557906,
				"element": "C" 
			},
			{
				"x": 0.6267137241,
				"y": 2.7059513471,
				"z": 0.8676566313,
				"element": "C" 
			},
			{
				"x": 1.5894160686,
				"y": 1.715450389,
				"z": 1.0928762945,
				"element": "C" 
			},
			{
				"x": 2.5239012139,
				"y": 1.8634129318,
				"z": 2.1247988523,
				"element": "C" 
			},
			{
				"x": 2.5416736175,
				"y": 3.0224664782,
				"z": 2.9035512348,
				"element": "C" 
			},
			{
				"x": 3.5823060434,
				"y": 3.2204901067,
				"z": 3.9812870595,
				"element": "C" 
			},
			{
				"x": 1.5750281034,
				"y": 4.0079978944,
				"z": 2.6536262984,
				"element": "C" 
			},
			{
				"x": 1.5193805131,
				"y": 0.4238788738,
				"z": 0.3467139292,
				"element": "C" 
			},
			{
				"x": 1.6104217956,
				"y": -0.6465779355,
				"z": 0.9401785507,
				"element": "O" 
			},
			{
				"x": 1.1840044061,
				"y": 0.4621218331,
				"z": -1.0226014524,
				"element": "N" 
			},
			{
				"x": 0.6290831418,
				"y": -0.7594148487,
				"z": -1.4450808968,
				"element": "N" 
			},
			{
				"x": -0.7693668796,
				"y": -0.816926812,
				"z": -1.5103134733,
				"element": "C" 
			},
			{
				"x": -1.4624019606,
				"y": 0.1891355654,
				"z": -1.45548787,
				"element": "O" 
			},
			{
				"x": -1.2918365308,
				"y": -2.2066008189,
				"z": -1.7268455152,
				"element": "C" 
			},
			{
				"x": -0.5633443885,
				"y": -3.0716681085,
				"z": -2.564393107,
				"element": "C" 
			},
			{
				"x": -1.0125116642,
				"y": -4.3508102771,
				"z": -2.8415671128,
				"element": "C" 
			},
			{
				"x": -2.2042808104,
				"y": -4.7995296427,
				"z": -2.2632414442,
				"element": "C" 
			},
			{
				"x": -2.57797588,
				"y": -6.0716556164,
				"z": -2.5939158101,
				"element": "O" 
			},
			{
				"x": -3.9177049952,
				"y": -6.4598772063,
				"z": -2.2727985233,
				"element": "C" 
			},
			{
				"x": -4.2835332404,
				"y": -6.0438182245,
				"z": -0.8565160242,
				"element": "C" 
			},
			{
				"x": -4.1933204163,
				"y": -4.5182014689,
				"z": -0.7312967391,
				"element": "C" 
			},
			{
				"x": -2.9389023728,
				"y": -3.9751005084,
				"z": -1.3920774526,
				"element": "C" 
			},
			{
				"x": -2.4943054709,
				"y": -2.6595400181,
				"z": -1.1379644698,
				"element": "C" 
			},
			{
				"x": -3.3112147722,
				"y": -1.7970110061,
				"z": -0.2005191648,
				"element": "C" 
			},
			{
				"x": 2.0091455939,
				"y": 1.1198699991,
				"z": -2.1072384715,
				"element": "C" 
			},
			{
				"x": 1.0761587995,
				"y": 1.4061076365,
				"z": -3.2953074414,
				"element": "C" 
			},
			{
				"x": 2.6435765853,
				"y": 2.4399432894,
				"z": -1.6462313621,
				"element": "C" 
			},
			{
				"x": 3.1366880264,
				"y": 0.1534738607,
				"z": -2.527697247,
				"element": "C" 
			},
			{
				"x": -0.1108118624,
				"y": 5.9056976704,
				"z": 1.7419598021,
				"element": "H" 
			},
			{
				"x": -1.3499825836,
				"y": 4.6927903164,
				"z": 2.071840653,
				"element": "H" 
			},
			{
				"x": -0.7994259917,
				"y": 4.9511716626,
				"z": 0.4169980539,
				"element": "H" 
			},
			{
				"x": -0.1211926616,
				"y": 2.5439700865,
				"z": 0.0965329469,
				"element": "H" 
			},
			{
				"x": 3.2341522524,
				"y": 1.063149049,
				"z": 2.3112194729,
				"element": "H" 
			},
			{
				"x": 3.157541097,
				"y": 3.7119067942,
				"z": 4.8623948848,
				"element": "H" 
			},
			{
				"x": 4.4073105914,
				"y": 3.8505938076,
				"z": 3.6258977612,
				"element": "H" 
			},
			{
				"x": 4.0124729286,
				"y": 2.2667438113,
				"z": 4.2996033235,
				"element": "H" 
			},
			{
				"x": 1.5726380993,
				"y": 4.909417178,
				"z": 3.2639905607,
				"element": "H" 
			},
			{
				"x": 1.0775945534,
				"y": -1.5613072456,
				"z": -1.010607291,
				"element": "H" 
			},
			{
				"x": 0.3474255001,
				"y": -2.7146600677,
				"z": -3.0334447183,
				"element": "H" 
			},
			{
				"x": -0.4743011154,
				"y": -5.0138178139,
				"z": -3.5104372401,
				"element": "H" 
			},
			{
				"x": -4.607700512,
				"y": -6.0056259998,
				"z": -2.9995377674,
				"element": "H" 
			},
			{
				"x": -3.9430799838,
				"y": -7.5440499882,
				"z": -2.4069522998,
				"element": "H" 
			},
			{
				"x": -3.5875180889,
				"y": -6.5245450367,
				"z": -0.1590688195,
				"element": "H" 
			},
			{
				"x": -5.290565357,
				"y": -6.3971127134,
				"z": -0.6097218438,
				"element": "H" 
			},
			{
				"x": -5.08291985,
				"y": -4.0568820117,
				"z": -1.184368786,
				"element": "H" 
			},
			{
				"x": -4.2166157271,
				"y": -4.2316367131,
				"z": 0.325369907,
				"element": "H" 
			},
			{
				"x": -4.3546724808,
				"y": -1.7448227535,
				"z": -0.531908005,
				"element": "H" 
			},
			{
				"x": -2.9290773655,
				"y": -0.7813998383,
				"z": -0.1493231636,
				"element": "H" 
			},
			{
				"x": -3.3217956201,
				"y": -2.2240863839,
				"z": 0.8102228653,
				"element": "H" 
			},
			{
				"x": 1.6352015414,
				"y": 1.9116950297,
				"z": -4.0892420956,
				"element": "H" 
			},
			{
				"x": 0.2439036284,
				"y": 2.042854592,
				"z": -2.9865673157,
				"element": "H" 
			},
			{
				"x": 0.6628182036,
				"y": 0.4834189076,
				"z": -3.7078900277,
				"element": "H" 
			},
			{
				"x": 3.3277882946,
				"y": 2.3082655708,
				"z": -0.8049635705,
				"element": "H" 
			},
			{
				"x": 3.2215494061,
				"y": 2.8402491625,
				"z": -2.4848355746,
				"element": "H" 
			},
			{
				"x": 1.8951927729,
				"y": 3.1821780182,
				"z": -1.3656929238,
				"element": "H" 
			},
			{
				"x": 2.7303366853,
				"y": -0.7984002031,
				"z": -2.8782174122,
				"element": "H" 
			},
			{
				"x": 3.8156419277,
				"y": -0.0446791363,
				"z": -1.6913036605,
				"element": "H" 
			},
			{
				"x": 3.7221198137,
				"y": 0.5903484293,
				"z": -3.3430581734,
				"element": "H" 
			}
		],
		 "valence_orbital": [ 
			{
				"type": "occ",
				"energy": -0.24127,
				"method": "rhf"
			},
			{
				"type": "occ",
				"energy": -0.23803,
				"method": "rhf"
			},
			{
				"type": "occ",
				"energy": -0.23662,
				"method": "rhf"
			},
			{
				"type": "occ",
				"energy": -0.23562,
				"method": "rhf"
			},
			{
				"type": "occ",
				"energy": -0.21535,
				"method": "rhf"
			},
			{
				"type": "unocc",
				"energy": -0.0338,
				"method": "rhf"
			},
			{
				"type": "unocc",
				"energy": -0.01717,
				"method": "rhf"
			},
			{
				"type": "unocc",
				"energy": -0.00236,
				"method": "rhf"
			},
			{
				"type": "unocc",
				"energy": 0.00055,
				"method": "rhf"
			},
			{
				"type": "unocc",
				"energy": 0.03415,
				"method": "rhf"
			}
		],
		"cosmo_sigma_profile": { 
			"-0.025": 0.0,
			"-0.024": 0.0,
			"-0.023": 0.0,
			"-0.022": 0.0,
			"-0.021": 0.0,
			"-0.02": 0.0,
			"-0.019": 0.0,
			"-0.018": 0.0,
			"-0.017": 0.0,
			"-0.016": 0.0,
			"-0.015": 0.0,
			"-0.014": 0.0,
			"-0.013": 0.0,
			"-0.012": 0.0,
			"-0.011": 0.0216561094772,
			"-0.01": 0.579992428505,
			"-0.009": 0.440796533633,
			"-0.008": 1.11004665904,
			"-0.007": 1.1487886859,
			"-0.006": 4.08024088543,
			"-0.005": 20.6352393252,
			"-0.004": 54.8974779365,
			"-0.003": 57.9930847553,
			"-0.002": 52.8784078138,
			"-0.001": 54.191349107,
			"0.0": 56.3486481029,
			"0.001": 37.2069727872,
			"0.002": 20.0959130132,
			"0.003": 19.2880791218,
			"0.004": 21.2245388639,
			"0.005": 15.9566427012,
			"0.006": 5.67061284911,
			"0.007": 6.2358126444,
			"0.008": 5.88809348971,
			"0.009": 6.11854331028,
			"0.01": 4.92229100429,
			"0.011": 4.47390095197,
			"0.012": 5.78628920834,
			"0.013": 3.89755867237,
			"0.014": 0.458589562491,
			"0.015": 0.0,
			"0.016": 0.0,
			"0.017": 0.0,
			"0.018": 0.0,
			"0.019": 0.0,
			"0.02": 0.0,
			"0.021": 0.0,
			"0.022": 0.0,
			"0.023": 0.0,
			"0.024": 0.0,
			"0.025": 0.0
		}
	}
}
