{
	 "smiles": "CN1N=CC2=C1N=CN=C2NCCOC(=O)C1=CC(=CC(=C1)[N+]([O-])=O)[N+]([O-])=O", 
	 "Tm": 572.15, 
	 "num_atms": 41, 
	 "gaussian": { 
		 "optdone": 1, 
		 "sigma_profile": "yes", 
		 "theory": "DFT", 
		 "functional": "B3LYP", 
		 "basiset": "6-31G**", 
		 "properties": { 
			 "R2extent": 16754.0908, 
			 "electric_dipole_moment_norm": 3.59591307459, 
			 "electric_quadrupole_moment_norm": 31.6594201946, 
			 "total_energy": -1413.83992451, 
			 "HOMO_LUMO_gap": 0.09585, 
			 "cosmo_polarized_energy": -23.11, 
			 "cosmo_cavitation_energy": 49.15, 
			 "cosmo_dispersion_energy": -34.54, 
			 "cosmo_repulsion_energy": 2.59, 
			 "cosmo_total_nonelectrostatic_energy": 17.2, 
			 "SMD_solvation_energy": 9.68 
		},
		"coords": [
			{
				"x": -2.4429273335,
				"y": -2.7800495148,
				"z": 5.111004208,
				"element": "C" 
			},
			{
				"x": -2.1330264098,
				"y": -2.243666788,
				"z": 3.8013464592,
				"element": "N" 
			},
			{
				"x": -2.7159480985,
				"y": -1.0923450182,
				"z": 3.3599922139,
				"element": "N" 
			},
			{
				"x": -2.2356853564,
				"y": -0.8718843824,
				"z": 2.1452643891,
				"element": "C" 
			},
			{
				"x": -1.3172707791,
				"y": -1.8904949964,
				"z": 1.7672247284,
				"element": "C" 
			},
			{
				"x": -1.2814996045,
				"y": -2.7611439249,
				"z": 2.8746377302,
				"element": "C" 
			},
			{
				"x": -0.5443913612,
				"y": -3.8832167705,
				"z": 2.9865964506,
				"element": "N" 
			},
			{
				"x": 0.1856235445,
				"y": -4.1065369582,
				"z": 1.8994635105,
				"element": "C" 
			},
			{
				"x": 0.262997929,
				"y": -3.3773442167,
				"z": 0.7672337403,
				"element": "N" 
			},
			{
				"x": -0.4827409757,
				"y": -2.2642181847,
				"z": 0.6809219552,
				"element": "C" 
			},
			{
				"x": -0.4068431438,
				"y": -1.5335409875,
				"z": -0.4598946986,
				"element": "N" 
			},
			{
				"x": 0.461346569,
				"y": -1.9049274105,
				"z": -1.5635982839,
				"element": "C" 
			},
			{
				"x": 0.3291073406,
				"y": -0.9423920761,
				"z": -2.7320991652,
				"element": "C" 
			},
			{
				"x": 0.9707102919,
				"y": 0.3404261605,
				"z": -2.4834216853,
				"element": "O" 
			},
			{
				"x": 0.2394556435,
				"y": 1.3108350742,
				"z": -1.9175876652,
				"element": "C" 
			},
			{
				"x": -0.9016717333,
				"y": 1.1736608469,
				"z": -1.5116683706,
				"element": "O" 
			},
			{
				"x": 0.982511418,
				"y": 2.6061845799,
				"z": -1.8376197063,
				"element": "C" 
			},
			{
				"x": 2.2882572126,
				"y": 2.7443884597,
				"z": -2.3209270555,
				"element": "C" 
			},
			{
				"x": 2.9145631416,
				"y": 3.9822474308,
				"z": -2.2115695532,
				"element": "C" 
			},
			{
				"x": 2.2930535489,
				"y": 5.087743306,
				"z": -1.6415647898,
				"element": "C" 
			},
			{
				"x": 0.9950676222,
				"y": 4.9144932126,
				"z": -1.1725078128,
				"element": "C" 
			},
			{
				"x": 0.3272530816,
				"y": 3.6981652575,
				"z": -1.2573359751,
				"element": "C" 
			},
			{
				"x": 0.3036868522,
				"y": 6.0702821532,
				"z": -0.5620565048,
				"element": "N" 
			},
			{
				"x": -0.8416668586,
				"y": 5.8899881049,
				"z": -0.1592300581,
				"element": "O" 
			},
			{
				"x": 0.924597204,
				"y": 7.1276448324,
				"z": -0.5025824573,
				"element": "O" 
			},
			{
				"x": 4.2938224985,
				"y": 4.130824398,
				"z": -2.7225301047,
				"element": "N" 
			},
			{
				"x": 4.8192587116,
				"y": 5.2341826957,
				"z": -2.6090401614,
				"element": "O" 
			},
			{
				"x": 4.816055869,
				"y": 3.1393765512,
				"z": -3.2252360019,
				"element": "O" 
			},
			{
				"x": -1.8548850117,
				"y": -3.6891905754,
				"z": 5.2419224167,
				"element": "H" 
			},
			{
				"x": -2.1836482596,
				"y": -2.055465296,
				"z": 5.8875045384,
				"element": "H" 
			},
			{
				"x": -3.5084491824,
				"y": -3.0146469149,
				"z": 5.1824704945,
				"element": "H" 
			},
			{
				"x": -2.5622321525,
				"y": 0.0006039821,
				"z": 1.5942983091,
				"element": "H" 
			},
			{
				"x": 0.8100120269,
				"y": -4.9982343269,
				"z": 1.9166417971,
				"element": "H" 
			},
			{
				"x": -0.9479612498,
				"y": -0.6839418603,
				"z": -0.5475029376,
				"element": "H" 
			},
			{
				"x": 1.5074630043,
				"y": -1.9537406359,
				"z": -1.2373922317,
				"element": "H" 
			},
			{
				"x": 0.2055510736,
				"y": -2.9098264338,
				"z": -1.9245091143,
				"element": "H" 
			},
			{
				"x": -0.7173895409,
				"y": -0.7664825977,
				"z": -2.9944117594,
				"element": "H" 
			},
			{
				"x": 0.8621440704,
				"y": -1.3399906868,
				"z": -3.5968128518,
				"element": "H" 
			},
			{
				"x": 2.8131233563,
				"y": 1.9134444698,
				"z": -2.7726634477,
				"element": "H" 
			},
			{
				"x": 2.7970678976,
				"y": 6.0418798177,
				"z": -1.5662741663,
				"element": "H" 
			},
			{
				"x": -0.6832928567,
				"y": 3.5963092238,
				"z": -0.8820863826,
				"element": "H" 
			}
		],
		 "valence_orbital": [ 
			{
				"type": "occ",
				"energy": -0.2843,
				"method": "rhf"
			},
			{
				"type": "occ",
				"energy": -0.27415,
				"method": "rhf"
			},
			{
				"type": "occ",
				"energy": -0.25625,
				"method": "rhf"
			},
			{
				"type": "occ",
				"energy": -0.25299,
				"method": "rhf"
			},
			{
				"type": "occ",
				"energy": -0.22023,
				"method": "rhf"
			},
			{
				"type": "unocc",
				"energy": -0.12438,
				"method": "rhf"
			},
			{
				"type": "unocc",
				"energy": -0.11853,
				"method": "rhf"
			},
			{
				"type": "unocc",
				"energy": -0.08643,
				"method": "rhf"
			},
			{
				"type": "unocc",
				"energy": -0.02934,
				"method": "rhf"
			},
			{
				"type": "unocc",
				"energy": -0.02157,
				"method": "rhf"
			}
		],
		"cosmo_sigma_profile": { 
			"-0.025": 0.0,
			"-0.024": 0.0,
			"-0.023": 0.0,
			"-0.022": 0.0,
			"-0.021": 0.0,
			"-0.02": 0.0,
			"-0.019": 0.0,
			"-0.018": 0.0,
			"-0.017": 0.0,
			"-0.016": 0.0,
			"-0.015": 0.0,
			"-0.014": 0.0,
			"-0.013": 0.0,
			"-0.012": 0.0,
			"-0.011": 0.0,
			"-0.01": 0.265289080456,
			"-0.009": 2.1720378155,
			"-0.008": 8.3156577909,
			"-0.007": 15.1351723429,
			"-0.006": 29.3016261632,
			"-0.005": 36.8286846351,
			"-0.004": 40.7593298528,
			"-0.003": 36.191841016,
			"-0.002": 22.0750413225,
			"-0.001": 16.7060052337,
			"0.0": 20.6306060697,
			"0.001": 24.9441545119,
			"0.002": 19.4567859735,
			"0.003": 15.1438039869,
			"0.004": 13.2827488355,
			"0.005": 14.2717005301,
			"0.006": 18.769264705,
			"0.007": 20.853055088,
			"0.008": 14.6456164702,
			"0.009": 9.71135633273,
			"0.01": 3.72776224948,
			"0.011": 3.67348528727,
			"0.012": 2.44336742127,
			"0.013": 2.88282063435,
			"0.014": 2.31795746824,
			"0.015": 0.63177653795,
			"0.016": 0.0785150308323,
			"0.017": 0.0,
			"0.018": 0.0,
			"0.019": 0.0,
			"0.02": 0.0,
			"0.021": 0.0,
			"0.022": 0.0,
			"0.023": 0.0,
			"0.024": 0.0,
			"0.025": 0.0
		}
	}
}
