{
	 "smiles": "CC(C)C1=CC=C(C)CC1", 
	 "Tm": 242.05, 
	 "num_atms": 26, 
	 "gaussian": { 
		 "optdone": 1, 
		 "sigma_profile": "yes", 
		 "theory": "DFT", 
		 "functional": "B3LYP", 
		 "basiset": "6-31G**", 
		 "properties": { 
			 "R2extent": 1960.8014, 
			 "electric_dipole_moment_norm": 0.514707878315, 
			 "electric_quadrupole_moment_norm": 2.76008421792, 
			 "total_energy": -390.700961712, 
			 "HOMO_LUMO_gap": 0.18261, 
			 "cosmo_polarized_energy": -2.43, 
			 "cosmo_cavitation_energy": 26.93, 
			 "cosmo_dispersion_energy": -19.25, 
			 "cosmo_repulsion_energy": 1.58, 
			 "cosmo_total_nonelectrostatic_energy": 9.26, 
			 "SMD_solvation_energy": 4.48 
		},
		"coords": [
			{
				"x": 0.0269170153,
				"y": 1.5469348472,
				"z": 2.7320631339,
				"element": "C" 
			},
			{
				"x": 0.6366042138,
				"y": 1.7841840893,
				"z": 1.3349796495,
				"element": "C" 
			},
			{
				"x": 0.3842421601,
				"y": 3.232438704,
				"z": 0.8698133856,
				"element": "C" 
			},
			{
				"x": 0.1471327585,
				"y": 0.7686824196,
				"z": 0.3220197086,
				"element": "C" 
			},
			{
				"x": 0.9677743172,
				"y": -0.1335254666,
				"z": -0.251232593,
				"element": "C" 
			},
			{
				"x": 0.4921901486,
				"y": -1.0970045621,
				"z": -1.2449655513,
				"element": "C" 
			},
			{
				"x": -0.8210686992,
				"y": -1.3271474093,
				"z": -1.4357122723,
				"element": "C" 
			},
			{
				"x": -1.3542898954,
				"y": -2.3479899327,
				"z": -2.3988751387,
				"element": "C" 
			},
			{
				"x": -1.8131923712,
				"y": -0.5821416499,
				"z": -0.5630987196,
				"element": "C" 
			},
			{
				"x": -1.2998016791,
				"y": 0.8033259224,
				"z": -0.1413081418,
				"element": "C" 
			},
			{
				"x": 0.2394076186,
				"y": 0.5338362532,
				"z": 3.0871298413,
				"element": "H" 
			},
			{
				"x": -1.0608736448,
				"y": 1.6792447934,
				"z": 2.7242995703,
				"element": "H" 
			},
			{
				"x": 0.4382428919,
				"y": 2.2570001279,
				"z": 3.4582884338,
				"element": "H" 
			},
			{
				"x": 1.7228541207,
				"y": 1.6491213056,
				"z": 1.4254058176,
				"element": "H" 
			},
			{
				"x": 0.7956959664,
				"y": 3.9466012871,
				"z": 1.5914777964,
				"element": "H" 
			},
			{
				"x": 0.8516841406,
				"y": 3.4233780179,
				"z": -0.1014721567,
				"element": "H" 
			},
			{
				"x": -0.687005368,
				"y": 3.4424242835,
				"z": 0.7748826504,
				"element": "H" 
			},
			{
				"x": 2.0243465195,
				"y": -0.1489724237,
				"z": 0.0102989228,
				"element": "H" 
			},
			{
				"x": 1.2318917883,
				"y": -1.6553419647,
				"z": -1.8154092312,
				"element": "H" 
			},
			{
				"x": -1.9655780206,
				"y": -3.0995044447,
				"z": -1.8792276366,
				"element": "H" 
			},
			{
				"x": -2.0085982186,
				"y": -1.8873429852,
				"z": -3.1513436027,
				"element": "H" 
			},
			{
				"x": -0.5492102877,
				"y": -2.8711271853,
				"z": -2.9231600687,
				"element": "H" 
			},
			{
				"x": -2.7777082334,
				"y": -0.4802205531,
				"z": -1.0749255902,
				"element": "H" 
			},
			{
				"x": -2.0107639737,
				"y": -1.193885721,
				"z": 0.3334919781,
				"element": "H" 
			},
			{
				"x": -1.955519772,
				"y": 1.2192532724,
				"z": 0.6314304689,
				"element": "H" 
			},
			{
				"x": -1.3710734956,
				"y": 1.4914789749,
				"z": -0.9994506544,
				"element": "H" 
			}
		],
		 "valence_orbital": [ 
			{
				"type": "occ",
				"energy": -0.33112,
				"method": "rhf"
			},
			{
				"type": "occ",
				"energy": -0.30828,
				"method": "rhf"
			},
			{
				"type": "occ",
				"energy": -0.30073,
				"method": "rhf"
			},
			{
				"type": "occ",
				"energy": -0.28624,
				"method": "rhf"
			},
			{
				"type": "occ",
				"energy": -0.19239,
				"method": "rhf"
			},
			{
				"type": "unocc",
				"energy": -0.00978,
				"method": "rhf"
			},
			{
				"type": "unocc",
				"energy": 0.08246,
				"method": "rhf"
			},
			{
				"type": "unocc",
				"energy": 0.09634,
				"method": "rhf"
			},
			{
				"type": "unocc",
				"energy": 0.10842,
				"method": "rhf"
			},
			{
				"type": "unocc",
				"energy": 0.11995,
				"method": "rhf"
			}
		],
		"cosmo_sigma_profile": { 
			"-0.025": 0.0,
			"-0.024": 0.0,
			"-0.023": 0.0,
			"-0.022": 0.0,
			"-0.021": 0.0,
			"-0.02": 0.0,
			"-0.019": 0.0,
			"-0.018": 0.0,
			"-0.017": 0.0,
			"-0.016": 0.0,
			"-0.015": 0.0,
			"-0.014": 0.0,
			"-0.013": 0.0,
			"-0.012": 0.0,
			"-0.011": 0.0,
			"-0.01": 0.0,
			"-0.009": 0.0,
			"-0.008": 0.0,
			"-0.007": 0.0,
			"-0.006": 0.0,
			"-0.005": 0.0,
			"-0.004": 4.65987737031,
			"-0.003": 24.4662178815,
			"-0.002": 35.6044782191,
			"-0.001": 35.2195387752,
			"0.0": 35.9614876974,
			"0.001": 29.9551748009,
			"0.002": 15.8583284177,
			"0.003": 5.96186563525,
			"0.004": 4.67995959381,
			"0.005": 5.32561685204,
			"0.006": 5.14554065927,
			"0.007": 5.09260187211,
			"0.008": 0.867895317445,
			"0.009": 0.0,
			"0.01": 0.0,
			"0.011": 0.0,
			"0.012": 0.0,
			"0.013": 0.0,
			"0.014": 0.0,
			"0.015": 0.0,
			"0.016": 0.0,
			"0.017": 0.0,
			"0.018": 0.0,
			"0.019": 0.0,
			"0.02": 0.0,
			"0.021": 0.0,
			"0.022": 0.0,
			"0.023": 0.0,
			"0.024": 0.0,
			"0.025": 0.0
		}
	}
}
