{
	 "smiles": "CCSC1=NN=C(S)S1", 
	 "Tm": 393.65, 
	 "num_atms": 15, 
	 "gaussian": { 
		 "optdone": 1, 
		 "sigma_profile": "yes", 
		 "theory": "DFT", 
		 "functional": "B3LYP", 
		 "basiset": "6-31G**", 
		 "properties": { 
			 "R2extent": 3185.9624, 
			 "electric_dipole_moment_norm": 2.1745862526, 
			 "electric_quadrupole_moment_norm": 13.4572957893, 
			 "total_energy": -1460.06521343, 
			 "HOMO_LUMO_gap": 0.18801, 
			 "cosmo_polarized_energy": -10.11, 
			 "cosmo_cavitation_energy": 24.07, 
			 "cosmo_dispersion_energy": -19.34, 
			 "cosmo_repulsion_energy": 1.46, 
			 "cosmo_total_nonelectrostatic_energy": 6.19, 
			 "SMD_solvation_energy": 1.58 
		},
		"coords": [
			{
				"x": 0.3945968408,
				"y": 0.9935850376,
				"z": -2.8653545387,
				"element": "C" 
			},
			{
				"x": -0.6705703535,
				"y": 1.4682883567,
				"z": -1.8823257871,
				"element": "C" 
			},
			{
				"x": -2.0153675816,
				"y": 0.2430133831,
				"z": -1.5689484346,
				"element": "S" 
			},
			{
				"x": -1.1862411382,
				"y": -0.8715935723,
				"z": -0.4911097432,
				"element": "C" 
			},
			{
				"x": 0.0318311887,
				"y": -0.7366515118,
				"z": -0.0490679313,
				"element": "N" 
			},
			{
				"x": 0.4200599575,
				"y": -1.7477588347,
				"z": 0.7923565441,
				"element": "N" 
			},
			{
				"x": -0.50428739,
				"y": -2.6381523844,
				"z": 0.980803852,
				"element": "C" 
			},
			{
				"x": -0.2208524456,
				"y": -4.0287765902,
				"z": 2.035411434,
				"element": "S" 
			},
			{
				"x": -2.00576118,
				"y": -2.3176907618,
				"z": 0.1082593726,
				"element": "S" 
			},
			{
				"x": -0.043070421,
				"y": 0.7273066129,
				"z": -3.8314040802,
				"element": "H" 
			},
			{
				"x": 0.9282629538,
				"y": 0.1286564102,
				"z": -2.4668517968,
				"element": "H" 
			},
			{
				"x": 1.1226348298,
				"y": 1.7965259397,
				"z": -3.0281202797,
				"element": "H" 
			},
			{
				"x": -0.23957318,
				"y": 1.7249752678,
				"z": -0.9128258302,
				"element": "H" 
			},
			{
				"x": -1.2143383656,
				"y": 2.3388874795,
				"z": -2.2612114566,
				"element": "H" 
			},
			{
				"x": -1.4320237151,
				"y": -4.5906148323,
				"z": 1.8579886757,
				"element": "H" 
			}
		],
		 "valence_orbital": [ 
			{
				"type": "occ",
				"energy": -0.31073,
				"method": "rhf"
			},
			{
				"type": "occ",
				"energy": -0.30874,
				"method": "rhf"
			},
			{
				"type": "occ",
				"energy": -0.2745,
				"method": "rhf"
			},
			{
				"type": "occ",
				"energy": -0.27256,
				"method": "rhf"
			},
			{
				"type": "occ",
				"energy": -0.22859,
				"method": "rhf"
			},
			{
				"type": "unocc",
				"energy": -0.04058,
				"method": "rhf"
			},
			{
				"type": "unocc",
				"energy": -0.03419,
				"method": "rhf"
			},
			{
				"type": "unocc",
				"energy": 0.01041,
				"method": "rhf"
			},
			{
				"type": "unocc",
				"energy": 0.01296,
				"method": "rhf"
			},
			{
				"type": "unocc",
				"energy": 0.02191,
				"method": "rhf"
			}
		],
		"cosmo_sigma_profile": { 
			"-0.025": 0.0,
			"-0.024": 0.0,
			"-0.023": 0.0,
			"-0.022": 0.0,
			"-0.021": 0.0,
			"-0.02": 0.0,
			"-0.019": 0.0,
			"-0.018": 0.0,
			"-0.017": 0.0,
			"-0.016": 0.0,
			"-0.015": 0.0,
			"-0.014": 0.0,
			"-0.013": 1.83191680811,
			"-0.012": 3.17051571494,
			"-0.011": 1.57073021084,
			"-0.01": 1.29004500179,
			"-0.009": 2.17435974497,
			"-0.008": 1.51915425258,
			"-0.007": 4.07926875693,
			"-0.006": 4.8952369099,
			"-0.005": 6.98461663635,
			"-0.004": 11.6905354096,
			"-0.003": 16.4052671468,
			"-0.002": 18.0641818995,
			"-0.001": 18.9417238638,
			"0.0": 22.4213419643,
			"0.001": 17.8474668513,
			"0.002": 14.8766742514,
			"0.003": 9.86041537299,
			"0.004": 9.44177643324,
			"0.005": 7.93091957285,
			"0.006": 7.3415481192,
			"0.007": 2.71390872728,
			"0.008": 2.85292163294,
			"0.009": 1.59888513191,
			"0.01": 2.48930308659,
			"0.011": 3.27173690135,
			"0.012": 2.12457723728,
			"0.013": 1.18095759201,
			"0.014": 0.455458473222,
			"0.015": 0.0,
			"0.016": 0.0,
			"0.017": 0.0,
			"0.018": 0.0,
			"0.019": 0.0,
			"0.02": 0.0,
			"0.021": 0.0,
			"0.022": 0.0,
			"0.023": 0.0,
			"0.024": 0.0,
			"0.025": 0.0
		}
	}
}
