{
	 "smiles": "ClS(=O)(=O)C1=CC=CC2=NON=C12", 
	 "Tm": 350.65, 
	 "num_atms": 16, 
	 "gaussian": { 
		 "optdone": 1, 
		 "sigma_profile": "yes", 
		 "theory": "DFT", 
		 "functional": "B3LYP", 
		 "basiset": "6-31G**", 
		 "properties": { 
			 "R2extent": 2902.286, 
			 "electric_dipole_moment_norm": 5.91385038786, 
			 "electric_quadrupole_moment_norm": 15.4539973175, 
			 "total_energy": -1423.81971051, 
			 "HOMO_LUMO_gap": 0.15891, 
			 "cosmo_polarized_energy": -13.29, 
			 "cosmo_cavitation_energy": 24.97, 
			 "cosmo_dispersion_energy": -19.01, 
			 "cosmo_repulsion_energy": 1.44, 
			 "cosmo_total_nonelectrostatic_energy": 7.4, 
			 "SMD_solvation_energy": 2.44 
		},
		"coords": [
			{
				"x": -1.9329641814,
				"y": 1.5613059602,
				"z": -2.1707203869,
				"element": "Cl" 
			},
			{
				"x": -0.3877708895,
				"y": 2.1459706073,
				"z": -0.847336118,
				"element": "S" 
			},
			{
				"x": 0.8719716532,
				"y": 1.9224015746,
				"z": -1.5377054157,
				"element": "O" 
			},
			{
				"x": -0.7660650859,
				"y": 3.4475698734,
				"z": -0.3113885226,
				"element": "O" 
			},
			{
				"x": -0.5801519191,
				"y": 0.9322718007,
				"z": 0.4516989698,
				"element": "C" 
			},
			{
				"x": -1.0551460822,
				"y": 1.3343532425,
				"z": 1.6721803845,
				"element": "C" 
			},
			{
				"x": -1.1879970975,
				"y": 0.4148740052,
				"z": 2.7677630082,
				"element": "C" 
			},
			{
				"x": -0.855692147,
				"y": -0.9072771839,
				"z": 2.647887533,
				"element": "C" 
			},
			{
				"x": -0.3646272517,
				"y": -1.3441202247,
				"z": 1.382830645,
				"element": "C" 
			},
			{
				"x": 0.0209775882,
				"y": -2.5476784902,
				"z": 0.9927315585,
				"element": "N" 
			},
			{
				"x": 0.3886570825,
				"y": -2.3865807898,
				"z": -0.3080902786,
				"element": "O" 
			},
			{
				"x": 0.2505361763,
				"y": -1.1048678251,
				"z": -0.7625475836,
				"element": "N" 
			},
			{
				"x": -0.2178900141,
				"y": -0.4386731265,
				"z": 0.2770425021,
				"element": "C" 
			},
			{
				"x": -1.3332124651,
				"y": 2.3736077689,
				"z": 1.8098254021,
				"element": "H" 
			},
			{
				"x": -1.5656100073,
				"y": 0.7966274024,
				"z": 3.7103181752,
				"element": "H" 
			},
			{
				"x": -0.9559153595,
				"y": -1.6075845948,
				"z": 3.4691101269,
				"element": "H" 
			}
		],
		 "valence_orbital": [ 
			{
				"type": "occ",
				"energy": -0.34103,
				"method": "rhf"
			},
			{
				"type": "occ",
				"energy": -0.33905,
				"method": "rhf"
			},
			{
				"type": "occ",
				"energy": -0.32676,
				"method": "rhf"
			},
			{
				"type": "occ",
				"energy": -0.32278,
				"method": "rhf"
			},
			{
				"type": "occ",
				"energy": -0.28767,
				"method": "rhf"
			},
			{
				"type": "unocc",
				"energy": -0.12876,
				"method": "rhf"
			},
			{
				"type": "unocc",
				"energy": -0.08749,
				"method": "rhf"
			},
			{
				"type": "unocc",
				"energy": -0.03605,
				"method": "rhf"
			},
			{
				"type": "unocc",
				"energy": -0.03027,
				"method": "rhf"
			},
			{
				"type": "unocc",
				"energy": 0.04029,
				"method": "rhf"
			}
		],
		"cosmo_sigma_profile": { 
			"-0.025": 0.0,
			"-0.024": 0.0,
			"-0.023": 0.0,
			"-0.022": 0.0,
			"-0.021": 0.0,
			"-0.02": 0.0,
			"-0.019": 0.0,
			"-0.018": 0.0,
			"-0.017": 0.0,
			"-0.016": 0.0,
			"-0.015": 0.0,
			"-0.014": 0.0,
			"-0.013": 0.0,
			"-0.012": 0.0,
			"-0.011": 0.128679726268,
			"-0.01": 3.75636698766,
			"-0.009": 7.98271702157,
			"-0.008": 6.09266268341,
			"-0.007": 5.62234753811,
			"-0.006": 9.66254893952,
			"-0.005": 11.7191045171,
			"-0.004": 11.6811144701,
			"-0.003": 15.8208088325,
			"-0.002": 13.1696773792,
			"-0.001": 11.7634109306,
			"0.0": 9.36163615492,
			"0.001": 10.8712521701,
			"0.002": 15.8314527606,
			"0.003": 19.2646767704,
			"0.004": 9.39046780087,
			"0.005": 7.75132213887,
			"0.006": 6.00673930463,
			"0.007": 10.9398297007,
			"0.008": 12.6053120255,
			"0.009": 3.70345825149,
			"0.01": 2.13172828776,
			"0.011": 0.190854722295,
			"0.012": 0.0,
			"0.013": 0.0,
			"0.014": 0.0,
			"0.015": 0.0,
			"0.016": 0.0,
			"0.017": 0.0,
			"0.018": 0.0,
			"0.019": 0.0,
			"0.02": 0.0,
			"0.021": 0.0,
			"0.022": 0.0,
			"0.023": 0.0,
			"0.024": 0.0,
			"0.025": 0.0
		}
	}
}
