{
	 "smiles": "OC1=CC=C(C=C1)C(C#N)N1CCOCC1", 
	 "Tm": 422.15, 
	 "num_atms": 30, 
	 "gaussian": { 
		 "optdone": 1, 
		 "sigma_profile": "yes", 
		 "theory": "DFT", 
		 "functional": "B3LYP", 
		 "basiset": "6-31G**", 
		 "properties": { 
			 "R2extent": 4092.0918, 
			 "electric_dipole_moment_norm": 5.53012796054, 
			 "electric_quadrupole_moment_norm": 16.1922335491, 
			 "total_energy": -725.601488488, 
			 "HOMO_LUMO_gap": 0.2021, 
			 "cosmo_polarized_energy": -17.93, 
			 "cosmo_cavitation_energy": 32.85, 
			 "cosmo_dispersion_energy": -23.06, 
			 "cosmo_repulsion_energy": 1.81, 
			 "cosmo_total_nonelectrostatic_energy": 11.59, 
			 "SMD_solvation_energy": 5.03 
		},
		"coords": [
			{
				"x": -1.8494455081,
				"y": -0.1506835091,
				"z": -4.389540802,
				"element": "O" 
			},
			{
				"x": -1.54391871,
				"y": 0.0622519964,
				"z": -3.0779987646,
				"element": "C" 
			},
			{
				"x": -1.4118753409,
				"y": -1.0646323199,
				"z": -2.2564123526,
				"element": "C" 
			},
			{
				"x": -1.1018424294,
				"y": -0.9078677479,
				"z": -0.910568439,
				"element": "C" 
			},
			{
				"x": -0.9137063776,
				"y": 0.3660416381,
				"z": -0.3516707171,
				"element": "C" 
			},
			{
				"x": -1.0616706698,
				"y": 1.481628655,
				"z": -1.1829955589,
				"element": "C" 
			},
			{
				"x": -1.3715086865,
				"y": 1.3395183141,
				"z": -2.5356656877,
				"element": "C" 
			},
			{
				"x": -0.5032196928,
				"y": 0.5569485641,
				"z": 1.1117450211,
				"element": "C" 
			},
			{
				"x": -1.2808672217,
				"y": -0.3327481148,
				"z": 2.0015055468,
				"element": "C" 
			},
			{
				"x": -1.890377625,
				"y": -1.0445331468,
				"z": 2.6862223788,
				"element": "N" 
			},
			{
				"x": 0.9243493327,
				"y": 0.4135926849,
				"z": 1.4253650901,
				"element": "N" 
			},
			{
				"x": 1.749128959,
				"y": 1.5157354495,
				"z": 0.9158049001,
				"element": "C" 
			},
			{
				"x": 3.2319348586,
				"y": 1.1012424507,
				"z": 0.9297363304,
				"element": "C" 
			},
			{
				"x": 3.5250064512,
				"y": 0.2932672595,
				"z": 2.0508570386,
				"element": "O" 
			},
			{
				"x": 2.8401605698,
				"y": -0.9587351928,
				"z": 2.008876978,
				"element": "C" 
			},
			{
				"x": 1.5309475301,
				"y": -0.8939452004,
				"z": 1.2000114076,
				"element": "C" 
			},
			{
				"x": -1.9265748794,
				"y": 0.6989238142,
				"z": -4.842905266,
				"element": "H" 
			},
			{
				"x": -1.565608729,
				"y": -2.0480122864,
				"z": -2.687939004,
				"element": "H" 
			},
			{
				"x": -1.0288078898,
				"y": -1.789448394,
				"z": -0.2804446709,
				"element": "H" 
			},
			{
				"x": -0.9462400925,
				"y": 2.4810813822,
				"z": -0.7709144763,
				"element": "H" 
			},
			{
				"x": -1.4871359889,
				"y": 2.2200638596,
				"z": -3.1640480082,
				"element": "H" 
			},
			{
				"x": -0.7695793823,
				"y": 1.5836609603,
				"z": 1.3986116579,
				"element": "H" 
			},
			{
				"x": 1.4841179781,
				"y": 1.8073152159,
				"z": -0.1154217077,
				"element": "H" 
			},
			{
				"x": 1.5897679804,
				"y": 2.3902091259,
				"z": 1.5606104473,
				"element": "H" 
			},
			{
				"x": 3.4914860076,
				"y": 0.5835652966,
				"z": -0.0077381954,
				"element": "H" 
			},
			{
				"x": 3.8688701957,
				"y": 1.9873396313,
				"z": 0.9993943933,
				"element": "H" 
			},
			{
				"x": 3.4944315231,
				"y": -1.7373362478,
				"z": 1.5851883616,
				"element": "H" 
			},
			{
				"x": 2.6250762703,
				"y": -1.2176457031,
				"z": 3.0499244535,
				"element": "H" 
			},
			{
				"x": 0.8549395667,
				"y": -1.6727618188,
				"z": 1.566478874,
				"element": "H" 
			},
			{
				"x": 1.7147620002,
				"y": -1.1051366165,
				"z": 0.1323307713,
				"element": "H" 
			}
		],
		 "valence_orbital": [ 
			{
				"type": "occ",
				"energy": -0.31182,
				"method": "rhf"
			},
			{
				"type": "occ",
				"energy": -0.26699,
				"method": "rhf"
			},
			{
				"type": "occ",
				"energy": -0.25182,
				"method": "rhf"
			},
			{
				"type": "occ",
				"energy": -0.23777,
				"method": "rhf"
			},
			{
				"type": "occ",
				"energy": -0.22169,
				"method": "rhf"
			},
			{
				"type": "unocc",
				"energy": -0.01959,
				"method": "rhf"
			},
			{
				"type": "unocc",
				"energy": -0.01184,
				"method": "rhf"
			},
			{
				"type": "unocc",
				"energy": 0.02822,
				"method": "rhf"
			},
			{
				"type": "unocc",
				"energy": 0.04456,
				"method": "rhf"
			},
			{
				"type": "unocc",
				"energy": 0.0599,
				"method": "rhf"
			}
		],
		"cosmo_sigma_profile": { 
			"-0.025": 0.0,
			"-0.024": 0.0,
			"-0.023": 0.0,
			"-0.022": 0.0,
			"-0.021": 0.0,
			"-0.02": 0.0,
			"-0.019": 0.0,
			"-0.018": 0.584429511097,
			"-0.017": 1.22450274548,
			"-0.016": 1.11972696494,
			"-0.015": 1.12407487288,
			"-0.014": 0.80740261839,
			"-0.013": 1.17385616574,
			"-0.012": 0.793165868944,
			"-0.011": 0.529927324063,
			"-0.01": 1.26843041402,
			"-0.009": 3.12677441144,
			"-0.008": 4.84858076981,
			"-0.007": 5.20490192287,
			"-0.006": 10.3446968952,
			"-0.005": 17.2143073829,
			"-0.004": 30.3526391216,
			"-0.003": 28.4599693963,
			"-0.002": 17.5092146668,
			"-0.001": 14.3149379421,
			"0.0": 11.2343776764,
			"0.001": 10.1188088341,
			"0.002": 11.0632174602,
			"0.003": 14.4528118432,
			"0.004": 15.9282461181,
			"0.005": 10.9618256706,
			"0.006": 5.55762480235,
			"0.007": 4.92349453898,
			"0.008": 6.16760795708,
			"0.009": 6.3029054917,
			"0.01": 7.09263609213,
			"0.011": 6.75345019257,
			"0.012": 4.90006327347,
			"0.013": 3.43405117985,
			"0.014": 0.575846880806,
			"0.015": 0.0,
			"0.016": 0.0,
			"0.017": 0.0,
			"0.018": 0.0,
			"0.019": 0.0,
			"0.02": 0.0,
			"0.021": 0.0,
			"0.022": 0.0,
			"0.023": 0.0,
			"0.024": 0.0,
			"0.025": 0.0
		}
	}
}
