{
	 "smiles": "COCCCNC(=O)CC#N", 
	 "Tm": 337.15, 
	 "num_atms": 23, 
	 "gaussian": { 
		 "optdone": 1, 
		 "sigma_profile": "yes", 
		 "theory": "DFT", 
		 "functional": "B3LYP", 
		 "basiset": "6-31G**", 
		 "properties": { 
			 "R2extent": 3371.433, 
			 "electric_dipole_moment_norm": 1.12277428275, 
			 "electric_quadrupole_moment_norm": 12.8586789629, 
			 "total_energy": -533.909229846, 
			 "HOMO_LUMO_gap": 0.26111, 
			 "cosmo_polarized_energy": -15.99, 
			 "cosmo_cavitation_energy": 27.85, 
			 "cosmo_dispersion_energy": -19.27, 
			 "cosmo_repulsion_energy": 1.61, 
			 "cosmo_total_nonelectrostatic_energy": 10.2, 
			 "SMD_solvation_energy": 6.65 
		},
		"coords": [
			{
				"x": -2.7307831808,
				"y": -1.327103573,
				"z": -2.1096978885,
				"element": "C" 
			},
			{
				"x": -1.6272918969,
				"y": -0.5064581432,
				"z": -2.4390035098,
				"element": "O" 
			},
			{
				"x": -0.4421765866,
				"y": -0.8099790256,
				"z": -1.7252425573,
				"element": "C" 
			},
			{
				"x": -0.4416184246,
				"y": -0.2770239327,
				"z": -0.2872735043,
				"element": "C" 
			},
			{
				"x": 0.8986586911,
				"y": -0.5371177253,
				"z": 0.4133389723,
				"element": "C" 
			},
			{
				"x": 0.9383103741,
				"y": -0.0361311955,
				"z": 1.7831058406,
				"element": "N" 
			},
			{
				"x": 0.6158149725,
				"y": -0.8234659906,
				"z": 2.838792492,
				"element": "C" 
			},
			{
				"x": 0.3130871417,
				"y": -2.0048122194,
				"z": 2.7597835168,
				"element": "O" 
			},
			{
				"x": 0.6624342566,
				"y": -0.159116482,
				"z": 4.2374820447,
				"element": "C" 
			},
			{
				"x": 1.0029628706,
				"y": 1.2606355687,
				"z": 4.2615483865,
				"element": "C" 
			},
			{
				"x": 1.2770129883,
				"y": 2.3884614038,
				"z": 4.2159117285,
				"element": "N" 
			},
			{
				"x": -3.0771723181,
				"y": -1.181987105,
				"z": -1.076104842,
				"element": "H" 
			},
			{
				"x": -3.5433958009,
				"y": -1.0541332928,
				"z": -2.787383911,
				"element": "H" 
			},
			{
				"x": -2.497476634,
				"y": -2.3946397171,
				"z": -2.2481505288,
				"element": "H" 
			},
			{
				"x": -0.2602140661,
				"y": -1.8983889655,
				"z": -1.7249761645,
				"element": "H" 
			},
			{
				"x": 0.3718658528,
				"y": -0.3426857688,
				"z": -2.2923852979,
				"element": "H" 
			},
			{
				"x": -0.6535891769,
				"y": 0.798751307,
				"z": -0.312116583,
				"element": "H" 
			},
			{
				"x": -1.2352949507,
				"y": -0.7531722652,
				"z": 0.2985331265,
				"element": "H" 
			},
			{
				"x": 1.7206565088,
				"y": -0.0707280197,
				"z": -0.1417733589,
				"element": "H" 
			},
			{
				"x": 1.0955715565,
				"y": -1.6111839334,
				"z": 0.4655228915,
				"element": "H" 
			},
			{
				"x": 1.1200027406,
				"y": 0.9457165308,
				"z": 1.9393041255,
				"element": "H" 
			},
			{
				"x": 1.3845876214,
				"y": -0.7233477173,
				"z": 4.8367773097,
				"element": "H" 
			},
			{
				"x": -0.3181525395,
				"y": -0.3128897384,
				"z": 4.6993077114,
				"element": "H" 
			}
		],
		 "valence_orbital": [ 
			{
				"type": "occ",
				"energy": -0.34043,
				"method": "rhf"
			},
			{
				"type": "occ",
				"energy": -0.31329,
				"method": "rhf"
			},
			{
				"type": "occ",
				"energy": -0.27606,
				"method": "rhf"
			},
			{
				"type": "occ",
				"energy": -0.26831,
				"method": "rhf"
			},
			{
				"type": "occ",
				"energy": -0.2529,
				"method": "rhf"
			},
			{
				"type": "unocc",
				"energy": 0.00821,
				"method": "rhf"
			},
			{
				"type": "unocc",
				"energy": 0.01272,
				"method": "rhf"
			},
			{
				"type": "unocc",
				"energy": 0.02514,
				"method": "rhf"
			},
			{
				"type": "unocc",
				"energy": 0.0736,
				"method": "rhf"
			},
			{
				"type": "unocc",
				"energy": 0.08639,
				"method": "rhf"
			}
		],
		"cosmo_sigma_profile": { 
			"-0.025": 0.0,
			"-0.024": 0.0,
			"-0.023": 0.0,
			"-0.022": 0.0,
			"-0.021": 0.0,
			"-0.02": 0.0,
			"-0.019": 0.0,
			"-0.018": 0.0,
			"-0.017": 0.0,
			"-0.016": 0.0,
			"-0.015": 0.0,
			"-0.014": 0.0616235008929,
			"-0.013": 0.722584529816,
			"-0.012": 0.820520611202,
			"-0.011": 0.849779167361,
			"-0.01": 4.99105831382,
			"-0.009": 6.10821209297,
			"-0.008": 6.0419836792,
			"-0.007": 5.81385964233,
			"-0.006": 8.86745520506,
			"-0.005": 13.7158396623,
			"-0.004": 22.1398876475,
			"-0.003": 23.7031569822,
			"-0.002": 22.2417786971,
			"-0.001": 14.7689091809,
			"0.0": 11.4578014555,
			"0.001": 7.87194648146,
			"0.002": 5.43075907381,
			"0.003": 5.8110714701,
			"0.004": 4.53379620435,
			"0.005": 5.35072490463,
			"0.006": 4.77502741443,
			"0.007": 5.70255509215,
			"0.008": 5.33388873087,
			"0.009": 4.61090635946,
			"0.01": 5.44539562181,
			"0.011": 5.47928915057,
			"0.012": 5.94624195352,
			"0.013": 7.87943051298,
			"0.014": 2.75111381333,
			"0.015": 0.0107411563867,
			"0.016": 0.0,
			"0.017": 0.0,
			"0.018": 0.0,
			"0.019": 0.0,
			"0.02": 0.0,
			"0.021": 0.0,
			"0.022": 0.0,
			"0.023": 0.0,
			"0.024": 0.0,
			"0.0": 0.0
		}
	}
}
