{
	 "smiles": "CC(=C)C1=CC=CC=C1", 
	 "Tm": 250.05, 
	 "num_atms": 19, 
	 "gaussian": { 
		 "optdone": 1, 
		 "sigma_profile": "yes", 
		 "theory": "DFT", 
		 "functional": "B3LYP", 
		 "basiset": "6-31G**", 
		 "properties": { 
			 "R2extent": 1556.1298, 
			 "electric_dipole_moment_norm": 0.32732531219, 
			 "electric_quadrupole_moment_norm": 5.28656758398, 
			 "total_energy": -348.972127752, 
			 "HOMO_LUMO_gap": 0.19907, 
			 "cosmo_polarized_energy": -3.74, 
			 "cosmo_cavitation_energy": 22.04, 
			 "cosmo_dispersion_energy": -16.12, 
			 "cosmo_repulsion_energy": 1.3, 
			 "cosmo_total_nonelectrostatic_energy": 7.22, 
			 "SMD_solvation_energy": 4.43 
		},
		"coords": [
			{
				"x": 0.1979625492,
				"y": -1.1876494615,
				"z": -2.2616808571,
				"element": "C" 
			},
			{
				"x": 0.5034384868,
				"y": -1.5742727861,
				"z": -0.8314734509,
				"element": "C" 
			},
			{
				"x": 0.3379487841,
				"y": -2.8407798324,
				"z": -0.4191516962,
				"element": "C" 
			},
			{
				"x": 0.9751515488,
				"y": -0.5038794758,
				"z": 0.0898498769,
				"element": "C" 
			},
			{
				"x": 1.8071469314,
				"y": -0.8005145939,
				"z": 1.1856572813,
				"element": "C" 
			},
			{
				"x": 2.2358554579,
				"y": 0.1973629783,
				"z": 2.0573655983,
				"element": "C" 
			},
			{
				"x": 1.8525108624,
				"y": 1.5250579451,
				"z": 1.8524478153,
				"element": "C" 
			},
			{
				"x": 1.0418492416,
				"y": 1.8409168634,
				"z": 0.7622249841,
				"element": "C" 
			},
			{
				"x": 0.6143767871,
				"y": 0.8401899104,
				"z": -0.1109224737,
				"element": "C" 
			},
			{
				"x": 1.036870185,
				"y": -0.6511349927,
				"z": -2.7193909997,
				"element": "H" 
			},
			{
				"x": -0.019526492,
				"y": -2.0716528378,
				"z": -2.8660694917,
				"element": "H" 
			},
			{
				"x": -0.6744683565,
				"y": -0.5256835671,
				"z": -2.3230613017,
				"element": "H" 
			},
			{
				"x": 0.0142503626,
				"y": -3.6172460261,
				"z": -1.1056920588,
				"element": "H" 
			},
			{
				"x": 0.4978821662,
				"y": -3.1411634524,
				"z": 0.6111655476,
				"element": "H" 
			},
			{
				"x": 2.1409364704,
				"y": -1.8221046187,
				"z": 1.3380245883,
				"element": "H" 
			},
			{
				"x": 2.8822166303,
				"y": -0.0601049504,
				"z": 2.8919377326,
				"element": "H" 
			},
			{
				"x": 2.1906444644,
				"y": 2.3043752622,
				"z": 2.5292814416,
				"element": "H" 
			},
			{
				"x": 0.7397028012,
				"y": 2.869889361,
				"z": 0.5877115621,
				"element": "H" 
			},
			{
				"x": -0.0194488808,
				"y": 1.1098942745,
				"z": -0.9494240983,
				"element": "H" 
			}
		],
		 "valence_orbital": [ 
			{
				"type": "occ",
				"energy": -0.33656,
				"method": "rhf"
			},
			{
				"type": "occ",
				"energy": -0.33007,
				"method": "rhf"
			},
			{
				"type": "occ",
				"energy": -0.27815,
				"method": "rhf"
			},
			{
				"type": "occ",
				"energy": -0.24756,
				"method": "rhf"
			},
			{
				"type": "occ",
				"energy": -0.22163,
				"method": "rhf"
			},
			{
				"type": "unocc",
				"energy": -0.02256,
				"method": "rhf"
			},
			{
				"type": "unocc",
				"energy": 0.00171,
				"method": "rhf"
			},
			{
				"type": "unocc",
				"energy": 0.05245,
				"method": "rhf"
			},
			{
				"type": "unocc",
				"energy": 0.09193,
				"method": "rhf"
			},
			{
				"type": "unocc",
				"energy": 0.11921,
				"method": "rhf"
			}
		],
		"cosmo_sigma_profile": { 
			"-0.025": 0.0,
			"-0.024": 0.0,
			"-0.023": 0.0,
			"-0.022": 0.0,
			"-0.021": 0.0,
			"-0.02": 0.0,
			"-0.019": 0.0,
			"-0.018": 0.0,
			"-0.017": 0.0,
			"-0.016": 0.0,
			"-0.015": 0.0,
			"-0.014": 0.0,
			"-0.013": 0.0,
			"-0.012": 0.0,
			"-0.011": 0.0,
			"-0.01": 0.0,
			"-0.009": 0.0,
			"-0.008": 0.0,
			"-0.007": 0.0,
			"-0.006": 3.15268172649,
			"-0.005": 13.9456921911,
			"-0.004": 18.2667701654,
			"-0.003": 18.1968580417,
			"-0.002": 15.9717053724,
			"-0.001": 16.1070337944,
			"0.0": 15.6956374831,
			"0.001": 12.9738070915,
			"0.002": 11.2096282516,
			"0.003": 11.6530941261,
			"0.004": 12.7135684613,
			"0.005": 12.4649537016,
			"0.006": 11.8665127079,
			"0.007": 1.1423334394,
			"0.008": 0.0,
			"0.009": 0.0,
			"0.01": 0.0,
			"0.011": 0.0,
			"0.012": 0.0,
			"0.013": 0.0,
			"0.014": 0.0,
			"0.015": 0.0,
			"0.016": 0.0,
			"0.017": 0.0,
			"0.018": 0.0,
			"0.019": 0.0,
			"0.02": 0.0,
			"0.021": 0.0,
			"0.022": 0.0,
			"0.023": 0.0,
			"0.024": 0.0,
			"0.025": 0.0
		}
	}
}
