{
	 "smiles": "COC(=O)C1=CC=C(C=C1)N1C(C)=CC(C(=O)CCl)=C1C", 
	 "Tm": 431.15, 
	 "num_atms": 37, 
	 "gaussian": { 
		 "optdone": 1, 
		 "sigma_profile": "yes", 
		 "theory": "DFT", 
		 "functional": "B3LYP", 
		 "basiset": "6-31G**", 
		 "properties": { 
			 "R2extent": 12020.2117, 
			 "electric_dipole_moment_norm": 6.61670148412, 
			 "electric_quadrupole_moment_norm": 38.072962494, 
			 "total_energy": -1359.97935077, 
			 "HOMO_LUMO_gap": 0.14975, 
			 "cosmo_polarized_energy": -17.78, 
			 "cosmo_cavitation_energy": 43.39, 
			 "cosmo_dispersion_energy": -30.12, 
			 "cosmo_repulsion_energy": 2.33, 
			 "cosmo_total_nonelectrostatic_energy": 15.6, 
			 "SMD_solvation_energy": 9.27 
		},
		"coords": [
			{
				"x": 3.3736116619,
				"y": 3.9956835766,
				"z": 4.8469587545,
				"element": "C" 
			},
			{
				"x": 2.9225398612,
				"y": 3.4369694125,
				"z": 3.6019252865,
				"element": "O" 
			},
			{
				"x": 2.4528897417,
				"y": 2.1727415539,
				"z": 3.6747613162,
				"element": "C" 
			},
			{
				"x": 2.4073133705,
				"y": 1.5350483571,
				"z": 4.7082246179,
				"element": "O" 
			},
			{
				"x": 2.0007606882,
				"y": 1.6562973258,
				"z": 2.3492631215,
				"element": "C" 
			},
			{
				"x": 1.4830717904,
				"y": 0.3555532834,
				"z": 2.2985345839,
				"element": "C" 
			},
			{
				"x": 1.0422700671,
				"y": -0.1771942991,
				"z": 1.0911298631,
				"element": "C" 
			},
			{
				"x": 1.1248476553,
				"y": 0.5884237371,
				"z": -0.0775352421,
				"element": "C" 
			},
			{
				"x": 1.6446571899,
				"y": 1.8864583019,
				"z": -0.0335492264,
				"element": "C" 
			},
			{
				"x": 2.0774346624,
				"y": 2.4210049323,
				"z": 1.1775781099,
				"element": "C" 
			},
			{
				"x": 0.6806518763,
				"y": 0.0396799654,
				"z": -1.3218950063,
				"element": "N" 
			},
			{
				"x": 1.3617526574,
				"y": -0.9469800177,
				"z": -2.0465103866,
				"element": "C" 
			},
			{
				"x": 2.6706108077,
				"y": -1.5129619434,
				"z": -1.5980929257,
				"element": "C" 
			},
			{
				"x": 0.6218978827,
				"y": -1.2021086687,
				"z": -3.1696430484,
				"element": "C" 
			},
			{
				"x": -0.545047637,
				"y": -0.3629284935,
				"z": -3.1448360362,
				"element": "C" 
			},
			{
				"x": -1.6253402162,
				"y": -0.3085988253,
				"z": -4.1378465241,
				"element": "C" 
			},
			{
				"x": -2.5922998429,
				"y": 0.4344200786,
				"z": -4.0655045056,
				"element": "O" 
			},
			{
				"x": -1.4546884536,
				"y": -1.2847461406,
				"z": -5.3156418576,
				"element": "C" 
			},
			{
				"x": -2.7832836378,
				"y": -1.1957305549,
				"z": -6.5141438198,
				"element": "Cl" 
			},
			{
				"x": -0.4772414652,
				"y": 0.4019530412,
				"z": -1.9787328755,
				"element": "C" 
			},
			{
				"x": -1.4248620845,
				"y": 1.4152874647,
				"z": -1.422722919,
				"element": "C" 
			},
			{
				"x": 2.5569609984,
				"y": 4.0246227221,
				"z": 5.5723670426,
				"element": "H" 
			},
			{
				"x": 4.191525551,
				"y": 3.4006481002,
				"z": 5.2604626377,
				"element": "H" 
			},
			{
				"x": 3.7131923348,
				"y": 5.0037344113,
				"z": 4.6103589365,
				"element": "H" 
			},
			{
				"x": 1.4281361251,
				"y": -0.2176699666,
				"z": 3.2175524161,
				"element": "H" 
			},
			{
				"x": 0.624624778,
				"y": -1.1777668424,
				"z": 1.0450852841,
				"element": "H" 
			},
			{
				"x": 1.7125157555,
				"y": 2.4644261053,
				"z": -0.9494578173,
				"element": "H" 
			},
			{
				"x": 2.4808492608,
				"y": 3.4258798621,
				"z": 1.2187772763,
				"element": "H" 
			},
			{
				"x": 3.4300826406,
				"y": -0.7343859821,
				"z": -1.4592881207,
				"element": "H" 
			},
			{
				"x": 3.0391053568,
				"y": -2.2094269163,
				"z": -2.354753876,
				"element": "H" 
			},
			{
				"x": 2.5931557183,
				"y": -2.0592824869,
				"z": -0.6509904264,
				"element": "H" 
			},
			{
				"x": 0.897416228,
				"y": -1.9142887703,
				"z": -3.9348284248,
				"element": "H" 
			},
			{
				"x": -0.5197171575,
				"y": -1.0739791551,
				"z": -5.8407131386,
				"element": "H" 
			},
			{
				"x": -1.4111554373,
				"y": -2.3113605055,
				"z": -4.9434989715,
				"element": "H" 
			},
			{
				"x": -1.6983049043,
				"y": 1.179750429,
				"z": -0.3878277413,
				"element": "H" 
			},
			{
				"x": -0.9903847505,
				"y": 2.4220934959,
				"z": -1.4203712675,
				"element": "H" 
			},
			{
				"x": -2.3209490733,
				"y": 1.4318334118,
				"z": -2.0408950894,
				"element": "H" 
			}
		],
		 "valence_orbital": [ 
			{
				"type": "occ",
				"energy": -0.2819,
				"method": "rhf"
			},
			{
				"type": "occ",
				"energy": -0.28038,
				"method": "rhf"
			},
			{
				"type": "occ",
				"energy": -0.25221,
				"method": "rhf"
			},
			{
				"type": "occ",
				"energy": -0.24492,
				"method": "rhf"
			},
			{
				"type": "occ",
				"energy": -0.21559,
				"method": "rhf"
			},
			{
				"type": "unocc",
				"energy": -0.06584,
				"method": "rhf"
			},
			{
				"type": "unocc",
				"energy": -0.03236,
				"method": "rhf"
			},
			{
				"type": "unocc",
				"energy": -0.03,
				"method": "rhf"
			},
			{
				"type": "unocc",
				"energy": 0.02391,
				"method": "rhf"
			},
			{
				"type": "unocc",
				"energy": 0.03838,
				"method": "rhf"
			}
		],
		"cosmo_sigma_profile": { 
			"-0.025": 0.0,
			"-0.024": 0.0,
			"-0.023": 0.0,
			"-0.022": 0.0,
			"-0.021": 0.0,
			"-0.02": 0.0,
			"-0.019": 0.0,
			"-0.018": 0.0,
			"-0.017": 0.0,
			"-0.016": 0.0,
			"-0.015": 0.0,
			"-0.014": 0.0,
			"-0.013": 0.0,
			"-0.012": 0.0,
			"-0.011": 0.0,
			"-0.01": 0.0,
			"-0.009": 0.683070437192,
			"-0.008": 5.34384421874,
			"-0.007": 13.3563918645,
			"-0.006": 18.6166147412,
			"-0.005": 26.3314892913,
			"-0.004": 28.0696122048,
			"-0.003": 29.8032503362,
			"-0.002": 27.1160404185,
			"-0.001": 29.4071145092,
			"0.0": 29.9292103447,
			"0.001": 23.4672520232,
			"0.002": 23.6944419915,
			"0.003": 16.2306035051,
			"0.004": 12.2701608899,
			"0.005": 14.5292472914,
			"0.006": 14.8260024593,
			"0.007": 5.95345126921,
			"0.008": 3.28394779906,
			"0.009": 3.72349821646,
			"0.01": 5.01176412625,
			"0.011": 5.58564945223,
			"0.012": 6.6015688441,
			"0.013": 2.25488594677,
			"0.014": 1.37673876622,
			"0.015": 0.0467293370421,
			"0.016": 0.0,
			"0.017": 0.0,
			"0.018": 0.0,
			"0.019": 0.0,
			"0.02": 0.0,
			"0.021": 0.0,
			"0.022": 0.0,
			"0.023": 0.0,
			"0.024": 0.0,
			"0.025": 0.0
		}
	}
}
