{
	 "smiles": "ClC1=CC=C(C=C1)C(=O)NC1=C(Cl)N=CC=C1", 
	 "Tm": 420.15, 
	 "num_atms": 25, 
	 "gaussian": { 
		 "optdone": 1, 
		 "sigma_profile": "yes", 
		 "theory": "DFT", 
		 "functional": "B3LYP", 
		 "basiset": "6-31G**", 
		 "properties": { 
			 "R2extent": 6680.7771, 
			 "electric_dipole_moment_norm": 3.13754371444, 
			 "electric_quadrupole_moment_norm": 8.57346453541, 
			 "total_energy": -1567.21808273, 
			 "HOMO_LUMO_gap": 0.18154, 
			 "cosmo_polarized_energy": -13.18, 
			 "cosmo_cavitation_energy": 33.75, 
			 "cosmo_dispersion_energy": -24.15, 
			 "cosmo_repulsion_energy": 1.89, 
			 "cosmo_total_nonelectrostatic_energy": 11.48, 
			 "SMD_solvation_energy": 4.49 
		},
		"coords": [
			{
				"x": 1.8237008756,
				"y": -4.7358934455,
				"z": -1.9830689454,
				"element": "Cl" 
			},
			{
				"x": 1.7510591224,
				"y": -3.5135177422,
				"z": -0.7274533288,
				"element": "C" 
			},
			{
				"x": 1.4421093343,
				"y": -3.891926934,
				"z": 0.5804433742,
				"element": "C" 
			},
			{
				"x": 1.3926427585,
				"y": -2.9160427923,
				"z": 1.5716259519,
				"element": "C" 
			},
			{
				"x": 1.6185227824,
				"y": -1.5678035974,
				"z": 1.2617110585,
				"element": "C" 
			},
			{
				"x": 1.9392146713,
				"y": -1.2119159257,
				"z": -0.0559067974,
				"element": "C" 
			},
			{
				"x": 2.0119820559,
				"y": -2.1818517706,
				"z": -1.0535115662,
				"element": "C" 
			},
			{
				"x": 1.6286042389,
				"y": -0.5899987541,
				"z": 2.3963421904,
				"element": "C" 
			},
			{
				"x": 2.022927659,
				"y": -0.9146139621,
				"z": 3.5076691472,
				"element": "O" 
			},
			{
				"x": 1.2566347497,
				"y": 0.7315318368,
				"z": 2.1638873056,
				"element": "N" 
			},
			{
				"x": 0.373914682,
				"y": 1.2886636335,
				"z": 1.2295300572,
				"element": "C" 
			},
			{
				"x": 0.4631545752,
				"y": 2.6568135574,
				"z": 0.8890569111,
				"element": "C" 
			},
			{
				"x": 1.7097881531,
				"y": 3.641134282,
				"z": 1.6644527773,
				"element": "Cl" 
			},
			{
				"x": -0.3318822685,
				"y": 3.2755337038,
				"z": 0.0448690936,
				"element": "N" 
			},
			{
				"x": -1.3001057034,
				"y": 2.5679272481,
				"z": -0.5521304222,
				"element": "C" 
			},
			{
				"x": -1.505194033,
				"y": 1.2161572893,
				"z": -0.2875745487,
				"element": "C" 
			},
			{
				"x": -0.670411564,
				"y": 0.5758108104,
				"z": 0.6245526769,
				"element": "C" 
			},
			{
				"x": 1.2551095076,
				"y": -4.9336920112,
				"z": 0.8154399087,
				"element": "H" 
			},
			{
				"x": 1.1861801807,
				"y": -3.1880209755,
				"z": 2.6012696076,
				"element": "H" 
			},
			{
				"x": 2.1536514703,
				"y": -0.1784378328,
				"z": -0.3058890657,
				"element": "H" 
			},
			{
				"x": 2.2721866573,
				"y": -1.9120944626,
				"z": -2.0708253359,
				"element": "H" 
			},
			{
				"x": 1.5382000147,
				"y": 1.3403339984,
				"z": 2.9244796171,
				"element": "H" 
			},
			{
				"x": -1.9280150528,
				"y": 3.109983336,
				"z": -1.2542606652,
				"element": "H" 
			},
			{
				"x": -2.3134960891,
				"y": 0.675558387,
				"z": -0.7685822555,
				"element": "H" 
			},
			{
				"x": -0.8230787781,
				"y": -0.4674378768,
				"z": 0.8740732535,
				"element": "H" 
			}
		],
		 "valence_orbital": [ 
			{
				"type": "occ",
				"energy": -0.28978,
				"method": "rhf"
			},
			{
				"type": "occ",
				"energy": -0.28092,
				"method": "rhf"
			},
			{
				"type": "occ",
				"energy": -0.27398,
				"method": "rhf"
			},
			{
				"type": "occ",
				"energy": -0.2594,
				"method": "rhf"
			},
			{
				"type": "occ",
				"energy": -0.24558,
				"method": "rhf"
			},
			{
				"type": "unocc",
				"energy": -0.06404,
				"method": "rhf"
			},
			{
				"type": "unocc",
				"energy": -0.04586,
				"method": "rhf"
			},
			{
				"type": "unocc",
				"energy": -0.03179,
				"method": "rhf"
			},
			{
				"type": "unocc",
				"energy": -0.02431,
				"method": "rhf"
			},
			{
				"type": "unocc",
				"energy": 0.01805,
				"method": "rhf"
			}
		],
		"cosmo_sigma_profile": { 
			"-0.025": 0.0,
			"-0.024": 0.0,
			"-0.023": 0.0,
			"-0.022": 0.0,
			"-0.021": 0.0,
			"-0.02": 0.0,
			"-0.019": 0.0,
			"-0.018": 0.0,
			"-0.017": 0.0,
			"-0.016": 0.0,
			"-0.015": 0.0,
			"-0.014": 0.00437664838946,
			"-0.013": 0.418323310186,
			"-0.012": 0.631445971874,
			"-0.011": 1.52384394452,
			"-0.01": 0.790055126461,
			"-0.009": 1.01872119577,
			"-0.008": 6.38537532173,
			"-0.007": 16.3387397281,
			"-0.006": 15.5692759317,
			"-0.005": 15.1350241566,
			"-0.004": 11.5093939304,
			"-0.003": 16.2813783156,
			"-0.002": 16.2116604549,
			"-0.001": 20.6004926179,
			"0.0": 25.2537177675,
			"0.001": 30.5543819909,
			"0.002": 25.5821559772,
			"0.003": 17.8154105675,
			"0.004": 18.8655712857,
			"0.005": 7.22671876387,
			"0.006": 4.7900095085,
			"0.007": 2.52068020426,
			"0.008": 2.75296383305,
			"0.009": 3.00352167148,
			"0.01": 2.59095225345,
			"0.011": 3.54207390072,
			"0.012": 5.92348426821,
			"0.013": 3.08112460825,
			"0.014": 0.582756713225,
			"0.015": 0.0,
			"0.016": 0.0,
			"0.017": 0.0,
			"0.018": 0.0,
			"0.019": 0.0,
			"0.02": 0.0,
			"0.021": 0.0,
			"0.022": 0.0,
			"0.023": 0.0,
			"0.024": 0.0,
			"0.025": 0.0
		}
	}
}
