{
	 "smiles": "COC1=CC(CNC(N)=S)=CC=C1", 
	 "Tm": 365.15, 
	 "num_atms": 25, 
	 "gaussian": { 
		 "optdone": 1, 
		 "sigma_profile": "yes", 
		 "theory": "DFT", 
		 "functional": "B3LYP", 
		 "basiset": "6-31G**", 
		 "properties": { 
			 "R2extent": 6257.5183, 
			 "electric_dipole_moment_norm": 6.2665444465, 
			 "electric_quadrupole_moment_norm": 32.7011683487, 
			 "total_energy": -933.111044038, 
			 "HOMO_LUMO_gap": 0.17793, 
			 "cosmo_polarized_energy": -19.71, 
			 "cosmo_cavitation_energy": 30.29, 
			 "cosmo_dispersion_energy": -22.2, 
			 "cosmo_repulsion_energy": 1.75, 
			 "cosmo_total_nonelectrostatic_energy": 9.84, 
			 "SMD_solvation_energy": 4.68 
		},
		"coords": [
			{
				"x": 1.3535003894,
				"y": 2.1121563647,
				"z": -0.3602686781,
				"element": "C" 
			},
			{
				"x": 0.6785332383,
				"y": 2.5806847894,
				"z": 0.7969208971,
				"element": "O" 
			},
			{
				"x": 0.3158953778,
				"y": 1.6754693472,
				"z": 1.7496901459,
				"element": "C" 
			},
			{
				"x": 0.5475621966,
				"y": 0.2975312919,
				"z": 1.6642438807,
				"element": "C" 
			},
			{
				"x": 0.1356408248,
				"y": -0.5523238497,
				"z": 2.7032260836,
				"element": "C" 
			},
			{
				"x": 0.4591691721,
				"y": -2.0395910415,
				"z": 2.6057534981,
				"element": "C" 
			},
			{
				"x": -0.5107852086,
				"y": -2.9231620221,
				"z": 3.2410655536,
				"element": "N" 
			},
			{
				"x": -1.7346863717,
				"y": -3.2462379927,
				"z": 2.7344570052,
				"element": "C" 
			},
			{
				"x": -2.1626297067,
				"y": -2.4829116214,
				"z": 1.6882569428,
				"element": "N" 
			},
			{
				"x": -2.6329676435,
				"y": -4.5302337288,
				"z": 3.3473989873,
				"element": "S" 
			},
			{
				"x": -0.5208905322,
				"y": -0.0233279424,
				"z": 3.8159959226,
				"element": "C" 
			},
			{
				"x": -0.7548038797,
				"y": 1.3539380202,
				"z": 3.8905481797,
				"element": "C" 
			},
			{
				"x": -0.3409176834,
				"y": 2.2032532116,
				"z": 2.8719104408,
				"element": "C" 
			},
			{
				"x": 0.7359934461,
				"y": 1.4082373808,
				"z": -0.9331225541,
				"element": "H" 
			},
			{
				"x": 2.3059841157,
				"y": 1.629456148,
				"z": -0.1062721838,
				"element": "H" 
			},
			{
				"x": 1.5505112981,
				"y": 2.9940373915,
				"z": -0.9713876413,
				"element": "H" 
			},
			{
				"x": 1.0494253524,
				"y": -0.1272201124,
				"z": 0.8013081114,
				"element": "H" 
			},
			{
				"x": 0.5823229556,
				"y": -2.3161336548,
				"z": 1.5495663473,
				"element": "H" 
			},
			{
				"x": 1.4209524161,
				"y": -2.2327312177,
				"z": 3.093455041,
				"element": "H" 
			},
			{
				"x": -0.191314796,
				"y": -3.5597524336,
				"z": 3.9553811829,
				"element": "H" 
			},
			{
				"x": -1.8129630957,
				"y": -1.5392366087,
				"z": 1.578975019,
				"element": "H" 
			},
			{
				"x": -3.1176826308,
				"y": -2.6468682202,
				"z": 1.4085510336,
				"element": "H" 
			},
			{
				"x": -0.8533853064,
				"y": -0.6841872227,
				"z": 4.6097185475,
				"element": "H" 
			},
			{
				"x": -1.2675390499,
				"y": 1.7669631501,
				"z": 4.7544327728,
				"element": "H" 
			},
			{
				"x": -0.5171248787,
				"y": 3.2728905733,
				"z": 2.9143954644,
				"element": "H" 
			}
		],
		 "valence_orbital": [ 
			{
				"type": "occ",
				"energy": -0.27433,
				"method": "rhf"
			},
			{
				"type": "occ",
				"energy": -0.26224,
				"method": "rhf"
			},
			{
				"type": "occ",
				"energy": -0.2324,
				"method": "rhf"
			},
			{
				"type": "occ",
				"energy": -0.20641,
				"method": "rhf"
			},
			{
				"type": "occ",
				"energy": -0.1975,
				"method": "rhf"
			},
			{
				"type": "unocc",
				"energy": -0.01957,
				"method": "rhf"
			},
			{
				"type": "unocc",
				"energy": -0.00358,
				"method": "rhf"
			},
			{
				"type": "unocc",
				"energy": 0.00373,
				"method": "rhf"
			},
			{
				"type": "unocc",
				"energy": 0.06484,
				"method": "rhf"
			},
			{
				"type": "unocc",
				"energy": 0.08286,
				"method": "rhf"
			}
		],
		"cosmo_sigma_profile": { 
			"-0.025": 0.0,
			"-0.024": 0.0,
			"-0.023": 0.0,
			"-0.022": 0.0,
			"-0.021": 0.0,
			"-0.02": 0.0,
			"-0.019": 0.0,
			"-0.018": 0.0,
			"-0.017": 0.0,
			"-0.016": 0.0,
			"-0.015": 0.110647110459,
			"-0.014": 1.67546644735,
			"-0.013": 2.44226989193,
			"-0.012": 2.46532063151,
			"-0.011": 2.80604998623,
			"-0.01": 3.46449939204,
			"-0.009": 2.42624269284,
			"-0.008": 3.59353255397,
			"-0.007": 5.80405689958,
			"-0.006": 14.8596314664,
			"-0.005": 20.7358094573,
			"-0.004": 20.9492889668,
			"-0.003": 21.5994412011,
			"-0.002": 14.2632608499,
			"-0.001": 10.263291976,
			"0.0": 11.0116928543,
			"0.001": 10.4173140171,
			"0.002": 10.9498661922,
			"0.003": 10.9498972967,
			"0.004": 12.4545713784,
			"0.005": 12.1651886206,
			"0.006": 7.35362734397,
			"0.007": 5.37871797519,
			"0.008": 5.23993291414,
			"0.009": 5.02562491343,
			"0.01": 5.72738930175,
			"0.011": 7.17727476649,
			"0.012": 7.86375880519,
			"0.013": 3.3894826262,
			"0.014": 0.0,
			"0.015": 0.0,
			"0.016": 0.0,
			"0.017": 0.0,
			"0.018": 0.0,
			"0.019": 0.0,
			"0.02": 0.0,
			"0.021": 0.0,
			"0.022": 0.0,
			"0.023": 0.0,
			"0.024": 0.0,
			"0.025": 0.0
		}
	}
}
