{
	 "smiles": "CCCCC(C)C", 
	 "Tm": 155.15, 
	 "num_atms": 23, 
	 "gaussian": { 
		 "optdone": 1, 
		 "sigma_profile": "yes", 
		 "theory": "DFT", 
		 "functional": "B3LYP", 
		 "basiset": "6-31G**", 
		 "properties": { 
			 "R2extent": 1456.8324, 
			 "electric_dipole_moment_norm": 0.0880464650057, 
			 "electric_quadrupole_moment_norm": 0.484402270845, 
			 "total_energy": -276.413107835, 
			 "HOMO_LUMO_gap": 0.3757, 
			 "cosmo_polarized_energy": -0.63, 
			 "cosmo_cavitation_energy": 23.42, 
			 "cosmo_dispersion_energy": -16.66, 
			 "cosmo_repulsion_energy": 1.41, 
			 "cosmo_total_nonelectrostatic_energy": 8.17, 
			 "SMD_solvation_energy": 3.9 
		},
		"coords": [
			{
				"x": -2.4771726569,
				"y": -1.273131553,
				"z": 1.580848084,
				"element": "C" 
			},
			{
				"x": -1.2948337047,
				"y": -2.2386572446,
				"z": 1.4362553266,
				"element": "C" 
			},
			{
				"x": -0.5193314549,
				"y": -2.1006414882,
				"z": 0.113985312,
				"element": "C" 
			},
			{
				"x": 0.1507930098,
				"y": -0.736597747,
				"z": -0.1332022994,
				"element": "C" 
			},
			{
				"x": 1.2060590101,
				"y": -0.2907241067,
				"z": 0.9002140516,
				"element": "C" 
			},
			{
				"x": 2.3853002101,
				"y": -1.2706974481,
				"z": 0.9957188589,
				"element": "C" 
			},
			{
				"x": 1.7063489244,
				"y": 1.1238645293,
				"z": 0.5700469324,
				"element": "C" 
			},
			{
				"x": -3.1808966964,
				"y": -1.3830521196,
				"z": 0.7472312223,
				"element": "H" 
			},
			{
				"x": -2.151757865,
				"y": -0.2277892466,
				"z": 1.6011358602,
				"element": "H" 
			},
			{
				"x": -3.0291017096,
				"y": -1.4616483112,
				"z": 2.507666279,
				"element": "H" 
			},
			{
				"x": -0.6115087306,
				"y": -2.1071148998,
				"z": 2.285237499,
				"element": "H" 
			},
			{
				"x": -1.6655409359,
				"y": -3.2691347608,
				"z": 1.5104956645,
				"element": "H" 
			},
			{
				"x": 0.2368418747,
				"y": -2.8941617188,
				"z": 0.0645350904,
				"element": "H" 
			},
			{
				"x": -1.2096705006,
				"y": -2.2969910145,
				"z": -0.7180810642,
				"element": "H" 
			},
			{
				"x": 0.6271006092,
				"y": -0.7603039173,
				"z": -1.1241316128,
				"element": "H" 
			},
			{
				"x": -0.6230124592,
				"y": 0.0399138919,
				"z": -0.1962485662,
				"element": "H" 
			},
			{
				"x": 0.7238818263,
				"y": -0.2474044714,
				"z": 1.8875641603,
				"element": "H" 
			},
			{
				"x": 2.888001736,
				"y": -1.3712186254,
				"z": 0.0254730028,
				"element": "H" 
			},
			{
				"x": 2.06811844,
				"y": -2.269766349,
				"z": 1.3103798315,
				"element": "H" 
			},
			{
				"x": 3.1295878599,
				"y": -0.9190537428,
				"z": 1.7186362858,
				"element": "H" 
			},
			{
				"x": 2.4270665049,
				"y": 1.4765503403,
				"z": 1.3159833074,
				"element": "H" 
			},
			{
				"x": 2.204381363,
				"y": 1.1445050255,
				"z": -0.4073404328,
				"element": "H" 
			},
			{
				"x": 0.8803453454,
				"y": 1.8429549777,
				"z": 0.5357972068,
				"element": "H" 
			}
		],
		 "valence_orbital": [ 
			{
				"type": "occ",
				"energy": -0.33546,
				"method": "rhf"
			},
			{
				"type": "occ",
				"energy": -0.32711,
				"method": "rhf"
			},
			{
				"type": "occ",
				"energy": -0.30995,
				"method": "rhf"
			},
			{
				"type": "occ",
				"energy": -0.30428,
				"method": "rhf"
			},
			{
				"type": "occ",
				"energy": -0.29942,
				"method": "rhf"
			},
			{
				"type": "unocc",
				"energy": 0.07628,
				"method": "rhf"
			},
			{
				"type": "unocc",
				"energy": 0.11499,
				"method": "rhf"
			},
			{
				"type": "unocc",
				"energy": 0.11741,
				"method": "rhf"
			},
			{
				"type": "unocc",
				"energy": 0.12132,
				"method": "rhf"
			},
			{
				"type": "unocc",
				"energy": 0.149,
				"method": "rhf"
			}
		],
		"cosmo_sigma_profile": { 
			"-0.025": 0.0,
			"-0.024": 0.0,
			"-0.023": 0.0,
			"-0.022": 0.0,
			"-0.021": 0.0,
			"-0.02": 0.0,
			"-0.019": 0.0,
			"-0.018": 0.0,
			"-0.017": 0.0,
			"-0.016": 0.0,
			"-0.015": 0.0,
			"-0.014": 0.0,
			"-0.013": 0.0,
			"-0.012": 0.0,
			"-0.011": 0.0,
			"-0.01": 0.0,
			"-0.009": 0.0,
			"-0.008": 0.0,
			"-0.007": 0.0,
			"-0.006": 0.0,
			"-0.005": 0.0,
			"-0.004": 0.0,
			"-0.003": 2.47734948412,
			"-0.002": 24.7695837586,
			"-0.001": 41.4829207354,
			"0.0": 41.5516433876,
			"0.001": 40.7560042752,
			"0.002": 26.2778569792,
			"0.003": 1.78572491087,
			"0.004": 0.0,
			"0.005": 0.0,
			"0.006": 0.0,
			"0.007": 0.0,
			"0.008": 0.0,
			"0.009": 0.0,
			"0.01": 0.0,
			"0.011": 0.0,
			"0.012": 0.0,
			"0.013": 0.0,
			"0.014": 0.0,
			"0.015": 0.0,
			"0.016": 0.0,
			"0.017": 0.0,
			"0.018": 0.0,
			"0.019": 0.0,
			"0.02": 0.0,
			"0.021": 0.0,
			"0.022": 0.0,
			"0.023": 0.0,
			"0.024": 0.0,
			"0.025": 0.0
		}
	}
}
