{
	 "smiles": "CC(=O)OC1CCC2(C)C(CCC3C4CC[C@@](O)(CCC5=CC=CC=C5)C4(C)CCC23)C1", 
	 "Tm": 411.15, 
	 "num_atms": 74, 
	 "gaussian": { 
		 "optdone": 1, 
		 "sigma_profile": "yes", 
		 "theory": "DFT", 
		 "functional": "B3LYP", 
		 "basiset": "6-31G**", 
		 "properties": { 
			 "R2extent": 22094.8763, 
			 "electric_dipole_moment_norm": 3.17814323938, 
			 "electric_quadrupole_moment_norm": 18.7691375199, 
			 "total_energy": -1356.09991675, 
			 "HOMO_LUMO_gap": 0.23262, 
			 "cosmo_polarized_energy": -13.15, 
			 "cosmo_cavitation_energy": 63.38, 
			 "cosmo_dispersion_energy": -43.07, 
			 "cosmo_repulsion_energy": 3.15, 
			 "cosmo_total_nonelectrostatic_energy": 23.45, 
			 "SMD_solvation_energy": 9.59 
		},
		"coords": [
			{
				"x": 2.9958993813,
				"y": -5.6592737002,
				"z": -4.0234700039,
				"element": "C" 
			},
			{
				"x": 2.0284037772,
				"y": -4.7914401953,
				"z": -4.7956993073,
				"element": "C" 
			},
			{
				"x": 1.9089226213,
				"y": -4.7825060227,
				"z": -6.0025851401,
				"element": "O" 
			},
			{
				"x": 1.3042602674,
				"y": -4.0193108232,
				"z": -3.9541055279,
				"element": "O" 
			},
			{
				"x": 0.3144927953,
				"y": -3.1305107507,
				"z": -4.5514339034,
				"element": "C" 
			},
			{
				"x": -0.7721063682,
				"y": -2.9150331717,
				"z": -3.4885844736,
				"element": "C" 
			},
			{
				"x": -1.4315721026,
				"y": -1.5409102276,
				"z": -3.6566197259,
				"element": "C" 
			},
			{
				"x": -0.4600018878,
				"y": -0.3381413745,
				"z": -3.4431284627,
				"element": "C" 
			},
			{
				"x": -0.97622849,
				"y": 0.8341407838,
				"z": -4.3029212778,
				"element": "C" 
			},
			{
				"x": 1.0014639482,
				"y": -0.7162527469,
				"z": -3.9246667291,
				"element": "C" 
			},
			{
				"x": 1.9575160521,
				"y": -1.092163359,
				"z": -2.7704139695,
				"element": "C" 
			},
			{
				"x": 2.1227008899,
				"y": 0.0346082074,
				"z": -1.7241773842,
				"element": "C" 
			},
			{
				"x": 0.8564356752,
				"y": 0.913284576,
				"z": -1.6422906528,
				"element": "C" 
			},
			{
				"x": 0.6694071556,
				"y": 1.7708149394,
				"z": -0.3647627405,
				"element": "C" 
			},
			{
				"x": 1.9082583673,
				"y": 2.32435405,
				"z": 0.3630200655,
				"element": "C" 
			},
			{
				"x": 1.3850405045,
				"y": 2.7145758641,
				"z": 1.7736408205,
				"element": "C" 
			},
			{
				"x": -0.1134871856,
				"y": 2.2629653913,
				"z": 1.8690084603,
				"element": "C" 
			},
			{
				"x": -0.4124896239,
				"y": 1.6564293124,
				"z": 3.1272041945,
				"element": "O" 
			},
			{
				"x": -1.1083235805,
				"y": 3.4303882932,
				"z": 1.6321709103,
				"element": "C" 
			},
			{
				"x": -0.9462265405,
				"y": 4.7047058138,
				"z": 2.499537673,
				"element": "C" 
			},
			{
				"x": -1.1329071566,
				"y": 4.5241876452,
				"z": 3.9949880572,
				"element": "C" 
			},
			{
				"x": -0.0485902748,
				"y": 4.6199531942,
				"z": 4.8803831532,
				"element": "C" 
			},
			{
				"x": -0.2252473461,
				"y": 4.4556996949,
				"z": 6.2575862863,
				"element": "C" 
			},
			{
				"x": -1.4941914296,
				"y": 4.1962524806,
				"z": 6.7740692883,
				"element": "C" 
			},
			{
				"x": -2.5850600196,
				"y": 4.1031994033,
				"z": 5.9051310299,
				"element": "C" 
			},
			{
				"x": -2.4046530034,
				"y": 4.2656626917,
				"z": 4.5327487652,
				"element": "C" 
			},
			{
				"x": -0.1993882811,
				"y": 1.1413116527,
				"z": 0.7563307248,
				"element": "C" 
			},
			{
				"x": 0.4266822435,
				"y": -0.1502959851,
				"z": 1.336277923,
				"element": "C" 
			},
			{
				"x": -1.6140879018,
				"y": 0.7981762523,
				"z": 0.1923665958,
				"element": "C" 
			},
			{
				"x": -1.6575920298,
				"y": 0.7369058997,
				"z": -1.3554292773,
				"element": "C" 
			},
			{
				"x": -0.4049888927,
				"y": 0.0510076297,
				"z": -1.9293803732,
				"element": "C" 
			},
			{
				"x": 0.9533358677,
				"y": -1.8062433619,
				"z": -5.0101563434,
				"element": "C" 
			},
			{
				"x": 3.5539320505,
				"y": -6.2869536541,
				"z": -4.7175818367,
				"element": "H" 
			},
			{
				"x": 2.4535715092,
				"y": -6.2829302282,
				"z": -3.3068363429,
				"element": "H" 
			},
			{
				"x": 3.6859701748,
				"y": -5.0320156955,
				"z": -3.4511276629,
				"element": "H" 
			},
			{
				"x": -0.0857436041,
				"y": -3.6469961435,
				"z": -5.4272984195,
				"element": "H" 
			},
			{
				"x": -1.5206784918,
				"y": -3.7124480348,
				"z": -3.549024502,
				"element": "H" 
			},
			{
				"x": -0.3174279469,
				"y": -2.9976650036,
				"z": -2.4960633532,
				"element": "H" 
			},
			{
				"x": -2.2801074304,
				"y": -1.4549862109,
				"z": -2.969636608,
				"element": "H" 
			},
			{
				"x": -1.8637853259,
				"y": -1.4832527634,
				"z": -4.6644930961,
				"element": "H" 
			},
			{
				"x": -0.415800659,
				"y": 1.7575996396,
				"z": -4.1226597132,
				"element": "H" 
			},
			{
				"x": -2.0339065023,
				"y": 1.0412103149,
				"z": -4.1088330572,
				"element": "H" 
			},
			{
				"x": -0.8813650419,
				"y": 0.5971903502,
				"z": -5.3687521403,
				"element": "H" 
			},
			{
				"x": 1.4245499491,
				"y": 0.1800630906,
				"z": -4.3995749896,
				"element": "H" 
			},
			{
				"x": 1.6064819505,
				"y": -2.0035347905,
				"z": -2.2788185048,
				"element": "H" 
			},
			{
				"x": 2.9347331851,
				"y": -1.3533530357,
				"z": -3.1943714712,
				"element": "H" 
			},
			{
				"x": 2.3535239149,
				"y": -0.4130762216,
				"z": -0.7518443941,
				"element": "H" 
			},
			{
				"x": 2.9826651703,
				"y": 0.6652763175,
				"z": -1.9809197919,
				"element": "H" 
			},
			{
				"x": 0.9343445396,
				"y": 1.6353605527,
				"z": -2.4666066056,
				"element": "H" 
			},
			{
				"x": 0.1044147169,
				"y": 2.6502024468,
				"z": -0.7005175595,
				"element": "H" 
			},
			{
				"x": 2.6937935131,
				"y": 1.5673783861,
				"z": 0.442576629,
				"element": "H" 
			},
			{
				"x": 2.3472200057,
				"y": 3.1742767255,
				"z": -0.1706378854,
				"element": "H" 
			},
			{
				"x": 1.9391045572,
				"y": 2.194122921,
				"z": 2.559590284,
				"element": "H" 
			},
			{
				"x": 1.5055578908,
				"y": 3.7844665495,
				"z": 1.96301369,
				"element": "H" 
			},
			{
				"x": -0.3830362136,
				"y": 2.3405856669,
				"z": 3.8095688894,
				"element": "H" 
			},
			{
				"x": -1.0679574569,
				"y": 3.7503548436,
				"z": 0.5845066515,
				"element": "H" 
			},
			{
				"x": -2.1161559116,
				"y": 3.0376733111,
				"z": 1.80143417,
				"element": "H" 
			},
			{
				"x": 0.0274508598,
				"y": 5.1697949614,
				"z": 2.3135729109,
				"element": "H" 
			},
			{
				"x": -1.6927508684,
				"y": 5.4255621361,
				"z": 2.1424632412,
				"element": "H" 
			},
			{
				"x": 0.9428614547,
				"y": 4.8317988097,
				"z": 4.4874548597,
				"element": "H" 
			},
			{
				"x": 0.6294672553,
				"y": 4.5355906886,
				"z": 6.923375235,
				"element": "H" 
			},
			{
				"x": -1.6347436589,
				"y": 4.0697192164,
				"z": 7.8435149327,
				"element": "H" 
			},
			{
				"x": -3.5782334005,
				"y": 3.905695028,
				"z": 6.2986417976,
				"element": "H" 
			},
			{
				"x": -3.2607299589,
				"y": 4.1945888598,
				"z": 3.8661427188,
				"element": "H" 
			},
			{
				"x": 0.446236614,
				"y": -0.9468388159,
				"z": 0.5888257724,
				"element": "H" 
			},
			{
				"x": 1.4489825542,
				"y": -0.002984844,
				"z": 1.6955746944,
				"element": "H" 
			},
			{
				"x": -0.1665933361,
				"y": -0.4945599749,
				"z": 2.1854841753,
				"element": "H" 
			},
			{
				"x": -2.3702974985,
				"y": 1.5111347105,
				"z": 0.5310839322,
				"element": "H" 
			},
			{
				"x": -1.926828606,
				"y": -0.1732962427,
				"z": 0.5921694804,
				"element": "H" 
			},
			{
				"x": -1.7426542356,
				"y": 1.7506017279,
				"z": -1.7670653762,
				"element": "H" 
			},
			{
				"x": -2.5715173211,
				"y": 0.2136875727,
				"z": -1.6596189631,
				"element": "H" 
			},
			{
				"x": -0.2944467791,
				"y": -0.8928876106,
				"z": -1.377323904,
				"element": "H" 
			},
			{
				"x": 0.3669063645,
				"y": -1.4372156745,
				"z": -5.8608250084,
				"element": "H" 
			},
			{
				"x": 1.9531145856,
				"y": -2.0098819395,
				"z": -5.4063015342,
				"element": "H" 
			}
		],
		 "valence_orbital": [ 
			{
				"type": "occ",
				"energy": -0.26395,
				"method": "rhf"
			},
			{
				"type": "occ",
				"energy": -0.2608,
				"method": "rhf"
			},
			{
				"type": "occ",
				"energy": -0.25657,
				"method": "rhf"
			},
			{
				"type": "occ",
				"energy": -0.24817,
				"method": "rhf"
			},
			{
				"type": "occ",
				"energy": -0.24181,
				"method": "rhf"
			},
			{
				"type": "unocc",
				"energy": -0.00919,
				"method": "rhf"
			},
			{
				"type": "unocc",
				"energy": -0.00612,
				"method": "rhf"
			},
			{
				"type": "unocc",
				"energy": 0.01915,
				"method": "rhf"
			},
			{
				"type": "unocc",
				"energy": 0.06815,
				"method": "rhf"
			},
			{
				"type": "unocc",
				"energy": 0.07681,
				"method": "rhf"
			}
		],
		"cosmo_sigma_profile": { 
			"-0.025": 0.0,
			"-0.024": 0.0,
			"-0.023": 0.0,
			"-0.022": 0.0,
			"-0.021": 0.0,
			"-0.02": 0.0,
			"-0.019": 0.0,
			"-0.018": 0.0,
			"-0.017": 0.0,
			"-0.016": 0.0,
			"-0.015": 0.0,
			"-0.014": 0.0,
			"-0.013": 0.0,
			"-0.012": 0.0,
			"-0.011": 0.0,
			"-0.01": 0.0,
			"-0.009": 0.0,
			"-0.008": 0.0,
			"-0.007": 0.210865630748,
			"-0.006": 5.97038260644,
			"-0.005": 18.324638387,
			"-0.004": 29.7712512735,
			"-0.003": 52.7994810629,
			"-0.002": 70.766962099,
			"-0.001": 80.0084138652,
			"0.0": 71.569135442,
			"0.001": 47.4052514041,
			"0.002": 32.0471506539,
			"0.003": 16.3907923291,
			"0.004": 13.6756311878,
			"0.005": 11.6691199518,
			"0.006": 9.90836257086,
			"0.007": 4.32468060449,
			"0.008": 3.86442393377,
			"0.009": 2.39162053175,
			"0.01": 3.48680628982,
			"0.011": 4.16605658625,
			"0.012": 5.99264985856,
			"0.013": 3.93593364957,
			"0.014": 0.762822261768,
			"0.015": 0.0237105636872,
			"0.016": 0.0,
			"0.017": 0.0,
			"0.018": 0.0,
			"0.019": 0.0,
			"0.02": 0.0,
			"0.021": 0.0,
			"0.022": 0.0,
			"0.023": 0.0,
			"0.024": 0.0,
			"0.025": 0.0
		}
	}
}
