{
	 "smiles": "CCOC(=O)C(NC(=O)C(C)C)C(=O)OCC", 
	 "Tm": 349.15, 
	 "num_atms": 36, 
	 "gaussian": { 
		 "optdone": 1, 
		 "sigma_profile": "yes", 
		 "theory": "DFT", 
		 "functional": "B3LYP", 
		 "basiset": "6-31G**", 
		 "properties": { 
			 "R2extent": 5097.2873, 
			 "electric_dipole_moment_norm": 4.93319081934, 
			 "electric_quadrupole_moment_norm": 16.9981489492, 
			 "total_energy": -861.534000211, 
			 "HOMO_LUMO_gap": 0.22839, 
			 "cosmo_polarized_energy": -18.29, 
			 "cosmo_cavitation_energy": 39.34, 
			 "cosmo_dispersion_energy": -26.01, 
			 "cosmo_repulsion_energy": 2.11, 
			 "cosmo_total_nonelectrostatic_energy": 15.44, 
			 "SMD_solvation_energy": 8.93 
		},
		"coords": [
			{
				"x": -2.3498790235,
				"y": 0.9680744535,
				"z": -4.9873529851,
				"element": "C" 
			},
			{
				"x": -2.6150138636,
				"y": 0.7386615636,
				"z": -3.5125674366,
				"element": "C" 
			},
			{
				"x": -1.5188461616,
				"y": -0.0568958564,
				"z": -2.9918100179,
				"element": "O" 
			},
			{
				"x": -1.5680710379,
				"y": -0.3390320118,
				"z": -1.6827378958,
				"element": "C" 
			},
			{
				"x": -2.4846777661,
				"y": -0.0588971404,
				"z": -0.9452248206,
				"element": "O" 
			},
			{
				"x": -0.2949036023,
				"y": -1.0934432892,
				"z": -1.2576294663,
				"element": "C" 
			},
			{
				"x": -0.4790154857,
				"y": -1.9513574829,
				"z": -0.1114720511,
				"element": "N" 
			},
			{
				"x": -0.8045071986,
				"y": -1.6394278551,
				"z": 1.1982327668,
				"element": "C" 
			},
			{
				"x": -1.1152474025,
				"y": -2.5466335857,
				"z": 1.9583992313,
				"element": "O" 
			},
			{
				"x": -0.6849220906,
				"y": -0.1956580123,
				"z": 1.687054121,
				"element": "C" 
			},
			{
				"x": 0.5361981001,
				"y": -0.1054354837,
				"z": 2.6230181094,
				"element": "C" 
			},
			{
				"x": -1.9790966557,
				"y": 0.2019528803,
				"z": 2.413187571,
				"element": "C" 
			},
			{
				"x": 0.8742055822,
				"y": -0.0916743789,
				"z": -1.1368429855,
				"element": "C" 
			},
			{
				"x": 0.7934192623,
				"y": 1.0850582718,
				"z": -1.4121868118,
				"element": "O" 
			},
			{
				"x": 1.9908328519,
				"y": -0.7093167518,
				"z": -0.7302084776,
				"element": "O" 
			},
			{
				"x": 3.1715699101,
				"y": 0.1294600157,
				"z": -0.614856261,
				"element": "C" 
			},
			{
				"x": 4.3189691326,
				"y": -0.7600306624,
				"z": -0.1790980652,
				"element": "C" 
			},
			{
				"x": -3.1564073692,
				"y": 1.5696562491,
				"z": -5.4177322155,
				"element": "H" 
			},
			{
				"x": -1.4061375137,
				"y": 1.5002033468,
				"z": -5.135328124,
				"element": "H" 
			},
			{
				"x": -2.3021626125,
				"y": 0.0195370098,
				"z": -5.5300437998,
				"element": "H" 
			},
			{
				"x": -3.5507999891,
				"y": 0.1991918724,
				"z": -3.3374549692,
				"element": "H" 
			},
			{
				"x": -2.6579853517,
				"y": 1.6752269746,
				"z": -2.949061408,
				"element": "H" 
			},
			{
				"x": -0.0174932845,
				"y": -1.7420230537,
				"z": -2.0956795152,
				"element": "H" 
			},
			{
				"x": -0.6062937784,
				"y": -2.9372002585,
				"z": -0.2990510809,
				"element": "H" 
			},
			{
				"x": -0.5417710154,
				"y": 0.487245357,
				"z": 0.846205704,
				"element": "H" 
			},
			{
				"x": 0.4112836627,
				"y": -0.7888589815,
				"z": 3.4677717263,
				"element": "H" 
			},
			{
				"x": 1.4621977892,
				"y": -0.3750532357,
				"z": 2.1042012842,
				"element": "H" 
			},
			{
				"x": 0.6440447058,
				"y": 0.9127237852,
				"z": 3.0104528148,
				"element": "H" 
			},
			{
				"x": -1.8811543198,
				"y": 1.206127054,
				"z": 2.8384267928,
				"element": "H" 
			},
			{
				"x": -2.8243200183,
				"y": 0.2007121811,
				"z": 1.7206769141,
				"element": "H" 
			},
			{
				"x": -2.1869839352,
				"y": -0.5044801652,
				"z": 3.2211626065,
				"element": "H" 
			},
			{
				"x": 2.9631510746,
				"y": 0.9225264956,
				"z": 0.1092968861,
				"element": "H" 
			},
			{
				"x": 3.3569517891,
				"y": 0.6031585816,
				"z": -1.583546527,
				"element": "H" 
			},
			{
				"x": 4.1084105055,
				"y": -1.2277956593,
				"z": 0.7866738558,
				"element": "H" 
			},
			{
				"x": 5.230482543,
				"y": -0.1624241945,
				"z": -0.0810723651,
				"element": "H" 
			},
			{
				"x": 4.5028725665,
				"y": -1.5501780332,
				"z": -0.9125031047,
				"element": "H" 
			}
		],
		 "valence_orbital": [ 
			{
				"type": "occ",
				"energy": -0.3098,
				"method": "rhf"
			},
			{
				"type": "occ",
				"energy": -0.296,
				"method": "rhf"
			},
			{
				"type": "occ",
				"energy": -0.28623,
				"method": "rhf"
			},
			{
				"type": "occ",
				"energy": -0.25176,
				"method": "rhf"
			},
			{
				"type": "occ",
				"energy": -0.24096,
				"method": "rhf"
			},
			{
				"type": "unocc",
				"energy": -0.01257,
				"method": "rhf"
			},
			{
				"type": "unocc",
				"energy": -0.00285,
				"method": "rhf"
			},
			{
				"type": "unocc",
				"energy": 0.03151,
				"method": "rhf"
			},
			{
				"type": "unocc",
				"energy": 0.07162,
				"method": "rhf"
			},
			{
				"type": "unocc",
				"energy": 0.08463,
				"method": "rhf"
			}
		],
		"cosmo_sigma_profile": { 
			"-0.025": 0.0,
			"-0.024": 0.0,
			"-0.023": 0.0,
			"-0.022": 0.0,
			"-0.021": 0.0,
			"-0.02": 0.0,
			"-0.019": 0.0,
			"-0.018": 0.0,
			"-0.017": 0.0,
			"-0.016": 0.0,
			"-0.015": 0.61862591431,
			"-0.014": 1.63413428936,
			"-0.013": 1.67860116869,
			"-0.012": 1.86030992066,
			"-0.011": 2.22168467569,
			"-0.01": 2.36281423185,
			"-0.009": 2.16001939501,
			"-0.008": 2.04944148633,
			"-0.007": 1.89800143173,
			"-0.006": 5.53315485347,
			"-0.005": 16.8573851101,
			"-0.004": 31.2797779382,
			"-0.003": 34.3138337867,
			"-0.002": 32.1560469182,
			"-0.001": 30.8370905601,
			"0.0": 30.6037226778,
			"0.001": 21.3067933637,
			"0.002": 11.1025534674,
			"0.003": 9.17812018107,
			"0.004": 8.99558786067,
			"0.005": 8.14774002325,
			"0.006": 7.84567306167,
			"0.007": 7.69816689599,
			"0.008": 6.33178565866,
			"0.009": 5.44721172843,
			"0.01": 5.57794675465,
			"0.011": 6.72505883083,
			"0.012": 2.3086242094,
			"0.013": 4.06059871662,
			"0.014": 3.92730431129,
			"0.015": 0.166029087246,
			"0.016": 0.0,
			"0.017": 0.0,
			"0.018": 0.0,
			"0.019": 0.0,
			"0.02": 0.0,
			"0.021": 0.0,
			"0.022": 0.0,
			"0.023": 0.0,
			"0.024": 0.0,
			"0.025": 0.0
		}
	}
}
