{
	 "smiles": "NC(=O)N1C(=O)N(N=C1C1CCCCC1)C1=CC=CC=C1", 
	 "Tm": 471.15, 
	 "num_atms": 39, 
	 "gaussian": { 
		 "optdone": 1, 
		 "sigma_profile": "yes", 
		 "theory": "DFT", 
		 "functional": "B3LYP", 
		 "basiset": "6-31G**", 
		 "properties": { 
			 "R2extent": 7281.0703, 
			 "electric_dipole_moment_norm": 0.151308261506, 
			 "electric_quadrupole_moment_norm": 6.88394063818, 
			 "total_energy": -951.946794548, 
			 "HOMO_LUMO_gap": 0.20188, 
			 "cosmo_polarized_energy": -10.7, 
			 "cosmo_cavitation_energy": 40.4, 
			 "cosmo_dispersion_energy": -29.43, 
			 "cosmo_repulsion_energy": 2.23, 
			 "cosmo_total_nonelectrostatic_energy": 13.2, 
			 "SMD_solvation_energy": 6.72 
		},
		"coords": [
			{
				"x": 2.3563803075,
				"y": -1.6589173517,
				"z": -2.7817636789,
				"element": "N" 
			},
			{
				"x": 1.2002627243,
				"y": -1.8648091333,
				"z": -2.120410413,
				"element": "C" 
			},
			{
				"x": 0.4458256767,
				"y": -2.8083826799,
				"z": -2.2846940581,
				"element": "O" 
			},
			{
				"x": 0.9049655393,
				"y": -0.840070388,
				"z": -1.1496206947,
				"element": "N" 
			},
			{
				"x": 1.6645512011,
				"y": 0.3326514825,
				"z": -0.9321136682,
				"element": "C" 
			},
			{
				"x": 2.7194263193,
				"y": 0.6494588424,
				"z": -1.4834499267,
				"element": "O" 
			},
			{
				"x": 0.9425610448,
				"y": 1.008958793,
				"z": 0.0215373103,
				"element": "N" 
			},
			{
				"x": -0.2016691144,
				"y": 0.3175006058,
				"z": 0.3870515292,
				"element": "N" 
			},
			{
				"x": -0.2171050957,
				"y": -0.7751731182,
				"z": -0.3114565024,
				"element": "C" 
			},
			{
				"x": -1.2801303531,
				"y": -1.8244057381,
				"z": -0.1642237426,
				"element": "C" 
			},
			{
				"x": -2.5587046249,
				"y": -1.2604941865,
				"z": 0.4812360121,
				"element": "C" 
			},
			{
				"x": -3.7011395193,
				"y": -2.3003400268,
				"z": 0.4021249338,
				"element": "C" 
			},
			{
				"x": -3.1859178663,
				"y": -3.7574822572,
				"z": 0.4851950586,
				"element": "C" 
			},
			{
				"x": -1.9028514016,
				"y": -3.8354115114,
				"z": 1.32138428,
				"element": "C" 
			},
			{
				"x": -0.751594492,
				"y": -3.0415063306,
				"z": 0.6602166015,
				"element": "C" 
			},
			{
				"x": 1.2312074597,
				"y": 2.2661090275,
				"z": 0.6227237058,
				"element": "C" 
			},
			{
				"x": 2.3839013255,
				"y": 2.985553507,
				"z": 0.2780751692,
				"element": "C" 
			},
			{
				"x": 2.6263677799,
				"y": 4.2137899113,
				"z": 0.8934381309,
				"element": "C" 
			},
			{
				"x": 1.7423360248,
				"y": 4.7308411482,
				"z": 1.8405561085,
				"element": "C" 
			},
			{
				"x": 0.5983324725,
				"y": 4.003709895,
				"z": 2.1743840232,
				"element": "C" 
			},
			{
				"x": 0.3358346238,
				"y": 2.7750853777,
				"z": 1.5728140482,
				"element": "C" 
			},
			{
				"x": 2.5945610422,
				"y": -2.3325021619,
				"z": -3.4914238463,
				"element": "H" 
			},
			{
				"x": 2.9083827163,
				"y": -0.8224606743,
				"z": -2.6041802106,
				"element": "H" 
			},
			{
				"x": -1.5166414033,
				"y": -2.1826387238,
				"z": -1.1699178365,
				"element": "H" 
			},
			{
				"x": -2.3462756909,
				"y": -1.0019305977,
				"z": 1.524477373,
				"element": "H" 
			},
			{
				"x": -2.8569324997,
				"y": -0.3272366909,
				"z": -0.0059039276,
				"element": "H" 
			},
			{
				"x": -4.409441873,
				"y": -2.1081913974,
				"z": 1.2164713854,
				"element": "H" 
			},
			{
				"x": -4.261639879,
				"y": -2.1648713349,
				"z": -0.530382284,
				"element": "H" 
			},
			{
				"x": -3.961324147,
				"y": -4.4089571859,
				"z": 0.9029467513,
				"element": "H" 
			},
			{
				"x": -2.9763770459,
				"y": -4.1393563362,
				"z": -0.5222692677,
				"element": "H" 
			},
			{
				"x": -1.5942099707,
				"y": -4.8768324463,
				"z": 1.4646883436,
				"element": "H" 
			},
			{
				"x": -2.1063467954,
				"y": -3.4356748696,
				"z": 2.3231788314,
				"element": "H" 
			},
			{
				"x": -0.1780237297,
				"y": -3.6836864159,
				"z": -0.013167922,
				"element": "H" 
			},
			{
				"x": -0.0626956408,
				"y": -2.6851665341,
				"z": 1.435143148,
				"element": "H" 
			},
			{
				"x": 3.0704099892,
				"y": 2.5874563708,
				"z": -0.4559297233,
				"element": "H" 
			},
			{
				"x": 3.520632398,
				"y": 4.7680463903,
				"z": 0.6234649648,
				"element": "H" 
			},
			{
				"x": 1.9416540401,
				"y": 5.6879882337,
				"z": 2.3128169432,
				"element": "H" 
			},
			{
				"x": -0.1002733288,
				"y": 4.392075054,
				"z": 2.9098467853,
				"element": "H" 
			},
			{
				"x": -0.5488982134,
				"y": 2.2058734515,
				"z": 1.8266362655,
				"element": "H" 
			}
		],
		 "valence_orbital": [ 
			{
				"type": "occ",
				"energy": -0.28357,
				"method": "rhf"
			},
			{
				"type": "occ",
				"energy": -0.28115,
				"method": "rhf"
			},
			{
				"type": "occ",
				"energy": -0.26717,
				"method": "rhf"
			},
			{
				"type": "occ",
				"energy": -0.25218,
				"method": "rhf"
			},
			{
				"type": "occ",
				"energy": -0.22044,
				"method": "rhf"
			},
			{
				"type": "unocc",
				"energy": -0.01856,
				"method": "rhf"
			},
			{
				"type": "unocc",
				"energy": -0.01436,
				"method": "rhf"
			},
			{
				"type": "unocc",
				"energy": -0.00014,
				"method": "rhf"
			},
			{
				"type": "unocc",
				"energy": 0.0435,
				"method": "rhf"
			},
			{
				"type": "unocc",
				"energy": 0.07726,
				"method": "rhf"
			}
		],
		"cosmo_sigma_profile": { 
			"-0.025": 0.0,
			"-0.024": 0.0,
			"-0.023": 0.0,
			"-0.022": 0.0,
			"-0.021": 0.0,
			"-0.02": 0.0,
			"-0.019": 0.0,
			"-0.018": 0.0,
			"-0.017": 0.0,
			"-0.016": 0.0744318913481,
			"-0.015": 0.983319503508,
			"-0.014": 1.13982486723,
			"-0.013": 0.977239475835,
			"-0.012": 0.800577015322,
			"-0.011": 1.06150902437,
			"-0.01": 1.73326540451,
			"-0.009": 1.66978661294,
			"-0.008": 1.49070047096,
			"-0.007": 1.17768888636,
			"-0.006": 7.51555973668,
			"-0.005": 12.717657654,
			"-0.004": 17.1007282039,
			"-0.003": 27.7926011027,
			"-0.002": 39.2620567445,
			"-0.001": 41.3231468082,
			"0.0": 37.0584414701,
			"0.001": 30.53436984,
			"0.002": 20.6342219227,
			"0.003": 15.5058240461,
			"0.004": 15.643516197,
			"0.005": 14.6471446573,
			"0.006": 6.77428088785,
			"0.007": 3.87260573548,
			"0.008": 4.10105021887,
			"0.009": 3.66218598089,
			"0.01": 3.72376877189,
			"0.011": 1.57542568153,
			"0.012": 2.78825131426,
			"0.013": 1.9258175986,
			"0.014": 0.0913585070395,
			"0.015": 0.0,
			"0.016": 0.0,
			"0.017": 0.0,
			"0.018": 0.0,
			"0.019": 0.0,
			"0.02": 0.0,
			"0.021": 0.0,
			"0.022": 0.0,
			"0.023": 0.0,
			"0.024": 0.0,
			"0.025": 0.0
		}
	}
}
