{
	 "smiles": "NNC(=O)C1=C(N=NS1)C1=CC=CC=C1", 
	 "Tm": 403.15, 
	 "num_atms": 23, 
	 "gaussian": { 
		 "optdone": 1, 
		 "sigma_profile": "yes", 
		 "theory": "DFT", 
		 "functional": "B3LYP", 
		 "basiset": "6-31G**", 
		 "properties": { 
			 "R2extent": 3585.8873, 
			 "electric_dipole_moment_norm": 3.80201859806, 
			 "electric_quadrupole_moment_norm": 9.43873541583, 
			 "total_energy": -1040.12632258, 
			 "HOMO_LUMO_gap": 0.17219, 
			 "cosmo_polarized_energy": -15.25, 
			 "cosmo_cavitation_energy": 29.37, 
			 "cosmo_dispersion_energy": -21.29, 
			 "cosmo_repulsion_energy": 1.63, 
			 "cosmo_total_nonelectrostatic_energy": 9.71, 
			 "SMD_solvation_energy": 3.97 
		},
		"coords": [
			{
				"x": -2.5160253694,
				"y": 0.1519459018,
				"z": -1.4291822481,
				"element": "N" 
			},
			{
				"x": -2.2211942746,
				"y": -1.1617151315,
				"z": -1.0384472648,
				"element": "N" 
			},
			{
				"x": -1.0496499284,
				"y": -1.8499086872,
				"z": -1.1905267367,
				"element": "C" 
			},
			{
				"x": -0.9369213768,
				"y": -3.0262203077,
				"z": -0.8729599498,
				"element": "O" 
			},
			{
				"x": 0.0968537603,
				"y": -1.0921925342,
				"z": -1.8027651684,
				"element": "C" 
			},
			{
				"x": 0.7910583575,
				"y": 0.0173280218,
				"z": -1.3494804479,
				"element": "C" 
			},
			{
				"x": 1.8231507848,
				"y": 0.3814932789,
				"z": -2.1932392284,
				"element": "N" 
			},
			{
				"x": 1.9880564318,
				"y": -0.349232945,
				"z": -3.2207575873,
				"element": "N" 
			},
			{
				"x": 0.8294723196,
				"y": -1.6455910664,
				"z": -3.2494853023,
				"element": "S" 
			},
			{
				"x": 0.5620029748,
				"y": 0.8057369073,
				"z": -0.1232733477,
				"element": "C" 
			},
			{
				"x": 0.0680712205,
				"y": 0.2083034376,
				"z": 1.0496435218,
				"element": "C" 
			},
			{
				"x": -0.14220439,
				"y": 0.9754228938,
				"z": 2.1950258141,
				"element": "C" 
			},
			{
				"x": 0.1477445565,
				"y": 2.3411053256,
				"z": 2.1907085308,
				"element": "C" 
			},
			{
				"x": 0.6569342835,
				"y": 2.9382469849,
				"z": 1.0348554302,
				"element": "C" 
			},
			{
				"x": 0.8652785975,
				"y": 2.1789951734,
				"z": -0.1143495943,
				"element": "C" 
			},
			{
				"x": -1.9605104462,
				"y": 0.8084935454,
				"z": -0.8855471354,
				"element": "H" 
			},
			{
				"x": -2.3081815884,
				"y": 0.2801414388,
				"z": -2.4159175102,
				"element": "H" 
			},
			{
				"x": -2.991476668,
				"y": -1.6916853302,
				"z": -0.6510409545,
				"element": "H" 
			},
			{
				"x": -0.1196267867,
				"y": -0.8602214269,
				"z": 1.076588706,
				"element": "H" 
			},
			{
				"x": -0.5190633516,
				"y": 0.5005410046,
				"z": 3.0959232022,
				"element": "H" 
			},
			{
				"x": -0.0135291343,
				"y": 2.9350027068,
				"z": 3.0854700445,
				"element": "H" 
			},
			{
				"x": 0.8930326798,
				"y": 3.9982326071,
				"z": 1.0280007544,
				"element": "H" 
			},
			{
				"x": 1.2684273478,
				"y": 2.6358782015,
				"z": -1.0118435281,
				"element": "H" 
			}
		],
		 "valence_orbital": [ 
			{
				"type": "occ",
				"energy": -0.27741,
				"method": "rhf"
			},
			{
				"type": "occ",
				"energy": -0.27309,
				"method": "rhf"
			},
			{
				"type": "occ",
				"energy": -0.26777,
				"method": "rhf"
			},
			{
				"type": "occ",
				"energy": -0.26488,
				"method": "rhf"
			},
			{
				"type": "occ",
				"energy": -0.24858,
				"method": "rhf"
			},
			{
				"type": "unocc",
				"energy": -0.07639,
				"method": "rhf"
			},
			{
				"type": "unocc",
				"energy": -0.03883,
				"method": "rhf"
			},
			{
				"type": "unocc",
				"energy": -0.02189,
				"method": "rhf"
			},
			{
				"type": "unocc",
				"energy": -0.01518,
				"method": "rhf"
			},
			{
				"type": "unocc",
				"energy": -0.00315,
				"method": "rhf"
			}
		],
		"cosmo_sigma_profile": { 
			"-0.025": 0.0,
			"-0.024": 0.0,
			"-0.023": 0.0,
			"-0.022": 0.0,
			"-0.021": 0.0,
			"-0.02": 0.0,
			"-0.019": 0.0,
			"-0.018": 0.0,
			"-0.017": 0.0,
			"-0.016": 0.0,
			"-0.015": 0.211706287768,
			"-0.014": 1.44530582451,
			"-0.013": 0.599558659315,
			"-0.012": 2.37307615421,
			"-0.011": 2.86747309203,
			"-0.01": 2.58748654269,
			"-0.009": 2.7247554844,
			"-0.008": 3.96522437998,
			"-0.007": 5.90901176428,
			"-0.006": 12.3646900289,
			"-0.005": 15.2804657429,
			"-0.004": 19.0513998035,
			"-0.003": 15.8882747565,
			"-0.002": 19.1108993566,
			"-0.001": 18.3842459194,
			"0.0": 18.8102557355,
			"0.001": 13.2786228724,
			"0.002": 12.2171953877,
			"0.003": 12.9955495683,
			"0.004": 12.3926313292,
			"0.005": 6.25674367543,
			"0.006": 3.76470801038,
			"0.007": 4.59722446448,
			"0.008": 4.30470130832,
			"0.009": 5.94672160506,
			"0.01": 4.20877150886,
			"0.011": 4.64465842546,
			"0.012": 6.55402450565,
			"0.013": 3.92586201604,
			"0.014": 0.620117668906,
			"0.015": 0.554412773291,
			"0.016": 0.090047005965,
			"0.017": 0.0,
			"0.018": 0.0,
			"0.019": 0.0,
			"0.02": 0.0,
			"0.021": 0.0,
			"0.022": 0.0,
			"0.023": 0.0,
			"0.024": 0.0,
			"0.025": 0.0
		}
	}
}
