{
	 "smiles": "CCOC(=O)C1(CC1)S(=O)(=O)C1=CC=C(C)C=C1", 
	 "Tm": 348.65, 
	 "num_atms": 34, 
	 "gaussian": { 
		 "optdone": 1, 
		 "sigma_profile": "yes", 
		 "theory": "DFT", 
		 "functional": "B3LYP", 
		 "basiset": "6-31G**", 
		 "properties": { 
			 "R2extent": 5427.2736, 
			 "electric_dipole_moment_norm": 5.22176751972, 
			 "electric_quadrupole_moment_norm": 10.3367163069, 
			 "total_energy": -1204.03544486, 
			 "HOMO_LUMO_gap": 0.22371, 
			 "cosmo_polarized_energy": -15.92, 
			 "cosmo_cavitation_energy": 39.03, 
			 "cosmo_dispersion_energy": -26.18, 
			 "cosmo_repulsion_energy": 1.98, 
			 "cosmo_total_nonelectrostatic_energy": 14.82, 
			 "SMD_solvation_energy": 6.72 
		},
		"coords": [
			{
				"x": 0.1004987206,
				"y": 4.0554419772,
				"z": 1.1008805125,
				"element": "C" 
			},
			{
				"x": -1.0478893793,
				"y": 3.4094064819,
				"z": 1.850318675,
				"element": "C" 
			},
			{
				"x": -0.8898421375,
				"y": 1.9711432462,
				"z": 1.7394892393,
				"element": "O" 
			},
			{
				"x": -1.8003683644,
				"y": 1.2350876757,
				"z": 2.3898854589,
				"element": "C" 
			},
			{
				"x": -2.7299133885,
				"y": 1.7015969666,
				"z": 3.0185748612,
				"element": "O" 
			},
			{
				"x": -1.5829418378,
				"y": -0.2448531812,
				"z": 2.2596299588,
				"element": "C" 
			},
			{
				"x": -2.0573663282,
				"y": -1.0788154082,
				"z": 3.4486713897,
				"element": "C" 
			},
			{
				"x": -2.8501128133,
				"y": -1.0930571316,
				"z": 2.1910989741,
				"element": "C" 
			},
			{
				"x": -0.0974595423,
				"y": -0.9057034764,
				"z": 1.4403765521,
				"element": "S" 
			},
			{
				"x": 1.0890779688,
				"y": -0.2717262388,
				"z": 2.0307977539,
				"element": "O" 
			},
			{
				"x": -0.2645472231,
				"y": -2.3711511425,
				"z": 1.4841531071,
				"element": "O" 
			},
			{
				"x": -0.2036190315,
				"y": -0.4142796504,
				"z": -0.2847004451,
				"element": "C" 
			},
			{
				"x": -1.0224013501,
				"y": -1.1348536099,
				"z": -1.1572321561,
				"element": "C" 
			},
			{
				"x": -1.0728358638,
				"y": -0.7670647621,
				"z": -2.4999446678,
				"element": "C" 
			},
			{
				"x": -0.3025189687,
				"y": 0.2981756019,
				"z": -2.9893368166,
				"element": "C" 
			},
			{
				"x": -0.3338754511,
				"y": 0.6632426516,
				"z": -4.4538639324,
				"element": "C" 
			},
			{
				"x": 0.5243907071,
				"y": 0.9915757936,
				"z": -2.0937035432,
				"element": "C" 
			},
			{
				"x": 0.579895147,
				"y": 0.6437634683,
				"z": -0.7453601288,
				"element": "C" 
			},
			{
				"x": 1.061844038,
				"y": 3.7558626631,
				"z": 1.5274803986,
				"element": "H" 
			},
			{
				"x": 0.0852929324,
				"y": 3.7753804735,
				"z": 0.0438850903,
				"element": "H" 
			},
			{
				"x": 0.0170429963,
				"y": 5.1445201432,
				"z": 1.1695554779,
				"element": "H" 
			},
			{
				"x": -1.0516269471,
				"y": 3.6761975788,
				"z": 2.9109493392,
				"element": "H" 
			},
			{
				"x": -2.0219318311,
				"y": 3.6851693166,
				"z": 1.4349677282,
				"element": "H" 
			},
			{
				"x": -2.4235130809,
				"y": -0.498316662,
				"z": 4.2878299179,
				"element": "H" 
			},
			{
				"x": -1.4679066424,
				"y": -1.9587723616,
				"z": 3.679972096,
				"element": "H" 
			},
			{
				"x": -3.7755958878,
				"y": -0.528848511,
				"z": 2.1535311694,
				"element": "H" 
			},
			{
				"x": -2.7983581514,
				"y": -1.9883768927,
				"z": 1.5821627019,
				"element": "H" 
			},
			{
				"x": -1.5926265358,
				"y": -1.9827130677,
				"z": -0.7944011777,
				"element": "H" 
			},
			{
				"x": -1.7113449633,
				"y": -1.3229387597,
				"z": -3.1815063348,
				"element": "H" 
			},
			{
				"x": 0.4061647073,
				"y": 0.0813563855,
				"z": -5.0172030884,
				"element": "H" 
			},
			{
				"x": -0.1022665903,
				"y": 1.7209505361,
				"z": -4.6084588471,
				"element": "H" 
			},
			{
				"x": -1.312975261,
				"y": 0.4591334969,
				"z": -4.8969650925,
				"element": "H" 
			},
			{
				"x": 1.1371413024,
				"y": 1.811918954,
				"z": -2.4585911267,
				"element": "H" 
			},
			{
				"x": 1.2241890506,
				"y": 1.1706474449,
				"z": -0.0517430447,
				"element": "H" 
			}
		],
		 "valence_orbital": [ 
			{
				"type": "occ",
				"energy": -0.29923,
				"method": "rhf"
			},
			{
				"type": "occ",
				"energy": -0.28683,
				"method": "rhf"
			},
			{
				"type": "occ",
				"energy": -0.27474,
				"method": "rhf"
			},
			{
				"type": "occ",
				"energy": -0.26775,
				"method": "rhf"
			},
			{
				"type": "occ",
				"energy": -0.26103,
				"method": "rhf"
			},
			{
				"type": "unocc",
				"energy": -0.03732,
				"method": "rhf"
			},
			{
				"type": "unocc",
				"energy": -0.01886,
				"method": "rhf"
			},
			{
				"type": "unocc",
				"energy": -0.00123,
				"method": "rhf"
			},
			{
				"type": "unocc",
				"energy": 0.05056,
				"method": "rhf"
			},
			{
				"type": "unocc",
				"energy": 0.0781,
				"method": "rhf"
			}
		],
		"cosmo_sigma_profile": { 
			"-0.025": 0.0,
			"-0.024": 0.0,
			"-0.023": 0.0,
			"-0.022": 0.0,
			"-0.021": 0.0,
			"-0.02": 0.0,
			"-0.019": 0.0,
			"-0.018": 0.0,
			"-0.017": 0.0,
			"-0.016": 0.0,
			"-0.015": 0.0,
			"-0.014": 0.0,
			"-0.013": 0.0,
			"-0.012": 0.0,
			"-0.011": 0.0,
			"-0.01": 0.0,
			"-0.009": 0.0,
			"-0.008": 0.0391979841395,
			"-0.007": 4.49842739838,
			"-0.006": 15.4739752765,
			"-0.005": 26.5035647004,
			"-0.004": 31.3167330559,
			"-0.003": 31.483903644,
			"-0.002": 32.9987006758,
			"-0.001": 35.277596237,
			"0.0": 25.8728573986,
			"0.001": 16.3726080876,
			"0.002": 14.286190683,
			"0.003": 17.6860733281,
			"0.004": 7.75633229601,
			"0.005": 3.92128905678,
			"0.006": 3.77601369003,
			"0.007": 4.54557547031,
			"0.008": 4.27324876454,
			"0.009": 5.43513821935,
			"0.01": 8.18819243122,
			"0.011": 12.2648136488,
			"0.012": 6.32446418293,
			"0.013": 0.0485183845344,
			"0.014": 0.0,
			"0.015": 0.0,
			"0.016": 0.0,
			"0.017": 0.0,
			"0.018": 0.0,
			"0.019": 0.0,
			"0.02": 0.0,
			"0.021": 0.0,
			"0.022": 0.0,
			"0.023": 0.0,
			"0.024": 0.0,
			"0.025": 0.0
		}
	}
}
