{
	 "smiles": "OC1=C(Br)C2=C(C=C1Br)C1(OC(=O)C3=C1C=CC=C3)C1=CC(Br)=C(O)C(Br)=C1O2", 
	 "Tm": 568.15, 
	 "num_atms": 37, 
	 "gaussian": { 
		 "optdone": 1, 
		 "sigma_profile": "yes", 
		 "theory": "DFT", 
		 "functional": "B3LYP", 
		 "basiset": "6-31G**", 
		 "properties": { 
			 "R2extent": 22004.5886, 
			 "electric_dipole_moment_norm": 5.05749973604, 
			 "electric_quadrupole_moment_norm": 16.6391896488, 
			 "total_energy": -11428.6808791, 
			 "HOMO_LUMO_gap": 0.17296, 
			 "cosmo_polarized_energy": -19.56, 
			 "cosmo_cavitation_energy": 51.18, 
			 "cosmo_dispersion_energy": -36.42, 
			 "cosmo_repulsion_energy": 2.76, 
			 "cosmo_total_nonelectrostatic_energy": 17.51, 
			 "SMD_solvation_energy": 6.0 
		},
		"coords": [
			{
				"x": 0.43848768,
				"y": 4.5107882385,
				"z": -3.7608827732,
				"element": "O" 
			},
			{
				"x": 0.4280103141,
				"y": 3.4637556266,
				"z": -2.9169569702,
				"element": "C" 
			},
			{
				"x": -0.760568216,
				"y": 3.1422978012,
				"z": -2.2510854637,
				"element": "C" 
			},
			{
				"x": -2.306579303,
				"y": 4.1893268023,
				"z": -2.5599275553,
				"element": "Br" 
			},
			{
				"x": -0.8040236794,
				"y": 2.0553299797,
				"z": -1.3642893443,
				"element": "C" 
			},
			{
				"x": 0.324988447,
				"y": 1.2641769078,
				"z": -1.1290965389,
				"element": "C" 
			},
			{
				"x": 1.5105125178,
				"y": 1.5894310442,
				"z": -1.7981610415,
				"element": "C" 
			},
			{
				"x": 1.5591081396,
				"y": 2.661516123,
				"z": -2.6690244509,
				"element": "C" 
			},
			{
				"x": 3.1872420448,
				"y": 3.0933950188,
				"z": -3.5774996518,
				"element": "Br" 
			},
			{
				"x": 0.2986689479,
				"y": 0.1256351155,
				"z": -0.1281947583,
				"element": "C" 
			},
			{
				"x": 1.1434247183,
				"y": 0.5095791911,
				"z": 1.019794501,
				"element": "O" 
			},
			{
				"x": 2.1884740117,
				"y": -0.3655152948,
				"z": 1.2044794482,
				"element": "C" 
			},
			{
				"x": 3.0005745093,
				"y": -0.2349710637,
				"z": 2.0850228097,
				"element": "O" 
			},
			{
				"x": 2.0870786598,
				"y": -1.4085647565,
				"z": 0.157185426,
				"element": "C" 
			},
			{
				"x": 0.9813725782,
				"y": -1.1371537069,
				"z": -0.6383622954,
				"element": "C" 
			},
			{
				"x": 0.6519774913,
				"y": -1.9677145624,
				"z": -1.7061559143,
				"element": "C" 
			},
			{
				"x": 1.4693592932,
				"y": -3.0759473151,
				"z": -1.9455635365,
				"element": "C" 
			},
			{
				"x": 2.5865371349,
				"y": -3.3471696194,
				"z": -1.1391419211,
				"element": "C" 
			},
			{
				"x": 2.9100131336,
				"y": -2.5108171275,
				"z": -0.0715192731,
				"element": "C" 
			},
			{
				"x": -1.1058606977,
				"y": -0.1210571896,
				"z": 0.3820074295,
				"element": "C" 
			},
			{
				"x": -1.3767830931,
				"y": -1.1962717398,
				"z": 1.2394670364,
				"element": "C" 
			},
			{
				"x": -2.6406716494,
				"y": -1.4082437128,
				"z": 1.760438952,
				"element": "C" 
			},
			{
				"x": -2.9592262985,
				"y": -2.8823976631,
				"z": 2.9159450061,
				"element": "Br" 
			},
			{
				"x": -3.7026115252,
				"y": -0.538991906,
				"z": 1.4417603809,
				"element": "C" 
			},
			{
				"x": -4.919328072,
				"y": -0.7750935691,
				"z": 1.9617061442,
				"element": "O" 
			},
			{
				"x": -3.4345983866,
				"y": 0.5354337636,
				"z": 0.5850719921,
				"element": "C" 
			},
			{
				"x": -4.8610474193,
				"y": 1.7158366433,
				"z": 0.1386481627,
				"element": "Br" 
			},
			{
				"x": -2.1512650486,
				"y": 0.7464041461,
				"z": 0.0620798466,
				"element": "C" 
			},
			{
				"x": -2.006598675,
				"y": 1.8203238519,
				"z": -0.7648086453,
				"element": "O" 
			},
			{
				"x": 1.3326217179,
				"y": 4.6005812401,
				"z": -4.1312089624,
				"element": "H" 
			},
			{
				"x": 2.4025023675,
				"y": 0.9981399655,
				"z": -1.629387022,
				"element": "H" 
			},
			{
				"x": -0.210513249,
				"y": -1.7665442603,
				"z": -2.3343390373,
				"element": "H" 
			},
			{
				"x": 1.2356945293,
				"y": -3.741530417,
				"z": -2.7713533617,
				"element": "H" 
			},
			{
				"x": 3.2003165732,
				"y": -4.2170134341,
				"z": -1.3519858707,
				"element": "H" 
			},
			{
				"x": 3.7670291615,
				"y": -2.6978525636,
				"z": 0.5676195339,
				"element": "H" 
			},
			{
				"x": -0.5792673444,
				"y": -1.8793110209,
				"z": 1.5067588685,
				"element": "H" 
			},
			{
				"x": -5.5290513134,
				"y": -0.0852905367,
				"z": 1.6483588503,
				"element": "H" 
			}
		],
		 "valence_orbital": [ 
			{
				"type": "occ",
				"energy": -0.27914,
				"method": "rhf"
			},
			{
				"type": "occ",
				"energy": -0.26291,
				"method": "rhf"
			},
			{
				"type": "occ",
				"energy": -0.24971,
				"method": "rhf"
			},
			{
				"type": "occ",
				"energy": -0.2437,
				"method": "rhf"
			},
			{
				"type": "occ",
				"energy": -0.23418,
				"method": "rhf"
			},
			{
				"type": "unocc",
				"energy": -0.06122,
				"method": "rhf"
			},
			{
				"type": "unocc",
				"energy": -0.04759,
				"method": "rhf"
			},
			{
				"type": "unocc",
				"energy": -0.04237,
				"method": "rhf"
			},
			{
				"type": "unocc",
				"energy": -0.03617,
				"method": "rhf"
			},
			{
				"type": "unocc",
				"energy": -0.03216,
				"method": "rhf"
			}
		],
		"cosmo_sigma_profile": { 
			"-0.025": 0.0,
			"-0.024": 0.0,
			"-0.023": 0.0,
			"-0.022": 0.0,
			"-0.021": 0.0,
			"-0.02": 0.0,
			"-0.019": 0.0,
			"-0.018": 0.0,
			"-0.017": 0.0,
			"-0.016": 0.124449589175,
			"-0.015": 1.18088160662,
			"-0.014": 1.63858520066,
			"-0.013": 1.54800059512,
			"-0.012": 1.13610458587,
			"-0.011": 1.96386927917,
			"-0.01": 1.86345379965,
			"-0.009": 2.06293645533,
			"-0.008": 7.18061809792,
			"-0.007": 15.4187934998,
			"-0.006": 17.4969591103,
			"-0.005": 23.0579597452,
			"-0.004": 20.5300492918,
			"-0.003": 20.1946742807,
			"-0.002": 30.4872569997,
			"-0.001": 45.5464084361,
			"0.0": 43.8646717176,
			"0.001": 37.973793119,
			"0.002": 35.0217169704,
			"0.003": 34.6764281569,
			"0.004": 26.0653392316,
			"0.005": 12.6302810349,
			"0.006": 8.4820401017,
			"0.007": 6.43632344894,
			"0.008": 6.6440490494,
			"0.009": 8.98359649756,
			"0.01": 4.77616678815,
			"0.011": 5.71562159399,
			"0.012": 3.53980862826,
			"0.013": 0.510459408427,
			"0.014": 0.0,
			"0.015": 0.0,
			"0.016": 0.0,
			"0.017": 0.0,
			"0.018": 0.0,
			"0.019": 0.0,
			"0.02": 0.0,
			"0.021": 0.0,
			"0.022": 0.0,
			"0.023": 0.0,
			"0.024": 0.0,
			"0.025": 0.0
		}
	}
}
