{
	 "smiles": "OC(=O)C1CCCN1C1CCNCC1", 
	 "Tm": 471.15, 
	 "num_atms": 32, 
	 "gaussian": { 
		 "optdone": 1, 
		 "sigma_profile": "yes", 
		 "theory": "DFT", 
		 "functional": "B3LYP", 
		 "basiset": "6-31G**", 
		 "properties": { 
			 "R2extent": 4119.5579, 
			 "electric_dipole_moment_norm": 2.56073919016, 
			 "electric_quadrupole_moment_norm": 11.3562212338, 
			 "total_energy": -651.859606877, 
			 "HOMO_LUMO_gap": 0.2117, 
			 "cosmo_polarized_energy": -11.54, 
			 "cosmo_cavitation_energy": 31.03, 
			 "cosmo_dispersion_energy": -22.63, 
			 "cosmo_repulsion_energy": 1.79, 
			 "cosmo_total_nonelectrostatic_energy": 10.19, 
			 "SMD_solvation_energy": 2.28 
		},
		"coords": [
			{
				"x": -2.2998690727,
				"y": 4.1763801985,
				"z": -1.1724152201,
				"element": "O" 
			},
			{
				"x": -2.6431198679,
				"y": 3.3598845307,
				"z": -0.1470098783,
				"element": "C" 
			},
			{
				"x": -3.7922048064,
				"y": 3.0268308304,
				"z": 0.0567874041,
				"element": "O" 
			},
			{
				"x": -1.4458615383,
				"y": 2.8633951612,
				"z": 0.6610078685,
				"element": "C" 
			},
			{
				"x": -0.2432364269,
				"y": 3.8303121652,
				"z": 0.7262076121,
				"element": "C" 
			},
			{
				"x": 0.745759061,
				"y": 3.2615479933,
				"z": -0.3038931865,
				"element": "C" 
			},
			{
				"x": 0.5161774708,
				"y": 1.7548677394,
				"z": -0.1677461372,
				"element": "C" 
			},
			{
				"x": -0.9378660134,
				"y": 1.6551083702,
				"z": -0.020001713,
				"element": "N" 
			},
			{
				"x": -1.617213623,
				"y": 0.3972553684,
				"z": 0.3252717315,
				"element": "C" 
			},
			{
				"x": -1.2950432177,
				"y": -0.2039598741,
				"z": 1.7242350824,
				"element": "C" 
			},
			{
				"x": -0.0794514832,
				"y": -1.1410170958,
				"z": 1.7539569229,
				"element": "C" 
			},
			{
				"x": -0.2282261525,
				"y": -2.1702461153,
				"z": 0.7243464957,
				"element": "N" 
			},
			{
				"x": -0.238004096,
				"y": -1.5867302483,
				"z": -0.6181157064,
				"element": "C" 
			},
			{
				"x": -1.4689448558,
				"y": -0.6834042168,
				"z": -0.7717060481,
				"element": "C" 
			},
			{
				"x": -3.1257430772,
				"y": 4.3680259721,
				"z": -1.6478515935,
				"element": "H" 
			},
			{
				"x": -1.8376531146,
				"y": 2.6467201393,
				"z": 1.6647607608,
				"element": "H" 
			},
			{
				"x": 0.1926711988,
				"y": 3.7843039475,
				"z": 1.7300738539,
				"element": "H" 
			},
			{
				"x": -0.5240878845,
				"y": 4.8671575041,
				"z": 0.5308536967,
				"element": "H" 
			},
			{
				"x": 1.7820031634,
				"y": 3.5516925912,
				"z": -0.1082278801,
				"element": "H" 
			},
			{
				"x": 0.4741601501,
				"y": 3.5929964424,
				"z": -1.3104186092,
				"element": "H" 
			},
			{
				"x": 1.0739569458,
				"y": 1.3713570617,
				"z": 0.7048513482,
				"element": "H" 
			},
			{
				"x": 0.8557649386,
				"y": 1.1956603256,
				"z": -1.0456830974,
				"element": "H" 
			},
			{
				"x": -2.6765155224,
				"y": 0.6739300927,
				"z": 0.3419516414,
				"element": "H" 
			},
			{
				"x": -1.1662859876,
				"y": 0.5987125097,
				"z": 2.4606482441,
				"element": "H" 
			},
			{
				"x": -2.1676012022,
				"y": -0.7875333035,
				"z": 2.0418875799,
				"element": "H" 
			},
			{
				"x": -0.0245939376,
				"y": -1.6331238237,
				"z": 2.7321875796,
				"element": "H" 
			},
			{
				"x": 0.8534217729,
				"y": -0.5582860373,
				"z": 1.6373151465,
				"element": "H" 
			},
			{
				"x": 0.5269079263,
				"y": -2.8457879732,
				"z": 0.8017236898,
				"element": "H" 
			},
			{
				"x": -0.2927638963,
				"y": -2.3992933923,
				"z": -1.3517200257,
				"element": "H" 
			},
			{
				"x": 0.6858933674,
				"y": -1.0199699387,
				"z": -0.8386709579,
				"element": "H" 
			},
			{
				"x": -1.4725338778,
				"y": -0.1988914074,
				"z": -1.7538732249,
				"element": "H" 
			},
			{
				"x": -2.3517963409,
				"y": -1.3309955176,
				"z": -0.71973338,
				"element": "H" 
			}
		],
		 "valence_orbital": [ 
			{
				"type": "occ",
				"energy": -0.31179,
				"method": "rhf"
			},
			{
				"type": "occ",
				"energy": -0.3046,
				"method": "rhf"
			},
			{
				"type": "occ",
				"energy": -0.26957,
				"method": "rhf"
			},
			{
				"type": "occ",
				"energy": -0.21645,
				"method": "rhf"
			},
			{
				"type": "occ",
				"energy": -0.19969,
				"method": "rhf"
			},
			{
				"type": "unocc",
				"energy": 0.01201,
				"method": "rhf"
			},
			{
				"type": "unocc",
				"energy": 0.06831,
				"method": "rhf"
			},
			{
				"type": "unocc",
				"energy": 0.08449,
				"method": "rhf"
			},
			{
				"type": "unocc",
				"energy": 0.09829,
				"method": "rhf"
			},
			{
				"type": "unocc",
				"energy": 0.10388,
				"method": "rhf"
			}
		],
		"cosmo_sigma_profile": { 
			"-0.025": 0.0,
			"-0.024": 0.0,
			"-0.023": 0.0,
			"-0.022": 0.0,
			"-0.021": 0.0,
			"-0.02": 0.0,
			"-0.019": 0.0,
			"-0.018": 0.406385943136,
			"-0.017": 1.02199698316,
			"-0.016": 0.913227258633,
			"-0.015": 0.936597199172,
			"-0.014": 0.564181762941,
			"-0.013": 0.831354488357,
			"-0.012": 0.644060211433,
			"-0.011": 0.403487988193,
			"-0.01": 1.26823842808,
			"-0.009": 1.98416529836,
			"-0.008": 1.53748968266,
			"-0.007": 2.71732878166,
			"-0.006": 1.77312157151,
			"-0.005": 2.52833010189,
			"-0.004": 11.7808875802,
			"-0.003": 26.9662371212,
			"-0.002": 38.3452809834,
			"-0.001": 41.3350772411,
			"0.0": 33.2976567257,
			"0.001": 14.7411352719,
			"0.002": 6.6581564246,
			"0.003": 4.94193865829,
			"0.004": 4.50507949228,
			"0.005": 5.8818412743,
			"0.006": 4.66988746038,
			"0.007": 5.44007693712,
			"0.008": 3.50397510175,
			"0.009": 3.37454155317,
			"0.01": 2.57385125684,
			"0.011": 3.85912949058,
			"0.012": 5.48608253833,
			"0.013": 1.76773738717,
			"0.014": 0.573953757118,
			"0.015": 0.702491027396,
			"0.016": 0.525662208159,
			"0.017": 0.327583224955,
			"0.018": 0.397152713772,
			"0.019": 0.203098647067,
			"0.02": 0.0,
			"0.021": 0.0,
			"0.022": 0.0,
			"0.023": 0.0,
			"0.024": 0.0,
			"0.025": 0.0
		}
	}
}
