{
	 "smiles": "NS(=O)(=O)C1=CC=C(Cl)S1", 
	 "Tm": 390.15, 
	 "num_atms": 14, 
	 "gaussian": { 
		 "optdone": 1, 
		 "sigma_profile": "yes", 
		 "theory": "DFT", 
		 "functional": "B3LYP", 
		 "basiset": "6-31G**", 
		 "properties": { 
			 "R2extent": 4306.4788, 
			 "electric_dipole_moment_norm": 3.20920036146, 
			 "electric_quadrupole_moment_norm": 11.4426067118, 
			 "total_energy": -1616.5037352, 
			 "HOMO_LUMO_gap": 0.19557, 
			 "cosmo_polarized_energy": -13.63, 
			 "cosmo_cavitation_energy": 23.59, 
			 "cosmo_dispersion_energy": -18.69, 
			 "cosmo_repulsion_energy": 1.44, 
			 "cosmo_total_nonelectrostatic_energy": 6.34, 
			 "SMD_solvation_energy": 3.2 
		},
		"coords": [
			{
				"x": 0.4241423509,
				"y": -0.0622505857,
				"z": 1.2194547875,
				"element": "N" 
			},
			{
				"x": -0.2981395512,
				"y": -0.3562242657,
				"z": -0.2797971805,
				"element": "S" 
			},
			{
				"x": -1.2353479686,
				"y": -1.4548893904,
				"z": -0.0477029076,
				"element": "O" 
			},
			{
				"x": -0.7094031736,
				"y": 0.9100394981,
				"z": -0.8902997585,
				"element": "O" 
			},
			{
				"x": 1.0536233309,
				"y": -0.9500084281,
				"z": -1.2555060735,
				"element": "C" 
			},
			{
				"x": 1.6091323178,
				"y": -0.2771374344,
				"z": -2.3122594535,
				"element": "C" 
			},
			{
				"x": 2.6587502022,
				"y": -1.0074081014,
				"z": -2.9371419744,
				"element": "C" 
			},
			{
				"x": 2.8635153916,
				"y": -2.2194428657,
				"z": -2.3322896093,
				"element": "C" 
			},
			{
				"x": 4.0330162702,
				"y": -3.4101828098,
				"z": -2.7798551201,
				"element": "Cl" 
			},
			{
				"x": 1.7857908816,
				"y": -2.5103473496,
				"z": -0.9963340521,
				"element": "S" 
			},
			{
				"x": 0.6553955456,
				"y": 0.9227612136,
				"z": 1.3213853478,
				"element": "H" 
			},
			{
				"x": -0.2096493134,
				"y": -0.3746552906,
				"z": 1.9510703937,
				"element": "H" 
			},
			{
				"x": 1.2640312099,
				"y": 0.7008438655,
				"z": -2.6240981639,
				"element": "H" 
			},
			{
				"x": 3.2306425062,
				"y": -0.6605980558,
				"z": -3.7883262357,
				"element": "H" 
			}
		],
		 "valence_orbital": [ 
			{
				"type": "occ",
				"energy": -0.32676,
				"method": "rhf"
			},
			{
				"type": "occ",
				"energy": -0.31518,
				"method": "rhf"
			},
			{
				"type": "occ",
				"energy": -0.30359,
				"method": "rhf"
			},
			{
				"type": "occ",
				"energy": -0.28178,
				"method": "rhf"
			},
			{
				"type": "occ",
				"energy": -0.25408,
				"method": "rhf"
			},
			{
				"type": "unocc",
				"energy": -0.05851,
				"method": "rhf"
			},
			{
				"type": "unocc",
				"energy": -0.00692,
				"method": "rhf"
			},
			{
				"type": "unocc",
				"energy": 0.00455,
				"method": "rhf"
			},
			{
				"type": "unocc",
				"energy": 0.02792,
				"method": "rhf"
			},
			{
				"type": "unocc",
				"energy": 0.05374,
				"method": "rhf"
			}
		],
		"cosmo_sigma_profile": { 
			"-0.025": 0.0,
			"-0.024": 0.0,
			"-0.023": 0.0,
			"-0.022": 0.0,
			"-0.021": 0.0,
			"-0.02": 0.0,
			"-0.019": 0.0,
			"-0.018": 0.0,
			"-0.017": 0.0,
			"-0.016": 0.295228180761,
			"-0.015": 1.68848750229,
			"-0.014": 2.89861408222,
			"-0.013": 2.47033305516,
			"-0.012": 2.50065818567,
			"-0.011": 2.46760576311,
			"-0.01": 2.03598420159,
			"-0.009": 3.43725132273,
			"-0.008": 5.53918771226,
			"-0.007": 4.96664874246,
			"-0.006": 4.46639222702,
			"-0.005": 5.03085318622,
			"-0.004": 6.30410753034,
			"-0.003": 10.5293648127,
			"-0.002": 11.9393720216,
			"-0.001": 15.8717571589,
			"0.0": 19.8817091305,
			"0.001": 21.1253459038,
			"0.002": 17.6738589949,
			"0.003": 11.5581523763,
			"0.004": 3.86626374209,
			"0.005": 3.07458320834,
			"0.006": 2.98804478405,
			"0.007": 3.70871441822,
			"0.008": 4.29392510778,
			"0.009": 5.11873928373,
			"0.01": 9.64978189243,
			"0.011": 8.02301153324,
			"0.012": 0.410743254619,
			"0.013": 0.0,
			"0.014": 0.0,
			"0.015": 0.0,
			"0.016": 0.0,
			"0.017": 0.0,
			"0.018": 0.0,
			"0.019": 0.0,
			"0.02": 0.0,
			"0.021": 0.0,
			"0.022": 0.0,
			"0.023": 0.0,
			"0.024": 0.0,
			"0.025": 0.0
		}
	}
}
