{
	 "smiles": "CC(C)C(Br)C(=O)NC1CCCCC1", 
	 "Tm": 390.15, 
	 "num_atms": 34, 
	 "gaussian": { 
		 "optdone": 1, 
		 "sigma_profile": "yes", 
		 "theory": "DFT", 
		 "functional": "B3LYP", 
		 "basiset": "6-31G**", 
		 "properties": { 
			 "R2extent": 5220.1785, 
			 "electric_dipole_moment_norm": 1.4269207231, 
			 "electric_quadrupole_moment_norm": 6.04704407789, 
			 "total_energy": -3132.64714658, 
			 "HOMO_LUMO_gap": 0.24101, 
			 "cosmo_polarized_energy": -7.76, 
			 "cosmo_cavitation_energy": 35.05, 
			 "cosmo_dispersion_energy": -25.26, 
			 "cosmo_repulsion_energy": 2.01, 
			 "cosmo_total_nonelectrostatic_energy": 11.8, 
			 "SMD_solvation_energy": 4.05 
		},
		"coords": [
			{
				"x": -0.295033464,
				"y": -1.8587786479,
				"z": 2.4559823133,
				"element": "C" 
			},
			{
				"x": 0.7116472971,
				"y": -0.7149520926,
				"z": 2.6335949737,
				"element": "C" 
			},
			{
				"x": 1.1951295273,
				"y": -0.5982446775,
				"z": 4.0836332989,
				"element": "C" 
			},
			{
				"x": 0.2090717678,
				"y": 0.6298735514,
				"z": 2.0754620389,
				"element": "C" 
			},
			{
				"x": -1.4188653122,
				"y": 1.2841042581,
				"z": 3.0658547344,
				"element": "Br" 
			},
			{
				"x": 0.042158767,
				"y": 0.5810968632,
				"z": 0.5448106692,
				"element": "C" 
			},
			{
				"x": 1.0667781892,
				"y": 0.3562076009,
				"z": -0.0996141999,
				"element": "O" 
			},
			{
				"x": -1.1819524394,
				"y": 0.7651464108,
				"z": 0.0113646599,
				"element": "N" 
			},
			{
				"x": -1.4860906047,
				"y": 0.721328226,
				"z": -1.4294359575,
				"element": "C" 
			},
			{
				"x": -0.7329322618,
				"y": 1.8082811914,
				"z": -2.2585115738,
				"element": "C" 
			},
			{
				"x": 0.3467389994,
				"y": 1.215965328,
				"z": -3.1741483466,
				"element": "C" 
			},
			{
				"x": -0.2433613542,
				"y": 0.1967080978,
				"z": -4.1727866388,
				"element": "C" 
			},
			{
				"x": -1.3840791793,
				"y": -0.6468691268,
				"z": -3.5459892841,
				"element": "C" 
			},
			{
				"x": -1.2813481241,
				"y": -0.6921158042,
				"z": -2.0149732454,
				"element": "C" 
			},
			{
				"x": -1.1916411327,
				"y": -1.691343807,
				"z": 3.0609360984,
				"element": "H" 
			},
			{
				"x": 0.1531943244,
				"y": -2.8057901337,
				"z": 2.7720149983,
				"element": "H" 
			},
			{
				"x": -0.6036436489,
				"y": -1.9686242981,
				"z": 1.4117376462,
				"element": "H" 
			},
			{
				"x": 1.581479147,
				"y": -0.9237643661,
				"z": 1.9965279193,
				"element": "H" 
			},
			{
				"x": 1.9418560935,
				"y": 0.1955117346,
				"z": 4.1947800306,
				"element": "H" 
			},
			{
				"x": 1.6551132608,
				"y": -1.5381713466,
				"z": 4.4047643157,
				"element": "H" 
			},
			{
				"x": 0.3652956971,
				"y": -0.379542546,
				"z": 4.7627198771,
				"element": "H" 
			},
			{
				"x": 0.9406933455,
				"y": 1.4116225102,
				"z": 2.282522245,
				"element": "H" 
			},
			{
				"x": -1.9353650354,
				"y": 0.961863593,
				"z": 0.6552797692,
				"element": "H" 
			},
			{
				"x": -2.5569493091,
				"y": 0.947518581,
				"z": -1.478857836,
				"element": "H" 
			},
			{
				"x": -0.2957864628,
				"y": 2.5443372493,
				"z": -1.5775444018,
				"element": "H" 
			},
			{
				"x": -1.4686050383,
				"y": 2.3484846684,
				"z": -2.8683100682,
				"element": "H" 
			},
			{
				"x": 0.8553365278,
				"y": 2.021250973,
				"z": -3.7166346853,
				"element": "H" 
			},
			{
				"x": 1.0994098956,
				"y": 0.7353427251,
				"z": -2.5433301653,
				"element": "H" 
			},
			{
				"x": -0.6238300524,
				"y": 0.7163805466,
				"z": -5.0605591396,
				"element": "H" 
			},
			{
				"x": 0.5588131644,
				"y": -0.4620556668,
				"z": -4.5250831874,
				"element": "H" 
			},
			{
				"x": -1.3774620883,
				"y": -1.6632518155,
				"z": -3.9540420214,
				"element": "H" 
			},
			{
				"x": -2.3588183699,
				"y": -0.2196845312,
				"z": -3.8192353855,
				"element": "H" 
			},
			{
				"x": -2.0298268216,
				"y": -1.3710428923,
				"z": -1.5904984418,
				"element": "H" 
			},
			{
				"x": -0.2973253047,
				"y": -1.0646923565,
				"z": -1.7145310097,
				"element": "H" 
			}
		],
		 "valence_orbital": [ 
			{
				"type": "occ",
				"energy": -0.29845,
				"method": "rhf"
			},
			{
				"type": "occ",
				"energy": -0.29401,
				"method": "rhf"
			},
			{
				"type": "occ",
				"energy": -0.28183,
				"method": "rhf"
			},
			{
				"type": "occ",
				"energy": -0.2529,
				"method": "rhf"
			},
			{
				"type": "occ",
				"energy": -0.25004,
				"method": "rhf"
			},
			{
				"type": "unocc",
				"energy": -0.00903,
				"method": "rhf"
			},
			{
				"type": "unocc",
				"energy": 0.01928,
				"method": "rhf"
			},
			{
				"type": "unocc",
				"energy": 0.07083,
				"method": "rhf"
			},
			{
				"type": "unocc",
				"energy": 0.08835,
				"method": "rhf"
			},
			{
				"type": "unocc",
				"energy": 0.09322,
				"method": "rhf"
			}
		],
		"cosmo_sigma_profile": { 
			"-0.025": 0.0,
			"-0.024": 0.0,
			"-0.023": 0.0,
			"-0.022": 0.0,
			"-0.021": 0.0,
			"-0.02": 0.0,
			"-0.019": 0.0,
			"-0.018": 0.0,
			"-0.017": 0.0,
			"-0.016": 0.0,
			"-0.015": 0.0,
			"-0.014": 0.0,
			"-0.013": 0.0425160838042,
			"-0.012": 0.460686460264,
			"-0.011": 0.728241979693,
			"-0.01": 1.07266480354,
			"-0.009": 0.515745175955,
			"-0.008": 1.92065098958,
			"-0.007": 3.98829452154,
			"-0.006": 3.43453025074,
			"-0.005": 4.94788069947,
			"-0.004": 8.02842367876,
			"-0.003": 22.3401370109,
			"-0.002": 36.8407131017,
			"-0.001": 42.5323335668,
			"0.0": 49.3017243115,
			"0.001": 41.0110805137,
			"0.002": 15.6974171803,
			"0.003": 7.45049129698,
			"0.004": 8.84589929666,
			"0.005": 6.78801726552,
			"0.006": 4.06550037238,
			"0.007": 2.14811994127,
			"0.008": 1.58837407459,
			"0.009": 1.57773050418,
			"0.01": 1.28555563459,
			"0.011": 1.60399858255,
			"0.012": 1.65594410014,
			"0.013": 2.20177136638,
			"0.014": 1.65790880815,
			"0.015": 0.133740936356,
			"0.016": 0.0,
			"0.017": 0.0,
			"0.018": 0.0,
			"0.019": 0.0,
			"0.02": 0.0,
			"0.021": 0.0,
			"0.022": 0.0,
			"0.023": 0.0,
			"0.024": 0.0,
			"0.025": 0.0
		}
	}
}
