{
	 "smiles": "FC1=CC=C(C=C1)C(=O)N1CCCCC(Cl)C1=O", 
	 "Tm": 417.15, 
	 "num_atms": 31, 
	 "gaussian": { 
		 "optdone": 1, 
		 "sigma_profile": "yes", 
		 "theory": "DFT", 
		 "functional": "B3LYP", 
		 "basiset": "6-31G**", 
		 "properties": { 
			 "R2extent": 6293.4552, 
			 "electric_dipole_moment_norm": 3.80193991799, 
			 "electric_quadrupole_moment_norm": 14.3825880446, 
			 "total_energy": -1268.46331402, 
			 "HOMO_LUMO_gap": 0.18811, 
			 "cosmo_polarized_energy": -15.11, 
			 "cosmo_cavitation_energy": 35.6, 
			 "cosmo_dispersion_energy": -25.27, 
			 "cosmo_repulsion_energy": 1.92, 
			 "cosmo_total_nonelectrostatic_energy": 12.25, 
			 "SMD_solvation_energy": 6.38 
		},
		"coords": [
			{
				"x": 3.5675418265,
				"y": -3.7166294122,
				"z": -3.6100119586,
				"element": "F" 
			},
			{
				"x": 2.6416501509,
				"y": -3.0088941488,
				"z": -2.9369757055,
				"element": "C" 
			},
			{
				"x": 2.8284340133,
				"y": -1.6384260592,
				"z": -2.7788481544,
				"element": "C" 
			},
			{
				"x": 1.8748880333,
				"y": -0.9121673776,
				"z": -2.0738639631,
				"element": "C" 
			},
			{
				"x": 0.7419359956,
				"y": -1.5481940665,
				"z": -1.5445027697,
				"element": "C" 
			},
			{
				"x": 0.5715154571,
				"y": -2.9266379331,
				"z": -1.7437854326,
				"element": "C" 
			},
			{
				"x": 1.5269328226,
				"y": -3.6692417069,
				"z": -2.4294900523,
				"element": "C" 
			},
			{
				"x": -0.3710553802,
				"y": -0.813653689,
				"z": -0.8847063652,
				"element": "C" 
			},
			{
				"x": -1.5198627232,
				"y": -1.222192823,
				"z": -0.9358379748,
				"element": "O" 
			},
			{
				"x": -0.1076481635,
				"y": 0.4573274298,
				"z": -0.272859744,
				"element": "N" 
			},
			{
				"x": -1.2712173697,
				"y": 1.3709084607,
				"z": -0.1948372506,
				"element": "C" 
			},
			{
				"x": -1.9186646996,
				"y": 1.469015909,
				"z": 1.1949247096,
				"element": "C" 
			},
			{
				"x": -1.2178162008,
				"y": 2.442256957,
				"z": 2.1523924066,
				"element": "C" 
			},
			{
				"x": 0.2531611693,
				"y": 2.1300654903,
				"z": 2.4711408927,
				"element": "C" 
			},
			{
				"x": 1.1358556683,
				"y": 2.0123262964,
				"z": 1.2135321597,
				"element": "C" 
			},
			{
				"x": 2.8732124185,
				"y": 2.3031305947,
				"z": 1.6330730814,
				"element": "Cl" 
			},
			{
				"x": 1.0040457835,
				"y": 0.6176875419,
				"z": 0.5675143195,
				"element": "C" 
			},
			{
				"x": 1.7823873698,
				"y": -0.2804881949,
				"z": 0.81013933,
				"element": "O" 
			},
			{
				"x": 3.7073748507,
				"y": -1.1650158409,
				"z": -3.2017693463,
				"element": "H" 
			},
			{
				"x": 2.0088972386,
				"y": 0.1559353832,
				"z": -1.9478823299,
				"element": "H" 
			},
			{
				"x": -0.32031458,
				"y": -3.4037121331,
				"z": -1.3530310954,
				"element": "H" 
			},
			{
				"x": 1.4207595395,
				"y": -4.7377218852,
				"z": -2.5806151936,
				"element": "H" 
			},
			{
				"x": -1.9964100559,
				"y": 0.9741150685,
				"z": -0.9026560994,
				"element": "H" 
			},
			{
				"x": -0.9680383593,
				"y": 2.3620127961,
				"z": -0.5529036279,
				"element": "H" 
			},
			{
				"x": -2.9532891063,
				"y": 1.8054584994,
				"z": 1.058496369,
				"element": "H" 
			},
			{
				"x": -1.9757900426,
				"y": 0.4617535881,
				"z": 1.6237915777,
				"element": "H" 
			},
			{
				"x": -1.7713892493,
				"y": 2.4816483354,
				"z": 3.0974936187,
				"element": "H" 
			},
			{
				"x": -1.2741181704,
				"y": 3.4531507132,
				"z": 1.7243601295,
				"element": "H" 
			},
			{
				"x": 0.3472046109,
				"y": 1.2046596854,
				"z": 3.0510390957,
				"element": "H" 
			},
			{
				"x": 0.6566032431,
				"y": 2.9350994841,
				"z": 3.0915141467,
				"element": "H" 
			},
			{
				"x": 0.8845139092,
				"y": 2.797523037,
				"z": 0.4973652265,
				"element": "H" 
			}
		],
		 "valence_orbital": [ 
			{
				"type": "occ",
				"energy": -0.29322,
				"method": "rhf"
			},
			{
				"type": "occ",
				"energy": -0.27392,
				"method": "rhf"
			},
			{
				"type": "occ",
				"energy": -0.27283,
				"method": "rhf"
			},
			{
				"type": "occ",
				"energy": -0.26276,
				"method": "rhf"
			},
			{
				"type": "occ",
				"energy": -0.24844,
				"method": "rhf"
			},
			{
				"type": "unocc",
				"energy": -0.06033,
				"method": "rhf"
			},
			{
				"type": "unocc",
				"energy": -0.01609,
				"method": "rhf"
			},
			{
				"type": "unocc",
				"energy": -0.01285,
				"method": "rhf"
			},
			{
				"type": "unocc",
				"energy": 0.02225,
				"method": "rhf"
			},
			{
				"type": "unocc",
				"energy": 0.04792,
				"method": "rhf"
			}
		],
		"cosmo_sigma_profile": { 
			"-0.025": 0.0,
			"-0.024": 0.0,
			"-0.023": 0.0,
			"-0.022": 0.0,
			"-0.021": 0.0,
			"-0.02": 0.0,
			"-0.019": 0.0,
			"-0.018": 0.0,
			"-0.017": 0.0,
			"-0.016": 0.0,
			"-0.015": 0.0,
			"-0.014": 0.0,
			"-0.013": 0.0,
			"-0.012": 0.0,
			"-0.011": 0.0,
			"-0.01": 0.810456413693,
			"-0.009": 2.78862645158,
			"-0.008": 5.64840271943,
			"-0.007": 9.61483092994,
			"-0.006": 11.8870348383,
			"-0.005": 18.8989024938,
			"-0.004": 27.795165145,
			"-0.003": 27.2663633494,
			"-0.002": 22.008757022,
			"-0.001": 20.5778956481,
			"0.0": 20.5379566695,
			"0.001": 15.1217276262,
			"0.002": 18.4950840658,
			"0.003": 17.7174038987,
			"0.004": 16.2181619014,
			"0.005": 9.95001727778,
			"0.006": 9.04337684588,
			"0.007": 4.35628342694,
			"0.008": 3.19837268187,
			"0.009": 4.28896525288,
			"0.01": 4.84977962736,
			"0.011": 7.280909528,
			"0.012": 4.10320800039,
			"0.013": 1.60841703501,
			"0.014": 0.185772046065,
			"0.015": 0.0,
			"0.016": 0.0,
			"0.017": 0.0,
			"0.018": 0.0,
			"0.019": 0.0,
			"0.02": 0.0,
			"0.021": 0.0,
			"0.022": 0.0,
			"0.023": 0.0,
			"0.024": 0.0,
			"0.025": 0.0
		}
	}
}
