{
	 "smiles": "COC1=CC(=CC=C1)C(C)=CC(O)=O", 
	 "Tm": 376.15, 
	 "num_atms": 26, 
	 "gaussian": { 
		 "optdone": 1, 
		 "sigma_profile": "yes", 
		 "theory": "DFT", 
		 "functional": "B3LYP", 
		 "basiset": "6-31G**", 
		 "properties": { 
			 "R2extent": 4331.4801, 
			 "electric_dipole_moment_norm": 3.43567708174, 
			 "electric_quadrupole_moment_norm": 9.17762909634, 
			 "total_energy": -652.069741401, 
			 "HOMO_LUMO_gap": 0.16675, 
			 "cosmo_polarized_energy": -11.32, 
			 "cosmo_cavitation_energy": 30.08, 
			 "cosmo_dispersion_energy": -21.97, 
			 "cosmo_repulsion_energy": 1.73, 
			 "cosmo_total_nonelectrostatic_energy": 9.84, 
			 "SMD_solvation_energy": 7.22 
		},
		"coords": [
			{
				"x": -0.654537967,
				"y": -1.4751618552,
				"z": -4.5813493242,
				"element": "C" 
			},
			{
				"x": -0.1002902001,
				"y": -1.2265341129,
				"z": -3.2991549093,
				"element": "O" 
			},
			{
				"x": -0.799874161,
				"y": -0.4345892782,
				"z": -2.435256485,
				"element": "C" 
			},
			{
				"x": -0.1951864116,
				"y": -0.2282889249,
				"z": -1.1880525749,
				"element": "C" 
			},
			{
				"x": -0.7972391692,
				"y": 0.5790711859,
				"z": -0.2160308449,
				"element": "C" 
			},
			{
				"x": -2.0490645971,
				"y": 1.1600024995,
				"z": -0.507385588,
				"element": "C" 
			},
			{
				"x": -2.64961187,
				"y": 0.9444392327,
				"z": -1.7411950405,
				"element": "C" 
			},
			{
				"x": -2.0364616509,
				"y": 0.154534743,
				"z": -2.7192170529,
				"element": "C" 
			},
			{
				"x": -0.127273089,
				"y": 0.7992492327,
				"z": 1.0949784361,
				"element": "C" 
			},
			{
				"x": 0.7497495052,
				"y": -0.3124335965,
				"z": 1.6153042296,
				"element": "C" 
			},
			{
				"x": -0.3159052256,
				"y": 1.9731164357,
				"z": 1.7448669975,
				"element": "C" 
			},
			{
				"x": 0.2360988877,
				"y": 2.3513067815,
				"z": 3.0565320801,
				"element": "C" 
			},
			{
				"x": -0.188849237,
				"y": 3.5993509762,
				"z": 3.4017974631,
				"element": "O" 
			},
			{
				"x": 0.9688069426,
				"y": 1.7123272768,
				"z": 3.7930514185,
				"element": "O" 
			},
			{
				"x": -0.7866980395,
				"y": -0.5472956108,
				"z": -5.152784574,
				"element": "H" 
			},
			{
				"x": 0.0603964361,
				"y": -2.1161114397,
				"z": -5.0993874182,
				"element": "H" 
			},
			{
				"x": -1.6194502561,
				"y": -1.9940203972,
				"z": -4.5126612196,
				"element": "H" 
			},
			{
				"x": 0.7645154439,
				"y": -0.7008367063,
				"z": -1.0141068565,
				"element": "H" 
			},
			{
				"x": -2.5612616124,
				"y": 1.7475428083,
				"z": 0.2463216011,
				"element": "H" 
			},
			{
				"x": -3.619040041,
				"y": 1.3872433446,
				"z": -1.9514222887,
				"element": "H" 
			},
			{
				"x": -2.526348437,
				"y": 0.0019982582,
				"z": -3.6733088736,
				"element": "H" 
			},
			{
				"x": 1.0147857363,
				"y": -0.1516180397,
				"z": 2.6577268284,
				"element": "H" 
			},
			{
				"x": 1.6815488658,
				"y": -0.3600382975,
				"z": 1.0373221919,
				"element": "H" 
			},
			{
				"x": 0.2513328813,
				"y": -1.2794937593,
				"z": 1.4949233263,
				"element": "H" 
			},
			{
				"x": -0.9189592617,
				"y": 2.7468649841,
				"z": 1.2832716274,
				"element": "H" 
			},
			{
				"x": 0.2117165276,
				"y": 3.7787742589,
				"z": 4.2683168501,
				"element": "H" 
			}
		],
		 "valence_orbital": [ 
			{
				"type": "occ",
				"energy": -0.30944,
				"method": "rhf"
			},
			{
				"type": "occ",
				"energy": -0.28308,
				"method": "rhf"
			},
			{
				"type": "occ",
				"energy": -0.26426,
				"method": "rhf"
			},
			{
				"type": "occ",
				"energy": -0.23977,
				"method": "rhf"
			},
			{
				"type": "occ",
				"energy": -0.22373,
				"method": "rhf"
			},
			{
				"type": "unocc",
				"energy": -0.05698,
				"method": "rhf"
			},
			{
				"type": "unocc",
				"energy": -0.00033,
				"method": "rhf"
			},
			{
				"type": "unocc",
				"energy": 0.01968,
				"method": "rhf"
			},
			{
				"type": "unocc",
				"energy": 0.08743,
				"method": "rhf"
			},
			{
				"type": "unocc",
				"energy": 0.09187,
				"method": "rhf"
			}
		],
		"cosmo_sigma_profile": { 
			"-0.025": 0.0,
			"-0.024": 0.0,
			"-0.023": 0.0,
			"-0.022": 0.0,
			"-0.021": 0.0,
			"-0.02": 0.0,
			"-0.019": 0.0,
			"-0.018": 0.212443462944,
			"-0.017": 1.1710923257,
			"-0.016": 0.512752526823,
			"-0.015": 0.965111378721,
			"-0.014": 0.47145145927,
			"-0.013": 0.827365340776,
			"-0.012": 0.372669306377,
			"-0.011": 0.972812718136,
			"-0.01": 0.75907939948,
			"-0.009": 0.786639701271,
			"-0.008": 0.401817056948,
			"-0.007": 2.29144383866,
			"-0.006": 14.1564087518,
			"-0.005": 20.6320225167,
			"-0.004": 19.838125226,
			"-0.003": 19.1549991974,
			"-0.002": 14.9590052721,
			"-0.001": 16.8877621079,
			"0.0": 18.1938522337,
			"0.001": 17.2879115045,
			"0.002": 16.1772405511,
			"0.003": 14.6909952433,
			"0.004": 15.2581295324,
			"0.005": 12.5717162059,
			"0.006": 4.60552474309,
			"0.007": 3.63634051468,
			"0.008": 4.70343373451,
			"0.009": 4.41694863408,
			"0.01": 4.88555699238,
			"0.011": 3.0304050716,
			"0.012": 3.58483015114,
			"0.013": 0.601595870453,
			"0.014": 0.0,
			"0.015": 0.0,
			"0.016": 0.0,
			"0.017": 0.0,
			"0.018": 0.0,
			"0.019": 0.0,
			"0.02": 0.0,
			"0.021": 0.0,
			"0.022": 0.0,
			"0.023": 0.0,
			"0.024": 0.0,
			"0.025": 0.0
		}
	}
}
