{
	 "smiles": "CC(C)(C)N1C=NC(N)=N1", 
	 "Tm": 409.15, 
	 "num_atms": 22, 
	 "gaussian": { 
		 "optdone": 1, 
		 "sigma_profile": "yes", 
		 "theory": "DFT", 
		 "functional": "B3LYP", 
		 "basiset": "6-31G**", 
		 "properties": { 
			 "R2extent": 2336.1878, 
			 "electric_dipole_moment_norm": 2.50455023906, 
			 "electric_quadrupole_moment_norm": 10.1227997214, 
			 "total_energy": -454.882752233, 
			 "HOMO_LUMO_gap": 0.22998, 
			 "cosmo_polarized_energy": -12.36, 
			 "cosmo_cavitation_energy": 24.47, 
			 "cosmo_dispersion_energy": -17.63, 
			 "cosmo_repulsion_energy": 1.43, 
			 "cosmo_total_nonelectrostatic_energy": 8.27, 
			 "SMD_solvation_energy": 2.28 
		},
		"coords": [
			{
				"x": -2.0414984415,
				"y": 1.0698293162,
				"z": 0.8746446734,
				"element": "C" 
			},
			{
				"x": -0.8987073339,
				"y": 0.0475088259,
				"z": 0.8173622317,
				"element": "C" 
			},
			{
				"x": 0.331136333,
				"y": 0.6574980893,
				"z": 0.1213369129,
				"element": "C" 
			},
			{
				"x": -0.5363829946,
				"y": -0.4299339876,
				"z": 2.2350302398,
				"element": "C" 
			},
			{
				"x": -1.3375982282,
				"y": -1.1276029376,
				"z": 0.0323283153,
				"element": "N" 
			},
			{
				"x": -2.5000479032,
				"y": -1.3989562269,
				"z": -0.5940450506,
				"element": "C" 
			},
			{
				"x": -2.4585566561,
				"y": -2.5825223534,
				"z": -1.1899714345,
				"element": "N" 
			},
			{
				"x": -1.1989108438,
				"y": -3.0122615274,
				"z": -0.8896514191,
				"element": "C" 
			},
			{
				"x": -0.702348722,
				"y": -4.2098070528,
				"z": -1.3731705974,
				"element": "N" 
			},
			{
				"x": -0.4744122597,
				"y": -2.1790690599,
				"z": -0.1489550758,
				"element": "N" 
			},
			{
				"x": -1.7144453621,
				"y": 1.9360744837,
				"z": 1.4558208268,
				"element": "H" 
			},
			{
				"x": -2.9300437271,
				"y": 0.6567971054,
				"z": 1.3623846255,
				"element": "H" 
			},
			{
				"x": -2.3185920385,
				"y": 1.4233006585,
				"z": -0.1234443124,
				"element": "H" 
			},
			{
				"x": 0.0735121528,
				"y": 1.0062174524,
				"z": -0.883560362,
				"element": "H" 
			},
			{
				"x": 1.1243057965,
				"y": -0.0876017788,
				"z": 0.0332338802,
				"element": "H" 
			},
			{
				"x": 0.7058760864,
				"y": 1.5089339983,
				"z": 0.6980897699,
				"element": "H" 
			},
			{
				"x": -1.4117633134,
				"y": -0.855357277,
				"z": 2.735803865,
				"element": "H" 
			},
			{
				"x": -0.1704740085,
				"y": 0.4107799185,
				"z": 2.8327065404,
				"element": "H" 
			},
			{
				"x": 0.2400660116,
				"y": -1.1961354024,
				"z": 2.1893037047,
				"element": "H" 
			},
			{
				"x": -3.3467887858,
				"y": -0.7293941516,
				"z": -0.5990910366,
				"element": "H" 
			},
			{
				"x": 0.0588306322,
				"y": -4.5870978174,
				"z": -0.8259083413,
				"element": "H" 
			},
			{
				"x": -1.4279563941,
				"y": -4.8855002756,
				"z": -1.5683479559,
				"element": "H" 
			}
		],
		 "valence_orbital": [ 
			{
				"type": "occ",
				"energy": -0.31558,
				"method": "rhf"
			},
			{
				"type": "occ",
				"energy": -0.30968,
				"method": "rhf"
			},
			{
				"type": "occ",
				"energy": -0.26655,
				"method": "rhf"
			},
			{
				"type": "occ",
				"energy": -0.26074,
				"method": "rhf"
			},
			{
				"type": "occ",
				"energy": -0.20558,
				"method": "rhf"
			},
			{
				"type": "unocc",
				"energy": 0.0244,
				"method": "rhf"
			},
			{
				"type": "unocc",
				"energy": 0.07866,
				"method": "rhf"
			},
			{
				"type": "unocc",
				"energy": 0.08134,
				"method": "rhf"
			},
			{
				"type": "unocc",
				"energy": 0.10433,
				"method": "rhf"
			},
			{
				"type": "unocc",
				"energy": 0.11269,
				"method": "rhf"
			}
		],
		"cosmo_sigma_profile": { 
			"-0.025": 0.0,
			"-0.024": 0.0,
			"-0.023": 0.0,
			"-0.022": 0.0,
			"-0.021": 0.0,
			"-0.02": 0.0,
			"-0.019": 0.0,
			"-0.018": 0.0,
			"-0.017": 0.0,
			"-0.016": 0.0,
			"-0.015": 0.0,
			"-0.014": 0.0,
			"-0.013": 0.944230983446,
			"-0.012": 2.16140390124,
			"-0.011": 2.35329431255,
			"-0.01": 2.39193292009,
			"-0.009": 3.0883419013,
			"-0.008": 3.4261375302,
			"-0.007": 3.74226493691,
			"-0.006": 4.08244147106,
			"-0.005": 7.52747514301,
			"-0.004": 19.7375764743,
			"-0.003": 17.1255577031,
			"-0.002": 16.9900311133,
			"-0.001": 18.107945047,
			"0.0": 22.8402881226,
			"0.001": 12.1780574703,
			"0.002": 6.74578256664,
			"0.003": 5.45457638924,
			"0.004": 4.67423992744,
			"0.005": 4.46483423868,
			"0.006": 4.08939040858,
			"0.007": 4.55630964143,
			"0.008": 4.81344195064,
			"0.009": 3.08939248455,
			"0.01": 2.83123170325,
			"0.011": 3.54266382592,
			"0.012": 2.7894368934,
			"0.013": 2.28638588646,
			"0.014": 2.12124042299,
			"0.015": 0.918620787483,
			"0.016": 1.14266304872,
			"0.017": 0.809601787612,
			"0.018": 0.0707930766507,
			"0.019": 0.0,
			"0.02": 0.0,
			"0.021": 0.0,
			"0.022": 0.0,
			"0.023": 0.0,
			"0.024": 0.0,
			"0.025": 0.0
		}
	}
}
