{
	 "smiles": "CCOC(=O)NC(=S)NC1=CC=CC(C)=N1", 
	 "Tm": 401.15, 
	 "num_atms": 29, 
	 "gaussian": { 
		 "optdone": 1, 
		 "sigma_profile": "yes", 
		 "theory": "DFT", 
		 "functional": "B3LYP", 
		 "basiset": "6-31G**", 
		 "properties": { 
			 "R2extent": 6338.7254, 
			 "electric_dipole_moment_norm": 3.9848479444, 
			 "electric_quadrupole_moment_norm": 20.5356193298, 
			 "total_energy": -1101.82544404, 
			 "HOMO_LUMO_gap": 0.15736, 
			 "cosmo_polarized_energy": -17.33, 
			 "cosmo_cavitation_energy": 35.63, 
			 "cosmo_dispersion_energy": -25.65, 
			 "cosmo_repulsion_energy": 2.01, 
			 "cosmo_total_nonelectrostatic_energy": 11.99, 
			 "SMD_solvation_energy": 5.63 
		},
		"coords": [
			{
				"x": -0.6207569382,
				"y": 4.7414260773,
				"z": -2.1456567084,
				"element": "C" 
			},
			{
				"x": -0.2498069829,
				"y": 4.3821074585,
				"z": -0.7206191594,
				"element": "C" 
			},
			{
				"x": 0.2534252193,
				"y": 3.0219976129,
				"z": -0.7408124918,
				"element": "O" 
			},
			{
				"x": 0.6622361556,
				"y": 2.5494063707,
				"z": 0.4312184158,
				"element": "C" 
			},
			{
				"x": 0.5985447558,
				"y": 3.1248454325,
				"z": 1.5002922686,
				"element": "O" 
			},
			{
				"x": 1.1524018205,
				"y": 1.2374143742,
				"z": 0.3732995422,
				"element": "N" 
			},
			{
				"x": 1.558122565,
				"y": 0.4313067217,
				"z": -0.6799869065,
				"element": "C" 
			},
			{
				"x": 1.9181890732,
				"y": 0.9215245448,
				"z": -2.2281809336,
				"element": "S" 
			},
			{
				"x": 1.732636043,
				"y": -0.8853092975,
				"z": -0.3206414561,
				"element": "N" 
			},
			{
				"x": 1.360929114,
				"y": -1.6390809025,
				"z": 0.8091643997,
				"element": "C" 
			},
			{
				"x": 0.2957588671,
				"y": -1.3144283789,
				"z": 1.6663161443,
				"element": "C" 
			},
			{
				"x": 0.0452664342,
				"y": -2.1778632076,
				"z": 2.7288305974,
				"element": "C" 
			},
			{
				"x": 0.8235349593,
				"y": -3.3214351763,
				"z": 2.8955162971,
				"element": "C" 
			},
			{
				"x": 1.8364331293,
				"y": -3.5827780185,
				"z": 1.9643213394,
				"element": "C" 
			},
			{
				"x": 2.6976377666,
				"y": -4.8169756653,
				"z": 2.0489567808,
				"element": "C" 
			},
			{
				"x": 2.0970780496,
				"y": -2.7486658358,
				"z": 0.9472601009,
				"element": "N" 
			},
			{
				"x": -1.0048968283,
				"y": 5.7658004682,
				"z": -2.1773296397,
				"element": "H" 
			},
			{
				"x": 0.2503621658,
				"y": 4.6745596296,
				"z": -2.8023503443,
				"element": "H" 
			},
			{
				"x": -1.3934443625,
				"y": 4.069876202,
				"z": -2.5298194375,
				"element": "H" 
			},
			{
				"x": -1.1078132329,
				"y": 4.427736719,
				"z": -0.0428776674,
				"element": "H" 
			},
			{
				"x": 0.5291901629,
				"y": 5.0358546506,
				"z": -0.3176329666,
				"element": "H" 
			},
			{
				"x": 1.3416450857,
				"y": 0.8982726836,
				"z": 1.3092331535,
				"element": "H" 
			},
			{
				"x": 2.2813518852,
				"y": -1.4165683449,
				"z": -0.9857682427,
				"element": "H" 
			},
			{
				"x": -0.3360527182,
				"y": -0.4535279719,
				"z": 1.490780563,
				"element": "H" 
			},
			{
				"x": -0.7692769946,
				"y": -1.9624721816,
				"z": 3.4142048864,
				"element": "H" 
			},
			{
				"x": 0.6425627762,
				"y": -4.0070584361,
				"z": 3.7162594067,
				"element": "H" 
			},
			{
				"x": 2.5951163053,
				"y": -5.4139246326,
				"z": 1.1368876707,
				"element": "H" 
			},
			{
				"x": 3.7532293675,
				"y": -4.5392232107,
				"z": 2.1319926677,
				"element": "H" 
			},
			{
				"x": 2.4297963566,
				"y": -5.4388176852,
				"z": 2.9064417197,
				"element": "H" 
			}
		],
		 "valence_orbital": [ 
			{
				"type": "occ",
				"energy": -0.29001,
				"method": "rhf"
			},
			{
				"type": "occ",
				"energy": -0.2783,
				"method": "rhf"
			},
			{
				"type": "occ",
				"energy": -0.2588,
				"method": "rhf"
			},
			{
				"type": "occ",
				"energy": -0.22371,
				"method": "rhf"
			},
			{
				"type": "occ",
				"energy": -0.21243,
				"method": "rhf"
			},
			{
				"type": "unocc",
				"energy": -0.05507,
				"method": "rhf"
			},
			{
				"type": "unocc",
				"energy": -0.03754,
				"method": "rhf"
			},
			{
				"type": "unocc",
				"energy": 0.00091,
				"method": "rhf"
			},
			{
				"type": "unocc",
				"energy": 0.0498,
				"method": "rhf"
			},
			{
				"type": "unocc",
				"energy": 0.0827,
				"method": "rhf"
			}
		],
		"cosmo_sigma_profile": { 
			"-0.025": 0.0,
			"-0.024": 0.0,
			"-0.023": 0.0,
			"-0.022": 0.0,
			"-0.021": 0.0,
			"-0.02": 0.0,
			"-0.019": 0.0,
			"-0.018": 0.0,
			"-0.017": 0.0,
			"-0.016": 0.0,
			"-0.015": 0.235777027534,
			"-0.014": 0.885470996242,
			"-0.013": 1.39195893484,
			"-0.012": 1.34936240023,
			"-0.011": 1.93901219029,
			"-0.01": 1.54627481534,
			"-0.009": 1.91068183326,
			"-0.008": 3.57012868548,
			"-0.007": 7.61099511045,
			"-0.006": 13.5569085153,
			"-0.005": 20.4957413542,
			"-0.004": 26.3995675579,
			"-0.003": 23.3159392676,
			"-0.002": 22.8543563076,
			"-0.001": 25.2246043808,
			"0.0": 24.0559571252,
			"0.001": 16.7698406383,
			"0.002": 14.7592059283,
			"0.003": 10.6598468083,
			"0.004": 7.84920637518,
			"0.005": 6.52463686653,
			"0.006": 5.46548839415,
			"0.007": 8.7483572988,
			"0.008": 9.47030968583,
			"0.009": 8.85677788966,
			"0.01": 6.84792286037,
			"0.011": 8.00696455252,
			"0.012": 4.99936652858,
			"0.013": 0.361810409563,
			"0.014": 0.146773473588,
			"0.015": 0.0,
			"0.016": 0.0,
			"0.017": 0.0,
			"0.018": 0.0,
			"0.019": 0.0,
			"0.02": 0.0,
			"0.021": 0.0,
			"0.022": 0.0,
			"0.023": 0.0,
			"0.024": 0.0,
			"0.025": 0.0
		}
	}
}
