{
	 "smiles": "CCO[Si](OCC)(OCC)OCC", 
	 "Tm": 188.95, 
	 "num_atms": 33, 
	 "gaussian": { 
		 "optdone": 1, 
		 "sigma_profile": "yes", 
		 "theory": "DFT", 
		 "functional": "B3LYP", 
		 "basiset": "6-31G**", 
		 "properties": { 
			 "R2extent": 3951.6685, 
			 "electric_dipole_moment_norm": 0.00489182992345, 
			 "electric_quadrupole_moment_norm": 11.733353135, 
			 "total_energy": -907.470680522, 
			 "HOMO_LUMO_gap": 0.32554, 
			 "cosmo_polarized_energy": -10.3, 
			 "cosmo_cavitation_energy": 37.67, 
			 "cosmo_dispersion_energy": -23.39, 
			 "cosmo_repulsion_energy": 2.06, 
			 "cosmo_total_nonelectrostatic_energy": 16.34, 
			 "SMD_solvation_energy": 6.7 
		},
		"coords": [
			{
				"x": 2.5338980842,
				"y": -1.7953266337,
				"z": 0.0058844911,
				"element": "C" 
			},
			{
				"x": 1.8851621141,
				"y": -0.4408125248,
				"z": -0.2273171683,
				"element": "C" 
			},
			{
				"x": 0.5183487358,
				"y": -0.5033227889,
				"z": 0.1899355692,
				"element": "O" 
			},
			{
				"x": -0.4857847093,
				"y": 0.8016913409,
				"z": 0.1411486449,
				"element": "Si" 
			},
			{
				"x": -1.9044667862,
				"y": 0.1975239313,
				"z": 0.7209198143,
				"element": "O" 
			},
			{
				"x": -3.0850781551,
				"y": 0.99410253,
				"z": 0.8541399516,
				"element": "C" 
			},
			{
				"x": -4.1976229942,
				"y": 0.1334275531,
				"z": 1.4298397351,
				"element": "C" 
			},
			{
				"x": 0.075590046,
				"y": 2.0729999674,
				"z": 1.0257340402,
				"element": "O" 
			},
			{
				"x": 0.3507279903,
				"y": 1.9757546565,
				"z": 2.4261516673,
				"element": "C" 
			},
			{
				"x": 0.8056939186,
				"y": 3.333955261,
				"z": 2.9343022963,
				"element": "C" 
			},
			{
				"x": -0.6328945225,
				"y": 1.4398497226,
				"z": -1.370435808,
				"element": "O" 
			},
			{
				"x": -1.096043666,
				"y": 0.6764321224,
				"z": -2.4879351726,
				"element": "C" 
			},
			{
				"x": -1.1073660831,
				"y": 1.5650917564,
				"z": -3.7208573085,
				"element": "C" 
			},
			{
				"x": 2.4927510558,
				"y": -2.0631333281,
				"z": 1.0657580565,
				"element": "H" 
			},
			{
				"x": 2.0140749821,
				"y": -2.5722643807,
				"z": -0.5623222502,
				"element": "H" 
			},
			{
				"x": 3.5827723826,
				"y": -1.7763410187,
				"z": -0.3084863734,
				"element": "H" 
			},
			{
				"x": 1.9395898026,
				"y": -0.1679804237,
				"z": -1.2903218525,
				"element": "H" 
			},
			{
				"x": 2.4147636863,
				"y": 0.340043047,
				"z": 0.3358566258,
				"element": "H" 
			},
			{
				"x": -3.3789077575,
				"y": 1.3952977008,
				"z": -0.1256837357,
				"element": "H" 
			},
			{
				"x": -2.8862118574,
				"y": 1.8528289526,
				"z": 1.5101835837,
				"element": "H" 
			},
			{
				"x": -3.9119027026,
				"y": -0.2570631066,
				"z": 2.4109714372,
				"element": "H" 
			},
			{
				"x": -4.4047515101,
				"y": -0.715900798,
				"z": 0.7722197199,
				"element": "H" 
			},
			{
				"x": -5.1158134283,
				"y": 0.7196879073,
				"z": 1.5418382055,
				"element": "H" 
			},
			{
				"x": -0.5493877169,
				"y": 1.6470196506,
				"z": 2.963785881,
				"element": "H" 
			},
			{
				"x": 1.1286599987,
				"y": 1.2201879466,
				"z": 2.6030157443,
				"element": "H" 
			},
			{
				"x": 1.0256675677,
				"y": 3.2873237979,
				"z": 4.0061046129,
				"element": "H" 
			},
			{
				"x": 1.7079933149,
				"y": 3.6579126419,
				"z": 2.4074028115,
				"element": "H" 
			},
			{
				"x": 0.0274208335,
				"y": 4.0851684443,
				"z": 2.7708542372,
				"element": "H" 
			},
			{
				"x": -2.1041908563,
				"y": 0.2891220338,
				"z": -2.2854055724,
				"element": "H" 
			},
			{
				"x": -0.4407914645,
				"y": -0.1911992068,
				"z": -2.6467942947,
				"element": "H" 
			},
			{
				"x": -1.4589361533,
				"y": 1.0043654923,
				"z": -4.5933847217,
				"element": "H" 
			},
			{
				"x": -1.7684454249,
				"y": 2.4233582495,
				"z": -3.568931123,
				"element": "H" 
			},
			{
				"x": -0.1022187249,
				"y": 1.9421995042,
				"z": -3.9310717447,
				"element": "H" 
			}
		],
		 "valence_orbital": [ 
			{
				"type": "occ",
				"energy": -0.29383,
				"method": "rhf"
			},
			{
				"type": "occ",
				"energy": -0.284,
				"method": "rhf"
			},
			{
				"type": "occ",
				"energy": -0.28132,
				"method": "rhf"
			},
			{
				"type": "occ",
				"energy": -0.28131,
				"method": "rhf"
			},
			{
				"type": "occ",
				"energy": -0.26762,
				"method": "rhf"
			},
			{
				"type": "unocc",
				"energy": 0.05792,
				"method": "rhf"
			},
			{
				"type": "unocc",
				"energy": 0.0887,
				"method": "rhf"
			},
			{
				"type": "unocc",
				"energy": 0.08872,
				"method": "rhf"
			},
			{
				"type": "unocc",
				"energy": 0.10152,
				"method": "rhf"
			},
			{
				"type": "unocc",
				"energy": 0.10514,
				"method": "rhf"
			}
		],
		"cosmo_sigma_profile": { 
			"-0.025": 0.0,
			"-0.024": 0.0,
			"-0.023": 0.0,
			"-0.022": 0.0,
			"-0.021": 0.0,
			"-0.02": 0.0,
			"-0.019": 0.0,
			"-0.018": 0.0,
			"-0.017": 0.0,
			"-0.016": 0.0,
			"-0.015": 0.0,
			"-0.014": 0.0,
			"-0.013": 0.0,
			"-0.012": 0.0,
			"-0.011": 0.0,
			"-0.01": 0.0,
			"-0.009": 0.0,
			"-0.008": 0.0,
			"-0.007": 0.0,
			"-0.006": 0.0,
			"-0.005": 0.922795877888,
			"-0.004": 29.2984562016,
			"-0.003": 55.6317600957,
			"-0.002": 50.2133419171,
			"-0.001": 36.683455647,
			"0.0": 34.4941297802,
			"0.001": 24.5495530361,
			"0.002": 7.43165837737,
			"0.003": 4.58131323355,
			"0.004": 4.03561460006,
			"0.005": 4.4606433353,
			"0.006": 3.52891041913,
			"0.007": 3.64135366885,
			"0.008": 4.02703544633,
			"0.009": 3.17974263476,
			"0.01": 4.14166358268,
			"0.011": 3.45005297997,
			"0.012": 5.09567580629,
			"0.013": 5.39637230823,
			"0.014": 1.00815888801,
			"0.015": 0.0,
			"0.016": 0.0,
			"0.017": 0.0,
			"0.018": 0.0,
			"0.019": 0.0,
			"0.02": 0.0,
			"0.021": 0.0,
			"0.022": 0.0,
			"0.023": 0.0,
			"0.024": 0.0,
			"0.025": 0.0
		}
	}
}
