{
	 "smiles": "CS(=O)(=O)C1=CC(Cl)=C(N)C=C1", 
	 "Tm": 467.15, 
	 "num_atms": 20, 
	 "gaussian": { 
		 "optdone": 1, 
		 "sigma_profile": "yes", 
		 "theory": "DFT", 
		 "functional": "B3LYP", 
		 "basiset": "6-31G**", 
		 "properties": { 
			 "R2extent": 4347.5646, 
			 "electric_dipole_moment_norm": 6.73118302307, 
			 "electric_quadrupole_moment_norm": 23.9084859732, 
			 "total_energy": -1335.08784803, 
			 "HOMO_LUMO_gap": 0.2001, 
			 "cosmo_polarized_energy": -18.69, 
			 "cosmo_cavitation_energy": 27.11, 
			 "cosmo_dispersion_energy": -20.51, 
			 "cosmo_repulsion_energy": 1.59, 
			 "cosmo_total_nonelectrostatic_energy": 8.2, 
			 "SMD_solvation_energy": 4.1 
		},
		"coords": [
			{
				"x": 0.63916002,
				"y": -2.1088051891,
				"z": -0.4948459859,
				"element": "C" 
			},
			{
				"x": -0.9575594714,
				"y": -1.393910547,
				"z": -0.0303191421,
				"element": "S" 
			},
			{
				"x": -0.7686722612,
				"y": -0.7114157979,
				"z": 1.2596016706,
				"element": "O" 
			},
			{
				"x": -1.970404209,
				"y": -2.4484349294,
				"z": -0.1970940406,
				"element": "O" 
			},
			{
				"x": -1.2549686503,
				"y": -0.1455050319,
				"z": -1.2777542653,
				"element": "C" 
			},
			{
				"x": -0.8089837305,
				"y": 1.1595810909,
				"z": -1.0607345302,
				"element": "C" 
			},
			{
				"x": -1.0363772899,
				"y": 2.1218211779,
				"z": -2.0335730982,
				"element": "C" 
			},
			{
				"x": -0.4691367941,
				"y": 3.7676414515,
				"z": -1.7648124491,
				"element": "Cl" 
			},
			{
				"x": -1.7165447581,
				"y": 1.8217249639,
				"z": -3.2366131613,
				"element": "C" 
			},
			{
				"x": -1.9812843753,
				"y": 2.7879056423,
				"z": -4.1742046833,
				"element": "N" 
			},
			{
				"x": -2.1604275902,
				"y": 0.4935507887,
				"z": -3.4152831132,
				"element": "C" 
			},
			{
				"x": -1.9377712788,
				"y": -0.4781917838,
				"z": -2.4515015486,
				"element": "C" 
			},
			{
				"x": 0.8561854804,
				"y": -2.8808594895,
				"z": 0.2463348359,
				"element": "H" 
			},
			{
				"x": 1.4031496165,
				"y": -1.3306850628,
				"z": -0.4673144092,
				"element": "H" 
			},
			{
				"x": 0.5604273582,
				"y": -2.5491046741,
				"z": -1.4897599245,
				"element": "H" 
			},
			{
				"x": -0.3082991114,
				"y": 1.4211735441,
				"z": -0.1353705673,
				"element": "H" 
			},
			{
				"x": -1.4677398844,
				"y": 3.6540963655,
				"z": -4.1189559611,
				"element": "H" 
			},
			{
				"x": -2.2376482762,
				"y": 2.4869068217,
				"z": -5.1009881445,
				"element": "H" 
			},
			{
				"x": -2.7011705327,
				"y": 0.2430068621,
				"z": -4.32384157,
				"element": "H" 
			},
			{
				"x": -2.3070342617,
				"y": -1.4885962032,
				"z": -2.5906699118,
				"element": "H" 
			}
		],
		 "valence_orbital": [ 
			{
				"type": "occ",
				"energy": -0.30729,
				"method": "rhf"
			},
			{
				"type": "occ",
				"energy": -0.2914,
				"method": "rhf"
			},
			{
				"type": "occ",
				"energy": -0.28349,
				"method": "rhf"
			},
			{
				"type": "occ",
				"energy": -0.26761,
				"method": "rhf"
			},
			{
				"type": "occ",
				"energy": -0.23047,
				"method": "rhf"
			},
			{
				"type": "unocc",
				"energy": -0.03037,
				"method": "rhf"
			},
			{
				"type": "unocc",
				"energy": -0.02677,
				"method": "rhf"
			},
			{
				"type": "unocc",
				"energy": 0.01425,
				"method": "rhf"
			},
			{
				"type": "unocc",
				"energy": 0.06378,
				"method": "rhf"
			},
			{
				"type": "unocc",
				"energy": 0.07915,
				"method": "rhf"
			}
		],
		"cosmo_sigma_profile": { 
			"-0.025": 0.0,
			"-0.024": 0.0,
			"-0.023": 0.0,
			"-0.022": 0.0,
			"-0.021": 0.0,
			"-0.02": 0.0,
			"-0.019": 0.0,
			"-0.018": 0.0,
			"-0.017": 0.0,
			"-0.016": 0.0,
			"-0.015": 0.100454364679,
			"-0.014": 1.40509844655,
			"-0.013": 1.62472693855,
			"-0.012": 2.52682607513,
			"-0.011": 2.35223516747,
			"-0.01": 2.92024490814,
			"-0.009": 3.72375050505,
			"-0.008": 7.78068353482,
			"-0.007": 12.4883658617,
			"-0.006": 12.0288309522,
			"-0.005": 12.0000600172,
			"-0.004": 12.813354438,
			"-0.003": 11.0331690082,
			"-0.002": 9.03171458521,
			"-0.001": 8.88242966558,
			"0.0": 12.41568028,
			"0.001": 15.960600892,
			"0.002": 20.9517548221,
			"0.003": 13.9269156859,
			"0.004": 11.6076630358,
			"0.005": 5.22315103217,
			"0.006": 3.15500603693,
			"0.007": 2.9600278874,
			"0.008": 2.76970490133,
			"0.009": 4.39882422777,
			"0.01": 4.54561724495,
			"0.011": 7.93280935459,
			"0.012": 9.65658768789,
			"0.013": 2.16878165452,
			"0.014": 0.0,
			"0.015": 0.0,
			"0.016": 0.0,
			"0.017": 0.0,
			"0.018": 0.0,
			"0.019": 0.0,
			"0.02": 0.0,
			"0.021": 0.0,
			"0.022": 0.0,
			"0.023": 0.0,
			"0.024": 0.0,
			"0.025": 0.0
		}
	}
}
