{
	 "smiles": "CCOC(=O)C1=CNC(S)=N1", 
	 "Tm": 465.15, 
	 "num_atms": 19, 
	 "gaussian": { 
		 "optdone": 1, 
		 "sigma_profile": "yes", 
		 "theory": "DFT", 
		 "functional": "B3LYP", 
		 "basiset": "6-31G**", 
		 "properties": { 
			 "R2extent": 3392.5234, 
			 "electric_dipole_moment_norm": 2.21793656807, 
			 "electric_quadrupole_moment_norm": 19.2594048548, 
			 "total_energy": -891.602386343, 
			 "HOMO_LUMO_gap": 0.20324, 
			 "cosmo_polarized_energy": -17.38, 
			 "cosmo_cavitation_energy": 25.8, 
			 "cosmo_dispersion_energy": -19.5, 
			 "cosmo_repulsion_energy": 1.56, 
			 "cosmo_total_nonelectrostatic_energy": 7.86, 
			 "SMD_solvation_energy": 3.78 
		},
		"coords": [
			{
				"x": 0.3865721484,
				"y": -2.7431885305,
				"z": -0.319652849,
				"element": "C" 
			},
			{
				"x": -0.1882526539,
				"y": -1.9535546972,
				"z": 0.8474460836,
				"element": "C" 
			},
			{
				"x": -0.306270507,
				"y": -0.5492105624,
				"z": 0.5247734254,
				"element": "O" 
			},
			{
				"x": 0.7935339604,
				"y": 0.2016795545,
				"z": 0.7238507551,
				"element": "C" 
			},
			{
				"x": 1.8523912214,
				"y": -0.2235128947,
				"z": 1.15427013,
				"element": "O" 
			},
			{
				"x": 0.5852497611,
				"y": 1.6167285117,
				"z": 0.3677542517,
				"element": "C" 
			},
			{
				"x": 1.5526096163,
				"y": 2.5877812242,
				"z": 0.4834288872,
				"element": "C" 
			},
			{
				"x": 0.9518068524,
				"y": 3.7473531471,
				"z": 0.0542829669,
				"element": "N" 
			},
			{
				"x": -0.3377092483,
				"y": 3.4251312658,
				"z": -0.2993346548,
				"element": "C" 
			},
			{
				"x": -1.4556420145,
				"y": 4.655776798,
				"z": -0.9122032248,
				"element": "S" 
			},
			{
				"x": -0.5931187769,
				"y": 2.1535840147,
				"z": -0.124346601,
				"element": "N" 
			},
			{
				"x": -0.21288887,
				"y": -2.5940893285,
				"z": -1.2224671132,
				"element": "H" 
			},
			{
				"x": 1.4148641265,
				"y": -2.4336179536,
				"z": -0.5215635102,
				"element": "H" 
			},
			{
				"x": 0.3898644757,
				"y": -3.8120444989,
				"z": -0.0803834294,
				"element": "H" 
			},
			{
				"x": 0.4338211993,
				"y": -2.0619593192,
				"z": 1.7392693173,
				"element": "H" 
			},
			{
				"x": -1.2104176617,
				"y": -2.2647586908,
				"z": 1.0759794177,
				"element": "H" 
			},
			{
				"x": 2.574287743,
				"y": 2.5423189203,
				"z": 0.8241344494,
				"element": "H" 
			},
			{
				"x": 1.3801632847,
				"y": 4.6599717069,
				"z": 0.0086481446,
				"element": "H" 
			},
			{
				"x": -2.4618646571,
				"y": 3.7750113326,
				"z": -1.0585864466,
				"element": "H" 
			}
		],
		 "valence_orbital": [ 
			{
				"type": "occ",
				"energy": -0.28995,
				"method": "rhf"
			},
			{
				"type": "occ",
				"energy": -0.28739,
				"method": "rhf"
			},
			{
				"type": "occ",
				"energy": -0.28665,
				"method": "rhf"
			},
			{
				"type": "occ",
				"energy": -0.26466,
				"method": "rhf"
			},
			{
				"type": "occ",
				"energy": -0.22267,
				"method": "rhf"
			},
			{
				"type": "unocc",
				"energy": -0.01943,
				"method": "rhf"
			},
			{
				"type": "unocc",
				"energy": -0.00162,
				"method": "rhf"
			},
			{
				"type": "unocc",
				"energy": 0.02242,
				"method": "rhf"
			},
			{
				"type": "unocc",
				"energy": 0.06309,
				"method": "rhf"
			},
			{
				"type": "unocc",
				"energy": 0.07403,
				"method": "rhf"
			}
		],
		"cosmo_sigma_profile": { 
			"-0.025": 0.0,
			"-0.024": 0.0,
			"-0.023": 0.0,
			"-0.022": 0.0,
			"-0.021": 0.0,
			"-0.02": 0.0,
			"-0.019": 0.0,
			"-0.018": 0.943376119139,
			"-0.017": 1.87387623561,
			"-0.016": 1.41158668283,
			"-0.015": 1.19935078905,
			"-0.014": 1.34678526052,
			"-0.013": 1.53461075166,
			"-0.012": 1.96960950819,
			"-0.011": 2.93819500275,
			"-0.01": 2.88976242873,
			"-0.009": 4.41022207774,
			"-0.008": 3.77829354897,
			"-0.007": 3.52933804372,
			"-0.006": 3.74083825329,
			"-0.005": 7.0306873637,
			"-0.004": 12.8965696954,
			"-0.003": 15.0862081218,
			"-0.002": 15.8146316405,
			"-0.001": 15.3011279993,
			"0.0": 17.8260420821,
			"0.001": 16.7368351281,
			"0.002": 13.8030286666,
			"0.003": 9.74899638721,
			"0.004": 8.15857879662,
			"0.005": 6.8483468359,
			"0.006": 5.08197839813,
			"0.007": 5.9861786018,
			"0.008": 3.52232859322,
			"0.009": 2.94942518977,
			"0.01": 3.23828873105,
			"0.011": 3.49799217195,
			"0.012": 5.65939106937,
			"0.013": 3.14479466256,
			"0.014": 1.04617616055,
			"0.015": 1.14251226461,
			"0.016": 1.3769071918,
			"0.017": 0.344908966758,
			"0.018": 0.0,
			"0.019": 0.0,
			"0.02": 0.0,
			"0.021": 0.0,
			"0.022": 0.0,
			"0.023": 0.0,
			"0.024": 0.0,
			"0.025": 0.0
		}
	}
}
