{
	 "smiles": "OC(=O)C1CC1C1=CC=C(OCC2=CC=CC=C2)C=C1", 
	 "Tm": 421.15, 
	 "num_atms": 36, 
	 "gaussian": { 
		 "optdone": 1, 
		 "sigma_profile": "yes", 
		 "theory": "DFT", 
		 "functional": "B3LYP", 
		 "basiset": "6-31G**", 
		 "properties": { 
			 "R2extent": 10232.6517, 
			 "electric_dipole_moment_norm": 4.38106434899, 
			 "electric_quadrupole_moment_norm": 43.5591792006, 
			 "total_energy": -883.099902497, 
			 "HOMO_LUMO_gap": 0.2026, 
			 "cosmo_polarized_energy": -18.84, 
			 "cosmo_cavitation_energy": 40.38, 
			 "cosmo_dispersion_energy": -28.45, 
			 "cosmo_repulsion_energy": 2.2, 
			 "cosmo_total_nonelectrostatic_energy": 14.12, 
			 "SMD_solvation_energy": 7.58 
		},
		"coords": [
			{
				"x": -4.5383840521,
				"y": 5.8664879614,
				"z": -1.1288912646,
				"element": "O" 
			},
			{
				"x": -3.4850587883,
				"y": 5.505323386,
				"z": -0.3471257306,
				"element": "C" 
			},
			{
				"x": -2.6107627607,
				"y": 6.304576364,
				"z": -0.103288302,
				"element": "O" 
			},
			{
				"x": -3.4857802002,
				"y": 4.0986580751,
				"z": 0.1525058793,
				"element": "C" 
			},
			{
				"x": -2.7714085735,
				"y": 3.8249067796,
				"z": 1.4580587436,
				"element": "C" 
			},
			{
				"x": -2.1245742459,
				"y": 3.3803954579,
				"z": 0.1839015221,
				"element": "C" 
			},
			{
				"x": -2.008072679,
				"y": 1.9501315193,
				"z": -0.2213867845,
				"element": "C" 
			},
			{
				"x": -0.9600848224,
				"y": 1.5554335368,
				"z": -1.0596619351,
				"element": "C" 
			},
			{
				"x": -0.8028655296,
				"y": 0.2307666934,
				"z": -1.4746169442,
				"element": "C" 
			},
			{
				"x": -1.7206206296,
				"y": -0.7361877579,
				"z": -1.0531173535,
				"element": "C" 
			},
			{
				"x": -1.6870411657,
				"y": -2.0609058887,
				"z": -1.4004083961,
				"element": "O" 
			},
			{
				"x": -0.7409798408,
				"y": -2.5011249158,
				"z": -2.3721546272,
				"element": "C" 
			},
			{
				"x": 0.6666296497,
				"y": -2.6824897904,
				"z": -1.8359894349,
				"element": "C" 
			},
			{
				"x": 1.7660629631,
				"y": -2.5275878394,
				"z": -2.6883289377,
				"element": "C" 
			},
			{
				"x": 3.0626898735,
				"y": -2.7527058812,
				"z": -2.2226503312,
				"element": "C" 
			},
			{
				"x": 3.2725584463,
				"y": -3.1271392234,
				"z": -0.8945261771,
				"element": "C" 
			},
			{
				"x": 2.1798195234,
				"y": -3.2776204472,
				"z": -0.03771264,
				"element": "C" 
			},
			{
				"x": 0.8838141833,
				"y": -3.0607950866,
				"z": -0.5060917376,
				"element": "C" 
			},
			{
				"x": -2.7766480672,
				"y": -0.361057182,
				"z": -0.2100331817,
				"element": "C" 
			},
			{
				"x": -2.9125489697,
				"y": 0.9592858679,
				"z": 0.198189463,
				"element": "C" 
			},
			{
				"x": -5.143036736,
				"y": 5.1197638757,
				"z": -1.2393569353,
				"element": "H" 
			},
			{
				"x": -4.3434945085,
				"y": 3.474184105,
				"z": -0.0870109547,
				"element": "H" 
			},
			{
				"x": -3.1997850265,
				"y": 3.0723568594,
				"z": 2.1127050034,
				"element": "H" 
			},
			{
				"x": -2.3494220731,
				"y": 4.6932594927,
				"z": 1.9531699627,
				"element": "H" 
			},
			{
				"x": -1.3104599629,
				"y": 4.0151108147,
				"z": -0.1549753654,
				"element": "H" 
			},
			{
				"x": -0.2387416741,
				"y": 2.2967761261,
				"z": -1.3937083574,
				"element": "H" 
			},
			{
				"x": 0.0414625583,
				"y": -0.033823509,
				"z": -2.0990789912,
				"element": "H" 
			},
			{
				"x": -0.740045959,
				"y": -1.8271539665,
				"z": -3.239216533,
				"element": "H" 
			},
			{
				"x": -1.1385472696,
				"y": -3.4650195027,
				"z": -2.7089655479,
				"element": "H" 
			},
			{
				"x": 1.6085725022,
				"y": -2.2283271853,
				"z": -3.7224817469,
				"element": "H" 
			},
			{
				"x": 3.9072089643,
				"y": -2.6273232011,
				"z": -2.8943383519,
				"element": "H" 
			},
			{
				"x": 4.2809694735,
				"y": -3.296528696,
				"z": -0.5282883288,
				"element": "H" 
			},
			{
				"x": 2.3369837441,
				"y": -3.5650046091,
				"z": 0.9981111054,
				"element": "H" 
			},
			{
				"x": 0.0329999286,
				"y": -3.1736058481,
				"z": 0.1585588107,
				"element": "H" 
			},
			{
				"x": -3.4796174576,
				"y": -1.1232023991,
				"z": 0.1104328985,
				"element": "H" 
			},
			{
				"x": -3.7405908183,
				"y": 1.2159860147,
				"z": 0.854171502,
				"element": "H" 
			}
		],
		 "valence_orbital": [ 
			{
				"type": "occ",
				"energy": -0.27009,
				"method": "rhf"
			},
			{
				"type": "occ",
				"energy": -0.25664,
				"method": "rhf"
			},
			{
				"type": "occ",
				"energy": -0.25515,
				"method": "rhf"
			},
			{
				"type": "occ",
				"energy": -0.24827,
				"method": "rhf"
			},
			{
				"type": "occ",
				"energy": -0.21503,
				"method": "rhf"
			},
			{
				"type": "unocc",
				"energy": -0.01243,
				"method": "rhf"
			},
			{
				"type": "unocc",
				"energy": -0.00924,
				"method": "rhf"
			},
			{
				"type": "unocc",
				"energy": -0.00758,
				"method": "rhf"
			},
			{
				"type": "unocc",
				"energy": -0.00193,
				"method": "rhf"
			},
			{
				"type": "unocc",
				"energy": 0.02603,
				"method": "rhf"
			}
		],
		"cosmo_sigma_profile": { 
			"-0.025": 0.0,
			"-0.024": 0.0,
			"-0.023": 0.0,
			"-0.022": 0.0,
			"-0.021": 0.0,
			"-0.02": 0.0,
			"-0.019": 0.606399538131,
			"-0.018": 1.28953411379,
			"-0.017": 1.3715580941,
			"-0.016": 0.992776733611,
			"-0.015": 1.06985767745,
			"-0.014": 0.998020005848,
			"-0.013": 0.810769454546,
			"-0.012": 0.976757803553,
			"-0.011": 1.28751341709,
			"-0.01": 0.962097312332,
			"-0.009": 0.746852097245,
			"-0.008": 1.48789274653,
			"-0.007": 6.8786240269,
			"-0.006": 19.5596704625,
			"-0.005": 26.2417883888,
			"-0.004": 25.5428874421,
			"-0.003": 25.6956097383,
			"-0.002": 19.8467458485,
			"-0.001": 20.8031427479,
			"0.0": 18.6431821884,
			"0.001": 17.7581098837,
			"0.002": 20.1170129909,
			"0.003": 19.5283214948,
			"0.004": 22.2705991525,
			"0.005": 23.2940861429,
			"0.006": 13.2130774016,
			"0.007": 3.24834969535,
			"0.008": 3.21148958598,
			"0.009": 4.63104658198,
			"0.01": 4.97349108861,
			"0.011": 4.72831050607,
			"0.012": 5.01959816185,
			"0.013": 3.05424220503,
			"0.014": 0.521380283127,
			"0.015": 0.0,
			"0.016": 0.0,
			"0.017": 0.0,
			"0.018": 0.0,
			"0.019": 0.0,
			"0.02": 0.0,
			"0.021": 0.0,
			"0.022": 0.0,
			"0.023": 0.0,
			"0.024": 0.0,
			"0.025": 0.0
		}
	}
}
