{
	 "smiles": "CC1(C)CC(=O)OC1=O", 
	 "Tm": 303.15, 
	 "num_atms": 17, 
	 "gaussian": { 
		 "optdone": 1, 
		 "sigma_profile": "yes", 
		 "theory": "DFT", 
		 "functional": "B3LYP", 
		 "basiset": "6-31G**", 
		 "properties": { 
			 "R2extent": 1619.3233, 
			 "electric_dipole_moment_norm": 4.52568456037, 
			 "electric_quadrupole_moment_norm": 11.3276583194, 
			 "total_energy": -459.156734278, 
			 "HOMO_LUMO_gap": 0.25052, 
			 "cosmo_polarized_energy": -11.97, 
			 "cosmo_cavitation_energy": 20.63, 
			 "cosmo_dispersion_energy": -14.9, 
			 "cosmo_repulsion_energy": 1.23, 
			 "cosmo_total_nonelectrostatic_energy": 6.96, 
			 "SMD_solvation_energy": 5.68 
		},
		"coords": [
			{
				"x": -1.1637957583,
				"y": 0.4148539716,
				"z": -1.2040650401,
				"element": "C" 
			},
			{
				"x": -0.2468729102,
				"y": -0.7134790664,
				"z": -0.7101392236,
				"element": "C" 
			},
			{
				"x": -1.0748471005,
				"y": -1.8315362969,
				"z": -0.0376216283,
				"element": "C" 
			},
			{
				"x": 0.9100262794,
				"y": -0.2395634102,
				"z": 0.1894430482,
				"element": "C" 
			},
			{
				"x": 2.1448782293,
				"y": -0.9365187032,
				"z": -0.3525513883,
				"element": "C" 
			},
			{
				"x": 3.2398728963,
				"y": -1.0203034819,
				"z": 0.1220863348,
				"element": "O" 
			},
			{
				"x": 1.8421341312,
				"y": -1.500802863,
				"z": -1.5874704567,
				"element": "O" 
			},
			{
				"x": 0.4965243491,
				"y": -1.342140892,
				"z": -1.8949629995,
				"element": "C" 
			},
			{
				"x": 0.0487146599,
				"y": -1.7017634675,
				"z": -2.946082531,
				"element": "O" 
			},
			{
				"x": -0.5907145073,
				"y": 1.2171912475,
				"z": -1.6796049144,
				"element": "H" 
			},
			{
				"x": -1.8770450837,
				"y": 0.0295577606,
				"z": -1.9368837803,
				"element": "H" 
			},
			{
				"x": -1.7219961239,
				"y": 0.8436937316,
				"z": -0.3659204961,
				"element": "H" 
			},
			{
				"x": -1.7948938016,
				"y": -2.250681248,
				"z": -0.7452193926,
				"element": "H" 
			},
			{
				"x": -0.4369164884,
				"y": -2.6452501563,
				"z": 0.3230213501,
				"element": "H" 
			},
			{
				"x": -1.6228451565,
				"y": -1.4236293311,
				"z": 0.8175849189,
				"element": "H" 
			},
			{
				"x": 0.7881103188,
				"y": -0.4741018372,
				"z": 1.2496652958,
				"element": "H" 
			},
			{
				"x": 1.0784660664,
				"y": 0.8408740423,
				"z": 0.1130209033,
				"element": "H" 
			}
		],
		 "valence_orbital": [ 
			{
				"type": "occ",
				"energy": -0.37311,
				"method": "rhf"
			},
			{
				"type": "occ",
				"energy": -0.35866,
				"method": "rhf"
			},
			{
				"type": "occ",
				"energy": -0.33191,
				"method": "rhf"
			},
			{
				"type": "occ",
				"energy": -0.30508,
				"method": "rhf"
			},
			{
				"type": "occ",
				"energy": -0.28071,
				"method": "rhf"
			},
			{
				"type": "unocc",
				"energy": -0.03019,
				"method": "rhf"
			},
			{
				"type": "unocc",
				"energy": -0.00444,
				"method": "rhf"
			},
			{
				"type": "unocc",
				"energy": 0.06265,
				"method": "rhf"
			},
			{
				"type": "unocc",
				"energy": 0.10834,
				"method": "rhf"
			},
			{
				"type": "unocc",
				"energy": 0.12344,
				"method": "rhf"
			}
		],
		"cosmo_sigma_profile": { 
			"-0.025": 0.0,
			"-0.024": 0.0,
			"-0.023": 0.0,
			"-0.022": 0.0,
			"-0.021": 0.0,
			"-0.02": 0.0,
			"-0.019": 0.0,
			"-0.018": 0.0,
			"-0.017": 0.0,
			"-0.016": 0.0,
			"-0.015": 0.0,
			"-0.014": 0.0,
			"-0.013": 0.0,
			"-0.012": 0.0141991602912,
			"-0.011": 0.614168308714,
			"-0.01": 1.33885675679,
			"-0.009": 3.10984502122,
			"-0.008": 4.88495606885,
			"-0.007": 7.39130220618,
			"-0.006": 7.49233152712,
			"-0.005": 13.911213644,
			"-0.004": 16.6587732201,
			"-0.003": 13.0505894512,
			"-0.002": 12.3886828077,
			"-0.001": 14.0016060486,
			"0.0": 10.3243526072,
			"0.001": 3.39202512167,
			"0.002": 3.10578866409,
			"0.003": 4.24070464084,
			"0.004": 3.6748853986,
			"0.005": 3.29919368722,
			"0.006": 4.26835008077,
			"0.007": 7.37565532862,
			"0.008": 5.44110938428,
			"0.009": 5.99195870033,
			"0.01": 11.0229520115,
			"0.011": 5.19934687248,
			"0.012": 0.111643633651,
			"0.013": 0.0,
			"0.014": 0.0,
			"0.015": 0.0,
			"0.016": 0.0,
			"0.017": 0.0,
			"0.018": 0.0,
			"0.019": 0.0,
			"0.02": 0.0,
			"0.021": 0.0,
			"0.022": 0.0,
			"0.023": 0.0,
			"0.024": 0.0,
			"0.025": 0.0
		}
	}
}
