{
	 "smiles": "CC12CCC3C(CC(=C)C4=CC(=O)C=CC34C)C1CCC2=O", 
	 "Tm": 462.65, 
	 "num_atms": 46, 
	 "gaussian": { 
		 "optdone": 1, 
		 "sigma_profile": "yes", 
		 "theory": "DFT", 
		 "functional": "B3LYP", 
		 "basiset": "6-31G**", 
		 "properties": { 
			 "R2extent": 6603.5872, 
			 "electric_dipole_moment_norm": 6.11961683931, 
			 "electric_quadrupole_moment_norm": 20.2804822768, 
			 "total_energy": -927.006869451, 
			 "HOMO_LUMO_gap": 0.17174, 
			 "cosmo_polarized_energy": -16.66, 
			 "cosmo_cavitation_energy": 42.97, 
			 "cosmo_dispersion_energy": -29.03, 
			 "cosmo_repulsion_energy": 2.16, 
			 "cosmo_total_nonelectrostatic_energy": 16.11, 
			 "SMD_solvation_energy": 8.13 
		},
		"coords": [
			{
				"x": 2.095768385,
				"y": -1.438930319,
				"z": 3.1224321408,
				"element": "C" 
			},
			{
				"x": 1.721099024,
				"y": -0.7702382028,
				"z": 1.7770507839,
				"element": "C" 
			},
			{
				"x": 1.0647546105,
				"y": -1.8096984585,
				"z": 0.85730259,
				"element": "C" 
			},
			{
				"x": 0.4800579148,
				"y": -1.236999093,
				"z": -0.4505835878,
				"element": "C" 
			},
			{
				"x": -0.0304273118,
				"y": 0.2294126563,
				"z": -0.3586971066,
				"element": "C" 
			},
			{
				"x": -0.3702304492,
				"y": 0.6518874092,
				"z": 1.0880295701,
				"element": "C" 
			},
			{
				"x": -1.6293534927,
				"y": -0.0757350319,
				"z": 1.6059608091,
				"element": "C" 
			},
			{
				"x": -2.7968509385,
				"y": 0.0500029861,
				"z": 0.6433641156,
				"element": "C" 
			},
			{
				"x": -4.033176258,
				"y": 0.3758999798,
				"z": 1.0443807319,
				"element": "C" 
			},
			{
				"x": -2.4776392886,
				"y": -0.2145561464,
				"z": -0.7825313846,
				"element": "C" 
			},
			{
				"x": -3.2307294005,
				"y": -1.0367212011,
				"z": -1.5435479131,
				"element": "C" 
			},
			{
				"x": -2.9081198671,
				"y": -1.3533388093,
				"z": -2.9486728813,
				"element": "C" 
			},
			{
				"x": -3.6325116862,
				"y": -2.0696716205,
				"z": -3.6362574506,
				"element": "O" 
			},
			{
				"x": -1.6490875244,
				"y": -0.7792715468,
				"z": -3.4702980415,
				"element": "C" 
			},
			{
				"x": -0.8871295023,
				"y": 0.032285772,
				"z": -2.7237403452,
				"element": "C" 
			},
			{
				"x": -1.2396360125,
				"y": 0.4842277642,
				"z": -1.3295524546,
				"element": "C" 
			},
			{
				"x": -1.5429072141,
				"y": 2.0110443091,
				"z": -1.4368662238,
				"element": "C" 
			},
			{
				"x": 0.8652078428,
				"y": 0.5166212244,
				"z": 2.0167510172,
				"element": "C" 
			},
			{
				"x": 1.8381437128,
				"y": 1.739721989,
				"z": 1.8419915326,
				"element": "C" 
			},
			{
				"x": 3.2577761149,
				"y": 1.1861101558,
				"z": 1.6346456531,
				"element": "C" 
			},
			{
				"x": 3.0427987052,
				"y": -0.2512347992,
				"z": 1.1770427674,
				"element": "C" 
			},
			{
				"x": 3.7854305444,
				"y": -0.8941846775,
				"z": 0.4657206401,
				"element": "O" 
			},
			{
				"x": 2.5823882095,
				"y": -0.7363765362,
				"z": 3.8076755095,
				"element": "H" 
			},
			{
				"x": 2.7743697977,
				"y": -2.2825056847,
				"z": 2.9611090254,
				"element": "H" 
			},
			{
				"x": 1.1928979681,
				"y": -1.8130184271,
				"z": 3.6172112792,
				"element": "H" 
			},
			{
				"x": 1.8174757706,
				"y": -2.5660498004,
				"z": 0.6125643083,
				"element": "H" 
			},
			{
				"x": 0.2827963192,
				"y": -2.3260007025,
				"z": 1.4254019835,
				"element": "H" 
			},
			{
				"x": 1.2411473662,
				"y": -1.2862693244,
				"z": -1.2351311529,
				"element": "H" 
			},
			{
				"x": -0.3326465684,
				"y": -1.8922459336,
				"z": -0.7808635049,
				"element": "H" 
			},
			{
				"x": 0.7784108365,
				"y": 0.8883139194,
				"z": -0.7053683551,
				"element": "H" 
			},
			{
				"x": -0.6194799651,
				"y": 1.7201498816,
				"z": 1.0783190832,
				"element": "H" 
			},
			{
				"x": -1.9114149859,
				"y": 0.3190844521,
				"z": 2.5884684069,
				"element": "H" 
			},
			{
				"x": -1.4135250422,
				"y": -1.1420797889,
				"z": 1.74803973,
				"element": "H" 
			},
			{
				"x": -4.8519950697,
				"y": 0.4753110022,
				"z": 0.3387028979,
				"element": "H" 
			},
			{
				"x": -4.2581911157,
				"y": 0.557801713,
				"z": 2.091779962,
				"element": "H" 
			},
			{
				"x": -4.1055394714,
				"y": -1.5339491777,
				"z": -1.1340486708,
				"element": "H" 
			},
			{
				"x": -1.3814615443,
				"y": -1.0506730558,
				"z": -4.4874542809,
				"element": "H" 
			},
			{
				"x": 0.0309886297,
				"y": 0.4514463997,
				"z": -3.1353817907,
				"element": "H" 
			},
			{
				"x": -2.3271060982,
				"y": 2.1848755038,
				"z": -2.1784705022,
				"element": "H" 
			},
			{
				"x": -0.64645929,
				"y": 2.5560788006,
				"z": -1.7516970427,
				"element": "H" 
			},
			{
				"x": -1.8857456828,
				"y": 2.4251705632,
				"z": -0.4863106054,
				"element": "H" 
			},
			{
				"x": 0.496119654,
				"y": 0.5074419243,
				"z": 3.0490200274,
				"element": "H" 
			},
			{
				"x": 1.7758612224,
				"y": 2.4195328513,
				"z": 2.6959785069,
				"element": "H" 
			},
			{
				"x": 1.5434809717,
				"y": 2.3217494905,
				"z": 0.9621478867,
				"element": "H" 
			},
			{
				"x": 3.8665042915,
				"y": 1.7390607626,
				"z": 0.9155569298,
				"element": "H" 
			},
			{
				"x": 3.8226858881,
				"y": 1.1532168271,
				"z": 2.575925406,
				"element": "H" 
			}
		],
		 "valence_orbital": [ 
			{
				"type": "occ",
				"energy": -0.28334,
				"method": "rhf"
			},
			{
				"type": "occ",
				"energy": -0.26574,
				"method": "rhf"
			},
			{
				"type": "occ",
				"energy": -0.24672,
				"method": "rhf"
			},
			{
				"type": "occ",
				"energy": -0.24182,
				"method": "rhf"
			},
			{
				"type": "occ",
				"energy": -0.23336,
				"method": "rhf"
			},
			{
				"type": "unocc",
				"energy": -0.06162,
				"method": "rhf"
			},
			{
				"type": "unocc",
				"energy": -0.02324,
				"method": "rhf"
			},
			{
				"type": "unocc",
				"energy": -0.01388,
				"method": "rhf"
			},
			{
				"type": "unocc",
				"energy": 0.02471,
				"method": "rhf"
			},
			{
				"type": "unocc",
				"energy": 0.06083,
				"method": "rhf"
			}
		],
		"cosmo_sigma_profile": { 
			"-0.025": 0.0,
			"-0.024": 0.0,
			"-0.023": 0.0,
			"-0.022": 0.0,
			"-0.021": 0.0,
			"-0.02": 0.0,
			"-0.019": 0.0,
			"-0.018": 0.0,
			"-0.017": 0.0,
			"-0.016": 0.0,
			"-0.015": 0.0,
			"-0.014": 0.0,
			"-0.013": 0.0,
			"-0.012": 0.0,
			"-0.011": 0.0,
			"-0.01": 0.0,
			"-0.009": 0.0,
			"-0.008": 0.0,
			"-0.007": 0.771775455146,
			"-0.006": 7.99945392181,
			"-0.005": 18.9391467343,
			"-0.004": 34.5068698726,
			"-0.003": 46.6021612634,
			"-0.002": 45.0551329756,
			"-0.001": 40.5741219118,
			"0.0": 37.8978385034,
			"0.001": 25.4256316821,
			"0.002": 16.3305721505,
			"0.003": 10.1718545749,
			"0.004": 6.5375388001,
			"0.005": 4.13929521333,
			"0.006": 3.19961688308,
			"0.007": 3.64632866929,
			"0.008": 3.20529215966,
			"0.009": 2.39188132191,
			"0.01": 3.44280157368,
			"0.011": 4.37420077347,
			"0.012": 7.53802349748,
			"0.013": 6.64134904965,
			"0.014": 3.99646959661,
			"0.015": 1.07766232519,
			"0.016": 0.0,
			"0.017": 0.0,
			"0.018": 0.0,
			"0.019": 0.0,
			"0.02": 0.0,
			"0.021": 0.0,
			"0.022": 0.0,
			"0.023": 0.0,
			"0.024": 0.0,
			"0.025": 0.0
		}
	}
}
