{
	 "smiles": "CC1=CC=C(CC(O)=O)O1", 
	 "Tm": 330.15, 
	 "num_atms": 18, 
	 "gaussian": { 
		 "optdone": 1, 
		 "sigma_profile": "yes", 
		 "theory": "DFT", 
		 "functional": "B3LYP", 
		 "basiset": "6-31G**", 
		 "properties": { 
			 "R2extent": 1852.3483, 
			 "electric_dipole_moment_norm": 2.05301387234, 
			 "electric_quadrupole_moment_norm": 7.9910385927, 
			 "total_energy": -497.235347697, 
			 "HOMO_LUMO_gap": 0.21824, 
			 "cosmo_polarized_energy": -10.64, 
			 "cosmo_cavitation_energy": 22.96, 
			 "cosmo_dispersion_energy": -16.54, 
			 "cosmo_repulsion_energy": 1.4, 
			 "cosmo_total_nonelectrostatic_energy": 7.82, 
			 "SMD_solvation_energy": 5.86 
		},
		"coords": [
			{
				"x": 2.708053318,
				"y": -0.4919968846,
				"z": 0.8036955601,
				"element": "C" 
			},
			{
				"x": 1.8785510132,
				"y": 0.0556815498,
				"z": -0.3040052196,
				"element": "C" 
			},
			{
				"x": 2.0437921061,
				"y": 1.0776840028,
				"z": -1.1912976555,
				"element": "C" 
			},
			{
				"x": 0.8725902505,
				"y": 1.0981203737,
				"z": -2.0198839815,
				"element": "C" 
			},
			{
				"x": 0.0730011686,
				"y": 0.0865385583,
				"z": -1.5825760794,
				"element": "C" 
			},
			{
				"x": -1.2570916788,
				"y": -0.4335492841,
				"z": -2.007996456,
				"element": "C" 
			},
			{
				"x": -2.3683612205,
				"y": -0.2968843768,
				"z": -0.9731284056,
				"element": "C" 
			},
			{
				"x": -2.3969856205,
				"y": 0.9332281818,
				"z": -0.4114229294,
				"element": "O" 
			},
			{
				"x": -3.1642541289,
				"y": -1.1649697113,
				"z": -0.6962889795,
				"element": "O" 
			},
			{
				"x": 0.6759095697,
				"y": -0.5608529914,
				"z": -0.5352418422,
				"element": "O" 
			},
			{
				"x": 2.1826486735,
				"y": -0.4373205054,
				"z": 1.7642001164,
				"element": "H" 
			},
			{
				"x": 2.9664859741,
				"y": -1.5432428981,
				"z": 0.6310814405,
				"element": "H" 
			},
			{
				"x": 3.6357486445,
				"y": 0.0786577789,
				"z": 0.8885651324,
				"element": "H" 
			},
			{
				"x": 2.897482087,
				"y": 1.7379358238,
				"z": -1.2494006916,
				"element": "H" 
			},
			{
				"x": 0.6549978243,
				"y": 1.7787665134,
				"z": -2.8307874974,
				"element": "H" 
			},
			{
				"x": -1.2125759168,
				"y": -1.4939378746,
				"z": -2.2730639715,
				"element": "H" 
			},
			{
				"x": -1.5721649962,
				"y": 0.1197495435,
				"z": -2.89990423,
				"element": "H" 
			},
			{
				"x": -3.1392270674,
				"y": 0.9227922001,
				"z": 0.2161556898,
				"element": "H" 
			}
		],
		 "valence_orbital": [ 
			{
				"type": "occ",
				"energy": -0.36101,
				"method": "rhf"
			},
			{
				"type": "occ",
				"energy": -0.31888,
				"method": "rhf"
			},
			{
				"type": "occ",
				"energy": -0.27927,
				"method": "rhf"
			},
			{
				"type": "occ",
				"energy": -0.27166,
				"method": "rhf"
			},
			{
				"type": "occ",
				"energy": -0.21195,
				"method": "rhf"
			},
			{
				"type": "unocc",
				"energy": 0.00629,
				"method": "rhf"
			},
			{
				"type": "unocc",
				"energy": 0.01679,
				"method": "rhf"
			},
			{
				"type": "unocc",
				"energy": 0.07706,
				"method": "rhf"
			},
			{
				"type": "unocc",
				"energy": 0.07879,
				"method": "rhf"
			},
			{
				"type": "unocc",
				"energy": 0.10487,
				"method": "rhf"
			}
		],
		"cosmo_sigma_profile": { 
			"-0.025": 0.0,
			"-0.024": 0.0,
			"-0.023": 0.0,
			"-0.022": 0.0,
			"-0.021": 0.0,
			"-0.02": 0.0,
			"-0.019": 0.0944266138646,
			"-0.018": 0.832426004869,
			"-0.017": 1.07399760403,
			"-0.016": 0.884986603326,
			"-0.015": 0.789145368203,
			"-0.014": 0.473963041212,
			"-0.013": 0.338422629917,
			"-0.012": 0.396756921958,
			"-0.011": 1.53650141382,
			"-0.01": 0.632159697417,
			"-0.009": 0.692374253929,
			"-0.008": 3.11672328507,
			"-0.007": 4.81210838246,
			"-0.006": 9.13454356567,
			"-0.005": 11.9086103958,
			"-0.004": 15.2897294826,
			"-0.003": 13.4154998094,
			"-0.002": 12.5749382445,
			"-0.001": 14.7209977381,
			"0.0": 11.5683749009,
			"0.001": 8.90424534124,
			"0.002": 8.53041778821,
			"0.003": 8.52221010845,
			"0.004": 10.1077360165,
			"0.005": 8.27097981266,
			"0.006": 8.42677011158,
			"0.007": 5.26263744541,
			"0.008": 4.15263162552,
			"0.009": 3.86845322111,
			"0.01": 3.12164830124,
			"0.011": 4.45794050776,
			"0.012": 3.72857260217,
			"0.013": 0.447571312152,
			"0.014": 0.0,
			"0.015": 0.0,
			"0.016": 0.0,
			"0.017": 0.0,
			"0.018": 0.0,
			"0.019": 0.0,
			"0.02": 0.0,
			"0.021": 0.0,
			"0.022": 0.0,
			"0.023": 0.0,
			"0.024": 0.0,
			"0.025": 0.0
		}
	}
}
