{
	 "smiles": "CC(C)(C)OC(=O)NC1CCN(CC(O)=O)CC1", 
	 "Tm": 478.15, 
	 "num_atms": 40, 
	 "gaussian": { 
		 "optdone": 1, 
		 "sigma_profile": "yes", 
		 "theory": "DFT", 
		 "functional": "B3LYP", 
		 "basiset": "6-31G**", 
		 "properties": { 
			 "R2extent": 7196.7651, 
			 "electric_dipole_moment_norm": 3.29405943177, 
			 "electric_quadrupole_moment_norm": 13.3027040586, 
			 "total_energy": -880.97712225, 
			 "HOMO_LUMO_gap": 0.21035, 
			 "cosmo_polarized_energy": -15.79, 
			 "cosmo_cavitation_energy": 40.53, 
			 "cosmo_dispersion_energy": -27.96, 
			 "cosmo_repulsion_energy": 2.19, 
			 "cosmo_total_nonelectrostatic_energy": 14.77, 
			 "SMD_solvation_energy": 6.01 
		},
		"coords": [
			{
				"x": 0.3171991201,
				"y": -4.4504230279,
				"z": 0.1492481313,
				"element": "C" 
			},
			{
				"x": -1.1364353766,
				"y": -4.1132299642,
				"z": -0.1937317631,
				"element": "C" 
			},
			{
				"x": -1.5808651719,
				"y": -4.8516219954,
				"z": -1.4611610365,
				"element": "C" 
			},
			{
				"x": -2.0564842869,
				"y": -4.401778267,
				"z": 0.9977260404,
				"element": "C" 
			},
			{
				"x": -1.0782228432,
				"y": -2.6663000977,
				"z": -0.446547906,
				"element": "O" 
			},
			{
				"x": -2.1921364432,
				"y": -1.9781854282,
				"z": -0.8027549943,
				"element": "C" 
			},
			{
				"x": -3.3179008535,
				"y": -2.4395146289,
				"z": -0.9187896234,
				"element": "O" 
			},
			{
				"x": -1.8942934247,
				"y": -0.6641405427,
				"z": -1.0383393704,
				"element": "N" 
			},
			{
				"x": -0.6081857102,
				"y": -0.0010197271,
				"z": -0.8214245689,
				"element": "C" 
			},
			{
				"x": -0.3279310036,
				"y": 0.3355901744,
				"z": 0.6644340118,
				"element": "C" 
			},
			{
				"x": -0.87329716,
				"y": 1.7125113914,
				"z": 1.0545340357,
				"element": "C" 
			},
			{
				"x": -0.3192429483,
				"y": 2.797105154,
				"z": 0.2161524848,
				"element": "N" 
			},
			{
				"x": 0.3871609212,
				"y": 3.8400491232,
				"z": 0.9074061409,
				"element": "C" 
			},
			{
				"x": 1.7275083802,
				"y": 3.4517060062,
				"z": 1.5422554881,
				"element": "C" 
			},
			{
				"x": 2.3348177451,
				"y": 4.5315146833,
				"z": 2.0908037818,
				"element": "O" 
			},
			{
				"x": 2.2132557722,
				"y": 2.3418805153,
				"z": 1.5777574533,
				"element": "O" 
			},
			{
				"x": 0.3005648616,
				"y": 2.3657002895,
				"z": -1.0395038715,
				"element": "C" 
			},
			{
				"x": -0.560583701,
				"y": 1.2809874214,
				"z": -1.6873602067,
				"element": "C" 
			},
			{
				"x": 0.6480216485,
				"y": -3.886344077,
				"z": 1.0262118836,
				"element": "H" 
			},
			{
				"x": 0.9785117855,
				"y": -4.205811772,
				"z": -0.6872038862,
				"element": "H" 
			},
			{
				"x": 0.4143242677,
				"y": -5.5182836944,
				"z": 0.3668819763,
				"element": "H" 
			},
			{
				"x": -1.5127694909,
				"y": -5.9325518419,
				"z": -1.3001304768,
				"element": "H" 
			},
			{
				"x": -0.9274765983,
				"y": -4.5917327234,
				"z": -2.3002583184,
				"element": "H" 
			},
			{
				"x": -2.6084291399,
				"y": -4.5958918207,
				"z": -1.7200638298,
				"element": "H" 
			},
			{
				"x": -2.009854031,
				"y": -5.4664132311,
				"z": 1.2495118278,
				"element": "H" 
			},
			{
				"x": -1.7319023911,
				"y": -3.8316652845,
				"z": 1.874267808,
				"element": "H" 
			},
			{
				"x": -3.0878678218,
				"y": -4.1369241862,
				"z": 0.764798411,
				"element": "H" 
			},
			{
				"x": -2.7104631347,
				"y": -0.1012820694,
				"z": -1.2280832028,
				"element": "H" 
			},
			{
				"x": 0.16320682,
				"y": -0.6974513999,
				"z": -1.1592846028,
				"element": "H" 
			},
			{
				"x": 0.7521282622,
				"y": 0.3342999099,
				"z": 0.8383619043,
				"element": "H" 
			},
			{
				"x": -0.7619051293,
				"y": -0.4424368954,
				"z": 1.2995204323,
				"element": "H" 
			},
			{
				"x": -0.6386187208,
				"y": 1.9088115346,
				"z": 2.1060187086,
				"element": "H" 
			},
			{
				"x": -1.971823336,
				"y": 1.7115228881,
				"z": 0.975133552,
				"element": "H" 
			},
			{
				"x": -0.2358271189,
				"y": 4.2576813694,
				"z": 1.709021473,
				"element": "H" 
			},
			{
				"x": 0.5842930243,
				"y": 4.6766607115,
				"z": 0.2239494788,
				"element": "H" 
			},
			{
				"x": 3.1667308014,
				"y": 4.2110857646,
				"z": 2.4790995066,
				"element": "H" 
			},
			{
				"x": 0.3603762056,
				"y": 3.2357773651,
				"z": -1.7063086553,
				"element": "H" 
			},
			{
				"x": 1.3310361334,
				"y": 1.9943164415,
				"z": -0.9047923353,
				"element": "H" 
			},
			{
				"x": -0.1987686395,
				"y": 1.0512118799,
				"z": -2.6941695923,
				"element": "H" 
			},
			{
				"x": -1.5744512739,
				"y": 1.6880900513,
				"z": -1.7976862899,
				"element": "H" 
			}
		],
		 "valence_orbital": [ 
			{
				"type": "occ",
				"energy": -0.28574,
				"method": "rhf"
			},
			{
				"type": "occ",
				"energy": -0.28125,
				"method": "rhf"
			},
			{
				"type": "occ",
				"energy": -0.25265,
				"method": "rhf"
			},
			{
				"type": "occ",
				"energy": -0.23967,
				"method": "rhf"
			},
			{
				"type": "occ",
				"energy": -0.20662,
				"method": "rhf"
			},
			{
				"type": "unocc",
				"energy": 0.00373,
				"method": "rhf"
			},
			{
				"type": "unocc",
				"energy": 0.06013,
				"method": "rhf"
			},
			{
				"type": "unocc",
				"energy": 0.07246,
				"method": "rhf"
			},
			{
				"type": "unocc",
				"energy": 0.07625,
				"method": "rhf"
			},
			{
				"type": "unocc",
				"energy": 0.08891,
				"method": "rhf"
			}
		],
		"cosmo_sigma_profile": { 
			"-0.025": 0.0,
			"-0.024": 0.0,
			"-0.023": 0.0,
			"-0.022": 0.0,
			"-0.021": 0.0,
			"-0.02": 0.0,
			"-0.019": 0.0138662618284,
			"-0.018": 0.629117567357,
			"-0.017": 0.937924592093,
			"-0.016": 0.813769529612,
			"-0.015": 1.00948778519,
			"-0.014": 0.892954165214,
			"-0.013": 1.04693428662,
			"-0.012": 1.28291789503,
			"-0.011": 1.5470411316,
			"-0.01": 1.65171854492,
			"-0.009": 1.57617695017,
			"-0.008": 1.93763533441,
			"-0.007": 3.35907656821,
			"-0.006": 8.07528371798,
			"-0.005": 8.00976773771,
			"-0.004": 22.06609767,
			"-0.003": 34.3995993586,
			"-0.002": 37.1169683335,
			"-0.001": 37.0440548972,
			"0.0": 36.4912564766,
			"0.001": 29.5289586173,
			"0.002": 13.4649819024,
			"0.003": 9.95936345175,
			"0.004": 9.31150501041,
			"0.005": 8.59430680603,
			"0.006": 7.28167672463,
			"0.007": 5.12000404227,
			"0.008": 5.71909716235,
			"0.009": 4.78555148769,
			"0.01": 3.74467255819,
			"0.011": 4.62200288914,
			"0.012": 4.37574223213,
			"0.013": 3.04685052841,
			"0.014": 3.81662857895,
			"0.015": 0.497292498479,
			"0.016": 0.0,
			"0.017": 0.0,
			"0.018": 0.0,
			"0.019": 0.0,
			"0.02": 0.0,
			"0.021": 0.0,
			"0.022": 0.0,
			"0.023": 0.0,
			"0.024": 0.0,
			"0.025": 0.0
		}
	}
}
