{
	 "smiles": "OC(=O)C1=C(NS(=O)(=O)C2=CC=CC=C2)C=C(Cl)C=C1", 
	 "Tm": 463.15, 
	 "num_atms": 30, 
	 "gaussian": { 
		 "optdone": 1, 
		 "sigma_profile": "yes", 
		 "theory": "DFT", 
		 "functional": "B3LYP", 
		 "basiset": "6-31G**", 
		 "properties": { 
			 "R2extent": 7032.6002, 
			 "electric_dipole_moment_norm": 4.67843705312, 
			 "electric_quadrupole_moment_norm": 25.5711847115, 
			 "total_energy": -1715.38666195, 
			 "HOMO_LUMO_gap": 0.17791, 
			 "cosmo_polarized_energy": -17.22, 
			 "cosmo_cavitation_energy": 38.13, 
			 "cosmo_dispersion_energy": -26.74, 
			 "cosmo_repulsion_energy": 2.02, 
			 "cosmo_total_nonelectrostatic_energy": 13.41, 
			 "SMD_solvation_energy": 6.42 
		},
		"coords": [
			{
				"x": 0.4948183135,
				"y": -2.5349146924,
				"z": 1.2184100785,
				"element": "O" 
			},
			{
				"x": 1.1196051831,
				"y": -1.4126861432,
				"z": 1.6871526105,
				"element": "C" 
			},
			{
				"x": 1.2732688255,
				"y": -1.2498245698,
				"z": 2.8801591038,
				"element": "O" 
			},
			{
				"x": 1.572869802,
				"y": -0.4644944776,
				"z": 0.6378743349,
				"element": "C" 
			},
			{
				"x": 1.378845577,
				"y": -0.5961681136,
				"z": -0.765443234,
				"element": "C" 
			},
			{
				"x": 0.7290989795,
				"y": -1.7111782293,
				"z": -1.3163590661,
				"element": "N" 
			},
			{
				"x": -0.3097525769,
				"y": -1.7144729192,
				"z": -2.6631265359,
				"element": "S" 
			},
			{
				"x": -0.8006143491,
				"y": -3.0909439828,
				"z": -2.6908273238,
				"element": "O" 
			},
			{
				"x": 0.3964541734,
				"y": -1.1127215787,
				"z": -3.7933614642,
				"element": "O" 
			},
			{
				"x": -1.672498984,
				"y": -0.6309173015,
				"z": -2.2293230874,
				"element": "C" 
			},
			{
				"x": -2.7177324826,
				"y": -1.1406056828,
				"z": -1.4535699215,
				"element": "C" 
			},
			{
				"x": -3.7675317188,
				"y": -0.2952505831,
				"z": -1.0988787325,
				"element": "C" 
			},
			{
				"x": -3.7658166259,
				"y": 1.038784079,
				"z": -1.5166202951,
				"element": "C" 
			},
			{
				"x": -2.7195090082,
				"y": 1.5317241612,
				"z": -2.2985330618,
				"element": "C" 
			},
			{
				"x": -1.6625139429,
				"y": 0.6963603215,
				"z": -2.6632886413,
				"element": "C" 
			},
			{
				"x": 1.8903118864,
				"y": 0.3984288907,
				"z": -1.6184966602,
				"element": "C" 
			},
			{
				"x": 2.5449961253,
				"y": 1.5006040481,
				"z": -1.0859964191,
				"element": "C" 
			},
			{
				"x": 3.1592610585,
				"y": 2.7256518806,
				"z": -2.1786551216,
				"element": "Cl" 
			},
			{
				"x": 2.744018437,
				"y": 1.6530675271,
				"z": 0.2884156652,
				"element": "C" 
			},
			{
				"x": 2.2615004577,
				"y": 0.6608745179,
				"z": 1.1250767421,
				"element": "C" 
			},
			{
				"x": 0.267369297,
				"y": -3.0628891475,
				"z": 2.0018329075,
				"element": "H" 
			},
			{
				"x": 0.4452286288,
				"y": -2.4258301184,
				"z": -0.652152794,
				"element": "H" 
			},
			{
				"x": -2.7132096554,
				"y": -2.1837241645,
				"z": -1.156128829,
				"element": "H" 
			},
			{
				"x": -4.5899105808,
				"y": -0.6790309099,
				"z": -0.5029696925,
				"element": "H" 
			},
			{
				"x": -4.5868364736,
				"y": 1.6927185531,
				"z": -1.238094599,
				"element": "H" 
			},
			{
				"x": -2.7267058216,
				"y": 2.5648943403,
				"z": -2.6317592389,
				"element": "H" 
			},
			{
				"x": -0.8539828682,
				"y": 1.0549578862,
				"z": -3.2894656497,
				"element": "H" 
			},
			{
				"x": 1.7904779504,
				"y": 0.2846520317,
				"z": -2.6895640478,
				"element": "H" 
			},
			{
				"x": 3.2665108229,
				"y": 2.5172942868,
				"z": 0.6802395548,
				"element": "H" 
			},
			{
				"x": 2.3981795699,
				"y": 0.7321400904,
				"z": 2.1982534182,
				"element": "H" 
			}
		],
		 "valence_orbital": [ 
			{
				"type": "occ",
				"energy": -0.2983,
				"method": "rhf"
			},
			{
				"type": "occ",
				"energy": -0.28203,
				"method": "rhf"
			},
			{
				"type": "occ",
				"energy": -0.27929,
				"method": "rhf"
			},
			{
				"type": "occ",
				"energy": -0.2666,
				"method": "rhf"
			},
			{
				"type": "occ",
				"energy": -0.24529,
				"method": "rhf"
			},
			{
				"type": "unocc",
				"energy": -0.06738,
				"method": "rhf"
			},
			{
				"type": "unocc",
				"energy": -0.04974,
				"method": "rhf"
			},
			{
				"type": "unocc",
				"energy": -0.02877,
				"method": "rhf"
			},
			{
				"type": "unocc",
				"energy": -0.02412,
				"method": "rhf"
			},
			{
				"type": "unocc",
				"energy": 0.02041,
				"method": "rhf"
			}
		],
		"cosmo_sigma_profile": { 
			"-0.025": 0.0,
			"-0.024": 0.0,
			"-0.023": 0.0,
			"-0.022": 0.0,
			"-0.021": 0.0,
			"-0.02": 0.0,
			"-0.019": 0.597285606006,
			"-0.018": 0.815498176024,
			"-0.017": 1.10273524017,
			"-0.016": 0.500499471214,
			"-0.015": 0.932728986396,
			"-0.014": 0.684592356118,
			"-0.013": 0.707191613862,
			"-0.012": 0.881808397745,
			"-0.011": 0.757439188046,
			"-0.01": 0.376940683594,
			"-0.009": 1.06131611728,
			"-0.008": 3.31624265091,
			"-0.007": 12.7604663611,
			"-0.006": 18.4529437807,
			"-0.005": 17.1984075679,
			"-0.004": 17.4633271019,
			"-0.003": 18.9191987346,
			"-0.002": 18.9463218575,
			"-0.001": 20.6090848683,
			"0.0": 28.8814997283,
			"0.001": 33.4348599418,
			"0.002": 27.3588800365,
			"0.003": 22.9215951931,
			"0.004": 14.5867746865,
			"0.005": 5.47420213617,
			"0.006": 4.26032662606,
			"0.007": 4.18425938203,
			"0.008": 4.94543379365,
			"0.009": 6.35493103455,
			"0.01": 11.1165804769,
			"0.011": 8.92564584119,
			"0.012": 0.824052182897,
			"0.013": 0.0,
			"0.014": 0.0,
			"0.015": 0.0,
			"0.016": 0.0,
			"0.017": 0.0,
			"0.018": 0.0,
			"0.019": 0.0,
			"0.02": 0.0,
			"0.021": 0.0,
			"0.022": 0.0,
			"0.023": 0.0,
			"0.024": 0.0,
			"0.025": 0.0
		}
	}
}
