{
	 "smiles": "CN1C(=O)C=C(Br)C1=O", 
	 "Tm": 358.15, 
	 "num_atms": 13, 
	 "gaussian": { 
		 "optdone": 1, 
		 "sigma_profile": "yes", 
		 "theory": "DFT", 
		 "functional": "B3LYP", 
		 "basiset": "6-31G**", 
		 "properties": { 
			 "R2extent": 3472.4752, 
			 "electric_dipole_moment_norm": 0.534051739067, 
			 "electric_quadrupole_moment_norm": 10.7228632314, 
			 "total_energy": -2969.54294186, 
			 "HOMO_LUMO_gap": 0.17168, 
			 "cosmo_polarized_energy": -8.84, 
			 "cosmo_cavitation_energy": 20.55, 
			 "cosmo_dispersion_energy": -15.43, 
			 "cosmo_repulsion_energy": 1.27, 
			 "cosmo_total_nonelectrostatic_energy": 6.39, 
			 "SMD_solvation_energy": 4.3 
		},
		"coords": [
			{
				"x": 0.6241865791,
				"y": -0.2352595456,
				"z": -0.8081943677,
				"element": "C" 
			},
			{
				"x": -0.3295958502,
				"y": 0.086254176,
				"z": 0.2399409466,
				"element": "N" 
			},
			{
				"x": -1.6612560006,
				"y": -0.3539050284,
				"z": 0.2695835239,
				"element": "C" 
			},
			{
				"x": -2.1909689034,
				"y": -1.0550288804,
				"z": -0.5665865633,
				"element": "O" 
			},
			{
				"x": -2.2690226201,
				"y": 0.2109898763,
				"z": 1.5177229499,
				"element": "C" 
			},
			{
				"x": -1.3285072747,
				"y": 0.9242186508,
				"z": 2.1455098743,
				"element": "C" 
			},
			{
				"x": -1.4264222281,
				"y": 1.8817746624,
				"z": 3.7438591652,
				"element": "Br" 
			},
			{
				"x": -0.0388963532,
				"y": 0.8741824292,
				"z": 1.3488638167,
				"element": "C" 
			},
			{
				"x": 1.0228921516,
				"y": 1.3967987166,
				"z": 1.6019438929,
				"element": "O" 
			},
			{
				"x": 0.9796011009,
				"y": 0.6762977226,
				"z": -1.2955878519,
				"element": "H" 
			},
			{
				"x": 0.1090617457,
				"y": -0.8654424981,
				"z": -1.5338417655,
				"element": "H" 
			},
			{
				"x": 1.4816986221,
				"y": -0.7719131238,
				"z": -0.3941410615,
				"element": "H" 
			},
			{
				"x": -3.297170969,
				"y": 0.0299328424,
				"z": 1.7966274403,
				"element": "H" 
			}
		],
		 "valence_orbital": [ 
			{
				"type": "occ",
				"energy": -0.32057,
				"method": "rhf"
			},
			{
				"type": "occ",
				"energy": -0.30075,
				"method": "rhf"
			},
			{
				"type": "occ",
				"energy": -0.29633,
				"method": "rhf"
			},
			{
				"type": "occ",
				"energy": -0.28132,
				"method": "rhf"
			},
			{
				"type": "occ",
				"energy": -0.27569,
				"method": "rhf"
			},
			{
				"type": "unocc",
				"energy": -0.10401,
				"method": "rhf"
			},
			{
				"type": "unocc",
				"energy": -0.0053,
				"method": "rhf"
			},
			{
				"type": "unocc",
				"energy": 0.04462,
				"method": "rhf"
			},
			{
				"type": "unocc",
				"energy": 0.05438,
				"method": "rhf"
			},
			{
				"type": "unocc",
				"energy": 0.10565,
				"method": "rhf"
			}
		],
		"cosmo_sigma_profile": { 
			"-0.025": 0.0,
			"-0.024": 0.0,
			"-0.023": 0.0,
			"-0.022": 0.0,
			"-0.021": 0.0,
			"-0.02": 0.0,
			"-0.019": 0.0,
			"-0.018": 0.0,
			"-0.017": 0.0,
			"-0.016": 0.0,
			"-0.015": 0.0,
			"-0.014": 0.0,
			"-0.013": 0.0,
			"-0.012": 0.0,
			"-0.011": 0.518492874215,
			"-0.01": 1.96949224481,
			"-0.009": 1.20408198358,
			"-0.008": 1.88009684362,
			"-0.007": 3.24423800149,
			"-0.006": 11.8021246349,
			"-0.005": 13.8819768137,
			"-0.004": 15.9940298293,
			"-0.003": 20.110763904,
			"-0.002": 12.3304000739,
			"-0.001": 9.90140299827,
			"0.0": 8.57069939211,
			"0.001": 8.95883066749,
			"0.002": 12.2134985109,
			"0.003": 6.97772328616,
			"0.004": 4.33608726853,
			"0.005": 3.57528515101,
			"0.006": 3.36987457819,
			"0.007": 2.96898581388,
			"0.008": 4.13221452373,
			"0.009": 4.93257379257,
			"0.01": 9.10475729292,
			"0.011": 6.25163891487,
			"0.012": 0.461907089751,
			"0.013": 0.0,
			"0.014": 0.0,
			"0.015": 0.0,
			"0.016": 0.0,
			"0.017": 0.0,
			"0.018": 0.0,
			"0.019": 0.0,
			"0.02": 0.0,
			"0.021": 0.0,
			"0.022": 0.0,
			"0.023": 0.0,
			"0.024": 0.0,
			"0.025": 0.0
		}
	}
}
