{
	 "smiles": "CC(C)C1=CC=C(C=C(C(O)=O)C2=CC=CS2)C=C1", 
	 "Tm": 524.15, 
	 "num_atms": 35, 
	 "gaussian": { 
		 "optdone": 1, 
		 "sigma_profile": "yes", 
		 "theory": "DFT", 
		 "functional": "B3LYP", 
		 "basiset": "6-31G**", 
		 "properties": { 
			 "R2extent": 8914.3831, 
			 "electric_dipole_moment_norm": 1.52130373693, 
			 "electric_quadrupole_moment_norm": 11.4103577332, 
			 "total_energy": -1167.978861, 
			 "HOMO_LUMO_gap": 0.14363, 
			 "cosmo_polarized_energy": -11.88, 
			 "cosmo_cavitation_energy": 40.21, 
			 "cosmo_dispersion_energy": -28.62, 
			 "cosmo_repulsion_energy": 2.18, 
			 "cosmo_total_nonelectrostatic_energy": 13.77, 
			 "SMD_solvation_energy": 7.73 
		},
		"coords": [
			{
				"x": 2.5641201554,
				"y": -3.3724536663,
				"z": 2.2605261589,
				"element": "C" 
			},
			{
				"x": 1.7870920003,
				"y": -3.4930861192,
				"z": 0.9355192182,
				"element": "C" 
			},
			{
				"x": 0.549618155,
				"y": -4.3960018917,
				"z": 1.100215361,
				"element": "C" 
			},
			{
				"x": 1.4200309726,
				"y": -2.1297144302,
				"z": 0.3674852248,
				"element": "C" 
			},
			{
				"x": 0.5711072173,
				"y": -1.2500439412,
				"z": 1.0586312787,
				"element": "C" 
			},
			{
				"x": 0.237004131,
				"y": -0.004966885,
				"z": 0.5380472786,
				"element": "C" 
			},
			{
				"x": 0.7354439396,
				"y": 0.4155979108,
				"z": -0.710335687,
				"element": "C" 
			},
			{
				"x": 0.4385861754,
				"y": 1.7215724839,
				"z": -1.3053335898,
				"element": "C" 
			},
			{
				"x": -0.6619053522,
				"y": 2.5023972229,
				"z": -1.1706611251,
				"element": "C" 
			},
			{
				"x": -1.8726977664,
				"y": 2.0518920228,
				"z": -0.4000176891,
				"element": "C" 
			},
			{
				"x": -2.3976353161,
				"y": 0.91297465,
				"z": -0.9012209233,
				"element": "O" 
			},
			{
				"x": -2.3705483574,
				"y": 2.6402324029,
				"z": 0.5384915707,
				"element": "O" 
			},
			{
				"x": -0.7848758325,
				"y": 3.8315625624,
				"z": -1.7725012051,
				"element": "C" 
			},
			{
				"x": -1.7058039346,
				"y": 4.8183626698,
				"z": -1.4876109475,
				"element": "C" 
			},
			{
				"x": -1.5385479097,
				"y": 5.9968457499,
				"z": -2.2695128638,
				"element": "C" 
			},
			{
				"x": -0.4979900773,
				"y": 5.9074753786,
				"z": -3.151712691,
				"element": "C" 
			},
			{
				"x": 0.3007186222,
				"y": 4.3719383429,
				"z": -3.0457605082,
				"element": "S" 
			},
			{
				"x": 1.6116820334,
				"y": -0.4521829062,
				"z": -1.3860868051,
				"element": "C" 
			},
			{
				"x": 1.9353867683,
				"y": -1.7010059998,
				"z": -0.8623320163,
				"element": "C" 
			},
			{
				"x": 1.9501371501,
				"y": -2.9097703779,
				"z": 3.0409779821,
				"element": "H" 
			},
			{
				"x": 3.4638245658,
				"y": -2.7615259257,
				"z": 2.1385129581,
				"element": "H" 
			},
			{
				"x": 2.8686346092,
				"y": -4.361263061,
				"z": 2.6205448158,
				"element": "H" 
			},
			{
				"x": 2.4519681833,
				"y": -3.9753646136,
				"z": 0.2068922965,
				"element": "H" 
			},
			{
				"x": 0.8421124539,
				"y": -5.3910739023,
				"z": 1.4528713274,
				"element": "H" 
			},
			{
				"x": 0.0150403349,
				"y": -4.5131082917,
				"z": 0.1525055773,
				"element": "H" 
			},
			{
				"x": -0.1525948591,
				"y": -3.9785462171,
				"z": 1.8302181942,
				"element": "H" 
			},
			{
				"x": 0.174097276,
				"y": -1.535200276,
				"z": 2.0293552751,
				"element": "H" 
			},
			{
				"x": -0.3848072842,
				"y": 0.6636530893,
				"z": 1.1248041557,
				"element": "H" 
			},
			{
				"x": 1.2407781183,
				"y": 2.1174274797,
				"z": -1.9271244386,
				"element": "H" 
			},
			{
				"x": -3.1629106858,
				"y": 0.7001563808,
				"z": -0.3393757544,
				"element": "H" 
			},
			{
				"x": -2.4571288949,
				"y": 4.702135928,
				"z": -0.7175543179,
				"element": "H" 
			},
			{
				"x": -2.1664877308,
				"y": 6.8753210744,
				"z": -2.1741558651,
				"element": "H" 
			},
			{
				"x": -0.1501335973,
				"y": 6.6451644625,
				"z": -3.861530266,
				"element": "H" 
			},
			{
				"x": 2.0304318124,
				"y": -0.145633508,
				"z": -2.3413513524,
				"element": "H" 
			},
			{
				"x": 2.6056529241,
				"y": -2.3540677987,
				"z": -1.4161206272,
				"element": "H" 
			}
		],
		 "valence_orbital": [ 
			{
				"type": "occ",
				"energy": -0.27807,
				"method": "rhf"
			},
			{
				"type": "occ",
				"energy": -0.25213,
				"method": "rhf"
			},
			{
				"type": "occ",
				"energy": -0.2512,
				"method": "rhf"
			},
			{
				"type": "occ",
				"energy": -0.25026,
				"method": "rhf"
			},
			{
				"type": "occ",
				"energy": -0.20389,
				"method": "rhf"
			},
			{
				"type": "unocc",
				"energy": -0.06026,
				"method": "rhf"
			},
			{
				"type": "unocc",
				"energy": -0.00605,
				"method": "rhf"
			},
			{
				"type": "unocc",
				"energy": -2e-05,
				"method": "rhf"
			},
			{
				"type": "unocc",
				"energy": 0.00496,
				"method": "rhf"
			},
			{
				"type": "unocc",
				"energy": 0.0309,
				"method": "rhf"
			}
		],
		"cosmo_sigma_profile": { 
			"-0.025": 0.0,
			"-0.024": 0.0,
			"-0.023": 0.0,
			"-0.022": 0.0,
			"-0.021": 0.0,
			"-0.02": 0.0,
			"-0.019": 0.0,
			"-0.018": 1.26425522671,
			"-0.017": 0.563762425748,
			"-0.016": 0.721310857688,
			"-0.015": 0.787273075555,
			"-0.014": 1.20593318322,
			"-0.013": 0.863911793108,
			"-0.012": 0.192026629079,
			"-0.011": 0.561666963409,
			"-0.01": 0.95747344172,
			"-0.009": 1.02562822726,
			"-0.008": 3.10217178808,
			"-0.007": 4.80203661694,
			"-0.006": 10.0622089679,
			"-0.005": 16.067727722,
			"-0.004": 21.554807283,
			"-0.003": 25.3083871936,
			"-0.002": 28.9582782541,
			"-0.001": 28.4860872168,
			"0.0": 26.8839664859,
			"0.001": 31.9116570856,
			"0.002": 24.6320602164,
			"0.003": 22.468506557,
			"0.004": 25.1929589604,
			"0.005": 18.5571658548,
			"0.006": 6.10245851278,
			"0.007": 3.87390207161,
			"0.008": 3.13976143426,
			"0.009": 3.62959205731,
			"0.01": 2.62924751232,
			"0.011": 4.30267812543,
			"0.012": 1.46460491827,
			"0.013": 0.0,
			"0.014": 0.0,
			"0.015": 0.0,
			"0.016": 0.0,
			"0.017": 0.0,
			"0.018": 0.0,
			"0.019": 0.0,
			"0.02": 0.0,
			"0.021": 0.0,
			"0.022": 0.0,
			"0.023": 0.0,
			"0.024": 0.0,
			"0.025": 0.0
		}
	}
}
