{
	 "smiles": "C1CC2=CC=CC=C2CCC2=CC=CC=C12", 
	 "Tm": 382.15, 
	 "num_atms": 32, 
	 "gaussian": { 
		 "optdone": 1, 
		 "sigma_profile": "yes", 
		 "theory": "DFT", 
		 "functional": "B3LYP", 
		 "basiset": "6-31G**", 
		 "properties": { 
			 "R2extent": 4133.617, 
			 "electric_dipole_moment_norm": 0.0, 
			 "electric_quadrupole_moment_norm": 6.97393714053, 
			 "total_energy": -619.359806398, 
			 "HOMO_LUMO_gap": 0.22328, 
			 "cosmo_polarized_energy": -5.33, 
			 "cosmo_cavitation_energy": 32.52, 
			 "cosmo_dispersion_energy": -23.84, 
			 "cosmo_repulsion_energy": 1.81, 
			 "cosmo_total_nonelectrostatic_energy": 10.49, 
			 "SMD_solvation_energy": 4.56 
		},
		"coords": [
			{
				"x": 0.6153762941,
				"y": 1.0857400592,
				"z": 1.7103549098,
				"element": "C" 
			},
			{
				"x": 1.8045937998,
				"y": 0.3486429093,
				"z": 1.0051459956,
				"element": "C" 
			},
			{
				"x": 1.7448358569,
				"y": -1.1637990974,
				"z": 1.0711687689,
				"element": "C" 
			},
			{
				"x": 2.6193053474,
				"y": -1.8446887699,
				"z": 1.9284741685,
				"element": "C" 
			},
			{
				"x": 2.6007757654,
				"y": -3.2348894231,
				"z": 2.0429737431,
				"element": "C" 
			},
			{
				"x": 1.6941558185,
				"y": -3.9721481539,
				"z": 1.2839457461,
				"element": "C" 
			},
			{
				"x": 0.8209853114,
				"y": -3.307082939,
				"z": 0.4229158883,
				"element": "C" 
			},
			{
				"x": 0.8257881163,
				"y": -1.9111674745,
				"z": 0.3017165652,
				"element": "C" 
			},
			{
				"x": -0.1596767119,
				"y": -1.2486022476,
				"z": -0.6391872483,
				"element": "C" 
			},
			{
				"x": -1.3488956243,
				"y": -0.5115076888,
				"z": 0.0660237562,
				"element": "C" 
			},
			{
				"x": -1.2891372789,
				"y": 1.0009358656,
				"z": -0.0000002706,
				"element": "C" 
			},
			{
				"x": -2.1636073837,
				"y": 1.6818261879,
				"z": -0.8573047084,
				"element": "C" 
			},
			{
				"x": -2.1450732987,
				"y": 3.0720268835,
				"z": -0.9718036343,
				"element": "C" 
			},
			{
				"x": -1.2384525073,
				"y": 3.8092877433,
				"z": -0.2127817957,
				"element": "C" 
			},
			{
				"x": -0.3652814737,
				"y": 3.1442180803,
				"z": 0.6482504072,
				"element": "C" 
			},
			{
				"x": -0.3700898953,
				"y": 1.7483042098,
				"z": 0.7694502534,
				"element": "C" 
			},
			{
				"x": 1.0269662121,
				"y": 1.8581630859,
				"z": 2.3676443817,
				"element": "H" 
			},
			{
				"x": 0.0988065783,
				"y": 0.3756063424,
				"z": 2.3668342795,
				"element": "H" 
			},
			{
				"x": 1.859539989,
				"y": 0.6837838063,
				"z": -0.0373111366,
				"element": "H" 
			},
			{
				"x": 2.7395206329,
				"y": 0.6709395066,
				"z": 1.4742952279,
				"element": "H" 
			},
			{
				"x": 3.3316553389,
				"y": -1.2689422229,
				"z": 2.5149966828,
				"element": "H" 
			},
			{
				"x": 3.2917782615,
				"y": -3.7347262293,
				"z": 2.715855906,
				"element": "H" 
			},
			{
				"x": 1.6672743985,
				"y": -5.0557524201,
				"z": 1.3558673399,
				"element": "H" 
			},
			{
				"x": 0.1179954436,
				"y": -3.8822348566,
				"z": -0.1753577583,
				"element": "H" 
			},
			{
				"x": -0.5712711618,
				"y": -2.0210266182,
				"z": -1.2964722872,
				"element": "H" 
			},
			{
				"x": 0.3568924599,
				"y": -0.5384686375,
				"z": -1.295663121,
				"element": "H" 
			},
			{
				"x": -2.2838236875,
				"y": -0.8338033496,
				"z": -0.4031222735,
				"element": "H" 
			},
			{
				"x": -1.4038401183,
				"y": -0.8466452946,
				"z": 1.108483042,
				"element": "H" 
			},
			{
				"x": -2.8759618456,
				"y": 1.106082728,
				"z": -1.4438245779,
				"element": "H" 
			},
			{
				"x": -2.8360776052,
				"y": 3.571861924,
				"z": -1.6446873647,
				"element": "H" 
			},
			{
				"x": -1.2115641928,
				"y": 4.8928912943,
				"z": -0.2847022746,
				"element": "H" 
			},
			{
				"x": 0.3377071603,
				"y": 3.7193747965,
				"z": 1.2465213889,
				"element": "H" 
			}
		],
		 "valence_orbital": [ 
			{
				"type": "occ",
				"energy": -0.30731,
				"method": "rhf"
			},
			{
				"type": "occ",
				"energy": -0.24288,
				"method": "rhf"
			},
			{
				"type": "occ",
				"energy": -0.23872,
				"method": "rhf"
			},
			{
				"type": "occ",
				"energy": -0.2376,
				"method": "rhf"
			},
			{
				"type": "occ",
				"energy": -0.22639,
				"method": "rhf"
			},
			{
				"type": "unocc",
				"energy": -0.00311,
				"method": "rhf"
			},
			{
				"type": "unocc",
				"energy": 0.00578,
				"method": "rhf"
			},
			{
				"type": "unocc",
				"energy": 0.00584,
				"method": "rhf"
			},
			{
				"type": "unocc",
				"energy": 0.00973,
				"method": "rhf"
			},
			{
				"type": "unocc",
				"energy": 0.0871,
				"method": "rhf"
			}
		],
		"cosmo_sigma_profile": { 
			"-0.025": 0.0,
			"-0.024": 0.0,
			"-0.023": 0.0,
			"-0.022": 0.0,
			"-0.021": 0.0,
			"-0.02": 0.0,
			"-0.019": 0.0,
			"-0.018": 0.0,
			"-0.017": 0.0,
			"-0.016": 0.0,
			"-0.015": 0.0,
			"-0.014": 0.0,
			"-0.013": 0.0,
			"-0.012": 0.0,
			"-0.011": 0.0,
			"-0.01": 0.0,
			"-0.009": 0.0,
			"-0.008": 0.0,
			"-0.007": 0.0,
			"-0.006": 0.838737708912,
			"-0.005": 14.0215463147,
			"-0.004": 28.1276431507,
			"-0.003": 36.1606753263,
			"-0.002": 27.2711146976,
			"-0.001": 25.1169844003,
			"0.0": 26.8543781472,
			"0.001": 17.0908706469,
			"0.002": 15.5972156606,
			"0.003": 12.7999600377,
			"0.004": 14.3681242543,
			"0.005": 13.7406428017,
			"0.006": 14.6729952113,
			"0.007": 10.2035333512,
			"0.008": 0.193561806444,
			"0.009": 0.0,
			"0.01": 0.0,
			"0.011": 0.0,
			"0.012": 0.0,
			"0.013": 0.0,
			"0.014": 0.0,
			"0.015": 0.0,
			"0.016": 0.0,
			"0.017": 0.0,
			"0.018": 0.0,
			"0.019": 0.0,
			"0.02": 0.0,
			"0.021": 0.0,
			"0.022": 0.0,
			"0.023": 0.0,
			"0.024": 0.0,
			"0.025": 0.0
		}
	}
}
