{
	 "smiles": "NC1=C(Br)C=CC(=C1)[N+]([O-])=O", 
	 "Tm": 412.15, 
	 "num_atms": 16, 
	 "gaussian": { 
		 "optdone": 1, 
		 "sigma_profile": "yes", 
		 "theory": "DFT", 
		 "functional": "B3LYP", 
		 "basiset": "6-31G**", 
		 "properties": { 
			 "R2extent": 3915.0558, 
			 "electric_dipole_moment_norm": 4.27132921232, 
			 "electric_quadrupole_moment_norm": 14.0188510328, 
			 "total_energy": -3062.910343, 
			 "HOMO_LUMO_gap": 0.14196, 
			 "cosmo_polarized_energy": -10.78, 
			 "cosmo_cavitation_energy": 23.26, 
			 "cosmo_dispersion_energy": -17.85, 
			 "cosmo_repulsion_energy": 1.43, 
			 "cosmo_total_nonelectrostatic_energy": 6.84, 
			 "SMD_solvation_energy": 5.17 
		},
		"coords": [
			{
				"x": -1.338028066,
				"y": -1.493278184,
				"z": 1.5116030534,
				"element": "N" 
			},
			{
				"x": -1.0449976848,
				"y": -1.1974607177,
				"z": 0.1982255115,
				"element": "C" 
			},
			{
				"x": -0.2230380568,
				"y": -2.0264150776,
				"z": -0.5975657324,
				"element": "C" 
			},
			{
				"x": 0.444962508,
				"y": -3.6577846456,
				"z": 0.1405954548,
				"element": "Br" 
			},
			{
				"x": 0.1149483302,
				"y": -1.6965738513,
				"z": -1.907797396,
				"element": "C" 
			},
			{
				"x": -0.3592054533,
				"y": -0.5218463145,
				"z": -2.4837155228,
				"element": "C" 
			},
			{
				"x": -1.1746154518,
				"y": 0.2945815566,
				"z": -1.7031413516,
				"element": "C" 
			},
			{
				"x": -1.5218075467,
				"y": -0.0156004321,
				"z": -0.3953941459,
				"element": "C" 
			},
			{
				"x": -1.6980260593,
				"y": 1.5423802508,
				"z": -2.2853658875,
				"element": "N" 
			},
			{
				"x": -2.42311763,
				"y": 2.2440059805,
				"z": -1.5801485617,
				"element": "O" 
			},
			{
				"x": -1.3786911092,
				"y": 1.8077169053,
				"z": -3.4432896158,
				"element": "O" 
			},
			{
				"x": -2.1407827449,
				"y": -1.0336286773,
				"z": 1.913414452,
				"element": "H" 
			},
			{
				"x": -1.2040762899,
				"y": -2.4503275397,
				"z": 1.8039851412,
				"element": "H" 
			},
			{
				"x": 0.7488491721,
				"y": -2.3670942117,
				"z": -2.4762846141,
				"element": "H" 
			},
			{
				"x": -0.1146548702,
				"y": -0.2401053947,
				"z": -3.4987696888,
				"element": "H" 
			},
			{
				"x": -2.1562190474,
				"y": 0.665730353,
				"z": 0.1587489036,
				"element": "H" 
			}
		],
		 "valence_orbital": [ 
			{
				"type": "occ",
				"energy": -0.30981,
				"method": "rhf"
			},
			{
				"type": "occ",
				"energy": -0.30743,
				"method": "rhf"
			},
			{
				"type": "occ",
				"energy": -0.29098,
				"method": "rhf"
			},
			{
				"type": "occ",
				"energy": -0.27072,
				"method": "rhf"
			},
			{
				"type": "occ",
				"energy": -0.23182,
				"method": "rhf"
			},
			{
				"type": "unocc",
				"energy": -0.08986,
				"method": "rhf"
			},
			{
				"type": "unocc",
				"energy": -0.02231,
				"method": "rhf"
			},
			{
				"type": "unocc",
				"energy": -0.00988,
				"method": "rhf"
			},
			{
				"type": "unocc",
				"energy": 0.0034,
				"method": "rhf"
			},
			{
				"type": "unocc",
				"energy": 0.06886,
				"method": "rhf"
			}
		],
		"cosmo_sigma_profile": { 
			"-0.025": 0.0,
			"-0.024": 0.0,
			"-0.023": 0.0,
			"-0.022": 0.0,
			"-0.021": 0.0,
			"-0.02": 0.0,
			"-0.019": 0.0,
			"-0.018": 0.0,
			"-0.017": 0.0,
			"-0.016": 0.0,
			"-0.015": 0.035772930818,
			"-0.014": 1.26931562187,
			"-0.013": 1.89672438855,
			"-0.012": 1.99796722483,
			"-0.011": 2.67775305892,
			"-0.01": 2.7186403144,
			"-0.009": 2.10259022735,
			"-0.008": 4.20639404703,
			"-0.007": 6.12618944153,
			"-0.006": 7.00831825393,
			"-0.005": 7.2071583663,
			"-0.004": 8.70305379009,
			"-0.003": 9.04825470279,
			"-0.002": 10.2771698578,
			"-0.001": 11.8123806713,
			"0.0": 16.3718983446,
			"0.001": 23.85357377,
			"0.002": 16.8707273382,
			"0.003": 12.9392191607,
			"0.004": 8.40482433349,
			"0.005": 4.0983187841,
			"0.006": 4.33795374455,
			"0.007": 8.33825441163,
			"0.008": 8.63966431012,
			"0.009": 4.97375779057,
			"0.01": 3.16291372131,
			"0.011": 0.685406528451,
			"0.012": 0.0464977477834,
			"0.013": 0.0,
			"0.014": 0.0,
			"0.015": 0.0,
			"0.016": 0.0,
			"0.017": 0.0,
			"0.018": 0.0,
			"0.019": 0.0,
			"0.02": 0.0,
			"0.021": 0.0,
			"0.022": 0.0,
			"0.023": 0.0,
			"0.024": 0.0,
			"0.025": 0.0
		}
	}
}
