{
	 "smiles": "CCC1=CC(C)=NC(C)=C1", 
	 "Tm": 370.15, 
	 "num_atms": 23, 
	 "gaussian": { 
		 "optdone": 1, 
		 "sigma_profile": "yes", 
		 "theory": "DFT", 
		 "functional": "B3LYP", 
		 "basiset": "6-31G**", 
		 "properties": { 
			 "R2extent": 1923.4123, 
			 "electric_dipole_moment_norm": 1.96097934971, 
			 "electric_quadrupole_moment_norm": 6.39942904953, 
			 "total_energy": -405.568799248, 
			 "HOMO_LUMO_gap": 0.22853, 
			 "cosmo_polarized_energy": -5.59, 
			 "cosmo_cavitation_energy": 25.79, 
			 "cosmo_dispersion_energy": -18.57, 
			 "cosmo_repulsion_energy": 1.54, 
			 "cosmo_total_nonelectrostatic_energy": 8.76, 
			 "SMD_solvation_energy": 3.31 
		},
		"coords": [
			{
				"x": 3.0260798792,
				"y": 0.2460494767,
				"z": -0.7945613711,
				"element": "C" 
			},
			{
				"x": 1.9111749802,
				"y": -0.7829796101,
				"z": -0.5339782044,
				"element": "C" 
			},
			{
				"x": 0.5321738107,
				"y": -0.161315376,
				"z": -0.5486627571,
				"element": "C" 
			},
			{
				"x": -0.0422024851,
				"y": 0.363242757,
				"z": 0.6125037797,
				"element": "C" 
			},
			{
				"x": -1.3037868962,
				"y": 0.9655678461,
				"z": 0.5543311459,
				"element": "C" 
			},
			{
				"x": -1.9519280569,
				"y": 1.5377838302,
				"z": 1.792904806,
				"element": "C" 
			},
			{
				"x": -2.0000813096,
				"y": 1.0621048372,
				"z": -0.5902450651,
				"element": "N" 
			},
			{
				"x": -1.4615714625,
				"y": 0.5618868591,
				"z": -1.7145144818,
				"element": "C" 
			},
			{
				"x": -2.2834805431,
				"y": 0.6894368421,
				"z": -2.9753755848,
				"element": "C" 
			},
			{
				"x": -0.2051984354,
				"y": -0.0537510735,
				"z": -1.7310689677,
				"element": "C" 
			},
			{
				"x": 2.8974795549,
				"y": 0.7251996971,
				"z": -1.7703975423,
				"element": "H" 
			},
			{
				"x": 4.0104578849,
				"y": -0.2329133534,
				"z": -0.7778740769,
				"element": "H" 
			},
			{
				"x": 3.0182659588,
				"y": 1.0339101392,
				"z": -0.0345715161,
				"element": "H" 
			},
			{
				"x": 1.9629907415,
				"y": -1.572699102,
				"z": -1.292709323,
				"element": "H" 
			},
			{
				"x": 2.0831617887,
				"y": -1.2652972775,
				"z": 0.4354588823,
				"element": "H" 
			},
			{
				"x": 0.4856442923,
				"y": 0.3004530084,
				"z": 1.5613341426,
				"element": "H" 
			},
			{
				"x": -2.0883672193,
				"y": 0.7692501342,
				"z": 2.5625269077,
				"element": "H" 
			},
			{
				"x": -1.3369894848,
				"y": 2.3307131789,
				"z": 2.2342006936,
				"element": "H" 
			},
			{
				"x": -2.9275720596,
				"y": 1.9534445661,
				"z": 1.5361540759,
				"element": "H" 
			},
			{
				"x": -1.7523156906,
				"y": 1.2676370215,
				"z": -3.7403450658,
				"element": "H" 
			},
			{
				"x": -2.5036798266,
				"y": -0.2931141171,
				"z": -3.4085986618,
				"element": "H" 
			},
			{
				"x": -3.2254323096,
				"y": 1.1912927439,
				"z": -2.7485598664,
				"element": "H" 
			},
			{
				"x": 0.1918768883,
				"y": -0.4511030283,
				"z": -2.6623519496,
				"element": "H" 
			}
		],
		 "valence_orbital": [ 
			{
				"type": "occ",
				"energy": -0.34432,
				"method": "rhf"
			},
			{
				"type": "occ",
				"energy": -0.33465,
				"method": "rhf"
			},
			{
				"type": "occ",
				"energy": -0.26311,
				"method": "rhf"
			},
			{
				"type": "occ",
				"energy": -0.24142,
				"method": "rhf"
			},
			{
				"type": "occ",
				"energy": -0.23643,
				"method": "rhf"
			},
			{
				"type": "unocc",
				"energy": -0.0079,
				"method": "rhf"
			},
			{
				"type": "unocc",
				"energy": -0.00267,
				"method": "rhf"
			},
			{
				"type": "unocc",
				"energy": 0.0962,
				"method": "rhf"
			},
			{
				"type": "unocc",
				"energy": 0.12229,
				"method": "rhf"
			},
			{
				"type": "unocc",
				"energy": 0.12752,
				"method": "rhf"
			}
		],
		"cosmo_sigma_profile": { 
			"-0.025": 0.0,
			"-0.024": 0.0,
			"-0.023": 0.0,
			"-0.022": 0.0,
			"-0.021": 0.0,
			"-0.02": 0.0,
			"-0.019": 0.0,
			"-0.018": 0.0,
			"-0.017": 0.0,
			"-0.016": 0.0,
			"-0.015": 0.0,
			"-0.014": 0.0,
			"-0.013": 0.0,
			"-0.012": 0.0,
			"-0.011": 0.0,
			"-0.01": 0.0,
			"-0.009": 0.0,
			"-0.008": 0.0,
			"-0.007": 0.0,
			"-0.006": 0.685266334914,
			"-0.005": 5.22584836036,
			"-0.004": 17.6720529519,
			"-0.003": 25.362207038,
			"-0.002": 28.9831850379,
			"-0.001": 26.8745911647,
			"0.0": 28.9681205503,
			"0.001": 21.2807636583,
			"0.002": 9.94205482656,
			"0.003": 8.4375425033,
			"0.004": 11.9394614217,
			"0.005": 3.83467444768,
			"0.006": 2.28466407597,
			"0.007": 1.55031593165,
			"0.008": 1.8755504342,
			"0.009": 1.32817951356,
			"0.01": 1.01395765305,
			"0.011": 1.22227999835,
			"0.012": 0.657269417733,
			"0.013": 0.653691556438,
			"0.014": 1.21942042052,
			"0.015": 0.843586288347,
			"0.016": 0.468865746661,
			"0.017": 0.0,
			"0.018": 0.0,
			"0.019": 0.0,
			"0.02": 0.0,
			"0.021": 0.0,
			"0.022": 0.0,
			"0.023": 0.0,
			"0.024": 0.0,
			"0.025": 0.0
		}
	}
}
