{
	 "smiles": "CCC(=O)C1=CC=C(C=C1)C(=O)OC", 
	 "Tm": 356.15, 
	 "num_atms": 26, 
	 "gaussian": { 
		 "optdone": 1, 
		 "sigma_profile": "yes", 
		 "theory": "DFT", 
		 "functional": "B3LYP", 
		 "basiset": "6-31G**", 
		 "properties": { 
			 "R2extent": 4141.9224, 
			 "electric_dipole_moment_norm": 4.06294927977, 
			 "electric_quadrupole_moment_norm": 5.14434172368, 
			 "total_energy": -652.091470047, 
			 "HOMO_LUMO_gap": 0.1735, 
			 "cosmo_polarized_energy": -11.05, 
			 "cosmo_cavitation_energy": 30.4, 
			 "cosmo_dispersion_energy": -21.88, 
			 "cosmo_repulsion_energy": 1.73, 
			 "cosmo_total_nonelectrostatic_energy": 10.25, 
			 "SMD_solvation_energy": 7.41 
		},
		"coords": [
			{
				"x": 0.7375142695,
				"y": 1.3918211918,
				"z": -3.8455448213,
				"element": "C" 
			},
			{
				"x": 1.5107520953,
				"y": 0.0871304001,
				"z": -3.5703892736,
				"element": "C" 
			},
			{
				"x": 2.1473441221,
				"y": 0.0907175421,
				"z": -2.1859784386,
				"element": "C" 
			},
			{
				"x": 3.3203135987,
				"y": 0.406797858,
				"z": -2.0514517995,
				"element": "O" 
			},
			{
				"x": 1.3180344788,
				"y": -0.2562615576,
				"z": -0.9790548829,
				"element": "C" 
			},
			{
				"x": 1.928761433,
				"y": -0.1677191331,
				"z": 0.2831960831,
				"element": "C" 
			},
			{
				"x": 1.2182100382,
				"y": -0.4761578465,
				"z": 1.4349940008,
				"element": "C" 
			},
			{
				"x": -0.1225784482,
				"y": -0.8796238404,
				"z": 1.3474891473,
				"element": "C" 
			},
			{
				"x": -0.7408875744,
				"y": -0.9707637483,
				"z": 0.0940378631,
				"element": "C" 
			},
			{
				"x": -0.0234606601,
				"y": -0.6613613731,
				"z": -1.0593809284,
				"element": "C" 
			},
			{
				"x": -0.8390965767,
				"y": -1.1987918972,
				"z": 2.6174351124,
				"element": "C" 
			},
			{
				"x": -0.3378888051,
				"y": -1.1314673471,
				"z": 3.7224741225,
				"element": "O" 
			},
			{
				"x": -2.1204603517,
				"y": -1.5752411304,
				"z": 2.407328942,
				"element": "O" 
			},
			{
				"x": -2.865099232,
				"y": -1.8964809557,
				"z": 3.5929371109,
				"element": "C" 
			},
			{
				"x": -0.0932307885,
				"y": 1.5274902229,
				"z": -3.1463529992,
				"element": "H" 
			},
			{
				"x": 1.400912119,
				"y": 2.2566720705,
				"z": -3.7521869889,
				"element": "H" 
			},
			{
				"x": 0.3283860211,
				"y": 1.3859338515,
				"z": -4.8601214999,
				"element": "H" 
			},
			{
				"x": 2.3310230858,
				"y": -0.013619724,
				"z": -4.2857491375,
				"element": "H" 
			},
			{
				"x": 0.8490100417,
				"y": -0.7769036671,
				"z": -3.6949411436,
				"element": "H" 
			},
			{
				"x": 2.9660753682,
				"y": 0.1457630977,
				"z": 0.327830197,
				"element": "H" 
			},
			{
				"x": 1.6778474605,
				"y": -0.412609361,
				"z": 2.4154126447,
				"element": "H" 
			},
			{
				"x": -1.7764270891,
				"y": -1.2835384812,
				"z": 0.0290761056,
				"element": "H" 
			},
			{
				"x": -0.5180849725,
				"y": -0.7390909434,
				"z": -2.0215644819,
				"element": "H" 
			},
			{
				"x": -2.9164307521,
				"y": -1.0326187215,
				"z": 4.2602988861,
				"element": "H" 
			},
			{
				"x": -2.3967501612,
				"y": -2.7264777545,
				"z": 4.1277349126,
				"element": "H" 
			},
			{
				"x": -3.8607887202,
				"y": -2.1749987526,
				"z": 3.2482712671,
				"element": "H" 
			}
		],
		 "valence_orbital": [ 
			{
				"type": "occ",
				"energy": -0.30789,
				"method": "rhf"
			},
			{
				"type": "occ",
				"energy": -0.28007,
				"method": "rhf"
			},
			{
				"type": "occ",
				"energy": -0.2683,
				"method": "rhf"
			},
			{
				"type": "occ",
				"energy": -0.26599,
				"method": "rhf"
			},
			{
				"type": "occ",
				"energy": -0.25042,
				"method": "rhf"
			},
			{
				"type": "unocc",
				"energy": -0.07692,
				"method": "rhf"
			},
			{
				"type": "unocc",
				"energy": -0.01659,
				"method": "rhf"
			},
			{
				"type": "unocc",
				"energy": -0.0037,
				"method": "rhf"
			},
			{
				"type": "unocc",
				"energy": 0.06886,
				"method": "rhf"
			},
			{
				"type": "unocc",
				"energy": 0.08591,
				"method": "rhf"
			}
		],
		"cosmo_sigma_profile": { 
			"-0.025": 0.0,
			"-0.024": 0.0,
			"-0.023": 0.0,
			"-0.022": 0.0,
			"-0.021": 0.0,
			"-0.02": 0.0,
			"-0.019": 0.0,
			"-0.018": 0.0,
			"-0.017": 0.0,
			"-0.016": 0.0,
			"-0.015": 0.0,
			"-0.014": 0.0,
			"-0.013": 0.0,
			"-0.012": 0.0,
			"-0.011": 0.0,
			"-0.01": 0.0,
			"-0.009": 0.0,
			"-0.008": 0.821040838313,
			"-0.007": 4.52568744387,
			"-0.006": 12.7383204629,
			"-0.005": 17.2261328943,
			"-0.004": 22.110783456,
			"-0.003": 25.7960638279,
			"-0.002": 24.6165895023,
			"-0.001": 22.3684219049,
			"0.0": 21.4850392342,
			"0.001": 18.3565382813,
			"0.002": 19.3302959184,
			"0.003": 10.7107294357,
			"0.004": 5.24025488185,
			"0.005": 5.17065414418,
			"0.006": 3.36217701818,
			"0.007": 2.9083154388,
			"0.008": 2.66565107896,
			"0.009": 3.21925191523,
			"0.01": 4.94665137861,
			"0.011": 6.70476633405,
			"0.012": 6.10128246459,
			"0.013": 1.16137218284,
			"0.014": 0.0413374598057,
			"0.015": 0.0,
			"0.016": 0.0,
			"0.017": 0.0,
			"0.018": 0.0,
			"0.019": 0.0,
			"0.02": 0.0,
			"0.021": 0.0,
			"0.022": 0.0,
			"0.023": 0.0,
			"0.024": 0.0,
			"0.025": 0.0
		}
	}
}
