{
	 "smiles": "CC1CCC(C)N1C1=CNN=C1", 
	 "Tm": 339.15, 
	 "num_atms": 27, 
	 "gaussian": { 
		 "optdone": 1, 
		 "sigma_profile": "yes", 
		 "theory": "DFT", 
		 "functional": "B3LYP", 
		 "basiset": "6-31G**", 
		 "properties": { 
			 "R2extent": 2199.2381, 
			 "electric_dipole_moment_norm": 2.64215453371, 
			 "electric_quadrupole_moment_norm": 13.304039756, 
			 "total_energy": -516.226678159, 
			 "HOMO_LUMO_gap": 0.20732, 
			 "cosmo_polarized_energy": -9.82, 
			 "cosmo_cavitation_energy": 27.73, 
			 "cosmo_dispersion_energy": -20.11, 
			 "cosmo_repulsion_energy": 1.61, 
			 "cosmo_total_nonelectrostatic_energy": 9.24, 
			 "SMD_solvation_energy": 2.88 
		},
		"coords": [
			{
				"x": 2.7491502265,
				"y": 0.946789418,
				"z": -0.5890209462,
				"element": "C" 
			},
			{
				"x": 1.4103308544,
				"y": 0.503621387,
				"z": -1.1835670589,
				"element": "C" 
			},
			{
				"x": 1.5514434726,
				"y": -0.6715010926,
				"z": -2.1623372108,
				"element": "C" 
			},
			{
				"x": 0.1581043249,
				"y": -1.3060180003,
				"z": -2.1619896465,
				"element": "C" 
			},
			{
				"x": -0.353112036,
				"y": -1.1373263709,
				"z": -0.7136008214,
				"element": "C" 
			},
			{
				"x": -1.8635101465,
				"y": -0.8804760938,
				"z": -0.6689484485,
				"element": "C" 
			},
			{
				"x": 0.4866500612,
				"y": -0.0367950244,
				"z": -0.1803742755,
				"element": "N" 
			},
			{
				"x": 0.054370715,
				"y": 0.7472557764,
				"z": 0.8880881922,
				"element": "C" 
			},
			{
				"x": 0.0852758803,
				"y": 2.131296849,
				"z": 1.0276667911,
				"element": "C" 
			},
			{
				"x": -0.4184254451,
				"y": 2.4001616587,
				"z": 2.2685988638,
				"element": "N" 
			},
			{
				"x": -0.7898335746,
				"y": 1.2996494161,
				"z": 2.944260925,
				"element": "N" 
			},
			{
				"x": -0.497921125,
				"y": 0.2937727203,
				"z": 2.1206808822,
				"element": "C" 
			},
			{
				"x": 2.6299119021,
				"y": 1.756561507,
				"z": 0.1352555307,
				"element": "H" 
			},
			{
				"x": 3.2304298052,
				"y": 0.1069947096,
				"z": -0.0777038905,
				"element": "H" 
			},
			{
				"x": 3.4143634144,
				"y": 1.3000297658,
				"z": -1.384414657,
				"element": "H" 
			},
			{
				"x": 0.9609349389,
				"y": 1.3641472567,
				"z": -1.7183721889,
				"element": "H" 
			},
			{
				"x": 2.2971646451,
				"y": -1.375474336,
				"z": -1.7735388678,
				"element": "H" 
			},
			{
				"x": 1.8802634334,
				"y": -0.3483092331,
				"z": -3.1545220071,
				"element": "H" 
			},
			{
				"x": 0.15676482,
				"y": -2.352857342,
				"z": -2.4796768086,
				"element": "H" 
			},
			{
				"x": -0.5021673003,
				"y": -0.7565160164,
				"z": -2.8443081341,
				"element": "H" 
			},
			{
				"x": -0.1453932633,
				"y": -2.0554409049,
				"z": -0.1410960734,
				"element": "H" 
			},
			{
				"x": -2.1185553112,
				"y": 0.0304558434,
				"z": -1.2213277658,
				"element": "H" 
			},
			{
				"x": -2.3914615974,
				"y": -1.7212088669,
				"z": -1.1325965837,
				"element": "H" 
			},
			{
				"x": -2.2369203069,
				"y": -0.7705453478,
				"z": 0.3518772247,
				"element": "H" 
			},
			{
				"x": 0.4203418879,
				"y": 2.9143669498,
				"z": 0.3652925813,
				"element": "H" 
			},
			{
				"x": -0.5102354326,
				"y": 3.3001161234,
				"z": 2.7112550238,
				"element": "H" 
			},
			{
				"x": -0.6915648431,
				"y": -0.725450752,
				"z": 2.4265193702,
				"element": "H" 
			}
		],
		 "valence_orbital": [ 
			{
				"type": "occ",
				"energy": -0.32358,
				"method": "rhf"
			},
			{
				"type": "occ",
				"energy": -0.27965,
				"method": "rhf"
			},
			{
				"type": "occ",
				"energy": -0.26666,
				"method": "rhf"
			},
			{
				"type": "occ",
				"energy": -0.24054,
				"method": "rhf"
			},
			{
				"type": "occ",
				"energy": -0.17726,
				"method": "rhf"
			},
			{
				"type": "unocc",
				"energy": 0.03006,
				"method": "rhf"
			},
			{
				"type": "unocc",
				"energy": 0.0811,
				"method": "rhf"
			},
			{
				"type": "unocc",
				"energy": 0.08591,
				"method": "rhf"
			},
			{
				"type": "unocc",
				"energy": 0.0882,
				"method": "rhf"
			},
			{
				"type": "unocc",
				"energy": 0.11132,
				"method": "rhf"
			}
		],
		"cosmo_sigma_profile": { 
			"-0.025": 0.0,
			"-0.024": 0.0,
			"-0.023": 0.0,
			"-0.022": 0.0,
			"-0.021": 0.0,
			"-0.02": 0.0,
			"-0.019": 0.0,
			"-0.018": 0.0,
			"-0.017": 0.0,
			"-0.016": 0.874112428268,
			"-0.015": 1.68055297133,
			"-0.014": 1.41339269426,
			"-0.013": 0.638996524448,
			"-0.012": 1.14932935023,
			"-0.011": 0.663732472206,
			"-0.01": 1.32991644499,
			"-0.009": 0.776387469558,
			"-0.008": 1.866910769,
			"-0.007": 3.26082278213,
			"-0.006": 3.06280385777,
			"-0.005": 4.23068040375,
			"-0.004": 5.30243278987,
			"-0.003": 18.0267156502,
			"-0.002": 32.8321816598,
			"-0.001": 36.0219294221,
			"0.0": 25.6796380446,
			"0.001": 22.5091116847,
			"0.002": 10.3990392905,
			"0.003": 5.15931525474,
			"0.004": 6.00831549406,
			"0.005": 5.88952252673,
			"0.006": 7.16751548048,
			"0.007": 4.79580720518,
			"0.008": 2.78122320464,
			"0.009": 2.39910079622,
			"0.01": 1.73144138422,
			"0.011": 1.73206353971,
			"0.012": 1.5657239075,
			"0.013": 1.08514102743,
			"0.014": 1.25872472604,
			"0.015": 0.828828982491,
			"0.016": 1.59152005229,
			"0.017": 0.29269190347,
			"0.018": 0.0,
			"0.019": 0.0,
			"0.02": 0.0,
			"0.021": 0.0,
			"0.022": 0.0,
			"0.023": 0.0,
			"0.024": 0.0,
			"0.025": 0.0
		}
	}
}
