{
	 "smiles": "NC(=S)CC1=CC(F)=CC=C1", 
	 "Tm": 343.15, 
	 "num_atms": 19, 
	 "gaussian": { 
		 "optdone": 1, 
		 "sigma_profile": "yes", 
		 "theory": "DFT", 
		 "functional": "B3LYP", 
		 "basiset": "6-31G**", 
		 "properties": { 
			 "R2extent": 2761.8756, 
			 "electric_dipole_moment_norm": 4.91457473033, 
			 "electric_quadrupole_moment_norm": 17.7002497059, 
			 "total_energy": -862.457154743, 
			 "HOMO_LUMO_gap": 0.17465, 
			 "cosmo_polarized_energy": -14.87, 
			 "cosmo_cavitation_energy": 25.37, 
			 "cosmo_dispersion_energy": -18.53, 
			 "cosmo_repulsion_energy": 1.44, 
			 "cosmo_total_nonelectrostatic_energy": 8.28, 
			 "SMD_solvation_energy": 3.74 
		},
		"coords": [
			{
				"x": 0.5170138514,
				"y": -0.0435350696,
				"z": -2.9106386902,
				"element": "N" 
			},
			{
				"x": 0.1404182953,
				"y": 1.2061624224,
				"z": -2.5938921869,
				"element": "C" 
			},
			{
				"x": -0.7244998789,
				"y": 2.1802640345,
				"z": -3.6286818528,
				"element": "S" 
			},
			{
				"x": 0.6152596242,
				"y": 1.7088748825,
				"z": -1.2252500249,
				"element": "C" 
			},
			{
				"x": 0.9104993908,
				"y": 0.6430400381,
				"z": -0.1899326054,
				"element": "C" 
			},
			{
				"x": -0.1265815854,
				"y": 0.1220097466,
				"z": 0.5971203597,
				"element": "C" 
			},
			{
				"x": 0.1572357514,
				"y": -0.8680773513,
				"z": 1.5289309973,
				"element": "C" 
			},
			{
				"x": -0.847498517,
				"y": -1.3566450231,
				"z": 2.2831023776,
				"element": "F" 
			},
			{
				"x": 1.4410136467,
				"y": -1.3733453755,
				"z": 1.7117663973,
				"element": "C" 
			},
			{
				"x": 2.4701810274,
				"y": -0.8558208505,
				"z": 0.9263937709,
				"element": "C" 
			},
			{
				"x": 2.2101462923,
				"y": 0.1431405478,
				"z": -0.016076885,
				"element": "C" 
			},
			{
				"x": 0.9988381215,
				"y": -0.6333273502,
				"z": -2.2458785459,
				"element": "H" 
			},
			{
				"x": 0.2461834497,
				"y": -0.4217026028,
				"z": -3.806589918,
				"element": "H" 
			},
			{
				"x": 1.5163920173,
				"y": 2.3052211807,
				"z": -1.4134427111,
				"element": "H" 
			},
			{
				"x": -0.1420500931,
				"y": 2.406543542,
				"z": -0.8632072126,
				"element": "H" 
			},
			{
				"x": -1.145984215,
				"y": 0.4806884833,
				"z": 0.4955931497,
				"element": "H" 
			},
			{
				"x": 1.61444195,
				"y": -2.1445003439,
				"z": 2.4541460474,
				"element": "H" 
			},
			{
				"x": 3.4822082068,
				"y": -1.2275387074,
				"z": 1.0557725615,
				"element": "H" 
			},
			{
				"x": 3.0242826646,
				"y": 0.5503477964,
				"z": -0.6097350288,
				"element": "H" 
			}
		],
		 "valence_orbital": [ 
			{
				"type": "occ",
				"energy": -0.34813,
				"method": "rhf"
			},
			{
				"type": "occ",
				"energy": -0.27236,
				"method": "rhf"
			},
			{
				"type": "occ",
				"energy": -0.26061,
				"method": "rhf"
			},
			{
				"type": "occ",
				"energy": -0.23007,
				"method": "rhf"
			},
			{
				"type": "occ",
				"energy": -0.20617,
				"method": "rhf"
			},
			{
				"type": "unocc",
				"energy": -0.03152,
				"method": "rhf"
			},
			{
				"type": "unocc",
				"energy": -0.02953,
				"method": "rhf"
			},
			{
				"type": "unocc",
				"energy": -0.01441,
				"method": "rhf"
			},
			{
				"type": "unocc",
				"energy": 0.07019,
				"method": "rhf"
			},
			{
				"type": "unocc",
				"energy": 0.0816,
				"method": "rhf"
			}
		],
		"cosmo_sigma_profile": { 
			"-0.025": 0.0,
			"-0.024": 0.0,
			"-0.023": 0.0,
			"-0.022": 0.0,
			"-0.021": 0.0,
			"-0.02": 0.0,
			"-0.019": 0.0,
			"-0.018": 0.0,
			"-0.017": 0.0,
			"-0.016": 0.0,
			"-0.015": 0.872485796087,
			"-0.014": 1.28063147174,
			"-0.013": 2.29449551062,
			"-0.012": 2.26704035664,
			"-0.011": 1.88241558056,
			"-0.01": 1.67623174942,
			"-0.009": 1.36556306399,
			"-0.008": 2.39903519938,
			"-0.007": 10.4178811601,
			"-0.006": 14.4794398374,
			"-0.005": 13.0652073204,
			"-0.004": 11.8692976515,
			"-0.003": 10.6211566656,
			"-0.002": 9.51019256206,
			"-0.001": 9.96411093027,
			"0.0": 12.0492396111,
			"0.001": 15.6855557882,
			"0.002": 12.7810778885,
			"0.003": 13.4360491099,
			"0.004": 17.3138308233,
			"0.005": 6.89997465965,
			"0.006": 3.36516777346,
			"0.007": 4.48819107163,
			"0.008": 4.43749223228,
			"0.009": 6.19431832317,
			"0.01": 5.73955228659,
			"0.011": 4.84644915576,
			"0.012": 3.04186363866,
			"0.013": 0.90089298898,
			"0.014": 0.0,
			"0.015": 0.0,
			"0.016": 0.0,
			"0.017": 0.0,
			"0.018": 0.0,
			"0.019": 0.0,
			"0.02": 0.0,
			"0.021": 0.0,
			"0.022": 0.0,
			"0.023": 0.0,
			"0.024": 0.0,
			"0.025": 0.0
		}
	}
}
