{
	 "smiles": "CC(=O)OOC(C)=O", 
	 "Tm": 303.15, 
	 "num_atms": 14, 
	 "gaussian": { 
		 "optdone": 1, 
		 "sigma_profile": "yes", 
		 "theory": "DFT", 
		 "functional": "B3LYP", 
		 "basiset": "6-31G**", 
		 "properties": { 
			 "R2extent": 1855.3338, 
			 "electric_dipole_moment_norm": 1.15749069111, 
			 "electric_quadrupole_moment_norm": 12.6751967858, 
			 "total_energy": -456.869451658, 
			 "HOMO_LUMO_gap": 0.2743, 
			 "cosmo_polarized_energy": -9.64, 
			 "cosmo_cavitation_energy": 19.36, 
			 "cosmo_dispersion_energy": -13.85, 
			 "cosmo_repulsion_energy": 1.2, 
			 "cosmo_total_nonelectrostatic_energy": 6.71, 
			 "SMD_solvation_energy": 5.66 
		},
		"coords": [
			{
				"x": 0.1214829616,
				"y": 3.9381174489,
				"z": 1.1125667386,
				"element": "C" 
			},
			{
				"x": -0.0625412356,
				"y": 2.5748314563,
				"z": 0.4916762794,
				"element": "C" 
			},
			{
				"x": -1.0782319964,
				"y": 1.9452103567,
				"z": 0.3910817232,
				"element": "O" 
			},
			{
				"x": 1.168179393,
				"y": 2.1604867242,
				"z": 0.012627488,
				"element": "O" 
			},
			{
				"x": 1.0661570136,
				"y": 0.8709601593,
				"z": -0.6231956357,
				"element": "O" 
			},
			{
				"x": 0.6299493829,
				"y": 0.9970067545,
				"z": -1.9307421382,
				"element": "C" 
			},
			{
				"x": 0.5208443274,
				"y": -0.390556725,
				"z": -2.5144171813,
				"element": "C" 
			},
			{
				"x": 0.3712191067,
				"y": 2.039766671,
				"z": -2.4635496572,
				"element": "O" 
			},
			{
				"x": -0.6403016591,
				"y": 4.0756220037,
				"z": 1.8806046974,
				"element": "H" 
			},
			{
				"x": -0.0204964162,
				"y": 4.694752411,
				"z": 0.3344067884,
				"element": "H" 
			},
			{
				"x": 1.1201208718,
				"y": 4.0616086879,
				"z": 1.5351149381,
				"element": "H" 
			},
			{
				"x": -0.4826734314,
				"y": -0.7752953517,
				"z": -2.306773643,
				"element": "H" 
			},
			{
				"x": 0.656118523,
				"y": -0.3246188587,
				"z": -3.5944499865,
				"element": "H" 
			},
			{
				"x": 1.2496731586,
				"y": -1.0748917381,
				"z": -2.0767504113,
				"element": "H" 
			}
		],
		 "valence_orbital": [ 
			{
				"type": "occ",
				"energy": -0.38793,
				"method": "rhf"
			},
			{
				"type": "occ",
				"energy": -0.33099,
				"method": "rhf"
			},
			{
				"type": "occ",
				"energy": -0.32508,
				"method": "rhf"
			},
			{
				"type": "occ",
				"energy": -0.29242,
				"method": "rhf"
			},
			{
				"type": "occ",
				"energy": -0.28641,
				"method": "rhf"
			},
			{
				"type": "unocc",
				"energy": -0.01211,
				"method": "rhf"
			},
			{
				"type": "unocc",
				"energy": -0.00455,
				"method": "rhf"
			},
			{
				"type": "unocc",
				"energy": 0.00131,
				"method": "rhf"
			},
			{
				"type": "unocc",
				"energy": 0.10468,
				"method": "rhf"
			},
			{
				"type": "unocc",
				"energy": 0.11108,
				"method": "rhf"
			}
		],
		"cosmo_sigma_profile": { 
			"-0.025": 0.0,
			"-0.024": 0.0,
			"-0.023": 0.0,
			"-0.022": 0.0,
			"-0.021": 0.0,
			"-0.02": 0.0,
			"-0.019": 0.0,
			"-0.018": 0.0,
			"-0.017": 0.0,
			"-0.016": 0.0,
			"-0.015": 0.0,
			"-0.014": 0.0,
			"-0.013": 0.0,
			"-0.012": 0.0,
			"-0.011": 0.0,
			"-0.01": 0.0,
			"-0.009": 0.1574868069,
			"-0.008": 4.22607725698,
			"-0.007": 10.8594853583,
			"-0.006": 11.3409306483,
			"-0.005": 16.0052060275,
			"-0.004": 14.5846334014,
			"-0.003": 16.9005849103,
			"-0.002": 8.86366182523,
			"-0.001": 4.29358515734,
			"0.0": 3.56326099541,
			"0.001": 4.50826912425,
			"0.002": 3.8812770165,
			"0.003": 5.16580681611,
			"0.004": 7.41164304307,
			"0.005": 7.71960207457,
			"0.006": 6.92695255042,
			"0.007": 3.64245238373,
			"0.008": 4.48499831309,
			"0.009": 5.19506272777,
			"0.01": 9.2904170385,
			"0.011": 4.3787014864,
			"0.012": 0.18222507078,
			"0.013": 0.0,
			"0.014": 0.0,
			"0.015": 0.0,
			"0.016": 0.0,
			"0.017": 0.0,
			"0.018": 0.0,
			"0.019": 0.0,
			"0.02": 0.0,
			"0.021": 0.0,
			"0.022": 0.0,
			"0.023": 0.0,
			"0.024": 0.0,
			"0.025": 0.0
		}
	}
}
