{
	 "smiles": "CCN(CC)C(=O)NC1=CC=C(C=C1)C(C)=O", 
	 "Tm": 387.15, 
	 "num_atms": 35, 
	 "gaussian": { 
		 "optdone": 1, 
		 "sigma_profile": "yes", 
		 "theory": "DFT", 
		 "functional": "B3LYP", 
		 "basiset": "6-31G**", 
		 "properties": { 
			 "R2extent": 6872.0687, 
			 "electric_dipole_moment_norm": 5.48820572318, 
			 "electric_quadrupole_moment_norm": 22.4402489271, 
			 "total_energy": -766.223016788, 
			 "HOMO_LUMO_gap": 0.17496, 
			 "cosmo_polarized_energy": -17.59, 
			 "cosmo_cavitation_energy": 37.93, 
			 "cosmo_dispersion_energy": -26.7, 
			 "cosmo_repulsion_energy": 2.06, 
			 "cosmo_total_nonelectrostatic_energy": 13.29, 
			 "SMD_solvation_energy": 7.53 
		},
		"coords": [
			{
				"x": -0.9850891025,
				"y": -1.5555332338,
				"z": -4.8789867036,
				"element": "C" 
			},
			{
				"x": -1.0714106715,
				"y": -2.6142231215,
				"z": -3.7765275658,
				"element": "C" 
			},
			{
				"x": -0.2025347982,
				"y": -2.3291142808,
				"z": -2.6282274269,
				"element": "N" 
			},
			{
				"x": 1.1796385701,
				"y": -2.8030068329,
				"z": -2.6858563713,
				"element": "C" 
			},
			{
				"x": 1.3976827225,
				"y": -4.1727143009,
				"z": -2.0283524992,
				"element": "C" 
			},
			{
				"x": -0.7301965866,
				"y": -1.5339362423,
				"z": -1.6302018408,
				"element": "C" 
			},
			{
				"x": -1.8503037252,
				"y": -1.0373620259,
				"z": -1.7183427192,
				"element": "O" 
			},
			{
				"x": 0.0967966365,
				"y": -1.3496298151,
				"z": -0.5211302834,
				"element": "N" 
			},
			{
				"x": -0.1407111672,
				"y": -0.5543736621,
				"z": 0.6087490355,
				"element": "C" 
			},
			{
				"x": -1.2669745211,
				"y": 0.2713707013,
				"z": 0.7683837267,
				"element": "C" 
			},
			{
				"x": -1.3988326424,
				"y": 1.0318905875,
				"z": 1.9267600459,
				"element": "C" 
			},
			{
				"x": -0.4379893497,
				"y": 1.0002025526,
				"z": 2.9483942535,
				"element": "C" 
			},
			{
				"x": 0.6821550253,
				"y": 0.1697561934,
				"z": 2.7762347656,
				"element": "C" 
			},
			{
				"x": 0.8302307239,
				"y": -0.5923438311,
				"z": 1.6305621833,
				"element": "C" 
			},
			{
				"x": -0.5439757629,
				"y": 1.7988227396,
				"z": 4.2036277695,
				"element": "C" 
			},
			{
				"x": -1.7541351062,
				"y": 2.6993698298,
				"z": 4.4001129962,
				"element": "C" 
			},
			{
				"x": 0.3242916542,
				"y": 1.734940101,
				"z": 5.0643589009,
				"element": "O" 
			},
			{
				"x": 0.0365007612,
				"y": -1.4509316876,
				"z": -5.2608852365,
				"element": "H" 
			},
			{
				"x": -1.6312434977,
				"y": -1.8282256537,
				"z": -5.7202389528,
				"element": "H" 
			},
			{
				"x": -1.313047054,
				"y": -0.5876551087,
				"z": -4.4919947468,
				"element": "H" 
			},
			{
				"x": -0.7912085567,
				"y": -3.60033692,
				"z": -4.164151021,
				"element": "H" 
			},
			{
				"x": -2.0961684143,
				"y": -2.6806719988,
				"z": -3.4078156105,
				"element": "H" 
			},
			{
				"x": 1.4619532974,
				"y": -2.8568209842,
				"z": -3.742500274,
				"element": "H" 
			},
			{
				"x": 1.8464795631,
				"y": -2.0500422969,
				"z": -2.2497334266,
				"element": "H" 
			},
			{
				"x": 1.149015589,
				"y": -4.1554064946,
				"z": -0.961912917,
				"element": "H" 
			},
			{
				"x": 2.4417431915,
				"y": -4.4870014203,
				"z": -2.1300120398,
				"element": "H" 
			},
			{
				"x": 0.7660766841,
				"y": -4.9323357683,
				"z": -2.4986616095,
				"element": "H" 
			},
			{
				"x": 0.9367771239,
				"y": -1.9033361929,
				"z": -0.4678815965,
				"element": "H" 
			},
			{
				"x": -2.01783018,
				"y": 0.296647721,
				"z": -0.0074088562,
				"element": "H" 
			},
			{
				"x": -2.2780308784,
				"y": 1.6608561135,
				"z": 2.0260868213,
				"element": "H" 
			},
			{
				"x": 1.4268549635,
				"y": 0.142894684,
				"z": 3.5646854869,
				"element": "H" 
			},
			{
				"x": 1.7059230872,
				"y": -1.2281222201,
				"z": 1.5144816788,
				"element": "H" 
			},
			{
				"x": -1.8215361039,
				"y": 3.4490254187,
				"z": 3.603982852,
				"element": "H" 
			},
			{
				"x": -2.683706629,
				"y": 2.1197411029,
				"z": 4.3810106112,
				"element": "H" 
			},
			{
				"x": -1.6610948457,
				"y": 3.2019063474,
				"z": 5.3632905702,
				"element": "H" 
			}
		],
		 "valence_orbital": [ 
			{
				"type": "occ",
				"energy": -0.2645,
				"method": "rhf"
			},
			{
				"type": "occ",
				"energy": -0.25453,
				"method": "rhf"
			},
			{
				"type": "occ",
				"energy": -0.24514,
				"method": "rhf"
			},
			{
				"type": "occ",
				"energy": -0.23652,
				"method": "rhf"
			},
			{
				"type": "occ",
				"energy": -0.21815,
				"method": "rhf"
			},
			{
				"type": "unocc",
				"energy": -0.04319,
				"method": "rhf"
			},
			{
				"type": "unocc",
				"energy": -0.00237,
				"method": "rhf"
			},
			{
				"type": "unocc",
				"energy": 0.0347,
				"method": "rhf"
			},
			{
				"type": "unocc",
				"energy": 0.05038,
				"method": "rhf"
			},
			{
				"type": "unocc",
				"energy": 0.07599,
				"method": "rhf"
			}
		],
		"cosmo_sigma_profile": { 
			"-0.025": 0.0,
			"-0.024": 0.0,
			"-0.023": 0.0,
			"-0.022": 0.0,
			"-0.021": 0.0,
			"-0.02": 0.0,
			"-0.019": 0.0,
			"-0.018": 0.0,
			"-0.017": 0.0,
			"-0.016": 0.0,
			"-0.015": 0.0,
			"-0.014": 0.723688940045,
			"-0.013": 1.23849222756,
			"-0.012": 1.31580596832,
			"-0.011": 1.54312053281,
			"-0.01": 2.03624468357,
			"-0.009": 1.19370174979,
			"-0.008": 2.0421887745,
			"-0.007": 2.50880987919,
			"-0.006": 10.5767461369,
			"-0.005": 20.0921391968,
			"-0.004": 27.0255003834,
			"-0.003": 29.6455641423,
			"-0.002": 27.9193349056,
			"-0.001": 27.848946946,
			"0.0": 28.2478427166,
			"0.001": 23.5611082677,
			"0.002": 16.5346070204,
			"0.003": 16.158661153,
			"0.004": 16.6060154182,
			"0.005": 6.64443481979,
			"0.006": 4.22298098568,
			"0.007": 4.02671864247,
			"0.008": 3.04188768308,
			"0.009": 2.74192002568,
			"0.01": 4.38316674116,
			"0.011": 3.41317458385,
			"0.012": 5.62714629881,
			"0.013": 5.65460739882,
			"0.014": 2.55026830779,
			"0.015": 0.0560270142341,
			"0.016": 0.0,
			"0.017": 0.0,
			"0.018": 0.0,
			"0.019": 0.0,
			"0.02": 0.0,
			"0.021": 0.0,
			"0.022": 0.0,
			"0.023": 0.0,
			"0.024": 0.0,
			"0.025": 0.0
		}
	}
}
