{
	 "smiles": "COC1=CC=C(C=C1)C(O)C(=O)C1=CC=C(OC)C=C1", 
	 "Tm": 385.15, 
	 "num_atms": 36, 
	 "gaussian": { 
		 "optdone": 1, 
		 "sigma_profile": "yes", 
		 "theory": "DFT", 
		 "functional": "B3LYP", 
		 "basiset": "6-31G**", 
		 "properties": { 
			 "R2extent": 8344.5199, 
			 "electric_dipole_moment_norm": 1.71167715122, 
			 "electric_quadrupole_moment_norm": 25.757503836, 
			 "total_energy": -920.206616425, 
			 "HOMO_LUMO_gap": 0.1675, 
			 "cosmo_polarized_energy": -15.81, 
			 "cosmo_cavitation_energy": 39.97, 
			 "cosmo_dispersion_energy": -28.52, 
			 "cosmo_repulsion_energy": 2.19, 
			 "cosmo_total_nonelectrostatic_energy": 13.64, 
			 "SMD_solvation_energy": 8.75 
		},
		"coords": [
			{
				"x": -4.9824012921,
				"y": 0.0283976318,
				"z": 2.1476270181,
				"element": "C" 
			},
			{
				"x": -4.1094261118,
				"y": 1.1036005111,
				"z": 1.8413016244,
				"element": "O" 
			},
			{
				"x": -3.3315477731,
				"y": 1.0058579703,
				"z": 0.7237300396,
				"element": "C" 
			},
			{
				"x": -3.3394594104,
				"y": -0.0806613698,
				"z": -0.1611165829,
				"element": "C" 
			},
			{
				"x": -2.5031633494,
				"y": -0.0672752386,
				"z": -1.2781263786,
				"element": "C" 
			},
			{
				"x": -1.6495044839,
				"y": 1.0100482106,
				"z": -1.5345937716,
				"element": "C" 
			},
			{
				"x": -1.6467800997,
				"y": 2.0864636861,
				"z": -0.6374706751,
				"element": "C" 
			},
			{
				"x": -2.4791956283,
				"y": 2.0904867351,
				"z": 0.4762963398,
				"element": "C" 
			},
			{
				"x": -0.7482155149,
				"y": 0.9903440111,
				"z": -2.7685766035,
				"element": "C" 
			},
			{
				"x": -0.1676290932,
				"y": 2.2546984282,
				"z": -3.0623678077,
				"element": "O" 
			},
			{
				"x": 0.3353929661,
				"y": -0.1015207855,
				"z": -2.6058174771,
				"element": "C" 
			},
			{
				"x": 0.0303897725,
				"y": -1.2203430185,
				"z": -3.0044820487,
				"element": "O" 
			},
			{
				"x": 1.6430832579,
				"y": 0.1458033635,
				"z": -1.9417237335,
				"element": "C" 
			},
			{
				"x": 2.5150151974,
				"y": -0.9497857752,
				"z": -1.8302718654,
				"element": "C" 
			},
			{
				"x": 3.7539923712,
				"y": -0.8367191723,
				"z": -1.210487021,
				"element": "C" 
			},
			{
				"x": 4.1460130226,
				"y": 0.4014287782,
				"z": -0.6777938533,
				"element": "C" 
			},
			{
				"x": 5.3294113147,
				"y": 0.6305697036,
				"z": -0.0497739294,
				"element": "O" 
			},
			{
				"x": 6.2467791112,
				"y": -0.4461747574,
				"z": 0.0849136976,
				"element": "C" 
			},
			{
				"x": 3.2863825491,
				"y": 1.5068205866,
				"z": -0.7808719199,
				"element": "C" 
			},
			{
				"x": 2.0550500445,
				"y": 1.3823548215,
				"z": -1.4055826321,
				"element": "C" 
			},
			{
				"x": -5.4944134563,
				"y": 0.3087833789,
				"z": 3.0695103023,
				"element": "H" 
			},
			{
				"x": -5.7267706547,
				"y": -0.1287386064,
				"z": 1.3561619835,
				"element": "H" 
			},
			{
				"x": -4.4321591076,
				"y": -0.9072035966,
				"z": 2.3113735419,
				"element": "H" 
			},
			{
				"x": -3.9878118359,
				"y": -0.9326784639,
				"z": 0.0057001907,
				"element": "H" 
			},
			{
				"x": -2.5056611266,
				"y": -0.9158395097,
				"z": -1.9564706259,
				"element": "H" 
			},
			{
				"x": -0.9878987589,
				"y": 2.930438159,
				"z": -0.8148663045,
				"element": "H" 
			},
			{
				"x": -2.4845137459,
				"y": 2.9228731412,
				"z": 1.1725857851,
				"element": "H" 
			},
			{
				"x": -1.3379557927,
				"y": 0.6354046709,
				"z": -3.6244830362,
				"element": "H" 
			},
			{
				"x": -0.8935671221,
				"y": 2.8715466497,
				"z": -3.2269929583,
				"element": "H" 
			},
			{
				"x": 2.1925541324,
				"y": -1.9003300289,
				"z": -2.2416765741,
				"element": "H" 
			},
			{
				"x": 4.400253461,
				"y": -1.7038528226,
				"z": -1.144004496,
				"element": "H" 
			},
			{
				"x": 5.8206654282,
				"y": -1.2682187333,
				"z": 0.6733455345,
				"element": "H" 
			},
			{
				"x": 7.1118373421,
				"y": -0.0389187555,
				"z": 0.610071868,
				"element": "H" 
			},
			{
				"x": 6.5648152805,
				"y": -0.8299814119,
				"z": -0.8923842289,
				"element": "H" 
			},
			{
				"x": 3.6130576248,
				"y": 2.454108527,
				"z": -0.3646677469,
				"element": "H" 
			},
			{
				"x": 1.4128814814,
				"y": 2.2474130817,
				"z": -1.4972156548,
				"element": "H" 
			}
		],
		 "valence_orbital": [ 
			{
				"type": "occ",
				"energy": -0.25344,
				"method": "rhf"
			},
			{
				"type": "occ",
				"energy": -0.2503,
				"method": "rhf"
			},
			{
				"type": "occ",
				"energy": -0.24336,
				"method": "rhf"
			},
			{
				"type": "occ",
				"energy": -0.22316,
				"method": "rhf"
			},
			{
				"type": "occ",
				"energy": -0.21273,
				"method": "rhf"
			},
			{
				"type": "unocc",
				"energy": -0.04523,
				"method": "rhf"
			},
			{
				"type": "unocc",
				"energy": -0.00508,
				"method": "rhf"
			},
			{
				"type": "unocc",
				"energy": 0.00243,
				"method": "rhf"
			},
			{
				"type": "unocc",
				"energy": 0.01234,
				"method": "rhf"
			},
			{
				"type": "unocc",
				"energy": 0.05675,
				"method": "rhf"
			}
		],
		"cosmo_sigma_profile": { 
			"-0.025": 0.0,
			"-0.024": 0.0,
			"-0.023": 0.0,
			"-0.022": 0.0,
			"-0.021": 0.0,
			"-0.02": 0.0,
			"-0.019": 0.0,
			"-0.018": 0.0,
			"-0.017": 0.0967413025606,
			"-0.016": 0.805238130514,
			"-0.015": 1.06466270244,
			"-0.014": 1.13521485355,
			"-0.013": 0.219394343737,
			"-0.012": 0.8075446782,
			"-0.011": 0.898312918381,
			"-0.01": 1.21726778391,
			"-0.009": 0.891193609795,
			"-0.008": 0.842985228464,
			"-0.007": 4.31671626577,
			"-0.006": 19.194882092,
			"-0.005": 30.6207486601,
			"-0.004": 32.2061959622,
			"-0.003": 28.4435902985,
			"-0.002": 17.1017058957,
			"-0.001": 16.7318535422,
			"0.0": 14.6875409368,
			"0.001": 17.2281821885,
			"0.002": 21.7424118014,
			"0.003": 26.3750716969,
			"0.004": 27.0733545203,
			"0.005": 17.2351401468,
			"0.006": 7.11901430971,
			"0.007": 5.17989946098,
			"0.008": 5.71098826013,
			"0.009": 4.83875830948,
			"0.01": 5.19024505513,
			"0.011": 3.7628882885,
			"0.012": 4.14167436185,
			"0.013": 0.936197063477,
			"0.014": 0.0,
			"0.015": 0.0,
			"0.016": 0.0,
			"0.017": 0.0,
			"0.018": 0.0,
			"0.019": 0.0,
			"0.02": 0.0,
			"0.021": 0.0,
			"0.022": 0.0,
			"0.023": 0.0,
			"0.024": 0.0,
			"0.025": 0.0
		}
	}
}
