{
	 "smiles": "COC(=O)C1=CC=C(C=C1)C1=NC(=NO1)C1CC1", 
	 "Tm": 374.15, 
	 "num_atms": 30, 
	 "gaussian": { 
		 "optdone": 1, 
		 "sigma_profile": "yes", 
		 "theory": "DFT", 
		 "functional": "B3LYP", 
		 "basiset": "6-31G**", 
		 "properties": { 
			 "R2extent": 7866.3813, 
			 "electric_dipole_moment_norm": 3.21605651381, 
			 "electric_quadrupole_moment_norm": 13.7470422066, 
			 "total_energy": -837.743990271, 
			 "HOMO_LUMO_gap": 0.17276, 
			 "cosmo_polarized_energy": -10.85, 
			 "cosmo_cavitation_energy": 35.62, 
			 "cosmo_dispersion_energy": -25.89, 
			 "cosmo_repulsion_energy": 1.99, 
			 "cosmo_total_nonelectrostatic_energy": 11.72, 
			 "SMD_solvation_energy": 5.79 
		},
		"coords": [
			{
				"x": -6.2481497748,
				"y": 0.6492304008,
				"z": -2.5566633145,
				"element": "C" 
			},
			{
				"x": -4.9462719204,
				"y": 0.5178829505,
				"z": -1.9636387573,
				"element": "O" 
			},
			{
				"x": -4.6511544951,
				"y": 1.4337239632,
				"z": -1.0147839001,
				"element": "C" 
			},
			{
				"x": -5.4190069234,
				"y": 2.3122419081,
				"z": -0.6744136219,
				"element": "O" 
			},
			{
				"x": -3.2871208106,
				"y": 1.2402775427,
				"z": -0.441012867,
				"element": "C" 
			},
			{
				"x": -2.432163298,
				"y": 0.211464522,
				"z": -0.8632004434,
				"element": "C" 
			},
			{
				"x": -1.1712621996,
				"y": 0.0769569465,
				"z": -0.2945116998,
				"element": "C" 
			},
			{
				"x": -0.7509430307,
				"y": 0.9707685607,
				"z": 0.7036122399,
				"element": "C" 
			},
			{
				"x": -1.6065435568,
				"y": 2.0010793239,
				"z": 1.1268087262,
				"element": "C" 
			},
			{
				"x": -2.8662824666,
				"y": 2.1316137699,
				"z": 0.5553899526,
				"element": "C" 
			},
			{
				"x": 0.5794586566,
				"y": 0.8099952211,
				"z": 1.2873062014,
				"element": "C" 
			},
			{
				"x": 1.4791783687,
				"y": -0.0931068149,
				"z": 1.001329619,
				"element": "N" 
			},
			{
				"x": 2.5156146934,
				"y": 0.23813182,
				"z": 1.8467593128,
				"element": "C" 
			},
			{
				"x": 2.282814881,
				"y": 1.2790010687,
				"z": 2.6148309737,
				"element": "N" 
			},
			{
				"x": 0.9800314654,
				"y": 1.6679299798,
				"z": 2.2421695616,
				"element": "O" 
			},
			{
				"x": 3.7853533565,
				"y": -0.5030616113,
				"z": 1.8987901513,
				"element": "C" 
			},
			{
				"x": 3.7763587078,
				"y": -2.0046313279,
				"z": 1.673637567,
				"element": "C" 
			},
			{
				"x": 4.3461538657,
				"y": -1.1028722831,
				"z": 0.6214826169,
				"element": "C" 
			},
			{
				"x": -6.3527119147,
				"y": 1.6228104472,
				"z": -3.0419045668,
				"element": "H" 
			},
			{
				"x": -6.3199450978,
				"y": -0.1544856756,
				"z": -3.2891468445,
				"element": "H" 
			},
			{
				"x": -7.0278599585,
				"y": 0.548935614,
				"z": -1.7975361269,
				"element": "H" 
			},
			{
				"x": -2.7613405418,
				"y": -0.4755215489,
				"z": -1.6337871757,
				"element": "H" 
			},
			{
				"x": -0.4987592112,
				"y": -0.713120156,
				"z": -0.6100514359,
				"element": "H" 
			},
			{
				"x": -1.2789199971,
				"y": 2.6896722321,
				"z": 1.8979056006,
				"element": "H" 
			},
			{
				"x": -3.5434322836,
				"y": 2.9194161578,
				"z": 0.8665495229,
				"element": "H" 
			},
			{
				"x": 4.4905035535,
				"y": -0.1058451013,
				"z": 2.621004515,
				"element": "H" 
			},
			{
				"x": 2.8130522166,
				"y": -2.4632046124,
				"z": 1.4762928641,
				"element": "H" 
			},
			{
				"x": 4.4534263167,
				"y": -2.5984654027,
				"z": 2.2794795597,
				"element": "H" 
			},
			{
				"x": 3.7658295561,
				"y": -0.9550996803,
				"z": -0.2832723062,
				"element": "H" 
			},
			{
				"x": 5.4227918428,
				"y": -1.0642182147,
				"z": 0.4893740753,
				"element": "H" 
			}
		],
		 "valence_orbital": [ 
			{
				"type": "occ",
				"energy": -0.2975,
				"method": "rhf"
			},
			{
				"type": "occ",
				"energy": -0.28176,
				"method": "rhf"
			},
			{
				"type": "occ",
				"energy": -0.28146,
				"method": "rhf"
			},
			{
				"type": "occ",
				"energy": -0.27182,
				"method": "rhf"
			},
			{
				"type": "occ",
				"energy": -0.25095,
				"method": "rhf"
			},
			{
				"type": "unocc",
				"energy": -0.07819,
				"method": "rhf"
			},
			{
				"type": "unocc",
				"energy": -0.0203,
				"method": "rhf"
			},
			{
				"type": "unocc",
				"energy": -0.00629,
				"method": "rhf"
			},
			{
				"type": "unocc",
				"energy": 0.02946,
				"method": "rhf"
			},
			{
				"type": "unocc",
				"energy": 0.07995,
				"method": "rhf"
			}
		],
		"cosmo_sigma_profile": { 
			"-0.025": 0.0,
			"-0.024": 0.0,
			"-0.023": 0.0,
			"-0.022": 0.0,
			"-0.021": 0.0,
			"-0.02": 0.0,
			"-0.019": 0.0,
			"-0.018": 0.0,
			"-0.017": 0.0,
			"-0.016": 0.0,
			"-0.015": 0.0,
			"-0.014": 0.0,
			"-0.013": 0.0,
			"-0.012": 0.0,
			"-0.011": 0.0,
			"-0.01": 0.0,
			"-0.009": 0.0,
			"-0.008": 0.287623770765,
			"-0.007": 5.49465264071,
			"-0.006": 15.8700534398,
			"-0.005": 22.378449336,
			"-0.004": 22.2425240681,
			"-0.003": 27.3807508066,
			"-0.002": 23.5957833269,
			"-0.001": 24.2224763522,
			"0.0": 27.2903710344,
			"0.001": 30.4254226368,
			"0.002": 24.1909838154,
			"0.003": 10.5811955368,
			"0.004": 8.59688434349,
			"0.005": 8.28399741799,
			"0.006": 7.76360205467,
			"0.007": 4.06739318335,
			"0.008": 4.3724452966,
			"0.009": 4.04635625883,
			"0.01": 3.98180074944,
			"0.011": 4.70834534058,
			"0.012": 4.17902780584,
			"0.013": 1.12842495734,
			"0.014": 0.239942621399,
			"0.015": 0.0,
			"0.016": 0.0,
			"0.017": 0.0,
			"0.018": 0.0,
			"0.019": 0.0,
			"0.02": 0.0,
			"0.021": 0.0,
			"0.022": 0.0,
			"0.023": 0.0,
			"0.024": 0.0,
			"0.025": 0.0
		}
	}
}
