{
	 "smiles": "CCOC(=O)C1=CC=CC=C1N=C=O", 
	 "Tm": 302.15, 
	 "num_atms": 23, 
	 "gaussian": { 
		 "optdone": 1, 
		 "sigma_profile": "yes", 
		 "theory": "DFT", 
		 "functional": "B3LYP", 
		 "basiset": "6-31G**", 
		 "properties": { 
			 "R2extent": 3569.9903, 
			 "electric_dipole_moment_norm": 1.63582723415, 
			 "electric_quadrupole_moment_norm": 16.07736943, 
			 "total_energy": -666.926990261, 
			 "HOMO_LUMO_gap": 0.18723, 
			 "cosmo_polarized_energy": -7.41, 
			 "cosmo_cavitation_energy": 28.09, 
			 "cosmo_dispersion_energy": -20.1, 
			 "cosmo_repulsion_energy": 1.57, 
			 "cosmo_total_nonelectrostatic_energy": 9.56, 
			 "SMD_solvation_energy": 7.81 
		},
		"coords": [
			{
				"x": -3.0440475909,
				"y": 0.6713372396,
				"z": 0.2930852348,
				"element": "C" 
			},
			{
				"x": -2.2111936063,
				"y": -0.452710352,
				"z": -0.2921974349,
				"element": "C" 
			},
			{
				"x": -0.9288018266,
				"y": 0.1011948687,
				"z": -0.693537105,
				"element": "O" 
			},
			{
				"x": 0.0492051955,
				"y": -0.7942511527,
				"z": -0.9462369122,
				"element": "C" 
			},
			{
				"x": -0.1100985686,
				"y": -1.9951383366,
				"z": -0.8410161794,
				"element": "O" 
			},
			{
				"x": 1.3597232047,
				"y": -0.1743835974,
				"z": -1.3159379853,
				"element": "C" 
			},
			{
				"x": 2.4721489889,
				"y": -1.0209372766,
				"z": -1.1756515089,
				"element": "C" 
			},
			{
				"x": 3.7634931064,
				"y": -0.5900914486,
				"z": -1.4522952293,
				"element": "C" 
			},
			{
				"x": 3.9668856253,
				"y": 0.7191156535,
				"z": -1.8948833987,
				"element": "C" 
			},
			{
				"x": 2.8827681335,
				"y": 1.5720034345,
				"z": -2.0625594664,
				"element": "C" 
			},
			{
				"x": 1.5733017178,
				"y": 1.1467846034,
				"z": -1.7830340472,
				"element": "C" 
			},
			{
				"x": 0.5794417416,
				"y": 2.0839668496,
				"z": -2.0292726989,
				"element": "N" 
			},
			{
				"x": -0.6061819148,
				"y": 2.2977315516,
				"z": -2.0794005364,
				"element": "C" 
			},
			{
				"x": -1.7203486157,
				"y": 2.6663308952,
				"z": -2.1891699675,
				"element": "O" 
			},
			{
				"x": -4.0213145771,
				"y": 0.279979696,
				"z": 0.5931466012,
				"element": "H" 
			},
			{
				"x": -2.5593235981,
				"y": 1.0944391662,
				"z": 1.1779052431,
				"element": "H" 
			},
			{
				"x": -3.1965549898,
				"y": 1.4707582178,
				"z": -0.4353357112,
				"element": "H" 
			},
			{
				"x": -2.6818437501,
				"y": -0.8973429762,
				"z": -1.1752544131,
				"element": "H" 
			},
			{
				"x": -2.0291862622,
				"y": -1.2548518369,
				"z": 0.4268615423,
				"element": "H" 
			},
			{
				"x": 2.2825826161,
				"y": -2.0333327543,
				"z": -0.8368950587,
				"element": "H" 
			},
			{
				"x": 4.6022741332,
				"y": -1.2668397783,
				"z": -1.3248086108,
				"element": "H" 
			},
			{
				"x": 4.9683653802,
				"y": 1.0757353569,
				"z": -2.1165423678,
				"element": "H" 
			},
			{
				"x": 3.0200054569,
				"y": 2.5860019767,
				"z": -2.4217699898,
				"element": "H" 
			}
		],
		 "valence_orbital": [ 
			{
				"type": "occ",
				"energy": -0.30637,
				"method": "rhf"
			},
			{
				"type": "occ",
				"energy": -0.30443,
				"method": "rhf"
			},
			{
				"type": "occ",
				"energy": -0.28255,
				"method": "rhf"
			},
			{
				"type": "occ",
				"energy": -0.26683,
				"method": "rhf"
			},
			{
				"type": "occ",
				"energy": -0.24309,
				"method": "rhf"
			},
			{
				"type": "unocc",
				"energy": -0.05586,
				"method": "rhf"
			},
			{
				"type": "unocc",
				"energy": -0.0228,
				"method": "rhf"
			},
			{
				"type": "unocc",
				"energy": 0.02475,
				"method": "rhf"
			},
			{
				"type": "unocc",
				"energy": 0.04501,
				"method": "rhf"
			},
			{
				"type": "unocc",
				"energy": 0.07827,
				"method": "rhf"
			}
		],
		"cosmo_sigma_profile": { 
			"-0.025": 0.0,
			"-0.024": 0.0,
			"-0.023": 0.0,
			"-0.022": 0.0,
			"-0.021": 0.0,
			"-0.02": 0.0,
			"-0.019": 0.0,
			"-0.018": 0.0,
			"-0.017": 0.0,
			"-0.016": 0.0,
			"-0.015": 0.0,
			"-0.014": 0.0,
			"-0.013": 0.0,
			"-0.012": 0.0,
			"-0.011": 0.0,
			"-0.01": 0.0,
			"-0.009": 0.0,
			"-0.008": 0.0863084525135,
			"-0.007": 4.32016878004,
			"-0.006": 9.78480260559,
			"-0.005": 16.0515529628,
			"-0.004": 19.6845237892,
			"-0.003": 19.1037775095,
			"-0.002": 20.0015774046,
			"-0.001": 20.7831812565,
			"0.0": 21.6449085368,
			"0.001": 20.42276313,
			"0.002": 20.9560736273,
			"0.003": 18.1672283236,
			"0.004": 6.77371112948,
			"0.005": 3.73995624558,
			"0.006": 3.90757770634,
			"0.007": 6.22166608246,
			"0.008": 4.03840906301,
			"0.009": 1.28830934905,
			"0.01": 2.28976622544,
			"0.011": 3.19054698383,
			"0.012": 3.09230142517,
			"0.013": 0.0119165722785,
			"0.014": 0.0,
			"0.015": 0.0,
			"0.016": 0.0,
			"0.017": 0.0,
			"0.018": 0.0,
			"0.019": 0.0,
			"0.02": 0.0,
			"0.021": 0.0,
			"0.022": 0.0,
			"0.023": 0.0,
			"0.024": 0.0,
			"0.025": 0.0
		}
	}
}
