{
	 "smiles": "OC(=O)CCN1C(=O)NC2(CCCC2)C1=O", 
	 "Tm": 441.15, 
	 "num_atms": 30, 
	 "gaussian": { 
		 "optdone": 1, 
		 "sigma_profile": "yes", 
		 "theory": "DFT", 
		 "functional": "B3LYP", 
		 "basiset": "6-31G**", 
		 "properties": { 
			 "R2extent": 4207.5504, 
			 "electric_dipole_moment_norm": 8.15172391706, 
			 "electric_quadrupole_moment_norm": 21.281547712, 
			 "total_energy": -799.966613986, 
			 "HOMO_LUMO_gap": 0.21572, 
			 "cosmo_polarized_energy": -21.78, 
			 "cosmo_cavitation_energy": 32.27, 
			 "cosmo_dispersion_energy": -23.15, 
			 "cosmo_repulsion_energy": 1.81, 
			 "cosmo_total_nonelectrostatic_energy": 10.93, 
			 "SMD_solvation_energy": 6.82 
		},
		"coords": [
			{
				"x": 0.7890228957,
				"y": -1.8870197542,
				"z": -3.0432610015,
				"element": "O" 
			},
			{
				"x": 1.810130219,
				"y": -2.5395794819,
				"z": -2.4646465074,
				"element": "C" 
			},
			{
				"x": 2.3896643625,
				"y": -3.4350590037,
				"z": -3.0343977207,
				"element": "O" 
			},
			{
				"x": 2.1965666962,
				"y": -2.0926900552,
				"z": -1.0493124906,
				"element": "C" 
			},
			{
				"x": 1.0274458876,
				"y": -2.0833670774,
				"z": -0.0297645925,
				"element": "C" 
			},
			{
				"x": 0.6655202527,
				"y": -0.7526180832,
				"z": 0.4538165051,
				"element": "N" 
			},
			{
				"x": 0.781376908,
				"y": -0.3720523601,
				"z": 1.8254456946,
				"element": "C" 
			},
			{
				"x": 1.214375813,
				"y": -1.0798637087,
				"z": 2.7099288233,
				"element": "O" 
			},
			{
				"x": 0.3080457585,
				"y": 0.9062953242,
				"z": 1.8919989459,
				"element": "N" 
			},
			{
				"x": -0.0971338874,
				"y": 1.4621853197,
				"z": 0.6067751636,
				"element": "C" 
			},
			{
				"x": 0.7475396338,
				"y": 2.6969457594,
				"z": 0.1553122906,
				"element": "C" 
			},
			{
				"x": -0.2377242184,
				"y": 3.595856333,
				"z": -0.6033956453,
				"element": "C" 
			},
			{
				"x": -1.5345770876,
				"y": 3.4453707151,
				"z": 0.2067257039,
				"element": "C" 
			},
			{
				"x": -1.588669922,
				"y": 1.9380474732,
				"z": 0.5228306231,
				"element": "C" 
			},
			{
				"x": 0.1549953471,
				"y": 0.2572832158,
				"z": -0.3037042151,
				"element": "C" 
			},
			{
				"x": -0.0605082221,
				"y": 0.2228372532,
				"z": -1.5133968434,
				"element": "O" 
			},
			{
				"x": 0.4672102958,
				"y": -1.1332579086,
				"z": -2.4962969233,
				"element": "H" 
			},
			{
				"x": 2.9801795362,
				"y": -2.7751452461,
				"z": -0.7179831642,
				"element": "H" 
			},
			{
				"x": 2.642675161,
				"y": -1.0928545673,
				"z": -1.1060874455,
				"element": "H" 
			},
			{
				"x": 0.133279715,
				"y": -2.5472511642,
				"z": -0.4581072563,
				"element": "H" 
			},
			{
				"x": 1.2980651581,
				"y": -2.6418393722,
				"z": 0.8675915718,
				"element": "H" 
			},
			{
				"x": 0.3509097597,
				"y": 1.4239963288,
				"z": 2.7558397001,
				"element": "H" 
			},
			{
				"x": 1.6265446234,
				"y": 2.4099559464,
				"z": -0.4282665921,
				"element": "H" 
			},
			{
				"x": 1.1060707082,
				"y": 3.2059718476,
				"z": 1.0581214038,
				"element": "H" 
			},
			{
				"x": 0.1112669219,
				"y": 4.6298382441,
				"z": -0.6798334522,
				"element": "H" 
			},
			{
				"x": -0.3824639705,
				"y": 3.2125870904,
				"z": -1.619511839,
				"element": "H" 
			},
			{
				"x": -1.4651580591,
				"y": 4.0291265512,
				"z": 1.1334146614,
				"element": "H" 
			},
			{
				"x": -2.4231485682,
				"y": 3.7900776716,
				"z": -0.3293923956,
				"element": "H" 
			},
			{
				"x": -2.1216431212,
				"y": 1.6968082865,
				"z": 1.4460305342,
				"element": "H" 
			},
			{
				"x": -2.0827585969,
				"y": 1.4063144229,
				"z": -0.2959735367,
				"element": "H" 
			}
		],
		 "valence_orbital": [ 
			{
				"type": "occ",
				"energy": -0.30186,
				"method": "rhf"
			},
			{
				"type": "occ",
				"energy": -0.29109,
				"method": "rhf"
			},
			{
				"type": "occ",
				"energy": -0.29035,
				"method": "rhf"
			},
			{
				"type": "occ",
				"energy": -0.27974,
				"method": "rhf"
			},
			{
				"type": "occ",
				"energy": -0.25128,
				"method": "rhf"
			},
			{
				"type": "unocc",
				"energy": -0.03556,
				"method": "rhf"
			},
			{
				"type": "unocc",
				"energy": 0.02246,
				"method": "rhf"
			},
			{
				"type": "unocc",
				"energy": 0.04265,
				"method": "rhf"
			},
			{
				"type": "unocc",
				"energy": 0.05673,
				"method": "rhf"
			},
			{
				"type": "unocc",
				"energy": 0.06721,
				"method": "rhf"
			}
		],
		"cosmo_sigma_profile": { 
			"-0.025": 0.0,
			"-0.024": 0.0,
			"-0.023": 0.0,
			"-0.022": 0.0,
			"-0.021": 0.0,
			"-0.02": 0.0,
			"-0.019": 0.0,
			"-0.018": 0.0,
			"-0.017": 0.0,
			"-0.016": 0.361087796881,
			"-0.015": 1.19602368212,
			"-0.014": 1.38061532028,
			"-0.013": 1.21175691401,
			"-0.012": 1.1056453264,
			"-0.011": 0.511561893352,
			"-0.01": 1.06292952007,
			"-0.009": 2.18293659179,
			"-0.008": 3.01700824663,
			"-0.007": 11.7613276601,
			"-0.006": 14.838556069,
			"-0.005": 17.4264708577,
			"-0.004": 21.0467938507,
			"-0.003": 25.1470318594,
			"-0.002": 25.413686055,
			"-0.001": 24.1516994374,
			"0.0": 19.2131234011,
			"0.001": 8.39763048967,
			"0.002": 5.05845343281,
			"0.003": 5.76648683602,
			"0.004": 5.0975451831,
			"0.005": 4.45445507445,
			"0.006": 4.92664939228,
			"0.007": 4.36886720004,
			"0.008": 4.65836096201,
			"0.009": 5.68994308228,
			"0.01": 5.43832630801,
			"0.011": 7.41260480328,
			"0.012": 12.3891536275,
			"0.013": 7.45019547403,
			"0.014": 1.1323793376,
			"0.015": 0.0,
			"0.016": 0.0,
			"0.017": 0.0,
			"0.018": 0.0,
			"0.019": 0.0,
			"0.02": 0.0,
			"0.021": 0.0,
			"0.022": 0.0,
			"0.023": 0.0,
			"0.024": 0.0,
			"0.025": 0.0
		}
	}
}
