{
	 "smiles": "NC1=C(F)C=CC(NC(=O)C2=C(I)C=CC=C2)=C1", 
	 "Tm": 476.15, 
	 "num_atms": 28, 
	 "gaussian": { 
		 "optdone": 1, 
		 "sigma_profile": "yes", 
		 "theory": "DFT", 
		 "functional": "B3LYP", 
		 "basiset": "6-31G**", 
		 "properties": { 
			 "R2extent": 5350.2025, 
			 "electric_dipole_moment_norm": 2.79368356118, 
			 "electric_quadrupole_moment_norm": 29.9771229415, 
			 "total_energy": -797.364343743, 
			 "HOMO_LUMO_gap": 0.16601, 
			 "cosmo_polarized_energy": -16.83, 
			 "cosmo_cavitation_energy": 36.08, 
			 "cosmo_dispersion_energy": -25.75, 
			 "cosmo_repulsion_energy": 1.97, 
			 "cosmo_total_nonelectrostatic_energy": 12.29, 
			 "SMD_solvation_energy": 6.2 
		},
		"coords": [
			{
				"x": -3.0517625758,
				"y": -2.8710993233,
				"z": -1.0227809735,
				"element": "N" 
			},
			{
				"x": -2.1966610086,
				"y": -1.7943160533,
				"z": -1.2253330624,
				"element": "C" 
			},
			{
				"x": -2.7130957698,
				"y": -0.4895443605,
				"z": -1.2589113551,
				"element": "C" 
			},
			{
				"x": -4.0433707835,
				"y": -0.3401895594,
				"z": -1.018924568,
				"element": "F" 
			},
			{
				"x": -1.9234650922,
				"y": 0.6138078503,
				"z": -1.5170451157,
				"element": "C" 
			},
			{
				"x": -0.5574471184,
				"y": 0.4500495889,
				"z": -1.7614588429,
				"element": "C" 
			},
			{
				"x": -0.0040924067,
				"y": -0.8342202457,
				"z": -1.7053425034,
				"element": "C" 
			},
			{
				"x": 1.3670824267,
				"y": -1.0853973462,
				"z": -1.9635006541,
				"element": "N" 
			},
			{
				"x": 2.5083605248,
				"y": -0.3708437552,
				"z": -1.6813509037,
				"element": "C" 
			},
			{
				"x": 3.5917506669,
				"y": -0.7309981806,
				"z": -2.12372612,
				"element": "O" 
			},
			{
				"x": 2.4113112341,
				"y": 0.880858365,
				"z": -0.8431940162,
				"element": "C" 
			},
			{
				"x": 2.1353840786,
				"y": 0.9050398938,
				"z": 0.5302892384,
				"element": "C" 
			},
			{
				"x": 1.7866978856,
				"y": -0.8746551507,
				"z": 1.639132103,
				"element": "I" 
			},
			{
				"x": 2.1418799607,
				"y": 2.1090685768,
				"z": 1.2408180454,
				"element": "C" 
			},
			{
				"x": 2.430409884,
				"y": 3.3033878104,
				"z": 0.5812938748,
				"element": "C" 
			},
			{
				"x": 2.7378401158,
				"y": 3.2943001945,
				"z": -0.7800682095,
				"element": "C" 
			},
			{
				"x": 2.7410842096,
				"y": 2.089686791,
				"z": -1.477130348,
				"element": "C" 
			},
			{
				"x": -0.8220971987,
				"y": -1.9425716422,
				"z": -1.4437906091,
				"element": "C" 
			},
			{
				"x": -2.6306232867,
				"y": -3.6907726713,
				"z": -0.6094416382,
				"element": "H" 
			},
			{
				"x": -3.9352650677,
				"y": -2.624446143,
				"z": -0.59898029,
				"element": "H" 
			},
			{
				"x": -2.3839132763,
				"y": 1.5956274354,
				"z": -1.5425144971,
				"element": "H" 
			},
			{
				"x": 0.056095182,
				"y": 1.3084061397,
				"z": -1.9995717859,
				"element": "H" 
			},
			{
				"x": 1.5852172368,
				"y": -1.9522631447,
				"z": -2.4404290572,
				"element": "H" 
			},
			{
				"x": 1.9306629375,
				"y": 2.1114324834,
				"z": 2.304133186,
				"element": "H" 
			},
			{
				"x": 2.4282046827,
				"y": 4.2351016305,
				"z": 1.1391387501,
				"element": "H" 
			},
			{
				"x": 2.9838196,
				"y": 4.2185004646,
				"z": -1.2937916062,
				"element": "H" 
			},
			{
				"x": 3.001186772,
				"y": 2.0651410018,
				"z": -2.5310109713,
				"element": "H" 
			},
			{
				"x": -0.3813938136,
				"y": -2.9350906502,
				"z": -1.4001080703,
				"element": "H" 
			}
		],
		 "valence_orbital": [ 
			{
				"type": "occ",
				"energy": -0.26727,
				"method": "rhf"
			},
			{
				"type": "occ",
				"energy": -0.25222,
				"method": "rhf"
			},
			{
				"type": "occ",
				"energy": -0.24316,
				"method": "rhf"
			},
			{
				"type": "occ",
				"energy": -0.23311,
				"method": "rhf"
			},
			{
				"type": "occ",
				"energy": -0.20773,
				"method": "rhf"
			},
			{
				"type": "unocc",
				"energy": -0.04172,
				"method": "rhf"
			},
			{
				"type": "unocc",
				"energy": -0.03311,
				"method": "rhf"
			},
			{
				"type": "unocc",
				"energy": -0.02369,
				"method": "rhf"
			},
			{
				"type": "unocc",
				"energy": -0.00636,
				"method": "rhf"
			},
			{
				"type": "unocc",
				"energy": -0.00056,
				"method": "rhf"
			}
		],
		"cosmo_sigma_profile": { 
			"-0.025": 0.0,
			"-0.024": 0.0,
			"-0.023": 0.0,
			"-0.022": 0.0,
			"-0.021": 0.0,
			"-0.02": 0.0,
			"-0.019": 0.0,
			"-0.018": 0.0,
			"-0.017": 0.0,
			"-0.016": 0.0,
			"-0.015": 0.147728398678,
			"-0.014": 0.858178017302,
			"-0.013": 2.28120563818,
			"-0.012": 2.99913312108,
			"-0.011": 4.11457011756,
			"-0.01": 2.81973483923,
			"-0.009": 4.11612367162,
			"-0.008": 4.68545347226,
			"-0.007": 13.3918683996,
			"-0.006": 16.4707197345,
			"-0.005": 15.8320171258,
			"-0.004": 16.4582149665,
			"-0.003": 13.8049263704,
			"-0.002": 13.114419722,
			"-0.001": 13.2831334377,
			"0.0": 15.336011741,
			"0.001": 21.1137859326,
			"0.002": 28.0080905181,
			"0.003": 33.1931739806,
			"0.004": 31.1740204147,
			"0.005": 14.4302027712,
			"0.006": 2.11233096073,
			"0.007": 2.60601717617,
			"0.008": 2.67475197579,
			"0.009": 2.28399548281,
			"0.01": 2.39993607061,
			"0.011": 1.58908291073,
			"0.012": 4.2732106132,
			"0.013": 6.24954531389,
			"0.014": 1.63365350715,
			"0.015": 0.0452680022138,
			"0.016": 0.0,
			"0.017": 0.0,
			"0.018": 0.0,
			"0.019": 0.0,
			"0.02": 0.0,
			"0.021": 0.0,
			"0.022": 0.0,
			"0.023": 0.0,
			"0.024": 0.0,
			"0.025": 0.0
		}
	}
}
