{
	 "smiles": "CC1=NN=C(O1)C1=CC(N)=CC=C1", 
	 "Tm": 410.15, 
	 "num_atms": 22, 
	 "gaussian": { 
		 "optdone": 1, 
		 "sigma_profile": "yes", 
		 "theory": "DFT", 
		 "functional": "B3LYP", 
		 "basiset": "6-31G**", 
		 "properties": { 
			 "R2extent": 3291.4004, 
			 "electric_dipole_moment_norm": 5.01260348123, 
			 "electric_quadrupole_moment_norm": 11.2503684469, 
			 "total_energy": -587.846208618, 
			 "HOMO_LUMO_gap": 0.16772, 
			 "cosmo_polarized_energy": -15.74, 
			 "cosmo_cavitation_energy": 26.84, 
			 "cosmo_dispersion_energy": -20.0, 
			 "cosmo_repulsion_energy": 1.59, 
			 "cosmo_total_nonelectrostatic_energy": 8.43, 
			 "SMD_solvation_energy": 3.19 
		},
		"coords": [
			{
				"x": 2.2963798131,
				"y": 2.7408333974,
				"z": -2.1777020624,
				"element": "C" 
			},
			{
				"x": 1.3215557891,
				"y": 1.6660308067,
				"z": -1.8645888084,
				"element": "C" 
			},
			{
				"x": 0.1647397835,
				"y": 1.4379228858,
				"z": -2.401966848,
				"element": "N" 
			},
			{
				"x": -0.3572033663,
				"y": 0.3144838894,
				"z": -1.7603969082,
				"element": "N" 
			},
			{
				"x": 0.5249891663,
				"y": -0.0552203259,
				"z": -0.8791091716,
				"element": "C" 
			},
			{
				"x": 1.6254371829,
				"y": 0.7609103387,
				"z": -0.8877049778,
				"element": "O" 
			},
			{
				"x": 0.4666633268,
				"y": -1.1761204978,
				"z": 0.0541924458,
				"element": "C" 
			},
			{
				"x": 1.5204788449,
				"y": -1.4147405355,
				"z": 0.9445129578,
				"element": "C" 
			},
			{
				"x": 1.4630605467,
				"y": -2.4909670875,
				"z": 1.8430327284,
				"element": "C" 
			},
			{
				"x": 2.5370310115,
				"y": -2.7648443923,
				"z": 2.6908155435,
				"element": "N" 
			},
			{
				"x": 0.3282858096,
				"y": -3.3209770432,
				"z": 1.8297695824,
				"element": "C" 
			},
			{
				"x": -0.7160750278,
				"y": -3.075704649,
				"z": 0.9398903296,
				"element": "C" 
			},
			{
				"x": -0.663367298,
				"y": -2.0092151274,
				"z": 0.0469734889,
				"element": "C" 
			},
			{
				"x": 3.2528860827,
				"y": 2.3203206227,
				"z": -2.5048219123,
				"element": "H" 
			},
			{
				"x": 2.4879348796,
				"y": 3.3658156691,
				"z": -1.2993576238,
				"element": "H" 
			},
			{
				"x": 1.887727865,
				"y": 3.3618256183,
				"z": -2.9755528396,
				"element": "H" 
			},
			{
				"x": 2.389967219,
				"y": -0.7646463673,
				"z": 0.9362764306,
				"element": "H" 
			},
			{
				"x": 2.307063117,
				"y": -3.296339146,
				"z": 3.5191319416,
				"element": "H" 
			},
			{
				"x": 3.132632392,
				"y": -1.9760353789,
				"z": 2.9019697453,
				"element": "H" 
			},
			{
				"x": 0.2726628293,
				"y": -4.1608401114,
				"z": 2.5178222506,
				"element": "H" 
			},
			{
				"x": -1.5844831438,
				"y": -3.7281496773,
				"z": 0.9476167217,
				"element": "H" 
			},
			{
				"x": -1.470166823,
				"y": -1.8089428885,
				"z": -0.6481030141,
				"element": "H" 
			}
		],
		 "valence_orbital": [ 
			{
				"type": "occ",
				"energy": -0.31109,
				"method": "rhf"
			},
			{
				"type": "occ",
				"energy": -0.28407,
				"method": "rhf"
			},
			{
				"type": "occ",
				"energy": -0.26819,
				"method": "rhf"
			},
			{
				"type": "occ",
				"energy": -0.2371,
				"method": "rhf"
			},
			{
				"type": "occ",
				"energy": -0.20915,
				"method": "rhf"
			},
			{
				"type": "unocc",
				"energy": -0.04143,
				"method": "rhf"
			},
			{
				"type": "unocc",
				"energy": 0.00668,
				"method": "rhf"
			},
			{
				"type": "unocc",
				"energy": 0.02191,
				"method": "rhf"
			},
			{
				"type": "unocc",
				"energy": 0.06742,
				"method": "rhf"
			},
			{
				"type": "unocc",
				"energy": 0.07951,
				"method": "rhf"
			}
		],
		"cosmo_sigma_profile": { 
			"-0.025": 0.0,
			"-0.024": 0.0,
			"-0.023": 0.0,
			"-0.022": 0.0,
			"-0.021": 0.0,
			"-0.02": 0.0,
			"-0.019": 0.0,
			"-0.018": 0.0,
			"-0.017": 0.0,
			"-0.016": 0.0,
			"-0.015": 0.0,
			"-0.014": 0.0,
			"-0.013": 1.01769186108,
			"-0.012": 2.9024545116,
			"-0.011": 2.73154526402,
			"-0.01": 3.02203496375,
			"-0.009": 3.7103909802,
			"-0.008": 3.11412649517,
			"-0.007": 6.7634779844,
			"-0.006": 12.4702969887,
			"-0.005": 13.925666002,
			"-0.004": 16.082654987,
			"-0.003": 17.7742599143,
			"-0.002": 15.3426382965,
			"-0.001": 11.3628247535,
			"0.0": 10.8549321017,
			"0.001": 10.881308889,
			"0.002": 12.5078760917,
			"0.003": 11.8993343605,
			"0.004": 14.1744023284,
			"0.005": 12.7867583246,
			"0.006": 4.56902380605,
			"0.007": 2.56176137093,
			"0.008": 1.88323117073,
			"0.009": 3.30046231885,
			"0.01": 3.33133927001,
			"0.011": 3.48268677308,
			"0.012": 3.78109243716,
			"0.013": 3.71360569468,
			"0.014": 2.82721673788,
			"0.015": 1.4555196611,
			"0.016": 0.342843866413,
			"0.017": 0.0,
			"0.018": 0.0,
			"0.019": 0.0,
			"0.02": 0.0,
			"0.021": 0.0,
			"0.022": 0.0,
			"0.023": 0.0,
			"0.024": 0.0,
			"0.025": 0.0
		}
	}
}
