{
	 "smiles": "CCCCC(=O)OCN1C(=O)NC(C1=O)(C1=CC=CC=C1)C1=CC=CC=C1", 
	 "Tm": 364.15, 
	 "num_atms": 49, 
	 "gaussian": { 
		 "optdone": 1, 
		 "sigma_profile": "yes", 
		 "theory": "DFT", 
		 "functional": "B3LYP", 
		 "basiset": "6-31G**", 
		 "properties": { 
			 "R2extent": 9646.7297, 
			 "electric_dipole_moment_norm": 2.24938542718, 
			 "electric_quadrupole_moment_norm": 20.755957241, 
			 "total_energy": -1223.95113802, 
			 "HOMO_LUMO_gap": 0.21692, 
			 "cosmo_polarized_energy": -19.0, 
			 "cosmo_cavitation_energy": 51.53, 
			 "cosmo_dispersion_energy": -32.58, 
			 "cosmo_repulsion_energy": 2.46, 
			 "cosmo_total_nonelectrostatic_energy": 21.4, 
			 "SMD_solvation_energy": 10.17 
		},
		"coords": [
			{
				"x": 1.6079066809,
				"y": 1.4800799799,
				"z": -3.7590172349,
				"element": "C" 
			},
			{
				"x": 1.0896900991,
				"y": 2.3476081607,
				"z": -2.6078205119,
				"element": "C" 
			},
			{
				"x": 2.2040175666,
				"y": 2.7686438074,
				"z": -1.6404753457,
				"element": "C" 
			},
			{
				"x": 1.7149829429,
				"y": 3.6174321485,
				"z": -0.4465197354,
				"element": "C" 
			},
			{
				"x": 0.9291607494,
				"y": 2.7914870645,
				"z": 0.5495097465,
				"element": "C" 
			},
			{
				"x": 1.4088453382,
				"y": 1.9660315736,
				"z": 1.2971626866,
				"element": "O" 
			},
			{
				"x": -0.4011598553,
				"y": 3.0642479796,
				"z": 0.486891917,
				"element": "O" 
			},
			{
				"x": -1.2745820664,
				"y": 2.4001720962,
				"z": 1.4090957179,
				"element": "C" 
			},
			{
				"x": -1.3038769399,
				"y": 0.9642358676,
				"z": 1.2760271512,
				"element": "N" 
			},
			{
				"x": -0.9305286138,
				"y": 0.1067257683,
				"z": 2.3474878868,
				"element": "C" 
			},
			{
				"x": -0.5998176376,
				"y": 0.4695180572,
				"z": 3.4549386907,
				"element": "O" 
			},
			{
				"x": -1.0663524979,
				"y": -1.1694770495,
				"z": 1.8702287363,
				"element": "N" 
			},
			{
				"x": -1.4139368104,
				"y": -1.2486335928,
				"z": 0.4489277539,
				"element": "C" 
			},
			{
				"x": -1.5808467669,
				"y": 0.2686370483,
				"z": 0.1167791649,
				"element": "C" 
			},
			{
				"x": -1.8886866516,
				"y": 0.7534317928,
				"z": -0.9518277625,
				"element": "O" 
			},
			{
				"x": -2.7617381096,
				"y": -1.949631615,
				"z": 0.2174641753,
				"element": "C" 
			},
			{
				"x": -3.3940662873,
				"y": -2.6589133119,
				"z": 1.2439849611,
				"element": "C" 
			},
			{
				"x": -4.6159621345,
				"y": -3.2972764543,
				"z": 1.0188437966,
				"element": "C" 
			},
			{
				"x": -5.2241968267,
				"y": -3.2285216778,
				"z": -0.2337767025,
				"element": "C" 
			},
			{
				"x": -4.6034289351,
				"y": -2.5140053166,
				"z": -1.2609895184,
				"element": "C" 
			},
			{
				"x": -3.3814984498,
				"y": -1.8799239676,
				"z": -1.0404465129,
				"element": "C" 
			},
			{
				"x": -0.2394507345,
				"y": -1.8477862487,
				"z": -0.35272908,
				"element": "C" 
			},
			{
				"x": 1.0180266847,
				"y": -1.2259328539,
				"z": -0.2741128834,
				"element": "C" 
			},
			{
				"x": 2.1150263375,
				"y": -1.7588155693,
				"z": -0.9483425993,
				"element": "C" 
			},
			{
				"x": 1.9782736239,
				"y": -2.9249451794,
				"z": -1.7064117753,
				"element": "C" 
			},
			{
				"x": 0.7366278982,
				"y": -3.5527937314,
				"z": -1.7790566955,
				"element": "C" 
			},
			{
				"x": -0.3661887185,
				"y": -3.0188139041,
				"z": -1.1062026672,
				"element": "C" 
			},
			{
				"x": 2.3868340404,
				"y": 1.9975654629,
				"z": -4.3316101625,
				"element": "H" 
			},
			{
				"x": 0.8013327113,
				"y": 1.2209507083,
				"z": -4.4520007277,
				"element": "H" 
			},
			{
				"x": 2.0350682954,
				"y": 0.5431535136,
				"z": -3.3843913139,
				"element": "H" 
			},
			{
				"x": 0.302459223,
				"y": 1.8060695296,
				"z": -2.0705100684,
				"element": "H" 
			},
			{
				"x": 0.6104616562,
				"y": 3.2495937611,
				"z": -3.0119005861,
				"element": "H" 
			},
			{
				"x": 2.7214004709,
				"y": 1.8834668017,
				"z": -1.2496811873,
				"element": "H" 
			},
			{
				"x": 2.9570476886,
				"y": 3.3518424357,
				"z": -2.1853303703,
				"element": "H" 
			},
			{
				"x": 1.1072944534,
				"y": 4.4570312928,
				"z": -0.7946743695,
				"element": "H" 
			},
			{
				"x": 2.5794519123,
				"y": 4.0137837699,
				"z": 0.0959012485,
				"element": "H" 
			},
			{
				"x": -2.2547092091,
				"y": 2.8215060083,
				"z": 1.1840825736,
				"element": "H" 
			},
			{
				"x": -0.9780849433,
				"y": 2.6015249143,
				"z": 2.4407568461,
				"element": "H" 
			},
			{
				"x": -0.607106995,
				"y": -1.9230615772,
				"z": 2.3591968107,
				"element": "H" 
			},
			{
				"x": -2.940993162,
				"y": -2.7017743786,
				"z": 2.2281779326,
				"element": "H" 
			},
			{
				"x": -5.0916692149,
				"y": -3.8436350657,
				"z": 1.8282431513,
				"element": "H" 
			},
			{
				"x": -6.1756670417,
				"y": -3.7225189867,
				"z": -0.4082425167,
				"element": "H" 
			},
			{
				"x": -5.0724062531,
				"y": -2.4456842413,
				"z": -2.2383772915,
				"element": "H" 
			},
			{
				"x": -2.9119313191,
				"y": -1.3122052669,
				"z": -1.835538213,
				"element": "H" 
			},
			{
				"x": 1.1518485892,
				"y": -0.3270802141,
				"z": 0.3216709337,
				"element": "H" 
			},
			{
				"x": 3.0795053422,
				"y": -1.2646926613,
				"z": -0.8743227438,
				"element": "H" 
			},
			{
				"x": 2.8342205979,
				"y": -3.3406267003,
				"z": -2.2301130972,
				"element": "H" 
			},
			{
				"x": 0.6184968423,
				"y": -4.4644958324,
				"z": -2.3576460498,
				"element": "H" 
			},
			{
				"x": -1.3241935705,
				"y": -3.5206941462,
				"z": -1.1722041586,
				"element": "H" 
			}
		],
		 "valence_orbital": [ 
			{
				"type": "occ",
				"energy": -0.26903,
				"method": "rhf"
			},
			{
				"type": "occ",
				"energy": -0.2588,
				"method": "rhf"
			},
			{
				"type": "occ",
				"energy": -0.2547,
				"method": "rhf"
			},
			{
				"type": "occ",
				"energy": -0.25272,
				"method": "rhf"
			},
			{
				"type": "occ",
				"energy": -0.24445,
				"method": "rhf"
			},
			{
				"type": "unocc",
				"energy": -0.02753,
				"method": "rhf"
			},
			{
				"type": "unocc",
				"energy": -0.0183,
				"method": "rhf"
			},
			{
				"type": "unocc",
				"energy": -0.01028,
				"method": "rhf"
			},
			{
				"type": "unocc",
				"energy": -0.00212,
				"method": "rhf"
			},
			{
				"type": "unocc",
				"energy": -0.00035,
				"method": "rhf"
			}
		],
		"cosmo_sigma_profile": { 
			"-0.025": 0.0,
			"-0.024": 0.0,
			"-0.023": 0.0,
			"-0.022": 0.0,
			"-0.021": 0.0,
			"-0.02": 0.0,
			"-0.019": 0.0,
			"-0.018": 0.0,
			"-0.017": 0.0,
			"-0.016": 0.471546230667,
			"-0.015": 1.09501390665,
			"-0.014": 1.30972418373,
			"-0.013": 0.56586084396,
			"-0.012": 0.886304170882,
			"-0.011": 1.2403533909,
			"-0.01": 1.26589612805,
			"-0.009": 3.33205992494,
			"-0.008": 4.79037134281,
			"-0.007": 5.14294052954,
			"-0.006": 17.6720607178,
			"-0.005": 27.4200349967,
			"-0.004": 31.2124905473,
			"-0.003": 33.7323631457,
			"-0.002": 37.4755970023,
			"-0.001": 34.8210969158,
			"0.0": 36.0689707729,
			"0.001": 33.4733454181,
			"0.002": 26.7479865809,
			"0.003": 21.1668512161,
			"0.004": 21.7870831312,
			"0.005": 20.3937562611,
			"0.006": 6.78369482195,
			"0.007": 5.71192547272,
			"0.008": 5.08970258307,
			"0.009": 4.86976165462,
			"0.01": 5.92765843921,
			"0.011": 9.01305376411,
			"0.012": 8.0079462642,
			"0.013": 1.04626347405,
			"0.014": 0.0,
			"0.015": 0.0,
			"0.016": 0.0,
			"0.017": 0.0,
			"0.018": 0.0,
			"0.019": 0.0,
			"0.02": 0.0,
			"0.021": 0.0,
			"0.022": 0.0,
			"0.023": 0.0,
			"0.024": 0.0,
			"0.025": 0.0
		}
	}
}
