{
	 "smiles": "CC1=CC=C(C)N1C1=C(SC=C1)C(=O)NN", 
	 "Tm": 409.15, 
	 "num_atms": 29, 
	 "gaussian": { 
		 "optdone": 1, 
		 "sigma_profile": "yes", 
		 "theory": "DFT", 
		 "functional": "B3LYP", 
		 "basiset": "6-31G**", 
		 "properties": { 
			 "R2extent": 3907.9002, 
			 "electric_dipole_moment_norm": 2.86676228523, 
			 "electric_quadrupole_moment_norm": 22.6091176033, 
			 "total_energy": -1064.62689981, 
			 "HOMO_LUMO_gap": 0.14803, 
			 "cosmo_polarized_energy": -14.86, 
			 "cosmo_cavitation_energy": 32.77, 
			 "cosmo_dispersion_energy": -23.18, 
			 "cosmo_repulsion_energy": 1.78, 
			 "cosmo_total_nonelectrostatic_energy": 11.37, 
			 "SMD_solvation_energy": 7.04 
		},
		"coords": [
			{
				"x": -0.792996738,
				"y": 0.6922715215,
				"z": -2.6353844146,
				"element": "C" 
			},
			{
				"x": 0.1646109986,
				"y": -0.0857256727,
				"z": -1.7893095915,
				"element": "C" 
			},
			{
				"x": 1.1571665654,
				"y": -0.9655838704,
				"z": -2.1594503951,
				"element": "C" 
			},
			{
				"x": 1.7359470029,
				"y": -1.5067199871,
				"z": -0.9721857892,
				"element": "C" 
			},
			{
				"x": 1.0859263905,
				"y": -0.9540102397,
				"z": 0.1080079799,
				"element": "C" 
			},
			{
				"x": 1.3375964988,
				"y": -1.1153270174,
				"z": 1.5722165243,
				"element": "C" 
			},
			{
				"x": 0.1238201209,
				"y": -0.077997025,
				"z": -0.3943606282,
				"element": "N" 
			},
			{
				"x": -0.7126927717,
				"y": 0.7433880781,
				"z": 0.4018782916,
				"element": "C" 
			},
			{
				"x": -0.6864166011,
				"y": 2.1278136233,
				"z": 0.43043393,
				"element": "C" 
			},
			{
				"x": -1.9679345026,
				"y": 2.7452805253,
				"z": 1.4379173365,
				"element": "S" 
			},
			{
				"x": -2.4728704974,
				"y": 1.1524723321,
				"z": 1.8687252852,
				"element": "C" 
			},
			{
				"x": -1.7361423961,
				"y": 0.1919392819,
				"z": 1.2337139833,
				"element": "C" 
			},
			{
				"x": 0.0880567303,
				"y": 3.1566746742,
				"z": -0.316921053,
				"element": "C" 
			},
			{
				"x": -0.4397570357,
				"y": 4.2083141395,
				"z": -0.6712938278,
				"element": "O" 
			},
			{
				"x": 1.3968533531,
				"y": 2.8974440129,
				"z": -0.6392211013,
				"element": "N" 
			},
			{
				"x": 2.1814594278,
				"y": 1.9477908551,
				"z": 0.0245236162,
				"element": "N" 
			},
			{
				"x": -1.8360447191,
				"y": 0.4842074313,
				"z": -2.3688034249,
				"element": "H" 
			},
			{
				"x": -0.6540686243,
				"y": 0.408666118,
				"z": -3.6817378825,
				"element": "H" 
			},
			{
				"x": -0.652900822,
				"y": 1.7764539059,
				"z": -2.5646389248,
				"element": "H" 
			},
			{
				"x": 1.4143877196,
				"y": -1.2155989407,
				"z": -3.1799955528,
				"element": "H" 
			},
			{
				"x": 2.5365889123,
				"y": -2.2317654578,
				"z": -0.9113081526,
				"element": "H" 
			},
			{
				"x": 0.480738324,
				"y": -1.537048292,
				"z": 2.1108913037,
				"element": "H" 
			},
			{
				"x": 1.5787607576,
				"y": -0.1545397475,
				"z": 2.0415592029,
				"element": "H" 
			},
			{
				"x": 2.1842508265,
				"y": -1.7906386004,
				"z": 1.7203898332,
				"element": "H" 
			},
			{
				"x": -3.2996581017,
				"y": 1.011692475,
				"z": 2.5513519197,
				"element": "H" 
			},
			{
				"x": -1.9118033428,
				"y": -0.8735160476,
				"z": 1.3213127704,
				"element": "H" 
			},
			{
				"x": 1.8301974161,
				"y": 3.6428260349,
				"z": -1.1761734348,
				"element": "H" 
			},
			{
				"x": 2.9595011458,
				"y": 2.4033070161,
				"z": 0.4932284206,
				"element": "H" 
			},
			{
				"x": 2.5282239623,
				"y": 1.2533288733,
				"z": -0.6325662241,
				"element": "H" 
			}
		],
		 "valence_orbital": [ 
			{
				"type": "occ",
				"energy": -0.25934,
				"method": "rhf"
			},
			{
				"type": "occ",
				"energy": -0.25682,
				"method": "rhf"
			},
			{
				"type": "occ",
				"energy": -0.2394,
				"method": "rhf"
			},
			{
				"type": "occ",
				"energy": -0.22526,
				"method": "rhf"
			},
			{
				"type": "occ",
				"energy": -0.19214,
				"method": "rhf"
			},
			{
				"type": "unocc",
				"energy": -0.04411,
				"method": "rhf"
			},
			{
				"type": "unocc",
				"energy": 0.01932,
				"method": "rhf"
			},
			{
				"type": "unocc",
				"energy": 0.03466,
				"method": "rhf"
			},
			{
				"type": "unocc",
				"energy": 0.04235,
				"method": "rhf"
			},
			{
				"type": "unocc",
				"energy": 0.06971,
				"method": "rhf"
			}
		],
		"cosmo_sigma_profile": { 
			"-0.025": 0.0,
			"-0.024": 0.0,
			"-0.023": 0.0,
			"-0.022": 0.0,
			"-0.021": 0.0,
			"-0.02": 0.0,
			"-0.019": 0.0,
			"-0.018": 0.0,
			"-0.017": 0.0,
			"-0.016": 0.0,
			"-0.015": 0.0,
			"-0.014": 0.334537914692,
			"-0.013": 1.64383886397,
			"-0.012": 3.53837650052,
			"-0.011": 2.9697317091,
			"-0.01": 2.60140578677,
			"-0.009": 5.66262285298,
			"-0.008": 5.28846839201,
			"-0.007": 6.64722107711,
			"-0.006": 5.58191443122,
			"-0.005": 9.2567180479,
			"-0.004": 15.6632928575,
			"-0.003": 15.7180009076,
			"-0.002": 21.031897872,
			"-0.001": 22.9140881305,
			"0.0": 27.5226544344,
			"0.001": 21.1619584503,
			"0.002": 21.2297371538,
			"0.003": 19.4314965507,
			"0.004": 13.1381894975,
			"0.005": 7.64568844594,
			"0.006": 4.97757345857,
			"0.007": 4.3059639433,
			"0.008": 4.86096990926,
			"0.009": 4.1551678087,
			"0.01": 2.17752367243,
			"0.011": 1.54390522145,
			"0.012": 2.03583935496,
			"0.013": 5.33981570294,
			"0.014": 2.91643978698,
			"0.015": 0.00302734689557,
			"0.016": 0.0,
			"0.017": 0.0,
			"0.018": 0.0,
			"0.019": 0.0,
			"0.02": 0.0,
			"0.021": 0.0,
			"0.022": 0.0,
			"0.023": 0.0,
			"0.024": 0.0,
			"0.025": 0.0
		}
	}
}
