{
	 "smiles": "[O-][N+](=O)C1=C(F)C=C2C=CC(Cl)=NC2=C1", 
	 "Tm": 404.15, 
	 "num_atms": 19, 
	 "gaussian": { 
		 "optdone": 1, 
		 "sigma_profile": "yes", 
		 "theory": "DFT", 
		 "functional": "B3LYP", 
		 "basiset": "6-31G**", 
		 "properties": { 
			 "R2extent": 4375.6229, 
			 "electric_dipole_moment_norm": 5.6400879018, 
			 "electric_quadrupole_moment_norm": 11.328829267, 
			 "total_energy": -1165.23900652, 
			 "HOMO_LUMO_gap": 0.15604, 
			 "cosmo_polarized_energy": -12.03, 
			 "cosmo_cavitation_energy": 27.29, 
			 "cosmo_dispersion_energy": -20.28, 
			 "cosmo_repulsion_energy": 1.54, 
			 "cosmo_total_nonelectrostatic_energy": 8.55, 
			 "SMD_solvation_energy": 5.45 
		},
		"coords": [
			{
				"x": 2.9495038975,
				"y": 1.7985552203,
				"z": 0.5343607872,
				"element": "O" 
			},
			{
				"x": 2.3399217142,
				"y": 1.4843901543,
				"z": -0.4864638292,
				"element": "N" 
			},
			{
				"x": 2.5546166889,
				"y": 1.9319647325,
				"z": -1.6085963041,
				"element": "O" 
			},
			{
				"x": 1.2475798811,
				"y": 0.5081362808,
				"z": -0.3380834385,
				"element": "C" 
			},
			{
				"x": 0.7636280231,
				"y": -0.2405535448,
				"z": -1.4449126283,
				"element": "C" 
			},
			{
				"x": 1.3278177364,
				"y": -0.1292354233,
				"z": -2.6485681982,
				"element": "F" 
			},
			{
				"x": -0.2752059169,
				"y": -1.1251903838,
				"z": -1.2815190112,
				"element": "C" 
			},
			{
				"x": -0.8801437268,
				"y": -1.2907957375,
				"z": -0.0137376737,
				"element": "C" 
			},
			{
				"x": -1.9639208358,
				"y": -2.1802732505,
				"z": 0.2260334044,
				"element": "C" 
			},
			{
				"x": -2.4883722038,
				"y": -2.2834909454,
				"z": 1.4883774974,
				"element": "C" 
			},
			{
				"x": -1.9128027847,
				"y": -1.4825000272,
				"z": 2.5153810078,
				"element": "C" 
			},
			{
				"x": -2.5962431602,
				"y": -1.6256986929,
				"z": 4.1298166343,
				"element": "Cl" 
			},
			{
				"x": -0.9243122339,
				"y": -0.6551877543,
				"z": 2.3546598558,
				"element": "N" 
			},
			{
				"x": -0.3904943888,
				"y": -0.5422597063,
				"z": 1.1011567415,
				"element": "C" 
			},
			{
				"x": 0.6872597621,
				"y": 0.3518981019,
				"z": 0.9108746447,
				"element": "C" 
			},
			{
				"x": -0.6152438558,
				"y": -1.693654476,
				"z": -2.1407363302,
				"element": "H" 
			},
			{
				"x": -2.3679366496,
				"y": -2.7699553226,
				"z": -0.5917658813,
				"element": "H" 
			},
			{
				"x": -3.3137563263,
				"y": -2.9470831368,
				"z": 1.7158736264,
				"element": "H" 
			},
			{
				"x": 1.0710043795,
				"y": 0.9165339115,
				"z": 1.7510490951,
				"element": "H" 
			}
		],
		 "valence_orbital": [ 
			{
				"type": "occ",
				"energy": -0.31578,
				"method": "rhf"
			},
			{
				"type": "occ",
				"energy": -0.30313,
				"method": "rhf"
			},
			{
				"type": "occ",
				"energy": -0.29808,
				"method": "rhf"
			},
			{
				"type": "occ",
				"energy": -0.28317,
				"method": "rhf"
			},
			{
				"type": "occ",
				"energy": -0.26478,
				"method": "rhf"
			},
			{
				"type": "unocc",
				"energy": -0.10874,
				"method": "rhf"
			},
			{
				"type": "unocc",
				"energy": -0.07307,
				"method": "rhf"
			},
			{
				"type": "unocc",
				"energy": -0.0378,
				"method": "rhf"
			},
			{
				"type": "unocc",
				"energy": -0.01603,
				"method": "rhf"
			},
			{
				"type": "unocc",
				"energy": 0.01588,
				"method": "rhf"
			}
		],
		"cosmo_sigma_profile": { 
			"-0.025": 0.0,
			"-0.024": 0.0,
			"-0.023": 0.0,
			"-0.022": 0.0,
			"-0.021": 0.0,
			"-0.02": 0.0,
			"-0.019": 0.0,
			"-0.018": 0.0,
			"-0.017": 0.0,
			"-0.016": 0.0,
			"-0.015": 0.0,
			"-0.014": 0.0,
			"-0.013": 0.0,
			"-0.012": 0.0,
			"-0.011": 0.0165337388899,
			"-0.01": 1.87959023788,
			"-0.009": 6.72566704794,
			"-0.008": 7.48643522411,
			"-0.007": 8.30971707407,
			"-0.006": 6.6214163344,
			"-0.005": 9.00787157944,
			"-0.004": 8.02505522629,
			"-0.003": 17.6474132015,
			"-0.002": 25.179267052,
			"-0.001": 25.0641114573,
			"0.0": 14.3773042625,
			"0.001": 9.32713814374,
			"0.002": 12.3386555297,
			"0.003": 16.3909432656,
			"0.004": 12.4533854944,
			"0.005": 7.4595567938,
			"0.006": 6.76208267797,
			"0.007": 12.691149852,
			"0.008": 7.8947288961,
			"0.009": 4.71618611463,
			"0.01": 1.44007601527,
			"0.011": 0.796810939488,
			"0.012": 0.741150887845,
			"0.013": 0.323280618182,
			"0.014": 0.0,
			"0.015": 0.0,
			"0.016": 0.0,
			"0.017": 0.0,
			"0.018": 0.0,
			"0.019": 0.0,
			"0.02": 0.0,
			"0.021": 0.0,
			"0.022": 0.0,
			"0.023": 0.0,
			"0.024": 0.0,
			"0.025": 0.0
		}
	}
}
