{
	 "smiles": "OC(=O)C1=CC2=C(N1)SC(Br)=C2", 
	 "Tm": 438.15, 
	 "num_atms": 16, 
	 "gaussian": { 
		 "optdone": 1, 
		 "sigma_profile": "yes", 
		 "theory": "DFT", 
		 "functional": "B3LYP", 
		 "basiset": "6-31G**", 
		 "properties": { 
			 "R2extent": 5422.0282, 
			 "electric_dipole_moment_norm": 2.79210431216, 
			 "electric_quadrupole_moment_norm": 21.9135584856, 
			 "total_energy": -3443.92628235, 
			 "HOMO_LUMO_gap": 0.17908, 
			 "cosmo_polarized_energy": -15.31, 
			 "cosmo_cavitation_energy": 25.29, 
			 "cosmo_dispersion_energy": -19.97, 
			 "cosmo_repulsion_energy": 1.54, 
			 "cosmo_total_nonelectrostatic_energy": 6.86, 
			 "SMD_solvation_energy": 3.69 
		},
		"coords": [
			{
				"x": -4.0631003301,
				"y": -1.7977853509,
				"z": 0.767937907,
				"element": "O" 
			},
			{
				"x": -3.8576333307,
				"y": -0.4583396465,
				"z": 0.8030326578,
				"element": "C" 
			},
			{
				"x": -4.7213364987,
				"y": 0.2895740405,
				"z": 1.2153788548,
				"element": "O" 
			},
			{
				"x": -2.5626018739,
				"y": 0.0366866357,
				"z": 0.3221996457,
				"element": "C" 
			},
			{
				"x": -1.4187306416,
				"y": -0.5627937912,
				"z": -0.1923982112,
				"element": "C" 
			},
			{
				"x": -0.4964522258,
				"y": 0.4810778049,
				"z": -0.4749707914,
				"element": "C" 
			},
			{
				"x": -1.1304475694,
				"y": 1.6793894648,
				"z": -0.1149009253,
				"element": "C" 
			},
			{
				"x": -2.3690548137,
				"y": 1.411231219,
				"z": 0.3627671361,
				"element": "N" 
			},
			{
				"x": -0.1581649558,
				"y": 3.0946563802,
				"z": -0.3856424666,
				"element": "S" 
			},
			{
				"x": 1.1302265719,
				"y": 2.0354174876,
				"z": -0.9983755495,
				"element": "C" 
			},
			{
				"x": 2.7376574413,
				"y": 2.8272567324,
				"z": -1.5803580471,
				"element": "Br" 
			},
			{
				"x": 0.825454712,
				"y": 0.7095889673,
				"z": -0.989794739,
				"element": "C" 
			},
			{
				"x": -3.2858777595,
				"y": -2.2522452048,
				"z": 0.4139813879,
				"element": "H" 
			},
			{
				"x": -1.2587250108,
				"y": -1.6215854395,
				"z": -0.3487369042,
				"element": "H" 
			},
			{
				"x": -3.0840471825,
				"y": 2.0371077631,
				"z": 0.7060458568,
				"element": "H" 
			},
			{
				"x": 1.5102334674,
				"y": -0.0552370627,
				"z": -1.3329658117,
				"element": "H" 
			}
		],
		 "valence_orbital": [ 
			{
				"type": "occ",
				"energy": -0.30579,
				"method": "rhf"
			},
			{
				"type": "occ",
				"energy": -0.30444,
				"method": "rhf"
			},
			{
				"type": "occ",
				"energy": -0.28434,
				"method": "rhf"
			},
			{
				"type": "occ",
				"energy": -0.24059,
				"method": "rhf"
			},
			{
				"type": "occ",
				"energy": -0.22465,
				"method": "rhf"
			},
			{
				"type": "unocc",
				"energy": -0.04557,
				"method": "rhf"
			},
			{
				"type": "unocc",
				"energy": -0.01878,
				"method": "rhf"
			},
			{
				"type": "unocc",
				"energy": -0.01777,
				"method": "rhf"
			},
			{
				"type": "unocc",
				"energy": 0.00248,
				"method": "rhf"
			},
			{
				"type": "unocc",
				"energy": 0.04765,
				"method": "rhf"
			}
		],
		"cosmo_sigma_profile": { 
			"-0.025": 0.0,
			"-0.024": 0.0,
			"-0.023": 0.0,
			"-0.022": 0.0,
			"-0.021": 0.0,
			"-0.02": 0.0,
			"-0.019": 0.270102889316,
			"-0.018": 1.12468749933,
			"-0.017": 1.58431864826,
			"-0.016": 1.98109764885,
			"-0.015": 1.90783689018,
			"-0.014": 2.18636249129,
			"-0.013": 1.6906397592,
			"-0.012": 2.59296778618,
			"-0.011": 1.84771344505,
			"-0.01": 1.8174640551,
			"-0.009": 2.74884069455,
			"-0.008": 4.14481906819,
			"-0.007": 4.75450701411,
			"-0.006": 5.75453342394,
			"-0.005": 7.32280616063,
			"-0.004": 5.93679506264,
			"-0.003": 8.13413340204,
			"-0.002": 11.4259811994,
			"-0.001": 12.3287434095,
			"0.0": 15.9750188797,
			"0.001": 19.9411004446,
			"0.002": 25.1558825294,
			"0.003": 25.9728768806,
			"0.004": 15.2349854796,
			"0.005": 2.0406308776,
			"0.006": 1.96177870336,
			"0.007": 2.24615696164,
			"0.008": 2.51714411875,
			"0.009": 3.37306176624,
			"0.01": 4.63437891572,
			"0.011": 4.23959727936,
			"0.012": 4.22844081954,
			"0.013": 2.17043750917,
			"0.014": 0.337214712953,
			"0.015": 0.0,
			"0.016": 0.0,
			"0.017": 0.0,
			"0.018": 0.0,
			"0.019": 0.0,
			"0.02": 0.0,
			"0.021": 0.0,
			"0.022": 0.0,
			"0.023": 0.0,
			"0.024": 0.0,
			"0.025": 0.0
		}
	}
}
