{
	 "smiles": "CP(Cl)(Cl)=O", 
	 "Tm": 308.65, 
	 "num_atms": 8, 
	 "gaussian": { 
		 "optdone": 1, 
		 "sigma_profile": "yes", 
		 "theory": "DFT", 
		 "functional": "B3LYP", 
		 "basiset": "6-31G**", 
		 "properties": { 
			 "R2extent": 2174.7536, 
			 "electric_dipole_moment_norm": 3.68322562573, 
			 "electric_quadrupole_moment_norm": 6.58410907033, 
			 "total_energy": -1376.9447435, 
			 "HOMO_LUMO_gap": 0.26556, 
			 "cosmo_polarized_energy": -9.35, 
			 "cosmo_cavitation_energy": 17.03, 
			 "cosmo_dispersion_energy": -13.14, 
			 "cosmo_repulsion_energy": 1.12, 
			 "cosmo_total_nonelectrostatic_energy": 5.02, 
			 "SMD_solvation_energy": 3.59 
		},
		"coords": [
			{
				"x": 1.0031552312,
				"y": 0.4242044423,
				"z": 0.1987677002,
				"element": "C" 
			},
			{
				"x": 1.7443689073,
				"y": -1.2101145667,
				"z": 0.4719637691,
				"element": "P" 
			},
			{
				"x": 1.2609439134,
				"y": -1.6418972577,
				"z": 2.4293666496,
				"element": "Cl" 
			},
			{
				"x": 3.7658361609,
				"y": -0.8163260823,
				"z": 0.5727313494,
				"element": "Cl" 
			},
			{
				"x": 1.3840796909,
				"y": -2.2757157205,
				"z": -0.4880000854,
				"element": "O" 
			},
			{
				"x": 1.302708403,
				"y": 0.7677673228,
				"z": -0.7944132501,
				"element": "H" 
			},
			{
				"x": 1.3317098194,
				"y": 1.1352980259,
				"z": 0.9582881755,
				"element": "H" 
			},
			{
				"x": -0.083202126,
				"y": 0.3108838363,
				"z": 0.2328956916,
				"element": "H" 
			}
		],
		 "valence_orbital": [ 
			{
				"type": "occ",
				"energy": -0.3585,
				"method": "rhf"
			},
			{
				"type": "occ",
				"energy": -0.34863,
				"method": "rhf"
			},
			{
				"type": "occ",
				"energy": -0.34234,
				"method": "rhf"
			},
			{
				"type": "occ",
				"energy": -0.32045,
				"method": "rhf"
			},
			{
				"type": "occ",
				"energy": -0.3177,
				"method": "rhf"
			},
			{
				"type": "unocc",
				"energy": -0.05214,
				"method": "rhf"
			},
			{
				"type": "unocc",
				"energy": 0.0092,
				"method": "rhf"
			},
			{
				"type": "unocc",
				"energy": 0.04385,
				"method": "rhf"
			},
			{
				"type": "unocc",
				"energy": 0.0732,
				"method": "rhf"
			},
			{
				"type": "unocc",
				"energy": 0.10904,
				"method": "rhf"
			}
		],
		"cosmo_sigma_profile": { 
			"-0.025": 0.0,
			"-0.024": 0.0,
			"-0.023": 0.0,
			"-0.022": 0.0,
			"-0.021": 0.0,
			"-0.02": 0.0,
			"-0.019": 0.0,
			"-0.018": 0.0,
			"-0.017": 0.0,
			"-0.016": 0.0,
			"-0.015": 0.0,
			"-0.014": 0.0,
			"-0.013": 0.0,
			"-0.012": 0.0,
			"-0.011": 0.333415175008,
			"-0.01": 2.16031213863,
			"-0.009": 6.41496329909,
			"-0.008": 5.84005268887,
			"-0.007": 5.57088439693,
			"-0.006": 5.44387275468,
			"-0.005": 7.02786490171,
			"-0.004": 8.1794683579,
			"-0.003": 5.76429721842,
			"-0.002": 5.30013773782,
			"-0.001": 7.61265090195,
			"0.0": 9.66473579276,
			"0.001": 11.6046735991,
			"0.002": 18.3345858079,
			"0.003": 18.5048601436,
			"0.004": 2.75479497307,
			"0.005": 0.933602255094,
			"0.006": 0.616631917142,
			"0.007": 1.06205839009,
			"0.008": 1.07789260554,
			"0.009": 1.33954333192,
			"0.01": 1.52334053118,
			"0.011": 4.09360622981,
			"0.012": 6.60414285091,
			"0.013": 0.767706352932,
			"0.014": 0.0,
			"0.015": 0.0,
			"0.016": 0.0,
			"0.017": 0.0,
			"0.018": 0.0,
			"0.019": 0.0,
			"0.02": 0.0,
			"0.021": 0.0,
			"0.022": 0.0,
			"0.023": 0.0,
			"0.024": 0.0,
			"0.025": 0.0
		}
	}
}
