{
	 "smiles": "CCOC(=O)C(C)(C)N1CCN(CC1)C1=CC=C(Cl)C=C1", 
	 "Tm": 329.15, 
	 "num_atms": 44, 
	 "gaussian": { 
		 "optdone": 1, 
		 "sigma_profile": "yes", 
		 "theory": "DFT", 
		 "functional": "B3LYP", 
		 "basiset": "6-31G**", 
		 "properties": { 
			 "R2extent": 10338.3942, 
			 "electric_dipole_moment_norm": 3.9868294433, 
			 "electric_quadrupole_moment_norm": 21.4063283244, 
			 "total_energy": -1343.70818391, 
			 "HOMO_LUMO_gap": 0.1826, 
			 "cosmo_polarized_energy": -12.7, 
			 "cosmo_cavitation_energy": 45.62, 
			 "cosmo_dispersion_energy": -31.21, 
			 "cosmo_repulsion_energy": 2.38, 
			 "cosmo_total_nonelectrostatic_energy": 16.8, 
			 "SMD_solvation_energy": 5.66 
		},
		"coords": [
			{
				"x": 2.347968718,
				"y": -3.4260763044,
				"z": 2.6680036582,
				"element": "C" 
			},
			{
				"x": 1.9237311149,
				"y": -2.4429481678,
				"z": 3.7485721751,
				"element": "C" 
			},
			{
				"x": 1.2507122843,
				"y": -1.2904401894,
				"z": 3.1854236678,
				"element": "O" 
			},
			{
				"x": -0.0738496268,
				"y": -1.4155437529,
				"z": 2.9663738344,
				"element": "C" 
			},
			{
				"x": -0.7019889976,
				"y": -2.4284010513,
				"z": 3.1960916491,
				"element": "O" 
			},
			{
				"x": -0.7081159917,
				"y": -0.0950697707,
				"z": 2.4675331893,
				"element": "C" 
			},
			{
				"x": -0.6457928227,
				"y": 0.871998455,
				"z": 3.6732949797,
				"element": "C" 
			},
			{
				"x": -2.1796125545,
				"y": -0.3692761968,
				"z": 2.0965366184,
				"element": "C" 
			},
			{
				"x": 0.1145872883,
				"y": 0.4243633327,
				"z": 1.351553001,
				"element": "N" 
			},
			{
				"x": 0.2221616659,
				"y": -0.4826544413,
				"z": 0.2053375736,
				"element": "C" 
			},
			{
				"x": 1.331249588,
				"y": -0.0070792672,
				"z": -0.745127737,
				"element": "C" 
			},
			{
				"x": 1.0870228233,
				"y": 1.3618102749,
				"z": -1.2044568299,
				"element": "N" 
			},
			{
				"x": 0.9105030078,
				"y": 2.2521266884,
				"z": -0.0625680508,
				"element": "C" 
			},
			{
				"x": -0.1948980861,
				"y": 1.7821550303,
				"z": 0.8958629665,
				"element": "C" 
			},
			{
				"x": 0.4320212045,
				"y": 1.5991852939,
				"z": -2.4217766715,
				"element": "C" 
			},
			{
				"x": -0.5245550811,
				"y": 2.6222311427,
				"z": -2.5867211695,
				"element": "C" 
			},
			{
				"x": -1.1112175501,
				"y": 2.8771222548,
				"z": -3.8259110608,
				"element": "C" 
			},
			{
				"x": -0.7696185386,
				"y": 2.1024442893,
				"z": -4.9294415375,
				"element": "C" 
			},
			{
				"x": -1.5199637181,
				"y": 2.4127758039,
				"z": -6.4922721623,
				"element": "Cl" 
			},
			{
				"x": 0.16932488,
				"y": 1.0794189486,
				"z": -4.798662885,
				"element": "C" 
			},
			{
				"x": 0.7649316527,
				"y": 0.839669641,
				"z": -3.5658003166,
				"element": "C" 
			},
			{
				"x": 1.4730669277,
				"y": -3.8562184044,
				"z": 2.1743815086,
				"element": "H" 
			},
			{
				"x": 2.9238218571,
				"y": -4.2432788511,
				"z": 3.1151726938,
				"element": "H" 
			},
			{
				"x": 2.9764356638,
				"y": -2.9351641889,
				"z": 1.918902547,
				"element": "H" 
			},
			{
				"x": 2.7888679949,
				"y": -2.0223040233,
				"z": 4.2667443978,
				"element": "H" 
			},
			{
				"x": 1.2608321567,
				"y": -2.9203576746,
				"z": 4.4743123775,
				"element": "H" 
			},
			{
				"x": -1.0504194252,
				"y": 0.3808126322,
				"z": 4.5632790566,
				"element": "H" 
			},
			{
				"x": 0.3869508431,
				"y": 1.1659164258,
				"z": 3.8734077405,
				"element": "H" 
			},
			{
				"x": -1.2497289298,
				"y": 1.7661585838,
				"z": 3.4974643298,
				"element": "H" 
			},
			{
				"x": -2.2658003875,
				"y": -1.1243131485,
				"z": 1.3119787675,
				"element": "H" 
			},
			{
				"x": -2.732027997,
				"y": -0.7392656072,
				"z": 2.9628071005,
				"element": "H" 
			},
			{
				"x": -2.6569992922,
				"y": 0.5520790665,
				"z": 1.7496189481,
				"element": "H" 
			},
			{
				"x": 0.4704453172,
				"y": -1.4882807498,
				"z": 0.5601151546,
				"element": "H" 
			},
			{
				"x": -0.7208458053,
				"y": -0.5577278414,
				"z": -0.3666089672,
				"element": "H" 
			},
			{
				"x": 1.398136504,
				"y": -0.6864275439,
				"z": -1.59502092,
				"element": "H" 
			},
			{
				"x": 2.2903762008,
				"y": -0.0328555274,
				"z": -0.2126130451,
				"element": "H" 
			},
			{
				"x": 0.7244407146,
				"y": 3.2709570112,
				"z": -0.4071735099,
				"element": "H" 
			},
			{
				"x": 1.8556682538,
				"y": 2.2628768572,
				"z": 0.4960069274,
				"element": "H" 
			},
			{
				"x": -0.2199817463,
				"y": 2.4612582522,
				"z": 1.7514410263,
				"element": "H" 
			},
			{
				"x": -1.1749466405,
				"y": 1.8469361913,
				"z": 0.3872448798,
				"element": "H" 
			},
			{
				"x": -0.8402075242,
				"y": 3.2226802217,
				"z": -1.7421575097,
				"element": "H" 
			},
			{
				"x": -1.8468725468,
				"y": 3.6683796037,
				"z": -3.9235907609,
				"element": "H" 
			},
			{
				"x": 0.4482253035,
				"y": 0.484174764,
				"z": -5.6615812319,
				"element": "H" 
			},
			{
				"x": 1.526061297,
				"y": 0.0698519368,
				"z": -3.5017764033,
				"element": "H" 
			}
		],
		 "valence_orbital": [ 
			{
				"type": "occ",
				"energy": -0.273,
				"method": "rhf"
			},
			{
				"type": "occ",
				"energy": -0.26823,
				"method": "rhf"
			},
			{
				"type": "occ",
				"energy": -0.25517,
				"method": "rhf"
			},
			{
				"type": "occ",
				"energy": -0.22202,
				"method": "rhf"
			},
			{
				"type": "occ",
				"energy": -0.18977,
				"method": "rhf"
			},
			{
				"type": "unocc",
				"energy": -0.00717,
				"method": "rhf"
			},
			{
				"type": "unocc",
				"energy": 0.00458,
				"method": "rhf"
			},
			{
				"type": "unocc",
				"energy": 0.00817,
				"method": "rhf"
			},
			{
				"type": "unocc",
				"energy": 0.039,
				"method": "rhf"
			},
			{
				"type": "unocc",
				"energy": 0.07673,
				"method": "rhf"
			}
		],
		"cosmo_sigma_profile": { 
			"-0.025": 0.0,
			"-0.024": 0.0,
			"-0.023": 0.0,
			"-0.022": 0.0,
			"-0.021": 0.0,
			"-0.02": 0.0,
			"-0.019": 0.0,
			"-0.018": 0.0,
			"-0.017": 0.0,
			"-0.016": 0.0,
			"-0.015": 0.0,
			"-0.014": 0.0,
			"-0.013": 0.0,
			"-0.012": 0.0,
			"-0.011": 0.0,
			"-0.01": 0.0,
			"-0.009": 0.0,
			"-0.008": 0.185636686898,
			"-0.007": 4.28606639425,
			"-0.006": 10.5207074239,
			"-0.005": 17.809754996,
			"-0.004": 33.7631036454,
			"-0.003": 49.4948491307,
			"-0.002": 46.2513267384,
			"-0.001": 35.7453156298,
			"0.0": 29.6956184613,
			"0.001": 21.0652402666,
			"0.002": 15.6240210369,
			"0.003": 18.3595442433,
			"0.004": 20.4083871909,
			"0.005": 24.9323270311,
			"0.006": 8.82900410311,
			"0.007": 3.61255613297,
			"0.008": 3.24894272075,
			"0.009": 2.92017554255,
			"0.01": 2.46668108718,
			"0.011": 3.3539586361,
			"0.012": 4.56538649515,
			"0.013": 1.28003959228,
			"0.014": 0.390759456727,
			"0.015": 0.460327703831,
			"0.016": 0.269807166878,
			"0.017": 0.0,
			"0.018": 0.0,
			"0.019": 0.0,
			"0.02": 0.0,
			"0.021": 0.0,
			"0.022": 0.0,
			"0.023": 0.0,
			"0.024": 0.0,
			"0.025": 0.0
		}
	}
}
