{
	 "smiles": "OC(=O)C1=C2C=CC(Br)=CC2=NC(=C1)C1=CC=CC=C1", 
	 "Tm": 493.15, 
	 "num_atms": 30, 
	 "gaussian": { 
		 "optdone": 1, 
		 "sigma_profile": "yes", 
		 "theory": "DFT", 
		 "functional": "B3LYP", 
		 "basiset": "6-31G**", 
		 "properties": { 
			 "R2extent": 11016.9322, 
			 "electric_dipole_moment_norm": 3.3146851042, 
			 "electric_quadrupole_moment_norm": 9.65168501455, 
			 "total_energy": -3392.36410268, 
			 "HOMO_LUMO_gap": 0.1442, 
			 "cosmo_polarized_energy": -11.08, 
			 "cosmo_cavitation_energy": 37.28, 
			 "cosmo_dispersion_energy": -27.82, 
			 "cosmo_repulsion_energy": 2.09, 
			 "cosmo_total_nonelectrostatic_energy": 11.54, 
			 "SMD_solvation_energy": 4.91 
		},
		"coords": [
			{
				"x": -3.8468476496,
				"y": 0.882748222,
				"z": 1.8252805488,
				"element": "O" 
			},
			{
				"x": -3.8749529772,
				"y": -0.1700485081,
				"z": 0.970920354,
				"element": "C" 
			},
			{
				"x": -4.882028471,
				"y": -0.8359308557,
				"z": 0.8289455751,
				"element": "O" 
			},
			{
				"x": -2.5682401658,
				"y": -0.3770252562,
				"z": 0.2718040113,
				"element": "C" 
			},
			{
				"x": -2.3687248395,
				"y": -1.4364487712,
				"z": -0.6734605841,
				"element": "C" 
			},
			{
				"x": -3.345713313,
				"y": -2.3882480226,
				"z": -1.0718398665,
				"element": "C" 
			},
			{
				"x": -3.041998288,
				"y": -3.3744871656,
				"z": -1.9845038925,
				"element": "C" 
			},
			{
				"x": -1.7439098545,
				"y": -3.4502276385,
				"z": -2.5381114184,
				"element": "C" 
			},
			{
				"x": -1.3641652798,
				"y": -4.8328467901,
				"z": -3.7994850871,
				"element": "Br" 
			},
			{
				"x": -0.7658651621,
				"y": -2.5544635677,
				"z": -2.1869618329,
				"element": "C" 
			},
			{
				"x": -1.0563105421,
				"y": -1.5271841961,
				"z": -1.2476939301,
				"element": "C" 
			},
			{
				"x": -0.0451133743,
				"y": -0.6700086326,
				"z": -0.9498472174,
				"element": "N" 
			},
			{
				"x": -0.2573575862,
				"y": 0.3105500994,
				"z": -0.0849851419,
				"element": "C" 
			},
			{
				"x": -1.5188710042,
				"y": 0.4739241503,
				"z": 0.5541646335,
				"element": "C" 
			},
			{
				"x": 0.8812475775,
				"y": 1.2215275233,
				"z": 0.2076952271,
				"element": "C" 
			},
			{
				"x": 2.1883428834,
				"y": 0.8209069598,
				"z": -0.1185036634,
				"element": "C" 
			},
			{
				"x": 3.2730607803,
				"y": 1.6514397478,
				"z": 0.1478898057,
				"element": "C" 
			},
			{
				"x": 3.0746237664,
				"y": 2.9020744582,
				"z": 0.739049372,
				"element": "C" 
			},
			{
				"x": 1.780535883,
				"y": 3.3158723123,
				"z": 1.0576868273,
				"element": "C" 
			},
			{
				"x": 0.693087296,
				"y": 2.4833470931,
				"z": 0.7955844378,
				"element": "C" 
			},
			{
				"x": -4.7336425305,
				"y": 0.9226251949,
				"z": 2.2195397695,
				"element": "H" 
			},
			{
				"x": -4.3377697709,
				"y": -2.330380607,
				"z": -0.646377648,
				"element": "H" 
			},
			{
				"x": -3.794269572,
				"y": -4.0958133257,
				"z": -2.2823835759,
				"element": "H" 
			},
			{
				"x": 0.2331775401,
				"y": -2.5955924992,
				"z": -2.602740542,
				"element": "H" 
			},
			{
				"x": -1.659169858,
				"y": 1.2561909231,
				"z": 1.2866048921,
				"element": "H" 
			},
			{
				"x": 2.3305528725,
				"y": -0.1488853082,
				"z": -0.5814773288,
				"element": "H" 
			},
			{
				"x": 4.2770126671,
				"y": 1.3223664952,
				"z": -0.1046296177,
				"element": "H" 
			},
			{
				"x": 3.9214708441,
				"y": 3.5499326856,
				"z": 0.9461842604,
				"element": "H" 
			},
			{
				"x": 1.6144060008,
				"y": 4.2910331382,
				"z": 1.506193641,
				"element": "H" 
			},
			{
				"x": -0.3058678725,
				"y": 2.8366521413,
				"z": 1.030357991,
				"element": "H" 
			}
		],
		 "valence_orbital": [ 
			{
				"type": "occ",
				"energy": -0.27445,
				"method": "rhf"
			},
			{
				"type": "occ",
				"energy": -0.26571,
				"method": "rhf"
			},
			{
				"type": "occ",
				"energy": -0.25626,
				"method": "rhf"
			},
			{
				"type": "occ",
				"energy": -0.24134,
				"method": "rhf"
			},
			{
				"type": "occ",
				"energy": -0.23372,
				"method": "rhf"
			},
			{
				"type": "unocc",
				"energy": -0.08952,
				"method": "rhf"
			},
			{
				"type": "unocc",
				"energy": -0.04531,
				"method": "rhf"
			},
			{
				"type": "unocc",
				"energy": -0.01682,
				"method": "rhf"
			},
			{
				"type": "unocc",
				"energy": -0.00603,
				"method": "rhf"
			},
			{
				"type": "unocc",
				"energy": 0.00297,
				"method": "rhf"
			}
		],
		"cosmo_sigma_profile": { 
			"-0.025": 0.0,
			"-0.024": 0.0,
			"-0.023": 0.0,
			"-0.022": 0.0,
			"-0.021": 0.0,
			"-0.02": 0.0,
			"-0.019": 0.151617326275,
			"-0.018": 0.953811022925,
			"-0.017": 1.21875092396,
			"-0.016": 0.354642130683,
			"-0.015": 0.95385209678,
			"-0.014": 0.625084168388,
			"-0.013": 0.797361402554,
			"-0.012": 0.700165791848,
			"-0.011": 0.884013285299,
			"-0.01": 0.62111758185,
			"-0.009": 1.13946686692,
			"-0.008": 2.42951231769,
			"-0.007": 5.55738753403,
			"-0.006": 11.2234697786,
			"-0.005": 15.4931789895,
			"-0.004": 19.7293221588,
			"-0.003": 18.4619968673,
			"-0.002": 19.8293141842,
			"-0.001": 25.3870889834,
			"0.0": 29.9666640678,
			"0.001": 30.7676022109,
			"0.002": 31.0955394246,
			"0.003": 22.3676166491,
			"0.004": 27.0756377121,
			"0.005": 16.9683022356,
			"0.006": 4.88773384323,
			"0.007": 3.37964955263,
			"0.008": 2.49988992321,
			"0.009": 3.03649144956,
			"0.01": 2.96507926721,
			"0.011": 2.63279336707,
			"0.012": 0.271247698941,
			"0.013": 0.0,
			"0.014": 0.0,
			"0.015": 0.0,
			"0.016": 0.0,
			"0.017": 0.0,
			"0.018": 0.0,
			"0.019": 0.0,
			"0.02": 0.0,
			"0.021": 0.0,
			"0.022": 0.0,
			"0.023": 0.0,
			"0.024": 0.0,
			"0.025": 0.0
		}
	}
}
