{
	 "smiles": "BrC1=CC=C(C=C1)C1=C(C(=NO1)C(=O)C1=CC=CO1)S(=O)(=O)C1=CC=CC=C1", 
	 "Tm": 406.15, 
	 "num_atms": 40, 
	 "gaussian": { 
		 "optdone": 1, 
		 "sigma_profile": "yes", 
		 "theory": "DFT", 
		 "functional": "B3LYP", 
		 "basiset": "6-31G**", 
		 "properties": { 
			 "R2extent": 16792.8853, 
			 "electric_dipole_moment_norm": 2.14646615161, 
			 "electric_quadrupole_moment_norm": 32.4145913888, 
			 "total_energy": -4169.66165405, 
			 "HOMO_LUMO_gap": 0.17286, 
			 "cosmo_polarized_energy": -18.88, 
			 "cosmo_cavitation_energy": 49.89, 
			 "cosmo_dispersion_energy": -34.91, 
			 "cosmo_repulsion_energy": 2.59, 
			 "cosmo_total_nonelectrostatic_energy": 17.56, 
			 "SMD_solvation_energy": 7.92 
		},
		"coords": [
			{
				"x": 0.4700281903,
				"y": -6.9401229205,
				"z": -0.5682687554,
				"element": "Br" 
			},
			{
				"x": 0.2886526531,
				"y": -5.0847486374,
				"z": -0.1674112814,
				"element": "C" 
			},
			{
				"x": 1.403997582,
				"y": -4.3582898261,
				"z": 0.2456814606,
				"element": "C" 
			},
			{
				"x": 1.2746881185,
				"y": -3.0015715244,
				"z": 0.535526138,
				"element": "C" 
			},
			{
				"x": 0.028029242,
				"y": -2.3666450111,
				"z": 0.4107093918,
				"element": "C" 
			},
			{
				"x": -1.0880169204,
				"y": -3.1232379162,
				"z": 0.0038330626,
				"element": "C" 
			},
			{
				"x": -0.9610920289,
				"y": -4.476396451,
				"z": -0.2894745112,
				"element": "C" 
			},
			{
				"x": -0.1785716592,
				"y": -0.9475687963,
				"z": 0.7259428166,
				"element": "C" 
			},
			{
				"x": 0.5195936809,
				"y": 0.2415269611,
				"z": 0.6197744921,
				"element": "C" 
			},
			{
				"x": -0.4035913503,
				"y": 1.2364222595,
				"z": 1.0826513269,
				"element": "C" 
			},
			{
				"x": -1.5434763203,
				"y": 0.7005864593,
				"z": 1.4497469688,
				"element": "N" 
			},
			{
				"x": -1.4058168049,
				"y": -0.6672386457,
				"z": 1.2228518211,
				"element": "O" 
			},
			{
				"x": -0.2989128239,
				"y": 2.7476630572,
				"z": 1.0780899562,
				"element": "C" 
			},
			{
				"x": -0.0750649402,
				"y": 3.344017571,
				"z": 0.0356560116,
				"element": "O" 
			},
			{
				"x": -0.5330269464,
				"y": 3.4076623215,
				"z": 2.3514325411,
				"element": "C" 
			},
			{
				"x": -0.8031381899,
				"y": 2.9451867532,
				"z": 3.6206949503,
				"element": "C" 
			},
			{
				"x": -0.9178501903,
				"y": 4.0915460363,
				"z": 4.4518604735,
				"element": "C" 
			},
			{
				"x": -0.7081878894,
				"y": 5.1682030858,
				"z": 3.6323054157,
				"element": "C" 
			},
			{
				"x": -0.4755740142,
				"y": 4.7765950859,
				"z": 2.3631514887,
				"element": "O" 
			},
			{
				"x": 2.1948821357,
				"y": 0.5815010136,
				"z": 0.087391668,
				"element": "S" 
			},
			{
				"x": 2.5079900778,
				"y": 1.9161299729,
				"z": 0.607242728,
				"element": "O" 
			},
			{
				"x": 3.0361974984,
				"y": -0.5711367358,
				"z": 0.4512420952,
				"element": "O" 
			},
			{
				"x": 2.1046766081,
				"y": 0.6390128393,
				"z": -1.705390282,
				"element": "C" 
			},
			{
				"x": 1.5053530337,
				"y": 1.7392431648,
				"z": -2.325837175,
				"element": "C" 
			},
			{
				"x": 1.4651478257,
				"y": 1.7742569652,
				"z": -3.7194015995,
				"element": "C" 
			},
			{
				"x": 2.0193079118,
				"y": 0.7324486542,
				"z": -4.46855839,
				"element": "C" 
			},
			{
				"x": 2.6180990583,
				"y": -0.3559129067,
				"z": -3.8305765181,
				"element": "C" 
			},
			{
				"x": 2.6640171042,
				"y": -0.4105365344,
				"z": -2.4370302945,
				"element": "C" 
			},
			{
				"x": 2.3659568588,
				"y": -4.8470169872,
				"z": 0.3482692129,
				"element": "H" 
			},
			{
				"x": 2.1374221571,
				"y": -2.4360038965,
				"z": 0.8624888414,
				"element": "H" 
			},
			{
				"x": -2.0566780693,
				"y": -2.6451210839,
				"z": -0.0894340565,
				"element": "H" 
			},
			{
				"x": -1.8210884909,
				"y": -5.0522478999,
				"z": -0.6108862491,
				"element": "H" 
			},
			{
				"x": -0.9148177481,
				"y": 1.9102849436,
				"z": 3.9060469077,
				"element": "H" 
			},
			{
				"x": -1.1259765361,
				"y": 4.1186600887,
				"z": 5.5113114987,
				"element": "H" 
			},
			{
				"x": -0.693221691,
				"y": 6.2336875333,
				"z": 3.8065057595,
				"element": "H" 
			},
			{
				"x": 1.0728510659,
				"y": 2.5359160954,
				"z": -1.7289760974,
				"element": "H" 
			},
			{
				"x": 1.0028786377,
				"y": 2.6195492372,
				"z": -4.2199522101,
				"element": "H" 
			},
			{
				"x": 1.9859376299,
				"y": 0.7704054296,
				"z": -5.5535620033,
				"element": "H" 
			},
			{
				"x": 3.0525438201,
				"y": -1.1611012426,
				"z": -4.4151827271,
				"element": "H" 
			},
			{
				"x": 3.1336517233,
				"y": -1.2383085128,
				"z": -1.9182648762,
				"element": "H" 
			}
		],
		 "valence_orbital": [ 
			{
				"type": "occ",
				"energy": -0.27412,
				"method": "rhf"
			},
			{
				"type": "occ",
				"energy": -0.2719,
				"method": "rhf"
			},
			{
				"type": "occ",
				"energy": -0.26781,
				"method": "rhf"
			},
			{
				"type": "occ",
				"energy": -0.25209,
				"method": "rhf"
			},
			{
				"type": "occ",
				"energy": -0.24893,
				"method": "rhf"
			},
			{
				"type": "unocc",
				"energy": -0.07607,
				"method": "rhf"
			},
			{
				"type": "unocc",
				"energy": -0.07148,
				"method": "rhf"
			},
			{
				"type": "unocc",
				"energy": -0.04007,
				"method": "rhf"
			},
			{
				"type": "unocc",
				"energy": -0.02858,
				"method": "rhf"
			},
			{
				"type": "unocc",
				"energy": -0.0184,
				"method": "rhf"
			}
		],
		"cosmo_sigma_profile": { 
			"-0.025": 0.0,
			"-0.024": 0.0,
			"-0.023": 0.0,
			"-0.022": 0.0,
			"-0.021": 0.0,
			"-0.02": 0.0,
			"-0.019": 0.0,
			"-0.018": 0.0,
			"-0.017": 0.0,
			"-0.016": 0.0,
			"-0.015": 0.0,
			"-0.014": 0.0,
			"-0.013": 0.0,
			"-0.012": 0.0,
			"-0.011": 0.640144054302,
			"-0.01": 1.85839733788,
			"-0.009": 3.45195048401,
			"-0.008": 7.52978568047,
			"-0.007": 17.2855852262,
			"-0.006": 23.3592110201,
			"-0.005": 22.7783977423,
			"-0.004": 24.4213103838,
			"-0.003": 25.9451229884,
			"-0.002": 26.8214666178,
			"-0.001": 30.4418657186,
			"0.0": 35.6331372283,
			"0.001": 43.5432543053,
			"0.002": 39.8470012344,
			"0.003": 27.3088723524,
			"0.004": 19.3493454713,
			"0.005": 8.80173902801,
			"0.006": 6.64772015255,
			"0.007": 8.24968610142,
			"0.008": 7.25630727432,
			"0.009": 7.6439644996,
			"0.01": 10.1867863346,
			"0.011": 7.90446204977,
			"0.012": 1.10856481809,
			"0.013": 0.0,
			"0.014": 0.0,
			"0.015": 0.0,
			"0.016": 0.0,
			"0.017": 0.0,
			"0.018": 0.0,
			"0.019": 0.0,
			"0.02": 0.0,
			"0.021": 0.0,
			"0.022": 0.0,
			"0.023": 0.0,
			"0.024": 0.0,
			"0.025": 0.0
		}
	}
}
