{
	 "smiles": "C1CN2CCN3CCN4CCN1[C@H]2[C@H]34", 
	 "Tm": 303.15, 
	 "num_atms": 32, 
	 "gaussian": { 
		 "optdone": 1, 
		 "sigma_profile": "yes", 
		 "theory": "DFT", 
		 "functional": "B3LYP", 
		 "basiset": "6-31G**", 
		 "properties": { 
			 "R2extent": 2641.7453, 
			 "electric_dipole_moment_norm": 1.84855100281, 
			 "electric_quadrupole_moment_norm": 5.52969062064, 
			 "total_energy": -610.858957854, 
			 "HOMO_LUMO_gap": 0.27117, 
			 "cosmo_polarized_energy": -6.66, 
			 "cosmo_cavitation_energy": 28.73, 
			 "cosmo_dispersion_energy": -22.23, 
			 "cosmo_repulsion_energy": 1.7, 
			 "cosmo_total_nonelectrostatic_energy": 8.2, 
			 "SMD_solvation_energy": -5.17 
		},
		"coords": [
			{
				"x": 0.204238331,
				"y": -1.634300383,
				"z": -0.8010373098,
				"element": "C" 
			},
			{
				"x": 1.0657184245,
				"y": -1.6170842294,
				"z": 0.4623662426,
				"element": "C" 
			},
			{
				"x": 1.5686435461,
				"y": -0.2392763403,
				"z": 0.5394902212,
				"element": "N" 
			},
			{
				"x": 0.9987330179,
				"y": 0.5821286453,
				"z": 1.60361611,
				"element": "C" 
			},
			{
				"x": 1.3713451168,
				"y": 2.0433813263,
				"z": 1.361623388,
				"element": "C" 
			},
			{
				"x": 0.760309105,
				"y": 2.5803629394,
				"z": 0.144946962,
				"element": "N" 
			},
			{
				"x": -0.632283445,
				"y": 3.0443675167,
				"z": 0.3155515181,
				"element": "C" 
			},
			{
				"x": -1.3405077052,
				"y": 2.5874439724,
				"z": -0.964758882,
				"element": "C" 
			},
			{
				"x": -0.6329122578,
				"y": 1.3520848187,
				"z": -1.2600165261,
				"element": "N" 
			},
			{
				"x": -0.8556990331,
				"y": 0.7510677467,
				"z": -2.5680215069,
				"element": "C" 
			},
			{
				"x": 0.3053997985,
				"y": -0.2452154742,
				"z": -2.8622292179,
				"element": "C" 
			},
			{
				"x": 0.9757027359,
				"y": -0.7468597353,
				"z": -1.6736352421,
				"element": "N" 
			},
			{
				"x": 1.5598798792,
				"y": 0.3195721196,
				"z": -0.8196967024,
				"element": "C" 
			},
			{
				"x": 0.7745544721,
				"y": 1.6536804154,
				"z": -0.997399074,
				"element": "C" 
			},
			{
				"x": -0.807845534,
				"y": -1.2591337944,
				"z": -0.581140727,
				"element": "H" 
			},
			{
				"x": 0.1209015815,
				"y": -2.6309102343,
				"z": -1.251356772,
				"element": "H" 
			},
			{
				"x": 1.8987957269,
				"y": -2.3259635391,
				"z": 0.3664261025,
				"element": "H" 
			},
			{
				"x": 0.5033373374,
				"y": -1.8737406662,
				"z": 1.3652530114,
				"element": "H" 
			},
			{
				"x": -0.1016188695,
				"y": 0.4950767923,
				"z": 1.6739616129,
				"element": "H" 
			},
			{
				"x": 1.4109014792,
				"y": 0.2443896607,
				"z": 2.5640991127,
				"element": "H" 
			},
			{
				"x": 2.4636910946,
				"y": 2.1247063499,
				"z": 1.2908241196,
				"element": "H" 
			},
			{
				"x": 1.0596769282,
				"y": 2.6653683376,
				"z": 2.2062766217,
				"element": "H" 
			},
			{
				"x": -1.1097116595,
				"y": 2.5795814954,
				"z": 1.1911696111,
				"element": "H" 
			},
			{
				"x": -0.6736785999,
				"y": 4.1320714982,
				"z": 0.4484580652,
				"element": "H" 
			},
			{
				"x": -2.4124960071,
				"y": 2.4135946408,
				"z": -0.821345085,
				"element": "H" 
			},
			{
				"x": -1.2219758711,
				"y": 3.3389105869,
				"z": -1.7697722511,
				"element": "H" 
			},
			{
				"x": -1.8282146912,
				"y": 0.2439159465,
				"z": -2.5612699712,
				"element": "H" 
			},
			{
				"x": -0.8932898664,
				"y": 1.509827946,
				"z": -3.3745224451,
				"element": "H" 
			},
			{
				"x": -0.0620339493,
				"y": -1.0943655949,
				"z": -3.4474896186,
				"element": "H" 
			},
			{
				"x": 1.0601436754,
				"y": 0.2551678016,
				"z": -3.4816630493,
				"element": "H" 
			},
			{
				"x": 2.5932910955,
				"y": 0.4956508686,
				"z": -1.1586893516,
				"element": "H" 
			},
			{
				"x": 1.2260041432,
				"y": 2.1775985662,
				"z": -1.8677189669,
				"element": "H" 
			}
		],
		 "valence_orbital": [ 
			{
				"type": "occ",
				"energy": -0.32679,
				"method": "rhf"
			},
			{
				"type": "occ",
				"energy": -0.21895,
				"method": "rhf"
			},
			{
				"type": "occ",
				"energy": -0.2092,
				"method": "rhf"
			},
			{
				"type": "occ",
				"energy": -0.19915,
				"method": "rhf"
			},
			{
				"type": "occ",
				"energy": -0.19145,
				"method": "rhf"
			},
			{
				"type": "unocc",
				"energy": 0.07972,
				"method": "rhf"
			},
			{
				"type": "unocc",
				"energy": 0.09522,
				"method": "rhf"
			},
			{
				"type": "unocc",
				"energy": 0.1083,
				"method": "rhf"
			},
			{
				"type": "unocc",
				"energy": 0.11104,
				"method": "rhf"
			},
			{
				"type": "unocc",
				"energy": 0.12091,
				"method": "rhf"
			}
		],
		"cosmo_sigma_profile": { 
			"-0.025": 0.0,
			"-0.024": 0.0,
			"-0.023": 0.0,
			"-0.022": 0.0,
			"-0.021": 0.0,
			"-0.02": 0.0,
			"-0.019": 0.0,
			"-0.018": 0.0,
			"-0.017": 0.0,
			"-0.016": 0.0,
			"-0.015": 0.0,
			"-0.014": 0.0,
			"-0.013": 0.0,
			"-0.012": 0.0,
			"-0.011": 0.0,
			"-0.01": 0.0,
			"-0.009": 0.0,
			"-0.008": 0.0,
			"-0.007": 0.0,
			"-0.006": 0.0,
			"-0.005": 1.03719634079,
			"-0.004": 11.8586587677,
			"-0.003": 33.5658017961,
			"-0.002": 51.6735204907,
			"-0.001": 48.8785152128,
			"0.0": 22.068285325,
			"0.001": 8.22859831994,
			"0.002": 6.96767535083,
			"0.003": 4.14310758607,
			"0.004": 4.6034300139,
			"0.005": 4.55203790989,
			"0.006": 3.03317650706,
			"0.007": 3.66488609217,
			"0.008": 3.10943485183,
			"0.009": 2.25042239754,
			"0.01": 2.67850518302,
			"0.011": 1.65198040731,
			"0.012": 1.49824174324,
			"0.013": 1.46797960181,
			"0.014": 1.73790331855,
			"0.015": 0.985834744038,
			"0.016": 0.932274865758,
			"0.017": 0.233132078103,
			"0.018": 0.0,
			"0.019": 0.0,
			"0.02": 0.0,
			"0.021": 0.0,
			"0.022": 0.0,
			"0.023": 0.0,
			"0.024": 0.0,
			"0.025": 0.0
		}
	}
}
