{
	 "smiles": "COC1=CC=CC(C(O)=O)=C1[N+]([O-])=O", 
	 "Tm": 529.15, 
	 "num_atms": 21, 
	 "gaussian": { 
		 "optdone": 1, 
		 "sigma_profile": "yes", 
		 "theory": "DFT", 
		 "functional": "B3LYP", 
		 "basiset": "6-31G**", 
		 "properties": { 
			 "R2extent": 3055.2222, 
			 "electric_dipole_moment_norm": 7.42178370879, 
			 "electric_quadrupole_moment_norm": 11.5576231337, 
			 "total_energy": -739.82136305, 
			 "HOMO_LUMO_gap": 0.1515, 
			 "cosmo_polarized_energy": -15.36, 
			 "cosmo_cavitation_energy": 26.27, 
			 "cosmo_dispersion_energy": -19.18, 
			 "cosmo_repulsion_energy": 1.5, 
			 "cosmo_total_nonelectrostatic_energy": 8.59, 
			 "SMD_solvation_energy": 8.77 
		},
		"coords": [
			{
				"x": 1.3245682994,
				"y": 3.6674730896,
				"z": 0.5745438618,
				"element": "C" 
			},
			{
				"x": 0.3403617936,
				"y": 2.6707879049,
				"z": 0.8331983628,
				"element": "O" 
			},
			{
				"x": 0.0981523837,
				"y": 1.7333275924,
				"z": -0.1092908716,
				"element": "C" 
			},
			{
				"x": 0.7788195447,
				"y": 1.6349002426,
				"z": -1.3269152991,
				"element": "C" 
			},
			{
				"x": 0.4551716361,
				"y": 0.6157421288,
				"z": -2.2212006064,
				"element": "C" 
			},
			{
				"x": -0.5252806164,
				"y": -0.3191491766,
				"z": -1.9138294524,
				"element": "C" 
			},
			{
				"x": -1.2032515356,
				"y": -0.2775450587,
				"z": -0.6869829571,
				"element": "C" 
			},
			{
				"x": -2.2535143856,
				"y": -1.3701052082,
				"z": -0.5177403596,
				"element": "C" 
			},
			{
				"x": -2.5299077843,
				"y": -1.8221913764,
				"z": 0.7086454657,
				"element": "O" 
			},
			{
				"x": -2.7863053788,
				"y": -1.8469674771,
				"z": -1.4942997321,
				"element": "O" 
			},
			{
				"x": -0.8908600928,
				"y": 0.7706407203,
				"z": 0.1942458508,
				"element": "C" 
			},
			{
				"x": -1.5950914296,
				"y": 0.960126473,
				"z": 1.4760860176,
				"element": "N" 
			},
			{
				"x": -2.1778308593,
				"y": 2.0135484644,
				"z": 1.6577253607,
				"element": "O" 
			},
			{
				"x": -1.5326232164,
				"y": 0.0411003036,
				"z": 2.3109584409,
				"element": "O" 
			},
			{
				"x": 1.0659922881,
				"y": 4.2623813669,
				"z": -0.3089902035,
				"element": "H" 
			},
			{
				"x": 2.3182831993,
				"y": 3.2234288689,
				"z": 0.4422337419,
				"element": "H" 
			},
			{
				"x": 1.3283411134,
				"y": 4.3094248918,
				"z": 1.4552427904,
				"element": "H" 
			},
			{
				"x": 1.5506649513,
				"y": 2.3515218818,
				"z": -1.5778957151,
				"element": "H" 
			},
			{
				"x": 0.9788671617,
				"y": 0.5554974213,
				"z": -3.1701580544,
				"element": "H" 
			},
			{
				"x": -0.8005746396,
				"y": -1.099002653,
				"z": -2.6128094185,
				"element": "H" 
			},
			{
				"x": -2.008082433,
				"y": -1.3583404003,
				"z": 1.3959327772,
				"element": "H" 
			}
		],
		 "valence_orbital": [ 
			{
				"type": "occ",
				"energy": -0.32541,
				"method": "rhf"
			},
			{
				"type": "occ",
				"energy": -0.31278,
				"method": "rhf"
			},
			{
				"type": "occ",
				"energy": -0.29085,
				"method": "rhf"
			},
			{
				"type": "occ",
				"energy": -0.2776,
				"method": "rhf"
			},
			{
				"type": "occ",
				"energy": -0.25627,
				"method": "rhf"
			},
			{
				"type": "unocc",
				"energy": -0.10477,
				"method": "rhf"
			},
			{
				"type": "unocc",
				"energy": -0.06005,
				"method": "rhf"
			},
			{
				"type": "unocc",
				"energy": -0.02762,
				"method": "rhf"
			},
			{
				"type": "unocc",
				"energy": 0.03582,
				"method": "rhf"
			},
			{
				"type": "unocc",
				"energy": 0.05749,
				"method": "rhf"
			}
		],
		"cosmo_sigma_profile": { 
			"-0.025": 0.0,
			"-0.024": 0.0,
			"-0.023": 0.0,
			"-0.022": 0.0,
			"-0.021": 0.0,
			"-0.02": 0.0,
			"-0.019": 0.0,
			"-0.018": 0.0,
			"-0.017": 0.0,
			"-0.016": 0.0,
			"-0.015": 0.0,
			"-0.014": 0.0,
			"-0.013": 0.0522945001816,
			"-0.012": 0.415671181504,
			"-0.011": 0.708758147625,
			"-0.01": 1.471592005,
			"-0.009": 2.39626557255,
			"-0.008": 6.82412913541,
			"-0.007": 12.8518295873,
			"-0.006": 16.2043754129,
			"-0.005": 14.7132769542,
			"-0.004": 15.0472221797,
			"-0.003": 13.0343197241,
			"-0.002": 10.9753456274,
			"-0.001": 14.1746400179,
			"0.0": 12.7351342254,
			"0.001": 12.7645130153,
			"0.002": 10.5928839546,
			"0.003": 6.07413753251,
			"0.004": 6.18867291301,
			"0.005": 8.79668127049,
			"0.006": 10.5289726135,
			"0.007": 8.7659026434,
			"0.008": 6.91466555106,
			"0.009": 4.17962976028,
			"0.01": 5.1027691126,
			"0.011": 5.24009311555,
			"0.012": 3.40023584603,
			"0.013": 0.76198140141,
			"0.014": 0.0,
			"0.015": 0.0,
			"0.016": 0.0,
			"0.017": 0.0,
			"0.018": 0.0,
			"0.019": 0.0,
			"0.02": 0.0,
			"0.021": 0.0,
			"0.022": 0.0,
			"0.023": 0.0,
			"0.024": 0.0,
			"0.025": 0.0
		}
	}
}
