{
	 "smiles": "CC1=NC2=C(CCN(CC3=CC=CC=C3)C2)C(O)=N1", 
	 "Tm": 485.15, 
	 "num_atms": 36, 
	 "gaussian": { 
		 "optdone": 1, 
		 "sigma_profile": "yes", 
		 "theory": "DFT", 
		 "functional": "B3LYP", 
		 "basiset": "6-31G**", 
		 "properties": { 
			 "R2extent": 6470.4876, 
			 "electric_dipole_moment_norm": 1.2068339571, 
			 "electric_quadrupole_moment_norm": 4.0845235377, 
			 "total_energy": -821.339053517, 
			 "HOMO_LUMO_gap": 0.19408, 
			 "cosmo_polarized_energy": -11.37, 
			 "cosmo_cavitation_energy": 38.11, 
			 "cosmo_dispersion_energy": -27.56, 
			 "cosmo_repulsion_energy": 2.12, 
			 "cosmo_total_nonelectrostatic_energy": 12.68, 
			 "SMD_solvation_energy": 1.02 
		},
		"coords": [
			{
				"x": -4.4962071517,
				"y": 0.77818517,
				"z": 1.8831085208,
				"element": "C" 
			},
			{
				"x": -3.266580025,
				"y": -0.0615750197,
				"z": 1.6645674392,
				"element": "C" 
			},
			{
				"x": -2.4178841733,
				"y": 0.3082496411,
				"z": 0.7058416868,
				"element": "N" 
			},
			{
				"x": -1.3249615522,
				"y": -0.4632803357,
				"z": 0.5299831037,
				"element": "C" 
			},
			{
				"x": -1.0573794089,
				"y": -1.5902671303,
				"z": 1.2985056993,
				"element": "C" 
			},
			{
				"x": 0.1814816438,
				"y": -2.4219337724,
				"z": 1.0914141092,
				"element": "C" 
			},
			{
				"x": 1.2262149248,
				"y": -1.6460388829,
				"z": 0.2809507603,
				"element": "C" 
			},
			{
				"x": 0.5937312494,
				"y": -1.0598101805,
				"z": -0.8997126304,
				"element": "N" 
			},
			{
				"x": 1.5196303345,
				"y": -0.667266153,
				"z": -1.9704645621,
				"element": "C" 
			},
			{
				"x": 2.493071244,
				"y": 0.4635130983,
				"z": -1.659329999,
				"element": "C" 
			},
			{
				"x": 3.7397437312,
				"y": 0.1992877258,
				"z": -1.0739448228,
				"element": "C" 
			},
			{
				"x": 4.6193145774,
				"y": 1.2353072681,
				"z": -0.7570432579,
				"element": "C" 
			},
			{
				"x": 4.2661662922,
				"y": 2.5595330882,
				"z": -1.0242913816,
				"element": "C" 
			},
			{
				"x": 3.0327246292,
				"y": 2.8383129158,
				"z": -1.6152717972,
				"element": "C" 
			},
			{
				"x": 2.1571841471,
				"y": 1.7977147643,
				"z": -1.9306080105,
				"element": "C" 
			},
			{
				"x": -0.3661571087,
				"y": -0.0191584267,
				"z": -0.5487515863,
				"element": "C" 
			},
			{
				"x": -2.0325521854,
				"y": -1.8752516301,
				"z": 2.2690988735,
				"element": "C" 
			},
			{
				"x": -1.8646754028,
				"y": -2.956788079,
				"z": 3.0584555972,
				"element": "O" 
			},
			{
				"x": -3.1186526765,
				"y": -1.1373844095,
				"z": 2.4622416459,
				"element": "N" 
			},
			{
				"x": -5.3996185134,
				"y": 0.1777240278,
				"z": 1.7327028181,
				"element": "H" 
			},
			{
				"x": -4.5024620975,
				"y": 1.6217820184,
				"z": 1.1923593402,
				"element": "H" 
			},
			{
				"x": -4.52684003,
				"y": 1.1486860734,
				"z": 2.9130631373,
				"element": "H" 
			},
			{
				"x": 0.5980481919,
				"y": -2.7243152944,
				"z": 2.0588814285,
				"element": "H" 
			},
			{
				"x": -0.0799883789,
				"y": -3.3459201706,
				"z": 0.5598910634,
				"element": "H" 
			},
			{
				"x": 2.0138445301,
				"y": -2.3305066597,
				"z": -0.0514697268,
				"element": "H" 
			},
			{
				"x": 1.7096033622,
				"y": -0.8868708765,
				"z": 0.9233386054,
				"element": "H" 
			},
			{
				"x": 0.9086300016,
				"y": -0.3882438714,
				"z": -2.8377610219,
				"element": "H" 
			},
			{
				"x": 2.0839968578,
				"y": -1.5643786069,
				"z": -2.251552615,
				"element": "H" 
			},
			{
				"x": 4.0295684998,
				"y": -0.8298920619,
				"z": -0.8756040577,
				"element": "H" 
			},
			{
				"x": 5.5825362601,
				"y": 1.008628391,
				"z": -0.3082777126,
				"element": "H" 
			},
			{
				"x": 4.9506975391,
				"y": 3.3671777349,
				"z": -0.7812574853,
				"element": "H" 
			},
			{
				"x": 2.7540483723,
				"y": 3.8648655018,
				"z": -1.8365075689,
				"element": "H" 
			},
			{
				"x": 1.2048371788,
				"y": 2.0224543046,
				"z": -2.4051375526,
				"element": "H" 
			},
			{
				"x": -0.9511389504,
				"y": 0.2501860098,
				"z": -1.4361976362,
				"element": "H" 
			},
			{
				"x": 0.1143863725,
				"y": 0.9155447964,
				"z": -0.1998455938,
				"element": "H" 
			},
			{
				"x": -2.6306622847,
				"y": -2.9710709685,
				"z": 3.6554251897,
				"element": "H" 
			}
		],
		 "valence_orbital": [ 
			{
				"type": "occ",
				"energy": -0.25052,
				"method": "rhf"
			},
			{
				"type": "occ",
				"energy": -0.24706,
				"method": "rhf"
			},
			{
				"type": "occ",
				"energy": -0.24631,
				"method": "rhf"
			},
			{
				"type": "occ",
				"energy": -0.24198,
				"method": "rhf"
			},
			{
				"type": "occ",
				"energy": -0.21154,
				"method": "rhf"
			},
			{
				"type": "unocc",
				"energy": -0.01746,
				"method": "rhf"
			},
			{
				"type": "unocc",
				"energy": -0.00496,
				"method": "rhf"
			},
			{
				"type": "unocc",
				"energy": -0.00379,
				"method": "rhf"
			},
			{
				"type": "unocc",
				"energy": -0.00237,
				"method": "rhf"
			},
			{
				"type": "unocc",
				"energy": 0.08049,
				"method": "rhf"
			}
		],
		"cosmo_sigma_profile": { 
			"-0.025": 0.0,
			"-0.024": 0.0,
			"-0.023": 0.0,
			"-0.022": 0.0,
			"-0.021": 0.0,
			"-0.02": 0.0,
			"-0.019": 0.0,
			"-0.018": 0.0913385790702,
			"-0.017": 0.739735228699,
			"-0.016": 0.739649437434,
			"-0.015": 0.97504639478,
			"-0.014": 0.358891388077,
			"-0.013": 0.683222826583,
			"-0.012": 0.667425286327,
			"-0.011": 0.618742540893,
			"-0.01": 0.844918199526,
			"-0.009": 0.591211156137,
			"-0.008": 0.237503297237,
			"-0.007": 0.62667183405,
			"-0.006": 3.64421690707,
			"-0.005": 22.678023759,
			"-0.004": 28.9052150716,
			"-0.003": 30.2643268183,
			"-0.002": 31.1811340854,
			"-0.001": 34.3009802748,
			"0.0": 29.0976199146,
			"0.001": 20.6476110668,
			"0.002": 15.5567399136,
			"0.003": 13.1764027221,
			"0.004": 13.3929080489,
			"0.005": 12.9486958001,
			"0.006": 12.7170334011,
			"0.007": 5.22168294682,
			"0.008": 5.56497473625,
			"0.009": 3.01790247513,
			"0.01": 2.63863202461,
			"0.011": 2.91414225639,
			"0.012": 2.19339783524,
			"0.013": 1.4357898679,
			"0.014": 1.06046815175,
			"0.015": 0.792153493302,
			"0.016": 0.162949881476,
			"0.017": 0.0,
			"0.018": 0.0,
			"0.019": 0.0,
			"0.02": 0.0,
			"0.021": 0.0,
			"0.022": 0.0,
			"0.023": 0.0,
			"0.024": 0.0,
			"0.025": 0.0
		}
	}
}
