{
	 "smiles": "OC(=O)C1=NNC(=C1)C1=C(Cl)C=CC=C1", 
	 "Tm": 499.15, 
	 "num_atms": 22, 
	 "gaussian": { 
		 "optdone": 1, 
		 "sigma_profile": "yes", 
		 "theory": "DFT", 
		 "functional": "B3LYP", 
		 "basiset": "6-31G**", 
		 "properties": { 
			 "R2extent": 5669.1655, 
			 "electric_dipole_moment_norm": 6.86632234242, 
			 "electric_quadrupole_moment_norm": 22.7477553062, 
			 "total_energy": -1105.42393327, 
			 "HOMO_LUMO_gap": 0.19147, 
			 "cosmo_polarized_energy": -14.97, 
			 "cosmo_cavitation_energy": 28.96, 
			 "cosmo_dispersion_energy": -21.66, 
			 "cosmo_repulsion_energy": 1.68, 
			 "cosmo_total_nonelectrostatic_energy": 8.98, 
			 "SMD_solvation_energy": 5.01 
		},
		"coords": [
			{
				"x": -2.2530472354,
				"y": 5.5124522419,
				"z": -1.8473604318,
				"element": "O" 
			},
			{
				"x": -2.5651245187,
				"y": 4.2336664518,
				"z": -1.5419891987,
				"element": "C" 
			},
			{
				"x": -3.7089754004,
				"y": 3.8540817974,
				"z": -1.4443099457,
				"element": "O" 
			},
			{
				"x": -1.3912255724,
				"y": 3.3466902347,
				"z": -1.3381624952,
				"element": "C" 
			},
			{
				"x": -0.151661215,
				"y": 3.8376795847,
				"z": -1.4582171349,
				"element": "N" 
			},
			{
				"x": 0.6480153905,
				"y": 2.7931603282,
				"z": -1.221324664,
				"element": "N" 
			},
			{
				"x": -0.0322613017,
				"y": 1.6337599829,
				"z": -0.9517309809,
				"element": "C" 
			},
			{
				"x": -1.3780124842,
				"y": 1.9759133181,
				"z": -1.0219799106,
				"element": "C" 
			},
			{
				"x": 0.5829074387,
				"y": 0.3432309843,
				"z": -0.6075522399,
				"element": "C" 
			},
			{
				"x": 1.8382189708,
				"y": -0.1185971044,
				"z": -1.0482815968,
				"element": "C" 
			},
			{
				"x": 2.861732886,
				"y": 0.8481175653,
				"z": -2.1166294342,
				"element": "Cl" 
			},
			{
				"x": 2.3310905437,
				"y": -1.3714293938,
				"z": -0.6843186817,
				"element": "C" 
			},
			{
				"x": 1.5746275304,
				"y": -2.2055230792,
				"z": 0.1350319294,
				"element": "C" 
			},
			{
				"x": 0.3265338963,
				"y": -1.7781997093,
				"z": 0.5904331782,
				"element": "C" 
			},
			{
				"x": -0.1509109316,
				"y": -0.5247976127,
				"z": 0.2270742387,
				"element": "C" 
			},
			{
				"x": -1.2828274677,
				"y": 5.5906617453,
				"z": -1.8741948501,
				"element": "H" 
			},
			{
				"x": 1.6487617661,
				"y": 2.9076561737,
				"z": -1.2803822061,
				"element": "H" 
			},
			{
				"x": -2.2357099433,
				"y": 1.3356348265,
				"z": -0.8917424464,
				"element": "H" 
			},
			{
				"x": 3.3019006207,
				"y": -1.6844910615,
				"z": -1.0516446838,
				"element": "H" 
			},
			{
				"x": 1.9628570089,
				"y": -3.1795819355,
				"z": 0.4153227472,
				"element": "H" 
			},
			{
				"x": -0.2703663626,
				"y": -2.4145465218,
				"z": 1.2359192467,
				"element": "H" 
			},
			{
				"x": -1.109123619,
				"y": -0.1846388167,
				"z": 0.6047395606,
				"element": "H" 
			}
		],
		 "valence_orbital": [ 
			{
				"type": "occ",
				"energy": -0.30762,
				"method": "rhf"
			},
			{
				"type": "occ",
				"energy": -0.27835,
				"method": "rhf"
			},
			{
				"type": "occ",
				"energy": -0.27246,
				"method": "rhf"
			},
			{
				"type": "occ",
				"energy": -0.26786,
				"method": "rhf"
			},
			{
				"type": "occ",
				"energy": -0.24863,
				"method": "rhf"
			},
			{
				"type": "unocc",
				"energy": -0.05716,
				"method": "rhf"
			},
			{
				"type": "unocc",
				"energy": -0.03471,
				"method": "rhf"
			},
			{
				"type": "unocc",
				"energy": -0.02887,
				"method": "rhf"
			},
			{
				"type": "unocc",
				"energy": 0.0042,
				"method": "rhf"
			},
			{
				"type": "unocc",
				"energy": 0.03506,
				"method": "rhf"
			}
		],
		"cosmo_sigma_profile": { 
			"-0.025": 0.0,
			"-0.024": 0.0,
			"-0.023": 0.0,
			"-0.022": 0.0,
			"-0.021": 0.0,
			"-0.02": 0.0,
			"-0.019": 0.0,
			"-0.018": 0.0,
			"-0.017": 0.0,
			"-0.016": 0.186831403031,
			"-0.015": 0.986419516701,
			"-0.014": 1.80231024871,
			"-0.013": 1.00200391004,
			"-0.012": 1.66942316056,
			"-0.011": 2.08898765883,
			"-0.01": 1.88503489124,
			"-0.009": 1.30000106986,
			"-0.008": 5.13439918134,
			"-0.007": 9.92285493466,
			"-0.006": 13.1784116896,
			"-0.005": 12.0635580883,
			"-0.004": 10.180446823,
			"-0.003": 12.6550214958,
			"-0.002": 12.7077224205,
			"-0.001": 13.8638542526,
			"0.0": 21.0983914919,
			"0.001": 25.5411545599,
			"0.002": 22.0203224228,
			"0.003": 20.7345178865,
			"0.004": 9.04026213874,
			"0.005": 4.44467758481,
			"0.006": 3.67470112229,
			"0.007": 3.08189960715,
			"0.008": 4.7036647326,
			"0.009": 3.45399026279,
			"0.01": 5.36207026069,
			"0.011": 5.06015935759,
			"0.012": 4.98929360735,
			"0.013": 1.66495114497,
			"0.014": 0.0532405750526,
			"0.015": 0.0,
			"0.016": 0.0,
			"0.017": 0.0,
			"0.018": 0.0,
			"0.019": 0.0,
			"0.02": 0.0,
			"0.021": 0.0,
			"0.022": 0.0,
			"0.023": 0.0,
			"0.024": 0.0,
			"0.025": 0.0
		}
	}
}
