{
	 "smiles": "NC1=C(C=CC(Br)=C1)C(O)=O", 
	 "Tm": 496.15, 
	 "num_atms": 17, 
	 "gaussian": { 
		 "optdone": 1, 
		 "sigma_profile": "yes", 
		 "theory": "DFT", 
		 "functional": "B3LYP", 
		 "basiset": "6-31G**", 
		 "properties": { 
			 "R2extent": 4000.6548, 
			 "electric_dipole_moment_norm": 3.38011594032, 
			 "electric_quadrupole_moment_norm": 12.8723617724, 
			 "total_energy": -3046.98947634, 
			 "HOMO_LUMO_gap": 0.16915, 
			 "cosmo_polarized_energy": -11.94, 
			 "cosmo_cavitation_energy": 23.72, 
			 "cosmo_dispersion_energy": -18.41, 
			 "cosmo_repulsion_energy": 1.48, 
			 "cosmo_total_nonelectrostatic_energy": 6.79, 
			 "SMD_solvation_energy": 3.99 
		},
		"coords": [
			{
				"x": -3.0452642261,
				"y": 1.5546455188,
				"z": -0.4610694781,
				"element": "N" 
			},
			{
				"x": -2.1143983246,
				"y": 0.7224828703,
				"z": 0.0990994721,
				"element": "C" 
			},
			{
				"x": -1.0243786694,
				"y": 1.176829513,
				"z": 0.8978881737,
				"element": "C" 
			},
			{
				"x": -0.1524513693,
				"y": 0.2304000229,
				"z": 1.4693231919,
				"element": "C" 
			},
			{
				"x": -0.302724618,
				"y": -1.1320901202,
				"z": 1.2804182188,
				"element": "C" 
			},
			{
				"x": -1.3729936898,
				"y": -1.5602727374,
				"z": 0.4860098364,
				"element": "C" 
			},
			{
				"x": -1.6191859753,
				"y": -3.4314212924,
				"z": 0.1906387467,
				"element": "Br" 
			},
			{
				"x": -2.2599798534,
				"y": -0.6721730515,
				"z": -0.0929315411,
				"element": "C" 
			},
			{
				"x": -0.7003526711,
				"y": 2.5879560811,
				"z": 1.189535637,
				"element": "C" 
			},
			{
				"x": -1.5230331281,
				"y": 3.5025876022,
				"z": 0.5855294389,
				"element": "O" 
			},
			{
				"x": 0.215506,
				"y": 2.9666028461,
				"z": 1.8946029168,
				"element": "O" 
			},
			{
				"x": -3.6597536799,
				"y": 1.1773668376,
				"z": -1.1636160031,
				"element": "H" 
			},
			{
				"x": -2.8695896259,
				"y": 2.5465865071,
				"z": -0.4682927769,
				"element": "H" 
			},
			{
				"x": 0.6631780603,
				"y": 0.6135924056,
				"z": 2.0728458577,
				"element": "H" 
			},
			{
				"x": 0.3799019901,
				"y": -1.8444424445,
				"z": 1.7259121077,
				"element": "H" 
			},
			{
				"x": -3.0826278194,
				"y": -1.0411199114,
				"z": -0.695987985,
				"element": "H" 
			},
			{
				"x": -1.1875524002,
				"y": 4.3705693527,
				"z": 0.8643941866,
				"element": "H" 
			}
		],
		 "valence_orbital": [ 
			{
				"type": "occ",
				"energy": -0.29818,
				"method": "rhf"
			},
			{
				"type": "occ",
				"energy": -0.28973,
				"method": "rhf"
			},
			{
				"type": "occ",
				"energy": -0.2813,
				"method": "rhf"
			},
			{
				"type": "occ",
				"energy": -0.25038,
				"method": "rhf"
			},
			{
				"type": "occ",
				"energy": -0.21789,
				"method": "rhf"
			},
			{
				"type": "unocc",
				"energy": -0.04874,
				"method": "rhf"
			},
			{
				"type": "unocc",
				"energy": -0.0007,
				"method": "rhf"
			},
			{
				"type": "unocc",
				"energy": 0.00514,
				"method": "rhf"
			},
			{
				"type": "unocc",
				"energy": 0.05075,
				"method": "rhf"
			},
			{
				"type": "unocc",
				"energy": 0.06875,
				"method": "rhf"
			}
		],
		"cosmo_sigma_profile": { 
			"-0.025": 0.0,
			"-0.024": 0.0,
			"-0.023": 0.0,
			"-0.022": 0.0,
			"-0.021": 0.0,
			"-0.02": 0.0,
			"-0.019": 0.0573506063528,
			"-0.018": 0.770311835776,
			"-0.017": 0.607405909201,
			"-0.016": 1.02242861601,
			"-0.015": 0.622031289637,
			"-0.014": 1.70419753849,
			"-0.013": 2.17299748758,
			"-0.012": 2.62994597875,
			"-0.011": 2.06105193886,
			"-0.01": 3.38662413679,
			"-0.009": 2.65531939805,
			"-0.008": 3.29249730795,
			"-0.007": 3.14446370623,
			"-0.006": 6.16960950026,
			"-0.005": 6.86433749952,
			"-0.004": 7.49856490422,
			"-0.003": 7.31068794993,
			"-0.002": 10.6172677651,
			"-0.001": 12.3351184959,
			"0.0": 10.9722356775,
			"0.001": 16.4226166191,
			"0.002": 23.3647656786,
			"0.003": 23.7674432024,
			"0.004": 19.2464507588,
			"0.005": 6.40987834781,
			"0.006": 1.29627913795,
			"0.007": 2.65133944835,
			"0.008": 2.37963677411,
			"0.009": 1.44272692878,
			"0.01": 2.051718852,
			"0.011": 3.20753275803,
			"0.012": 4.74663734669,
			"0.013": 0.168213726196,
			"0.014": 0.0,
			"0.015": 0.0,
			"0.016": 0.0,
			"0.017": 0.0,
			"0.018": 0.0,
			"0.019": 0.0,
			"0.02": 0.0,
			"0.021": 0.0,
			"0.022": 0.0,
			"0.023": 0.0,
			"0.024": 0.0,
			"0.025": 0.0
		}
	}
}
