{
	 "smiles": "COC1=CC=C(NCC2=CC=C(C=C2)N(C)C)C=C1", 
	 "Tm": 376.15, 
	 "num_atms": 39, 
	 "gaussian": { 
		 "optdone": 1, 
		 "sigma_profile": "yes", 
		 "theory": "DFT", 
		 "functional": "B3LYP", 
		 "basiset": "6-31G**", 
		 "properties": { 
			 "R2extent": 11084.1348, 
			 "electric_dipole_moment_norm": 3.25670540884, 
			 "electric_quadrupole_moment_norm": 19.5299573712, 
			 "total_energy": -806.463252376, 
			 "HOMO_LUMO_gap": 0.17845, 
			 "cosmo_polarized_energy": -11.45, 
			 "cosmo_cavitation_energy": 41.42, 
			 "cosmo_dispersion_energy": -30.13, 
			 "cosmo_repulsion_energy": 2.3, 
			 "cosmo_total_nonelectrostatic_energy": 13.59, 
			 "SMD_solvation_energy": 6.3 
		},
		"coords": [
			{
				"x": -8.2414650934,
				"y": 0.4996574767,
				"z": 0.3835003234,
				"element": "C" 
			},
			{
				"x": -7.3458419681,
				"y": 0.6694619498,
				"z": -0.6978748765,
				"element": "O" 
			},
			{
				"x": -6.007929937,
				"y": 0.4776345539,
				"z": -0.4550047362,
				"element": "C" 
			},
			{
				"x": -5.1541744082,
				"y": 0.6550244871,
				"z": -1.5545769589,
				"element": "C" 
			},
			{
				"x": -3.7862717671,
				"y": 0.4828906394,
				"z": -1.4193741833,
				"element": "C" 
			},
			{
				"x": -3.2105859879,
				"y": 0.131867304,
				"z": -0.1794270443,
				"element": "C" 
			},
			{
				"x": -1.8286111043,
				"y": -0.0751330508,
				"z": -0.0998769764,
				"element": "N" 
			},
			{
				"x": -1.1513638928,
				"y": -0.1295213028,
				"z": 1.1916557933,
				"element": "C" 
			},
			{
				"x": 0.3433548326,
				"y": -0.2656406495,
				"z": 1.0122836312,
				"element": "C" 
			},
			{
				"x": 0.8903845288,
				"y": -1.3319102584,
				"z": 0.2857428268,
				"element": "C" 
			},
			{
				"x": 2.2627821309,
				"y": -1.4719533063,
				"z": 0.115214172,
				"element": "C" 
			},
			{
				"x": 3.1672032867,
				"y": -0.5432798159,
				"z": 0.6827995769,
				"element": "C" 
			},
			{
				"x": 2.6127654458,
				"y": 0.5394724657,
				"z": 1.4003753499,
				"element": "C" 
			},
			{
				"x": 1.2339824717,
				"y": 0.6636938259,
				"z": 1.5561802702,
				"element": "C" 
			},
			{
				"x": 4.5435863279,
				"y": -0.6969489371,
				"z": 0.5471123294,
				"element": "N" 
			},
			{
				"x": 5.0594386649,
				"y": -1.6790887117,
				"z": -0.3910539666,
				"element": "C" 
			},
			{
				"x": 5.4202473077,
				"y": 0.3899086256,
				"z": 0.9471550457,
				"element": "C" 
			},
			{
				"x": -4.0712559797,
				"y": -0.0325596163,
				"z": 0.9143496369,
				"element": "C" 
			},
			{
				"x": -5.4562662526,
				"y": 0.131529299,
				"z": 0.7783118645,
				"element": "C" 
			},
			{
				"x": -8.0380785996,
				"y": 1.2082580941,
				"z": 1.198399936,
				"element": "H" 
			},
			{
				"x": -9.240140255,
				"y": 0.6910579324,
				"z": -0.0137965377,
				"element": "H" 
			},
			{
				"x": -8.2058673684,
				"y": -0.5215991576,
				"z": 0.7874869332,
				"element": "H" 
			},
			{
				"x": -5.5894783312,
				"y": 0.9273612923,
				"z": -2.5109101712,
				"element": "H" 
			},
			{
				"x": -3.1416649703,
				"y": 0.6143339525,
				"z": -2.2855400255,
				"element": "H" 
			},
			{
				"x": -1.3017145975,
				"y": 0.4426303722,
				"z": -0.7915245048,
				"element": "H" 
			},
			{
				"x": -1.369792914,
				"y": 0.7550570633,
				"z": 1.8150110386,
				"element": "H" 
			},
			{
				"x": -1.5417088594,
				"y": -0.9973472298,
				"z": 1.7416070236,
				"element": "H" 
			},
			{
				"x": 0.2239490509,
				"y": -2.0624411357,
				"z": -0.1653358382,
				"element": "H" 
			},
			{
				"x": 2.6304527447,
				"y": -2.3118097025,
				"z": -0.46146385,
				"element": "H" 
			},
			{
				"x": 3.2539628738,
				"y": 1.2948087633,
				"z": 1.8375877547,
				"element": "H" 
			},
			{
				"x": 0.8456609301,
				"y": 1.5123803229,
				"z": 2.1149667782,
				"element": "H" 
			},
			{
				"x": 6.1500175504,
				"y": -1.6721150749,
				"z": -0.3516877306,
				"element": "H" 
			},
			{
				"x": 4.7293390724,
				"y": -2.689464089,
				"z": -0.1246055232,
				"element": "H" 
			},
			{
				"x": 4.7519181272,
				"y": -1.4861483437,
				"z": -1.431282774,
				"element": "H" 
			},
			{
				"x": 5.3003308324,
				"y": 0.6196599922,
				"z": 2.0119575584,
				"element": "H" 
			},
			{
				"x": 5.2450182334,
				"y": 1.3178702379,
				"z": 0.3794107115,
				"element": "H" 
			},
			{
				"x": 6.4575920804,
				"y": 0.0876124206,
				"z": 0.7938557044,
				"element": "H" 
			},
			{
				"x": -3.6747711661,
				"y": -0.2923106436,
				"z": 1.8894684842,
				"element": "H" 
			},
			{
				"x": -6.0839030401,
				"y": -0.0080000451,
				"z": 1.6510029545,
				"element": "H" 
			}
		],
		 "valence_orbital": [ 
			{
				"type": "occ",
				"energy": -0.25591,
				"method": "rhf"
			},
			{
				"type": "occ",
				"energy": -0.24218,
				"method": "rhf"
			},
			{
				"type": "occ",
				"energy": -0.23665,
				"method": "rhf"
			},
			{
				"type": "occ",
				"energy": -0.18785,
				"method": "rhf"
			},
			{
				"type": "occ",
				"energy": -0.17281,
				"method": "rhf"
			},
			{
				"type": "unocc",
				"energy": 0.00564,
				"method": "rhf"
			},
			{
				"type": "unocc",
				"energy": 0.01103,
				"method": "rhf"
			},
			{
				"type": "unocc",
				"energy": 0.01717,
				"method": "rhf"
			},
			{
				"type": "unocc",
				"energy": 0.04016,
				"method": "rhf"
			},
			{
				"type": "unocc",
				"energy": 0.0854,
				"method": "rhf"
			}
		],
		"cosmo_sigma_profile": { 
			"-0.025": 0.0,
			"-0.024": 0.0,
			"-0.023": 0.0,
			"-0.022": 0.0,
			"-0.021": 0.0,
			"-0.02": 0.0,
			"-0.019": 0.0,
			"-0.018": 0.0,
			"-0.017": 0.0,
			"-0.016": 0.0,
			"-0.015": 0.0,
			"-0.014": 0.0,
			"-0.013": 0.0,
			"-0.012": 0.0345876408038,
			"-0.011": 0.807344642089,
			"-0.01": 1.13378071351,
			"-0.009": 1.41530906928,
			"-0.008": 0.955912561754,
			"-0.007": 1.82996072506,
			"-0.006": 7.15431889951,
			"-0.005": 26.0544100647,
			"-0.004": 33.7379365054,
			"-0.003": 40.4273078178,
			"-0.002": 38.2711758814,
			"-0.001": 31.3355893733,
			"0.0": 18.3698109282,
			"0.001": 15.2487817655,
			"0.002": 13.8711405937,
			"0.003": 13.4003602446,
			"0.004": 16.0155960128,
			"0.005": 17.9660820167,
			"0.006": 19.4671271032,
			"0.007": 18.8971377598,
			"0.008": 4.06433384188,
			"0.009": 1.40036225439,
			"0.01": 2.92677620625,
			"0.011": 1.93577813955,
			"0.012": 0.330125930802,
			"0.013": 0.0,
			"0.014": 0.0,
			"0.015": 0.0,
			"0.016": 0.0,
			"0.017": 0.0,
			"0.018": 0.0,
			"0.019": 0.0,
			"0.02": 0.0,
			"0.021": 0.0,
			"0.022": 0.0,
			"0.023": 0.0,
			"0.024": 0.0,
			"0.025": 0.0
		}
	}
}
