{
	 "smiles": "COC(=O)C1=CC(Br)=C(O)C(Br)=C1", 
	 "Tm": 397.15, 
	 "num_atms": 19, 
	 "gaussian": { 
		 "optdone": 1, 
		 "sigma_profile": "yes", 
		 "theory": "DFT", 
		 "functional": "B3LYP", 
		 "basiset": "6-31G**", 
		 "properties": { 
			 "R2extent": 7969.4139, 
			 "electric_dipole_moment_norm": 0.625405492461, 
			 "electric_quadrupole_moment_norm": 14.84613493, 
			 "total_energy": -5676.95383707, 
			 "HOMO_LUMO_gap": 0.19079, 
			 "cosmo_polarized_energy": -9.24, 
			 "cosmo_cavitation_energy": 28.65, 
			 "cosmo_dispersion_energy": -21.97, 
			 "cosmo_repulsion_energy": 1.75, 
			 "cosmo_total_nonelectrostatic_energy": 8.43, 
			 "SMD_solvation_energy": 4.72 
		},
		"coords": [
			{
				"x": 0.1821004151,
				"y": 1.0208457128,
				"z": 2.8181146052,
				"element": "C" 
			},
			{
				"x": 0.408221287,
				"y": 0.8726029412,
				"z": 1.4067445207,
				"element": "O" 
			},
			{
				"x": -0.6513867209,
				"y": 0.4251096402,
				"z": 0.6981076795,
				"element": "C" 
			},
			{
				"x": -1.7278321692,
				"y": 0.1600645934,
				"z": 1.1975426353,
				"element": "O" 
			},
			{
				"x": -0.3471057407,
				"y": 0.2948887709,
				"z": -0.7526439299,
				"element": "C" 
			},
			{
				"x": -1.3692759072,
				"y": -0.1621543233,
				"z": -1.5920527443,
				"element": "C" 
			},
			{
				"x": -1.1259156943,
				"y": -0.2969700533,
				"z": -2.9483018625,
				"element": "C" 
			},
			{
				"x": -2.5108486306,
				"y": -0.9210689613,
				"z": -4.1174751275,
				"element": "Br" 
			},
			{
				"x": 0.1232960217,
				"y": 0.011434154,
				"z": -3.5202676481,
				"element": "C" 
			},
			{
				"x": 0.3863510901,
				"y": -0.110077129,
				"z": -4.8313827407,
				"element": "O" 
			},
			{
				"x": 1.1343426903,
				"y": 0.4691401053,
				"z": -2.6545458251,
				"element": "C" 
			},
			{
				"x": 2.8407403493,
				"y": 0.9001392211,
				"z": -3.3765579063,
				"element": "Br" 
			},
			{
				"x": 0.9067790505,
				"y": 0.6097995311,
				"z": -1.2928296419,
				"element": "C" 
			},
			{
				"x": 1.123459431,
				"y": 1.3841180005,
				"z": 3.2293946424,
				"element": "H" 
			},
			{
				"x": -0.0894893751,
				"y": 0.0617852643,
				"z": 3.2660675438,
				"element": "H" 
			},
			{
				"x": -0.621844728,
				"y": 1.7371157349,
				"z": 3.0048145595,
				"element": "H" 
			},
			{
				"x": -2.3357238003,
				"y": -0.4033369419,
				"z": -1.1662538124,
				"element": "H" 
			},
			{
				"x": -0.4128979223,
				"y": -0.4350804609,
				"z": -5.2800088656,
				"element": "H" 
			},
			{
				"x": 1.7010303536,
				"y": 0.9637442,
				"z": -0.6485660822,
				"element": "H" 
			}
		],
		 "valence_orbital": [ 
			{
				"type": "occ",
				"energy": -0.30801,
				"method": "rhf"
			},
			{
				"type": "occ",
				"energy": -0.29237,
				"method": "rhf"
			},
			{
				"type": "occ",
				"energy": -0.28196,
				"method": "rhf"
			},
			{
				"type": "occ",
				"energy": -0.25785,
				"method": "rhf"
			},
			{
				"type": "occ",
				"energy": -0.24404,
				"method": "rhf"
			},
			{
				"type": "unocc",
				"energy": -0.05325,
				"method": "rhf"
			},
			{
				"type": "unocc",
				"energy": -0.03288,
				"method": "rhf"
			},
			{
				"type": "unocc",
				"energy": -0.02777,
				"method": "rhf"
			},
			{
				"type": "unocc",
				"energy": 0.01647,
				"method": "rhf"
			},
			{
				"type": "unocc",
				"energy": 0.04749,
				"method": "rhf"
			}
		],
		"cosmo_sigma_profile": { 
			"-0.025": 0.0,
			"-0.024": 0.0,
			"-0.023": 0.0,
			"-0.022": 0.0,
			"-0.021": 0.0,
			"-0.02": 0.0,
			"-0.019": 0.0,
			"-0.018": 0.0,
			"-0.017": 0.0,
			"-0.016": 0.107629133247,
			"-0.015": 0.764034543534,
			"-0.014": 0.522698227642,
			"-0.013": 0.333678498262,
			"-0.012": 1.51517996638,
			"-0.011": 0.629273933652,
			"-0.01": 0.943889311755,
			"-0.009": 0.616927677256,
			"-0.008": 1.57255707362,
			"-0.007": 4.81795922294,
			"-0.006": 8.83417091115,
			"-0.005": 13.0663141233,
			"-0.004": 15.7317566021,
			"-0.003": 18.4605492161,
			"-0.002": 16.5995801701,
			"-0.001": 23.4152945768,
			"0.0": 28.1566078132,
			"0.001": 22.2059865711,
			"0.002": 17.8894066754,
			"0.003": 15.7019290399,
			"0.004": 14.9600627741,
			"0.005": 6.41972128083,
			"0.006": 3.81180179192,
			"0.007": 3.25242743928,
			"0.008": 3.09252407835,
			"0.009": 4.1520084036,
			"0.01": 2.34213498041,
			"0.011": 3.35091710547,
			"0.012": 3.14899039119,
			"0.013": 0.0347505603654,
			"0.014": 0.0,
			"0.015": 0.0,
			"0.016": 0.0,
			"0.017": 0.0,
			"0.018": 0.0,
			"0.019": 0.0,
			"0.02": 0.0,
			"0.021": 0.0,
			"0.022": 0.0,
			"0.023": 0.0,
			"0.024": 0.0,
			"0.025": 0.0
		}
	}
}
