{
	 "smiles": "CC(C)C1=CC(C)=CC=C1", 
	 "Tm": 209.25, 
	 "num_atms": 24, 
	 "gaussian": { 
		 "optdone": 1, 
		 "sigma_profile": "yes", 
		 "theory": "DFT", 
		 "functional": "B3LYP", 
		 "basiset": "6-31G**", 
		 "properties": { 
			 "R2extent": 1995.8047, 
			 "electric_dipole_moment_norm": 0.266889958597, 
			 "electric_quadrupole_moment_norm": 4.92413563887, 
			 "total_energy": -389.523456597, 
			 "HOMO_LUMO_gap": 0.23606, 
			 "cosmo_polarized_energy": -3.17, 
			 "cosmo_cavitation_energy": 26.0, 
			 "cosmo_dispersion_energy": -18.57, 
			 "cosmo_repulsion_energy": 1.53, 
			 "cosmo_total_nonelectrostatic_energy": 8.96, 
			 "SMD_solvation_energy": 4.62 
		},
		"coords": [
			{
				"x": 1.8508736904,
				"y": -1.1019761218,
				"z": -0.0194630485,
				"element": "C" 
			},
			{
				"x": 0.3703495999,
				"y": -0.9967379838,
				"z": -0.4315632331,
				"element": "C" 
			},
			{
				"x": -0.3738787421,
				"y": -2.3180364162,
				"z": -0.1610411069,
				"element": "C" 
			},
			{
				"x": -0.3206362688,
				"y": 0.1903272019,
				"z": 0.228076277,
				"element": "C" 
			},
			{
				"x": -0.4524669586,
				"y": 0.2718858848,
				"z": 1.6227228844,
				"element": "C" 
			},
			{
				"x": -1.0845136783,
				"y": 1.3521527173,
				"z": 2.2469602574,
				"element": "C" 
			},
			{
				"x": -1.1899456975,
				"y": 1.4263400689,
				"z": 3.7530519896,
				"element": "C" 
			},
			{
				"x": -1.6031082713,
				"y": 2.378002707,
				"z": 1.4431685291,
				"element": "C" 
			},
			{
				"x": -1.4828539612,
				"y": 2.3166325047,
				"z": 0.0569205856,
				"element": "C" 
			},
			{
				"x": -0.8453895802,
				"y": 1.2303649235,
				"z": -0.5467268404,
				"element": "C" 
			},
			{
				"x": 2.3911386568,
				"y": -0.1771349625,
				"z": -0.2443728949,
				"element": "H" 
			},
			{
				"x": 1.9519891948,
				"y": -1.2939660954,
				"z": 1.0544187623,
				"element": "H" 
			},
			{
				"x": 2.3436037055,
				"y": -1.9235569489,
				"z": -0.5512121612,
				"element": "H" 
			},
			{
				"x": 0.343148224,
				"y": -0.820754927,
				"z": -1.5151135166,
				"element": "H" 
			},
			{
				"x": -0.3721667473,
				"y": -2.5637794465,
				"z": 0.9066273032,
				"element": "H" 
			},
			{
				"x": -1.4169493437,
				"y": -2.2587786948,
				"z": -0.4870348742,
				"element": "H" 
			},
			{
				"x": 0.1040533575,
				"y": -3.1479486159,
				"z": -0.6933536564,
				"element": "H" 
			},
			{
				"x": -0.0540865654,
				"y": -0.5273454138,
				"z": 2.244205543,
				"element": "H" 
			},
			{
				"x": -1.0093924751,
				"y": 0.4519459333,
				"z": 4.216110103,
				"element": "H" 
			},
			{
				"x": -0.4566193832,
				"y": 2.1285699978,
				"z": 4.1690285073,
				"element": "H" 
			},
			{
				"x": -2.1799656326,
				"y": 1.7719029827,
				"z": 4.0688119434,
				"element": "H" 
			},
			{
				"x": -2.103062514,
				"y": 3.224455115,
				"z": 1.9081340052,
				"element": "H" 
			},
			{
				"x": -1.8893347246,
				"y": 3.1150733859,
				"z": -0.5581620652,
				"element": "H" 
			},
			{
				"x": -0.757585885,
				"y": 1.1882622039,
				"z": -1.6297932932,
				"element": "H" 
			}
		],
		 "valence_orbital": [ 
			{
				"type": "occ",
				"energy": -0.32918,
				"method": "rhf"
			},
			{
				"type": "occ",
				"energy": -0.31834,
				"method": "rhf"
			},
			{
				"type": "occ",
				"energy": -0.31404,
				"method": "rhf"
			},
			{
				"type": "occ",
				"energy": -0.23689,
				"method": "rhf"
			},
			{
				"type": "occ",
				"energy": -0.23018,
				"method": "rhf"
			},
			{
				"type": "unocc",
				"energy": 0.00588,
				"method": "rhf"
			},
			{
				"type": "unocc",
				"energy": 0.00866,
				"method": "rhf"
			},
			{
				"type": "unocc",
				"energy": 0.08988,
				"method": "rhf"
			},
			{
				"type": "unocc",
				"energy": 0.11228,
				"method": "rhf"
			},
			{
				"type": "unocc",
				"energy": 0.11641,
				"method": "rhf"
			}
		],
		"cosmo_sigma_profile": { 
			"-0.025": 0.0,
			"-0.024": 0.0,
			"-0.023": 0.0,
			"-0.022": 0.0,
			"-0.021": 0.0,
			"-0.02": 0.0,
			"-0.019": 0.0,
			"-0.018": 0.0,
			"-0.017": 0.0,
			"-0.016": 0.0,
			"-0.015": 0.0,
			"-0.014": 0.0,
			"-0.013": 0.0,
			"-0.012": 0.0,
			"-0.011": 0.0,
			"-0.01": 0.0,
			"-0.009": 0.0,
			"-0.008": 0.0,
			"-0.007": 0.0,
			"-0.006": 0.141956026014,
			"-0.005": 4.25736726351,
			"-0.004": 14.8622292701,
			"-0.003": 24.9671458562,
			"-0.002": 27.8519996085,
			"-0.001": 25.7668752999,
			"0.0": 27.6277167465,
			"0.001": 26.1611933947,
			"0.002": 15.7344392661,
			"0.003": 7.40572932891,
			"0.004": 7.19646367305,
			"0.005": 7.71360760571,
			"0.006": 6.73594466831,
			"0.007": 6.40860181313,
			"0.008": 0.580660489364,
			"0.009": 0.0,
			"0.01": 0.0,
			"0.011": 0.0,
			"0.012": 0.0,
			"0.013": 0.0,
			"0.014": 0.0,
			"0.015": 0.0,
			"0.016": 0.0,
			"0.017": 0.0,
			"0.018": 0.0,
			"0.019": 0.0,
			"0.02": 0.0,
			"0.021": 0.0,
			"0.022": 0.0,
			"0.023": 0.0,
			"0.024": 0.0,
			"0.025": 0.0
		}
	}
}
