{
	 "smiles": "NNC1=NC(=NO1)C1=CC=CC=C1", 
	 "Tm": 451.15, 
	 "num_atms": 21, 
	 "gaussian": { 
		 "optdone": 1, 
		 "sigma_profile": "yes", 
		 "theory": "DFT", 
		 "functional": "B3LYP", 
		 "basiset": "6-31G**", 
		 "properties": { 
			 "R2extent": 3502.3803, 
			 "electric_dipole_moment_norm": 1.9059584177, 
			 "electric_quadrupole_moment_norm": 11.2686184925, 
			 "total_energy": -603.83579892, 
			 "HOMO_LUMO_gap": 0.19405, 
			 "cosmo_polarized_energy": -12.68, 
			 "cosmo_cavitation_energy": 26.13, 
			 "cosmo_dispersion_energy": -19.59, 
			 "cosmo_repulsion_energy": 1.56, 
			 "cosmo_total_nonelectrostatic_energy": 8.1, 
			 "SMD_solvation_energy": 3.75 
		},
		"coords": [
			{
				"x": -4.2336758044,
				"y": 2.5283918431,
				"z": -0.917962797,
				"element": "N" 
			},
			{
				"x": -3.717570157,
				"y": 1.7154113446,
				"z": -1.9463625637,
				"element": "N" 
			},
			{
				"x": -2.4827251957,
				"y": 1.1644937485,
				"z": -1.8317736981,
				"element": "C" 
			},
			{
				"x": -1.5588659326,
				"y": 1.4648907303,
				"z": -0.956521857,
				"element": "N" 
			},
			{
				"x": -0.5334128466,
				"y": 0.6216446173,
				"z": -1.3388662781,
				"element": "C" 
			},
			{
				"x": -0.7958241345,
				"y": -0.1492093285,
				"z": -2.3706029625,
				"element": "N" 
			},
			{
				"x": -2.1311671436,
				"y": 0.2158602813,
				"z": -2.7136319941,
				"element": "O" 
			},
			{
				"x": 0.761286707,
				"y": 0.5830891925,
				"z": -0.6424582367,
				"element": "C" 
			},
			{
				"x": 1.7720772948,
				"y": -0.2995811102,
				"z": -1.0557774886,
				"element": "C" 
			},
			{
				"x": 2.9921255918,
				"y": -0.3236683298,
				"z": -0.3860299296,
				"element": "C" 
			},
			{
				"x": 3.2166474699,
				"y": 0.5287969057,
				"z": 0.6992932892,
				"element": "C" 
			},
			{
				"x": 2.2135085363,
				"y": 1.407386329,
				"z": 1.1124054453,
				"element": "C" 
			},
			{
				"x": 0.9892934417,
				"y": 1.4366327012,
				"z": 0.4457357479,
				"element": "C" 
			},
			{
				"x": -3.950593861,
				"y": 2.1386988218,
				"z": -0.0184825424,
				"element": "H" 
			},
			{
				"x": -3.7865009219,
				"y": 3.4398804368,
				"z": -0.991872195,
				"element": "H" 
			},
			{
				"x": -4.4096442285,
				"y": 1.2058478508,
				"z": -2.4767509644,
				"element": "H" 
			},
			{
				"x": 1.5905016152,
				"y": -0.9580742415,
				"z": -1.8987070368,
				"element": "H" 
			},
			{
				"x": 3.7704160978,
				"y": -1.0083880241,
				"z": -0.7101388511,
				"element": "H" 
			},
			{
				"x": 4.1699637002,
				"y": 0.5071709691,
				"z": 1.2195894456,
				"element": "H" 
			},
			{
				"x": 2.3840348271,
				"y": 2.071462741,
				"z": 1.9548411435,
				"element": "H" 
			},
			{
				"x": 0.2016249439,
				"y": 2.1145625212,
				"z": 0.7556743234,
				"element": "H" 
			}
		],
		 "valence_orbital": [ 
			{
				"type": "occ",
				"energy": -0.30233,
				"method": "rhf"
			},
			{
				"type": "occ",
				"energy": -0.28249,
				"method": "rhf"
			},
			{
				"type": "occ",
				"energy": -0.25803,
				"method": "rhf"
			},
			{
				"type": "occ",
				"energy": -0.25318,
				"method": "rhf"
			},
			{
				"type": "occ",
				"energy": -0.23245,
				"method": "rhf"
			},
			{
				"type": "unocc",
				"energy": -0.0384,
				"method": "rhf"
			},
			{
				"type": "unocc",
				"energy": -0.00353,
				"method": "rhf"
			},
			{
				"type": "unocc",
				"energy": 0.02352,
				"method": "rhf"
			},
			{
				"type": "unocc",
				"energy": 0.06553,
				"method": "rhf"
			},
			{
				"type": "unocc",
				"energy": 0.07748,
				"method": "rhf"
			}
		],
		"cosmo_sigma_profile": { 
			"-0.025": 0.0,
			"-0.024": 0.0,
			"-0.023": 0.0,
			"-0.022": 0.0,
			"-0.021": 0.0,
			"-0.02": 0.0,
			"-0.019": 0.0,
			"-0.018": 0.0,
			"-0.017": 0.0,
			"-0.016": 0.402898808265,
			"-0.015": 1.2489386182,
			"-0.014": 1.29269620859,
			"-0.013": 1.13684794212,
			"-0.012": 2.1699271821,
			"-0.011": 3.57731133222,
			"-0.01": 3.40472281601,
			"-0.009": 3.25622726571,
			"-0.008": 3.31733053981,
			"-0.007": 3.26997164446,
			"-0.006": 10.0880568068,
			"-0.005": 12.7111782399,
			"-0.004": 14.0412013175,
			"-0.003": 11.2463435362,
			"-0.002": 10.8999281385,
			"-0.001": 10.1983707647,
			"0.0": 12.5089147177,
			"0.001": 15.6418860874,
			"0.002": 16.5993134275,
			"0.003": 14.8334580951,
			"0.004": 17.1042386702,
			"0.005": 10.6112418792,
			"0.006": 4.06624136575,
			"0.007": 7.05668134575,
			"0.008": 3.4591249888,
			"0.009": 4.74409357463,
			"0.01": 2.74514721364,
			"0.011": 2.78516494488,
			"0.012": 1.9839553231,
			"0.013": 1.19046584591,
			"0.014": 0.601954443155,
			"0.015": 0.763154699905,
			"0.016": 0.244288819183,
			"0.017": 0.0,
			"0.018": 0.0,
			"0.019": 0.0,
			"0.02": 0.0,
			"0.021": 0.0,
			"0.022": 0.0,
			"0.023": 0.0,
			"0.024": 0.0,
			"0.025": 0.0
		}
	}
}
