{
	 "smiles": "ClCC(=O)NCC(=O)NC1=C(Br)C=CC=C1", 
	 "Tm": 492.15, 
	 "num_atms": 26, 
	 "gaussian": { 
		 "optdone": 1, 
		 "sigma_profile": "yes", 
		 "theory": "DFT", 
		 "functional": "B3LYP", 
		 "basiset": "6-31G**", 
		 "properties": { 
			 "R2extent": 7447.6466, 
			 "electric_dipole_moment_norm": 6.67862628165, 
			 "electric_quadrupole_moment_norm": 13.2743310724, 
			 "total_energy": -3678.65799651, 
			 "HOMO_LUMO_gap": 0.20804, 
			 "cosmo_polarized_energy": -18.53, 
			 "cosmo_cavitation_energy": 34.75, 
			 "cosmo_dispersion_energy": -24.69, 
			 "cosmo_repulsion_energy": 1.96, 
			 "cosmo_total_nonelectrostatic_energy": 12.02, 
			 "SMD_solvation_energy": 5.09 
		},
		"coords": [
			{
				"x": 0.8295751908,
				"y": -1.7913679523,
				"z": -1.969758628,
				"element": "Cl" 
			},
			{
				"x": 1.7994447825,
				"y": -0.3674811886,
				"z": -2.5544391125,
				"element": "C" 
			},
			{
				"x": 0.9231194782,
				"y": 0.7885666919,
				"z": -3.0449715648,
				"element": "C" 
			},
			{
				"x": 0.9057007503,
				"y": 1.0764691509,
				"z": -4.2332925637,
				"element": "O" 
			},
			{
				"x": 0.2071507342,
				"y": 1.4757118754,
				"z": -2.1122194629,
				"element": "N" 
			},
			{
				"x": 0.2134880442,
				"y": 1.3125075531,
				"z": -0.6760668574,
				"element": "C" 
			},
			{
				"x": -0.8453161518,
				"y": 2.2565173834,
				"z": -0.0992075715,
				"element": "C" 
			},
			{
				"x": -1.3339302687,
				"y": 3.1461389358,
				"z": -0.7811711239,
				"element": "O" 
			},
			{
				"x": -1.2459205984,
				"y": 2.0868346355,
				"z": 1.2080752934,
				"element": "N" 
			},
			{
				"x": -0.9538917628,
				"y": 1.0671289869,
				"z": 2.1373491728,
				"element": "C" 
			},
			{
				"x": -1.9865047099,
				"y": 0.4874029993,
				"z": 2.8989887451,
				"element": "C" 
			},
			{
				"x": -3.7935742884,
				"y": 1.0621607731,
				"z": 2.6545513421,
				"element": "Br" 
			},
			{
				"x": -1.7227508805,
				"y": -0.4983500983,
				"z": 3.846084894,
				"element": "C" 
			},
			{
				"x": -0.4144670108,
				"y": -0.9380692777,
				"z": 4.0455246296,
				"element": "C" 
			},
			{
				"x": 0.6244868592,
				"y": -0.3663915677,
				"z": 3.3121108616,
				"element": "C" 
			},
			{
				"x": 0.3587021775,
				"y": 0.6377704239,
				"z": 2.3839826248,
				"element": "C" 
			},
			{
				"x": 2.4549379273,
				"y": -0.076076176,
				"z": -1.7304405441,
				"element": "H" 
			},
			{
				"x": 2.3881256383,
				"y": -0.710894067,
				"z": -3.4016344356,
				"element": "H" 
			},
			{
				"x": -0.3400214157,
				"y": 2.2614575347,
				"z": -2.4504805986,
				"element": "H" 
			},
			{
				"x": 1.1878083853,
				"y": 1.5837364862,
				"z": -0.2418017832,
				"element": "H" 
			},
			{
				"x": 0.0030922099,
				"y": 0.2800279426,
				"z": -0.3784718388,
				"element": "H" 
			},
			{
				"x": -2.0517147194,
				"y": 2.6650562107,
				"z": 1.4226406321,
				"element": "H" 
			},
			{
				"x": -2.5426342901,
				"y": -0.9218580834,
				"z": 4.4147218566,
				"element": "H" 
			},
			{
				"x": -0.2133481531,
				"y": -1.7144266594,
				"z": 4.7765153796,
				"element": "H" 
			},
			{
				"x": 1.6494394836,
				"y": -0.6842657606,
				"z": 3.4746418582,
				"element": "H" 
			},
			{
				"x": 1.1782025883,
				"y": 1.1175932479,
				"z": 1.862168795,
				"element": "H" 
			}
		],
		 "valence_orbital": [ 
			{
				"type": "occ",
				"energy": -0.28841,
				"method": "rhf"
			},
			{
				"type": "occ",
				"energy": -0.27061,
				"method": "rhf"
			},
			{
				"type": "occ",
				"energy": -0.26035,
				"method": "rhf"
			},
			{
				"type": "occ",
				"energy": -0.25441,
				"method": "rhf"
			},
			{
				"type": "occ",
				"energy": -0.24957,
				"method": "rhf"
			},
			{
				"type": "unocc",
				"energy": -0.04153,
				"method": "rhf"
			},
			{
				"type": "unocc",
				"energy": -0.03628,
				"method": "rhf"
			},
			{
				"type": "unocc",
				"energy": -0.02101,
				"method": "rhf"
			},
			{
				"type": "unocc",
				"energy": -0.01435,
				"method": "rhf"
			},
			{
				"type": "unocc",
				"energy": 0.00555,
				"method": "rhf"
			}
		],
		"cosmo_sigma_profile": { 
			"-0.025": 0.0,
			"-0.024": 0.0,
			"-0.023": 0.0,
			"-0.022": 0.0,
			"-0.021": 0.0,
			"-0.02": 0.0,
			"-0.019": 0.0,
			"-0.018": 0.0,
			"-0.017": 0.0,
			"-0.016": 0.0,
			"-0.015": 0.0,
			"-0.014": 0.0,
			"-0.013": 0.144260355308,
			"-0.012": 0.413351128669,
			"-0.011": 1.37844563931,
			"-0.01": 4.84989144365,
			"-0.009": 7.99641426722,
			"-0.008": 7.76706647959,
			"-0.007": 12.9256067082,
			"-0.006": 15.9707017592,
			"-0.005": 16.248986684,
			"-0.004": 14.83552124,
			"-0.003": 14.8700369066,
			"-0.002": 14.4648915411,
			"-0.001": 17.5104924659,
			"0.0": 20.4826635948,
			"0.001": 24.7455528588,
			"0.002": 22.4653420734,
			"0.003": 23.9965771496,
			"0.004": 16.6902564227,
			"0.005": 10.2159650802,
			"0.006": 5.32933039945,
			"0.007": 2.41055118556,
			"0.008": 2.36990288554,
			"0.009": 2.44952778072,
			"0.01": 3.23748037253,
			"0.011": 4.60187689426,
			"0.012": 6.21011731421,
			"0.013": 6.36211776096,
			"0.014": 1.94716035754,
			"0.015": 0.0,
			"0.016": 0.0,
			"0.017": 0.0,
			"0.018": 0.0,
			"0.019": 0.0,
			"0.02": 0.0,
			"0.021": 0.0,
			"0.022": 0.0,
			"0.023": 0.0,
			"0.024": 0.0,
			"0.025": 0.0
		}
	}
}
