{
	 "smiles": "CC(=O)OCC1=CC2CC(=O)C3=COC(OC4OC(CO)C(O)C(O)C4O)C1C23", 
	 "Tm": 401.15, 
	 "num_atms": 53, 
	 "gaussian": { 
		 "optdone": 1, 
		 "sigma_profile": "no", 
		 "theory": "DFT", 
		 "functional": "B3LYP", 
		 "basiset": "6-31G**", 
		 "properties": { 
			 "R2extent": 12545.8562, 
			 "electric_dipole_moment_norm": 6.03821495891, 
			 "electric_quadrupole_moment_norm": 25.7642404088, 
			 "total_energy": -1490.64723582, 
			 "HOMO_LUMO_gap": 0.19653, 
			 "cosmo_polarized_energy": -29.88, 
			 "cosmo_cavitation_energy": 51.9, 
			 "cosmo_dispersion_energy": -34.52, 
			 "cosmo_repulsion_energy": 2.6, 
			 "cosmo_total_nonelectrostatic_energy": 19.98, 
			 "SMD_solvation_energy": 9.39 
		},
		"coords": [
			{
				"x": -0.8845556277,
				"y": -4.3612980383,
				"z": -0.8303006455,
				"element": "C" 
			},
			{
				"x": -0.916876187,
				"y": -3.8795402702,
				"z": -2.2587080817,
				"element": "C" 
			},
			{
				"x": -1.8670197667,
				"y": -3.9262437935,
				"z": -3.0052603931,
				"element": "O" 
			},
			{
				"x": 0.2935704057,
				"y": -3.3603407562,
				"z": -2.6120011097,
				"element": "O" 
			},
			{
				"x": 0.3646841299,
				"y": -2.7364496032,
				"z": -3.9194531934,
				"element": "C" 
			},
			{
				"x": -0.050625782,
				"y": -1.2970930155,
				"z": -3.8714255934,
				"element": "C" 
			},
			{
				"x": -0.9773106225,
				"y": -0.7293359028,
				"z": -4.6559672173,
				"element": "C" 
			},
			{
				"x": -1.0924909298,
				"y": 0.7691654666,
				"z": -4.4635572419,
				"element": "C" 
			},
			{
				"x": -2.5094871821,
				"y": 1.3258059666,
				"z": -4.1932250011,
				"element": "C" 
			},
			{
				"x": -2.7084681341,
				"y": 1.2269026724,
				"z": -2.6667504643,
				"element": "C" 
			},
			{
				"x": -3.7655713268,
				"y": 1.379400833,
				"z": -2.0817823065,
				"element": "O" 
			},
			{
				"x": -1.4021624698,
				"y": 0.8306701562,
				"z": -2.1026221758,
				"element": "C" 
			},
			{
				"x": -1.3142919432,
				"y": 0.0156338304,
				"z": -1.0392865395,
				"element": "C" 
			},
			{
				"x": -0.2353740563,
				"y": -0.7411057485,
				"z": -0.7308321737,
				"element": "O" 
			},
			{
				"x": 0.9384548586,
				"y": -0.5790543326,
				"z": -1.5328005325,
				"element": "C" 
			},
			{
				"x": 1.7107446544,
				"y": 0.4899758319,
				"z": -1.0174253687,
				"element": "O" 
			},
			{
				"x": 2.7502978482,
				"y": 0.1465598874,
				"z": -0.1060535625,
				"element": "C" 
			},
			{
				"x": 2.3481263643,
				"y": -0.6398199867,
				"z": 0.9757600799,
				"element": "O" 
			},
			{
				"x": 2.0057165144,
				"y": -0.065289794,
				"z": 2.2585573411,
				"element": "C" 
			},
			{
				"x": 0.5302822888,
				"y": 0.3235418763,
				"z": 2.3700004125,
				"element": "C" 
			},
			{
				"x": 0.1029165277,
				"y": 1.3883509334,
				"z": 1.5451854381,
				"element": "O" 
			},
			{
				"x": 2.9773772683,
				"y": 1.0554390551,
				"z": 2.7019678327,
				"element": "C" 
			},
			{
				"x": 3.5817900127,
				"y": 0.6529158206,
				"z": 3.9217445945,
				"element": "O" 
			},
			{
				"x": 4.0507794814,
				"y": 1.3538550425,
				"z": 1.6480822172,
				"element": "C" 
			},
			{
				"x": 4.8018692949,
				"y": 2.5020531774,
				"z": 2.0205174801,
				"element": "O" 
			},
			{
				"x": 3.4130574029,
				"y": 1.4879328494,
				"z": 0.2733912422,
				"element": "C" 
			},
			{
				"x": 2.4665680655,
				"y": 2.5574999407,
				"z": 0.3459912796,
				"element": "O" 
			},
			{
				"x": 0.6505906394,
				"y": -0.2486055133,
				"z": -3.0090624631,
				"element": "C" 
			},
			{
				"x": -0.3041214303,
				"y": 0.9544228248,
				"z": -3.1294791771,
				"element": "C" 
			},
			{
				"x": -0.0295531273,
				"y": -5.0229883245,
				"z": -0.6673411433,
				"element": "H" 
			},
			{
				"x": -1.8146439178,
				"y": -4.8797963594,
				"z": -0.59988997,
				"element": "H" 
			},
			{
				"x": -0.7644452875,
				"y": -3.497317232,
				"z": -0.1690799111,
				"element": "H" 
			},
			{
				"x": -0.2545635507,
				"y": -3.2963057204,
				"z": -4.6226755909,
				"element": "H" 
			},
			{
				"x": 1.4185224344,
				"y": -2.8347709441,
				"z": -4.2021373325,
				"element": "H" 
			},
			{
				"x": -1.5721378646,
				"y": -1.2730565088,
				"z": -5.3852007761,
				"element": "H" 
			},
			{
				"x": -0.6191691278,
				"y": 1.2898835358,
				"z": -5.3070077944,
				"element": "H" 
			},
			{
				"x": -3.3105365101,
				"y": 0.785864594,
				"z": -4.7069229778,
				"element": "H" 
			},
			{
				"x": -2.5866616917,
				"y": 2.3781703224,
				"z": -4.4943334563,
				"element": "H" 
			},
			{
				"x": -2.1515453297,
				"y": -0.1746033913,
				"z": -0.3764830673,
				"element": "H" 
			},
			{
				"x": 1.4700661152,
				"y": -1.5249678497,
				"z": -1.4170207235,
				"element": "H" 
			},
			{
				"x": 3.4786861644,
				"y": -0.481440871,
				"z": -0.6386221767,
				"element": "H" 
			},
			{
				"x": 2.1705366189,
				"y": -0.8937731246,
				"z": 2.9543829775,
				"element": "H" 
			},
			{
				"x": -0.0770082946,
				"y": -0.5475290922,
				"z": 2.1049880516,
				"element": "H" 
			},
			{
				"x": 0.3507379723,
				"y": 0.5465948309,
				"z": 3.4363903453,
				"element": "H" 
			},
			{
				"x": 0.8358670354,
				"y": 2.0093828882,
				"z": 1.4170667025,
				"element": "H" 
			},
			{
				"x": 2.4115543646,
				"y": 1.9867059357,
				"z": 2.8609775815,
				"element": "H" 
			},
			{
				"x": 4.2352590106,
				"y": 1.3355187231,
				"z": 4.135655203,
				"element": "H" 
			},
			{
				"x": 4.758508794,
				"y": 0.517872059,
				"z": 1.6345824275,
				"element": "H" 
			},
			{
				"x": 4.2371430178,
				"y": 3.2709466239,
				"z": 1.8507310387,
				"element": "H" 
			},
			{
				"x": 4.1788604457,
				"y": 1.7278947373,
				"z": -0.4766586475,
				"element": "H" 
			},
			{
				"x": 1.8822420576,
				"y": 2.4471982003,
				"z": -0.4217794319,
				"element": "H" 
			},
			{
				"x": 1.6359698348,
				"y": -0.0236281077,
				"z": -3.4423239246,
				"element": "H" 
			},
			{
				"x": 0.2151405374,
				"y": 1.9174956656,
				"z": -3.067902081,
				"element": "H" 
			}
		],
		 "valence_orbital": [ 
			{
				"type": "occ",
				"energy": -0.26867,
				"method": "rhf"
			},
			{
				"type": "occ",
				"energy": -0.26193,
				"method": "rhf"
			},
			{
				"type": "occ",
				"energy": -0.25575,
				"method": "rhf"
			},
			{
				"type": "occ",
				"energy": -0.23123,
				"method": "rhf"
			},
			{
				"type": "occ",
				"energy": -0.22902,
				"method": "rhf"
			},
			{
				"type": "unocc",
				"energy": -0.03249,
				"method": "rhf"
			},
			{
				"type": "unocc",
				"energy": -0.00524,
				"method": "rhf"
			},
			{
				"type": "unocc",
				"energy": 0.01078,
				"method": "rhf"
			},
			{
				"type": "unocc",
				"energy": 0.04601,
				"method": "rhf"
			},
			{
				"type": "unocc",
				"energy": 0.05987,
				"method": "rhf"
			}
		],
		"cosmo_sigma_profile": { 
			"0.0": 0.0,
			"0.0": 0.0,
			"0.0": 0.0,
			"0.0": 0.0,
			"0.0": 0.0,
			"0.0": 0.0,
			"0.0": 0.0,
			"0.0": 0.0,
			"0.0": 0.0,
			"0.0": 0.0,
			"0.0": 0.0,
			"0.0": 0.0,
			"0.0": 0.0,
			"0.0": 0.0,
			"0.0": 0.0,
			"0.0": 0.0,
			"0.0": 0.0,
			"0.0": 0.0,
			"0.0": 0.0,
			"0.0": 0.0,
			"0.0": 0.0,
			"0.0": 0.0,
			"0.0": 0.0,
			"0.0": 0.0,
			"0.0": 0.0,
			"0.0": 0.0,
			"0.0": 0.0,
			"0.0": 0.0,
			"0.0": 0.0,
			"0.0": 0.0,
			"0.0": 0.0,
			"0.0": 0.0,
			"0.0": 0.0,
			"0.0": 0.0,
			"0.0": 0.0,
			"0.0": 0.0,
			"0.0": 0.0,
			"0.0": 0.0,
			"0.0": 0.0,
			"0.0": 0.0,
			"0.0": 0.0,
			"0.0": 0.0,
			"0.0": 0.0,
			"0.0": 0.0,
			"0.0": 0.0,
			"0.0": 0.0,
			"0.0": 0.0,
			"0.0": 0.0,
			"0.0": 0.0,
			"0.0": 0.0,
			"0.0": 0.0
		}
	}
}
