{
	 "smiles": "CCCOCC(C)O", 
	 "Tm": 193.15, 
	 "num_atms": 22, 
	 "gaussian": { 
		 "optdone": 1, 
		 "sigma_profile": "yes", 
		 "theory": "DFT", 
		 "functional": "B3LYP", 
		 "basiset": "6-31G**", 
		 "properties": { 
			 "R2extent": 2107.7439, 
			 "electric_dipole_moment_norm": 1.88669618911, 
			 "electric_quadrupole_moment_norm": 9.0410481743, 
			 "total_energy": -387.513735078, 
			 "HOMO_LUMO_gap": 0.32481, 
			 "cosmo_polarized_energy": -7.77, 
			 "cosmo_cavitation_energy": 24.01, 
			 "cosmo_dispersion_energy": -17.21, 
			 "cosmo_repulsion_energy": 1.48, 
			 "cosmo_total_nonelectrostatic_energy": 8.27, 
			 "SMD_solvation_energy": 4.25 
		},
		"coords": [
			{
				"x": 0.4112167673,
				"y": 1.9331547697,
				"z": 1.9988921091,
				"element": "C" 
			},
			{
				"x": 1.6242435038,
				"y": 1.6881062343,
				"z": 1.0970665282,
				"element": "C" 
			},
			{
				"x": 1.2876361587,
				"y": 0.8555598351,
				"z": -0.1446000545,
				"element": "C" 
			},
			{
				"x": 0.7342916372,
				"y": -0.4215748767,
				"z": 0.1490546907,
				"element": "O" 
			},
			{
				"x": 1.6675293142,
				"y": -1.3878119036,
				"z": 0.5943762082,
				"element": "C" 
			},
			{
				"x": 0.974597478,
				"y": -2.7542860791,
				"z": 0.6381914729,
				"element": "C" 
			},
			{
				"x": 0.5641082817,
				"y": -3.2411351923,
				"z": -0.743060343,
				"element": "C" 
			},
			{
				"x": 1.8684888216,
				"y": -3.7250070876,
				"z": 1.1816035161,
				"element": "O" 
			},
			{
				"x": -0.0325328641,
				"y": 0.9852447896,
				"z": 2.3165676745,
				"element": "H" 
			},
			{
				"x": -0.3647216182,
				"y": 2.4980171098,
				"z": 1.4695258411,
				"element": "H" 
			},
			{
				"x": 0.6865539925,
				"y": 2.500508982,
				"z": 2.8934764883,
				"element": "H" 
			},
			{
				"x": 2.0429749939,
				"y": 2.643616163,
				"z": 0.7543945764,
				"element": "H" 
			},
			{
				"x": 2.4229202708,
				"y": 1.1967140536,
				"z": 1.6672618983,
				"element": "H" 
			},
			{
				"x": 2.1819134812,
				"y": 0.7406314171,
				"z": -0.778500018,
				"element": "H" 
			},
			{
				"x": 0.5234511587,
				"y": 1.3712919663,
				"z": -0.737880609,
				"element": "H" 
			},
			{
				"x": 2.0495939286,
				"y": -1.1451281506,
				"z": 1.6011359094,
				"element": "H" 
			},
			{
				"x": 2.5364140322,
				"y": -1.4409451618,
				"z": -0.0824505384,
				"element": "H" 
			},
			{
				"x": 0.0753572506,
				"y": -2.6551333147,
				"z": 1.2675156132,
				"element": "H" 
			},
			{
				"x": 0.0346363164,
				"y": -4.1949878843,
				"z": -0.6704826415,
				"element": "H" 
			},
			{
				"x": -0.0849680254,
				"y": -2.5038625757,
				"z": -1.2212112186,
				"element": "H" 
			},
			{
				"x": 1.4521789746,
				"y": -3.3885222533,
				"z": -1.3670940186,
				"element": "H" 
			},
			{
				"x": 2.0382161459,
				"y": -3.4933508407,
				"z": 2.1040169151,
				"element": "H" 
			}
		],
		 "valence_orbital": [ 
			{
				"type": "occ",
				"energy": -0.33758,
				"method": "rhf"
			},
			{
				"type": "occ",
				"energy": -0.32176,
				"method": "rhf"
			},
			{
				"type": "occ",
				"energy": -0.30661,
				"method": "rhf"
			},
			{
				"type": "occ",
				"energy": -0.26598,
				"method": "rhf"
			},
			{
				"type": "occ",
				"energy": -0.25251,
				"method": "rhf"
			},
			{
				"type": "unocc",
				"energy": 0.0723,
				"method": "rhf"
			},
			{
				"type": "unocc",
				"energy": 0.08321,
				"method": "rhf"
			},
			{
				"type": "unocc",
				"energy": 0.12156,
				"method": "rhf"
			},
			{
				"type": "unocc",
				"energy": 0.12699,
				"method": "rhf"
			},
			{
				"type": "unocc",
				"energy": 0.1293,
				"method": "rhf"
			}
		],
		"cosmo_sigma_profile": { 
			"-0.025": 0.0,
			"-0.024": 0.0,
			"-0.023": 0.0,
			"-0.022": 0.0,
			"-0.021": 0.0,
			"-0.02": 0.0,
			"-0.019": 0.0,
			"-0.018": 0.0,
			"-0.017": 0.0,
			"-0.016": 0.208688632168,
			"-0.015": 0.903483052785,
			"-0.014": 0.846201863837,
			"-0.013": 1.33778191059,
			"-0.012": 0.500950781809,
			"-0.011": 1.14911137866,
			"-0.01": 0.927196673631,
			"-0.009": 0.909046368888,
			"-0.008": 0.854038670219,
			"-0.007": 1.39630170749,
			"-0.006": 1.61746970371,
			"-0.005": 1.30951061375,
			"-0.004": 5.85494432289,
			"-0.003": 25.7083602697,
			"-0.002": 30.7043866588,
			"-0.001": 23.7250925076,
			"0.0": 21.8525539751,
			"0.001": 20.7777878909,
			"0.002": 10.6888517341,
			"0.003": 4.38001529238,
			"0.004": 3.48922405922,
			"0.005": 3.34239150499,
			"0.006": 2.89175071412,
			"0.007": 3.06864056694,
			"0.008": 3.16416912584,
			"0.009": 1.99257866793,
			"0.01": 2.45316538021,
			"0.011": 1.76515898643,
			"0.012": 2.14644160452,
			"0.013": 1.98003910967,
			"0.014": 2.27256842078,
			"0.015": 0.386713822302,
			"0.016": 0.0,
			"0.017": 0.0,
			"0.018": 0.0,
			"0.019": 0.0,
			"0.02": 0.0,
			"0.021": 0.0,
			"0.022": 0.0,
			"0.023": 0.0,
			"0.024": 0.0,
			"0.025": 0.0
		}
	}
}
