{
	 "smiles": "CC1=C(C)N=C(N)O1", 
	 "Tm": 338.15, 
	 "num_atms": 16, 
	 "gaussian": { 
		 "optdone": 1, 
		 "sigma_profile": "yes", 
		 "theory": "DFT", 
		 "functional": "B3LYP", 
		 "basiset": "6-31G**", 
		 "properties": { 
			 "R2extent": 1170.3865, 
			 "electric_dipole_moment_norm": 1.71252757642, 
			 "electric_quadrupole_moment_norm": 10.8653610166, 
			 "total_energy": -380.083294195, 
			 "HOMO_LUMO_gap": 0.22995, 
			 "cosmo_polarized_energy": -10.02, 
			 "cosmo_cavitation_energy": 19.79, 
			 "cosmo_dispersion_energy": -14.92, 
			 "cosmo_repulsion_energy": 1.28, 
			 "cosmo_total_nonelectrostatic_energy": 6.15, 
			 "SMD_solvation_energy": 2.41 
		},
		"coords": [
			{
				"x": 0.9317928498,
				"y": 1.0524153272,
				"z": -2.0902492033,
				"element": "C" 
			},
			{
				"x": 0.8115969417,
				"y": 0.0597922763,
				"z": -0.992375115,
				"element": "C" 
			},
			{
				"x": 0.9261958889,
				"y": -1.2873354797,
				"z": -0.8718323248,
				"element": "C" 
			},
			{
				"x": 1.2368689027,
				"y": -2.3137345353,
				"z": -1.9116483885,
				"element": "C" 
			},
			{
				"x": 0.7088618618,
				"y": -1.6638801035,
				"z": 0.4621778303,
				"element": "N" 
			},
			{
				"x": 0.4680651132,
				"y": -0.5407622823,
				"z": 1.0655994221,
				"element": "C" 
			},
			{
				"x": 0.1182927644,
				"y": -0.3446033013,
				"z": 2.3819160983,
				"element": "N" 
			},
			{
				"x": 0.5078277383,
				"y": 0.5603987883,
				"z": 0.2785081405,
				"element": "O" 
			},
			{
				"x": -0.0005734958,
				"y": 1.6107927222,
				"z": -2.238691248,
				"element": "H" 
			},
			{
				"x": 1.1704328397,
				"y": 0.5417647747,
				"z": -3.0263526199,
				"element": "H" 
			},
			{
				"x": 1.7250238447,
				"y": 1.7842846685,
				"z": -1.8937882851,
				"element": "H" 
			},
			{
				"x": 2.1412132619,
				"y": -2.8732835696,
				"z": -1.6476961939,
				"element": "H" 
			},
			{
				"x": 1.3906242952,
				"y": -1.8582257345,
				"z": -2.8935852175,
				"element": "H" 
			},
			{
				"x": 0.421776941,
				"y": -3.0412235813,
				"z": -1.9953431176,
				"element": "H" 
			},
			{
				"x": 0.3481099758,
				"y": -1.1357973649,
				"z": 2.966887445,
				"element": "H" 
			},
			{
				"x": 0.4042902767,
				"y": 0.5445973951,
				"z": 2.7685727773,
				"element": "H" 
			}
		],
		 "valence_orbital": [ 
			{
				"type": "occ",
				"energy": -0.36255,
				"method": "rhf"
			},
			{
				"type": "occ",
				"energy": -0.32146,
				"method": "rhf"
			},
			{
				"type": "occ",
				"energy": -0.28004,
				"method": "rhf"
			},
			{
				"type": "occ",
				"energy": -0.26952,
				"method": "rhf"
			},
			{
				"type": "occ",
				"energy": -0.19366,
				"method": "rhf"
			},
			{
				"type": "unocc",
				"energy": 0.03629,
				"method": "rhf"
			},
			{
				"type": "unocc",
				"energy": 0.0748,
				"method": "rhf"
			},
			{
				"type": "unocc",
				"energy": 0.08828,
				"method": "rhf"
			},
			{
				"type": "unocc",
				"energy": 0.1001,
				"method": "rhf"
			},
			{
				"type": "unocc",
				"energy": 0.1306,
				"method": "rhf"
			}
		],
		"cosmo_sigma_profile": { 
			"-0.025": 0.0,
			"-0.024": 0.0,
			"-0.023": 0.0,
			"-0.022": 0.0,
			"-0.021": 0.0,
			"-0.02": 0.0,
			"-0.019": 0.0,
			"-0.018": 0.0,
			"-0.017": 0.0,
			"-0.016": 0.0,
			"-0.015": 0.0,
			"-0.014": 1.58067155127,
			"-0.013": 2.48976827592,
			"-0.012": 2.58547608339,
			"-0.011": 1.82194074834,
			"-0.01": 2.39968601915,
			"-0.009": 2.25145704747,
			"-0.008": 1.76401365617,
			"-0.007": 1.6636616395,
			"-0.006": 2.59487217043,
			"-0.005": 6.37652096412,
			"-0.004": 11.2686350313,
			"-0.003": 11.9351035656,
			"-0.002": 13.5617099994,
			"-0.001": 16.5453694178,
			"0.0": 14.9399757562,
			"0.001": 9.69234872824,
			"0.002": 8.24076637348,
			"0.003": 6.23282006873,
			"0.004": 8.79500380236,
			"0.005": 4.78948066948,
			"0.006": 4.29363609724,
			"0.007": 4.30021096976,
			"0.008": 3.44627179807,
			"0.009": 1.52171032001,
			"0.01": 1.79417912953,
			"0.011": 2.42398662741,
			"0.012": 1.39035052072,
			"0.013": 1.20602411696,
			"0.014": 1.01781540832,
			"0.015": 0.782592467754,
			"0.016": 1.13139275996,
			"0.017": 0.967567802683,
			"0.018": 0.270492776169,
			"0.019": 0.0,
			"0.02": 0.0,
			"0.021": 0.0,
			"0.022": 0.0,
			"0.023": 0.0,
			"0.024": 0.0,
			"0.025": 0.0
		}
	}
}
