{
	 "smiles": "OC(=O)CC1=CC=C(C=C1)N1C=NN=N1", 
	 "Tm": 445.15, 
	 "num_atms": 23, 
	 "gaussian": { 
		 "optdone": 1, 
		 "sigma_profile": "yes", 
		 "theory": "DFT", 
		 "functional": "B3LYP", 
		 "basiset": "6-31G**", 
		 "properties": { 
			 "R2extent": 4432.0195, 
			 "electric_dipole_moment_norm": 3.56972795742, 
			 "electric_quadrupole_moment_norm": 43.7219213541, 
			 "total_energy": -717.179390035, 
			 "HOMO_LUMO_gap": 0.19643, 
			 "cosmo_polarized_energy": -24.62, 
			 "cosmo_cavitation_energy": 28.83, 
			 "cosmo_dispersion_energy": -20.72, 
			 "cosmo_repulsion_energy": 1.6, 
			 "cosmo_total_nonelectrostatic_energy": 9.71, 
			 "SMD_solvation_energy": 4.75 
		},
		"coords": [
			{
				"x": -2.6220249347,
				"y": -2.0742316231,
				"z": -1.2464291696,
				"element": "O" 
			},
			{
				"x": -2.387448247,
				"y": -2.8544533955,
				"z": -0.166556177,
				"element": "C" 
			},
			{
				"x": -2.6516875077,
				"y": -4.0292128616,
				"z": -0.1804139987,
				"element": "O" 
			},
			{
				"x": -1.821174,
				"y": -2.1525285245,
				"z": 1.0820946464,
				"element": "C" 
			},
			{
				"x": -1.0199872102,
				"y": -0.8970482796,
				"z": 0.8252162586,
				"element": "C" 
			},
			{
				"x": 0.3412831234,
				"y": -0.9717978707,
				"z": 0.492585959,
				"element": "C" 
			},
			{
				"x": 1.0799741239,
				"y": 0.1754590694,
				"z": 0.2185502722,
				"element": "C" 
			},
			{
				"x": 0.4598504374,
				"y": 1.4269887443,
				"z": 0.2895579829,
				"element": "C" 
			},
			{
				"x": -0.893770354,
				"y": 1.530700522,
				"z": 0.6167588517,
				"element": "C" 
			},
			{
				"x": -1.6211900587,
				"y": 0.3704737921,
				"z": 0.8763526009,
				"element": "C" 
			},
			{
				"x": 1.2062232368,
				"y": 2.608093957,
				"z": 0.0302776204,
				"element": "N" 
			},
			{
				"x": 2.5286507212,
				"y": 2.8710203225,
				"z": 0.1633776012,
				"element": "C" 
			},
			{
				"x": 2.7574928036,
				"y": 4.1169666499,
				"z": -0.1870127447,
				"element": "N" 
			},
			{
				"x": 1.5440055853,
				"y": 4.6279349563,
				"z": -0.5422892075,
				"element": "N" 
			},
			{
				"x": 0.6098036518,
				"y": 3.7476685384,
				"z": -0.418640562,
				"element": "N" 
			},
			{
				"x": -2.3098347835,
				"y": -1.1709726035,
				"z": -1.0796919546,
				"element": "H" 
			},
			{
				"x": -1.2305286423,
				"y": -2.9050566011,
				"z": 1.6094634217,
				"element": "H" 
			},
			{
				"x": -2.6832965975,
				"y": -1.9272454446,
				"z": 1.7217230187,
				"element": "H" 
			},
			{
				"x": 0.8276677082,
				"y": -1.9415870376,
				"z": 0.4369657194,
				"element": "H" 
			},
			{
				"x": 2.1237975101,
				"y": 0.0928829523,
				"z": -0.0655079616,
				"element": "H" 
			},
			{
				"x": -1.3578551319,
				"y": 2.5082441211,
				"z": 0.6686938051,
				"element": "H" 
			},
			{
				"x": -2.6705585321,
				"y": 0.4569468412,
				"z": 1.1467065629,
				"element": "H" 
			},
			{
				"x": 3.2601070979,
				"y": 2.1653537753,
				"z": 0.5243174547,
				"element": "H" 
			}
		],
		 "valence_orbital": [ 
			{
				"type": "occ",
				"energy": -0.31108,
				"method": "rhf"
			},
			{
				"type": "occ",
				"energy": -0.29917,
				"method": "rhf"
			},
			{
				"type": "occ",
				"energy": -0.29756,
				"method": "rhf"
			},
			{
				"type": "occ",
				"energy": -0.28984,
				"method": "rhf"
			},
			{
				"type": "occ",
				"energy": -0.26536,
				"method": "rhf"
			},
			{
				"type": "unocc",
				"energy": -0.06893,
				"method": "rhf"
			},
			{
				"type": "unocc",
				"energy": -0.05164,
				"method": "rhf"
			},
			{
				"type": "unocc",
				"energy": -0.01045,
				"method": "rhf"
			},
			{
				"type": "unocc",
				"energy": 0.00201,
				"method": "rhf"
			},
			{
				"type": "unocc",
				"energy": 0.00931,
				"method": "rhf"
			}
		],
		"cosmo_sigma_profile": { 
			"-0.025": 0.0,
			"-0.024": 0.0,
			"-0.023": 0.0,
			"-0.022": 0.0,
			"-0.021": 0.0,
			"-0.02": 0.0,
			"-0.019": 0.0,
			"-0.018": 0.0,
			"-0.017": 0.0,
			"-0.016": 0.0,
			"-0.015": 0.169549082882,
			"-0.014": 0.570040622812,
			"-0.013": 1.05035591202,
			"-0.012": 4.42910309068,
			"-0.011": 4.17131742953,
			"-0.01": 3.77759811375,
			"-0.009": 4.809166739,
			"-0.008": 10.1909587035,
			"-0.007": 16.7505239133,
			"-0.006": 14.0760261555,
			"-0.005": 13.9634561267,
			"-0.004": 13.5406085709,
			"-0.003": 13.144149932,
			"-0.002": 10.42278699,
			"-0.001": 10.5903515265,
			"0.0": 10.3386676454,
			"0.001": 12.6630044785,
			"0.002": 11.1245280913,
			"0.003": 6.34334428931,
			"0.004": 5.20660646645,
			"0.005": 4.71424915669,
			"0.006": 5.32607717971,
			"0.007": 6.70579855456,
			"0.008": 8.3767297093,
			"0.009": 7.22350972719,
			"0.01": 9.90058935944,
			"0.011": 7.45522627017,
			"0.012": 9.10760513928,
			"0.013": 4.15339752614,
			"0.014": 1.2356455156,
			"0.015": 0.390878684636,
			"0.016": 0.0,
			"0.017": 0.0,
			"0.018": 0.0,
			"0.019": 0.0,
			"0.02": 0.0,
			"0.021": 0.0,
			"0.022": 0.0,
			"0.023": 0.0,
			"0.024": 0.0,
			"0.025": 0.0
		}
	}
}
