{
	 "smiles": "ClS(=O)(=O)C1=C2C=CC=NC2=CC=C1", 
	 "Tm": 395.15, 
	 "num_atms": 20, 
	 "gaussian": { 
		 "optdone": 1, 
		 "sigma_profile": "yes", 
		 "theory": "DFT", 
		 "functional": "B3LYP", 
		 "basiset": "6-31G**", 
		 "properties": { 
			 "R2extent": 3554.5241, 
			 "electric_dipole_moment_norm": 3.5605864208, 
			 "electric_quadrupole_moment_norm": 15.607040716, 
			 "total_energy": -1410.08525126, 
			 "HOMO_LUMO_gap": 0.16691, 
			 "cosmo_polarized_energy": -9.58, 
			 "cosmo_cavitation_energy": 27.45, 
			 "cosmo_dispersion_energy": -20.91, 
			 "cosmo_repulsion_energy": 1.57, 
			 "cosmo_total_nonelectrostatic_energy": 8.11, 
			 "SMD_solvation_energy": 1.89 
		},
		"coords": [
			{
				"x": 3.0964874542,
				"y": 1.1821036431,
				"z": 1.387664786,
				"element": "Cl" 
			},
			{
				"x": 2.110563259,
				"y": -0.6998488204,
				"z": 1.6334281957,
				"element": "S" 
			},
			{
				"x": 2.9533895416,
				"y": -1.6822000562,
				"z": 0.9596894545,
				"element": "O" 
			},
			{
				"x": 1.7971891234,
				"y": -0.8126025057,
				"z": 3.0520778453,
				"element": "O" 
			},
			{
				"x": 0.5965742931,
				"y": -0.4306393468,
				"z": 0.7098702984,
				"element": "C" 
			},
			{
				"x": 0.5792912922,
				"y": -0.3814300494,
				"z": -0.718045301,
				"element": "C" 
			},
			{
				"x": 1.7037716799,
				"y": -0.5192164285,
				"z": -1.5755812821,
				"element": "C" 
			},
			{
				"x": 1.5181601099,
				"y": -0.4359525537,
				"z": -2.9352247193,
				"element": "C" 
			},
			{
				"x": 0.2157739867,
				"y": -0.2219116313,
				"z": -3.4472162789,
				"element": "C" 
			},
			{
				"x": -0.855556089,
				"y": -0.0937562068,
				"z": -2.6921734768,
				"element": "N" 
			},
			{
				"x": -0.6961258617,
				"y": -0.1676417742,
				"z": -1.3401835519,
				"element": "C" 
			},
			{
				"x": -1.8613480751,
				"y": -0.0235859453,
				"z": -0.538968512,
				"element": "C" 
			},
			{
				"x": -1.7899411775,
				"y": -0.0800431106,
				"z": 0.8328663175,
				"element": "C" 
			},
			{
				"x": -0.544899521,
				"y": -0.278485039,
				"z": 1.4699927589,
				"element": "C" 
			},
			{
				"x": 2.6886391438,
				"y": -0.6979744844,
				"z": -1.1640720207,
				"element": "H" 
			},
			{
				"x": 2.356769459,
				"y": -0.5366903389,
				"z": -3.6163992238,
				"element": "H" 
			},
			{
				"x": 0.0610655312,
				"y": -0.1570867558,
				"z": -4.5232628881,
				"element": "H" 
			},
			{
				"x": -2.8007351325,
				"y": 0.1333866328,
				"z": -1.0583779136,
				"element": "H" 
			},
			{
				"x": -2.6835685409,
				"y": 0.0298493639,
				"z": 1.4383594926,
				"element": "H" 
			},
			{
				"x": -0.4778004763,
				"y": -0.3164745927,
				"z": 2.5508560191,
				"element": "H" 
			}
		],
		 "valence_orbital": [ 
			{
				"type": "occ",
				"energy": -0.32383,
				"method": "rhf"
			},
			{
				"type": "occ",
				"energy": -0.3166,
				"method": "rhf"
			},
			{
				"type": "occ",
				"energy": -0.28125,
				"method": "rhf"
			},
			{
				"type": "occ",
				"energy": -0.27746,
				"method": "rhf"
			},
			{
				"type": "occ",
				"energy": -0.26761,
				"method": "rhf"
			},
			{
				"type": "unocc",
				"energy": -0.1007,
				"method": "rhf"
			},
			{
				"type": "unocc",
				"energy": -0.07265,
				"method": "rhf"
			},
			{
				"type": "unocc",
				"energy": -0.04508,
				"method": "rhf"
			},
			{
				"type": "unocc",
				"energy": -0.01924,
				"method": "rhf"
			},
			{
				"type": "unocc",
				"energy": 0.04773,
				"method": "rhf"
			}
		],
		"cosmo_sigma_profile": { 
			"-0.025": 0.0,
			"-0.024": 0.0,
			"-0.023": 0.0,
			"-0.022": 0.0,
			"-0.021": 0.0,
			"-0.02": 0.0,
			"-0.019": 0.0,
			"-0.018": 0.0,
			"-0.017": 0.0,
			"-0.016": 0.0,
			"-0.015": 0.0,
			"-0.014": 0.0,
			"-0.013": 0.0,
			"-0.012": 0.0,
			"-0.011": 0.0,
			"-0.01": 0.0,
			"-0.009": 0.508533861377,
			"-0.008": 6.51857795255,
			"-0.007": 12.9136078112,
			"-0.006": 12.5919711506,
			"-0.005": 9.93995231259,
			"-0.004": 10.178352602,
			"-0.003": 11.5458465585,
			"-0.002": 14.0005568744,
			"-0.001": 25.7713167199,
			"0.0": 26.1913749102,
			"0.001": 21.5188094153,
			"0.002": 13.6862579466,
			"0.003": 15.1174060637,
			"0.004": 9.57873541848,
			"0.005": 4.85427428902,
			"0.006": 4.64310665064,
			"0.007": 7.60969888499,
			"0.008": 9.11087574104,
			"0.009": 3.59692445668,
			"0.01": 1.21781882584,
			"0.011": 0.908688763388,
			"0.012": 0.932498090417,
			"0.013": 0.693165665093,
			"0.014": 0.569561166389,
			"0.015": 0.438014908101,
			"0.016": 0.0,
			"0.017": 0.0,
			"0.018": 0.0,
			"0.019": 0.0,
			"0.02": 0.0,
			"0.021": 0.0,
			"0.022": 0.0,
			"0.023": 0.0,
			"0.024": 0.0,
			"0.025": 0.0
		}
	}
}
