{
	 "smiles": "OC(=O)CCCCCCN1C(=O)C=CC1=O", 
	 "Tm": 353.15, 
	 "num_atms": 31, 
	 "gaussian": { 
		 "optdone": 1, 
		 "sigma_profile": "yes", 
		 "theory": "DFT", 
		 "functional": "B3LYP", 
		 "basiset": "6-31G**", 
		 "properties": { 
			 "R2extent": 4562.6743, 
			 "electric_dipole_moment_norm": 5.78556995809, 
			 "electric_quadrupole_moment_norm": 30.5263418364, 
			 "total_energy": -783.884891208, 
			 "HOMO_LUMO_gap": 0.13347, 
			 "cosmo_polarized_energy": -17.42, 
			 "cosmo_cavitation_energy": 33.59, 
			 "cosmo_dispersion_energy": -23.44, 
			 "cosmo_repulsion_energy": 1.82, 
			 "cosmo_total_nonelectrostatic_energy": 11.97, 
			 "SMD_solvation_energy": 7.35 
		},
		"coords": [
			{
				"x": -1.1023201593,
				"y": 2.0606645397,
				"z": -2.813109867,
				"element": "O" 
			},
			{
				"x": -0.7944580895,
				"y": 2.8292373722,
				"z": -1.7413273784,
				"element": "C" 
			},
			{
				"x": -0.4584500969,
				"y": 3.9812901155,
				"z": -1.8852946819,
				"element": "O" 
			},
			{
				"x": -0.9302022091,
				"y": 2.1512088114,
				"z": -0.383553581,
				"element": "C" 
			},
			{
				"x": 0.1045145204,
				"y": 2.6327615999,
				"z": 0.6451908293,
				"element": "C" 
			},
			{
				"x": 0.1451388172,
				"y": 1.7564523825,
				"z": 1.9164767276,
				"element": "C" 
			},
			{
				"x": 1.1841375068,
				"y": 0.6139562888,
				"z": 1.8930853124,
				"element": "C" 
			},
			{
				"x": 1.0965314484,
				"y": -0.4044292634,
				"z": 0.7419350636,
				"element": "C" 
			},
			{
				"x": -0.1527713941,
				"y": -1.2957662153,
				"z": 0.7864531946,
				"element": "C" 
			},
			{
				"x": -0.2377757292,
				"y": -2.2033914828,
				"z": -0.3581626757,
				"element": "N" 
			},
			{
				"x": 0.1944182124,
				"y": -3.5412884259,
				"z": -0.3392643806,
				"element": "C" 
			},
			{
				"x": 0.662115114,
				"y": -4.1146822275,
				"z": 0.6203562184,
				"element": "O" 
			},
			{
				"x": -0.0528717013,
				"y": -4.0789882066,
				"z": -1.7209637485,
				"element": "C" 
			},
			{
				"x": -0.5847840817,
				"y": -3.1054586351,
				"z": -2.465891354,
				"element": "C" 
			},
			{
				"x": -0.7153663417,
				"y": -1.8724289788,
				"z": -1.6179600104,
				"element": "C" 
			},
			{
				"x": -1.1609132927,
				"y": -0.7864107413,
				"z": -1.9552357834,
				"element": "O" 
			},
			{
				"x": -1.2636693597,
				"y": 1.1398265491,
				"z": -2.5447842267,
				"element": "H" 
			},
			{
				"x": -0.885871529,
				"y": 1.0697659934,
				"z": -0.5138404019,
				"element": "H" 
			},
			{
				"x": -1.942565226,
				"y": 2.3699068045,
				"z": -0.0154247723,
				"element": "H" 
			},
			{
				"x": -0.1227809326,
				"y": 3.6712205863,
				"z": 0.902176255,
				"element": "H" 
			},
			{
				"x": 1.0987225953,
				"y": 2.6578260104,
				"z": 0.1815054128,
				"element": "H" 
			},
			{
				"x": 0.3881453018,
				"y": 2.3863745959,
				"z": 2.7803111092,
				"element": "H" 
			},
			{
				"x": -0.8580673918,
				"y": 1.3580276778,
				"z": 2.121878063,
				"element": "H" 
			},
			{
				"x": 2.1829680941,
				"y": 1.066570175,
				"z": 1.8531337049,
				"element": "H" 
			},
			{
				"x": 1.1383227631,
				"y": 0.0755088807,
				"z": 2.8496059718,
				"element": "H" 
			},
			{
				"x": 1.9770814611,
				"y": -1.0567470574,
				"z": 0.7797469266,
				"element": "H" 
			},
			{
				"x": 1.1380189585,
				"y": 0.1121729111,
				"z": -0.2235237514,
				"element": "H" 
			},
			{
				"x": -1.0706400773,
				"y": -0.7026750231,
				"z": 0.8016231313,
				"element": "H" 
			},
			{
				"x": -0.1415539107,
				"y": -1.9266625734,
				"z": 1.6793616901,
				"element": "H" 
			},
			{
				"x": 0.186102004,
				"y": -5.0994118903,
				"z": -1.9893309073,
				"element": "H" 
			},
			{
				"x": -0.8939552744,
				"y": -3.1201305732,
				"z": -3.5025720901,
				"element": "H" 
			}
		],
		 "valence_orbital": [ 
			{
				"type": "occ",
				"energy": -0.31498,
				"method": "rhf"
			},
			{
				"type": "occ",
				"energy": -0.29347,
				"method": "rhf"
			},
			{
				"type": "occ",
				"energy": -0.29209,
				"method": "rhf"
			},
			{
				"type": "occ",
				"energy": -0.29078,
				"method": "rhf"
			},
			{
				"type": "occ",
				"energy": -0.24993,
				"method": "rhf"
			},
			{
				"type": "unocc",
				"energy": -0.11646,
				"method": "rhf"
			},
			{
				"type": "unocc",
				"energy": 0.02808,
				"method": "rhf"
			},
			{
				"type": "unocc",
				"energy": 0.0338,
				"method": "rhf"
			},
			{
				"type": "unocc",
				"energy": 0.04678,
				"method": "rhf"
			},
			{
				"type": "unocc",
				"energy": 0.07203,
				"method": "rhf"
			}
		],
		"cosmo_sigma_profile": { 
			"-0.025": 0.0,
			"-0.024": 0.0,
			"-0.023": 0.0,
			"-0.022": 0.0,
			"-0.021": 0.0,
			"-0.02": 0.0,
			"-0.019": 0.0,
			"-0.018": 0.0,
			"-0.017": 0.0,
			"-0.016": 0.0,
			"-0.015": 0.0,
			"-0.014": 0.0,
			"-0.013": 0.0,
			"-0.012": 0.0,
			"-0.011": 0.0,
			"-0.01": 1.98895859847,
			"-0.009": 3.99698640292,
			"-0.008": 3.5295269045,
			"-0.007": 3.88749545133,
			"-0.006": 8.66752719282,
			"-0.005": 18.2508177974,
			"-0.004": 22.8075182309,
			"-0.003": 37.8019511509,
			"-0.002": 34.9779432142,
			"-0.001": 28.3226216777,
			"0.0": 19.9322440393,
			"0.001": 11.6103142624,
			"0.002": 6.3447249223,
			"0.003": 4.75391064945,
			"0.004": 4.28827794844,
			"0.005": 5.01891219233,
			"0.006": 4.88848766409,
			"0.007": 5.15060295188,
			"0.008": 4.99812493134,
			"0.009": 4.80550924087,
			"0.01": 7.34358202498,
			"0.011": 9.1690716848,
			"0.012": 6.75122303376,
			"0.013": 4.62083383624,
			"0.014": 0.956981086644,
			"0.015": 0.0,
			"0.016": 0.0,
			"0.017": 0.0,
			"0.018": 0.0,
			"0.019": 0.0,
			"0.02": 0.0,
			"0.021": 0.0,
			"0.022": 0.0,
			"0.023": 0.0,
			"0.024": 0.0,
			"0.025": 0.0
		}
	}
}
