{
	 "smiles": "OC(=O)CS(=O)(=O)C1=CC=CC=C1", 
	 "Tm": 386.15, 
	 "num_atms": 21, 
	 "gaussian": { 
		 "optdone": 1, 
		 "sigma_profile": "yes", 
		 "theory": "DFT", 
		 "functional": "B3LYP", 
		 "basiset": "6-31G**", 
		 "properties": { 
			 "R2extent": 3501.7882, 
			 "electric_dipole_moment_norm": 3.94574361306, 
			 "electric_quadrupole_moment_norm": 14.7858337134, 
			 "total_energy": -1008.69663012, 
			 "HOMO_LUMO_gap": 0.22498, 
			 "cosmo_polarized_energy": -17.97, 
			 "cosmo_cavitation_energy": 27.13, 
			 "cosmo_dispersion_energy": -19.84, 
			 "cosmo_repulsion_energy": 1.54, 
			 "cosmo_total_nonelectrostatic_energy": 8.83, 
			 "SMD_solvation_energy": 5.13 
		},
		"coords": [
			{
				"x": -0.6036316127,
				"y": 4.9682555387,
				"z": 1.0975902046,
				"element": "O" 
			},
			{
				"x": -1.0735900129,
				"y": 3.7950898832,
				"z": 0.6329202708,
				"element": "C" 
			},
			{
				"x": -1.6863345241,
				"y": 3.6791088583,
				"z": -0.4048928561,
				"element": "O" 
			},
			{
				"x": -0.7332601407,
				"y": 2.6550901679,
				"z": 1.5658928114,
				"element": "C" 
			},
			{
				"x": 0.5267445805,
				"y": 1.5185971884,
				"z": 0.8465217138,
				"element": "S" 
			},
			{
				"x": 0.9273384115,
				"y": 0.6447180997,
				"z": 1.9588218136,
				"element": "O" 
			},
			{
				"x": 1.5028281868,
				"y": 2.3501416027,
				"z": 0.1289247695,
				"element": "O" 
			},
			{
				"x": -0.36427579,
				"y": 0.5176366298,
				"z": -0.349371612,
				"element": "C" 
			},
			{
				"x": -0.4819632443,
				"y": 0.9638741779,
				"z": -1.6671119204,
				"element": "C" 
			},
			{
				"x": -1.1639179976,
				"y": 0.1656157851,
				"z": -2.5850983931,
				"element": "C" 
			},
			{
				"x": -1.7122257502,
				"y": -1.0549285619,
				"z": -2.1834734331,
				"element": "C" 
			},
			{
				"x": -1.5786327819,
				"y": -1.4908225144,
				"z": -0.8628245672,
				"element": "C" 
			},
			{
				"x": -0.8991410091,
				"y": -0.7036060295,
				"z": 0.066735567,
				"element": "C" 
			},
			{
				"x": -0.8320205025,
				"y": 5.6420159769,
				"z": 0.4342379556,
				"element": "H" 
			},
			{
				"x": -0.2788697347,
				"y": 3.0046017519,
				"z": 2.4941244075,
				"element": "H" 
			},
			{
				"x": -1.6210816157,
				"y": 2.0568838749,
				"z": 1.7785222015,
				"element": "H" 
			},
			{
				"x": -0.0434690289,
				"y": 1.9097799007,
				"z": -1.9610591345,
				"element": "H" 
			},
			{
				"x": -1.2645929243,
				"y": 0.4964253266,
				"z": -3.6141075234,
				"element": "H" 
			},
			{
				"x": -2.2409287664,
				"y": -1.6719102617,
				"z": -2.9041876511,
				"element": "H" 
			},
			{
				"x": -1.9954474187,
				"y": -2.4459021206,
				"z": -0.5581092313,
				"element": "H" 
			},
			{
				"x": -0.7617283242,
				"y": -1.0318652745,
				"z": 1.091344607,
				"element": "H" 
			}
		],
		 "valence_orbital": [ 
			{
				"type": "occ",
				"energy": -0.30635,
				"method": "rhf"
			},
			{
				"type": "occ",
				"energy": -0.29864,
				"method": "rhf"
			},
			{
				"type": "occ",
				"energy": -0.2904,
				"method": "rhf"
			},
			{
				"type": "occ",
				"energy": -0.27651,
				"method": "rhf"
			},
			{
				"type": "occ",
				"energy": -0.27088,
				"method": "rhf"
			},
			{
				"type": "unocc",
				"energy": -0.0459,
				"method": "rhf"
			},
			{
				"type": "unocc",
				"energy": -0.02508,
				"method": "rhf"
			},
			{
				"type": "unocc",
				"energy": -0.02004,
				"method": "rhf"
			},
			{
				"type": "unocc",
				"energy": 0.05908,
				"method": "rhf"
			},
			{
				"type": "unocc",
				"energy": 0.06772,
				"method": "rhf"
			}
		],
		"cosmo_sigma_profile": { 
			"-0.025": 0.0,
			"-0.024": 0.0,
			"-0.023": 0.0,
			"-0.022": 0.0,
			"-0.021": 0.0,
			"-0.02": 0.0,
			"-0.019": 0.538688020423,
			"-0.018": 1.16676583058,
			"-0.017": 0.968066017941,
			"-0.016": 0.694688814648,
			"-0.015": 1.03162505364,
			"-0.014": 0.313341996143,
			"-0.013": 1.01214202899,
			"-0.012": 0.583846775122,
			"-0.011": 1.52409771311,
			"-0.01": 4.03036513195,
			"-0.009": 4.54173732313,
			"-0.008": 5.03284364016,
			"-0.007": 12.0371347063,
			"-0.006": 15.9811312336,
			"-0.005": 13.5683386083,
			"-0.004": 10.7785286439,
			"-0.003": 9.24961212554,
			"-0.002": 9.42519732139,
			"-0.001": 9.76427387682,
			"0.0": 10.3430140351,
			"0.001": 13.4301782688,
			"0.002": 13.9780052809,
			"0.003": 15.9981893355,
			"0.004": 6.92698629645,
			"0.005": 4.41936248151,
			"0.006": 6.12650100062,
			"0.007": 6.42276392618,
			"0.008": 6.70636347232,
			"0.009": 5.6745250113,
			"0.01": 10.4861550043,
			"0.011": 11.7177078325,
			"0.012": 2.15244987891,
			"0.013": 0.0,
			"0.014": 0.0,
			"0.015": 0.0,
			"0.016": 0.0,
			"0.017": 0.0,
			"0.018": 0.0,
			"0.019": 0.0,
			"0.02": 0.0,
			"0.021": 0.0,
			"0.022": 0.0,
			"0.023": 0.0,
			"0.024": 0.0,
			"0.025": 0.0
		}
	}
}
