{
	 "smiles": "COC1=CC=C(C=C1)C1=C(C(=NO1)C(=O)C1=CC=CO1)S(=O)(=O)C1=CC=CC=C1", 
	 "Tm": 423.15, 
	 "num_atms": 44, 
	 "gaussian": { 
		 "optdone": 1, 
		 "sigma_profile": "yes", 
		 "theory": "DFT", 
		 "functional": "B3LYP", 
		 "basiset": "6-31G**", 
		 "properties": { 
			 "R2extent": 13329.3348, 
			 "electric_dipole_moment_norm": 3.92713209353, 
			 "electric_quadrupole_moment_norm": 36.1364043512, 
			 "total_energy": -1713.38640841, 
			 "HOMO_LUMO_gap": 0.15872, 
			 "cosmo_polarized_energy": -20.72, 
			 "cosmo_cavitation_energy": 51.35, 
			 "cosmo_dispersion_energy": -35.23, 
			 "cosmo_repulsion_energy": 2.6, 
			 "cosmo_total_nonelectrostatic_energy": 18.73, 
			 "SMD_solvation_energy": 9.92 
		},
		"coords": [
			{
				"x": -3.2152376954,
				"y": 3.7723571349,
				"z": 4.6034255041,
				"element": "C" 
			},
			{
				"x": -2.675282157,
				"y": 3.97353799,
				"z": 3.303807855,
				"element": "O" 
			},
			{
				"x": -1.9993430971,
				"y": 2.9532590623,
				"z": 2.7156834624,
				"element": "C" 
			},
			{
				"x": -1.7989772108,
				"y": 1.6915242053,
				"z": 3.294320015,
				"element": "C" 
			},
			{
				"x": -1.0885912348,
				"y": 0.7200653767,
				"z": 2.5963304685,
				"element": "C" 
			},
			{
				"x": -0.5710142838,
				"y": 0.9743676079,
				"z": 1.3138500416,
				"element": "C" 
			},
			{
				"x": -0.7726211899,
				"y": 2.2494169347,
				"z": 0.7470694072,
				"element": "C" 
			},
			{
				"x": -1.4770611847,
				"y": 3.2206525049,
				"z": 1.4399280837,
				"element": "C" 
			},
			{
				"x": 0.1777886401,
				"y": -0.0847035342,
				"z": 0.6389767149,
				"element": "C" 
			},
			{
				"x": 0.4522636471,
				"y": -0.4758753458,
				"z": -0.6616882998,
				"element": "C" 
			},
			{
				"x": 1.2165163143,
				"y": -1.6772093072,
				"z": -0.5186357969,
				"element": "C" 
			},
			{
				"x": 1.4063986096,
				"y": -1.985815356,
				"z": 0.7387852142,
				"element": "N" 
			},
			{
				"x": 0.7548140899,
				"y": -0.9851176647,
				"z": 1.4670493788,
				"element": "O" 
			},
			{
				"x": 1.6958064498,
				"y": -2.6510223036,
				"z": -1.5777233098,
				"element": "C" 
			},
			{
				"x": 0.8945815985,
				"y": -3.3956744263,
				"z": -2.126273841,
				"element": "O" 
			},
			{
				"x": 3.1179293718,
				"y": -2.6957857476,
				"z": -1.8655912621,
				"element": "C" 
			},
			{
				"x": 3.8424300969,
				"y": -3.4916334174,
				"z": -2.7209047861,
				"element": "C" 
			},
			{
				"x": 5.196025807,
				"y": -3.0778935235,
				"z": -2.6040357044,
				"element": "C" 
			},
			{
				"x": 5.2010351257,
				"y": -2.058685176,
				"z": -1.6885383216,
				"element": "C" 
			},
			{
				"x": 3.9550929361,
				"y": -1.8144159874,
				"z": -1.2301965972,
				"element": "O" 
			},
			{
				"x": 0.0036112521,
				"y": 0.2048547677,
				"z": -2.244624451,
				"element": "S" 
			},
			{
				"x": -0.0069972225,
				"y": 1.6749494433,
				"z": -2.1621024951,
				"element": "O" 
			},
			{
				"x": 0.8784681628,
				"y": -0.4732638991,
				"z": -3.2111673428,
				"element": "O" 
			},
			{
				"x": -1.6896061972,
				"y": -0.3380942797,
				"z": -2.5084884098,
				"element": "C" 
			},
			{
				"x": -2.7077485033,
				"y": 0.6161386633,
				"z": -2.5156258577,
				"element": "C" 
			},
			{
				"x": -4.0193205416,
				"y": 0.1977123388,
				"z": -2.7461212431,
				"element": "C" 
			},
			{
				"x": -4.2946554891,
				"y": -1.1539862215,
				"z": -2.9607591573,
				"element": "C" 
			},
			{
				"x": -3.2619205691,
				"y": -2.0963518778,
				"z": -2.9494536914,
				"element": "C" 
			},
			{
				"x": -1.945307143,
				"y": -1.6956170678,
				"z": -2.7262549822,
				"element": "C" 
			},
			{
				"x": -3.7006439992,
				"y": 4.710730893,
				"z": 4.8742543378,
				"element": "H" 
			},
			{
				"x": -3.9585427706,
				"y": 2.9655158766,
				"z": 4.6104621724,
				"element": "H" 
			},
			{
				"x": -2.429893691,
				"y": 3.5466656103,
				"z": 5.3352963561,
				"element": "H" 
			},
			{
				"x": -2.190807669,
				"y": 1.4570705103,
				"z": 4.2765257068,
				"element": "H" 
			},
			{
				"x": -0.9391172311,
				"y": -0.2540179391,
				"z": 3.0485987565,
				"element": "H" 
			},
			{
				"x": -0.3623776854,
				"y": 2.4751821433,
				"z": -0.2290358454,
				"element": "H" 
			},
			{
				"x": -1.6297201485,
				"y": 4.207359925,
				"z": 1.0156360813,
				"element": "H" 
			},
			{
				"x": 3.431714035,
				"y": -4.268195296,
				"z": -3.3487036904,
				"element": "H" 
			},
			{
				"x": 6.0541313727,
				"y": -3.4751040038,
				"z": -3.1262669986,
				"element": "H" 
			},
			{
				"x": 5.9839739911,
				"y": -1.4375807664,
				"z": -1.2804679022,
				"element": "H" 
			},
			{
				"x": -2.4660389913,
				"y": 1.6604712342,
				"z": -2.3543550221,
				"element": "H" 
			},
			{
				"x": -4.8226384133,
				"y": 0.9281115981,
				"z": -2.759267075,
				"element": "H" 
			},
			{
				"x": -5.3168748672,
				"y": -1.4753377334,
				"z": -3.1386973344,
				"element": "H" 
			},
			{
				"x": -3.4803222342,
				"y": -3.1464334999,
				"z": -3.118215296,
				"element": "H" 
			},
			{
				"x": -1.1357200804,
				"y": -2.4196294466,
				"z": -2.7106048427,
				"element": "H" 
			}
		],
		 "valence_orbital": [ 
			{
				"type": "occ",
				"energy": -0.26625,
				"method": "rhf"
			},
			{
				"type": "occ",
				"energy": -0.26563,
				"method": "rhf"
			},
			{
				"type": "occ",
				"energy": -0.26271,
				"method": "rhf"
			},
			{
				"type": "occ",
				"energy": -0.24518,
				"method": "rhf"
			},
			{
				"type": "occ",
				"energy": -0.22646,
				"method": "rhf"
			},
			{
				"type": "unocc",
				"energy": -0.06774,
				"method": "rhf"
			},
			{
				"type": "unocc",
				"energy": -0.05636,
				"method": "rhf"
			},
			{
				"type": "unocc",
				"energy": -0.03428,
				"method": "rhf"
			},
			{
				"type": "unocc",
				"energy": -0.01618,
				"method": "rhf"
			},
			{
				"type": "unocc",
				"energy": -0.01222,
				"method": "rhf"
			}
		],
		"cosmo_sigma_profile": { 
			"-0.025": 0.0,
			"-0.024": 0.0,
			"-0.023": 0.0,
			"-0.022": 0.0,
			"-0.021": 0.0,
			"-0.02": 0.0,
			"-0.019": 0.0,
			"-0.018": 0.0,
			"-0.017": 0.0,
			"-0.016": 0.0,
			"-0.015": 0.0,
			"-0.014": 0.0,
			"-0.013": 0.0,
			"-0.012": 0.0,
			"-0.011": 0.611269941032,
			"-0.01": 2.17488454564,
			"-0.009": 3.3836106184,
			"-0.008": 5.44377838736,
			"-0.007": 15.9079711151,
			"-0.006": 27.7572516019,
			"-0.005": 28.0226344248,
			"-0.004": 26.1872973489,
			"-0.003": 28.0872291155,
			"-0.002": 28.5798377362,
			"-0.001": 28.7479856389,
			"0.0": 32.0232238255,
			"0.001": 33.703036776,
			"0.002": 38.6345538089,
			"0.003": 34.3609525308,
			"0.004": 15.0399969517,
			"0.005": 11.8251413693,
			"0.006": 9.13116595849,
			"0.007": 8.8682611773,
			"0.008": 9.51611862915,
			"0.009": 8.60832084709,
			"0.01": 9.2285505049,
			"0.011": 7.7624331641,
			"0.012": 1.38937927859,
			"0.013": 0.025269165332,
			"0.014": 0.0,
			"0.015": 0.0,
			"0.016": 0.0,
			"0.017": 0.0,
			"0.018": 0.0,
			"0.019": 0.0,
			"0.02": 0.0,
			"0.021": 0.0,
			"0.022": 0.0,
			"0.023": 0.0,
			"0.024": 0.0,
			"0.025": 0.0
		}
	}
}
