{
	 "smiles": "OCC1=C(C=CC=C1)C(O)=O", 
	 "Tm": 393.15, 
	 "num_atms": 19, 
	 "gaussian": { 
		 "optdone": 1, 
		 "sigma_profile": "yes", 
		 "theory": "DFT", 
		 "functional": "B3LYP", 
		 "basiset": "6-31G**", 
		 "properties": { 
			 "R2extent": 2171.1419, 
			 "electric_dipole_moment_norm": 4.9090870088, 
			 "electric_quadrupole_moment_norm": 13.4629358611, 
			 "total_energy": -535.340730737, 
			 "HOMO_LUMO_gap": 0.20676, 
			 "cosmo_polarized_energy": -16.33, 
			 "cosmo_cavitation_energy": 22.91, 
			 "cosmo_dispersion_energy": -17.13, 
			 "cosmo_repulsion_energy": 1.38, 
			 "cosmo_total_nonelectrostatic_energy": 7.16, 
			 "SMD_solvation_energy": 4.98 
		},
		"coords": [
			{
				"x": 2.5719356746,
				"y": -0.5773524181,
				"z": -0.5751962646,
				"element": "O" 
			},
			{
				"x": 1.4305699248,
				"y": -1.2905419848,
				"z": -0.1194837328,
				"element": "C" 
			},
			{
				"x": 0.5742560056,
				"y": -0.4887114813,
				"z": 0.8545153437,
				"element": "C" 
			},
			{
				"x": -0.7394226672,
				"y": -0.8683038403,
				"z": 1.2145887377,
				"element": "C" 
			},
			{
				"x": -1.4592725131,
				"y": -0.0957505593,
				"z": 2.141048298,
				"element": "C" 
			},
			{
				"x": -0.9069827822,
				"y": 1.0508942785,
				"z": 2.7056460066,
				"element": "C" 
			},
			{
				"x": 0.3815676695,
				"y": 1.4366733694,
				"z": 2.3381028094,
				"element": "C" 
			},
			{
				"x": 1.1077131597,
				"y": 0.671972958,
				"z": 1.4249112861,
				"element": "C" 
			},
			{
				"x": -1.3482454514,
				"y": -2.1156041282,
				"z": 0.6514868151,
				"element": "C" 
			},
			{
				"x": -2.7062159217,
				"y": -2.1362598958,
				"z": 0.5544558256,
				"element": "O" 
			},
			{
				"x": -0.7110710686,
				"y": -3.080613707,
				"z": 0.2936972145,
				"element": "O" 
			},
			{
				"x": 2.2675565897,
				"y": 0.113795559,
				"z": -1.177857468,
				"element": "H" 
			},
			{
				"x": 1.8094907333,
				"y": -2.1846069962,
				"z": 0.3837164288,
				"element": "H" 
			},
			{
				"x": 0.8219196169,
				"y": -1.655630423,
				"z": -0.9551489975,
				"element": "H" 
			},
			{
				"x": -2.4475388772,
				"y": -0.4170453614,
				"z": 2.4610939057,
				"element": "H" 
			},
			{
				"x": -1.4731912258,
				"y": 1.6288598689,
				"z": 3.4294269474,
				"element": "H" 
			},
			{
				"x": 0.8278772061,
				"y": 2.3280879981,
				"z": 2.7696952614,
				"element": "H" 
			},
			{
				"x": 2.1147949018,
				"y": 0.9597870674,
				"z": 1.1440972662,
				"element": "H" 
			},
			{
				"x": -3.0616409747,
				"y": -1.2519503039,
				"z": 0.7197043169,
				"element": "H" 
			}
		],
		 "valence_orbital": [ 
			{
				"type": "occ",
				"energy": -0.31848,
				"method": "rhf"
			},
			{
				"type": "occ",
				"energy": -0.28765,
				"method": "rhf"
			},
			{
				"type": "occ",
				"energy": -0.27522,
				"method": "rhf"
			},
			{
				"type": "occ",
				"energy": -0.26873,
				"method": "rhf"
			},
			{
				"type": "occ",
				"energy": -0.25816,
				"method": "rhf"
			},
			{
				"type": "unocc",
				"energy": -0.0514,
				"method": "rhf"
			},
			{
				"type": "unocc",
				"energy": -0.02087,
				"method": "rhf"
			},
			{
				"type": "unocc",
				"energy": 0.04177,
				"method": "rhf"
			},
			{
				"type": "unocc",
				"energy": 0.06501,
				"method": "rhf"
			},
			{
				"type": "unocc",
				"energy": 0.07637,
				"method": "rhf"
			}
		],
		"cosmo_sigma_profile": { 
			"-0.025": 0.0,
			"-0.024": 0.0,
			"-0.023": 0.0,
			"-0.022": 0.0,
			"-0.021": 0.0,
			"-0.02": 0.0,
			"-0.019": 0.0,
			"-0.018": 0.725127068123,
			"-0.017": 0.854227267288,
			"-0.016": 1.95577952866,
			"-0.015": 1.62944036603,
			"-0.014": 1.94962248246,
			"-0.013": 1.35198218503,
			"-0.012": 2.18401679131,
			"-0.011": 2.10636189854,
			"-0.01": 1.90922711259,
			"-0.009": 2.17713772981,
			"-0.008": 2.83526930534,
			"-0.007": 4.42654981033,
			"-0.006": 8.49304543212,
			"-0.005": 12.8923497583,
			"-0.004": 12.5198003627,
			"-0.003": 9.38882918856,
			"-0.002": 10.3933399595,
			"-0.001": 9.96172745972,
			"0.0": 8.85154476941,
			"0.001": 10.216066642,
			"0.002": 11.5879484123,
			"0.003": 12.1168495729,
			"0.004": 11.1970378505,
			"0.005": 3.92746094478,
			"0.006": 4.22010046286,
			"0.007": 2.98068703261,
			"0.008": 3.69992113209,
			"0.009": 4.74745259323,
			"0.01": 5.4107351812,
			"0.011": 5.82551105255,
			"0.012": 5.00509094076,
			"0.013": 3.1529078655,
			"0.014": 1.43343458599,
			"0.015": 0.0,
			"0.016": 0.0,
			"0.017": 0.0,
			"0.018": 0.0,
			"0.019": 0.0,
			"0.02": 0.0,
			"0.021": 0.0,
			"0.022": 0.0,
			"0.023": 0.0,
			"0.024": 0.0,
			"0.025": 0.0
		}
	}
}
