{
	 "smiles": "CC1=CC=C(C=C1)S(=O)(=O)NC(=O)NC1C(O)C2(C)CCC1C2(C)C", 
	 "Tm": 465.15, 
	 "num_atms": 51, 
	 "gaussian": { 
		 "optdone": 1, 
		 "sigma_profile": "yes", 
		 "theory": "DFT", 
		 "functional": "B3LYP", 
		 "basiset": "6-31G**", 
		 "properties": { 
			 "R2extent": 11175.5528, 
			 "electric_dipole_moment_norm": 3.11364565742, 
			 "electric_quadrupole_moment_norm": 32.6584859629, 
			 "total_energy": -1510.12108305, 
			 "HOMO_LUMO_gap": 0.20564, 
			 "cosmo_polarized_energy": -19.71, 
			 "cosmo_cavitation_energy": 50.15, 
			 "cosmo_dispersion_energy": -34.23, 
			 "cosmo_repulsion_energy": 2.52, 
			 "cosmo_total_nonelectrostatic_energy": 18.44, 
			 "SMD_solvation_energy": 7.98 
		},
		"coords": [
			{
				"x": 4.5077238076,
				"y": 4.8071738068,
				"z": -2.2804452678,
				"element": "C" 
			},
			{
				"x": 3.2033849865,
				"y": 4.0553801081,
				"z": -2.3876535118,
				"element": "C" 
			},
			{
				"x": 3.1236757764,
				"y": 2.7037380459,
				"z": -2.0201830466,
				"element": "C" 
			},
			{
				"x": 1.9203856995,
				"y": 2.006472315,
				"z": -2.0885575888,
				"element": "C" 
			},
			{
				"x": 0.775728602,
				"y": 2.6750448949,
				"z": -2.5296813963,
				"element": "C" 
			},
			{
				"x": 0.8251260405,
				"y": 4.017286213,
				"z": -2.9096907426,
				"element": "C" 
			},
			{
				"x": 2.0401646779,
				"y": 4.6953715511,
				"z": -2.8381431756,
				"element": "C" 
			},
			{
				"x": -0.7872451092,
				"y": 1.8046153612,
				"z": -2.6098138872,
				"element": "S" 
			},
			{
				"x": -1.711981317,
				"y": 2.5948830033,
				"z": -3.4224608017,
				"element": "O" 
			},
			{
				"x": -0.508700602,
				"y": 0.3989824303,
				"z": -2.8989875016,
				"element": "O" 
			},
			{
				"x": -1.4587660477,
				"y": 1.8927675108,
				"z": -1.0337143491,
				"element": "N" 
			},
			{
				"x": -0.7634435308,
				"y": 1.5301046992,
				"z": 0.1720594293,
				"element": "C" 
			},
			{
				"x": -0.5476275636,
				"y": 2.3839113346,
				"z": 1.0172895731,
				"element": "O" 
			},
			{
				"x": -0.3879634241,
				"y": 0.2216870502,
				"z": 0.2987376844,
				"element": "N" 
			},
			{
				"x": -1.105323683,
				"y": -0.9300363596,
				"z": -0.2504804122,
				"element": "C" 
			},
			{
				"x": -1.8711978768,
				"y": -1.7638581964,
				"z": 0.8476580748,
				"element": "C" 
			},
			{
				"x": -1.5795920224,
				"y": -1.2290952057,
				"z": 2.1348559876,
				"element": "O" 
			},
			{
				"x": -1.3737789196,
				"y": -3.2254654879,
				"z": 0.6015814558,
				"element": "C" 
			},
			{
				"x": -1.6721953484,
				"y": -4.1775106537,
				"z": 1.7530980938,
				"element": "C" 
			},
			{
				"x": -2.0267728029,
				"y": -3.633371218,
				"z": -0.7512727944,
				"element": "C" 
			},
			{
				"x": -1.224397687,
				"y": -2.821183529,
				"z": -1.8158316015,
				"element": "C" 
			},
			{
				"x": -0.2323168812,
				"y": -2.0097186068,
				"z": -0.9468087034,
				"element": "C" 
			},
			{
				"x": 0.131119162,
				"y": -3.0247960908,
				"z": 0.1813492336,
				"element": "C" 
			},
			{
				"x": 1.0616914082,
				"y": -2.479299885,
				"z": 1.2851275561,
				"element": "C" 
			},
			{
				"x": 0.8141850488,
				"y": -4.3036187765,
				"z": -0.3472008881,
				"element": "C" 
			},
			{
				"x": 5.3636755456,
				"y": 4.153791177,
				"z": -2.4730534032,
				"element": "H" 
			},
			{
				"x": 4.6354208361,
				"y": 5.2229396341,
				"z": -1.2732900113,
				"element": "H" 
			},
			{
				"x": 4.5486673236,
				"y": 5.6417443422,
				"z": -2.9859498038,
				"element": "H" 
			},
			{
				"x": 4.0183452045,
				"y": 2.1881344121,
				"z": -1.6816279996,
				"element": "H" 
			},
			{
				"x": 1.868111741,
				"y": 0.9590730898,
				"z": -1.8139898677,
				"element": "H" 
			},
			{
				"x": -0.0706587082,
				"y": 4.5087031761,
				"z": -3.2731984781,
				"element": "H" 
			},
			{
				"x": 2.0863661867,
				"y": 5.7376005411,
				"z": -3.1421425148,
				"element": "H" 
			},
			{
				"x": -1.8250777754,
				"y": 2.8341907902,
				"z": -0.907761803,
				"element": "H" 
			},
			{
				"x": -0.0015518163,
				"y": 0.0817152461,
				"z": 1.2239281192,
				"element": "H" 
			},
			{
				"x": -1.8140066396,
				"y": -0.5266416249,
				"z": -0.9701286645,
				"element": "H" 
			},
			{
				"x": -2.9566447117,
				"y": -1.7077291461,
				"z": 0.678862859,
				"element": "H" 
			},
			{
				"x": -2.0958729957,
				"y": -1.717972524,
				"z": 2.7870535827,
				"element": "H" 
			},
			{
				"x": -1.3149072779,
				"y": -5.1885692208,
				"z": 1.5325936123,
				"element": "H" 
			},
			{
				"x": -2.7515635857,
				"y": -4.2516012032,
				"z": 1.9385741636,
				"element": "H" 
			},
			{
				"x": -1.1899897785,
				"y": -3.854599325,
				"z": 2.6822819004,
				"element": "H" 
			},
			{
				"x": -3.097553532,
				"y": -3.4002579852,
				"z": -0.7625588963,
				"element": "H" 
			},
			{
				"x": -1.9422223279,
				"y": -4.7123719677,
				"z": -0.9119504864,
				"element": "H" 
			},
			{
				"x": -1.8545935395,
				"y": -2.1636486941,
				"z": -2.4199025983,
				"element": "H" 
			},
			{
				"x": -0.6986212305,
				"y": -3.4782898303,
				"z": -2.5126629249,
				"element": "H" 
			},
			{
				"x": 0.6018909407,
				"y": -1.5820658494,
				"z": -1.5049599328,
				"element": "H" 
			},
			{
				"x": 0.6174035247,
				"y": -1.6910139244,
				"z": 1.8891565129,
				"element": "H" 
			},
			{
				"x": 1.3331216166,
				"y": -3.2835332788,
				"z": 1.9787210908,
				"element": "H" 
			},
			{
				"x": 1.9941256946,
				"y": -2.1084068271,
				"z": 0.8445312445,
				"element": "H" 
			},
			{
				"x": 0.9492009068,
				"y": -5.028448596,
				"z": 0.4632712936,
				"element": "H" 
			},
			{
				"x": 1.8123862986,
				"y": -4.0611732761,
				"z": -0.7296440632,
				"element": "H" 
			},
			{
				"x": 0.2712657056,
				"y": -4.8058334506,
				"z": -1.1489843512,
				"element": "H" 
			}
		],
		 "valence_orbital": [ 
			{
				"type": "occ",
				"energy": -0.27004,
				"method": "rhf"
			},
			{
				"type": "occ",
				"energy": -0.26924,
				"method": "rhf"
			},
			{
				"type": "occ",
				"energy": -0.26418,
				"method": "rhf"
			},
			{
				"type": "occ",
				"energy": -0.25758,
				"method": "rhf"
			},
			{
				"type": "occ",
				"energy": -0.24568,
				"method": "rhf"
			},
			{
				"type": "unocc",
				"energy": -0.04004,
				"method": "rhf"
			},
			{
				"type": "unocc",
				"energy": -0.02088,
				"method": "rhf"
			},
			{
				"type": "unocc",
				"energy": 0.01101,
				"method": "rhf"
			},
			{
				"type": "unocc",
				"energy": 0.0537,
				"method": "rhf"
			},
			{
				"type": "unocc",
				"energy": 0.06713,
				"method": "rhf"
			}
		],
		"cosmo_sigma_profile": { 
			"-0.025": 0.0,
			"-0.024": 0.0,
			"-0.023": 0.0,
			"-0.022": 0.0,
			"-0.021": 0.0,
			"-0.02": 0.0,
			"-0.019": 0.0,
			"-0.018": 0.0,
			"-0.017": 0.0,
			"-0.016": 0.286819761867,
			"-0.015": 1.18764656202,
			"-0.014": 1.44690950112,
			"-0.013": 2.37392765551,
			"-0.012": 1.66884573649,
			"-0.011": 1.37011624823,
			"-0.01": 1.58796791096,
			"-0.009": 2.28575911218,
			"-0.008": 2.87448379502,
			"-0.007": 5.92902655853,
			"-0.006": 12.2271514677,
			"-0.005": 16.267061768,
			"-0.004": 23.3907280841,
			"-0.003": 31.654220931,
			"-0.002": 44.1025381577,
			"-0.001": 47.098810899,
			"0.0": 42.8396821094,
			"0.001": 39.7049152665,
			"0.002": 29.6833967048,
			"0.003": 19.4478029082,
			"0.004": 7.35162115053,
			"0.005": 7.53064614219,
			"0.006": 6.49238611385,
			"0.007": 5.60323031887,
			"0.008": 6.53629092619,
			"0.009": 6.4482083265,
			"0.01": 8.70143951963,
			"0.011": 6.75745831869,
			"0.012": 4.75759722471,
			"0.013": 4.04292580784,
			"0.014": 0.103179073619,
			"0.015": 0.0,
			"0.016": 0.0,
			"0.017": 0.0,
			"0.018": 0.0,
			"0.019": 0.0,
			"0.02": 0.0,
			"0.021": 0.0,
			"0.022": 0.0,
			"0.023": 0.0,
			"0.024": 0.0,
			"0.025": 0.0
		}
	}
}
