{
	 "smiles": "OC(=O)C=CC1=CC(Cl)=C(Br)C=C1", 
	 "Tm": 453.15, 
	 "num_atms": 19, 
	 "gaussian": { 
		 "optdone": 1, 
		 "sigma_profile": "yes", 
		 "theory": "DFT", 
		 "functional": "B3LYP", 
		 "basiset": "6-31G**", 
		 "properties": { 
			 "R2extent": 6444.4599, 
			 "electric_dipole_moment_norm": 3.10593874054, 
			 "electric_quadrupole_moment_norm": 16.7986464249, 
			 "total_energy": -3528.5993879, 
			 "HOMO_LUMO_gap": 0.17215, 
			 "cosmo_polarized_energy": -13.95, 
			 "cosmo_cavitation_energy": 28.16, 
			 "cosmo_dispersion_energy": -20.9, 
			 "cosmo_repulsion_energy": 1.66, 
			 "cosmo_total_nonelectrostatic_energy": 8.92, 
			 "SMD_solvation_energy": 4.63 
		},
		"coords": [
			{
				"x": 0.5579459816,
				"y": 1.2916866638,
				"z": -2.1196760019,
				"element": "O" 
			},
			{
				"x": 1.8286572704,
				"y": 1.0708338216,
				"z": -1.6941490008,
				"element": "C" 
			},
			{
				"x": 2.7603578836,
				"y": 1.2850318545,
				"z": -2.4340400268,
				"element": "O" 
			},
			{
				"x": 2.0432800073,
				"y": 0.6076268014,
				"z": -0.2904119386,
				"element": "C" 
			},
			{
				"x": 1.249438792,
				"y": -0.1038753165,
				"z": 0.532787335,
				"element": "C" 
			},
			{
				"x": -0.0741668039,
				"y": -0.7139837557,
				"z": 0.299241842,
				"element": "C" 
			},
			{
				"x": -0.973213737,
				"y": -0.7805148555,
				"z": 1.3767597452,
				"element": "C" 
			},
			{
				"x": -2.2325646392,
				"y": -1.3599444944,
				"z": 1.2348465638,
				"element": "C" 
			},
			{
				"x": -3.2955912861,
				"y": -1.3841085788,
				"z": 2.6182727496,
				"element": "Cl" 
			},
			{
				"x": -2.6129637195,
				"y": -1.9099655027,
				"z": 0.002454793,
				"element": "C" 
			},
			{
				"x": -4.3068789367,
				"y": -2.7216622493,
				"z": -0.2543525008,
				"element": "Br" 
			},
			{
				"x": -1.7157743432,
				"y": -1.8734516351,
				"z": -1.0675988421,
				"element": "C" 
			},
			{
				"x": -0.4620678506,
				"y": -1.2875767238,
				"z": -0.9257745297,
				"element": "C" 
			},
			{
				"x": -0.0748224128,
				"y": 1.1243822803,
				"z": -1.405590935,
				"element": "H" 
			},
			{
				"x": 3.0248971636,
				"y": 0.8954243508,
				"z": 0.0736622201,
				"element": "H" 
			},
			{
				"x": 1.6354273718,
				"y": -0.2650521994,
				"z": 1.5386554329,
				"element": "H" 
			},
			{
				"x": -0.6952351922,
				"y": -0.3681806349,
				"z": 2.3411070863,
				"element": "H" 
			},
			{
				"x": -2.0046233168,
				"y": -2.3190203152,
				"z": -2.0124972619,
				"element": "H" 
			},
			{
				"x": 0.2229977676,
				"y": -1.3009495111,
				"z": -1.7654967302,
				"element": "H" 
			}
		],
		 "valence_orbital": [ 
			{
				"type": "occ",
				"energy": -0.30464,
				"method": "rhf"
			},
			{
				"type": "occ",
				"energy": -0.30162,
				"method": "rhf"
			},
			{
				"type": "occ",
				"energy": -0.28267,
				"method": "rhf"
			},
			{
				"type": "occ",
				"energy": -0.27544,
				"method": "rhf"
			},
			{
				"type": "occ",
				"energy": -0.25582,
				"method": "rhf"
			},
			{
				"type": "unocc",
				"energy": -0.08367,
				"method": "rhf"
			},
			{
				"type": "unocc",
				"energy": -0.04476,
				"method": "rhf"
			},
			{
				"type": "unocc",
				"energy": -0.02592,
				"method": "rhf"
			},
			{
				"type": "unocc",
				"energy": -0.0182,
				"method": "rhf"
			},
			{
				"type": "unocc",
				"energy": 0.03737,
				"method": "rhf"
			}
		],
		"cosmo_sigma_profile": { 
			"-0.025": 0.0,
			"-0.024": 0.0,
			"-0.023": 0.0,
			"-0.022": 0.0,
			"-0.021": 0.0,
			"-0.02": 0.0,
			"-0.019": 0.0,
			"-0.018": 0.0,
			"-0.017": 0.0,
			"-0.016": 0.355467492456,
			"-0.015": 0.841264611172,
			"-0.014": 0.910638209844,
			"-0.013": 0.664797234577,
			"-0.012": 0.633721990987,
			"-0.011": 1.09857762179,
			"-0.01": 0.937108998305,
			"-0.009": 2.66153440351,
			"-0.008": 9.17855281275,
			"-0.007": 11.7940958528,
			"-0.006": 9.17519662996,
			"-0.005": 9.64160892878,
			"-0.004": 10.6955147093,
			"-0.003": 10.9010893032,
			"-0.002": 14.3351213682,
			"-0.001": 18.4173425803,
			"0.0": 25.5741375079,
			"0.001": 22.5268025629,
			"0.002": 15.1982774963,
			"0.003": 17.2798053239,
			"0.004": 15.8262489697,
			"0.005": 5.7634722655,
			"0.006": 1.88449435862,
			"0.007": 2.1949739087,
			"0.008": 2.78537349607,
			"0.009": 3.11807835891,
			"0.01": 4.57718310148,
			"0.011": 5.56793996483,
			"0.012": 5.35212650934,
			"0.013": 1.94360622063,
			"0.014": 0.0286712542972,
			"0.015": 0.0,
			"0.016": 0.0,
			"0.017": 0.0,
			"0.018": 0.0,
			"0.019": 0.0,
			"0.02": 0.0,
			"0.021": 0.0,
			"0.022": 0.0,
			"0.023": 0.0,
			"0.024": 0.0,
			"0.025": 0.0
		}
	}
}
