{
	 "smiles": "CC1=CC(=C(C)C(=C1)S(C)(=O)=O)S(Cl)(=O)=O", 
	 "Tm": 396.15, 
	 "num_atms": 27, 
	 "gaussian": { 
		 "optdone": 1, 
		 "sigma_profile": "yes", 
		 "theory": "DFT", 
		 "functional": "B3LYP", 
		 "basiset": "6-31G**", 
		 "properties": { 
			 "R2extent": 5943.406, 
			 "electric_dipole_moment_norm": 7.43236342155, 
			 "electric_quadrupole_moment_norm": 10.566410602, 
			 "total_energy": -1906.91670904, 
			 "HOMO_LUMO_gap": 0.18267, 
			 "cosmo_polarized_energy": -20.02, 
			 "cosmo_cavitation_energy": 34.45, 
			 "cosmo_dispersion_energy": -25.56, 
			 "cosmo_repulsion_energy": 1.89, 
			 "cosmo_total_nonelectrostatic_energy": 10.79, 
			 "SMD_solvation_energy": 4.43 
		},
		"coords": [
			{
				"x": -1.2683272109,
				"y": 2.1135526248,
				"z": -1.2838437353,
				"element": "C" 
			},
			{
				"x": -0.4682824156,
				"y": 0.9739838436,
				"z": -0.7014268228,
				"element": "C" 
			},
			{
				"x": -0.9962623052,
				"y": 0.1478157102,
				"z": 0.2877565951,
				"element": "C" 
			},
			{
				"x": -0.2258925607,
				"y": -0.8847166142,
				"z": 0.8313263161,
				"element": "C" 
			},
			{
				"x": 1.099398679,
				"y": -1.157091477,
				"z": 0.4486863945,
				"element": "C" 
			},
			{
				"x": 1.9508839577,
				"y": -2.2534922817,
				"z": 1.0450124231,
				"element": "C" 
			},
			{
				"x": 1.5987649171,
				"y": -0.312095906,
				"z": -0.5697839882,
				"element": "C" 
			},
			{
				"x": 0.8414682291,
				"y": 0.7183359815,
				"z": -1.1238436117,
				"element": "C" 
			},
			{
				"x": 3.2939397746,
				"y": -0.6080550854,
				"z": -1.1643867339,
				"element": "S" 
			},
			{
				"x": 3.5499353873,
				"y": 0.5412766064,
				"z": -2.5366953969,
				"element": "C" 
			},
			{
				"x": 3.3399830004,
				"y": -1.9645963801,
				"z": -1.7301986878,
				"element": "O" 
			},
			{
				"x": 4.231070935,
				"y": -0.2184438785,
				"z": -0.0986749954,
				"element": "O" 
			},
			{
				"x": -1.1054611564,
				"y": -1.89394611,
				"z": 2.0457453887,
				"element": "S" 
			},
			{
				"x": -0.1779184427,
				"y": -1.2814083645,
				"z": 3.8668931976,
				"element": "Cl" 
			},
			{
				"x": -0.7913264989,
				"y": -3.305634831,
				"z": 1.8691422234,
				"element": "O" 
			},
			{
				"x": -2.485191015,
				"y": -1.4298309034,
				"z": 2.1258953389,
				"element": "O" 
			},
			{
				"x": -1.0062437484,
				"y": 3.0628138033,
				"z": -0.8015333356,
				"element": "H" 
			},
			{
				"x": -2.3408156994,
				"y": 1.9581922884,
				"z": -1.1429644045,
				"element": "H" 
			},
			{
				"x": -1.0793390914,
				"y": 2.2276380312,
				"z": -2.3555005192,
				"element": "H" 
			},
			{
				"x": -2.0100323544,
				"y": 0.2923870216,
				"z": 0.6425697511,
				"element": "H" 
			},
			{
				"x": 2.9563068911,
				"y": -1.8766913299,
				"z": 1.2428264134,
				"element": "H" 
			},
			{
				"x": 2.0445797357,
				"y": -3.0796054146,
				"z": 0.3339320191,
				"element": "H" 
			},
			{
				"x": 1.5379174496,
				"y": -2.6462914104,
				"z": 1.9693526663,
				"element": "H" 
			},
			{
				"x": 1.2601235287,
				"y": 1.3478903501,
				"z": -1.900435279,
				"element": "H" 
			},
			{
				"x": 2.8346016259,
				"y": 0.3474741446,
				"z": -3.3363431698,
				"element": "H" 
			},
			{
				"x": 4.5594032885,
				"y": 0.3038562365,
				"z": -2.8785130646,
				"element": "H" 
			},
			{
				"x": 3.5125150995,
				"y": 1.5734833447,
				"z": -2.1879949827,
				"element": "H" 
			}
		],
		 "valence_orbital": [ 
			{
				"type": "occ",
				"energy": -0.31837,
				"method": "rhf"
			},
			{
				"type": "occ",
				"energy": -0.31504,
				"method": "rhf"
			},
			{
				"type": "occ",
				"energy": -0.30108,
				"method": "rhf"
			},
			{
				"type": "occ",
				"energy": -0.2952,
				"method": "rhf"
			},
			{
				"type": "occ",
				"energy": -0.27758,
				"method": "rhf"
			},
			{
				"type": "unocc",
				"energy": -0.09491,
				"method": "rhf"
			},
			{
				"type": "unocc",
				"energy": -0.06023,
				"method": "rhf"
			},
			{
				"type": "unocc",
				"energy": -0.05375,
				"method": "rhf"
			},
			{
				"type": "unocc",
				"energy": 0.02406,
				"method": "rhf"
			},
			{
				"type": "unocc",
				"energy": 0.04827,
				"method": "rhf"
			}
		],
		"cosmo_sigma_profile": { 
			"-0.025": 0.0,
			"-0.024": 0.0,
			"-0.023": 0.0,
			"-0.022": 0.0,
			"-0.021": 0.0,
			"-0.02": 0.0,
			"-0.019": 0.0,
			"-0.018": 0.0,
			"-0.017": 0.0,
			"-0.016": 0.0,
			"-0.015": 0.0,
			"-0.014": 0.0,
			"-0.013": 0.0,
			"-0.012": 0.0,
			"-0.011": 0.560738148637,
			"-0.01": 5.29898415694,
			"-0.009": 8.40336093189,
			"-0.008": 8.22164009622,
			"-0.007": 8.26152621583,
			"-0.006": 10.5530643069,
			"-0.005": 15.6147914703,
			"-0.004": 18.3480091573,
			"-0.003": 20.6533659913,
			"-0.002": 26.3298564069,
			"-0.001": 28.6511235092,
			"0.0": 18.6234132813,
			"0.001": 12.2390271303,
			"0.002": 12.7512543017,
			"0.003": 16.1335121364,
			"0.004": 7.59995809999,
			"0.005": 5.38557810743,
			"0.006": 6.06358557444,
			"0.007": 9.30475109111,
			"0.008": 12.3663980399,
			"0.009": 5.66961353557,
			"0.01": 5.58665949002,
			"0.011": 11.0842031791,
			"0.012": 3.39976985332,
			"0.013": 0.0,
			"0.014": 0.0,
			"0.015": 0.0,
			"0.016": 0.0,
			"0.017": 0.0,
			"0.018": 0.0,
			"0.019": 0.0,
			"0.02": 0.0,
			"0.021": 0.0,
			"0.022": 0.0,
			"0.023": 0.0,
			"0.024": 0.0,
			"0.025": 0.0
		}
	}
}
