{
	 "smiles": "BrCCC1=CC=C(CCBr)C=C1", 
	 "Tm": 346.15, 
	 "num_atms": 24, 
	 "gaussian": { 
		 "optdone": 1, 
		 "sigma_profile": "yes", 
		 "theory": "DFT", 
		 "functional": "B3LYP", 
		 "basiset": "6-31G**", 
		 "properties": { 
			 "R2extent": 7702.0869, 
			 "electric_dipole_moment_norm": 3.35959589534, 
			 "electric_quadrupole_moment_norm": 11.1626399821, 
			 "total_energy": -5531.12643319, 
			 "HOMO_LUMO_gap": 0.22366, 
			 "cosmo_polarized_energy": -8.92, 
			 "cosmo_cavitation_energy": 31.9, 
			 "cosmo_dispersion_energy": -23.22, 
			 "cosmo_repulsion_energy": 1.9, 
			 "cosmo_total_nonelectrostatic_energy": 10.57, 
			 "SMD_solvation_energy": 2.55 
		},
		"coords": [
			{
				"x": 1.6376444025,
				"y": 1.5828621496,
				"z": -2.6887650991,
				"element": "Br" 
			},
			{
				"x": -0.2773665426,
				"y": 1.2694115955,
				"z": -3.0948903804,
				"element": "C" 
			},
			{
				"x": -1.2109131013,
				"y": 1.8294016371,
				"z": -2.0207730359,
				"element": "C" 
			},
			{
				"x": -1.146698985,
				"y": 1.1126371587,
				"z": -0.6895273142,
				"element": "C" 
			},
			{
				"x": -1.840968238,
				"y": -0.0886105104,
				"z": -0.4933294819,
				"element": "C" 
			},
			{
				"x": -1.7731583187,
				"y": -0.7660093451,
				"z": 0.7228186914,
				"element": "C" 
			},
			{
				"x": -1.0123342599,
				"y": -0.2602702249,
				"z": 1.785428128,
				"element": "C" 
			},
			{
				"x": -0.9087548603,
				"y": -1.0139459758,
				"z": 3.0966673536,
				"element": "C" 
			},
			{
				"x": 0.268232777,
				"y": -1.9888998204,
				"z": 3.0589702585,
				"element": "C" 
			},
			{
				"x": 0.4349656605,
				"y": -2.9976487264,
				"z": 4.7590478284,
				"element": "Br" 
			},
			{
				"x": -0.3217676833,
				"y": 0.9425854981,
				"z": 1.5899199858,
				"element": "C" 
			},
			{
				"x": -0.3880425168,
				"y": 1.619148413,
				"z": 0.3724762116,
				"element": "C" 
			},
			{
				"x": -0.4415924993,
				"y": 1.7497910905,
				"z": -4.0592182925,
				"element": "H" 
			},
			{
				"x": -0.3737647732,
				"y": 0.1888997761,
				"z": -3.2002389379,
				"element": "H" 
			},
			{
				"x": -1.0086405272,
				"y": 2.8972867665,
				"z": -1.8918378224,
				"element": "H" 
			},
			{
				"x": -2.2283293098,
				"y": 1.7483395977,
				"z": -2.4293487838,
				"element": "H" 
			},
			{
				"x": -2.4510077119,
				"y": -0.4945110853,
				"z": -1.2975250822,
				"element": "H" 
			},
			{
				"x": -2.3288365016,
				"y": -1.6916498135,
				"z": 0.8538359636,
				"element": "H" 
			},
			{
				"x": -0.770758348,
				"y": -0.3168394637,
				"z": 3.9291476225,
				"element": "H" 
			},
			{
				"x": -1.8303566508,
				"y": -1.5712074726,
				"z": 3.2922105912,
				"element": "H" 
			},
			{
				"x": 0.1520164669,
				"y": -2.7437564443,
				"z": 2.2816968369,
				"element": "H" 
			},
			{
				"x": 1.2215253062,
				"y": -1.4776940232,
				"z": 2.9274883797,
				"element": "H" 
			},
			{
				"x": 0.2686214841,
				"y": 1.3595767644,
				"z": 2.4024499673,
				"element": "H" 
			},
			{
				"x": 0.1555847304,
				"y": 2.5507024584,
				"z": 0.2442964118,
				"element": "H" 
			}
		],
		 "valence_orbital": [ 
			{
				"type": "occ",
				"energy": -0.27321,
				"method": "rhf"
			},
			{
				"type": "occ",
				"energy": -0.27102,
				"method": "rhf"
			},
			{
				"type": "occ",
				"energy": -0.26953,
				"method": "rhf"
			},
			{
				"type": "occ",
				"energy": -0.25613,
				"method": "rhf"
			},
			{
				"type": "occ",
				"energy": -0.2461,
				"method": "rhf"
			},
			{
				"type": "unocc",
				"energy": -0.02244,
				"method": "rhf"
			},
			{
				"type": "unocc",
				"energy": -0.01054,
				"method": "rhf"
			},
			{
				"type": "unocc",
				"energy": 0.00232,
				"method": "rhf"
			},
			{
				"type": "unocc",
				"energy": 0.01822,
				"method": "rhf"
			},
			{
				"type": "unocc",
				"energy": 0.08611,
				"method": "rhf"
			}
		],
		"cosmo_sigma_profile": { 
			"-0.025": 0.0,
			"-0.024": 0.0,
			"-0.023": 0.0,
			"-0.022": 0.0,
			"-0.021": 0.0,
			"-0.02": 0.0,
			"-0.019": 0.0,
			"-0.018": 0.0,
			"-0.017": 0.0,
			"-0.016": 0.0,
			"-0.015": 0.0,
			"-0.014": 0.0,
			"-0.013": 0.0,
			"-0.012": 0.0,
			"-0.011": 0.0,
			"-0.01": 0.0,
			"-0.009": 0.0,
			"-0.008": 0.0685250281894,
			"-0.007": 3.76454586562,
			"-0.006": 12.8531107974,
			"-0.005": 30.5858860495,
			"-0.004": 26.7352052157,
			"-0.003": 22.1622820921,
			"-0.002": 17.2647663393,
			"-0.001": 16.3939393295,
			"0.0": 14.7428729359,
			"0.001": 13.6380365404,
			"0.002": 13.6172927773,
			"0.003": 13.3612332829,
			"0.004": 16.3287566037,
			"0.005": 19.4994786888,
			"0.006": 25.2909413855,
			"0.007": 11.8143439778,
			"0.008": 0.136364357299,
			"0.009": 0.0,
			"0.01": 0.0,
			"0.011": 0.0,
			"0.012": 0.0,
			"0.013": 0.0,
			"0.014": 0.0,
			"0.015": 0.0,
			"0.016": 0.0,
			"0.017": 0.0,
			"0.018": 0.0,
			"0.019": 0.0,
			"0.02": 0.0,
			"0.021": 0.0,
			"0.022": 0.0,
			"0.023": 0.0,
			"0.024": 0.0,
			"0.025": 0.0
		}
	}
}
