{
	 "smiles": "SC1=NN=C(O1)C1=CC=NC=C1", 
	 "Tm": 545.15, 
	 "num_atms": 17, 
	 "gaussian": { 
		 "optdone": 1, 
		 "sigma_profile": "yes", 
		 "theory": "DFT", 
		 "functional": "B3LYP", 
		 "basiset": "6-31G**", 
		 "properties": { 
			 "R2extent": 2980.8121, 
			 "electric_dipole_moment_norm": 3.38969378706, 
			 "electric_quadrupole_moment_norm": 11.1408008716, 
			 "total_energy": -907.37451489, 
			 "HOMO_LUMO_gap": 0.17793, 
			 "cosmo_polarized_energy": -13.21, 
			 "cosmo_cavitation_energy": 24.49, 
			 "cosmo_dispersion_energy": -18.82, 
			 "cosmo_repulsion_energy": 1.44, 
			 "cosmo_total_nonelectrostatic_energy": 7.11, 
			 "SMD_solvation_energy": 0.93 
		},
		"coords": [
			{
				"x": 0.5713125275,
				"y": 0.1222768331,
				"z": -3.3668369633,
				"element": "S" 
			},
			{
				"x": 0.5716558937,
				"y": -0.5375296321,
				"z": -1.7414146379,
				"element": "C" 
			},
			{
				"x": 1.2373449015,
				"y": -1.5720482248,
				"z": -1.3301773809,
				"element": "N" 
			},
			{
				"x": 0.9241149419,
				"y": -1.711140884,
				"z": 0.0193797351,
				"element": "N" 
			},
			{
				"x": 0.0973529885,
				"y": -0.7562491333,
				"z": 0.3200475869,
				"element": "C" 
			},
			{
				"x": -0.1779833891,
				"y": 0.0434410235,
				"z": -0.7657164165,
				"element": "O" 
			},
			{
				"x": -0.5279120094,
				"y": -0.4619587252,
				"z": 1.6028966962,
				"element": "C" 
			},
			{
				"x": -1.407172996,
				"y": 0.6155402355,
				"z": 1.7679818301,
				"element": "C" 
			},
			{
				"x": -1.9634215043,
				"y": 0.8290082527,
				"z": 3.0286898584,
				"element": "C" 
			},
			{
				"x": -1.7087774116,
				"y": 0.0648884286,
				"z": 4.0973705766,
				"element": "N" 
			},
			{
				"x": -0.8652150827,
				"y": -0.9630699742,
				"z": 3.9246927897,
				"element": "C" 
			},
			{
				"x": -0.25150986,
				"y": -1.2715432886,
				"z": 2.7139201379,
				"element": "C" 
			},
			{
				"x": -0.2838043538,
				"y": 1.1213633291,
				"z": -3.0762436448,
				"element": "H" 
			},
			{
				"x": -1.6517560389,
				"y": 1.2696545818,
				"z": 0.9385700591,
				"element": "H" 
			},
			{
				"x": -2.6497924885,
				"y": 1.6591355644,
				"z": 3.1846939224,
				"element": "H" 
			},
			{
				"x": -0.6691067316,
				"y": -1.5741046232,
				"z": 4.8034481859,
				"element": "H" 
			},
			{
				"x": 0.4244706128,
				"y": -2.1141637633,
				"z": 2.6221976652,
				"element": "H" 
			}
		],
		 "valence_orbital": [ 
			{
				"type": "occ",
				"energy": -0.30621,
				"method": "rhf"
			},
			{
				"type": "occ",
				"energy": -0.29375,
				"method": "rhf"
			},
			{
				"type": "occ",
				"energy": -0.27774,
				"method": "rhf"
			},
			{
				"type": "occ",
				"energy": -0.2671,
				"method": "rhf"
			},
			{
				"type": "occ",
				"energy": -0.25109,
				"method": "rhf"
			},
			{
				"type": "unocc",
				"energy": -0.07316,
				"method": "rhf"
			},
			{
				"type": "unocc",
				"energy": -0.02565,
				"method": "rhf"
			},
			{
				"type": "unocc",
				"energy": -0.01411,
				"method": "rhf"
			},
			{
				"type": "unocc",
				"energy": -0.00168,
				"method": "rhf"
			},
			{
				"type": "unocc",
				"energy": 0.03937,
				"method": "rhf"
			}
		],
		"cosmo_sigma_profile": { 
			"-0.025": 0.0,
			"-0.024": 0.0,
			"-0.023": 0.0,
			"-0.022": 0.0,
			"-0.021": 0.0,
			"-0.02": 0.0,
			"-0.019": 0.0,
			"-0.018": 0.0,
			"-0.017": 0.0,
			"-0.016": 0.0,
			"-0.015": 0.0,
			"-0.014": 0.367751982417,
			"-0.013": 2.31379273038,
			"-0.012": 1.48835718132,
			"-0.011": 1.69711507175,
			"-0.01": 1.24794729085,
			"-0.009": 1.56602991892,
			"-0.008": 3.15324610834,
			"-0.007": 7.84558842238,
			"-0.006": 11.6038077421,
			"-0.005": 11.1513372393,
			"-0.004": 13.2980778057,
			"-0.003": 13.0822545917,
			"-0.002": 11.9059159399,
			"-0.001": 15.2672739346,
			"0.0": 21.4365086495,
			"0.001": 22.9325438638,
			"0.002": 9.73515611816,
			"0.003": 7.61706103182,
			"0.004": 7.28628280802,
			"0.005": 5.005716175,
			"0.006": 2.84078358113,
			"0.007": 4.0180350957,
			"0.008": 3.6197154974,
			"0.009": 2.9525257817,
			"0.01": 4.10170406422,
			"0.011": 3.99747593065,
			"0.012": 3.78068088131,
			"0.013": 2.45938011071,
			"0.014": 1.88522091531,
			"0.015": 0.98089603247,
			"0.016": 0.518002795464,
			"0.017": 0.0224069450121,
			"0.018": 0.0,
			"0.019": 0.0,
			"0.02": 0.0,
			"0.021": 0.0,
			"0.022": 0.0,
			"0.023": 0.0,
			"0.024": 0.0,
			"0.025": 0.0
		}
	}
}
