{
	 "smiles": "OC(=O)C[C@@]12CC[C@H]3CC[C@@H]4C[C@@H](C=C1)[C@]234", 
	 "Tm": 400.15, 
	 "num_atms": 34, 
	 "gaussian": { 
		 "optdone": 1, 
		 "sigma_profile": "yes", 
		 "theory": "DFT", 
		 "functional": "B3LYP", 
		 "basiset": "6-31G**", 
		 "properties": { 
			 "R2extent": 3921.4899, 
			 "electric_dipole_moment_norm": 1.35720195255, 
			 "electric_quadrupole_moment_norm": 6.86145376214, 
			 "total_energy": -694.742688092, 
			 "HOMO_LUMO_gap": 0.24288, 
			 "cosmo_polarized_energy": -8.21, 
			 "cosmo_cavitation_energy": 32.33, 
			 "cosmo_dispersion_energy": -23.48, 
			 "cosmo_repulsion_energy": 1.8, 
			 "cosmo_total_nonelectrostatic_energy": 10.65, 
			 "SMD_solvation_energy": 5.33 
		},
		"coords": [
			{
				"x": 0.7684163869,
				"y": -5.1430965093,
				"z": 0.520115656,
				"element": "O" 
			},
			{
				"x": 0.5301671592,
				"y": -4.0316989615,
				"z": -0.2218632541,
				"element": "C" 
			},
			{
				"x": 0.5429444396,
				"y": -4.055355905,
				"z": -1.4343259527,
				"element": "O" 
			},
			{
				"x": 0.2800885623,
				"y": -2.8296598255,
				"z": 0.6644722302,
				"element": "C" 
			},
			{
				"x": -0.1391886101,
				"y": -1.5496918687,
				"z": -0.1200207667,
				"element": "C" 
			},
			{
				"x": 1.1124214168,
				"y": -0.9339594155,
				"z": -0.7693439784,
				"element": "C" 
			},
			{
				"x": 1.8367497603,
				"y": -0.2966931157,
				"z": 0.4665065468,
				"element": "C" 
			},
			{
				"x": 0.754899154,
				"y": -0.0424649153,
				"z": 1.5955967642,
				"element": "C" 
			},
			{
				"x": 0.6259238298,
				"y": 1.4445556692,
				"z": 1.966667583,
				"element": "C" 
			},
			{
				"x": -0.0874837147,
				"y": 2.0669828633,
				"z": 0.74859145,
				"element": "C" 
			},
			{
				"x": -1.0515558231,
				"y": 0.9730733749,
				"z": 0.2724227245,
				"element": "C" 
			},
			{
				"x": -2.3607055855,
				"y": 0.7959471849,
				"z": 1.0909248199,
				"element": "C" 
			},
			{
				"x": -2.0172718454,
				"y": -0.7024032878,
				"z": 1.2732686036,
				"element": "C" 
			},
			{
				"x": -2.4771524499,
				"y": -1.5037675798,
				"z": 0.0571722404,
				"element": "C" 
			},
			{
				"x": -1.4798388126,
				"y": -1.8586786429,
				"z": -0.7676719873,
				"element": "C" 
			},
			{
				"x": -0.5390047237,
				"y": -0.4254039105,
				"z": 0.8474952386,
				"element": "C" 
			},
			{
				"x": 0.9308478715,
				"y": -5.8591564909,
				"z": -0.1169781744,
				"element": "H" 
			},
			{
				"x": 1.1966764437,
				"y": -2.6796115023,
				"z": 1.2464978043,
				"element": "H" 
			},
			{
				"x": -0.4910639056,
				"y": -3.1110016705,
				"z": 1.389579962,
				"element": "H" 
			},
			{
				"x": 1.7368041196,
				"y": -1.6595891384,
				"z": -1.2961412234,
				"element": "H" 
			},
			{
				"x": 0.8285043455,
				"y": -0.1616472922,
				"z": -1.4912057265,
				"element": "H" 
			},
			{
				"x": 2.6203526146,
				"y": -0.9634829766,
				"z": 0.8405079483,
				"element": "H" 
			},
			{
				"x": 2.3411820295,
				"y": 0.634439357,
				"z": 0.1899918719,
				"element": "H" 
			},
			{
				"x": 0.9669963573,
				"y": -0.659220798,
				"z": 2.4754177486,
				"element": "H" 
			},
			{
				"x": 0.0099808474,
				"y": 1.5516347172,
				"z": 2.868464285,
				"element": "H" 
			},
			{
				"x": 1.5923277952,
				"y": 1.9136826142,
				"z": 2.1825869453,
				"element": "H" 
			},
			{
				"x": -0.604088378,
				"y": 3.0024698771,
				"z": 0.9915396912,
				"element": "H" 
			},
			{
				"x": 0.6415506689,
				"y": 2.3007440212,
				"z": -0.0364436104,
				"element": "H" 
			},
			{
				"x": -1.2314444537,
				"y": 0.9966854746,
				"z": -0.8043718369,
				"element": "H" 
			},
			{
				"x": -2.3330570295,
				"y": 1.3485311519,
				"z": 2.0364390995,
				"element": "H" 
			},
			{
				"x": -3.3009633794,
				"y": 1.0282834964,
				"z": 0.5802404569,
				"element": "H" 
			},
			{
				"x": -2.2699588506,
				"y": -1.1739033653,
				"z": 2.2316036037,
				"element": "H" 
			},
			{
				"x": -3.5317193125,
				"y": -1.6995167775,
				"z": -0.1246343988,
				"element": "H" 
			},
			{
				"x": -1.5923369277,
				"y": -2.4142258528,
				"z": -1.691802364,
				"element": "H" 
			}
		],
		 "valence_orbital": [ 
			{
				"type": "occ",
				"energy": -0.29756,
				"method": "rhf"
			},
			{
				"type": "occ",
				"energy": -0.28391,
				"method": "rhf"
			},
			{
				"type": "occ",
				"energy": -0.27333,
				"method": "rhf"
			},
			{
				"type": "occ",
				"energy": -0.26719,
				"method": "rhf"
			},
			{
				"type": "occ",
				"energy": -0.23508,
				"method": "rhf"
			},
			{
				"type": "unocc",
				"energy": 0.0078,
				"method": "rhf"
			},
			{
				"type": "unocc",
				"energy": 0.02261,
				"method": "rhf"
			},
			{
				"type": "unocc",
				"energy": 0.07792,
				"method": "rhf"
			},
			{
				"type": "unocc",
				"energy": 0.08044,
				"method": "rhf"
			},
			{
				"type": "unocc",
				"energy": 0.08598,
				"method": "rhf"
			}
		],
		"cosmo_sigma_profile": { 
			"-0.025": 0.0,
			"-0.024": 0.0,
			"-0.023": 0.0,
			"-0.022": 0.0,
			"-0.021": 0.0,
			"-0.02": 0.0,
			"-0.019": 0.0,
			"-0.018": 0.339957405991,
			"-0.017": 1.13944250671,
			"-0.016": 0.719646578706,
			"-0.015": 0.559216750158,
			"-0.014": 0.970562602079,
			"-0.013": 0.740188331054,
			"-0.012": 0.692257064597,
			"-0.011": 0.563676456071,
			"-0.01": 0.797882327633,
			"-0.009": 0.763779586186,
			"-0.008": 0.551194697331,
			"-0.007": 0.685459485342,
			"-0.006": 1.22820563078,
			"-0.005": 6.50634912098,
			"-0.004": 8.96914070209,
			"-0.003": 16.8196967113,
			"-0.002": 39.7904297762,
			"-0.001": 38.5872278475,
			"0.0": 33.048283474,
			"0.001": 34.6274988892,
			"0.002": 22.3154791272,
			"0.003": 6.63162472073,
			"0.004": 5.72680636709,
			"0.005": 5.14183731396,
			"0.006": 3.1933796548,
			"0.007": 2.86282217171,
			"0.008": 3.29852958121,
			"0.009": 3.51645684679,
			"0.01": 2.65450135922,
			"0.011": 2.87572200614,
			"0.012": 3.78975215485,
			"0.013": 0.243385151408,
			"0.014": 0.0,
			"0.015": 0.0,
			"0.016": 0.0,
			"0.017": 0.0,
			"0.018": 0.0,
			"0.019": 0.0,
			"0.02": 0.0,
			"0.021": 0.0,
			"0.022": 0.0,
			"0.023": 0.0,
			"0.024": 0.0,
			"0.025": 0.0
		}
	}
}
