{
	 "smiles": "NC1=CC2=C(NC(=O)S2)C=C1", 
	 "Tm": 495.15, 
	 "num_atms": 17, 
	 "gaussian": { 
		 "optdone": 1, 
		 "sigma_profile": "yes", 
		 "theory": "DFT", 
		 "functional": "B3LYP", 
		 "basiset": "6-31G**", 
		 "properties": { 
			 "R2extent": 3752.6913, 
			 "electric_dipole_moment_norm": 5.26243652123, 
			 "electric_quadrupole_moment_norm": 23.9464593078, 
			 "total_energy": -853.299546297, 
			 "HOMO_LUMO_gap": 0.18295, 
			 "cosmo_polarized_energy": -15.58, 
			 "cosmo_cavitation_energy": 23.01, 
			 "cosmo_dispersion_energy": -18.0, 
			 "cosmo_repulsion_energy": 1.39, 
			 "cosmo_total_nonelectrostatic_energy": 6.4, 
			 "SMD_solvation_energy": 4.26 
		},
		"coords": [
			{
				"x": 0.0258176867,
				"y": 2.7440466696,
				"z": 0.9138573333,
				"element": "N" 
			},
			{
				"x": -0.5629054147,
				"y": 1.653353761,
				"z": 0.2636068123,
				"element": "C" 
			},
			{
				"x": -1.936677345,
				"y": 1.6609986372,
				"z": -0.0349228005,
				"element": "C" 
			},
			{
				"x": -2.4878325251,
				"y": 0.5948787636,
				"z": -0.7370857055,
				"element": "C" 
			},
			{
				"x": -1.6944668047,
				"y": -0.4884778317,
				"z": -1.1504718012,
				"element": "C" 
			},
			{
				"x": -2.4300658403,
				"y": -1.4581206192,
				"z": -1.8357003346,
				"element": "N" 
			},
			{
				"x": -3.7777930847,
				"y": -1.2349385833,
				"z": -2.0089120242,
				"element": "C" 
			},
			{
				"x": -4.5708379309,
				"y": -1.9542038909,
				"z": -2.5716207716,
				"element": "O" 
			},
			{
				"x": -4.1716692101,
				"y": 0.3704693794,
				"z": -1.22565105,
				"element": "S" 
			},
			{
				"x": -0.3332316557,
				"y": -0.5043230632,
				"z": -0.8583229943,
				"element": "C" 
			},
			{
				"x": 0.2228417227,
				"y": 0.5630513378,
				"z": -0.155263573,
				"element": "C" 
			},
			{
				"x": 0.8799851388,
				"y": 2.5288553255,
				"z": 1.4102381441,
				"element": "H" 
			},
			{
				"x": -0.6052168053,
				"y": 3.2871367302,
				"z": 1.487646139,
				"element": "H" 
			},
			{
				"x": -2.5573741574,
				"y": 2.4963677285,
				"z": 0.275813838,
				"element": "H" 
			},
			{
				"x": -2.03249564,
				"y": -2.3070583744,
				"z": -2.2120800241,
				"element": "H" 
			},
			{
				"x": 0.2908435014,
				"y": -1.3367657831,
				"z": -1.1700952166,
				"element": "H" 
			},
			{
				"x": 1.2858783642,
				"y": 0.5568298131,
				"z": 0.069064029,
				"element": "H" 
			}
		],
		 "valence_orbital": [ 
			{
				"type": "occ",
				"energy": -0.3099,
				"method": "rhf"
			},
			{
				"type": "occ",
				"energy": -0.27952,
				"method": "rhf"
			},
			{
				"type": "occ",
				"energy": -0.26945,
				"method": "rhf"
			},
			{
				"type": "occ",
				"energy": -0.23428,
				"method": "rhf"
			},
			{
				"type": "occ",
				"energy": -0.19746,
				"method": "rhf"
			},
			{
				"type": "unocc",
				"energy": -0.01451,
				"method": "rhf"
			},
			{
				"type": "unocc",
				"energy": 0.00453,
				"method": "rhf"
			},
			{
				"type": "unocc",
				"energy": 0.00838,
				"method": "rhf"
			},
			{
				"type": "unocc",
				"energy": 0.038,
				"method": "rhf"
			},
			{
				"type": "unocc",
				"energy": 0.07058,
				"method": "rhf"
			}
		],
		"cosmo_sigma_profile": { 
			"-0.025": 0.0,
			"-0.024": 0.0,
			"-0.023": 0.0,
			"-0.022": 0.0,
			"-0.021": 0.0,
			"-0.02": 0.0,
			"-0.019": 0.0,
			"-0.018": 0.0,
			"-0.017": 0.0828214478952,
			"-0.016": 1.55355068103,
			"-0.015": 1.0405267537,
			"-0.014": 1.2086135718,
			"-0.013": 1.47262481965,
			"-0.012": 4.03465929343,
			"-0.011": 3.88912348966,
			"-0.01": 4.49221045528,
			"-0.009": 4.45448267999,
			"-0.008": 4.13642856109,
			"-0.007": 8.63407072063,
			"-0.006": 7.85642138881,
			"-0.005": 6.00989662402,
			"-0.004": 7.39862286903,
			"-0.003": 5.22502504074,
			"-0.002": 5.96837479841,
			"-0.001": 10.338739562,
			"0.0": 12.0591892434,
			"0.001": 12.1969550257,
			"0.002": 13.9266681667,
			"0.003": 14.645681845,
			"0.004": 13.2985598226,
			"0.005": 14.3635067296,
			"0.006": 4.61333722259,
			"0.007": 2.26781784355,
			"0.008": 1.73287655437,
			"0.009": 2.27858804851,
			"0.01": 3.35334235541,
			"0.011": 3.25689649566,
			"0.012": 7.07728800307,
			"0.013": 2.2283318755,
			"0.014": 0.74824002605,
			"0.015": 0.398290295161,
			"0.016": 0.0,
			"0.017": 0.0,
			"0.018": 0.0,
			"0.019": 0.0,
			"0.02": 0.0,
			"0.021": 0.0,
			"0.022": 0.0,
			"0.023": 0.0,
			"0.024": 0.0,
			"0.025": 0.0
		}
	}
}
