{
	 "smiles": "CCCCCCCO", 
	 "Tm": 238.55, 
	 "num_atms": 24, 
	 "gaussian": { 
		 "optdone": 1, 
		 "sigma_profile": "yes", 
		 "theory": "DFT", 
		 "functional": "B3LYP", 
		 "basiset": "6-31G**", 
		 "properties": { 
			 "R2extent": 2111.4987, 
			 "electric_dipole_moment_norm": 1.66491272444, 
			 "electric_quadrupole_moment_norm": 9.84847712796, 
			 "total_energy": -351.613242072, 
			 "HOMO_LUMO_gap": 0.33913, 
			 "cosmo_polarized_energy": -5.83, 
			 "cosmo_cavitation_energy": 24.68, 
			 "cosmo_dispersion_energy": -17.8, 
			 "cosmo_repulsion_energy": 1.52, 
			 "cosmo_total_nonelectrostatic_energy": 8.4, 
			 "SMD_solvation_energy": 3.67 
		},
		"coords": [
			{
				"x": 1.8331949142,
				"y": 1.6003193054,
				"z": -0.2073742829,
				"element": "C" 
			},
			{
				"x": 1.5360932839,
				"y": 0.1092330108,
				"z": -0.0108748731,
				"element": "C" 
			},
			{
				"x": 0.0570812871,
				"y": -0.2480197376,
				"z": 0.2241557666,
				"element": "C" 
			},
			{
				"x": -0.8893708706,
				"y": 0.0740559258,
				"z": -0.9571654828,
				"element": "C" 
			},
			{
				"x": -1.5939252889,
				"y": 1.4503480066,
				"z": -0.9151972762,
				"element": "C" 
			},
			{
				"x": -2.9656732296,
				"y": 1.4600708682,
				"z": -0.2163972651,
				"element": "C" 
			},
			{
				"x": -2.9521770903,
				"y": 1.1411471525,
				"z": 1.2803846712,
				"element": "C" 
			},
			{
				"x": -4.2523900497,
				"y": 1.1843464065,
				"z": 1.8559586709,
				"element": "O" 
			},
			{
				"x": 2.909225389,
				"y": 1.7728444298,
				"z": -0.3166977903,
				"element": "H" 
			},
			{
				"x": 1.4892275295,
				"y": 2.1912862384,
				"z": 0.6496615554,
				"element": "H" 
			},
			{
				"x": 1.3464136317,
				"y": 1.9996496512,
				"z": -1.1031118815,
				"element": "H" 
			},
			{
				"x": 2.1203014812,
				"y": -0.2586853851,
				"z": 0.8427093819,
				"element": "H" 
			},
			{
				"x": 1.8980031476,
				"y": -0.4481089419,
				"z": -0.8860770384,
				"element": "H" 
			},
			{
				"x": 0.0061003,
				"y": -1.3229483319,
				"z": 0.4383112841,
				"element": "H" 
			},
			{
				"x": -0.2914552842,
				"y": 0.2545440886,
				"z": 1.1355897516,
				"element": "H" 
			},
			{
				"x": -0.3135671834,
				"y": -0.0057260646,
				"z": -1.8885997341,
				"element": "H" 
			},
			{
				"x": -1.6615556791,
				"y": -0.703240318,
				"z": -1.0272774707,
				"element": "H" 
			},
			{
				"x": -0.939061632,
				"y": 2.1930956234,
				"z": -0.4427855439,
				"element": "H" 
			},
			{
				"x": -1.7495345189,
				"y": 1.8012909846,
				"z": -1.9427379517,
				"element": "H" 
			},
			{
				"x": -3.6402521115,
				"y": 0.750256225,
				"z": -0.7124191843,
				"element": "H" 
			},
			{
				"x": -3.4160573795,
				"y": 2.4557644932,
				"z": -0.3474818735,
				"element": "H" 
			},
			{
				"x": -2.5924985595,
				"y": 0.1230479797,
				"z": 1.4573539533,
				"element": "H" 
			},
			{
				"x": -2.2601248203,
				"y": 1.8232858533,
				"z": 1.8037257628,
				"element": "H" 
			},
			{
				"x": -4.601297267,
				"y": 2.075042536,
				"z": 1.7206468504,
				"element": "H" 
			}
		],
		 "valence_orbital": [ 
			{
				"type": "occ",
				"energy": -0.32043,
				"method": "rhf"
			},
			{
				"type": "occ",
				"energy": -0.31442,
				"method": "rhf"
			},
			{
				"type": "occ",
				"energy": -0.30745,
				"method": "rhf"
			},
			{
				"type": "occ",
				"energy": -0.30447,
				"method": "rhf"
			},
			{
				"type": "occ",
				"energy": -0.25947,
				"method": "rhf"
			},
			{
				"type": "unocc",
				"energy": 0.07966,
				"method": "rhf"
			},
			{
				"type": "unocc",
				"energy": 0.08434,
				"method": "rhf"
			},
			{
				"type": "unocc",
				"energy": 0.10919,
				"method": "rhf"
			},
			{
				"type": "unocc",
				"energy": 0.11287,
				"method": "rhf"
			},
			{
				"type": "unocc",
				"energy": 0.11987,
				"method": "rhf"
			}
		],
		"cosmo_sigma_profile": { 
			"-0.025": 0.0,
			"-0.024": 0.0,
			"-0.023": 0.0,
			"-0.022": 0.0,
			"-0.021": 0.0,
			"-0.02": 0.0,
			"-0.019": 0.0,
			"-0.018": 0.0,
			"-0.017": 0.0,
			"-0.016": 0.0,
			"-0.015": 0.444279908252,
			"-0.014": 0.874205113834,
			"-0.013": 1.01275599465,
			"-0.012": 1.41220094564,
			"-0.011": 0.501027685364,
			"-0.01": 0.598941166312,
			"-0.009": 1.214303624,
			"-0.008": 0.944383912578,
			"-0.007": 0.786803940129,
			"-0.006": 1.35915595027,
			"-0.005": 1.29139693752,
			"-0.004": 1.35459711693,
			"-0.003": 6.61800895173,
			"-0.002": 30.9845088935,
			"-0.001": 42.651292353,
			"0.0": 38.0302770811,
			"0.001": 28.5842177534,
			"0.002": 10.9973427172,
			"0.003": 2.06663313319,
			"0.004": 1.2387968668,
			"0.005": 1.4027473052,
			"0.006": 0.975340366177,
			"0.007": 1.39954521514,
			"0.008": 1.35661372112,
			"0.009": 1.38867189086,
			"0.01": 0.956734059954,
			"0.011": 1.28575869596,
			"0.012": 1.24092798781,
			"0.013": 1.7896053494,
			"0.014": 1.86956225292,
			"0.015": 2.14988468032,
			"0.016": 0.0451544266534,
			"0.017": 0.0,
			"0.018": 0.0,
			"0.019": 0.0,
			"0.02": 0.0,
			"0.021": 0.0,
			"0.022": 0.0,
			"0.023": 0.0,
			"0.024": 0.0,
			"0.025": 0.0
		}
	}
}
