{
	 "smiles": "NC1=CC(=NO1)C1CCC1", 
	 "Tm": 351.15, 
	 "num_atms": 20, 
	 "gaussian": { 
		 "optdone": 1, 
		 "sigma_profile": "yes", 
		 "theory": "DFT", 
		 "functional": "B3LYP", 
		 "basiset": "6-31G**", 
		 "properties": { 
			 "R2extent": 2026.6209, 
			 "electric_dipole_moment_norm": 3.51485110495, 
			 "electric_quadrupole_moment_norm": 12.9656070475, 
			 "total_energy": -457.422984579, 
			 "HOMO_LUMO_gap": 0.23184, 
			 "cosmo_polarized_energy": -12.17, 
			 "cosmo_cavitation_energy": 23.13, 
			 "cosmo_dispersion_energy": -17.31, 
			 "cosmo_repulsion_energy": 1.44, 
			 "cosmo_total_nonelectrostatic_energy": 7.27, 
			 "SMD_solvation_energy": 3.77 
		},
		"coords": [
			{
				"x": -2.7110755051,
				"y": -2.3739405974,
				"z": -2.1379329597,
				"element": "N" 
			},
			{
				"x": -1.9705468197,
				"y": -1.5837424927,
				"z": -1.2902468645,
				"element": "C" 
			},
			{
				"x": -2.2885360998,
				"y": -0.5681780604,
				"z": -0.4280537343,
				"element": "C" 
			},
			{
				"x": -1.0406280111,
				"y": -0.2495894843,
				"z": 0.1846719365,
				"element": "C" 
			},
			{
				"x": -0.0564010709,
				"y": -0.9991300264,
				"z": -0.2637585615,
				"element": "N" 
			},
			{
				"x": -0.6585881345,
				"y": -1.8637697875,
				"z": -1.2202859569,
				"element": "O" 
			},
			{
				"x": -0.8009784366,
				"y": 0.7797869641,
				"z": 1.249706637,
				"element": "C" 
			},
			{
				"x": -1.1623347138,
				"y": 0.2836483516,
				"z": 2.6932267502,
				"element": "C" 
			},
			{
				"x": 0.34709823,
				"y": 0.0469233509,
				"z": 2.9597752323,
				"element": "C" 
			},
			{
				"x": 0.676310578,
				"y": 0.9239505958,
				"z": 1.7222656181,
				"element": "C" 
			},
			{
				"x": -3.5665021953,
				"y": -1.9562930742,
				"z": -2.4744718587,
				"element": "H" 
			},
			{
				"x": -2.171719808,
				"y": -2.8235224277,
				"z": -2.8658849325,
				"element": "H" 
			},
			{
				"x": -3.2534923619,
				"y": -0.1196248084,
				"z": -0.2503056231,
				"element": "H" 
			},
			{
				"x": -1.2978147546,
				"y": 1.7092524281,
				"z": 0.9504312778,
				"element": "H" 
			},
			{
				"x": -1.5701132608,
				"y": 1.0979179931,
				"z": 3.3001174299,
				"element": "H" 
			},
			{
				"x": -1.8329897229,
				"y": -0.577295152,
				"z": 2.7648743293,
				"element": "H" 
			},
			{
				"x": 0.6306882599,
				"y": -0.9962667532,
				"z": 2.797937977,
				"element": "H" 
			},
			{
				"x": 0.739406157,
				"y": 0.3718381159,
				"z": 3.9277219431,
				"element": "H" 
			},
			{
				"x": 0.9021294846,
				"y": 1.9590769437,
				"z": 1.9950212913,
				"element": "H" 
			},
			{
				"x": 1.4424881855,
				"y": 0.5565579209,
				"z": 1.0376900687,
				"element": "H" 
			}
		],
		 "valence_orbital": [ 
			{
				"type": "occ",
				"energy": -0.30993,
				"method": "rhf"
			},
			{
				"type": "occ",
				"energy": -0.30356,
				"method": "rhf"
			},
			{
				"type": "occ",
				"energy": -0.28368,
				"method": "rhf"
			},
			{
				"type": "occ",
				"energy": -0.26545,
				"method": "rhf"
			},
			{
				"type": "occ",
				"energy": -0.21377,
				"method": "rhf"
			},
			{
				"type": "unocc",
				"energy": 0.01807,
				"method": "rhf"
			},
			{
				"type": "unocc",
				"energy": 0.06037,
				"method": "rhf"
			},
			{
				"type": "unocc",
				"energy": 0.07397,
				"method": "rhf"
			},
			{
				"type": "unocc",
				"energy": 0.10421,
				"method": "rhf"
			},
			{
				"type": "unocc",
				"energy": 0.1077,
				"method": "rhf"
			}
		],
		"cosmo_sigma_profile": { 
			"-0.025": 0.0,
			"-0.024": 0.0,
			"-0.023": 0.0,
			"-0.022": 0.0,
			"-0.021": 0.0,
			"-0.02": 0.0,
			"-0.019": 0.0,
			"-0.018": 0.0,
			"-0.017": 0.0,
			"-0.016": 0.0,
			"-0.015": 0.131616954724,
			"-0.014": 2.928327565,
			"-0.013": 2.10254080464,
			"-0.012": 2.53730196527,
			"-0.011": 3.24071836669,
			"-0.01": 2.64099248813,
			"-0.009": 1.95199791467,
			"-0.008": 2.11302462509,
			"-0.007": 2.64768745034,
			"-0.006": 3.28869508331,
			"-0.005": 3.81639161952,
			"-0.004": 6.61875808737,
			"-0.003": 14.3485250835,
			"-0.002": 17.9591307813,
			"-0.001": 18.4527785363,
			"0.0": 18.1570569606,
			"0.001": 18.9873660389,
			"0.002": 11.7093378817,
			"0.003": 7.80849794063,
			"0.004": 8.33997720544,
			"0.005": 4.9257156024,
			"0.006": 2.79487477388,
			"0.007": 3.6481328743,
			"0.008": 4.33858232681,
			"0.009": 5.07086743429,
			"0.01": 3.6104412137,
			"0.011": 2.05498357882,
			"0.012": 2.61176148043,
			"0.013": 1.14081410353,
			"0.014": 1.29059731656,
			"0.015": 0.597741443062,
			"0.016": 0.0,
			"0.017": 0.0,
			"0.018": 0.0,
			"0.019": 0.0,
			"0.02": 0.0,
			"0.021": 0.0,
			"0.022": 0.0,
			"0.023": 0.0,
			"0.024": 0.0,
			"0.025": 0.0
		}
	}
}
