{
	 "smiles": "C[C@]12CC[C@H]3[C@@H](CCC4=CC(=O)CC[C@H]34)[C@@H]1CC[C@@H]2O", 
	 "Tm": 395.15, 
	 "num_atms": 46, 
	 "gaussian": { 
		 "optdone": 1, 
		 "sigma_profile": "yes", 
		 "theory": "DFT", 
		 "functional": "B3LYP", 
		 "basiset": "6-31G**", 
		 "properties": { 
			 "R2extent": 6683.6072, 
			 "electric_dipole_moment_norm": 4.77606442796, 
			 "electric_quadrupole_moment_norm": 30.2387590355, 
			 "total_energy": -852.043411333, 
			 "HOMO_LUMO_gap": 0.18688, 
			 "cosmo_polarized_energy": -14.44, 
			 "cosmo_cavitation_energy": 41.23, 
			 "cosmo_dispersion_energy": -29.18, 
			 "cosmo_repulsion_energy": 2.16, 
			 "cosmo_total_nonelectrostatic_energy": 14.22, 
			 "SMD_solvation_energy": 5.74 
		},
		"coords": [
			{
				"x": -0.2013644504,
				"y": -1.6418205846,
				"z": 2.5753706634,
				"element": "C" 
			},
			{
				"x": -0.0751370849,
				"y": -0.1441404413,
				"z": 2.2235902868,
				"element": "C" 
			},
			{
				"x": -1.4208836695,
				"y": 0.4015427,
				"z": 1.7249561839,
				"element": "C" 
			},
			{
				"x": -1.78687878,
				"y": -0.1613780681,
				"z": 0.335215553,
				"element": "C" 
			},
			{
				"x": -0.6720958488,
				"y": 0.031301161,
				"z": -0.7164635122,
				"element": "C" 
			},
			{
				"x": 0.7064916929,
				"y": -0.4882222565,
				"z": -0.205029393,
				"element": "C" 
			},
			{
				"x": 1.8204233857,
				"y": -0.2399785349,
				"z": -1.2367106006,
				"element": "C" 
			},
			{
				"x": 1.4732379587,
				"y": -0.8338434459,
				"z": -2.6210126209,
				"element": "C" 
			},
			{
				"x": 0.1290123928,
				"y": -0.3141943402,
				"z": -3.049706008,
				"element": "C" 
			},
			{
				"x": -0.0310617148,
				"y": 0.4817574331,
				"z": -4.1269822402,
				"element": "C" 
			},
			{
				"x": -1.2918983038,
				"y": 1.1781759572,
				"z": -4.4460228355,
				"element": "C" 
			},
			{
				"x": -1.4131356982,
				"y": 1.8658965494,
				"z": -5.4508769292,
				"element": "O" 
			},
			{
				"x": -2.4050448474,
				"y": 1.050458824,
				"z": -3.4128690461,
				"element": "C" 
			},
			{
				"x": -2.3726970326,
				"y": -0.3139439908,
				"z": -2.7149727659,
				"element": "C" 
			},
			{
				"x": -1.0007947577,
				"y": -0.6360785007,
				"z": -2.090848836,
				"element": "C" 
			},
			{
				"x": 1.0033637532,
				"y": 0.1556172756,
				"z": 1.153942254,
				"element": "C" 
			},
			{
				"x": 2.3420984456,
				"y": -0.1211061596,
				"z": 1.8719000545,
				"element": "C" 
			},
			{
				"x": 2.062784383,
				"y": 0.2830126095,
				"z": 3.3495008444,
				"element": "C" 
			},
			{
				"x": 0.5427758857,
				"y": 0.6116682536,
				"z": 3.4313117883,
				"element": "C" 
			},
			{
				"x": -0.0478582258,
				"y": 0.3669085183,
				"z": 4.6965900113,
				"element": "O" 
			},
			{
				"x": 0.7496482036,
				"y": -2.0818933575,
				"z": 2.8930484502,
				"element": "H" 
			},
			{
				"x": -0.5647764816,
				"y": -2.2410782261,
				"z": 1.737761498,
				"element": "H" 
			},
			{
				"x": -0.9189090039,
				"y": -1.7652501524,
				"z": 3.3938314152,
				"element": "H" 
			},
			{
				"x": -2.2217377229,
				"y": 0.1820595137,
				"z": 2.4412516699,
				"element": "H" 
			},
			{
				"x": -1.3549787913,
				"y": 1.4967182775,
				"z": 1.6593154275,
				"element": "H" 
			},
			{
				"x": -2.0273917119,
				"y": -1.230315952,
				"z": 0.4136992126,
				"element": "H" 
			},
			{
				"x": -2.7050688491,
				"y": 0.3278051475,
				"z": -0.0066301182,
				"element": "H" 
			},
			{
				"x": -0.5600988,
				"y": 1.1138615502,
				"z": -0.8865309091,
				"element": "H" 
			},
			{
				"x": 0.6241401664,
				"y": -1.5782434379,
				"z": -0.0696277828,
				"element": "H" 
			},
			{
				"x": 1.9818920555,
				"y": 0.841232827,
				"z": -1.3457487741,
				"element": "H" 
			},
			{
				"x": 2.7651405329,
				"y": -0.6670477068,
				"z": -0.8813864642,
				"element": "H" 
			},
			{
				"x": 2.245652314,
				"y": -0.5806739331,
				"z": -3.3542183583,
				"element": "H" 
			},
			{
				"x": 1.4416752534,
				"y": -1.9299673293,
				"z": -2.5396593289,
				"element": "H" 
			},
			{
				"x": 0.8015536956,
				"y": 0.6918625705,
				"z": -4.7948872366,
				"element": "H" 
			},
			{
				"x": -3.361006198,
				"y": 1.2357253999,
				"z": -3.9105848629,
				"element": "H" 
			},
			{
				"x": -2.2655992736,
				"y": 1.8610892656,
				"z": -2.6829165129,
				"element": "H" 
			},
			{
				"x": -2.5872020052,
				"y": -1.0884260079,
				"z": -3.4621734978,
				"element": "H" 
			},
			{
				"x": -3.1685761314,
				"y": -0.3848823181,
				"z": -1.9683768199,
				"element": "H" 
			},
			{
				"x": -0.972830813,
				"y": -1.721842125,
				"z": -1.9072629354,
				"element": "H" 
			},
			{
				"x": 0.963043057,
				"y": 1.2457756656,
				"z": 0.9895551947,
				"element": "H" 
			},
			{
				"x": 3.1690879596,
				"y": 0.4461871423,
				"z": 1.4354148591,
				"element": "H" 
			},
			{
				"x": 2.6143522887,
				"y": -1.1805511423,
				"z": 1.7996442142,
				"element": "H" 
			},
			{
				"x": 2.2962977497,
				"y": -0.5397016008,
				"z": 4.0365016206,
				"element": "H" 
			},
			{
				"x": 2.6675974124,
				"y": 1.1341158185,
				"z": 3.6744809885,
				"element": "H" 
			},
			{
				"x": 0.3927121544,
				"y": 1.6858464736,
				"z": 3.2668362121,
				"element": "H" 
			},
			{
				"x": 0.1887454551,
				"y": -0.5297393218,
				"z": 4.9673799867,
				"element": "H" 
			}
		],
		 "valence_orbital": [ 
			{
				"type": "occ",
				"energy": -0.30363,
				"method": "rhf"
			},
			{
				"type": "occ",
				"energy": -0.28713,
				"method": "rhf"
			},
			{
				"type": "occ",
				"energy": -0.25856,
				"method": "rhf"
			},
			{
				"type": "occ",
				"energy": -0.24978,
				"method": "rhf"
			},
			{
				"type": "occ",
				"energy": -0.22907,
				"method": "rhf"
			},
			{
				"type": "unocc",
				"energy": -0.04219,
				"method": "rhf"
			},
			{
				"type": "unocc",
				"energy": 0.05944,
				"method": "rhf"
			},
			{
				"type": "unocc",
				"energy": 0.06362,
				"method": "rhf"
			},
			{
				"type": "unocc",
				"energy": 0.07343,
				"method": "rhf"
			},
			{
				"type": "unocc",
				"energy": 0.08215,
				"method": "rhf"
			}
		],
		"cosmo_sigma_profile": { 
			"-0.025": 0.0,
			"-0.024": 0.0,
			"-0.023": 0.0,
			"-0.022": 0.0,
			"-0.021": 0.0,
			"-0.02": 0.0,
			"-0.019": 0.0,
			"-0.018": 0.0,
			"-0.017": 0.0,
			"-0.016": 0.0,
			"-0.015": 0.0,
			"-0.014": 0.378370163567,
			"-0.013": 0.71223862501,
			"-0.012": 0.913950287841,
			"-0.011": 0.589182112828,
			"-0.01": 1.43549340779,
			"-0.009": 1.31507225139,
			"-0.008": 1.00838340682,
			"-0.007": 0.760475276045,
			"-0.006": 1.49927848041,
			"-0.005": 4.47233241408,
			"-0.004": 19.6194227387,
			"-0.003": 44.222488354,
			"-0.002": 60.3089939833,
			"-0.001": 55.5880881772,
			"0.0": 37.9406595875,
			"0.001": 23.9533320846,
			"0.002": 12.0984176374,
			"0.003": 6.5933603016,
			"0.004": 3.93904599559,
			"0.005": 3.26698127809,
			"0.006": 3.07467071602,
			"0.007": 3.30701183575,
			"0.008": 2.46589387908,
			"0.009": 2.17390208749,
			"0.01": 3.64848813195,
			"0.011": 3.56511777938,
			"0.012": 3.43008991193,
			"0.013": 6.9612597716,
			"0.014": 5.26894994313,
			"0.015": 1.90203255392,
			"0.016": 0.0,
			"0.017": 0.0,
			"0.018": 0.0,
			"0.019": 0.0,
			"0.02": 0.0,
			"0.021": 0.0,
			"0.022": 0.0,
			"0.023": 0.0,
			"0.024": 0.0,
			"0.025": 0.0
		}
	}
}
