{
	 "smiles": "CC(=O)C1=C(N)C=C2OCOC2=C1", 
	 "Tm": 443.15, 
	 "num_atms": 22, 
	 "gaussian": { 
		 "optdone": 1, 
		 "sigma_profile": "yes", 
		 "theory": "DFT", 
		 "functional": "B3LYP", 
		 "basiset": "6-31G**", 
		 "properties": { 
			 "R2extent": 2736.5082, 
			 "electric_dipole_moment_norm": 4.19796221398, 
			 "electric_quadrupole_moment_norm": 16.3601651104, 
			 "total_energy": -628.777474577, 
			 "HOMO_LUMO_gap": 0.15699, 
			 "cosmo_polarized_energy": -15.36, 
			 "cosmo_cavitation_energy": 25.48, 
			 "cosmo_dispersion_energy": -19.62, 
			 "cosmo_repulsion_energy": 1.53, 
			 "cosmo_total_nonelectrostatic_energy": 7.39, 
			 "SMD_solvation_energy": 5.64 
		},
		"coords": [
			{
				"x": 1.4322586496,
				"y": -3.6394066212,
				"z": 0.5755618372,
				"element": "C" 
			},
			{
				"x": 0.0801157148,
				"y": -2.9400675643,
				"z": 0.5234608066,
				"element": "C" 
			},
			{
				"x": -0.9268774491,
				"y": -3.6374310935,
				"z": 0.4511191644,
				"element": "O" 
			},
			{
				"x": -0.039138855,
				"y": -1.4508111126,
				"z": 0.5270644349,
				"element": "C" 
			},
			{
				"x": 1.0169642172,
				"y": -0.5128392549,
				"z": 0.6943151068,
				"element": "C" 
			},
			{
				"x": 2.351985411,
				"y": -0.87235099,
				"z": 0.8955595841,
				"element": "N" 
			},
			{
				"x": 0.7488257856,
				"y": 0.8783164684,
				"z": 0.6063738724,
				"element": "C" 
			},
			{
				"x": -0.5441659414,
				"y": 1.2811207818,
				"z": 0.3718686624,
				"element": "C" 
			},
			{
				"x": -1.0204051533,
				"y": 2.5554192346,
				"z": 0.2681692012,
				"element": "O" 
			},
			{
				"x": -2.4143723176,
				"y": 2.4268846955,
				"z": -0.0715715338,
				"element": "C" 
			},
			{
				"x": -2.7751939891,
				"y": 1.0535457957,
				"z": 0.0465150812,
				"element": "O" 
			},
			{
				"x": -1.5905713216,
				"y": 0.3669555243,
				"z": 0.2331452639,
				"element": "C" 
			},
			{
				"x": -1.3662882597,
				"y": -0.9781274856,
				"z": 0.3111157715,
				"element": "C" 
			},
			{
				"x": 1.8490375339,
				"y": -3.6052536873,
				"z": 1.5920188375,
				"element": "H" 
			},
			{
				"x": 1.2707464812,
				"y": -4.688028647,
				"z": 0.3227337053,
				"element": "H" 
			},
			{
				"x": 2.160779909,
				"y": -3.1942790025,
				"z": -0.1076946874,
				"element": "H" 
			},
			{
				"x": 2.5213488583,
				"y": -1.7121757769,
				"z": 1.4258654583,
				"element": "H" 
			},
			{
				"x": 2.9361637582,
				"y": -0.1103888472,
				"z": 1.2113935116,
				"element": "H" 
			},
			{
				"x": 1.5456153582,
				"y": 1.6047513311,
				"z": 0.7275252057,
				"element": "H" 
			},
			{
				"x": -2.5611343841,
				"y": 2.7683526916,
				"z": -1.1057255203,
				"element": "H" 
			},
			{
				"x": -3.0083466305,
				"y": 3.0278341499,
				"z": 0.6244780399,
				"element": "H" 
			},
			{
				"x": -2.1554473755,
				"y": -1.7118205898,
				"z": 0.2054081967,
				"element": "H" 
			}
		],
		 "valence_orbital": [ 
			{
				"type": "occ",
				"energy": -0.34621,
				"method": "rhf"
			},
			{
				"type": "occ",
				"energy": -0.27563,
				"method": "rhf"
			},
			{
				"type": "occ",
				"energy": -0.24066,
				"method": "rhf"
			},
			{
				"type": "occ",
				"energy": -0.23794,
				"method": "rhf"
			},
			{
				"type": "occ",
				"energy": -0.19659,
				"method": "rhf"
			},
			{
				"type": "unocc",
				"energy": -0.0396,
				"method": "rhf"
			},
			{
				"type": "unocc",
				"energy": 0.00919,
				"method": "rhf"
			},
			{
				"type": "unocc",
				"energy": 0.05028,
				"method": "rhf"
			},
			{
				"type": "unocc",
				"energy": 0.07277,
				"method": "rhf"
			},
			{
				"type": "unocc",
				"energy": 0.0939,
				"method": "rhf"
			}
		],
		"cosmo_sigma_profile": { 
			"-0.025": 0.0,
			"-0.024": 0.0,
			"-0.023": 0.0,
			"-0.022": 0.0,
			"-0.021": 0.0,
			"-0.02": 0.0,
			"-0.019": 0.0,
			"-0.018": 0.0,
			"-0.017": 0.0,
			"-0.016": 0.0,
			"-0.015": 0.0,
			"-0.014": 0.0473868884167,
			"-0.013": 1.85100721655,
			"-0.012": 3.37194945028,
			"-0.011": 3.02584743435,
			"-0.01": 3.64611566049,
			"-0.009": 2.88808092619,
			"-0.008": 7.13827207524,
			"-0.007": 10.9436451543,
			"-0.006": 9.74592544372,
			"-0.005": 8.94783957043,
			"-0.004": 9.99695615413,
			"-0.003": 10.4532285134,
			"-0.002": 11.2640968014,
			"-0.001": 13.5897125213,
			"0.0": 11.4841914371,
			"0.001": 9.48615887084,
			"0.002": 13.3359467548,
			"0.003": 16.6935654743,
			"0.004": 13.2188527939,
			"0.005": 6.33280202491,
			"0.006": 5.07330172626,
			"0.007": 5.20255355995,
			"0.008": 5.24360660539,
			"0.009": 5.08445560478,
			"0.01": 3.470960307,
			"0.011": 2.76352792005,
			"0.012": 3.59294736471,
			"0.013": 3.63065995494,
			"0.014": 1.4506522904,
			"0.015": 0.0565363575119,
			"0.016": 0.0,
			"0.017": 0.0,
			"0.018": 0.0,
			"0.019": 0.0,
			"0.02": 0.0,
			"0.021": 0.0,
			"0.022": 0.0,
			"0.023": 0.0,
			"0.024": 0.0,
			"0.025": 0.0
		}
	}
}
