{
	 "smiles": "CCOC(=O)C1=C(NC(=O)CCCl)SC=C1C1=CC=CC=C1", 
	 "Tm": 338.15, 
	 "num_atms": 38, 
	 "gaussian": { 
		 "optdone": 1, 
		 "sigma_profile": "yes", 
		 "theory": "DFT", 
		 "functional": "B3LYP", 
		 "basiset": "6-31G**", 
		 "properties": { 
			 "R2extent": 10446.079, 
			 "electric_dipole_moment_norm": 2.67290339893, 
			 "electric_quadrupole_moment_norm": 20.0043039841, 
			 "total_energy": -1758.17111844, 
			 "HOMO_LUMO_gap": 0.166, 
			 "cosmo_polarized_energy": -17.17, 
			 "cosmo_cavitation_energy": 45.22, 
			 "cosmo_dispersion_energy": -31.92, 
			 "cosmo_repulsion_energy": 2.45, 
			 "cosmo_total_nonelectrostatic_energy": 15.76, 
			 "SMD_solvation_energy": 8.47 
		},
		"coords": [
			{
				"x": 1.6102759738,
				"y": 3.7057205926,
				"z": -1.8854063978,
				"element": "C" 
			},
			{
				"x": 1.5091960833,
				"y": 3.2715653818,
				"z": -0.4318312366,
				"element": "C" 
			},
			{
				"x": 0.562388934,
				"y": 2.1829166857,
				"z": -0.2677275153,
				"element": "O" 
			},
			{
				"x": 1.0364796362,
				"y": 0.9163960822,
				"z": -0.4855500819,
				"element": "C" 
			},
			{
				"x": 2.1940300158,
				"y": 0.7106704769,
				"z": -0.7879519445,
				"element": "O" 
			},
			{
				"x": -0.0003149397,
				"y": -0.1248779722,
				"z": -0.3220596437,
				"element": "C" 
			},
			{
				"x": -1.3583789821,
				"y": 0.1113371659,
				"z": -0.0844117447,
				"element": "C" 
			},
			{
				"x": -1.9447702893,
				"y": 1.3529087568,
				"z": 0.0762930904,
				"element": "N" 
			},
			{
				"x": -3.2090005975,
				"y": 1.8075174438,
				"z": 0.4331566772,
				"element": "C" 
			},
			{
				"x": -3.4142742144,
				"y": 3.0111198951,
				"z": 0.4230330848,
				"element": "O" 
			},
			{
				"x": -4.294310336,
				"y": 0.8066735163,
				"z": 0.8077761903,
				"element": "C" 
			},
			{
				"x": -5.4730661569,
				"y": 1.4802041135,
				"z": 1.4967230209,
				"element": "C" 
			},
			{
				"x": -5.102709369,
				"y": 1.8662323102,
				"z": 3.2318971227,
				"element": "Cl" 
			},
			{
				"x": -2.2744753651,
				"y": -1.3765235005,
				"z": -0.124060215,
				"element": "S" 
			},
			{
				"x": -0.8386797348,
				"y": -2.3057719623,
				"z": -0.4265035081,
				"element": "C" 
			},
			{
				"x": 0.2877822704,
				"y": -1.5401509062,
				"z": -0.5042318853,
				"element": "C" 
			},
			{
				"x": 1.6090886183,
				"y": -2.1902749714,
				"z": -0.7153206493,
				"element": "C" 
			},
			{
				"x": 2.6678854001,
				"y": -2.0219132482,
				"z": 0.1906916982,
				"element": "C" 
			},
			{
				"x": 3.8609855939,
				"y": -2.7190963942,
				"z": 0.0218062617,
				"element": "C" 
			},
			{
				"x": 4.0209851535,
				"y": -3.5947925139,
				"z": -1.0558596757,
				"element": "C" 
			},
			{
				"x": 2.9766453763,
				"y": -3.7687884007,
				"z": -1.9631447496,
				"element": "C" 
			},
			{
				"x": 1.7782719097,
				"y": -3.073397463,
				"z": -1.7918436352,
				"element": "C" 
			},
			{
				"x": 0.6303765417,
				"y": 3.9932375484,
				"z": -2.2779844493,
				"element": "H" 
			},
			{
				"x": 2.0185818371,
				"y": 2.8998426335,
				"z": -2.4996439482,
				"element": "H" 
			},
			{
				"x": 2.2774529982,
				"y": 4.5704034408,
				"z": -1.9652100084,
				"element": "H" 
			},
			{
				"x": 1.1117782993,
				"y": 4.0678112132,
				"z": 0.2015032945,
				"element": "H" 
			},
			{
				"x": 2.4768292375,
				"y": 2.9456071636,
				"z": -0.0460203123,
				"element": "H" 
			},
			{
				"x": -1.290782801,
				"y": 2.1190485448,
				"z": -0.0724302476,
				"element": "H" 
			},
			{
				"x": -3.8961534911,
				"y": 0.0055922055,
				"z": 1.4363744528,
				"element": "H" 
			},
			{
				"x": -4.6559805244,
				"y": 0.3329514326,
				"z": -0.1161982257,
				"element": "H" 
			},
			{
				"x": -6.3436222557,
				"y": 0.8246831276,
				"z": 1.5102765999,
				"element": "H" 
			},
			{
				"x": -5.714108861,
				"y": 2.4265363539,
				"z": 1.0151446386,
				"element": "H" 
			},
			{
				"x": -0.9045917671,
				"y": -3.3832685389,
				"z": -0.4685007488,
				"element": "H" 
			},
			{
				"x": 2.5524848607,
				"y": -1.3430370345,
				"z": 1.0286820841,
				"element": "H" 
			},
			{
				"x": 4.6694441862,
				"y": -2.5793857409,
				"z": 0.7337411832,
				"element": "H" 
			},
			{
				"x": 4.9546578921,
				"y": -4.1343348651,
				"z": -1.1865790266,
				"element": "H" 
			},
			{
				"x": 3.0921816063,
				"y": -4.4425730918,
				"z": -2.8074344471,
				"element": "H" 
			},
			{
				"x": 0.9688172606,
				"y": -3.201189481,
				"z": -2.5046951024,
				"element": "H" 
			}
		],
		 "valence_orbital": [ 
			{
				"type": "occ",
				"energy": -0.27536,
				"method": "rhf"
			},
			{
				"type": "occ",
				"energy": -0.27319,
				"method": "rhf"
			},
			{
				"type": "occ",
				"energy": -0.24726,
				"method": "rhf"
			},
			{
				"type": "occ",
				"energy": -0.24102,
				"method": "rhf"
			},
			{
				"type": "occ",
				"energy": -0.21897,
				"method": "rhf"
			},
			{
				"type": "unocc",
				"energy": -0.05297,
				"method": "rhf"
			},
			{
				"type": "unocc",
				"energy": -0.02207,
				"method": "rhf"
			},
			{
				"type": "unocc",
				"energy": 0.00221,
				"method": "rhf"
			},
			{
				"type": "unocc",
				"energy": 0.00445,
				"method": "rhf"
			},
			{
				"type": "unocc",
				"energy": 0.01189,
				"method": "rhf"
			}
		],
		"cosmo_sigma_profile": { 
			"-0.025": 0.0,
			"-0.024": 0.0,
			"-0.023": 0.0,
			"-0.022": 0.0,
			"-0.021": 0.0,
			"-0.02": 0.0,
			"-0.019": 0.0,
			"-0.018": 0.0,
			"-0.017": 0.0,
			"-0.016": 0.0,
			"-0.015": 0.0,
			"-0.014": 0.0,
			"-0.013": 0.0,
			"-0.012": 0.0,
			"-0.011": 0.0,
			"-0.01": 0.0411565718076,
			"-0.009": 2.21130594045,
			"-0.008": 6.72540587456,
			"-0.007": 9.66046341478,
			"-0.006": 16.0067029306,
			"-0.005": 28.4440619314,
			"-0.004": 32.2412563832,
			"-0.003": 34.6057435599,
			"-0.002": 28.7926520066,
			"-0.001": 27.7880495394,
			"0.0": 32.1252478926,
			"0.001": 23.3825367001,
			"0.002": 22.4800964852,
			"0.003": 18.462272099,
			"0.004": 13.6791013506,
			"0.005": 16.1756961205,
			"0.006": 16.0547842455,
			"0.007": 8.50608324982,
			"0.008": 4.98158007512,
			"0.009": 3.55918826103,
			"0.01": 3.3445948182,
			"0.011": 5.60966803401,
			"0.012": 7.59325961114,
			"0.013": 1.8361365025,
			"0.014": 0.0,
			"0.015": 0.0,
			"0.016": 0.0,
			"0.017": 0.0,
			"0.018": 0.0,
			"0.019": 0.0,
			"0.02": 0.0,
			"0.021": 0.0,
			"0.022": 0.0,
			"0.023": 0.0,
			"0.024": 0.0,
			"0.025": 0.0
		}
	}
}
