{
	 "smiles": "COC(=O)C1=CC(=CN=C1)C(O)=O", 
	 "Tm": 499.15, 
	 "num_atms": 20, 
	 "gaussian": { 
		 "optdone": 1, 
		 "sigma_profile": "yes", 
		 "theory": "DFT", 
		 "functional": "B3LYP", 
		 "basiset": "6-31G**", 
		 "properties": { 
			 "R2extent": 2975.9835, 
			 "electric_dipole_moment_norm": 5.14729243195, 
			 "electric_quadrupole_moment_norm": 6.59514247306, 
			 "total_energy": -664.723995977, 
			 "HOMO_LUMO_gap": 0.19562, 
			 "cosmo_polarized_energy": -17.25, 
			 "cosmo_cavitation_energy": 25.83, 
			 "cosmo_dispersion_energy": -18.92, 
			 "cosmo_repulsion_energy": 1.49, 
			 "cosmo_total_nonelectrostatic_energy": 8.4, 
			 "SMD_solvation_energy": 5.93 
		},
		"coords": [
			{
				"x": 1.4063205256,
				"y": -3.9586003428,
				"z": -0.7964865084,
				"element": "C" 
			},
			{
				"x": 0.6031564289,
				"y": -2.7841018566,
				"z": -1.0134421448,
				"element": "O" 
			},
			{
				"x": 0.725924816,
				"y": -1.8201781633,
				"z": -0.0820460102,
				"element": "C" 
			},
			{
				"x": 1.4549827834,
				"y": -1.9015764902,
				"z": 0.8871308681,
				"element": "O" 
			},
			{
				"x": -0.1328070113,
				"y": -0.6362284762,
				"z": -0.3737070006,
				"element": "C" 
			},
			{
				"x": -0.1102244865,
				"y": 0.43363435,
				"z": 0.5246524852,
				"element": "C" 
			},
			{
				"x": -0.9074274921,
				"y": 1.5486781939,
				"z": 0.2714719042,
				"element": "C" 
			},
			{
				"x": -1.7142870624,
				"y": 1.5273953299,
				"z": -0.8796205335,
				"element": "C" 
			},
			{
				"x": -1.742194998,
				"y": 0.5171499018,
				"z": -1.7516612309,
				"element": "N" 
			},
			{
				"x": -0.9628512841,
				"y": -0.5417075451,
				"z": -1.4979074937,
				"element": "C" 
			},
			{
				"x": -0.9899930437,
				"y": 2.7515452914,
				"z": 1.1644951076,
				"element": "C" 
			},
			{
				"x": 0.0128997081,
				"y": 2.9244494325,
				"z": 2.0615895651,
				"element": "O" 
			},
			{
				"x": -1.8989076879,
				"y": 3.5448029125,
				"z": 1.1070112742,
				"element": "O" 
			},
			{
				"x": 2.4672071055,
				"y": -3.6981409071,
				"z": -0.7821964513,
				"element": "H" 
			},
			{
				"x": 1.1838144827,
				"y": -4.6224391011,
				"z": -1.6310362409,
				"element": "H" 
			},
			{
				"x": 1.1434694556,
				"y": -4.4302520849,
				"z": 0.153180627,
				"element": "H" 
			},
			{
				"x": 0.5173524051,
				"y": 0.3364220378,
				"z": 1.4070246808,
				"element": "H" 
			},
			{
				"x": -2.3570639386,
				"y": 2.3796040768,
				"z": -1.0838066932,
				"element": "H" 
			},
			{
				"x": -0.9995661978,
				"y": -1.3564162572,
				"z": -2.2153169503,
				"element": "H" 
			},
			{
				"x": 0.7311954914,
				"y": 2.295759698,
				"z": 1.9063707457,
				"element": "H" 
			}
		],
		 "valence_orbital": [ 
			{
				"type": "occ",
				"energy": -0.31526,
				"method": "rhf"
			},
			{
				"type": "occ",
				"energy": -0.30515,
				"method": "rhf"
			},
			{
				"type": "occ",
				"energy": -0.2937,
				"method": "rhf"
			},
			{
				"type": "occ",
				"energy": -0.2851,
				"method": "rhf"
			},
			{
				"type": "occ",
				"energy": -0.27346,
				"method": "rhf"
			},
			{
				"type": "unocc",
				"energy": -0.07784,
				"method": "rhf"
			},
			{
				"type": "unocc",
				"energy": -0.06992,
				"method": "rhf"
			},
			{
				"type": "unocc",
				"energy": 0.0024,
				"method": "rhf"
			},
			{
				"type": "unocc",
				"energy": 0.04661,
				"method": "rhf"
			},
			{
				"type": "unocc",
				"energy": 0.0611,
				"method": "rhf"
			}
		],
		"cosmo_sigma_profile": { 
			"-0.025": 0.0,
			"-0.024": 0.0,
			"-0.023": 0.0,
			"-0.022": 0.0,
			"-0.021": 0.0157679303836,
			"-0.02": 0.611275115165,
			"-0.019": 0.832073080737,
			"-0.018": 0.952092843791,
			"-0.017": 1.43162594484,
			"-0.016": 0.399295741597,
			"-0.015": 1.11489081012,
			"-0.014": 0.8151621373,
			"-0.013": 2.00916144458,
			"-0.012": 0.880464846907,
			"-0.011": 0.861179627035,
			"-0.01": 1.00106153561,
			"-0.009": 1.2683370933,
			"-0.008": 1.79176839767,
			"-0.007": 6.53554126956,
			"-0.006": 10.183190609,
			"-0.005": 12.6326193945,
			"-0.004": 19.2296541722,
			"-0.003": 19.0500767436,
			"-0.002": 21.8076313781,
			"-0.001": 14.2024147741,
			"0.0": 8.48659190831,
			"0.001": 7.67787778016,
			"0.002": 7.82620855539,
			"0.003": 6.56294981763,
			"0.004": 5.79456338681,
			"0.005": 5.86134665659,
			"0.006": 5.21847480027,
			"0.007": 5.27525508669,
			"0.008": 4.82586866552,
			"0.009": 6.92679827401,
			"0.01": 8.03951597455,
			"0.011": 10.3992503803,
			"0.012": 4.33851233591,
			"0.013": 1.09322072183,
			"0.014": 0.825246875062,
			"0.015": 0.626660196906,
			"0.016": 0.0,
			"0.017": 0.0,
			"0.018": 0.0,
			"0.019": 0.0,
			"0.02": 0.0,
			"0.021": 0.0,
			"0.022": 0.0,
			"0.023": 0.0,
			"0.024": 0.0,
			"0.025": 0.0
		}
	}
}
