{
	 "smiles": "CCOC1=CC=C(NC(=S)NN)C=C1", 
	 "Tm": 453.15, 
	 "num_atms": 27, 
	 "gaussian": { 
		 "optdone": 1, 
		 "sigma_profile": "yes", 
		 "theory": "DFT", 
		 "functional": "B3LYP", 
		 "basiset": "6-31G**", 
		 "properties": { 
			 "R2extent": 5266.8504, 
			 "electric_dipole_moment_norm": 6.11837777029, 
			 "electric_quadrupole_moment_norm": 19.8716432099, 
			 "total_energy": -988.430748899, 
			 "HOMO_LUMO_gap": 0.17201, 
			 "cosmo_polarized_energy": -17.67, 
			 "cosmo_cavitation_energy": 32.25, 
			 "cosmo_dispersion_energy": -23.82, 
			 "cosmo_repulsion_energy": 1.87, 
			 "cosmo_total_nonelectrostatic_energy": 10.3, 
			 "SMD_solvation_energy": 5.21 
		},
		"coords": [
			{
				"x": -0.7663077215,
				"y": -3.6972856291,
				"z": -3.2696613873,
				"element": "C" 
			},
			{
				"x": -0.2589785538,
				"y": -2.7559932388,
				"z": -2.1916395249,
				"element": "C" 
			},
			{
				"x": -1.3286591539,
				"y": -1.8714852835,
				"z": -1.8539324758,
				"element": "O" 
			},
			{
				"x": -1.1171010044,
				"y": -0.9184946231,
				"z": -0.9041601361,
				"element": "C" 
			},
			{
				"x": -2.2033144045,
				"y": -0.0705156881,
				"z": -0.6347421681,
				"element": "C" 
			},
			{
				"x": -2.0976690376,
				"y": 0.9239584483,
				"z": 0.3267633001,
				"element": "C" 
			},
			{
				"x": -0.8991085024,
				"y": 1.1121476989,
				"z": 1.0330610318,
				"element": "C" 
			},
			{
				"x": -0.8258668593,
				"y": 2.1881622678,
				"z": 1.9647265177,
				"element": "N" 
			},
			{
				"x": 0.0285914425,
				"y": 2.3498138264,
				"z": 3.0275254063,
				"element": "C" 
			},
			{
				"x": 0.5629981165,
				"y": 3.8711859183,
				"z": 3.4968630786,
				"element": "S" 
			},
			{
				"x": 0.4132672686,
				"y": 1.2248661891,
				"z": 3.7090399259,
				"element": "N" 
			},
			{
				"x": -0.3700341114,
				"y": 0.0586491209,
				"z": 3.8538100945,
				"element": "N" 
			},
			{
				"x": 0.1894397657,
				"y": 0.2819514061,
				"z": 0.7487229092,
				"element": "C" 
			},
			{
				"x": 0.0803108841,
				"y": -0.7382430548,
				"z": -0.2012179304,
				"element": "C" 
			},
			{
				"x": -1.0766078657,
				"y": -3.1368282766,
				"z": -4.155786217,
				"element": "H" 
			},
			{
				"x": -1.6229814045,
				"y": -4.2723201906,
				"z": -2.9075279728,
				"element": "H" 
			},
			{
				"x": 0.0239669539,
				"y": -4.396317009,
				"z": -3.5596217293,
				"element": "H" 
			},
			{
				"x": 0.0579940395,
				"y": -3.3154263137,
				"z": -1.2999435373,
				"element": "H" 
			},
			{
				"x": 0.6040013768,
				"y": -2.1773298749,
				"z": -2.5502155114,
				"element": "H" 
			},
			{
				"x": -3.1254051418,
				"y": -0.2187680234,
				"z": -1.1868002013,
				"element": "H" 
			},
			{
				"x": -2.9493021275,
				"y": 1.5639443159,
				"z": 0.5401889999,
				"element": "H" 
			},
			{
				"x": -1.1486113571,
				"y": 3.082107711,
				"z": 1.6166174342,
				"element": "H" 
			},
			{
				"x": 0.9840187429,
				"y": 1.4288744966,
				"z": 4.5187284085,
				"element": "H" 
			},
			{
				"x": -1.3535107975,
				"y": 0.3171467015,
				"z": 3.9221041263,
				"element": "H" 
			},
			{
				"x": -0.2636458125,
				"y": -0.5197721048,
				"z": 3.0234760291,
				"element": "H" 
			},
			{
				"x": 1.1331348429,
				"y": 0.4368184222,
				"z": 1.2622323926,
				"element": "H" 
			},
			{
				"x": 0.9408804221,
				"y": -1.3672472127,
				"z": -0.3939108628,
				"element": "H" 
			}
		],
		 "valence_orbital": [ 
			{
				"type": "occ",
				"energy": -0.27904,
				"method": "rhf"
			},
			{
				"type": "occ",
				"energy": -0.26766,
				"method": "rhf"
			},
			{
				"type": "occ",
				"energy": -0.23073,
				"method": "rhf"
			},
			{
				"type": "occ",
				"energy": -0.21382,
				"method": "rhf"
			},
			{
				"type": "occ",
				"energy": -0.20164,
				"method": "rhf"
			},
			{
				"type": "unocc",
				"energy": -0.02963,
				"method": "rhf"
			},
			{
				"type": "unocc",
				"energy": -0.02113,
				"method": "rhf"
			},
			{
				"type": "unocc",
				"energy": 0.0137,
				"method": "rhf"
			},
			{
				"type": "unocc",
				"energy": 0.07111,
				"method": "rhf"
			},
			{
				"type": "unocc",
				"energy": 0.0829,
				"method": "rhf"
			}
		],
		"cosmo_sigma_profile": { 
			"-0.025": 0.0,
			"-0.024": 0.0,
			"-0.023": 0.0,
			"-0.022": 0.0,
			"-0.021": 0.0,
			"-0.02": 0.0,
			"-0.019": 0.0,
			"-0.018": 0.0,
			"-0.017": 0.0,
			"-0.016": 0.0,
			"-0.015": 0.227005207895,
			"-0.014": 0.822048442518,
			"-0.013": 1.43205390284,
			"-0.012": 2.72440341826,
			"-0.011": 3.09993490078,
			"-0.01": 2.79449768221,
			"-0.009": 3.93370201649,
			"-0.008": 4.14408370237,
			"-0.007": 6.67696082523,
			"-0.006": 11.8631237457,
			"-0.005": 17.8803113983,
			"-0.004": 22.6204396992,
			"-0.003": 19.2912676018,
			"-0.002": 19.8301400721,
			"-0.001": 14.9411039401,
			"0.0": 18.7098162118,
			"0.001": 13.6247582593,
			"0.002": 11.7676472919,
			"0.003": 13.0986439644,
			"0.004": 13.7735320892,
			"0.005": 9.13132447354,
			"0.006": 4.85268330954,
			"0.007": 5.54929788825,
			"0.008": 6.17235246175,
			"0.009": 5.54731558016,
			"0.01": 8.32393472283,
			"0.011": 8.0715062732,
			"0.012": 4.04729624539,
			"0.013": 1.17672637666,
			"0.014": 0.678075643149,
			"0.015": 0.431561785254,
			"0.016": 0.328331239962,
			"0.017": 0.0,
			"0.018": 0.0,
			"0.019": 0.0,
			"0.02": 0.0,
			"0.021": 0.0,
			"0.022": 0.0,
			"0.023": 0.0,
			"0.024": 0.0,
			"0.025": 0.0
		}
	}
}
