{
	 "smiles": "FC1=CC=C(C=C1Cl)C1=CC2=CC=CC=C2N1", 
	 "Tm": 444.65, 
	 "num_atms": 26, 
	 "gaussian": { 
		 "optdone": 1, 
		 "sigma_profile": "yes", 
		 "theory": "DFT", 
		 "functional": "B3LYP", 
		 "basiset": "6-31G**", 
		 "properties": { 
			 "R2extent": 6994.0194, 
			 "electric_dipole_moment_norm": 1.37169905227, 
			 "electric_quadrupole_moment_norm": 13.3042669313, 
			 "total_energy": -1153.70340015, 
			 "HOMO_LUMO_gap": 0.15911, 
			 "cosmo_polarized_energy": -9.93, 
			 "cosmo_cavitation_energy": 32.84, 
			 "cosmo_dispersion_energy": -24.21, 
			 "cosmo_repulsion_energy": 1.82, 
			 "cosmo_total_nonelectrostatic_energy": 10.45, 
			 "SMD_solvation_energy": 5.13 
		},
		"coords": [
			{
				"x": 4.938950735,
				"y": -0.1191102746,
				"z": -3.5285359718,
				"element": "F" 
			},
			{
				"x": 3.8995814787,
				"y": 0.1884402429,
				"z": -2.7385352155,
				"element": "C" 
			},
			{
				"x": 3.6618213939,
				"y": 1.5175933137,
				"z": -2.4032401979,
				"element": "C" 
			},
			{
				"x": 2.578182938,
				"y": 1.8419061712,
				"z": -1.5948125582,
				"element": "C" 
			},
			{
				"x": 1.7235557311,
				"y": 0.8417747624,
				"z": -1.095714325,
				"element": "C" 
			},
			{
				"x": 1.9871428028,
				"y": -0.495860342,
				"z": -1.4386573799,
				"element": "C" 
			},
			{
				"x": 3.0634596598,
				"y": -0.8211577542,
				"z": -2.2605985024,
				"element": "C" 
			},
			{
				"x": 3.3866803359,
				"y": -2.4845038749,
				"z": -2.683312084,
				"element": "Cl" 
			},
			{
				"x": 0.5908154125,
				"y": 1.1914598494,
				"z": -0.2372897846,
				"element": "C" 
			},
			{
				"x": 0.4209456762,
				"y": 2.2650863418,
				"z": 0.6121572544,
				"element": "C" 
			},
			{
				"x": -0.86429175,
				"y": 2.1338036711,
				"z": 1.2310235954,
				"element": "C" 
			},
			{
				"x": -1.5858734912,
				"y": 2.8933236272,
				"z": 2.1703303681,
				"element": "C" 
			},
			{
				"x": -2.8521249002,
				"y": 2.4682313245,
				"z": 2.5489013934,
				"element": "C" 
			},
			{
				"x": -3.4186401646,
				"y": 1.2930499043,
				"z": 2.0113897852,
				"element": "C" 
			},
			{
				"x": -2.7273480388,
				"y": 0.51506148,
				"z": 1.0894158036,
				"element": "C" 
			},
			{
				"x": -1.4505692601,
				"y": 0.9445305078,
				"z": 0.7137427124,
				"element": "C" 
			},
			{
				"x": -0.5362042423,
				"y": 0.3793086733,
				"z": -0.1530041365,
				"element": "N" 
			},
			{
				"x": 4.3248964435,
				"y": 2.2803121537,
				"z": -2.7971702652,
				"element": "H" 
			},
			{
				"x": 2.3762536231,
				"y": 2.8815145022,
				"z": -1.3607529981,
				"element": "H" 
			},
			{
				"x": 1.3777480111,
				"y": -1.3001133396,
				"z": -1.04111095,
				"element": "H" 
			},
			{
				"x": 1.1559170486,
				"y": 3.0328212285,
				"z": 0.8085234715,
				"element": "H" 
			},
			{
				"x": -1.1586240837,
				"y": 3.8007042617,
				"z": 2.5879679833,
				"element": "H" 
			},
			{
				"x": -3.4204762863,
				"y": 3.0479088353,
				"z": 3.2703046434,
				"element": "H" 
			},
			{
				"x": -4.4123691242,
				"y": 0.9883724522,
				"z": 2.3261121362,
				"element": "H" 
			},
			{
				"x": -3.1625447107,
				"y": -0.3924494133,
				"z": 0.6804388252,
				"element": "H" 
			},
			{
				"x": -0.744585238,
				"y": -0.3661083048,
				"z": -0.7981736028,
				"element": "H" 
			}
		],
		 "valence_orbital": [ 
			{
				"type": "occ",
				"energy": -0.28525,
				"method": "rhf"
			},
			{
				"type": "occ",
				"energy": -0.27091,
				"method": "rhf"
			},
			{
				"type": "occ",
				"energy": -0.25849,
				"method": "rhf"
			},
			{
				"type": "occ",
				"energy": -0.22066,
				"method": "rhf"
			},
			{
				"type": "occ",
				"energy": -0.20206,
				"method": "rhf"
			},
			{
				"type": "unocc",
				"energy": -0.04295,
				"method": "rhf"
			},
			{
				"type": "unocc",
				"energy": -0.0284,
				"method": "rhf"
			},
			{
				"type": "unocc",
				"energy": 0.00908,
				"method": "rhf"
			},
			{
				"type": "unocc",
				"energy": 0.01744,
				"method": "rhf"
			},
			{
				"type": "unocc",
				"energy": 0.0264,
				"method": "rhf"
			}
		],
		"cosmo_sigma_profile": { 
			"-0.025": 0.0,
			"-0.024": 0.0,
			"-0.023": 0.0,
			"-0.022": 0.0,
			"-0.021": 0.0,
			"-0.02": 0.0,
			"-0.019": 0.0,
			"-0.018": 0.0,
			"-0.017": 0.0,
			"-0.016": 0.174742470793,
			"-0.015": 1.17903833696,
			"-0.014": 1.44980074225,
			"-0.013": 1.14045429415,
			"-0.012": 1.51466394383,
			"-0.011": 1.36906842121,
			"-0.01": 1.66401369346,
			"-0.009": 1.6135922406,
			"-0.008": 3.76874960019,
			"-0.007": 5.94578357229,
			"-0.006": 10.0246509102,
			"-0.005": 14.6685933356,
			"-0.004": 13.1288020177,
			"-0.003": 17.0851093942,
			"-0.002": 14.2397952871,
			"-0.001": 17.3427476396,
			"0.0": 21.951194894,
			"0.001": 22.1287376463,
			"0.002": 26.4043524818,
			"0.003": 25.9496957295,
			"0.004": 27.6439506798,
			"0.005": 17.2955462604,
			"0.006": 13.275918554,
			"0.007": 5.83577033273,
			"0.008": 0.165766235296,
			"0.009": 0.0,
			"0.01": 0.0,
			"0.011": 0.0,
			"0.012": 0.0,
			"0.013": 0.0,
			"0.014": 0.0,
			"0.015": 0.0,
			"0.016": 0.0,
			"0.017": 0.0,
			"0.018": 0.0,
			"0.019": 0.0,
			"0.02": 0.0,
			"0.021": 0.0,
			"0.022": 0.0,
			"0.023": 0.0,
			"0.024": 0.0,
			"0.025": 0.0
		}
	}
}
