{
	 "smiles": "COC(=O)NN", 
	 "Tm": 345.65, 
	 "num_atms": 12, 
	 "gaussian": { 
		 "optdone": 1, 
		 "sigma_profile": "yes", 
		 "theory": "DFT", 
		 "functional": "B3LYP", 
		 "basiset": "6-31G**", 
		 "properties": { 
			 "R2extent": 869.2731, 
			 "electric_dipole_moment_norm": 1.28097964855, 
			 "electric_quadrupole_moment_norm": 5.16203682571, 
			 "total_energy": -339.760006064, 
			 "HOMO_LUMO_gap": 0.31565, 
			 "cosmo_polarized_energy": -10.17, 
			 "cosmo_cavitation_energy": 16.23, 
			 "cosmo_dispersion_energy": -12.17, 
			 "cosmo_repulsion_energy": 1.09, 
			 "cosmo_total_nonelectrostatic_energy": 5.14, 
			 "SMD_solvation_energy": 5.32 
		},
		"coords": [
			{
				"x": 1.0621700504,
				"y": -0.2770734883,
				"z": -3.0114169712,
				"element": "C" 
			},
			{
				"x": 0.720058893,
				"y": -0.51777647,
				"z": -1.6405216848,
				"element": "O" 
			},
			{
				"x": -0.3177868524,
				"y": 0.2272554296,
				"z": -1.1786961764,
				"element": "C" 
			},
			{
				"x": -0.9405405044,
				"y": 1.0453050162,
				"z": -1.8319422863,
				"element": "O" 
			},
			{
				"x": -0.5637636901,
				"y": -0.0745156549,
				"z": 0.1288341781,
				"element": "N" 
			},
			{
				"x": -1.5859905296,
				"y": 0.5504154968,
				"z": 0.8557372911,
				"element": "N" 
			},
			{
				"x": 0.2188281516,
				"y": -0.5035724473,
				"z": -3.6690207202,
				"element": "H" 
			},
			{
				"x": 1.8996306474,
				"y": -0.9416452411,
				"z": -3.2255764973,
				"element": "H" 
			},
			{
				"x": 1.3551277578,
				"y": 0.7651684259,
				"z": -3.1626851703,
				"element": "H" 
			},
			{
				"x": -0.0110455303,
				"y": -0.7631557922,
				"z": 0.6143403599,
				"element": "H" 
			},
			{
				"x": -2.4649287353,
				"y": 0.394325535,
				"z": 0.3639497825,
				"element": "H" 
			},
			{
				"x": -1.4246596581,
				"y": 1.5563691903,
				"z": 0.8277978948,
				"element": "H" 
			}
		],
		 "valence_orbital": [ 
			{
				"type": "occ",
				"energy": -0.3599,
				"method": "rhf"
			},
			{
				"type": "occ",
				"energy": -0.29554,
				"method": "rhf"
			},
			{
				"type": "occ",
				"energy": -0.27769,
				"method": "rhf"
			},
			{
				"type": "occ",
				"energy": -0.27417,
				"method": "rhf"
			},
			{
				"type": "occ",
				"energy": -0.26115,
				"method": "rhf"
			},
			{
				"type": "unocc",
				"energy": 0.0545,
				"method": "rhf"
			},
			{
				"type": "unocc",
				"energy": 0.08628,
				"method": "rhf"
			},
			{
				"type": "unocc",
				"energy": 0.09961,
				"method": "rhf"
			},
			{
				"type": "unocc",
				"energy": 0.11971,
				"method": "rhf"
			},
			{
				"type": "unocc",
				"energy": 0.13101,
				"method": "rhf"
			}
		],
		"cosmo_sigma_profile": { 
			"-0.025": 0.0,
			"-0.024": 0.0,
			"-0.023": 0.0,
			"-0.022": 0.0,
			"-0.021": 0.0,
			"-0.02": 0.0,
			"-0.019": 0.0,
			"-0.018": 0.0,
			"-0.017": 0.0,
			"-0.016": 0.0,
			"-0.015": 0.0826715208017,
			"-0.014": 0.95840861419,
			"-0.013": 0.891682407011,
			"-0.012": 1.10962625851,
			"-0.011": 3.44322744496,
			"-0.01": 3.01692363951,
			"-0.009": 3.02976043714,
			"-0.008": 3.58469883435,
			"-0.007": 2.6644957217,
			"-0.006": 5.01928944319,
			"-0.005": 8.42147738258,
			"-0.004": 11.0523072309,
			"-0.003": 10.0523577292,
			"-0.002": 8.13403357102,
			"-0.001": 8.5661572095,
			"0.0": 6.13538978833,
			"0.001": 7.14427346745,
			"0.002": 4.9783707855,
			"0.003": 3.3237695453,
			"0.004": 3.86398760322,
			"0.005": 2.36990322461,
			"0.006": 4.31370300399,
			"0.007": 3.04685313944,
			"0.008": 3.37707841748,
			"0.009": 1.93279494398,
			"0.01": 2.37943890034,
			"0.011": 2.06206543339,
			"0.012": 2.78444086999,
			"0.013": 6.01254207741,
			"0.014": 1.9651863353,
			"0.015": 0.660468233603,
			"0.016": 0.593809574976,
			"0.017": 0.06906089018,
			"0.018": 0.0,
			"0.019": 0.0,
			"0.02": 0.0,
			"0.021": 0.0,
			"0.022": 0.0,
			"0.023": 0.0,
			"0.024": 0.0,
			"0.025": 0.0
		}
	}
}
