{
	 "smiles": "FC1=CC(Cl)=C(Cl)C=C1", 
	 "Tm": 272.15, 
	 "num_atms": 12, 
	 "gaussian": { 
		 "optdone": 1, 
		 "sigma_profile": "yes", 
		 "theory": "DFT", 
		 "functional": "B3LYP", 
		 "basiset": "6-31G**", 
		 "properties": { 
			 "R2extent": 1724.6265, 
			 "electric_dipole_moment_norm": 1.64940102461, 
			 "electric_quadrupole_moment_norm": 5.2525470193, 
			 "total_energy": -1250.65922138, 
			 "HOMO_LUMO_gap": 0.21619, 
			 "cosmo_polarized_energy": -3.82, 
			 "cosmo_cavitation_energy": 20.45, 
			 "cosmo_dispersion_energy": -15.42, 
			 "cosmo_repulsion_energy": 1.24, 
			 "cosmo_total_nonelectrostatic_energy": 6.27, 
			 "SMD_solvation_energy": 3.57 
		},
		"coords": [
			{
				"x": 2.0577980864,
				"y": 2.6415134438,
				"z": -0.5409383375,
				"element": "F" 
			},
			{
				"x": 1.0156483445,
				"y": 1.8257324412,
				"z": -0.2995558045,
				"element": "C" 
			},
			{
				"x": 1.1112715804,
				"y": 0.4939813221,
				"z": -0.6806931228,
				"element": "C" 
			},
			{
				"x": 0.0334467748,
				"y": -0.3586068626,
				"z": -0.4333043973,
				"element": "C" 
			},
			{
				"x": 0.1686359053,
				"y": -2.0288598118,
				"z": -0.9178945566,
				"element": "Cl" 
			},
			{
				"x": -1.1228978029,
				"y": 0.1321306353,
				"z": 0.1907978876,
				"element": "C" 
			},
			{
				"x": -2.4926414719,
				"y": -0.9001348164,
				"z": 0.5182893774,
				"element": "Cl" 
			},
			{
				"x": -1.1876200983,
				"y": 1.4779301267,
				"z": 0.5621749126,
				"element": "C" 
			},
			{
				"x": -0.1189268932,
				"y": 2.3367714103,
				"z": 0.3203158784,
				"element": "C" 
			},
			{
				"x": 2.0095122095,
				"y": 0.1270195065,
				"z": -1.1618621393,
				"element": "H" 
			},
			{
				"x": -2.0863669421,
				"y": 1.8461668394,
				"z": 1.0438820132,
				"element": "H" 
			},
			{
				"x": -0.1578596925,
				"y": 3.3821557654,
				"z": 0.6038882887,
				"element": "H" 
			}
		],
		 "valence_orbital": [ 
			{
				"type": "occ",
				"energy": -0.33653,
				"method": "rhf"
			},
			{
				"type": "occ",
				"energy": -0.33477,
				"method": "rhf"
			},
			{
				"type": "occ",
				"energy": -0.31576,
				"method": "rhf"
			},
			{
				"type": "occ",
				"energy": -0.27241,
				"method": "rhf"
			},
			{
				"type": "occ",
				"energy": -0.25187,
				"method": "rhf"
			},
			{
				"type": "unocc",
				"energy": -0.03568,
				"method": "rhf"
			},
			{
				"type": "unocc",
				"energy": -0.02341,
				"method": "rhf"
			},
			{
				"type": "unocc",
				"energy": -0.00504,
				"method": "rhf"
			},
			{
				"type": "unocc",
				"energy": 0.05435,
				"method": "rhf"
			},
			{
				"type": "unocc",
				"energy": 0.09843,
				"method": "rhf"
			}
		],
		"cosmo_sigma_profile": { 
			"-0.025": 0.0,
			"-0.024": 0.0,
			"-0.023": 0.0,
			"-0.022": 0.0,
			"-0.021": 0.0,
			"-0.02": 0.0,
			"-0.019": 0.0,
			"-0.018": 0.0,
			"-0.017": 0.0,
			"-0.016": 0.0,
			"-0.015": 0.0,
			"-0.014": 0.0,
			"-0.013": 0.0,
			"-0.012": 0.0,
			"-0.011": 0.0,
			"-0.01": 0.0572885809163,
			"-0.009": 1.97770370154,
			"-0.008": 5.10168252256,
			"-0.007": 5.30316632135,
			"-0.006": 5.24105982876,
			"-0.005": 4.15025416522,
			"-0.004": 5.88948805362,
			"-0.003": 6.6681580284,
			"-0.002": 9.07604292779,
			"-0.001": 14.9893923456,
			"0.0": 26.7824771839,
			"0.001": 22.7413334683,
			"0.002": 15.2033421926,
			"0.003": 20.1269446434,
			"0.004": 21.8277106873,
			"0.005": 4.18069690269,
			"0.006": 0.338645398133,
			"0.007": 0.0,
			"0.008": 0.0,
			"0.009": 0.0,
			"0.01": 0.0,
			"0.011": 0.0,
			"0.012": 0.0,
			"0.013": 0.0,
			"0.014": 0.0,
			"0.015": 0.0,
			"0.016": 0.0,
			"0.017": 0.0,
			"0.018": 0.0,
			"0.019": 0.0,
			"0.02": 0.0,
			"0.021": 0.0,
			"0.022": 0.0,
			"0.023": 0.0,
			"0.024": 0.0,
			"0.025": 0.0
		}
	}
}
