{
	 "smiles": "CC1=C(N(CC(O)=O)C(=O)S1)C1=CC=C(F)C=C1", 
	 "Tm": 413.15, 
	 "num_atms": 28, 
	 "gaussian": { 
		 "optdone": 1, 
		 "sigma_profile": "yes", 
		 "theory": "DFT", 
		 "functional": "B3LYP", 
		 "basiset": "6-31G**", 
		 "properties": { 
			 "R2extent": 5940.256, 
			 "electric_dipole_moment_norm": 3.59892239149, 
			 "electric_quadrupole_moment_norm": 23.7992550394, 
			 "total_energy": -1241.7742107, 
			 "HOMO_LUMO_gap": 0.17916, 
			 "cosmo_polarized_energy": -15.48, 
			 "cosmo_cavitation_energy": 34.79, 
			 "cosmo_dispersion_energy": -24.27, 
			 "cosmo_repulsion_energy": 1.83, 
			 "cosmo_total_nonelectrostatic_energy": 12.35, 
			 "SMD_solvation_energy": 7.98 
		},
		"coords": [
			{
				"x": -0.5964624008,
				"y": -1.7071942122,
				"z": -2.0835077525,
				"element": "C" 
			},
			{
				"x": 0.2711041058,
				"y": -0.4881502012,
				"z": -2.1469391322,
				"element": "C" 
			},
			{
				"x": 0.5681881722,
				"y": 0.3924782286,
				"z": -1.160445602,
				"element": "C" 
			},
			{
				"x": 1.4752703552,
				"y": 1.396867701,
				"z": -1.5621537072,
				"element": "N" 
			},
			{
				"x": 1.9279413533,
				"y": 2.5182246605,
				"z": -0.7677000191,
				"element": "C" 
			},
			{
				"x": 3.2914648574,
				"y": 2.2752106876,
				"z": -0.1289939668,
				"element": "C" 
			},
			{
				"x": 3.829297188,
				"y": 3.4410322327,
				"z": 0.2832053442,
				"element": "O" 
			},
			{
				"x": 3.8205717665,
				"y": 1.1991252476,
				"z": 0.026859052,
				"element": "O" 
			},
			{
				"x": 1.9357007863,
				"y": 1.3168757152,
				"z": -2.8669393565,
				"element": "C" 
			},
			{
				"x": 2.7147763686,
				"y": 2.088744937,
				"z": -3.3905807287,
				"element": "O" 
			},
			{
				"x": 1.1370613641,
				"y": -0.0980134116,
				"z": -3.6400459069,
				"element": "S" 
			},
			{
				"x": 0.0528895093,
				"y": 0.3553467722,
				"z": 0.2297990387,
				"element": "C" 
			},
			{
				"x": -1.3191943017,
				"y": 0.5174621802,
				"z": 0.4821154766,
				"element": "C" 
			},
			{
				"x": -1.8232024403,
				"y": 0.4497940997,
				"z": 1.7807933964,
				"element": "C" 
			},
			{
				"x": -0.9369295226,
				"y": 0.2268590451,
				"z": 2.8281166534,
				"element": "C" 
			},
			{
				"x": -1.4147267577,
				"y": 0.1647981404,
				"z": 4.0864038387,
				"element": "F" 
			},
			{
				"x": 0.4291302328,
				"y": 0.0670003071,
				"z": 2.6167340465,
				"element": "C" 
			},
			{
				"x": 0.9199646036,
				"y": 0.1284332697,
				"z": 1.3142822799,
				"element": "C" 
			},
			{
				"x": -0.0332909734,
				"y": -2.6070315542,
				"z": -2.3567451353,
				"element": "H" 
			},
			{
				"x": -0.9870323324,
				"y": -1.8456703248,
				"z": -1.0731289744,
				"element": "H" 
			},
			{
				"x": -1.4476441809,
				"y": -1.6344585729,
				"z": -2.7707685949,
				"element": "H" 
			},
			{
				"x": 1.9995763915,
				"y": 3.4001890925,
				"z": -1.4082667293,
				"element": "H" 
			},
			{
				"x": 1.2068673235,
				"y": 2.7247732072,
				"z": 0.0274353198,
				"element": "H" 
			},
			{
				"x": 4.6815755346,
				"y": 3.2243472181,
				"z": 0.6976314584,
				"element": "H" 
			},
			{
				"x": -1.9943726772,
				"y": 0.7035830698,
				"z": -0.3472185321,
				"element": "H" 
			},
			{
				"x": -2.8804144765,
				"y": 0.5732849447,
				"z": 1.9887145521,
				"element": "H" 
			},
			{
				"x": 1.0843840439,
				"y": -0.1127142126,
				"z": 3.4622094873,
				"element": "H" 
			},
			{
				"x": 1.9807061069,
				"y": -0.0056982677,
				"z": 1.1280341937,
				"element": "H" 
			}
		],
		 "valence_orbital": [ 
			{
				"type": "occ",
				"energy": -0.28175,
				"method": "rhf"
			},
			{
				"type": "occ",
				"energy": -0.27571,
				"method": "rhf"
			},
			{
				"type": "occ",
				"energy": -0.27281,
				"method": "rhf"
			},
			{
				"type": "occ",
				"energy": -0.25926,
				"method": "rhf"
			},
			{
				"type": "occ",
				"energy": -0.20923,
				"method": "rhf"
			},
			{
				"type": "unocc",
				"energy": -0.03007,
				"method": "rhf"
			},
			{
				"type": "unocc",
				"energy": -0.02621,
				"method": "rhf"
			},
			{
				"type": "unocc",
				"energy": -0.00449,
				"method": "rhf"
			},
			{
				"type": "unocc",
				"energy": 0.00788,
				"method": "rhf"
			},
			{
				"type": "unocc",
				"energy": 0.01745,
				"method": "rhf"
			}
		],
		"cosmo_sigma_profile": { 
			"-0.025": 0.0,
			"-0.024": 0.0,
			"-0.023": 0.0,
			"-0.022": 0.0,
			"-0.021": 0.0,
			"-0.02": 0.0159560251399,
			"-0.019": 0.650829752049,
			"-0.018": 0.929018242333,
			"-0.017": 0.839413646812,
			"-0.016": 1.11258903262,
			"-0.015": 0.64744130228,
			"-0.014": 0.244791661618,
			"-0.013": 0.314093119997,
			"-0.012": 1.44138719304,
			"-0.011": 0.664344766169,
			"-0.01": 0.502656522916,
			"-0.009": 1.73020578648,
			"-0.008": 4.55757572465,
			"-0.007": 8.37733331873,
			"-0.006": 10.909632178,
			"-0.005": 16.012374731,
			"-0.004": 17.3964323842,
			"-0.003": 17.9361943111,
			"-0.002": 22.7801083419,
			"-0.001": 22.1580743428,
			"0.0": 23.5906038711,
			"0.001": 24.5014008519,
			"0.002": 24.9355431283,
			"0.003": 19.5524581919,
			"0.004": 18.3328082428,
			"0.005": 6.80848342427,
			"0.006": 5.13177495939,
			"0.007": 4.16147975205,
			"0.008": 3.54553579186,
			"0.009": 3.92898928964,
			"0.01": 4.18280673,
			"0.011": 6.01771101569,
			"0.012": 5.02569350047,
			"0.013": 1.45556084909,
			"0.014": 0.0119958947306,
			"0.015": 0.0,
			"0.016": 0.0,
			"0.017": 0.0,
			"0.018": 0.0,
			"0.019": 0.0,
			"0.02": 0.0,
			"0.021": 0.0,
			"0.022": 0.0,
			"0.023": 0.0,
			"0.024": 0.0,
			"0.025": 0.0
		}
	}
}
