{
	 "smiles": "COC(=O)C1=C(C=CS1)N=[N+]=[N-]", 
	 "Tm": 343.15, 
	 "num_atms": 17, 
	 "gaussian": { 
		 "optdone": 1, 
		 "sigma_profile": "yes", 
		 "theory": "DFT", 
		 "functional": "B3LYP", 
		 "basiset": "6-31G**", 
		 "properties": { 
			 "R2extent": 2671.576, 
			 "electric_dipole_moment_norm": 1.47717479331, 
			 "electric_quadrupole_moment_norm": 12.7794025893, 
			 "total_energy": -944.458233773, 
			 "HOMO_LUMO_gap": 0.17027, 
			 "cosmo_polarized_energy": -8.33, 
			 "cosmo_cavitation_energy": 24.81, 
			 "cosmo_dispersion_energy": -18.13, 
			 "cosmo_repulsion_energy": 1.4, 
			 "cosmo_total_nonelectrostatic_energy": 8.08, 
			 "SMD_solvation_energy": 4.19 
		},
		"coords": [
			{
				"x": 1.6548127858,
				"y": 2.6188646182,
				"z": -2.0421164567,
				"element": "C" 
			},
			{
				"x": 0.9689111095,
				"y": 1.8483665431,
				"z": -1.0397755882,
				"element": "O" 
			},
			{
				"x": -0.3760472779,
				"y": 1.80569148,
				"z": -1.1583441376,
				"element": "C" 
			},
			{
				"x": -0.991848859,
				"y": 2.3482682336,
				"z": -2.0574660545,
				"element": "O" 
			},
			{
				"x": -1.0076566549,
				"y": 1.0081082196,
				"z": -0.1013733741,
				"element": "C" 
			},
			{
				"x": -0.5204435004,
				"y": 0.3570452357,
				"z": 1.0292591042,
				"element": "C" 
			},
			{
				"x": -1.5278550567,
				"y": -0.4086651004,
				"z": 1.6945616409,
				"element": "C" 
			},
			{
				"x": -2.7481514151,
				"y": -0.3132593185,
				"z": 1.0889088839,
				"element": "C" 
			},
			{
				"x": -2.7152632555,
				"y": 0.6973745056,
				"z": -0.3070436834,
				"element": "S" 
			},
			{
				"x": 0.7677510474,
				"y": 0.3059768901,
				"z": 1.5886472363,
				"element": "N" 
			},
			{
				"x": 1.5908902405,
				"y": 1.2238837966,
				"z": 1.4688971266,
				"element": "N" 
			},
			{
				"x": 2.458699618,
				"y": 1.9601363957,
				"z": 1.495428082,
				"element": "N" 
			},
			{
				"x": 1.2903589696,
				"y": 3.6486264651,
				"z": -2.0503466919,
				"element": "H" 
			},
			{
				"x": 1.5012909977,
				"y": 2.1798354558,
				"z": -3.0307796123,
				"element": "H" 
			},
			{
				"x": 2.7074456355,
				"y": 2.5850201227,
				"z": -1.7634188319,
				"element": "H" 
			},
			{
				"x": -1.321840659,
				"y": -0.9811764676,
				"z": 2.5903472103,
				"element": "H" 
			},
			{
				"x": -3.6740537255,
				"y": -0.7783970755,
				"z": 1.3987151464,
				"element": "H" 
			}
		],
		 "valence_orbital": [ 
			{
				"type": "occ",
				"energy": -0.31304,
				"method": "rhf"
			},
			{
				"type": "occ",
				"energy": -0.30505,
				"method": "rhf"
			},
			{
				"type": "occ",
				"energy": -0.28257,
				"method": "rhf"
			},
			{
				"type": "occ",
				"energy": -0.25922,
				"method": "rhf"
			},
			{
				"type": "occ",
				"energy": -0.23653,
				"method": "rhf"
			},
			{
				"type": "unocc",
				"energy": -0.06626,
				"method": "rhf"
			},
			{
				"type": "unocc",
				"energy": -0.04009,
				"method": "rhf"
			},
			{
				"type": "unocc",
				"energy": -0.00028,
				"method": "rhf"
			},
			{
				"type": "unocc",
				"energy": 0.01887,
				"method": "rhf"
			},
			{
				"type": "unocc",
				"energy": 0.02957,
				"method": "rhf"
			}
		],
		"cosmo_sigma_profile": { 
			"-0.025": 0.0,
			"-0.024": 0.0,
			"-0.023": 0.0,
			"-0.022": 0.0,
			"-0.021": 0.0,
			"-0.02": 0.0,
			"-0.019": 0.0,
			"-0.018": 0.0,
			"-0.017": 0.0,
			"-0.016": 0.0,
			"-0.015": 0.0,
			"-0.014": 0.0,
			"-0.013": 0.0,
			"-0.012": 0.0,
			"-0.011": 0.0,
			"-0.01": 1.3612822803,
			"-0.009": 2.21419317495,
			"-0.008": 3.15645776744,
			"-0.007": 5.82709568634,
			"-0.006": 9.91506743745,
			"-0.005": 12.1174877394,
			"-0.004": 16.7687142339,
			"-0.003": 16.5819908915,
			"-0.002": 10.9997529839,
			"-0.001": 12.6143370039,
			"0.0": 16.6833685258,
			"0.001": 23.4081269575,
			"0.002": 19.0518116327,
			"0.003": 14.914533719,
			"0.004": 7.05201354085,
			"0.005": 6.56589376118,
			"0.006": 5.79914184677,
			"0.007": 3.68239618155,
			"0.008": 2.51549041783,
			"0.009": 2.32748533221,
			"0.01": 1.61610016198,
			"0.011": 3.67022862183,
			"0.012": 3.70125944478,
			"0.013": 0.0316632078115,
			"0.014": 0.0,
			"0.015": 0.0,
			"0.016": 0.0,
			"0.017": 0.0,
			"0.018": 0.0,
			"0.019": 0.0,
			"0.02": 0.0,
			"0.021": 0.0,
			"0.022": 0.0,
			"0.023": 0.0,
			"0.024": 0.0,
			"0.025": 0.0
		}
	}
}
