{
	 "smiles": "CC1=C(C)C=C(C=C1)C(=O)NS(=O)(=O)C1=CC=C(N)C=C1", 
	 "Tm": 495.15, 
	 "num_atms": 37, 
	 "gaussian": { 
		 "optdone": 1, 
		 "sigma_profile": "yes", 
		 "theory": "DFT", 
		 "functional": "B3LYP", 
		 "basiset": "6-31G**", 
		 "properties": { 
			 "R2extent": 8036.5528, 
			 "electric_dipole_moment_norm": 7.64492274127, 
			 "electric_quadrupole_moment_norm": 29.4272119806, 
			 "total_energy": -1314.56037997, 
			 "HOMO_LUMO_gap": 0.17988, 
			 "cosmo_polarized_energy": -21.92, 
			 "cosmo_cavitation_energy": 42.6, 
			 "cosmo_dispersion_energy": -28.9, 
			 "cosmo_repulsion_energy": 2.2, 
			 "cosmo_total_nonelectrostatic_energy": 15.9, 
			 "SMD_solvation_energy": 7.04 
		},
		"coords": [
			{
				"x": -2.3458130704,
				"y": 3.7590318605,
				"z": -0.0210970687,
				"element": "C" 
			},
			{
				"x": -1.9048909813,
				"y": 2.563403138,
				"z": 0.7868174617,
				"element": "C" 
			},
			{
				"x": -2.4944834954,
				"y": 1.2936118123,
				"z": 0.5808776436,
				"element": "C" 
			},
			{
				"x": -3.5809522264,
				"y": 1.1012783141,
				"z": -0.4505535091,
				"element": "C" 
			},
			{
				"x": -2.0637070656,
				"y": 0.2180926407,
				"z": 1.3548008755,
				"element": "C" 
			},
			{
				"x": -1.0466053568,
				"y": 0.3573619479,
				"z": 2.3126200964,
				"element": "C" 
			},
			{
				"x": -0.4743839846,
				"y": 1.616893786,
				"z": 2.5230151033,
				"element": "C" 
			},
			{
				"x": -0.9098363018,
				"y": 2.7000136578,
				"z": 1.7608904191,
				"element": "C" 
			},
			{
				"x": -0.7168793695,
				"y": -0.8402427017,
				"z": 3.1305746864,
				"element": "C" 
			},
			{
				"x": -1.533515793,
				"y": -1.7185140003,
				"z": 3.3642476067,
				"element": "O" 
			},
			{
				"x": 0.5641799112,
				"y": -0.9554246544,
				"z": 3.7206909147,
				"element": "N" 
			},
			{
				"x": 2.1348006015,
				"y": -0.6992912343,
				"z": 3.0420522533,
				"element": "S" 
			},
			{
				"x": 2.9723444681,
				"y": -1.5304579054,
				"z": 3.9094335608,
				"element": "O" 
			},
			{
				"x": 2.3656979329,
				"y": 0.7369467511,
				"z": 2.9016480237,
				"element": "O" 
			},
			{
				"x": 2.0907630289,
				"y": -1.4148883613,
				"z": 1.4163323555,
				"element": "C" 
			},
			{
				"x": 2.2955935769,
				"y": -2.7915102446,
				"z": 1.2656785236,
				"element": "C" 
			},
			{
				"x": 2.2561941245,
				"y": -3.3583051565,
				"z": 0.0009603344,
				"element": "C" 
			},
			{
				"x": 2.0123475556,
				"y": -2.5602250692,
				"z": -1.136605298,
				"element": "C" 
			},
			{
				"x": 2.0198802334,
				"y": -3.1185613474,
				"z": -2.3997197213,
				"element": "N" 
			},
			{
				"x": 1.816758518,
				"y": -1.1747104846,
				"z": -0.9647868852,
				"element": "C" 
			},
			{
				"x": 1.8558512489,
				"y": -0.6050236829,
				"z": 0.3000839943,
				"element": "C" 
			},
			{
				"x": -2.197939946,
				"y": 3.5967135375,
				"z": -1.0957590651,
				"element": "H" 
			},
			{
				"x": -3.4131879805,
				"y": 3.9684554509,
				"z": 0.1195642655,
				"element": "H" 
			},
			{
				"x": -1.7885159763,
				"y": 4.6552954701,
				"z": 0.262243723,
				"element": "H" 
			},
			{
				"x": -3.9243147398,
				"y": 0.0639701868,
				"z": -0.4699932681,
				"element": "H" 
			},
			{
				"x": -3.2343253549,
				"y": 1.3590554913,
				"z": -1.4589028917,
				"element": "H" 
			},
			{
				"x": -4.4506996076,
				"y": 1.7370151778,
				"z": -0.2453949591,
				"element": "H" 
			},
			{
				"x": -2.5193480897,
				"y": -0.7593535977,
				"z": 1.2295099336,
				"element": "H" 
			},
			{
				"x": 0.2940430493,
				"y": 1.7526355641,
				"z": 3.272919203,
				"element": "H" 
			},
			{
				"x": -0.4690868221,
				"y": 3.6786224323,
				"z": 1.9318784692,
				"element": "H" 
			},
			{
				"x": 0.6055098403,
				"y": -1.7950273797,
				"z": 4.2945364562,
				"element": "H" 
			},
			{
				"x": 2.5015091431,
				"y": -3.406283648,
				"z": 2.1353542083,
				"element": "H" 
			},
			{
				"x": 2.4253466971,
				"y": -4.4248850788,
				"z": -0.1191210298,
				"element": "H" 
			},
			{
				"x": 1.5786766238,
				"y": -2.5941829412,
				"z": -3.140138277,
				"element": "H" 
			},
			{
				"x": 1.8828742127,
				"y": -4.1159594601,
				"z": -2.4656915011,
				"element": "H" 
			},
			{
				"x": 1.6429604337,
				"y": -0.5466063577,
				"z": -1.8342611321,
				"element": "H" 
			},
			{
				"x": 1.7150549613,
				"y": 0.4620560867,
				"z": 0.4286944945,
				"element": "H" 
			}
		],
		 "valence_orbital": [ 
			{
				"type": "occ",
				"energy": -0.27228,
				"method": "rhf"
			},
			{
				"type": "occ",
				"energy": -0.26481,
				"method": "rhf"
			},
			{
				"type": "occ",
				"energy": -0.24864,
				"method": "rhf"
			},
			{
				"type": "occ",
				"energy": -0.24408,
				"method": "rhf"
			},
			{
				"type": "occ",
				"energy": -0.22713,
				"method": "rhf"
			},
			{
				"type": "unocc",
				"energy": -0.04725,
				"method": "rhf"
			},
			{
				"type": "unocc",
				"energy": -0.02805,
				"method": "rhf"
			},
			{
				"type": "unocc",
				"energy": -0.0195,
				"method": "rhf"
			},
			{
				"type": "unocc",
				"energy": -0.00261,
				"method": "rhf"
			},
			{
				"type": "unocc",
				"energy": 0.03116,
				"method": "rhf"
			}
		],
		"cosmo_sigma_profile": { 
			"-0.025": 0.0,
			"-0.024": 0.0,
			"-0.023": 0.0,
			"-0.022": 0.0,
			"-0.021": 0.0,
			"-0.02": 0.0,
			"-0.019": 0.0,
			"-0.018": 0.0,
			"-0.017": 0.0,
			"-0.016": 0.0,
			"-0.015": 0.0221775826952,
			"-0.014": 1.58000360225,
			"-0.013": 3.71796112973,
			"-0.012": 3.18711119695,
			"-0.011": 4.1079977718,
			"-0.01": 4.14364128684,
			"-0.009": 4.27705820626,
			"-0.008": 4.76902290993,
			"-0.007": 6.89794323956,
			"-0.006": 10.6296331241,
			"-0.005": 18.1470719602,
			"-0.004": 25.3194542962,
			"-0.003": 20.9464297639,
			"-0.002": 22.4503989242,
			"-0.001": 30.1381642164,
			"0.0": 30.1904650425,
			"0.001": 22.7681513445,
			"0.002": 22.3079643395,
			"0.003": 27.3697006701,
			"0.004": 18.5752070211,
			"0.005": 8.06859016885,
			"0.006": 5.68759168101,
			"0.007": 5.34455332908,
			"0.008": 5.14673689923,
			"0.009": 7.35523420905,
			"0.01": 9.79193345912,
			"0.011": 10.2027665664,
			"0.012": 4.5256533007,
			"0.013": 0.232819978865,
			"0.014": 0.0,
			"0.015": 0.0,
			"0.016": 0.0,
			"0.017": 0.0,
			"0.018": 0.0,
			"0.019": 0.0,
			"0.02": 0.0,
			"0.021": 0.0,
			"0.022": 0.0,
			"0.023": 0.0,
			"0.024": 0.0,
			"0.025": 0.0
		}
	}
}
