{
	 "smiles": "NC1=C(CC2=CC=C(Cl)C=C2)C(N)=NN1", 
	 "Tm": 439.15, 
	 "num_atms": 26, 
	 "gaussian": { 
		 "optdone": 1, 
		 "sigma_profile": "yes", 
		 "theory": "DFT", 
		 "functional": "B3LYP", 
		 "basiset": "6-31G**", 
		 "properties": { 
			 "R2extent": 5340.5192, 
			 "electric_dipole_moment_norm": 1.63687549924, 
			 "electric_quadrupole_moment_norm": 16.7759234488, 
			 "total_energy": -1066.87756026, 
			 "HOMO_LUMO_gap": 0.17611, 
			 "cosmo_polarized_energy": -17.76, 
			 "cosmo_cavitation_energy": 31.87, 
			 "cosmo_dispersion_energy": -22.83, 
			 "cosmo_repulsion_energy": 1.83, 
			 "cosmo_total_nonelectrostatic_energy": 10.87, 
			 "SMD_solvation_energy": 3.65 
		},
		"coords": [
			{
				"x": -0.8407503866,
				"y": 2.1575011571,
				"z": 0.6602127919,
				"element": "N" 
			},
			{
				"x": -1.3021195173,
				"y": 1.0930431333,
				"z": -0.1143628159,
				"element": "C" 
			},
			{
				"x": -0.8005469438,
				"y": -0.1907604542,
				"z": -0.2972940634,
				"element": "C" 
			},
			{
				"x": 0.4839127725,
				"y": -0.785417958,
				"z": 0.2145978529,
				"element": "C" 
			},
			{
				"x": 1.7033776696,
				"y": 0.1113245208,
				"z": 0.0554857059,
				"element": "C" 
			},
			{
				"x": 2.4878284667,
				"y": 0.4726918366,
				"z": 1.1573916053,
				"element": "C" 
			},
			{
				"x": 3.6147174021,
				"y": 1.2880197957,
				"z": 1.0142872467,
				"element": "C" 
			},
			{
				"x": 3.960384769,
				"y": 1.7444096696,
				"z": -0.2543535977,
				"element": "C" 
			},
			{
				"x": 5.3749119335,
				"y": 2.7723250337,
				"z": -0.452502907,
				"element": "Cl" 
			},
			{
				"x": 3.198316124,
				"y": 1.4011298595,
				"z": -1.3732195103,
				"element": "C" 
			},
			{
				"x": 2.0762664691,
				"y": 0.5925907007,
				"z": -1.2092094212,
				"element": "C" 
			},
			{
				"x": -1.7734940957,
				"y": -0.8148002225,
				"z": -1.1336475333,
				"element": "C" 
			},
			{
				"x": -1.683514077,
				"y": -2.1082219391,
				"z": -1.67060591,
				"element": "N" 
			},
			{
				"x": -2.7811556548,
				"y": -0.0124973495,
				"z": -1.4483317835,
				"element": "N" 
			},
			{
				"x": -2.4506868353,
				"y": 1.1744306421,
				"z": -0.8346743368,
				"element": "N" 
			},
			{
				"x": -0.9561384712,
				"y": 3.0602138893,
				"z": 0.2122046389,
				"element": "H" 
			},
			{
				"x": 0.1288671945,
				"y": 2.0342740505,
				"z": 0.9285132437,
				"element": "H" 
			},
			{
				"x": 0.6609124905,
				"y": -1.7161873709,
				"z": -0.3403191128,
				"element": "H" 
			},
			{
				"x": 0.4021869225,
				"y": -1.0764313515,
				"z": 1.2714049755,
				"element": "H" 
			},
			{
				"x": 2.2218999516,
				"y": 0.1082789416,
				"z": 2.1467691643,
				"element": "H" 
			},
			{
				"x": 4.2145094279,
				"y": 1.5622804953,
				"z": 1.8752366772,
				"element": "H" 
			},
			{
				"x": 3.4827291232,
				"y": 1.7634230919,
				"z": -2.3551966874,
				"element": "H" 
			},
			{
				"x": 1.4736745928,
				"y": 0.3312672714,
				"z": -2.0746042676,
				"element": "H" 
			},
			{
				"x": -1.559728256,
				"y": -2.819792995,
				"z": -0.9583498642,
				"element": "H" 
			},
			{
				"x": -2.5121478523,
				"y": -2.3181283103,
				"z": -2.2172368011,
				"element": "H" 
			},
			{
				"x": -3.1422132195,
				"y": 1.9050338621,
				"z": -0.7930952899,
				"element": "H" 
			}
		],
		 "valence_orbital": [ 
			{
				"type": "occ",
				"energy": -0.27462,
				"method": "rhf"
			},
			{
				"type": "occ",
				"energy": -0.26561,
				"method": "rhf"
			},
			{
				"type": "occ",
				"energy": -0.24294,
				"method": "rhf"
			},
			{
				"type": "occ",
				"energy": -0.20696,
				"method": "rhf"
			},
			{
				"type": "occ",
				"energy": -0.19403,
				"method": "rhf"
			},
			{
				"type": "unocc",
				"energy": -0.01792,
				"method": "rhf"
			},
			{
				"type": "unocc",
				"energy": -0.01361,
				"method": "rhf"
			},
			{
				"type": "unocc",
				"energy": 0.02823,
				"method": "rhf"
			},
			{
				"type": "unocc",
				"energy": 0.04428,
				"method": "rhf"
			},
			{
				"type": "unocc",
				"energy": 0.07383,
				"method": "rhf"
			}
		],
		"cosmo_sigma_profile": { 
			"-0.025": 0.0,
			"-0.024": 0.0,
			"-0.023": 0.0,
			"-0.022": 0.0,
			"-0.021": 0.0,
			"-0.02": 0.0,
			"-0.019": 0.0,
			"-0.018": 0.0,
			"-0.017": 0.0,
			"-0.016": 0.0768964871965,
			"-0.015": 1.49111134943,
			"-0.014": 1.6366151798,
			"-0.013": 3.11622296223,
			"-0.012": 3.62017050025,
			"-0.011": 4.02009309465,
			"-0.01": 4.30587462889,
			"-0.009": 5.14475995816,
			"-0.008": 5.6939695534,
			"-0.007": 6.41567749112,
			"-0.006": 11.7615113587,
			"-0.005": 14.5395044707,
			"-0.004": 14.7486430014,
			"-0.003": 12.3452121668,
			"-0.002": 13.4718279173,
			"-0.001": 16.1622766265,
			"0.0": 13.8665283899,
			"0.001": 14.4731168724,
			"0.002": 18.8924522874,
			"0.003": 18.5749805505,
			"0.004": 18.8863539737,
			"0.005": 14.8658461886,
			"0.006": 6.93151205509,
			"0.007": 3.28257848965,
			"0.008": 4.74570812339,
			"0.009": 3.6501496481,
			"0.01": 3.45452970608,
			"0.011": 2.26920146364,
			"0.012": 1.63120049339,
			"0.013": 3.10730455535,
			"0.014": 2.6566593487,
			"0.015": 2.08821263674,
			"0.016": 1.65715610547,
			"0.017": 1.19493189942,
			"0.018": 0.178541483984,
			"0.019": 0.0,
			"0.02": 0.0,
			"0.021": 0.0,
			"0.022": 0.0,
			"0.023": 0.0,
			"0.024": 0.0,
			"0.025": 0.0
		}
	}
}
