{
	 "smiles": "CCCCOC(=O)C1(O)C2=CC=CC=C2C2=CC=CC=C12", 
	 "Tm": 344.15, 
	 "num_atms": 39, 
	 "gaussian": { 
		 "optdone": 1, 
		 "sigma_profile": "yes", 
		 "theory": "DFT", 
		 "functional": "B3LYP", 
		 "basiset": "6-31G**", 
		 "properties": { 
			 "R2extent": 6239.3985, 
			 "electric_dipole_moment_norm": 3.30540973103, 
			 "electric_quadrupole_moment_norm": 13.5946483893, 
			 "total_energy": -922.460992475, 
			 "HOMO_LUMO_gap": 0.1815, 
			 "cosmo_polarized_energy": -11.68, 
			 "cosmo_cavitation_energy": 42.24, 
			 "cosmo_dispersion_energy": -27.48, 
			 "cosmo_repulsion_energy": 2.15, 
			 "cosmo_total_nonelectrostatic_energy": 16.91, 
			 "SMD_solvation_energy": 7.29 
		},
		"coords": [
			{
				"x": 0.196387482,
				"y": 2.4849270952,
				"z": 2.8302538872,
				"element": "C" 
			},
			{
				"x": -0.5339407023,
				"y": 1.1802816673,
				"z": 2.4914670296,
				"element": "C" 
			},
			{
				"x": 0.2275116663,
				"y": -0.0952253709,
				"z": 2.8900798392,
				"element": "C" 
			},
			{
				"x": 1.5338268441,
				"y": -0.3208808387,
				"z": 2.1443048817,
				"element": "C" 
			},
			{
				"x": 1.2153366146,
				"y": -0.4677779615,
				"z": 0.7342958918,
				"element": "O" 
			},
			{
				"x": 2.2428081358,
				"y": -0.6117284033,
				"z": -0.0978715307,
				"element": "C" 
			},
			{
				"x": 3.4134354431,
				"y": -0.6359322475,
				"z": 0.2399745026,
				"element": "O" 
			},
			{
				"x": 1.8323221292,
				"y": -0.749629446,
				"z": -1.5823092304,
				"element": "C" 
			},
			{
				"x": 3.0142049823,
				"y": -0.8946512384,
				"z": -2.333860841,
				"element": "O" 
			},
			{
				"x": 0.9766243908,
				"y": 0.4467861901,
				"z": -2.0062445607,
				"element": "C" 
			},
			{
				"x": 1.3597506206,
				"y": 1.7736186824,
				"z": -2.1335189021,
				"element": "C" 
			},
			{
				"x": 0.4001758947,
				"y": 2.7125780808,
				"z": -2.5331076661,
				"element": "C" 
			},
			{
				"x": -0.9147248481,
				"y": 2.3146086432,
				"z": -2.7953205269,
				"element": "C" 
			},
			{
				"x": -1.295256869,
				"y": 0.973657443,
				"z": -2.6781982275,
				"element": "C" 
			},
			{
				"x": -0.3389490729,
				"y": 0.0358699466,
				"z": -2.2882881264,
				"element": "C" 
			},
			{
				"x": -0.4185673391,
				"y": -1.426953762,
				"z": -2.1337146409,
				"element": "C" 
			},
			{
				"x": -1.4741105377,
				"y": -2.3169734953,
				"z": -2.3319102744,
				"element": "C" 
			},
			{
				"x": -1.2416917211,
				"y": -3.6855965507,
				"z": -2.161008239,
				"element": "C" 
			},
			{
				"x": 0.0249898144,
				"y": -4.1588373067,
				"z": -1.8037178592,
				"element": "C" 
			},
			{
				"x": 1.0842158029,
				"y": -3.2659393321,
				"z": -1.5971962692,
				"element": "C" 
			},
			{
				"x": 0.8477803424,
				"y": -1.9086153725,
				"z": -1.7555475534,
				"element": "C" 
			},
			{
				"x": -0.4184114812,
				"y": 3.353254875,
				"z": 2.573150932,
				"element": "H" 
			},
			{
				"x": 1.138349029,
				"y": 2.5834613438,
				"z": 2.2803068833,
				"element": "H" 
			},
			{
				"x": 0.4275810136,
				"y": 2.5467895968,
				"z": 3.9002565173,
				"element": "H" 
			},
			{
				"x": -0.7495129035,
				"y": 1.1448849255,
				"z": 1.4176781374,
				"element": "H" 
			},
			{
				"x": -1.5049667281,
				"y": 1.1692608288,
				"z": 3.0012666282,
				"element": "H" 
			},
			{
				"x": 0.4669333013,
				"y": -0.0680919128,
				"z": 3.9618171919,
				"element": "H" 
			},
			{
				"x": -0.4144669243,
				"y": -0.9703842058,
				"z": 2.7346815349,
				"element": "H" 
			},
			{
				"x": 2.2345810691,
				"y": 0.5112963726,
				"z": 2.2558521163,
				"element": "H" 
			},
			{
				"x": 2.0406270966,
				"y": -1.2305909547,
				"z": 2.4806083914,
				"element": "H" 
			},
			{
				"x": 3.7392558094,
				"y": -0.8620556873,
				"z": -1.6841152512,
				"element": "H" 
			},
			{
				"x": 2.3850177095,
				"y": 2.0758180161,
				"z": -1.9386727902,
				"element": "H" 
			},
			{
				"x": 0.6796126963,
				"y": 3.7562178822,
				"z": -2.6443847229,
				"element": "H" 
			},
			{
				"x": -1.6479441462,
				"y": 3.0548750661,
				"z": -3.1028113597,
				"element": "H" 
			},
			{
				"x": -2.3159062156,
				"y": 0.6726461889,
				"z": -2.8974665745,
				"element": "H" 
			},
			{
				"x": -2.4584757372,
				"y": -1.9604918983,
				"z": -2.6223646269,
				"element": "H" 
			},
			{
				"x": -2.0534282109,
				"y": -4.3906280504,
				"z": -2.3164639343,
				"element": "H" 
			},
			{
				"x": 0.1889620995,
				"y": -5.226481595,
				"z": -1.6901152314,
				"element": "H" 
			},
			{
				"x": 2.0726634497,
				"y": -3.6291672145,
				"z": -1.3298854259,
				"element": "H" 
			}
		],
		 "valence_orbital": [ 
			{
				"type": "occ",
				"energy": -0.28137,
				"method": "rhf"
			},
			{
				"type": "occ",
				"energy": -0.27406,
				"method": "rhf"
			},
			{
				"type": "occ",
				"energy": -0.24811,
				"method": "rhf"
			},
			{
				"type": "occ",
				"energy": -0.2455,
				"method": "rhf"
			},
			{
				"type": "occ",
				"energy": -0.21561,
				"method": "rhf"
			},
			{
				"type": "unocc",
				"energy": -0.03411,
				"method": "rhf"
			},
			{
				"type": "unocc",
				"energy": -0.01901,
				"method": "rhf"
			},
			{
				"type": "unocc",
				"energy": -0.00797,
				"method": "rhf"
			},
			{
				"type": "unocc",
				"energy": 0.01495,
				"method": "rhf"
			},
			{
				"type": "unocc",
				"energy": 0.04251,
				"method": "rhf"
			}
		],
		"cosmo_sigma_profile": { 
			"-0.025": 0.0,
			"-0.024": 0.0,
			"-0.023": 0.0,
			"-0.022": 0.0,
			"-0.021": 0.0,
			"-0.02": 0.0,
			"-0.019": 0.0,
			"-0.018": 0.0,
			"-0.017": 0.0,
			"-0.016": 0.0,
			"-0.015": 0.0,
			"-0.014": 0.0,
			"-0.013": 0.0,
			"-0.012": 0.0303863105179,
			"-0.011": 0.252238224185,
			"-0.01": 0.557242597934,
			"-0.009": 0.521713814398,
			"-0.008": 0.35284716336,
			"-0.007": 1.73438887259,
			"-0.006": 18.2996650768,
			"-0.005": 24.3081633438,
			"-0.004": 33.1278020533,
			"-0.003": 30.9103879707,
			"-0.002": 28.5746868121,
			"-0.001": 29.0944277045,
			"0.0": 28.9245827152,
			"0.001": 24.9465237169,
			"0.002": 20.7424468093,
			"0.003": 18.3528509367,
			"0.004": 22.7111241223,
			"0.005": 23.3090380536,
			"0.006": 6.70084933846,
			"0.007": 4.06564622064,
			"0.008": 2.45087674689,
			"0.009": 3.57461477316,
			"0.01": 4.1076066532,
			"0.011": 3.13099775867,
			"0.012": 1.58681485663,
			"0.013": 1.87253047544,
			"0.014": 0.242422813727,
			"0.015": 0.0,
			"0.016": 0.0,
			"0.017": 0.0,
			"0.018": 0.0,
			"0.019": 0.0,
			"0.02": 0.0,
			"0.021": 0.0,
			"0.022": 0.0,
			"0.023": 0.0,
			"0.024": 0.0,
			"0.025": 0.0
		}
	}
}
