{
	 "smiles": "COC(=O)C1=CC(CN2CCOCC2)=CC=C1", 
	 "Tm": 319.65, 
	 "num_atms": 34, 
	 "gaussian": { 
		 "optdone": 1, 
		 "sigma_profile": "yes", 
		 "theory": "DFT", 
		 "functional": "B3LYP", 
		 "basiset": "6-31G**", 
		 "properties": { 
			 "R2extent": 5955.3288, 
			 "electric_dipole_moment_norm": 1.82645533479, 
			 "electric_quadrupole_moment_norm": 22.7543550669, 
			 "total_energy": -786.031768447, 
			 "HOMO_LUMO_gap": 0.17094, 
			 "cosmo_polarized_energy": -11.48, 
			 "cosmo_cavitation_energy": 36.32, 
			 "cosmo_dispersion_energy": -25.92, 
			 "cosmo_repulsion_energy": 2.04, 
			 "cosmo_total_nonelectrostatic_energy": 12.44, 
			 "SMD_solvation_energy": 6.01 
		},
		"coords": [
			{
				"x": -4.0164250989,
				"y": -3.0242235335,
				"z": 2.3166236518,
				"element": "C" 
			},
			{
				"x": -3.293700265,
				"y": -1.9666413662,
				"z": 1.6699717035,
				"element": "O" 
			},
			{
				"x": -3.8269749765,
				"y": -0.7315016049,
				"z": 1.8177859443,
				"element": "C" 
			},
			{
				"x": -4.8442829017,
				"y": -0.5226834561,
				"z": 2.45087886,
				"element": "O" 
			},
			{
				"x": -3.0328100091,
				"y": 0.3225416131,
				"z": 1.1240362116,
				"element": "C" 
			},
			{
				"x": -1.8676635936,
				"y": 0.0298659663,
				"z": 0.4058930224,
				"element": "C" 
			},
			{
				"x": -1.1497219236,
				"y": 1.0490996672,
				"z": -0.2293341306,
				"element": "C" 
			},
			{
				"x": 0.0857282158,
				"y": 0.7210018821,
				"z": -1.0528044864,
				"element": "C" 
			},
			{
				"x": 0.9464907023,
				"y": -0.2675520025,
				"z": -0.4137626601,
				"element": "N" 
			},
			{
				"x": 1.5896344437,
				"y": 0.2540833249,
				"z": 0.8003266865,
				"element": "C" 
			},
			{
				"x": 2.759828029,
				"y": -0.6349374601,
				"z": 1.2002568048,
				"element": "C" 
			},
			{
				"x": 3.7966230634,
				"y": -0.6486559869,
				"z": 0.2186747465,
				"element": "O" 
			},
			{
				"x": 3.33960648,
				"y": -0.429310168,
				"z": -1.114271009,
				"element": "C" 
			},
			{
				"x": 1.9097672044,
				"y": -0.9309500679,
				"z": -1.3140072699,
				"element": "C" 
			},
			{
				"x": -1.6141419829,
				"y": 2.3651220214,
				"z": -0.1284160399,
				"element": "C" 
			},
			{
				"x": -2.7803338743,
				"y": 2.6625326593,
				"z": 0.582594821,
				"element": "C" 
			},
			{
				"x": -3.491784687,
				"y": 1.6450479601,
				"z": 1.2097880286,
				"element": "C" 
			},
			{
				"x": -3.4596407336,
				"y": -3.9361541479,
				"z": 2.1007362494,
				"element": "H" 
			},
			{
				"x": -4.0692009637,
				"y": -2.8526627169,
				"z": 3.394817419,
				"element": "H" 
			},
			{
				"x": -5.0338306829,
				"y": -3.0931935569,
				"z": 1.9231237991,
				"element": "H" 
			},
			{
				"x": -1.5036822298,
				"y": -0.9892770609,
				"z": 0.3469200277,
				"element": "H" 
			},
			{
				"x": -0.2394273003,
				"y": 0.3053138991,
				"z": -2.0151409498,
				"element": "H" 
			},
			{
				"x": 0.618978021,
				"y": 1.6651835878,
				"z": -1.2825673539,
				"element": "H" 
			},
			{
				"x": 1.9636432899,
				"y": 1.2856051344,
				"z": 0.6544202585,
				"element": "H" 
			},
			{
				"x": 0.8586375227,
				"y": 0.2951472746,
				"z": 1.616020971,
				"element": "H" 
			},
			{
				"x": 3.2092769023,
				"y": -0.2700536348,
				"z": 2.1295103859,
				"element": "H" 
			},
			{
				"x": 2.3948768341,
				"y": -1.6576864693,
				"z": 1.38328536,
				"element": "H" 
			},
			{
				"x": 3.3993060487,
				"y": 0.6422568753,
				"z": -1.3651633656,
				"element": "H" 
			},
			{
				"x": 4.0299831318,
				"y": -0.9616576451,
				"z": -1.7782866338,
				"element": "H" 
			},
			{
				"x": 1.8918834642,
				"y": -2.0151706169,
				"z": -1.1369971392,
				"element": "H" 
			},
			{
				"x": 1.608199021,
				"y": -0.7749266914,
				"z": -2.3550721827,
				"element": "H" 
			},
			{
				"x": -1.056988278,
				"y": 3.1658030983,
				"z": -0.6094380266,
				"element": "H" 
			},
			{
				"x": -3.1259194657,
				"y": 3.6899073617,
				"z": 0.6506629809,
				"element": "H" 
			},
			{
				"x": -4.3967334075,
				"y": 1.8473258607,
				"z": 1.7723333149,
				"element": "H" 
			}
		],
		 "valence_orbital": [ 
			{
				"type": "occ",
				"energy": -0.27026,
				"method": "rhf"
			},
			{
				"type": "occ",
				"energy": -0.25715,
				"method": "rhf"
			},
			{
				"type": "occ",
				"energy": -0.24998,
				"method": "rhf"
			},
			{
				"type": "occ",
				"energy": -0.24689,
				"method": "rhf"
			},
			{
				"type": "occ",
				"energy": -0.21334,
				"method": "rhf"
			},
			{
				"type": "unocc",
				"energy": -0.0424,
				"method": "rhf"
			},
			{
				"type": "unocc",
				"energy": -0.00895,
				"method": "rhf"
			},
			{
				"type": "unocc",
				"energy": 0.05782,
				"method": "rhf"
			},
			{
				"type": "unocc",
				"energy": 0.07996,
				"method": "rhf"
			},
			{
				"type": "unocc",
				"energy": 0.09872,
				"method": "rhf"
			}
		],
		"cosmo_sigma_profile": { 
			"-0.025": 0.0,
			"-0.024": 0.0,
			"-0.023": 0.0,
			"-0.022": 0.0,
			"-0.021": 0.0,
			"-0.02": 0.0,
			"-0.019": 0.0,
			"-0.018": 0.0,
			"-0.017": 0.0,
			"-0.016": 0.0,
			"-0.015": 0.0,
			"-0.014": 0.0,
			"-0.013": 0.0,
			"-0.012": 0.0,
			"-0.011": 0.0,
			"-0.01": 0.0,
			"-0.009": 0.0,
			"-0.008": 0.0,
			"-0.007": 0.578879517776,
			"-0.006": 9.73036377317,
			"-0.005": 21.4269523926,
			"-0.004": 29.4220739716,
			"-0.003": 43.0627432501,
			"-0.002": 34.7523593233,
			"-0.001": 24.4540142634,
			"0.0": 16.6635503165,
			"0.001": 17.1086428633,
			"0.002": 17.3604385789,
			"0.003": 15.3546804327,
			"0.004": 14.2098375226,
			"0.005": 7.73703196891,
			"0.006": 6.1597385219,
			"0.007": 2.94584484306,
			"0.008": 3.96422971109,
			"0.009": 4.36805753587,
			"0.01": 2.95115692586,
			"0.011": 3.75081427598,
			"0.012": 5.59166588767,
			"0.013": 2.2939514032,
			"0.014": 1.53671926241,
			"0.015": 0.0272304151292,
			"0.016": 0.0,
			"0.017": 0.0,
			"0.018": 0.0,
			"0.019": 0.0,
			"0.02": 0.0,
			"0.021": 0.0,
			"0.022": 0.0,
			"0.023": 0.0,
			"0.024": 0.0,
			"0.025": 0.0
		}
	}
}
