{
	 "smiles": "ClS(=O)(=O)C1CS(=O)(=O)C2=C1C=CC=C2", 
	 "Tm": 418.15, 
	 "num_atms": 22, 
	 "gaussian": { 
		 "optdone": 1, 
		 "sigma_profile": "yes", 
		 "theory": "DFT", 
		 "functional": "B3LYP", 
		 "basiset": "6-31G**", 
		 "properties": { 
			 "R2extent": 6909.4179, 
			 "electric_dipole_moment_norm": 3.686501378, 
			 "electric_quadrupole_moment_norm": 19.4989929086, 
			 "total_energy": -1866.39315463, 
			 "HOMO_LUMO_gap": 0.18353, 
			 "cosmo_polarized_energy": -17.78, 
			 "cosmo_cavitation_energy": 30.36, 
			 "cosmo_dispersion_energy": -22.96, 
			 "cosmo_repulsion_energy": 1.68, 
			 "cosmo_total_nonelectrostatic_energy": 9.08, 
			 "SMD_solvation_energy": 2.73 
		},
		"coords": [
			{
				"x": 3.418118689,
				"y": -4.2547647872,
				"z": 2.3000733417,
				"element": "Cl" 
			},
			{
				"x": 3.3916251243,
				"y": -3.0514692051,
				"z": 0.5417755506,
				"element": "S" 
			},
			{
				"x": 4.3056227963,
				"y": -1.9383325852,
				"z": 0.7625395072,
				"element": "O" 
			},
			{
				"x": 3.5384777138,
				"y": -3.9605036961,
				"z": -0.5892422228,
				"element": "O" 
			},
			{
				"x": 1.6374670954,
				"y": -2.4614962268,
				"z": 0.6189866365,
				"element": "C" 
			},
			{
				"x": 1.4199189431,
				"y": -1.6119236625,
				"z": 1.8760636598,
				"element": "C" 
			},
			{
				"x": 0.1079367475,
				"y": -0.4089964148,
				"z": 1.4276893627,
				"element": "S" 
			},
			{
				"x": -1.1999111393,
				"y": -1.0386660386,
				"z": 1.6572751173,
				"element": "O" 
			},
			{
				"x": 0.3990793069,
				"y": 0.9174737577,
				"z": 1.9807747659,
				"element": "O" 
			},
			{
				"x": 0.5168144484,
				"y": -0.4950424667,
				"z": -0.311498983,
				"element": "C" 
			},
			{
				"x": 1.2905225412,
				"y": -1.6202952127,
				"z": -0.6047986911,
				"element": "C" 
			},
			{
				"x": 1.6180590796,
				"y": -1.8860230424,
				"z": -1.9376268342,
				"element": "C" 
			},
			{
				"x": 1.1783141257,
				"y": -1.0082986188,
				"z": -2.9307922217,
				"element": "C" 
			},
			{
				"x": 0.4143063085,
				"y": 0.1203180126,
				"z": -2.6145997969,
				"element": "C" 
			},
			{
				"x": 0.068116755,
				"y": 0.3854553177,
				"z": -1.2895564868,
				"element": "C" 
			},
			{
				"x": 1.0635623041,
				"y": -3.3928555408,
				"z": 0.6433863755,
				"element": "H" 
			},
			{
				"x": 1.082084821,
				"y": -2.1820955394,
				"z": 2.740530111,
				"element": "H" 
			},
			{
				"x": 2.308732021,
				"y": -1.026176522,
				"z": 2.1218698158,
				"element": "H" 
			},
			{
				"x": 2.2160433869,
				"y": -2.7522800517,
				"z": -2.1968667883,
				"element": "H" 
			},
			{
				"x": 1.4396380426,
				"y": -1.2068894769,
				"z": -3.9654670094,
				"element": "H" 
			},
			{
				"x": 0.087683634,
				"y": 0.7918233963,
				"z": -3.4022864166,
				"element": "H" 
			},
			{
				"x": -0.5249127448,
				"y": 1.2534386034,
				"z": -1.0206287931,
				"element": "H" 
			}
		],
		 "valence_orbital": [ 
			{
				"type": "occ",
				"energy": -0.33398,
				"method": "rhf"
			},
			{
				"type": "occ",
				"energy": -0.32042,
				"method": "rhf"
			},
			{
				"type": "occ",
				"energy": -0.3064,
				"method": "rhf"
			},
			{
				"type": "occ",
				"energy": -0.29431,
				"method": "rhf"
			},
			{
				"type": "occ",
				"energy": -0.28814,
				"method": "rhf"
			},
			{
				"type": "unocc",
				"energy": -0.10461,
				"method": "rhf"
			},
			{
				"type": "unocc",
				"energy": -0.05959,
				"method": "rhf"
			},
			{
				"type": "unocc",
				"energy": -0.05148,
				"method": "rhf"
			},
			{
				"type": "unocc",
				"energy": 0.00147,
				"method": "rhf"
			},
			{
				"type": "unocc",
				"energy": 0.03259,
				"method": "rhf"
			}
		],
		"cosmo_sigma_profile": { 
			"-0.025": 0.0,
			"-0.024": 0.0,
			"-0.023": 0.0,
			"-0.022": 0.0,
			"-0.021": 0.0,
			"-0.02": 0.0,
			"-0.019": 0.0,
			"-0.018": 0.0,
			"-0.017": 0.0,
			"-0.016": 0.0,
			"-0.015": 0.0,
			"-0.014": 0.0,
			"-0.013": 0.0276387253474,
			"-0.012": 2.45154520012,
			"-0.011": 3.03107406165,
			"-0.01": 4.86750900764,
			"-0.009": 5.92031972481,
			"-0.008": 10.6108684744,
			"-0.007": 14.440626236,
			"-0.006": 14.0124662514,
			"-0.005": 9.85874823011,
			"-0.004": 10.9907054187,
			"-0.003": 10.7723899819,
			"-0.002": 13.0950665334,
			"-0.001": 13.9899962131,
			"0.0": 17.7624459597,
			"0.001": 22.488325683,
			"0.002": 16.3264705419,
			"0.003": 12.2319258681,
			"0.004": 5.72960549701,
			"0.005": 4.27403012175,
			"0.006": 6.03484076626,
			"0.007": 10.2766580489,
			"0.008": 10.8429108522,
			"0.009": 5.00952724422,
			"0.01": 10.9317255198,
			"0.011": 9.39284899003,
			"0.012": 0.796428462688,
			"0.013": 0.0,
			"0.014": 0.0,
			"0.015": 0.0,
			"0.016": 0.0,
			"0.017": 0.0,
			"0.018": 0.0,
			"0.019": 0.0,
			"0.02": 0.0,
			"0.021": 0.0,
			"0.022": 0.0,
			"0.023": 0.0,
			"0.024": 0.0,
			"0.025": 0.0
		}
	}
}
