{
	 "smiles": "CC1=C(O)C=C(C=C1)C(=O)NC1=CC(=CC=C1)C(F)(F)F", 
	 "Tm": 443.15, 
	 "num_atms": 33, 
	 "gaussian": { 
		 "optdone": 1, 
		 "sigma_profile": "yes", 
		 "theory": "DFT", 
		 "functional": "B3LYP", 
		 "basiset": "6-31G**", 
		 "properties": { 
			 "R2extent": 6491.107, 
			 "electric_dipole_moment_norm": 3.4200715972, 
			 "electric_quadrupole_moment_norm": 19.2921116001, 
			 "total_energy": -1083.57412593, 
			 "HOMO_LUMO_gap": 0.17975, 
			 "cosmo_polarized_energy": -16.53, 
			 "cosmo_cavitation_energy": 39.24, 
			 "cosmo_dispersion_energy": -26.04, 
			 "cosmo_repulsion_energy": 1.96, 
			 "cosmo_total_nonelectrostatic_energy": 15.15, 
			 "SMD_solvation_energy": 8.71 
		},
		"coords": [
			{
				"x": -2.8051994618,
				"y": -0.1128243499,
				"z": -3.6650587581,
				"element": "C" 
			},
			{
				"x": -1.5599218975,
				"y": -0.3400219084,
				"z": -2.8501509677,
				"element": "C" 
			},
			{
				"x": -0.9108884912,
				"y": 0.7515025143,
				"z": -2.2398847119,
				"element": "C" 
			},
			{
				"x": -1.4643900067,
				"y": 1.9857334693,
				"z": -2.4460267826,
				"element": "O" 
			},
			{
				"x": 0.2377211618,
				"y": 0.5693886974,
				"z": -1.4716230571,
				"element": "C" 
			},
			{
				"x": 0.7743895676,
				"y": -0.715383135,
				"z": -1.3014298134,
				"element": "C" 
			},
			{
				"x": 0.1565421576,
				"y": -1.8053690227,
				"z": -1.9218340934,
				"element": "C" 
			},
			{
				"x": -1.0018451191,
				"y": -1.608530451,
				"z": -2.6727498778,
				"element": "C" 
			},
			{
				"x": 2.0522019846,
				"y": -0.9628466754,
				"z": -0.5646781036,
				"element": "C" 
			},
			{
				"x": 2.8419915106,
				"y": -1.8270307398,
				"z": -0.9235988682,
				"element": "O" 
			},
			{
				"x": 2.393186043,
				"y": -0.1413060759,
				"z": 0.5082482029,
				"element": "N" 
			},
			{
				"x": 1.5945443939,
				"y": 0.5524928245,
				"z": 1.4443157699,
				"element": "C" 
			},
			{
				"x": 0.2779535882,
				"y": 0.1741938853,
				"z": 1.7434514777,
				"element": "C" 
			},
			{
				"x": -0.4484692217,
				"y": 0.8906584857,
				"z": 2.6939288842,
				"element": "C" 
			},
			{
				"x": 0.1227117492,
				"y": 1.9667328084,
				"z": 3.3792757591,
				"element": "C" 
			},
			{
				"x": 1.4397774404,
				"y": 2.3244782301,
				"z": 3.0977756377,
				"element": "C" 
			},
			{
				"x": 2.1691663754,
				"y": 1.631226641,
				"z": 2.1338564832,
				"element": "C" 
			},
			{
				"x": -1.8447799501,
				"y": 0.4499960296,
				"z": 3.049603708,
				"element": "C" 
			},
			{
				"x": -1.8499312454,
				"y": -0.3468443424,
				"z": 4.1431352239,
				"element": "F" 
			},
			{
				"x": -2.4295100402,
				"y": -0.2449925199,
				"z": 2.0510000575,
				"element": "F" 
			},
			{
				"x": -2.641675886,
				"y": 1.5053334782,
				"z": 3.332658893,
				"element": "F" 
			},
			{
				"x": -2.6128017461,
				"y": 0.5728528386,
				"z": -4.4976593418,
				"element": "H" 
			},
			{
				"x": -3.5946084845,
				"y": 0.3471969657,
				"z": -3.0604431932,
				"element": "H" 
			},
			{
				"x": -3.1840059663,
				"y": -1.0537876481,
				"z": -4.0715849866,
				"element": "H" 
			},
			{
				"x": -0.9516595664,
				"y": 2.64943951,
				"z": -1.9668707332,
				"element": "H" 
			},
			{
				"x": 0.7235852907,
				"y": 1.4300984831,
				"z": -1.0198790482,
				"element": "H" 
			},
			{
				"x": 0.5949307349,
				"y": -2.7909483729,
				"z": -1.8138557567,
				"element": "H" 
			},
			{
				"x": -1.4865520185,
				"y": -2.4605826305,
				"z": -3.141998373,
				"element": "H" 
			},
			{
				"x": 3.353451428,
				"y": -0.3046117065,
				"z": 0.788266499,
				"element": "H" 
			},
			{
				"x": -0.1781858782,
				"y": -0.6681309114,
				"z": 1.2398125649,
				"element": "H" 
			},
			{
				"x": -0.4566895088,
				"y": 2.5124581563,
				"z": 4.1154168633,
				"element": "H" 
			},
			{
				"x": 1.8996451424,
				"y": 3.1567442745,
				"z": 3.6217401543,
				"element": "H" 
			},
			{
				"x": 3.1890159199,
				"y": 1.9257831981,
				"z": 1.902240288,
				"element": "H" 
			}
		],
		 "valence_orbital": [ 
			{
				"type": "occ",
				"energy": -0.27803,
				"method": "rhf"
			},
			{
				"type": "occ",
				"energy": -0.26494,
				"method": "rhf"
			},
			{
				"type": "occ",
				"energy": -0.25331,
				"method": "rhf"
			},
			{
				"type": "occ",
				"energy": -0.23707,
				"method": "rhf"
			},
			{
				"type": "occ",
				"energy": -0.22627,
				"method": "rhf"
			},
			{
				"type": "unocc",
				"energy": -0.04652,
				"method": "rhf"
			},
			{
				"type": "unocc",
				"energy": -0.03534,
				"method": "rhf"
			},
			{
				"type": "unocc",
				"energy": -0.01587,
				"method": "rhf"
			},
			{
				"type": "unocc",
				"energy": 0.00391,
				"method": "rhf"
			},
			{
				"type": "unocc",
				"energy": 0.05198,
				"method": "rhf"
			}
		],
		"cosmo_sigma_profile": { 
			"-0.025": 0.0,
			"-0.024": 0.0,
			"-0.023": 0.0,
			"-0.022": 0.0,
			"-0.021": 0.0,
			"-0.02": 0.0,
			"-0.019": 0.0,
			"-0.018": 0.823662274494,
			"-0.017": 1.05786677919,
			"-0.016": 1.07362346642,
			"-0.015": 1.54959805912,
			"-0.014": 1.61819767331,
			"-0.013": 1.90075953727,
			"-0.012": 1.63940552159,
			"-0.011": 2.09174311933,
			"-0.01": 3.06640903118,
			"-0.009": 2.22019944518,
			"-0.008": 2.45952155057,
			"-0.007": 5.91734011,
			"-0.006": 10.9962749157,
			"-0.005": 15.7477986457,
			"-0.004": 18.8275388596,
			"-0.003": 16.7464038286,
			"-0.002": 19.5286340545,
			"-0.001": 20.6091010467,
			"0.0": 27.1934333034,
			"0.001": 26.1358167716,
			"0.002": 35.0265522056,
			"0.003": 48.6262030672,
			"0.004": 15.0350037612,
			"0.005": 6.1498851914,
			"0.006": 2.85660228296,
			"0.007": 2.70152950147,
			"0.008": 4.05151439086,
			"0.009": 2.32657587782,
			"0.01": 3.65812841065,
			"0.011": 2.09772042784,
			"0.012": 3.84469033478,
			"0.013": 4.76231662428,
			"0.014": 0.833023100545,
			"0.015": 0.0,
			"0.016": 0.0,
			"0.017": 0.0,
			"0.018": 0.0,
			"0.019": 0.0,
			"0.02": 0.0,
			"0.021": 0.0,
			"0.022": 0.0,
			"0.023": 0.0,
			"0.024": 0.0,
			"0.025": 0.0
		}
	}
}
