{
	 "smiles": "O=C(C1=CC=CS1)C1=CC=CS1", 
	 "Tm": 362.65, 
	 "num_atms": 18, 
	 "gaussian": { 
		 "optdone": 1, 
		 "sigma_profile": "yes", 
		 "theory": "DFT", 
		 "functional": "B3LYP", 
		 "basiset": "6-31G**", 
		 "properties": { 
			 "R2extent": 3544.786, 
			 "electric_dipole_moment_norm": 3.28562338225, 
			 "electric_quadrupole_moment_norm": 19.7148701003, 
			 "total_energy": -1218.14062863, 
			 "HOMO_LUMO_gap": 0.16839, 
			 "cosmo_polarized_energy": -9.73, 
			 "cosmo_cavitation_energy": 25.69, 
			 "cosmo_dispersion_energy": -20.12, 
			 "cosmo_repulsion_energy": 1.48, 
			 "cosmo_total_nonelectrostatic_energy": 7.05, 
			 "SMD_solvation_energy": 5.03 
		},
		"coords": [
			{
				"x": -1.5894879038,
				"y": 0.4682861538,
				"z": -2.4624991094,
				"element": "O" 
			},
			{
				"x": -1.1305683613,
				"y": 0.8818828465,
				"z": -1.3977687608,
				"element": "C" 
			},
			{
				"x": -0.9831819119,
				"y": 2.3440783842,
				"z": -1.1986914064,
				"element": "C" 
			},
			{
				"x": -1.5976677909,
				"y": 3.2799841736,
				"z": -2.0031824882,
				"element": "C" 
			},
			{
				"x": -1.2740401095,
				"y": 4.6193180626,
				"z": -1.6646545213,
				"element": "C" 
			},
			{
				"x": -0.3974732371,
				"y": 4.6979939835,
				"z": -0.6122871213,
				"element": "C" 
			},
			{
				"x": 0.0382839928,
				"y": 3.1367166266,
				"z": -0.0161348809,
				"element": "S" 
			},
			{
				"x": -0.738506163,
				"y": -0.0765161367,
				"z": -0.3470212912,
				"element": "C" 
			},
			{
				"x": -0.4998789479,
				"y": 0.0723091601,
				"z": 1.0050487412,
				"element": "C" 
			},
			{
				"x": -0.1966568865,
				"y": -1.1532089973,
				"z": 1.6560855703,
				"element": "C" 
			},
			{
				"x": -0.2147541328,
				"y": -2.2207256367,
				"z": 0.7933199907,
				"element": "C" 
			},
			{
				"x": -0.6156008398,
				"y": -1.7563761735,
				"z": -0.8184148647,
				"element": "S" 
			},
			{
				"x": -2.2558449946,
				"y": 2.9814567153,
				"z": -2.8096906429,
				"element": "H" 
			},
			{
				"x": -1.6670189311,
				"y": 5.4879672576,
				"z": -2.1800838332,
				"element": "H" 
			},
			{
				"x": 0.0223547554,
				"y": 5.5843344734,
				"z": -0.1559543734,
				"element": "H" 
			},
			{
				"x": -0.5683706235,
				"y": 1.0203254201,
				"z": 1.5232955233,
				"element": "H" 
			},
			{
				"x": 0.0189527814,
				"y": -1.2385745101,
				"z": 2.7148382265,
				"element": "H" 
			},
			{
				"x": -0.016240696,
				"y": -3.2591518031,
				"z": 1.0229952417,
				"element": "H" 
			}
		],
		 "valence_orbital": [ 
			{
				"type": "occ",
				"energy": -0.26475,
				"method": "rhf"
			},
			{
				"type": "occ",
				"energy": -0.26212,
				"method": "rhf"
			},
			{
				"type": "occ",
				"energy": -0.25963,
				"method": "rhf"
			},
			{
				"type": "occ",
				"energy": -0.24492,
				"method": "rhf"
			},
			{
				"type": "occ",
				"energy": -0.24397,
				"method": "rhf"
			},
			{
				"type": "unocc",
				"energy": -0.07558,
				"method": "rhf"
			},
			{
				"type": "unocc",
				"energy": -0.02432,
				"method": "rhf"
			},
			{
				"type": "unocc",
				"energy": 0.01846,
				"method": "rhf"
			},
			{
				"type": "unocc",
				"energy": 0.03251,
				"method": "rhf"
			},
			{
				"type": "unocc",
				"energy": 0.03421,
				"method": "rhf"
			}
		],
		"cosmo_sigma_profile": { 
			"-0.025": 0.0,
			"-0.024": 0.0,
			"-0.023": 0.0,
			"-0.022": 0.0,
			"-0.021": 0.0,
			"-0.02": 0.0,
			"-0.019": 0.0,
			"-0.018": 0.0,
			"-0.017": 0.0,
			"-0.016": 0.0,
			"-0.015": 0.0,
			"-0.014": 0.0,
			"-0.013": 0.0,
			"-0.012": 0.0,
			"-0.011": 0.0,
			"-0.01": 0.703152429799,
			"-0.009": 4.00873515837,
			"-0.008": 5.19423873768,
			"-0.007": 9.52138852066,
			"-0.006": 10.775694019,
			"-0.005": 11.2402945308,
			"-0.004": 11.4884237034,
			"-0.003": 10.868356275,
			"-0.002": 12.5288106002,
			"-0.001": 13.2825006263,
			"0.0": 16.0826208869,
			"0.001": 18.7595649821,
			"0.002": 28.5860648735,
			"0.003": 26.735675794,
			"0.004": 11.743358699,
			"0.005": 2.15433575791,
			"0.006": 2.1671438138,
			"0.007": 2.31399581847,
			"0.008": 1.97351860532,
			"0.009": 1.5551029118,
			"0.01": 1.99779293687,
			"0.011": 3.0865221271,
			"0.012": 4.36829461571,
			"0.013": 0.723517033329,
			"0.014": 0.0,
			"0.015": 0.0,
			"0.016": 0.0,
			"0.017": 0.0,
			"0.018": 0.0,
			"0.019": 0.0,
			"0.02": 0.0,
			"0.021": 0.0,
			"0.022": 0.0,
			"0.023": 0.0,
			"0.024": 0.0,
			"0.025": 0.0
		}
	}
}
