{
	 "smiles": "O=CC1=C2N=CC=CN2N=C1", 
	 "Tm": 423.15, 
	 "num_atms": 16, 
	 "gaussian": { 
		 "optdone": 1, 
		 "sigma_profile": "yes", 
		 "theory": "DFT", 
		 "functional": "B3LYP", 
		 "basiset": "6-31G**", 
		 "properties": { 
			 "R2extent": 2037.4175, 
			 "electric_dipole_moment_norm": 4.86226369709, 
			 "electric_quadrupole_moment_norm": 19.781425873, 
			 "total_energy": -509.189305758, 
			 "HOMO_LUMO_gap": 0.16856, 
			 "cosmo_polarized_energy": -16.58, 
			 "cosmo_cavitation_energy": 21.41, 
			 "cosmo_dispersion_energy": -15.85, 
			 "cosmo_repulsion_energy": 1.25, 
			 "cosmo_total_nonelectrostatic_energy": 6.81, 
			 "SMD_solvation_energy": 2.99 
		},
		"coords": [
			{
				"x": -3.719002714,
				"y": -1.9877528417,
				"z": -1.5538854083,
				"element": "O" 
			},
			{
				"x": -3.1033804777,
				"y": -2.0522066235,
				"z": -0.5054686405,
				"element": "C" 
			},
			{
				"x": -1.8542865415,
				"y": -1.362945864,
				"z": -0.2006522601,
				"element": "C" 
			},
			{
				"x": -1.0873940136,
				"y": -0.4944370147,
				"z": -1.0027873284,
				"element": "C" 
			},
			{
				"x": -1.2232831202,
				"y": -0.0212718582,
				"z": -2.2536123407,
				"element": "N" 
			},
			{
				"x": -0.2835351811,
				"y": 0.7968453509,
				"z": -2.6901160166,
				"element": "C" 
			},
			{
				"x": 0.8436611321,
				"y": 1.1968345509,
				"z": -1.9223552148,
				"element": "C" 
			},
			{
				"x": 0.9712737428,
				"y": 0.7079288746,
				"z": -0.6486528878,
				"element": "C" 
			},
			{
				"x": 0.0057784264,
				"y": -0.133342125,
				"z": -0.1984761722,
				"element": "N" 
			},
			{
				"x": -0.021239327,
				"y": -0.7059735137,
				"z": 1.033705352,
				"element": "N" 
			},
			{
				"x": -1.1374891883,
				"y": -1.4354624558,
				"z": 1.0141511919,
				"element": "C" 
			},
			{
				"x": -3.4756930658,
				"y": -2.6781720384,
				"z": 0.3380160899,
				"element": "H" 
			},
			{
				"x": -0.4040710782,
				"y": 1.1734118321,
				"z": -3.7038189338,
				"element": "H" 
			},
			{
				"x": 1.5870467685,
				"y": 1.8713985669,
				"z": -2.3286148171,
				"element": "H" 
			},
			{
				"x": 1.7748287935,
				"y": 0.9278265701,
				"z": 0.0435745796,
				"element": "H" 
			},
			{
				"x": -1.403614156,
				"y": -2.0077814105,
				"z": 1.8943928068,
				"element": "H" 
			}
		],
		 "valence_orbital": [ 
			{
				"type": "occ",
				"energy": -0.33257,
				"method": "rhf"
			},
			{
				"type": "occ",
				"energy": -0.2822,
				"method": "rhf"
			},
			{
				"type": "occ",
				"energy": -0.28119,
				"method": "rhf"
			},
			{
				"type": "occ",
				"energy": -0.24141,
				"method": "rhf"
			},
			{
				"type": "occ",
				"energy": -0.24135,
				"method": "rhf"
			},
			{
				"type": "unocc",
				"energy": -0.07279,
				"method": "rhf"
			},
			{
				"type": "unocc",
				"energy": -0.0443,
				"method": "rhf"
			},
			{
				"type": "unocc",
				"energy": -0.01188,
				"method": "rhf"
			},
			{
				"type": "unocc",
				"energy": 0.07524,
				"method": "rhf"
			},
			{
				"type": "unocc",
				"energy": 0.07649,
				"method": "rhf"
			}
		],
		"cosmo_sigma_profile": { 
			"-0.025": 0.0,
			"-0.024": 0.0,
			"-0.023": 0.0,
			"-0.022": 0.0,
			"-0.021": 0.0,
			"-0.02": 0.0,
			"-0.019": 0.0,
			"-0.018": 0.0,
			"-0.017": 0.0,
			"-0.016": 0.0,
			"-0.015": 0.0,
			"-0.014": 0.0,
			"-0.013": 0.0,
			"-0.012": 0.0793885258116,
			"-0.011": 1.80040346204,
			"-0.01": 1.82518928499,
			"-0.009": 6.8058231987,
			"-0.008": 10.4494443501,
			"-0.007": 8.95756445998,
			"-0.006": 8.72017158679,
			"-0.005": 10.1636379299,
			"-0.004": 10.8758211179,
			"-0.003": 12.3118127032,
			"-0.002": 12.6075725413,
			"-0.001": 12.8183385999,
			"0.0": 12.6211594403,
			"0.001": 9.32661926452,
			"0.002": 5.40916035731,
			"0.003": 3.44397549605,
			"0.004": 2.76577352174,
			"0.005": 4.2549196275,
			"0.006": 3.93769255644,
			"0.007": 2.65458410757,
			"0.008": 3.45121714656,
			"0.009": 3.67360749887,
			"0.01": 3.44779515533,
			"0.011": 4.73794509596,
			"0.012": 6.74200073468,
			"0.013": 4.93564926247,
			"0.014": 2.40358543136,
			"0.015": 1.77046520303,
			"0.016": 0.684042518581,
			"0.017": 0.0,
			"0.018": 0.0,
			"0.019": 0.0,
			"0.02": 0.0,
			"0.021": 0.0,
			"0.022": 0.0,
			"0.023": 0.0,
			"0.024": 0.0,
			"0.025": 0.0
		}
	}
}
