{
	 "smiles": "CNS(N)(=O)=O", 
	 "Tm": 323.15, 
	 "num_atms": 12, 
	 "gaussian": { 
		 "optdone": 1, 
		 "sigma_profile": "yes", 
		 "theory": "DFT", 
		 "functional": "B3LYP", 
		 "basiset": "6-31G**", 
		 "properties": { 
			 "R2extent": 783.252, 
			 "electric_dipole_moment_norm": 3.14928031937, 
			 "electric_quadrupole_moment_norm": 10.7301485297, 
			 "total_energy": -699.787323101, 
			 "HOMO_LUMO_gap": 0.31738, 
			 "cosmo_polarized_energy": -15.69, 
			 "cosmo_cavitation_energy": 16.85, 
			 "cosmo_dispersion_energy": -13.48, 
			 "cosmo_repulsion_energy": 1.12, 
			 "cosmo_total_nonelectrostatic_energy": 4.49, 
			 "SMD_solvation_energy": 2.29 
		},
		"coords": [
			{
				"x": 0.6079679802,
				"y": 0.6047660748,
				"z": 1.5722719446,
				"element": "C" 
			},
			{
				"x": 1.2359550332,
				"y": 0.5591558711,
				"z": 0.2450844485,
				"element": "N" 
			},
			{
				"x": 0.2195215801,
				"y": 0.6698854646,
				"z": -1.0844281456,
				"element": "S" 
			},
			{
				"x": -0.380818445,
				"y": -0.9037582294,
				"z": -1.075502775,
				"element": "N" 
			},
			{
				"x": 1.1094687116,
				"y": 0.9278954189,
				"z": -2.2165436412,
				"element": "O" 
			},
			{
				"x": -0.9496882226,
				"y": 1.5158539818,
				"z": -0.8444679351,
				"element": "O" 
			},
			{
				"x": 0.0597499912,
				"y": 1.534461878,
				"z": 1.760993801,
				"element": "H" 
			},
			{
				"x": 1.3969186599,
				"y": 0.4851400366,
				"z": 2.3184386416,
				"element": "H" 
			},
			{
				"x": -0.0795738002,
				"y": -0.2387127084,
				"z": 1.659543435,
				"element": "H" 
			},
			{
				"x": 1.9799536786,
				"y": 1.2388206151,
				"z": 0.1089783595,
				"element": "H" 
			},
			{
				"x": -1.2679657603,
				"y": -0.9184810356,
				"z": -1.5716751108,
				"element": "H" 
			},
			{
				"x": 0.2879105935,
				"y": -1.5494273676,
				"z": -1.4879930225,
				"element": "H" 
			}
		],
		 "valence_orbital": [ 
			{
				"type": "occ",
				"energy": -0.34423,
				"method": "rhf"
			},
			{
				"type": "occ",
				"energy": -0.325,
				"method": "rhf"
			},
			{
				"type": "occ",
				"energy": -0.30708,
				"method": "rhf"
			},
			{
				"type": "occ",
				"energy": -0.29715,
				"method": "rhf"
			},
			{
				"type": "occ",
				"energy": -0.27011,
				"method": "rhf"
			},
			{
				"type": "unocc",
				"energy": 0.04727,
				"method": "rhf"
			},
			{
				"type": "unocc",
				"energy": 0.08637,
				"method": "rhf"
			},
			{
				"type": "unocc",
				"energy": 0.09016,
				"method": "rhf"
			},
			{
				"type": "unocc",
				"energy": 0.098,
				"method": "rhf"
			},
			{
				"type": "unocc",
				"energy": 0.10503,
				"method": "rhf"
			}
		],
		"cosmo_sigma_profile": { 
			"-0.025": 0.0,
			"-0.024": 0.0,
			"-0.023": 0.0,
			"-0.022": 0.0,
			"-0.021": 0.0,
			"-0.02": 0.0,
			"-0.019": 0.0,
			"-0.018": 0.0,
			"-0.017": 0.0,
			"-0.016": 0.0614970252286,
			"-0.015": 2.83819097871,
			"-0.014": 3.69374550516,
			"-0.013": 4.10458690027,
			"-0.012": 3.60131920967,
			"-0.011": 2.8391830335,
			"-0.01": 2.79856354146,
			"-0.009": 3.05891719912,
			"-0.008": 2.69991345761,
			"-0.007": 3.15139810562,
			"-0.006": 4.20537237397,
			"-0.005": 6.69165892316,
			"-0.004": 7.83865127351,
			"-0.003": 8.28848156924,
			"-0.002": 8.49263844221,
			"-0.001": 3.38223658794,
			"0.0": 4.15715465135,
			"0.001": 2.30384060353,
			"0.002": 4.0586941541,
			"0.003": 4.19374481761,
			"0.004": 4.37331882668,
			"0.005": 4.1984721438,
			"0.006": 4.2456023099,
			"0.007": 3.92174802245,
			"0.008": 3.40781850471,
			"0.009": 4.50363045619,
			"0.01": 7.26460505091,
			"0.011": 12.5834851545,
			"0.012": 5.17235297679,
			"0.013": 0.00363296306871,
			"0.014": 0.0,
			"0.015": 0.0,
			"0.016": 0.0,
			"0.017": 0.0,
			"0.018": 0.0,
			"0.019": 0.0,
			"0.02": 0.0,
			"0.021": 0.0,
			"0.022": 0.0,
			"0.023": 0.0,
			"0.024": 0.0,
			"0.025": 0.0
		}
	}
}
