{
	 "smiles": "CC1=CC=CC(O)=C1C", 
	 "Tm": 346.35, 
	 "num_atms": 19, 
	 "gaussian": { 
		 "optdone": 1, 
		 "sigma_profile": "yes", 
		 "theory": "DFT", 
		 "functional": "B3LYP", 
		 "basiset": "6-31G**", 
		 "properties": { 
			 "R2extent": 1840.7314, 
			 "electric_dipole_moment_norm": 1.92042811373, 
			 "electric_quadrupole_moment_norm": 7.70002468762, 
			 "total_energy": -386.109528226, 
			 "HOMO_LUMO_gap": 0.21652, 
			 "cosmo_polarized_energy": -7.34, 
			 "cosmo_cavitation_energy": 21.49, 
			 "cosmo_dispersion_energy": -16.15, 
			 "cosmo_repulsion_energy": 1.31, 
			 "cosmo_total_nonelectrostatic_energy": 6.65, 
			 "SMD_solvation_energy": 3.94 
		},
		"coords": [
			{
				"x": -0.8368853519,
				"y": 1.6598142742,
				"z": -1.9185235259,
				"element": "C" 
			},
			{
				"x": -0.2281857255,
				"y": 0.3081463279,
				"z": -1.6125140917,
				"element": "C" 
			},
			{
				"x": -1.0722986262,
				"y": -0.7858260917,
				"z": -1.3853220244,
				"element": "C" 
			},
			{
				"x": -0.5501595256,
				"y": -2.0478433031,
				"z": -1.1003500668,
				"element": "C" 
			},
			{
				"x": 0.8254398891,
				"y": -2.2374252779,
				"z": -1.0376896095,
				"element": "C" 
			},
			{
				"x": 1.6743499291,
				"y": -1.1508774323,
				"z": -1.2630897431,
				"element": "C" 
			},
			{
				"x": 3.0193714697,
				"y": -1.4000618981,
				"z": -1.1873943221,
				"element": "O" 
			},
			{
				"x": 1.1694901302,
				"y": 0.130447903,
				"z": -1.5521187509,
				"element": "C" 
			},
			{
				"x": 2.1491817553,
				"y": 1.2601904379,
				"z": -1.785223648,
				"element": "C" 
			},
			{
				"x": -0.527713596,
				"y": 2.0379329588,
				"z": -2.9002132851,
				"element": "H" 
			},
			{
				"x": -0.5525605952,
				"y": 2.4167175223,
				"z": -1.177935836,
				"element": "H" 
			},
			{
				"x": -1.9281209553,
				"y": 1.5982942609,
				"z": -1.9207468019,
				"element": "H" 
			},
			{
				"x": -2.1482478083,
				"y": -0.6436836686,
				"z": -1.4329267025,
				"element": "H" 
			},
			{
				"x": -1.2187477878,
				"y": -2.8862208671,
				"z": -0.9266021851,
				"element": "H" 
			},
			{
				"x": 1.2632354094,
				"y": -3.2055634048,
				"z": -0.8184859467,
				"element": "H" 
			},
			{
				"x": 3.5083191794,
				"y": -0.5864355638,
				"z": -1.3598804483,
				"element": "H" 
			},
			{
				"x": 1.6453047966,
				"y": 2.2024058742,
				"z": -2.0002800672,
				"element": "H" 
			},
			{
				"x": 2.8133600137,
				"y": 1.056513404,
				"z": -2.6372614101,
				"element": "H" 
			},
			{
				"x": 2.7864673994,
				"y": 1.4368745441,
				"z": -0.9070415347,
				"element": "H" 
			}
		],
		 "valence_orbital": [ 
			{
				"type": "occ",
				"energy": -0.34405,
				"method": "rhf"
			},
			{
				"type": "occ",
				"energy": -0.32583,
				"method": "rhf"
			},
			{
				"type": "occ",
				"energy": -0.31823,
				"method": "rhf"
			},
			{
				"type": "occ",
				"energy": -0.23239,
				"method": "rhf"
			},
			{
				"type": "occ",
				"energy": -0.21112,
				"method": "rhf"
			},
			{
				"type": "unocc",
				"energy": 0.0054,
				"method": "rhf"
			},
			{
				"type": "unocc",
				"energy": 0.02187,
				"method": "rhf"
			},
			{
				"type": "unocc",
				"energy": 0.0678,
				"method": "rhf"
			},
			{
				"type": "unocc",
				"energy": 0.10645,
				"method": "rhf"
			},
			{
				"type": "unocc",
				"energy": 0.12246,
				"method": "rhf"
			}
		],
		"cosmo_sigma_profile": { 
			"-0.025": 0.0,
			"-0.024": 0.0,
			"-0.023": 0.0,
			"-0.022": 0.0,
			"-0.021": 0.0,
			"-0.02": 0.0,
			"-0.019": 0.0,
			"-0.018": 0.0,
			"-0.017": 0.0,
			"-0.016": 0.155718675789,
			"-0.015": 0.522783616469,
			"-0.014": 0.931614379745,
			"-0.013": 0.870689829351,
			"-0.012": 1.23656283043,
			"-0.011": 1.24842584631,
			"-0.01": 0.558338059804,
			"-0.009": 1.5231422203,
			"-0.008": 1.3836588009,
			"-0.007": 1.33057340268,
			"-0.006": 2.36314604137,
			"-0.005": 7.79475494237,
			"-0.004": 15.8315749197,
			"-0.003": 16.866019849,
			"-0.002": 16.7908086041,
			"-0.001": 15.4570002911,
			"0.0": 16.8155445613,
			"0.001": 10.5079966423,
			"0.002": 7.89606164355,
			"0.003": 7.03428972598,
			"0.004": 8.2012961592,
			"0.005": 9.71682915135,
			"0.006": 8.71365067824,
			"0.007": 7.35426415313,
			"0.008": 2.43065005604,
			"0.009": 0.846093735057,
			"0.01": 1.63996409629,
			"0.011": 2.07466028688,
			"0.012": 1.39264195743,
			"0.013": 0.0,
			"0.014": 0.0,
			"0.015": 0.0,
			"0.016": 0.0,
			"0.017": 0.0,
			"0.018": 0.0,
			"0.019": 0.0,
			"0.02": 0.0,
			"0.021": 0.0,
			"0.022": 0.0,
			"0.023": 0.0,
			"0.024": 0.0,
			"0.025": 0.0
		}
	}
}
