{
	 "smiles": "CCOC(=O)CCC(=O)OC(C(=O)C1=CC=CC=C1)C1=CC=CC=C1", 
	 "Tm": 325.65, 
	 "num_atms": 45, 
	 "gaussian": { 
		 "optdone": 1, 
		 "sigma_profile": "yes", 
		 "theory": "DFT", 
		 "functional": "B3LYP", 
		 "basiset": "6-31G**", 
		 "properties": { 
			 "R2extent": 8203.3642, 
			 "electric_dipole_moment_norm": 5.48387267814, 
			 "electric_quadrupole_moment_norm": 9.66444432495, 
			 "total_energy": -1150.33004786, 
			 "HOMO_LUMO_gap": 0.17702, 
			 "cosmo_polarized_energy": -16.12, 
			 "cosmo_cavitation_energy": 49.18, 
			 "cosmo_dispersion_energy": -30.9, 
			 "cosmo_repulsion_energy": 2.35, 
			 "cosmo_total_nonelectrostatic_energy": 20.64, 
			 "SMD_solvation_energy": 9.95 
		},
		"coords": [
			{
				"x": -0.7351110424,
				"y": 2.8902622822,
				"z": -4.6603921966,
				"element": "C" 
			},
			{
				"x": -0.2569978227,
				"y": 2.430731121,
				"z": -3.2918724399,
				"element": "C" 
			},
			{
				"x": -0.3800867757,
				"y": 0.9915699764,
				"z": -3.1439651854,
				"element": "O" 
			},
			{
				"x": -1.5914053578,
				"y": 0.5221329899,
				"z": -2.7772459712,
				"element": "C" 
			},
			{
				"x": -2.5505394255,
				"y": 1.2271317275,
				"z": -2.5379892633,
				"element": "O" 
			},
			{
				"x": -1.6038536223,
				"y": -0.9958824097,
				"z": -2.7515788859,
				"element": "C" 
			},
			{
				"x": -2.6457284164,
				"y": -1.5691885118,
				"z": -1.7831189035,
				"element": "C" 
			},
			{
				"x": -2.2398423214,
				"y": -1.581419088,
				"z": -0.3213895249,
				"element": "C" 
			},
			{
				"x": -2.5505210775,
				"y": -2.4367114431,
				"z": 0.4744791444,
				"element": "O" 
			},
			{
				"x": -1.4994248973,
				"y": -0.4860765892,
				"z": 0.0003908914,
				"element": "O" 
			},
			{
				"x": -1.0967272166,
				"y": -0.3493491721,
				"z": 1.3782995107,
				"element": "C" 
			},
			{
				"x": 0.1643136762,
				"y": -1.1813227243,
				"z": 1.7091001379,
				"element": "C" 
			},
			{
				"x": 0.2386884651,
				"y": -1.6559745087,
				"z": 2.8318342542,
				"element": "O" 
			},
			{
				"x": 1.2609060535,
				"y": -1.3745404284,
				"z": 0.7127783344,
				"element": "C" 
			},
			{
				"x": 1.4183984388,
				"y": -0.577833022,
				"z": -0.4329111682,
				"element": "C" 
			},
			{
				"x": 2.4882890383,
				"y": -0.8025708195,
				"z": -1.2994277621,
				"element": "C" 
			},
			{
				"x": 3.4038596996,
				"y": -1.8233122145,
				"z": -1.0356789955,
				"element": "C" 
			},
			{
				"x": 3.2562497326,
				"y": -2.6170126742,
				"z": 0.1062019489,
				"element": "C" 
			},
			{
				"x": 2.1959358662,
				"y": -2.3897569633,
				"z": 0.977625226,
				"element": "C" 
			},
			{
				"x": -0.9149564342,
				"y": 1.1323993261,
				"z": 1.6895125076,
				"element": "C" 
			},
			{
				"x": -1.4321250215,
				"y": 2.1196148877,
				"z": 0.8404732685,
				"element": "C" 
			},
			{
				"x": -1.2934333023,
				"y": 3.4698718486,
				"z": 1.1704186127,
				"element": "C" 
			},
			{
				"x": -0.6432419202,
				"y": 3.8494637503,
				"z": 2.3447378848,
				"element": "C" 
			},
			{
				"x": -0.1369672783,
				"y": 2.8668547721,
				"z": 3.1974796042,
				"element": "C" 
			},
			{
				"x": -0.2728119105,
				"y": 1.516816591,
				"z": 2.8753379031,
				"element": "C" 
			},
			{
				"x": -0.1968329083,
				"y": 2.3688270681,
				"z": -5.4574037224,
				"element": "H" 
			},
			{
				"x": -0.5570951428,
				"y": 3.9648475316,
				"z": -4.7727818412,
				"element": "H" 
			},
			{
				"x": -1.8062035979,
				"y": 2.7077692456,
				"z": -4.7758573954,
				"element": "H" 
			},
			{
				"x": -0.8189227407,
				"y": 2.915017646,
				"z": -2.4903903781,
				"element": "H" 
			},
			{
				"x": 0.8089631125,
				"y": 2.6240993744,
				"z": -3.1531235025,
				"element": "H" 
			},
			{
				"x": -1.8528280125,
				"y": -1.3179616165,
				"z": -3.7710340344,
				"element": "H" 
			},
			{
				"x": -0.5969159883,
				"y": -1.3657377656,
				"z": -2.5451574189,
				"element": "H" 
			},
			{
				"x": -2.8986428628,
				"y": -2.5992112843,
				"z": -2.0415513899,
				"element": "H" 
			},
			{
				"x": -3.5626524259,
				"y": -0.9724888113,
				"z": -1.8612860263,
				"element": "H" 
			},
			{
				"x": -1.8797004695,
				"y": -0.7801036503,
				"z": 2.0087200721,
				"element": "H" 
			},
			{
				"x": 0.7178189818,
				"y": 0.2183971843,
				"z": -0.648369398,
				"element": "H" 
			},
			{
				"x": 2.6003205174,
				"y": -0.1806985827,
				"z": -2.1824744593,
				"element": "H" 
			},
			{
				"x": 4.2317961017,
				"y": -1.9997480847,
				"z": -1.7166815828,
				"element": "H" 
			},
			{
				"x": 3.9690062432,
				"y": -3.4095668024,
				"z": 0.3145077289,
				"element": "H" 
			},
			{
				"x": 2.0668030618,
				"y": -2.9864256209,
				"z": 1.8743595764,
				"element": "H" 
			},
			{
				"x": -1.9508625848,
				"y": 1.8364528882,
				"z": -0.0682974583,
				"element": "H" 
			},
			{
				"x": -1.7035863129,
				"y": 4.2254544676,
				"z": 0.5059171003,
				"element": "H" 
			},
			{
				"x": -0.5371538854,
				"y": 4.900588154,
				"z": 2.5972613443,
				"element": "H" 
			},
			{
				"x": 0.3644764767,
				"y": 3.1490991732,
				"z": 4.118810901,
				"element": "H" 
			},
			{
				"x": 0.1142453091,
				"y": 0.7587907814,
				"z": 3.5487329524,
				"element": "H" 
			}
		],
		 "valence_orbital": [ 
			{
				"type": "occ",
				"energy": -0.26586,
				"method": "rhf"
			},
			{
				"type": "occ",
				"energy": -0.26092,
				"method": "rhf"
			},
			{
				"type": "occ",
				"energy": -0.25581,
				"method": "rhf"
			},
			{
				"type": "occ",
				"energy": -0.25071,
				"method": "rhf"
			},
			{
				"type": "occ",
				"energy": -0.23896,
				"method": "rhf"
			},
			{
				"type": "unocc",
				"energy": -0.06194,
				"method": "rhf"
			},
			{
				"type": "unocc",
				"energy": -0.01081,
				"method": "rhf"
			},
			{
				"type": "unocc",
				"energy": -0.00664,
				"method": "rhf"
			},
			{
				"type": "unocc",
				"energy": -0.00338,
				"method": "rhf"
			},
			{
				"type": "unocc",
				"energy": -0.00152,
				"method": "rhf"
			}
		],
		"cosmo_sigma_profile": { 
			"-0.025": 0.0,
			"-0.024": 0.0,
			"-0.023": 0.0,
			"-0.022": 0.0,
			"-0.021": 0.0,
			"-0.02": 0.0,
			"-0.019": 0.0,
			"-0.018": 0.0,
			"-0.017": 0.0,
			"-0.016": 0.0,
			"-0.015": 0.0,
			"-0.014": 0.0,
			"-0.013": 0.0,
			"-0.012": 0.0,
			"-0.011": 0.0,
			"-0.01": 0.0,
			"-0.009": 0.0,
			"-0.008": 0.599830832942,
			"-0.007": 6.40206749959,
			"-0.006": 21.3977146661,
			"-0.005": 30.0396883574,
			"-0.004": 38.3500710526,
			"-0.003": 35.0041760478,
			"-0.002": 37.1269554037,
			"-0.001": 37.3095948268,
			"0.0": 32.3789322442,
			"0.001": 24.6474293904,
			"0.002": 24.447046942,
			"0.003": 24.015844083,
			"0.004": 22.0446662198,
			"0.005": 15.913157468,
			"0.006": 6.05347327444,
			"0.007": 4.54193160901,
			"0.008": 4.32179964758,
			"0.009": 6.00978661332,
			"0.01": 5.44077962329,
			"0.011": 10.1597672733,
			"0.012": 4.62578827155,
			"0.013": 0.106813449258,
			"0.014": 0.0,
			"0.015": 0.0,
			"0.016": 0.0,
			"0.017": 0.0,
			"0.018": 0.0,
			"0.019": 0.0,
			"0.02": 0.0,
			"0.021": 0.0,
			"0.022": 0.0,
			"0.023": 0.0,
			"0.024": 0.0,
			"0.025": 0.0
		}
	}
}
