{
	 "smiles": "COC(=O)C1=C(N)C(OC)=C(OC)C(OC)=C1", 
	 "Tm": 317.65, 
	 "num_atms": 32, 
	 "gaussian": { 
		 "optdone": 1, 
		 "sigma_profile": "yes", 
		 "theory": "DFT", 
		 "functional": "B3LYP", 
		 "basiset": "6-31G**", 
		 "properties": { 
			 "R2extent": 4945.2387, 
			 "electric_dipole_moment_norm": 1.37433135379, 
			 "electric_quadrupole_moment_norm": 8.23001191008, 
			 "total_energy": -859.051155845, 
			 "HOMO_LUMO_gap": 0.159, 
			 "cosmo_polarized_energy": -10.32, 
			 "cosmo_cavitation_energy": 35.35, 
			 "cosmo_dispersion_energy": -25.05, 
			 "cosmo_repulsion_energy": 1.98, 
			 "cosmo_total_nonelectrostatic_energy": 12.27, 
			 "SMD_solvation_energy": 9.63 
		},
		"coords": [
			{
				"x": 0.5063673054,
				"y": -3.7281061409,
				"z": -3.765085896,
				"element": "C" 
			},
			{
				"x": 0.6598072777,
				"y": -2.7805314665,
				"z": -2.7004413447,
				"element": "O" 
			},
			{
				"x": -0.3928980332,
				"y": -2.6842399752,
				"z": -1.8525571532,
				"element": "C" 
			},
			{
				"x": -1.3974697865,
				"y": -3.37437603,
				"z": -2.0010365798,
				"element": "O" 
			},
			{
				"x": -0.1888145251,
				"y": -1.6881923956,
				"z": -0.7895618162,
				"element": "C" 
			},
			{
				"x": -1.1941217969,
				"y": -1.4936943378,
				"z": 0.196778333,
				"element": "C" 
			},
			{
				"x": -2.3418579252,
				"y": -2.2290264269,
				"z": 0.2652095408,
				"element": "N" 
			},
			{
				"x": -0.9872379694,
				"y": -0.482879848,
				"z": 1.1733417237,
				"element": "C" 
			},
			{
				"x": -2.0163520191,
				"y": -0.2569778027,
				"z": 2.0641468064,
				"element": "O" 
			},
			{
				"x": -1.7432608054,
				"y": -0.6373153846,
				"z": 3.4192841638,
				"element": "C" 
			},
			{
				"x": 0.1738309671,
				"y": 0.2833539727,
				"z": 1.1858544027,
				"element": "C" 
			},
			{
				"x": 0.335983199,
				"y": 1.227979567,
				"z": 2.1698849836,
				"element": "O" 
			},
			{
				"x": 0.2483925394,
				"y": 2.5859441251,
				"z": 1.7132494322,
				"element": "C" 
			},
			{
				"x": 1.1832159182,
				"y": 0.0546295414,
				"z": 0.2197606184,
				"element": "C" 
			},
			{
				"x": 2.327543986,
				"y": 0.8296193259,
				"z": 0.2101402581,
				"element": "O" 
			},
			{
				"x": 3.2703097586,
				"y": 0.4991870292,
				"z": 1.2336750817,
				"element": "C" 
			},
			{
				"x": 0.990207835,
				"y": -0.9142995258,
				"z": -0.7448702017,
				"element": "C" 
			},
			{
				"x": 1.4322817001,
				"y": -3.676503767,
				"z": -4.3383574822,
				"element": "H" 
			},
			{
				"x": 0.3565278724,
				"y": -4.7359659616,
				"z": -3.369352943,
				"element": "H" 
			},
			{
				"x": -0.3485547584,
				"y": -3.4693080128,
				"z": -4.3952094185,
				"element": "H" 
			},
			{
				"x": -2.5561144884,
				"y": -2.8108449724,
				"z": -0.5339992266,
				"element": "H" 
			},
			{
				"x": -3.0796133945,
				"y": -1.8467939681,
				"z": 0.8356818016,
				"element": "H" 
			},
			{
				"x": -2.6634436138,
				"y": -0.4548984091,
				"z": 3.9789566637,
				"element": "H" 
			},
			{
				"x": -0.932807301,
				"y": -0.0335434555,
				"z": 3.8366817412,
				"element": "H" 
			},
			{
				"x": -1.4837482055,
				"y": -1.7012208206,
				"z": 3.4835465659,
				"element": "H" 
			},
			{
				"x": 1.0141275456,
				"y": 2.7950090546,
				"z": 0.9607192159,
				"element": "H" 
			},
			{
				"x": -0.7466382346,
				"y": 2.788807746,
				"z": 1.3005264849,
				"element": "H" 
			},
			{
				"x": 0.4108858018,
				"y": 3.2129132803,
				"z": 2.592187885,
				"element": "H" 
			},
			{
				"x": 3.6165434909,
				"y": -0.5370310288,
				"z": 1.1273157426,
				"element": "H" 
			},
			{
				"x": 4.1175246461,
				"y": 1.1767629243,
				"z": 1.1048561026,
				"element": "H" 
			},
			{
				"x": 2.8398400699,
				"y": 0.6371884315,
				"z": 2.2315613416,
				"element": "H" 
			},
			{
				"x": 1.7597429437,
				"y": -1.0697452682,
				"z": -1.4905868272,
				"element": "H" 
			}
		],
		 "valence_orbital": [ 
			{
				"type": "occ",
				"energy": -0.28124,
				"method": "rhf"
			},
			{
				"type": "occ",
				"energy": -0.26975,
				"method": "rhf"
			},
			{
				"type": "occ",
				"energy": -0.25812,
				"method": "rhf"
			},
			{
				"type": "occ",
				"energy": -0.23202,
				"method": "rhf"
			},
			{
				"type": "occ",
				"energy": -0.19192,
				"method": "rhf"
			},
			{
				"type": "unocc",
				"energy": -0.03292,
				"method": "rhf"
			},
			{
				"type": "unocc",
				"energy": 0.02024,
				"method": "rhf"
			},
			{
				"type": "unocc",
				"energy": 0.0633,
				"method": "rhf"
			},
			{
				"type": "unocc",
				"energy": 0.07507,
				"method": "rhf"
			},
			{
				"type": "unocc",
				"energy": 0.10823,
				"method": "rhf"
			}
		],
		"cosmo_sigma_profile": { 
			"-0.025": 0.0,
			"-0.024": 0.0,
			"-0.023": 0.0,
			"-0.022": 0.0,
			"-0.021": 0.0,
			"-0.02": 0.0,
			"-0.019": 0.0,
			"-0.018": 0.0,
			"-0.017": 0.0,
			"-0.016": 0.0,
			"-0.015": 0.0,
			"-0.014": 0.0,
			"-0.013": 0.0,
			"-0.012": 0.199035604749,
			"-0.011": 0.521262886348,
			"-0.01": 0.853598285873,
			"-0.009": 0.885236647038,
			"-0.008": 1.32840210103,
			"-0.007": 2.51441071762,
			"-0.006": 7.69938091319,
			"-0.005": 18.8493687108,
			"-0.004": 25.1940315708,
			"-0.003": 37.6123666921,
			"-0.002": 31.4821843511,
			"-0.001": 21.5334974324,
			"0.0": 18.2757273126,
			"0.001": 19.6441996551,
			"0.002": 19.9004577331,
			"0.003": 17.2660398968,
			"0.004": 12.3763958676,
			"0.005": 10.3538489964,
			"0.006": 7.31438836581,
			"0.007": 5.87349173007,
			"0.008": 5.13028421952,
			"0.009": 3.41718978174,
			"0.01": 4.37095580449,
			"0.011": 4.11715217949,
			"0.012": 2.51610009521,
			"0.013": 0.360857400008,
			"0.014": 0.0,
			"0.015": 0.0,
			"0.016": 0.0,
			"0.017": 0.0,
			"0.018": 0.0,
			"0.019": 0.0,
			"0.02": 0.0,
			"0.021": 0.0,
			"0.022": 0.0,
			"0.023": 0.0,
			"0.024": 0.0,
			"0.025": 0.0
		}
	}
}
