{
	 "smiles": "CC1=CC(Br)=CC(C)=C1S(Cl)(=O)=O", 
	 "Tm": 323.15, 
	 "num_atms": 21, 
	 "gaussian": { 
		 "optdone": 1, 
		 "sigma_profile": "yes", 
		 "theory": "DFT", 
		 "functional": "B3LYP", 
		 "basiset": "6-31G**", 
		 "properties": { 
			 "R2extent": 6890.88, 
			 "electric_dipole_moment_norm": 3.45559316037, 
			 "electric_quadrupole_moment_norm": 9.8846941202, 
			 "total_energy": -3889.84167851, 
			 "HOMO_LUMO_gap": 0.17807, 
			 "cosmo_polarized_energy": -7.77, 
			 "cosmo_cavitation_energy": 29.56, 
			 "cosmo_dispersion_energy": -22.48, 
			 "cosmo_repulsion_energy": 1.72, 
			 "cosmo_total_nonelectrostatic_energy": 8.79, 
			 "SMD_solvation_energy": 2.8 
		},
		"coords": [
			{
				"x": 3.4584005159,
				"y": -1.0288630162,
				"z": -1.3303074362,
				"element": "C" 
			},
			{
				"x": 2.7827012039,
				"y": -0.4934926843,
				"z": -0.0870758093,
				"element": "C" 
			},
			{
				"x": 3.5709505857,
				"y": -0.3578966387,
				"z": 1.0602671468,
				"element": "C" 
			},
			{
				"x": 3.0187841751,
				"y": 0.1018460682,
				"z": 2.2491044509,
				"element": "C" 
			},
			{
				"x": 4.1257473379,
				"y": 0.2814675923,
				"z": 3.7867560212,
				"element": "Br" 
			},
			{
				"x": 1.669714449,
				"y": 0.4172277632,
				"z": 2.3388063997,
				"element": "C" 
			},
			{
				"x": 0.8266731929,
				"y": 0.2985368415,
				"z": 1.226493199,
				"element": "C" 
			},
			{
				"x": -0.6328798673,
				"y": 0.6372879841,
				"z": 1.4383733783,
				"element": "C" 
			},
			{
				"x": 1.4160411231,
				"y": -0.1323186769,
				"z": 0.0126094097,
				"element": "C" 
			},
			{
				"x": 0.4022392659,
				"y": -0.2491748197,
				"z": -1.4740555274,
				"element": "S" 
			},
			{
				"x": -0.0281905945,
				"y": -2.355971022,
				"z": -1.5188740274,
				"element": "Cl" 
			},
			{
				"x": -0.8847539705,
				"y": 0.4072102475,
				"z": -1.2907700449,
				"element": "O" 
			},
			{
				"x": 1.2053314897,
				"y": 0.0245246982,
				"z": -2.6585904627,
				"element": "O" 
			},
			{
				"x": 3.5551176727,
				"y": -0.2561314534,
				"z": -2.0960267374,
				"element": "H" 
			},
			{
				"x": 2.8980652094,
				"y": -1.851511398,
				"z": -1.7810727935,
				"element": "H" 
			},
			{
				"x": 4.4545482991,
				"y": -1.3941711109,
				"z": -1.0722536999,
				"element": "H" 
			},
			{
				"x": 4.6212797206,
				"y": -0.6207738084,
				"z": 1.0165003898,
				"element": "H" 
			},
			{
				"x": 1.2556745485,
				"y": 0.753976105,
				"z": 3.2817984835,
				"element": "H" 
			},
			{
				"x": -0.8063366628,
				"y": 0.833633589,
				"z": 2.4984635196,
				"element": "H" 
			},
			{
				"x": -0.9305963227,
				"y": 1.5190500598,
				"z": 0.8668769284,
				"element": "H" 
			},
			{
				"x": -1.2923113718,
				"y": -0.1743563202,
				"z": 1.1236772119,
				"element": "H" 
			}
		],
		 "valence_orbital": [ 
			{
				"type": "occ",
				"energy": -0.32466,
				"method": "rhf"
			},
			{
				"type": "occ",
				"energy": -0.31485,
				"method": "rhf"
			},
			{
				"type": "occ",
				"energy": -0.30748,
				"method": "rhf"
			},
			{
				"type": "occ",
				"energy": -0.27786,
				"method": "rhf"
			},
			{
				"type": "occ",
				"energy": -0.2711,
				"method": "rhf"
			},
			{
				"type": "unocc",
				"energy": -0.09303,
				"method": "rhf"
			},
			{
				"type": "unocc",
				"energy": -0.0528,
				"method": "rhf"
			},
			{
				"type": "unocc",
				"energy": -0.03742,
				"method": "rhf"
			},
			{
				"type": "unocc",
				"energy": -0.01322,
				"method": "rhf"
			},
			{
				"type": "unocc",
				"energy": 0.04932,
				"method": "rhf"
			}
		],
		"cosmo_sigma_profile": { 
			"-0.025": 0.0,
			"-0.024": 0.0,
			"-0.023": 0.0,
			"-0.022": 0.0,
			"-0.021": 0.0,
			"-0.02": 0.0,
			"-0.019": 0.0,
			"-0.018": 0.0,
			"-0.017": 0.0,
			"-0.016": 0.0,
			"-0.015": 0.0,
			"-0.014": 0.0,
			"-0.013": 0.0,
			"-0.012": 0.0,
			"-0.011": 0.0,
			"-0.01": 0.0,
			"-0.009": 0.324401284547,
			"-0.008": 4.23524756807,
			"-0.007": 4.9685803478,
			"-0.006": 6.93480122528,
			"-0.005": 11.082969384,
			"-0.004": 15.6013652785,
			"-0.003": 18.2123089133,
			"-0.002": 24.8328490197,
			"-0.001": 28.1483099278,
			"0.0": 26.9663873223,
			"0.001": 22.5940328784,
			"0.002": 14.6271825595,
			"0.003": 20.9497842433,
			"0.004": 18.528632474,
			"0.005": 4.17579255225,
			"0.006": 3.38443542284,
			"0.007": 4.59331079964,
			"0.008": 7.0460881564,
			"0.009": 4.65173394079,
			"0.01": 0.0456279635881,
			"0.011": 0.0,
			"0.012": 0.0,
			"0.013": 0.0,
			"0.014": 0.0,
			"0.015": 0.0,
			"0.016": 0.0,
			"0.017": 0.0,
			"0.018": 0.0,
			"0.019": 0.0,
			"0.02": 0.0,
			"0.021": 0.0,
			"0.022": 0.0,
			"0.023": 0.0,
			"0.024": 0.0,
			"0.025": 0.0
		}
	}
}
