{
	 "smiles": "OC1C2=CC=CC=C2C2=CC=CC=C12", 
	 "Tm": 428.15, 
	 "num_atms": 24, 
	 "gaussian": { 
		 "optdone": 1, 
		 "sigma_profile": "yes", 
		 "theory": "DFT", 
		 "functional": "B3LYP", 
		 "basiset": "6-31G**", 
		 "properties": { 
			 "R2extent": 3402.5155, 
			 "electric_dipole_moment_norm": 1.35700726601, 
			 "electric_quadrupole_moment_norm": 5.619296278, 
			 "total_energy": -576.636486673, 
			 "HOMO_LUMO_gap": 0.18158, 
			 "cosmo_polarized_energy": -8.15, 
			 "cosmo_cavitation_energy": 27.53, 
			 "cosmo_dispersion_energy": -20.19, 
			 "cosmo_repulsion_energy": 1.56, 
			 "cosmo_total_nonelectrostatic_energy": 8.89, 
			 "SMD_solvation_energy": 4.07 
		},
		"coords": [
			{
				"x": -1.0993668853,
				"y": 2.2794075134,
				"z": -2.3737785645,
				"element": "O" 
			},
			{
				"x": -1.2682564226,
				"y": 1.1106676533,
				"z": -1.5794048471,
				"element": "C" 
			},
			{
				"x": -1.3770086952,
				"y": -0.1966138994,
				"z": -2.3540515243,
				"element": "C" 
			},
			{
				"x": -2.2022780106,
				"y": -0.5022726397,
				"z": -3.4278254079,
				"element": "C" 
			},
			{
				"x": -2.1417285138,
				"y": -1.7886242884,
				"z": -3.9792934317,
				"element": "C" 
			},
			{
				"x": -1.2688413139,
				"y": -2.7459134186,
				"z": -3.4516151205,
				"element": "C" 
			},
			{
				"x": -0.4321799524,
				"y": -2.4372301749,
				"z": -2.3741676171,
				"element": "C" 
			},
			{
				"x": -0.4840844377,
				"y": -1.1528833185,
				"z": -1.8312557856,
				"element": "C" 
			},
			{
				"x": 0.2895073215,
				"y": -0.5254377867,
				"z": -0.7435982666,
				"element": "C" 
			},
			{
				"x": 1.3060526302,
				"y": -1.0273794231,
				"z": 0.0698609528,
				"element": "C" 
			},
			{
				"x": 1.9010840801,
				"y": -0.1748315532,
				"z": 1.0054175513,
				"element": "C" 
			},
			{
				"x": 1.4895281502,
				"y": 1.1566327042,
				"z": 1.1263072017,
				"element": "C" 
			},
			{
				"x": 0.4615850579,
				"y": 1.6583369612,
				"z": 0.3175399629,
				"element": "C" 
			},
			{
				"x": -0.1343944964,
				"y": 0.8112412655,
				"z": -0.6069731219,
				"element": "C" 
			},
			{
				"x": -0.2857917388,
				"y": 2.1618619841,
				"z": -2.8839733385,
				"element": "H" 
			},
			{
				"x": -2.197936866,
				"y": 1.2947377165,
				"z": -1.0242984633,
				"element": "H" 
			},
			{
				"x": -2.8760971039,
				"y": 0.2464969758,
				"z": -3.8351590273,
				"element": "H" 
			},
			{
				"x": -2.7774534931,
				"y": -2.0461964728,
				"z": -4.8215288926,
				"element": "H" 
			},
			{
				"x": -1.2370812922,
				"y": -3.7407500028,
				"z": -3.8870055159,
				"element": "H" 
			},
			{
				"x": 0.2475228867,
				"y": -3.1859677067,
				"z": -1.9766298555,
				"element": "H" 
			},
			{
				"x": 1.6383438767,
				"y": -2.0578919051,
				"z": -0.0210595321,
				"element": "H" 
			},
			{
				"x": 2.6961737906,
				"y": -0.5505161145,
				"z": 1.6433567119,
				"element": "H" 
			},
			{
				"x": 1.9701629725,
				"y": 1.8045246153,
				"z": 1.8536833313,
				"element": "H" 
			},
			{
				"x": 0.1395384556,
				"y": 2.6924013148,
				"z": 0.4047526005,
				"element": "H" 
			}
		],
		 "valence_orbital": [ 
			{
				"type": "occ",
				"energy": -0.28312,
				"method": "rhf"
			},
			{
				"type": "occ",
				"energy": -0.27673,
				"method": "rhf"
			},
			{
				"type": "occ",
				"energy": -0.25043,
				"method": "rhf"
			},
			{
				"type": "occ",
				"energy": -0.24701,
				"method": "rhf"
			},
			{
				"type": "occ",
				"energy": -0.21644,
				"method": "rhf"
			},
			{
				"type": "unocc",
				"energy": -0.03486,
				"method": "rhf"
			},
			{
				"type": "unocc",
				"energy": -0.02018,
				"method": "rhf"
			},
			{
				"type": "unocc",
				"energy": 0.00793,
				"method": "rhf"
			},
			{
				"type": "unocc",
				"energy": 0.039,
				"method": "rhf"
			},
			{
				"type": "unocc",
				"energy": 0.09708,
				"method": "rhf"
			}
		],
		"cosmo_sigma_profile": { 
			"-0.025": 0.0,
			"-0.024": 0.0,
			"-0.023": 0.0,
			"-0.022": 0.0,
			"-0.021": 0.0,
			"-0.02": 0.0,
			"-0.019": 0.0,
			"-0.018": 0.0,
			"-0.017": 0.0,
			"-0.016": 0.249122853031,
			"-0.015": 0.756427707671,
			"-0.014": 1.01989615159,
			"-0.013": 0.771607036487,
			"-0.012": 0.871810383314,
			"-0.011": 0.69968513524,
			"-0.01": 0.815182800199,
			"-0.009": 0.426182208864,
			"-0.008": 0.792237558096,
			"-0.007": 1.22160005765,
			"-0.006": 11.3414073954,
			"-0.005": 19.9048933438,
			"-0.004": 19.1491141516,
			"-0.003": 18.0205595864,
			"-0.002": 14.8422976005,
			"-0.001": 13.946369722,
			"0.0": 11.6302089871,
			"0.001": 13.9438859666,
			"0.002": 15.7223690193,
			"0.003": 18.4855975184,
			"0.004": 17.9722702624,
			"0.005": 18.8068312885,
			"0.006": 8.84306600229,
			"0.007": 0.786752389514,
			"0.008": 1.60428918896,
			"0.009": 1.05093632831,
			"0.01": 1.06991030901,
			"0.011": 1.05285489592,
			"0.012": 1.39764596035,
			"0.013": 2.02861494623,
			"0.014": 0.952904221449,
			"0.015": 0.0,
			"0.016": 0.0,
			"0.017": 0.0,
			"0.018": 0.0,
			"0.019": 0.0,
			"0.02": 0.0,
			"0.021": 0.0,
			"0.022": 0.0,
			"0.023": 0.0,
			"0.024": 0.0,
			"0.025": 0.0
		}
	}
}
