{
	 "smiles": "S=C(N1CCCCC1)C1=CN(N=C1C1=CC=CC=C1)C1=CC=CC=C1", 
	 "Tm": 398.15, 
	 "num_atms": 46, 
	 "gaussian": { 
		 "optdone": 1, 
		 "sigma_profile": "yes", 
		 "theory": "DFT", 
		 "functional": "B3LYP", 
		 "basiset": "6-31G**", 
		 "properties": { 
			 "R2extent": 11084.532, 
			 "electric_dipole_moment_norm": 4.49370882457, 
			 "electric_quadrupole_moment_norm": 25.73949476, 
			 "total_energy": -1375.33016752, 
			 "HOMO_LUMO_gap": 0.15551, 
			 "cosmo_polarized_energy": -16.44, 
			 "cosmo_cavitation_energy": 48.86, 
			 "cosmo_dispersion_energy": -33.56, 
			 "cosmo_repulsion_energy": 2.5, 
			 "cosmo_total_nonelectrostatic_energy": 17.8, 
			 "SMD_solvation_energy": 5.6 
		},
		"coords": [
			{
				"x": 2.9881718891,
				"y": -2.5170687654,
				"z": 0.0401176087,
				"element": "S" 
			},
			{
				"x": 1.5243219111,
				"y": -1.7385612861,
				"z": 0.3230284833,
				"element": "C" 
			},
			{
				"x": 1.1429854727,
				"y": -1.3080552339,
				"z": 1.5470502991,
				"element": "N" 
			},
			{
				"x": -0.2204942406,
				"y": -0.8738235136,
				"z": 1.8932207897,
				"element": "C" 
			},
			{
				"x": -0.2304474444,
				"y": 0.4995312971,
				"z": 2.5912615698,
				"element": "C" 
			},
			{
				"x": 0.9918383031,
				"y": 0.6685311135,
				"z": 3.5240568024,
				"element": "C" 
			},
			{
				"x": 1.5525551272,
				"y": -0.7003088775,
				"z": 3.9267162215,
				"element": "C" 
			},
			{
				"x": 2.0621412994,
				"y": -1.4568648347,
				"z": 2.6919100021,
				"element": "C" 
			},
			{
				"x": 0.5998866231,
				"y": -1.5008926992,
				"z": -0.8145044039,
				"element": "C" 
			},
			{
				"x": 0.0270551034,
				"y": -2.4886103524,
				"z": -1.5898185016,
				"element": "C" 
			},
			{
				"x": -0.7362979138,
				"y": -1.872345345,
				"z": -2.5360285051,
				"element": "N" 
			},
			{
				"x": -0.6666651122,
				"y": -0.5229754144,
				"z": -2.4362507474,
				"element": "N" 
			},
			{
				"x": 0.1380725036,
				"y": -0.2760771003,
				"z": -1.4007687643,
				"element": "C" 
			},
			{
				"x": 0.45790846,
				"y": 1.1149390094,
				"z": -1.0313026439,
				"element": "C" 
			},
			{
				"x": -0.4897777167,
				"y": 2.1324128944,
				"z": -1.234379672,
				"element": "C" 
			},
			{
				"x": -0.1944442483,
				"y": 3.4517513535,
				"z": -0.8965922329,
				"element": "C" 
			},
			{
				"x": 1.0510754651,
				"y": 3.7775139413,
				"z": -0.3531884614,
				"element": "C" 
			},
			{
				"x": 2.0032477519,
				"y": 2.7745818947,
				"z": -0.1594179381,
				"element": "C" 
			},
			{
				"x": 1.7124636773,
				"y": 1.4523254116,
				"z": -0.4963929598,
				"element": "C" 
			},
			{
				"x": -1.5148070456,
				"y": -2.4728163573,
				"z": -3.5619171415,
				"element": "C" 
			},
			{
				"x": -1.9172259898,
				"y": -3.8086948867,
				"z": -3.4538401265,
				"element": "C" 
			},
			{
				"x": -2.666047883,
				"y": -4.3866817715,
				"z": -4.4782862259,
				"element": "C" 
			},
			{
				"x": -3.0289476771,
				"y": -3.6390655576,
				"z": -5.5993782107,
				"element": "C" 
			},
			{
				"x": -2.6347199525,
				"y": -2.302195705,
				"z": -5.6905945244,
				"element": "C" 
			},
			{
				"x": -1.8763579081,
				"y": -1.7141289624,
				"z": -4.6808266351,
				"element": "C" 
			},
			{
				"x": -0.8296509881,
				"y": -0.8641182241,
				"z": 0.9923030887,
				"element": "H" 
			},
			{
				"x": -0.6457729921,
				"y": -1.6357009053,
				"z": 2.5608161417,
				"element": "H" 
			},
			{
				"x": -0.2470602384,
				"y": 1.2962724877,
				"z": 1.8434398384,
				"element": "H" 
			},
			{
				"x": -1.1645193067,
				"y": 0.5732029386,
				"z": 3.1604660078,
				"element": "H" 
			},
			{
				"x": 0.7239141103,
				"y": 1.2559279629,
				"z": 4.4080999913,
				"element": "H" 
			},
			{
				"x": 1.7755111049,
				"y": 1.2290066832,
				"z": 3.0004405901,
				"element": "H" 
			},
			{
				"x": 0.7837611585,
				"y": -1.282086172,
				"z": 4.4507430586,
				"element": "H" 
			},
			{
				"x": 2.387932072,
				"y": -0.5951053519,
				"z": 4.6268094008,
				"element": "H" 
			},
			{
				"x": 3.0358541058,
				"y": -1.067869139,
				"z": 2.3776880713,
				"element": "H" 
			},
			{
				"x": 2.2147105467,
				"y": -2.5237121639,
				"z": 2.8992290673,
				"element": "H" 
			},
			{
				"x": 0.1428181967,
				"y": -3.5592773113,
				"z": -1.5375588041,
				"element": "H" 
			},
			{
				"x": -1.4546112557,
				"y": 1.8729521794,
				"z": -1.6576317173,
				"element": "H" 
			},
			{
				"x": -0.9384350166,
				"y": 4.2272882156,
				"z": -1.0557614228,
				"element": "H" 
			},
			{
				"x": 1.2796753248,
				"y": 4.8061269459,
				"z": -0.089314542,
				"element": "H" 
			},
			{
				"x": 2.9811010633,
				"y": 3.022447681,
				"z": 0.2438230396,
				"element": "H" 
			},
			{
				"x": 2.4686649448,
				"y": 0.6836925347,
				"z": -0.3715055753,
				"element": "H" 
			},
			{
				"x": -1.6671205961,
				"y": -4.3906739781,
				"z": -2.5735048043,
				"element": "H" 
			},
			{
				"x": -2.9747127826,
				"y": -5.4240466396,
				"z": -4.3898561462,
				"element": "H" 
			},
			{
				"x": -3.6157809393,
				"y": -4.0926123855,
				"z": -6.3921665724,
				"element": "H" 
			},
			{
				"x": -2.9122633946,
				"y": -1.7107622057,
				"z": -6.5581382686,
				"element": "H" 
			},
			{
				"x": -1.5579055723,
				"y": -0.6808734052,
				"z": -4.7394945248,
				"element": "H" 
			}
		],
		 "valence_orbital": [ 
			{
				"type": "occ",
				"energy": -0.25177,
				"method": "rhf"
			},
			{
				"type": "occ",
				"energy": -0.24749,
				"method": "rhf"
			},
			{
				"type": "occ",
				"energy": -0.21929,
				"method": "rhf"
			},
			{
				"type": "occ",
				"energy": -0.2165,
				"method": "rhf"
			},
			{
				"type": "occ",
				"energy": -0.19163,
				"method": "rhf"
			},
			{
				"type": "unocc",
				"energy": -0.03612,
				"method": "rhf"
			},
			{
				"type": "unocc",
				"energy": -0.03172,
				"method": "rhf"
			},
			{
				"type": "unocc",
				"energy": -0.01093,
				"method": "rhf"
			},
			{
				"type": "unocc",
				"energy": -0.00633,
				"method": "rhf"
			},
			{
				"type": "unocc",
				"energy": -0.00155,
				"method": "rhf"
			}
		],
		"cosmo_sigma_profile": { 
			"-0.025": 0.0,
			"-0.024": 0.0,
			"-0.023": 0.0,
			"-0.022": 0.0,
			"-0.021": 0.0,
			"-0.02": 0.0,
			"-0.019": 0.0,
			"-0.018": 0.0,
			"-0.017": 0.0,
			"-0.016": 0.0,
			"-0.015": 0.0,
			"-0.014": 0.0,
			"-0.013": 0.0,
			"-0.012": 0.0,
			"-0.011": 0.311242599418,
			"-0.01": 1.80330353809,
			"-0.009": 1.75380782265,
			"-0.008": 2.22969388849,
			"-0.007": 3.16648794912,
			"-0.006": 14.4051348661,
			"-0.005": 25.2531545775,
			"-0.004": 39.7166483769,
			"-0.003": 40.4580639743,
			"-0.002": 36.4234498998,
			"-0.001": 32.6117136523,
			"0.0": 35.8482578407,
			"0.001": 28.7398086544,
			"0.002": 22.365698695,
			"0.003": 23.1153102222,
			"0.004": 23.9081101991,
			"0.005": 18.6996473657,
			"0.006": 7.15558981746,
			"0.007": 5.58886292939,
			"0.008": 7.14234857823,
			"0.009": 8.19273070585,
			"0.01": 6.10448151473,
			"0.011": 3.06522181514,
			"0.012": 1.82393496618,
			"0.013": 1.07549208407,
			"0.014": 0.118796298226,
			"0.015": 0.0,
			"0.016": 0.0,
			"0.017": 0.0,
			"0.018": 0.0,
			"0.019": 0.0,
			"0.02": 0.0,
			"0.021": 0.0,
			"0.022": 0.0,
			"0.023": 0.0,
			"0.024": 0.0,
			"0.025": 0.0
		}
	}
}
