{
	 "smiles": "OC(=O)C=CC1=C(F)C=CC=C1F", 
	 "Tm": 397.15, 
	 "num_atms": 19, 
	 "gaussian": { 
		 "optdone": 1, 
		 "sigma_profile": "yes", 
		 "theory": "DFT", 
		 "functional": "B3LYP", 
		 "basiset": "6-31G**", 
		 "properties": { 
			 "R2extent": 2982.9752, 
			 "electric_dipole_moment_norm": 1.12519440543, 
			 "electric_quadrupole_moment_norm": 10.1541483902, 
			 "total_energy": -696.682172675, 
			 "HOMO_LUMO_gap": 0.18068, 
			 "cosmo_polarized_energy": -10.27, 
			 "cosmo_cavitation_energy": 24.97, 
			 "cosmo_dispersion_energy": -17.91, 
			 "cosmo_repulsion_energy": 1.39, 
			 "cosmo_total_nonelectrostatic_energy": 8.45, 
			 "SMD_solvation_energy": 6.3 
		},
		"coords": [
			{
				"x": 2.9289385686,
				"y": 0.8907767098,
				"z": -0.622391195,
				"element": "O" 
			},
			{
				"x": 1.8034684844,
				"y": 0.1474090153,
				"z": -0.796855497,
				"element": "C" 
			},
			{
				"x": 1.6836085432,
				"y": -0.636585338,
				"z": -1.7162654433,
				"element": "O" 
			},
			{
				"x": 0.8392467759,
				"y": 0.4052187574,
				"z": 0.2944851091,
				"element": "C" 
			},
			{
				"x": -0.4312127352,
				"y": -0.0330821585,
				"z": 0.3538581961,
				"element": "C" 
			},
			{
				"x": -1.2319382374,
				"y": -0.7243625153,
				"z": -0.6649550351,
				"element": "C" 
			},
			{
				"x": -2.0934203045,
				"y": -1.7617136528,
				"z": -0.2755493518,
				"element": "C" 
			},
			{
				"x": -2.0957746594,
				"y": -2.1128868944,
				"z": 1.0280824524,
				"element": "F" 
			},
			{
				"x": -2.9242276839,
				"y": -2.4442896094,
				"z": -1.1512188748,
				"element": "C" 
			},
			{
				"x": -2.9236335849,
				"y": -2.0642272218,
				"z": -2.4942863559,
				"element": "C" 
			},
			{
				"x": -2.1141254385,
				"y": -1.0174178226,
				"z": -2.9347808045,
				"element": "C" 
			},
			{
				"x": -1.2948131363,
				"y": -0.3665706767,
				"z": -2.020870578,
				"element": "C" 
			},
			{
				"x": -0.5733617667,
				"y": 0.679211218,
				"z": -2.4516474677,
				"element": "F" 
			},
			{
				"x": 3.5203440472,
				"y": 0.6492008066,
				"z": -1.3543747336,
				"element": "H" 
			},
			{
				"x": 1.2412841236,
				"y": 0.9512565345,
				"z": 1.1421200753,
				"element": "H" 
			},
			{
				"x": -0.9553057854,
				"y": 0.1317674174,
				"z": 1.293240907,
				"element": "H" 
			},
			{
				"x": -3.5473926159,
				"y": -3.2486091805,
				"z": -0.7780832398,
				"element": "H" 
			},
			{
				"x": -3.5638092383,
				"y": -2.582992428,
				"z": -3.2005507388,
				"element": "H" 
			},
			{
				"x": -2.1112753566,
				"y": -0.6897029608,
				"z": -3.9678574249,
				"element": "H" 
			}
		],
		 "valence_orbital": [ 
			{
				"type": "occ",
				"energy": -0.3173,
				"method": "rhf"
			},
			{
				"type": "occ",
				"energy": -0.30247,
				"method": "rhf"
			},
			{
				"type": "occ",
				"energy": -0.27219,
				"method": "rhf"
			},
			{
				"type": "occ",
				"energy": -0.25047,
				"method": "rhf"
			},
			{
				"type": "occ",
				"energy": -0.24585,
				"method": "rhf"
			},
			{
				"type": "unocc",
				"energy": -0.06517,
				"method": "rhf"
			},
			{
				"type": "unocc",
				"energy": -0.00313,
				"method": "rhf"
			},
			{
				"type": "unocc",
				"energy": 0.0008,
				"method": "rhf"
			},
			{
				"type": "unocc",
				"energy": 0.07717,
				"method": "rhf"
			},
			{
				"type": "unocc",
				"energy": 0.08348,
				"method": "rhf"
			}
		],
		"cosmo_sigma_profile": { 
			"-0.025": 0.0,
			"-0.024": 0.0,
			"-0.023": 0.0,
			"-0.022": 0.0,
			"-0.021": 0.0,
			"-0.02": 0.0,
			"-0.019": 0.0,
			"-0.018": 0.42073411389,
			"-0.017": 1.0828654663,
			"-0.016": 1.00529106202,
			"-0.015": 0.50218773282,
			"-0.014": 0.774605433581,
			"-0.013": 0.767384509422,
			"-0.012": 0.796976441634,
			"-0.011": 0.661023075961,
			"-0.01": 0.786039622271,
			"-0.009": 0.385338554601,
			"-0.008": 3.2039146347,
			"-0.007": 10.8054788047,
			"-0.006": 11.1579265779,
			"-0.005": 10.4900354878,
			"-0.004": 7.38371786491,
			"-0.003": 8.77586326442,
			"-0.002": 9.75897074159,
			"-0.001": 13.6688260601,
			"0.0": 18.0618307588,
			"0.001": 18.4696149905,
			"0.002": 19.2762493901,
			"0.003": 21.3526883682,
			"0.004": 14.1300651308,
			"0.005": 3.43069433997,
			"0.006": 3.19384295968,
			"0.007": 3.02337844046,
			"0.008": 3.47198299797,
			"0.009": 3.98423318918,
			"0.01": 2.83885787886,
			"0.011": 3.23810313499,
			"0.012": 3.42334965415,
			"0.013": 0.254358059704,
			"0.014": 0.0,
			"0.015": 0.0,
			"0.016": 0.0,
			"0.017": 0.0,
			"0.018": 0.0,
			"0.019": 0.0,
			"0.02": 0.0,
			"0.021": 0.0,
			"0.022": 0.0,
			"0.023": 0.0,
			"0.024": 0.0,
			"0.025": 0.0
		}
	}
}
