{
	 "smiles": "CC1=CC(OCC(O)CNC(C)(C)C)=C(Cl)C=C1", 
	 "Tm": 494.15, 
	 "num_atms": 40, 
	 "gaussian": { 
		 "optdone": 1, 
		 "sigma_profile": "yes", 
		 "theory": "DFT", 
		 "functional": "B3LYP", 
		 "basiset": "6-31G**", 
		 "properties": { 
			 "R2extent": 8605.1273, 
			 "electric_dipole_moment_norm": 3.06019872884, 
			 "electric_quadrupole_moment_norm": 12.5828699493, 
			 "total_energy": -1212.13972115, 
			 "HOMO_LUMO_gap": 0.20578, 
			 "cosmo_polarized_energy": -10.33, 
			 "cosmo_cavitation_energy": 43.04, 
			 "cosmo_dispersion_energy": -29.25, 
			 "cosmo_repulsion_energy": 2.29, 
			 "cosmo_total_nonelectrostatic_energy": 16.07, 
			 "SMD_solvation_energy": 6.49 
		},
		"coords": [
			{
				"x": -2.216935484,
				"y": 4.6379623745,
				"z": 3.9512644134,
				"element": "C" 
			},
			{
				"x": -0.9119773538,
				"y": 3.9369930976,
				"z": 3.6538206532,
				"element": "C" 
			},
			{
				"x": -0.7524955696,
				"y": 3.2369814195,
				"z": 2.4484662763,
				"element": "C" 
			},
			{
				"x": 0.4467188041,
				"y": 2.5898918484,
				"z": 2.1352498227,
				"element": "C" 
			},
			{
				"x": 0.6662076243,
				"y": 1.8921237413,
				"z": 0.9919228199,
				"element": "O" 
			},
			{
				"x": -0.3448068108,
				"y": 1.8576732259,
				"z": -0.0252978563,
				"element": "C" 
			},
			{
				"x": 0.2460711773,
				"y": 1.0546063293,
				"z": -1.1805365115,
				"element": "C" 
			},
			{
				"x": 1.4613889966,
				"y": 1.6341508,
				"z": -1.6311355451,
				"element": "O" 
			},
			{
				"x": 0.4489529483,
				"y": -0.4311131958,
				"z": -0.8179488844,
				"element": "C" 
			},
			{
				"x": -0.8104763997,
				"y": -1.0901946302,
				"z": -0.4539399239,
				"element": "N" 
			},
			{
				"x": -1.3872544043,
				"y": -2.0963697157,
				"z": -1.3751350961,
				"element": "C" 
			},
			{
				"x": -0.4615560328,
				"y": -3.3179012742,
				"z": -1.5761788295,
				"element": "C" 
			},
			{
				"x": -1.6882710118,
				"y": -1.4385601603,
				"z": -2.7322729866,
				"element": "C" 
			},
			{
				"x": -2.7061260779,
				"y": -2.5589233524,
				"z": -0.732531958,
				"element": "C" 
			},
			{
				"x": 1.5073878775,
				"y": 2.6506480709,
				"z": 3.0603725484,
				"element": "C" 
			},
			{
				"x": 3.0243545482,
				"y": 1.8488063535,
				"z": 2.6911818262,
				"element": "Cl" 
			},
			{
				"x": 1.3602905356,
				"y": 3.3382706849,
				"z": 4.2573227953,
				"element": "C" 
			},
			{
				"x": 0.1549121552,
				"y": 3.9791901407,
				"z": 4.553835289,
				"element": "C" 
			},
			{
				"x": -2.363652375,
				"y": 5.501345279,
				"z": 3.2911842345,
				"element": "H" 
			},
			{
				"x": -3.0728819037,
				"y": 3.9704951535,
				"z": 3.8034562444,
				"element": "H" 
			},
			{
				"x": -2.247459418,
				"y": 5.000641579,
				"z": 4.9820789532,
				"element": "H" 
			},
			{
				"x": -1.5793850484,
				"y": 3.1949577449,
				"z": 1.7483667917,
				"element": "H" 
			},
			{
				"x": -0.5759672442,
				"y": 2.8802548945,
				"z": -0.3480483712,
				"element": "H" 
			},
			{
				"x": -1.2510918802,
				"y": 1.3662695728,
				"z": 0.34586616,
				"element": "H" 
			},
			{
				"x": -0.458942616,
				"y": 1.1217447195,
				"z": -2.0167999331,
				"element": "H" 
			},
			{
				"x": 2.0076299922,
				"y": 1.7696610983,
				"z": -0.8428102394,
				"element": "H" 
			},
			{
				"x": 1.1486189718,
				"y": -0.4782822224,
				"z": 0.02435321,
				"element": "H" 
			},
			{
				"x": 0.9538434243,
				"y": -0.9074911229,
				"z": -1.6670490648,
				"element": "H" 
			},
			{
				"x": -0.7202624199,
				"y": -1.5146154276,
				"z": 0.4633841484,
				"element": "H" 
			},
			{
				"x": 0.4973687083,
				"y": -3.029936471,
				"z": -2.0186031619,
				"element": "H" 
			},
			{
				"x": -0.2570293075,
				"y": -3.8091340718,
				"z": -0.6178085303,
				"element": "H" 
			},
			{
				"x": -0.9208957153,
				"y": -4.0583354553,
				"z": -2.2403734751,
				"element": "H" 
			},
			{
				"x": -2.3531554653,
				"y": -0.5788993846,
				"z": -2.6028487704,
				"element": "H" 
			},
			{
				"x": -0.775827729,
				"y": -1.0957306799,
				"z": -3.2305833492,
				"element": "H" 
			},
			{
				"x": -2.1768902393,
				"y": -2.1540470964,
				"z": -3.4013889677,
				"element": "H" 
			},
			{
				"x": -3.2131876891,
				"y": -3.2955657895,
				"z": -1.363785699,
				"element": "H" 
			},
			{
				"x": -2.5240977571,
				"y": -3.0277736567,
				"z": 0.2422590356,
				"element": "H" 
			},
			{
				"x": -3.3757936117,
				"y": -1.7077723562,
				"z": -0.5786979325,
				"element": "H" 
			},
			{
				"x": 2.1906391432,
				"y": 3.3696834641,
				"z": 4.9545133407,
				"element": "H" 
			},
			{
				"x": 0.0517346575,
				"y": 4.5135944706,
				"z": 5.493576523,
				"element": "H" 
			}
		],
		 "valence_orbital": [ 
			{
				"type": "occ",
				"energy": -0.30546,
				"method": "rhf"
			},
			{
				"type": "occ",
				"energy": -0.268,
				"method": "rhf"
			},
			{
				"type": "occ",
				"energy": -0.24577,
				"method": "rhf"
			},
			{
				"type": "occ",
				"energy": -0.22279,
				"method": "rhf"
			},
			{
				"type": "occ",
				"energy": -0.21679,
				"method": "rhf"
			},
			{
				"type": "unocc",
				"energy": -0.01101,
				"method": "rhf"
			},
			{
				"type": "unocc",
				"energy": 0.00524,
				"method": "rhf"
			},
			{
				"type": "unocc",
				"energy": 0.03273,
				"method": "rhf"
			},
			{
				"type": "unocc",
				"energy": 0.06812,
				"method": "rhf"
			},
			{
				"type": "unocc",
				"energy": 0.09125,
				"method": "rhf"
			}
		],
		"cosmo_sigma_profile": { 
			"-0.025": 0.0,
			"-0.024": 0.0,
			"-0.023": 0.0,
			"-0.022": 0.0,
			"-0.021": 0.0,
			"-0.02": 0.0,
			"-0.019": 0.0,
			"-0.018": 0.0,
			"-0.017": 0.0,
			"-0.016": 0.0,
			"-0.015": 0.0,
			"-0.014": 0.0,
			"-0.013": 0.0,
			"-0.012": 0.0,
			"-0.011": 0.331254785317,
			"-0.01": 0.744108303627,
			"-0.009": 1.67363742455,
			"-0.008": 1.303857324,
			"-0.007": 3.61828863524,
			"-0.006": 9.62091355814,
			"-0.005": 15.620912689,
			"-0.004": 23.7788400068,
			"-0.003": 33.2119652727,
			"-0.002": 38.5859656612,
			"-0.001": 33.1086194013,
			"0.0": 36.1739423493,
			"0.001": 36.4003636887,
			"0.002": 28.2008258422,
			"0.003": 19.8941714671,
			"0.004": 18.9283738028,
			"0.005": 16.1096973914,
			"0.006": 4.64854543507,
			"0.007": 2.26668679619,
			"0.008": 2.511907217,
			"0.009": 1.57995878319,
			"0.01": 1.25173218474,
			"0.011": 1.86507313766,
			"0.012": 1.74959851462,
			"0.013": 1.42002777497,
			"0.014": 2.32761705317,
			"0.015": 0.715543751985,
			"0.016": 0.0,
			"0.017": 0.0,
			"0.018": 0.0,
			"0.019": 0.0,
			"0.02": 0.0,
			"0.021": 0.0,
			"0.022": 0.0,
			"0.023": 0.0,
			"0.024": 0.0,
			"0.025": 0.0
		}
	}
}
