{
	 "smiles": "CC(CC(C)=NO)=NO", 
	 "Tm": 422.15, 
	 "num_atms": 19, 
	 "gaussian": { 
		 "optdone": 1, 
		 "sigma_profile": "yes", 
		 "theory": "DFT", 
		 "functional": "B3LYP", 
		 "basiset": "6-31G**", 
		 "properties": { 
			 "R2extent": 2148.8672, 
			 "electric_dipole_moment_norm": 0.132137012226, 
			 "electric_quadrupole_moment_norm": 7.49438461516, 
			 "total_energy": -456.400375043, 
			 "HOMO_LUMO_gap": 0.23448, 
			 "cosmo_polarized_energy": -10.53, 
			 "cosmo_cavitation_energy": 22.86, 
			 "cosmo_dispersion_energy": -16.28, 
			 "cosmo_repulsion_energy": 1.39, 
			 "cosmo_total_nonelectrostatic_energy": 7.96, 
			 "SMD_solvation_energy": 4.31 
		},
		"coords": [
			{
				"x": 0.6103247211,
				"y": 1.4273521571,
				"z": -3.5615381761,
				"element": "C" 
			},
			{
				"x": 0.6197396199,
				"y": 0.3434392717,
				"z": -2.5191330841,
				"element": "C" 
			},
			{
				"x": 0.5217510125,
				"y": 0.7539187216,
				"z": -1.0606472864,
				"element": "C" 
			},
			{
				"x": -0.9065578409,
				"y": 1.063818895,
				"z": -0.6605117907,
				"element": "C" 
			},
			{
				"x": -1.9230586603,
				"y": -0.0444681397,
				"z": -0.5870115882,
				"element": "C" 
			},
			{
				"x": -1.1582444824,
				"y": 2.2966553658,
				"z": -0.409414783,
				"element": "N" 
			},
			{
				"x": -2.5107230787,
				"y": 2.4772765501,
				"z": -0.0481108796,
				"element": "O" 
			},
			{
				"x": 0.7003614326,
				"y": -0.8621071302,
				"z": -2.9473479585,
				"element": "N" 
			},
			{
				"x": 0.6843564786,
				"y": -1.8100808841,
				"z": -1.8964648585,
				"element": "O" 
			},
			{
				"x": -0.2693266278,
				"y": 2.0687132365,
				"z": -3.4364146435,
				"element": "H" 
			},
			{
				"x": 1.4920516598,
				"y": 2.0709159337,
				"z": -3.4541320079,
				"element": "H" 
			},
			{
				"x": 0.6055805083,
				"y": 0.996327525,
				"z": -4.5642138331,
				"element": "H" 
			},
			{
				"x": 0.9123152646,
				"y": -0.0518452507,
				"z": -0.4330326443,
				"element": "H" 
			},
			{
				"x": 1.1224587651,
				"y": 1.6543538928,
				"z": -0.9024219637,
				"element": "H" 
			},
			{
				"x": -1.495470534,
				"y": -0.9892862828,
				"z": -0.9243353289,
				"element": "H" 
			},
			{
				"x": -2.8010940869,
				"y": 0.2027496253,
				"z": -1.1920718962,
				"element": "H" 
			},
			{
				"x": -2.2794203415,
				"y": -0.1561552205,
				"z": 0.4433172098,
				"element": "H" 
			},
			{
				"x": -2.5475181614,
				"y": 3.4287114279,
				"z": 0.1150435851,
				"element": "H" 
			},
			{
				"x": 0.7790743515,
				"y": -2.6403896945,
				"z": -2.3808580722,
				"element": "H" 
			}
		],
		 "valence_orbital": [ 
			{
				"type": "occ",
				"energy": -0.36057,
				"method": "rhf"
			},
			{
				"type": "occ",
				"energy": -0.27779,
				"method": "rhf"
			},
			{
				"type": "occ",
				"energy": -0.2685,
				"method": "rhf"
			},
			{
				"type": "occ",
				"energy": -0.24989,
				"method": "rhf"
			},
			{
				"type": "occ",
				"energy": -0.2398,
				"method": "rhf"
			},
			{
				"type": "unocc",
				"energy": -0.00532,
				"method": "rhf"
			},
			{
				"type": "unocc",
				"energy": 0.02833,
				"method": "rhf"
			},
			{
				"type": "unocc",
				"energy": 0.07476,
				"method": "rhf"
			},
			{
				"type": "unocc",
				"energy": 0.08258,
				"method": "rhf"
			},
			{
				"type": "unocc",
				"energy": 0.10953,
				"method": "rhf"
			}
		],
		"cosmo_sigma_profile": { 
			"-0.025": 0.0,
			"-0.024": 0.0,
			"-0.023": 0.0,
			"-0.022": 0.0,
			"-0.021": 0.0,
			"-0.02": 0.0,
			"-0.019": 0.0,
			"-0.018": 0.0467601668175,
			"-0.017": 1.23843885815,
			"-0.016": 1.70312472716,
			"-0.015": 2.22940127703,
			"-0.014": 1.58925424872,
			"-0.013": 1.1385991081,
			"-0.012": 1.65494684099,
			"-0.011": 1.19066383497,
			"-0.01": 1.30477015821,
			"-0.009": 0.830878044281,
			"-0.008": 1.62986613293,
			"-0.007": 1.57609946517,
			"-0.006": 1.86864971412,
			"-0.005": 9.37450634347,
			"-0.004": 12.1544053116,
			"-0.003": 14.5172203379,
			"-0.002": 18.1658252312,
			"-0.001": 18.6720526999,
			"0.0": 16.440247948,
			"0.001": 7.83352333255,
			"0.002": 6.80830064505,
			"0.003": 7.98660479005,
			"0.004": 7.77340602092,
			"0.005": 6.87378725947,
			"0.006": 6.40782488856,
			"0.007": 6.86595871523,
			"0.008": 6.37740578131,
			"0.009": 4.52855490128,
			"0.01": 3.56210831444,
			"0.011": 2.11629813749,
			"0.012": 2.09764508739,
			"0.013": 1.60042049321,
			"0.014": 0.558333809209,
			"0.015": 0.0,
			"0.016": 0.0,
			"0.017": 0.0,
			"0.018": 0.0,
			"0.019": 0.0,
			"0.02": 0.0,
			"0.021": 0.0,
			"0.022": 0.0,
			"0.023": 0.0,
			"0.024": 0.0,
			"0.025": 0.0
		}
	}
}
