{
	 "smiles": "CC1CNC2=C(NC1=O)C=CC=C2", 
	 "Tm": 477.15, 
	 "num_atms": 25, 
	 "gaussian": { 
		 "optdone": 1, 
		 "sigma_profile": "yes", 
		 "theory": "DFT", 
		 "functional": "B3LYP", 
		 "basiset": "6-31G**", 
		 "properties": { 
			 "R2extent": 2907.1275, 
			 "electric_dipole_moment_norm": 3.39138400362, 
			 "electric_quadrupole_moment_norm": 13.1536321756, 
			 "total_energy": -573.040034889, 
			 "HOMO_LUMO_gap": 0.1858, 
			 "cosmo_polarized_energy": -12.95, 
			 "cosmo_cavitation_energy": 27.1, 
			 "cosmo_dispersion_energy": -20.42, 
			 "cosmo_repulsion_energy": 1.59, 
			 "cosmo_total_nonelectrostatic_energy": 8.27, 
			 "SMD_solvation_energy": 3.92 
		},
		"coords": [
			{
				"x": 4.558862779,
				"y": 0.6102352855,
				"z": -0.9232140499,
				"element": "C" 
			},
			{
				"x": 3.160731953,
				"y": 0.5602450495,
				"z": -0.2904043876,
				"element": "C" 
			},
			{
				"x": 2.6985790211,
				"y": -0.8850384909,
				"z": -0.071793106,
				"element": "C" 
			},
			{
				"x": 1.5524942993,
				"y": -0.9818068237,
				"z": 0.8258165269,
				"element": "N" 
			},
			{
				"x": 0.2558871123,
				"y": -0.7997569035,
				"z": 0.3361213091,
				"element": "C" 
			},
			{
				"x": -0.0625170678,
				"y": 0.2000619788,
				"z": -0.6110259996,
				"element": "C" 
			},
			{
				"x": 0.8475789349,
				"y": 1.1269692766,
				"z": -1.1700853543,
				"element": "N" 
			},
			{
				"x": 2.1984939998,
				"y": 1.4152142772,
				"z": -1.1133129129,
				"element": "C" 
			},
			{
				"x": 2.5997983651,
				"y": 2.3872919438,
				"z": -1.7461735751,
				"element": "O" 
			},
			{
				"x": -1.3971195578,
				"y": 0.3321258357,
				"z": -1.0299219009,
				"element": "C" 
			},
			{
				"x": -2.4145989153,
				"y": -0.4692503337,
				"z": -0.5247324867,
				"element": "C" 
			},
			{
				"x": -2.1054729261,
				"y": -1.4424483347,
				"z": 0.4258802927,
				"element": "C" 
			},
			{
				"x": -0.786021704,
				"y": -1.6019459861,
				"z": 0.8332098283,
				"element": "C" 
			},
			{
				"x": 4.8483483551,
				"y": 1.6429874208,
				"z": -1.1173387262,
				"element": "H" 
			},
			{
				"x": 4.5779102914,
				"y": 0.0751977992,
				"z": -1.8790648827,
				"element": "H" 
			},
			{
				"x": 5.29522169,
				"y": 0.1477870253,
				"z": -0.2583047613,
				"element": "H" 
			},
			{
				"x": 3.2042107467,
				"y": 1.0304383653,
				"z": 0.7014577103,
				"element": "H" 
			},
			{
				"x": 2.5079163139,
				"y": -1.3723926723,
				"z": -1.0415614788,
				"element": "H" 
			},
			{
				"x": 3.520909612,
				"y": -1.4309061275,
				"z": 0.4000048624,
				"element": "H" 
			},
			{
				"x": 1.6079719338,
				"y": -1.7815280734,
				"z": 1.4418156816,
				"element": "H" 
			},
			{
				"x": 0.4027413358,
				"y": 1.8158852646,
				"z": -1.7659954891,
				"element": "H" 
			},
			{
				"x": -1.6327294148,
				"y": 1.0985844631,
				"z": -1.7648792116,
				"element": "H" 
			},
			{
				"x": -3.4340117973,
				"y": -0.3301562161,
				"z": -0.8697416636,
				"element": "H" 
			},
			{
				"x": -2.8795616519,
				"y": -2.0820983529,
				"z": 0.8382273954,
				"element": "H" 
			},
			{
				"x": -0.5347237083,
				"y": -2.3699956707,
				"z": 1.5617163797,
				"element": "H" 
			}
		],
		 "valence_orbital": [ 
			{
				"type": "occ",
				"energy": -0.30291,
				"method": "rhf"
			},
			{
				"type": "occ",
				"energy": -0.29527,
				"method": "rhf"
			},
			{
				"type": "occ",
				"energy": -0.25001,
				"method": "rhf"
			},
			{
				"type": "occ",
				"energy": -0.22919,
				"method": "rhf"
			},
			{
				"type": "occ",
				"energy": -0.19564,
				"method": "rhf"
			},
			{
				"type": "unocc",
				"energy": -0.00984,
				"method": "rhf"
			},
			{
				"type": "unocc",
				"energy": 0.00324,
				"method": "rhf"
			},
			{
				"type": "unocc",
				"energy": 0.04375,
				"method": "rhf"
			},
			{
				"type": "unocc",
				"energy": 0.06949,
				"method": "rhf"
			},
			{
				"type": "unocc",
				"energy": 0.08725,
				"method": "rhf"
			}
		],
		"cosmo_sigma_profile": { 
			"-0.025": 0.0,
			"-0.024": 0.0,
			"-0.023": 0.0,
			"-0.022": 0.0,
			"-0.021": 0.0,
			"-0.02": 0.0,
			"-0.019": 0.0,
			"-0.018": 0.0,
			"-0.017": 0.0,
			"-0.016": 0.0,
			"-0.015": 0.0,
			"-0.014": 0.324897586407,
			"-0.013": 1.25959185549,
			"-0.012": 2.71585805146,
			"-0.011": 2.60187839161,
			"-0.01": 2.81711638355,
			"-0.009": 2.15770899729,
			"-0.008": 3.04621508351,
			"-0.007": 3.02362140107,
			"-0.006": 6.26791495753,
			"-0.005": 14.158775202,
			"-0.004": 19.1055962327,
			"-0.003": 20.0755206962,
			"-0.002": 17.2754862844,
			"-0.001": 16.7280934741,
			"0.0": 13.4580923314,
			"0.001": 13.6898548287,
			"0.002": 11.3379731401,
			"0.003": 8.91786717285,
			"0.004": 10.0177023886,
			"0.005": 11.2698990153,
			"0.006": 9.27565245902,
			"0.007": 5.57391018861,
			"0.008": 2.35666785801,
			"0.009": 1.61528732446,
			"0.01": 2.08300227629,
			"0.011": 1.89207168714,
			"0.012": 2.13391866613,
			"0.013": 4.50815123451,
			"0.014": 3.8564301071,
			"0.015": 0.115737094521,
			"0.016": 0.0,
			"0.017": 0.0,
			"0.018": 0.0,
			"0.019": 0.0,
			"0.02": 0.0,
			"0.021": 0.0,
			"0.022": 0.0,
			"0.023": 0.0,
			"0.024": 0.0,
			"0.025": 0.0
		}
	}
}
