{
	 "smiles": "CN1C(=O)CCC2=C1C=CC(=C2)C(O)=O", 
	 "Tm": 483.15, 
	 "num_atms": 26, 
	 "gaussian": { 
		 "optdone": 1, 
		 "sigma_profile": "yes", 
		 "theory": "DFT", 
		 "functional": "B3LYP", 
		 "basiset": "6-31G**", 
		 "properties": { 
			 "R2extent": 4145.2061, 
			 "electric_dipole_moment_norm": 2.9874045876, 
			 "electric_quadrupole_moment_norm": 32.3886759578, 
			 "total_energy": -706.260439103, 
			 "HOMO_LUMO_gap": 0.17978, 
			 "cosmo_polarized_energy": -19.65, 
			 "cosmo_cavitation_energy": 29.3, 
			 "cosmo_dispersion_energy": -21.71, 
			 "cosmo_repulsion_energy": 1.67, 
			 "cosmo_total_nonelectrostatic_energy": 9.26, 
			 "SMD_solvation_energy": 6.31 
		},
		"coords": [
			{
				"x": 2.6577961287,
				"y": 1.9440826939,
				"z": -1.3682640482,
				"element": "C" 
			},
			{
				"x": 1.714894654,
				"y": 1.6884739701,
				"z": -0.2794274001,
				"element": "N" 
			},
			{
				"x": 2.1176201161,
				"y": 2.0359636199,
				"z": 1.0130617039,
				"element": "C" 
			},
			{
				"x": 3.2277335254,
				"y": 2.4902526337,
				"z": 1.2400322078,
				"element": "O" 
			},
			{
				"x": 1.0776220796,
				"y": 1.8431576089,
				"z": 2.1034442768,
				"element": "C" 
			},
			{
				"x": 0.2023537133,
				"y": 0.6140660144,
				"z": 1.8516805324,
				"element": "C" 
			},
			{
				"x": -0.3838957902,
				"y": 0.6863430024,
				"z": 0.4646274043,
				"element": "C" 
			},
			{
				"x": 0.4184842906,
				"y": 1.216946924,
				"z": -0.570710717,
				"element": "C" 
			},
			{
				"x": -0.0792106104,
				"y": 1.2359714949,
				"z": -1.8851079686,
				"element": "C" 
			},
			{
				"x": -1.3512495218,
				"y": 0.7514900694,
				"z": -2.1638980804,
				"element": "C" 
			},
			{
				"x": -2.1696573494,
				"y": 0.2562648328,
				"z": -1.1430697157,
				"element": "C" 
			},
			{
				"x": -1.6610362563,
				"y": 0.2253637265,
				"z": 0.1645603742,
				"element": "C" 
			},
			{
				"x": -3.5271505791,
				"y": -0.2463793627,
				"z": -1.5146831093,
				"element": "C" 
			},
			{
				"x": -4.4356760227,
				"y": -0.3677947067,
				"z": -0.5066576005,
				"element": "O" 
			},
			{
				"x": -3.8418031189,
				"y": -0.5408115674,
				"z": -2.6446484327,
				"element": "O" 
			},
			{
				"x": 2.3591655288,
				"y": 2.8174951521,
				"z": -1.9589667651,
				"element": "H" 
			},
			{
				"x": 2.7183684595,
				"y": 1.0719097461,
				"z": -2.0245286271,
				"element": "H" 
			},
			{
				"x": 3.6283260127,
				"y": 2.1409443959,
				"z": -0.917824741,
				"element": "H" 
			},
			{
				"x": 1.6156496131,
				"y": 1.7887496281,
				"z": 3.0514767035,
				"element": "H" 
			},
			{
				"x": 0.4553816433,
				"y": 2.7482055383,
				"z": 2.1299568162,
				"element": "H" 
			},
			{
				"x": -0.587832268,
				"y": 0.5377316665,
				"z": 2.6050008212,
				"element": "H" 
			},
			{
				"x": 0.8160684346,
				"y": -0.2935235553,
				"z": 1.9460398173,
				"element": "H" 
			},
			{
				"x": 0.5220838555,
				"y": 1.6345661762,
				"z": -2.6925866593,
				"element": "H" 
			},
			{
				"x": -1.7355552001,
				"y": 0.7582116086,
				"z": -3.1779971717,
				"element": "H" 
			},
			{
				"x": -2.2418595223,
				"y": -0.209983503,
				"z": 0.9758513101,
				"element": "H" 
			},
			{
				"x": -4.1050218158,
				"y": 0.0630021924,
				"z": 0.2932390689,
				"element": "H" 
			}
		],
		 "valence_orbital": [ 
			{
				"type": "occ",
				"energy": -0.30819,
				"method": "rhf"
			},
			{
				"type": "occ",
				"energy": -0.27331,
				"method": "rhf"
			},
			{
				"type": "occ",
				"energy": -0.2713,
				"method": "rhf"
			},
			{
				"type": "occ",
				"energy": -0.26714,
				"method": "rhf"
			},
			{
				"type": "occ",
				"energy": -0.233,
				"method": "rhf"
			},
			{
				"type": "unocc",
				"energy": -0.05322,
				"method": "rhf"
			},
			{
				"type": "unocc",
				"energy": -0.02777,
				"method": "rhf"
			},
			{
				"type": "unocc",
				"energy": 0.00553,
				"method": "rhf"
			},
			{
				"type": "unocc",
				"energy": 0.05172,
				"method": "rhf"
			},
			{
				"type": "unocc",
				"energy": 0.05997,
				"method": "rhf"
			}
		],
		"cosmo_sigma_profile": { 
			"-0.025": 0.0,
			"-0.024": 0.0,
			"-0.023": 0.0,
			"-0.022": 0.0,
			"-0.021": 0.0,
			"-0.02": 0.0,
			"-0.019": 0.0893363300274,
			"-0.018": 0.602248234848,
			"-0.017": 1.03517137241,
			"-0.016": 1.10558258809,
			"-0.015": 1.03804207832,
			"-0.014": 0.603626911973,
			"-0.013": 0.760673952388,
			"-0.012": 1.4168571161,
			"-0.011": 1.44168145311,
			"-0.01": 0.998931343759,
			"-0.009": 0.945793230101,
			"-0.008": 1.38903101653,
			"-0.007": 5.36600033778,
			"-0.006": 14.5958947535,
			"-0.005": 22.1374432869,
			"-0.004": 21.0977081435,
			"-0.003": 22.2219369371,
			"-0.002": 20.3922748288,
			"-0.001": 13.7936974861,
			"0.0": 12.3425798857,
			"0.001": 8.80645564496,
			"0.002": 10.9268266201,
			"0.003": 14.5014495206,
			"0.004": 5.64456908673,
			"0.005": 3.75906251602,
			"0.006": 3.98406581962,
			"0.007": 3.65764647376,
			"0.008": 4.16453087267,
			"0.009": 4.37500513828,
			"0.01": 5.68015824174,
			"0.011": 7.47120160741,
			"0.012": 9.19014608622,
			"0.013": 5.96061133931,
			"0.014": 1.26962396202,
			"0.015": 0.014876297437,
			"0.016": 0.0,
			"0.017": 0.0,
			"0.018": 0.0,
			"0.019": 0.0,
			"0.02": 0.0,
			"0.021": 0.0,
			"0.022": 0.0,
			"0.023": 0.0,
			"0.024": 0.0,
			"0.025": 0.0
		}
	}
}
