{
	 "smiles": "CC1=NN(C2CCS(=O)(=O)C2)C(N2CCCCC2)=C1C=O", 
	 "Tm": 360.15, 
	 "num_atms": 42, 
	 "gaussian": { 
		 "optdone": 1, 
		 "sigma_profile": "yes", 
		 "theory": "DFT", 
		 "functional": "B3LYP", 
		 "basiset": "6-31G**", 
		 "properties": { 
			 "R2extent": 8513.8534, 
			 "electric_dipole_moment_norm": 6.26250914411, 
			 "electric_quadrupole_moment_norm": 34.2123737021, 
			 "total_energy": -1334.17383835, 
			 "HOMO_LUMO_gap": 0.19641, 
			 "cosmo_polarized_energy": -22.47, 
			 "cosmo_cavitation_energy": 43.97, 
			 "cosmo_dispersion_energy": -29.97, 
			 "cosmo_repulsion_energy": 2.28, 
			 "cosmo_total_nonelectrostatic_energy": 16.28, 
			 "SMD_solvation_energy": 6.07 
		},
		"coords": [
			{
				"x": -0.3203634671,
				"y": 1.9612169346,
				"z": 3.7380684055,
				"element": "C" 
			},
			{
				"x": -0.4516933747,
				"y": 1.2442181345,
				"z": 2.4334930011,
				"element": "C" 
			},
			{
				"x": -1.3323577183,
				"y": 0.2615803995,
				"z": 2.2781706369,
				"element": "N" 
			},
			{
				"x": -1.1849065168,
				"y": -0.1687139478,
				"z": 0.9934878691,
				"element": "N" 
			},
			{
				"x": -2.016621828,
				"y": -1.2594589581,
				"z": 0.4965285647,
				"element": "C" 
			},
			{
				"x": -3.5296639882,
				"y": -0.8722015502,
				"z": 0.5070984246,
				"element": "C" 
			},
			{
				"x": -4.1396313532,
				"y": -1.3262483003,
				"z": 1.8321221352,
				"element": "C" 
			},
			{
				"x": -3.4486067114,
				"y": -2.9977777046,
				"z": 2.0336490982,
				"element": "S" 
			},
			{
				"x": -3.3484194532,
				"y": -3.3962630682,
				"z": 3.4434530475,
				"element": "O" 
			},
			{
				"x": -4.1073132078,
				"y": -3.8774066819,
				"z": 1.0508683044,
				"element": "O" 
			},
			{
				"x": -1.8078022124,
				"y": -2.5337266006,
				"z": 1.3539323006,
				"element": "C" 
			},
			{
				"x": -0.2294504015,
				"y": 0.5248566591,
				"z": 0.3146263972,
				"element": "C" 
			},
			{
				"x": 0.0535207211,
				"y": 0.2271415581,
				"z": -1.0259743989,
				"element": "N" 
			},
			{
				"x": 1.4366372785,
				"y": -0.165833924,
				"z": -1.3509730376,
				"element": "C" 
			},
			{
				"x": 1.4303166664,
				"y": -1.0531074974,
				"z": -2.6128262393,
				"element": "C" 
			},
			{
				"x": 0.3112600688,
				"y": -0.6282632951,
				"z": -3.5932942525,
				"element": "C" 
			},
			{
				"x": -0.0109646399,
				"y": 0.8614950862,
				"z": -3.4277303554,
				"element": "C" 
			},
			{
				"x": -0.5494161505,
				"y": 1.1539296339,
				"z": -2.0136470648,
				"element": "C" 
			},
			{
				"x": 0.2769295705,
				"y": 1.4668027197,
				"z": 1.2257953817,
				"element": "C" 
			},
			{
				"x": 1.2995150545,
				"y": 2.4727839538,
				"z": 0.9837670561,
				"element": "C" 
			},
			{
				"x": 1.6928488395,
				"y": 3.2750169873,
				"z": 1.8176118142,
				"element": "O" 
			},
			{
				"x": -0.4979847899,
				"y": 3.0334452504,
				"z": 3.6136058898,
				"element": "H" 
			},
			{
				"x": -1.033392907,
				"y": 1.5536990011,
				"z": 4.4580864914,
				"element": "H" 
			},
			{
				"x": 0.6938000719,
				"y": 1.8622845939,
				"z": 4.1364684681,
				"element": "H" 
			},
			{
				"x": -1.6773081287,
				"y": -1.4218930898,
				"z": -0.5269917789,
				"element": "H" 
			},
			{
				"x": -3.6406199807,
				"y": 0.2047507778,
				"z": 0.3607413829,
				"element": "H" 
			},
			{
				"x": -4.0305034596,
				"y": -1.3853215741,
				"z": -0.318781915,
				"element": "H" 
			},
			{
				"x": -3.7939406632,
				"y": -0.7230317832,
				"z": 2.6739805579,
				"element": "H" 
			},
			{
				"x": -5.227609739,
				"y": -1.4095116914,
				"z": 1.8248489999,
				"element": "H" 
			},
			{
				"x": -1.4531699564,
				"y": -3.3898688604,
				"z": 0.7782403721,
				"element": "H" 
			},
			{
				"x": -1.1494465752,
				"y": -2.3433250873,
				"z": 2.2016743105,
				"element": "H" 
			},
			{
				"x": 2.07996296,
				"y": 0.7148757306,
				"z": -1.5080865186,
				"element": "H" 
			},
			{
				"x": 1.849177107,
				"y": -0.7073284728,
				"z": -0.4961520205,
				"element": "H" 
			},
			{
				"x": 1.2954444546,
				"y": -2.1024898217,
				"z": -2.3304665165,
				"element": "H" 
			},
			{
				"x": 2.4118113067,
				"y": -0.9783074822,
				"z": -3.0952295735,
				"element": "H" 
			},
			{
				"x": -0.5953303211,
				"y": -1.2131773339,
				"z": -3.3988280715,
				"element": "H" 
			},
			{
				"x": 0.6058047398,
				"y": -0.8449626663,
				"z": -4.6251332843,
				"element": "H" 
			},
			{
				"x": -0.7489967895,
				"y": 1.1930039781,
				"z": -4.1653451549,
				"element": "H" 
			},
			{
				"x": 0.8949546348,
				"y": 1.4516996091,
				"z": -3.6118064596,
				"element": "H" 
			},
			{
				"x": -0.3581658097,
				"y": 2.2049612036,
				"z": -1.7459936464,
				"element": "H" 
			},
			{
				"x": -1.6364553942,
				"y": 1.0089339515,
				"z": -1.986488815,
				"element": "H" 
			},
			{
				"x": 1.7218520631,
				"y": 2.4833232283,
				"z": -0.044769806,
				"element": "H" 
			}
		],
		 "valence_orbital": [ 
			{
				"type": "occ",
				"energy": -0.28256,
				"method": "rhf"
			},
			{
				"type": "occ",
				"energy": -0.26585,
				"method": "rhf"
			},
			{
				"type": "occ",
				"energy": -0.25793,
				"method": "rhf"
			},
			{
				"type": "occ",
				"energy": -0.25147,
				"method": "rhf"
			},
			{
				"type": "occ",
				"energy": -0.24362,
				"method": "rhf"
			},
			{
				"type": "unocc",
				"energy": -0.04721,
				"method": "rhf"
			},
			{
				"type": "unocc",
				"energy": 0.00038,
				"method": "rhf"
			},
			{
				"type": "unocc",
				"energy": 0.04382,
				"method": "rhf"
			},
			{
				"type": "unocc",
				"energy": 0.05439,
				"method": "rhf"
			},
			{
				"type": "unocc",
				"energy": 0.06152,
				"method": "rhf"
			}
		],
		"cosmo_sigma_profile": { 
			"-0.025": 0.0,
			"-0.024": 0.0,
			"-0.023": 0.0,
			"-0.022": 0.0,
			"-0.021": 0.0,
			"-0.02": 0.0,
			"-0.019": 0.0,
			"-0.018": 0.0,
			"-0.017": 0.0,
			"-0.016": 0.0,
			"-0.015": 0.0,
			"-0.014": 0.0,
			"-0.013": 0.0,
			"-0.012": 0.0,
			"-0.011": 0.0,
			"-0.01": 0.0,
			"-0.009": 2.160122727,
			"-0.008": 6.10292037502,
			"-0.007": 7.59561595128,
			"-0.006": 13.9390425858,
			"-0.005": 23.6178953769,
			"-0.004": 31.2732622599,
			"-0.003": 42.7531498946,
			"-0.002": 41.8081226143,
			"-0.001": 37.9941171505,
			"0.0": 30.4655313924,
			"0.001": 19.5831541438,
			"0.002": 10.1618398044,
			"0.003": 6.94527644085,
			"0.004": 5.69718778533,
			"0.005": 6.09942252115,
			"0.006": 4.90692512821,
			"0.007": 4.81411368627,
			"0.008": 5.64659038463,
			"0.009": 4.82418575021,
			"0.01": 6.06250314624,
			"0.011": 13.6763116417,
			"0.012": 13.2678343915,
			"0.013": 4.1345053963,
			"0.014": 0.842787471698,
			"0.015": 0.0,
			"0.016": 0.0,
			"0.017": 0.0,
			"0.018": 0.0,
			"0.019": 0.0,
			"0.02": 0.0,
			"0.021": 0.0,
			"0.022": 0.0,
			"0.023": 0.0,
			"0.024": 0.0,
			"0.025": 0.0
		}
	}
}
