{
	 "smiles": "ONC(=O)C1=C(O)C=CC(Br)=C1", 
	 "Tm": 505.15, 
	 "num_atms": 18, 
	 "gaussian": { 
		 "optdone": 1, 
		 "sigma_profile": "yes", 
		 "theory": "DFT", 
		 "functional": "B3LYP", 
		 "basiset": "6-31G**", 
		 "properties": { 
			 "R2extent": 4725.0349, 
			 "electric_dipole_moment_norm": 2.05600813471, 
			 "electric_quadrupole_moment_norm": 7.39466212277, 
			 "total_energy": -3122.13804453, 
			 "HOMO_LUMO_gap": 0.17022, 
			 "cosmo_polarized_energy": -12.16, 
			 "cosmo_cavitation_energy": 25.02, 
			 "cosmo_dispersion_energy": -19.25, 
			 "cosmo_repulsion_energy": 1.53, 
			 "cosmo_total_nonelectrostatic_energy": 7.3, 
			 "SMD_solvation_energy": 5.17 
		},
		"coords": [
			{
				"x": -0.6541677658,
				"y": -2.3625182554,
				"z": -3.685926752,
				"element": "O" 
			},
			{
				"x": -1.2771307577,
				"y": -1.2627031147,
				"z": -3.0715096674,
				"element": "N" 
			},
			{
				"x": -0.3792284612,
				"y": -0.4560063493,
				"z": -2.3465574323,
				"element": "C" 
			},
			{
				"x": 0.820158959,
				"y": -0.7061397394,
				"z": -2.4007953265,
				"element": "O" 
			},
			{
				"x": -0.9758883133,
				"y": 0.679462689,
				"z": -1.6063609735,
				"element": "C" 
			},
			{
				"x": -2.2140144709,
				"y": 1.2717347495,
				"z": -1.9488306245,
				"element": "C" 
			},
			{
				"x": -2.9914443111,
				"y": 0.8646465349,
				"z": -2.9811229401,
				"element": "O" 
			},
			{
				"x": -2.6830245179,
				"y": 2.3575613783,
				"z": -1.1945874258,
				"element": "C" 
			},
			{
				"x": -1.946883534,
				"y": 2.8509590405,
				"z": -0.1268098447,
				"element": "C" 
			},
			{
				"x": -0.7114306759,
				"y": 2.2751009717,
				"z": 0.1934112571,
				"element": "C" 
			},
			{
				"x": 0.302934353,
				"y": 2.9711736007,
				"z": 1.6533806849,
				"element": "Br" 
			},
			{
				"x": -0.2234387932,
				"y": 1.2094253542,
				"z": -0.5424749297,
				"element": "C" 
			},
			{
				"x": 0.2813982427,
				"y": -2.2390401452,
				"z": -3.4089313767,
				"element": "H" 
			},
			{
				"x": -2.0636532361,
				"y": -1.6029488317,
				"z": -2.5180615848,
				"element": "H" 
			},
			{
				"x": -2.5032773517,
				"y": 0.2099935464,
				"z": -3.5174131369,
				"element": "H" 
			},
			{
				"x": -3.6318322149,
				"y": 2.8033649806,
				"z": -1.4725873717,
				"element": "H" 
			},
			{
				"x": -2.3222855427,
				"y": 3.6865067356,
				"z": 0.4532563482,
				"element": "H" 
			},
			{
				"x": 0.7369083917,
				"y": 0.7614268541,
				"z": -0.3167789035,
				"element": "H" 
			}
		],
		 "valence_orbital": [ 
			{
				"type": "occ",
				"energy": -0.30327,
				"method": "rhf"
			},
			{
				"type": "occ",
				"energy": -0.29381,
				"method": "rhf"
			},
			{
				"type": "occ",
				"energy": -0.28284,
				"method": "rhf"
			},
			{
				"type": "occ",
				"energy": -0.26652,
				"method": "rhf"
			},
			{
				"type": "occ",
				"energy": -0.23714,
				"method": "rhf"
			},
			{
				"type": "unocc",
				"energy": -0.06692,
				"method": "rhf"
			},
			{
				"type": "unocc",
				"energy": -0.01932,
				"method": "rhf"
			},
			{
				"type": "unocc",
				"energy": -0.00108,
				"method": "rhf"
			},
			{
				"type": "unocc",
				"energy": 0.01762,
				"method": "rhf"
			},
			{
				"type": "unocc",
				"energy": 0.0662,
				"method": "rhf"
			}
		],
		"cosmo_sigma_profile": { 
			"-0.025": 0.0,
			"-0.024": 0.0,
			"-0.023": 0.0,
			"-0.022": 0.0,
			"-0.021": 0.0,
			"-0.02": 0.0,
			"-0.019": 0.0,
			"-0.018": 0.0,
			"-0.017": 0.327750033346,
			"-0.016": 1.70857720346,
			"-0.015": 1.01726317345,
			"-0.014": 1.01290756493,
			"-0.013": 1.41704880756,
			"-0.012": 1.94408957859,
			"-0.011": 2.52474015401,
			"-0.01": 4.06377361759,
			"-0.009": 3.3199909621,
			"-0.008": 3.62776596999,
			"-0.007": 6.97342372635,
			"-0.006": 6.91474644699,
			"-0.005": 8.53484804579,
			"-0.004": 10.1614976446,
			"-0.003": 9.11453504519,
			"-0.002": 9.86604472458,
			"-0.001": 10.7740304029,
			"0.0": 14.931266755,
			"0.001": 19.5337480888,
			"0.002": 20.9702553642,
			"0.003": 13.2206912986,
			"0.004": 14.8144341879,
			"0.005": 7.38050214992,
			"0.006": 4.13228300689,
			"0.007": 3.71095911839,
			"0.008": 4.53293619099,
			"0.009": 4.62596690276,
			"0.01": 6.81798676634,
			"0.011": 4.53908546176,
			"0.012": 1.12306705116,
			"0.013": 0.0,
			"0.014": 0.0,
			"0.015": 0.0,
			"0.016": 0.0,
			"0.017": 0.0,
			"0.018": 0.0,
			"0.019": 0.0,
			"0.02": 0.0,
			"0.021": 0.0,
			"0.022": 0.0,
			"0.023": 0.0,
			"0.024": 0.0,
			"0.025": 0.0
		}
	}
}
