{
	 "smiles": "CC(C)(C)OC(=O)NC(CCCCN)C(O)=O", 
	 "Tm": 478.15, 
	 "num_atms": 39, 
	 "gaussian": { 
		 "optdone": 1, 
		 "sigma_profile": "yes", 
		 "theory": "DFT", 
		 "functional": "B3LYP", 
		 "basiset": "6-31G**", 
		 "properties": { 
			 "R2extent": 5447.9103, 
			 "electric_dipole_moment_norm": 3.16954437893, 
			 "electric_quadrupole_moment_norm": 25.8841663922, 
			 "total_energy": -842.878986038, 
			 "HOMO_LUMO_gap": 0.24578, 
			 "cosmo_polarized_energy": -21.28, 
			 "cosmo_cavitation_energy": 40.71, 
			 "cosmo_dispersion_energy": -26.32, 
			 "cosmo_repulsion_energy": 2.12, 
			 "cosmo_total_nonelectrostatic_energy": 16.5, 
			 "SMD_solvation_energy": 7.35 
		},
		"coords": [
			{
				"x": -1.4850815175,
				"y": 1.8699897146,
				"z": 2.1317250149,
				"element": "C" 
			},
			{
				"x": 0.0358377001,
				"y": 1.9393847478,
				"z": 2.2911597135,
				"element": "C" 
			},
			{
				"x": 0.4712239515,
				"y": 1.9622704524,
				"z": 3.7589875868,
				"element": "C" 
			},
			{
				"x": 0.6198969798,
				"y": 3.1282459531,
				"z": 1.5263623105,
				"element": "C" 
			},
			{
				"x": 0.6643806669,
				"y": 0.783331166,
				"z": 1.6102457626,
				"element": "O" 
			},
			{
				"x": 0.4257627417,
				"y": -0.4780480933,
				"z": 2.0053742924,
				"element": "C" 
			},
			{
				"x": -0.3367163641,
				"y": -0.8482775437,
				"z": 2.8783109479,
				"element": "O" 
			},
			{
				"x": 1.2426143015,
				"y": -1.3662267946,
				"z": 1.306739055,
				"element": "N" 
			},
			{
				"x": 1.859761707,
				"y": -1.0853035014,
				"z": -0.0008806704,
				"element": "C" 
			},
			{
				"x": 0.8960546008,
				"y": -0.6944179794,
				"z": -1.1300346984,
				"element": "C" 
			},
			{
				"x": -0.1317256118,
				"y": -1.7813174811,
				"z": -1.4664627969,
				"element": "C" 
			},
			{
				"x": -1.0449726004,
				"y": -1.3821611284,
				"z": -2.6337819815,
				"element": "C" 
			},
			{
				"x": -2.0635365249,
				"y": -2.4570098297,
				"z": -3.0286279749,
				"element": "C" 
			},
			{
				"x": -3.0338940691,
				"y": -2.7000360682,
				"z": -1.9543186845,
				"element": "N" 
			},
			{
				"x": 3.0217425368,
				"y": -0.0781091494,
				"z": 0.1436766693,
				"element": "C" 
			},
			{
				"x": 3.6320002109,
				"y": -0.0880728088,
				"z": 1.3451937406,
				"element": "O" 
			},
			{
				"x": 3.413629571,
				"y": 0.6104814552,
				"z": -0.7656824643,
				"element": "O" 
			},
			{
				"x": -1.7562226331,
				"y": 1.8049953345,
				"z": 1.0733972642,
				"element": "H" 
			},
			{
				"x": -1.9342718298,
				"y": 2.7809209703,
				"z": 2.5401944883,
				"element": "H" 
			},
			{
				"x": -1.8976190384,
				"y": 1.0082884613,
				"z": 2.6570327991,
				"element": "H" 
			},
			{
				"x": 0.0989856628,
				"y": 2.8750342573,
				"z": 4.2347202989,
				"element": "H" 
			},
			{
				"x": 1.563336767,
				"y": 1.9637808648,
				"z": 3.8311586854,
				"element": "H" 
			},
			{
				"x": 0.0777819064,
				"y": 1.1008230283,
				"z": 4.2999552368,
				"element": "H" 
			},
			{
				"x": 0.2432283159,
				"y": 4.0637196063,
				"z": 1.9504124177,
				"element": "H" 
			},
			{
				"x": 1.711421126,
				"y": 3.1301959302,
				"z": 1.5891571964,
				"element": "H" 
			},
			{
				"x": 0.3369838502,
				"y": 3.0884340762,
				"z": 0.470684218,
				"element": "H" 
			},
			{
				"x": 0.9483380597,
				"y": -2.3198462489,
				"z": 1.4696465199,
				"element": "H" 
			},
			{
				"x": 2.3499825035,
				"y": -2.0283098621,
				"z": -0.282681933,
				"element": "H" 
			},
			{
				"x": 1.5098310432,
				"y": -0.4656188155,
				"z": -2.006729787,
				"element": "H" 
			},
			{
				"x": 0.3883560478,
				"y": 0.2358201697,
				"z": -0.8571439448,
				"element": "H" 
			},
			{
				"x": 0.3907002691,
				"y": -2.7176078594,
				"z": -1.7175661477,
				"element": "H" 
			},
			{
				"x": -0.7467341014,
				"y": -1.9901432495,
				"z": -0.5811512568,
				"element": "H" 
			},
			{
				"x": -0.4253478183,
				"y": -1.1484807362,
				"z": -3.5099318676,
				"element": "H" 
			},
			{
				"x": -1.5910237271,
				"y": -0.467633816,
				"z": -2.3718555561,
				"element": "H" 
			},
			{
				"x": -2.62263811,
				"y": -2.1014133379,
				"z": -3.9018439398,
				"element": "H" 
			},
			{
				"x": -1.5206686719,
				"y": -3.363846481,
				"z": -3.3551721235,
				"element": "H" 
			},
			{
				"x": -3.7954154772,
				"y": -3.2779118164,
				"z": -2.3002685917,
				"element": "H" 
			},
			{
				"x": -2.6013083398,
				"y": -3.2308713308,
				"z": -1.2027285367,
				"element": "H" 
			},
			{
				"x": 3.1115259153,
				"y": -0.6702522563,
				"z": 1.9276287376,
				"element": "H" 
			}
		],
		 "valence_orbital": [ 
			{
				"type": "occ",
				"energy": -0.30214,
				"method": "rhf"
			},
			{
				"type": "occ",
				"energy": -0.29172,
				"method": "rhf"
			},
			{
				"type": "occ",
				"energy": -0.27842,
				"method": "rhf"
			},
			{
				"type": "occ",
				"energy": -0.25845,
				"method": "rhf"
			},
			{
				"type": "occ",
				"energy": -0.23557,
				"method": "rhf"
			},
			{
				"type": "unocc",
				"energy": 0.01021,
				"method": "rhf"
			},
			{
				"type": "unocc",
				"energy": 0.0306,
				"method": "rhf"
			},
			{
				"type": "unocc",
				"energy": 0.06028,
				"method": "rhf"
			},
			{
				"type": "unocc",
				"energy": 0.07542,
				"method": "rhf"
			},
			{
				"type": "unocc",
				"energy": 0.07596,
				"method": "rhf"
			}
		],
		"cosmo_sigma_profile": { 
			"-0.025": 0.0,
			"-0.024": 0.0,
			"-0.023": 0.0,
			"-0.022": 0.0,
			"-0.021": 0.0,
			"-0.02": 0.0,
			"-0.019": 0.0,
			"-0.018": 0.0,
			"-0.017": 0.0,
			"-0.016": 0.0,
			"-0.015": 0.344775734857,
			"-0.014": 1.74368903137,
			"-0.013": 1.29020118328,
			"-0.012": 1.46743624153,
			"-0.011": 2.32539999883,
			"-0.01": 3.40546075922,
			"-0.009": 7.90914900256,
			"-0.008": 6.86348347335,
			"-0.007": 5.85890216011,
			"-0.006": 7.40272939679,
			"-0.005": 8.64789607853,
			"-0.004": 19.1847703911,
			"-0.003": 28.7993874613,
			"-0.002": 38.6502597702,
			"-0.001": 40.645163503,
			"0.0": 40.1908305903,
			"0.001": 19.1781875265,
			"0.002": 8.60853276848,
			"0.003": 7.90692299427,
			"0.004": 6.37895113404,
			"0.005": 5.52581126976,
			"0.006": 4.93046040172,
			"0.007": 3.76358504403,
			"0.008": 5.55900435878,
			"0.009": 5.55700649321,
			"0.01": 7.12761672486,
			"0.011": 7.1604923917,
			"0.012": 8.99609408142,
			"0.013": 5.29731268179,
			"0.014": 0.423541442156,
			"0.015": 0.401572294903,
			"0.016": 1.04311328151,
			"0.017": 0.263905845349,
			"0.018": 0.816489248602,
			"0.019": 0.39141043027,
			"0.02": 0.513800887527,
			"0.021": 0.0245666158296,
			"0.022": 0.0,
			"0.023": 0.0,
			"0.024": 0.0,
			"0.025": 0.0
		}
	}
}
