{
	 "smiles": "CCOC(=O)C1=C(N)OC2=CC=C3C=CC=CC3=C2[C@H]1C1=CC=C(C)C=C1", 
	 "Tm": 474.5, 
	 "num_atms": 48, 
	 "gaussian": { 
		 "optdone": 1, 
		 "sigma_profile": "yes", 
		 "theory": "DFT", 
		 "functional": "B3LYP", 
		 "basiset": "6-31G**", 
		 "properties": { 
			 "R2extent": 10772.9511, 
			 "electric_dipole_moment_norm": 2.96351974011, 
			 "electric_quadrupole_moment_norm": 14.5188385634, 
			 "total_energy": -1169.56430408, 
			 "HOMO_LUMO_gap": 0.16518, 
			 "cosmo_polarized_energy": -14.97, 
			 "cosmo_cavitation_energy": 50.22, 
			 "cosmo_dispersion_energy": -34.67, 
			 "cosmo_repulsion_energy": 2.64, 
			 "cosmo_total_nonelectrostatic_energy": 18.19, 
			 "SMD_solvation_energy": 9.12 
		},
		"coords": [
			{
				"x": 2.6642434137,
				"y": -1.1880090527,
				"z": -5.4733317707,
				"element": "C" 
			},
			{
				"x": 1.5347581447,
				"y": -0.6400185329,
				"z": -4.6204397184,
				"element": "C" 
			},
			{
				"x": 1.6994393104,
				"y": -1.1655445853,
				"z": -3.2860523509,
				"element": "O" 
			},
			{
				"x": 0.7635994277,
				"y": -0.747444212,
				"z": -2.3661604572,
				"element": "C" 
			},
			{
				"x": -0.1284535747,
				"y": 0.0232433326,
				"z": -2.6897472792,
				"element": "O" 
			},
			{
				"x": 0.9250511374,
				"y": -1.3063835215,
				"z": -1.0321271342,
				"element": "C" 
			},
			{
				"x": 1.8600241367,
				"y": -2.2476636651,
				"z": -0.6914283508,
				"element": "C" 
			},
			{
				"x": 2.9132458883,
				"y": -2.6989764537,
				"z": -1.4249690419,
				"element": "N" 
			},
			{
				"x": 1.8563210108,
				"y": -2.8596658206,
				"z": 0.5262628704,
				"element": "O" 
			},
			{
				"x": 0.725113789,
				"y": -2.7629102581,
				"z": 1.3250936394,
				"element": "C" 
			},
			{
				"x": 0.6407306993,
				"y": -3.739386361,
				"z": 2.3436397132,
				"element": "C" 
			},
			{
				"x": -0.4440394351,
				"y": -3.7372904544,
				"z": 3.1821108391,
				"element": "C" 
			},
			{
				"x": -1.4742626752,
				"y": -2.7680216879,
				"z": 3.0350134522,
				"element": "C" 
			},
			{
				"x": -2.6062636576,
				"y": -2.7591270017,
				"z": 3.8914448405,
				"element": "C" 
			},
			{
				"x": -3.5952191473,
				"y": -1.8120490057,
				"z": 3.7495823378,
				"element": "C" 
			},
			{
				"x": -3.4846801519,
				"y": -0.8270273942,
				"z": 2.7413586095,
				"element": "C" 
			},
			{
				"x": -2.3987793634,
				"y": -0.8075577746,
				"z": 1.8927091,
				"element": "C" 
			},
			{
				"x": -1.3640358163,
				"y": -1.77670556,
				"z": 2.0028707501,
				"element": "C" 
			},
			{
				"x": -0.2272131673,
				"y": -1.7886066941,
				"z": 1.1295280329,
				"element": "C" 
			},
			{
				"x": -0.0334933097,
				"y": -0.7664822536,
				"z": 0.0253158338,
				"element": "C" 
			},
			{
				"x": 0.4169802756,
				"y": 0.6035023446,
				"z": 0.5579274017,
				"element": "C" 
			},
			{
				"x": 1.3806784181,
				"y": 0.7196598145,
				"z": 1.567639992,
				"element": "C" 
			},
			{
				"x": 1.8001397586,
				"y": 1.9708510703,
				"z": 2.0158050758,
				"element": "C" 
			},
			{
				"x": 1.2716857606,
				"y": 3.1507178542,
				"z": 1.4744316739,
				"element": "C" 
			},
			{
				"x": 1.7031160469,
				"y": 4.5046032711,
				"z": 1.9880559025,
				"element": "C" 
			},
			{
				"x": 0.3142900676,
				"y": 3.0305461651,
				"z": 0.4603628888,
				"element": "C" 
			},
			{
				"x": -0.1079766652,
				"y": 1.7795445482,
				"z": 0.0085523956,
				"element": "C" 
			},
			{
				"x": 2.6334275418,
				"y": -2.2814471359,
				"z": -5.5141010779,
				"element": "H" 
			},
			{
				"x": 2.5756819685,
				"y": -0.8079987701,
				"z": -6.4958660685,
				"element": "H" 
			},
			{
				"x": 3.6383529436,
				"y": -0.8818412877,
				"z": -5.0796309807,
				"element": "H" 
			},
			{
				"x": 0.5529620979,
				"y": -0.9371528833,
				"z": -5.0020613934,
				"element": "H" 
			},
			{
				"x": 1.5501312291,
				"y": 0.4529310796,
				"z": -4.5744692753,
				"element": "H" 
			},
			{
				"x": 2.9259405035,
				"y": -2.4117505635,
				"z": -2.3933385992,
				"element": "H" 
			},
			{
				"x": 3.2574410641,
				"y": -3.6177020409,
				"z": -1.1886667321,
				"element": "H" 
			},
			{
				"x": 1.4361198658,
				"y": -4.4718380705,
				"z": 2.4315473372,
				"element": "H" 
			},
			{
				"x": -0.5294251113,
				"y": -4.4817160912,
				"z": 3.9688540189,
				"element": "H" 
			},
			{
				"x": -2.6769174527,
				"y": -3.518644859,
				"z": 4.6661045267,
				"element": "H" 
			},
			{
				"x": -4.4564531499,
				"y": -1.8156508324,
				"z": 4.411222826,
				"element": "H" 
			},
			{
				"x": -4.2615809565,
				"y": -0.0750105725,
				"z": 2.6374406493,
				"element": "H" 
			},
			{
				"x": -2.3244504601,
				"y": -0.0311749243,
				"z": 1.1402754868,
				"element": "H" 
			},
			{
				"x": -0.9911237613,
				"y": -0.6097066295,
				"z": -0.4806608279,
				"element": "H" 
			},
			{
				"x": 1.8067923343,
				"y": -0.1749592643,
				"z": 2.0133815116,
				"element": "H" 
			},
			{
				"x": 2.5500046929,
				"y": 2.0325620303,
				"z": 2.8015146287,
				"element": "H" 
			},
			{
				"x": 2.7564302232,
				"y": 4.5035087236,
				"z": 2.2863759195,
				"element": "H" 
			},
			{
				"x": 1.1186672466,
				"y": 4.8025073999,
				"z": 2.8680691915,
				"element": "H" 
			},
			{
				"x": 1.5673572359,
				"y": 5.282171548,
				"z": 1.230186272,
				"element": "H" 
			},
			{
				"x": -0.1074807204,
				"y": 3.928623226,
				"z": 0.0144280858,
				"element": "H" 
			},
			{
				"x": -0.8313776566,
				"y": 1.7095918066,
				"z": -0.7980547449,
				"element": "H" 
			}
		],
		 "valence_orbital": [ 
			{
				"type": "occ",
				"energy": -0.23643,
				"method": "rhf"
			},
			{
				"type": "occ",
				"energy": -0.23402,
				"method": "rhf"
			},
			{
				"type": "occ",
				"energy": -0.2241,
				"method": "rhf"
			},
			{
				"type": "occ",
				"energy": -0.21039,
				"method": "rhf"
			},
			{
				"type": "occ",
				"energy": -0.20406,
				"method": "rhf"
			},
			{
				"type": "unocc",
				"energy": -0.03888,
				"method": "rhf"
			},
			{
				"type": "unocc",
				"energy": -0.01483,
				"method": "rhf"
			},
			{
				"type": "unocc",
				"energy": 0.00145,
				"method": "rhf"
			},
			{
				"type": "unocc",
				"energy": 0.01316,
				"method": "rhf"
			},
			{
				"type": "unocc",
				"energy": 0.01481,
				"method": "rhf"
			}
		],
		"cosmo_sigma_profile": { 
			"-0.025": 0.0,
			"-0.024": 0.0,
			"-0.023": 0.0,
			"-0.022": 0.0,
			"-0.021": 0.0,
			"-0.02": 0.0,
			"-0.019": 0.0,
			"-0.018": 0.0,
			"-0.017": 0.0,
			"-0.016": 0.0,
			"-0.015": 0.140163529439,
			"-0.014": 0.906624809099,
			"-0.013": 1.14743785229,
			"-0.012": 1.54657677954,
			"-0.011": 0.762473778142,
			"-0.01": 1.46082916153,
			"-0.009": 1.75018861243,
			"-0.008": 1.44836260494,
			"-0.007": 3.66123946366,
			"-0.006": 11.2897038686,
			"-0.005": 20.3587889589,
			"-0.004": 36.5655964396,
			"-0.003": 42.3847375676,
			"-0.002": 35.463449628,
			"-0.001": 33.0270056053,
			"0.0": 34.5878335414,
			"0.001": 32.0397911449,
			"0.002": 27.0537322127,
			"0.003": 28.7206779693,
			"0.004": 30.8824206356,
			"0.005": 21.2103309999,
			"0.006": 12.8131859287,
			"0.007": 7.24874142871,
			"0.008": 2.26861751536,
			"0.009": 2.26806780798,
			"0.01": 1.5896232114,
			"0.011": 1.67246428839,
			"0.012": 1.89789005359,
			"0.013": 2.766609709,
			"0.014": 0.537650630847,
			"0.015": 0.0,
			"0.016": 0.0,
			"0.017": 0.0,
			"0.018": 0.0,
			"0.019": 0.0,
			"0.02": 0.0,
			"0.021": 0.0,
			"0.022": 0.0,
			"0.023": 0.0,
			"0.024": 0.0,
			"0.025": 0.0
		}
	}
}
