{
	 "smiles": "CN(C(C)=O)C1=CC(N)=CC=C1", 
	 "Tm": 388.15, 
	 "num_atms": 24, 
	 "gaussian": { 
		 "optdone": 1, 
		 "sigma_profile": "yes", 
		 "theory": "DFT", 
		 "functional": "B3LYP", 
		 "basiset": "6-31G**", 
		 "properties": { 
			 "R2extent": 4429.0067, 
			 "electric_dipole_moment_norm": 4.83773062189, 
			 "electric_quadrupole_moment_norm": 19.0226455815, 
			 "total_energy": -534.927667634, 
			 "HOMO_LUMO_gap": 0.19442, 
			 "cosmo_polarized_energy": -16.42, 
			 "cosmo_cavitation_energy": 26.92, 
			 "cosmo_dispersion_energy": -19.76, 
			 "cosmo_repulsion_energy": 1.58, 
			 "cosmo_total_nonelectrostatic_energy": 8.74, 
			 "SMD_solvation_energy": 5.25 
		},
		"coords": [
			{
				"x": -0.0320723997,
				"y": 0.2001735242,
				"z": -0.3553769123,
				"element": "C" 
			},
			{
				"x": 1.0128977142,
				"y": 0.3902702261,
				"z": -1.3624236567,
				"element": "N" 
			},
			{
				"x": 0.6930814758,
				"y": 0.715984033,
				"z": -2.677371147,
				"element": "C" 
			},
			{
				"x": -0.7897542083,
				"y": 0.7789801729,
				"z": -3.0280473911,
				"element": "C" 
			},
			{
				"x": 1.5399553191,
				"y": 0.9400463049,
				"z": -3.5297484895,
				"element": "O" 
			},
			{
				"x": 2.3724477112,
				"y": 0.3956606471,
				"z": -0.9104316771,
				"element": "C" 
			},
			{
				"x": 2.6643067093,
				"y": 0.9255654474,
				"z": 0.3524726331,
				"element": "C" 
			},
			{
				"x": 3.9734408485,
				"y": 0.9083331286,
				"z": 0.8597431632,
				"element": "C" 
			},
			{
				"x": 4.2562924536,
				"y": 1.4953298697,
				"z": 2.0980824581,
				"element": "N" 
			},
			{
				"x": 4.9965017548,
				"y": 0.3540617107,
				"z": 0.0762496763,
				"element": "C" 
			},
			{
				"x": 4.6982460926,
				"y": -0.1638476247,
				"z": -1.1820219072,
				"element": "C" 
			},
			{
				"x": 3.4003217493,
				"y": -0.1568506011,
				"z": -1.6881628571,
				"element": "C" 
			},
			{
				"x": 0.361400149,
				"y": -0.4272481837,
				"z": 0.4458314115,
				"element": "H" 
			},
			{
				"x": -0.3807643724,
				"y": 1.1445908098,
				"z": 0.0842985856,
				"element": "H" 
			},
			{
				"x": -0.8919282691,
				"y": -0.3119533796,
				"z": -0.7877362987,
				"element": "H" 
			},
			{
				"x": -1.2623873418,
				"y": -0.2072398861,
				"z": -2.9604298468,
				"element": "H" 
			},
			{
				"x": -1.348020909,
				"y": 1.4609837603,
				"z": -2.37909919,
				"element": "H" 
			},
			{
				"x": -0.8562364751,
				"y": 1.1276370639,
				"z": -4.0580493491,
				"element": "H" 
			},
			{
				"x": 1.8797035219,
				"y": 1.3825548478,
				"z": 0.9479398666,
				"element": "H" 
			},
			{
				"x": 5.1016022346,
				"y": 1.1612457216,
				"z": 2.5404188268,
				"element": "H" 
			},
			{
				"x": 3.4819144296,
				"y": 1.5182954696,
				"z": 2.747413989,
				"element": "H" 
			},
			{
				"x": 6.0163613967,
				"y": 0.3373470679,
				"z": 0.4519607402,
				"element": "H" 
			},
			{
				"x": 5.4960983269,
				"y": -0.5941139556,
				"z": -1.7809682976,
				"element": "H" 
			},
			{
				"x": 3.1851920885,
				"y": -0.5568061746,
				"z": -2.6680443301,
				"element": "H" 
			}
		],
		 "valence_orbital": [ 
			{
				"type": "occ",
				"energy": -0.30835,
				"method": "rhf"
			},
			{
				"type": "occ",
				"energy": -0.26627,
				"method": "rhf"
			},
			{
				"type": "occ",
				"energy": -0.24155,
				"method": "rhf"
			},
			{
				"type": "occ",
				"energy": -0.21995,
				"method": "rhf"
			},
			{
				"type": "occ",
				"energy": -0.19489,
				"method": "rhf"
			},
			{
				"type": "unocc",
				"energy": -0.00047,
				"method": "rhf"
			},
			{
				"type": "unocc",
				"energy": 0.02105,
				"method": "rhf"
			},
			{
				"type": "unocc",
				"energy": 0.04265,
				"method": "rhf"
			},
			{
				"type": "unocc",
				"energy": 0.07917,
				"method": "rhf"
			},
			{
				"type": "unocc",
				"energy": 0.08617,
				"method": "rhf"
			}
		],
		"cosmo_sigma_profile": { 
			"-0.025": 0.0,
			"-0.024": 0.0,
			"-0.023": 0.0,
			"-0.022": 0.0,
			"-0.021": 0.0,
			"-0.02": 0.0,
			"-0.019": 0.0,
			"-0.018": 0.0,
			"-0.017": 0.0,
			"-0.016": 0.0,
			"-0.015": 0.0,
			"-0.014": 0.0,
			"-0.013": 0.0615202507444,
			"-0.012": 2.22487002963,
			"-0.011": 2.74489121856,
			"-0.01": 2.78540905533,
			"-0.009": 3.90016285228,
			"-0.008": 2.55733524047,
			"-0.007": 4.81229397201,
			"-0.006": 10.5079387345,
			"-0.005": 19.5148205726,
			"-0.004": 20.2735107996,
			"-0.003": 18.8704872439,
			"-0.002": 17.2382189302,
			"-0.001": 14.1257967588,
			"0.0": 9.13902828815,
			"0.001": 8.9630927544,
			"0.002": 8.58404598017,
			"0.003": 7.94758768735,
			"0.004": 7.23887021338,
			"0.005": 7.5404723468,
			"0.006": 10.6684677385,
			"0.007": 9.07463545719,
			"0.008": 3.32271941957,
			"0.009": 2.39097376729,
			"0.01": 2.43907869136,
			"0.011": 1.93779213083,
			"0.012": 3.18266959433,
			"0.013": 4.6028784789,
			"0.014": 4.67020734374,
			"0.015": 1.18350695151,
			"0.016": 0.0,
			"0.017": 0.0,
			"0.018": 0.0,
			"0.019": 0.0,
			"0.02": 0.0,
			"0.021": 0.0,
			"0.022": 0.0,
			"0.023": 0.0,
			"0.024": 0.0,
			"0.025": 0.0
		}
	}
}
