{
	 "smiles": "O=C(CSC1=NN=NN1C1=CC=CC=C1)C1=CC=CN1", 
	 "Tm": 456.15, 
	 "num_atms": 31, 
	 "gaussian": { 
		 "optdone": 1, 
		 "sigma_profile": "yes", 
		 "theory": "DFT", 
		 "functional": "B3LYP", 
		 "basiset": "6-31G**", 
		 "properties": { 
			 "R2extent": 7415.5324, 
			 "electric_dipole_moment_norm": 4.36564300991, 
			 "electric_quadrupole_moment_norm": 23.3647367208, 
			 "total_energy": -1249.11656995, 
			 "HOMO_LUMO_gap": 0.16499, 
			 "cosmo_polarized_energy": -15.68, 
			 "cosmo_cavitation_energy": 37.71, 
			 "cosmo_dispersion_energy": -27.22, 
			 "cosmo_repulsion_energy": 2.02, 
			 "cosmo_total_nonelectrostatic_energy": 12.51, 
			 "SMD_solvation_energy": 5.6 
		},
		"coords": [
			{
				"x": -0.8183674361,
				"y": -3.158106809,
				"z": 2.0514077812,
				"element": "O" 
			},
			{
				"x": -0.2643697378,
				"y": -2.8429382136,
				"z": 1.0029447635,
				"element": "C" 
			},
			{
				"x": 0.6631096345,
				"y": -1.6139835439,
				"z": 1.016509048,
				"element": "C" 
			},
			{
				"x": -0.2569094771,
				"y": -0.0230748247,
				"z": 0.79248246,
				"element": "S" 
			},
			{
				"x": 0.1659703052,
				"y": 0.3705324587,
				"z": -0.8618974596,
				"element": "C" 
			},
			{
				"x": 0.7877263165,
				"y": -0.4042171694,
				"z": -1.7415504185,
				"element": "N" 
			},
			{
				"x": 0.9474180115,
				"y": 0.340153847,
				"z": -2.8689233037,
				"element": "N" 
			},
			{
				"x": 0.4523193297,
				"y": 1.5143057618,
				"z": -2.7231146636,
				"element": "N" 
			},
			{
				"x": -0.0594468666,
				"y": 1.5732939349,
				"z": -1.4529542402,
				"element": "N" 
			},
			{
				"x": -0.658676701,
				"y": 2.7722462884,
				"z": -0.9608770564,
				"element": "C" 
			},
			{
				"x": -0.0439664395,
				"y": 3.9944192618,
				"z": -1.2465647432,
				"element": "C" 
			},
			{
				"x": -0.6275039269,
				"y": 5.1702444455,
				"z": -0.7798402079,
				"element": "C" 
			},
			{
				"x": -1.804058946,
				"y": 5.1247405827,
				"z": -0.0275127165,
				"element": "C" 
			},
			{
				"x": -2.4088198755,
				"y": 3.8976346577,
				"z": 0.2476910433,
				"element": "C" 
			},
			{
				"x": -1.8456934669,
				"y": 2.7126727649,
				"z": -0.2271109157,
				"element": "C" 
			},
			{
				"x": -0.4249534018,
				"y": -3.6002095039,
				"z": -0.2243095626,
				"element": "C" 
			},
			{
				"x": -1.0875547321,
				"y": -4.8188640396,
				"z": -0.3916884463,
				"element": "C" 
			},
			{
				"x": -0.9555143597,
				"y": -5.1946915081,
				"z": -1.740238973,
				"element": "C" 
			},
			{
				"x": -0.2216165951,
				"y": -4.1945920178,
				"z": -2.3722578674,
				"element": "C" 
			},
			{
				"x": 0.1073884181,
				"y": -3.2488468743,
				"z": -1.4559190516,
				"element": "N" 
			},
			{
				"x": 1.4719914188,
				"y": -1.642548188,
				"z": 0.2853097955,
				"element": "H" 
			},
			{
				"x": 1.079502881,
				"y": -1.5435425606,
				"z": 2.022735008,
				"element": "H" 
			},
			{
				"x": 0.8708214649,
				"y": 4.0102187199,
				"z": -1.8276785173,
				"element": "H" 
			},
			{
				"x": -0.1565785005,
				"y": 6.1233748993,
				"z": -0.9991394761,
				"element": "H" 
			},
			{
				"x": -2.249804704,
				"y": 6.0440328956,
				"z": 0.3395284915,
				"element": "H" 
			},
			{
				"x": -3.3290895477,
				"y": 3.8574984387,
				"z": 0.8217374586,
				"element": "H" 
			},
			{
				"x": -2.3322320707,
				"y": 1.7604684068,
				"z": -0.0450551511,
				"element": "H" 
			},
			{
				"x": -1.5849372445,
				"y": -5.3550567669,
				"z": 0.4032685472,
				"element": "H" 
			},
			{
				"x": -1.3405325502,
				"y": -6.0884247631,
				"z": -2.2104938114,
				"element": "H" 
			},
			{
				"x": 0.0791901297,
				"y": -4.0943156292,
				"z": -3.4054364088,
				"element": "H" 
			},
			{
				"x": 0.5371886695,
				"y": -2.3459249516,
				"z": -1.672251406,
				"element": "H" 
			}
		],
		 "valence_orbital": [ 
			{
				"type": "occ",
				"energy": -0.27673,
				"method": "rhf"
			},
			{
				"type": "occ",
				"energy": -0.26422,
				"method": "rhf"
			},
			{
				"type": "occ",
				"energy": -0.24942,
				"method": "rhf"
			},
			{
				"type": "occ",
				"energy": -0.24286,
				"method": "rhf"
			},
			{
				"type": "occ",
				"energy": -0.21884,
				"method": "rhf"
			},
			{
				"type": "unocc",
				"energy": -0.05385,
				"method": "rhf"
			},
			{
				"type": "unocc",
				"energy": -0.05118,
				"method": "rhf"
			},
			{
				"type": "unocc",
				"energy": -0.03169,
				"method": "rhf"
			},
			{
				"type": "unocc",
				"energy": -0.01209,
				"method": "rhf"
			},
			{
				"type": "unocc",
				"energy": 0.00249,
				"method": "rhf"
			}
		],
		"cosmo_sigma_profile": { 
			"-0.025": 0.0,
			"-0.024": 0.0,
			"-0.023": 0.0,
			"-0.022": 0.0,
			"-0.021": 0.0,
			"-0.02": 0.0,
			"-0.019": 0.0,
			"-0.018": 0.0,
			"-0.017": 0.0,
			"-0.016": 0.0,
			"-0.015": 0.0,
			"-0.014": 0.0,
			"-0.013": 0.0,
			"-0.012": 0.0,
			"-0.011": 0.0,
			"-0.01": 0.00309136277808,
			"-0.009": 1.20906561572,
			"-0.008": 7.73754611843,
			"-0.007": 16.0894198632,
			"-0.006": 22.5085309727,
			"-0.005": 25.7857501375,
			"-0.004": 21.2368618346,
			"-0.003": 19.7865718212,
			"-0.002": 17.9591330461,
			"-0.001": 17.286040837,
			"0.0": 17.4842787512,
			"0.001": 20.84567297,
			"0.002": 23.4874173278,
			"0.003": 24.4064691853,
			"0.004": 14.984753376,
			"0.005": 12.5889873457,
			"0.006": 9.8215551603,
			"0.007": 6.94555201925,
			"0.008": 4.28786249733,
			"0.009": 4.41377963083,
			"0.01": 4.21588252315,
			"0.011": 3.41723139022,
			"0.012": 5.92425491447,
			"0.013": 3.68162267438,
			"0.014": 0.171751143861,
			"0.015": 0.0,
			"0.016": 0.0,
			"0.017": 0.0,
			"0.018": 0.0,
			"0.019": 0.0,
			"0.02": 0.0,
			"0.021": 0.0,
			"0.022": 0.0,
			"0.023": 0.0,
			"0.024": 0.0,
			"0.025": 0.0
		}
	}
}
