{
	 "smiles": "BrC1=CC=C(S1)C1=NC=CC=C1", 
	 "Tm": 361.15, 
	 "num_atms": 18, 
	 "gaussian": { 
		 "optdone": 1, 
		 "sigma_profile": "yes", 
		 "theory": "DFT", 
		 "functional": "B3LYP", 
		 "basiset": "6-31G**", 
		 "properties": { 
			 "R2extent": 6364.3156, 
			 "electric_dipole_moment_norm": 3.49153580248, 
			 "electric_quadrupole_moment_norm": 8.66130858647, 
			 "total_energy": -3370.89888617, 
			 "HOMO_LUMO_gap": 0.15933, 
			 "cosmo_polarized_energy": -7.63, 
			 "cosmo_cavitation_energy": 26.47, 
			 "cosmo_dispersion_energy": -20.68, 
			 "cosmo_repulsion_energy": 1.59, 
			 "cosmo_total_nonelectrostatic_energy": 7.38, 
			 "SMD_solvation_energy": 2.04 
		},
		"coords": [
			{
				"x": -5.46023874,
				"y": -1.1779793299,
				"z": 0.8231938059,
				"element": "Br" 
			},
			{
				"x": -3.8853363891,
				"y": -0.7726971996,
				"z": -0.1314194186,
				"element": "C" 
			},
			{
				"x": -3.7058079328,
				"y": -0.8789218739,
				"z": -1.4845191867,
				"element": "C" 
			},
			{
				"x": -2.3924568893,
				"y": -0.4905355913,
				"z": -1.8701642898,
				"element": "C" 
			},
			{
				"x": -1.5990873305,
				"y": -0.0978064499,
				"z": -0.8155105459,
				"element": "C" 
			},
			{
				"x": -2.471298339,
				"y": -0.2013186948,
				"z": 0.7012312043,
				"element": "S" 
			},
			{
				"x": -0.2113007108,
				"y": 0.3654441637,
				"z": -0.7957781074,
				"element": "C" 
			},
			{
				"x": 0.2839808144,
				"y": 0.6771420385,
				"z": 0.4182930669,
				"element": "N" 
			},
			{
				"x": 1.5450441924,
				"y": 1.1059467187,
				"z": 0.4999163952,
				"element": "C" 
			},
			{
				"x": 2.3851524356,
				"y": 1.251178112,
				"z": -0.6048124801,
				"element": "C" 
			},
			{
				"x": 1.8723841705,
				"y": 0.9284143644,
				"z": -1.8622860812,
				"element": "C" 
			},
			{
				"x": 0.5603609908,
				"y": 0.4799827429,
				"z": -1.9658485357,
				"element": "C" 
			},
			{
				"x": -4.4738022352,
				"y": -1.2175108418,
				"z": -2.1684211224,
				"element": "H" 
			},
			{
				"x": -2.0542085588,
				"y": -0.5045796364,
				"z": -2.9000206282,
				"element": "H" 
			},
			{
				"x": 1.9016273959,
				"y": 1.3456229751,
				"z": 1.5000784154,
				"element": "H" 
			},
			{
				"x": 3.4034436621,
				"y": 1.6044424521,
				"z": -0.4810244112,
				"element": "H" 
			},
			{
				"x": 2.4873526443,
				"y": 1.0249054769,
				"z": -2.7524605261,
				"element": "H" 
			},
			{
				"x": 0.1401908195,
				"y": 0.2232705735,
				"z": -2.9322475542,
				"element": "H" 
			}
		],
		 "valence_orbital": [ 
			{
				"type": "occ",
				"energy": -0.29355,
				"method": "rhf"
			},
			{
				"type": "occ",
				"energy": -0.27776,
				"method": "rhf"
			},
			{
				"type": "occ",
				"energy": -0.26429,
				"method": "rhf"
			},
			{
				"type": "occ",
				"energy": -0.25847,
				"method": "rhf"
			},
			{
				"type": "occ",
				"energy": -0.21582,
				"method": "rhf"
			},
			{
				"type": "unocc",
				"energy": -0.05649,
				"method": "rhf"
			},
			{
				"type": "unocc",
				"energy": -0.02613,
				"method": "rhf"
			},
			{
				"type": "unocc",
				"energy": 0.00171,
				"method": "rhf"
			},
			{
				"type": "unocc",
				"energy": 0.01381,
				"method": "rhf"
			},
			{
				"type": "unocc",
				"energy": 0.03269,
				"method": "rhf"
			}
		],
		"cosmo_sigma_profile": { 
			"-0.025": 0.0,
			"-0.024": 0.0,
			"-0.023": 0.0,
			"-0.022": 0.0,
			"-0.021": 0.0,
			"-0.02": 0.0,
			"-0.019": 0.0,
			"-0.018": 0.0,
			"-0.017": 0.0,
			"-0.016": 0.0,
			"-0.015": 0.0,
			"-0.014": 0.0,
			"-0.013": 0.0,
			"-0.012": 0.0,
			"-0.011": 0.0,
			"-0.01": 0.0,
			"-0.009": 1.06716543504,
			"-0.008": 4.55287997895,
			"-0.007": 9.64995730606,
			"-0.006": 12.3640729968,
			"-0.005": 14.2008607649,
			"-0.004": 10.2016775514,
			"-0.003": 10.2800018685,
			"-0.002": 9.02139134454,
			"-0.001": 12.4314530861,
			"0.0": 14.7598638194,
			"0.001": 22.3946200985,
			"0.002": 36.4897449355,
			"0.003": 32.862997563,
			"0.004": 16.3629603349,
			"0.005": 2.76255763259,
			"0.006": 1.67675424025,
			"0.007": 1.74318750653,
			"0.008": 2.12786094152,
			"0.009": 1.15207774807,
			"0.01": 1.07354744268,
			"0.011": 1.28218863048,
			"0.012": 0.885743471503,
			"0.013": 0.0414656956098,
			"0.014": 0.0,
			"0.015": 0.0,
			"0.016": 0.0,
			"0.017": 0.0,
			"0.018": 0.0,
			"0.019": 0.0,
			"0.02": 0.0,
			"0.021": 0.0,
			"0.022": 0.0,
			"0.023": 0.0,
			"0.024": 0.0,
			"0.025": 0.0
		}
	}
}
