{
	 "smiles": "CCCOC1=CC=C(C=C1)C#N", 
	 "Tm": 314.15, 
	 "num_atms": 23, 
	 "gaussian": { 
		 "optdone": 1, 
		 "sigma_profile": "yes", 
		 "theory": "DFT", 
		 "functional": "B3LYP", 
		 "basiset": "6-31G**", 
		 "properties": { 
			 "R2extent": 2854.9117, 
			 "electric_dipole_moment_norm": 6.00261914001, 
			 "electric_quadrupole_moment_norm": 17.9816963352, 
			 "total_energy": -517.653025749, 
			 "HOMO_LUMO_gap": 0.19794, 
			 "cosmo_polarized_energy": -10.51, 
			 "cosmo_cavitation_energy": 27.56, 
			 "cosmo_dispersion_energy": -19.38, 
			 "cosmo_repulsion_energy": 1.57, 
			 "cosmo_total_nonelectrostatic_energy": 9.74, 
			 "SMD_solvation_energy": 6.42 
		},
		"coords": [
			{
				"x": -2.5060283268,
				"y": -0.4609203866,
				"z": -2.9233169389,
				"element": "C" 
			},
			{
				"x": -2.5800462923,
				"y": 0.4071160208,
				"z": -1.6634435191,
				"element": "C" 
			},
			{
				"x": -1.4879581001,
				"y": 1.4758438252,
				"z": -1.6046549851,
				"element": "C" 
			},
			{
				"x": -0.1636900615,
				"y": 0.9228236839,
				"z": -1.6262835611,
				"element": "O" 
			},
			{
				"x": 0.4028855885,
				"y": 0.4491987519,
				"z": -0.4874506812,
				"element": "C" 
			},
			{
				"x": 1.6962776715,
				"y": -0.0827565526,
				"z": -0.6390963538,
				"element": "C" 
			},
			{
				"x": 2.3840172412,
				"y": -0.5804948616,
				"z": 0.4545347697,
				"element": "C" 
			},
			{
				"x": 1.794485076,
				"y": -0.5601709004,
				"z": 1.7340542658,
				"element": "C" 
			},
			{
				"x": 0.5039837612,
				"y": -0.0305614054,
				"z": 1.8814298772,
				"element": "C" 
			},
			{
				"x": -0.191904379,
				"y": 0.4695216108,
				"z": 0.7839663642,
				"element": "C" 
			},
			{
				"x": 2.5008532011,
				"y": -1.0747826313,
				"z": 2.8675693046,
				"element": "C" 
			},
			{
				"x": 3.0757778162,
				"y": -1.4934428727,
				"z": 3.7890810508,
				"element": "N" 
			},
			{
				"x": -2.6187094284,
				"y": 0.1461100122,
				"z": -3.8287209117,
				"element": "H" 
			},
			{
				"x": -3.2977682256,
				"y": -1.2159038479,
				"z": -2.9258273218,
				"element": "H" 
			},
			{
				"x": -1.5445883662,
				"y": -0.9781331751,
				"z": -2.9864482465,
				"element": "H" 
			},
			{
				"x": -2.5252345166,
				"y": -0.2258946297,
				"z": -0.7701401012,
				"element": "H" 
			},
			{
				"x": -3.5467716502,
				"y": 0.9255284489,
				"z": -1.6168450159,
				"element": "H" 
			},
			{
				"x": -1.5277189523,
				"y": 2.1047566253,
				"z": -2.4992493316,
				"element": "H" 
			},
			{
				"x": -1.6085707033,
				"y": 2.1312564065,
				"z": -0.7337250361,
				"element": "H" 
			},
			{
				"x": 2.1376710042,
				"y": -0.0879350033,
				"z": -1.62985305,
				"element": "H" 
			},
			{
				"x": 3.3819129293,
				"y": -0.9878763212,
				"z": 0.330946597,
				"element": "H" 
			},
			{
				"x": 0.042356356,
				"y": -0.0139144505,
				"z": 2.8632278124,
				"element": "H" 
			},
			{
				"x": -1.189031643,
				"y": 0.8652316528,
				"z": 0.9302450123,
				"element": "H" 
			}
		],
		 "valence_orbital": [ 
			{
				"type": "occ",
				"energy": -0.33473,
				"method": "rhf"
			},
			{
				"type": "occ",
				"energy": -0.32167,
				"method": "rhf"
			},
			{
				"type": "occ",
				"energy": -0.31425,
				"method": "rhf"
			},
			{
				"type": "occ",
				"energy": -0.27404,
				"method": "rhf"
			},
			{
				"type": "occ",
				"energy": -0.23475,
				"method": "rhf"
			},
			{
				"type": "unocc",
				"energy": -0.03681,
				"method": "rhf"
			},
			{
				"type": "unocc",
				"energy": -0.02245,
				"method": "rhf"
			},
			{
				"type": "unocc",
				"energy": 0.04378,
				"method": "rhf"
			},
			{
				"type": "unocc",
				"energy": 0.07241,
				"method": "rhf"
			},
			{
				"type": "unocc",
				"energy": 0.08464,
				"method": "rhf"
			}
		],
		"cosmo_sigma_profile": { 
			"-0.025": 0.0,
			"-0.024": 0.0,
			"-0.023": 0.0,
			"-0.022": 0.0,
			"-0.021": 0.0,
			"-0.02": 0.0,
			"-0.019": 0.0,
			"-0.018": 0.0,
			"-0.017": 0.0,
			"-0.016": 0.0,
			"-0.015": 0.0,
			"-0.014": 0.0,
			"-0.013": 0.0,
			"-0.012": 0.0,
			"-0.011": 0.0,
			"-0.01": 0.0,
			"-0.009": 0.0320104172225,
			"-0.008": 3.60454683059,
			"-0.007": 8.59985035657,
			"-0.006": 10.6349036616,
			"-0.005": 12.6538897157,
			"-0.004": 15.943040596,
			"-0.003": 20.4060177045,
			"-0.002": 18.0230204896,
			"-0.001": 20.1724813643,
			"0.0": 21.9004735125,
			"0.001": 18.6925734847,
			"0.002": 19.2260591762,
			"0.003": 13.1418421016,
			"0.004": 4.72615297376,
			"0.005": 3.47425271486,
			"0.006": 4.12871863451,
			"0.007": 3.3375146602,
			"0.008": 3.84547380413,
			"0.009": 4.94597676087,
			"0.01": 3.62386463887,
			"0.011": 3.19302846371,
			"0.012": 2.52452996985,
			"0.013": 2.27579351995,
			"0.014": 0.551494170205,
			"0.015": 0.0,
			"0.016": 0.0,
			"0.017": 0.0,
			"0.018": 0.0,
			"0.019": 0.0,
			"0.02": 0.0,
			"0.021": 0.0,
			"0.022": 0.0,
			"0.023": 0.0,
			"0.024": 0.0,
			"0.025": 0.0
		}
	}
}
