{
	 "smiles": "ClC(=O)C1=C2C=CC=CC2=NC(Cl)=C1", 
	 "Tm": 359.15, 
	 "num_atms": 19, 
	 "gaussian": { 
		 "optdone": 1, 
		 "sigma_profile": "yes", 
		 "theory": "DFT", 
		 "functional": "B3LYP", 
		 "basiset": "6-31G**", 
		 "properties": { 
			 "R2extent": 3890.1235, 
			 "electric_dipole_moment_norm": 2.52975205504, 
			 "electric_quadrupole_moment_norm": 9.98297572871, 
			 "total_energy": -1434.44562582, 
			 "HOMO_LUMO_gap": 0.14525, 
			 "cosmo_polarized_energy": -6.62, 
			 "cosmo_cavitation_energy": 27.48, 
			 "cosmo_dispersion_energy": -20.77, 
			 "cosmo_repulsion_energy": 1.62, 
			 "cosmo_total_nonelectrostatic_energy": 8.33, 
			 "SMD_solvation_energy": 3.33 
		},
		"coords": [
			{
				"x": 0.5393518387,
				"y": 3.7545200263,
				"z": 0.3325780856,
				"element": "Cl" 
			},
			{
				"x": -0.3503667211,
				"y": 2.1629476395,
				"z": 0.4625907134,
				"element": "C" 
			},
			{
				"x": -1.3842899135,
				"y": 2.148849279,
				"z": 1.0590673243,
				"element": "O" 
			},
			{
				"x": 0.3124328512,
				"y": 1.0057782942,
				"z": -0.2103552194,
				"element": "C" 
			},
			{
				"x": -0.4033187161,
				"y": -0.2274735286,
				"z": -0.4232611825,
				"element": "C" 
			},
			{
				"x": -1.7595368451,
				"y": -0.4706156075,
				"z": -0.0804075153,
				"element": "C" 
			},
			{
				"x": -2.3428443843,
				"y": -1.6910856011,
				"z": -0.3510516217,
				"element": "C" 
			},
			{
				"x": -1.6125154372,
				"y": -2.7300846087,
				"z": -0.9714086882,
				"element": "C" 
			},
			{
				"x": -0.2965351197,
				"y": -2.5307985149,
				"z": -1.3181215965,
				"element": "C" 
			},
			{
				"x": 0.3330976695,
				"y": -1.2872855854,
				"z": -1.0566574474,
				"element": "C" 
			},
			{
				"x": 1.6407510263,
				"y": -1.1653322342,
				"z": -1.4306330007,
				"element": "N" 
			},
			{
				"x": 2.2360896716,
				"y": -0.0326684395,
				"z": -1.2093898979,
				"element": "C" 
			},
			{
				"x": 3.9219140666,
				"y": 0.1122248344,
				"z": -1.692132796,
				"element": "Cl" 
			},
			{
				"x": 1.630886713,
				"y": 1.0970304477,
				"z": -0.6100300506,
				"element": "C" 
			},
			{
				"x": -2.3332682037,
				"y": 0.3073840847,
				"z": 0.402052986,
				"element": "H" 
			},
			{
				"x": -3.3817347134,
				"y": -1.8542849844,
				"z": -0.0806597889,
				"element": "H" 
			},
			{
				"x": -2.0929235889,
				"y": -3.6825846508,
				"z": -1.1733025847,
				"element": "H" 
			},
			{
				"x": 0.2995473641,
				"y": -3.299902523,
				"z": -1.7969004857,
				"element": "H" 
			},
			{
				"x": 2.2014624418,
				"y": 2.0036816722,
				"z": -0.4687772338,
				"element": "H" 
			}
		],
		 "valence_orbital": [ 
			{
				"type": "occ",
				"energy": -0.32742,
				"method": "rhf"
			},
			{
				"type": "occ",
				"energy": -0.31186,
				"method": "rhf"
			},
			{
				"type": "occ",
				"energy": -0.29003,
				"method": "rhf"
			},
			{
				"type": "occ",
				"energy": -0.27179,
				"method": "rhf"
			},
			{
				"type": "occ",
				"energy": -0.25706,
				"method": "rhf"
			},
			{
				"type": "unocc",
				"energy": -0.11181,
				"method": "rhf"
			},
			{
				"type": "unocc",
				"energy": -0.04428,
				"method": "rhf"
			},
			{
				"type": "unocc",
				"energy": -0.03671,
				"method": "rhf"
			},
			{
				"type": "unocc",
				"energy": 0.00232,
				"method": "rhf"
			},
			{
				"type": "unocc",
				"energy": 0.01537,
				"method": "rhf"
			}
		],
		"cosmo_sigma_profile": { 
			"-0.025": 0.0,
			"-0.024": 0.0,
			"-0.023": 0.0,
			"-0.022": 0.0,
			"-0.021": 0.0,
			"-0.02": 0.0,
			"-0.019": 0.0,
			"-0.018": 0.0,
			"-0.017": 0.0,
			"-0.016": 0.0,
			"-0.015": 0.0,
			"-0.014": 0.0,
			"-0.013": 0.0,
			"-0.012": 0.0,
			"-0.011": 0.0,
			"-0.01": 0.0,
			"-0.009": 0.0,
			"-0.008": 0.935617399337,
			"-0.007": 7.17590912279,
			"-0.006": 11.2344232364,
			"-0.005": 14.1367359654,
			"-0.004": 12.5009919598,
			"-0.003": 19.0723592229,
			"-0.002": 20.5390759527,
			"-0.001": 16.052452491,
			"0.0": 19.3142920208,
			"0.001": 22.2391894078,
			"0.002": 23.2727229419,
			"0.003": 22.6719522615,
			"0.004": 15.2634003411,
			"0.005": 7.66334370715,
			"0.006": 3.89059841228,
			"0.007": 4.36184324548,
			"0.008": 3.22647055831,
			"0.009": 1.3616320406,
			"0.01": 1.11281121034,
			"0.011": 0.784908857253,
			"0.012": 0.617322871959,
			"0.013": 0.18760055122,
			"0.014": 0.0,
			"0.015": 0.0,
			"0.016": 0.0,
			"0.017": 0.0,
			"0.018": 0.0,
			"0.019": 0.0,
			"0.02": 0.0,
			"0.021": 0.0,
			"0.022": 0.0,
			"0.023": 0.0,
			"0.024": 0.0,
			"0.0": 0.0
		}
	}
}
