{
	 "smiles": "CC1CCC2C(OC(=O)C2=C)C2(C)C(=O)C=CC12O", 
	 "Tm": 437.15, 
	 "num_atms": 37, 
	 "gaussian": { 
		 "optdone": 1, 
		 "sigma_profile": "yes", 
		 "theory": "DFT", 
		 "functional": "B3LYP", 
		 "basiset": "6-31G**", 
		 "properties": { 
			 "R2extent": 3976.2224, 
			 "electric_dipole_moment_norm": 7.63200781577, 
			 "electric_quadrupole_moment_norm": 21.0697943094, 
			 "total_energy": -883.294357448, 
			 "HOMO_LUMO_gap": 0.18245, 
			 "cosmo_polarized_energy": -23.28, 
			 "cosmo_cavitation_energy": 35.31, 
			 "cosmo_dispersion_energy": -25.0, 
			 "cosmo_repulsion_energy": 1.86, 
			 "cosmo_total_nonelectrostatic_energy": 12.16, 
			 "SMD_solvation_energy": 7.78 
		},
		"coords": [
			{
				"x": -1.6569665936,
				"y": -0.4176219754,
				"z": -2.9688231313,
				"element": "C" 
			},
			{
				"x": -1.4846779715,
				"y": -0.298923919,
				"z": -1.4420874774,
				"element": "C" 
			},
			{
				"x": -1.3777229286,
				"y": -1.7195548173,
				"z": -0.840459514,
				"element": "C" 
			},
			{
				"x": -1.2847579594,
				"y": -1.8759635298,
				"z": 0.6877078796,
				"element": "C" 
			},
			{
				"x": 0.01639715,
				"y": -1.4566305161,
				"z": 1.411165564,
				"element": "C" 
			},
			{
				"x": 0.4507300291,
				"y": 0.0519641042,
				"z": 1.441356903,
				"element": "C" 
			},
			{
				"x": 1.8857233241,
				"y": 0.0610111499,
				"z": 1.2769224594,
				"element": "O" 
			},
			{
				"x": 2.3796840399,
				"y": -1.1527531605,
				"z": 0.9121817972,
				"element": "C" 
			},
			{
				"x": 3.5458935015,
				"y": -1.3323540959,
				"z": 0.659922851,
				"element": "O" 
			},
			{
				"x": 1.269999071,
				"y": -2.1509457991,
				"z": 0.9330748597,
				"element": "C" 
			},
			{
				"x": 1.4771768138,
				"y": -3.4280538998,
				"z": 0.6124512115,
				"element": "C" 
			},
			{
				"x": -0.2233028589,
				"y": 1.0221004155,
				"z": 0.4519579697,
				"element": "C" 
			},
			{
				"x": -1.6145832035,
				"y": 1.4269647491,
				"z": 1.011002224,
				"element": "C" 
			},
			{
				"x": 0.5200054755,
				"y": 2.3874517502,
				"z": 0.3851932861,
				"element": "C" 
			},
			{
				"x": 0.9819582042,
				"y": 2.9848378946,
				"z": 1.3346829743,
				"element": "O" 
			},
			{
				"x": 0.4187499238,
				"y": 2.862590201,
				"z": -1.0151007381,
				"element": "C" 
			},
			{
				"x": -0.091657413,
				"y": 1.8969479497,
				"z": -1.7887792323,
				"element": "C" 
			},
			{
				"x": -0.2646372448,
				"y": 0.5714397214,
				"z": -1.0466038256,
				"element": "C" 
			},
			{
				"x": 0.9419201251,
				"y": -0.1804911591,
				"z": -1.2832557704,
				"element": "O" 
			},
			{
				"x": -2.4850088366,
				"y": -1.0929777245,
				"z": -3.2041319609,
				"element": "H" 
			},
			{
				"x": -0.764165033,
				"y": -0.8349652276,
				"z": -3.451982273,
				"element": "H" 
			},
			{
				"x": -1.8792435553,
				"y": 0.5436237665,
				"z": -3.4406376754,
				"element": "H" 
			},
			{
				"x": -2.3890433833,
				"y": 0.1845782409,
				"z": -1.055500088,
				"element": "H" 
			},
			{
				"x": -0.5191056446,
				"y": -2.2239869596,
				"z": -1.2954047061,
				"element": "H" 
			},
			{
				"x": -2.2672180715,
				"y": -2.2740168889,
				"z": -1.1649384187,
				"element": "H" 
			},
			{
				"x": -1.4117594067,
				"y": -2.9445539296,
				"z": 0.9032869259,
				"element": "H" 
			},
			{
				"x": -2.1410857749,
				"y": -1.3940256529,
				"z": 1.1716882893,
				"element": "H" 
			},
			{
				"x": -0.1316180001,
				"y": -1.7447718399,
				"z": 2.4611101286,
				"element": "H" 
			},
			{
				"x": 0.2764521729,
				"y": 0.4696162963,
				"z": 2.4372232135,
				"element": "H" 
			},
			{
				"x": 0.6893976732,
				"y": -4.1752275397,
				"z": 0.6330088508,
				"element": "H" 
			},
			{
				"x": 2.4728151451,
				"y": -3.7466828511,
				"z": 0.3187810336,
				"element": "H" 
			},
			{
				"x": -1.470937131,
				"y": 1.9533216633,
				"z": 1.958879434,
				"element": "H" 
			},
			{
				"x": -2.2716925842,
				"y": 0.5765747532,
				"z": 1.1925396342,
				"element": "H" 
			},
			{
				"x": -2.1277015275,
				"y": 2.1094720113,
				"z": 0.3276750851,
				"element": "H" 
			},
			{
				"x": 0.7300308711,
				"y": 3.8551415748,
				"z": -1.3198211861,
				"element": "H" 
			},
			{
				"x": -0.2643976464,
				"y": 1.9834229425,
				"z": -2.8570392875,
				"element": "H" 
			},
			{
				"x": 1.0254492482,
				"y": -0.3453576988,
				"z": -2.2316472893,
				"element": "H" 
			}
		],
		 "valence_orbital": [ 
			{
				"type": "occ",
				"energy": -0.27937,
				"method": "rhf"
			},
			{
				"type": "occ",
				"energy": -0.2747,
				"method": "rhf"
			},
			{
				"type": "occ",
				"energy": -0.26229,
				"method": "rhf"
			},
			{
				"type": "occ",
				"energy": -0.25355,
				"method": "rhf"
			},
			{
				"type": "occ",
				"energy": -0.24332,
				"method": "rhf"
			},
			{
				"type": "unocc",
				"energy": -0.06087,
				"method": "rhf"
			},
			{
				"type": "unocc",
				"energy": -0.03273,
				"method": "rhf"
			},
			{
				"type": "unocc",
				"energy": 0.0404,
				"method": "rhf"
			},
			{
				"type": "unocc",
				"energy": 0.05663,
				"method": "rhf"
			},
			{
				"type": "unocc",
				"energy": 0.06858,
				"method": "rhf"
			}
		],
		"cosmo_sigma_profile": { 
			"-0.025": 0.0,
			"-0.024": 0.0,
			"-0.023": 0.0,
			"-0.022": 0.0,
			"-0.021": 0.0,
			"-0.02": 0.0,
			"-0.019": 0.0,
			"-0.018": 0.0,
			"-0.017": 0.0,
			"-0.016": 0.101001793191,
			"-0.015": 0.635404172605,
			"-0.014": 1.23028239329,
			"-0.013": 1.09928803467,
			"-0.012": 0.905358700932,
			"-0.011": 1.18605025812,
			"-0.01": 1.08764663749,
			"-0.009": 1.06572006639,
			"-0.008": 2.63502990272,
			"-0.007": 6.40389883475,
			"-0.006": 16.2488104449,
			"-0.005": 20.2601386908,
			"-0.004": 24.9383231012,
			"-0.003": 28.6834700507,
			"-0.002": 27.0921645013,
			"-0.001": 27.1504534824,
			"0.0": 23.7407711188,
			"0.001": 14.0627686253,
			"0.002": 8.16557527246,
			"0.003": 7.18497940755,
			"0.004": 4.15287449989,
			"0.005": 4.89356390514,
			"0.006": 5.60433924352,
			"0.007": 4.33706714481,
			"0.008": 4.70104563569,
			"0.009": 4.91863882983,
			"0.01": 9.17772217041,
			"0.011": 9.01174603773,
			"0.012": 10.8469211201,
			"0.013": 4.06383461514,
			"0.014": 0.366477712096,
			"0.015": 0.0,
			"0.016": 0.0,
			"0.017": 0.0,
			"0.018": 0.0,
			"0.019": 0.0,
			"0.02": 0.0,
			"0.021": 0.0,
			"0.022": 0.0,
			"0.023": 0.0,
			"0.024": 0.0,
			"0.025": 0.0
		}
	}
}
