{
	 "smiles": "OC(=O)CCN1C=CC2=C1C=CC=C2", 
	 "Tm": 323.15, 
	 "num_atms": 25, 
	 "gaussian": { 
		 "optdone": 1, 
		 "sigma_profile": "yes", 
		 "theory": "DFT", 
		 "functional": "B3LYP", 
		 "basiset": "6-31G**", 
		 "properties": { 
			 "R2extent": 3591.2118, 
			 "electric_dipole_moment_norm": 2.04135801368, 
			 "electric_quadrupole_moment_norm": 7.52092388075, 
			 "total_energy": -631.018478708, 
			 "HOMO_LUMO_gap": 0.1919, 
			 "cosmo_polarized_energy": -12.85, 
			 "cosmo_cavitation_energy": 29.3, 
			 "cosmo_dispersion_energy": -20.98, 
			 "cosmo_repulsion_energy": 1.65, 
			 "cosmo_total_nonelectrostatic_energy": 9.97, 
			 "SMD_solvation_energy": 5.94 
		},
		"coords": [
			{
				"x": -0.6177848112,
				"y": 3.0017894242,
				"z": -2.232950313,
				"element": "O" 
			},
			{
				"x": -1.0056960071,
				"y": 1.7239468442,
				"z": -2.016029351,
				"element": "C" 
			},
			{
				"x": -1.7304215546,
				"y": 1.1191726413,
				"z": -2.776819033,
				"element": "O" 
			},
			{
				"x": -0.4288507838,
				"y": 1.1741725081,
				"z": -0.7316681025,
				"element": "C" 
			},
			{
				"x": -0.8625782421,
				"y": -0.2777103771,
				"z": -0.4845317755,
				"element": "C" 
			},
			{
				"x": -0.3174208083,
				"y": -0.820823155,
				"z": 0.7458849246,
				"element": "N" 
			},
			{
				"x": -0.9583127708,
				"y": -0.8323330689,
				"z": 1.9753853235,
				"element": "C" 
			},
			{
				"x": -0.1219515883,
				"y": -1.322284912,
				"z": 2.9425655305,
				"element": "C" 
			},
			{
				"x": 1.1236707427,
				"y": -1.6334053802,
				"z": 2.2995232401,
				"element": "C" 
			},
			{
				"x": 0.9699912974,
				"y": -1.3016487762,
				"z": 0.9229984427,
				"element": "C" 
			},
			{
				"x": 2.0038346828,
				"y": -1.4795206993,
				"z": -0.0052490258,
				"element": "C" 
			},
			{
				"x": 3.2049784213,
				"y": -2.0024010229,
				"z": 0.4613817483,
				"element": "C" 
			},
			{
				"x": 3.3771946141,
				"y": -2.3396909072,
				"z": 1.8196455208,
				"element": "C" 
			},
			{
				"x": 2.3504638163,
				"y": -2.1616838544,
				"z": 2.7380654419,
				"element": "C" 
			},
			{
				"x": -1.0304823224,
				"y": 3.27363529,
				"z": -3.0703143566,
				"element": "H" 
			},
			{
				"x": 0.6631697139,
				"y": 1.2546702394,
				"z": -0.7750580082,
				"element": "H" 
			},
			{
				"x": -0.7424278388,
				"y": 1.8201655877,
				"z": 0.0966493646,
				"element": "H" 
			},
			{
				"x": -1.9525937054,
				"y": -0.338989534,
				"z": -0.4371143808,
				"element": "H" 
			},
			{
				"x": -0.5548898014,
				"y": -0.908025787,
				"z": -1.3237290345,
				"element": "H" 
			},
			{
				"x": -1.982518413,
				"y": -0.4927025265,
				"z": 2.0494553301,
				"element": "H" 
			},
			{
				"x": -0.3679564088,
				"y": -1.4581073812,
				"z": 3.9861328247,
				"element": "H" 
			},
			{
				"x": 1.8784822598,
				"y": -1.2260048899,
				"z": -1.0539290339,
				"element": "H" 
			},
			{
				"x": 4.0253379076,
				"y": -2.1537136259,
				"z": -0.2341678376,
				"element": "H" 
			},
			{
				"x": 4.3293186786,
				"y": -2.7456566961,
				"z": 2.1488354949,
				"element": "H" 
			},
			{
				"x": 2.4914429215,
				"y": -2.425849941,
				"z": 3.7826370657,
				"element": "H" 
			}
		],
		 "valence_orbital": [ 
			{
				"type": "occ",
				"energy": -0.32224,
				"method": "rhf"
			},
			{
				"type": "occ",
				"energy": -0.28798,
				"method": "rhf"
			},
			{
				"type": "occ",
				"energy": -0.26944,
				"method": "rhf"
			},
			{
				"type": "occ",
				"energy": -0.21635,
				"method": "rhf"
			},
			{
				"type": "occ",
				"energy": -0.19883,
				"method": "rhf"
			},
			{
				"type": "unocc",
				"energy": -0.00693,
				"method": "rhf"
			},
			{
				"type": "unocc",
				"energy": -0.0011,
				"method": "rhf"
			},
			{
				"type": "unocc",
				"energy": 0.02949,
				"method": "rhf"
			},
			{
				"type": "unocc",
				"energy": 0.0671,
				"method": "rhf"
			},
			{
				"type": "unocc",
				"energy": 0.07562,
				"method": "rhf"
			}
		],
		"cosmo_sigma_profile": { 
			"-0.025": 0.0,
			"-0.024": 0.0,
			"-0.023": 0.0,
			"-0.022": 0.0,
			"-0.021": 0.0,
			"-0.02": 0.0,
			"-0.019": 0.00758038336494,
			"-0.018": 0.83572711305,
			"-0.017": 0.88000122905,
			"-0.016": 0.951918240472,
			"-0.015": 0.620423914748,
			"-0.014": 1.09523014952,
			"-0.013": 0.314790762148,
			"-0.012": 0.520265422051,
			"-0.011": 0.911684540386,
			"-0.01": 1.04873829583,
			"-0.009": 0.448304239811,
			"-0.008": 2.72608490107,
			"-0.007": 8.51499979204,
			"-0.006": 16.249678847,
			"-0.005": 16.8201204091,
			"-0.004": 17.1010326843,
			"-0.003": 18.8150186977,
			"-0.002": 17.8121957024,
			"-0.001": 12.3911850762,
			"0.0": 12.5759101225,
			"0.001": 9.62774708063,
			"0.002": 9.90139534335,
			"0.003": 11.6187864227,
			"0.004": 11.3111930512,
			"0.005": 13.0199129281,
			"0.006": 15.2802516134,
			"0.007": 13.4595881862,
			"0.008": 5.02617075212,
			"0.009": 3.04283203004,
			"0.01": 2.39711554637,
			"0.011": 4.06998776699,
			"0.012": 3.47487048164,
			"0.013": 0.0470473266001,
			"0.014": 0.0,
			"0.015": 0.0,
			"0.016": 0.0,
			"0.017": 0.0,
			"0.018": 0.0,
			"0.019": 0.0,
			"0.02": 0.0,
			"0.021": 0.0,
			"0.022": 0.0,
			"0.023": 0.0,
			"0.024": 0.0,
			"0.025": 0.0
		}
	}
}
