{
	 "smiles": "CC1=CC=NC(Cl)=N1", 
	 "Tm": 320.15, 
	 "num_atms": 13, 
	 "gaussian": { 
		 "optdone": 1, 
		 "sigma_profile": "yes", 
		 "theory": "DFT", 
		 "functional": "B3LYP", 
		 "basiset": "6-31G**", 
		 "properties": { 
			 "R2extent": 1820.5406, 
			 "electric_dipole_moment_norm": 4.28459661228, 
			 "electric_quadrupole_moment_norm": 6.53256146852, 
			 "total_energy": -763.240031213, 
			 "HOMO_LUMO_gap": 0.21553, 
			 "cosmo_polarized_energy": -8.51, 
			 "cosmo_cavitation_energy": 19.12, 
			 "cosmo_dispersion_energy": -14.58, 
			 "cosmo_repulsion_energy": 1.23, 
			 "cosmo_total_nonelectrostatic_energy": 5.76, 
			 "SMD_solvation_energy": 0.48 
		},
		"coords": [
			{
				"x": -1.0745689104,
				"y": 2.3634351997,
				"z": 0.2402326109,
				"element": "C" 
			},
			{
				"x": -0.5424724751,
				"y": 1.0921038774,
				"z": 0.8439339069,
				"element": "C" 
			},
			{
				"x": 0.8312273797,
				"y": 0.8411815041,
				"z": 0.9665384263,
				"element": "C" 
			},
			{
				"x": 1.2067080774,
				"y": -0.3667452918,
				"z": 1.5396174586,
				"element": "C" 
			},
			{
				"x": 0.3152444143,
				"y": -1.2740654436,
				"z": 1.9670090628,
				"element": "N" 
			},
			{
				"x": -0.9523554504,
				"y": -0.9251849201,
				"z": 1.7986262523,
				"element": "C" 
			},
			{
				"x": -2.1451184259,
				"y": -2.0910118319,
				"z": 2.3466525605,
				"element": "Cl" 
			},
			{
				"x": -1.4427109986,
				"y": 0.1898432872,
				"z": 1.2689325944,
				"element": "N" 
			},
			{
				"x": -0.7227834833,
				"y": 2.48148594,
				"z": -0.7905996954,
				"element": "H" 
			},
			{
				"x": -2.1649091095,
				"y": 2.3476606085,
				"z": 0.2447076335,
				"element": "H" 
			},
			{
				"x": -0.7271589352,
				"y": 3.2366156445,
				"z": 0.8034070424,
				"element": "H" 
			},
			{
				"x": 1.5703285122,
				"y": 1.5593306209,
				"z": 0.628375416,
				"element": "H" 
			},
			{
				"x": 2.2547694048,
				"y": -0.6299491951,
				"z": 1.6670667309,
				"element": "H" 
			}
		],
		 "valence_orbital": [ 
			{
				"type": "occ",
				"energy": -0.32166,
				"method": "rhf"
			},
			{
				"type": "occ",
				"energy": -0.3214,
				"method": "rhf"
			},
			{
				"type": "occ",
				"energy": -0.31386,
				"method": "rhf"
			},
			{
				"type": "occ",
				"energy": -0.2751,
				"method": "rhf"
			},
			{
				"type": "occ",
				"energy": -0.26555,
				"method": "rhf"
			},
			{
				"type": "unocc",
				"energy": -0.05002,
				"method": "rhf"
			},
			{
				"type": "unocc",
				"energy": -0.03874,
				"method": "rhf"
			},
			{
				"type": "unocc",
				"energy": 0.04073,
				"method": "rhf"
			},
			{
				"type": "unocc",
				"energy": 0.09725,
				"method": "rhf"
			},
			{
				"type": "unocc",
				"energy": 0.10717,
				"method": "rhf"
			}
		],
		"cosmo_sigma_profile": { 
			"-0.025": 0.0,
			"-0.024": 0.0,
			"-0.023": 0.0,
			"-0.022": 0.0,
			"-0.021": 0.0,
			"-0.02": 0.0,
			"-0.019": 0.0,
			"-0.018": 0.0,
			"-0.017": 0.0,
			"-0.016": 0.0,
			"-0.015": 0.0,
			"-0.014": 0.0,
			"-0.013": 0.0,
			"-0.012": 0.0,
			"-0.011": 0.0,
			"-0.01": 0.0,
			"-0.009": 0.8123427737,
			"-0.008": 4.79000075941,
			"-0.007": 5.02569697808,
			"-0.006": 8.4472614663,
			"-0.005": 9.75353312385,
			"-0.004": 9.25712753627,
			"-0.003": 12.8998930446,
			"-0.002": 16.2732523224,
			"-0.001": 17.3895393225,
			"0.0": 11.1682092197,
			"0.001": 6.81909347502,
			"0.002": 6.87690990376,
			"0.003": 8.23806182774,
			"0.004": 11.177297199,
			"0.005": 6.86067319886,
			"0.006": 3.91334498128,
			"0.007": 2.66317809972,
			"0.008": 3.53932011821,
			"0.009": 1.99886610015,
			"0.01": 2.10553938189,
			"0.011": 1.86856197968,
			"0.012": 1.70774007177,
			"0.013": 1.50505751352,
			"0.014": 0.739973467608,
			"0.015": 0.0282500089631,
			"0.016": 0.0,
			"0.017": 0.0,
			"0.018": 0.0,
			"0.019": 0.0,
			"0.02": 0.0,
			"0.021": 0.0,
			"0.022": 0.0,
			"0.023": 0.0,
			"0.024": 0.0,
			"0.025": 0.0
		}
	}
}
