{
	 "smiles": "COC1=CC(Cl)=C(Cl)C=C1Cl", 
	 "Tm": 350.65, 
	 "num_atms": 16, 
	 "gaussian": { 
		 "optdone": 1, 
		 "sigma_profile": "yes", 
		 "theory": "DFT", 
		 "functional": "B3LYP", 
		 "basiset": "6-31G**", 
		 "properties": { 
			 "R2extent": 3103.7411, 
			 "electric_dipole_moment_norm": 2.19702064169, 
			 "electric_quadrupole_moment_norm": 6.68122823888, 
			 "total_energy": -1725.53476212, 
			 "HOMO_LUMO_gap": 0.21163, 
			 "cosmo_polarized_energy": -5.27, 
			 "cosmo_cavitation_energy": 25.73, 
			 "cosmo_dispersion_energy": -19.16, 
			 "cosmo_repulsion_energy": 1.55, 
			 "cosmo_total_nonelectrostatic_energy": 8.11, 
			 "SMD_solvation_energy": 4.46 
		},
		"coords": [
			{
				"x": -0.880981283,
				"y": 2.6360681548,
				"z": 1.2190708565,
				"element": "C" 
			},
			{
				"x": 0.3245630095,
				"y": 1.9578078369,
				"z": 0.8422264322,
				"element": "O" 
			},
			{
				"x": 0.1473967066,
				"y": 0.7378316907,
				"z": 0.2537856986,
				"element": "C" 
			},
			{
				"x": 0.2187471761,
				"y": -0.4164437079,
				"z": 1.0357701164,
				"element": "C" 
			},
			{
				"x": 0.1012716948,
				"y": -1.6832276861,
				"z": 0.4644505863,
				"element": "C" 
			},
			{
				"x": 0.2053331462,
				"y": -3.0841052859,
				"z": 1.4990319635,
				"element": "Cl" 
			},
			{
				"x": -0.0961424355,
				"y": -1.8045439581,
				"z": -0.917794047,
				"element": "C" 
			},
			{
				"x": -0.250658269,
				"y": -3.3616462898,
				"z": -1.6891299974,
				"element": "Cl" 
			},
			{
				"x": -0.1666677283,
				"y": -0.6570843762,
				"z": -1.7097043572,
				"element": "C" 
			},
			{
				"x": -0.0476481903,
				"y": 0.6031889538,
				"z": -1.1303207982,
				"element": "C" 
			},
			{
				"x": -0.117824829,
				"y": 2.0232778886,
				"z": -2.1467718256,
				"element": "Cl" 
			},
			{
				"x": -1.4517946007,
				"y": 2.0450755967,
				"z": 1.9459034276,
				"element": "H" 
			},
			{
				"x": -0.5689215713,
				"y": 3.575383385,
				"z": 1.6778134513,
				"element": "H" 
			},
			{
				"x": -1.5090285796,
				"y": 2.8476504786,
				"z": 0.3469100142,
				"element": "H" 
			},
			{
				"x": 0.3834677585,
				"y": -0.3128352088,
				"z": 2.1019669555,
				"element": "H" 
			},
			{
				"x": -0.311412005,
				"y": -0.7510974723,
				"z": -2.779008477,
				"element": "H" 
			}
		],
		 "valence_orbital": [ 
			{
				"type": "occ",
				"energy": -0.31864,
				"method": "rhf"
			},
			{
				"type": "occ",
				"energy": -0.3167,
				"method": "rhf"
			},
			{
				"type": "occ",
				"energy": -0.29369,
				"method": "rhf"
			},
			{
				"type": "occ",
				"energy": -0.26861,
				"method": "rhf"
			},
			{
				"type": "occ",
				"energy": -0.24863,
				"method": "rhf"
			},
			{
				"type": "unocc",
				"energy": -0.037,
				"method": "rhf"
			},
			{
				"type": "unocc",
				"energy": -0.03145,
				"method": "rhf"
			},
			{
				"type": "unocc",
				"energy": -0.01253,
				"method": "rhf"
			},
			{
				"type": "unocc",
				"energy": 0.02747,
				"method": "rhf"
			},
			{
				"type": "unocc",
				"energy": 0.05667,
				"method": "rhf"
			}
		],
		"cosmo_sigma_profile": { 
			"-0.025": 0.0,
			"-0.024": 0.0,
			"-0.023": 0.0,
			"-0.022": 0.0,
			"-0.021": 0.0,
			"-0.02": 0.0,
			"-0.019": 0.0,
			"-0.018": 0.0,
			"-0.017": 0.0,
			"-0.016": 0.0,
			"-0.015": 0.0,
			"-0.014": 0.0,
			"-0.013": 0.0,
			"-0.012": 0.0,
			"-0.011": 0.0,
			"-0.01": 0.0480531515969,
			"-0.009": 1.69374244373,
			"-0.008": 2.66813059025,
			"-0.007": 2.469291203,
			"-0.006": 6.08356066896,
			"-0.005": 10.2813227232,
			"-0.004": 13.7005315221,
			"-0.003": 18.3303164019,
			"-0.002": 13.3915062568,
			"-0.001": 19.6491523756,
			"0.0": 31.1896333097,
			"0.001": 20.8013023502,
			"0.002": 15.5238083797,
			"0.003": 23.6962026045,
			"0.004": 20.0737991654,
			"0.005": 5.4663242067,
			"0.006": 0.963145975237,
			"0.007": 1.82060395233,
			"0.008": 1.77261506921,
			"0.009": 1.29114444738,
			"0.01": 1.5180301769,
			"0.011": 0.650430808609,
			"0.012": 0.0,
			"0.013": 0.0,
			"0.014": 0.0,
			"0.015": 0.0,
			"0.016": 0.0,
			"0.017": 0.0,
			"0.018": 0.0,
			"0.019": 0.0,
			"0.02": 0.0,
			"0.021": 0.0,
			"0.022": 0.0,
			"0.023": 0.0,
			"0.024": 0.0,
			"0.025": 0.0
		}
	}
}
