{
	 "smiles": "OC(=O)CN1C=CSC1=N", 
	 "Tm": 518.15, 
	 "num_atms": 16, 
	 "gaussian": { 
		 "optdone": 1, 
		 "sigma_profile": "yes", 
		 "theory": "DFT", 
		 "functional": "B3LYP", 
		 "basiset": "6-31G**", 
		 "properties": { 
			 "R2extent": 1798.3203, 
			 "electric_dipole_moment_norm": 4.90917530956, 
			 "electric_quadrupole_moment_norm": 11.1585785461, 
			 "total_energy": -852.263009954, 
			 "HOMO_LUMO_gap": 0.18268, 
			 "cosmo_polarized_energy": -19.6, 
			 "cosmo_cavitation_energy": 22.56, 
			 "cosmo_dispersion_energy": -16.72, 
			 "cosmo_repulsion_energy": 1.32, 
			 "cosmo_total_nonelectrostatic_energy": 7.16, 
			 "SMD_solvation_energy": 4.36 
		},
		"coords": [
			{
				"x": 1.4313939597,
				"y": -0.0472026625,
				"z": -3.1875547536,
				"element": "O" 
			},
			{
				"x": 1.3058350937,
				"y": -0.3517224651,
				"z": -1.8759863263,
				"element": "C" 
			},
			{
				"x": 1.3775213495,
				"y": -1.4698999059,
				"z": -1.4307593467,
				"element": "O" 
			},
			{
				"x": 1.1001103148,
				"y": 0.9245438298,
				"z": -1.0581136836,
				"element": "C" 
			},
			{
				"x": 0.7179530221,
				"y": 0.6742241079,
				"z": 0.3058707489,
				"element": "N" 
			},
			{
				"x": 1.6403792001,
				"y": 0.4674768993,
				"z": 1.3343414114,
				"element": "C" 
			},
			{
				"x": 1.0907918771,
				"y": 0.1850522335,
				"z": 2.5244456633,
				"element": "C" 
			},
			{
				"x": -0.6684054192,
				"y": 0.1301506631,
				"z": 2.4256501105,
				"element": "S" 
			},
			{
				"x": -0.6248115337,
				"y": 0.4829728282,
				"z": 0.6678379587,
				"element": "C" 
			},
			{
				"x": -1.6942840035,
				"y": 0.5397198602,
				"z": -0.023611267,
				"element": "N" 
			},
			{
				"x": 1.5874650265,
				"y": -0.8851843723,
				"z": -3.6552434917,
				"element": "H" 
			},
			{
				"x": 0.351875534,
				"y": 1.5523203869,
				"z": -1.5521905329,
				"element": "H" 
			},
			{
				"x": 2.0363450513,
				"y": 1.4928563669,
				"z": -1.0816242593,
				"element": "H" 
			},
			{
				"x": 2.6949594077,
				"y": 0.5527548384,
				"z": 1.1084961418,
				"element": "H" 
			},
			{
				"x": 1.6059190709,
				"y": 0.0006136874,
				"z": 3.4545965098,
				"element": "H" 
			},
			{
				"x": -1.525847951,
				"y": 0.7252237042,
				"z": -1.0115548833,
				"element": "H" 
			}
		],
		 "valence_orbital": [ 
			{
				"type": "occ",
				"energy": -0.31097,
				"method": "rhf"
			},
			{
				"type": "occ",
				"energy": -0.30107,
				"method": "rhf"
			},
			{
				"type": "occ",
				"energy": -0.28269,
				"method": "rhf"
			},
			{
				"type": "occ",
				"energy": -0.26657,
				"method": "rhf"
			},
			{
				"type": "occ",
				"energy": -0.1951,
				"method": "rhf"
			},
			{
				"type": "unocc",
				"energy": -0.01242,
				"method": "rhf"
			},
			{
				"type": "unocc",
				"energy": 0.01279,
				"method": "rhf"
			},
			{
				"type": "unocc",
				"energy": 0.0203,
				"method": "rhf"
			},
			{
				"type": "unocc",
				"energy": 0.03937,
				"method": "rhf"
			},
			{
				"type": "unocc",
				"energy": 0.06029,
				"method": "rhf"
			}
		],
		"cosmo_sigma_profile": { 
			"-0.025": 0.0,
			"-0.024": 0.0,
			"-0.023": 0.0,
			"-0.022": 0.0,
			"-0.021": 0.0,
			"-0.02": 0.0,
			"-0.019": 0.334268533019,
			"-0.018": 1.30037516318,
			"-0.017": 0.601981568239,
			"-0.016": 0.985930413256,
			"-0.015": 1.00442056242,
			"-0.014": 0.272862602793,
			"-0.013": 0.690639165342,
			"-0.012": 3.11346779755,
			"-0.011": 3.65477852217,
			"-0.01": 7.03487077261,
			"-0.009": 7.4156112205,
			"-0.008": 7.05702374322,
			"-0.007": 8.3766934879,
			"-0.006": 7.6858014856,
			"-0.005": 7.29663748686,
			"-0.004": 6.79618577987,
			"-0.003": 5.72784777213,
			"-0.002": 5.75011905777,
			"-0.001": 6.19216540023,
			"0.0": 6.71611055365,
			"0.001": 9.30467732589,
			"0.002": 10.7882856101,
			"0.003": 11.2106235888,
			"0.004": 12.3387888357,
			"0.005": 10.046122147,
			"0.006": 7.56674702417,
			"0.007": 5.20037902569,
			"0.008": 4.69362924893,
			"0.009": 4.20859286743,
			"0.01": 4.40109507116,
			"0.011": 6.01674772926,
			"0.012": 1.83296447164,
			"0.013": 1.300808812,
			"0.014": 1.18852591985,
			"0.015": 1.25372136769,
			"0.016": 1.28493329649,
			"0.017": 1.01819250036,
			"0.018": 0.529231587537,
			"0.019": 0.0,
			"0.02": 0.0,
			"0.021": 0.0,
			"0.022": 0.0,
			"0.023": 0.0,
			"0.024": 0.0,
			"0.025": 0.0
		}
	}
}
