{
	 "smiles": "OC(=O)C1=C2CCCCCC2=NC2=CC=C(F)C=C12", 
	 "Tm": 563.15, 
	 "num_atms": 33, 
	 "gaussian": { 
		 "optdone": 1, 
		 "sigma_profile": "yes", 
		 "theory": "DFT", 
		 "functional": "B3LYP", 
		 "basiset": "6-31G**", 
		 "properties": { 
			 "R2extent": 6243.2142, 
			 "electric_dipole_moment_norm": 4.6191232339, 
			 "electric_quadrupole_moment_norm": 14.9773913266, 
			 "total_energy": -885.096859542, 
			 "HOMO_LUMO_gap": 0.16806, 
			 "cosmo_polarized_energy": -14.45, 
			 "cosmo_cavitation_energy": 35.08, 
			 "cosmo_dispersion_energy": -25.5, 
			 "cosmo_repulsion_energy": 1.91, 
			 "cosmo_total_nonelectrostatic_energy": 11.48, 
			 "SMD_solvation_energy": 4.75 
		},
		"coords": [
			{
				"x": 1.6079891506,
				"y": -0.5098618353,
				"z": 3.0260241886,
				"element": "O" 
			},
			{
				"x": 1.4851050523,
				"y": 0.7657016112,
				"z": 2.5694488335,
				"element": "C" 
			},
			{
				"x": 2.1922977781,
				"y": 1.6369292884,
				"z": 3.0118131516,
				"element": "O" 
			},
			{
				"x": 0.4109663607,
				"y": 0.9865200681,
				"z": 1.5321775559,
				"element": "C" 
			},
			{
				"x": 0.4169963012,
				"y": 0.3081886538,
				"z": 0.3208935488,
				"element": "C" 
			},
			{
				"x": 1.5211779812,
				"y": -0.6566925612,
				"z": -0.0675316351,
				"element": "C" 
			},
			{
				"x": 1.0748078756,
				"y": -2.1314481639,
				"z": -0.2129526878,
				"element": "C" 
			},
			{
				"x": 0.3815008897,
				"y": -2.4624499926,
				"z": -1.5415604374,
				"element": "C" 
			},
			{
				"x": -0.9084040042,
				"y": -1.6841312953,
				"z": -1.8340244953,
				"element": "C" 
			},
			{
				"x": -0.7376262805,
				"y": -0.1516761708,
				"z": -1.931765394,
				"element": "C" 
			},
			{
				"x": -0.6565821401,
				"y": 0.56554257,
				"z": -0.6000300957,
				"element": "C" 
			},
			{
				"x": -1.6344446855,
				"y": 1.4124002927,
				"z": -0.344556414,
				"element": "N" 
			},
			{
				"x": -1.6349195419,
				"y": 2.1022957278,
				"z": 0.8298195506,
				"element": "C" 
			},
			{
				"x": -2.6980771247,
				"y": 3.0145342105,
				"z": 1.0645490966,
				"element": "C" 
			},
			{
				"x": -2.7523064242,
				"y": 3.74514174,
				"z": 2.2281123375,
				"element": "C" 
			},
			{
				"x": -1.7307861179,
				"y": 3.5747497298,
				"z": 3.1848476604,
				"element": "C" 
			},
			{
				"x": -1.8010476242,
				"y": 4.3076213988,
				"z": 4.3137725348,
				"element": "F" 
			},
			{
				"x": -0.6818552805,
				"y": 2.7064438025,
				"z": 3.0123277029,
				"element": "C" 
			},
			{
				"x": -0.615409573,
				"y": 1.9427739556,
				"z": 1.8177830992,
				"element": "C" 
			},
			{
				"x": 0.9246347582,
				"y": -1.0662376187,
				"z": 2.6241827089,
				"element": "H" 
			},
			{
				"x": 2.3325976473,
				"y": -0.6026545221,
				"z": 0.661095575,
				"element": "H" 
			},
			{
				"x": 1.9567134487,
				"y": -0.3281622803,
				"z": -1.02053541,
				"element": "H" 
			},
			{
				"x": 0.4150040402,
				"y": -2.4016854382,
				"z": 0.6246916557,
				"element": "H" 
			},
			{
				"x": 1.9629924542,
				"y": -2.7673365574,
				"z": -0.118707198,
				"element": "H" 
			},
			{
				"x": 0.1618424105,
				"y": -3.5370724409,
				"z": -1.5657577989,
				"element": "H" 
			},
			{
				"x": 1.0948004791,
				"y": -2.2798701954,
				"z": -2.3581081836,
				"element": "H" 
			},
			{
				"x": -1.3127105162,
				"y": -2.0412144211,
				"z": -2.7886602359,
				"element": "H" 
			},
			{
				"x": -1.6691546422,
				"y": -1.9133993546,
				"z": -1.0761159295,
				"element": "H" 
			},
			{
				"x": 0.153446251,
				"y": 0.0722542699,
				"z": -2.5360119806,
				"element": "H" 
			},
			{
				"x": -1.5940439786,
				"y": 0.2802570957,
				"z": -2.4544952282,
				"element": "H" 
			},
			{
				"x": -3.4563139543,
				"y": 3.110777668,
				"z": 0.2950121535,
				"element": "H" 
			},
			{
				"x": -3.5519013357,
				"y": 4.4496243894,
				"z": 2.4299630304,
				"element": "H" 
			},
			{
				"x": 0.0894103453,
				"y": 2.6366363758,
				"z": 3.7688987402,
				"element": "H" 
			}
		],
		 "valence_orbital": [ 
			{
				"type": "occ",
				"energy": -0.31493,
				"method": "rhf"
			},
			{
				"type": "occ",
				"energy": -0.28333,
				"method": "rhf"
			},
			{
				"type": "occ",
				"energy": -0.25976,
				"method": "rhf"
			},
			{
				"type": "occ",
				"energy": -0.25195,
				"method": "rhf"
			},
			{
				"type": "occ",
				"energy": -0.23697,
				"method": "rhf"
			},
			{
				"type": "unocc",
				"energy": -0.06891,
				"method": "rhf"
			},
			{
				"type": "unocc",
				"energy": -0.02649,
				"method": "rhf"
			},
			{
				"type": "unocc",
				"energy": -0.01332,
				"method": "rhf"
			},
			{
				"type": "unocc",
				"energy": 0.02485,
				"method": "rhf"
			},
			{
				"type": "unocc",
				"energy": 0.04834,
				"method": "rhf"
			}
		],
		"cosmo_sigma_profile": { 
			"-0.025": 0.0,
			"-0.024": 0.0,
			"-0.023": 0.0,
			"-0.022": 0.0,
			"-0.021": 0.0,
			"-0.02": 0.0,
			"-0.019": 0.0,
			"-0.018": 0.0819062804463,
			"-0.017": 0.591717033542,
			"-0.016": 0.597136904443,
			"-0.015": 0.807099421249,
			"-0.014": 0.967747330811,
			"-0.013": 1.62287278883,
			"-0.012": 1.34262454444,
			"-0.011": 1.09977531729,
			"-0.01": 1.05786114392,
			"-0.009": 0.885470073346,
			"-0.008": 2.37539431661,
			"-0.007": 3.9690336253,
			"-0.006": 6.93328631366,
			"-0.005": 13.1005196335,
			"-0.004": 14.472601532,
			"-0.003": 26.7261962208,
			"-0.002": 31.5400427475,
			"-0.001": 31.8518597912,
			"0.0": 30.1753651985,
			"0.001": 24.2258523929,
			"0.002": 16.5560216884,
			"0.003": 13.0739346433,
			"0.004": 13.9640657554,
			"0.005": 5.69077588225,
			"0.006": 3.8028183183,
			"0.007": 4.500134935,
			"0.008": 3.93823688454,
			"0.009": 5.28726046216,
			"0.01": 6.3072060317,
			"0.011": 5.85355974232,
			"0.012": 2.63385631849,
			"0.013": 1.0764912037,
			"0.014": 0.680971953019,
			"0.015": 0.0587046043041,
			"0.016": 0.0,
			"0.017": 0.0,
			"0.018": 0.0,
			"0.019": 0.0,
			"0.02": 0.0,
			"0.021": 0.0,
			"0.022": 0.0,
			"0.023": 0.0,
			"0.024": 0.0,
			"0.025": 0.0
		}
	}
}
