{
	 "smiles": "SC1=CC=C(C=C1)C1=CC=CC=C1", 
	 "Tm": 380.15, 
	 "num_atms": 23, 
	 "gaussian": { 
		 "optdone": 1, 
		 "sigma_profile": "yes", 
		 "theory": "DFT", 
		 "functional": "B3LYP", 
		 "basiset": "6-31G**", 
		 "properties": { 
			 "R2extent": 4071.7397, 
			 "electric_dipole_moment_norm": 1.23646701129, 
			 "electric_quadrupole_moment_norm": 10.547179633, 
			 "total_energy": -861.496293266, 
			 "HOMO_LUMO_gap": 0.18052, 
			 "cosmo_polarized_energy": -7.51, 
			 "cosmo_cavitation_energy": 28.48, 
			 "cosmo_dispersion_energy": -21.51, 
			 "cosmo_repulsion_energy": 1.63, 
			 "cosmo_total_nonelectrostatic_energy": 8.6, 
			 "SMD_solvation_energy": 4.08 
		},
		"coords": [
			{
				"x": -0.3928882571,
				"y": 4.6692710231,
				"z": 1.2159182707,
				"element": "S" 
			},
			{
				"x": -0.5439025543,
				"y": 2.9075943632,
				"z": 0.9624574367,
				"element": "C" 
			},
			{
				"x": -0.697091677,
				"y": 2.442712084,
				"z": -0.3506405574,
				"element": "C" 
			},
			{
				"x": -0.8232700729,
				"y": 1.08019201,
				"z": -0.602684612,
				"element": "C" 
			},
			{
				"x": -0.8004263554,
				"y": 0.1361107235,
				"z": 0.4379389711,
				"element": "C" 
			},
			{
				"x": -0.6455757375,
				"y": 0.6188631313,
				"z": 1.7475139727,
				"element": "C" 
			},
			{
				"x": -0.5196733112,
				"y": 1.9804596499,
				"z": 2.0114753283,
				"element": "C" 
			},
			{
				"x": -0.934836439,
				"y": -1.3162143496,
				"z": 0.1634748154,
				"element": "C" 
			},
			{
				"x": -0.2018129503,
				"y": -2.2624230848,
				"z": 0.9006482065,
				"element": "C" 
			},
			{
				"x": -0.3295105442,
				"y": -3.6267851978,
				"z": 0.6442116243,
				"element": "C" 
			},
			{
				"x": -1.1911224679,
				"y": -4.0769191044,
				"z": -0.3579578941,
				"element": "C" 
			},
			{
				"x": -1.9247194746,
				"y": -3.1492244288,
				"z": -1.0999580137,
				"element": "C" 
			},
			{
				"x": -1.7990907702,
				"y": -1.7851146936,
				"z": -0.8411475202,
				"element": "C" 
			},
			{
				"x": -0.2243000978,
				"y": 4.6269478424,
				"z": 2.5511294049,
				"element": "H" 
			},
			{
				"x": -0.7070165388,
				"y": 3.1455737693,
				"z": -1.1788272686,
				"element": "H" 
			},
			{
				"x": -0.91432505,
				"y": 0.7410708568,
				"z": -1.6302473955,
				"element": "H" 
			},
			{
				"x": -0.6500217867,
				"y": -0.0794438948,
				"z": 2.5792098253,
				"element": "H" 
			},
			{
				"x": -0.4131327242,
				"y": 2.3171528484,
				"z": 3.0387912081,
				"element": "H" 
			},
			{
				"x": 0.4934076811,
				"y": -1.9225426247,
				"z": 1.6627524684,
				"element": "H" 
			},
			{
				"x": 0.2530790902,
				"y": -4.3389744289,
				"z": 1.2219272973,
				"element": "H" 
			},
			{
				"x": -1.289755346,
				"y": -5.1397406905,
				"z": -0.5587563094,
				"element": "H" 
			},
			{
				"x": -2.6047394848,
				"y": -3.4883881939,
				"z": -1.8764262375,
				"element": "H" 
			},
			{
				"x": -2.3964751311,
				"y": -1.0747776102,
				"z": -1.4052030212,
				"element": "H" 
			}
		],
		 "valence_orbital": [ 
			{
				"type": "occ",
				"energy": -0.30278,
				"method": "rhf"
			},
			{
				"type": "occ",
				"energy": -0.25751,
				"method": "rhf"
			},
			{
				"type": "occ",
				"energy": -0.25308,
				"method": "rhf"
			},
			{
				"type": "occ",
				"energy": -0.25096,
				"method": "rhf"
			},
			{
				"type": "occ",
				"energy": -0.20969,
				"method": "rhf"
			},
			{
				"type": "unocc",
				"energy": -0.02917,
				"method": "rhf"
			},
			{
				"type": "unocc",
				"energy": -0.00909,
				"method": "rhf"
			},
			{
				"type": "unocc",
				"energy": -0.00188,
				"method": "rhf"
			},
			{
				"type": "unocc",
				"energy": 0.01502,
				"method": "rhf"
			},
			{
				"type": "unocc",
				"energy": 0.02674,
				"method": "rhf"
			}
		],
		"cosmo_sigma_profile": { 
			"-0.025": 0.0,
			"-0.024": 0.0,
			"-0.023": 0.0,
			"-0.022": 0.0,
			"-0.021": 0.0,
			"-0.02": 0.0,
			"-0.019": 0.0,
			"-0.018": 0.0,
			"-0.017": 0.0,
			"-0.016": 0.0,
			"-0.015": 0.0,
			"-0.014": 0.0,
			"-0.013": 0.0,
			"-0.012": 0.0,
			"-0.011": 0.859274927542,
			"-0.01": 2.77258219299,
			"-0.009": 2.03131794573,
			"-0.008": 1.99471654225,
			"-0.007": 3.39483316338,
			"-0.006": 10.5682206543,
			"-0.005": 21.9858914115,
			"-0.004": 19.4401562052,
			"-0.003": 16.3830164586,
			"-0.002": 13.8270696413,
			"-0.001": 12.4849588934,
			"0.0": 12.2695766112,
			"0.001": 14.1583858037,
			"0.002": 14.4758610681,
			"0.003": 20.3234507123,
			"0.004": 22.8541045069,
			"0.005": 23.4039515682,
			"0.006": 10.706709686,
			"0.007": 3.12085091039,
			"0.008": 2.63006606156,
			"0.009": 1.24852767855,
			"0.01": 0.0,
			"0.011": 0.0,
			"0.012": 0.0,
			"0.013": 0.0,
			"0.014": 0.0,
			"0.015": 0.0,
			"0.016": 0.0,
			"0.017": 0.0,
			"0.018": 0.0,
			"0.019": 0.0,
			"0.02": 0.0,
			"0.021": 0.0,
			"0.022": 0.0,
			"0.023": 0.0,
			"0.024": 0.0,
			"0.025": 0.0
		}
	}
}
