{
	 "smiles": "CC1=CC(O)C2=CC=CC=C12", 
	 "Tm": 342.15, 
	 "num_atms": 21, 
	 "gaussian": { 
		 "optdone": 1, 
		 "sigma_profile": "yes", 
		 "theory": "DFT", 
		 "functional": "B3LYP", 
		 "basiset": "6-31G**", 
		 "properties": { 
			 "R2extent": 2093.4406, 
			 "electric_dipole_moment_norm": 1.75700851449, 
			 "electric_quadrupole_moment_norm": 4.46692312336, 
			 "total_energy": -462.297953773, 
			 "HOMO_LUMO_gap": 0.18476, 
			 "cosmo_polarized_energy": -7.15, 
			 "cosmo_cavitation_energy": 24.24, 
			 "cosmo_dispersion_energy": -17.74, 
			 "cosmo_repulsion_energy": 1.43, 
			 "cosmo_total_nonelectrostatic_energy": 7.92, 
			 "SMD_solvation_energy": 3.87 
		},
		"coords": [
			{
				"x": -1.7320506977,
				"y": -0.3594157645,
				"z": 1.5464931546,
				"element": "C" 
			},
			{
				"x": -0.4847544476,
				"y": -0.5892933746,
				"z": 0.7504352227,
				"element": "C" 
			},
			{
				"x": -0.2655400509,
				"y": -1.528454068,
				"z": -0.191589517,
				"element": "C" 
			},
			{
				"x": 1.121853463,
				"y": -1.4036010881,
				"z": -0.7962816246,
				"element": "C" 
			},
			{
				"x": 1.8907602817,
				"y": -2.602599598,
				"z": -0.8211575371,
				"element": "O" 
			},
			{
				"x": 1.7196024999,
				"y": -0.2628012929,
				"z": 0.014326091,
				"element": "C" 
			},
			{
				"x": 2.9916486421,
				"y": 0.2851122531,
				"z": -0.0238819697,
				"element": "C" 
			},
			{
				"x": 3.2884082321,
				"y": 1.3540088532,
				"z": 0.8366392919,
				"element": "C" 
			},
			{
				"x": 2.3170534993,
				"y": 1.8554254487,
				"z": 1.7061797015,
				"element": "C" 
			},
			{
				"x": 1.0324922848,
				"y": 1.2959002999,
				"z": 1.7486666066,
				"element": "C" 
			},
			{
				"x": 0.7441193391,
				"y": 0.2258865676,
				"z": 0.9039234069,
				"element": "C" 
			},
			{
				"x": -2.508644251,
				"y": -1.085190122,
				"z": 1.2920324983,
				"element": "H" 
			},
			{
				"x": -1.532196618,
				"y": -0.4340913992,
				"z": 2.6226831561,
				"element": "H" 
			},
			{
				"x": -2.1335288437,
				"y": 0.6460622419,
				"z": 1.3691748195,
				"element": "H" 
			},
			{
				"x": -0.97545616,
				"y": -2.2788316112,
				"z": -0.5225243666,
				"element": "H" 
			},
			{
				"x": 1.0421099856,
				"y": -1.1100907583,
				"z": -1.8527324725,
				"element": "H" 
			},
			{
				"x": 1.9957970335,
				"y": -2.8880373933,
				"z": 0.097061084,
				"element": "H" 
			},
			{
				"x": 3.7446683242,
				"y": -0.108805663,
				"z": -0.7011383697,
				"element": "H" 
			},
			{
				"x": 4.2805481466,
				"y": 1.7962109656,
				"z": 0.825597494,
				"element": "H" 
			},
			{
				"x": 2.5612745353,
				"y": 2.6873906881,
				"z": 2.3608989678,
				"element": "H" 
			},
			{
				"x": 0.2849348018,
				"y": 1.6906148151,
				"z": 2.4314943624,
				"element": "H" 
			}
		],
		 "valence_orbital": [ 
			{
				"type": "occ",
				"energy": -0.31853,
				"method": "rhf"
			},
			{
				"type": "occ",
				"energy": -0.28795,
				"method": "rhf"
			},
			{
				"type": "occ",
				"energy": -0.27055,
				"method": "rhf"
			},
			{
				"type": "occ",
				"energy": -0.24546,
				"method": "rhf"
			},
			{
				"type": "occ",
				"energy": -0.21443,
				"method": "rhf"
			},
			{
				"type": "unocc",
				"energy": -0.02967,
				"method": "rhf"
			},
			{
				"type": "unocc",
				"energy": -0.00163,
				"method": "rhf"
			},
			{
				"type": "unocc",
				"energy": 0.04885,
				"method": "rhf"
			},
			{
				"type": "unocc",
				"energy": 0.09657,
				"method": "rhf"
			},
			{
				"type": "unocc",
				"energy": 0.1083,
				"method": "rhf"
			}
		],
		"cosmo_sigma_profile": { 
			"-0.025": 0.0,
			"-0.024": 0.0,
			"-0.023": 0.0,
			"-0.022": 0.0,
			"-0.021": 0.0,
			"-0.02": 0.0,
			"-0.019": 0.0,
			"-0.018": 0.0,
			"-0.017": 0.0,
			"-0.016": 0.0985619611901,
			"-0.015": 0.677110121125,
			"-0.014": 0.912327511013,
			"-0.013": 0.687850678609,
			"-0.012": 0.610385876062,
			"-0.011": 0.588703163252,
			"-0.01": 1.16192611744,
			"-0.009": 0.578524720359,
			"-0.008": 0.769520182326,
			"-0.007": 0.531110160378,
			"-0.006": 3.87829270797,
			"-0.005": 13.1674306193,
			"-0.004": 18.3354625315,
			"-0.003": 20.7706512252,
			"-0.002": 18.1192207751,
			"-0.001": 15.8200086106,
			"0.0": 16.0340807531,
			"0.001": 12.9453835636,
			"0.002": 11.2552762675,
			"0.003": 12.8182210519,
			"0.004": 11.7626951155,
			"0.005": 9.93021785057,
			"0.006": 8.99954581042,
			"0.007": 1.82489812426,
			"0.008": 0.987667677858,
			"0.009": 1.23695303768,
			"0.01": 1.19296950529,
			"0.011": 1.46526680677,
			"0.012": 1.18831245956,
			"0.013": 1.84845001199,
			"0.014": 1.91793528206,
			"0.015": 0.0237889953637,
			"0.016": 0.0,
			"0.017": 0.0,
			"0.018": 0.0,
			"0.019": 0.0,
			"0.02": 0.0,
			"0.021": 0.0,
			"0.022": 0.0,
			"0.023": 0.0,
			"0.024": 0.0,
			"0.025": 0.0
		}
	}
}
