{
	 "smiles": "CCOC(=O)C1=CC=C(O1)S(=O)(=O)N1CCC(CC1)C(O)=O", 
	 "Tm": 444.15, 
	 "num_atms": 39, 
	 "gaussian": { 
		 "optdone": 1, 
		 "sigma_profile": "yes", 
		 "theory": "DFT", 
		 "functional": "B3LYP", 
		 "basiset": "6-31G**", 
		 "properties": { 
			 "R2extent": 9148.4899, 
			 "electric_dipole_moment_norm": 6.52869904652, 
			 "electric_quadrupole_moment_norm": 24.5983497599, 
			 "total_energy": -1485.04826341, 
			 "HOMO_LUMO_gap": 0.18376, 
			 "cosmo_polarized_energy": -28.9, 
			 "cosmo_cavitation_energy": 44.59, 
			 "cosmo_dispersion_energy": -30.22, 
			 "cosmo_repulsion_energy": 2.33, 
			 "cosmo_total_nonelectrostatic_energy": 16.7, 
			 "SMD_solvation_energy": 8.15 
		},
		"coords": [
			{
				"x": 1.0735027119,
				"y": -4.2628820384,
				"z": -2.0772218525,
				"element": "C" 
			},
			{
				"x": -0.3868341768,
				"y": -3.8566730919,
				"z": -2.1099231756,
				"element": "C" 
			},
			{
				"x": -0.4367554524,
				"y": -2.4107006018,
				"z": -2.027186929,
				"element": "O" 
			},
			{
				"x": -1.6668178913,
				"y": -1.8704541976,
				"z": -2.0731751854,
				"element": "C" 
			},
			{
				"x": -2.7045831731,
				"y": -2.4989068429,
				"z": -2.1523979904,
				"element": "O" 
			},
			{
				"x": -1.6381748072,
				"y": -0.4009470648,
				"z": -2.0132474235,
				"element": "C" 
			},
			{
				"x": -2.6740212147,
				"y": 0.4961322211,
				"z": -2.0219040152,
				"element": "C" 
			},
			{
				"x": -2.0893309326,
				"y": 1.792024609,
				"z": -1.9407461421,
				"element": "C" 
			},
			{
				"x": -0.7373456002,
				"y": 1.5827777688,
				"z": -1.8949682607,
				"element": "C" 
			},
			{
				"x": -0.4410678222,
				"y": 0.2583617716,
				"z": -1.9360119737,
				"element": "O" 
			},
			{
				"x": 0.6186621129,
				"y": 2.7365364947,
				"z": -1.7859724814,
				"element": "S" 
			},
			{
				"x": -0.037343719,
				"y": 4.0378508522,
				"z": -1.6743229111,
				"element": "O" 
			},
			{
				"x": 1.5657210358,
				"y": 2.4103791522,
				"z": -2.8474148449,
				"element": "O" 
			},
			{
				"x": 1.3816072704,
				"y": 2.4237143977,
				"z": -0.3454997798,
				"element": "N" 
			},
			{
				"x": 2.3237391547,
				"y": 1.2818793338,
				"z": -0.2853072845,
				"element": "C" 
			},
			{
				"x": 3.0088992216,
				"y": 1.2815245305,
				"z": 1.081154771,
				"element": "C" 
			},
			{
				"x": 2.0099770271,
				"y": 1.0865271079,
				"z": 2.2433751045,
				"element": "C" 
			},
			{
				"x": 0.6009356425,
				"y": 1.6406386101,
				"z": 1.8636308828,
				"element": "C" 
			},
			{
				"x": 0.7217044948,
				"y": 2.8341675312,
				"z": 0.9136987937,
				"element": "C" 
			},
			{
				"x": 2.5045834077,
				"y": 1.793593083,
				"z": 3.5091008196,
				"element": "C" 
			},
			{
				"x": 1.9854265244,
				"y": 1.3306658964,
				"z": 4.6781505405,
				"element": "O" 
			},
			{
				"x": 3.2568960794,
				"y": 2.7361164313,
				"z": 3.5191712878,
				"element": "O" 
			},
			{
				"x": 1.619506254,
				"y": -3.8261268204,
				"z": -2.9179127612,
				"element": "H" 
			},
			{
				"x": 1.1547804663,
				"y": -5.3522860604,
				"z": -2.1412794,
				"element": "H" 
			},
			{
				"x": 1.5509802362,
				"y": -3.9366321992,
				"z": -1.1487963134,
				"element": "H" 
			},
			{
				"x": -0.8829688545,
				"y": -4.1712820007,
				"z": -3.0330737112,
				"element": "H" 
			},
			{
				"x": -0.9530675753,
				"y": -4.2758033054,
				"z": -1.2721385844,
				"element": "H" 
			},
			{
				"x": -3.7210230581,
				"y": 0.2390639813,
				"z": -2.0826898996,
				"element": "H" 
			},
			{
				"x": -2.5803067767,
				"y": 2.7530179839,
				"z": -1.928644852,
				"element": "H" 
			},
			{
				"x": 1.8036626681,
				"y": 0.3285673842,
				"z": -0.4575916455,
				"element": "H" 
			},
			{
				"x": 3.0576803398,
				"y": 1.4071461214,
				"z": -1.0821132603,
				"element": "H" 
			},
			{
				"x": 3.5310126199,
				"y": 2.2309246951,
				"z": 1.2295908579,
				"element": "H" 
			},
			{
				"x": 3.7680989593,
				"y": 0.4935274875,
				"z": 1.0981323067,
				"element": "H" 
			},
			{
				"x": 1.9061441894,
				"y": 0.0162237125,
				"z": 2.4670093547,
				"element": "H" 
			},
			{
				"x": 0.0443698569,
				"y": 1.938445865,
				"z": 2.7590912129,
				"element": "H" 
			},
			{
				"x": 0.0193226254,
				"y": 0.8506131964,
				"z": 1.3765065833,
				"element": "H" 
			},
			{
				"x": 1.3078478512,
				"y": 3.6338710064,
				"z": 1.3807719591,
				"element": "H" 
			},
			{
				"x": -0.2601868187,
				"y": 3.2511687911,
				"z": 0.681739949,
				"element": "H" 
			},
			{
				"x": 1.4276671233,
				"y": 0.5566342073,
				"z": 4.5162162538,
				"element": "H" 
			}
		],
		 "valence_orbital": [ 
			{
				"type": "occ",
				"energy": -0.31043,
				"method": "rhf"
			},
			{
				"type": "occ",
				"energy": -0.29212,
				"method": "rhf"
			},
			{
				"type": "occ",
				"energy": -0.28283,
				"method": "rhf"
			},
			{
				"type": "occ",
				"energy": -0.2767,
				"method": "rhf"
			},
			{
				"type": "occ",
				"energy": -0.25153,
				"method": "rhf"
			},
			{
				"type": "unocc",
				"energy": -0.06777,
				"method": "rhf"
			},
			{
				"type": "unocc",
				"energy": -0.00694,
				"method": "rhf"
			},
			{
				"type": "unocc",
				"energy": 0.00393,
				"method": "rhf"
			},
			{
				"type": "unocc",
				"energy": 0.03638,
				"method": "rhf"
			},
			{
				"type": "unocc",
				"energy": 0.06049,
				"method": "rhf"
			}
		],
		"cosmo_sigma_profile": { 
			"-0.025": 0.0,
			"-0.024": 0.0,
			"-0.023": 0.0,
			"-0.022": 0.0,
			"-0.021": 0.0,
			"-0.02": 0.0,
			"-0.019": 0.475519224449,
			"-0.018": 0.886147302852,
			"-0.017": 1.13083823613,
			"-0.016": 1.07968358549,
			"-0.015": 1.31596746719,
			"-0.014": 1.46857125765,
			"-0.013": 0.888679628547,
			"-0.012": 0.850979661496,
			"-0.011": 1.33407085881,
			"-0.01": 1.48792481227,
			"-0.009": 4.50153172603,
			"-0.008": 3.6849018046,
			"-0.007": 6.12789190364,
			"-0.006": 16.3826035125,
			"-0.005": 34.4642867614,
			"-0.004": 35.9952528338,
			"-0.003": 31.5735849338,
			"-0.002": 28.9964991323,
			"-0.001": 25.6232416124,
			"0.0": 21.988957205,
			"0.001": 15.7304877708,
			"0.002": 10.3676438642,
			"0.003": 10.2196658122,
			"0.004": 9.95141351822,
			"0.005": 8.97623122411,
			"0.006": 8.98808805885,
			"0.007": 8.95931854559,
			"0.008": 7.5006740733,
			"0.009": 11.5726867052,
			"0.01": 15.9979135821,
			"0.011": 15.5352463416,
			"0.012": 6.67932313658,
			"0.013": 1.34859828231,
			"0.014": 0.00493676856873,
			"0.015": 0.0,
			"0.016": 0.0,
			"0.017": 0.0,
			"0.018": 0.0,
			"0.019": 0.0,
			"0.02": 0.0,
			"0.021": 0.0,
			"0.022": 0.0,
			"0.023": 0.0,
			"0.024": 0.0,
			"0.025": 0.0
		}
	}
}
