{
	 "smiles": "CCOC(=O)COC1=C(C=CC=C1)C(C)=O", 
	 "Tm": 318.15, 
	 "num_atms": 30, 
	 "gaussian": { 
		 "optdone": 1, 
		 "sigma_profile": "yes", 
		 "theory": "DFT", 
		 "functional": "B3LYP", 
		 "basiset": "6-31G**", 
		 "properties": { 
			 "R2extent": 5464.7754, 
			 "electric_dipole_moment_norm": 2.80046145305, 
			 "electric_quadrupole_moment_norm": 23.6973080693, 
			 "total_energy": -766.609281479, 
			 "HOMO_LUMO_gap": 0.18589, 
			 "cosmo_polarized_energy": -13.48, 
			 "cosmo_cavitation_energy": 34.19, 
			 "cosmo_dispersion_energy": -23.85, 
			 "cosmo_repulsion_energy": 1.87, 
			 "cosmo_total_nonelectrostatic_energy": 12.21, 
			 "SMD_solvation_energy": 7.98 
		},
		"coords": [
			{
				"x": -2.2472582303,
				"y": -4.1656700121,
				"z": 0.9458636047,
				"element": "C" 
			},
			{
				"x": -1.7900794167,
				"y": -2.8761116989,
				"z": 1.6085586941,
				"element": "C" 
			},
			{
				"x": -1.2910457526,
				"y": -1.9295291217,
				"z": 0.6243547002,
				"element": "O" 
			},
			{
				"x": -0.0028612954,
				"y": -2.051097749,
				"z": 0.2832216704,
				"element": "C" 
			},
			{
				"x": 0.7674836719,
				"y": -2.879244533,
				"z": 0.7198967755,
				"element": "O" 
			},
			{
				"x": 0.4483307461,
				"y": -1.048072751,
				"z": -0.7699513819,
				"element": "C" 
			},
			{
				"x": -0.5110288804,
				"y": -0.030520538,
				"z": -0.9662014055,
				"element": "O" 
			},
			{
				"x": -0.298251793,
				"y": 0.9030323326,
				"z": -1.9422328815,
				"element": "C" 
			},
			{
				"x": -1.3127714927,
				"y": 1.8678653001,
				"z": -2.1566116746,
				"element": "C" 
			},
			{
				"x": -1.1096862303,
				"y": 2.820247056,
				"z": -3.1676396844,
				"element": "C" 
			},
			{
				"x": 0.0445252426,
				"y": 2.8451242039,
				"z": -3.9418998738,
				"element": "C" 
			},
			{
				"x": 1.0351175321,
				"y": 1.8912909797,
				"z": -3.7106262578,
				"element": "C" 
			},
			{
				"x": 0.8683834314,
				"y": 0.9246129992,
				"z": -2.7196409143,
				"element": "C" 
			},
			{
				"x": -2.6142941704,
				"y": 1.9786383539,
				"z": -1.3998758084,
				"element": "C" 
			},
			{
				"x": -2.9068646486,
				"y": 1.1057310417,
				"z": -0.1979186291,
				"element": "C" 
			},
			{
				"x": -3.4405080367,
				"y": 2.8062473826,
				"z": -1.7614461273,
				"element": "O" 
			},
			{
				"x": -2.9998406086,
				"y": -3.9646938329,
				"z": 0.1779846749,
				"element": "H" 
			},
			{
				"x": -2.6909854944,
				"y": -4.828009105,
				"z": 1.6963891207,
				"element": "H" 
			},
			{
				"x": -1.401658937,
				"y": -4.6854312965,
				"z": 0.4888418892,
				"element": "H" 
			},
			{
				"x": -1.0036747889,
				"y": -3.0630713171,
				"z": 2.3430520142,
				"element": "H" 
			},
			{
				"x": -2.6197856138,
				"y": -2.350563501,
				"z": 2.0856209716,
				"element": "H" 
			},
			{
				"x": 0.6280445698,
				"y": -1.612732743,
				"z": -1.6959357895,
				"element": "H" 
			},
			{
				"x": 1.4121710838,
				"y": -0.6436463682,
				"z": -0.4364083243,
				"element": "H" 
			},
			{
				"x": -1.903755929,
				"y": 3.5436525682,
				"z": -3.3179758164,
				"element": "H" 
			},
			{
				"x": 0.1718213357,
				"y": 3.597459897,
				"z": -4.7136952911,
				"element": "H" 
			},
			{
				"x": 1.9475047576,
				"y": 1.8915001491,
				"z": -4.3003557585,
				"element": "H" 
			},
			{
				"x": 1.6524726702,
				"y": 0.1953342845,
				"z": -2.5579920847,
				"element": "H" 
			},
			{
				"x": -3.8743687941,
				"y": 1.406494788,
				"z": 0.20682504,
				"element": "H" 
			},
			{
				"x": -2.9173022734,
				"y": 0.0469772888,
				"z": -0.4686940365,
				"element": "H" 
			},
			{
				"x": -2.1275326549,
				"y": 1.2105859422,
				"z": 0.5626925842,
				"element": "H" 
			}
		],
		 "valence_orbital": [ 
			{
				"type": "occ",
				"energy": -0.31205,
				"method": "rhf"
			},
			{
				"type": "occ",
				"energy": -0.2879,
				"method": "rhf"
			},
			{
				"type": "occ",
				"energy": -0.25844,
				"method": "rhf"
			},
			{
				"type": "occ",
				"energy": -0.24086,
				"method": "rhf"
			},
			{
				"type": "occ",
				"energy": -0.23521,
				"method": "rhf"
			},
			{
				"type": "unocc",
				"energy": -0.04932,
				"method": "rhf"
			},
			{
				"type": "unocc",
				"energy": -0.0033,
				"method": "rhf"
			},
			{
				"type": "unocc",
				"energy": 0.00096,
				"method": "rhf"
			},
			{
				"type": "unocc",
				"energy": 0.04163,
				"method": "rhf"
			},
			{
				"type": "unocc",
				"energy": 0.08177,
				"method": "rhf"
			}
		],
		"cosmo_sigma_profile": { 
			"-0.025": 0.0,
			"-0.024": 0.0,
			"-0.023": 0.0,
			"-0.022": 0.0,
			"-0.021": 0.0,
			"-0.02": 0.0,
			"-0.019": 0.0,
			"-0.018": 0.0,
			"-0.017": 0.0,
			"-0.016": 0.0,
			"-0.015": 0.0,
			"-0.014": 0.0,
			"-0.013": 0.0,
			"-0.012": 0.0,
			"-0.011": 0.0,
			"-0.01": 0.0,
			"-0.009": 0.63805246933,
			"-0.008": 7.93088730885,
			"-0.007": 7.47907491525,
			"-0.006": 12.4892426017,
			"-0.005": 16.641862495,
			"-0.004": 26.0275385695,
			"-0.003": 24.618346112,
			"-0.002": 22.3282579989,
			"-0.001": 22.5944033044,
			"0.0": 23.6339148095,
			"0.001": 17.8108448124,
			"0.002": 15.404297541,
			"0.003": 16.5985800946,
			"0.004": 16.7055373868,
			"0.005": 6.61619166543,
			"0.006": 4.70329355637,
			"0.007": 2.50692882298,
			"0.008": 2.7225204494,
			"0.009": 3.65693263811,
			"0.01": 3.80405184091,
			"0.011": 6.29739762403,
			"0.012": 7.10360038403,
			"0.013": 2.42085838898,
			"0.014": 0.323197905676,
			"0.015": 0.0,
			"0.016": 0.0,
			"0.017": 0.0,
			"0.018": 0.0,
			"0.019": 0.0,
			"0.02": 0.0,
			"0.021": 0.0,
			"0.022": 0.0,
			"0.023": 0.0,
			"0.024": 0.0,
			"0.025": 0.0
		}
	}
}
