{
	 "smiles": "CCP(=O)(C1=CC=CC=C1)C1=CC=CC=C1", 
	 "Tm": 395.15, 
	 "num_atms": 31, 
	 "gaussian": { 
		 "optdone": 1, 
		 "sigma_profile": "yes", 
		 "theory": "DFT", 
		 "functional": "B3LYP", 
		 "basiset": "6-31G**", 
		 "properties": { 
			 "R2extent": 5100.5182, 
			 "electric_dipole_moment_norm": 3.86141706761, 
			 "electric_quadrupole_moment_norm": 10.7145707968, 
			 "total_energy": -959.139530399, 
			 "HOMO_LUMO_gap": 0.22003, 
			 "cosmo_polarized_energy": -14.97, 
			 "cosmo_cavitation_energy": 35.42, 
			 "cosmo_dispersion_energy": -24.56, 
			 "cosmo_repulsion_energy": 1.89, 
			 "cosmo_total_nonelectrostatic_energy": 12.75, 
			 "SMD_solvation_energy": 6.99 
		},
		"coords": [
			{
				"x": 0.6250140025,
				"y": -3.3938181914,
				"z": 0.1221709092,
				"element": "C" 
			},
			{
				"x": 1.2851865174,
				"y": -2.4914410981,
				"z": -0.9283935738,
				"element": "C" 
			},
			{
				"x": 0.1406623065,
				"y": -1.2043363437,
				"z": -1.5769775146,
				"element": "P" 
			},
			{
				"x": -1.1373936179,
				"y": -1.7485182948,
				"z": -2.1559701172,
				"element": "O" 
			},
			{
				"x": 1.1160021427,
				"y": -0.2869097359,
				"z": -2.8283005878,
				"element": "C" 
			},
			{
				"x": 2.349855908,
				"y": 0.3268872482,
				"z": -2.5655642484,
				"element": "C" 
			},
			{
				"x": 3.0356032713,
				"y": 0.9912209122,
				"z": -3.5820752429,
				"element": "C" 
			},
			{
				"x": 2.4940990188,
				"y": 1.0493936279,
				"z": -4.869009556,
				"element": "C" 
			},
			{
				"x": 1.2661065216,
				"y": 0.4427752687,
				"z": -5.136953907,
				"element": "C" 
			},
			{
				"x": 0.5784331428,
				"y": -0.2237344994,
				"z": -4.1211849389,
				"element": "C" 
			},
			{
				"x": -0.1756531546,
				"y": -0.0520631685,
				"z": -0.1870543451,
				"element": "C" 
			},
			{
				"x": 0.8060920685,
				"y": 0.3811675909,
				"z": 0.7172999009,
				"element": "C" 
			},
			{
				"x": 0.478106063,
				"y": 1.2692675241,
				"z": 1.7421453337,
				"element": "C" 
			},
			{
				"x": -0.8336522245,
				"y": 1.7308185133,
				"z": 1.8742516094,
				"element": "C" 
			},
			{
				"x": -1.8178014288,
				"y": 1.2978331925,
				"z": 0.9838922175,
				"element": "C" 
			},
			{
				"x": -1.4920747793,
				"y": 0.4081403898,
				"z": -0.0406436289,
				"element": "C" 
			},
			{
				"x": 0.3471314239,
				"y": -2.8270798803,
				"z": 1.0159754576,
				"element": "H" 
			},
			{
				"x": 1.3079300898,
				"y": -4.1927780505,
				"z": 0.4271061668,
				"element": "H" 
			},
			{
				"x": -0.2819285893,
				"y": -3.8516196652,
				"z": -0.2813853439,
				"element": "H" 
			},
			{
				"x": 1.5924266441,
				"y": -3.0760594718,
				"z": -1.8031762418,
				"element": "H" 
			},
			{
				"x": 2.1916848114,
				"y": -2.0159464813,
				"z": -0.5351597199,
				"element": "H" 
			},
			{
				"x": 2.7804141513,
				"y": 0.2982822525,
				"z": -1.5685715023,
				"element": "H" 
			},
			{
				"x": 3.9902882534,
				"y": 1.4645601293,
				"z": -3.3708256606,
				"element": "H" 
			},
			{
				"x": 3.0294069792,
				"y": 1.5680750826,
				"z": -5.6593554965,
				"element": "H" 
			},
			{
				"x": 0.8427883373,
				"y": 0.4880631714,
				"z": -6.136355308,
				"element": "H" 
			},
			{
				"x": -0.3773024738,
				"y": -0.7026529545,
				"z": -4.3107679256,
				"element": "H" 
			},
			{
				"x": 1.8292931688,
				"y": 0.0246832227,
				"z": 0.636919415,
				"element": "H" 
			},
			{
				"x": 1.2441425907,
				"y": 1.597335502,
				"z": 2.4390165405,
				"element": "H" 
			},
			{
				"x": -1.0875798682,
				"y": 2.4217754268,
				"z": 2.6731489984,
				"element": "H" 
			},
			{
				"x": -2.840286875,
				"y": 1.6489979118,
				"z": 1.0896276742,
				"element": "H" 
			},
			{
				"x": -2.2489944016,
				"y": 0.0491808687,
				"z": -0.7312293641,
				"element": "H" 
			}
		],
		 "valence_orbital": [ 
			{
				"type": "occ",
				"energy": -0.25969,
				"method": "rhf"
			},
			{
				"type": "occ",
				"energy": -0.25752,
				"method": "rhf"
			},
			{
				"type": "occ",
				"energy": -0.25432,
				"method": "rhf"
			},
			{
				"type": "occ",
				"energy": -0.25281,
				"method": "rhf"
			},
			{
				"type": "occ",
				"energy": -0.25148,
				"method": "rhf"
			},
			{
				"type": "unocc",
				"energy": -0.03145,
				"method": "rhf"
			},
			{
				"type": "unocc",
				"energy": -0.01315,
				"method": "rhf"
			},
			{
				"type": "unocc",
				"energy": -0.00975,
				"method": "rhf"
			},
			{
				"type": "unocc",
				"energy": -0.00467,
				"method": "rhf"
			},
			{
				"type": "unocc",
				"energy": 0.06139,
				"method": "rhf"
			}
		],
		"cosmo_sigma_profile": { 
			"-0.025": 0.0,
			"-0.024": 0.0,
			"-0.023": 0.0,
			"-0.022": 0.0,
			"-0.021": 0.0,
			"-0.02": 0.0,
			"-0.019": 0.0,
			"-0.018": 0.0,
			"-0.017": 0.0,
			"-0.016": 0.00131686361689,
			"-0.015": 0.0569725120019,
			"-0.014": 0.155929477055,
			"-0.013": 0.193777879111,
			"-0.012": 0.212180004065,
			"-0.011": 0.282133989843,
			"-0.01": 0.426618768836,
			"-0.009": 1.03864536127,
			"-0.008": 1.94822397071,
			"-0.007": 4.09603871987,
			"-0.006": 16.8679273674,
			"-0.005": 22.2383232904,
			"-0.004": 26.0227109288,
			"-0.003": 21.9107205844,
			"-0.002": 23.7265923099,
			"-0.001": 22.9316954008,
			"0.0": 22.9512448961,
			"0.001": 20.0403845158,
			"0.002": 18.1810790919,
			"0.003": 19.2379864694,
			"0.004": 22.447327673,
			"0.005": 14.8678400465,
			"0.006": 1.86586381413,
			"0.007": 1.59401428856,
			"0.008": 1.66228347884,
			"0.009": 1.51820612242,
			"0.01": 0.900943501746,
			"0.011": 1.92416839047,
			"0.012": 1.05170823576,
			"0.013": 0.623923785938,
			"0.014": 1.6047856441,
			"0.015": 2.73822033392,
			"0.016": 4.02513233688,
			"0.017": 1.14708777249,
			"0.018": 0.0,
			"0.019": 0.0,
			"0.02": 0.0,
			"0.021": 0.0,
			"0.022": 0.0,
			"0.023": 0.0,
			"0.024": 0.0,
			"0.025": 0.0
		}
	}
}
