{
	 "smiles": "COC1=CC2=C(C=C1O)C(CC1=CC=C(O)C=C1)NCC2", 
	 "Tm": 493.15, 
	 "num_atms": 40, 
	 "gaussian": { 
		 "optdone": 1, 
		 "sigma_profile": "yes", 
		 "theory": "DFT", 
		 "functional": "B3LYP", 
		 "basiset": "6-31G**", 
		 "properties": { 
			 "R2extent": 7441.3885, 
			 "electric_dipole_moment_norm": 2.71332285215, 
			 "electric_quadrupole_moment_norm": 22.7032585593, 
			 "total_energy": -939.667057783, 
			 "HOMO_LUMO_gap": 0.19471, 
			 "cosmo_polarized_energy": -17.19, 
			 "cosmo_cavitation_energy": 41.62, 
			 "cosmo_dispersion_energy": -29.22, 
			 "cosmo_repulsion_energy": 2.25, 
			 "cosmo_total_nonelectrostatic_energy": 14.65, 
			 "SMD_solvation_energy": 5.36 
		},
		"coords": [
			{
				"x": 0.4670919047,
				"y": -1.0582106836,
				"z": 4.9948184375,
				"element": "C" 
			},
			{
				"x": 0.5957490319,
				"y": -1.715993421,
				"z": 3.7454576442,
				"element": "O" 
			},
			{
				"x": 0.8053684948,
				"y": -0.9441835358,
				"z": 2.6246335119,
				"element": "C" 
			},
			{
				"x": 0.8974571283,
				"y": 0.4403692687,
				"z": 2.5859707611,
				"element": "C" 
			},
			{
				"x": 1.1144069814,
				"y": 1.1143957315,
				"z": 1.3703045866,
				"element": "C" 
			},
			{
				"x": 1.2316458546,
				"y": 0.3752161356,
				"z": 0.18385689,
				"element": "C" 
			},
			{
				"x": 1.1501129249,
				"y": -1.0273543784,
				"z": 0.2361900919,
				"element": "C" 
			},
			{
				"x": 0.9408524506,
				"y": -1.6904295053,
				"z": 1.4365361005,
				"element": "C" 
			},
			{
				"x": 0.8712297596,
				"y": -3.0518899455,
				"z": 1.4706211257,
				"element": "O" 
			},
			{
				"x": 1.4502370538,
				"y": 1.0767631159,
				"z": -1.1570013654,
				"element": "C" 
			},
			{
				"x": 0.1737367127,
				"y": 1.0987942391,
				"z": -2.0546631435,
				"element": "C" 
			},
			{
				"x": -0.2353193014,
				"y": -0.233137259,
				"z": -2.6439706948,
				"element": "C" 
			},
			{
				"x": 0.4878085652,
				"y": -0.7997923907,
				"z": -3.7023576289,
				"element": "C" 
			},
			{
				"x": 0.1266548375,
				"y": -2.0269913034,
				"z": -4.2577073722,
				"element": "C" 
			},
			{
				"x": -0.9846809612,
				"y": -2.7163601892,
				"z": -3.7609741382,
				"element": "C" 
			},
			{
				"x": -1.3949232294,
				"y": -3.920499764,
				"z": -4.2646784848,
				"element": "O" 
			},
			{
				"x": -1.7246707158,
				"y": -2.166742395,
				"z": -2.7099125418,
				"element": "C" 
			},
			{
				"x": -1.3467121013,
				"y": -0.9420443276,
				"z": -2.165297985,
				"element": "C" 
			},
			{
				"x": 1.9542574781,
				"y": 2.4557470706,
				"z": -1.024411418,
				"element": "N" 
			},
			{
				"x": 1.2132050428,
				"y": 3.2301424356,
				"z": -0.0243845395,
				"element": "C" 
			},
			{
				"x": 1.2860320474,
				"y": 2.6231163292,
				"z": 1.3833434197,
				"element": "C" 
			},
			{
				"x": 0.3110827024,
				"y": -1.8409205334,
				"z": 5.7389483323,
				"element": "H" 
			},
			{
				"x": -0.3920919663,
				"y": -0.3754517822,
				"z": 5.0012448084,
				"element": "H" 
			},
			{
				"x": 1.3744903036,
				"y": -0.4942574175,
				"z": 5.2460623452,
				"element": "H" 
			},
			{
				"x": 0.8090502512,
				"y": 1.0207452943,
				"z": 3.4990493288,
				"element": "H" 
			},
			{
				"x": 1.2519216176,
				"y": -1.6231245275,
				"z": -0.6643979113,
				"element": "H" 
			},
			{
				"x": 0.7249573737,
				"y": -3.3027886195,
				"z": 2.3953414141,
				"element": "H" 
			},
			{
				"x": 2.2155687406,
				"y": 0.5227178791,
				"z": -1.714633559,
				"element": "H" 
			},
			{
				"x": -0.6635179913,
				"y": 1.5110545081,
				"z": -1.4817504948,
				"element": "H" 
			},
			{
				"x": 0.391688336,
				"y": 1.8101131846,
				"z": -2.8593623286,
				"element": "H" 
			},
			{
				"x": 1.3476663521,
				"y": -0.271190063,
				"z": -4.107793936,
				"element": "H" 
			},
			{
				"x": 0.7025346908,
				"y": -2.4441274377,
				"z": -5.0818668629,
				"element": "H" 
			},
			{
				"x": -0.79513167,
				"y": -4.1847421407,
				"z": -4.9740346516,
				"element": "H" 
			},
			{
				"x": -2.5853642272,
				"y": -2.7098191763,
				"z": -2.3335826543,
				"element": "H" 
			},
			{
				"x": -1.9273854174,
				"y": -0.5278094852,
				"z": -1.3453592397,
				"element": "H" 
			},
			{
				"x": 2.930736642,
				"y": 2.4141973226,
				"z": -0.7379140053,
				"element": "H" 
			},
			{
				"x": 0.1690313143,
				"y": 3.2939995428,
				"z": -0.3508498872,
				"element": "H" 
			},
			{
				"x": 1.5999060953,
				"y": 4.2553340239,
				"z": -0.0195130621,
				"element": "H" 
			},
			{
				"x": 0.5359640989,
				"y": 3.0875679865,
				"z": 2.0373028018,
				"element": "H" 
			},
			{
				"x": 2.2630527943,
				"y": 2.8677862135,
				"z": 1.828336305,
				"element": "H" 
			}
		],
		 "valence_orbital": [ 
			{
				"type": "occ",
				"energy": -0.24376,
				"method": "rhf"
			},
			{
				"type": "occ",
				"energy": -0.22536,
				"method": "rhf"
			},
			{
				"type": "occ",
				"energy": -0.21973,
				"method": "rhf"
			},
			{
				"type": "occ",
				"energy": -0.20605,
				"method": "rhf"
			},
			{
				"type": "occ",
				"energy": -0.19313,
				"method": "rhf"
			},
			{
				"type": "unocc",
				"energy": 0.00158,
				"method": "rhf"
			},
			{
				"type": "unocc",
				"energy": 0.01355,
				"method": "rhf"
			},
			{
				"type": "unocc",
				"energy": 0.02036,
				"method": "rhf"
			},
			{
				"type": "unocc",
				"energy": 0.02481,
				"method": "rhf"
			},
			{
				"type": "unocc",
				"energy": 0.07655,
				"method": "rhf"
			}
		],
		"cosmo_sigma_profile": { 
			"-0.025": 0.0,
			"-0.024": 0.0,
			"-0.023": 0.0,
			"-0.022": 0.0,
			"-0.021": 0.0,
			"-0.02": 0.0,
			"-0.019": 0.0,
			"-0.018": 0.0469921405616,
			"-0.017": 1.06214559785,
			"-0.016": 1.18381228241,
			"-0.015": 0.939256943337,
			"-0.014": 1.13300377646,
			"-0.013": 1.79807414712,
			"-0.012": 1.55234935766,
			"-0.011": 1.61683752322,
			"-0.01": 2.10927235624,
			"-0.009": 2.3065472304,
			"-0.008": 3.6337117187,
			"-0.007": 3.29535395816,
			"-0.006": 8.671135167,
			"-0.005": 20.1565920254,
			"-0.004": 28.0294007728,
			"-0.003": 38.587461147,
			"-0.002": 28.0463355313,
			"-0.001": 24.2535968498,
			"0.0": 20.1940901044,
			"0.001": 16.3441551757,
			"0.002": 16.0309084332,
			"0.003": 18.206391765,
			"0.004": 22.318478771,
			"0.005": 22.1124666455,
			"0.006": 16.1138006582,
			"0.007": 5.24132094065,
			"0.008": 3.39155750532,
			"0.009": 3.96153632794,
			"0.01": 3.97076812073,
			"0.011": 4.17644156987,
			"0.012": 4.00909145822,
			"0.013": 0.594325672974,
			"0.014": 0.614397001629,
			"0.015": 0.286621960132,
			"0.016": 0.648784106325,
			"0.017": 0.460119302983,
			"0.018": 0.26577031574,
			"0.019": 0.0,
			"0.02": 0.0,
			"0.021": 0.0,
			"0.022": 0.0,
			"0.023": 0.0,
			"0.024": 0.0,
			"0.025": 0.0
		}
	}
}
