{
	 "smiles": "NC(=O)N1CCCCC1", 
	 "Tm": 378.15, 
	 "num_atms": 21, 
	 "gaussian": { 
		 "optdone": 1, 
		 "sigma_profile": "yes", 
		 "theory": "DFT", 
		 "functional": "B3LYP", 
		 "basiset": "6-31G**", 
		 "properties": { 
			 "R2extent": 2063.1133, 
			 "electric_dipole_moment_norm": 3.8377168486, 
			 "electric_quadrupole_moment_norm": 12.7010794738, 
			 "total_energy": -420.624719922, 
			 "HOMO_LUMO_gap": 0.2868, 
			 "cosmo_polarized_energy": -12.42, 
			 "cosmo_cavitation_energy": 22.16, 
			 "cosmo_dispersion_energy": -16.87, 
			 "cosmo_repulsion_energy": 1.4, 
			 "cosmo_total_nonelectrostatic_energy": 6.69, 
			 "SMD_solvation_energy": 3.59 
		},
		"coords": [
			{
				"x": -1.5025222734,
				"y": -1.5514259539,
				"z": -0.3054672605,
				"element": "N" 
			},
			{
				"x": -1.4484557349,
				"y": -0.9433641589,
				"z": -1.5607343369,
				"element": "C" 
			},
			{
				"x": -2.0096649268,
				"y": -1.4391321969,
				"z": -2.5344223024,
				"element": "O" 
			},
			{
				"x": -0.6922310963,
				"y": 0.2071795075,
				"z": -1.6207713931,
				"element": "N" 
			},
			{
				"x": 0.1092993293,
				"y": 0.6989228519,
				"z": -0.4970106008,
				"element": "C" 
			},
			{
				"x": 1.2144181278,
				"y": 1.6474228623,
				"z": -0.9904690092,
				"element": "C" 
			},
			{
				"x": 1.8861742847,
				"y": 1.0763502738,
				"z": -2.2458714026,
				"element": "C" 
			},
			{
				"x": 0.8690473256,
				"y": 0.9331776009,
				"z": -3.408398241,
				"element": "C" 
			},
			{
				"x": -0.5829035043,
				"y": 0.9185609615,
				"z": -2.8922823612,
				"element": "C" 
			},
			{
				"x": -1.502381152,
				"y": -0.9604790097,
				"z": 0.5141878871,
				"element": "H" 
			},
			{
				"x": -2.2042372027,
				"y": -2.2780755551,
				"z": -0.2856253699,
				"element": "H" 
			},
			{
				"x": 0.5730337267,
				"y": -0.1603364811,
				"z": 0.0028393212,
				"element": "H" 
			},
			{
				"x": -0.5182496188,
				"y": 1.2142113546,
				"z": 0.2498218993,
				"element": "H" 
			},
			{
				"x": 0.7958470369,
				"y": 2.6380533693,
				"z": -1.2057561204,
				"element": "H" 
			},
			{
				"x": 1.9404722575,
				"y": 1.7868035113,
				"z": -0.1822483,
				"element": "H" 
			},
			{
				"x": 2.7309130197,
				"y": 1.7052657576,
				"z": -2.5457113852,
				"element": "H" 
			},
			{
				"x": 2.3053645164,
				"y": 0.0935747446,
				"z": -1.9974347233,
				"element": "H" 
			},
			{
				"x": 1.0697861312,
				"y": 0.0116198242,
				"z": -3.9641078654,
				"element": "H" 
			},
			{
				"x": 0.9757846974,
				"y": 1.7611659479,
				"z": -4.119310326,
				"element": "H" 
			},
			{
				"x": -0.9464196575,
				"y": 1.946910537,
				"z": -2.7593900246,
				"element": "H" 
			},
			{
				"x": -1.2505752864,
				"y": 0.4183942511,
				"z": -3.5929380852,
				"element": "H" 
			}
		],
		 "valence_orbital": [ 
			{
				"type": "occ",
				"energy": -0.32586,
				"method": "rhf"
			},
			{
				"type": "occ",
				"energy": -0.31857,
				"method": "rhf"
			},
			{
				"type": "occ",
				"energy": -0.26464,
				"method": "rhf"
			},
			{
				"type": "occ",
				"energy": -0.24049,
				"method": "rhf"
			},
			{
				"type": "occ",
				"energy": -0.22298,
				"method": "rhf"
			},
			{
				"type": "unocc",
				"energy": 0.06382,
				"method": "rhf"
			},
			{
				"type": "unocc",
				"energy": 0.07308,
				"method": "rhf"
			},
			{
				"type": "unocc",
				"energy": 0.0951,
				"method": "rhf"
			},
			{
				"type": "unocc",
				"energy": 0.1115,
				"method": "rhf"
			},
			{
				"type": "unocc",
				"energy": 0.12175,
				"method": "rhf"
			}
		],
		"cosmo_sigma_profile": { 
			"-0.025": 0.0,
			"-0.024": 0.0,
			"-0.023": 0.0,
			"-0.022": 0.0,
			"-0.021": 0.0,
			"-0.02": 0.0,
			"-0.019": 0.0,
			"-0.018": 0.0,
			"-0.017": 0.0,
			"-0.016": 0.0,
			"-0.015": 0.0,
			"-0.014": 0.0,
			"-0.013": 0.701672812202,
			"-0.012": 2.26766946902,
			"-0.011": 2.37064061588,
			"-0.01": 2.31693186761,
			"-0.009": 2.96155351404,
			"-0.008": 1.97680254606,
			"-0.007": 1.90022578607,
			"-0.006": 2.17301306458,
			"-0.005": 3.16528445184,
			"-0.004": 9.57520979229,
			"-0.003": 23.181760811,
			"-0.002": 26.7450605794,
			"-0.001": 23.9315023945,
			"0.0": 16.0652186344,
			"0.001": 12.0342860067,
			"0.002": 4.80717905186,
			"0.003": 4.48747769134,
			"0.004": 2.31418025523,
			"0.005": 1.87110976219,
			"0.006": 2.88707669817,
			"0.007": 2.08779336248,
			"0.008": 2.111818222,
			"0.009": 2.21776386151,
			"0.01": 1.91288326898,
			"0.011": 1.72810863813,
			"0.012": 1.80496385566,
			"0.013": 2.15226091967,
			"0.014": 2.46073469244,
			"0.015": 6.46438669678,
			"0.016": 0.830924002964,
			"0.017": 0.0,
			"0.018": 0.0,
			"0.019": 0.0,
			"0.02": 0.0,
			"0.021": 0.0,
			"0.022": 0.0,
			"0.023": 0.0,
			"0.024": 0.0,
			"0.025": 0.0
		}
	}
}
