{
	 "smiles": "CN1C(=O)C=C(C(O)=O)C2=C1C=CC=C2", 
	 "Tm": 524.15, 
	 "num_atms": 24, 
	 "gaussian": { 
		 "optdone": 1, 
		 "sigma_profile": "yes", 
		 "theory": "DFT", 
		 "functional": "B3LYP", 
		 "basiset": "6-31G**", 
		 "properties": { 
			 "R2extent": 3446.1378, 
			 "electric_dipole_moment_norm": 6.56306277587, 
			 "electric_quadrupole_moment_norm": 9.51852261068, 
			 "total_energy": -705.039290191, 
			 "HOMO_LUMO_gap": 0.15328, 
			 "cosmo_polarized_energy": -18.08, 
			 "cosmo_cavitation_energy": 27.87, 
			 "cosmo_dispersion_energy": -20.69, 
			 "cosmo_repulsion_energy": 1.58, 
			 "cosmo_total_nonelectrostatic_energy": 8.75, 
			 "SMD_solvation_energy": 6.39 
		},
		"coords": [
			{
				"x": 1.8942233636,
				"y": -3.09200081,
				"z": 0.9037346851,
				"element": "C" 
			},
			{
				"x": 1.2466803016,
				"y": -1.8061274324,
				"z": 1.1662358049,
				"element": "N" 
			},
			{
				"x": 1.6515948379,
				"y": -1.1248320699,
				"z": 2.3326669201,
				"element": "C" 
			},
			{
				"x": 2.5048121635,
				"y": -1.5864086596,
				"z": 3.0845458913,
				"element": "O" 
			},
			{
				"x": 0.9707447698,
				"y": 0.1396747969,
				"z": 2.5840951281,
				"element": "C" 
			},
			{
				"x": 0.012368091,
				"y": 0.6378006231,
				"z": 1.7650736741,
				"element": "C" 
			},
			{
				"x": -0.6624223229,
				"y": 1.9110632904,
				"z": 2.2189722413,
				"element": "C" 
			},
			{
				"x": -2.0146686362,
				"y": 1.9545877105,
				"z": 2.0812614017,
				"element": "O" 
			},
			{
				"x": -0.0711999449,
				"y": 2.8332232771,
				"z": 2.720262939,
				"element": "O" 
			},
			{
				"x": -0.3311193701,
				"y": -0.0527172428,
				"z": 0.5341544332,
				"element": "C" 
			},
			{
				"x": 0.3139339476,
				"y": -1.2961140274,
				"z": 0.2691402614,
				"element": "C" 
			},
			{
				"x": -0.001248454,
				"y": -1.9909496018,
				"z": -0.9162615695,
				"element": "C" 
			},
			{
				"x": -0.9060043642,
				"y": -1.4633636332,
				"z": -1.8269135929,
				"element": "C" 
			},
			{
				"x": -1.5159897415,
				"y": -0.2254108673,
				"z": -1.5934034478,
				"element": "C" 
			},
			{
				"x": -1.2251456726,
				"y": 0.46634477,
				"z": -0.4278437598,
				"element": "C" 
			},
			{
				"x": 2.4694812131,
				"y": -3.053975569,
				"z": -0.0265031255,
				"element": "H" 
			},
			{
				"x": 1.1496864468,
				"y": -3.8906916791,
				"z": 0.8353852851,
				"element": "H" 
			},
			{
				"x": 2.5654325337,
				"y": -3.284706866,
				"z": 1.7378034372,
				"element": "H" 
			},
			{
				"x": 1.2571148676,
				"y": 0.6588199148,
				"z": 3.4907107999,
				"element": "H" 
			},
			{
				"x": -2.344709543,
				"y": 1.1058499286,
				"z": 1.7504659522,
				"element": "H" 
			},
			{
				"x": 0.4700493338,
				"y": -2.9410110259,
				"z": -1.1304774413,
				"element": "H" 
			},
			{
				"x": -1.1280451463,
				"y": -2.0174651024,
				"z": -2.7339655219,
				"element": "H" 
			},
			{
				"x": -2.2038752328,
				"y": 0.1957948365,
				"z": -2.3189911376,
				"element": "H" 
			},
			{
				"x": -1.6759934415,
				"y": 1.4389154389,
				"z": -0.2621492582,
				"element": "H" 
			}
		],
		 "valence_orbital": [ 
			{
				"type": "occ",
				"energy": -0.32054,
				"method": "rhf"
			},
			{
				"type": "occ",
				"energy": -0.28662,
				"method": "rhf"
			},
			{
				"type": "occ",
				"energy": -0.26555,
				"method": "rhf"
			},
			{
				"type": "occ",
				"energy": -0.26095,
				"method": "rhf"
			},
			{
				"type": "occ",
				"energy": -0.23363,
				"method": "rhf"
			},
			{
				"type": "unocc",
				"energy": -0.08035,
				"method": "rhf"
			},
			{
				"type": "unocc",
				"energy": -0.02612,
				"method": "rhf"
			},
			{
				"type": "unocc",
				"energy": -0.02503,
				"method": "rhf"
			},
			{
				"type": "unocc",
				"energy": 0.02951,
				"method": "rhf"
			},
			{
				"type": "unocc",
				"energy": 0.07378,
				"method": "rhf"
			}
		],
		"cosmo_sigma_profile": { 
			"-0.025": 0.0,
			"-0.024": 0.0,
			"-0.023": 0.0,
			"-0.022": 0.0,
			"-0.021": 0.0,
			"-0.02": 0.0,
			"-0.019": 0.0,
			"-0.018": 0.491327352001,
			"-0.017": 1.03077303768,
			"-0.016": 0.632401821168,
			"-0.015": 0.778668993572,
			"-0.014": 0.78221977928,
			"-0.013": 0.988994316985,
			"-0.012": 1.10775729914,
			"-0.011": 1.19332329044,
			"-0.01": 0.532141220049,
			"-0.009": 0.632702599665,
			"-0.008": 2.03914810783,
			"-0.007": 10.6740563145,
			"-0.006": 16.5994798042,
			"-0.005": 17.5271203703,
			"-0.004": 15.4968021818,
			"-0.003": 16.2726286317,
			"-0.002": 18.1334460173,
			"-0.001": 16.2200250251,
			"0.0": 12.2546478124,
			"0.001": 11.8542603083,
			"0.002": 12.2651848985,
			"0.003": 11.6916117042,
			"0.004": 7.28294651414,
			"0.005": 3.961076253,
			"0.006": 4.29029991404,
			"0.007": 3.92028075678,
			"0.008": 4.15313192203,
			"0.009": 5.74786645908,
			"0.01": 6.51609912986,
			"0.011": 6.97169604927,
			"0.012": 4.36167025906,
			"0.013": 4.90171916688,
			"0.014": 2.04393021292,
			"0.015": 0.207673621688,
			"0.016": 0.0,
			"0.017": 0.0,
			"0.018": 0.0,
			"0.019": 0.0,
			"0.02": 0.0,
			"0.021": 0.0,
			"0.022": 0.0,
			"0.023": 0.0,
			"0.024": 0.0,
			"0.025": 0.0
		}
	}
}
