{
	 "smiles": "COP(=S)(OC)OC1=C(Cl)C=C(Cl)C(Cl)=N1", 
	 "Tm": 319.15, 
	 "num_atms": 23, 
	 "gaussian": { 
		 "optdone": 1, 
		 "sigma_profile": "yes", 
		 "theory": "DFT", 
		 "functional": "B3LYP", 
		 "basiset": "6-31G**", 
		 "properties": { 
			 "R2extent": 8782.3074, 
			 "electric_dipole_moment_norm": 4.42781050859, 
			 "electric_quadrupole_moment_norm": 6.85323000781, 
			 "total_energy": -2671.54766063, 
			 "HOMO_LUMO_gap": 0.18374, 
			 "cosmo_polarized_energy": -12.25, 
			 "cosmo_cavitation_energy": 37.2, 
			 "cosmo_dispersion_energy": -25.76, 
			 "cosmo_repulsion_energy": 1.98, 
			 "cosmo_total_nonelectrostatic_energy": 13.43, 
			 "SMD_solvation_energy": 6.2 
		},
		"coords": [
			{
				"x": 1.1844794985,
				"y": 2.5606108416,
				"z": -1.8234194142,
				"element": "C" 
			},
			{
				"x": 0.3518012026,
				"y": 2.0805980469,
				"z": -0.7487396088,
				"element": "O" 
			},
			{
				"x": 0.2940651342,
				"y": 0.5131219285,
				"z": -0.3881470113,
				"element": "P" 
			},
			{
				"x": 1.9322322498,
				"y": -0.4524358493,
				"z": -0.1025050615,
				"element": "S" 
			},
			{
				"x": -0.7208256795,
				"y": 0.506612087,
				"z": 0.8395018391,
				"element": "O" 
			},
			{
				"x": -2.0731951652,
				"y": 1.0023396355,
				"z": 0.7314366362,
				"element": "C" 
			},
			{
				"x": -0.5924712471,
				"y": 0.0367942525,
				"z": -1.7280867164,
				"element": "O" 
			},
			{
				"x": -0.9247981353,
				"y": -1.2563907065,
				"z": -1.9855120703,
				"element": "C" 
			},
			{
				"x": -0.7564924273,
				"y": -1.7635763753,
				"z": -3.2832857401,
				"element": "C" 
			},
			{
				"x": -0.0727528674,
				"y": -0.7931927382,
				"z": -4.5546044101,
				"element": "Cl" 
			},
			{
				"x": -1.155687575,
				"y": -3.07217342,
				"z": -3.5307125226,
				"element": "C" 
			},
			{
				"x": -1.6990664523,
				"y": -3.8336099718,
				"z": -2.4948878561,
				"element": "C" 
			},
			{
				"x": -2.1924497283,
				"y": -5.4714400518,
				"z": -2.8050933458,
				"element": "Cl" 
			},
			{
				"x": -1.8250954315,
				"y": -3.2296017592,
				"z": -1.2348779123,
				"element": "C" 
			},
			{
				"x": -2.5019541077,
				"y": -4.0978011805,
				"z": 0.1161761267,
				"element": "Cl" 
			},
			{
				"x": -1.4518599879,
				"y": -1.9805633156,
				"z": -1.009896413,
				"element": "N" 
			},
			{
				"x": 0.7980313551,
				"y": 2.2120273023,
				"z": -2.784855483,
				"element": "H" 
			},
			{
				"x": 1.1410919034,
				"y": 3.6489737515,
				"z": -1.775125548,
				"element": "H" 
			},
			{
				"x": 2.2145924993,
				"y": 2.2210426543,
				"z": -1.6868670368,
				"element": "H" 
			},
			{
				"x": -2.4563586348,
				"y": 1.0378387271,
				"z": 1.751205377,
				"element": "H" 
			},
			{
				"x": -2.6706872936,
				"y": 0.3104025837,
				"z": 0.133743455,
				"element": "H" 
			},
			{
				"x": -2.0850463596,
				"y": 2.0028052269,
				"z": 0.2929498733,
				"element": "H" 
			},
			{
				"x": -1.0399527505,
				"y": -3.5015816695,
				"z": -4.5186971569,
				"element": "H" 
			}
		],
		 "valence_orbital": [ 
			{
				"type": "occ",
				"energy": -0.30763,
				"method": "rhf"
			},
			{
				"type": "occ",
				"energy": -0.30158,
				"method": "rhf"
			},
			{
				"type": "occ",
				"energy": -0.26339,
				"method": "rhf"
			},
			{
				"type": "occ",
				"energy": -0.25044,
				"method": "rhf"
			},
			{
				"type": "occ",
				"energy": -0.24824,
				"method": "rhf"
			},
			{
				"type": "unocc",
				"energy": -0.0645,
				"method": "rhf"
			},
			{
				"type": "unocc",
				"energy": -0.04842,
				"method": "rhf"
			},
			{
				"type": "unocc",
				"energy": -0.01445,
				"method": "rhf"
			},
			{
				"type": "unocc",
				"energy": 0.014,
				"method": "rhf"
			},
			{
				"type": "unocc",
				"energy": 0.03101,
				"method": "rhf"
			}
		],
		"cosmo_sigma_profile": { 
			"-0.025": 0.0,
			"-0.024": 0.0,
			"-0.023": 0.0,
			"-0.022": 0.0,
			"-0.021": 0.0,
			"-0.02": 0.0,
			"-0.019": 0.0,
			"-0.018": 0.0,
			"-0.017": 0.0,
			"-0.016": 0.0,
			"-0.015": 0.0,
			"-0.014": 0.0,
			"-0.013": 0.0,
			"-0.012": 0.0,
			"-0.011": 0.523905361605,
			"-0.01": 1.83944312408,
			"-0.009": 1.28067417411,
			"-0.008": 2.03079006909,
			"-0.007": 6.51241440929,
			"-0.006": 11.894809301,
			"-0.005": 17.7719560222,
			"-0.004": 27.6539128889,
			"-0.003": 27.5290935606,
			"-0.002": 25.2001371551,
			"-0.001": 21.3432058796,
			"0.0": 20.2429408977,
			"0.001": 23.5911064,
			"0.002": 27.6631261155,
			"0.003": 33.2739343544,
			"0.004": 16.3408164262,
			"0.005": 8.50872289977,
			"0.006": 9.41244134909,
			"0.007": 11.2376319244,
			"0.008": 9.38848646858,
			"0.009": 3.29671602581,
			"0.01": 0.109826277913,
			"0.011": 0.0,
			"0.012": 0.0,
			"0.013": 0.0,
			"0.014": 0.0,
			"0.015": 0.0,
			"0.016": 0.0,
			"0.017": 0.0,
			"0.018": 0.0,
			"0.019": 0.0,
			"0.02": 0.0,
			"0.021": 0.0,
			"0.022": 0.0,
			"0.023": 0.0,
			"0.024": 0.0,
			"0.025": 0.0
		}
	}
}
