{
	 "smiles": "CCOC(=O)C(=O)C1=CSC(N)=N1", 
	 "Tm": 352.15, 
	 "num_atms": 21, 
	 "gaussian": { 
		 "optdone": 1, 
		 "sigma_profile": "yes", 
		 "theory": "DFT", 
		 "functional": "B3LYP", 
		 "basiset": "6-31G**", 
		 "properties": { 
			 "R2extent": 3704.9313, 
			 "electric_dipole_moment_norm": 4.08019556639, 
			 "electric_quadrupole_moment_norm": 19.6541854499, 
			 "total_energy": -1004.9174078, 
			 "HOMO_LUMO_gap": 0.16319, 
			 "cosmo_polarized_energy": -17.14, 
			 "cosmo_cavitation_energy": 28.72, 
			 "cosmo_dispersion_energy": -20.95, 
			 "cosmo_repulsion_energy": 1.68, 
			 "cosmo_total_nonelectrostatic_energy": 9.44, 
			 "SMD_solvation_energy": 5.44 
		},
		"coords": [
			{
				"x": 4.4093263254,
				"y": 1.2745226262,
				"z": -0.2218969607,
				"element": "C" 
			},
			{
				"x": 3.5329281605,
				"y": 0.0549659776,
				"z": -0.4596306874,
				"element": "C" 
			},
			{
				"x": 2.3021778162,
				"y": 0.4217458969,
				"z": -1.1398044723,
				"element": "O" 
			},
			{
				"x": 1.2932956703,
				"y": 0.8373727636,
				"z": -0.3632261719,
				"element": "C" 
			},
			{
				"x": 1.3092175996,
				"y": 0.9299901745,
				"z": 0.8436199551,
				"element": "O" 
			},
			{
				"x": 0.0905563794,
				"y": 1.2853320648,
				"z": -1.2057947511,
				"element": "C" 
			},
			{
				"x": 0.1426220584,
				"y": 2.341639483,
				"z": -1.812401481,
				"element": "O" 
			},
			{
				"x": -1.108698224,
				"y": 0.4249577547,
				"z": -1.1644223554,
				"element": "C" 
			},
			{
				"x": -2.2963712682,
				"y": 0.7739114554,
				"z": -1.7470712503,
				"element": "C" 
			},
			{
				"x": -3.4591884916,
				"y": -0.4899773444,
				"z": -1.5122371804,
				"element": "S" 
			},
			{
				"x": -2.2176616923,
				"y": -1.4003576349,
				"z": -0.6165923541,
				"element": "C" 
			},
			{
				"x": -2.4755710375,
				"y": -2.6629639226,
				"z": -0.1423754574,
				"element": "N" 
			},
			{
				"x": -1.0686266694,
				"y": -0.8015824284,
				"z": -0.5271880455,
				"element": "N" 
			},
			{
				"x": 4.6170421705,
				"y": 1.7935351238,
				"z": -1.1618292606,
				"element": "H" 
			},
			{
				"x": 3.9220257385,
				"y": 1.9699468483,
				"z": 0.4657083301,
				"element": "H" 
			},
			{
				"x": 5.3622796676,
				"y": 0.9646972335,
				"z": 0.2200702682,
				"element": "H" 
			},
			{
				"x": 3.2781655312,
				"y": -0.4422925795,
				"z": 0.4792911353,
				"element": "H" 
			},
			{
				"x": 4.0084465559,
				"y": -0.6603013752,
				"z": -1.1341178859,
				"element": "H" 
			},
			{
				"x": -2.5279193107,
				"y": 1.6854268183,
				"z": -2.2775795023,
				"element": "H" 
			},
			{
				"x": -1.7703221403,
				"y": -2.9971019996,
				"z": 0.5016854093,
				"element": "H" 
			},
			{
				"x": -3.4231248393,
				"y": -2.8667669361,
				"z": 0.1408927183,
				"element": "H" 
			}
		],
		 "valence_orbital": [ 
			{
				"type": "occ",
				"energy": -0.30051,
				"method": "rhf"
			},
			{
				"type": "occ",
				"energy": -0.29368,
				"method": "rhf"
			},
			{
				"type": "occ",
				"energy": -0.28982,
				"method": "rhf"
			},
			{
				"type": "occ",
				"energy": -0.24445,
				"method": "rhf"
			},
			{
				"type": "occ",
				"energy": -0.22858,
				"method": "rhf"
			},
			{
				"type": "unocc",
				"energy": -0.06539,
				"method": "rhf"
			},
			{
				"type": "unocc",
				"energy": -0.00794,
				"method": "rhf"
			},
			{
				"type": "unocc",
				"energy": 0.00188,
				"method": "rhf"
			},
			{
				"type": "unocc",
				"energy": 0.014,
				"method": "rhf"
			},
			{
				"type": "unocc",
				"energy": 0.05831,
				"method": "rhf"
			}
		],
		"cosmo_sigma_profile": { 
			"-0.025": 0.0,
			"-0.024": 0.0,
			"-0.023": 0.0,
			"-0.022": 0.0,
			"-0.021": 0.0,
			"-0.02": 0.0,
			"-0.019": 0.0,
			"-0.018": 0.0,
			"-0.017": 0.0,
			"-0.016": 0.0976733050657,
			"-0.015": 1.44475303498,
			"-0.014": 2.88432230604,
			"-0.013": 2.49919936079,
			"-0.012": 3.36210741876,
			"-0.011": 2.14427131771,
			"-0.01": 3.48700271136,
			"-0.009": 3.88048001805,
			"-0.008": 2.68143730233,
			"-0.007": 3.64743431716,
			"-0.006": 7.18653452171,
			"-0.005": 9.64594331281,
			"-0.004": 15.6527001437,
			"-0.003": 15.6134370381,
			"-0.002": 16.2529045282,
			"-0.001": 19.4802703016,
			"0.0": 23.1779229475,
			"0.001": 18.8468225896,
			"0.002": 12.0832130517,
			"0.003": 9.12512896335,
			"0.004": 7.84250566155,
			"0.005": 4.91156635882,
			"0.006": 5.88335022403,
			"0.007": 5.81090441747,
			"0.008": 7.06596663758,
			"0.009": 6.41309743016,
			"0.01": 9.51617058073,
			"0.011": 9.16453747449,
			"0.012": 1.10986415877,
			"0.013": 0.0,
			"0.014": 0.0,
			"0.015": 0.0,
			"0.016": 0.0,
			"0.017": 0.0,
			"0.018": 0.0,
			"0.019": 0.0,
			"0.02": 0.0,
			"0.021": 0.0,
			"0.022": 0.0,
			"0.023": 0.0,
			"0.024": 0.0,
			"0.025": 0.0
		}
	}
}
