{
	 "smiles": "COC1=CC2=CC=C(OC)C=C2C=C1", 
	 "Tm": 425.15, 
	 "num_atms": 26, 
	 "gaussian": { 
		 "optdone": 1, 
		 "sigma_profile": "yes", 
		 "theory": "DFT", 
		 "functional": "B3LYP", 
		 "basiset": "6-31G**", 
		 "properties": { 
			 "R2extent": 3936.2779, 
			 "electric_dipole_moment_norm": 0.0, 
			 "electric_quadrupole_moment_norm": 22.152489868, 
			 "total_energy": -614.940457701, 
			 "HOMO_LUMO_gap": 0.15309, 
			 "cosmo_polarized_energy": -8.82, 
			 "cosmo_cavitation_energy": 29.34, 
			 "cosmo_dispersion_energy": -21.94, 
			 "cosmo_repulsion_energy": 1.69, 
			 "cosmo_total_nonelectrostatic_energy": 9.09, 
			 "SMD_solvation_energy": 6.22 
		},
		"coords": [
			{
				"x": -3.8513298174,
				"y": 1.5550634528,
				"z": 0.039385735,
				"element": "C" 
			},
			{
				"x": -2.4989542206,
				"y": 1.8870341874,
				"z": 0.3020734456,
				"element": "O" 
			},
			{
				"x": -1.5415457428,
				"y": 0.922235694,
				"z": 0.1364691844,
				"element": "C" 
			},
			{
				"x": -0.2384759851,
				"y": 1.2957364082,
				"z": 0.4050365505,
				"element": "C" 
			},
			{
				"x": 0.8257391624,
				"y": 0.3731725222,
				"z": 0.2647849894,
				"element": "C" 
			},
			{
				"x": 2.1758866034,
				"y": 0.7214231959,
				"z": 0.5316944612,
				"element": "C" 
			},
			{
				"x": 3.1980241455,
				"y": -0.1912393264,
				"z": 0.3892065508,
				"element": "C" 
			},
			{
				"x": 2.9154395994,
				"y": -1.5180443384,
				"z": -0.0339482218,
				"element": "C" 
			},
			{
				"x": 3.8728460851,
				"y": -2.4828452085,
				"z": -0.1995549198,
				"element": "O" 
			},
			{
				"x": 5.2252203407,
				"y": -2.1508897214,
				"z": 0.0631616191,
				"element": "C" 
			},
			{
				"x": 1.6123689149,
				"y": -1.8915448589,
				"z": -0.3025156669,
				"element": "C" 
			},
			{
				"x": 0.5481547562,
				"y": -0.9689812628,
				"z": -0.1622650078,
				"element": "C" 
			},
			{
				"x": -0.8019936705,
				"y": -1.3172321921,
				"z": -0.4291737,
				"element": "C" 
			},
			{
				"x": -1.8241305524,
				"y": -0.4045704003,
				"z": -0.2866852469,
				"element": "C" 
			},
			{
				"x": -4.0043728982,
				"y": 1.253654784,
				"z": -1.0053692046,
				"element": "H" 
			},
			{
				"x": -4.4265393578,
				"y": 2.4617896267,
				"z": 0.2347072843,
				"element": "H" 
			},
			{
				"x": -4.212784037,
				"y": 0.7544586726,
				"z": 0.6982987228,
				"element": "H" 
			},
			{
				"x": -0.0409972852,
				"y": 2.3136721025,
				"z": 0.7273112443,
				"element": "H" 
			},
			{
				"x": 2.4017463257,
				"y": 1.7339847691,
				"z": 0.8558855602,
				"element": "H" 
			},
			{
				"x": 4.2161759991,
				"y": 0.1123889377,
				"z": 0.6024981215,
				"element": "H" 
			},
			{
				"x": 5.8004242992,
				"y": -3.0576218366,
				"z": -0.1321481703,
				"element": "H" 
			},
			{
				"x": 5.3782444121,
				"y": -1.8494842227,
				"z": 1.1079200933,
				"element": "H" 
			},
			{
				"x": 5.5866973255,
				"y": -1.350288578,
				"z": -0.5957433073,
				"element": "H" 
			},
			{
				"x": 1.4148916975,
				"y": -2.9094810172,
				"z": -0.6247900086,
				"element": "H" 
			},
			{
				"x": -1.0278529271,
				"y": -2.3297938334,
				"z": -0.7533648775,
				"element": "H" 
			},
			{
				"x": -2.8422831726,
				"y": -0.7081975563,
				"z": -0.4999752311,
				"element": "H" 
			}
		],
		 "valence_orbital": [ 
			{
				"type": "occ",
				"energy": -0.31431,
				"method": "rhf"
			},
			{
				"type": "occ",
				"energy": -0.29081,
				"method": "rhf"
			},
			{
				"type": "occ",
				"energy": -0.25253,
				"method": "rhf"
			},
			{
				"type": "occ",
				"energy": -0.2271,
				"method": "rhf"
			},
			{
				"type": "occ",
				"energy": -0.18565,
				"method": "rhf"
			},
			{
				"type": "unocc",
				"energy": -0.03256,
				"method": "rhf"
			},
			{
				"type": "unocc",
				"energy": 0.01264,
				"method": "rhf"
			},
			{
				"type": "unocc",
				"energy": 0.03946,
				"method": "rhf"
			},
			{
				"type": "unocc",
				"energy": 0.09343,
				"method": "rhf"
			},
			{
				"type": "unocc",
				"energy": 0.10198,
				"method": "rhf"
			}
		],
		"cosmo_sigma_profile": { 
			"-0.025": 0.0,
			"-0.024": 0.0,
			"-0.023": 0.0,
			"-0.022": 0.0,
			"-0.021": 0.0,
			"-0.02": 0.0,
			"-0.019": 0.0,
			"-0.018": 0.0,
			"-0.017": 0.0,
			"-0.016": 0.0,
			"-0.015": 0.0,
			"-0.014": 0.0,
			"-0.013": 0.0,
			"-0.012": 0.0,
			"-0.011": 0.0,
			"-0.01": 0.0,
			"-0.009": 0.0,
			"-0.008": 0.0,
			"-0.007": 0.761885983606,
			"-0.006": 15.071860182,
			"-0.005": 28.4678303169,
			"-0.004": 25.3425905283,
			"-0.003": 25.5025032502,
			"-0.002": 14.9449524341,
			"-0.001": 10.4578556978,
			"0.0": 10.5008405249,
			"0.001": 9.47739525127,
			"0.002": 10.1806112609,
			"0.003": 13.1830213534,
			"0.004": 22.8961269335,
			"0.005": 27.9203292009,
			"0.006": 4.64105193018,
			"0.007": 3.29082396804,
			"0.008": 2.9882487384,
			"0.009": 2.81877341349,
			"0.01": 3.31209686322,
			"0.011": 1.81025673188,
			"0.012": 0.0,
			"0.013": 0.0,
			"0.014": 0.0,
			"0.015": 0.0,
			"0.016": 0.0,
			"0.017": 0.0,
			"0.018": 0.0,
			"0.019": 0.0,
			"0.02": 0.0,
			"0.021": 0.0,
			"0.022": 0.0,
			"0.023": 0.0,
			"0.024": 0.0,
			"0.025": 0.0
		}
	}
}
