{
	 "smiles": "[O-][N+](=O)C1=CC2=C(C=C1)N=C(Cl)C=C2", 
	 "Tm": 498.15, 
	 "num_atms": 19, 
	 "gaussian": { 
		 "optdone": 1, 
		 "sigma_profile": "yes", 
		 "theory": "DFT", 
		 "functional": "B3LYP", 
		 "basiset": "6-31G**", 
		 "properties": { 
			 "R2extent": 4386.5349, 
			 "electric_dipole_moment_norm": 2.84320206809, 
			 "electric_quadrupole_moment_norm": 21.478620259, 
			 "total_energy": -1066.02140504, 
			 "HOMO_LUMO_gap": 0.16332, 
			 "cosmo_polarized_energy": -10.67, 
			 "cosmo_cavitation_energy": 26.52, 
			 "cosmo_dispersion_energy": -19.9, 
			 "cosmo_repulsion_energy": 1.54, 
			 "cosmo_total_nonelectrostatic_energy": 8.15, 
			 "SMD_solvation_energy": 4.9 
		},
		"coords": [
			{
				"x": 0.0526287377,
				"y": 3.0229921977,
				"z": 0.6393432804,
				"element": "O" 
			},
			{
				"x": -0.937992966,
				"y": 2.3066451727,
				"z": 0.7790993819,
				"element": "N" 
			},
			{
				"x": -2.0096950811,
				"y": 2.6739858125,
				"z": 1.2583989026,
				"element": "O" 
			},
			{
				"x": -0.8366020307,
				"y": 0.9045361814,
				"z": 0.3406059013,
				"element": "C" 
			},
			{
				"x": 0.3506187628,
				"y": 0.4651078043,
				"z": -0.1997620049,
				"element": "C" 
			},
			{
				"x": 0.4535763126,
				"y": -0.8797491789,
				"z": -0.6222460249,
				"element": "C" 
			},
			{
				"x": -0.6737805727,
				"y": -1.7497945895,
				"z": -0.4792265565,
				"element": "C" 
			},
			{
				"x": -1.8761253983,
				"y": -1.2468253294,
				"z": 0.0846331088,
				"element": "C" 
			},
			{
				"x": -1.9620495718,
				"y": 0.0638080149,
				"z": 0.4913994607,
				"element": "C" 
			},
			{
				"x": -0.634131538,
				"y": -3.0576704599,
				"z": -0.8689488713,
				"element": "N" 
			},
			{
				"x": 0.475081023,
				"y": -3.502497246,
				"z": -1.3835025222,
				"element": "C" 
			},
			{
				"x": 0.5107307949,
				"y": -5.1897420843,
				"z": -1.8808051118,
				"element": "Cl" 
			},
			{
				"x": 1.6600176507,
				"y": -2.7409180265,
				"z": -1.5777847278,
				"element": "C" 
			},
			{
				"x": 1.6365690142,
				"y": -1.4253122174,
				"z": -1.1915274863,
				"element": "C" 
			},
			{
				"x": 1.1853890517,
				"y": 1.1496908831,
				"z": -0.2940922081,
				"element": "H" 
			},
			{
				"x": -2.7144316665,
				"y": -1.9277505457,
				"z": 0.1812455728,
				"element": "H" 
			},
			{
				"x": -2.8661186114,
				"y": 0.4726686972,
				"z": 0.9242681839,
				"element": "H" 
			},
			{
				"x": 2.5377451387,
				"y": -3.1998884739,
				"z": -2.0157100665,
				"element": "H" 
			},
			{
				"x": 2.5125709502,
				"y": -0.7948866123,
				"z": -1.3157882124,
				"element": "H" 
			}
		],
		 "valence_orbital": [ 
			{
				"type": "occ",
				"energy": -0.31558,
				"method": "rhf"
			},
			{
				"type": "occ",
				"energy": -0.30092,
				"method": "rhf"
			},
			{
				"type": "occ",
				"energy": -0.29304,
				"method": "rhf"
			},
			{
				"type": "occ",
				"energy": -0.27826,
				"method": "rhf"
			},
			{
				"type": "occ",
				"energy": -0.26784,
				"method": "rhf"
			},
			{
				"type": "unocc",
				"energy": -0.10452,
				"method": "rhf"
			},
			{
				"type": "unocc",
				"energy": -0.07604,
				"method": "rhf"
			},
			{
				"type": "unocc",
				"energy": -0.03253,
				"method": "rhf"
			},
			{
				"type": "unocc",
				"energy": -0.00845,
				"method": "rhf"
			},
			{
				"type": "unocc",
				"energy": 0.01845,
				"method": "rhf"
			}
		],
		"cosmo_sigma_profile": { 
			"-0.025": 0.0,
			"-0.024": 0.0,
			"-0.023": 0.0,
			"-0.022": 0.0,
			"-0.021": 0.0,
			"-0.02": 0.0,
			"-0.019": 0.0,
			"-0.018": 0.0,
			"-0.017": 0.0,
			"-0.016": 0.0,
			"-0.015": 0.0,
			"-0.014": 0.0,
			"-0.013": 0.0,
			"-0.012": 0.0,
			"-0.011": 0.000220256262786,
			"-0.01": 1.36147765885,
			"-0.009": 4.403446877,
			"-0.008": 7.10414830891,
			"-0.007": 9.33694837636,
			"-0.006": 9.43131202172,
			"-0.005": 7.79902095763,
			"-0.004": 8.40520119988,
			"-0.003": 13.4456285682,
			"-0.002": 22.0196608955,
			"-0.001": 27.5110875983,
			"0.0": 18.8239560371,
			"0.001": 15.0230268382,
			"0.002": 9.63405653871,
			"0.003": 10.5393775102,
			"0.004": 12.4109843003,
			"0.005": 5.4924217974,
			"0.006": 6.12399144732,
			"0.007": 10.3061025074,
			"0.008": 7.5126452596,
			"0.009": 5.19070793831,
			"0.01": 2.90973087842,
			"0.011": 0.723143673204,
			"0.012": 0.9325795124,
			"0.013": 0.526588530845,
			"0.014": 0.045571308972,
			"0.015": 0.0,
			"0.016": 0.0,
			"0.017": 0.0,
			"0.018": 0.0,
			"0.019": 0.0,
			"0.02": 0.0,
			"0.021": 0.0,
			"0.022": 0.0,
			"0.023": 0.0,
			"0.024": 0.0,
			"0.025": 0.0
		}
	}
}
