{
	 "smiles": "CC1=NC(=O)NC(=C1)C(O)=O", 
	 "Tm": 483.15, 
	 "num_atms": 17, 
	 "gaussian": { 
		 "optdone": 1, 
		 "sigma_profile": "yes", 
		 "theory": "DFT", 
		 "functional": "B3LYP", 
		 "basiset": "6-31G**", 
		 "properties": { 
			 "R2extent": 2159.0325, 
			 "electric_dipole_moment_norm": 2.4378500159, 
			 "electric_quadrupole_moment_norm": 20.2513104497, 
			 "total_energy": -567.436028979, 
			 "HOMO_LUMO_gap": 0.16086, 
			 "cosmo_polarized_energy": -24.96, 
			 "cosmo_cavitation_energy": 22.48, 
			 "cosmo_dispersion_energy": -16.57, 
			 "cosmo_repulsion_energy": 1.35, 
			 "cosmo_total_nonelectrostatic_energy": 7.26, 
			 "SMD_solvation_energy": 4.8 
		},
		"coords": [
			{
				"x": 0.8186946381,
				"y": 1.6128160624,
				"z": 1.4177085304,
				"element": "C" 
			},
			{
				"x": 0.4663769775,
				"y": 0.6273763415,
				"z": 0.3360970919,
				"element": "C" 
			},
			{
				"x": 0.1088603878,
				"y": 1.1059237923,
				"z": -0.8297202355,
				"element": "N" 
			},
			{
				"x": -0.2474911385,
				"y": 0.2498545426,
				"z": -1.8654836435,
				"element": "C" 
			},
			{
				"x": -0.6498088079,
				"y": 0.6030941947,
				"z": -2.9564295951,
				"element": "O" 
			},
			{
				"x": -0.1206887528,
				"y": -1.1447582907,
				"z": -1.5957611943,
				"element": "N" 
			},
			{
				"x": 0.2447012585,
				"y": -1.6464805181,
				"z": -0.3780545294,
				"element": "C" 
			},
			{
				"x": 0.5437254664,
				"y": -0.7801788486,
				"z": 0.6281783698,
				"element": "C" 
			},
			{
				"x": 0.3487243088,
				"y": -3.135847806,
				"z": -0.1910988132,
				"element": "C" 
			},
			{
				"x": 0.6329499547,
				"y": -3.8534355777,
				"z": -1.3076414637,
				"element": "O" 
			},
			{
				"x": 0.1855113781,
				"y": -3.6699861607,
				"z": 0.8749299228,
				"element": "O" 
			},
			{
				"x": 0.7131998237,
				"y": 2.6304622532,
				"z": 1.0420459695,
				"element": "H" 
			},
			{
				"x": 1.8475901272,
				"y": 1.455109293,
				"z": 1.7611599822,
				"element": "H" 
			},
			{
				"x": 0.1657754894,
				"y": 1.4752987337,
				"z": 2.2873442313,
				"element": "H" 
			},
			{
				"x": -0.5025266529,
				"y": -1.7420605927,
				"z": -2.3195869476,
				"element": "H" 
			},
			{
				"x": 0.8450525062,
				"y": -1.1555764906,
				"z": 1.5970153056,
				"element": "H" 
			},
			{
				"x": 0.9734530356,
				"y": -3.2822109283,
				"z": -2.0127029812,
				"element": "H" 
			}
		],
		 "valence_orbital": [ 
			{
				"type": "occ",
				"energy": -0.33744,
				"method": "rhf"
			},
			{
				"type": "occ",
				"energy": -0.31413,
				"method": "rhf"
			},
			{
				"type": "occ",
				"energy": -0.28741,
				"method": "rhf"
			},
			{
				"type": "occ",
				"energy": -0.27034,
				"method": "rhf"
			},
			{
				"type": "occ",
				"energy": -0.25634,
				"method": "rhf"
			},
			{
				"type": "unocc",
				"energy": -0.09548,
				"method": "rhf"
			},
			{
				"type": "unocc",
				"energy": -0.02796,
				"method": "rhf"
			},
			{
				"type": "unocc",
				"energy": 0.01468,
				"method": "rhf"
			},
			{
				"type": "unocc",
				"energy": 0.03612,
				"method": "rhf"
			},
			{
				"type": "unocc",
				"energy": 0.08535,
				"method": "rhf"
			}
		],
		"cosmo_sigma_profile": { 
			"-0.025": 0.0,
			"-0.024": 0.0,
			"-0.023": 0.0,
			"-0.022": 0.00995908770593,
			"-0.021": 0.905092021124,
			"-0.02": 1.54920574197,
			"-0.019": 1.62690132588,
			"-0.018": 1.67059171864,
			"-0.017": 2.00386902468,
			"-0.016": 1.34435829954,
			"-0.015": 2.43081493487,
			"-0.014": 1.25446071915,
			"-0.013": 1.12168014378,
			"-0.012": 1.11374834229,
			"-0.011": 1.53588788808,
			"-0.01": 1.73156841446,
			"-0.009": 2.53075953937,
			"-0.008": 2.76122180134,
			"-0.007": 4.49254944763,
			"-0.006": 9.69007244834,
			"-0.005": 12.6941935569,
			"-0.004": 12.6060479552,
			"-0.003": 11.5256580921,
			"-0.002": 13.3351844899,
			"-0.001": 11.5719676823,
			"0.0": 7.08004053685,
			"0.001": 4.51919734431,
			"0.002": 3.41256505451,
			"0.003": 4.35774105329,
			"0.004": 4.56062660398,
			"0.005": 3.65327539094,
			"0.006": 4.56750859004,
			"0.007": 5.0045393187,
			"0.008": 5.41648302274,
			"0.009": 6.95145358244,
			"0.01": 7.79261826842,
			"0.011": 5.13658218342,
			"0.012": 4.22621591448,
			"0.013": 6.623912022,
			"0.014": 3.65970997728,
			"0.015": 2.63046682966,
			"0.016": 0.499442139717,
			"0.017": 0.0,
			"0.018": 0.0,
			"0.019": 0.0,
			"0.02": 0.0,
			"0.021": 0.0,
			"0.022": 0.0,
			"0.023": 0.0,
			"0.024": 0.0,
			"0.025": 0.0
		}
	}
}
