{
	 "smiles": "CCCCCCC1=CC=C(O)C=C1O", 
	 "Tm": 339.65, 
	 "num_atms": 32, 
	 "gaussian": { 
		 "optdone": 1, 
		 "sigma_profile": "yes", 
		 "theory": "DFT", 
		 "functional": "B3LYP", 
		 "basiset": "6-31G**", 
		 "properties": { 
			 "R2extent": 4714.6027, 
			 "electric_dipole_moment_norm": 2.38567073587, 
			 "electric_quadrupole_moment_norm": 16.0254211486, 
			 "total_energy": -618.586915554, 
			 "HOMO_LUMO_gap": 0.21098, 
			 "cosmo_polarized_energy": -12.65, 
			 "cosmo_cavitation_energy": 34.04, 
			 "cosmo_dispersion_energy": -24.0, 
			 "cosmo_repulsion_energy": 1.95, 
			 "cosmo_total_nonelectrostatic_energy": 11.98, 
			 "SMD_solvation_energy": 5.77 
		},
		"coords": [
			{
				"x": -1.1749829261,
				"y": -3.362088737,
				"z": 2.25996052,
				"element": "C" 
			},
			{
				"x": -0.5202465841,
				"y": -2.2650902978,
				"z": 1.4138317574,
				"element": "C" 
			},
			{
				"x": -0.4477620141,
				"y": -0.9134413955,
				"z": 2.1388474148,
				"element": "C" 
			},
			{
				"x": 0.1334150102,
				"y": 0.2398181292,
				"z": 1.3040638228,
				"element": "C" 
			},
			{
				"x": 1.6188198045,
				"y": 0.0814376662,
				"z": 0.9522663472,
				"element": "C" 
			},
			{
				"x": 2.2273027891,
				"y": 1.287520458,
				"z": 0.2015835186,
				"element": "C" 
			},
			{
				"x": 1.6448022338,
				"y": 1.528408259,
				"z": -1.1758445872,
				"element": "C" 
			},
			{
				"x": 2.0648683687,
				"y": 0.7815333569,
				"z": -2.2833620434,
				"element": "C" 
			},
			{
				"x": 1.5463383591,
				"y": 0.9665429666,
				"z": -3.5625494916,
				"element": "C" 
			},
			{
				"x": 0.5661095914,
				"y": 1.9422272759,
				"z": -3.7592262269,
				"element": "C" 
			},
			{
				"x": 0.0757406735,
				"y": 2.1057347275,
				"z": -5.025376094,
				"element": "O" 
			},
			{
				"x": 0.1235039209,
				"y": 2.7125828607,
				"z": -2.6804448489,
				"element": "C" 
			},
			{
				"x": 0.6591112807,
				"y": 2.503310048,
				"z": -1.4043403685,
				"element": "C" 
			},
			{
				"x": 0.2416022909,
				"y": 3.2478411494,
				"z": -0.3314156465,
				"element": "O" 
			},
			{
				"x": -2.2003916589,
				"y": -3.0904648446,
				"z": 2.5365951065,
				"element": "H" 
			},
			{
				"x": -0.6183481831,
				"y": -3.5310151793,
				"z": 3.1891293479,
				"element": "H" 
			},
			{
				"x": -1.2173602095,
				"y": -4.314471165,
				"z": 1.7210031833,
				"element": "H" 
			},
			{
				"x": 0.4870005605,
				"y": -2.5883381769,
				"z": 1.1227408972,
				"element": "H" 
			},
			{
				"x": -1.08110982,
				"y": -2.1402646245,
				"z": 0.477186702,
				"element": "H" 
			},
			{
				"x": -1.4608471393,
				"y": -0.637177978,
				"z": 2.4629696652,
				"element": "H" 
			},
			{
				"x": 0.141049955,
				"y": -1.0296296954,
				"z": 3.0607605088,
				"element": "H" 
			},
			{
				"x": 0.0014589694,
				"y": 1.1802940399,
				"z": 1.854151521,
				"element": "H" 
			},
			{
				"x": -0.4500315252,
				"y": 0.3479208188,
				"z": 0.3802769824,
				"element": "H" 
			},
			{
				"x": 2.1920693287,
				"y": -0.072186705,
				"z": 1.8775493876,
				"element": "H" 
			},
			{
				"x": 1.7669305647,
				"y": -0.8210584512,
				"z": 0.3456153292,
				"element": "H" 
			},
			{
				"x": 2.1076417289,
				"y": 2.1883538991,
				"z": 0.8117247598,
				"element": "H" 
			},
			{
				"x": 3.3064796372,
				"y": 1.1185798156,
				"z": 0.0981626845,
				"element": "H" 
			},
			{
				"x": 2.8345076615,
				"y": 0.0275998694,
				"z": -2.1342852101,
				"element": "H" 
			},
			{
				"x": 1.8879330993,
				"y": 0.3790695258,
				"z": -4.4073914571,
				"element": "H" 
			},
			{
				"x": -0.5855424826,
				"y": 2.8093527353,
				"z": -5.0223904289,
				"element": "H" 
			},
			{
				"x": -0.6383559962,
				"y": 3.4773874744,
				"z": -2.8302983723,
				"element": "H" 
			},
			{
				"x": -0.4249072889,
				"y": 3.8814121746,
				"z": -0.6252946807,
				"element": "H" 
			}
		],
		 "valence_orbital": [ 
			{
				"type": "occ",
				"energy": -0.30829,
				"method": "rhf"
			},
			{
				"type": "occ",
				"energy": -0.2997,
				"method": "rhf"
			},
			{
				"type": "occ",
				"energy": -0.29696,
				"method": "rhf"
			},
			{
				"type": "occ",
				"energy": -0.23294,
				"method": "rhf"
			},
			{
				"type": "occ",
				"energy": -0.2038,
				"method": "rhf"
			},
			{
				"type": "unocc",
				"energy": 0.00718,
				"method": "rhf"
			},
			{
				"type": "unocc",
				"energy": 0.02423,
				"method": "rhf"
			},
			{
				"type": "unocc",
				"energy": 0.06365,
				"method": "rhf"
			},
			{
				"type": "unocc",
				"energy": 0.07077,
				"method": "rhf"
			},
			{
				"type": "unocc",
				"energy": 0.10004,
				"method": "rhf"
			}
		],
		"cosmo_sigma_profile": { 
			"-0.025": 0.0,
			"-0.024": 0.0,
			"-0.023": 0.0,
			"-0.022": 0.0,
			"-0.021": 0.0,
			"-0.02": 0.0,
			"-0.019": 0.0,
			"-0.018": 0.387037943643,
			"-0.017": 2.10866201903,
			"-0.016": 2.27866545028,
			"-0.015": 2.16649845386,
			"-0.014": 1.85981853574,
			"-0.013": 1.8414663855,
			"-0.012": 1.48674343419,
			"-0.011": 2.16263059828,
			"-0.01": 2.2506581158,
			"-0.009": 2.91907704108,
			"-0.008": 2.06725201725,
			"-0.007": 1.89729615864,
			"-0.006": 1.48846061356,
			"-0.005": 4.97303255005,
			"-0.004": 5.72341314585,
			"-0.003": 9.93112870426,
			"-0.002": 24.0524617662,
			"-0.001": 34.9857061429,
			"0.0": 39.0459780281,
			"0.001": 36.0246955275,
			"0.002": 19.9812306934,
			"0.003": 9.48718278039,
			"0.004": 12.1466033902,
			"0.005": 13.6923783578,
			"0.006": 11.3864531478,
			"0.007": 5.38052227185,
			"0.008": 3.71723694449,
			"0.009": 3.05766418348,
			"0.01": 2.63573684904,
			"0.011": 2.07591989197,
			"0.012": 1.31958995068,
			"0.013": 0.0,
			"0.014": 0.0,
			"0.015": 0.0,
			"0.016": 0.0,
			"0.017": 0.0,
			"0.018": 0.0,
			"0.019": 0.0,
			"0.02": 0.0,
			"0.021": 0.0,
			"0.022": 0.0,
			"0.023": 0.0,
			"0.024": 0.0,
			"0.025": 0.0
		}
	}
}
