{
	 "smiles": "NCC1=CC2=C(N1)C=CC=C2", 
	 "Tm": 345.15, 
	 "num_atms": 21, 
	 "gaussian": { 
		 "optdone": 1, 
		 "sigma_profile": "yes", 
		 "theory": "DFT", 
		 "functional": "B3LYP", 
		 "basiset": "6-31G**", 
		 "properties": { 
			 "R2extent": 2256.9996, 
			 "electric_dipole_moment_norm": 1.41501658294, 
			 "electric_quadrupole_moment_norm": 10.2907159503, 
			 "total_energy": -458.488378336, 
			 "HOMO_LUMO_gap": 0.19147, 
			 "cosmo_polarized_energy": -12.13, 
			 "cosmo_cavitation_energy": 24.49, 
			 "cosmo_dispersion_energy": -18.16, 
			 "cosmo_repulsion_energy": 1.47, 
			 "cosmo_total_nonelectrostatic_energy": 7.8, 
			 "SMD_solvation_energy": 2.34 
		},
		"coords": [
			{
				"x": -1.9834267424,
				"y": 0.6672507077,
				"z": 2.9014631978,
				"element": "N" 
			},
			{
				"x": -0.7402593325,
				"y": -0.1056813565,
				"z": 3.0770031897,
				"element": "C" 
			},
			{
				"x": 0.1205821801,
				"y": -0.2673734786,
				"z": 1.8556846243,
				"element": "C" 
			},
			{
				"x": 0.2272218706,
				"y": -1.3200375036,
				"z": 0.9787012109,
				"element": "C" 
			},
			{
				"x": 1.1363852328,
				"y": -0.9337698934,
				"z": -0.0642622815,
				"element": "C" 
			},
			{
				"x": 1.5624746842,
				"y": 0.3914945947,
				"z": 0.2339603112,
				"element": "C" 
			},
			{
				"x": 0.9216679835,
				"y": 0.772183397,
				"z": 1.3971012584,
				"element": "N" 
			},
			{
				"x": 2.4696303027,
				"y": 1.0856138826,
				"z": -0.5728774698,
				"element": "C" 
			},
			{
				"x": 2.9522993715,
				"y": 0.4342920431,
				"z": -1.7031104551,
				"element": "C" 
			},
			{
				"x": 2.541528717,
				"y": -0.8764469692,
				"z": -2.021554447,
				"element": "C" 
			},
			{
				"x": 1.6421304,
				"y": -1.563157938,
				"z": -1.2153236687,
				"element": "C" 
			},
			{
				"x": -2.5330050691,
				"y": 0.237570461,
				"z": 2.1596108183,
				"element": "H" 
			},
			{
				"x": -1.7596773303,
				"y": 1.6018260148,
				"z": 2.5650058848,
				"element": "H" 
			},
			{
				"x": -0.1655563541,
				"y": 0.3706745276,
				"z": 3.8823308108,
				"element": "H" 
			},
			{
				"x": -1.0120886663,
				"y": -1.1011342652,
				"z": 3.4411118041,
				"element": "H" 
			},
			{
				"x": -0.2895679811,
				"y": -2.2656535877,
				"z": 1.0716199904,
				"element": "H" 
			},
			{
				"x": 1.0830925884,
				"y": 1.6354351066,
				"z": 1.8910692486,
				"element": "H" 
			},
			{
				"x": 2.7863372874,
				"y": 2.0959659597,
				"z": -0.3284116977,
				"element": "H" 
			},
			{
				"x": 3.6579562757,
				"y": 0.9449861281,
				"z": -2.3518636117,
				"element": "H" 
			},
			{
				"x": 2.9380230277,
				"y": -1.3543352887,
				"z": -2.9127375196,
				"element": "H" 
			},
			{
				"x": 1.3333515539,
				"y": -2.5737025419,
				"z": -1.4688211981,
				"element": "H" 
			}
		],
		 "valence_orbital": [ 
			{
				"type": "occ",
				"energy": -0.32496,
				"method": "rhf"
			},
			{
				"type": "occ",
				"energy": -0.27257,
				"method": "rhf"
			},
			{
				"type": "occ",
				"energy": -0.24877,
				"method": "rhf"
			},
			{
				"type": "occ",
				"energy": -0.21429,
				"method": "rhf"
			},
			{
				"type": "occ",
				"energy": -0.19852,
				"method": "rhf"
			},
			{
				"type": "unocc",
				"energy": -0.00705,
				"method": "rhf"
			},
			{
				"type": "unocc",
				"energy": 0.03126,
				"method": "rhf"
			},
			{
				"type": "unocc",
				"energy": 0.06013,
				"method": "rhf"
			},
			{
				"type": "unocc",
				"energy": 0.07709,
				"method": "rhf"
			},
			{
				"type": "unocc",
				"energy": 0.1023,
				"method": "rhf"
			}
		],
		"cosmo_sigma_profile": { 
			"-0.025": 0.0,
			"-0.024": 0.0,
			"-0.023": 0.0,
			"-0.022": 0.0,
			"-0.021": 0.0,
			"-0.02": 0.0,
			"-0.019": 0.0,
			"-0.018": 0.0,
			"-0.017": 0.0,
			"-0.016": 0.0029883998056,
			"-0.015": 0.875793449446,
			"-0.014": 1.61582006118,
			"-0.013": 0.943249772671,
			"-0.012": 1.97261584508,
			"-0.011": 1.76244635668,
			"-0.01": 2.66014912958,
			"-0.009": 3.9691781144,
			"-0.008": 4.07686173734,
			"-0.007": 3.8825646491,
			"-0.006": 6.69923245638,
			"-0.005": 11.1031200224,
			"-0.004": 16.6105459816,
			"-0.003": 15.2812532111,
			"-0.002": 14.9617628151,
			"-0.001": 11.657863805,
			"0.0": 9.44925257804,
			"0.001": 9.73102663206,
			"0.002": 7.68478208582,
			"0.003": 8.52676231342,
			"0.004": 10.3525258782,
			"0.005": 12.2650142813,
			"0.006": 13.4883117142,
			"0.007": 13.0341063364,
			"0.008": 3.83338132925,
			"0.009": 0.750577344031,
			"0.01": 0.699325922621,
			"0.011": 0.846581065642,
			"0.012": 0.570027034205,
			"0.013": 0.388107741907,
			"0.014": 0.260321086802,
			"0.015": 1.4072118798,
			"0.016": 0.601508434244,
			"0.017": 0.587633301189,
			"0.018": 0.415544330945,
			"0.019": 0.821880051621,
			"0.02": 0.151078530442,
			"0.021": 0.0,
			"0.022": 0.0,
			"0.023": 0.0,
			"0.024": 0.0,
			"0.025": 0.0
		}
	}
}
