{
	 "smiles": "NS(=O)(=O)C1=CC(=CC=C1)N1C(=O)C=CC1=O", 
	 "Tm": 494.15, 
	 "num_atms": 25, 
	 "gaussian": { 
		 "optdone": 1, 
		 "sigma_profile": "yes", 
		 "theory": "DFT", 
		 "functional": "B3LYP", 
		 "basiset": "6-31G**", 
		 "properties": { 
			 "R2extent": 5143.6036, 
			 "electric_dipole_moment_norm": 6.9183079745, 
			 "electric_quadrupole_moment_norm": 22.5791170596, 
			 "total_energy": -1194.39680123, 
			 "HOMO_LUMO_gap": 0.14508, 
			 "cosmo_polarized_energy": -23.88, 
			 "cosmo_cavitation_energy": 32.17, 
			 "cosmo_dispersion_energy": -23.4, 
			 "cosmo_repulsion_energy": 1.75, 
			 "cosmo_total_nonelectrostatic_energy": 10.53, 
			 "SMD_solvation_energy": 6.74 
		},
		"coords": [
			{
				"x": -0.397721777,
				"y": -4.2373485563,
				"z": -0.9410437968,
				"element": "N" 
			},
			{
				"x": -0.6412558012,
				"y": -2.8440030907,
				"z": -1.847759798,
				"element": "S" 
			},
			{
				"x": -1.9379408247,
				"y": -3.0141075315,
				"z": -2.5003427829,
				"element": "O" 
			},
			{
				"x": 0.6022727026,
				"y": -2.630607794,
				"z": -2.5848704782,
				"element": "O" 
			},
			{
				"x": -0.8096625451,
				"y": -1.4902694604,
				"z": -0.6701547854,
				"element": "C" 
			},
			{
				"x": 0.34671737,
				"y": -0.9133095871,
				"z": -0.1468680705,
				"element": "C" 
			},
			{
				"x": 0.2207265604,
				"y": 0.104854571,
				"z": 0.8031685537,
				"element": "C" 
			},
			{
				"x": -1.0492980641,
				"y": 0.5500050817,
				"z": 1.1950786377,
				"element": "C" 
			},
			{
				"x": -2.1887282792,
				"y": -0.0210119865,
				"z": 0.6302097985,
				"element": "C" 
			},
			{
				"x": -2.0823068539,
				"y": -1.0529526473,
				"z": -0.3026748841,
				"element": "C" 
			},
			{
				"x": 1.390272988,
				"y": 0.6873904438,
				"z": 1.3669470546,
				"element": "N" 
			},
			{
				"x": 1.5543624368,
				"y": 2.0562939956,
				"z": 1.6825379568,
				"element": "C" 
			},
			{
				"x": 0.7288839525,
				"y": 2.9302421219,
				"z": 1.5341931471,
				"element": "O" 
			},
			{
				"x": 2.93982967,
				"y": 2.1924274197,
				"z": 2.2372730797,
				"element": "C" 
			},
			{
				"x": 3.5233971358,
				"y": 0.9915337214,
				"z": 2.2511840803,
				"element": "C" 
			},
			{
				"x": 2.5670900169,
				"y": -0.021668026,
				"z": 1.7006769969,
				"element": "C" 
			},
			{
				"x": 2.7478031036,
				"y": -1.212511868,
				"z": 1.5660845707,
				"element": "O" 
			},
			{
				"x": 0.4745810154,
				"y": -4.2225053234,
				"z": -0.4213793129,
				"element": "H" 
			},
			{
				"x": -1.1997540305,
				"y": -4.4806171466,
				"z": -0.3683412496,
				"element": "H" 
			},
			{
				"x": 1.3210759244,
				"y": -1.2466426814,
				"z": -0.4789872589,
				"element": "H" 
			},
			{
				"x": -1.1393125822,
				"y": 1.3500062157,
				"z": 1.918426487,
				"element": "H" 
			},
			{
				"x": -3.1683740535,
				"y": 0.34224423,
				"z": 0.9245653364,
				"element": "H" 
			},
			{
				"x": -2.9587447177,
				"y": -1.501862517,
				"z": -0.7563963655,
				"element": "H" 
			},
			{
				"x": 3.3276150617,
				"y": 3.1511153056,
				"z": 2.5551153944,
				"element": "H" 
			},
			{
				"x": 4.5126715909,
				"y": 0.70940511,
				"z": 2.5861576887,
				"element": "H" 
			}
		],
		 "valence_orbital": [ 
			{
				"type": "occ",
				"energy": -0.30436,
				"method": "rhf"
			},
			{
				"type": "occ",
				"energy": -0.30301,
				"method": "rhf"
			},
			{
				"type": "occ",
				"energy": -0.28864,
				"method": "rhf"
			},
			{
				"type": "occ",
				"energy": -0.27327,
				"method": "rhf"
			},
			{
				"type": "occ",
				"energy": -0.25926,
				"method": "rhf"
			},
			{
				"type": "unocc",
				"energy": -0.11418,
				"method": "rhf"
			},
			{
				"type": "unocc",
				"energy": -0.04493,
				"method": "rhf"
			},
			{
				"type": "unocc",
				"energy": -0.0344,
				"method": "rhf"
			},
			{
				"type": "unocc",
				"energy": 0.04009,
				"method": "rhf"
			},
			{
				"type": "unocc",
				"energy": 0.04882,
				"method": "rhf"
			}
		],
		"cosmo_sigma_profile": { 
			"-0.025": 0.0,
			"-0.024": 0.0,
			"-0.023": 0.0,
			"-0.022": 0.0,
			"-0.021": 0.0,
			"-0.02": 0.0,
			"-0.019": 0.0,
			"-0.018": 0.0,
			"-0.017": 0.0,
			"-0.016": 0.237715657224,
			"-0.015": 2.26181366816,
			"-0.014": 2.9575226105,
			"-0.013": 2.20938306457,
			"-0.012": 3.23092995147,
			"-0.011": 2.94188830349,
			"-0.01": 5.44935229502,
			"-0.009": 5.16344279287,
			"-0.008": 6.30014700443,
			"-0.007": 11.3868602477,
			"-0.006": 17.3069743227,
			"-0.005": 14.7065261947,
			"-0.004": 15.078220227,
			"-0.003": 15.205346156,
			"-0.002": 13.6278962379,
			"-0.001": 12.6104970889,
			"0.0": 12.4452819067,
			"0.001": 14.4609834428,
			"0.002": 14.3143294508,
			"0.003": 8.81626247641,
			"0.004": 6.5578260728,
			"0.005": 5.84144248137,
			"0.006": 6.39876988199,
			"0.007": 7.67591271463,
			"0.008": 8.4335067747,
			"0.009": 9.30482056057,
			"0.01": 16.3937796792,
			"0.011": 13.9200070332,
			"0.012": 3.72545459094,
			"0.013": 0.103102605225,
			"0.014": 0.0,
			"0.015": 0.0,
			"0.016": 0.0,
			"0.017": 0.0,
			"0.018": 0.0,
			"0.019": 0.0,
			"0.02": 0.0,
			"0.021": 0.0,
			"0.022": 0.0,
			"0.023": 0.0,
			"0.024": 0.0,
			"0.025": 0.0
		}
	}
}
