{
	 "smiles": "NC1CCN(CC1)C(=O)C1CCCCC1", 
	 "Tm": 352.15, 
	 "num_atms": 37, 
	 "gaussian": { 
		 "optdone": 1, 
		 "sigma_profile": "yes", 
		 "theory": "DFT", 
		 "functional": "B3LYP", 
		 "basiset": "6-31G**", 
		 "properties": { 
			 "R2extent": 4476.6127, 
			 "electric_dipole_moment_norm": 4.18011534051, 
			 "electric_quadrupole_moment_norm": 7.12478042188, 
			 "total_energy": -655.285596978, 
			 "HOMO_LUMO_gap": 0.25905, 
			 "cosmo_polarized_energy": -14.13, 
			 "cosmo_cavitation_energy": 34.94, 
			 "cosmo_dispersion_energy": -25.26, 
			 "cosmo_repulsion_energy": 2.0, 
			 "cosmo_total_nonelectrostatic_energy": 11.67, 
			 "SMD_solvation_energy": 3.25 
		},
		"coords": [
			{
				"x": 0.6193708218,
				"y": 2.6012207745,
				"z": 4.0898826894,
				"element": "N" 
			},
			{
				"x": 1.3962425222,
				"y": 1.9592094351,
				"z": 3.0247045231,
				"element": "C" 
			},
			{
				"x": 1.7262788882,
				"y": 0.5173131846,
				"z": 3.4613508829,
				"element": "C" 
			},
			{
				"x": 2.0894540835,
				"y": -0.3878770344,
				"z": 2.2860693652,
				"element": "C" 
			},
			{
				"x": 0.965392236,
				"y": -0.4870683151,
				"z": 1.3350311335,
				"element": "N" 
			},
			{
				"x": 0.0044748316,
				"y": 0.6199334764,
				"z": 1.3381901158,
				"element": "C" 
			},
			{
				"x": 0.7307137836,
				"y": 1.9409476464,
				"z": 1.6172868238,
				"element": "C" 
			},
			{
				"x": 0.9849198858,
				"y": -1.5644602063,
				"z": 0.4801456081,
				"element": "C" 
			},
			{
				"x": 1.9300454169,
				"y": -2.3540424945,
				"z": 0.5134050826,
				"element": "O" 
			},
			{
				"x": -0.1545174133,
				"y": -1.8282868458,
				"z": -0.5209777136,
				"element": "C" 
			},
			{
				"x": -0.1059661574,
				"y": -0.9275895734,
				"z": -1.7780963471,
				"element": "C" 
			},
			{
				"x": -1.114217307,
				"y": -1.4122920902,
				"z": -2.8330566689,
				"element": "C" 
			},
			{
				"x": -2.5351782833,
				"y": -1.5127040139,
				"z": -2.2570135369,
				"element": "C" 
			},
			{
				"x": -2.5730949161,
				"y": -2.4036399815,
				"z": -1.0055332836,
				"element": "C" 
			},
			{
				"x": -1.5808075905,
				"y": -1.9175360467,
				"z": 0.0646022483,
				"element": "C" 
			},
			{
				"x": 0.4206946121,
				"y": 3.5692234949,
				"z": 3.8465612332,
				"element": "H" 
			},
			{
				"x": -0.28256641,
				"y": 2.1382540119,
				"z": 4.1910181235,
				"element": "H" 
			},
			{
				"x": 2.3332020209,
				"y": 2.5242842251,
				"z": 2.9433735135,
				"element": "H" 
			},
			{
				"x": 2.5397349974,
				"y": 0.523266686,
				"z": 4.1923717008,
				"element": "H" 
			},
			{
				"x": 0.8542301103,
				"y": 0.0943295234,
				"z": 3.978243107,
				"element": "H" 
			},
			{
				"x": 2.3313038732,
				"y": -1.3978190567,
				"z": 2.6218270564,
				"element": "H" 
			},
			{
				"x": 2.9863003643,
				"y": -0.0142771792,
				"z": 1.7705426022,
				"element": "H" 
			},
			{
				"x": -0.496173668,
				"y": 0.6717598269,
				"z": 0.3735589136,
				"element": "H" 
			},
			{
				"x": -0.7787779547,
				"y": 0.4588269877,
				"z": 2.0957595262,
				"element": "H" 
			},
			{
				"x": 1.4894117014,
				"y": 2.0837691694,
				"z": 0.8380763457,
				"element": "H" 
			},
			{
				"x": 0.0246710489,
				"y": 2.7754008448,
				"z": 1.5296978947,
				"element": "H" 
			},
			{
				"x": 0.1040082254,
				"y": -2.8365918632,
				"z": -0.8648501532,
				"element": "H" 
			},
			{
				"x": -0.3333408764,
				"y": 0.1164272998,
				"z": -1.5252580012,
				"element": "H" 
			},
			{
				"x": 0.9095191283,
				"y": -0.93519132,
				"z": -2.190289451,
				"element": "H" 
			},
			{
				"x": -0.802116969,
				"y": -2.4005456923,
				"z": -3.1982826687,
				"element": "H" 
			},
			{
				"x": -1.1004404904,
				"y": -0.7408960745,
				"z": -3.7000087845,
				"element": "H" 
			},
			{
				"x": -2.8915630596,
				"y": -0.5057425548,
				"z": -1.9948073477,
				"element": "H" 
			},
			{
				"x": -3.2253986224,
				"y": -1.8972776964,
				"z": -3.0172978105,
				"element": "H" 
			},
			{
				"x": -2.321839616,
				"y": -3.4352808428,
				"z": -1.2886956752,
				"element": "H" 
			},
			{
				"x": -3.5872621101,
				"y": -2.4328787833,
				"z": -0.5894141569,
				"element": "H" 
			},
			{
				"x": -1.9185551251,
				"y": -0.9443235069,
				"z": 0.4381692976,
				"element": "H" 
			},
			{
				"x": -1.5851519825,
				"y": -2.6002454151,
				"z": 0.9227138118,
				"element": "H" 
			}
		],
		 "valence_orbital": [ 
			{
				"type": "occ",
				"energy": -0.30973,
				"method": "rhf"
			},
			{
				"type": "occ",
				"energy": -0.29813,
				"method": "rhf"
			},
			{
				"type": "occ",
				"energy": -0.23853,
				"method": "rhf"
			},
			{
				"type": "occ",
				"energy": -0.23051,
				"method": "rhf"
			},
			{
				"type": "occ",
				"energy": -0.22455,
				"method": "rhf"
			},
			{
				"type": "unocc",
				"energy": 0.0345,
				"method": "rhf"
			},
			{
				"type": "unocc",
				"energy": 0.06245,
				"method": "rhf"
			},
			{
				"type": "unocc",
				"energy": 0.08526,
				"method": "rhf"
			},
			{
				"type": "unocc",
				"energy": 0.0959,
				"method": "rhf"
			},
			{
				"type": "unocc",
				"energy": 0.09932,
				"method": "rhf"
			}
		],
		"cosmo_sigma_profile": { 
			"-0.025": 0.0,
			"-0.024": 0.0,
			"-0.023": 0.0,
			"-0.022": 0.0,
			"-0.021": 0.0,
			"-0.02": 0.0,
			"-0.019": 0.0,
			"-0.018": 0.0,
			"-0.017": 0.0,
			"-0.016": 0.0,
			"-0.015": 0.0,
			"-0.014": 0.0,
			"-0.013": 0.0,
			"-0.012": 0.0,
			"-0.011": 0.0,
			"-0.01": 0.231600738066,
			"-0.009": 1.7212494608,
			"-0.008": 3.16437741837,
			"-0.007": 4.66071388706,
			"-0.006": 4.3992053712,
			"-0.005": 8.08015788361,
			"-0.004": 11.7354092187,
			"-0.003": 34.9522997863,
			"-0.002": 52.1120848508,
			"-0.001": 41.13139818,
			"0.0": 37.3132877447,
			"0.001": 22.0685581984,
			"0.002": 7.29511942947,
			"0.003": 2.85186561821,
			"0.004": 3.1423266624,
			"0.005": 1.97549955365,
			"0.006": 2.20568420091,
			"0.007": 2.49150539507,
			"0.008": 2.26286052292,
			"0.009": 2.38838050758,
			"0.01": 1.93454635143,
			"0.011": 1.79268602163,
			"0.012": 2.38878396162,
			"0.013": 2.33772030508,
			"0.014": 4.19631731954,
			"0.015": 5.46299959173,
			"0.016": 1.5946649179,
			"0.017": 0.402737063006,
			"0.018": 0.980835198369,
			"0.019": 0.453289875289,
			"0.02": 0.249452700252,
			"0.021": 0.0,
			"0.022": 0.0,
			"0.023": 0.0,
			"0.024": 0.0,
			"0.025": 0.0
		}
	}
}
