{
	 "smiles": "OC(=O)C1=CC=CNC1=S", 
	 "Tm": 543.15, 
	 "num_atms": 15, 
	 "gaussian": { 
		 "optdone": 1, 
		 "sigma_profile": "yes", 
		 "theory": "DFT", 
		 "functional": "B3LYP", 
		 "basiset": "6-31G**", 
		 "properties": { 
			 "R2extent": 1655.0681, 
			 "electric_dipole_moment_norm": 7.97996819856, 
			 "electric_quadrupole_moment_norm": 10.448673489, 
			 "total_energy": -835.054056756, 
			 "HOMO_LUMO_gap": 0.1414, 
			 "cosmo_polarized_energy": -21.07, 
			 "cosmo_cavitation_energy": 20.97, 
			 "cosmo_dispersion_energy": -16.51, 
			 "cosmo_repulsion_energy": 1.27, 
			 "cosmo_total_nonelectrostatic_energy": 5.73, 
			 "SMD_solvation_energy": 4.29 
		},
		"coords": [
			{
				"x": -1.7768525611,
				"y": 1.2989757661,
				"z": -0.5031970612,
				"element": "O" 
			},
			{
				"x": -1.2916413454,
				"y": 0.5503446081,
				"z": 0.4812879703,
				"element": "C" 
			},
			{
				"x": -1.9699679995,
				"y": 0.2387119481,
				"z": 1.440039311,
				"element": "O" 
			},
			{
				"x": 0.1524705085,
				"y": 0.0786917561,
				"z": 0.3922498741,
				"element": "C" 
			},
			{
				"x": 0.583639227,
				"y": -0.6956943091,
				"z": 1.4560058075,
				"element": "C" 
			},
			{
				"x": 1.8921927575,
				"y": -1.2146106523,
				"z": 1.5330657446,
				"element": "C" 
			},
			{
				"x": 2.7498661919,
				"y": -0.9278658645,
				"z": 0.5047177262,
				"element": "C" 
			},
			{
				"x": 2.3231220029,
				"y": -0.1692326745,
				"z": -0.5348462386,
				"element": "N" 
			},
			{
				"x": 1.0579980301,
				"y": 0.3768096261,
				"z": -0.6855737464,
				"element": "C" 
			},
			{
				"x": 0.7723340945,
				"y": 1.2917902449,
				"z": -2.0829331042,
				"element": "S" 
			},
			{
				"x": -1.088618851,
				"y": 1.4564553541,
				"z": -1.2026819968,
				"element": "H" 
			},
			{
				"x": -0.1411148306,
				"y": -0.8888312512,
				"z": 2.2403561425,
				"element": "H" 
			},
			{
				"x": 2.2173254458,
				"y": -1.818888255,
				"z": 2.3702823974,
				"element": "H" 
			},
			{
				"x": 3.7767228423,
				"y": -1.2710445693,
				"z": 0.4549629802,
				"element": "H" 
			},
			{
				"x": 2.9606244871,
				"y": 0.0417882724,
				"z": -1.2957358068,
				"element": "H" 
			}
		],
		 "valence_orbital": [ 
			{
				"type": "occ",
				"energy": -0.32931,
				"method": "rhf"
			},
			{
				"type": "occ",
				"energy": -0.29949,
				"method": "rhf"
			},
			{
				"type": "occ",
				"energy": -0.27093,
				"method": "rhf"
			},
			{
				"type": "occ",
				"energy": -0.24234,
				"method": "rhf"
			},
			{
				"type": "occ",
				"energy": -0.23086,
				"method": "rhf"
			},
			{
				"type": "unocc",
				"energy": -0.08946,
				"method": "rhf"
			},
			{
				"type": "unocc",
				"energy": -0.05821,
				"method": "rhf"
			},
			{
				"type": "unocc",
				"energy": 0.02958,
				"method": "rhf"
			},
			{
				"type": "unocc",
				"energy": 0.03071,
				"method": "rhf"
			},
			{
				"type": "unocc",
				"energy": 0.08661,
				"method": "rhf"
			}
		],
		"cosmo_sigma_profile": { 
			"-0.025": 0.0,
			"-0.024": 0.0,
			"-0.023": 0.0,
			"-0.022": 0.0,
			"-0.021": 0.0,
			"-0.02": 0.0,
			"-0.019": 0.024238913813,
			"-0.018": 0.920965822719,
			"-0.017": 1.60295695818,
			"-0.016": 1.20765784293,
			"-0.015": 1.35844909002,
			"-0.014": 0.902694260479,
			"-0.013": 1.43009511765,
			"-0.012": 1.98687038457,
			"-0.011": 3.34230920093,
			"-0.01": 2.49446700199,
			"-0.009": 4.11876542161,
			"-0.008": 6.40705778052,
			"-0.007": 6.01545539098,
			"-0.006": 4.76805046188,
			"-0.005": 5.02870893842,
			"-0.004": 10.5913968268,
			"-0.003": 12.8273909828,
			"-0.002": 13.2724583759,
			"-0.001": 12.7869929452,
			"0.0": 7.48962157432,
			"0.001": 5.89044091507,
			"0.002": 4.64259257604,
			"0.003": 5.45687123844,
			"0.004": 5.84377782239,
			"0.005": 6.19626860575,
			"0.006": 5.45954146417,
			"0.007": 5.34328650933,
			"0.008": 6.55741297356,
			"0.009": 8.85584132521,
			"0.01": 6.08032638232,
			"0.011": 5.14707216568,
			"0.012": 4.78380457901,
			"0.013": 2.30918290512,
			"0.014": 0.621844224261,
			"0.015": 0.0,
			"0.016": 0.0,
			"0.017": 0.0,
			"0.018": 0.0,
			"0.019": 0.0,
			"0.02": 0.0,
			"0.021": 0.0,
			"0.022": 0.0,
			"0.023": 0.0,
			"0.024": 0.0,
			"0.025": 0.0
		}
	}
}
