{
	 "smiles": "CCCCCCCCCCCCCCCC(=O)OC1=CNC2=C1C(Cl)=C(Br)C=C2", 
	 "Tm": 328.15, 
	 "num_atms": 64, 
	 "gaussian": { 
		 "optdone": 1, 
		 "sigma_profile": "yes", 
		 "theory": "DFT", 
		 "functional": "B3LYP", 
		 "basiset": "6-31G**", 
		 "properties": { 
			 "R2extent": 28204.772, 
			 "electric_dipole_moment_norm": 3.28830077852, 
			 "electric_quadrupole_moment_norm": 32.4933610756, 
			 "total_energy": -4172.49408423, 
			 "HOMO_LUMO_gap": 0.17845, 
			 "cosmo_polarized_energy": -13.27, 
			 "cosmo_cavitation_energy": 68.5, 
			 "cosmo_dispersion_energy": -44.94, 
			 "cosmo_repulsion_energy": 3.51, 
			 "cosmo_total_nonelectrostatic_energy": 27.07, 
			 "SMD_solvation_energy": 9.01 
		},
		"coords": [
			{
				"x": 1.1112909661,
				"y": 4.7754005364,
				"z": -1.0702827956,
				"element": "C" 
			},
			{
				"x": 1.3839036101,
				"y": 5.4972244258,
				"z": 0.2548541236,
				"element": "C" 
			},
			{
				"x": 2.2885214433,
				"y": 4.7233127099,
				"z": 1.228219171,
				"element": "C" 
			},
			{
				"x": 1.6833547212,
				"y": 3.4210685305,
				"z": 1.7717849155,
				"element": "C" 
			},
			{
				"x": 2.595387534,
				"y": 2.7178348691,
				"z": 2.7876686112,
				"element": "C" 
			},
			{
				"x": 2.0649038483,
				"y": 1.372381697,
				"z": 3.3108775147,
				"element": "C" 
			},
			{
				"x": 0.7855766876,
				"y": 1.4784779808,
				"z": 4.1549840614,
				"element": "C" 
			},
			{
				"x": 0.3623564552,
				"y": 0.163176042,
				"z": 4.8335506226,
				"element": "C" 
			},
			{
				"x": -0.0030467647,
				"y": -0.9962582132,
				"z": 3.889065857,
				"element": "C" 
			},
			{
				"x": -1.2214977697,
				"y": -0.7217032229,
				"z": 2.9942233739,
				"element": "C" 
			},
			{
				"x": -1.7103914675,
				"y": -1.93850039,
				"z": 2.1890414782,
				"element": "C" 
			},
			{
				"x": -0.7296801204,
				"y": -2.4277021458,
				"z": 1.1123244575,
				"element": "C" 
			},
			{
				"x": -1.2036639811,
				"y": -3.6666580688,
				"z": 0.3308655104,
				"element": "C" 
			},
			{
				"x": -2.4708422798,
				"y": -3.4871733636,
				"z": -0.5253082495,
				"element": "C" 
			},
			{
				"x": -2.3357195679,
				"y": -2.4818070258,
				"z": -1.675701675,
				"element": "C" 
			},
			{
				"x": -1.4106655244,
				"y": -2.9518001541,
				"z": -2.7791380512,
				"element": "C" 
			},
			{
				"x": -1.0211574182,
				"y": -4.0857791501,
				"z": -2.9508568522,
				"element": "O" 
			},
			{
				"x": -1.0901609044,
				"y": -1.9064399516,
				"z": -3.5920769669,
				"element": "O" 
			},
			{
				"x": -0.2998096849,
				"y": -2.0694613124,
				"z": -4.7089253754,
				"element": "C" 
			},
			{
				"x": 0.3127696778,
				"y": -3.1963033324,
				"z": -5.2051336785,
				"element": "C" 
			},
			{
				"x": 0.9994689404,
				"y": -2.8435063033,
				"z": -6.3517913389,
				"element": "N" 
			},
			{
				"x": 0.8396621486,
				"y": -1.5026039865,
				"z": -6.6049652098,
				"element": "C" 
			},
			{
				"x": 0.0137185237,
				"y": -0.9660029001,
				"z": -5.5767354721,
				"element": "C" 
			},
			{
				"x": -0.3016684282,
				"y": 0.4087591165,
				"z": -5.6130657049,
				"element": "C" 
			},
			{
				"x": -1.3126232155,
				"y": 1.1032903248,
				"z": -4.3713998259,
				"element": "Cl" 
			},
			{
				"x": 0.2062224736,
				"y": 1.1873585445,
				"z": -6.6509258044,
				"element": "C" 
			},
			{
				"x": -0.1715865906,
				"y": 3.0518785813,
				"z": -6.7749258194,
				"element": "Br" 
			},
			{
				"x": 1.0223147013,
				"y": 0.626925597,
				"z": -7.6551129423,
				"element": "C" 
			},
			{
				"x": 1.3476577598,
				"y": -0.7186323615,
				"z": -7.6449316954,
				"element": "C" 
			},
			{
				"x": 2.0469884706,
				"y": 4.5407766079,
				"z": -1.5912269916,
				"element": "H" 
			},
			{
				"x": 0.5721254737,
				"y": 3.8343465777,
				"z": -0.9219063402,
				"element": "H" 
			},
			{
				"x": 0.5065845187,
				"y": 5.3952184827,
				"z": -1.7403564401,
				"element": "H" 
			},
			{
				"x": 0.4300093604,
				"y": 5.7228592952,
				"z": 0.7517172681,
				"element": "H" 
			},
			{
				"x": 1.8494740414,
				"y": 6.4680881395,
				"z": 0.0412778559,
				"element": "H" 
			},
			{
				"x": 2.5351097956,
				"y": 5.3766758457,
				"z": 2.0765806063,
				"element": "H" 
			},
			{
				"x": 3.2441081419,
				"y": 4.4990749693,
				"z": 0.7320454931,
				"element": "H" 
			},
			{
				"x": 0.7123309378,
				"y": 3.6468965989,
				"z": 2.2328857259,
				"element": "H" 
			},
			{
				"x": 1.4751244428,
				"y": 2.7301971135,
				"z": 0.9436790031,
				"element": "H" 
			},
			{
				"x": 3.5765258553,
				"y": 2.5520533933,
				"z": 2.3218534444,
				"element": "H" 
			},
			{
				"x": 2.7755963746,
				"y": 3.3906292402,
				"z": 3.6387696441,
				"element": "H" 
			},
			{
				"x": 1.8969375484,
				"y": 0.7003108728,
				"z": 2.4583034289,
				"element": "H" 
			},
			{
				"x": 2.847847878,
				"y": 0.8984235729,
				"z": 3.9194383495,
				"element": "H" 
			},
			{
				"x": -0.0391295369,
				"y": 1.8574298075,
				"z": 3.5390942911,
				"element": "H" 
			},
			{
				"x": 0.9442249581,
				"y": 2.2331094447,
				"z": 4.9380418919,
				"element": "H" 
			},
			{
				"x": -0.4968846806,
				"y": 0.366324974,
				"z": 5.4876772051,
				"element": "H" 
			},
			{
				"x": 1.1749532545,
				"y": -0.1672361669,
				"z": 5.4952545225,
				"element": "H" 
			},
			{
				"x": 0.8660358405,
				"y": -1.2551198111,
				"z": 3.272149853,
				"element": "H" 
			},
			{
				"x": -0.2111081694,
				"y": -1.8853607979,
				"z": 4.5006762608,
				"element": "H" 
			},
			{
				"x": -0.9991459947,
				"y": 0.0994220047,
				"z": 2.2992738354,
				"element": "H" 
			},
			{
				"x": -2.0465696432,
				"y": -0.3659889517,
				"z": 3.6269687732,
				"element": "H" 
			},
			{
				"x": -2.668113433,
				"y": -1.67909917,
				"z": 1.7199172479,
				"element": "H" 
			},
			{
				"x": -1.9270078992,
				"y": -2.7661543318,
				"z": 2.8804101112,
				"element": "H" 
			},
			{
				"x": 0.2303856072,
				"y": -2.6758226057,
				"z": 1.5808552009,
				"element": "H" 
			},
			{
				"x": -0.5136919468,
				"y": -1.6013057046,
				"z": 0.4201696134,
				"element": "H" 
			},
			{
				"x": -0.3920903919,
				"y": -4.0152975675,
				"z": -0.3183364817,
				"element": "H" 
			},
			{
				"x": -1.3887357586,
				"y": -4.4805926483,
				"z": 1.044589184,
				"element": "H" 
			},
			{
				"x": -2.7456315781,
				"y": -4.4590553599,
				"z": -0.9487221276,
				"element": "H" 
			},
			{
				"x": -3.3105448979,
				"y": -3.1732053636,
				"z": 0.104867863,
				"element": "H" 
			},
			{
				"x": -3.3136480903,
				"y": -2.3060916879,
				"z": -2.1441001492,
				"element": "H" 
			},
			{
				"x": -1.9959227121,
				"y": -1.4985297758,
				"z": -1.3355224932,
				"element": "H" 
			},
			{
				"x": 0.3070917761,
				"y": -4.2031178908,
				"z": -4.8285918078,
				"element": "H" 
			},
			{
				"x": 1.5361861803,
				"y": -3.4814220999,
				"z": -6.9159921249,
				"element": "H" 
			},
			{
				"x": 1.3932872776,
				"y": 1.2730496112,
				"z": -8.4415157521,
				"element": "H" 
			},
			{
				"x": 1.9761012259,
				"y": -1.1447436915,
				"z": -8.420708204,
				"element": "H" 
			}
		],
		 "valence_orbital": [ 
			{
				"type": "occ",
				"energy": -0.27974,
				"method": "rhf"
			},
			{
				"type": "occ",
				"energy": -0.2765,
				"method": "rhf"
			},
			{
				"type": "occ",
				"energy": -0.27125,
				"method": "rhf"
			},
			{
				"type": "occ",
				"energy": -0.23032,
				"method": "rhf"
			},
			{
				"type": "occ",
				"energy": -0.20957,
				"method": "rhf"
			},
			{
				"type": "unocc",
				"energy": -0.03112,
				"method": "rhf"
			},
			{
				"type": "unocc",
				"energy": -0.00334,
				"method": "rhf"
			},
			{
				"type": "unocc",
				"energy": -0.00181,
				"method": "rhf"
			},
			{
				"type": "unocc",
				"energy": 0.00495,
				"method": "rhf"
			},
			{
				"type": "unocc",
				"energy": 0.05393,
				"method": "rhf"
			}
		],
		"cosmo_sigma_profile": { 
			"-0.025": 0.0,
			"-0.024": 0.0,
			"-0.023": 0.0,
			"-0.022": 0.0,
			"-0.021": 0.0,
			"-0.02": 0.0,
			"-0.019": 0.0,
			"-0.018": 0.0,
			"-0.017": 0.227104438542,
			"-0.016": 1.83988155321,
			"-0.015": 1.55837631856,
			"-0.014": 1.73212508443,
			"-0.013": 1.0718579292,
			"-0.012": 0.961154122156,
			"-0.011": 1.37720516544,
			"-0.01": 1.54773384427,
			"-0.009": 1.63167386643,
			"-0.008": 3.44361148738,
			"-0.007": 6.49347181558,
			"-0.006": 7.50326380732,
			"-0.005": 8.7307327155,
			"-0.004": 11.7148603475,
			"-0.003": 18.8454044165,
			"-0.002": 52.6588609276,
			"-0.001": 85.7715514678,
			"0.0": 94.1102828284,
			"0.001": 90.7090014593,
			"0.002": 60.3669904853,
			"0.003": 31.3283050096,
			"0.004": 21.6515535408,
			"0.005": 16.1680027727,
			"0.006": 6.88361298365,
			"0.007": 2.73574489696,
			"0.008": 1.31976009917,
			"0.009": 2.23192809831,
			"0.01": 1.92918840671,
			"0.011": 1.64598198368,
			"0.012": 0.800442308881,
			"0.013": 0.0,
			"0.014": 0.0,
			"0.015": 0.0,
			"0.016": 0.0,
			"0.017": 0.0,
			"0.018": 0.0,
			"0.019": 0.0,
			"0.02": 0.0,
			"0.021": 0.0,
			"0.022": 0.0,
			"0.023": 0.0,
			"0.024": 0.0,
			"0.025": 0.0
		}
	}
}
