{
	 "smiles": "NC1=C(Br)C=C(F)C(F)=C1", 
	 "Tm": 321.15, 
	 "num_atms": 14, 
	 "gaussian": { 
		 "optdone": 1, 
		 "sigma_profile": "yes", 
		 "theory": "DFT", 
		 "functional": "B3LYP", 
		 "basiset": "6-31G**", 
		 "properties": { 
			 "R2extent": 3405.2794, 
			 "electric_dipole_moment_norm": 2.82446117693, 
			 "electric_quadrupole_moment_norm": 7.53535251133, 
			 "total_energy": -3056.8663966, 
			 "HOMO_LUMO_gap": 0.19416, 
			 "cosmo_polarized_energy": -7.21, 
			 "cosmo_cavitation_energy": 21.54, 
			 "cosmo_dispersion_energy": -16.32, 
			 "cosmo_repulsion_energy": 1.28, 
			 "cosmo_total_nonelectrostatic_energy": 6.5, 
			 "SMD_solvation_energy": 3.59 
		},
		"coords": [
			{
				"x": -1.3796938506,
				"y": -2.6935412089,
				"z": 0.9812415563,
				"element": "N" 
			},
			{
				"x": -0.9994691886,
				"y": -1.6354052377,
				"z": 0.172110501,
				"element": "C" 
			},
			{
				"x": -0.5751580525,
				"y": -1.8168485402,
				"z": -1.1584747311,
				"element": "C" 
			},
			{
				"x": -0.6005376479,
				"y": -3.570879892,
				"z": -1.9251265259,
				"element": "Br" 
			},
			{
				"x": -0.1382298486,
				"y": -0.7527008538,
				"z": -1.945393464,
				"element": "C" 
			},
			{
				"x": -0.1210690419,
				"y": 0.5281633632,
				"z": -1.4167213526,
				"element": "C" 
			},
			{
				"x": 0.2932128856,
				"y": 1.5725440997,
				"z": -2.1577210996,
				"element": "F" 
			},
			{
				"x": -0.5418682808,
				"y": 0.73457941,
				"z": -0.1037356129,
				"element": "C" 
			},
			{
				"x": -0.5257306549,
				"y": 1.979278307,
				"z": 0.400879869,
				"element": "F" 
			},
			{
				"x": -0.9730584817,
				"y": -0.3217498897,
				"z": 0.6802149752,
				"element": "C" 
			},
			{
				"x": -1.9924686925,
				"y": -2.4621613793,
				"z": 1.7491618711,
				"element": "H" 
			},
			{
				"x": -1.6378766549,
				"y": -3.5417983218,
				"z": 0.4962955485,
				"element": "H" 
			},
			{
				"x": 0.1837540376,
				"y": -0.9111399586,
				"z": -2.9673496532,
				"element": "H" 
			},
			{
				"x": -1.2818065284,
				"y": -0.1194398979,
				"z": 1.7006181181,
				"element": "H" 
			}
		],
		 "valence_orbital": [ 
			{
				"type": "occ",
				"energy": -0.32605,
				"method": "rhf"
			},
			{
				"type": "occ",
				"energy": -0.30693,
				"method": "rhf"
			},
			{
				"type": "occ",
				"energy": -0.30108,
				"method": "rhf"
			},
			{
				"type": "occ",
				"energy": -0.25355,
				"method": "rhf"
			},
			{
				"type": "occ",
				"energy": -0.21415,
				"method": "rhf"
			},
			{
				"type": "unocc",
				"energy": -0.01999,
				"method": "rhf"
			},
			{
				"type": "unocc",
				"energy": -0.00374,
				"method": "rhf"
			},
			{
				"type": "unocc",
				"energy": 0.00473,
				"method": "rhf"
			},
			{
				"type": "unocc",
				"energy": 0.0721,
				"method": "rhf"
			},
			{
				"type": "unocc",
				"energy": 0.08884,
				"method": "rhf"
			}
		],
		"cosmo_sigma_profile": { 
			"-0.025": 0.0,
			"-0.024": 0.0,
			"-0.023": 0.0,
			"-0.022": 0.0,
			"-0.021": 0.0,
			"-0.02": 0.0,
			"-0.019": 0.0,
			"-0.018": 0.0,
			"-0.017": 0.0,
			"-0.016": 0.0,
			"-0.015": 0.0,
			"-0.014": 0.290232155012,
			"-0.013": 1.66937088235,
			"-0.012": 1.80897154596,
			"-0.011": 2.74613381307,
			"-0.01": 2.85344039958,
			"-0.009": 3.08172247917,
			"-0.008": 4.53549753641,
			"-0.007": 4.57534427005,
			"-0.006": 3.8034424278,
			"-0.005": 5.11088621632,
			"-0.004": 5.26371712561,
			"-0.003": 5.38766315482,
			"-0.002": 7.61364987897,
			"-0.001": 10.0098242064,
			"0.0": 16.7545018536,
			"0.001": 19.3452040749,
			"0.002": 20.7397075753,
			"0.003": 23.9891810188,
			"0.004": 27.1852320935,
			"0.005": 4.52383600281,
			"0.006": 0.84042189476,
			"0.007": 0.751921673164,
			"0.008": 0.563409408409,
			"0.009": 0.743105426489,
			"0.01": 0.67193681038,
			"0.011": 0.648334757591,
			"0.012": 0.503978101787,
			"0.013": 0.307719515963,
			"0.014": 0.0,
			"0.015": 0.0,
			"0.016": 0.0,
			"0.017": 0.0,
			"0.018": 0.0,
			"0.019": 0.0,
			"0.02": 0.0,
			"0.021": 0.0,
			"0.022": 0.0,
			"0.023": 0.0,
			"0.024": 0.0,
			"0.025": 0.0
		}
	}
}
