{
	 "smiles": "NC(=O)CN1C=NC(=C1N)C1=CC=CC=C1", 
	 "Tm": 483.15, 
	 "num_atms": 28, 
	 "gaussian": { 
		 "optdone": 1, 
		 "sigma_profile": "yes", 
		 "theory": "DFT", 
		 "functional": "B3LYP", 
		 "basiset": "6-31G**", 
		 "properties": { 
			 "R2extent": 4878.4839, 
			 "electric_dipole_moment_norm": 6.54111332649, 
			 "electric_quadrupole_moment_norm": 26.0391630933, 
			 "total_energy": -720.648989676, 
			 "HOMO_LUMO_gap": 0.17138, 
			 "cosmo_polarized_energy": -24.14, 
			 "cosmo_cavitation_energy": 31.86, 
			 "cosmo_dispersion_energy": -23.42, 
			 "cosmo_repulsion_energy": 1.82, 
			 "cosmo_total_nonelectrostatic_energy": 10.26, 
			 "SMD_solvation_energy": 4.71 
		},
		"coords": [
			{
				"x": 2.5321661221,
				"y": 2.6594760274,
				"z": 2.2481738228,
				"element": "N" 
			},
			{
				"x": 1.8741624142,
				"y": 1.5356672186,
				"z": 1.8606536906,
				"element": "C" 
			},
			{
				"x": 0.8306513212,
				"y": 1.1649080474,
				"z": 2.3853732331,
				"element": "O" 
			},
			{
				"x": 2.5531613729,
				"y": 0.7161364131,
				"z": 0.7510668117,
				"element": "C" 
			},
			{
				"x": 1.6443498445,
				"y": 0.3564660181,
				"z": -0.3168526001,
				"element": "N" 
			},
			{
				"x": 1.6204618975,
				"y": 0.8809041571,
				"z": -1.5965622097,
				"element": "C" 
			},
			{
				"x": 0.7504926547,
				"y": 0.2755504515,
				"z": -2.3552202407,
				"element": "N" 
			},
			{
				"x": 0.1570409475,
				"y": -0.7024566833,
				"z": -1.5647266746,
				"element": "C" 
			},
			{
				"x": 0.6960506591,
				"y": -0.651151372,
				"z": -0.2853518137,
				"element": "C" 
			},
			{
				"x": 0.4829606157,
				"y": -1.3666056122,
				"z": 0.8917041561,
				"element": "N" 
			},
			{
				"x": -0.8945889853,
				"y": -1.5797383509,
				"z": -2.0851170121,
				"element": "C" 
			},
			{
				"x": -1.1334433451,
				"y": -2.8611895351,
				"z": -1.5535876407,
				"element": "C" 
			},
			{
				"x": -2.1639275185,
				"y": -3.6621497901,
				"z": -2.0480852884,
				"element": "C" 
			},
			{
				"x": -2.9649830425,
				"y": -3.211741521,
				"z": -3.0975505197,
				"element": "C" 
			},
			{
				"x": -2.7174134922,
				"y": -1.9533362129,
				"z": -3.6552555738,
				"element": "C" 
			},
			{
				"x": -1.6984084922,
				"y": -1.1469353415,
				"z": -3.156877291,
				"element": "C" 
			},
			{
				"x": 3.3384799141,
				"y": 3.0139784973,
				"z": 1.7605003085,
				"element": "H" 
			},
			{
				"x": 2.1210811441,
				"y": 3.2220517554,
				"z": 2.9790255452,
				"element": "H" 
			},
			{
				"x": 3.4029472858,
				"y": 1.2460887569,
				"z": 0.311731789,
				"element": "H" 
			},
			{
				"x": 2.9333785544,
				"y": -0.2006254012,
				"z": 1.2181141582,
				"element": "H" 
			},
			{
				"x": 2.2724244129,
				"y": 1.6944124245,
				"z": -1.8870501189,
				"element": "H" 
			},
			{
				"x": -0.3253135423,
				"y": -1.9712704271,
				"z": 0.8128065654,
				"element": "H" 
			},
			{
				"x": 0.3752545029,
				"y": -0.7312471336,
				"z": 1.6834495645,
				"element": "H" 
			},
			{
				"x": -0.4753091304,
				"y": -3.2611045121,
				"z": -0.7869534557,
				"element": "H" 
			},
			{
				"x": -2.3267409446,
				"y": -4.6490083834,
				"z": -1.6228514612,
				"element": "H" 
			},
			{
				"x": -3.7645527945,
				"y": -3.8366512696,
				"z": -3.4849625953,
				"element": "H" 
			},
			{
				"x": -3.3272213849,
				"y": -1.5971560414,
				"z": -4.4814698515,
				"element": "H" 
			},
			{
				"x": -1.5039609914,
				"y": -0.1695721801,
				"z": -3.585725298,
				"element": "H" 
			}
		],
		 "valence_orbital": [ 
			{
				"type": "occ",
				"energy": -0.26608,
				"method": "rhf"
			},
			{
				"type": "occ",
				"energy": -0.25733,
				"method": "rhf"
			},
			{
				"type": "occ",
				"energy": -0.23367,
				"method": "rhf"
			},
			{
				"type": "occ",
				"energy": -0.23158,
				"method": "rhf"
			},
			{
				"type": "occ",
				"energy": -0.17566,
				"method": "rhf"
			},
			{
				"type": "unocc",
				"energy": -0.00428,
				"method": "rhf"
			},
			{
				"type": "unocc",
				"energy": 0.00554,
				"method": "rhf"
			},
			{
				"type": "unocc",
				"energy": 0.01475,
				"method": "rhf"
			},
			{
				"type": "unocc",
				"energy": 0.03498,
				"method": "rhf"
			},
			{
				"type": "unocc",
				"energy": 0.04934,
				"method": "rhf"
			}
		],
		"cosmo_sigma_profile": { 
			"-0.025": 0.0,
			"-0.024": 0.0,
			"-0.023": 0.0,
			"-0.022": 0.0,
			"-0.021": 0.0,
			"-0.02": 0.0,
			"-0.019": 0.0,
			"-0.018": 0.0,
			"-0.017": 0.0,
			"-0.016": 0.262047266416,
			"-0.015": 2.03090441816,
			"-0.014": 3.72621201723,
			"-0.013": 2.43845962342,
			"-0.012": 2.62937831851,
			"-0.011": 4.10704329223,
			"-0.01": 4.85995842206,
			"-0.009": 6.91122368222,
			"-0.008": 7.88339447361,
			"-0.007": 8.87312813584,
			"-0.006": 8.79535562132,
			"-0.005": 13.1719452653,
			"-0.004": 12.6329515626,
			"-0.003": 17.537956638,
			"-0.002": 13.4318296327,
			"-0.001": 11.2110533456,
			"0.0": 11.3022461434,
			"0.001": 12.6642355418,
			"0.002": 11.9245243663,
			"0.003": 14.1842503543,
			"0.004": 15.6733260691,
			"0.005": 16.2058652221,
			"0.006": 14.9337296528,
			"0.007": 8.38519736197,
			"0.008": 4.26547005441,
			"0.009": 4.163280734,
			"0.01": 3.75053341389,
			"0.011": 3.5689917723,
			"0.012": 3.94098098672,
			"0.013": 4.07890784035,
			"0.014": 1.87220171557,
			"0.015": 0.709759220039,
			"0.016": 1.22068209835,
			"0.017": 0.595800118239,
			"0.018": 0.0483217712276,
			"0.019": 0.0,
			"0.02": 0.0,
			"0.021": 0.0,
			"0.022": 0.0,
			"0.023": 0.0,
			"0.024": 0.0,
			"0.025": 0.0
		}
	}
}
