{
	 "smiles": "CCC1=CC(OC2=C(C=CC(O)=O)C=C(F)C=C2)=CC=C1", 
	 "Tm": 380.15, 
	 "num_atms": 36, 
	 "gaussian": { 
		 "optdone": 1, 
		 "sigma_profile": "yes", 
		 "theory": "DFT", 
		 "functional": "B3LYP", 
		 "basiset": "6-31G**", 
		 "properties": { 
			 "R2extent": 8466.4998, 
			 "electric_dipole_moment_norm": 7.04885764575, 
			 "electric_quadrupole_moment_norm": 25.2244729755, 
			 "total_energy": -982.349888106, 
			 "HOMO_LUMO_gap": 0.15768, 
			 "cosmo_polarized_energy": -16.73, 
			 "cosmo_cavitation_energy": 41.99, 
			 "cosmo_dispersion_energy": -28.53, 
			 "cosmo_repulsion_energy": 2.21, 
			 "cosmo_total_nonelectrostatic_energy": 15.66, 
			 "SMD_solvation_energy": 9.03 
		},
		"coords": [
			{
				"x": 3.9306846521,
				"y": 0.8591176104,
				"z": -1.4181461505,
				"element": "C" 
			},
			{
				"x": 3.591724814,
				"y": -0.0502709461,
				"z": -0.2230830342,
				"element": "C" 
			},
			{
				"x": 2.438724645,
				"y": 0.4756858443,
				"z": 0.6064636353,
				"element": "C" 
			},
			{
				"x": 1.1215526875,
				"y": 0.1110015691,
				"z": 0.3038906255,
				"element": "C" 
			},
			{
				"x": 0.0620372602,
				"y": 0.6324591437,
				"z": 1.0484007161,
				"element": "C" 
			},
			{
				"x": -1.257227177,
				"y": 0.3470188953,
				"z": 0.7124169109,
				"element": "O" 
			},
			{
				"x": -1.7066168552,
				"y": -0.9532638998,
				"z": 0.6823478565,
				"element": "C" 
			},
			{
				"x": -2.8345371572,
				"y": -1.2347987355,
				"z": -0.1279072175,
				"element": "C" 
			},
			{
				"x": -3.5316901325,
				"y": -0.2739948841,
				"z": -0.9780805407,
				"element": "C" 
			},
			{
				"x": -3.3322373164,
				"y": 1.0470388252,
				"z": -1.1515696407,
				"element": "C" 
			},
			{
				"x": -4.2055794123,
				"y": 1.783807601,
				"z": -2.1020262565,
				"element": "C" 
			},
			{
				"x": -3.9460199553,
				"y": 3.1172382626,
				"z": -2.2195351719,
				"element": "O" 
			},
			{
				"x": -5.0988231511,
				"y": 1.2883166596,
				"z": -2.7527173392,
				"element": "O" 
			},
			{
				"x": -3.3249275199,
				"y": -2.5562389122,
				"z": -0.1211014627,
				"element": "C" 
			},
			{
				"x": -2.722168721,
				"y": -3.5340174727,
				"z": 0.6511120859,
				"element": "C" 
			},
			{
				"x": -3.2168460159,
				"y": -4.7892590257,
				"z": 0.6299767466,
				"element": "F" 
			},
			{
				"x": -1.6189492787,
				"y": -3.2515716888,
				"z": 1.4480151661,
				"element": "C" 
			},
			{
				"x": -1.1161531282,
				"y": -1.9520387304,
				"z": 1.4605761515,
				"element": "C" 
			},
			{
				"x": 0.2830921409,
				"y": 1.5255813533,
				"z": 2.0944158592,
				"element": "C" 
			},
			{
				"x": 1.5956171279,
				"y": 1.8953823941,
				"z": 2.3933995424,
				"element": "C" 
			},
			{
				"x": 2.6616938003,
				"y": 1.3738164081,
				"z": 1.6610783344,
				"element": "C" 
			},
			{
				"x": 3.0736000305,
				"y": 0.9578295999,
				"z": -2.0920006698,
				"element": "H" 
			},
			{
				"x": 4.7690502375,
				"y": 0.4518047598,
				"z": -1.9923960547,
				"element": "H" 
			},
			{
				"x": 4.2056235464,
				"y": 1.8638247022,
				"z": -1.0813802957,
				"element": "H" 
			},
			{
				"x": 4.4781148449,
				"y": -0.1553488576,
				"z": 0.4135038374,
				"element": "H" 
			},
			{
				"x": 3.3503463691,
				"y": -1.0546390177,
				"z": -0.5901651521,
				"element": "H" 
			},
			{
				"x": 0.9142374993,
				"y": -0.5774373727,
				"z": -0.5103333666,
				"element": "H" 
			},
			{
				"x": -4.3461971067,
				"y": -0.6956464651,
				"z": -1.5659339946,
				"element": "H" 
			},
			{
				"x": -2.5585098552,
				"y": 1.5813807828,
				"z": -0.613865142,
				"element": "H" 
			},
			{
				"x": -3.2107788172,
				"y": 3.3638625644,
				"z": -1.6414764046,
				"element": "H" 
			},
			{
				"x": -4.1849631197,
				"y": -2.8168876798,
				"z": -0.7288149377,
				"element": "H" 
			},
			{
				"x": -1.1706810023,
				"y": -4.0346772373,
				"z": 2.0494734889,
				"element": "H" 
			},
			{
				"x": -0.2617826531,
				"y": -1.7080152637,
				"z": 2.0808133737,
				"element": "H" 
			},
			{
				"x": -0.5621110673,
				"y": 1.9131572667,
				"z": 2.653185746,
				"element": "H" 
			},
			{
				"x": 1.7846698113,
				"y": 2.5879796421,
				"z": 3.2083293448,
				"element": "H" 
			},
			{
				"x": 3.6795299753,
				"y": 1.6635023047,
				"z": 1.9087334106,
				"element": "H" 
			}
		],
		 "valence_orbital": [ 
			{
				"type": "occ",
				"energy": -0.26716,
				"method": "rhf"
			},
			{
				"type": "occ",
				"energy": -0.2639,
				"method": "rhf"
			},
			{
				"type": "occ",
				"energy": -0.25654,
				"method": "rhf"
			},
			{
				"type": "occ",
				"energy": -0.2502,
				"method": "rhf"
			},
			{
				"type": "occ",
				"energy": -0.22804,
				"method": "rhf"
			},
			{
				"type": "unocc",
				"energy": -0.07036,
				"method": "rhf"
			},
			{
				"type": "unocc",
				"energy": -0.02159,
				"method": "rhf"
			},
			{
				"type": "unocc",
				"energy": -0.01546,
				"method": "rhf"
			},
			{
				"type": "unocc",
				"energy": -0.00679,
				"method": "rhf"
			},
			{
				"type": "unocc",
				"energy": 0.02008,
				"method": "rhf"
			}
		],
		"cosmo_sigma_profile": { 
			"-0.025": 0.0,
			"-0.024": 0.0,
			"-0.023": 0.0,
			"-0.022": 0.0,
			"-0.021": 0.0,
			"-0.02": 0.0,
			"-0.019": 0.39670950391,
			"-0.018": 1.33868079128,
			"-0.017": 1.0154094826,
			"-0.016": 1.03714101444,
			"-0.015": 1.01454215499,
			"-0.014": 1.08423188281,
			"-0.013": 0.715231666074,
			"-0.012": 1.38403746533,
			"-0.011": 0.984028965849,
			"-0.01": 0.997229279279,
			"-0.009": 0.819859446766,
			"-0.008": 4.22799983109,
			"-0.007": 7.89074888588,
			"-0.006": 12.563206045,
			"-0.005": 13.5664332457,
			"-0.004": 19.839922462,
			"-0.003": 23.8237091722,
			"-0.002": 25.9014956165,
			"-0.001": 28.7584624453,
			"0.0": 30.960323346,
			"0.001": 40.0445187747,
			"0.002": 33.1070181388,
			"0.003": 21.4891674863,
			"0.004": 20.4634040677,
			"0.005": 11.889709123,
			"0.006": 3.23937111472,
			"0.007": 2.01134497993,
			"0.008": 2.89583224129,
			"0.009": 3.11632321172,
			"0.01": 3.37872785204,
			"0.011": 5.49625582819,
			"0.012": 5.7612284483,
			"0.013": 3.27915175273,
			"0.014": 0.599913107624,
			"0.015": 0.0,
			"0.016": 0.0,
			"0.017": 0.0,
			"0.018": 0.0,
			"0.019": 0.0,
			"0.02": 0.0,
			"0.021": 0.0,
			"0.022": 0.0,
			"0.023": 0.0,
			"0.024": 0.0,
			"0.025": 0.0
		}
	}
}
