{
	 "smiles": "CN(CC1=CC=CC=C1)S(N)(=O)=O", 
	 "Tm": 366.15, 
	 "num_atms": 25, 
	 "gaussian": { 
		 "optdone": 1, 
		 "sigma_profile": "yes", 
		 "theory": "DFT", 
		 "functional": "B3LYP", 
		 "basiset": "6-31G**", 
		 "properties": { 
			 "R2extent": 2917.6875, 
			 "electric_dipole_moment_norm": 4.59767838153, 
			 "electric_quadrupole_moment_norm": 14.4886325314, 
			 "total_energy": -970.144334866, 
			 "HOMO_LUMO_gap": 0.23598, 
			 "cosmo_polarized_energy": -18.3, 
			 "cosmo_cavitation_energy": 29.14, 
			 "cosmo_dispersion_energy": -21.18, 
			 "cosmo_repulsion_energy": 1.62, 
			 "cosmo_total_nonelectrostatic_energy": 9.58, 
			 "SMD_solvation_energy": 3.56 
		},
		"coords": [
			{
				"x": -0.4509606098,
				"y": -0.2102812745,
				"z": 2.2348760461,
				"element": "C" 
			},
			{
				"x": -0.861137365,
				"y": 0.5762221432,
				"z": 1.0658629103,
				"element": "N" 
			},
			{
				"x": 0.2483252839,
				"y": 1.05755289,
				"z": 0.2021894598,
				"element": "C" 
			},
			{
				"x": 1.1652610372,
				"y": -0.0070228828,
				"z": -0.3741253684,
				"element": "C" 
			},
			{
				"x": 0.7916938449,
				"y": -0.7330646167,
				"z": -1.5150012865,
				"element": "C" 
			},
			{
				"x": 1.63517007,
				"y": -1.7133076003,
				"z": -2.0367132,
				"element": "C" 
			},
			{
				"x": 2.8651017181,
				"y": -1.979968972,
				"z": -1.4300390808,
				"element": "C" 
			},
			{
				"x": 3.2495468496,
				"y": -1.2589268386,
				"z": -0.2991379849,
				"element": "C" 
			},
			{
				"x": 2.4028613818,
				"y": -0.2787469,
				"z": 0.2225813531,
				"element": "C" 
			},
			{
				"x": -2.2323112802,
				"y": -0.0378786648,
				"z": 0.2655555084,
				"element": "S" 
			},
			{
				"x": -3.5127975078,
				"y": 0.4758262516,
				"z": 1.2162835576,
				"element": "N" 
			},
			{
				"x": -2.276470814,
				"y": -1.497743469,
				"z": 0.3273648306,
				"element": "O" 
			},
			{
				"x": -2.3144954004,
				"y": 0.6867624904,
				"z": -0.9986895437,
				"element": "O" 
			},
			{
				"x": 0.2904057888,
				"y": 0.3726872926,
				"z": 2.7886679146,
				"element": "H" 
			},
			{
				"x": -1.309230554,
				"y": -0.3681969155,
				"z": 2.893235651,
				"element": "H" 
			},
			{
				"x": -0.0225211032,
				"y": -1.18356184,
				"z": 1.9723744991,
				"element": "H" 
			},
			{
				"x": -0.2071947974,
				"y": 1.6479474522,
				"z": -0.593343787,
				"element": "H" 
			},
			{
				"x": 0.8284482027,
				"y": 1.7406669869,
				"z": 0.8329171589,
				"element": "H" 
			},
			{
				"x": -0.1604151117,
				"y": -0.5240861016,
				"z": -1.993587514,
				"element": "H" 
			},
			{
				"x": 1.3335975191,
				"y": -2.2668733146,
				"z": -2.9212849894,
				"element": "H" 
			},
			{
				"x": 3.5215750661,
				"y": -2.7422011756,
				"z": -1.8400057103,
				"element": "H" 
			},
			{
				"x": 4.2071559115,
				"y": -1.4555350916,
				"z": 0.1747941485,
				"element": "H" 
			},
			{
				"x": 2.7112516942,
				"y": 0.2880671446,
				"z": 1.0985504226,
				"element": "H" 
			},
			{
				"x": -3.6575443585,
				"y": -0.1202486968,
				"z": 2.0237303427,
				"element": "H" 
			},
			{
				"x": -3.4555154659,
				"y": 1.4618117028,
				"z": 1.4493446617,
				"element": "H" 
			}
		],
		 "valence_orbital": [ 
			{
				"type": "occ",
				"energy": -0.30855,
				"method": "rhf"
			},
			{
				"type": "occ",
				"energy": -0.30246,
				"method": "rhf"
			},
			{
				"type": "occ",
				"energy": -0.25461,
				"method": "rhf"
			},
			{
				"type": "occ",
				"energy": -0.25049,
				"method": "rhf"
			},
			{
				"type": "occ",
				"energy": -0.24427,
				"method": "rhf"
			},
			{
				"type": "unocc",
				"energy": -0.00829,
				"method": "rhf"
			},
			{
				"type": "unocc",
				"energy": -0.0026,
				"method": "rhf"
			},
			{
				"type": "unocc",
				"energy": 0.04543,
				"method": "rhf"
			},
			{
				"type": "unocc",
				"energy": 0.07326,
				"method": "rhf"
			},
			{
				"type": "unocc",
				"energy": 0.08892,
				"method": "rhf"
			}
		],
		"cosmo_sigma_profile": { 
			"-0.025": 0.0,
			"-0.024": 0.0,
			"-0.023": 0.0,
			"-0.022": 0.0,
			"-0.021": 0.0,
			"-0.02": 0.0,
			"-0.019": 0.0,
			"-0.018": 0.0,
			"-0.017": 0.0,
			"-0.016": 0.143886479751,
			"-0.015": 1.72528810415,
			"-0.014": 2.78892614714,
			"-0.013": 2.24646592557,
			"-0.012": 2.77044253322,
			"-0.011": 1.72290512859,
			"-0.01": 3.1120310148,
			"-0.009": 2.29910890407,
			"-0.008": 1.78130686396,
			"-0.007": 3.32436339159,
			"-0.006": 12.5694783569,
			"-0.005": 15.7343581509,
			"-0.004": 18.7117889594,
			"-0.003": 18.9548516274,
			"-0.002": 16.7824748572,
			"-0.001": 13.3905887326,
			"0.0": 9.21549928393,
			"0.001": 11.2198299155,
			"0.002": 11.8870996962,
			"0.003": 9.97621458099,
			"0.004": 12.7160791998,
			"0.005": 13.4117869241,
			"0.006": 9.58770930777,
			"0.007": 4.26372908277,
			"0.008": 4.70345727962,
			"0.009": 4.53893331989,
			"0.01": 7.65679310109,
			"0.011": 9.97785546026,
			"0.012": 2.84447089335,
			"0.013": 0.13509130639,
			"0.014": 0.0,
			"0.015": 0.0,
			"0.016": 0.0,
			"0.017": 0.0,
			"0.018": 0.0,
			"0.019": 0.0,
			"0.02": 0.0,
			"0.021": 0.0,
			"0.022": 0.0,
			"0.023": 0.0,
			"0.024": 0.0,
			"0.025": 0.0
		}
	}
}
