{
	 "smiles": "CN(C(=O)COC1=NC2=CC=CC=C2S1)C1=CC=CC=C1", 
	 "Tm": 408.15, 
	 "num_atms": 35, 
	 "gaussian": { 
		 "optdone": 1, 
		 "sigma_profile": "yes", 
		 "theory": "DFT", 
		 "functional": "B3LYP", 
		 "basiset": "6-31G**", 
		 "properties": { 
			 "R2extent": 9211.2384, 
			 "electric_dipole_moment_norm": 3.59713149051, 
			 "electric_quadrupole_moment_norm": 16.9898734142, 
			 "total_energy": -1276.27827422, 
			 "HOMO_LUMO_gap": 0.2059, 
			 "cosmo_polarized_energy": -16.79, 
			 "cosmo_cavitation_energy": 40.87, 
			 "cosmo_dispersion_energy": -29.71, 
			 "cosmo_repulsion_energy": 2.22, 
			 "cosmo_total_nonelectrostatic_energy": 13.37, 
			 "SMD_solvation_energy": 5.62 
		},
		"coords": [
			{
				"x": -2.3657168504,
				"y": 2.3319693415,
				"z": -1.1430799707,
				"element": "C" 
			},
			{
				"x": -0.998657068,
				"y": 2.0091414787,
				"z": -1.5594199302,
				"element": "N" 
			},
			{
				"x": -0.5292229612,
				"y": 0.7067293208,
				"z": -1.5420611147,
				"element": "C" 
			},
			{
				"x": 0.5662853207,
				"y": 0.3700406165,
				"z": -1.9543751717,
				"element": "O" 
			},
			{
				"x": -1.4956530756,
				"y": -0.3434849922,
				"z": -0.9560400549,
				"element": "C" 
			},
			{
				"x": -0.9226396954,
				"y": -1.6431764481,
				"z": -1.0661661119,
				"element": "O" 
			},
			{
				"x": -0.0173692198,
				"y": -1.9614677198,
				"z": -0.1338076647,
				"element": "C" 
			},
			{
				"x": 0.2541136736,
				"y": -1.2839731273,
				"z": 0.9282410612,
				"element": "N" 
			},
			{
				"x": 1.2179156758,
				"y": -1.9466414731,
				"z": 1.6812062113,
				"element": "C" 
			},
			{
				"x": 1.7467165556,
				"y": -1.4909547412,
				"z": 2.8945860182,
				"element": "C" 
			},
			{
				"x": 2.7062976838,
				"y": -2.2600780859,
				"z": 3.5474853936,
				"element": "C" 
			},
			{
				"x": 3.1460724328,
				"y": -3.4772969444,
				"z": 3.0061545222,
				"element": "C" 
			},
			{
				"x": 2.6323538382,
				"y": -3.9487519118,
				"z": 1.797845745,
				"element": "C" 
			},
			{
				"x": 1.6720262557,
				"y": -3.1770902156,
				"z": 1.1456218754,
				"element": "C" 
			},
			{
				"x": 0.8431169526,
				"y": -3.4916011447,
				"z": -0.3783829047,
				"element": "S" 
			},
			{
				"x": -0.2207012364,
				"y": 3.0555063099,
				"z": -2.1546711926,
				"element": "C" 
			},
			{
				"x": -0.8504990942,
				"y": 4.0122298447,
				"z": -2.9620183882,
				"element": "C" 
			},
			{
				"x": -0.1158769722,
				"y": 5.0631904062,
				"z": -3.5128555911,
				"element": "C" 
			},
			{
				"x": 1.2537033395,
				"y": 5.1654175998,
				"z": -3.273899541,
				"element": "C" 
			},
			{
				"x": 1.8818313816,
				"y": 4.2075666683,
				"z": -2.4746371843,
				"element": "C" 
			},
			{
				"x": 1.1566312101,
				"y": 3.1595669457,
				"z": -1.9116836844,
				"element": "C" 
			},
			{
				"x": -2.4036851148,
				"y": 3.3819498277,
				"z": -0.8502184975,
				"element": "H" 
			},
			{
				"x": -3.1046716408,
				"y": 2.1669219263,
				"z": -1.9382368296,
				"element": "H" 
			},
			{
				"x": -2.6551147619,
				"y": 1.7392859591,
				"z": -0.2740328693,
				"element": "H" 
			},
			{
				"x": -2.4261042695,
				"y": -0.3893032062,
				"z": -1.5276516638,
				"element": "H" 
			},
			{
				"x": -1.7196563428,
				"y": -0.1251063963,
				"z": 0.0923535808,
				"element": "H" 
			},
			{
				"x": 1.4000561524,
				"y": -0.547625317,
				"z": 3.3037133266,
				"element": "H" 
			},
			{
				"x": 3.1209611428,
				"y": -1.9124334706,
				"z": 4.48904261,
				"element": "H" 
			},
			{
				"x": 3.8957526466,
				"y": -4.0617283976,
				"z": 3.5309476915,
				"element": "H" 
			},
			{
				"x": 2.9743748627,
				"y": -4.890164435,
				"z": 1.3795898607,
				"element": "H" 
			},
			{
				"x": -1.9118921447,
				"y": 3.9346402425,
				"z": -3.1740571349,
				"element": "H" 
			},
			{
				"x": -0.6197073036,
				"y": 5.7961928541,
				"z": -4.136324349,
				"element": "H" 
			},
			{
				"x": 1.8263243398,
				"y": 5.9808694364,
				"z": -3.7054076208,
				"element": "H" 
			},
			{
				"x": 2.9479158837,
				"y": 4.2773435433,
				"z": -2.278740413,
				"element": "H" 
			},
			{
				"x": 1.6503184033,
				"y": 2.4195157054,
				"z": -1.2968200134,
				"element": "H" 
			}
		],
		 "valence_orbital": [ 
			{
				"type": "occ",
				"energy": -0.26296,
				"method": "rhf"
			},
			{
				"type": "occ",
				"energy": -0.2491,
				"method": "rhf"
			},
			{
				"type": "occ",
				"energy": -0.22981,
				"method": "rhf"
			},
			{
				"type": "occ",
				"energy": -0.22593,
				"method": "rhf"
			},
			{
				"type": "occ",
				"energy": -0.21977,
				"method": "rhf"
			},
			{
				"type": "unocc",
				"energy": -0.01387,
				"method": "rhf"
			},
			{
				"type": "unocc",
				"energy": -0.01213,
				"method": "rhf"
			},
			{
				"type": "unocc",
				"energy": -0.00187,
				"method": "rhf"
			},
			{
				"type": "unocc",
				"energy": 0.0002,
				"method": "rhf"
			},
			{
				"type": "unocc",
				"energy": 0.01159,
				"method": "rhf"
			}
		],
		"cosmo_sigma_profile": { 
			"-0.025": 0.0,
			"-0.024": 0.0,
			"-0.023": 0.0,
			"-0.022": 0.0,
			"-0.021": 0.0,
			"-0.02": 0.0,
			"-0.019": 0.0,
			"-0.018": 0.0,
			"-0.017": 0.0,
			"-0.016": 0.0,
			"-0.015": 0.0,
			"-0.014": 0.0,
			"-0.013": 0.0,
			"-0.012": 0.0,
			"-0.011": 0.0,
			"-0.01": 0.595081973408,
			"-0.009": 3.60149911469,
			"-0.008": 5.59030954955,
			"-0.007": 9.41517570782,
			"-0.006": 22.1253991912,
			"-0.005": 26.472481057,
			"-0.004": 27.8767590753,
			"-0.003": 25.0332520228,
			"-0.002": 18.0251854797,
			"-0.001": 19.5462131251,
			"0.0": 19.9298708081,
			"0.001": 22.5293595911,
			"0.002": 22.7890918162,
			"0.003": 24.6471690266,
			"0.004": 24.1897164791,
			"0.005": 21.8178239333,
			"0.006": 10.0891605109,
			"0.007": 4.5309741287,
			"0.008": 4.85350227871,
			"0.009": 3.76516049283,
			"0.01": 3.5711205882,
			"0.011": 2.55738600651,
			"0.012": 3.70724413639,
			"0.013": 2.59933902684,
			"0.014": 0.0,
			"0.015": 0.0,
			"0.016": 0.0,
			"0.017": 0.0,
			"0.018": 0.0,
			"0.019": 0.0,
			"0.02": 0.0,
			"0.021": 0.0,
			"0.022": 0.0,
			"0.023": 0.0,
			"0.024": 0.0,
			"0.025": 0.0
		}
	}
}
