{
	 "smiles": "NC1=NN(C=C1)C1=CC=CC=C1", 
	 "Tm": 351.15, 
	 "num_atms": 21, 
	 "gaussian": { 
		 "optdone": 1, 
		 "sigma_profile": "yes", 
		 "theory": "DFT", 
		 "functional": "B3LYP", 
		 "basiset": "6-31G**", 
		 "properties": { 
			 "R2extent": 2417.4692, 
			 "electric_dipole_moment_norm": 1.59487553119, 
			 "electric_quadrupole_moment_norm": 11.4404949264, 
			 "total_energy": -512.615598869, 
			 "HOMO_LUMO_gap": 0.17984, 
			 "cosmo_polarized_energy": -11.29, 
			 "cosmo_cavitation_energy": 25.06, 
			 "cosmo_dispersion_energy": -18.85, 
			 "cosmo_repulsion_energy": 1.49, 
			 "cosmo_total_nonelectrostatic_energy": 7.7, 
			 "SMD_solvation_energy": 3.89 
		},
		"coords": [
			{
				"x": 3.4766987071,
				"y": 0.0447996774,
				"z": 1.2613041232,
				"element": "N" 
			},
			{
				"x": 2.4113023538,
				"y": 0.4472893285,
				"z": 0.4601679636,
				"element": "C" 
			},
			{
				"x": 1.1574376064,
				"y": 0.1793562586,
				"z": 0.8091283216,
				"element": "N" 
			},
			{
				"x": 0.395078348,
				"y": 0.6474243882,
				"z": -0.2287220726,
				"element": "N" 
			},
			{
				"x": 1.1696943515,
				"y": 1.2055756081,
				"z": -1.2043852573,
				"element": "C" 
			},
			{
				"x": 2.4809463154,
				"y": 1.100958973,
				"z": -0.8021909348,
				"element": "C" 
			},
			{
				"x": -1.0103098102,
				"y": 0.4993770779,
				"z": -0.1977023297,
				"element": "C" 
			},
			{
				"x": -1.8280512028,
				"y": 1.2536446722,
				"z": -1.0500675968,
				"element": "C" 
			},
			{
				"x": -3.2104972278,
				"y": 1.0775797548,
				"z": -1.0176988924,
				"element": "C" 
			},
			{
				"x": -3.7911193278,
				"y": 0.1688598816,
				"z": -0.1315884614,
				"element": "C" 
			},
			{
				"x": -2.9707112624,
				"y": -0.5667011737,
				"z": 0.7267310872,
				"element": "C" 
			},
			{
				"x": -1.5868818581,
				"y": -0.4107768031,
				"z": 0.6980638487,
				"element": "C" 
			},
			{
				"x": 4.2402714137,
				"y": 0.7078478128,
				"z": 1.2894671475,
				"element": "H" 
			},
			{
				"x": 3.1754338992,
				"y": -0.2095707042,
				"z": 2.1941926958,
				"element": "H" 
			},
			{
				"x": 0.7448225337,
				"y": 1.6045274895,
				"z": -2.112260514,
				"element": "H" 
			},
			{
				"x": 3.360532375,
				"y": 1.4200301875,
				"z": -1.3409452533,
				"element": "H" 
			},
			{
				"x": -1.3957697472,
				"y": 1.987685645,
				"z": -1.7214584795,
				"element": "H" 
			},
			{
				"x": -3.8352909022,
				"y": 1.6664505965,
				"z": -1.6830631357,
				"element": "H" 
			},
			{
				"x": -4.8688086556,
				"y": 0.039917358,
				"z": -0.1066759616,
				"element": "H" 
			},
			{
				"x": -3.409277054,
				"y": -1.2750339838,
				"z": 1.4238537339,
				"element": "H" 
			},
			{
				"x": -0.9387008557,
				"y": -0.9767420449,
				"z": 1.3550499674,
				"element": "H" 
			}
		],
		 "valence_orbital": [ 
			{
				"type": "occ",
				"energy": -0.28408,
				"method": "rhf"
			},
			{
				"type": "occ",
				"energy": -0.26211,
				"method": "rhf"
			},
			{
				"type": "occ",
				"energy": -0.25139,
				"method": "rhf"
			},
			{
				"type": "occ",
				"energy": -0.2362,
				"method": "rhf"
			},
			{
				"type": "occ",
				"energy": -0.19521,
				"method": "rhf"
			},
			{
				"type": "unocc",
				"energy": -0.01537,
				"method": "rhf"
			},
			{
				"type": "unocc",
				"energy": -0.00087,
				"method": "rhf"
			},
			{
				"type": "unocc",
				"energy": 0.04856,
				"method": "rhf"
			},
			{
				"type": "unocc",
				"energy": 0.07751,
				"method": "rhf"
			},
			{
				"type": "unocc",
				"energy": 0.09037,
				"method": "rhf"
			}
		],
		"cosmo_sigma_profile": { 
			"-0.025": 0.0,
			"-0.024": 0.0,
			"-0.023": 0.0,
			"-0.022": 0.0,
			"-0.021": 0.0,
			"-0.02": 0.0,
			"-0.019": 0.0,
			"-0.018": 0.0,
			"-0.017": 0.0,
			"-0.016": 0.0,
			"-0.015": 0.0,
			"-0.014": 0.0,
			"-0.013": 0.471709359435,
			"-0.012": 2.23762458398,
			"-0.011": 2.48606005352,
			"-0.01": 2.91680077499,
			"-0.009": 4.70279392573,
			"-0.008": 5.06060854578,
			"-0.007": 5.31143035382,
			"-0.006": 10.450026484,
			"-0.005": 13.0084659853,
			"-0.004": 14.1240514163,
			"-0.003": 12.9311342475,
			"-0.002": 9.94818969885,
			"-0.001": 10.199543183,
			"0.0": 8.84047947572,
			"0.001": 10.9644763907,
			"0.002": 12.6451619519,
			"0.003": 12.4259649104,
			"0.004": 17.7718990906,
			"0.005": 18.3086752546,
			"0.006": 8.29646333462,
			"0.007": 3.35542312194,
			"0.008": 3.00863349936,
			"0.009": 2.38114204984,
			"0.01": 2.31889797688,
			"0.011": 2.05434735756,
			"0.012": 1.79699556775,
			"0.013": 1.16463578498,
			"0.014": 0.976011666369,
			"0.015": 0.583210446085,
			"0.016": 0.00628281358001,
			"0.017": 0.0,
			"0.018": 0.0,
			"0.019": 0.0,
			"0.02": 0.0,
			"0.021": 0.0,
			"0.022": 0.0,
			"0.023": 0.0,
			"0.024": 0.0,
			"0.025": 0.0
		}
	}
}
