{
	 "smiles": "CC(C)(C)C1=CC=C(C=C1)C(C)(C)N", 
	 "Tm": 349.15, 
	 "num_atms": 35, 
	 "gaussian": { 
		 "optdone": 1, 
		 "sigma_profile": "yes", 
		 "theory": "DFT", 
		 "functional": "B3LYP", 
		 "basiset": "6-31G**", 
		 "properties": { 
			 "R2extent": 4082.5245, 
			 "electric_dipole_moment_norm": 1.20504968777, 
			 "electric_quadrupole_moment_norm": 5.52954610705, 
			 "total_energy": -562.813136554, 
			 "HOMO_LUMO_gap": 0.22995, 
			 "cosmo_polarized_energy": -7.07, 
			 "cosmo_cavitation_energy": 34.6, 
			 "cosmo_dispersion_energy": -24.18, 
			 "cosmo_repulsion_energy": 1.89, 
			 "cosmo_total_nonelectrostatic_energy": 12.31, 
			 "SMD_solvation_energy": 5.37 
		},
		"coords": [
			{
				"x": -2.036247833,
				"y": 0.1651659808,
				"z": -3.4720251055,
				"element": "C" 
			},
			{
				"x": -2.7283216218,
				"y": 0.4219444151,
				"z": -2.1121566222,
				"element": "C" 
			},
			{
				"x": -3.8329646258,
				"y": -0.6390008017,
				"z": -1.8925858078,
				"element": "C" 
			},
			{
				"x": -3.3985002402,
				"y": 1.8079823458,
				"z": -2.1688367377,
				"element": "C" 
			},
			{
				"x": -1.6889628383,
				"y": 0.3213417795,
				"z": -0.9810405864,
				"element": "C" 
			},
			{
				"x": -1.3975498512,
				"y": 1.3808395452,
				"z": -0.1099016864,
				"element": "C" 
			},
			{
				"x": -0.4484964479,
				"y": 1.2525318921,
				"z": 0.9045284592,
				"element": "C" 
			},
			{
				"x": 0.2613374755,
				"y": 0.0602705026,
				"z": 1.1048908667,
				"element": "C" 
			},
			{
				"x": -0.0288855364,
				"y": -0.9979008447,
				"z": 0.2358836418,
				"element": "C" 
			},
			{
				"x": -0.9776381957,
				"y": -0.8703321192,
				"z": -0.7786192914,
				"element": "C" 
			},
			{
				"x": 1.3092484267,
				"y": -0.0610503809,
				"z": 2.234955034,
				"element": "C" 
			},
			{
				"x": 2.42853941,
				"y": 0.9780425493,
				"z": 2.0177856276,
				"element": "C" 
			},
			{
				"x": 0.6299596872,
				"y": 0.1751662971,
				"z": 3.5996882829,
				"element": "C" 
			},
			{
				"x": 1.9704872884,
				"y": -1.3729883892,
				"z": 2.3209518469,
				"element": "N" 
			},
			{
				"x": -1.5734361033,
				"y": -0.8253804556,
				"z": -3.5120178912,
				"element": "H" 
			},
			{
				"x": -1.2528114789,
				"y": 0.907076577,
				"z": -3.6585827391,
				"element": "H" 
			},
			{
				"x": -2.7641563975,
				"y": 0.2262691637,
				"z": -4.2891832032,
				"element": "H" 
			},
			{
				"x": -3.4254138475,
				"y": -1.6542689824,
				"z": -1.8831172712,
				"element": "H" 
			},
			{
				"x": -4.3470080167,
				"y": -0.4771395537,
				"z": -0.939395146,
				"element": "H" 
			},
			{
				"x": -4.5784687053,
				"y": -0.5865118391,
				"z": -2.6943367249,
				"element": "H" 
			},
			{
				"x": -4.1275030362,
				"y": 1.8326103315,
				"z": -2.9854518624,
				"element": "H" 
			},
			{
				"x": -2.6707837126,
				"y": 2.6053178516,
				"z": -2.3524468404,
				"element": "H" 
			},
			{
				"x": -3.9336465348,
				"y": 2.0400726383,
				"z": -1.2421386608,
				"element": "H" 
			},
			{
				"x": -1.912707205,
				"y": 2.3294788626,
				"z": -0.2128432771,
				"element": "H" 
			},
			{
				"x": -0.2642542786,
				"y": 2.1075737932,
				"z": 1.5496120742,
				"element": "H" 
			},
			{
				"x": 0.4916067041,
				"y": -1.9441658744,
				"z": 0.3461554145,
				"element": "H" 
			},
			{
				"x": -1.1611084584,
				"y": -1.7258398478,
				"z": -1.4230429182,
				"element": "H" 
			},
			{
				"x": 2.0347239448,
				"y": 1.9977961383,
				"z": 2.0029779793,
				"element": "H" 
			},
			{
				"x": 2.9354427306,
				"y": 0.8051706842,
				"z": 1.0617815117,
				"element": "H" 
			},
			{
				"x": 3.1677853454,
				"y": 0.8961371022,
				"z": 2.8196404259,
				"element": "H" 
			},
			{
				"x": 0.1612971697,
				"y": 1.1615100416,
				"z": 3.6515184683,
				"element": "H" 
			},
			{
				"x": 1.3717475942,
				"y": 0.0937843813,
				"z": 4.3992398825,
				"element": "H" 
			},
			{
				"x": -0.151621199,
				"y": -0.5722996567,
				"z": 3.7763264374,
				"element": "H" 
			},
			{
				"x": 1.2828238228,
				"y": -2.1084538286,
				"z": 2.4697513405,
				"element": "H" 
			},
			{
				"x": 2.4457865646,
				"y": -1.5893502988,
				"z": 1.4473350784,
				"element": "H" 
			}
		],
		 "valence_orbital": [ 
			{
				"type": "occ",
				"energy": -0.31551,
				"method": "rhf"
			},
			{
				"type": "occ",
				"energy": -0.30944,
				"method": "rhf"
			},
			{
				"type": "occ",
				"energy": -0.24337,
				"method": "rhf"
			},
			{
				"type": "occ",
				"energy": -0.23551,
				"method": "rhf"
			},
			{
				"type": "occ",
				"energy": -0.22911,
				"method": "rhf"
			},
			{
				"type": "unocc",
				"energy": 0.00084,
				"method": "rhf"
			},
			{
				"type": "unocc",
				"energy": 0.00811,
				"method": "rhf"
			},
			{
				"type": "unocc",
				"energy": 0.07733,
				"method": "rhf"
			},
			{
				"type": "unocc",
				"energy": 0.08498,
				"method": "rhf"
			},
			{
				"type": "unocc",
				"energy": 0.11702,
				"method": "rhf"
			}
		],
		"cosmo_sigma_profile": { 
			"-0.025": 0.0,
			"-0.024": 0.0,
			"-0.023": 0.0,
			"-0.022": 0.0,
			"-0.021": 0.0,
			"-0.02": 0.0,
			"-0.019": 0.0,
			"-0.018": 0.0,
			"-0.017": 0.0,
			"-0.016": 0.0,
			"-0.015": 0.0,
			"-0.014": 0.0,
			"-0.013": 0.0,
			"-0.012": 0.0,
			"-0.011": 0.0,
			"-0.01": 0.0902036932686,
			"-0.009": 1.77472333511,
			"-0.008": 2.62587141714,
			"-0.007": 4.72757723428,
			"-0.006": 3.16839235695,
			"-0.005": 8.94569581003,
			"-0.004": 13.7063060766,
			"-0.003": 26.4060725783,
			"-0.002": 36.9030949836,
			"-0.001": 31.198089527,
			"0.0": 30.5228541423,
			"0.001": 38.5487373058,
			"0.002": 23.7991247066,
			"0.003": 7.79603417252,
			"0.004": 8.1356307024,
			"0.005": 7.09126014926,
			"0.006": 7.18357926965,
			"0.007": 7.30580494337,
			"0.008": 1.59770139397,
			"0.009": 0.483276255055,
			"0.01": 0.53695444836,
			"0.011": 0.906977525557,
			"0.012": 0.981541847415,
			"0.013": 0.274490989024,
			"0.014": 0.34002699938,
			"0.015": 0.999984541376,
			"0.016": 0.552867449407,
			"0.017": 0.412100086169,
			"0.018": 0.508022714155,
			"0.019": 0.316377065482,
			"0.02": 0.0654635703714,
			"0.021": 0.0,
			"0.022": 0.0,
			"0.023": 0.0,
			"0.024": 0.0,
			"0.025": 0.0
		}
	}
}
