{
	 "smiles": "COC(=O)CCC(=O)OC", 
	 "Tm": 292.35, 
	 "num_atms": 20, 
	 "gaussian": { 
		 "optdone": 1, 
		 "sigma_profile": "yes", 
		 "theory": "DFT", 
		 "functional": "B3LYP", 
		 "basiset": "6-31G**", 
		 "properties": { 
			 "R2extent": 2633.6515, 
			 "electric_dipole_moment_norm": 1.05417120526, 
			 "electric_quadrupole_moment_norm": 14.6852955578, 
			 "total_energy": -535.580193986, 
			 "HOMO_LUMO_gap": 0.2779, 
			 "cosmo_polarized_energy": -10.33, 
			 "cosmo_cavitation_energy": 24.67, 
			 "cosmo_dispersion_energy": -17.99, 
			 "cosmo_repulsion_energy": 1.51, 
			 "cosmo_total_nonelectrostatic_energy": 8.19, 
			 "SMD_solvation_energy": 7.48 
		},
		"coords": [
			{
				"x": 3.483135158,
				"y": 2.8472267622,
				"z": -0.8547752202,
				"element": "C" 
			},
			{
				"x": 2.5865822845,
				"y": 1.7524038148,
				"z": -1.1070450155,
				"element": "O" 
			},
			{
				"x": 1.9781289228,
				"y": 1.24027422,
				"z": -0.0156504857,
				"element": "C" 
			},
			{
				"x": 2.1741571557,
				"y": 1.6441450775,
				"z": 1.1114738311,
				"element": "O" 
			},
			{
				"x": 1.0164918992,
				"y": 0.1352761534,
				"z": -0.4002878252,
				"element": "C" 
			},
			{
				"x": 0.6212016857,
				"y": -0.7264808947,
				"z": 0.7960651577,
				"element": "C" 
			},
			{
				"x": -0.6237760347,
				"y": -1.5449309231,
				"z": 0.5242622113,
				"element": "C" 
			},
			{
				"x": -1.4256341988,
				"y": -1.336208356,
				"z": -0.3619686589,
				"element": "O" 
			},
			{
				"x": -0.7513124344,
				"y": -2.5433060349,
				"z": 1.4246031894,
				"element": "O" 
			},
			{
				"x": -1.9332102502,
				"y": -3.3495201726,
				"z": 1.2860143838,
				"element": "C" 
			},
			{
				"x": 2.9502701801,
				"y": 3.684760949,
				"z": -0.397466132,
				"element": "H" 
			},
			{
				"x": 4.290518925,
				"y": 2.5376673611,
				"z": -0.1864549853,
				"element": "H" 
			},
			{
				"x": 3.8803878446,
				"y": 3.1326930333,
				"z": -1.8287154729,
				"element": "H" 
			},
			{
				"x": 0.11996346,
				"y": 0.5984636767,
				"z": -0.8293885616,
				"element": "H" 
			},
			{
				"x": 1.4560544495,
				"y": -0.4587447342,
				"z": -1.2070194786,
				"element": "H" 
			},
			{
				"x": 1.4299652989,
				"y": -1.3949563718,
				"z": 1.1058164957,
				"element": "H" 
			},
			{
				"x": 0.4228760062,
				"y": -0.0823678059,
				"z": 1.6610583498,
				"element": "H" 
			},
			{
				"x": -1.8760666301,
				"y": -4.0943706085,
				"z": 2.0796094586,
				"element": "H" 
			},
			{
				"x": -1.956715625,
				"y": -3.8332511725,
				"z": 0.3063162622,
				"element": "H" 
			},
			{
				"x": -2.832418097,
				"y": -2.7383739738,
				"z": 1.3976524963,
				"element": "H" 
			}
		],
		 "valence_orbital": [ 
			{
				"type": "occ",
				"energy": -0.34898,
				"method": "rhf"
			},
			{
				"type": "occ",
				"energy": -0.30356,
				"method": "rhf"
			},
			{
				"type": "occ",
				"energy": -0.30322,
				"method": "rhf"
			},
			{
				"type": "occ",
				"energy": -0.2776,
				"method": "rhf"
			},
			{
				"type": "occ",
				"energy": -0.27134,
				"method": "rhf"
			},
			{
				"type": "unocc",
				"energy": 0.00656,
				"method": "rhf"
			},
			{
				"type": "unocc",
				"energy": 0.01744,
				"method": "rhf"
			},
			{
				"type": "unocc",
				"energy": 0.09993,
				"method": "rhf"
			},
			{
				"type": "unocc",
				"energy": 0.11238,
				"method": "rhf"
			},
			{
				"type": "unocc",
				"energy": 0.11948,
				"method": "rhf"
			}
		],
		"cosmo_sigma_profile": { 
			"-0.025": 0.0,
			"-0.024": 0.0,
			"-0.023": 0.0,
			"-0.022": 0.0,
			"-0.021": 0.0,
			"-0.02": 0.0,
			"-0.019": 0.0,
			"-0.018": 0.0,
			"-0.017": 0.0,
			"-0.016": 0.0,
			"-0.015": 0.0,
			"-0.014": 0.0,
			"-0.013": 0.0,
			"-0.012": 0.0,
			"-0.011": 0.0,
			"-0.01": 0.0,
			"-0.009": 0.0,
			"-0.008": 0.0,
			"-0.007": 2.21917602872,
			"-0.006": 16.8750223978,
			"-0.005": 23.9885530823,
			"-0.004": 23.8688290719,
			"-0.003": 24.3330754127,
			"-0.002": 14.4091204835,
			"-0.001": 10.9845363341,
			"0.0": 6.05850626293,
			"0.001": 8.15478761514,
			"0.002": 7.40238674839,
			"0.003": 6.19410162544,
			"0.004": 6.03850196472,
			"0.005": 5.8034114296,
			"0.006": 4.16008965253,
			"0.007": 4.48537421367,
			"0.008": 6.52722170621,
			"0.009": 4.44991066406,
			"0.01": 3.56541782404,
			"0.011": 6.3665232332,
			"0.012": 7.85775060165,
			"0.013": 0.308008490397,
			"0.014": 0.0,
			"0.015": 0.0,
			"0.016": 0.0,
			"0.017": 0.0,
			"0.018": 0.0,
			"0.019": 0.0,
			"0.02": 0.0,
			"0.021": 0.0,
			"0.022": 0.0,
			"0.023": 0.0,
			"0.024": 0.0,
			"0.025": 0.0
		}
	}
}
