{
	 "smiles": "CN1N=C(C)C2=C1SC(=C2)C(Cl)=O", 
	 "Tm": 439.15, 
	 "num_atms": 20, 
	 "gaussian": { 
		 "optdone": 1, 
		 "sigma_profile": "yes", 
		 "theory": "DFT", 
		 "functional": "B3LYP", 
		 "basiset": "6-31G**", 
		 "properties": { 
			 "R2extent": 5965.7151, 
			 "electric_dipole_moment_norm": 4.6125919102, 
			 "electric_quadrupole_moment_norm": 23.1054882835, 
			 "total_energy": -1352.15507608, 
			 "HOMO_LUMO_gap": 0.16013, 
			 "cosmo_polarized_energy": -9.84, 
			 "cosmo_cavitation_energy": 28.32, 
			 "cosmo_dispersion_energy": -21.17, 
			 "cosmo_repulsion_energy": 1.65, 
			 "cosmo_total_nonelectrostatic_energy": 8.79, 
			 "SMD_solvation_energy": 4.38 
		},
		"coords": [
			{
				"x": 1.0184834235,
				"y": -2.0285482086,
				"z": 0.4721916323,
				"element": "C" 
			},
			{
				"x": 1.3057766549,
				"y": -0.6642786378,
				"z": 0.0753028123,
				"element": "N" 
			},
			{
				"x": 1.5629549911,
				"y": -0.3812583526,
				"z": -1.2464860909,
				"element": "N" 
			},
			{
				"x": 1.7902994408,
				"y": 0.9235814532,
				"z": -1.3291638765,
				"element": "C" 
			},
			{
				"x": 2.1050356372,
				"y": 1.5656798307,
				"z": -2.6428799644,
				"element": "C" 
			},
			{
				"x": 1.6829593018,
				"y": 1.5254127807,
				"z": -0.0351529483,
				"element": "C" 
			},
			{
				"x": 1.3713496029,
				"y": 0.4565201875,
				"z": 0.8188882869,
				"element": "C" 
			},
			{
				"x": 1.1800895747,
				"y": 0.9075643549,
				"z": 2.4837804129,
				"element": "S" 
			},
			{
				"x": 1.5313325635,
				"y": 2.5949362636,
				"z": 2.019511925,
				"element": "C" 
			},
			{
				"x": 1.7719166671,
				"y": 2.7497783621,
				"z": 0.6685065666,
				"element": "C" 
			},
			{
				"x": 1.5619426591,
				"y": 3.6953814176,
				"z": 2.9627668255,
				"element": "C" 
			},
			{
				"x": 1.2026147773,
				"y": 3.189900317,
				"z": 4.6945161633,
				"element": "Cl" 
			},
			{
				"x": 1.7898474011,
				"y": 4.8445259517,
				"z": 2.7160703894,
				"element": "O" 
			},
			{
				"x": 0.1281841592,
				"y": -2.3911346527,
				"z": -0.0480639442,
				"element": "H" 
			},
			{
				"x": 0.8430128358,
				"y": -2.0546315214,
				"z": 1.5489430224,
				"element": "H" 
			},
			{
				"x": 1.8643178814,
				"y": -2.6763735376,
				"z": 0.227967524,
				"element": "H" 
			},
			{
				"x": 2.1067767556,
				"y": 0.8114922235,
				"z": -3.4321702051,
				"element": "H" 
			},
			{
				"x": 1.3658155728,
				"y": 2.3337535253,
				"z": -2.895880026,
				"element": "H" 
			},
			{
				"x": 3.0871674735,
				"y": 2.0508246913,
				"z": -2.6217559259,
				"element": "H" 
			},
			{
				"x": 1.9990226265,
				"y": 3.7197735516,
				"z": 0.2429074207,
				"element": "H" 
			}
		],
		 "valence_orbital": [ 
			{
				"type": "occ",
				"energy": -0.30832,
				"method": "rhf"
			},
			{
				"type": "occ",
				"energy": -0.30048,
				"method": "rhf"
			},
			{
				"type": "occ",
				"energy": -0.29034,
				"method": "rhf"
			},
			{
				"type": "occ",
				"energy": -0.25375,
				"method": "rhf"
			},
			{
				"type": "occ",
				"energy": -0.2365,
				"method": "rhf"
			},
			{
				"type": "unocc",
				"energy": -0.07637,
				"method": "rhf"
			},
			{
				"type": "unocc",
				"energy": -0.01097,
				"method": "rhf"
			},
			{
				"type": "unocc",
				"energy": 0.00024,
				"method": "rhf"
			},
			{
				"type": "unocc",
				"energy": 0.03003,
				"method": "rhf"
			},
			{
				"type": "unocc",
				"energy": 0.03951,
				"method": "rhf"
			}
		],
		"cosmo_sigma_profile": { 
			"-0.025": 0.0,
			"-0.024": 0.0,
			"-0.023": 0.0,
			"-0.022": 0.0,
			"-0.021": 0.0,
			"-0.02": 0.0,
			"-0.019": 0.0,
			"-0.018": 0.0,
			"-0.017": 0.0,
			"-0.016": 0.0,
			"-0.015": 0.0,
			"-0.014": 0.0,
			"-0.013": 0.0,
			"-0.012": 0.0,
			"-0.011": 0.0,
			"-0.01": 0.0117759800064,
			"-0.009": 1.77276638187,
			"-0.008": 4.54838286496,
			"-0.007": 5.65535581051,
			"-0.006": 9.98205070233,
			"-0.005": 14.6916861111,
			"-0.004": 20.0442222812,
			"-0.003": 17.3591895647,
			"-0.002": 14.0305853651,
			"-0.001": 21.2127109422,
			"0.0": 23.2562111441,
			"0.001": 22.8906042936,
			"0.002": 17.2278702606,
			"0.003": 13.6131985445,
			"0.004": 11.800117882,
			"0.005": 8.21079532782,
			"0.006": 4.87388877179,
			"0.007": 3.61017495119,
			"0.008": 4.08406814298,
			"0.009": 5.96670283662,
			"0.01": 2.52419976012,
			"0.011": 0.923584859671,
			"0.012": 1.08405045564,
			"0.013": 1.02768422123,
			"0.014": 0.643200801712,
			"0.015": 0.360225773446,
			"0.016": 0.0,
			"0.017": 0.0,
			"0.018": 0.0,
			"0.019": 0.0,
			"0.02": 0.0,
			"0.021": 0.0,
			"0.022": 0.0,
			"0.023": 0.0,
			"0.024": 0.0,
			"0.025": 0.0
		}
	}
}
