{
	 "smiles": "NC(=O)C1=CN=CN1C1=CC=CC=C1", 
	 "Tm": 456.15, 
	 "num_atms": 23, 
	 "gaussian": { 
		 "optdone": 1, 
		 "sigma_profile": "yes", 
		 "theory": "DFT", 
		 "functional": "B3LYP", 
		 "basiset": "6-31G**", 
		 "properties": { 
			 "R2extent": 3002.4061, 
			 "electric_dipole_moment_norm": 1.95978592964, 
			 "electric_quadrupole_moment_norm": 21.2321483831, 
			 "total_energy": -625.973488102, 
			 "HOMO_LUMO_gap": 0.20446, 
			 "cosmo_polarized_energy": -17.58, 
			 "cosmo_cavitation_energy": 27.72, 
			 "cosmo_dispersion_energy": -19.89, 
			 "cosmo_repulsion_energy": 1.56, 
			 "cosmo_total_nonelectrostatic_energy": 9.4, 
			 "SMD_solvation_energy": 4.11 
		},
		"coords": [
			{
				"x": -0.4020155855,
				"y": 1.1747619397,
				"z": 2.5209624919,
				"element": "N" 
			},
			{
				"x": -0.5791611017,
				"y": 0.7313648349,
				"z": 1.2307966294,
				"element": "C" 
			},
			{
				"x": -0.54155999,
				"y": 1.4897349543,
				"z": 0.2688199855,
				"element": "O" 
			},
			{
				"x": -0.8699474323,
				"y": -0.7145476556,
				"z": 1.1226794102,
				"element": "C" 
			},
			{
				"x": -1.3439725216,
				"y": -1.6133144064,
				"z": 2.0616006283,
				"element": "C" 
			},
			{
				"x": -1.5788120041,
				"y": -2.8398785794,
				"z": 1.5066610529,
				"element": "N" 
			},
			{
				"x": -1.257165391,
				"y": -2.6978580634,
				"z": 0.2360058091,
				"element": "C" 
			},
			{
				"x": -0.8280547748,
				"y": -1.4348880412,
				"z": -0.0698976353,
				"element": "N" 
			},
			{
				"x": -0.3833474277,
				"y": -1.0384128019,
				"z": -1.3725432017,
				"element": "C" 
			},
			{
				"x": -1.2252603891,
				"y": -1.2572626141,
				"z": -2.4649493057,
				"element": "C" 
			},
			{
				"x": -0.7819583225,
				"y": -0.9445747555,
				"z": -3.7510275339,
				"element": "C" 
			},
			{
				"x": 0.4903854082,
				"y": -0.4064309254,
				"z": -3.9424552742,
				"element": "C" 
			},
			{
				"x": 1.3236981468,
				"y": -0.1846941913,
				"z": -2.8426823092,
				"element": "C" 
			},
			{
				"x": 0.8946429798,
				"y": -0.5052370801,
				"z": -1.5572605704,
				"element": "C" 
			},
			{
				"x": -0.1348928186,
				"y": 0.5360331991,
				"z": 3.2533593358,
				"element": "H" 
			},
			{
				"x": -0.1268839845,
				"y": 2.1409250982,
				"z": 2.6183628679,
				"element": "H" 
			},
			{
				"x": -1.5657591295,
				"y": -1.4175396218,
				"z": 3.102673728,
				"element": "H" 
			},
			{
				"x": -1.2844801999,
				"y": -3.4754753609,
				"z": -0.5149431106,
				"element": "H" 
			},
			{
				"x": -2.2231391934,
				"y": -1.6517688525,
				"z": -2.3021537994,
				"element": "H" 
			},
			{
				"x": -1.4382040944,
				"y": -1.113416391,
				"z": -4.5994598959,
				"element": "H" 
			},
			{
				"x": 0.8318866909,
				"y": -0.1574536352,
				"z": -4.9426571649,
				"element": "H" 
			},
			{
				"x": 2.3148688366,
				"y": 0.2347459011,
				"z": -2.9861172453,
				"element": "H" 
			},
			{
				"x": 1.5400322982,
				"y": -0.3438129515,
				"z": -0.7013748925,
				"element": "H" 
			}
		],
		 "valence_orbital": [ 
			{
				"type": "occ",
				"energy": -0.27289,
				"method": "rhf"
			},
			{
				"type": "occ",
				"energy": -0.25969,
				"method": "rhf"
			},
			{
				"type": "occ",
				"energy": -0.25287,
				"method": "rhf"
			},
			{
				"type": "occ",
				"energy": -0.24747,
				"method": "rhf"
			},
			{
				"type": "occ",
				"energy": -0.23584,
				"method": "rhf"
			},
			{
				"type": "unocc",
				"energy": -0.03138,
				"method": "rhf"
			},
			{
				"type": "unocc",
				"energy": -0.01037,
				"method": "rhf"
			},
			{
				"type": "unocc",
				"energy": -0.00563,
				"method": "rhf"
			},
			{
				"type": "unocc",
				"energy": 0.04081,
				"method": "rhf"
			},
			{
				"type": "unocc",
				"energy": 0.07738,
				"method": "rhf"
			}
		],
		"cosmo_sigma_profile": { 
			"-0.025": 0.0,
			"-0.024": 0.0,
			"-0.023": 0.0,
			"-0.022": 0.0,
			"-0.021": 0.0,
			"-0.02": 0.0,
			"-0.019": 0.0,
			"-0.018": 0.0,
			"-0.017": 0.0,
			"-0.016": 0.0,
			"-0.015": 0.0141906809598,
			"-0.014": 1.6637166443,
			"-0.013": 2.46971317644,
			"-0.012": 1.61405503356,
			"-0.011": 3.75956735885,
			"-0.01": 2.86679982232,
			"-0.009": 4.15968669046,
			"-0.008": 4.17200078418,
			"-0.007": 7.96206339933,
			"-0.006": 15.2547410119,
			"-0.005": 16.5371291107,
			"-0.004": 14.3440949312,
			"-0.003": 12.3819975655,
			"-0.002": 11.6940709572,
			"-0.001": 11.6813101776,
			"0.0": 12.3410094835,
			"0.001": 13.8976744379,
			"0.002": 13.8224573547,
			"0.003": 12.0543671124,
			"0.004": 13.4312519643,
			"0.005": 8.19743689698,
			"0.006": 4.68014896143,
			"0.007": 3.51956569591,
			"0.008": 3.62538013246,
			"0.009": 3.17308293303,
			"0.01": 2.82374866291,
			"0.011": 3.66634046015,
			"0.012": 3.63308737148,
			"0.013": 4.98353020191,
			"0.014": 4.50698959792,
			"0.015": 1.49970856883,
			"0.016": 1.01556108263,
			"0.017": 0.66630864392,
			"0.018": 0.0,
			"0.019": 0.0,
			"0.02": 0.0,
			"0.021": 0.0,
			"0.022": 0.0,
			"0.023": 0.0,
			"0.024": 0.0,
			"0.025": 0.0
		}
	}
}
