{
	 "smiles": "CN1CCC(O)CC1", 
	 "Tm": 301.65, 
	 "num_atms": 21, 
	 "gaussian": { 
		 "optdone": 1, 
		 "sigma_profile": "yes", 
		 "theory": "DFT", 
		 "functional": "B3LYP", 
		 "basiset": "6-31G**", 
		 "properties": { 
			 "R2extent": 1249.1083, 
			 "electric_dipole_moment_norm": 1.33629320884, 
			 "electric_quadrupole_moment_norm": 7.32785056139, 
			 "total_energy": -366.430091818, 
			 "HOMO_LUMO_gap": 0.28363, 
			 "cosmo_polarized_energy": -6.78, 
			 "cosmo_cavitation_energy": 21.59, 
			 "cosmo_dispersion_energy": -16.38, 
			 "cosmo_repulsion_energy": 1.37, 
			 "cosmo_total_nonelectrostatic_energy": 6.58, 
			 "SMD_solvation_energy": 1.28 
		},
		"coords": [
			{
				"x": 1.1023588828,
				"y": 2.3832000536,
				"z": -0.2220971406,
				"element": "C" 
			},
			{
				"x": 0.237759262,
				"y": 1.2823002498,
				"z": 0.1620537898,
				"element": "N" 
			},
			{
				"x": 0.2581443522,
				"y": 0.1736352195,
				"z": -0.7903011018,
				"element": "C" 
			},
			{
				"x": -0.3723650482,
				"y": -1.084292661,
				"z": -0.1490016332,
				"element": "C" 
			},
			{
				"x": -1.3712804314,
				"y": -0.7119177711,
				"z": 0.9652361458,
				"element": "C" 
			},
			{
				"x": -2.3474316353,
				"y": -1.7318335981,
				"z": 1.1705787796,
				"element": "O" 
			},
			{
				"x": -2.1122109623,
				"y": 0.5620400856,
				"z": 0.5751755249,
				"element": "C" 
			},
			{
				"x": -1.1294715782,
				"y": 1.743720437,
				"z": 0.4306025778,
				"element": "C" 
			},
			{
				"x": 1.0902926266,
				"y": 3.1512876739,
				"z": 0.5590299539,
				"element": "H" 
			},
			{
				"x": 2.1330053524,
				"y": 2.0302972224,
				"z": -0.3326509346,
				"element": "H" 
			},
			{
				"x": 0.8014814667,
				"y": 2.8676114472,
				"z": -1.1724343788,
				"element": "H" 
			},
			{
				"x": 1.2990423704,
				"y": -0.0223905759,
				"z": -1.0675638146,
				"element": "H" 
			},
			{
				"x": -0.2688150746,
				"y": 0.4326415719,
				"z": -1.7306407162,
				"element": "H" 
			},
			{
				"x": -0.9173982709,
				"y": -1.6580725949,
				"z": -0.9072915338,
				"element": "H" 
			},
			{
				"x": 0.408671906,
				"y": -1.7379276858,
				"z": 0.2580861069,
				"element": "H" 
			},
			{
				"x": -0.8177651624,
				"y": -0.5262025487,
				"z": 1.89770751,
				"element": "H" 
			},
			{
				"x": -1.8806394518,
				"y": -2.539042031,
				"z": 1.4229572671,
				"element": "H" 
			},
			{
				"x": -2.6346742461,
				"y": 0.3717340208,
				"z": -0.3700526699,
				"element": "H" 
			},
			{
				"x": -2.8817774545,
				"y": 0.7888417191,
				"z": 1.3189532946,
				"element": "H" 
			},
			{
				"x": -1.1028506612,
				"y": 2.335226767,
				"z": 1.3545976599,
				"element": "H" 
			},
			{
				"x": -1.4902762422,
				"y": 2.4213429985,
				"z": -0.3684446869,
				"element": "H" 
			}
		],
		 "valence_orbital": [ 
			{
				"type": "occ",
				"energy": -0.33307,
				"method": "rhf"
			},
			{
				"type": "occ",
				"energy": -0.32384,
				"method": "rhf"
			},
			{
				"type": "occ",
				"energy": -0.30378,
				"method": "rhf"
			},
			{
				"type": "occ",
				"energy": -0.25874,
				"method": "rhf"
			},
			{
				"type": "occ",
				"energy": -0.20508,
				"method": "rhf"
			},
			{
				"type": "unocc",
				"energy": 0.07855,
				"method": "rhf"
			},
			{
				"type": "unocc",
				"energy": 0.08137,
				"method": "rhf"
			},
			{
				"type": "unocc",
				"energy": 0.11854,
				"method": "rhf"
			},
			{
				"type": "unocc",
				"energy": 0.12492,
				"method": "rhf"
			},
			{
				"type": "unocc",
				"energy": 0.13018,
				"method": "rhf"
			}
		],
		"cosmo_sigma_profile": { 
			"-0.025": 0.0,
			"-0.024": 0.0,
			"-0.023": 0.0,
			"-0.022": 0.0,
			"-0.021": 0.0,
			"-0.02": 0.0,
			"-0.019": 0.0,
			"-0.018": 0.0,
			"-0.017": 0.0,
			"-0.016": 0.0,
			"-0.015": 0.641655858985,
			"-0.014": 1.11454026617,
			"-0.013": 0.785896451039,
			"-0.012": 0.765192816303,
			"-0.011": 0.920853225667,
			"-0.01": 0.846668907793,
			"-0.009": 0.823551465916,
			"-0.008": 0.971078267956,
			"-0.007": 0.956979659381,
			"-0.006": 0.674382751596,
			"-0.005": 1.31528834429,
			"-0.004": 5.05592933234,
			"-0.003": 17.4657757958,
			"-0.002": 26.0972995792,
			"-0.001": 34.3055917464,
			"0.0": 30.7657031005,
			"0.001": 11.2445970163,
			"0.002": 2.92842949621,
			"0.003": 3.050080031,
			"0.004": 2.38048087255,
			"0.005": 2.6413860661,
			"0.006": 1.82933819001,
			"0.007": 1.85142944435,
			"0.008": 1.93923879018,
			"0.009": 2.39717243576,
			"0.01": 2.18412707874,
			"0.011": 1.75202500862,
			"0.012": 1.63660508229,
			"0.013": 1.90678353239,
			"0.014": 2.71868438373,
			"0.015": 1.31413920165,
			"0.016": 0.1012726337,
			"0.017": 0.0,
			"0.018": 0.0,
			"0.019": 0.0,
			"0.02": 0.0,
			"0.021": 0.0,
			"0.022": 0.0,
			"0.023": 0.0,
			"0.024": 0.0,
			"0.025": 0.0
		}
	}
}
