{
	 "smiles": "CC(C)NC(=O)CC1(CCCC1)C(O)=O", 
	 "Tm": 413.15, 
	 "num_atms": 34, 
	 "gaussian": { 
		 "optdone": 1, 
		 "sigma_profile": "yes", 
		 "theory": "DFT", 
		 "functional": "B3LYP", 
		 "basiset": "6-31G**", 
		 "properties": { 
			 "R2extent": 4607.2608, 
			 "electric_dipole_moment_norm": 8.50510910806, 
			 "electric_quadrupole_moment_norm": 29.4496202879, 
			 "total_energy": -711.0910614, 
			 "HOMO_LUMO_gap": 0.23524, 
			 "cosmo_polarized_energy": -18.3, 
			 "cosmo_cavitation_energy": 33.72, 
			 "cosmo_dispersion_energy": -23.58, 
			 "cosmo_repulsion_energy": 1.85, 
			 "cosmo_total_nonelectrostatic_energy": 11.99, 
			 "SMD_solvation_energy": 6.32 
		},
		"coords": [
			{
				"x": 3.1049712501,
				"y": 1.5242128816,
				"z": -0.2836516844,
				"element": "C" 
			},
			{
				"x": 3.4889955798,
				"y": 0.3813194979,
				"z": -1.2366486136,
				"element": "C" 
			},
			{
				"x": 2.7876693046,
				"y": 0.4719700272,
				"z": -2.5996263138,
				"element": "C" 
			},
			{
				"x": 3.3849130208,
				"y": -0.9534671051,
				"z": -0.6094419335,
				"element": "N" 
			},
			{
				"x": 2.3342822339,
				"y": -1.7251247425,
				"z": -0.2289334315,
				"element": "C" 
			},
			{
				"x": 2.5731384674,
				"y": -2.8272595038,
				"z": 0.2938324521,
				"element": "O" 
			},
			{
				"x": 0.9099133328,
				"y": -1.2432367767,
				"z": -0.4702224625,
				"element": "C" 
			},
			{
				"x": -0.1649055166,
				"y": -1.6642057288,
				"z": 0.577086452,
				"element": "C" 
			},
			{
				"x": -1.3925593175,
				"y": -0.6947852925,
				"z": 0.4911646465,
				"element": "C" 
			},
			{
				"x": -1.4833780482,
				"y": 0.0246008026,
				"z": 1.8532162901,
				"element": "C" 
			},
			{
				"x": -0.8633625542,
				"y": -0.9810883973,
				"z": 2.8327030687,
				"element": "C" 
			},
			{
				"x": 0.3470542803,
				"y": -1.5078564514,
				"z": 2.0514206375,
				"element": "C" 
			},
			{
				"x": -0.6529998314,
				"y": -3.1304065711,
				"z": 0.3675704791,
				"element": "C" 
			},
			{
				"x": 0.2918627468,
				"y": -4.0698745189,
				"z": 0.3021313775,
				"element": "O" 
			},
			{
				"x": -1.8284390759,
				"y": -3.4278961753,
				"z": 0.3020721964,
				"element": "O" 
			},
			{
				"x": 2.0342110119,
				"y": 1.5386060541,
				"z": -0.0611672816,
				"element": "H" 
			},
			{
				"x": 3.3590934911,
				"y": 2.4869156908,
				"z": -0.7384814984,
				"element": "H" 
			},
			{
				"x": 3.6474028076,
				"y": 1.4381131128,
				"z": 0.6620233285,
				"element": "H" 
			},
			{
				"x": 4.5629347802,
				"y": 0.4788460657,
				"z": -1.4299113228,
				"element": "H" 
			},
			{
				"x": 3.0897629069,
				"y": -0.356220676,
				"z": -3.2468352947,
				"element": "H" 
			},
			{
				"x": 1.6985843822,
				"y": 0.4586299757,
				"z": -2.5100080569,
				"element": "H" 
			},
			{
				"x": 3.0651431002,
				"y": 1.4092824666,
				"z": -3.0918264736,
				"element": "H" 
			},
			{
				"x": 4.2617757324,
				"y": -1.4185897502,
				"z": -0.4081978996,
				"element": "H" 
			},
			{
				"x": 0.6144113372,
				"y": -1.5917147498,
				"z": -1.4692603714,
				"element": "H" 
			},
			{
				"x": 0.9082816722,
				"y": -0.1538242999,
				"z": -0.519599603,
				"element": "H" 
			},
			{
				"x": -1.3034811375,
				"y": 0.0054907692,
				"z": -0.3460741968,
				"element": "H" 
			},
			{
				"x": -2.2849282415,
				"y": -1.2992675533,
				"z": 0.3206383844,
				"element": "H" 
			},
			{
				"x": -0.8870929782,
				"y": 0.9472068939,
				"z": 1.8489330961,
				"element": "H" 
			},
			{
				"x": -2.5098850574,
				"y": 0.3053855259,
				"z": 2.1084467225,
				"element": "H" 
			},
			{
				"x": -1.5684773306,
				"y": -1.7980514596,
				"z": 3.026892412,
				"element": "H" 
			},
			{
				"x": -0.5872131001,
				"y": -0.5428756299,
				"z": 3.7972313611,
				"element": "H" 
			},
			{
				"x": 0.7655946981,
				"y": -2.4340349102,
				"z": 2.4516608703,
				"element": "H" 
			},
			{
				"x": 1.1491851813,
				"y": -0.7579713947,
				"z": 2.0773416296,
				"element": "H" 
			},
			{
				"x": 1.2061408715,
				"y": -3.674728077,
				"z": 0.3656210336,
				"element": "H" 
			}
		],
		 "valence_orbital": [ 
			{
				"type": "occ",
				"energy": -0.31243,
				"method": "rhf"
			},
			{
				"type": "occ",
				"energy": -0.28282,
				"method": "rhf"
			},
			{
				"type": "occ",
				"energy": -0.27694,
				"method": "rhf"
			},
			{
				"type": "occ",
				"energy": -0.27527,
				"method": "rhf"
			},
			{
				"type": "occ",
				"energy": -0.24043,
				"method": "rhf"
			},
			{
				"type": "unocc",
				"energy": -0.00519,
				"method": "rhf"
			},
			{
				"type": "unocc",
				"energy": 0.03323,
				"method": "rhf"
			},
			{
				"type": "unocc",
				"energy": 0.04778,
				"method": "rhf"
			},
			{
				"type": "unocc",
				"energy": 0.0586,
				"method": "rhf"
			},
			{
				"type": "unocc",
				"energy": 0.09786,
				"method": "rhf"
			}
		],
		"cosmo_sigma_profile": { 
			"-0.025": 0.0,
			"-0.024": 0.0,
			"-0.023": 0.0,
			"-0.022": 0.0,
			"-0.021": 0.0,
			"-0.02": 0.0,
			"-0.019": 0.0,
			"-0.018": 0.0,
			"-0.017": 0.0,
			"-0.016": 0.0,
			"-0.015": 0.0,
			"-0.014": 0.590794435113,
			"-0.013": 1.34478303249,
			"-0.012": 0.879414851525,
			"-0.011": 1.6446173518,
			"-0.01": 0.823978959582,
			"-0.009": 1.20596743279,
			"-0.008": 1.23154641585,
			"-0.007": 5.07580741978,
			"-0.006": 7.95579999194,
			"-0.005": 11.3131048117,
			"-0.004": 21.9339130811,
			"-0.003": 29.8269648893,
			"-0.002": 30.9948091041,
			"-0.001": 32.1305969719,
			"0.0": 33.0995797052,
			"0.001": 23.6118880449,
			"0.002": 6.83564270014,
			"0.003": 4.72777109163,
			"0.004": 4.03700152816,
			"0.005": 3.08543834606,
			"0.006": 3.01560647558,
			"0.007": 3.51604674504,
			"0.008": 4.04222466496,
			"0.009": 3.24884180256,
			"0.01": 4.56536047014,
			"0.011": 4.47110311787,
			"0.012": 7.6451970181,
			"0.013": 6.64652924473,
			"0.014": 1.92551810412,
			"0.015": 0.378298376972,
			"0.016": 0.0,
			"0.017": 0.0,
			"0.018": 0.0,
			"0.019": 0.0,
			"0.02": 0.0,
			"0.021": 0.0,
			"0.022": 0.0,
			"0.023": 0.0,
			"0.024": 0.0,
			"0.025": 0.0
		}
	}
}
