{
	 "smiles": "CNC1=NC=C(Br)C=C1", 
	 "Tm": 343.15, 
	 "num_atms": 16, 
	 "gaussian": { 
		 "optdone": 1, 
		 "sigma_profile": "yes", 
		 "theory": "DFT", 
		 "functional": "B3LYP", 
		 "basiset": "6-31G**", 
		 "properties": { 
			 "R2extent": 3857.1129, 
			 "electric_dipole_moment_norm": 3.47233305718, 
			 "electric_quadrupole_moment_norm": 6.84192519106, 
			 "total_energy": -2913.76403322, 
			 "HOMO_LUMO_gap": 0.18256, 
			 "cosmo_polarized_energy": -8.34, 
			 "cosmo_cavitation_energy": 22.23, 
			 "cosmo_dispersion_energy": -17.14, 
			 "cosmo_repulsion_energy": 1.41, 
			 "cosmo_total_nonelectrostatic_energy": 6.51, 
			 "SMD_solvation_energy": 1.23 
		},
		"coords": [
			{
				"x": -0.6256512564,
				"y": -2.0994812932,
				"z": 1.3814566645,
				"element": "C" 
			},
			{
				"x": -1.0717261361,
				"y": -0.7641202921,
				"z": 1.7390118777,
				"element": "N" 
			},
			{
				"x": -0.4119795722,
				"y": 0.3612536691,
				"z": 1.3085385031,
				"element": "C" 
			},
			{
				"x": 0.7807193936,
				"y": 0.1858205039,
				"z": 0.7167868385,
				"element": "N" 
			},
			{
				"x": 1.4632641784,
				"y": 1.2670108547,
				"z": 0.323168785,
				"element": "C" 
			},
			{
				"x": 0.9907267201,
				"y": 2.5630768254,
				"z": 0.4879325497,
				"element": "C" 
			},
			{
				"x": 2.0241257096,
				"y": 4.052023197,
				"z": -0.1118783652,
				"element": "Br" 
			},
			{
				"x": -0.2550653966,
				"y": 2.7558052488,
				"z": 1.0957802166,
				"element": "C" 
			},
			{
				"x": -0.9683289416,
				"y": 1.6473580919,
				"z": 1.5143971405,
				"element": "C" 
			},
			{
				"x": -0.6888831731,
				"y": -2.2951154817,
				"z": 0.3021925628,
				"element": "H" 
			},
			{
				"x": -1.2453823305,
				"y": -2.8262408431,
				"z": 1.9119065177,
				"element": "H" 
			},
			{
				"x": 0.4153280471,
				"y": -2.2360932652,
				"z": 1.6812370358,
				"element": "H" 
			},
			{
				"x": -2.0479996729,
				"y": -0.6500744733,
				"z": 1.9620078102,
				"element": "H" 
			},
			{
				"x": 2.4266211762,
				"y": 1.088939061,
				"z": -0.148785372,
				"element": "H" 
			},
			{
				"x": -0.6505723093,
				"y": 3.7559685738,
				"z": 1.2359397647,
				"element": "H" 
			},
			{
				"x": -1.9350964364,
				"y": 1.7608696229,
				"z": 1.9967074703,
				"element": "H" 
			}
		],
		 "valence_orbital": [ 
			{
				"type": "occ",
				"energy": -0.28837,
				"method": "rhf"
			},
			{
				"type": "occ",
				"energy": -0.28699,
				"method": "rhf"
			},
			{
				"type": "occ",
				"energy": -0.27542,
				"method": "rhf"
			},
			{
				"type": "occ",
				"energy": -0.25925,
				"method": "rhf"
			},
			{
				"type": "occ",
				"energy": -0.20551,
				"method": "rhf"
			},
			{
				"type": "unocc",
				"energy": -0.02295,
				"method": "rhf"
			},
			{
				"type": "unocc",
				"energy": 0.00229,
				"method": "rhf"
			},
			{
				"type": "unocc",
				"energy": 0.01306,
				"method": "rhf"
			},
			{
				"type": "unocc",
				"energy": 0.07921,
				"method": "rhf"
			},
			{
				"type": "unocc",
				"energy": 0.12034,
				"method": "rhf"
			}
		],
		"cosmo_sigma_profile": { 
			"-0.025": 0.0,
			"-0.024": 0.0,
			"-0.023": 0.0,
			"-0.022": 0.0,
			"-0.021": 0.0,
			"-0.02": 0.0,
			"-0.019": 0.0,
			"-0.018": 0.0,
			"-0.017": 0.0,
			"-0.016": 0.0,
			"-0.015": 0.0,
			"-0.014": 0.738821792599,
			"-0.013": 1.16636757438,
			"-0.012": 1.80401151522,
			"-0.011": 0.99567204783,
			"-0.01": 1.43468400901,
			"-0.009": 2.35177113402,
			"-0.008": 2.32186174036,
			"-0.007": 4.98831040566,
			"-0.006": 6.65079795064,
			"-0.005": 8.08235089687,
			"-0.004": 9.82852804091,
			"-0.003": 11.3057541504,
			"-0.002": 13.733251893,
			"-0.001": 14.1651024327,
			"0.0": 11.0394575,
			"0.001": 12.4423974206,
			"0.002": 19.4466031099,
			"0.003": 18.2299701581,
			"0.004": 13.8504080035,
			"0.005": 12.9513029292,
			"0.006": 2.99882863776,
			"0.007": 1.18528850417,
			"0.008": 2.90652173205,
			"0.009": 1.59203810125,
			"0.01": 1.34368415072,
			"0.011": 0.946783043493,
			"0.012": 0.716754311939,
			"0.013": 0.678172945463,
			"0.014": 0.602367439723,
			"0.015": 0.040573398361,
			"0.016": 0.0,
			"0.017": 0.0,
			"0.018": 0.0,
			"0.019": 0.0,
			"0.02": 0.0,
			"0.021": 0.0,
			"0.022": 0.0,
			"0.023": 0.0,
			"0.024": 0.0,
			"0.025": 0.0
		}
	}
}
