{
	 "smiles": "O=CC1=CC2=CC=CC=C2N=C1", 
	 "Tm": 342.65, 
	 "num_atms": 19, 
	 "gaussian": { 
		 "optdone": 1, 
		 "sigma_profile": "yes", 
		 "theory": "DFT", 
		 "functional": "B3LYP", 
		 "basiset": "6-31G**", 
		 "properties": { 
			 "R2extent": 2171.8723, 
			 "electric_dipole_moment_norm": 4.48798338121, 
			 "electric_quadrupole_moment_norm": 5.80641495072, 
			 "total_energy": -515.253708511, 
			 "HOMO_LUMO_gap": 0.16594, 
			 "cosmo_polarized_energy": -10.66, 
			 "cosmo_cavitation_energy": 23.79, 
			 "cosmo_dispersion_energy": -17.61, 
			 "cosmo_repulsion_energy": 1.36, 
			 "cosmo_total_nonelectrostatic_energy": 7.54, 
			 "SMD_solvation_energy": 3.5 
		},
		"coords": [
			{
				"x": 2.8568237598,
				"y": -0.3880573752,
				"z": 2.5866819341,
				"element": "O" 
			},
			{
				"x": 2.1130613748,
				"y": -0.9603353384,
				"z": 1.8134175025,
				"element": "C" 
			},
			{
				"x": 1.0913048546,
				"y": -0.2905730873,
				"z": 0.9827319185,
				"element": "C" 
			},
			{
				"x": 0.2870276054,
				"y": -1.0155432363,
				"z": 0.1274147861,
				"element": "C" 
			},
			{
				"x": -0.6825780893,
				"y": -0.3460957952,
				"z": -0.6556170404,
				"element": "C" 
			},
			{
				"x": -1.551349934,
				"y": -1.0118719298,
				"z": -1.560604419,
				"element": "C" 
			},
			{
				"x": -2.4728235755,
				"y": -0.2974482,
				"z": -2.2922967173,
				"element": "C" 
			},
			{
				"x": -2.5631878263,
				"y": 1.1099041389,
				"z": -2.1492044081,
				"element": "C" 
			},
			{
				"x": -1.7338641406,
				"y": 1.7838285209,
				"z": -1.2790924293,
				"element": "C" 
			},
			{
				"x": -0.7741814208,
				"y": 1.0771083143,
				"z": -0.5110864821,
				"element": "C" 
			},
			{
				"x": 0.029470114,
				"y": 1.7878232901,
				"z": 0.3413916195,
				"element": "N" 
			},
			{
				"x": 0.9146164561,
				"y": 1.1248026585,
				"z": 1.0479584113,
				"element": "C" 
			},
			{
				"x": 2.162826081,
				"y": -2.0649638677,
				"z": 1.6800368067,
				"element": "H" 
			},
			{
				"x": 0.3937001475,
				"y": -2.0967479939,
				"z": 0.0516107478,
				"element": "H" 
			},
			{
				"x": -1.4754957208,
				"y": -2.0912845334,
				"z": -1.6643601883,
				"element": "H" 
			},
			{
				"x": -3.1356408757,
				"y": -0.8093417972,
				"z": -2.9833694442,
				"element": "H" 
			},
			{
				"x": -3.2959649015,
				"y": 1.657976805,
				"z": -2.7342501908,
				"element": "H" 
			},
			{
				"x": -1.7847231058,
				"y": 2.8601305229,
				"z": -1.1528608865,
				"element": "H" 
			},
			{
				"x": 1.5515791971,
				"y": 1.6915889035,
				"z": 1.7241984794,
				"element": "H" 
			}
		],
		 "valence_orbital": [ 
			{
				"type": "occ",
				"energy": -0.31884,
				"method": "rhf"
			},
			{
				"type": "occ",
				"energy": -0.27512,
				"method": "rhf"
			},
			{
				"type": "occ",
				"energy": -0.26388,
				"method": "rhf"
			},
			{
				"type": "occ",
				"energy": -0.25303,
				"method": "rhf"
			},
			{
				"type": "occ",
				"energy": -0.24717,
				"method": "rhf"
			},
			{
				"type": "unocc",
				"energy": -0.08123,
				"method": "rhf"
			},
			{
				"type": "unocc",
				"energy": -0.05008,
				"method": "rhf"
			},
			{
				"type": "unocc",
				"energy": 0.00399,
				"method": "rhf"
			},
			{
				"type": "unocc",
				"energy": 0.01241,
				"method": "rhf"
			},
			{
				"type": "unocc",
				"energy": 0.08648,
				"method": "rhf"
			}
		],
		"cosmo_sigma_profile": { 
			"-0.025": 0.0,
			"-0.024": 0.0,
			"-0.023": 0.0,
			"-0.022": 0.0,
			"-0.021": 0.0,
			"-0.02": 0.0,
			"-0.019": 0.0,
			"-0.018": 0.0,
			"-0.017": 0.0,
			"-0.016": 0.0,
			"-0.015": 0.0,
			"-0.014": 0.0,
			"-0.013": 0.0,
			"-0.012": 0.0,
			"-0.011": 0.0,
			"-0.01": 0.0,
			"-0.009": 1.63956221614,
			"-0.008": 5.38016232023,
			"-0.007": 8.85431004623,
			"-0.006": 14.066241384,
			"-0.005": 14.5524928517,
			"-0.004": 11.3939162358,
			"-0.003": 10.477722225,
			"-0.002": 12.0943372331,
			"-0.001": 15.110470104,
			"0.0": 17.7234352843,
			"0.001": 13.6145795292,
			"0.002": 14.9852436261,
			"0.003": 15.5772924631,
			"0.004": 7.17002723141,
			"0.005": 2.29371376559,
			"0.006": 2.82396070049,
			"0.007": 3.41287494773,
			"0.008": 3.30105508799,
			"0.009": 2.69123313373,
			"0.01": 3.41760094228,
			"0.011": 5.55952533659,
			"0.012": 2.92914297177,
			"0.013": 1.21226353288,
			"0.014": 0.801087846949,
			"0.015": 0.706937096548,
			"0.016": 0.207555534111,
			"0.017": 0.0,
			"0.018": 0.0,
			"0.019": 0.0,
			"0.02": 0.0,
			"0.021": 0.0,
			"0.022": 0.0,
			"0.023": 0.0,
			"0.024": 0.0,
			"0.025": 0.0
		}
	}
}
