{
	 "smiles": "CC(C)(C)OC(=O)NC(CC(O)=O)C1=CC=C(Br)C=C1", 
	 "Tm": 417.15, 
	 "num_atms": 38, 
	 "gaussian": { 
		 "optdone": 1, 
		 "sigma_profile": "yes", 
		 "theory": "DFT", 
		 "functional": "B3LYP", 
		 "basiset": "6-31G**", 
		 "properties": { 
			 "R2extent": 12694.8483, 
			 "electric_dipole_moment_norm": 3.19654395246, 
			 "electric_quadrupole_moment_norm": 23.3676286826, 
			 "total_energy": -3471.43733938, 
			 "HOMO_LUMO_gap": 0.21828, 
			 "cosmo_polarized_energy": -18.96, 
			 "cosmo_cavitation_energy": 42.82, 
			 "cosmo_dispersion_energy": -29.35, 
			 "cosmo_repulsion_energy": 2.26, 
			 "cosmo_total_nonelectrostatic_energy": 15.73, 
			 "SMD_solvation_energy": 7.49 
		},
		"coords": [
			{
				"x": -3.5304923371,
				"y": -1.6996038302,
				"z": 1.5352767742,
				"element": "C" 
			},
			{
				"x": -2.8301570638,
				"y": -1.4231041314,
				"z": 0.2022323837,
				"element": "C" 
			},
			{
				"x": -2.3912235238,
				"y": -2.7318984683,
				"z": -0.4579872193,
				"element": "C" 
			},
			{
				"x": -3.6916372427,
				"y": -0.6007092956,
				"z": -0.7601945808,
				"element": "C" 
			},
			{
				"x": -1.5406918435,
				"y": -0.7142805874,
				"z": 0.4522225361,
				"element": "O" 
			},
			{
				"x": -1.5565037293,
				"y": 0.5295425762,
				"z": 1.0252718563,
				"element": "C" 
			},
			{
				"x": -2.5544191112,
				"y": 1.1251746617,
				"z": 1.389130306,
				"element": "O" 
			},
			{
				"x": -0.2946905834,
				"y": 1.0394007354,
				"z": 1.1598333045,
				"element": "N" 
			},
			{
				"x": 0.9470545768,
				"y": 0.4717153204,
				"z": 0.6233950963,
				"element": "C" 
			},
			{
				"x": 1.4353256077,
				"y": -0.7549199439,
				"z": 1.4659809519,
				"element": "C" 
			},
			{
				"x": 1.8315055748,
				"y": -1.9439715151,
				"z": 0.5987379435,
				"element": "C" 
			},
			{
				"x": 0.8390301124,
				"y": -2.398304042,
				"z": -0.2081659954,
				"element": "O" 
			},
			{
				"x": 2.9191972324,
				"y": -2.4638941458,
				"z": 0.6005998618,
				"element": "O" 
			},
			{
				"x": 1.9970597545,
				"y": 1.5669252127,
				"z": 0.5346051389,
				"element": "C" 
			},
			{
				"x": 2.4148770995,
				"y": 2.2591328493,
				"z": 1.6807313128,
				"element": "C" 
			},
			{
				"x": 3.3696524457,
				"y": 3.2711910505,
				"z": 1.6008042615,
				"element": "C" 
			},
			{
				"x": 3.921093868,
				"y": 3.588847284,
				"z": 0.3595797308,
				"element": "C" 
			},
			{
				"x": 5.2327127831,
				"y": 4.9709292522,
				"z": 0.241227734,
				"element": "Br" 
			},
			{
				"x": 3.5293514462,
				"y": 2.9119441873,
				"z": -0.7927455993,
				"element": "C" 
			},
			{
				"x": 2.5653003329,
				"y": 1.9071816489,
				"z": -0.6967566002,
				"element": "C" 
			},
			{
				"x": -3.840674526,
				"y": -0.7731845076,
				"z": 2.0174398289,
				"element": "H" 
			},
			{
				"x": -4.4148618527,
				"y": -2.319405439,
				"z": 1.35633613,
				"element": "H" 
			},
			{
				"x": -2.8652485383,
				"y": -2.2490682745,
				"z": 2.20894956,
				"element": "H" 
			},
			{
				"x": -1.8511562783,
				"y": -2.5443948187,
				"z": -1.3910832013,
				"element": "H" 
			},
			{
				"x": -1.7500317178,
				"y": -3.3203920001,
				"z": 0.2046678684,
				"element": "H" 
			},
			{
				"x": -3.2732863377,
				"y": -3.3334930844,
				"z": -0.6942998436,
				"element": "H" 
			},
			{
				"x": -4.5784085606,
				"y": -1.1810394201,
				"z": -1.0341622883,
				"element": "H" 
			},
			{
				"x": -3.1354428061,
				"y": -0.3822696177,
				"z": -1.6773312086,
				"element": "H" 
			},
			{
				"x": -4.01052905,
				"y": 0.3360939115,
				"z": -0.3047412703,
				"element": "H" 
			},
			{
				"x": -0.2864114591,
				"y": 1.995716684,
				"z": 1.4825913143,
				"element": "H" 
			},
			{
				"x": 0.744168969,
				"y": 0.1299371504,
				"z": -0.3966551407,
				"element": "H" 
			},
			{
				"x": 0.6173341187,
				"y": -1.073034426,
				"z": 2.1206581768,
				"element": "H" 
			},
			{
				"x": 2.2892392415,
				"y": -0.4943647327,
				"z": 2.0914363683,
				"element": "H" 
			},
			{
				"x": 0.0211908363,
				"y": -1.8936697925,
				"z": -0.0440795982,
				"element": "H" 
			},
			{
				"x": 1.9975347476,
				"y": 2.0066035585,
				"z": 2.652392038,
				"element": "H" 
			},
			{
				"x": 3.6862352419,
				"y": 3.8029487742,
				"z": 2.4907258971,
				"element": "H" 
			},
			{
				"x": 3.9669751314,
				"y": 3.1658046812,
				"z": -1.7513132479,
				"element": "H" 
			},
			{
				"x": 2.2577274411,
				"y": 1.3821125347,
				"z": -1.5969105801,
				"element": "H" 
			}
		],
		 "valence_orbital": [ 
			{
				"type": "occ",
				"energy": -0.28282,
				"method": "rhf"
			},
			{
				"type": "occ",
				"energy": -0.27876,
				"method": "rhf"
			},
			{
				"type": "occ",
				"energy": -0.27709,
				"method": "rhf"
			},
			{
				"type": "occ",
				"energy": -0.26022,
				"method": "rhf"
			},
			{
				"type": "occ",
				"energy": -0.25287,
				"method": "rhf"
			},
			{
				"type": "unocc",
				"energy": -0.03459,
				"method": "rhf"
			},
			{
				"type": "unocc",
				"energy": -0.02963,
				"method": "rhf"
			},
			{
				"type": "unocc",
				"energy": -0.0025,
				"method": "rhf"
			},
			{
				"type": "unocc",
				"energy": 0.00854,
				"method": "rhf"
			},
			{
				"type": "unocc",
				"energy": 0.03362,
				"method": "rhf"
			}
		],
		"cosmo_sigma_profile": { 
			"-0.025": 0.0,
			"-0.024": 0.0,
			"-0.023": 0.0,
			"-0.022": 0.0,
			"-0.021": 0.0,
			"-0.02": 0.0,
			"-0.019": 0.0,
			"-0.018": 0.0,
			"-0.017": 0.0,
			"-0.016": 0.0,
			"-0.015": 0.0,
			"-0.014": 0.0579206584818,
			"-0.013": 0.615035939247,
			"-0.012": 0.889340020952,
			"-0.011": 0.858632543109,
			"-0.01": 0.606021740752,
			"-0.009": 1.39475731812,
			"-0.008": 5.70627868756,
			"-0.007": 14.5618189679,
			"-0.006": 15.6613681965,
			"-0.005": 20.8098998148,
			"-0.004": 28.4016470378,
			"-0.003": 27.7933306421,
			"-0.002": 25.7979936785,
			"-0.001": 31.0807205428,
			"0.0": 33.6241200588,
			"0.001": 24.2793651916,
			"0.002": 20.5457321236,
			"0.003": 21.1308972401,
			"0.004": 15.9272277931,
			"0.005": 8.92859082591,
			"0.006": 3.18216802786,
			"0.007": 4.00291701586,
			"0.008": 3.35576032199,
			"0.009": 3.8796539506,
			"0.01": 6.39535766861,
			"0.011": 7.26134344017,
			"0.012": 7.93512548583,
			"0.013": 5.71499055801,
			"0.014": 0.750383216335,
			"0.015": 0.0,
			"0.016": 0.0,
			"0.017": 0.0,
			"0.018": 0.0,
			"0.019": 0.0,
			"0.02": 0.0,
			"0.021": 0.0,
			"0.022": 0.0,
			"0.023": 0.0,
			"0.024": 0.0,
			"0.025": 0.0
		}
	}
}
