{
	 "smiles": "CC(=O)C1=CC(Br)=C(O)C(Br)=C1", 
	 "Tm": 451.15, 
	 "num_atms": 18, 
	 "gaussian": { 
		 "optdone": 1, 
		 "sigma_profile": "yes", 
		 "theory": "DFT", 
		 "functional": "B3LYP", 
		 "basiset": "6-31G**", 
		 "properties": { 
			 "R2extent": 8757.9023, 
			 "electric_dipole_moment_norm": 0.986086740607, 
			 "electric_quadrupole_moment_norm": 12.1441591475, 
			 "total_energy": -5601.72295278, 
			 "HOMO_LUMO_gap": 0.1814, 
			 "cosmo_polarized_energy": -10.13, 
			 "cosmo_cavitation_energy": 27.17, 
			 "cosmo_dispersion_energy": -20.76, 
			 "cosmo_repulsion_energy": 1.65, 
			 "cosmo_total_nonelectrostatic_energy": 8.06, 
			 "SMD_solvation_energy": 3.56 
		},
		"coords": [
			{
				"x": 1.4567030109,
				"y": -0.6485895071,
				"z": 0.1023982888,
				"element": "C" 
			},
			{
				"x": 0.701794739,
				"y": 0.2997374389,
				"z": -0.8120369614,
				"element": "C" 
			},
			{
				"x": 1.2574228009,
				"y": 1.2675073824,
				"z": -1.308959213,
				"element": "O" 
			},
			{
				"x": -0.7436041581,
				"y": 0.0283422191,
				"z": -1.0980345936,
				"element": "C" 
			},
			{
				"x": -1.4214664626,
				"y": 0.9163722099,
				"z": -1.9454686764,
				"element": "C" 
			},
			{
				"x": -2.7562635754,
				"y": 0.7046429838,
				"z": -2.2368632517,
				"element": "C" 
			},
			{
				"x": -3.6957881356,
				"y": 1.9109957319,
				"z": -3.3942158757,
				"element": "Br" 
			},
			{
				"x": -3.4759664869,
				"y": -0.3856837487,
				"z": -1.7081377819,
				"element": "C" 
			},
			{
				"x": -4.7717733464,
				"y": -0.6154456639,
				"z": -1.9739776546,
				"element": "O" 
			},
			{
				"x": -2.7801925684,
				"y": -1.2656581036,
				"z": -0.8604793267,
				"element": "C" 
			},
			{
				"x": -3.7010562157,
				"y": -2.755449651,
				"z": -0.117432901,
				"element": "Br" 
			},
			{
				"x": -1.4390079873,
				"y": -1.0635008476,
				"z": -0.560269234,
				"element": "C" 
			},
			{
				"x": 1.4557131387,
				"y": -1.6676024788,
				"z": -0.3000935017,
				"element": "H" 
			},
			{
				"x": 2.4847298934,
				"y": -0.2979400348,
				"z": 0.1948708439,
				"element": "H" 
			},
			{
				"x": 0.9959592825,
				"y": -0.6878020589,
				"z": 1.0956584707,
				"element": "H" 
			},
			{
				"x": -0.8787858996,
				"y": 1.7585920668,
				"z": -2.3582374018,
				"element": "H" 
			},
			{
				"x": -5.0946385493,
				"y": 0.0818464969,
				"z": -2.5702422344,
				"element": "H" 
			},
			{
				"x": -0.9454794801,
				"y": -1.7682644354,
				"z": 0.0976210044,
				"element": "H" 
			}
		],
		 "valence_orbital": [ 
			{
				"type": "occ",
				"energy": -0.31074,
				"method": "rhf"
			},
			{
				"type": "occ",
				"energy": -0.29494,
				"method": "rhf"
			},
			{
				"type": "occ",
				"energy": -0.26059,
				"method": "rhf"
			},
			{
				"type": "occ",
				"energy": -0.25855,
				"method": "rhf"
			},
			{
				"type": "occ",
				"energy": -0.24546,
				"method": "rhf"
			},
			{
				"type": "unocc",
				"energy": -0.06406,
				"method": "rhf"
			},
			{
				"type": "unocc",
				"energy": -0.03539,
				"method": "rhf"
			},
			{
				"type": "unocc",
				"energy": -0.02941,
				"method": "rhf"
			},
			{
				"type": "unocc",
				"energy": 0.01364,
				"method": "rhf"
			},
			{
				"type": "unocc",
				"energy": 0.02886,
				"method": "rhf"
			}
		],
		"cosmo_sigma_profile": { 
			"-0.025": 0.0,
			"-0.024": 0.0,
			"-0.023": 0.0,
			"-0.022": 0.0,
			"-0.021": 0.0,
			"-0.02": 0.0,
			"-0.019": 0.0,
			"-0.018": 0.0,
			"-0.017": 0.0,
			"-0.016": 0.125126571172,
			"-0.015": 0.659857897553,
			"-0.014": 0.63289612126,
			"-0.013": 0.672999495453,
			"-0.012": 0.705679124647,
			"-0.011": 0.856675888779,
			"-0.01": 0.985321145671,
			"-0.009": 0.976659303493,
			"-0.008": 3.21428524551,
			"-0.007": 7.12897360521,
			"-0.006": 10.0392386254,
			"-0.005": 11.779224959,
			"-0.004": 13.0525472445,
			"-0.003": 13.7301880304,
			"-0.002": 15.9993785224,
			"-0.001": 21.6135001082,
			"0.0": 25.031382092,
			"0.001": 23.6705458676,
			"0.002": 14.6336683492,
			"0.003": 15.8736010526,
			"0.004": 12.8837797671,
			"0.005": 5.16099897149,
			"0.006": 3.57573314811,
			"0.007": 3.04361257581,
			"0.008": 3.57174376558,
			"0.009": 4.20138067168,
			"0.01": 2.95602125654,
			"0.011": 3.38589001322,
			"0.012": 2.96629749995,
			"0.013": 1.17379444483,
			"0.014": 0.033619418953,
			"0.015": 0.0,
			"0.016": 0.0,
			"0.017": 0.0,
			"0.018": 0.0,
			"0.019": 0.0,
			"0.02": 0.0,
			"0.021": 0.0,
			"0.022": 0.0,
			"0.023": 0.0,
			"0.024": 0.0,
			"0.025": 0.0
		}
	}
}
