{
	 "smiles": "OCCOC(=O)C1=CC=CC=C1", 
	 "Tm": 318.15, 
	 "num_atms": 22, 
	 "gaussian": { 
		 "optdone": 1, 
		 "sigma_profile": "yes", 
		 "theory": "DFT", 
		 "functional": "B3LYP", 
		 "basiset": "6-31G**", 
		 "properties": { 
			 "R2extent": 2821.289, 
			 "electric_dipole_moment_norm": 2.23557188433, 
			 "electric_quadrupole_moment_norm": 11.0660868129, 
			 "total_energy": -574.65978438, 
			 "HOMO_LUMO_gap": 0.21187, 
			 "cosmo_polarized_energy": -10.33, 
			 "cosmo_cavitation_energy": 26.36, 
			 "cosmo_dispersion_energy": -19.11, 
			 "cosmo_repulsion_energy": 1.54, 
			 "cosmo_total_nonelectrostatic_energy": 8.79, 
			 "SMD_solvation_energy": 5.51 
		},
		"coords": [
			{
				"x": 1.8468366079,
				"y": 0.5072164906,
				"z": -4.1219052419,
				"element": "O" 
			},
			{
				"x": 2.6118271582,
				"y": -0.2416673185,
				"z": -3.1938148458,
				"element": "C" 
			},
			{
				"x": 2.8615276853,
				"y": 0.524273444,
				"z": -1.9025668097,
				"element": "C" 
			},
			{
				"x": 1.5981393309,
				"y": 0.8449788848,
				"z": -1.2700552982,
				"element": "O" 
			},
			{
				"x": 1.1298458083,
				"y": -0.0448401191,
				"z": -0.3552800559,
				"element": "C" 
			},
			{
				"x": 1.7107233704,
				"y": -1.0723045302,
				"z": -0.0649653253,
				"element": "O" 
			},
			{
				"x": -0.164826628,
				"y": 0.3867455085,
				"z": 0.2425510649,
				"element": "C" 
			},
			{
				"x": -0.7776315737,
				"y": 1.6041663659,
				"z": -0.0871952358,
				"element": "C" 
			},
			{
				"x": -1.9893100844,
				"y": 1.9545284795,
				"z": 0.5061646294,
				"element": "C" 
			},
			{
				"x": -2.5931246055,
				"y": 1.0951816987,
				"z": 1.4275322251,
				"element": "C" 
			},
			{
				"x": -1.9835587468,
				"y": -0.1181601222,
				"z": 1.7586933762,
				"element": "C" 
			},
			{
				"x": -0.7728023187,
				"y": -0.4720742352,
				"z": 1.1690128875,
				"element": "C" 
			},
			{
				"x": 1.0218826683,
				"y": 0.7433660739,
				"z": -3.6766512209,
				"element": "H" 
			},
			{
				"x": 2.1403127645,
				"y": -1.2068899088,
				"z": -2.9555585909,
				"element": "H" 
			},
			{
				"x": 3.5738055548,
				"y": -0.4513505087,
				"z": -3.6740280561,
				"element": "H" 
			},
			{
				"x": 3.3217375593,
				"y": 1.4922439683,
				"z": -2.1136473457,
				"element": "H" 
			},
			{
				"x": 3.4795232753,
				"y": -0.0527177925,
				"z": -1.211118318,
				"element": "H" 
			},
			{
				"x": -0.3013319309,
				"y": 2.267878921,
				"z": -0.7996218712,
				"element": "H" 
			},
			{
				"x": -2.4624401861,
				"y": 2.8982119089,
				"z": 0.2512694386,
				"element": "H" 
			},
			{
				"x": -3.5376071209,
				"y": 1.3713146899,
				"z": 1.8877904024,
				"element": "H" 
			},
			{
				"x": -2.452660797,
				"y": -0.7855534576,
				"z": 2.4754729221,
				"element": "H" 
			},
			{
				"x": -0.2792677909,
				"y": -1.4073484412,
				"z": 1.4104212692,
				"element": "H" 
			}
		],
		 "valence_orbital": [ 
			{
				"type": "occ",
				"energy": -0.31172,
				"method": "rhf"
			},
			{
				"type": "occ",
				"energy": -0.28235,
				"method": "rhf"
			},
			{
				"type": "occ",
				"energy": -0.26737,
				"method": "rhf"
			},
			{
				"type": "occ",
				"energy": -0.26344,
				"method": "rhf"
			},
			{
				"type": "occ",
				"energy": -0.26271,
				"method": "rhf"
			},
			{
				"type": "unocc",
				"energy": -0.05084,
				"method": "rhf"
			},
			{
				"type": "unocc",
				"energy": -0.01231,
				"method": "rhf"
			},
			{
				"type": "unocc",
				"energy": 0.05248,
				"method": "rhf"
			},
			{
				"type": "unocc",
				"energy": 0.07801,
				"method": "rhf"
			},
			{
				"type": "unocc",
				"energy": 0.09572,
				"method": "rhf"
			}
		],
		"cosmo_sigma_profile": { 
			"-0.025": 0.0,
			"-0.024": 0.0,
			"-0.023": 0.0,
			"-0.022": 0.0,
			"-0.021": 0.0,
			"-0.02": 0.0,
			"-0.019": 0.0,
			"-0.018": 0.0,
			"-0.017": 0.0,
			"-0.016": 0.0,
			"-0.015": 0.0,
			"-0.014": 0.45251396354,
			"-0.013": 0.405365941033,
			"-0.012": 1.00247133697,
			"-0.011": 0.602794328425,
			"-0.01": 1.33626052715,
			"-0.009": 0.410929435256,
			"-0.008": 1.1148319748,
			"-0.007": 2.70055950295,
			"-0.006": 14.5306758016,
			"-0.005": 20.1210399195,
			"-0.004": 20.1319708787,
			"-0.003": 16.9841432304,
			"-0.002": 15.2715140338,
			"-0.001": 13.1910487017,
			"0.0": 11.9596113263,
			"0.001": 14.2739294529,
			"0.002": 13.5164350367,
			"0.003": 14.9992084379,
			"0.004": 15.1551415794,
			"0.005": 4.41826623562,
			"0.006": 2.96447674915,
			"0.007": 2.57197648803,
			"0.008": 2.60772474234,
			"0.009": 2.67453867498,
			"0.01": 2.67829961318,
			"0.011": 4.74059778876,
			"0.012": 4.04227415429,
			"0.013": 1.74186701724,
			"0.014": 2.50573075414,
			"0.015": 0.252360127214,
			"0.016": 0.0,
			"0.017": 0.0,
			"0.018": 0.0,
			"0.019": 0.0,
			"0.02": 0.0,
			"0.021": 0.0,
			"0.022": 0.0,
			"0.023": 0.0,
			"0.024": 0.0,
			"0.025": 0.0
		}
	}
}
