{
	 "smiles": "CCCCC1CO1", 
	 "Tm": 367.15, 
	 "num_atms": 19, 
	 "gaussian": { 
		 "optdone": 1, 
		 "sigma_profile": "yes", 
		 "theory": "DFT", 
		 "functional": "B3LYP", 
		 "basiset": "6-31G**", 
		 "properties": { 
			 "R2extent": 1030.326, 
			 "electric_dipole_moment_norm": 2.10060763352, 
			 "electric_quadrupole_moment_norm": 7.57389928769, 
			 "total_energy": -311.055814078, 
			 "HOMO_LUMO_gap": 0.3363, 
			 "cosmo_polarized_energy": -4.87, 
			 "cosmo_cavitation_energy": 20.88, 
			 "cosmo_dispersion_energy": -15.14, 
			 "cosmo_repulsion_energy": 1.3, 
			 "cosmo_total_nonelectrostatic_energy": 7.04, 
			 "SMD_solvation_energy": 3.4 
		},
		"coords": [
			{
				"x": -2.0817961592,
				"y": -0.9934110423,
				"z": -0.8642473073,
				"element": "C" 
			},
			{
				"x": -0.7115155101,
				"y": -1.3486744078,
				"z": -1.4563378358,
				"element": "C" 
			},
			{
				"x": 0.4924064787,
				"y": -1.138067689,
				"z": -0.5157207065,
				"element": "C" 
			},
			{
				"x": 1.0753564556,
				"y": 0.2875388442,
				"z": -0.4434929466,
				"element": "C" 
			},
			{
				"x": 0.1840158206,
				"y": 1.3426668626,
				"z": 0.1756270333,
				"element": "C" 
			},
			{
				"x": 0.1302852178,
				"y": 1.5524566749,
				"z": 1.6305870358,
				"element": "C" 
			},
			{
				"x": 0.85247135,
				"y": 2.4571453359,
				"z": 0.7871588867,
				"element": "O" 
			},
			{
				"x": -2.1645055875,
				"y": 0.0651763293,
				"z": -0.601716372,
				"element": "H" 
			},
			{
				"x": -2.884293465,
				"y": -1.2180331085,
				"z": -1.5748305532,
				"element": "H" 
			},
			{
				"x": -2.274766079,
				"y": -1.5723909571,
				"z": 0.0462038203,
				"element": "H" 
			},
			{
				"x": -0.5491986615,
				"y": -0.7849284641,
				"z": -2.3853611899,
				"element": "H" 
			},
			{
				"x": -0.7347493114,
				"y": -2.4054266377,
				"z": -1.7509635067,
				"element": "H" 
			},
			{
				"x": 1.3060787016,
				"y": -1.7950237337,
				"z": -0.8468858091,
				"element": "H" 
			},
			{
				"x": 0.227048452,
				"y": -1.4759517218,
				"z": 0.4957339489,
				"element": "H" 
			},
			{
				"x": 1.3595158331,
				"y": 0.6143065299,
				"z": -1.4531389647,
				"element": "H" 
			},
			{
				"x": 2.0006872797,
				"y": 0.2658933988,
				"z": 0.1446813657,
				"element": "H" 
			},
			{
				"x": -0.6920922411,
				"y": 1.6381114769,
				"z": -0.4037945827,
				"element": "H" 
			},
			{
				"x": -0.770772595,
				"y": 1.95630986,
				"z": 2.0930123704,
				"element": "H" 
			},
			{
				"x": 0.7449240208,
				"y": 0.9310024496,
				"z": 2.2832853133,
				"element": "H" 
			}
		],
		 "valence_orbital": [ 
			{
				"type": "occ",
				"energy": -0.33377,
				"method": "rhf"
			},
			{
				"type": "occ",
				"energy": -0.32693,
				"method": "rhf"
			},
			{
				"type": "occ",
				"energy": -0.32088,
				"method": "rhf"
			},
			{
				"type": "occ",
				"energy": -0.29405,
				"method": "rhf"
			},
			{
				"type": "occ",
				"energy": -0.25968,
				"method": "rhf"
			},
			{
				"type": "unocc",
				"energy": 0.07662,
				"method": "rhf"
			},
			{
				"type": "unocc",
				"energy": 0.10353,
				"method": "rhf"
			},
			{
				"type": "unocc",
				"energy": 0.1091,
				"method": "rhf"
			},
			{
				"type": "unocc",
				"energy": 0.11864,
				"method": "rhf"
			},
			{
				"type": "unocc",
				"energy": 0.12806,
				"method": "rhf"
			}
		],
		"cosmo_sigma_profile": { 
			"-0.025": 0.0,
			"-0.024": 0.0,
			"-0.023": 0.0,
			"-0.022": 0.0,
			"-0.021": 0.0,
			"-0.02": 0.0,
			"-0.019": 0.0,
			"-0.018": 0.0,
			"-0.017": 0.0,
			"-0.016": 0.0,
			"-0.015": 0.0,
			"-0.014": 0.0,
			"-0.013": 0.0,
			"-0.012": 0.0,
			"-0.011": 0.0,
			"-0.01": 0.0,
			"-0.009": 0.0,
			"-0.008": 0.0,
			"-0.007": 0.0,
			"-0.006": 2.51235885508,
			"-0.005": 7.19693185773,
			"-0.004": 8.81329668568,
			"-0.003": 16.353378631,
			"-0.002": 27.6093142889,
			"-0.001": 26.1741254994,
			"0.0": 24.0297129583,
			"0.001": 20.5740649493,
			"0.002": 7.79161611883,
			"0.003": 2.07787103488,
			"0.004": 0.922151100432,
			"0.005": 1.20412204839,
			"0.006": 1.69630426669,
			"0.007": 1.44563152729,
			"0.008": 2.03070058928,
			"0.009": 1.46897414829,
			"0.01": 1.4931998908,
			"0.011": 2.21348730642,
			"0.012": 3.96446467584,
			"0.013": 1.98153171211,
			"0.014": 0.186596346373,
			"0.015": 0.0,
			"0.016": 0.0,
			"0.017": 0.0,
			"0.018": 0.0,
			"0.019": 0.0,
			"0.02": 0.0,
			"0.021": 0.0,
			"0.022": 0.0,
			"0.023": 0.0,
			"0.024": 0.0,
			"0.025": 0.0
		}
	}
}
