{
	 "smiles": "OC(=O)C1CCN1C(=O)OCC1C2=C(C=CC=C2)C2=C1C=CC=C2", 
	 "Tm": 408.15, 
	 "num_atms": 41, 
	 "gaussian": { 
		 "optdone": 1, 
		 "sigma_profile": "yes", 
		 "theory": "DFT", 
		 "functional": "B3LYP", 
		 "basiset": "6-31G**", 
		 "properties": { 
			 "R2extent": 8605.1205, 
			 "electric_dipole_moment_norm": 2.14616470477, 
			 "electric_quadrupole_moment_norm": 8.51497133348, 
			 "total_energy": -1089.93118481, 
			 "HOMO_LUMO_gap": 0.18394, 
			 "cosmo_polarized_energy": -19.5, 
			 "cosmo_cavitation_energy": 45.62, 
			 "cosmo_dispersion_energy": -29.97, 
			 "cosmo_repulsion_energy": 2.32, 
			 "cosmo_total_nonelectrostatic_energy": 17.96, 
			 "SMD_solvation_energy": 7.55 
		},
		"coords": [
			{
				"x": -3.8691001284,
				"y": 2.889888649,
				"z": -2.4035479523,
				"element": "O" 
			},
			{
				"x": -3.1825234121,
				"y": 2.2134806631,
				"z": -1.4590557761,
				"element": "C" 
			},
			{
				"x": -2.8929487225,
				"y": 2.6786936627,
				"z": -0.3796692364,
				"element": "O" 
			},
			{
				"x": -2.8880780369,
				"y": 0.7820161195,
				"z": -1.8910664867,
				"element": "C" 
			},
			{
				"x": -3.587058994,
				"y": -0.2762073937,
				"z": -0.9687672577,
				"element": "C" 
			},
			{
				"x": -2.192591684,
				"y": -0.5694594015,
				"z": -0.3493321329,
				"element": "C" 
			},
			{
				"x": -1.6088696169,
				"y": 0.2844883432,
				"z": -1.3958292117,
				"element": "N" 
			},
			{
				"x": -0.4400475159,
				"y": 0.9904576715,
				"z": -1.4191111694,
				"element": "C" 
			},
			{
				"x": -0.2305115,
				"y": 1.946200117,
				"z": -2.1459831757,
				"element": "O" 
			},
			{
				"x": 0.4528670016,
				"y": 0.4567797956,
				"z": -0.5507210382,
				"element": "O" 
			},
			{
				"x": 1.7243212292,
				"y": 1.1220283716,
				"z": -0.5038315174,
				"element": "C" 
			},
			{
				"x": 2.6081624998,
				"y": 0.4001287653,
				"z": 0.5139912435,
				"element": "C" 
			},
			{
				"x": 2.0367331169,
				"y": 0.3355033644,
				"z": 1.9235961942,
				"element": "C" 
			},
			{
				"x": 1.9993449153,
				"y": -0.9997577352,
				"z": 2.3733758346,
				"element": "C" 
			},
			{
				"x": 1.5243899958,
				"y": -1.3021342976,
				"z": 3.6512877259,
				"element": "C" 
			},
			{
				"x": 1.0837752156,
				"y": -0.2603930119,
				"z": 4.4710599741,
				"element": "C" 
			},
			{
				"x": 1.1188637036,
				"y": 1.0641714489,
				"z": 4.0222573382,
				"element": "C" 
			},
			{
				"x": 1.5991012011,
				"y": 1.3691401961,
				"z": 2.7430431285,
				"element": "C" 
			},
			{
				"x": 2.517858914,
				"y": -1.8690782413,
				"z": 1.3079795614,
				"element": "C" 
			},
			{
				"x": 2.8730261204,
				"y": -1.0667297115,
				"z": 0.2049853862,
				"element": "C" 
			},
			{
				"x": 3.3982830077,
				"y": -1.6415204246,
				"z": -0.946130186,
				"element": "C" 
			},
			{
				"x": 3.5665018867,
				"y": -3.0305452484,
				"z": -0.9956045573,
				"element": "C" 
			},
			{
				"x": 3.215357799,
				"y": -3.8279854326,
				"z": 0.0988410505,
				"element": "C" 
			},
			{
				"x": 2.68994747,
				"y": -3.2540040149,
				"z": 1.2589820965,
				"element": "C" 
			},
			{
				"x": -4.0386955595,
				"y": 3.7750980366,
				"z": -2.0382543423,
				"element": "H" 
			},
			{
				"x": -3.0399399981,
				"y": 0.6731134234,
				"z": -2.9676718175,
				"element": "H" 
			},
			{
				"x": -4.0110735703,
				"y": -1.1103725416,
				"z": -1.529398401,
				"element": "H" 
			},
			{
				"x": -4.33242885,
				"y": 0.1259860223,
				"z": -0.2823612223,
				"element": "H" 
			},
			{
				"x": -1.8519355071,
				"y": -1.6083693907,
				"z": -0.3799375194,
				"element": "H" 
			},
			{
				"x": -2.0516900782,
				"y": -0.1680456345,
				"z": 0.6587813771,
				"element": "H" 
			},
			{
				"x": 1.5757188609,
				"y": 2.1697899508,
				"z": -0.2230388387,
				"element": "H" 
			},
			{
				"x": 2.1796954026,
				"y": 1.109744486,
				"z": -1.4994334997,
				"element": "H" 
			},
			{
				"x": 3.5604199418,
				"y": 0.9529428527,
				"z": 0.5254682814,
				"element": "H" 
			},
			{
				"x": 1.4952807753,
				"y": -2.3287480484,
				"z": 4.0062239236,
				"element": "H" 
			},
			{
				"x": 0.7103923937,
				"y": -0.4805308875,
				"z": 5.4672165228,
				"element": "H" 
			},
			{
				"x": 0.7710915859,
				"y": 1.862659132,
				"z": 4.6712189956,
				"element": "H" 
			},
			{
				"x": 1.6226856581,
				"y": 2.4011967389,
				"z": 2.4023402388,
				"element": "H" 
			},
			{
				"x": 3.6755514717,
				"y": -1.0288309239,
				"z": -1.8004016876,
				"element": "H" 
			},
			{
				"x": 3.9740729712,
				"y": -3.4923253153,
				"z": -1.8902792144,
				"element": "H" 
			},
			{
				"x": 3.3539347154,
				"y": -4.9041881561,
				"z": 0.0460547528,
				"element": "H" 
			},
			{
				"x": 2.4210153205,
				"y": -3.8789819998,
				"z": 2.1062226148,
				"element": "H" 
			}
		],
		 "valence_orbital": [ 
			{
				"type": "occ",
				"energy": -0.26794,
				"method": "rhf"
			},
			{
				"type": "occ",
				"energy": -0.24797,
				"method": "rhf"
			},
			{
				"type": "occ",
				"energy": -0.24401,
				"method": "rhf"
			},
			{
				"type": "occ",
				"energy": -0.24269,
				"method": "rhf"
			},
			{
				"type": "occ",
				"energy": -0.21313,
				"method": "rhf"
			},
			{
				"type": "unocc",
				"energy": -0.02919,
				"method": "rhf"
			},
			{
				"type": "unocc",
				"energy": -0.01065,
				"method": "rhf"
			},
			{
				"type": "unocc",
				"energy": -0.00209,
				"method": "rhf"
			},
			{
				"type": "unocc",
				"energy": 0.01004,
				"method": "rhf"
			},
			{
				"type": "unocc",
				"energy": 0.04243,
				"method": "rhf"
			}
		],
		"cosmo_sigma_profile": { 
			"-0.025": 0.0,
			"-0.024": 0.0,
			"-0.023": 0.0,
			"-0.022": 0.0,
			"-0.021": 0.0,
			"-0.02": 0.0,
			"-0.019": 0.293448405443,
			"-0.018": 0.962230146892,
			"-0.017": 0.910883063639,
			"-0.016": 1.07964698117,
			"-0.015": 0.403083465831,
			"-0.014": 0.344913766091,
			"-0.013": 0.766649071056,
			"-0.012": 0.912555230238,
			"-0.011": 0.936723721146,
			"-0.01": 0.849970811797,
			"-0.009": 0.695439985526,
			"-0.008": 0.568555920594,
			"-0.007": 3.14845103205,
			"-0.006": 28.6673511931,
			"-0.005": 38.201040132,
			"-0.004": 34.5562800765,
			"-0.003": 31.8506501298,
			"-0.002": 23.2052958112,
			"-0.001": 19.0546569002,
			"0.0": 15.8402105068,
			"0.001": 16.9720139214,
			"0.002": 18.9796585056,
			"0.003": 19.9387642497,
			"0.004": 23.0283103144,
			"0.005": 22.861314245,
			"0.006": 21.1968818069,
			"0.007": 6.67403609732,
			"0.008": 6.59616915818,
			"0.009": 4.37543037455,
			"0.01": 3.35678006037,
			"0.011": 5.92803933477,
			"0.012": 5.82608237067,
			"0.013": 3.47873871696,
			"0.014": 0.0459522339156,
			"0.015": 0.0,
			"0.016": 0.0,
			"0.017": 0.0,
			"0.018": 0.0,
			"0.019": 0.0,
			"0.02": 0.0,
			"0.021": 0.0,
			"0.022": 0.0,
			"0.023": 0.0,
			"0.024": 0.0,
			"0.025": 0.0
		}
	}
}
