{
	 "smiles": "OC(C1C(=O)N(N=C1C(F)(F)F)C1=CC=CC=C1)C1=CC=C(O)C=C1", 
	 "Tm": 484.15, 
	 "num_atms": 38, 
	 "gaussian": { 
		 "optdone": 1, 
		 "sigma_profile": "yes", 
		 "theory": "DFT", 
		 "functional": "B3LYP", 
		 "basiset": "6-31G**", 
		 "properties": { 
			 "R2extent": 10076.2808, 
			 "electric_dipole_moment_norm": 3.25434068438, 
			 "electric_quadrupole_moment_norm": 9.81570711309, 
			 "total_energy": -1290.30442773, 
			 "HOMO_LUMO_gap": 0.16679, 
			 "cosmo_polarized_energy": -18.82, 
			 "cosmo_cavitation_energy": 44.03, 
			 "cosmo_dispersion_energy": -30.26, 
			 "cosmo_repulsion_energy": 2.23, 
			 "cosmo_total_nonelectrostatic_energy": 16.0, 
			 "SMD_solvation_energy": 8.73 
		},
		"coords": [
			{
				"x": 1.9909427527,
				"y": 1.8612988964,
				"z": 0.340498695,
				"element": "O" 
			},
			{
				"x": 0.8555123167,
				"y": 1.0184184112,
				"z": 0.4991270529,
				"element": "C" 
			},
			{
				"x": 0.5176298519,
				"y": 0.5740554111,
				"z": -0.9546721769,
				"element": "C" 
			},
			{
				"x": -0.7187857472,
				"y": -0.3307137286,
				"z": -1.0630502051,
				"element": "C" 
			},
			{
				"x": -1.8538994804,
				"y": -0.0934677671,
				"z": -0.7017409638,
				"element": "O" 
			},
			{
				"x": -0.2616695683,
				"y": -1.5048781675,
				"z": -1.6769210862,
				"element": "N" 
			},
			{
				"x": 1.0813727782,
				"y": -1.4394150697,
				"z": -1.9963207354,
				"element": "N" 
			},
			{
				"x": 1.5456434359,
				"y": -0.3044744798,
				"z": -1.6108401957,
				"element": "C" 
			},
			{
				"x": 2.9981586752,
				"y": 0.0104107336,
				"z": -1.8551718597,
				"element": "C" 
			},
			{
				"x": 3.7290388859,
				"y": -0.124989326,
				"z": -0.7291020984,
				"element": "F" 
			},
			{
				"x": 3.1394927527,
				"y": 1.2763024401,
				"z": -2.2931550826,
				"element": "F" 
			},
			{
				"x": 3.5263018426,
				"y": -0.8109917276,
				"z": -2.778324276,
				"element": "F" 
			},
			{
				"x": -0.9906414779,
				"y": -2.677885598,
				"z": -2.0257079102,
				"element": "C" 
			},
			{
				"x": -0.3201224488,
				"y": -3.73173923,
				"z": -2.6634988305,
				"element": "C" 
			},
			{
				"x": -1.0206548173,
				"y": -4.8857115269,
				"z": -3.0064835132,
				"element": "C" 
			},
			{
				"x": -2.3822757877,
				"y": -5.0047716889,
				"z": -2.7224992595,
				"element": "C" 
			},
			{
				"x": -3.0396238786,
				"y": -3.9508311555,
				"z": -2.0882445708,
				"element": "C" 
			},
			{
				"x": -2.3586683629,
				"y": -2.7855478847,
				"z": -1.7351641777,
				"element": "C" 
			},
			{
				"x": -0.2776546602,
				"y": 1.7321057299,
				"z": 1.2077843592,
				"element": "C" 
			},
			{
				"x": -1.0457403781,
				"y": 1.0826438267,
				"z": 2.1774243213,
				"element": "C" 
			},
			{
				"x": -2.0793888169,
				"y": 1.7448445444,
				"z": 2.8371321405,
				"element": "C" 
			},
			{
				"x": -2.3570848724,
				"y": 3.0807038337,
				"z": 2.5294855192,
				"element": "C" 
			},
			{
				"x": -3.3516399148,
				"y": 3.7881339371,
				"z": 3.1390747358,
				"element": "O" 
			},
			{
				"x": -1.5895429869,
				"y": 3.7479797008,
				"z": 1.566253839,
				"element": "C" 
			},
			{
				"x": -0.5621660227,
				"y": 3.0746943093,
				"z": 0.9163876,
				"element": "C" 
			},
			{
				"x": 2.2422819163,
				"y": 2.1841607112,
				"z": 1.2161899808,
				"element": "H" 
			},
			{
				"x": 1.1178401774,
				"y": 0.1129794565,
				"z": 1.0688272306,
				"element": "H" 
			},
			{
				"x": 0.3497084785,
				"y": 1.4879560326,
				"z": -1.5372063959,
				"element": "H" 
			},
			{
				"x": 0.735200834,
				"y": -3.6377054004,
				"z": -2.8839786347,
				"element": "H" 
			},
			{
				"x": -0.4927472132,
				"y": -5.6962383861,
				"z": -3.5005852209,
				"element": "H" 
			},
			{
				"x": -2.9228594686,
				"y": -5.9067408287,
				"z": -2.9928569161,
				"element": "H" 
			},
			{
				"x": -4.0991484672,
				"y": -4.0273847612,
				"z": -1.8614708827,
				"element": "H" 
			},
			{
				"x": -2.8721367585,
				"y": -1.9701898369,
				"z": -1.2461198878,
				"element": "H" 
			},
			{
				"x": -0.840507298,
				"y": 0.0438163681,
				"z": 2.4231007316,
				"element": "H" 
			},
			{
				"x": -2.6679513959,
				"y": 1.2248639658,
				"z": 3.589976401,
				"element": "H" 
			},
			{
				"x": -3.8170742068,
				"y": 3.2128107556,
				"z": 3.7600646139,
				"element": "H" 
			},
			{
				"x": -1.8130783062,
				"y": 4.7865282949,
				"z": 1.3459325616,
				"element": "H" 
			},
			{
				"x": 0.0432376375,
				"y": 3.5981692042,
				"z": 0.1822550973,
				"element": "H" 
			}
		],
		 "valence_orbital": [ 
			{
				"type": "occ",
				"energy": -0.26962,
				"method": "rhf"
			},
			{
				"type": "occ",
				"energy": -0.25868,
				"method": "rhf"
			},
			{
				"type": "occ",
				"energy": -0.25254,
				"method": "rhf"
			},
			{
				"type": "occ",
				"energy": -0.22597,
				"method": "rhf"
			},
			{
				"type": "occ",
				"energy": -0.22386,
				"method": "rhf"
			},
			{
				"type": "unocc",
				"energy": -0.05707,
				"method": "rhf"
			},
			{
				"type": "unocc",
				"energy": -0.02169,
				"method": "rhf"
			},
			{
				"type": "unocc",
				"energy": -0.00969,
				"method": "rhf"
			},
			{
				"type": "unocc",
				"energy": -0.00235,
				"method": "rhf"
			},
			{
				"type": "unocc",
				"energy": -7e-05,
				"method": "rhf"
			}
		],
		"cosmo_sigma_profile": { 
			"-0.025": 0.0,
			"-0.024": 0.0,
			"-0.023": 0.0,
			"-0.022": 0.0,
			"-0.021": 0.0,
			"-0.02": 0.0,
			"-0.019": 0.0,
			"-0.018": 0.506583763276,
			"-0.017": 1.21127561403,
			"-0.016": 1.80848960982,
			"-0.015": 2.10021309376,
			"-0.014": 1.6140397601,
			"-0.013": 1.64558867094,
			"-0.012": 1.36819139622,
			"-0.011": 2.0585433404,
			"-0.01": 2.84525614487,
			"-0.009": 5.60674313129,
			"-0.008": 5.21014573428,
			"-0.007": 7.25876331668,
			"-0.006": 17.0589424308,
			"-0.005": 21.5744321626,
			"-0.004": 22.5779838006,
			"-0.003": 18.1249860204,
			"-0.002": 16.7489876779,
			"-0.001": 19.7705955413,
			"0.0": 18.0839044905,
			"0.001": 23.2061715601,
			"0.002": 37.4946698088,
			"0.003": 36.4422971454,
			"0.004": 24.1349851106,
			"0.005": 24.1163426963,
			"0.006": 9.12223504986,
			"0.007": 6.82663108817,
			"0.008": 4.78766414301,
			"0.009": 6.03878419739,
			"0.01": 5.12534657401,
			"0.011": 5.29663291976,
			"0.012": 2.28396765118,
			"0.013": 0.0108641436926,
			"0.014": 0.0,
			"0.015": 0.0,
			"0.016": 0.0,
			"0.017": 0.0,
			"0.018": 0.0,
			"0.019": 0.0,
			"0.02": 0.0,
			"0.021": 0.0,
			"0.022": 0.0,
			"0.023": 0.0,
			"0.024": 0.0,
			"0.025": 0.0
		}
	}
}
