{
	 "smiles": "[O-][N+](=O)C1=C(F)C=CC(Cl)=C1F", 
	 "Tm": 320.15, 
	 "num_atms": 14, 
	 "gaussian": { 
		 "optdone": 1, 
		 "sigma_profile": "yes", 
		 "theory": "DFT", 
		 "functional": "B3LYP", 
		 "basiset": "6-31G**", 
		 "properties": { 
			 "R2extent": 3263.7301, 
			 "electric_dipole_moment_norm": 4.56744409709, 
			 "electric_quadrupole_moment_norm": 11.7096181471, 
			 "total_energy": -1094.77465315, 
			 "HOMO_LUMO_gap": 0.17518, 
			 "cosmo_polarized_energy": -8.41, 
			 "cosmo_cavitation_energy": 22.58, 
			 "cosmo_dispersion_energy": -16.46, 
			 "cosmo_repulsion_energy": 1.28, 
			 "cosmo_total_nonelectrostatic_energy": 7.4, 
			 "SMD_solvation_energy": 6.92 
		},
		"coords": [
			{
				"x": -3.5297505075,
				"y": -0.1274400751,
				"z": 1.4439804727,
				"element": "O" 
			},
			{
				"x": -3.3928116249,
				"y": -0.1054509947,
				"z": 0.2250945782,
				"element": "N" 
			},
			{
				"x": -4.2938752187,
				"y": -0.1276469473,
				"z": -0.6069311965,
				"element": "O" 
			},
			{
				"x": -2.0180134013,
				"y": -0.0433100149,
				"z": -0.2843074756,
				"element": "C" 
			},
			{
				"x": -1.0857129132,
				"y": 0.8257708229,
				"z": 0.292115971,
				"element": "C" 
			},
			{
				"x": -1.4550825718,
				"y": 1.6243927486,
				"z": 1.2940862321,
				"element": "F" 
			},
			{
				"x": 0.213571601,
				"y": 0.8966509056,
				"z": -0.1930805244,
				"element": "C" 
			},
			{
				"x": 0.5946051713,
				"y": 0.0772140476,
				"z": -1.2535114031,
				"element": "C" 
			},
			{
				"x": -0.3188420651,
				"y": -0.8021968643,
				"z": -1.8354932092,
				"element": "C" 
			},
			{
				"x": 0.1495480678,
				"y": -1.8408851209,
				"z": -3.1505730509,
				"element": "Cl" 
			},
			{
				"x": -1.6291341221,
				"y": -0.8550569237,
				"z": -1.3554297708,
				"element": "C" 
			},
			{
				"x": -2.4972748473,
				"y": -1.7044977517,
				"z": -1.8933278359,
				"element": "F" 
			},
			{
				"x": 0.9086480953,
				"y": 1.5914796396,
				"z": 0.2632556014,
				"element": "H" 
			},
			{
				"x": 1.6076243366,
				"y": 0.1151765284,
				"z": -1.6373783891,
				"element": "H" 
			}
		],
		 "valence_orbital": [ 
			{
				"type": "occ",
				"energy": -0.3235,
				"method": "rhf"
			},
			{
				"type": "occ",
				"energy": -0.32093,
				"method": "rhf"
			},
			{
				"type": "occ",
				"energy": -0.31917,
				"method": "rhf"
			},
			{
				"type": "occ",
				"energy": -0.2912,
				"method": "rhf"
			},
			{
				"type": "occ",
				"energy": -0.27336,
				"method": "rhf"
			},
			{
				"type": "unocc",
				"energy": -0.09818,
				"method": "rhf"
			},
			{
				"type": "unocc",
				"energy": -0.04175,
				"method": "rhf"
			},
			{
				"type": "unocc",
				"energy": -0.03779,
				"method": "rhf"
			},
			{
				"type": "unocc",
				"energy": -0.008,
				"method": "rhf"
			},
			{
				"type": "unocc",
				"energy": 0.06049,
				"method": "rhf"
			}
		],
		"cosmo_sigma_profile": { 
			"-0.025": 0.0,
			"-0.024": 0.0,
			"-0.023": 0.0,
			"-0.022": 0.0,
			"-0.021": 0.0,
			"-0.02": 0.0,
			"-0.019": 0.0,
			"-0.018": 0.0,
			"-0.017": 0.0,
			"-0.016": 0.0,
			"-0.015": 0.0,
			"-0.014": 0.0,
			"-0.013": 0.0,
			"-0.012": 0.0,
			"-0.011": 0.0,
			"-0.01": 1.45888673637,
			"-0.009": 6.0303569837,
			"-0.008": 5.40521307538,
			"-0.007": 5.13521740886,
			"-0.006": 4.81123392205,
			"-0.005": 5.67583310946,
			"-0.004": 12.1675438741,
			"-0.003": 15.3388589319,
			"-0.002": 14.5550456321,
			"-0.001": 14.4021769361,
			"0.0": 12.3807680033,
			"0.001": 10.5034231582,
			"0.002": 20.2102424219,
			"0.003": 18.7485219513,
			"0.004": 7.58232742595,
			"0.005": 4.8612623057,
			"0.006": 9.35800338632,
			"0.007": 10.7498520846,
			"0.008": 4.28023901867,
			"0.009": 1.68353891176,
			"0.01": 0.0084776372132,
			"0.011": 0.0,
			"0.012": 0.0,
			"0.013": 0.0,
			"0.014": 0.0,
			"0.015": 0.0,
			"0.016": 0.0,
			"0.017": 0.0,
			"0.018": 0.0,
			"0.019": 0.0,
			"0.02": 0.0,
			"0.021": 0.0,
			"0.022": 0.0,
			"0.023": 0.0,
			"0.024": 0.0,
			"0.025": 0.0
		}
	}
}
