{
	 "smiles": "O=S1(=O)CCC(C1)NC1=CC=CC=C1", 
	 "Tm": 394.15, 
	 "num_atms": 27, 
	 "gaussian": { 
		 "optdone": 1, 
		 "sigma_profile": "yes", 
		 "theory": "DFT", 
		 "functional": "B3LYP", 
		 "basiset": "6-31G**", 
		 "properties": { 
			 "R2extent": 5165.3961, 
			 "electric_dipole_moment_norm": 5.23833592756, 
			 "electric_quadrupole_moment_norm": 25.8824986083, 
			 "total_energy": -992.221684097, 
			 "HOMO_LUMO_gap": 0.20322, 
			 "cosmo_polarized_energy": -19.8, 
			 "cosmo_cavitation_energy": 30.74, 
			 "cosmo_dispersion_energy": -23.1, 
			 "cosmo_repulsion_energy": 1.76, 
			 "cosmo_total_nonelectrostatic_energy": 9.4, 
			 "SMD_solvation_energy": 3.31 
		},
		"coords": [
			{
				"x": -0.5740897284,
				"y": -4.1037502684,
				"z": -2.7523784258,
				"element": "O" 
			},
			{
				"x": -0.3397555521,
				"y": -2.7464651885,
				"z": -3.2702548189,
				"element": "S" 
			},
			{
				"x": -0.6038046268,
				"y": -2.4212983805,
				"z": -4.6809224839,
				"element": "O" 
			},
			{
				"x": 1.3694316698,
				"y": -2.2201105731,
				"z": -2.8361101514,
				"element": "C" 
			},
			{
				"x": 1.2076198081,
				"y": -0.8667990163,
				"z": -2.1417626575,
				"element": "C" 
			},
			{
				"x": -0.0706920793,
				"y": -0.9364805883,
				"z": -1.2778683826,
				"element": "C" 
			},
			{
				"x": -1.1735364363,
				"y": -1.5167476218,
				"z": -2.1947721427,
				"element": "C" 
			},
			{
				"x": -0.4067575272,
				"y": 0.3626386633,
				"z": -0.73804908,
				"element": "N" 
			},
			{
				"x": -1.0762967245,
				"y": 0.5478216852,
				"z": 0.4718125762,
				"element": "C" 
			},
			{
				"x": -1.0669246134,
				"y": 1.8218071332,
				"z": 1.0726477678,
				"element": "C" 
			},
			{
				"x": -1.7408522699,
				"y": 2.0477582419,
				"z": 2.267703996,
				"element": "C" 
			},
			{
				"x": -2.4403000098,
				"y": 1.0151915074,
				"z": 2.8995086,
				"element": "C" 
			},
			{
				"x": -2.4542377451,
				"y": -0.2469603312,
				"z": 2.3079123614,
				"element": "C" 
			},
			{
				"x": -1.7851198864,
				"y": -0.4874284814,
				"z": 1.1066653677,
				"element": "C" 
			},
			{
				"x": 1.9480846368,
				"y": -2.1882546896,
				"z": -3.7603105337,
				"element": "H" 
			},
			{
				"x": 1.7702119115,
				"y": -2.9868220308,
				"z": -2.1691410747,
				"element": "H" 
			},
			{
				"x": 1.0903636977,
				"y": -0.0733905135,
				"z": -2.8905344071,
				"element": "H" 
			},
			{
				"x": 2.0814251724,
				"y": -0.6259812097,
				"z": -1.5287276259,
				"element": "H" 
			},
			{
				"x": 0.1103287841,
				"y": -1.6479392596,
				"z": -0.4587879716,
				"element": "H" 
			},
			{
				"x": -1.9810416751,
				"y": -2.0278361391,
				"z": -1.6694497094,
				"element": "H" 
			},
			{
				"x": -1.5806096287,
				"y": -0.7387095062,
				"z": -2.8438234952,
				"element": "H" 
			},
			{
				"x": 0.2173314118,
				"y": 1.1126650102,
				"z": -0.9973900103,
				"element": "H" 
			},
			{
				"x": -0.525222677,
				"y": 2.6336212767,
				"z": 0.5918848686,
				"element": "H" 
			},
			{
				"x": -1.7158839061,
				"y": 3.03966334,
				"z": 2.7105139588,
				"element": "H" 
			},
			{
				"x": -2.9650491942,
				"y": 1.1940702015,
				"z": 3.8324250695,
				"element": "H" 
			},
			{
				"x": -2.9945501401,
				"y": -1.0628109446,
				"z": 2.7801609477,
				"element": "H" 
			},
			{
				"x": -1.8265726717,
				"y": -1.4778523167,
				"z": 0.6665474572,
				"element": "H" 
			}
		],
		 "valence_orbital": [ 
			{
				"type": "occ",
				"energy": -0.30618,
				"method": "rhf"
			},
			{
				"type": "occ",
				"energy": -0.2948,
				"method": "rhf"
			},
			{
				"type": "occ",
				"energy": -0.28115,
				"method": "rhf"
			},
			{
				"type": "occ",
				"energy": -0.25266,
				"method": "rhf"
			},
			{
				"type": "occ",
				"energy": -0.20745,
				"method": "rhf"
			},
			{
				"type": "unocc",
				"energy": -0.00423,
				"method": "rhf"
			},
			{
				"type": "unocc",
				"energy": 0.01099,
				"method": "rhf"
			},
			{
				"type": "unocc",
				"energy": 0.04735,
				"method": "rhf"
			},
			{
				"type": "unocc",
				"energy": 0.05427,
				"method": "rhf"
			},
			{
				"type": "unocc",
				"energy": 0.05975,
				"method": "rhf"
			}
		],
		"cosmo_sigma_profile": { 
			"-0.025": 0.0,
			"-0.024": 0.0,
			"-0.023": 0.0,
			"-0.022": 0.0,
			"-0.021": 0.0,
			"-0.02": 0.0,
			"-0.019": 0.0,
			"-0.018": 0.0,
			"-0.017": 0.0,
			"-0.016": 0.0,
			"-0.015": 0.0,
			"-0.014": 0.0,
			"-0.013": 0.528688069094,
			"-0.012": 1.50076170575,
			"-0.011": 1.11831396012,
			"-0.01": 1.81075787609,
			"-0.009": 1.06013251629,
			"-0.008": 9.8317667179,
			"-0.007": 14.5709313744,
			"-0.006": 19.1265116997,
			"-0.005": 24.2309484903,
			"-0.004": 20.3089303336,
			"-0.003": 17.8972456066,
			"-0.002": 13.3721193035,
			"-0.001": 8.37501849133,
			"0.0": 8.17113139977,
			"0.001": 9.81392717414,
			"0.002": 8.02913809206,
			"0.003": 8.24209940201,
			"0.004": 9.69503143936,
			"0.005": 9.50907741091,
			"0.006": 11.7859849331,
			"0.007": 10.5234337749,
			"0.008": 3.66627226813,
			"0.009": 2.92425839461,
			"0.01": 2.86643224005,
			"0.011": 9.20684213885,
			"0.012": 11.9614239304,
			"0.013": 2.86744324402,
			"0.014": 0.0,
			"0.015": 0.0,
			"0.016": 0.0,
			"0.017": 0.0,
			"0.018": 0.0,
			"0.019": 0.0,
			"0.02": 0.0,
			"0.021": 0.0,
			"0.022": 0.0,
			"0.023": 0.0,
			"0.024": 0.0,
			"0.025": 0.0
		}
	}
}
