{
	 "smiles": "NC1=C(C=C(OC2=CC=C(F)C=C2)C(F)=C1)C(O)=O", 
	 "Tm": 468.15, 
	 "num_atms": 28, 
	 "gaussian": { 
		 "optdone": 1, 
		 "sigma_profile": "yes", 
		 "theory": "DFT", 
		 "functional": "B3LYP", 
		 "basiset": "6-31G**", 
		 "properties": { 
			 "R2extent": 6529.5798, 
			 "electric_dipole_moment_norm": 1.85208393438, 
			 "electric_quadrupole_moment_norm": 27.5232286587, 
			 "total_energy": -980.901034329, 
			 "HOMO_LUMO_gap": 0.16186, 
			 "cosmo_polarized_energy": -16.6, 
			 "cosmo_cavitation_energy": 34.2, 
			 "cosmo_dispersion_energy": -24.58, 
			 "cosmo_repulsion_energy": 1.84, 
			 "cosmo_total_nonelectrostatic_energy": 11.46, 
			 "SMD_solvation_energy": 7.87 
		},
		"coords": [
			{
				"x": 2.4144085115,
				"y": 3.0159587043,
				"z": 0.8093547616,
				"element": "N" 
			},
			{
				"x": 1.6620545837,
				"y": 2.0417506857,
				"z": 0.2266381971,
				"element": "C" 
			},
			{
				"x": 0.4680177358,
				"y": 2.3438809471,
				"z": -0.4982051593,
				"element": "C" 
			},
			{
				"x": -0.2754613012,
				"y": 1.287147148,
				"z": -1.0601494828,
				"element": "C" 
			},
			{
				"x": 0.1349332116,
				"y": -0.0314037058,
				"z": -0.9820579553,
				"element": "C" 
			},
			{
				"x": -0.5698542773,
				"y": -1.0233844882,
				"z": -1.628508209,
				"element": "O" 
			},
			{
				"x": -1.1818805336,
				"y": -2.0217527336,
				"z": -0.8861882647,
				"element": "C" 
			},
			{
				"x": -1.4466619294,
				"y": -1.9174983151,
				"z": 0.4803207213,
				"element": "C" 
			},
			{
				"x": -2.103095218,
				"y": -2.9612825412,
				"z": 1.1359855613,
				"element": "C" 
			},
			{
				"x": -2.4874107514,
				"y": -4.0827221846,
				"z": 0.4128331009,
				"element": "C" 
			},
			{
				"x": -3.1230243001,
				"y": -5.0914650657,
				"z": 1.0484880258,
				"element": "F" 
			},
			{
				"x": -2.2350280421,
				"y": -4.1939675653,
				"z": -0.951034393,
				"element": "C" 
			},
			{
				"x": -1.5754761927,
				"y": -3.1550469295,
				"z": -1.6027003427,
				"element": "C" 
			},
			{
				"x": 1.3370134591,
				"y": -0.3024450366,
				"z": -0.305853505,
				"element": "C" 
			},
			{
				"x": 1.7557038752,
				"y": -1.5747030424,
				"z": -0.2300333297,
				"element": "F" 
			},
			{
				"x": 2.0806829529,
				"y": 0.6923190021,
				"z": 0.2912788223,
				"element": "C" 
			},
			{
				"x": 0.0065424969,
				"y": 3.7483044488,
				"z": -0.6063587778,
				"element": "C" 
			},
			{
				"x": -0.9331978713,
				"y": 4.0315072868,
				"z": -1.5450300219,
				"element": "O" 
			},
			{
				"x": 0.4156955147,
				"y": 4.6612212272,
				"z": 0.0921569598,
				"element": "O" 
			},
			{
				"x": 1.9857444167,
				"y": 3.9296025778,
				"z": 0.9022584216,
				"element": "H" 
			},
			{
				"x": 3.1588467723,
				"y": 2.7501049483,
				"z": 1.4324616534,
				"element": "H" 
			},
			{
				"x": -1.2245553333,
				"y": 1.4702098185,
				"z": -1.5553947213,
				"element": "H" 
			},
			{
				"x": -1.1515483833,
				"y": -1.0314330678,
				"z": 1.0309508914,
				"element": "H" 
			},
			{
				"x": -2.3202666984,
				"y": -2.9074082552,
				"z": 2.1972196602,
				"element": "H" 
			},
			{
				"x": -2.5492615248,
				"y": -5.0844848353,
				"z": -1.4843104387,
				"element": "H" 
			},
			{
				"x": -1.357218835,
				"y": -3.2075281184,
				"z": -2.6638568025,
				"element": "H" 
			},
			{
				"x": 2.9949097121,
				"y": 0.421799851,
				"z": 0.8092948207,
				"element": "H" 
			},
			{
				"x": -1.0308120507,
				"y": 3.291419239,
				"z": -2.1590601936,
				"element": "H" 
			}
		],
		 "valence_orbital": [ 
			{
				"type": "occ",
				"energy": -0.28364,
				"method": "rhf"
			},
			{
				"type": "occ",
				"energy": -0.27102,
				"method": "rhf"
			},
			{
				"type": "occ",
				"energy": -0.26596,
				"method": "rhf"
			},
			{
				"type": "occ",
				"energy": -0.23243,
				"method": "rhf"
			},
			{
				"type": "occ",
				"energy": -0.21583,
				"method": "rhf"
			},
			{
				"type": "unocc",
				"energy": -0.05397,
				"method": "rhf"
			},
			{
				"type": "unocc",
				"energy": -0.01702,
				"method": "rhf"
			},
			{
				"type": "unocc",
				"energy": -0.01215,
				"method": "rhf"
			},
			{
				"type": "unocc",
				"energy": 0.00924,
				"method": "rhf"
			},
			{
				"type": "unocc",
				"energy": 0.04462,
				"method": "rhf"
			}
		],
		"cosmo_sigma_profile": { 
			"-0.025": 0.0,
			"-0.024": 0.0,
			"-0.023": 0.0,
			"-0.022": 0.0,
			"-0.021": 0.0,
			"-0.02": 0.0,
			"-0.019": 0.518729270011,
			"-0.018": 0.902631119901,
			"-0.017": 0.649939021062,
			"-0.016": 1.40382924196,
			"-0.015": 0.790255066859,
			"-0.014": 2.20117729431,
			"-0.013": 1.99035888156,
			"-0.012": 3.03888176514,
			"-0.011": 2.43389808234,
			"-0.01": 2.8114251535,
			"-0.009": 3.77779385483,
			"-0.008": 5.22116657001,
			"-0.007": 9.66451478963,
			"-0.006": 10.5739805615,
			"-0.005": 11.805027109,
			"-0.004": 11.129627887,
			"-0.003": 11.2579224602,
			"-0.002": 12.3505987129,
			"-0.001": 14.4932301127,
			"0.0": 17.7828081161,
			"0.001": 27.0200379372,
			"0.002": 27.6710627599,
			"0.003": 29.0955979635,
			"0.004": 27.5262428474,
			"0.005": 9.21963007099,
			"0.006": 3.70505604075,
			"0.007": 4.37963317095,
			"0.008": 4.96019571331,
			"0.009": 3.92367959217,
			"0.01": 4.10764452876,
			"0.011": 4.12081894258,
			"0.012": 2.5652957773,
			"0.013": 1.75611914855,
			"0.014": 0.218865205072,
			"0.015": 0.0,
			"0.016": 0.0,
			"0.017": 0.0,
			"0.018": 0.0,
			"0.019": 0.0,
			"0.02": 0.0,
			"0.021": 0.0,
			"0.022": 0.0,
			"0.023": 0.0,
			"0.024": 0.0,
			"0.025": 0.0
		}
	}
}
