{
	 "smiles": "CC1=CC(N)=C(C=C1C)[N+]([O-])=O", 
	 "Tm": 414.15, 
	 "num_atms": 22, 
	 "gaussian": { 
		 "optdone": 1, 
		 "sigma_profile": "yes", 
		 "theory": "DFT", 
		 "functional": "B3LYP", 
		 "basiset": "6-31G**", 
		 "properties": { 
			 "R2extent": 2407.6534, 
			 "electric_dipole_moment_norm": 5.31746638353, 
			 "electric_quadrupole_moment_norm": 13.7583131332, 
			 "total_energy": -570.75348171, 
			 "HOMO_LUMO_gap": 0.1395, 
			 "cosmo_polarized_energy": -11.59, 
			 "cosmo_cavitation_energy": 25.51, 
			 "cosmo_dispersion_energy": -19.02, 
			 "cosmo_repulsion_energy": 1.51, 
			 "cosmo_total_nonelectrostatic_energy": 8.0, 
			 "SMD_solvation_energy": 6.4 
		},
		"coords": [
			{
				"x": -2.3137898677,
				"y": 0.1975789842,
				"z": -2.3950891861,
				"element": "C" 
			},
			{
				"x": -1.4162138635,
				"y": -0.2041043816,
				"z": -1.2515052112,
				"element": "C" 
			},
			{
				"x": -1.5842875048,
				"y": -1.4375303639,
				"z": -0.6445565638,
				"element": "C" 
			},
			{
				"x": -0.7822963327,
				"y": -1.8876532395,
				"z": 0.4334504131,
				"element": "C" 
			},
			{
				"x": -0.9947010549,
				"y": -3.119324411,
				"z": 0.9643100403,
				"element": "N" 
			},
			{
				"x": 0.2254796666,
				"y": -0.9907652256,
				"z": 0.8770535299,
				"element": "C" 
			},
			{
				"x": 0.3964121767,
				"y": 0.2607489201,
				"z": 0.2591006741,
				"element": "C" 
			},
			{
				"x": -0.3963305598,
				"y": 0.678179731,
				"z": -0.7933231624,
				"element": "C" 
			},
			{
				"x": -0.1834257436,
				"y": 2.0293432818,
				"z": -1.4316847417,
				"element": "C" 
			},
			{
				"x": 1.1064978976,
				"y": -1.3113679268,
				"z": 1.9757424863,
				"element": "N" 
			},
			{
				"x": 1.9635373453,
				"y": -0.4893165646,
				"z": 2.3074195474,
				"element": "O" 
			},
			{
				"x": 0.9724322018,
				"y": -2.4078506836,
				"z": 2.5565147593,
				"element": "O" 
			},
			{
				"x": -3.0426810098,
				"y": -0.5830129025,
				"z": -2.6257195264,
				"element": "H" 
			},
			{
				"x": -1.73395219,
				"y": 0.3984316114,
				"z": -3.3036527011,
				"element": "H" 
			},
			{
				"x": -2.8640273368,
				"y": 1.1174310194,
				"z": -2.1645689047,
				"element": "H" 
			},
			{
				"x": -2.3639353735,
				"y": -2.1047678038,
				"z": -1.0046620527,
				"element": "H" 
			},
			{
				"x": -1.787086302,
				"y": -3.6598770289,
				"z": 0.6612883805,
				"element": "H" 
			},
			{
				"x": -0.4551976557,
				"y": -3.3860263633,
				"z": 1.7750901054,
				"element": "H" 
			},
			{
				"x": 1.1836901544,
				"y": 0.8963707281,
				"z": 0.6456675765,
				"element": "H" 
			},
			{
				"x": -1.0764846391,
				"y": 2.6622130142,
				"z": -1.3582596266,
				"element": "H" 
			},
			{
				"x": 0.0568632759,
				"y": 1.9446819695,
				"z": -2.4986988986,
				"element": "H" 
			},
			{
				"x": 0.6396967156,
				"y": 2.5617176355,
				"z": -0.9487169373,
				"element": "H" 
			}
		],
		 "valence_orbital": [ 
			{
				"type": "occ",
				"energy": -0.29544,
				"method": "rhf"
			},
			{
				"type": "occ",
				"energy": -0.29328,
				"method": "rhf"
			},
			{
				"type": "occ",
				"energy": -0.27629,
				"method": "rhf"
			},
			{
				"type": "occ",
				"energy": -0.26186,
				"method": "rhf"
			},
			{
				"type": "occ",
				"energy": -0.21303,
				"method": "rhf"
			},
			{
				"type": "unocc",
				"energy": -0.07353,
				"method": "rhf"
			},
			{
				"type": "unocc",
				"energy": 0.00255,
				"method": "rhf"
			},
			{
				"type": "unocc",
				"energy": 0.01573,
				"method": "rhf"
			},
			{
				"type": "unocc",
				"energy": 0.08151,
				"method": "rhf"
			},
			{
				"type": "unocc",
				"energy": 0.08423,
				"method": "rhf"
			}
		],
		"cosmo_sigma_profile": { 
			"-0.025": 0.0,
			"-0.024": 0.0,
			"-0.023": 0.0,
			"-0.022": 0.0,
			"-0.021": 0.0,
			"-0.02": 0.0,
			"-0.019": 0.0,
			"-0.018": 0.0,
			"-0.017": 0.0,
			"-0.016": 0.0,
			"-0.015": 0.14949796181,
			"-0.014": 1.37228181948,
			"-0.013": 1.19535128473,
			"-0.012": 1.19157769442,
			"-0.011": 1.47129468028,
			"-0.01": 2.04201679721,
			"-0.009": 2.85456804499,
			"-0.008": 2.00548185261,
			"-0.007": 2.26110227065,
			"-0.006": 4.3999201722,
			"-0.005": 9.82355776356,
			"-0.004": 17.4148846772,
			"-0.003": 15.2466796813,
			"-0.002": 16.98560185,
			"-0.001": 17.9004492579,
			"0.0": 21.5230401536,
			"0.001": 15.8640540721,
			"0.002": 13.0052938961,
			"0.003": 14.9088009456,
			"0.004": 9.05611629003,
			"0.005": 3.13164080174,
			"0.006": 3.3183025109,
			"0.007": 4.20571560031,
			"0.008": 4.0521256005,
			"0.009": 7.00685941521,
			"0.01": 4.3245872279,
			"0.011": 3.79327677713,
			"0.012": 1.33383793449,
			"0.013": 0.0,
			"0.014": 0.0,
			"0.015": 0.0,
			"0.016": 0.0,
			"0.017": 0.0,
			"0.018": 0.0,
			"0.019": 0.0,
			"0.02": 0.0,
			"0.021": 0.0,
			"0.022": 0.0,
			"0.023": 0.0,
			"0.024": 0.0,
			"0.025": 0.0
		}
	}
}
