{
	 "smiles": "NC(=S)CC1=CC=C(Br)C=C1", 
	 "Tm": 420.15, 
	 "num_atms": 19, 
	 "gaussian": { 
		 "optdone": 1, 
		 "sigma_profile": "yes", 
		 "theory": "DFT", 
		 "functional": "B3LYP", 
		 "basiset": "6-31G**", 
		 "properties": { 
			 "R2extent": 5347.2707, 
			 "electric_dipole_moment_norm": 3.41942884266, 
			 "electric_quadrupole_moment_norm": 20.7536816317, 
			 "total_energy": -3334.02753449, 
			 "HOMO_LUMO_gap": 0.17195, 
			 "cosmo_polarized_energy": -15.4, 
			 "cosmo_cavitation_energy": 27.28, 
			 "cosmo_dispersion_energy": -20.48, 
			 "cosmo_repulsion_energy": 1.62, 
			 "cosmo_total_nonelectrostatic_energy": 8.42, 
			 "SMD_solvation_energy": 2.37 
		},
		"coords": [
			{
				"x": -1.9101060794,
				"y": -0.419283721,
				"z": 0.8217532167,
				"element": "N" 
			},
			{
				"x": -0.9224526463,
				"y": -0.7679824558,
				"z": 1.6625838089,
				"element": "C" 
			},
			{
				"x": -1.1987218992,
				"y": -1.5252088985,
				"z": 3.117879574,
				"element": "S" 
			},
			{
				"x": 0.4909559408,
				"y": -0.3689768391,
				"z": 1.2206980324,
				"element": "C" 
			},
			{
				"x": 0.6895889818,
				"y": -0.1379140255,
				"z": -0.2626421029,
				"element": "C" 
			},
			{
				"x": 0.926750668,
				"y": -1.2167526852,
				"z": -1.1281099951,
				"element": "C" 
			},
			{
				"x": 1.0950041826,
				"y": -1.0213833864,
				"z": -2.4978095655,
				"element": "C" 
			},
			{
				"x": 1.0226343857,
				"y": 0.2724423892,
				"z": -3.0147691107,
				"element": "C" 
			},
			{
				"x": 1.2526858337,
				"y": 0.5503420647,
				"z": -4.8904277738,
				"element": "Br" 
			},
			{
				"x": 0.7881421533,
				"y": 1.3643721338,
				"z": -2.1823399934,
				"element": "C" 
			},
			{
				"x": 0.6234459542,
				"y": 1.1503890888,
				"z": -0.812057585,
				"element": "C" 
			},
			{
				"x": -2.8629869595,
				"y": -0.641260247,
				"z": 1.0706396057,
				"element": "H" 
			},
			{
				"x": -1.7152320673,
				"y": -0.0036027445,
				"z": -0.0786224292,
				"element": "H" 
			},
			{
				"x": 1.1671099016,
				"y": -1.1432093491,
				"z": 1.5889153402,
				"element": "H" 
			},
			{
				"x": 0.7401693818,
				"y": 0.5418068292,
				"z": 1.7785346508,
				"element": "H" 
			},
			{
				"x": 0.9848502874,
				"y": -2.2244345036,
				"z": -0.7250354731,
				"element": "H" 
			},
			{
				"x": 1.2829122317,
				"y": -1.861696265,
				"z": -3.1564415318,
				"element": "H" 
			},
			{
				"x": 0.7418688742,
				"y": 2.3659803416,
				"z": -2.5944818125,
				"element": "H" 
			},
			{
				"x": 0.4534808748,
				"y": 2.0043722735,
				"z": -0.1608668557,
				"element": "H" 
			}
		],
		 "valence_orbital": [ 
			{
				"type": "occ",
				"energy": -0.29725,
				"method": "rhf"
			},
			{
				"type": "occ",
				"energy": -0.27929,
				"method": "rhf"
			},
			{
				"type": "occ",
				"energy": -0.25508,
				"method": "rhf"
			},
			{
				"type": "occ",
				"energy": -0.23152,
				"method": "rhf"
			},
			{
				"type": "occ",
				"energy": -0.20765,
				"method": "rhf"
			},
			{
				"type": "unocc",
				"energy": -0.0357,
				"method": "rhf"
			},
			{
				"type": "unocc",
				"energy": -0.03297,
				"method": "rhf"
			},
			{
				"type": "unocc",
				"energy": -0.02617,
				"method": "rhf"
			},
			{
				"type": "unocc",
				"energy": -0.0035,
				"method": "rhf"
			},
			{
				"type": "unocc",
				"energy": 0.07302,
				"method": "rhf"
			}
		],
		"cosmo_sigma_profile": { 
			"-0.025": 0.0,
			"-0.024": 0.0,
			"-0.023": 0.0,
			"-0.022": 0.0,
			"-0.021": 0.0,
			"-0.02": 0.0,
			"-0.019": 0.0,
			"-0.018": 0.0,
			"-0.017": 0.0,
			"-0.016": 0.0413796720061,
			"-0.015": 0.964456169016,
			"-0.014": 1.87185182998,
			"-0.013": 1.61009663119,
			"-0.012": 2.35974046866,
			"-0.011": 1.9067678602,
			"-0.01": 1.51190493118,
			"-0.009": 2.16127297295,
			"-0.008": 2.45098370018,
			"-0.007": 10.6184054597,
			"-0.006": 15.8201740209,
			"-0.005": 13.4267980017,
			"-0.004": 12.2884015325,
			"-0.003": 12.0637342339,
			"-0.002": 11.4202361891,
			"-0.001": 12.359942655,
			"0.0": 11.6363248998,
			"0.001": 13.8114149434,
			"0.002": 18.5318913251,
			"0.003": 19.4404543168,
			"0.004": 15.0823924873,
			"0.005": 10.3100038278,
			"0.006": 2.42959853649,
			"0.007": 3.67723194021,
			"0.008": 5.27773100698,
			"0.009": 5.9405562715,
			"0.01": 6.17401655826,
			"0.011": 4.28993265016,
			"0.012": 3.28979705368,
			"0.013": 0.957865572422,
			"0.014": 0.0,
			"0.015": 0.0,
			"0.016": 0.0,
			"0.017": 0.0,
			"0.018": 0.0,
			"0.019": 0.0,
			"0.02": 0.0,
			"0.021": 0.0,
			"0.022": 0.0,
			"0.023": 0.0,
			"0.024": 0.0,
			"0.025": 0.0
		}
	}
}
