{
	 "smiles": "CCC1=CC(=NC=C1)C(O)=O", 
	 "Tm": 383.15, 
	 "num_atms": 20, 
	 "gaussian": { 
		 "optdone": 1, 
		 "sigma_profile": "yes", 
		 "theory": "DFT", 
		 "functional": "B3LYP", 
		 "basiset": "6-31G**", 
		 "properties": { 
			 "R2extent": 2454.266, 
			 "electric_dipole_moment_norm": 5.93960357179, 
			 "electric_quadrupole_moment_norm": 12.3405970099, 
			 "total_energy": -515.500123995, 
			 "HOMO_LUMO_gap": 0.20215, 
			 "cosmo_polarized_energy": -11.09, 
			 "cosmo_cavitation_energy": 24.27, 
			 "cosmo_dispersion_energy": -17.75, 
			 "cosmo_repulsion_energy": 1.44, 
			 "cosmo_total_nonelectrostatic_energy": 7.96, 
			 "SMD_solvation_energy": 4.74 
		},
		"coords": [
			{
				"x": 1.7698557603,
				"y": 1.2846641684,
				"z": -1.9283091115,
				"element": "C" 
			},
			{
				"x": 0.3011967797,
				"y": 1.0649275885,
				"z": -1.5187867126,
				"element": "C" 
			},
			{
				"x": 0.1357252791,
				"y": 0.9225166538,
				"z": -0.0234797567,
				"element": "C" 
			},
			{
				"x": 0.267934714,
				"y": -0.3185091219,
				"z": 0.6099176104,
				"element": "C" 
			},
			{
				"x": 0.1420051326,
				"y": -0.3876850856,
				"z": 1.9947862694,
				"element": "C" 
			},
			{
				"x": -0.1028392124,
				"y": 0.6761617609,
				"z": 2.7762036016,
				"element": "N" 
			},
			{
				"x": -0.2309032372,
				"y": 1.8635860457,
				"z": 2.1760180346,
				"element": "C" 
			},
			{
				"x": -0.1204487908,
				"y": 2.0305070889,
				"z": 0.7953553017,
				"element": "C" 
			},
			{
				"x": 0.2745930533,
				"y": -1.707733555,
				"z": 2.7153814117,
				"element": "C" 
			},
			{
				"x": 0.1260301734,
				"y": -1.6080277059,
				"z": 4.0447961879,
				"element": "O" 
			},
			{
				"x": 0.4944121323,
				"y": -2.7536782504,
				"z": 2.1466930693,
				"element": "O" 
			},
			{
				"x": 1.8556218163,
				"y": 1.3810749738,
				"z": -3.0148973011,
				"element": "H" 
			},
			{
				"x": 2.1741068032,
				"y": 2.1942958623,
				"z": -1.4729464857,
				"element": "H" 
			},
			{
				"x": 2.3962536894,
				"y": 0.4452949171,
				"z": -1.6109050711,
				"element": "H" 
			},
			{
				"x": -0.0821169546,
				"y": 0.1647332219,
				"z": -2.0121131387,
				"element": "H" 
			},
			{
				"x": -0.3061224093,
				"y": 1.9051045183,
				"z": -1.8741691781,
				"element": "H" 
			},
			{
				"x": 0.460736364,
				"y": -1.2314360122,
				"z": 0.0561378492,
				"element": "H" 
			},
			{
				"x": -0.4329777222,
				"y": 2.7144982633,
				"z": 2.8226393622,
				"element": "H" 
			},
			{
				"x": -0.238943843,
				"y": 3.0196604868,
				"z": 0.3621500568,
				"element": "H" 
			},
			{
				"x": -0.0407195282,
				"y": -0.6581558186,
				"z": 4.2261280008,
				"element": "H" 
			}
		],
		 "valence_orbital": [ 
			{
				"type": "occ",
				"energy": -0.30772,
				"method": "rhf"
			},
			{
				"type": "occ",
				"energy": -0.29863,
				"method": "rhf"
			},
			{
				"type": "occ",
				"energy": -0.29517,
				"method": "rhf"
			},
			{
				"type": "occ",
				"energy": -0.27939,
				"method": "rhf"
			},
			{
				"type": "occ",
				"energy": -0.26377,
				"method": "rhf"
			},
			{
				"type": "unocc",
				"energy": -0.06162,
				"method": "rhf"
			},
			{
				"type": "unocc",
				"energy": -0.03945,
				"method": "rhf"
			},
			{
				"type": "unocc",
				"energy": 0.04957,
				"method": "rhf"
			},
			{
				"type": "unocc",
				"energy": 0.08232,
				"method": "rhf"
			},
			{
				"type": "unocc",
				"energy": 0.10244,
				"method": "rhf"
			}
		],
		"cosmo_sigma_profile": { 
			"-0.025": 0.0,
			"-0.024": 0.0,
			"-0.023": 0.0,
			"-0.022": 0.0,
			"-0.021": 0.0,
			"-0.02": 0.0,
			"-0.019": 0.0,
			"-0.018": 0.0,
			"-0.017": 0.0,
			"-0.016": 0.0,
			"-0.015": 0.0,
			"-0.014": 0.0,
			"-0.013": 0.174172190732,
			"-0.012": 0.346783351807,
			"-0.011": 0.349101220472,
			"-0.01": 0.80586734822,
			"-0.009": 0.983601178197,
			"-0.008": 1.40070466615,
			"-0.007": 6.21173776298,
			"-0.006": 7.8651289628,
			"-0.005": 10.7968343523,
			"-0.004": 15.8637324491,
			"-0.003": 18.0099202235,
			"-0.002": 18.6577990161,
			"-0.001": 21.492638094,
			"0.0": 23.2518000176,
			"0.001": 19.612480972,
			"0.002": 5.70660686442,
			"0.003": 3.96545252846,
			"0.004": 3.71143931066,
			"0.005": 4.77609597787,
			"0.006": 3.26812584564,
			"0.007": 2.72180027511,
			"0.008": 3.10524177451,
			"0.009": 3.46660004054,
			"0.01": 5.31118214538,
			"0.011": 4.82863148914,
			"0.012": 4.49510723487,
			"0.013": 1.62672716295,
			"0.014": 0.0719460405424,
			"0.015": 0.0,
			"0.016": 0.0,
			"0.017": 0.0,
			"0.018": 0.0,
			"0.019": 0.0,
			"0.02": 0.0,
			"0.021": 0.0,
			"0.022": 0.0,
			"0.023": 0.0,
			"0.024": 0.0,
			"0.025": 0.0
		}
	}
}
