{
	 "smiles": "CC1=CC=C(C=C1)C(C)(C)C", 
	 "Tm": 219.15, 
	 "num_atms": 27, 
	 "gaussian": { 
		 "optdone": 1, 
		 "sigma_profile": "yes", 
		 "theory": "DFT", 
		 "functional": "B3LYP", 
		 "basiset": "6-31G**", 
		 "properties": { 
			 "R2extent": 2869.2256, 
			 "electric_dipole_moment_norm": 0.0743900530985, 
			 "electric_quadrupole_moment_norm": 3.8701528006, 
			 "total_energy": -428.83604816, 
			 "HOMO_LUMO_gap": 0.2325, 
			 "cosmo_polarized_energy": -3.24, 
			 "cosmo_cavitation_energy": 27.95, 
			 "cosmo_dispersion_energy": -20.0, 
			 "cosmo_repulsion_energy": 1.59, 
			 "cosmo_total_nonelectrostatic_energy": 9.54, 
			 "SMD_solvation_energy": 4.99 
		},
		"coords": [
			{
				"x": 2.9817674567,
				"y": 2.9804522424,
				"z": -1.9711348001,
				"element": "C" 
			},
			{
				"x": 1.8666451183,
				"y": 2.4134475707,
				"z": -1.1244659783,
				"element": "C" 
			},
			{
				"x": 1.1050152891,
				"y": 1.3233607953,
				"z": -1.5506033433,
				"element": "C" 
			},
			{
				"x": 0.0641295294,
				"y": 0.8112584113,
				"z": -0.7699103799,
				"element": "C" 
			},
			{
				"x": -0.2593172657,
				"y": 1.3677160301,
				"z": 0.4731553571,
				"element": "C" 
			},
			{
				"x": 0.5127880956,
				"y": 2.4641722862,
				"z": 0.8976785337,
				"element": "C" 
			},
			{
				"x": 1.5486212187,
				"y": 2.9740979233,
				"z": 0.1212882342,
				"element": "C" 
			},
			{
				"x": -1.3954359221,
				"y": 0.8339373319,
				"z": 1.3644845443,
				"element": "C" 
			},
			{
				"x": -2.4342440429,
				"y": 1.9557147556,
				"z": 1.6028146622,
				"element": "C" 
			},
			{
				"x": -0.8138920917,
				"y": 0.3786475633,
				"z": 2.7242213824,
				"element": "C" 
			},
			{
				"x": -2.1230951684,
				"y": -0.3657297733,
				"z": 0.7286031346,
				"element": "C" 
			},
			{
				"x": 3.2066968598,
				"y": 2.3312570424,
				"z": -2.822139607,
				"element": "H" 
			},
			{
				"x": 2.7187400649,
				"y": 3.9680790201,
				"z": -2.3696593126,
				"element": "H" 
			},
			{
				"x": 3.9028026736,
				"y": 3.104681895,
				"z": -1.3907836838,
				"element": "H" 
			},
			{
				"x": 1.3247932639,
				"y": 0.8603420123,
				"z": -2.5099694532,
				"element": "H" 
			},
			{
				"x": -0.4931027578,
				"y": -0.0374290359,
				"z": -1.1504697026,
				"element": "H" 
			},
			{
				"x": 0.3050826341,
				"y": 2.9315658229,
				"z": 1.8562847607,
				"element": "H" 
			},
			{
				"x": 2.1221602622,
				"y": 3.8224217957,
				"z": 0.4888248544,
				"element": "H" 
			},
			{
				"x": -3.2477243255,
				"y": 1.5945441229,
				"z": 2.2425384929,
				"element": "H" 
			},
			{
				"x": -2.8700441595,
				"y": 2.2925721925,
				"z": 0.6564381923,
				"element": "H" 
			},
			{
				"x": -1.9878279192,
				"y": 2.8263668559,
				"z": 2.0923512204,
				"element": "H" 
			},
			{
				"x": -0.3162980064,
				"y": 1.1994760726,
				"z": 3.2492327324,
				"element": "H" 
			},
			{
				"x": -1.6114804841,
				"y": 0.0018984031,
				"z": 3.3748795157,
				"element": "H" 
			},
			{
				"x": -0.080183996,
				"y": -0.4225264881,
				"z": 2.5870654742,
				"element": "H" 
			},
			{
				"x": -1.4467265897,
				"y": -1.2104219645,
				"z": 0.5610820179,
				"element": "H" 
			},
			{
				"x": -2.9209183,
				"y": -0.7094089522,
				"z": 1.3951720033,
				"element": "H" 
			},
			{
				"x": -2.5841514371,
				"y": -0.1016939315,
				"z": -0.2288788521,
				"element": "H" 
			}
		],
		 "valence_orbital": [ 
			{
				"type": "occ",
				"energy": -0.32232,
				"method": "rhf"
			},
			{
				"type": "occ",
				"energy": -0.3139,
				"method": "rhf"
			},
			{
				"type": "occ",
				"energy": -0.30925,
				"method": "rhf"
			},
			{
				"type": "occ",
				"energy": -0.24053,
				"method": "rhf"
			},
			{
				"type": "occ",
				"energy": -0.22601,
				"method": "rhf"
			},
			{
				"type": "unocc",
				"energy": 0.00649,
				"method": "rhf"
			},
			{
				"type": "unocc",
				"energy": 0.00867,
				"method": "rhf"
			},
			{
				"type": "unocc",
				"energy": 0.08486,
				"method": "rhf"
			},
			{
				"type": "unocc",
				"energy": 0.10831,
				"method": "rhf"
			},
			{
				"type": "unocc",
				"energy": 0.12268,
				"method": "rhf"
			}
		],
		"cosmo_sigma_profile": { 
			"-0.025": 0.0,
			"-0.024": 0.0,
			"-0.023": 0.0,
			"-0.022": 0.0,
			"-0.021": 0.0,
			"-0.02": 0.0,
			"-0.019": 0.0,
			"-0.018": 0.0,
			"-0.017": 0.0,
			"-0.016": 0.0,
			"-0.015": 0.0,
			"-0.014": 0.0,
			"-0.013": 0.0,
			"-0.012": 0.0,
			"-0.011": 0.0,
			"-0.01": 0.0,
			"-0.009": 0.0,
			"-0.008": 0.0,
			"-0.007": 0.0,
			"-0.006": 0.0,
			"-0.005": 4.20407724964,
			"-0.004": 14.0372278433,
			"-0.003": 24.8556854805,
			"-0.002": 33.6751459271,
			"-0.001": 28.7732988962,
			"0.0": 28.1118835828,
			"0.001": 30.1197755459,
			"0.002": 17.4428217223,
			"0.003": 8.23179425787,
			"0.004": 7.07017665096,
			"0.005": 7.33291701599,
			"0.006": 7.07161245064,
			"0.007": 6.3099669569,
			"0.008": 0.703562034923,
			"0.009": 0.0,
			"0.01": 0.0,
			"0.011": 0.0,
			"0.012": 0.0,
			"0.013": 0.0,
			"0.014": 0.0,
			"0.015": 0.0,
			"0.016": 0.0,
			"0.017": 0.0,
			"0.018": 0.0,
			"0.019": 0.0,
			"0.02": 0.0,
			"0.021": 0.0,
			"0.022": 0.0,
			"0.023": 0.0,
			"0.024": 0.0,
			"0.025": 0.0
		}
	}
}
