{
	 "smiles": "CCOC(=O)C(=CC1=CC(C=C(C(=O)OCC)C(=O)OCC)=CC(N)=C1)C(=O)OCC", 
	 "Tm": 447.15, 
	 "num_atms": 58, 
	 "gaussian": { 
		 "optdone": 1, 
		 "sigma_profile": "yes", 
		 "theory": "DFT", 
		 "functional": "B3LYP", 
		 "basiset": "6-31G**", 
		 "properties": { 
			 "R2extent": 19256.3, 
			 "electric_dipole_moment_norm": 1.85192781987, 
			 "electric_quadrupole_moment_norm": 24.7173149021, 
			 "total_energy": -1511.18529309, 
			 "HOMO_LUMO_gap": 0.1403, 
			 "cosmo_polarized_energy": -25.71, 
			 "cosmo_cavitation_energy": 64.8, 
			 "cosmo_dispersion_energy": -40.7, 
			 "cosmo_repulsion_energy": 3.22, 
			 "cosmo_total_nonelectrostatic_energy": 27.32, 
			 "SMD_solvation_energy": 14.86 
		},
		"coords": [
			{
				"x": -1.3754480672,
				"y": -2.6733224579,
				"z": -6.5637903174,
				"element": "C" 
			},
			{
				"x": -2.4318458087,
				"y": -2.620154341,
				"z": -5.4773802871,
				"element": "C" 
			},
			{
				"x": -1.7490964414,
				"y": -2.7388766033,
				"z": -4.2051722451,
				"element": "O" 
			},
			{
				"x": -2.5290113465,
				"y": -2.7576451536,
				"z": -3.1158614368,
				"element": "C" 
			},
			{
				"x": -3.7353462571,
				"y": -2.6101998722,
				"z": -3.1408868844,
				"element": "O" 
			},
			{
				"x": -1.70234338,
				"y": -2.9914958225,
				"z": -1.8790856591,
				"element": "C" 
			},
			{
				"x": -1.4980134476,
				"y": -2.105667283,
				"z": -0.8781083571,
				"element": "C" 
			},
			{
				"x": -1.9726842503,
				"y": -0.7316499819,
				"z": -0.6760727509,
				"element": "C" 
			},
			{
				"x": -1.208896718,
				"y": 0.0744265034,
				"z": 0.1858100469,
				"element": "C" 
			},
			{
				"x": -1.5822744901,
				"y": 1.4023060381,
				"z": 0.4401922506,
				"element": "C" 
			},
			{
				"x": -0.8226893702,
				"y": 2.2950261008,
				"z": 1.3190521482,
				"element": "C" 
			},
			{
				"x": 0.484956751,
				"y": 2.2673053481,
				"z": 1.6477128109,
				"element": "C" 
			},
			{
				"x": 1.5128121461,
				"y": 1.3431252478,
				"z": 1.0529239147,
				"element": "C" 
			},
			{
				"x": 2.0412456541,
				"y": 1.5130420819,
				"z": -0.02262993,
				"element": "O" 
			},
			{
				"x": 1.7908821516,
				"y": 0.3110292719,
				"z": 1.8781971847,
				"element": "O" 
			},
			{
				"x": 2.8421907871,
				"y": -0.5810544433,
				"z": 1.4322598359,
				"element": "C" 
			},
			{
				"x": 3.021791675,
				"y": -1.6419517086,
				"z": 2.5011096858,
				"element": "C" 
			},
			{
				"x": 0.9801780636,
				"y": 3.3106677141,
				"z": 2.5918651082,
				"element": "C" 
			},
			{
				"x": 0.290875383,
				"y": 4.1623857141,
				"z": 3.1188712968,
				"element": "O" 
			},
			{
				"x": 2.3112895349,
				"y": 3.1968686109,
				"z": 2.7892300465,
				"element": "O" 
			},
			{
				"x": 2.9059709351,
				"y": 4.1738816316,
				"z": 3.6736554445,
				"element": "C" 
			},
			{
				"x": 4.3923394311,
				"y": 3.8805017611,
				"z": 3.74276219,
				"element": "C" 
			},
			{
				"x": -2.7588960049,
				"y": 1.9016808944,
				"z": -0.1394707836,
				"element": "C" 
			},
			{
				"x": -3.5417379566,
				"y": 1.1095525505,
				"z": -0.993265758,
				"element": "C" 
			},
			{
				"x": -4.6777536833,
				"y": 1.6331414303,
				"z": -1.6026510056,
				"element": "N" 
			},
			{
				"x": -3.1399661187,
				"y": -0.2089915515,
				"z": -1.2564035386,
				"element": "C" 
			},
			{
				"x": -1.103644598,
				"y": -4.3557208431,
				"z": -1.8393434368,
				"element": "C" 
			},
			{
				"x": -1.3886811246,
				"y": -5.2281903513,
				"z": -2.6387374861,
				"element": "O" 
			},
			{
				"x": -0.2303463995,
				"y": -4.5284451671,
				"z": -0.8201953805,
				"element": "O" 
			},
			{
				"x": 0.3452439085,
				"y": -5.8501071354,
				"z": -0.6866051141,
				"element": "C" 
			},
			{
				"x": -0.5660031278,
				"y": -6.7757931035,
				"z": 0.1051474318,
				"element": "C" 
			},
			{
				"x": -0.6599668511,
				"y": -1.8533309388,
				"z": -6.4544815524,
				"element": "H" 
			},
			{
				"x": -0.8269424265,
				"y": -3.6184876764,
				"z": -6.5259270383,
				"element": "H" 
			},
			{
				"x": -1.8504106611,
				"y": -2.5876763605,
				"z": -7.5461656244,
				"element": "H" 
			},
			{
				"x": -2.990747983,
				"y": -1.6790918896,
				"z": -5.4893057062,
				"element": "H" 
			},
			{
				"x": -3.1535603292,
				"y": -3.4382074618,
				"z": -5.5610377938,
				"element": "H" 
			},
			{
				"x": -0.8249384158,
				"y": -2.4547054994,
				"z": -0.0991282907,
				"element": "H" 
			},
			{
				"x": -0.3442089011,
				"y": -0.3497439301,
				"z": 0.6822217255,
				"element": "H" 
			},
			{
				"x": -1.3842425341,
				"y": 3.1147119596,
				"z": 1.7648989552,
				"element": "H" 
			},
			{
				"x": 3.7525173831,
				"y": 0.0055158907,
				"z": 1.2747428884,
				"element": "H" 
			},
			{
				"x": 2.5559055245,
				"y": -1.0108208899,
				"z": 0.4671286732,
				"element": "H" 
			},
			{
				"x": 3.814625142,
				"y": -2.3360231032,
				"z": 2.2050409935,
				"element": "H" 
			},
			{
				"x": 2.100533087,
				"y": -2.2138248161,
				"z": 2.6456127344,
				"element": "H" 
			},
			{
				"x": 3.2987873929,
				"y": -1.1898046152,
				"z": 3.4576268939,
				"element": "H" 
			},
			{
				"x": 2.7004837451,
				"y": 5.1742907082,
				"z": 3.2802176549,
				"element": "H" 
			},
			{
				"x": 2.4237031056,
				"y": 4.1000751297,
				"z": 4.6535223176,
				"element": "H" 
			},
			{
				"x": 4.5750117182,
				"y": 2.8764072106,
				"z": 4.1363061189,
				"element": "H" 
			},
			{
				"x": 4.8507351154,
				"y": 3.9520046275,
				"z": 2.7523883923,
				"element": "H" 
			},
			{
				"x": 4.8821048861,
				"y": 4.6031597649,
				"z": 4.4028152825,
				"element": "H" 
			},
			{
				"x": -3.063802041,
				"y": 2.9237660937,
				"z": 0.072389658,
				"element": "H" 
			},
			{
				"x": -5.3453023025,
				"y": 0.9532658412,
				"z": -1.9385895713,
				"element": "H" 
			},
			{
				"x": -5.1173115273,
				"y": 2.4084468587,
				"z": -1.1273820686,
				"element": "H" 
			},
			{
				"x": -3.7606290753,
				"y": -0.8402630982,
				"z": -1.880659515,
				"element": "H" 
			},
			{
				"x": 1.2925687964,
				"y": -5.6801984808,
				"z": -0.1691795414,
				"element": "H" 
			},
			{
				"x": 0.5424224709,
				"y": -6.2491254521,
				"z": -1.6841410972,
				"element": "H" 
			},
			{
				"x": -0.7953493967,
				"y": -6.3522922461,
				"z": 1.0874644343,
				"element": "H" 
			},
			{
				"x": -1.5005914708,
				"y": -6.9472365503,
				"z": -0.434173875,
				"element": "H" 
			},
			{
				"x": -0.073292282,
				"y": -7.7424861559,
				"z": 0.2539659272,
				"element": "H" 
			}
		],
		 "valence_orbital": [ 
			{
				"type": "occ",
				"energy": -0.27261,
				"method": "rhf"
			},
			{
				"type": "occ",
				"energy": -0.26926,
				"method": "rhf"
			},
			{
				"type": "occ",
				"energy": -0.25878,
				"method": "rhf"
			},
			{
				"type": "occ",
				"energy": -0.23418,
				"method": "rhf"
			},
			{
				"type": "occ",
				"energy": -0.21205,
				"method": "rhf"
			},
			{
				"type": "unocc",
				"energy": -0.07175,
				"method": "rhf"
			},
			{
				"type": "unocc",
				"energy": -0.05892,
				"method": "rhf"
			},
			{
				"type": "unocc",
				"energy": 0.00217,
				"method": "rhf"
			},
			{
				"type": "unocc",
				"energy": 0.00722,
				"method": "rhf"
			},
			{
				"type": "unocc",
				"energy": 0.02022,
				"method": "rhf"
			}
		],
		"cosmo_sigma_profile": { 
			"-0.025": 0.0,
			"-0.024": 0.0,
			"-0.023": 0.0,
			"-0.022": 0.0,
			"-0.021": 0.0,
			"-0.02": 0.0,
			"-0.019": 0.0,
			"-0.018": 0.0,
			"-0.017": 0.0,
			"-0.016": 0.0,
			"-0.015": 0.0,
			"-0.014": 0.0,
			"-0.013": 1.5087331857,
			"-0.012": 3.19272864537,
			"-0.011": 3.00622137454,
			"-0.01": 2.41455060373,
			"-0.009": 3.2119894194,
			"-0.008": 6.41273643777,
			"-0.007": 6.23579788572,
			"-0.006": 12.0790345129,
			"-0.005": 31.3491311143,
			"-0.004": 53.9523180598,
			"-0.003": 52.253103027,
			"-0.002": 49.2940061913,
			"-0.001": 44.233979096,
			"0.0": 51.1484841201,
			"0.001": 32.2945149417,
			"0.002": 24.7109916602,
			"0.003": 27.8079946987,
			"0.004": 18.3114979954,
			"0.005": 13.7926471453,
			"0.006": 12.0579880809,
			"0.007": 10.2386399522,
			"0.008": 8.28871394984,
			"0.009": 7.62280799658,
			"0.01": 10.547647646,
			"0.011": 15.4084819634,
			"0.012": 9.22904932237,
			"0.013": 0.937098550535,
			"0.014": 0.0797736653059,
			"0.015": 0.0,
			"0.016": 0.0,
			"0.017": 0.0,
			"0.018": 0.0,
			"0.019": 0.0,
			"0.02": 0.0,
			"0.021": 0.0,
			"0.022": 0.0,
			"0.023": 0.0,
			"0.024": 0.0,
			"0.025": 0.0
		}
	}
}
