{
	 "smiles": "N#CC1=C(OC2=NC=CC=C2)C=CC=C1", 
	 "Tm": 346.15, 
	 "num_atms": 23, 
	 "gaussian": { 
		 "optdone": 1, 
		 "sigma_profile": "yes", 
		 "theory": "DFT", 
		 "functional": "B3LYP", 
		 "basiset": "6-31G**", 
		 "properties": { 
			 "R2extent": 3370.7605, 
			 "electric_dipole_moment_norm": 3.70586518643, 
			 "electric_quadrupole_moment_norm": 18.7581049061, 
			 "total_energy": -646.797733455, 
			 "HOMO_LUMO_gap": 0.19398, 
			 "cosmo_polarized_energy": -12.26, 
			 "cosmo_cavitation_energy": 29.31, 
			 "cosmo_dispersion_energy": -20.23, 
			 "cosmo_repulsion_energy": 1.6, 
			 "cosmo_total_nonelectrostatic_energy": 10.68, 
			 "SMD_solvation_energy": 5.63 
		},
		"coords": [
			{
				"x": -2.1617316944,
				"y": 2.0836957778,
				"z": -1.9926229634,
				"element": "N" 
			},
			{
				"x": -1.5185738066,
				"y": 2.0221526543,
				"z": -1.0254989089,
				"element": "C" 
			},
			{
				"x": -0.7430704046,
				"y": 1.9623734076,
				"z": 0.1764754662,
				"element": "C" 
			},
			{
				"x": 0.5918650647,
				"y": 1.5196680063,
				"z": 0.1427135739,
				"element": "C" 
			},
			{
				"x": 1.1949403289,
				"y": 1.218436667,
				"z": -1.0639535148,
				"element": "O" 
			},
			{
				"x": 0.989161357,
				"y": -0.0193597171,
				"z": -1.6283456412,
				"element": "C" 
			},
			{
				"x": 0.3078059395,
				"y": -0.9265570377,
				"z": -0.9500388697,
				"element": "N" 
			},
			{
				"x": 0.1376941189,
				"y": -2.1255892865,
				"z": -1.5317756926,
				"element": "C" 
			},
			{
				"x": 0.6420409896,
				"y": -2.4485431555,
				"z": -2.7861238361,
				"element": "C" 
			},
			{
				"x": 1.3621869687,
				"y": -1.4670014877,
				"z": -3.4786742896,
				"element": "C" 
			},
			{
				"x": 1.5462170281,
				"y": -0.2201002699,
				"z": -2.8982711421,
				"element": "C" 
			},
			{
				"x": 1.3503006766,
				"y": 1.4823488978,
				"z": 1.3077537821,
				"element": "C" 
			},
			{
				"x": 0.7826532654,
				"y": 1.8812240228,
				"z": 2.5181088017,
				"element": "C" 
			},
			{
				"x": -0.5440447611,
				"y": 2.3162003414,
				"z": 2.5673240382,
				"element": "C" 
			},
			{
				"x": -1.304123724,
				"y": 2.3586756804,
				"z": 1.4022116013,
				"element": "C" 
			},
			{
				"x": -0.4301390751,
				"y": -2.8532337503,
				"z": -0.9558339059,
				"element": "H" 
			},
			{
				"x": 0.4759527198,
				"y": -3.4326461087,
				"z": -3.2104862247,
				"element": "H" 
			},
			{
				"x": 1.7713277388,
				"y": -1.6732776441,
				"z": -4.4633108751,
				"element": "H" 
			},
			{
				"x": 2.086977532,
				"y": 0.5807884572,
				"z": -3.3886746095,
				"element": "H" 
			},
			{
				"x": 2.3789874705,
				"y": 1.1439398686,
				"z": 1.2491896493,
				"element": "H" 
			},
			{
				"x": 1.3791450578,
				"y": 1.8506938424,
				"z": 3.4248508666,
				"element": "H" 
			},
			{
				"x": -0.9836757653,
				"y": 2.6261490207,
				"z": 3.5097977237,
				"element": "H" 
			},
			{
				"x": -2.3336970252,
				"y": 2.6996618132,
				"z": 1.4229849707,
				"element": "H" 
			}
		],
		 "valence_orbital": [ 
			{
				"type": "occ",
				"energy": -0.29155,
				"method": "rhf"
			},
			{
				"type": "occ",
				"energy": -0.27644,
				"method": "rhf"
			},
			{
				"type": "occ",
				"energy": -0.26783,
				"method": "rhf"
			},
			{
				"type": "occ",
				"energy": -0.25769,
				"method": "rhf"
			},
			{
				"type": "occ",
				"energy": -0.24348,
				"method": "rhf"
			},
			{
				"type": "unocc",
				"energy": -0.0495,
				"method": "rhf"
			},
			{
				"type": "unocc",
				"energy": -0.02678,
				"method": "rhf"
			},
			{
				"type": "unocc",
				"energy": -0.0198,
				"method": "rhf"
			},
			{
				"type": "unocc",
				"energy": -0.00375,
				"method": "rhf"
			},
			{
				"type": "unocc",
				"energy": 0.03942,
				"method": "rhf"
			}
		],
		"cosmo_sigma_profile": { 
			"-0.025": 0.0,
			"-0.024": 0.0,
			"-0.023": 0.0,
			"-0.022": 0.0,
			"-0.021": 0.0,
			"-0.02": 0.0,
			"-0.019": 0.0,
			"-0.018": 0.0,
			"-0.017": 0.0,
			"-0.016": 0.0,
			"-0.015": 0.0,
			"-0.014": 0.0,
			"-0.013": 0.0,
			"-0.012": 0.0,
			"-0.011": 0.0,
			"-0.01": 0.0,
			"-0.009": 0.167346754963,
			"-0.008": 4.68338115121,
			"-0.007": 16.113505217,
			"-0.006": 18.6431926256,
			"-0.005": 18.0741371435,
			"-0.004": 11.7149033487,
			"-0.003": 10.9025227609,
			"-0.002": 14.040394544,
			"-0.001": 13.4664573899,
			"0.0": 17.6911663826,
			"0.001": 21.8808914755,
			"0.002": 26.7638772641,
			"0.003": 18.4767951905,
			"0.004": 7.03432039429,
			"0.005": 5.58292596896,
			"0.006": 4.92337681373,
			"0.007": 5.86536156718,
			"0.008": 4.85754383979,
			"0.009": 4.14560131922,
			"0.01": 4.22220301166,
			"0.011": 3.48861536922,
			"0.012": 3.41767027268,
			"0.013": 1.49842249176,
			"0.014": 0.0,
			"0.015": 0.0,
			"0.016": 0.0,
			"0.017": 0.0,
			"0.018": 0.0,
			"0.019": 0.0,
			"0.02": 0.0,
			"0.021": 0.0,
			"0.022": 0.0,
			"0.023": 0.0,
			"0.024": 0.0,
			"0.025": 0.0
		}
	}
}
