{
	 "smiles": "CC1=C(C)C=C(C=C1)C1=NN(CC2=CC=CC=C2)C=C1C=O", 
	 "Tm": 353.15, 
	 "num_atms": 40, 
	 "gaussian": { 
		 "optdone": 1, 
		 "sigma_profile": "yes", 
		 "theory": "DFT", 
		 "functional": "B3LYP", 
		 "basiset": "6-31G**", 
		 "properties": { 
			 "R2extent": 9524.0887, 
			 "electric_dipole_moment_norm": 4.66578655534, 
			 "electric_quadrupole_moment_norm": 26.9206062946, 
			 "total_energy": -919.593264199, 
			 "HOMO_LUMO_gap": 0.16671, 
			 "cosmo_polarized_energy": -14.88, 
			 "cosmo_cavitation_energy": 43.92, 
			 "cosmo_dispersion_energy": -30.65, 
			 "cosmo_repulsion_energy": 2.32, 
			 "cosmo_total_nonelectrostatic_energy": 15.59, 
			 "SMD_solvation_energy": 7.66 
		},
		"coords": [
			{
				"x": -2.7363101505,
				"y": -1.659027158,
				"z": -4.943005489,
				"element": "C" 
			},
			{
				"x": -2.2521277629,
				"y": -1.4383527758,
				"z": -3.53076141,
				"element": "C" 
			},
			{
				"x": -1.1335878683,
				"y": -0.6154921944,
				"z": -3.2642719013,
				"element": "C" 
			},
			{
				"x": -0.390062645,
				"y": 0.0662211359,
				"z": -4.3891845818,
				"element": "C" 
			},
			{
				"x": -0.7184398304,
				"y": -0.4380997491,
				"z": -1.9464300992,
				"element": "C" 
			},
			{
				"x": -1.376587866,
				"y": -1.0522999739,
				"z": -0.8630215877,
				"element": "C" 
			},
			{
				"x": -2.4826113082,
				"y": -1.866861579,
				"z": -1.1362771463,
				"element": "C" 
			},
			{
				"x": -2.9017936888,
				"y": -2.0471416548,
				"z": -2.4542134985,
				"element": "C" 
			},
			{
				"x": -0.8783218429,
				"y": -0.8085013756,
				"z": 0.5054352051,
				"element": "C" 
			},
			{
				"x": 0.1547098084,
				"y": 0.0261433607,
				"z": 0.6637499537,
				"element": "N" 
			},
			{
				"x": 0.4239043839,
				"y": 0.062922651,
				"z": 1.9921665501,
				"element": "N" 
			},
			{
				"x": 1.4651617058,
				"y": 0.9615381202,
				"z": 2.4883094836,
				"element": "C" 
			},
			{
				"x": 0.9433483295,
				"y": 2.3239809069,
				"z": 2.9074340515,
				"element": "C" 
			},
			{
				"x": 1.2065409787,
				"y": 2.8148885791,
				"z": 4.1900332693,
				"element": "C" 
			},
			{
				"x": 0.7489978076,
				"y": 4.0776223355,
				"z": 4.5743537539,
				"element": "C" 
			},
			{
				"x": 0.0174287748,
				"y": 4.8559418652,
				"z": 3.6777027509,
				"element": "C" 
			},
			{
				"x": -0.2521102071,
				"y": 4.3690988131,
				"z": 2.3953394961,
				"element": "C" 
			},
			{
				"x": 0.2102061931,
				"y": 3.1120857775,
				"z": 2.0095001118,
				"element": "C" 
			},
			{
				"x": -0.4115625006,
				"y": -0.7138940127,
				"z": 2.69738922,
				"element": "C" 
			},
			{
				"x": -1.2871606927,
				"y": -1.3196815732,
				"z": 1.7961342677,
				"element": "C" 
			},
			{
				"x": -2.3032318892,
				"y": -2.2408503988,
				"z": 2.2945732369,
				"element": "C" 
			},
			{
				"x": -3.1580768889,
				"y": -2.8508714146,
				"z": 1.6720113018,
				"element": "O" 
			},
			{
				"x": -1.9600563486,
				"y": -2.1121714397,
				"z": -5.5722174756,
				"element": "H" 
			},
			{
				"x": -3.6078305164,
				"y": -2.3186667652,
				"z": -4.9619234707,
				"element": "H" 
			},
			{
				"x": -3.0197098984,
				"y": -0.7161064984,
				"z": -5.4271358014,
				"element": "H" 
			},
			{
				"x": -1.043595851,
				"y": 0.7373055742,
				"z": -4.9602852372,
				"element": "H" 
			},
			{
				"x": 0.4439772302,
				"y": 0.6599632226,
				"z": -4.0060620461,
				"element": "H" 
			},
			{
				"x": 0.016995646,
				"y": -0.6586248103,
				"z": -5.1050480374,
				"element": "H" 
			},
			{
				"x": 0.1409778049,
				"y": 0.1916554758,
				"z": -1.7418237407,
				"element": "H" 
			},
			{
				"x": -3.0069258825,
				"y": -2.357605024,
				"z": -0.3252877562,
				"element": "H" 
			},
			{
				"x": -3.7623596737,
				"y": -2.682817181,
				"z": -2.6489837962,
				"element": "H" 
			},
			{
				"x": 2.1885613626,
				"y": 1.0484577229,
				"z": 1.6733384759,
				"element": "H" 
			},
			{
				"x": 1.9625180473,
				"y": 0.4694244521,
				"z": 3.3288783145,
				"element": "H" 
			},
			{
				"x": 1.7743262851,
				"y": 2.2096074788,
				"z": 4.8930997351,
				"element": "H" 
			},
			{
				"x": 0.9604955041,
				"y": 4.4478046739,
				"z": 5.5733630093,
				"element": "H" 
			},
			{
				"x": -0.3425632296,
				"y": 5.8366321033,
				"z": 3.9748988889,
				"element": "H" 
			},
			{
				"x": -0.8221099918,
				"y": 4.9714604438,
				"z": 1.6938771221,
				"element": "H" 
			},
			{
				"x": -0.0011421756,
				"y": 2.7297871826,
				"z": 1.015004738,
				"element": "H" 
			},
			{
				"x": -0.3496956514,
				"y": -0.7985915573,
				"z": 3.7734391558,
				"element": "H" 
			},
			{
				"x": -2.2460755013,
				"y": -2.3644847393,
				"z": 3.3998009834,
				"element": "H" 
			}
		],
		 "valence_orbital": [ 
			{
				"type": "occ",
				"energy": -0.26014,
				"method": "rhf"
			},
			{
				"type": "occ",
				"energy": -0.25675,
				"method": "rhf"
			},
			{
				"type": "occ",
				"energy": -0.24643,
				"method": "rhf"
			},
			{
				"type": "occ",
				"energy": -0.2295,
				"method": "rhf"
			},
			{
				"type": "occ",
				"energy": -0.21087,
				"method": "rhf"
			},
			{
				"type": "unocc",
				"energy": -0.04416,
				"method": "rhf"
			},
			{
				"type": "unocc",
				"energy": -0.02122,
				"method": "rhf"
			},
			{
				"type": "unocc",
				"energy": -0.01338,
				"method": "rhf"
			},
			{
				"type": "unocc",
				"energy": -0.00891,
				"method": "rhf"
			},
			{
				"type": "unocc",
				"energy": 0.01618,
				"method": "rhf"
			}
		],
		"cosmo_sigma_profile": { 
			"-0.025": 0.0,
			"-0.024": 0.0,
			"-0.023": 0.0,
			"-0.022": 0.0,
			"-0.021": 0.0,
			"-0.02": 0.0,
			"-0.019": 0.0,
			"-0.018": 0.0,
			"-0.017": 0.0,
			"-0.016": 0.0,
			"-0.015": 0.0,
			"-0.014": 0.0,
			"-0.013": 0.0,
			"-0.012": 0.0,
			"-0.011": 0.541156191059,
			"-0.01": 3.10086887281,
			"-0.009": 3.40836305643,
			"-0.008": 4.98252073656,
			"-0.007": 7.50412726139,
			"-0.006": 12.8703651955,
			"-0.005": 17.9987504504,
			"-0.004": 32.1304205775,
			"-0.003": 29.816291337,
			"-0.002": 26.2243756406,
			"-0.001": 24.8928437747,
			"0.0": 31.9971360482,
			"0.001": 29.1623505174,
			"0.002": 22.9225025559,
			"0.003": 22.9391521207,
			"0.004": 22.3529176975,
			"0.005": 23.7772525553,
			"0.006": 15.3415413908,
			"0.007": 3.87819740412,
			"0.008": 2.39803195852,
			"0.009": 3.40284846487,
			"0.01": 3.23853907477,
			"0.011": 1.91615370527,
			"0.012": 2.44178002752,
			"0.013": 1.26446444151,
			"0.014": 0.0991850016809,
			"0.015": 0.0,
			"0.016": 0.0,
			"0.017": 0.0,
			"0.018": 0.0,
			"0.019": 0.0,
			"0.02": 0.0,
			"0.021": 0.0,
			"0.022": 0.0,
			"0.023": 0.0,
			"0.024": 0.0,
			"0.025": 0.0
		}
	}
}
