{
	 "smiles": "CN(C)C(=O)C1=CC(N)=NC=C1", 
	 "Tm": 470.15, 
	 "num_atms": 23, 
	 "gaussian": { 
		 "optdone": 1, 
		 "sigma_profile": "yes", 
		 "theory": "DFT", 
		 "functional": "B3LYP", 
		 "basiset": "6-31G**", 
		 "properties": { 
			 "R2extent": 2660.2538, 
			 "electric_dipole_moment_norm": 4.91533258285, 
			 "electric_quadrupole_moment_norm": 2.97907502591, 
			 "total_energy": -550.971316595, 
			 "HOMO_LUMO_gap": 0.18206, 
			 "cosmo_polarized_energy": -15.95, 
			 "cosmo_cavitation_energy": 26.64, 
			 "cosmo_dispersion_energy": -19.31, 
			 "cosmo_repulsion_energy": 1.56, 
			 "cosmo_total_nonelectrostatic_energy": 8.89, 
			 "SMD_solvation_energy": 3.88 
		},
		"coords": [
			{
				"x": -2.0668589239,
				"y": -2.5645900116,
				"z": -0.4142843427,
				"element": "C" 
			},
			{
				"x": -1.1668907615,
				"y": -1.7219106453,
				"z": 0.3629328647,
				"element": "N" 
			},
			{
				"x": -1.5323736262,
				"y": -1.5553128327,
				"z": 1.7624457431,
				"element": "C" 
			},
			{
				"x": 0.0715063412,
				"y": -1.4409162324,
				"z": -0.1694429578,
				"element": "C" 
			},
			{
				"x": 0.445151025,
				"y": -1.9059789108,
				"z": -1.2430561378,
				"element": "O" 
			},
			{
				"x": 0.9755175012,
				"y": -0.4845517361,
				"z": 0.5704791489,
				"element": "C" 
			},
			{
				"x": 0.5430390884,
				"y": 0.7621672282,
				"z": 1.0131979621,
				"element": "C" 
			},
			{
				"x": 1.4838730505,
				"y": 1.63849227,
				"z": 1.5950473976,
				"element": "C" 
			},
			{
				"x": 1.1241333701,
				"y": 2.9123683283,
				"z": 1.9914567697,
				"element": "N" 
			},
			{
				"x": 2.7742468102,
				"y": 1.3103244725,
				"z": 1.7582076429,
				"element": "N" 
			},
			{
				"x": 3.1708650598,
				"y": 0.1113657298,
				"z": 1.3113362366,
				"element": "C" 
			},
			{
				"x": 2.3320697862,
				"y": -0.8157376455,
				"z": 0.7043605101,
				"element": "C" 
			},
			{
				"x": -2.0601261438,
				"y": -3.5999792146,
				"z": -0.0467808013,
				"element": "H" 
			},
			{
				"x": -3.0892606515,
				"y": -2.1780511852,
				"z": -0.3377772101,
				"element": "H" 
			},
			{
				"x": -1.7427666749,
				"y": -2.560661571,
				"z": -1.4533685952,
				"element": "H" 
			},
			{
				"x": -0.7429211195,
				"y": -1.0458722463,
				"z": 2.3108972707,
				"element": "H" 
			},
			{
				"x": -1.700554997,
				"y": -2.5358314779,
				"z": 2.2286352039,
				"element": "H" 
			},
			{
				"x": -2.4588343567,
				"y": -0.974787642,
				"z": 1.8578254604,
				"element": "H" 
			},
			{
				"x": -0.4906767899,
				"y": 1.0712192148,
				"z": 0.8896923595,
				"element": "H" 
			},
			{
				"x": 0.1598769781,
				"y": 3.0732821521,
				"z": 2.2391787032,
				"element": "H" 
			},
			{
				"x": 1.8034898282,
				"y": 3.366867751,
				"z": 2.5849815372,
				"element": "H" 
			},
			{
				"x": 4.2265694139,
				"y": -0.1157968225,
				"z": 1.4507327421,
				"element": "H" 
			},
			{
				"x": 2.7063257922,
				"y": -1.7627089727,
				"z": 0.3344024923,
				"element": "H" 
			}
		],
		 "valence_orbital": [ 
			{
				"type": "occ",
				"energy": -0.28153,
				"method": "rhf"
			},
			{
				"type": "occ",
				"energy": -0.25924,
				"method": "rhf"
			},
			{
				"type": "occ",
				"energy": -0.25042,
				"method": "rhf"
			},
			{
				"type": "occ",
				"energy": -0.23839,
				"method": "rhf"
			},
			{
				"type": "occ",
				"energy": -0.2155,
				"method": "rhf"
			},
			{
				"type": "unocc",
				"energy": -0.03344,
				"method": "rhf"
			},
			{
				"type": "unocc",
				"energy": 0.00542,
				"method": "rhf"
			},
			{
				"type": "unocc",
				"energy": 0.04549,
				"method": "rhf"
			},
			{
				"type": "unocc",
				"energy": 0.08044,
				"method": "rhf"
			},
			{
				"type": "unocc",
				"energy": 0.09025,
				"method": "rhf"
			}
		],
		"cosmo_sigma_profile": { 
			"-0.025": 0.0,
			"-0.024": 0.0,
			"-0.023": 0.0,
			"-0.022": 0.0,
			"-0.021": 0.0,
			"-0.02": 0.0,
			"-0.019": 0.0,
			"-0.018": 0.0,
			"-0.017": 0.0,
			"-0.016": 0.0,
			"-0.015": 0.0,
			"-0.014": 0.167370947522,
			"-0.013": 1.59880890095,
			"-0.012": 2.22984072472,
			"-0.011": 2.54519332612,
			"-0.01": 2.97764440456,
			"-0.009": 2.28135715142,
			"-0.008": 2.67328942738,
			"-0.007": 3.2443126222,
			"-0.006": 5.73571483248,
			"-0.005": 14.6005747695,
			"-0.004": 22.0205160446,
			"-0.003": 22.9448625549,
			"-0.002": 24.8817734347,
			"-0.001": 11.8573822914,
			"0.0": 10.1294591998,
			"0.001": 10.1928309697,
			"0.002": 10.0640289407,
			"0.003": 10.9526027641,
			"0.004": 7.80453390171,
			"0.005": 5.46003002163,
			"0.006": 4.27461175281,
			"0.007": 3.19332955645,
			"0.008": 4.15762252412,
			"0.009": 3.81675227641,
			"0.01": 3.17562079137,
			"0.011": 3.32601603189,
			"0.012": 3.0213883484,
			"0.013": 5.7314235313,
			"0.014": 4.20826783996,
			"0.015": 1.00433619946,
			"0.016": 0.403629725626,
			"0.017": 0.0,
			"0.018": 0.0,
			"0.019": 0.0,
			"0.02": 0.0,
			"0.021": 0.0,
			"0.022": 0.0,
			"0.023": 0.0,
			"0.024": 0.0,
			"0.025": 0.0
		}
	}
}
