{
	 "smiles": "CC(Cl)C1=NC2=C(C3=C(CC(C)CC3)S2)C(=O)N1", 
	 "Tm": 522.15, 
	 "num_atms": 33, 
	 "gaussian": { 
		 "optdone": 1, 
		 "sigma_profile": "yes", 
		 "theory": "DFT", 
		 "functional": "B3LYP", 
		 "basiset": "6-31G**", 
		 "properties": { 
			 "R2extent": 7677.7379, 
			 "electric_dipole_moment_norm": 2.2290963797, 
			 "electric_quadrupole_moment_norm": 15.8978465337, 
			 "total_energy": -1547.58508029, 
			 "HOMO_LUMO_gap": 0.16167, 
			 "cosmo_polarized_energy": -11.68, 
			 "cosmo_cavitation_energy": 38.07, 
			 "cosmo_dispersion_energy": -28.14, 
			 "cosmo_repulsion_energy": 2.14, 
			 "cosmo_total_nonelectrostatic_energy": 12.06, 
			 "SMD_solvation_energy": 3.77 
		},
		"coords": [
			{
				"x": -0.3350010835,
				"y": 4.7938884649,
				"z": -3.1771795091,
				"element": "C" 
			},
			{
				"x": -1.3996290823,
				"y": 3.7190774937,
				"z": -2.9639757244,
				"element": "C" 
			},
			{
				"x": -1.988862327,
				"y": 3.106542043,
				"z": -4.5904289315,
				"element": "Cl" 
			},
			{
				"x": -0.9115800256,
				"y": 2.5738072989,
				"z": -2.1057123273,
				"element": "C" 
			},
			{
				"x": -1.2288218859,
				"y": 2.5898377314,
				"z": -0.8417150605,
				"element": "N" 
			},
			{
				"x": -0.6765692057,
				"y": 1.5880900423,
				"z": -0.0985678874,
				"element": "C" 
			},
			{
				"x": 0.1657403033,
				"y": 0.5764536289,
				"z": -0.5558542952,
				"element": "C" 
			},
			{
				"x": 0.5703503972,
				"y": -0.3375510259,
				"z": 0.4752667123,
				"element": "C" 
			},
			{
				"x": 0.0375995264,
				"y": -0.0025775318,
				"z": 1.6917547865,
				"element": "C" 
			},
			{
				"x": 0.2581438782,
				"y": -0.7577765706,
				"z": 2.9727942896,
				"element": "C" 
			},
			{
				"x": 1.4627987047,
				"y": -1.7162739354,
				"z": 2.8484497895,
				"element": "C" 
			},
			{
				"x": 1.5336330298,
				"y": -2.6664828864,
				"z": 4.0481939149,
				"element": "C" 
			},
			{
				"x": 1.3984150151,
				"y": -2.4748267452,
				"z": 1.5106998115,
				"element": "C" 
			},
			{
				"x": 1.4772616996,
				"y": -1.5309863871,
				"z": 0.2999741372,
				"element": "C" 
			},
			{
				"x": -0.9779681929,
				"y": 1.4304946581,
				"z": 1.6136153365,
				"element": "S" 
			},
			{
				"x": 0.5042840721,
				"y": 0.5509446136,
				"z": -1.9665543822,
				"element": "C" 
			},
			{
				"x": 1.2031108952,
				"y": -0.2549163292,
				"z": -2.5672001501,
				"element": "O" 
			},
			{
				"x": -0.0959577811,
				"y": 1.6303927524,
				"z": -2.6633486855,
				"element": "N" 
			},
			{
				"x": -0.7386423341,
				"y": 5.6167580336,
				"z": -3.7712176818,
				"element": "H" 
			},
			{
				"x": 0.54225115,
				"y": 4.3896931653,
				"z": -3.6892270176,
				"element": "H" 
			},
			{
				"x": -0.0236322074,
				"y": 5.1821681598,
				"z": -2.2021068016,
				"element": "H" 
			},
			{
				"x": -2.2772838099,
				"y": 4.1322370465,
				"z": -2.4688295166,
				"element": "H" 
			},
			{
				"x": 0.4164264264,
				"y": -0.0658617342,
				"z": 3.8097420741,
				"element": "H" 
			},
			{
				"x": -0.6435678003,
				"y": -1.3369177022,
				"z": 3.2240221478,
				"element": "H" 
			},
			{
				"x": 2.3744315943,
				"y": -1.1007338309,
				"z": 2.8399236027,
				"element": "H" 
			},
			{
				"x": 0.6573043056,
				"y": -3.3251133288,
				"z": 4.0796425402,
				"element": "H" 
			},
			{
				"x": 1.5699035561,
				"y": -2.1153061458,
				"z": 4.9944711874,
				"element": "H" 
			},
			{
				"x": 2.4247469756,
				"y": -3.3008227634,
				"z": 3.9964319314,
				"element": "H" 
			},
			{
				"x": 0.4592838728,
				"y": -3.0446799338,
				"z": 1.4724343482,
				"element": "H" 
			},
			{
				"x": 2.2112070532,
				"y": -3.2084795631,
				"z": 1.4581546608,
				"element": "H" 
			},
			{
				"x": 1.2262363569,
				"y": -2.0539537038,
				"z": -0.6273274675,
				"element": "H" 
			},
			{
				"x": 2.5094589775,
				"y": -1.1798386614,
				"z": 0.1627955122,
				"element": "H" 
			},
			{
				"x": 0.0560279456,
				"y": 1.6311136469,
				"z": -3.6664213447,
				"element": "H" 
			}
		],
		 "valence_orbital": [ 
			{
				"type": "occ",
				"energy": -0.29048,
				"method": "rhf"
			},
			{
				"type": "occ",
				"energy": -0.28928,
				"method": "rhf"
			},
			{
				"type": "occ",
				"energy": -0.26261,
				"method": "rhf"
			},
			{
				"type": "occ",
				"energy": -0.25418,
				"method": "rhf"
			},
			{
				"type": "occ",
				"energy": -0.21489,
				"method": "rhf"
			},
			{
				"type": "unocc",
				"energy": -0.05322,
				"method": "rhf"
			},
			{
				"type": "unocc",
				"energy": -0.0104,
				"method": "rhf"
			},
			{
				"type": "unocc",
				"energy": 0.00802,
				"method": "rhf"
			},
			{
				"type": "unocc",
				"energy": 0.01864,
				"method": "rhf"
			},
			{
				"type": "unocc",
				"energy": 0.03209,
				"method": "rhf"
			}
		],
		"cosmo_sigma_profile": { 
			"-0.025": 0.0,
			"-0.024": 0.0,
			"-0.023": 0.0,
			"-0.022": 0.0,
			"-0.021": 0.0,
			"-0.02": 0.0,
			"-0.019": 0.0,
			"-0.018": 0.0,
			"-0.017": 0.0,
			"-0.016": 0.0,
			"-0.015": 0.0356922143635,
			"-0.014": 0.459930674796,
			"-0.013": 0.695016147,
			"-0.012": 0.820893655877,
			"-0.011": 1.37827176166,
			"-0.01": 1.01296043367,
			"-0.009": 1.58060848903,
			"-0.008": 3.47959024557,
			"-0.007": 2.91365474895,
			"-0.006": 4.72987506051,
			"-0.005": 9.76743115073,
			"-0.004": 18.1959752831,
			"-0.003": 32.9480173089,
			"-0.002": 43.3501492385,
			"-0.001": 36.881616437,
			"0.0": 27.2678788987,
			"0.001": 29.2913318375,
			"0.002": 23.5735422234,
			"0.003": 16.2194794471,
			"0.004": 13.5556304618,
			"0.005": 9.48877859693,
			"0.006": 5.0067766107,
			"0.007": 2.23602534863,
			"0.008": 2.29862418989,
			"0.009": 2.56315079575,
			"0.01": 2.10426230876,
			"0.011": 2.79321185632,
			"0.012": 3.63310402427,
			"0.013": 5.21222634386,
			"0.014": 0.568383843713,
			"0.015": 0.0,
			"0.016": 0.0,
			"0.017": 0.0,
			"0.018": 0.0,
			"0.019": 0.0,
			"0.02": 0.0,
			"0.021": 0.0,
			"0.022": 0.0,
			"0.023": 0.0,
			"0.024": 0.0,
			"0.025": 0.0
		}
	}
}
