{
	 "smiles": "COC(=O)C1=C(N=CS1)C1CC1", 
	 "Tm": 333.15, 
	 "num_atms": 21, 
	 "gaussian": { 
		 "optdone": 1, 
		 "sigma_profile": "yes", 
		 "theory": "DFT", 
		 "functional": "B3LYP", 
		 "basiset": "6-31G**", 
		 "properties": { 
			 "R2extent": 2500.0147, 
			 "electric_dipole_moment_norm": 1.70862157308, 
			 "electric_quadrupole_moment_norm": 13.1931995892, 
			 "total_energy": -913.623890225, 
			 "HOMO_LUMO_gap": 0.17967, 
			 "cosmo_polarized_energy": -8.8, 
			 "cosmo_cavitation_energy": 26.23, 
			 "cosmo_dispersion_energy": -19.55, 
			 "cosmo_repulsion_energy": 1.49, 
			 "cosmo_total_nonelectrostatic_energy": 8.17, 
			 "SMD_solvation_energy": 4.43 
		},
		"coords": [
			{
				"x": 1.0164973211,
				"y": -1.6804114645,
				"z": 2.8494878309,
				"element": "C" 
			},
			{
				"x": 0.6605351658,
				"y": -1.0330783941,
				"z": 1.6147112988,
				"element": "O" 
			},
			{
				"x": 0.6989701646,
				"y": -1.8257049293,
				"z": 0.5208230528,
				"element": "C" 
			},
			{
				"x": 1.0111151298,
				"y": -3.0024814429,
				"z": 0.5713627077,
				"element": "O" 
			},
			{
				"x": 0.3322940868,
				"y": -1.1464322175,
				"z": -0.7312327621,
				"element": "C" 
			},
			{
				"x": -0.0558572841,
				"y": 0.1389511044,
				"z": -1.1008854077,
				"element": "C" 
			},
			{
				"x": -0.2988001923,
				"y": 0.2760562114,
				"z": -2.4571154092,
				"element": "N" 
			},
			{
				"x": -0.1083900459,
				"y": -0.8425986695,
				"z": -3.0980787384,
				"element": "C" 
			},
			{
				"x": 0.3853573383,
				"y": -2.1874294795,
				"z": -2.1391272398,
				"element": "S" 
			},
			{
				"x": -0.2646162216,
				"y": 1.3996481949,
				"z": -0.3410081747,
				"element": "C" 
			},
			{
				"x": -0.8660878638,
				"y": 1.5199418286,
				"z": 1.049140814,
				"element": "C" 
			},
			{
				"x": 0.5702794112,
				"y": 1.8900496931,
				"z": 0.8299604936,
				"element": "C" 
			},
			{
				"x": 0.3326212519,
				"y": -2.5057947732,
				"z": 3.0602651492,
				"element": "H" 
			},
			{
				"x": 2.0356283827,
				"y": -2.0702529907,
				"z": 2.7977687498,
				"element": "H" 
			},
			{
				"x": 0.9369429153,
				"y": -0.908705433,
				"z": 3.6147059753,
				"element": "H" 
			},
			{
				"x": -0.2466032618,
				"y": -0.9424838557,
				"z": -4.1691628076,
				"element": "H" 
			},
			{
				"x": -0.5704423232,
				"y": 2.1759676231,
				"z": -1.0342934314,
				"element": "H" 
			},
			{
				"x": -1.5985559623,
				"y": 2.3093340981,
				"z": 1.1887241685,
				"element": "H" 
			},
			{
				"x": -1.0685757069,
				"y": 0.604926737,
				"z": 1.5909253146,
				"element": "H" 
			},
			{
				"x": 0.8479674914,
				"y": 2.9397217535,
				"z": 0.8153866723,
				"element": "H" 
			},
			{
				"x": 1.323920203,
				"y": 1.2214764058,
				"z": 1.2259417434,
				"element": "H" 
			}
		],
		 "valence_orbital": [ 
			{
				"type": "occ",
				"energy": -0.30665,
				"method": "rhf"
			},
			{
				"type": "occ",
				"energy": -0.29489,
				"method": "rhf"
			},
			{
				"type": "occ",
				"energy": -0.28211,
				"method": "rhf"
			},
			{
				"type": "occ",
				"energy": -0.26633,
				"method": "rhf"
			},
			{
				"type": "occ",
				"energy": -0.24097,
				"method": "rhf"
			},
			{
				"type": "unocc",
				"energy": -0.0613,
				"method": "rhf"
			},
			{
				"type": "unocc",
				"energy": 0.01333,
				"method": "rhf"
			},
			{
				"type": "unocc",
				"energy": 0.01492,
				"method": "rhf"
			},
			{
				"type": "unocc",
				"energy": 0.08048,
				"method": "rhf"
			},
			{
				"type": "unocc",
				"energy": 0.08989,
				"method": "rhf"
			}
		],
		"cosmo_sigma_profile": { 
			"-0.025": 0.0,
			"-0.024": 0.0,
			"-0.023": 0.0,
			"-0.022": 0.0,
			"-0.021": 0.0,
			"-0.02": 0.0,
			"-0.019": 0.0,
			"-0.018": 0.0,
			"-0.017": 0.0,
			"-0.016": 0.0,
			"-0.015": 0.0,
			"-0.014": 0.0,
			"-0.013": 0.0,
			"-0.012": 0.0,
			"-0.011": 0.531695805429,
			"-0.01": 2.53039828763,
			"-0.009": 1.93853425837,
			"-0.008": 1.65807800398,
			"-0.007": 2.9823874,
			"-0.006": 7.25957569213,
			"-0.005": 12.7064060875,
			"-0.004": 17.9802468125,
			"-0.003": 18.5707536509,
			"-0.002": 17.0426954106,
			"-0.001": 22.953538595,
			"0.0": 21.8990769167,
			"0.001": 17.769708176,
			"0.002": 17.9186839798,
			"0.003": 11.2638984051,
			"0.004": 7.10842510864,
			"0.005": 4.81073607606,
			"0.006": 2.8750076701,
			"0.007": 2.70745421415,
			"0.008": 3.28578423762,
			"0.009": 2.61043915834,
			"0.01": 2.81697904945,
			"0.011": 4.75029845221,
			"0.012": 3.82509255134,
			"0.013": 0.969075941982,
			"0.014": 0.56797693588,
			"0.015": 0.192181248567,
			"0.016": 0.0,
			"0.017": 0.0,
			"0.018": 0.0,
			"0.019": 0.0,
			"0.02": 0.0,
			"0.021": 0.0,
			"0.022": 0.0,
			"0.023": 0.0,
			"0.024": 0.0,
			"0.025": 0.0
		}
	}
}
