{
	 "smiles": "COC1=CC(CNC2=CC3=C(NC(=O)N3)C=C2)=CC=C1", 
	 "Tm": 464.15, 
	 "num_atms": 35, 
	 "gaussian": { 
		 "optdone": 1, 
		 "sigma_profile": "yes", 
		 "theory": "DFT", 
		 "functional": "B3LYP", 
		 "basiset": "6-31G**", 
		 "properties": { 
			 "R2extent": 8578.4673, 
			 "electric_dipole_moment_norm": 4.44681911033, 
			 "electric_quadrupole_moment_norm": 29.4911087494, 
			 "total_energy": -895.357064136, 
			 "HOMO_LUMO_gap": 0.17466, 
			 "cosmo_polarized_energy": -21.03, 
			 "cosmo_cavitation_energy": 39.16, 
			 "cosmo_dispersion_energy": -28.14, 
			 "cosmo_repulsion_energy": 2.17, 
			 "cosmo_total_nonelectrostatic_energy": 13.19, 
			 "SMD_solvation_energy": 6.46 
		},
		"coords": [
			{
				"x": 2.6567019945,
				"y": 3.8827502327,
				"z": -2.9604506123,
				"element": "C" 
			},
			{
				"x": 1.3442260922,
				"y": 3.5947633701,
				"z": -3.4123618052,
				"element": "O" 
			},
			{
				"x": 0.4691119286,
				"y": 3.0145716272,
				"z": -2.5383909649,
				"element": "C" 
			},
			{
				"x": 0.7763941245,
				"y": 2.6746613325,
				"z": -1.215604538,
				"element": "C" 
			},
			{
				"x": -0.1940707832,
				"y": 2.0850109041,
				"z": -0.3905479411,
				"element": "C" 
			},
			{
				"x": 0.1794678336,
				"y": 1.6777567997,
				"z": 1.0257890734,
				"element": "C" 
			},
			{
				"x": 0.4953715988,
				"y": 0.2512592192,
				"z": 1.1850367257,
				"element": "N" 
			},
			{
				"x": -0.5129578015,
				"y": -0.7232954397,
				"z": 1.2911310208,
				"element": "C" 
			},
			{
				"x": -0.3213731736,
				"y": -1.9726622664,
				"z": 0.6640778505,
				"element": "C" 
			},
			{
				"x": -1.2768329705,
				"y": -2.9611656929,
				"z": 0.8471571178,
				"element": "C" 
			},
			{
				"x": -2.4336644837,
				"y": -2.7380426427,
				"z": 1.620609925,
				"element": "C" 
			},
			{
				"x": -3.1753640872,
				"y": -3.9205166117,
				"z": 1.5781871773,
				"element": "N" 
			},
			{
				"x": -2.5379685951,
				"y": -4.8901325156,
				"z": 0.8092954737,
				"element": "C" 
			},
			{
				"x": -2.9090076202,
				"y": -6.025381609,
				"z": 0.5688794569,
				"element": "O" 
			},
			{
				"x": -1.3662537002,
				"y": -4.2635813469,
				"z": 0.3707620444,
				"element": "N" 
			},
			{
				"x": -2.6364077431,
				"y": -1.5114251366,
				"z": 2.2336241462,
				"element": "C" 
			},
			{
				"x": -1.6686067117,
				"y": -0.5130797027,
				"z": 2.0697546511,
				"element": "C" 
			},
			{
				"x": -1.4744322459,
				"y": 1.8416761998,
				"z": -0.898309417,
				"element": "C" 
			},
			{
				"x": -1.774298339,
				"y": 2.1807352602,
				"z": -2.2207684926,
				"element": "C" 
			},
			{
				"x": -0.8150622787,
				"y": 2.763104448,
				"z": -3.0417110897,
				"element": "C" 
			},
			{
				"x": 3.192082067,
				"y": 2.9728230168,
				"z": -2.6586398621,
				"element": "H" 
			},
			{
				"x": 3.1744314667,
				"y": 4.3374904393,
				"z": -3.8064990891,
				"element": "H" 
			},
			{
				"x": 2.6517358071,
				"y": 4.5890160035,
				"z": -2.119921393,
				"element": "H" 
			},
			{
				"x": 1.7635077781,
				"y": 2.8701342938,
				"z": -0.8097378762,
				"element": "H" 
			},
			{
				"x": -0.6238370021,
				"y": 1.9329304387,
				"z": 1.7200820705,
				"element": "H" 
			},
			{
				"x": 1.0589078858,
				"y": 2.2456549144,
				"z": 1.3497332163,
				"element": "H" 
			},
			{
				"x": 1.215825894,
				"y": -0.0316811107,
				"z": 0.5310575329,
				"element": "H" 
			},
			{
				"x": 0.5576315407,
				"y": -2.1511991967,
				"z": 0.0508407241,
				"element": "H" 
			},
			{
				"x": -4.0554917578,
				"y": -4.1042865058,
				"z": 2.030669078,
				"element": "H" 
			},
			{
				"x": -0.7047799394,
				"y": -4.7437447579,
				"z": -0.2171647718,
				"element": "H" 
			},
			{
				"x": -3.5182998119,
				"y": -1.3223687982,
				"z": 2.8379691047,
				"element": "H" 
			},
			{
				"x": -1.811301313,
				"y": 0.4334453697,
				"z": 2.5783150773,
				"element": "H" 
			},
			{
				"x": -2.2301001855,
				"y": 1.3858579644,
				"z": -0.2664423895,
				"element": "H" 
			},
			{
				"x": -2.7694617403,
				"y": 1.9930277763,
				"z": -2.6140999558,
				"element": "H" 
			},
			{
				"x": -1.033323728,
				"y": 3.0366937231,
				"z": -4.0687212683,
				"element": "H" 
			}
		],
		 "valence_orbital": [ 
			{
				"type": "occ",
				"energy": -0.26001,
				"method": "rhf"
			},
			{
				"type": "occ",
				"energy": -0.25059,
				"method": "rhf"
			},
			{
				"type": "occ",
				"energy": -0.22519,
				"method": "rhf"
			},
			{
				"type": "occ",
				"energy": -0.21929,
				"method": "rhf"
			},
			{
				"type": "occ",
				"energy": -0.18153,
				"method": "rhf"
			},
			{
				"type": "unocc",
				"energy": -0.00687,
				"method": "rhf"
			},
			{
				"type": "unocc",
				"energy": -0.00129,
				"method": "rhf"
			},
			{
				"type": "unocc",
				"energy": 0.00765,
				"method": "rhf"
			},
			{
				"type": "unocc",
				"energy": 0.02979,
				"method": "rhf"
			},
			{
				"type": "unocc",
				"energy": 0.07626,
				"method": "rhf"
			}
		],
		"cosmo_sigma_profile": { 
			"-0.025": 0.0,
			"-0.024": 0.0,
			"-0.023": 0.0,
			"-0.022": 0.0,
			"-0.021": 0.0,
			"-0.02": 0.0,
			"-0.019": 0.0,
			"-0.018": 0.0,
			"-0.017": 0.0,
			"-0.016": 1.03516387741,
			"-0.015": 2.79923872388,
			"-0.014": 2.56261674245,
			"-0.013": 1.54264096058,
			"-0.012": 2.75155044787,
			"-0.011": 2.65910456979,
			"-0.01": 3.22701304046,
			"-0.009": 4.01410616215,
			"-0.008": 3.71751320318,
			"-0.007": 6.29904918984,
			"-0.006": 15.6136457307,
			"-0.005": 25.556676815,
			"-0.004": 23.5901630516,
			"-0.003": 24.71402196,
			"-0.002": 16.979412,
			"-0.001": 15.3034173584,
			"0.0": 16.4949006605,
			"0.001": 17.6828820311,
			"0.002": 16.2570303875,
			"0.003": 19.128334477,
			"0.004": 18.3228499897,
			"0.005": 20.5151850233,
			"0.006": 17.3323613886,
			"0.007": 5.73661496823,
			"0.008": 3.24284013884,
			"0.009": 3.23400624059,
			"0.01": 2.92541832519,
			"0.011": 2.94123584937,
			"0.012": 2.41938577413,
			"0.013": 4.01341604641,
			"0.014": 7.2702822347,
			"0.015": 1.7177268526,
			"0.016": 0.0,
			"0.017": 0.0,
			"0.018": 0.0,
			"0.019": 0.0,
			"0.02": 0.0,
			"0.021": 0.0,
			"0.022": 0.0,
			"0.023": 0.0,
			"0.024": 0.0,
			"0.025": 0.0
		}
	}
}
