{
	 "smiles": "CC1=NC(=CS1)C1=CC=C(CO)S1", 
	 "Tm": 341.15, 
	 "num_atms": 22, 
	 "gaussian": { 
		 "optdone": 1, 
		 "sigma_profile": "yes", 
		 "theory": "DFT", 
		 "functional": "B3LYP", 
		 "basiset": "6-31G**", 
		 "properties": { 
			 "R2extent": 4203.016, 
			 "electric_dipole_moment_norm": 2.19111966355, 
			 "electric_quadrupole_moment_norm": 5.61051864091, 
			 "total_energy": -1274.7095401, 
			 "HOMO_LUMO_gap": 0.1619, 
			 "cosmo_polarized_energy": -11.31, 
			 "cosmo_cavitation_energy": 29.59, 
			 "cosmo_dispersion_energy": -22.71, 
			 "cosmo_repulsion_energy": 1.72, 
			 "cosmo_total_nonelectrostatic_energy": 8.6, 
			 "SMD_solvation_energy": 3.4 
		},
		"coords": [
			{
				"x": 0.9932392647,
				"y": -4.0966533972,
				"z": 1.4236710319,
				"element": "C" 
			},
			{
				"x": 0.4281880972,
				"y": -3.1331626152,
				"z": 0.4254615146,
				"element": "C" 
			},
			{
				"x": 0.4843363839,
				"y": -1.8409611907,
				"z": 0.5409944439,
				"element": "N" 
			},
			{
				"x": -0.1173111625,
				"y": -1.191083095,
				"z": -0.5256972615,
				"element": "C" 
			},
			{
				"x": -0.6466352279,
				"y": -2.0252192594,
				"z": -1.4797596323,
				"element": "C" 
			},
			{
				"x": -0.3884967996,
				"y": -3.6797335082,
				"z": -1.0401288934,
				"element": "S" 
			},
			{
				"x": -0.1317434212,
				"y": 0.2656190196,
				"z": -0.5358180539,
				"element": "C" 
			},
			{
				"x": -0.6410650312,
				"y": 1.1362355942,
				"z": -1.4720027201,
				"element": "C" 
			},
			{
				"x": -0.4678549552,
				"y": 2.5044952618,
				"z": -1.1231971922,
				"element": "C" 
			},
			{
				"x": 0.1745158179,
				"y": 2.6792442935,
				"z": 0.0768790943,
				"element": "C" 
			},
			{
				"x": 0.503571285,
				"y": 3.9870953641,
				"z": 0.7503825916,
				"element": "C" 
			},
			{
				"x": 0.6630779132,
				"y": 5.0468866055,
				"z": -0.1797863545,
				"element": "O" 
			},
			{
				"x": 0.5847571869,
				"y": 1.1461119725,
				"z": 0.7977671932,
				"element": "S" 
			},
			{
				"x": 1.7590105059,
				"y": -4.7374601076,
				"z": 0.9740689177,
				"element": "H" 
			},
			{
				"x": 1.4450007495,
				"y": -3.5263100143,
				"z": 2.23715922,
				"element": "H" 
			},
			{
				"x": 0.2158763695,
				"y": -4.7471964879,
				"z": 1.8380072773,
				"element": "H" 
			},
			{
				"x": -1.1620403555,
				"y": -1.7640875279,
				"z": -2.3922316054,
				"element": "H" 
			},
			{
				"x": -1.1248797031,
				"y": 0.808244305,
				"z": -2.3856074748,
				"element": "H" 
			},
			{
				"x": -0.804149692,
				"y": 3.3373466406,
				"z": -1.7296806623,
				"element": "H" 
			},
			{
				"x": 1.3908360518,
				"y": 3.8687801647,
				"z": 1.393008209,
				"element": "H" 
			},
			{
				"x": -0.31913086,
				"y": 4.2989001938,
				"z": 1.4052287866,
				"element": "H" 
			},
			{
				"x": 1.3554975828,
				"y": 4.7810077881,
				"z": -0.8001184298,
				"element": "H" 
			}
		],
		 "valence_orbital": [ 
			{
				"type": "occ",
				"energy": -0.2814,
				"method": "rhf"
			},
			{
				"type": "occ",
				"energy": -0.27661,
				"method": "rhf"
			},
			{
				"type": "occ",
				"energy": -0.26568,
				"method": "rhf"
			},
			{
				"type": "occ",
				"energy": -0.24839,
				"method": "rhf"
			},
			{
				"type": "occ",
				"energy": -0.20326,
				"method": "rhf"
			},
			{
				"type": "unocc",
				"energy": -0.04136,
				"method": "rhf"
			},
			{
				"type": "unocc",
				"energy": -0.01207,
				"method": "rhf"
			},
			{
				"type": "unocc",
				"energy": 0.00976,
				"method": "rhf"
			},
			{
				"type": "unocc",
				"energy": 0.04173,
				"method": "rhf"
			},
			{
				"type": "unocc",
				"energy": 0.04846,
				"method": "rhf"
			}
		],
		"cosmo_sigma_profile": { 
			"-0.025": 0.0,
			"-0.024": 0.0,
			"-0.023": 0.0,
			"-0.022": 0.0,
			"-0.021": 0.0,
			"-0.02": 0.0,
			"-0.019": 0.0,
			"-0.018": 0.0,
			"-0.017": 0.0,
			"-0.016": 0.151957465135,
			"-0.015": 0.786310054976,
			"-0.014": 1.17540473001,
			"-0.013": 0.6035771418,
			"-0.012": 0.606260778061,
			"-0.011": 0.74830987281,
			"-0.01": 1.27524344685,
			"-0.009": 2.54527061835,
			"-0.008": 3.9878434849,
			"-0.007": 4.12234933007,
			"-0.006": 11.8807849755,
			"-0.005": 19.3280256776,
			"-0.004": 18.792576579,
			"-0.003": 16.5950694566,
			"-0.002": 16.1845065576,
			"-0.001": 15.6853960603,
			"0.0": 11.7526077834,
			"0.001": 15.6587446304,
			"0.002": 18.7029381075,
			"0.003": 22.9047214546,
			"0.004": 19.5917952864,
			"0.005": 13.6755380448,
			"0.006": 4.71499220908,
			"0.007": 3.0277716418,
			"0.008": 2.53153960342,
			"0.009": 2.29102519747,
			"0.01": 2.22905396848,
			"0.011": 2.92815534976,
			"0.012": 2.41310005206,
			"0.013": 2.01384543844,
			"0.014": 1.34690030693,
			"0.015": 0.0,
			"0.016": 0.0,
			"0.017": 0.0,
			"0.018": 0.0,
			"0.019": 0.0,
			"0.02": 0.0,
			"0.021": 0.0,
			"0.022": 0.0,
			"0.023": 0.0,
			"0.024": 0.0,
			"0.025": 0.0
		}
	}
}
