{
	 "smiles": "CC(=O)CC(=O)C1=CC=C(Cl)C=C1", 
	 "Tm": 342.15, 
	 "num_atms": 22, 
	 "gaussian": { 
		 "optdone": 1, 
		 "sigma_profile": "yes", 
		 "theory": "DFT", 
		 "functional": "B3LYP", 
		 "basiset": "6-31G**", 
		 "properties": { 
			 "R2extent": 4834.8371, 
			 "electric_dipole_moment_norm": 1.51306651209, 
			 "electric_quadrupole_moment_norm": 5.94408430374, 
			 "total_energy": -997.130382279, 
			 "HOMO_LUMO_gap": 0.18091, 
			 "cosmo_polarized_energy": -9.75, 
			 "cosmo_cavitation_energy": 28.46, 
			 "cosmo_dispersion_energy": -20.41, 
			 "cosmo_repulsion_energy": 1.62, 
			 "cosmo_total_nonelectrostatic_energy": 9.66, 
			 "SMD_solvation_energy": 5.8 
		},
		"coords": [
			{
				"x": -0.7640579036,
				"y": -0.2568448571,
				"z": 3.4690406208,
				"element": "C" 
			},
			{
				"x": -0.3473890972,
				"y": 0.7212106253,
				"z": 2.3937004257,
				"element": "C" 
			},
			{
				"x": 0.2821592749,
				"y": 1.7348184145,
				"z": 2.6273902294,
				"element": "O" 
			},
			{
				"x": -0.7496830437,
				"y": 0.3535659391,
				"z": 0.9567382916,
				"element": "C" 
			},
			{
				"x": 0.2292588561,
				"y": -0.6707717043,
				"z": 0.3632699232,
				"element": "C" 
			},
			{
				"x": -0.0240145915,
				"y": -1.8635416914,
				"z": 0.4464891956,
				"element": "O" 
			},
			{
				"x": 1.4783861149,
				"y": -0.1851229573,
				"z": -0.2936344271,
				"element": "C" 
			},
			{
				"x": 2.2400713064,
				"y": -1.114086337,
				"z": -1.0222575129,
				"element": "C" 
			},
			{
				"x": 3.4134551181,
				"y": -0.7295632027,
				"z": -1.65881839,
				"element": "C" 
			},
			{
				"x": 3.8370071579,
				"y": 0.5982364422,
				"z": -1.55070419,
				"element": "C" 
			},
			{
				"x": 5.3173738203,
				"y": 1.0933288785,
				"z": -2.349344094,
				"element": "Cl" 
			},
			{
				"x": 3.1089305332,
				"y": 1.5357451968,
				"z": -0.8179547356,
				"element": "C" 
			},
			{
				"x": 1.9257251548,
				"y": 1.142141768,
				"z": -0.1954481505,
				"element": "C" 
			},
			{
				"x": -1.8499182499,
				"y": -0.1976263392,
				"z": 3.6134682478,
				"element": "H" 
			},
			{
				"x": -0.5424906041,
				"y": -1.2829141099,
				"z": 3.1567807088,
				"element": "H" 
			},
			{
				"x": -0.2627436372,
				"y": -0.0199541455,
				"z": 4.4082748779,
				"element": "H" 
			},
			{
				"x": -1.7297095264,
				"y": -0.1296484784,
				"z": 0.9566351417,
				"element": "H" 
			},
			{
				"x": -0.7839337667,
				"y": 1.2685607344,
				"z": 0.3631687002,
				"element": "H" 
			},
			{
				"x": 1.889130818,
				"y": -2.13899201,
				"z": -1.0785140157,
				"element": "H" 
			},
			{
				"x": 3.9984406169,
				"y": -1.4413814105,
				"z": -2.230436493,
				"element": "H" 
			},
			{
				"x": 3.4650286896,
				"y": 2.5563545334,
				"z": -0.735224426,
				"element": "H" 
			},
			{
				"x": 1.3782729591,
				"y": 1.864884711,
				"z": 0.4003800723,
				"element": "H" 
			}
		],
		 "valence_orbital": [ 
			{
				"type": "occ",
				"energy": -0.32175,
				"method": "rhf"
			},
			{
				"type": "occ",
				"energy": -0.27554,
				"method": "rhf"
			},
			{
				"type": "occ",
				"energy": -0.27126,
				"method": "rhf"
			},
			{
				"type": "occ",
				"energy": -0.25889,
				"method": "rhf"
			},
			{
				"type": "occ",
				"energy": -0.25635,
				"method": "rhf"
			},
			{
				"type": "unocc",
				"energy": -0.07544,
				"method": "rhf"
			},
			{
				"type": "unocc",
				"energy": -0.0261,
				"method": "rhf"
			},
			{
				"type": "unocc",
				"energy": -0.02409,
				"method": "rhf"
			},
			{
				"type": "unocc",
				"energy": 0.0215,
				"method": "rhf"
			},
			{
				"type": "unocc",
				"energy": 0.02717,
				"method": "rhf"
			}
		],
		"cosmo_sigma_profile": { 
			"-0.025": 0.0,
			"-0.024": 0.0,
			"-0.023": 0.0,
			"-0.022": 0.0,
			"-0.021": 0.0,
			"-0.02": 0.0,
			"-0.019": 0.0,
			"-0.018": 0.0,
			"-0.017": 0.0,
			"-0.016": 0.0,
			"-0.015": 0.0,
			"-0.014": 0.0,
			"-0.013": 0.0,
			"-0.012": 0.0,
			"-0.011": 0.0,
			"-0.01": 0.0,
			"-0.009": 0.0,
			"-0.008": 2.7636904721,
			"-0.007": 11.2897165682,
			"-0.006": 14.9082118584,
			"-0.005": 16.0291557761,
			"-0.004": 16.7973827355,
			"-0.003": 16.2013338027,
			"-0.002": 18.3092286014,
			"-0.001": 15.4374883263,
			"0.0": 17.2872143307,
			"0.001": 20.2451874451,
			"0.002": 22.9263341003,
			"0.003": 12.6580798268,
			"0.004": 13.1518857563,
			"0.005": 4.59142237905,
			"0.006": 2.48220863201,
			"0.007": 2.63549851509,
			"0.008": 3.29185363494,
			"0.009": 3.3178917861,
			"0.01": 4.70587771987,
			"0.011": 7.27306341057,
			"0.012": 3.11484657736,
			"0.013": 0.3205685172,
			"0.014": 0.0,
			"0.015": 0.0,
			"0.016": 0.0,
			"0.017": 0.0,
			"0.018": 0.0,
			"0.019": 0.0,
			"0.02": 0.0,
			"0.021": 0.0,
			"0.022": 0.0,
			"0.023": 0.0,
			"0.024": 0.0,
			"0.025": 0.0
		}
	}
}
