{
	 "smiles": "CC(=O)N1CCC(CC1)S(Cl)(=O)=O", 
	 "Tm": 369.15, 
	 "num_atms": 25, 
	 "gaussian": { 
		 "optdone": 1, 
		 "sigma_profile": "yes", 
		 "theory": "DFT", 
		 "functional": "B3LYP", 
		 "basiset": "6-31G**", 
		 "properties": { 
			 "R2extent": 4823.6509, 
			 "electric_dipole_moment_norm": 3.66674017351, 
			 "electric_quadrupole_moment_norm": 22.2721084788, 
			 "total_energy": -1412.73912517, 
			 "HOMO_LUMO_gap": 0.1575, 
			 "cosmo_polarized_energy": -16.82, 
			 "cosmo_cavitation_energy": 29.54, 
			 "cosmo_dispersion_energy": -22.05, 
			 "cosmo_repulsion_energy": 1.68, 
			 "cosmo_total_nonelectrostatic_energy": 9.16, 
			 "SMD_solvation_energy": 3.73 
		},
		"coords": [
			{
				"x": -1.3460388631,
				"y": 2.8418218282,
				"z": 0.2869366826,
				"element": "C" 
			},
			{
				"x": -0.3634235904,
				"y": 1.7719781804,
				"z": 0.7464457062,
				"element": "C" 
			},
			{
				"x": 0.5418585154,
				"y": 2.0437291223,
				"z": 1.5272827451,
				"element": "O" 
			},
			{
				"x": -0.5277022851,
				"y": 0.4962068726,
				"z": 0.2459703144,
				"element": "N" 
			},
			{
				"x": 0.4012107899,
				"y": -0.558683396,
				"z": 0.6510135115,
				"element": "C" 
			},
			{
				"x": -0.3415006154,
				"y": -1.7043846619,
				"z": 1.3550947076,
				"element": "C" 
			},
			{
				"x": -1.575931977,
				"y": -2.2020511026,
				"z": 0.5882871213,
				"element": "C" 
			},
			{
				"x": -2.4364378433,
				"y": -1.0468009405,
				"z": 0.0403937771,
				"element": "C" 
			},
			{
				"x": -1.5987553915,
				"y": 0.0516676012,
				"z": -0.6365357086,
				"element": "C" 
			},
			{
				"x": -1.1400504595,
				"y": -3.3266699048,
				"z": -0.8157701154,
				"element": "S" 
			},
			{
				"x": -0.4114415735,
				"y": -5.018621632,
				"z": 0.282662654,
				"element": "Cl" 
			},
			{
				"x": -2.370290984,
				"y": -3.7536160864,
				"z": -1.4746873702,
				"element": "O" 
			},
			{
				"x": -0.0123403241,
				"y": -2.8058603852,
				"z": -1.5854372327,
				"element": "O" 
			},
			{
				"x": -1.3312158485,
				"y": 2.9712971088,
				"z": -0.8001582555,
				"element": "H" 
			},
			{
				"x": -1.0451745209,
				"y": 3.7764270512,
				"z": 0.7588073256,
				"element": "H" 
			},
			{
				"x": -2.3745855556,
				"y": 2.6118773197,
				"z": 0.584830527,
				"element": "H" 
			},
			{
				"x": 1.1277762796,
				"y": -0.1075080905,
				"z": 1.3260939545,
				"element": "H" 
			},
			{
				"x": 0.927450339,
				"y": -0.9365511956,
				"z": -0.2324100827,
				"element": "H" 
			},
			{
				"x": 0.3427636815,
				"y": -2.5311474863,
				"z": 1.5682497136,
				"element": "H" 
			},
			{
				"x": -0.7138970591,
				"y": -1.3454144095,
				"z": 2.3223910112,
				"element": "H" 
			},
			{
				"x": -2.1850976772,
				"y": -2.8654019454,
				"z": 1.2091079964,
				"element": "H" 
			},
			{
				"x": -3.2045607688,
				"y": -1.428267526,
				"z": -0.6384031079,
				"element": "H" 
			},
			{
				"x": -2.9509753489,
				"y": -0.6171246485,
				"z": 0.9084560188,
				"element": "H" 
			},
			{
				"x": -1.1660986834,
				"y": -0.3278634198,
				"z": -1.5722872826,
				"element": "H" 
			},
			{
				"x": -2.2454402361,
				"y": 0.8883617464,
				"z": -0.8975346113,
				"element": "H" 
			}
		],
		 "valence_orbital": [ 
			{
				"type": "occ",
				"energy": -0.33922,
				"method": "rhf"
			},
			{
				"type": "occ",
				"energy": -0.32639,
				"method": "rhf"
			},
			{
				"type": "occ",
				"energy": -0.32079,
				"method": "rhf"
			},
			{
				"type": "occ",
				"energy": -0.25342,
				"method": "rhf"
			},
			{
				"type": "occ",
				"energy": -0.24785,
				"method": "rhf"
			},
			{
				"type": "unocc",
				"energy": -0.09035,
				"method": "rhf"
			},
			{
				"type": "unocc",
				"energy": 0.01687,
				"method": "rhf"
			},
			{
				"type": "unocc",
				"energy": 0.02928,
				"method": "rhf"
			},
			{
				"type": "unocc",
				"energy": 0.04296,
				"method": "rhf"
			},
			{
				"type": "unocc",
				"energy": 0.06268,
				"method": "rhf"
			}
		],
		"cosmo_sigma_profile": { 
			"-0.025": 0.0,
			"-0.024": 0.0,
			"-0.023": 0.0,
			"-0.022": 0.0,
			"-0.021": 0.0,
			"-0.02": 0.0,
			"-0.019": 0.0,
			"-0.018": 0.0,
			"-0.017": 0.0,
			"-0.016": 0.0,
			"-0.015": 0.0,
			"-0.014": 0.0,
			"-0.013": 0.0,
			"-0.012": 0.0,
			"-0.011": 0.0,
			"-0.01": 1.29688125598,
			"-0.009": 3.10440923341,
			"-0.008": 3.72700107883,
			"-0.007": 9.53367032824,
			"-0.006": 18.2462426693,
			"-0.005": 19.1405412444,
			"-0.004": 22.4532729257,
			"-0.003": 20.9439225797,
			"-0.002": 15.9171660797,
			"-0.001": 15.5740154344,
			"0.0": 12.2225982761,
			"0.001": 9.66961128143,
			"0.002": 10.6948291183,
			"0.003": 13.1602840987,
			"0.004": 11.8400626708,
			"0.005": 5.12246560835,
			"0.006": 4.53424872798,
			"0.007": 5.52183755505,
			"0.008": 9.6729395908,
			"0.009": 7.47538515318,
			"0.01": 2.13006964774,
			"0.011": 1.78590593898,
			"0.012": 1.54353863111,
			"0.013": 3.28756366407,
			"0.014": 4.46248656787,
			"0.015": 1.51201925004,
			"0.016": 0.0274585276284,
			"0.017": 0.0,
			"0.018": 0.0,
			"0.019": 0.0,
			"0.02": 0.0,
			"0.021": 0.0,
			"0.022": 0.0,
			"0.023": 0.0,
			"0.024": 0.0,
			"0.025": 0.0
		}
	}
}
