{
	 "smiles": "COC1=CC=C(C=C1)C1=C(C=O)C=NC=C1", 
	 "Tm": 356.15, 
	 "num_atms": 27, 
	 "gaussian": { 
		 "optdone": 1, 
		 "sigma_profile": "yes", 
		 "theory": "DFT", 
		 "functional": "B3LYP", 
		 "basiset": "6-31G**", 
		 "properties": { 
			 "R2extent": 4948.4867, 
			 "electric_dipole_moment_norm": 5.39178106473, 
			 "electric_quadrupole_moment_norm": 15.287601636, 
			 "total_energy": -707.186645045, 
			 "HOMO_LUMO_gap": 0.15939, 
			 "cosmo_polarized_energy": -12.47, 
			 "cosmo_cavitation_energy": 31.55, 
			 "cosmo_dispersion_energy": -22.77, 
			 "cosmo_repulsion_energy": 1.75, 
			 "cosmo_total_nonelectrostatic_energy": 10.53, 
			 "SMD_solvation_energy": 5.56 
		},
		"coords": [
			{
				"x": -0.9025323774,
				"y": -1.7489308933,
				"z": -4.3598841309,
				"element": "C" 
			},
			{
				"x": 0.2925524987,
				"y": -1.1602857109,
				"z": -3.8655237778,
				"element": "O" 
			},
			{
				"x": 0.4692542353,
				"y": -1.0864799395,
				"z": -2.5190622281,
				"element": "C" 
			},
			{
				"x": -0.4421825954,
				"y": -1.5590583293,
				"z": -1.5665828076,
				"element": "C" 
			},
			{
				"x": -0.1537327008,
				"y": -1.423098635,
				"z": -0.2079077673,
				"element": "C" 
			},
			{
				"x": 1.034223674,
				"y": -0.8245000271,
				"z": 0.2354275656,
				"element": "C" 
			},
			{
				"x": 1.9435488828,
				"y": -0.3689938892,
				"z": -0.7396772516,
				"element": "C" 
			},
			{
				"x": 1.6669992014,
				"y": -0.4895103878,
				"z": -2.0926930978,
				"element": "C" 
			},
			{
				"x": 1.3618186303,
				"y": -0.7189300863,
				"z": 1.6781390326,
				"element": "C" 
			},
			{
				"x": 0.4544000121,
				"y": -0.2522720265,
				"z": 2.657274332,
				"element": "C" 
			},
			{
				"x": -0.8644425306,
				"y": 0.3486634865,
				"z": 2.3346916409,
				"element": "C" 
			},
			{
				"x": -1.7110940069,
				"y": 0.6094791599,
				"z": 3.1712246649,
				"element": "O" 
			},
			{
				"x": 0.8541323827,
				"y": -0.263694597,
				"z": 4.0058059673,
				"element": "C" 
			},
			{
				"x": 2.0471133733,
				"y": -0.6686394735,
				"z": 4.4392831406,
				"element": "N" 
			},
			{
				"x": 2.9130989187,
				"y": -1.0823029179,
				"z": 3.4994899526,
				"element": "C" 
			},
			{
				"x": 2.625010189,
				"y": -1.1236468008,
				"z": 2.1389509652,
				"element": "C" 
			},
			{
				"x": -0.9920886516,
				"y": -2.7986586201,
				"z": -4.0532798419,
				"element": "H" 
			},
			{
				"x": -0.8348550561,
				"y": -1.6969883623,
				"z": -5.4472482668,
				"element": "H" 
			},
			{
				"x": -1.7911590244,
				"y": -1.1987036942,
				"z": -4.0261019053,
				"element": "H" 
			},
			{
				"x": -1.3665878635,
				"y": -2.03788858,
				"z": -1.8659966865,
				"element": "H" 
			},
			{
				"x": -0.8564641131,
				"y": -1.8215839579,
				"z": 0.5180246561,
				"element": "H" 
			},
			{
				"x": 2.8677850237,
				"y": 0.1076204208,
				"z": -0.4263055566,
				"element": "H" 
			},
			{
				"x": 2.3596133085,
				"y": -0.1251208662,
				"z": -2.8440714091,
				"element": "H" 
			},
			{
				"x": -1.033049011,
				"y": 0.58799189,
				"z": 1.2668333938,
				"element": "H" 
			},
			{
				"x": 0.1503941777,
				"y": 0.0990468044,
				"z": 4.7513690705,
				"element": "H" 
			},
			{
				"x": 3.8864792241,
				"y": -1.4119735848,
				"z": 3.8589347724,
				"element": "H" 
			},
			{
				"x": 3.3619641987,
				"y": -1.506240382,
				"z": 1.4399855728,
				"element": "H" 
			}
		],
		 "valence_orbital": [ 
			{
				"type": "occ",
				"energy": -0.27302,
				"method": "rhf"
			},
			{
				"type": "occ",
				"energy": -0.26919,
				"method": "rhf"
			},
			{
				"type": "occ",
				"energy": -0.2661,
				"method": "rhf"
			},
			{
				"type": "occ",
				"energy": -0.24756,
				"method": "rhf"
			},
			{
				"type": "occ",
				"energy": -0.22859,
				"method": "rhf"
			},
			{
				"type": "unocc",
				"energy": -0.0692,
				"method": "rhf"
			},
			{
				"type": "unocc",
				"energy": -0.0397,
				"method": "rhf"
			},
			{
				"type": "unocc",
				"energy": -0.01844,
				"method": "rhf"
			},
			{
				"type": "unocc",
				"energy": 0.0088,
				"method": "rhf"
			},
			{
				"type": "unocc",
				"energy": 0.02959,
				"method": "rhf"
			}
		],
		"cosmo_sigma_profile": { 
			"-0.025": 0.0,
			"-0.024": 0.0,
			"-0.023": 0.0,
			"-0.022": 0.0,
			"-0.021": 0.0,
			"-0.02": 0.0,
			"-0.019": 0.0,
			"-0.018": 0.0,
			"-0.017": 0.0,
			"-0.016": 0.0,
			"-0.015": 0.0,
			"-0.014": 0.0,
			"-0.013": 0.0,
			"-0.012": 0.0,
			"-0.011": 0.0,
			"-0.01": 0.0,
			"-0.009": 0.0,
			"-0.008": 0.291617997296,
			"-0.007": 8.29683723209,
			"-0.006": 20.441921199,
			"-0.005": 25.4025220603,
			"-0.004": 23.6003100532,
			"-0.003": 19.8163037981,
			"-0.002": 15.0518498373,
			"-0.001": 16.9884263035,
			"0.0": 20.5838074535,
			"0.001": 19.3052227015,
			"0.002": 13.9616564649,
			"0.003": 14.4760803734,
			"0.004": 15.0390400916,
			"0.005": 5.34875939746,
			"0.006": 4.1550297723,
			"0.007": 4.21557752467,
			"0.008": 5.43084118756,
			"0.009": 3.8128976337,
			"0.01": 4.27801543287,
			"0.011": 5.36288872103,
			"0.012": 3.2439346201,
			"0.013": 1.56260911769,
			"0.014": 1.07106928999,
			"0.015": 0.663022464361,
			"0.016": 0.752108150527,
			"0.017": 0.0,
			"0.018": 0.0,
			"0.019": 0.0,
			"0.02": 0.0,
			"0.021": 0.0,
			"0.022": 0.0,
			"0.023": 0.0,
			"0.024": 0.0,
			"0.025": 0.0
		}
	}
}
