{
	 "smiles": "OC(=O)CCC1=NN=C(O1)C1=CC=CC=C1", 
	 "Tm": 418.15, 
	 "num_atms": 26, 
	 "gaussian": { 
		 "optdone": 1, 
		 "sigma_profile": "yes", 
		 "theory": "DFT", 
		 "functional": "B3LYP", 
		 "basiset": "6-31G**", 
		 "properties": { 
			 "R2extent": 4290.9974, 
			 "electric_dipole_moment_norm": 3.20100694314, 
			 "electric_quadrupole_moment_norm": 17.0570657943, 
			 "total_energy": -760.367549879, 
			 "HOMO_LUMO_gap": 0.18995, 
			 "cosmo_polarized_energy": -17.06, 
			 "cosmo_cavitation_energy": 31.69, 
			 "cosmo_dispersion_energy": -22.29, 
			 "cosmo_repulsion_energy": 1.74, 
			 "cosmo_total_nonelectrostatic_energy": 11.13, 
			 "SMD_solvation_energy": 4.61 
		},
		"coords": [
			{
				"x": 0.9084897183,
				"y": -1.9796133839,
				"z": -3.0376055121,
				"element": "O" 
			},
			{
				"x": 0.6983270823,
				"y": -2.7634360082,
				"z": -1.9506057558,
				"element": "C" 
			},
			{
				"x": 1.5969967509,
				"y": -3.1395737576,
				"z": -1.2332889268,
				"element": "O" 
			},
			{
				"x": -0.7690364543,
				"y": -3.1146295111,
				"z": -1.7931531268,
				"element": "C" 
			},
			{
				"x": -1.717839248,
				"y": -1.8964721867,
				"z": -1.8121431111,
				"element": "C" 
			},
			{
				"x": -1.5999227958,
				"y": -1.0291163548,
				"z": -0.606175571,
				"element": "C" 
			},
			{
				"x": -2.5394381652,
				"y": -0.5434788457,
				"z": 0.1421062704,
				"element": "N" 
			},
			{
				"x": -1.9080746845,
				"y": 0.2081068326,
				"z": 1.1336580981,
				"element": "N" 
			},
			{
				"x": -0.6292711597,
				"y": 0.1149824912,
				"z": 0.9152965462,
				"element": "C" 
			},
			{
				"x": -0.3573892975,
				"y": -0.6552443613,
				"z": -0.1835935664,
				"element": "O" 
			},
			{
				"x": 0.4769600389,
				"y": 0.691126781,
				"z": 1.670882443,
				"element": "C" 
			},
			{
				"x": 1.8046597701,
				"y": 0.3323557031,
				"z": 1.3902460483,
				"element": "C" 
			},
			{
				"x": 2.8441607808,
				"y": 0.8917976491,
				"z": 2.1309420987,
				"element": "C" 
			},
			{
				"x": 2.569383808,
				"y": 1.8060629586,
				"z": 3.1501496824,
				"element": "C" 
			},
			{
				"x": 1.2466324802,
				"y": 2.1601473324,
				"z": 3.4326321931,
				"element": "C" 
			},
			{
				"x": 0.201263342,
				"y": 1.6073182986,
				"z": 2.6991386332,
				"element": "C" 
			},
			{
				"x": 1.864493239,
				"y": -1.8076163393,
				"z": -3.0678672379,
				"element": "H" 
			},
			{
				"x": -0.8726310617,
				"y": -3.6879909931,
				"z": -0.8701177173,
				"element": "H" 
			},
			{
				"x": -1.0370767895,
				"y": -3.7696374462,
				"z": -2.6304266119,
				"element": "H" 
			},
			{
				"x": -2.7571009741,
				"y": -2.2297960013,
				"z": -1.8597688625,
				"element": "H" 
			},
			{
				"x": -1.5209434781,
				"y": -1.3045151475,
				"z": -2.7131838411,
				"element": "H" 
			},
			{
				"x": 2.0135984701,
				"y": -0.3902591566,
				"z": 0.6081558137,
				"element": "H" 
			},
			{
				"x": 3.8700711774,
				"y": 0.6094531603,
				"z": 1.9142379719,
				"element": "H" 
			},
			{
				"x": 3.3825819819,
				"y": 2.2399087562,
				"z": 3.7246965168,
				"element": "H" 
			},
			{
				"x": 1.0305467796,
				"y": 2.8694992355,
				"z": 4.2259382886,
				"element": "H" 
			},
			{
				"x": -0.830141311,
				"y": 1.8719202949,
				"z": 2.9063492361,
				"element": "H" 
			}
		],
		 "valence_orbital": [ 
			{
				"type": "occ",
				"energy": -0.30097,
				"method": "rhf"
			},
			{
				"type": "occ",
				"energy": -0.28343,
				"method": "rhf"
			},
			{
				"type": "occ",
				"energy": -0.27531,
				"method": "rhf"
			},
			{
				"type": "occ",
				"energy": -0.26129,
				"method": "rhf"
			},
			{
				"type": "occ",
				"energy": -0.23873,
				"method": "rhf"
			},
			{
				"type": "unocc",
				"energy": -0.04878,
				"method": "rhf"
			},
			{
				"type": "unocc",
				"energy": -0.01093,
				"method": "rhf"
			},
			{
				"type": "unocc",
				"energy": -0.00441,
				"method": "rhf"
			},
			{
				"type": "unocc",
				"energy": 0.01515,
				"method": "rhf"
			},
			{
				"type": "unocc",
				"energy": 0.05983,
				"method": "rhf"
			}
		],
		"cosmo_sigma_profile": { 
			"-0.025": 0.0,
			"-0.024": 0.0,
			"-0.023": 0.0,
			"-0.022": 0.0,
			"-0.021": 0.0,
			"-0.02": 0.0,
			"-0.019": 0.0149656186075,
			"-0.018": 0.734070974098,
			"-0.017": 1.10587564459,
			"-0.016": 0.500345722244,
			"-0.015": 0.791920345513,
			"-0.014": 1.08302507783,
			"-0.013": 0.938524207317,
			"-0.012": 0.377457610042,
			"-0.011": 0.846435285865,
			"-0.01": 0.683501502637,
			"-0.009": 0.392020294436,
			"-0.008": 2.03732393568,
			"-0.007": 10.0155568803,
			"-0.006": 19.1515667099,
			"-0.005": 23.4000189092,
			"-0.004": 21.5897281747,
			"-0.003": 14.5965667746,
			"-0.002": 15.3413938182,
			"-0.001": 14.8205142249,
			"0.0": 15.108929795,
			"0.001": 16.1015606942,
			"0.002": 15.5528825753,
			"0.003": 16.4731306863,
			"0.004": 15.308149894,
			"0.005": 5.16969272085,
			"0.006": 4.39447956579,
			"0.007": 4.53359474004,
			"0.008": 3.91985919922,
			"0.009": 4.45636510751,
			"0.01": 4.63879674544,
			"0.011": 5.21640953755,
			"0.012": 7.24698018674,
			"0.013": 3.60535187067,
			"0.014": 2.13437622213,
			"0.015": 1.05456601987,
			"0.016": 0.0246558387752,
			"0.017": 0.0,
			"0.018": 0.0,
			"0.019": 0.0,
			"0.02": 0.0,
			"0.021": 0.0,
			"0.022": 0.0,
			"0.023": 0.0,
			"0.024": 0.0,
			"0.025": 0.0
		}
	}
}
