{
	 "smiles": "O=C(OC1=CC=CC=C1)C=CC(=O)OC1=CC=CC=C1", 
	 "Tm": 346.15, 
	 "num_atms": 32, 
	 "gaussian": { 
		 "optdone": 1, 
		 "sigma_profile": "yes", 
		 "theory": "DFT", 
		 "functional": "B3LYP", 
		 "basiset": "6-31G**", 
		 "properties": { 
			 "R2extent": 5747.049, 
			 "electric_dipole_moment_norm": 4.47095724202, 
			 "electric_quadrupole_moment_norm": 24.3793544697, 
			 "total_energy": -917.794134552, 
			 "HOMO_LUMO_gap": 0.15686, 
			 "cosmo_polarized_energy": -15.44, 
			 "cosmo_cavitation_energy": 38.37, 
			 "cosmo_dispersion_energy": -25.03, 
			 "cosmo_repulsion_energy": 1.94, 
			 "cosmo_total_nonelectrostatic_energy": 15.29, 
			 "SMD_solvation_energy": 8.66 
		},
		"coords": [
			{
				"x": 2.4882113037,
				"y": 2.8577503828,
				"z": -2.0558898494,
				"element": "O" 
			},
			{
				"x": 1.8727026982,
				"y": 1.8390744709,
				"z": -1.8586091797,
				"element": "C" 
			},
			{
				"x": 2.2723552371,
				"y": 0.6833939986,
				"z": -2.4826139546,
				"element": "O" 
			},
			{
				"x": 2.118438406,
				"y": -0.5800178656,
				"z": -1.9225409173,
				"element": "C" 
			},
			{
				"x": 1.6997139215,
				"y": -1.6042371868,
				"z": -2.7719760381,
				"element": "C" 
			},
			{
				"x": 1.6002283595,
				"y": -2.9037533834,
				"z": -2.2742688267,
				"element": "C" 
			},
			{
				"x": 1.9167666041,
				"y": -3.1758340202,
				"z": -0.9412601192,
				"element": "C" 
			},
			{
				"x": 2.3455554423,
				"y": -2.1411900699,
				"z": -0.1072075038,
				"element": "C" 
			},
			{
				"x": 2.4568782867,
				"y": -0.8373726458,
				"z": -0.5930578944,
				"element": "C" 
			},
			{
				"x": 0.6308357832,
				"y": 1.8389616709,
				"z": -1.0337223583,
				"element": "C" 
			},
			{
				"x": -0.4284270766,
				"y": 1.0445830609,
				"z": -1.2349194817,
				"element": "C" 
			},
			{
				"x": -1.7681327301,
				"y": 1.2235481731,
				"z": -0.6058215399,
				"element": "C" 
			},
			{
				"x": -2.7773324004,
				"y": 0.929059868,
				"z": -1.1976996911,
				"element": "O" 
			},
			{
				"x": -1.8645460097,
				"y": 1.819628442,
				"z": 0.6270096358,
				"element": "O" 
			},
			{
				"x": -0.9260797052,
				"y": 1.6425176771,
				"z": 1.6376661349,
				"element": "C" 
			},
			{
				"x": -0.4327262835,
				"y": 0.3785729001,
				"z": 1.9653653568,
				"element": "C" 
			},
			{
				"x": 0.4552044999,
				"y": 0.2558829649,
				"z": 3.0353657084,
				"element": "C" 
			},
			{
				"x": 0.8332992177,
				"y": 1.3771461868,
				"z": 3.7768325448,
				"element": "C" 
			},
			{
				"x": 0.3152742336,
				"y": 2.6316608395,
				"z": 3.4467102265,
				"element": "C" 
			},
			{
				"x": -0.5674949698,
				"y": 2.770824159,
				"z": 2.3754126595,
				"element": "C" 
			},
			{
				"x": 1.4644094706,
				"y": -1.3716040524,
				"z": -3.8053247196,
				"element": "H" 
			},
			{
				"x": 1.2740584853,
				"y": -3.7038109821,
				"z": -2.931967862,
				"element": "H" 
			},
			{
				"x": 1.8378186721,
				"y": -4.188195679,
				"z": -0.5576150384,
				"element": "H" 
			},
			{
				"x": 2.6082815118,
				"y": -2.3474414319,
				"z": 0.926205804,
				"element": "H" 
			},
			{
				"x": 2.8087765681,
				"y": -0.034558266,
				"z": 0.0466644407,
				"element": "H" 
			},
			{
				"x": 0.6003746243,
				"y": 2.6515316886,
				"z": -0.3157079775,
				"element": "H" 
			},
			{
				"x": -0.4188556722,
				"y": 0.2707574693,
				"z": -1.9950808371,
				"element": "H" 
			},
			{
				"x": -0.7440071854,
				"y": -0.4934356676,
				"z": 1.3994157146,
				"element": "H" 
			},
			{
				"x": 0.8416369703,
				"y": -0.7252267886,
				"z": 3.2953653564,
				"element": "H" 
			},
			{
				"x": 1.5200670264,
				"y": 1.2729484505,
				"z": 4.6109679038,
				"element": "H" 
			},
			{
				"x": 0.597476376,
				"y": 3.5075041288,
				"z": 4.0231711571,
				"element": "H" 
			},
			{
				"x": -0.9862616656,
				"y": 3.7346315076,
				"z": 2.1052311456,
				"element": "H" 
			}
		],
		 "valence_orbital": [ 
			{
				"type": "occ",
				"energy": -0.2831,
				"method": "rhf"
			},
			{
				"type": "occ",
				"energy": -0.27179,
				"method": "rhf"
			},
			{
				"type": "occ",
				"energy": -0.26908,
				"method": "rhf"
			},
			{
				"type": "occ",
				"energy": -0.25493,
				"method": "rhf"
			},
			{
				"type": "occ",
				"energy": -0.24905,
				"method": "rhf"
			},
			{
				"type": "unocc",
				"energy": -0.09219,
				"method": "rhf"
			},
			{
				"type": "unocc",
				"energy": -0.02316,
				"method": "rhf"
			},
			{
				"type": "unocc",
				"energy": -0.02162,
				"method": "rhf"
			},
			{
				"type": "unocc",
				"energy": -0.01851,
				"method": "rhf"
			},
			{
				"type": "unocc",
				"energy": -0.0153,
				"method": "rhf"
			}
		],
		"cosmo_sigma_profile": { 
			"-0.025": 0.0,
			"-0.024": 0.0,
			"-0.023": 0.0,
			"-0.022": 0.0,
			"-0.021": 0.0,
			"-0.02": 0.0,
			"-0.019": 0.0,
			"-0.018": 0.0,
			"-0.017": 0.0,
			"-0.016": 0.0,
			"-0.015": 0.0,
			"-0.014": 0.0,
			"-0.013": 0.0,
			"-0.012": 0.0,
			"-0.011": 0.0,
			"-0.01": 0.016136500007,
			"-0.009": 1.40992794602,
			"-0.008": 4.11430375605,
			"-0.007": 12.5693108008,
			"-0.006": 25.3337811238,
			"-0.005": 27.202528399,
			"-0.004": 25.6150675754,
			"-0.003": 20.5340530565,
			"-0.002": 20.9638290852,
			"-0.001": 15.0015145355,
			"0.0": 18.2469807925,
			"0.001": 21.5153085727,
			"0.002": 22.8509225809,
			"0.003": 20.0179936276,
			"0.004": 21.3808409389,
			"0.005": 9.00191858829,
			"0.006": 4.09795742958,
			"0.007": 5.42237154084,
			"0.008": 6.1738013531,
			"0.009": 7.54427543618,
			"0.01": 10.3252924712,
			"0.011": 7.98712530983,
			"0.012": 1.28428843016,
			"0.013": 0.0,
			"0.014": 0.0,
			"0.015": 0.0,
			"0.016": 0.0,
			"0.017": 0.0,
			"0.018": 0.0,
			"0.019": 0.0,
			"0.02": 0.0,
			"0.021": 0.0,
			"0.022": 0.0,
			"0.023": 0.0,
			"0.024": 0.0,
			"0.025": 0.0
		}
	}
}
