{
	 "smiles": "CS(=O)(=O)CCN1C=C(Br)C=N1", 
	 "Tm": 368.15, 
	 "num_atms": 21, 
	 "gaussian": { 
		 "optdone": 1, 
		 "sigma_profile": "yes", 
		 "theory": "DFT", 
		 "functional": "B3LYP", 
		 "basiset": "6-31G**", 
		 "properties": { 
			 "R2extent": 6455.0079, 
			 "electric_dipole_moment_norm": 3.63852924957, 
			 "electric_quadrupole_moment_norm": 22.8689539923, 
			 "total_energy": -3463.51375207, 
			 "HOMO_LUMO_gap": 0.23758, 
			 "cosmo_polarized_energy": -18.77, 
			 "cosmo_cavitation_energy": 28.46, 
			 "cosmo_dispersion_energy": -21.47, 
			 "cosmo_repulsion_energy": 1.67, 
			 "cosmo_total_nonelectrostatic_energy": 8.66, 
			 "SMD_solvation_energy": 3.31 
		},
		"coords": [
			{
				"x": 0.7891959752,
				"y": -0.7771022969,
				"z": -1.1043533096,
				"element": "C" 
			},
			{
				"x": 1.9725521563,
				"y": 0.1390084469,
				"z": -0.1010430133,
				"element": "S" 
			},
			{
				"x": 2.9625287038,
				"y": -0.8105822877,
				"z": 0.4309582066,
				"element": "O" 
			},
			{
				"x": 2.4015095649,
				"y": 1.325452933,
				"z": -0.8617540804,
				"element": "O" 
			},
			{
				"x": 1.0380216709,
				"y": 0.7470816995,
				"z": 1.3557157904,
				"element": "C" 
			},
			{
				"x": 0.2134929839,
				"y": 2.0218586039,
				"z": 1.124461571,
				"element": "C" 
			},
			{
				"x": -1.1990861869,
				"y": 1.7869583579,
				"z": 0.8590050336,
				"element": "N" 
			},
			{
				"x": -2.236199766,
				"y": 1.9395860405,
				"z": 1.7257445111,
				"element": "C" 
			},
			{
				"x": -3.373950241,
				"y": 1.5797211962,
				"z": 1.0291379415,
				"element": "C" 
			},
			{
				"x": -5.1423905195,
				"y": 1.5877585744,
				"z": 1.6729208746,
				"element": "Br" 
			},
			{
				"x": -2.9278543162,
				"y": 1.2187289849,
				"z": -0.2572840107,
				"element": "C" 
			},
			{
				"x": -1.6048785821,
				"y": 1.3479908713,
				"z": -0.3534426338,
				"element": "N" 
			},
			{
				"x": 0.4857814235,
				"y": -1.6737305794,
				"z": -0.5615330318,
				"element": "H" 
			},
			{
				"x": 1.3248834502,
				"y": -1.0489271704,
				"z": -2.0159081783,
				"element": "H" 
			},
			{
				"x": -0.0625799509,
				"y": -0.129414681,
				"z": -1.3197869816,
				"element": "H" 
			},
			{
				"x": 0.4414704378,
				"y": -0.0776747565,
				"z": 1.7540414342,
				"element": "H" 
			},
			{
				"x": 1.8524729414,
				"y": 0.9443964487,
				"z": 2.0588858073,
				"element": "H" 
			},
			{
				"x": 0.2636895674,
				"y": 2.6484594729,
				"z": 2.0181325927,
				"element": "H" 
			},
			{
				"x": 0.6377428937,
				"y": 2.5898882872,
				"z": 0.2918594907,
				"element": "H" 
			},
			{
				"x": -2.103189952,
				"y": 2.2905564066,
				"z": 2.737648557,
				"element": "H" 
			},
			{
				"x": -3.5130122545,
				"y": 0.883185448,
				"z": -1.1015065712,
				"element": "H" 
			}
		],
		 "valence_orbital": [ 
			{
				"type": "occ",
				"energy": -0.29624,
				"method": "rhf"
			},
			{
				"type": "occ",
				"energy": -0.29531,
				"method": "rhf"
			},
			{
				"type": "occ",
				"energy": -0.29066,
				"method": "rhf"
			},
			{
				"type": "occ",
				"energy": -0.27695,
				"method": "rhf"
			},
			{
				"type": "occ",
				"energy": -0.24943,
				"method": "rhf"
			},
			{
				"type": "unocc",
				"energy": -0.01185,
				"method": "rhf"
			},
			{
				"type": "unocc",
				"energy": 0.0039,
				"method": "rhf"
			},
			{
				"type": "unocc",
				"energy": 0.03807,
				"method": "rhf"
			},
			{
				"type": "unocc",
				"energy": 0.05819,
				"method": "rhf"
			},
			{
				"type": "unocc",
				"energy": 0.06002,
				"method": "rhf"
			}
		],
		"cosmo_sigma_profile": { 
			"-0.025": 0.0,
			"-0.024": 0.0,
			"-0.023": 0.0,
			"-0.022": 0.0,
			"-0.021": 0.0,
			"-0.02": 0.0,
			"-0.019": 0.0,
			"-0.018": 0.0,
			"-0.017": 0.0,
			"-0.016": 0.0,
			"-0.015": 0.0,
			"-0.014": 0.0,
			"-0.013": 0.0,
			"-0.012": 0.0157707108578,
			"-0.011": 1.56024212994,
			"-0.01": 4.97764138734,
			"-0.009": 11.3993174081,
			"-0.008": 13.0863090087,
			"-0.007": 10.9512948652,
			"-0.006": 12.439998974,
			"-0.005": 12.1613697802,
			"-0.004": 11.7997827265,
			"-0.003": 12.1245966905,
			"-0.002": 10.9485991135,
			"-0.001": 8.15291071239,
			"0.0": 11.323920956,
			"0.001": 12.8119905021,
			"0.002": 15.9781843846,
			"0.003": 17.7963662627,
			"0.004": 16.2361366872,
			"0.005": 7.16167436193,
			"0.006": 2.72639196827,
			"0.007": 3.6191364147,
			"0.008": 3.01442856512,
			"0.009": 2.70448416355,
			"0.01": 5.01682615663,
			"0.011": 9.02474800879,
			"0.012": 10.7175263935,
			"0.013": 2.51106575564,
			"0.014": 0.0,
			"0.015": 0.0,
			"0.016": 0.0,
			"0.017": 0.0,
			"0.018": 0.0,
			"0.019": 0.0,
			"0.02": 0.0,
			"0.021": 0.0,
			"0.022": 0.0,
			"0.023": 0.0,
			"0.024": 0.0,
			"0.025": 0.0
		}
	}
}
