{
	 "smiles": "OC(=O)C1=NC(F)=CC=C1", 
	 "Tm": 414.15, 
	 "num_atms": 14, 
	 "gaussian": { 
		 "optdone": 1, 
		 "sigma_profile": "yes", 
		 "theory": "DFT", 
		 "functional": "B3LYP", 
		 "basiset": "6-31G**", 
		 "properties": { 
			 "R2extent": 1487.5769, 
			 "electric_dipole_moment_norm": 4.86890930086, 
			 "electric_quadrupole_moment_norm": 7.55980641485, 
			 "total_energy": -536.09882325, 
			 "HOMO_LUMO_gap": 0.19832, 
			 "cosmo_polarized_energy": -10.87, 
			 "cosmo_cavitation_energy": 19.65, 
			 "cosmo_dispersion_energy": -14.66, 
			 "cosmo_repulsion_energy": 1.17, 
			 "cosmo_total_nonelectrostatic_energy": 6.16, 
			 "SMD_solvation_energy": 4.45 
		},
		"coords": [
			{
				"x": 1.1348305922,
				"y": 2.3170186232,
				"z": -0.1622478474,
				"element": "O" 
			},
			{
				"x": -0.0707778616,
				"y": 1.7296510526,
				"z": -0.1603504908,
				"element": "C" 
			},
			{
				"x": -1.0902729261,
				"y": 2.3054338549,
				"z": -0.4646114935,
				"element": "O" 
			},
			{
				"x": -0.046350721,
				"y": 0.2787129042,
				"z": 0.2562211911,
				"element": "C" 
			},
			{
				"x": 1.1659678881,
				"y": -0.2201910972,
				"z": 0.5649747163,
				"element": "N" 
			},
			{
				"x": 1.2233878708,
				"y": -1.481599277,
				"z": 0.9320678146,
				"element": "C" 
			},
			{
				"x": 2.435460781,
				"y": -1.9591909142,
				"z": 1.2346710322,
				"element": "F" 
			},
			{
				"x": 0.1230478884,
				"y": -2.3370743999,
				"z": 1.0244046479,
				"element": "C" 
			},
			{
				"x": -1.1221066984,
				"y": -1.806407412,
				"z": 0.7020927459,
				"element": "C" 
			},
			{
				"x": -1.2180488129,
				"y": -0.4685618423,
				"z": 0.3079190823,
				"element": "C" 
			},
			{
				"x": 1.7832253765,
				"y": 1.6405191389,
				"z": 0.119514986,
				"element": "H" 
			},
			{
				"x": 0.2591346173,
				"y": -3.3657470767,
				"z": 1.3360573766,
				"element": "H" 
			},
			{
				"x": -2.0089185571,
				"y": -2.4301109712,
				"z": 0.7577771322,
				"element": "H" 
			},
			{
				"x": -2.1580794373,
				"y": 0.0007474167,
				"z": 0.0450091067,
				"element": "H" 
			}
		],
		 "valence_orbital": [ 
			{
				"type": "occ",
				"energy": -0.32653,
				"method": "rhf"
			},
			{
				"type": "occ",
				"energy": -0.32374,
				"method": "rhf"
			},
			{
				"type": "occ",
				"energy": -0.3171,
				"method": "rhf"
			},
			{
				"type": "occ",
				"energy": -0.28289,
				"method": "rhf"
			},
			{
				"type": "occ",
				"energy": -0.27572,
				"method": "rhf"
			},
			{
				"type": "unocc",
				"energy": -0.0774,
				"method": "rhf"
			},
			{
				"type": "unocc",
				"energy": -0.04226,
				"method": "rhf"
			},
			{
				"type": "unocc",
				"energy": 0.04372,
				"method": "rhf"
			},
			{
				"type": "unocc",
				"energy": 0.07491,
				"method": "rhf"
			},
			{
				"type": "unocc",
				"energy": 0.11497,
				"method": "rhf"
			}
		],
		"cosmo_sigma_profile": { 
			"-0.025": 0.0,
			"-0.024": 0.0,
			"-0.023": 0.0,
			"-0.022": 0.0,
			"-0.021": 0.0,
			"-0.02": 0.0,
			"-0.019": 0.0,
			"-0.018": 0.0,
			"-0.017": 0.0,
			"-0.016": 0.0,
			"-0.015": 0.0,
			"-0.014": 0.243650094208,
			"-0.013": 0.484028254351,
			"-0.012": 0.588666040348,
			"-0.011": 0.55610456125,
			"-0.01": 0.9495551891,
			"-0.009": 3.27962837585,
			"-0.008": 6.85627880314,
			"-0.007": 7.82222808583,
			"-0.006": 6.74303558524,
			"-0.005": 8.13938116078,
			"-0.004": 6.74948894398,
			"-0.003": 13.0000172238,
			"-0.002": 13.4442478074,
			"-0.001": 13.5725651322,
			"0.0": 13.1070920485,
			"0.001": 7.01727404751,
			"0.002": 6.52709831388,
			"0.003": 11.5962650085,
			"0.004": 6.91733625506,
			"0.005": 3.94169815801,
			"0.006": 3.28695431504,
			"0.007": 2.305346559,
			"0.008": 3.43165665803,
			"0.009": 4.15953936133,
			"0.01": 5.02907709415,
			"0.011": 4.99703714584,
			"0.012": 3.25102990967,
			"0.013": 0.820196011994,
			"0.014": 0.0,
			"0.015": 0.0,
			"0.016": 0.0,
			"0.017": 0.0,
			"0.018": 0.0,
			"0.019": 0.0,
			"0.02": 0.0,
			"0.021": 0.0,
			"0.022": 0.0,
			"0.023": 0.0,
			"0.024": 0.0,
			"0.025": 0.0
		}
	}
}
