{
	 "smiles": "C[C@H](CN1C=NC2=C1N=CN=C2N)OCP(O)(O)=O", 
	 "Tm": 551.15, 
	 "num_atms": 33, 
	 "gaussian": { 
		 "optdone": 1, 
		 "sigma_profile": "yes", 
		 "theory": "DFT", 
		 "functional": "B3LYP", 
		 "basiset": "6-31G**", 
		 "properties": { 
			 "R2extent": 7173.772, 
			 "electric_dipole_moment_norm": 3.05179846976, 
			 "electric_quadrupole_moment_norm": 13.7096654977, 
			 "total_energy": -1267.48050588, 
			 "HOMO_LUMO_gap": 0.19881, 
			 "cosmo_polarized_energy": -29.15, 
			 "cosmo_cavitation_energy": 39.36, 
			 "cosmo_dispersion_energy": -26.99, 
			 "cosmo_repulsion_energy": 2.08, 
			 "cosmo_total_nonelectrostatic_energy": 14.45, 
			 "SMD_solvation_energy": 5.03 
		},
		"coords": [
			{
				"x": 0.7088680257,
				"y": -2.7212065109,
				"z": 0.1138874706,
				"element": "C" 
			},
			{
				"x": 0.5010748168,
				"y": -1.4150584845,
				"z": 0.8651201696,
				"element": "C" 
			},
			{
				"x": 1.7564519178,
				"y": -0.9547004641,
				"z": 1.6389367254,
				"element": "C" 
			},
			{
				"x": 2.7453124982,
				"y": -0.3268794376,
				"z": 0.7732232693,
				"element": "N" 
			},
			{
				"x": 3.9572858412,
				"y": -0.8232402425,
				"z": 0.3295120463,
				"element": "C" 
			},
			{
				"x": 4.6188472184,
				"y": -0.0016201308,
				"z": -0.4515412564,
				"element": "N" 
			},
			{
				"x": 3.7964963899,
				"y": 1.107958782,
				"z": -0.5337576482,
				"element": "C" 
			},
			{
				"x": 2.6302012279,
				"y": 0.9304528585,
				"z": 0.2167738847,
				"element": "C" 
			},
			{
				"x": 1.6238592352,
				"y": 1.8057300822,
				"z": 0.3631098482,
				"element": "N" 
			},
			{
				"x": 1.8639933775,
				"y": 2.9349422469,
				"z": -0.3131769065,
				"element": "C" 
			},
			{
				"x": 2.9274128628,
				"y": 3.2519576417,
				"z": -1.0689708121,
				"element": "N" 
			},
			{
				"x": 3.9148371568,
				"y": 2.3465017451,
				"z": -1.2004592311,
				"element": "C" 
			},
			{
				"x": 4.9788759421,
				"y": 2.6491747267,
				"z": -1.9822508449,
				"element": "N" 
			},
			{
				"x": -0.5560465733,
				"y": -1.6256532044,
				"z": 1.8083101982,
				"element": "O" 
			},
			{
				"x": -1.3039827344,
				"y": -0.468683989,
				"z": 2.1320907805,
				"element": "C" 
			},
			{
				"x": -2.7666606948,
				"y": -0.1975490833,
				"z": 1.0560288369,
				"element": "P" 
			},
			{
				"x": -2.2260177418,
				"y": -0.301663051,
				"z": -0.4821052606,
				"element": "O" 
			},
			{
				"x": -3.5504482575,
				"y": -1.5992587104,
				"z": 1.2376799385,
				"element": "O" 
			},
			{
				"x": -3.5229192,
				"y": 1.0512855504,
				"z": 1.3307654317,
				"element": "O" 
			},
			{
				"x": 0.8987956468,
				"y": -3.5381143084,
				"z": 0.8181083249,
				"element": "H" 
			},
			{
				"x": 1.559232287,
				"y": -2.642763497,
				"z": -0.5708464101,
				"element": "H" 
			},
			{
				"x": -0.1831794054,
				"y": -2.9666165717,
				"z": -0.4669879096,
				"element": "H" 
			},
			{
				"x": 0.2192997057,
				"y": -0.6241178316,
				"z": 0.1616548742,
				"element": "H" 
			},
			{
				"x": 1.4666871073,
				"y": -0.2241430116,
				"z": 2.3992159464,
				"element": "H" 
			},
			{
				"x": 2.2252842529,
				"y": -1.8020572716,
				"z": 2.1475392026,
				"element": "H" 
			},
			{
				"x": 4.2969187263,
				"y": -1.8058935772,
				"z": 0.6313515136,
				"element": "H" 
			},
			{
				"x": 1.0973904179,
				"y": 3.7042435139,
				"z": -0.2430908436,
				"element": "H" 
			},
			{
				"x": 5.7807503149,
				"y": 2.0401107741,
				"z": -1.9842606615,
				"element": "H" 
			},
			{
				"x": 5.0632131241,
				"y": 3.5911675584,
				"z": -2.3292295641,
				"element": "H" 
			},
			{
				"x": -1.6795539715,
				"y": -0.5806444348,
				"z": 3.1544489353,
				"element": "H" 
			},
			{
				"x": -0.7058773526,
				"y": 0.4520653778,
				"z": 2.0901256853,
				"element": "H" 
			},
			{
				"x": -2.2176445167,
				"y": 0.5822009751,
				"z": -0.8779681726,
				"element": "H" 
			},
			{
				"x": -4.4201576453,
				"y": -1.5778280205,
				"z": 0.8126624394,
				"element": "H" 
			}
		],
		 "valence_orbital": [ 
			{
				"type": "occ",
				"energy": -0.28395,
				"method": "rhf"
			},
			{
				"type": "occ",
				"energy": -0.26939,
				"method": "rhf"
			},
			{
				"type": "occ",
				"energy": -0.25334,
				"method": "rhf"
			},
			{
				"type": "occ",
				"energy": -0.25221,
				"method": "rhf"
			},
			{
				"type": "occ",
				"energy": -0.22157,
				"method": "rhf"
			},
			{
				"type": "unocc",
				"energy": -0.02276,
				"method": "rhf"
			},
			{
				"type": "unocc",
				"energy": 0.00375,
				"method": "rhf"
			},
			{
				"type": "unocc",
				"energy": 0.03728,
				"method": "rhf"
			},
			{
				"type": "unocc",
				"energy": 0.03954,
				"method": "rhf"
			},
			{
				"type": "unocc",
				"energy": 0.0672,
				"method": "rhf"
			}
		],
		"cosmo_sigma_profile": { 
			"-0.025": 0.0,
			"-0.024": 0.0,
			"-0.023": 0.0,
			"-0.022": 0.0,
			"-0.021": 0.0,
			"-0.02": 0.366660262786,
			"-0.019": 1.30072951618,
			"-0.018": 2.17263016179,
			"-0.017": 1.97153438152,
			"-0.016": 1.46271510476,
			"-0.015": 1.1308176163,
			"-0.014": 3.06654518191,
			"-0.013": 3.1074024471,
			"-0.012": 3.49451689928,
			"-0.011": 3.78117260879,
			"-0.01": 4.74000133894,
			"-0.009": 6.7875720404,
			"-0.008": 7.45031016971,
			"-0.007": 10.9365681936,
			"-0.006": 13.4147128621,
			"-0.005": 14.4255776609,
			"-0.004": 16.9791737646,
			"-0.003": 17.9010330839,
			"-0.002": 16.3787330583,
			"-0.001": 18.1479650492,
			"0.0": 22.5758148704,
			"0.001": 17.3025706791,
			"0.002": 16.4583724698,
			"0.003": 11.968487226,
			"0.004": 11.5603108738,
			"0.005": 9.70360830607,
			"0.006": 9.47612813629,
			"0.007": 9.68970513575,
			"0.008": 6.47032717665,
			"0.009": 8.14038251725,
			"0.01": 7.77210059375,
			"0.011": 6.42879680688,
			"0.012": 3.81165179582,
			"0.013": 3.18198869599,
			"0.014": 6.69849883286,
			"0.015": 7.53219394268,
			"0.016": 0.528408901933,
			"0.017": 0.0,
			"0.018": 0.0,
			"0.019": 0.0,
			"0.02": 0.0,
			"0.021": 0.0,
			"0.022": 0.0,
			"0.023": 0.0,
			"0.024": 0.0,
			"0.025": 0.0
		}
	}
}
