{
	 "smiles": "CCOC=C(C#N)S(=O)(=O)C(C)(C)C", 
	 "Tm": 377.15, 
	 "num_atms": 29, 
	 "gaussian": { 
		 "optdone": 1, 
		 "sigma_profile": "yes", 
		 "theory": "DFT", 
		 "functional": "B3LYP", 
		 "basiset": "6-31G**", 
		 "properties": { 
			 "R2extent": 3932.5936, 
			 "electric_dipole_moment_norm": 6.17240500534, 
			 "electric_quadrupole_moment_norm": 20.8678874391, 
			 "total_energy": -1030.51458191, 
			 "HOMO_LUMO_gap": 0.20904, 
			 "cosmo_polarized_energy": -19.29, 
			 "cosmo_cavitation_energy": 33.79, 
			 "cosmo_dispersion_energy": -22.89, 
			 "cosmo_repulsion_energy": 1.8, 
			 "cosmo_total_nonelectrostatic_energy": 12.7, 
			 "SMD_solvation_energy": 7.34 
		},
		"coords": [
			{
				"x": -2.2617541628,
				"y": -2.8649178623,
				"z": 1.2590992948,
				"element": "C" 
			},
			{
				"x": -1.3209955261,
				"y": -2.057385614,
				"z": 2.1374814763,
				"element": "C" 
			},
			{
				"x": -1.1540905077,
				"y": -0.7129411304,
				"z": 1.6234245431,
				"element": "O" 
			},
			{
				"x": -0.1999251805,
				"y": -0.5219426439,
				"z": 0.7233892016,
				"element": "C" 
			},
			{
				"x": -0.0386105838,
				"y": 0.659103024,
				"z": 0.0741921227,
				"element": "C" 
			},
			{
				"x": -0.8964695484,
				"y": 1.7732765244,
				"z": 0.2542299578,
				"element": "C" 
			},
			{
				"x": -1.5878642528,
				"y": 2.6983011174,
				"z": 0.4072630467,
				"element": "N" 
			},
			{
				"x": 1.2622174141,
				"y": 0.7195580689,
				"z": -1.1838505539,
				"element": "S" 
			},
			{
				"x": 0.6901107248,
				"y": 1.3458519789,
				"z": -2.384607031,
				"element": "O" 
			},
			{
				"x": 1.8111027957,
				"y": -0.6519593388,
				"z": -1.2411296555,
				"element": "O" 
			},
			{
				"x": 2.613995819,
				"y": 1.8338034477,
				"z": -0.5342468507,
				"element": "C" 
			},
			{
				"x": 3.7107701539,
				"y": 1.7657579931,
				"z": -1.6114401495,
				"element": "C" 
			},
			{
				"x": 2.0666178276,
				"y": 3.2596028273,
				"z": -0.395455302,
				"element": "C" 
			},
			{
				"x": 3.1127611932,
				"y": 1.271772444,
				"z": 0.8012042409,
				"element": "C" 
			},
			{
				"x": -2.4239651115,
				"y": -3.8530367817,
				"z": 1.7014492057,
				"element": "H" 
			},
			{
				"x": -1.8465390529,
				"y": -3.0041158611,
				"z": 0.2562319249,
				"element": "H" 
			},
			{
				"x": -3.2285448055,
				"y": -2.3629666026,
				"z": 1.1677697784,
				"element": "H" 
			},
			{
				"x": -0.3357252104,
				"y": -2.5309418468,
				"z": 2.224327617,
				"element": "H" 
			},
			{
				"x": -1.7274193801,
				"y": -1.9190080408,
				"z": 3.1414758055,
				"element": "H" 
			},
			{
				"x": 0.4762450232,
				"y": -1.3462027351,
				"z": 0.4999344632,
				"element": "H" 
			},
			{
				"x": 4.0806810949,
				"y": 0.7455877072,
				"z": -1.7382682568,
				"element": "H" 
			},
			{
				"x": 3.3413753813,
				"y": 2.1280489765,
				"z": -2.573930309,
				"element": "H" 
			},
			{
				"x": 4.5445763034,
				"y": 2.4029098804,
				"z": -1.2991175677,
				"element": "H" 
			},
			{
				"x": 1.2971457589,
				"y": 3.3368280394,
				"z": 0.3764235084,
				"element": "H" 
			},
			{
				"x": 1.6474963548,
				"y": 3.6160526816,
				"z": -1.3389069107,
				"element": "H" 
			},
			{
				"x": 2.89188068,
				"y": 3.9216692657,
				"z": -0.1116276669,
				"element": "H" 
			},
			{
				"x": 3.4657392609,
				"y": 0.2434461202,
				"z": 0.6910995092,
				"element": "H" 
			},
			{
				"x": 3.9488259848,
				"y": 1.8862051214,
				"z": 1.1513764703,
				"element": "H" 
			},
			{
				"x": 2.335261552,
				"y": 1.2998432394,
				"z": 1.5701080873,
				"element": "H" 
			}
		],
		 "valence_orbital": [ 
			{
				"type": "occ",
				"energy": -0.32168,
				"method": "rhf"
			},
			{
				"type": "occ",
				"energy": -0.31545,
				"method": "rhf"
			},
			{
				"type": "occ",
				"energy": -0.29972,
				"method": "rhf"
			},
			{
				"type": "occ",
				"energy": -0.28283,
				"method": "rhf"
			},
			{
				"type": "occ",
				"energy": -0.262,
				"method": "rhf"
			},
			{
				"type": "unocc",
				"energy": -0.05296,
				"method": "rhf"
			},
			{
				"type": "unocc",
				"energy": -0.00028,
				"method": "rhf"
			},
			{
				"type": "unocc",
				"energy": 0.05152,
				"method": "rhf"
			},
			{
				"type": "unocc",
				"energy": 0.06041,
				"method": "rhf"
			},
			{
				"type": "unocc",
				"energy": 0.07016,
				"method": "rhf"
			}
		],
		"cosmo_sigma_profile": { 
			"-0.025": 0.0,
			"-0.024": 0.0,
			"-0.023": 0.0,
			"-0.022": 0.0,
			"-0.021": 0.0,
			"-0.02": 0.0,
			"-0.019": 0.0,
			"-0.018": 0.0,
			"-0.017": 0.0,
			"-0.016": 0.0,
			"-0.015": 0.0,
			"-0.014": 0.0,
			"-0.013": 0.0,
			"-0.012": 0.123299242692,
			"-0.011": 1.2519169789,
			"-0.01": 2.13988306405,
			"-0.009": 1.82554562648,
			"-0.008": 2.50485069755,
			"-0.007": 5.96996592892,
			"-0.006": 11.6176276142,
			"-0.005": 23.6078957779,
			"-0.004": 26.5916702308,
			"-0.003": 27.0503963864,
			"-0.002": 28.4672826431,
			"-0.001": 31.103183122,
			"0.0": 16.971289834,
			"0.001": 8.18101808013,
			"0.002": 6.75206796023,
			"0.003": 5.89002986979,
			"0.004": 7.06489586243,
			"0.005": 7.56852861116,
			"0.006": 7.17317481473,
			"0.007": 5.63459989204,
			"0.008": 5.91022125569,
			"0.009": 7.05406706036,
			"0.01": 8.81668988451,
			"0.011": 10.2808974169,
			"0.012": 5.58250196482,
			"0.013": 0.909772738328,
			"0.014": 0.0,
			"0.015": 0.0,
			"0.016": 0.0,
			"0.017": 0.0,
			"0.018": 0.0,
			"0.019": 0.0,
			"0.02": 0.0,
			"0.021": 0.0,
			"0.022": 0.0,
			"0.023": 0.0,
			"0.024": 0.0,
			"0.025": 0.0
		}
	}
}
