{
	 "smiles": "CS(=O)(=O)N1CCCC2=C1C=CC(=C2)C(=O)CCl", 
	 "Tm": 392.15, 
	 "num_atms": 32, 
	 "gaussian": { 
		 "optdone": 1, 
		 "sigma_profile": "yes", 
		 "theory": "DFT", 
		 "functional": "B3LYP", 
		 "basiset": "6-31G**", 
		 "properties": { 
			 "R2extent": 6883.1052, 
			 "electric_dipole_moment_norm": 4.46000863676, 
			 "electric_quadrupole_moment_norm": 28.7850517912, 
			 "total_energy": -1604.45723524, 
			 "HOMO_LUMO_gap": 0.162, 
			 "cosmo_polarized_energy": -18.66, 
			 "cosmo_cavitation_energy": 37.0, 
			 "cosmo_dispersion_energy": -27.27, 
			 "cosmo_repulsion_energy": 2.06, 
			 "cosmo_total_nonelectrostatic_energy": 11.79, 
			 "SMD_solvation_energy": 5.22 
		},
		"coords": [
			{
				"x": 3.7386732559,
				"y": 0.8429234775,
				"z": 0.7413635787,
				"element": "C" 
			},
			{
				"x": 2.6203797061,
				"y": 2.0513201852,
				"z": 0.0008758976,
				"element": "S" 
			},
			{
				"x": 3.3896899297,
				"y": 2.874330636,
				"z": -0.9307573608,
				"element": "O" 
			},
			{
				"x": 1.8511524561,
				"y": 2.6738628258,
				"z": 1.0779700195,
				"element": "O" 
			},
			{
				"x": 1.5812120438,
				"y": 1.0997800529,
				"z": -0.9779764227,
				"element": "N" 
			},
			{
				"x": 1.8990204701,
				"y": 1.1383188711,
				"z": -2.4291182243,
				"element": "C" 
			},
			{
				"x": 0.7987194103,
				"y": 0.4689892265,
				"z": -3.2409030854,
				"element": "C" 
			},
			{
				"x": 0.6050018592,
				"y": -0.9663783107,
				"z": -2.7537345148,
				"element": "C" 
			},
			{
				"x": 0.2950336685,
				"y": -0.9681509458,
				"z": -1.2734229108,
				"element": "C" 
			},
			{
				"x": 0.7671279638,
				"y": 0.0752210527,
				"z": -0.4322107058,
				"element": "C" 
			},
			{
				"x": 0.3886053692,
				"y": 0.074433901,
				"z": 0.9269084329,
				"element": "C" 
			},
			{
				"x": -0.3858486757,
				"y": -0.9533587831,
				"z": 1.4493756633,
				"element": "C" 
			},
			{
				"x": -0.8334321098,
				"y": -2.0043045013,
				"z": 0.6371022963,
				"element": "C" 
			},
			{
				"x": -0.4901664153,
				"y": -1.9727642733,
				"z": -0.7223853671,
				"element": "C" 
			},
			{
				"x": -1.6413762828,
				"y": -3.147610771,
				"z": 1.128298185,
				"element": "C" 
			},
			{
				"x": -1.9700617746,
				"y": -4.0715849149,
				"z": 0.3982778848,
				"element": "O" 
			},
			{
				"x": -2.0508409857,
				"y": -3.2135562123,
				"z": 2.6038979847,
				"element": "C" 
			},
			{
				"x": -3.3121266883,
				"y": -1.9724727479,
				"z": 3.0140491537,
				"element": "Cl" 
			},
			{
				"x": 4.3938821947,
				"y": 1.3985557283,
				"z": 1.4144227091,
				"element": "H" 
			},
			{
				"x": 4.3179930939,
				"y": 0.3728770282,
				"z": -0.054261794,
				"element": "H" 
			},
			{
				"x": 3.1577113859,
				"y": 0.1057969116,
				"z": 1.2963500802,
				"element": "H" 
			},
			{
				"x": 2.020212636,
				"y": 2.1828361875,
				"z": -2.7129268444,
				"element": "H" 
			},
			{
				"x": 2.8561309827,
				"y": 0.6327322626,
				"z": -2.6192147274,
				"element": "H" 
			},
			{
				"x": -0.1357657774,
				"y": 1.0323114023,
				"z": -3.1384825919,
				"element": "H" 
			},
			{
				"x": 1.0855003116,
				"y": 0.4959232034,
				"z": -4.2970647085,
				"element": "H" 
			},
			{
				"x": 1.5180745582,
				"y": -1.5447414356,
				"z": -2.955847564,
				"element": "H" 
			},
			{
				"x": -0.2035096923,
				"y": -1.4640815075,
				"z": -3.2982729902,
				"element": "H" 
			},
			{
				"x": 0.671248791,
				"y": 0.8989342338,
				"z": 1.5666399376,
				"element": "H" 
			},
			{
				"x": -0.6634891376,
				"y": -0.9040691593,
				"z": 2.4966872183,
				"element": "H" 
			},
			{
				"x": -0.8570399372,
				"y": -2.7742982386,
				"z": -1.3568105857,
				"element": "H" 
			},
			{
				"x": -2.491977713,
				"y": -4.1916084987,
				"z": 2.7857803284,
				"element": "H" 
			},
			{
				"x": -1.2081348972,
				"y": -3.0443668863,
				"z": 3.2768910276,
				"element": "H" 
			}
		],
		 "valence_orbital": [ 
			{
				"type": "occ",
				"energy": -0.309,
				"method": "rhf"
			},
			{
				"type": "occ",
				"energy": -0.30306,
				"method": "rhf"
			},
			{
				"type": "occ",
				"energy": -0.26337,
				"method": "rhf"
			},
			{
				"type": "occ",
				"energy": -0.25855,
				"method": "rhf"
			},
			{
				"type": "occ",
				"energy": -0.23175,
				"method": "rhf"
			},
			{
				"type": "unocc",
				"energy": -0.06975,
				"method": "rhf"
			},
			{
				"type": "unocc",
				"energy": -0.02032,
				"method": "rhf"
			},
			{
				"type": "unocc",
				"energy": 0.00081,
				"method": "rhf"
			},
			{
				"type": "unocc",
				"energy": 0.03723,
				"method": "rhf"
			},
			{
				"type": "unocc",
				"energy": 0.05148,
				"method": "rhf"
			}
		],
		"cosmo_sigma_profile": { 
			"-0.025": 0.0,
			"-0.024": 0.0,
			"-0.023": 0.0,
			"-0.022": 0.0,
			"-0.021": 0.0,
			"-0.02": 0.0,
			"-0.019": 0.0,
			"-0.018": 0.0,
			"-0.017": 0.0,
			"-0.016": 0.0,
			"-0.015": 0.0,
			"-0.014": 0.0,
			"-0.013": 0.0,
			"-0.012": 0.0,
			"-0.011": 0.0,
			"-0.01": 0.417558239285,
			"-0.009": 5.97353220304,
			"-0.008": 10.4595529568,
			"-0.007": 10.0516387648,
			"-0.006": 13.6476331582,
			"-0.005": 28.5259990408,
			"-0.004": 28.2237021599,
			"-0.003": 22.384005592,
			"-0.002": 19.1104656837,
			"-0.001": 16.6591342043,
			"0.0": 12.8772903925,
			"0.001": 15.1329724403,
			"0.002": 15.9987129802,
			"0.003": 20.3959064308,
			"0.004": 15.6921165516,
			"0.005": 11.5801819955,
			"0.006": 7.72243962502,
			"0.007": 4.58270342208,
			"0.008": 5.31962460491,
			"0.009": 5.64034858951,
			"0.01": 11.3344254401,
			"0.011": 10.7530365978,
			"0.012": 2.91653419504,
			"0.013": 0.181060092774,
			"0.014": 0.0,
			"0.015": 0.0,
			"0.016": 0.0,
			"0.017": 0.0,
			"0.018": 0.0,
			"0.019": 0.0,
			"0.02": 0.0,
			"0.021": 0.0,
			"0.022": 0.0,
			"0.023": 0.0,
			"0.024": 0.0,
			"0.025": 0.0
		}
	}
}
