{
	 "smiles": "NS(=O)(=O)C1=CC2=C(NC(=O)C(=O)N2)C=C1", 
	 "Tm": 646.15, 
	 "num_atms": 23, 
	 "gaussian": { 
		 "optdone": 1, 
		 "sigma_profile": "yes", 
		 "theory": "DFT", 
		 "functional": "B3LYP", 
		 "basiset": "6-31G**", 
		 "properties": { 
			 "R2extent": 5049.524, 
			 "electric_dipole_moment_norm": 4.95916673646, 
			 "electric_quadrupole_moment_norm": 36.8745397658, 
			 "total_energy": -1172.36670802, 
			 "HOMO_LUMO_gap": 0.17384, 
			 "cosmo_polarized_energy": -31.62, 
			 "cosmo_cavitation_energy": 29.98, 
			 "cosmo_dispersion_energy": -22.8, 
			 "cosmo_repulsion_energy": 1.71, 
			 "cosmo_total_nonelectrostatic_energy": 8.9, 
			 "SMD_solvation_energy": 6.11 
		},
		"coords": [
			{
				"x": -1.7432992458,
				"y": 0.2958767612,
				"z": 3.8118202483,
				"element": "N" 
			},
			{
				"x": -0.1785378693,
				"y": 0.0287179098,
				"z": 3.2196150342,
				"element": "S" 
			},
			{
				"x": 0.3757482941,
				"y": -1.0852852898,
				"z": 3.9928502259,
				"element": "O" 
			},
			{
				"x": 0.486769145,
				"y": 1.3316191728,
				"z": 3.1208846682,
				"element": "O" 
			},
			{
				"x": -0.4566809116,
				"y": -0.5544027147,
				"z": 1.5500410656,
				"element": "C" 
			},
			{
				"x": -0.3822224053,
				"y": 0.3574072651,
				"z": 0.5002331164,
				"element": "C" 
			},
			{
				"x": -0.5988111506,
				"y": -0.0868429836,
				"z": -0.8046870401,
				"element": "C" 
			},
			{
				"x": -0.8863777959,
				"y": -1.4453772262,
				"z": -1.0436310524,
				"element": "C" 
			},
			{
				"x": -1.0953181577,
				"y": -1.8488849571,
				"z": -2.3581139027,
				"element": "N" 
			},
			{
				"x": -1.0507367361,
				"y": -1.0423780339,
				"z": -3.4836233272,
				"element": "C" 
			},
			{
				"x": -1.2479107963,
				"y": -1.4729170286,
				"z": -4.6004340239,
				"element": "O" 
			},
			{
				"x": -0.7332359856,
				"y": 0.4359233658,
				"z": -3.223885311,
				"element": "C" 
			},
			{
				"x": -0.6630973446,
				"y": 1.2455236939,
				"z": -4.1250276001,
				"element": "O" 
			},
			{
				"x": -0.5341932239,
				"y": 0.7755550655,
				"z": -1.8979545571,
				"element": "N" 
			},
			{
				"x": -0.9452059044,
				"y": -2.3460575386,
				"z": 0.0261579305,
				"element": "C" 
			},
			{
				"x": -0.7287559515,
				"y": -1.9064997949,
				"z": 1.3269905658,
				"element": "C" 
			},
			{
				"x": -1.8785203403,
				"y": 1.2887252245,
				"z": 3.9841305497,
				"element": "H" 
			},
			{
				"x": -1.8733995111,
				"y": -0.2483821417,
				"z": 4.6607760906,
				"element": "H" 
			},
			{
				"x": -0.1394962484,
				"y": 1.3958694231,
				"z": 0.6999366053,
				"element": "H" 
			},
			{
				"x": -1.3020416908,
				"y": -2.8226569939,
				"z": -2.5490189223,
				"element": "H" 
			},
			{
				"x": -0.3211069799,
				"y": 1.7540627966,
				"z": -1.7416271697,
				"element": "H" 
			},
			{
				"x": -1.1541110463,
				"y": -3.3935766397,
				"z": -0.1703086403,
				"element": "H" 
			},
			{
				"x": -0.7516581438,
				"y": -2.6019193357,
				"z": 2.1576754463,
				"element": "H" 
			}
		],
		 "valence_orbital": [ 
			{
				"type": "occ",
				"energy": -0.3041,
				"method": "rhf"
			},
			{
				"type": "occ",
				"energy": -0.30252,
				"method": "rhf"
			},
			{
				"type": "occ",
				"energy": -0.2729,
				"method": "rhf"
			},
			{
				"type": "occ",
				"energy": -0.27203,
				"method": "rhf"
			},
			{
				"type": "occ",
				"energy": -0.24139,
				"method": "rhf"
			},
			{
				"type": "unocc",
				"energy": -0.06755,
				"method": "rhf"
			},
			{
				"type": "unocc",
				"energy": -0.04642,
				"method": "rhf"
			},
			{
				"type": "unocc",
				"energy": -0.03012,
				"method": "rhf"
			},
			{
				"type": "unocc",
				"energy": 0.03919,
				"method": "rhf"
			},
			{
				"type": "unocc",
				"energy": 0.05851,
				"method": "rhf"
			}
		],
		"cosmo_sigma_profile": { 
			"-0.025": 0.0,
			"-0.024": 0.0,
			"-0.023": 0.0,
			"-0.022": 0.0,
			"-0.021": 0.0,
			"-0.02": 0.0,
			"-0.019": 0.0,
			"-0.018": 0.0,
			"-0.017": 1.41601716187,
			"-0.016": 3.14041557151,
			"-0.015": 3.39138457375,
			"-0.014": 5.55201047962,
			"-0.013": 4.8518568308,
			"-0.012": 4.54607753001,
			"-0.011": 4.96810124817,
			"-0.01": 4.22960546114,
			"-0.009": 5.20477272409,
			"-0.008": 7.72484381471,
			"-0.007": 9.27298402311,
			"-0.006": 8.35964507192,
			"-0.005": 10.2566270717,
			"-0.004": 10.6255033379,
			"-0.003": 10.3856542859,
			"-0.002": 13.9057753499,
			"-0.001": 11.2000371985,
			"0.0": 13.5305783644,
			"0.001": 11.6181749165,
			"0.002": 10.4072965706,
			"0.003": 5.33973048711,
			"0.004": 4.25782182234,
			"0.005": 5.44534866276,
			"0.006": 5.25927735479,
			"0.007": 5.49770478001,
			"0.008": 6.30287009167,
			"0.009": 7.08992010673,
			"0.01": 12.4690173791,
			"0.011": 16.3615939279,
			"0.012": 12.0683767043,
			"0.013": 2.84211058314,
			"0.014": 1.92181099586,
			"0.015": 0.729099035292,
			"0.016": 0.0,
			"0.017": 0.0,
			"0.018": 0.0,
			"0.019": 0.0,
			"0.02": 0.0,
			"0.021": 0.0,
			"0.022": 0.0,
			"0.023": 0.0,
			"0.024": 0.0,
			"0.025": 0.0
		}
	}
}
