{
	 "smiles": "CC(=O)C1=CC(=C(Br)S1)[N+]([O-])=O", 
	 "Tm": 379.15, 
	 "num_atms": 16, 
	 "gaussian": { 
		 "optdone": 1, 
		 "sigma_profile": "yes", 
		 "theory": "DFT", 
		 "functional": "B3LYP", 
		 "basiset": "6-31G**", 
		 "properties": { 
			 "R2extent": 4577.9015, 
			 "electric_dipole_moment_norm": 4.92411672181, 
			 "electric_quadrupole_moment_norm": 7.668882015, 
			 "total_energy": -3480.93082635, 
			 "HOMO_LUMO_gap": 0.16556, 
			 "cosmo_polarized_energy": -11.45, 
			 "cosmo_cavitation_energy": 25.78, 
			 "cosmo_dispersion_energy": -19.57, 
			 "cosmo_repulsion_energy": 1.52, 
			 "cosmo_total_nonelectrostatic_energy": 7.73, 
			 "SMD_solvation_energy": 6.17 
		},
		"coords": [
			{
				"x": -2.098659063,
				"y": 0.4299929952,
				"z": 2.9628735941,
				"element": "C" 
			},
			{
				"x": -1.0127239533,
				"y": -0.3149266153,
				"z": 2.2132564791,
				"element": "C" 
			},
			{
				"x": -0.7766284881,
				"y": -1.4952702007,
				"z": 2.4072041556,
				"element": "O" 
			},
			{
				"x": -0.2100765706,
				"y": 0.4298039595,
				"z": 1.2050967319,
				"element": "C" 
			},
			{
				"x": 0.80119279,
				"y": -0.1052446172,
				"z": 0.4514492042,
				"element": "C" 
			},
			{
				"x": 1.3919755832,
				"y": 0.8384653954,
				"z": -0.4293717473,
				"element": "C" 
			},
			{
				"x": 0.8279455966,
				"y": 2.0997510147,
				"z": -0.3468839948,
				"element": "C" 
			},
			{
				"x": 1.2231815142,
				"y": 3.6763696478,
				"z": -1.2686792643,
				"element": "Br" 
			},
			{
				"x": -0.4422364119,
				"y": 2.1273393023,
				"z": 0.8259031607,
				"element": "S" 
			},
			{
				"x": 2.4846160295,
				"y": 0.4519284502,
				"z": -1.3108619503,
				"element": "N" 
			},
			{
				"x": 2.852523191,
				"y": -0.7210308891,
				"z": -1.2425102586,
				"element": "O" 
			},
			{
				"x": 2.9636488032,
				"y": 1.3039908959,
				"z": -2.0552805023,
				"element": "O" 
			},
			{
				"x": -1.678049122,
				"y": 1.2748951065,
				"z": 3.5205409841,
				"element": "H" 
			},
			{
				"x": -2.8447614773,
				"y": 0.8335214241,
				"z": 2.2683946142,
				"element": "H" 
			},
			{
				"x": -2.5850253692,
				"y": -0.2551904495,
				"z": 3.6574428585,
				"element": "H" 
			},
			{
				"x": 1.1137769475,
				"y": -1.1378954198,
				"z": 0.5226259352,
				"element": "H" 
			}
		],
		 "valence_orbital": [ 
			{
				"type": "occ",
				"energy": -0.31154,
				"method": "rhf"
			},
			{
				"type": "occ",
				"energy": -0.30313,
				"method": "rhf"
			},
			{
				"type": "occ",
				"energy": -0.29408,
				"method": "rhf"
			},
			{
				"type": "occ",
				"energy": -0.27539,
				"method": "rhf"
			},
			{
				"type": "occ",
				"energy": -0.26842,
				"method": "rhf"
			},
			{
				"type": "unocc",
				"energy": -0.10286,
				"method": "rhf"
			},
			{
				"type": "unocc",
				"energy": -0.08412,
				"method": "rhf"
			},
			{
				"type": "unocc",
				"energy": -0.03161,
				"method": "rhf"
			},
			{
				"type": "unocc",
				"energy": -0.018,
				"method": "rhf"
			},
			{
				"type": "unocc",
				"energy": 0.01019,
				"method": "rhf"
			}
		],
		"cosmo_sigma_profile": { 
			"-0.025": 0.0,
			"-0.024": 0.0,
			"-0.023": 0.0,
			"-0.022": 0.0,
			"-0.021": 0.0,
			"-0.02": 0.0,
			"-0.019": 0.0,
			"-0.018": 0.0,
			"-0.017": 0.0,
			"-0.016": 0.0,
			"-0.015": 0.0,
			"-0.014": 0.0,
			"-0.013": 0.0,
			"-0.012": 0.0,
			"-0.011": 0.0,
			"-0.01": 0.0,
			"-0.009": 0.12279759626,
			"-0.008": 3.91425873539,
			"-0.007": 9.88623516427,
			"-0.006": 11.2423421738,
			"-0.005": 11.6548264168,
			"-0.004": 14.3572944615,
			"-0.003": 26.3446951133,
			"-0.002": 23.3636233055,
			"-0.001": 19.7837266635,
			"0.0": 14.5167576775,
			"0.001": 12.0305263196,
			"0.002": 9.16041893632,
			"0.003": 4.92297886705,
			"0.004": 5.26956102978,
			"0.005": 4.90594325026,
			"0.006": 5.95022297567,
			"0.007": 11.7406951275,
			"0.008": 7.60360915185,
			"0.009": 5.59663312331,
			"0.01": 4.24834417717,
			"0.011": 4.13500313735,
			"0.012": 1.66995073469,
			"0.013": 0.132265492693,
			"0.014": 0.0,
			"0.015": 0.0,
			"0.016": 0.0,
			"0.017": 0.0,
			"0.018": 0.0,
			"0.019": 0.0,
			"0.02": 0.0,
			"0.021": 0.0,
			"0.022": 0.0,
			"0.023": 0.0,
			"0.024": 0.0,
			"0.025": 0.0
		}
	}
}
