{
	 "smiles": "NC(=O)C1CCCN(C1)C(=O)CCl", 
	 "Tm": 398.15, 
	 "num_atms": 26, 
	 "gaussian": { 
		 "optdone": 1, 
		 "sigma_profile": "yes", 
		 "theory": "DFT", 
		 "functional": "B3LYP", 
		 "basiset": "6-31G**", 
		 "properties": { 
			 "R2extent": 4556.7271, 
			 "electric_dipole_moment_norm": 6.68960592711, 
			 "electric_quadrupole_moment_norm": 16.2307526776, 
			 "total_energy": -1032.85141327, 
			 "HOMO_LUMO_gap": 0.25765, 
			 "cosmo_polarized_energy": -23.77, 
			 "cosmo_cavitation_energy": 29.8, 
			 "cosmo_dispersion_energy": -21.6, 
			 "cosmo_repulsion_energy": 1.74, 
			 "cosmo_total_nonelectrostatic_energy": 9.93, 
			 "SMD_solvation_energy": 5.13 
		},
		"coords": [
			{
				"x": 2.7462359524,
				"y": 1.9111487982,
				"z": -0.4308793236,
				"element": "N" 
			},
			{
				"x": 1.4778023637,
				"y": 2.3777572716,
				"z": -0.6202220884,
				"element": "C" 
			},
			{
				"x": 1.1339215531,
				"y": 3.4930444135,
				"z": -0.249432321,
				"element": "O" 
			},
			{
				"x": 0.4477894214,
				"y": 1.4368177513,
				"z": -1.2579006555,
				"element": "C" 
			},
			{
				"x": 0.9348724634,
				"y": 0.1028235839,
				"z": -1.8783443763,
				"element": "C" 
			},
			{
				"x": 0.7463381947,
				"y": -1.070714736,
				"z": -0.906261073,
				"element": "C" 
			},
			{
				"x": -0.7506433601,
				"y": -1.2852380971,
				"z": -0.6232954276,
				"element": "C" 
			},
			{
				"x": -1.4490879071,
				"y": 0.0075717782,
				"z": -0.521162579,
				"element": "N" 
			},
			{
				"x": -0.6237030826,
				"y": 1.1536169193,
				"z": -0.163697468,
				"element": "C" 
			},
			{
				"x": -2.8001316526,
				"y": 0.0164998027,
				"z": -0.7645699561,
				"element": "C" 
			},
			{
				"x": -3.4135812371,
				"y": -1.003151479,
				"z": -1.0373496553,
				"element": "O" 
			},
			{
				"x": -3.4842958097,
				"y": 1.3939849752,
				"z": -0.6680850438,
				"element": "C" 
			},
			{
				"x": -5.2187326369,
				"y": 1.3167418979,
				"z": -1.1051686005,
				"element": "Cl" 
			},
			{
				"x": 3.0585979224,
				"y": 1.0087520699,
				"z": -0.7454971229,
				"element": "H" 
			},
			{
				"x": 3.4109678066,
				"y": 2.5347245866,
				"z": 0.0020077362,
				"element": "H" 
			},
			{
				"x": -0.024531757,
				"y": 2.040643977,
				"z": -2.0399350984,
				"element": "H" 
			},
			{
				"x": 1.9713183725,
				"y": 0.1777682324,
				"z": -2.2259589705,
				"element": "H" 
			},
			{
				"x": 0.3440274498,
				"y": -0.0966906012,
				"z": -2.7793193326,
				"element": "H" 
			},
			{
				"x": 1.2932422815,
				"y": -0.8792520781,
				"z": 0.0256700441,
				"element": "H" 
			},
			{
				"x": 1.159733818,
				"y": -1.9947460232,
				"z": -1.3229896424,
				"element": "H" 
			},
			{
				"x": -1.222414541,
				"y": -1.8431425397,
				"z": -1.4357712354,
				"element": "H" 
			},
			{
				"x": -0.899457989,
				"y": -1.8722649228,
				"z": 0.2929298829,
				"element": "H" 
			},
			{
				"x": -1.2247266124,
				"y": 2.0455667248,
				"z": -0.0054706136,
				"element": "H" 
			},
			{
				"x": -0.1261408477,
				"y": 0.946802601,
				"z": 0.7933397186,
				"element": "H" 
			},
			{
				"x": -3.4259300357,
				"y": 1.782320356,
				"z": 0.3512227937,
				"element": "H" 
			},
			{
				"x": -3.0146701306,
				"y": 2.1162147373,
				"z": -1.3388595915,
				"element": "H" 
			}
		],
		 "valence_orbital": [ 
			{
				"type": "occ",
				"energy": -0.2922,
				"method": "rhf"
			},
			{
				"type": "occ",
				"energy": -0.27943,
				"method": "rhf"
			},
			{
				"type": "occ",
				"energy": -0.25971,
				"method": "rhf"
			},
			{
				"type": "occ",
				"energy": -0.25684,
				"method": "rhf"
			},
			{
				"type": "occ",
				"energy": -0.24363,
				"method": "rhf"
			},
			{
				"type": "unocc",
				"energy": 0.01402,
				"method": "rhf"
			},
			{
				"type": "unocc",
				"energy": 0.01741,
				"method": "rhf"
			},
			{
				"type": "unocc",
				"energy": 0.02858,
				"method": "rhf"
			},
			{
				"type": "unocc",
				"energy": 0.04983,
				"method": "rhf"
			},
			{
				"type": "unocc",
				"energy": 0.07809,
				"method": "rhf"
			}
		],
		"cosmo_sigma_profile": { 
			"-0.025": 0.0,
			"-0.024": 0.0,
			"-0.023": 0.0,
			"-0.022": 0.0,
			"-0.021": 0.0,
			"-0.02": 0.0,
			"-0.019": 0.0,
			"-0.018": 0.0,
			"-0.017": 0.0,
			"-0.016": 0.0,
			"-0.015": 0.0534729988497,
			"-0.014": 1.29359593678,
			"-0.013": 2.08340454635,
			"-0.012": 2.04175417417,
			"-0.011": 2.30073934776,
			"-0.01": 2.85188413958,
			"-0.009": 8.83563945733,
			"-0.008": 8.36657278558,
			"-0.007": 6.81410555141,
			"-0.006": 8.32978281613,
			"-0.005": 12.4198122441,
			"-0.004": 23.100847851,
			"-0.003": 24.7959781357,
			"-0.002": 18.50276172,
			"-0.001": 15.3393123772,
			"0.0": 9.42882965294,
			"0.001": 7.14931218634,
			"0.002": 6.80009558419,
			"0.003": 7.88544459972,
			"0.004": 7.16790050929,
			"0.005": 8.25357883925,
			"0.006": 10.9853402489,
			"0.007": 3.71469688026,
			"0.008": 2.74744078634,
			"0.009": 3.58565765191,
			"0.01": 2.94371653524,
			"0.011": 3.36260685896,
			"0.012": 3.97840011049,
			"0.013": 7.28381161773,
			"0.014": 9.01764130704,
			"0.015": 3.51972535085,
			"0.016": 0.000214856562257,
			"0.017": 0.0,
			"0.018": 0.0,
			"0.019": 0.0,
			"0.02": 0.0,
			"0.021": 0.0,
			"0.022": 0.0,
			"0.023": 0.0,
			"0.024": 0.0,
			"0.025": 0.0
		}
	}
}
