{
	 "smiles": "CN(CCS(F)(=O)=O)S(=O)(=O)C1=CC=C(F)C=C1", 
	 "Tm": 403.15, 
	 "num_atms": 29, 
	 "gaussian": { 
		 "optdone": 1, 
		 "sigma_profile": "yes", 
		 "theory": "DFT", 
		 "functional": "B3LYP", 
		 "basiset": "6-31G**", 
		 "properties": { 
			 "R2extent": 6835.6358, 
			 "electric_dipole_moment_norm": 5.14671359704, 
			 "electric_quadrupole_moment_norm": 23.0264076925, 
			 "total_energy": -1701.14591238, 
			 "HOMO_LUMO_gap": 0.21907, 
			 "cosmo_polarized_energy": -18.63, 
			 "cosmo_cavitation_energy": 36.44, 
			 "cosmo_dispersion_energy": -26.07, 
			 "cosmo_repulsion_energy": 1.89, 
			 "cosmo_total_nonelectrostatic_energy": 12.25, 
			 "SMD_solvation_energy": 4.7 
		},
		"coords": [
			{
				"x": -0.1557078483,
				"y": 1.5702658111,
				"z": -1.9394423707,
				"element": "C" 
			},
			{
				"x": 0.2284866434,
				"y": 1.0087750776,
				"z": -0.6384471208,
				"element": "N" 
			},
			{
				"x": 1.4810920868,
				"y": 0.241760975,
				"z": -0.5915029166,
				"element": "C" 
			},
			{
				"x": 2.3864640737,
				"y": 0.7537105504,
				"z": 0.5362487958,
				"element": "C" 
			},
			{
				"x": 3.9993827057,
				"y": -0.0418112864,
				"z": 0.520157693,
				"element": "S" 
			},
			{
				"x": 3.4957986383,
				"y": -1.5586214632,
				"z": 0.8332982735,
				"element": "F" 
			},
			{
				"x": 4.7883886998,
				"y": 0.3761567651,
				"z": 1.6617111112,
				"element": "O" 
			},
			{
				"x": 4.5373108411,
				"y": -0.0702811916,
				"z": -0.8293320518,
				"element": "O" 
			},
			{
				"x": -1.0242284654,
				"y": 0.4638163898,
				"z": 0.3621064713,
				"element": "S" 
			},
			{
				"x": -2.0876785465,
				"y": 1.4625725157,
				"z": 0.2646209368,
				"element": "O" 
			},
			{
				"x": -0.3824650607,
				"y": 0.1163860167,
				"z": 1.6334619128,
				"element": "O" 
			},
			{
				"x": -1.6391786871,
				"y": -1.0612083702,
				"z": -0.3547367673,
				"element": "C" 
			},
			{
				"x": -1.1142011847,
				"y": -2.2856748304,
				"z": 0.0737337969,
				"element": "C" 
			},
			{
				"x": -1.5679010549,
				"y": -3.4680884792,
				"z": -0.5072118154,
				"element": "C" 
			},
			{
				"x": -2.5393091272,
				"y": -3.3949284184,
				"z": -1.5015246346,
				"element": "C" 
			},
			{
				"x": -2.9790324105,
				"y": -4.53326289,
				"z": -2.0622314905,
				"element": "F" 
			},
			{
				"x": -3.081608476,
				"y": -2.1849919858,
				"z": -1.9279943514,
				"element": "C" 
			},
			{
				"x": -2.6259928752,
				"y": -1.0049011209,
				"z": -1.3456632981,
				"element": "C" 
			},
			{
				"x": -0.3704571938,
				"y": 0.7975885234,
				"z": -2.6916032726,
				"element": "H" 
			},
			{
				"x": 0.6664364937,
				"y": 2.1934359837,
				"z": -2.3006744828,
				"element": "H" 
			},
			{
				"x": -1.0316887468,
				"y": 2.204193324,
				"z": -1.8050911824,
				"element": "H" 
			},
			{
				"x": 1.9882208152,
				"y": 0.3711974565,
				"z": -1.5500438217,
				"element": "H" 
			},
			{
				"x": 1.3042916961,
				"y": -0.8328620984,
				"z": -0.4688742249,
				"element": "H" 
			},
			{
				"x": 2.5937540366,
				"y": 1.8215757999,
				"z": 0.4247742651,
				"element": "H" 
			},
			{
				"x": 1.947345009,
				"y": 0.5760336857,
				"z": 1.5188358401,
				"element": "H" 
			},
			{
				"x": -0.3830440142,
				"y": -2.3086200816,
				"z": 0.873956716,
				"element": "H" 
			},
			{
				"x": -1.1903687108,
				"y": -4.435641691,
				"z": -0.1959187862,
				"element": "H" 
			},
			{
				"x": -3.8511359994,
				"y": -2.1824818089,
				"z": -2.6918591474,
				"element": "H" 
			},
			{
				"x": -3.0507733377,
				"y": -0.0495931587,
				"z": -1.6329540771,
				"element": "H" 
			}
		],
		 "valence_orbital": [ 
			{
				"type": "occ",
				"energy": -0.32282,
				"method": "rhf"
			},
			{
				"type": "occ",
				"energy": -0.32076,
				"method": "rhf"
			},
			{
				"type": "occ",
				"energy": -0.29439,
				"method": "rhf"
			},
			{
				"type": "occ",
				"energy": -0.29189,
				"method": "rhf"
			},
			{
				"type": "occ",
				"energy": -0.27043,
				"method": "rhf"
			},
			{
				"type": "unocc",
				"energy": -0.05136,
				"method": "rhf"
			},
			{
				"type": "unocc",
				"energy": -0.04543,
				"method": "rhf"
			},
			{
				"type": "unocc",
				"energy": 0.00657,
				"method": "rhf"
			},
			{
				"type": "unocc",
				"energy": 0.03358,
				"method": "rhf"
			},
			{
				"type": "unocc",
				"energy": 0.04355,
				"method": "rhf"
			}
		],
		"cosmo_sigma_profile": { 
			"-0.025": 0.0,
			"-0.024": 0.0,
			"-0.023": 0.0,
			"-0.022": 0.0,
			"-0.021": 0.0,
			"-0.02": 0.0,
			"-0.019": 0.0,
			"-0.018": 0.0,
			"-0.017": 0.0,
			"-0.016": 0.0,
			"-0.015": 0.0,
			"-0.014": 0.0,
			"-0.013": 0.0800189674233,
			"-0.012": 0.817666772009,
			"-0.011": 1.62348730756,
			"-0.01": 1.7800963066,
			"-0.009": 4.3267011783,
			"-0.008": 10.4974421716,
			"-0.007": 13.3609441122,
			"-0.006": 18.1803572735,
			"-0.005": 20.2966380187,
			"-0.004": 20.2724863581,
			"-0.003": 18.0659592865,
			"-0.002": 13.3368107864,
			"-0.001": 17.2279055887,
			"0.0": 19.7768351422,
			"0.001": 21.7122966745,
			"0.002": 18.9931568101,
			"0.003": 17.8918572897,
			"0.004": 13.2637242902,
			"0.005": 5.96666997007,
			"0.006": 6.84655021035,
			"0.007": 6.34589218687,
			"0.008": 14.385898331,
			"0.009": 12.6039014588,
			"0.01": 6.90167406257,
			"0.011": 5.99096162306,
			"0.012": 0.577810623103,
			"0.013": 0.0,
			"0.014": 0.0,
			"0.015": 0.0,
			"0.016": 0.0,
			"0.017": 0.0,
			"0.018": 0.0,
			"0.019": 0.0,
			"0.02": 0.0,
			"0.021": 0.0,
			"0.022": 0.0,
			"0.023": 0.0,
			"0.024": 0.0,
			"0.025": 0.0
		}
	}
}
