{
	 "smiles": "CC1=NN(C(=C1C(O)=O)C(F)(F)F)C1=C(Cl)C=C(C=N1)C(F)(F)F", 
	 "Tm": 441.15, 
	 "num_atms": 30, 
	 "gaussian": { 
		 "optdone": 1, 
		 "sigma_profile": "yes", 
		 "theory": "DFT", 
		 "functional": "B3LYP", 
		 "basiset": "6-31G**", 
		 "properties": { 
			 "R2extent": 9475.939, 
			 "electric_dipole_moment_norm": 0.896679530267, 
			 "electric_quadrupole_moment_norm": 8.19957126318, 
			 "total_energy": -1834.82172462, 
			 "HOMO_LUMO_gap": 0.19204, 
			 "cosmo_polarized_energy": -12.73, 
			 "cosmo_cavitation_energy": 40.78, 
			 "cosmo_dispersion_energy": -27.3, 
			 "cosmo_repulsion_energy": 1.97, 
			 "cosmo_total_nonelectrostatic_energy": 15.46, 
			 "SMD_solvation_energy": 8.38 
		},
		"coords": [
			{
				"x": 3.0034063016,
				"y": 3.2258030296,
				"z": -0.6852349382,
				"element": "C" 
			},
			{
				"x": 1.8088189748,
				"y": 2.4180250226,
				"z": -0.2910230993,
				"element": "C" 
			},
			{
				"x": 1.5750259969,
				"y": 1.2426505368,
				"z": -0.8552830194,
				"element": "N" 
			},
			{
				"x": 0.4238815288,
				"y": 0.7816192496,
				"z": -0.2876310258,
				"element": "N" 
			},
			{
				"x": -0.0709091187,
				"y": 1.643541091,
				"z": 0.6475973857,
				"element": "C" 
			},
			{
				"x": 0.8031366579,
				"y": 2.7245661015,
				"z": 0.677433332,
				"element": "C" 
			},
			{
				"x": 0.7990521631,
				"y": 3.9392237674,
				"z": 1.5064633871,
				"element": "C" 
			},
			{
				"x": -0.0631026439,
				"y": 3.8790944454,
				"z": 2.5454701086,
				"element": "O" 
			},
			{
				"x": 1.5214843352,
				"y": 4.898229597,
				"z": 1.3103439117,
				"element": "O" 
			},
			{
				"x": -1.3828992412,
				"y": 1.4290757801,
				"z": 1.3591979886,
				"element": "C" 
			},
			{
				"x": -1.2084818926,
				"y": 1.0633749159,
				"z": 2.6381047087,
				"element": "F" 
			},
			{
				"x": -2.1165638778,
				"y": 0.4694514896,
				"z": 0.7506518775,
				"element": "F" 
			},
			{
				"x": -2.1222652098,
				"y": 2.5516054623,
				"z": 1.3414708074,
				"element": "F" 
			},
			{
				"x": 0.0414196407,
				"y": -0.5612125588,
				"z": -0.5731036716,
				"element": "C" 
			},
			{
				"x": -0.2505040764,
				"y": -0.9666635675,
				"z": -1.8853303137,
				"element": "C" 
			},
			{
				"x": -0.3061625668,
				"y": 0.1491757097,
				"z": -3.2165345621,
				"element": "Cl" 
			},
			{
				"x": -0.5481756676,
				"y": -2.3095241822,
				"z": -2.1039233761,
				"element": "C" 
			},
			{
				"x": -0.5666474408,
				"y": -3.1797636457,
				"z": -1.0160899726,
				"element": "C" 
			},
			{
				"x": -0.2969022099,
				"y": -2.6702177839,
				"z": 0.255908279,
				"element": "C" 
			},
			{
				"x": 0.0121578605,
				"y": -1.3906651189,
				"z": 0.4644707067,
				"element": "N" 
			},
			{
				"x": -0.8350399301,
				"y": -4.6487053435,
				"z": -1.2167518759,
				"element": "C" 
			},
			{
				"x": -1.6492142922,
				"y": -4.8611240853,
				"z": -2.2715120136,
				"element": "F" 
			},
			{
				"x": -1.412024963,
				"y": -5.196216956,
				"z": -0.1284110745,
				"element": "F" 
			},
			{
				"x": 0.3079950823,
				"y": -5.3273221865,
				"z": -1.450278857,
				"element": "F" 
			},
			{
				"x": 2.7001068645,
				"y": 4.1914153603,
				"z": -1.0985243416,
				"element": "H" 
			},
			{
				"x": 3.6333257006,
				"y": 3.4424226321,
				"z": 0.1820586918,
				"element": "H" 
			},
			{
				"x": 3.5837625736,
				"y": 2.6759412153,
				"z": -1.4285719552,
				"element": "H" 
			},
			{
				"x": 0.018806908,
				"y": 4.7267236585,
				"z": 3.0133793194,
				"element": "H" 
			},
			{
				"x": -0.782854242,
				"y": -2.6591800832,
				"z": -3.1024446006,
				"element": "H" 
			},
			{
				"x": -0.3294332154,
				"y": -3.3122435533,
				"z": 1.1309981931,
				"element": "H" 
			}
		],
		 "valence_orbital": [ 
			{
				"type": "occ",
				"energy": -0.30351,
				"method": "rhf"
			},
			{
				"type": "occ",
				"energy": -0.29547,
				"method": "rhf"
			},
			{
				"type": "occ",
				"energy": -0.28632,
				"method": "rhf"
			},
			{
				"type": "occ",
				"energy": -0.27949,
				"method": "rhf"
			},
			{
				"type": "occ",
				"energy": -0.27028,
				"method": "rhf"
			},
			{
				"type": "unocc",
				"energy": -0.07824,
				"method": "rhf"
			},
			{
				"type": "unocc",
				"energy": -0.06406,
				"method": "rhf"
			},
			{
				"type": "unocc",
				"energy": -0.04348,
				"method": "rhf"
			},
			{
				"type": "unocc",
				"energy": -8e-05,
				"method": "rhf"
			},
			{
				"type": "unocc",
				"energy": 0.00513,
				"method": "rhf"
			}
		],
		"cosmo_sigma_profile": { 
			"-0.025": 0.0,
			"-0.024": 0.0,
			"-0.023": 0.0,
			"-0.022": 0.0,
			"-0.021": 0.0,
			"-0.02": 0.0,
			"-0.019": 0.380757863373,
			"-0.018": 1.13371809304,
			"-0.017": 0.508656359839,
			"-0.016": 1.22932113154,
			"-0.015": 0.925187554203,
			"-0.014": 0.0,
			"-0.013": 0.24682440463,
			"-0.012": 1.23848578417,
			"-0.011": 0.948817653035,
			"-0.01": 2.06224472418,
			"-0.009": 2.97768197831,
			"-0.008": 4.48144121863,
			"-0.007": 5.44882619556,
			"-0.006": 5.74744087934,
			"-0.005": 11.2808261946,
			"-0.004": 18.6909307892,
			"-0.003": 27.8261321656,
			"-0.002": 29.0392303298,
			"-0.001": 29.0202868001,
			"0.0": 24.5959104422,
			"0.001": 30.3772027839,
			"0.002": 59.2579520528,
			"0.003": 25.5189055069,
			"0.004": 10.5749295187,
			"0.005": 6.13889324008,
			"0.006": 8.07494272648,
			"0.007": 4.27002937225,
			"0.008": 4.30192225809,
			"0.009": 3.27915944845,
			"0.01": 3.76954082506,
			"0.011": 4.78491321653,
			"0.012": 2.18613449626,
			"0.013": 0.142026581032,
			"0.014": 0.0,
			"0.015": 0.0,
			"0.016": 0.0,
			"0.017": 0.0,
			"0.018": 0.0,
			"0.019": 0.0,
			"0.02": 0.0,
			"0.021": 0.0,
			"0.022": 0.0,
			"0.023": 0.0,
			"0.024": 0.0,
			"0.025": 0.0
		}
	}
}
