{
	 "smiles": "CCOC(=O)C1=CSC(=N1)N1CCOCC1", 
	 "Tm": 362.35, 
	 "num_atms": 30, 
	 "gaussian": { 
		 "optdone": 1, 
		 "sigma_profile": "yes", 
		 "theory": "DFT", 
		 "functional": "B3LYP", 
		 "basiset": "6-31G**", 
		 "properties": { 
			 "R2extent": 6110.3827, 
			 "electric_dipole_moment_norm": 2.63918660765, 
			 "electric_quadrupole_moment_norm": 14.0340896142, 
			 "total_energy": -1122.84640946, 
			 "HOMO_LUMO_gap": 0.17298, 
			 "cosmo_polarized_energy": -13.91, 
			 "cosmo_cavitation_energy": 34.52, 
			 "cosmo_dispersion_energy": -25.9, 
			 "cosmo_repulsion_energy": 2.02, 
			 "cosmo_total_nonelectrostatic_energy": 10.63, 
			 "SMD_solvation_energy": 5.12 
		},
		"coords": [
			{
				"x": -3.8255360013,
				"y": 2.2265234889,
				"z": -3.6692458588,
				"element": "C" 
			},
			{
				"x": -3.7825564831,
				"y": 1.8386700472,
				"z": -2.1983500439,
				"element": "C" 
			},
			{
				"x": -2.52092062,
				"y": 1.2219320518,
				"z": -1.8533700409,
				"element": "O" 
			},
			{
				"x": -2.4258506308,
				"y": -0.1023634369,
				"z": -2.0817669781,
				"element": "C" 
			},
			{
				"x": -3.3215384177,
				"y": -0.7864180423,
				"z": -2.5438387419,
				"element": "O" 
			},
			{
				"x": -1.0980321793,
				"y": -0.6485351559,
				"z": -1.6993900341,
				"element": "C" 
			},
			{
				"x": -0.8192191723,
				"y": -1.9774301603,
				"z": -1.8509155555,
				"element": "C" 
			},
			{
				"x": 0.8006118961,
				"y": -2.308830428,
				"z": -1.3167070805,
				"element": "S" 
			},
			{
				"x": 0.9679434534,
				"y": -0.571336681,
				"z": -0.9285934669,
				"element": "C" 
			},
			{
				"x": -0.0943610754,
				"y": 0.1440797003,
				"z": -1.1836787309,
				"element": "N" 
			},
			{
				"x": 2.1272693353,
				"y": -0.0860671396,
				"z": -0.4085333282,
				"element": "N" 
			},
			{
				"x": 2.2317651882,
				"y": 1.3232633633,
				"z": -0.0299476173,
				"element": "C" 
			},
			{
				"x": 2.9097731534,
				"y": 1.4431007998,
				"z": 1.3336981484,
				"element": "C" 
			},
			{
				"x": 4.1396186044,
				"y": 0.7131081418,
				"z": 1.4301136667,
				"element": "O" 
			},
			{
				"x": 4.4527881043,
				"y": -0.0859753472,
				"z": 0.3035764116,
				"element": "C" 
			},
			{
				"x": 3.2723068578,
				"y": -0.9504296958,
				"z": -0.1373417781,
				"element": "C" 
			},
			{
				"x": -4.7560237589,
				"y": 2.7621907913,
				"z": -3.8857745624,
				"element": "H" 
			},
			{
				"x": -2.9851788264,
				"y": 2.8789235546,
				"z": -3.9240573329,
				"element": "H" 
			},
			{
				"x": -3.787341818,
				"y": 1.3358642727,
				"z": -4.3009755723,
				"element": "H" 
			},
			{
				"x": -4.5940004307,
				"y": 1.1502548463,
				"z": -1.9498614282,
				"element": "H" 
			},
			{
				"x": -3.8391613001,
				"y": 2.7174058766,
				"z": -1.551284735,
				"element": "H" 
			},
			{
				"x": -1.4684348352,
				"y": -2.7471267,
				"z": -2.2390810358,
				"element": "H" 
			},
			{
				"x": 1.2235645009,
				"y": 1.7386306899,
				"z": 0.0109383173,
				"element": "H" 
			},
			{
				"x": 2.7868268376,
				"y": 1.8858011332,
				"z": -0.7931791954,
				"element": "H" 
			},
			{
				"x": 3.1181418077,
				"y": 2.4995929099,
				"z": 1.5461005057,
				"element": "H" 
			},
			{
				"x": 2.2310362123,
				"y": 1.0689482044,
				"z": 2.1116237139,
				"element": "H" 
			},
			{
				"x": 5.2847773201,
				"y": -0.7288885254,
				"z": 0.6032606026,
				"element": "H" 
			},
			{
				"x": 4.797453192,
				"y": 0.5292108773,
				"z": -0.5423981601,
				"element": "H" 
			},
			{
				"x": 3.5493469399,
				"y": -1.5171478921,
				"z": -1.0384355541,
				"element": "H" 
			},
			{
				"x": 3.0305321458,
				"y": -1.6766515448,
				"z": 0.6531154651,
				"element": "H" 
			}
		],
		 "valence_orbital": [ 
			{
				"type": "occ",
				"energy": -0.27884,
				"method": "rhf"
			},
			{
				"type": "occ",
				"energy": -0.27552,
				"method": "rhf"
			},
			{
				"type": "occ",
				"energy": -0.26342,
				"method": "rhf"
			},
			{
				"type": "occ",
				"energy": -0.26164,
				"method": "rhf"
			},
			{
				"type": "occ",
				"energy": -0.20472,
				"method": "rhf"
			},
			{
				"type": "unocc",
				"energy": -0.03174,
				"method": "rhf"
			},
			{
				"type": "unocc",
				"energy": 0.01205,
				"method": "rhf"
			},
			{
				"type": "unocc",
				"energy": 0.02053,
				"method": "rhf"
			},
			{
				"type": "unocc",
				"energy": 0.07472,
				"method": "rhf"
			},
			{
				"type": "unocc",
				"energy": 0.07976,
				"method": "rhf"
			}
		],
		"cosmo_sigma_profile": { 
			"-0.025": 0.0,
			"-0.024": 0.0,
			"-0.023": 0.0,
			"-0.022": 0.0,
			"-0.021": 0.0,
			"-0.02": 0.0,
			"-0.019": 0.0,
			"-0.018": 0.0,
			"-0.017": 0.0,
			"-0.016": 0.0,
			"-0.015": 0.0,
			"-0.014": 0.0,
			"-0.013": 0.0,
			"-0.012": 0.0,
			"-0.011": 0.0,
			"-0.01": 0.025425501925,
			"-0.009": 1.20108128419,
			"-0.008": 1.36016272126,
			"-0.007": 1.85962809935,
			"-0.006": 12.7464465404,
			"-0.005": 31.6883896765,
			"-0.004": 31.2291810945,
			"-0.003": 26.8911775232,
			"-0.002": 24.6124493835,
			"-0.001": 19.6007829866,
			"0.0": 21.4699176765,
			"0.001": 18.3676815585,
			"0.002": 15.8559612357,
			"0.003": 14.1280394704,
			"0.004": 8.08479409772,
			"0.005": 5.13043448246,
			"0.006": 4.24624134426,
			"0.007": 5.55760003707,
			"0.008": 4.83259249964,
			"0.009": 2.86716452726,
			"0.01": 4.71959331875,
			"0.011": 5.64722175259,
			"0.012": 6.43537682389,
			"0.013": 3.72818956409,
			"0.014": 0.990010016768,
			"0.015": 0.925133837041,
			"0.016": 0.175584888019,
			"0.017": 0.0,
			"0.018": 0.0,
			"0.019": 0.0,
			"0.02": 0.0,
			"0.021": 0.0,
			"0.022": 0.0,
			"0.023": 0.0,
			"0.024": 0.0,
			"0.025": 0.0
		}
	}
}
