{
	 "smiles": "OC(=O)C1=CC(Cl)=C(C=C1)S(Cl)(=O)=O", 
	 "Tm": 473.15, 
	 "num_atms": 18, 
	 "gaussian": { 
		 "optdone": 1, 
		 "sigma_profile": "yes", 
		 "theory": "DFT", 
		 "functional": "B3LYP", 
		 "basiset": "6-31G**", 
		 "properties": { 
			 "R2extent": 5260.2171, 
			 "electric_dipole_moment_norm": 2.46534363933, 
			 "electric_quadrupole_moment_norm": 25.8834049528, 
			 "total_energy": -1888.54529275, 
			 "HOMO_LUMO_gap": 0.18192, 
			 "cosmo_polarized_energy": -18.1, 
			 "cosmo_cavitation_energy": 28.44, 
			 "cosmo_dispersion_energy": -21.43, 
			 "cosmo_repulsion_energy": 1.63, 
			 "cosmo_total_nonelectrostatic_energy": 8.64, 
			 "SMD_solvation_energy": 4.62 
		},
		"coords": [
			{
				"x": -1.1100957991,
				"y": 2.5958012174,
				"z": -1.7380513422,
				"element": "O" 
			},
			{
				"x": -0.9037664015,
				"y": 1.267685781,
				"z": -1.9098509364,
				"element": "C" 
			},
			{
				"x": -0.8817646255,
				"y": 0.7857676095,
				"z": -3.0153866739,
				"element": "O" 
			},
			{
				"x": -0.7015685877,
				"y": 0.4406107577,
				"z": -0.6667502951,
				"element": "C" 
			},
			{
				"x": -0.2327277778,
				"y": 0.9895795914,
				"z": 0.5310722733,
				"element": "C" 
			},
			{
				"x": -0.0396332169,
				"y": 0.1847846051,
				"z": 1.6556851718,
				"element": "C" 
			},
			{
				"x": 0.5762188422,
				"y": 0.93696859,
				"z": 3.0979671156,
				"element": "Cl" 
			},
			{
				"x": -0.3269370178,
				"y": -1.1858735229,
				"z": 1.5676814895,
				"element": "C" 
			},
			{
				"x": -0.7773064835,
				"y": -1.7407833388,
				"z": 0.364315629,
				"element": "C" 
			},
			{
				"x": -0.9560355087,
				"y": -0.932509953,
				"z": -0.7514973858,
				"element": "C" 
			},
			{
				"x": -0.2003904825,
				"y": -2.3293990599,
				"z": 2.9581716604,
				"element": "S" 
			},
			{
				"x": 1.8983738366,
				"y": -2.4606483329,
				"z": 3.2008377797,
				"element": "Cl" 
			},
			{
				"x": -0.7415779609,
				"y": -1.7213602282,
				"z": 4.1631910621,
				"element": "O" 
			},
			{
				"x": -0.6397400213,
				"y": -3.6388682679,
				"z": 2.494983084,
				"element": "O" 
			},
			{
				"x": -1.2798154818,
				"y": 2.8044031442,
				"z": -0.8088095286,
				"element": "H" 
			},
			{
				"x": 0.0309232992,
				"y": 2.0395938234,
				"z": 0.6077965787,
				"element": "H" 
			},
			{
				"x": -0.9823236841,
				"y": -2.8039049286,
				"z": 0.3219734695,
				"element": "H" 
			},
			{
				"x": -1.2918329289,
				"y": -1.3474474877,
				"z": -1.6948291518,
				"element": "H" 
			}
		],
		 "valence_orbital": [ 
			{
				"type": "occ",
				"energy": -0.33866,
				"method": "rhf"
			},
			{
				"type": "occ",
				"energy": -0.32678,
				"method": "rhf"
			},
			{
				"type": "occ",
				"energy": -0.31677,
				"method": "rhf"
			},
			{
				"type": "occ",
				"energy": -0.30287,
				"method": "rhf"
			},
			{
				"type": "occ",
				"energy": -0.29286,
				"method": "rhf"
			},
			{
				"type": "unocc",
				"energy": -0.11094,
				"method": "rhf"
			},
			{
				"type": "unocc",
				"energy": -0.08303,
				"method": "rhf"
			},
			{
				"type": "unocc",
				"energy": -0.06549,
				"method": "rhf"
			},
			{
				"type": "unocc",
				"energy": -0.01229,
				"method": "rhf"
			},
			{
				"type": "unocc",
				"energy": -0.00025,
				"method": "rhf"
			}
		],
		"cosmo_sigma_profile": { 
			"-0.025": 0.0,
			"-0.024": 0.0,
			"-0.023": 0.0,
			"-0.022": 0.0,
			"-0.021": 0.0,
			"-0.02": 0.473904881813,
			"-0.019": 1.20013175381,
			"-0.018": 1.41648154631,
			"-0.017": 1.39329851475,
			"-0.016": 0.782120312765,
			"-0.015": 1.03741618037,
			"-0.014": 0.896511920178,
			"-0.013": 1.12723073751,
			"-0.012": 1.57661068062,
			"-0.011": 1.46885686747,
			"-0.01": 1.1634955051,
			"-0.009": 3.48843331145,
			"-0.008": 6.40838198092,
			"-0.007": 5.51612332668,
			"-0.006": 7.47494253482,
			"-0.005": 9.34589863021,
			"-0.004": 10.4875529703,
			"-0.003": 17.1439081984,
			"-0.002": 21.6971438986,
			"-0.001": 16.1917812819,
			"0.0": 12.7093484988,
			"0.001": 13.7845499338,
			"0.002": 21.1415709839,
			"0.003": 17.8862832844,
			"0.004": 6.0437215614,
			"0.005": 5.31546479592,
			"0.006": 6.01264718501,
			"0.007": 12.5437766062,
			"0.008": 11.8497273866,
			"0.009": 5.11966213239,
			"0.01": 5.2098885508,
			"0.011": 4.59673846169,
			"0.012": 1.50045521491,
			"0.013": 0.048254583259,
			"0.014": 0.0,
			"0.015": 0.0,
			"0.016": 0.0,
			"0.017": 0.0,
			"0.018": 0.0,
			"0.019": 0.0,
			"0.02": 0.0,
			"0.021": 0.0,
			"0.022": 0.0,
			"0.023": 0.0,
			"0.024": 0.0,
			"0.025": 0.0
		}
	}
}
