{
	 "smiles": "CC(C)(C)CCC(C)(C)C", 
	 "Tm": 260.35, 
	 "num_atms": 32, 
	 "gaussian": { 
		 "optdone": 1, 
		 "sigma_profile": "yes", 
		 "theory": "DFT", 
		 "functional": "B3LYP", 
		 "basiset": "6-31G**", 
		 "properties": { 
			 "R2extent": 2296.5411, 
			 "electric_dipole_moment_norm": 0.0, 
			 "electric_quadrupole_moment_norm": 0.352069481779, 
			 "total_energy": -394.359576412, 
			 "HOMO_LUMO_gap": 0.36474, 
			 "cosmo_polarized_energy": -0.94, 
			 "cosmo_cavitation_energy": 30.64, 
			 "cosmo_dispersion_energy": -20.88, 
			 "cosmo_repulsion_energy": 1.68, 
			 "cosmo_total_nonelectrostatic_energy": 11.43, 
			 "SMD_solvation_energy": 5.31 
		},
		"coords": [
			{
				"x": -0.491233728,
				"y": 3.4280797529,
				"z": -0.3917647106,
				"element": "C" 
			},
			{
				"x": -0.6595483167,
				"y": 1.944311604,
				"z": -0.7773904056,
				"element": "C" 
			},
			{
				"x": -2.1432223358,
				"y": 1.6850709743,
				"z": -1.105747178,
				"element": "C" 
			},
			{
				"x": 0.2011754398,
				"y": 1.6576638849,
				"z": -2.0236641483,
				"element": "C" 
			},
			{
				"x": -0.1959108466,
				"y": 1.0852619861,
				"z": 0.4325771562,
				"element": "C" 
			},
			{
				"x": -0.2773207724,
				"y": -0.4401353623,
				"z": 0.265034144,
				"element": "C" 
			},
			{
				"x": 0.1863771627,
				"y": -1.2991907799,
				"z": 1.4749757339,
				"element": "C" 
			},
			{
				"x": 1.6700488912,
				"y": -1.0398915646,
				"z": 1.803302988,
				"element": "C" 
			},
			{
				"x": 0.0181231729,
				"y": -2.7829572106,
				"z": 1.0893190814,
				"element": "C" 
			},
			{
				"x": -0.6743285779,
				"y": -1.012614563,
				"z": 2.7212775301,
				"element": "C" 
			},
			{
				"x": -0.8042920196,
				"y": 4.086122696,
				"z": -1.2104013581,
				"element": "H" 
			},
			{
				"x": -1.0943608515,
				"y": 3.6799123739,
				"z": 0.4882417082,
				"element": "H" 
			},
			{
				"x": 0.5540473525,
				"y": 3.660703807,
				"z": -0.1575524461,
				"element": "H" 
			},
			{
				"x": -2.484917474,
				"y": 2.3538712428,
				"z": -1.9039933661,
				"element": "H" 
			},
			{
				"x": -2.7789551654,
				"y": 1.8612317193,
				"z": -0.2300485762,
				"element": "H" 
			},
			{
				"x": -2.3153006651,
				"y": 0.6583218913,
				"z": -1.4438750807,
				"element": "H" 
			},
			{
				"x": 0.0769933968,
				"y": 0.6303626923,
				"z": -2.380562056,
				"element": "H" 
			},
			{
				"x": -0.0764090117,
				"y": 2.3257578901,
				"z": -2.8469748935,
				"element": "H" 
			},
			{
				"x": 1.2658749474,
				"y": 1.813836244,
				"z": -1.8137643952,
				"element": "H" 
			},
			{
				"x": 0.8388254535,
				"y": 1.3705635734,
				"z": 0.6632878922,
				"element": "H" 
			},
			{
				"x": -0.7950571125,
				"y": 1.3878004171,
				"z": 1.3013993789,
				"element": "H" 
			},
			{
				"x": 0.3217932449,
				"y": -0.7426647475,
				"z": -0.6038140247,
				"element": "H" 
			},
			{
				"x": -1.312063837,
				"y": -0.7254422602,
				"z": 0.0343612441,
				"element": "H" 
			},
			{
				"x": 2.0117902151,
				"y": -1.708687878,
				"z": 2.6015324097,
				"element": "H" 
			},
			{
				"x": 1.8420896872,
				"y": -0.0131391158,
				"z": 2.1414393758,
				"element": "H" 
			},
			{
				"x": 2.3057669397,
				"y": -1.2160141203,
				"z": 0.9275858543,
				"element": "H" 
			},
			{
				"x": -1.0271551545,
				"y": -3.0156291199,
				"z": 0.8551419165,
				"element": "H" 
			},
			{
				"x": 0.6212294168,
				"y": -3.0347365258,
				"z": 0.2092824572,
				"element": "H" 
			},
			{
				"x": 0.3312470559,
				"y": -3.4410055284,
				"z": 1.9079264033,
				"element": "H" 
			},
			{
				"x": -1.7390297232,
				"y": -1.168800199,
				"z": 2.5113937064,
				"element": "H" 
			},
			{
				"x": -0.5501624743,
				"y": 0.0146733785,
				"z": 3.0782184966,
				"element": "H" 
			},
			{
				"x": -0.3967143104,
				"y": -1.6807371527,
				"z": 3.5445551622,
				"element": "H" 
			}
		],
		 "valence_orbital": [ 
			{
				"type": "occ",
				"energy": -0.32134,
				"method": "rhf"
			},
			{
				"type": "occ",
				"energy": -0.3161,
				"method": "rhf"
			},
			{
				"type": "occ",
				"energy": -0.30631,
				"method": "rhf"
			},
			{
				"type": "occ",
				"energy": -0.29796,
				"method": "rhf"
			},
			{
				"type": "occ",
				"energy": -0.29166,
				"method": "rhf"
			},
			{
				"type": "unocc",
				"energy": 0.07308,
				"method": "rhf"
			},
			{
				"type": "unocc",
				"energy": 0.09018,
				"method": "rhf"
			},
			{
				"type": "unocc",
				"energy": 0.12222,
				"method": "rhf"
			},
			{
				"type": "unocc",
				"energy": 0.12269,
				"method": "rhf"
			},
			{
				"type": "unocc",
				"energy": 0.13326,
				"method": "rhf"
			}
		],
		"cosmo_sigma_profile": { 
			"-0.025": 0.0,
			"-0.024": 0.0,
			"-0.023": 0.0,
			"-0.022": 0.0,
			"-0.021": 0.0,
			"-0.02": 0.0,
			"-0.019": 0.0,
			"-0.018": 0.0,
			"-0.017": 0.0,
			"-0.016": 0.0,
			"-0.015": 0.0,
			"-0.014": 0.0,
			"-0.013": 0.0,
			"-0.012": 0.0,
			"-0.011": 0.0,
			"-0.01": 0.0,
			"-0.009": 0.0,
			"-0.008": 0.0,
			"-0.007": 0.0,
			"-0.006": 0.0,
			"-0.005": 0.0,
			"-0.004": 0.0,
			"-0.003": 2.40292776785,
			"-0.002": 37.5024893405,
			"-0.001": 58.1194776525,
			"0.0": 45.2626368469,
			"0.001": 42.9461288473,
			"0.002": 42.3101120208,
			"0.003": 4.72275329311,
			"0.004": 0.0,
			"0.005": 0.0,
			"0.006": 0.0,
			"0.007": 0.0,
			"0.008": 0.0,
			"0.009": 0.0,
			"0.01": 0.0,
			"0.011": 0.0,
			"0.012": 0.0,
			"0.013": 0.0,
			"0.014": 0.0,
			"0.015": 0.0,
			"0.016": 0.0,
			"0.017": 0.0,
			"0.018": 0.0,
			"0.019": 0.0,
			"0.02": 0.0,
			"0.021": 0.0,
			"0.022": 0.0,
			"0.023": 0.0,
			"0.024": 0.0,
			"0.025": 0.0
		}
	}
}
