{
	 "smiles": "ON=[N+]1C(C(=O)C2=CC=CC=C12)C1=CC=CC=C1", 
	 "Tm": 442.15, 
	 "num_atms": 29, 
	 "gaussian": { 
		 "optdone": 1, 
		 "sigma_profile": "yes", 
		 "theory": "DFT", 
		 "functional": "B3LYP", 
		 "basiset": "6-31G**", 
		 "properties": { 
			 "R2extent": 4806.0391, 
			 "electric_dipole_moment_norm": 3.93281270975, 
			 "electric_quadrupole_moment_norm": 33.0972026661, 
			 "total_energy": -799.742640017, 
			 "HOMO_LUMO_gap": 0.10106, 
			 "cosmo_polarized_energy": -58.4, 
			 "cosmo_cavitation_energy": 33.68, 
			 "cosmo_dispersion_energy": -23.62, 
			 "cosmo_repulsion_energy": 1.83, 
			 "cosmo_total_nonelectrostatic_energy": 11.89, 
			 "SMD_solvation_energy": 6.49 
		},
		"coords": [
			{
				"x": -1.326022531,
				"y": 1.0444846133,
				"z": -1.9662605555,
				"element": "O" 
			},
			{
				"x": -1.537909914,
				"y": 0.6803157905,
				"z": -0.7003543182,
				"element": "N" 
			},
			{
				"x": -0.6090955257,
				"y": 1.088610246,
				"z": 0.0450776871,
				"element": "N" 
			},
			{
				"x": 0.6379753623,
				"y": 1.8491130644,
				"z": -0.3698967899,
				"element": "C" 
			},
			{
				"x": 1.2602323342,
				"y": 2.18560753,
				"z": 1.0167549939,
				"element": "C" 
			},
			{
				"x": 2.2398789883,
				"y": 2.8702846953,
				"z": 1.1680057662,
				"element": "O" 
			},
			{
				"x": 0.4363555108,
				"y": 1.5157640629,
				"z": 2.0481593019,
				"element": "C" 
			},
			{
				"x": 0.5979881513,
				"y": 1.4758999946,
				"z": 3.4313390011,
				"element": "C" 
			},
			{
				"x": -0.3484187644,
				"y": 0.773005097,
				"z": 4.1794206882,
				"element": "C" 
			},
			{
				"x": -1.4357538447,
				"y": 0.1306736739,
				"z": 3.5581484538,
				"element": "C" 
			},
			{
				"x": -1.6148302485,
				"y": 0.1694418411,
				"z": 2.1750597071,
				"element": "C" 
			},
			{
				"x": -0.6531860174,
				"y": 0.8718741663,
				"z": 1.4524213442,
				"element": "C" 
			},
			{
				"x": 1.5424904683,
				"y": 1.0372110293,
				"z": -1.271014548,
				"element": "C" 
			},
			{
				"x": 1.9578780313,
				"y": 1.5820288622,
				"z": -2.4912349471,
				"element": "C" 
			},
			{
				"x": 2.8450419346,
				"y": 0.8747760994,
				"z": -3.3019805884,
				"element": "C" 
			},
			{
				"x": 3.3080627583,
				"y": -0.3806220003,
				"z": -2.9034605353,
				"element": "C" 
			},
			{
				"x": 2.8904794431,
				"y": -0.928070868,
				"z": -1.6875234907,
				"element": "C" 
			},
			{
				"x": 2.0141109765,
				"y": -0.2204826325,
				"z": -0.8672252593,
				"element": "C" 
			},
			{
				"x": -2.0797347051,
				"y": 0.6703741975,
				"z": -2.4589075591,
				"element": "H" 
			},
			{
				"x": 0.3033005683,
				"y": 2.7643755988,
				"z": -0.8665253176,
				"element": "H" 
			},
			{
				"x": 1.4391018702,
				"y": 1.9795769239,
				"z": 3.8957548446,
				"element": "H" 
			},
			{
				"x": -0.248590151,
				"y": 0.7187378468,
				"z": 5.2585370858,
				"element": "H" 
			},
			{
				"x": -2.1546876257,
				"y": -0.4068710465,
				"z": 4.1675906457,
				"element": "H" 
			},
			{
				"x": -2.4538611223,
				"y": -0.3198650381,
				"z": 1.6946841201,
				"element": "H" 
			},
			{
				"x": 1.5979008555,
				"y": 2.5584050888,
				"z": -2.8031261579,
				"element": "H" 
			},
			{
				"x": 3.1718511806,
				"y": 1.3041399488,
				"z": -4.2435011637,
				"element": "H" 
			},
			{
				"x": 3.9961764507,
				"y": -0.9310420088,
				"z": -3.537089706,
				"element": "H" 
			},
			{
				"x": 3.2543853984,
				"y": -1.9011328083,
				"z": -1.3738072892,
				"element": "H" 
			},
			{
				"x": 1.7090801671,
				"y": -0.6499139683,
				"z": 0.0838545862,
				"element": "H" 
			}
		],
		 "valence_orbital": [ 
			{
				"type": "occ",
				"energy": -0.42028,
				"method": "rhf"
			},
			{
				"type": "occ",
				"energy": -0.41696,
				"method": "rhf"
			},
			{
				"type": "occ",
				"energy": -0.40886,
				"method": "rhf"
			},
			{
				"type": "occ",
				"energy": -0.37355,
				"method": "rhf"
			},
			{
				"type": "occ",
				"energy": -0.37248,
				"method": "rhf"
			},
			{
				"type": "unocc",
				"energy": -0.27142,
				"method": "rhf"
			},
			{
				"type": "unocc",
				"energy": -0.2125,
				"method": "rhf"
			},
			{
				"type": "unocc",
				"energy": -0.15356,
				"method": "rhf"
			},
			{
				"type": "unocc",
				"energy": -0.14174,
				"method": "rhf"
			},
			{
				"type": "unocc",
				"energy": -0.12592,
				"method": "rhf"
			}
		],
		"cosmo_sigma_profile": { 
			"-0.025": 0.0,
			"-0.024": 0.101160604892,
			"-0.023": 1.77888884114,
			"-0.022": 1.55821897579,
			"-0.021": 1.02586386606,
			"-0.02": 1.13937819793,
			"-0.019": 1.1008227146,
			"-0.018": 0.683218162488,
			"-0.017": 1.01463904599,
			"-0.016": 0.373111066889,
			"-0.015": 1.15308550411,
			"-0.014": 2.50013491042,
			"-0.013": 3.22548047909,
			"-0.012": 3.64293044767,
			"-0.011": 3.64116272526,
			"-0.01": 4.4702903481,
			"-0.009": 11.6429177842,
			"-0.008": 19.9947083461,
			"-0.007": 19.3791251022,
			"-0.006": 22.056723182,
			"-0.005": 20.902612654,
			"-0.004": 20.4766466939,
			"-0.003": 16.5947978822,
			"-0.002": 18.1167597374,
			"-0.001": 19.3967738151,
			"0.0": 16.9523920152,
			"0.001": 9.83598475578,
			"0.002": 9.79757809763,
			"0.003": 12.8993020906,
			"0.004": 9.81591217586,
			"0.005": 1.11031280099,
			"0.006": 1.92955372444,
			"0.007": 1.67034925642,
			"0.008": 2.57946563782,
			"0.009": 3.85588535395,
			"0.01": 3.20109816837,
			"0.011": 0.133634590204,
			"0.012": 0.0,
			"0.013": 0.0,
			"0.014": 0.0,
			"0.015": 0.0,
			"0.016": 0.0,
			"0.017": 0.0,
			"0.018": 0.0,
			"0.019": 0.0,
			"0.02": 0.0,
			"0.021": 0.0,
			"0.022": 0.0,
			"0.023": 0.0,
			"0.024": 0.0,
			"0.025": 0.0
		}
	}
}
