{
	 "smiles": "CC1=NC(C=O)=CN1", 
	 "Tm": 438.15, 
	 "num_atms": 14, 
	 "gaussian": { 
		 "optdone": 1, 
		 "sigma_profile": "yes", 
		 "theory": "DFT", 
		 "functional": "B3LYP", 
		 "basiset": "6-31G**", 
		 "properties": { 
			 "R2extent": 2101.2929, 
			 "electric_dipole_moment_norm": 7.05906777131, 
			 "electric_quadrupole_moment_norm": 22.4901692321, 
			 "total_energy": -378.864183954, 
			 "HOMO_LUMO_gap": 0.20399, 
			 "cosmo_polarized_energy": -21.43, 
			 "cosmo_cavitation_energy": 18.81, 
			 "cosmo_dispersion_energy": -13.89, 
			 "cosmo_repulsion_energy": 1.18, 
			 "cosmo_total_nonelectrostatic_energy": 6.1, 
			 "SMD_solvation_energy": 3.1 
		},
		"coords": [
			{
				"x": 1.3578850614,
				"y": -1.311012862,
				"z": -1.5738284387,
				"element": "C" 
			},
			{
				"x": 0.94184858,
				"y": -1.609622083,
				"z": -0.1705300449,
				"element": "C" 
			},
			{
				"x": -0.1033156494,
				"y": -2.3115087618,
				"z": 0.194071857,
				"element": "N" 
			},
			{
				"x": -0.0886965155,
				"y": -2.3228527506,
				"z": 1.5783274664,
				"element": "C" 
			},
			{
				"x": -1.0834874054,
				"y": -2.9982645795,
				"z": 2.4143345608,
				"element": "C" 
			},
			{
				"x": -2.0406591605,
				"y": -3.6297616706,
				"z": 2.0116173241,
				"element": "O" 
			},
			{
				"x": 0.9953878077,
				"y": -1.6078970597,
				"z": 2.0507177287,
				"element": "C" 
			},
			{
				"x": 1.644651292,
				"y": -1.1582544131,
				"z": 0.9322704836,
				"element": "N" 
			},
			{
				"x": 1.3732871132,
				"y": -0.2333003534,
				"z": -1.7733083263,
				"element": "H" 
			},
			{
				"x": 0.6418180046,
				"y": -1.7777620179,
				"z": -2.250913618,
				"element": "H" 
			},
			{
				"x": 2.3554282862,
				"y": -1.7074024526,
				"z": -1.7958149341,
				"element": "H" 
			},
			{
				"x": -0.8883509729,
				"y": -2.8848962022,
				"z": 3.5067639296,
				"element": "H" 
			},
			{
				"x": 1.3413250505,
				"y": -1.392684455,
				"z": 3.0506503589,
				"element": "H" 
			},
			{
				"x": 2.484578508,
				"y": -0.5984803386,
				"z": 0.9182416529,
				"element": "H" 
			}
		],
		 "valence_orbital": [ 
			{
				"type": "occ",
				"energy": -0.37093,
				"method": "rhf"
			},
			{
				"type": "occ",
				"energy": -0.29174,
				"method": "rhf"
			},
			{
				"type": "occ",
				"energy": -0.27666,
				"method": "rhf"
			},
			{
				"type": "occ",
				"energy": -0.23971,
				"method": "rhf"
			},
			{
				"type": "occ",
				"energy": -0.23818,
				"method": "rhf"
			},
			{
				"type": "unocc",
				"energy": -0.03419,
				"method": "rhf"
			},
			{
				"type": "unocc",
				"energy": 0.01824,
				"method": "rhf"
			},
			{
				"type": "unocc",
				"energy": 0.05782,
				"method": "rhf"
			},
			{
				"type": "unocc",
				"energy": 0.11067,
				"method": "rhf"
			},
			{
				"type": "unocc",
				"energy": 0.11178,
				"method": "rhf"
			}
		],
		"cosmo_sigma_profile": { 
			"-0.025": 0.0,
			"-0.024": 0.0,
			"-0.023": 0.0,
			"-0.022": 0.0,
			"-0.021": 0.0,
			"-0.02": 0.0,
			"-0.019": 0.0,
			"-0.018": 0.036884326359,
			"-0.017": 1.40134240695,
			"-0.016": 1.63905610817,
			"-0.015": 1.45840132501,
			"-0.014": 0.994263307928,
			"-0.013": 1.29851603658,
			"-0.012": 1.60370540127,
			"-0.011": 0.982858370282,
			"-0.01": 3.48882621231,
			"-0.009": 4.00265804512,
			"-0.008": 3.14410405224,
			"-0.007": 3.74851327105,
			"-0.006": 8.23235226412,
			"-0.005": 10.450969361,
			"-0.004": 9.16196754224,
			"-0.003": 9.99012238922,
			"-0.002": 11.7633078269,
			"-0.001": 9.60861200504,
			"0.0": 8.19756898122,
			"0.001": 7.89349688263,
			"0.002": 6.17675703888,
			"0.003": 3.82518726552,
			"0.004": 3.21585628413,
			"0.005": 2.71629622063,
			"0.006": 2.5415321995,
			"0.007": 2.32261682835,
			"0.008": 2.77105012928,
			"0.009": 2.08404892281,
			"0.01": 3.35847923415,
			"0.011": 4.06296793849,
			"0.012": 5.42317172421,
			"0.013": 4.24851944565,
			"0.014": 3.06621589481,
			"0.015": 1.67028169988,
			"0.016": 1.89464925561,
			"0.017": 1.13537857058,
			"0.018": 0.484615697911,
			"0.019": 0.0,
			"0.02": 0.0,
			"0.021": 0.0,
			"0.022": 0.0,
			"0.023": 0.0,
			"0.024": 0.0,
			"0.025": 0.0
		}
	}
}
