{
	 "smiles": "C1C(NC2=CC=CC=C12)C1=CC=CC=C1", 
	 "Tm": 322.15, 
	 "num_atms": 28, 
	 "gaussian": { 
		 "optdone": 1, 
		 "sigma_profile": "yes", 
		 "theory": "DFT", 
		 "functional": "B3LYP", 
		 "basiset": "6-31G**", 
		 "properties": { 
			 "R2extent": 3964.0122, 
			 "electric_dipole_moment_norm": 1.28126575307, 
			 "electric_quadrupole_moment_norm": 2.63608515416, 
			 "total_energy": -596.082134718, 
			 "HOMO_LUMO_gap": 0.18969, 
			 "cosmo_polarized_energy": -7.59, 
			 "cosmo_cavitation_energy": 30.88, 
			 "cosmo_dispersion_energy": -22.6, 
			 "cosmo_repulsion_energy": 1.76, 
			 "cosmo_total_nonelectrostatic_energy": 10.04, 
			 "SMD_solvation_energy": 4.14 
		},
		"coords": [
			{
				"x": -1.6068295714,
				"y": -0.0563774198,
				"z": 0.1118817732,
				"element": "C" 
			},
			{
				"x": -0.1658956936,
				"y": -0.6487243941,
				"z": 0.0382009945,
				"element": "C" 
			},
			{
				"x": 0.5206939111,
				"y": 0.3022718706,
				"z": -0.8602038268,
				"element": "N" 
			},
			{
				"x": -0.4342799257,
				"y": 0.8488028272,
				"z": -1.7296458334,
				"element": "C" 
			},
			{
				"x": -0.2284944731,
				"y": 1.523565477,
				"z": -2.9324603432,
				"element": "C" 
			},
			{
				"x": -1.3487162963,
				"y": 2.0196797669,
				"z": -3.6108622356,
				"element": "C" 
			},
			{
				"x": -2.6375801786,
				"y": 1.8502141654,
				"z": -3.1013445424,
				"element": "C" 
			},
			{
				"x": -2.8292817667,
				"y": 1.1727399648,
				"z": -1.8873477944,
				"element": "C" 
			},
			{
				"x": -1.7285543343,
				"y": 0.6683569507,
				"z": -1.2108181293,
				"element": "C" 
			},
			{
				"x": 0.5199152062,
				"y": -0.8159341143,
				"z": 1.3788594717,
				"element": "C" 
			},
			{
				"x": 0.4830580168,
				"y": -2.0534188056,
				"z": 2.032791201,
				"element": "C" 
			},
			{
				"x": 1.0657850982,
				"y": -2.2144919914,
				"z": 3.290999663,
				"element": "C" 
			},
			{
				"x": 1.7026095715,
				"y": -1.137029639,
				"z": 3.9086359449,
				"element": "C" 
			},
			{
				"x": 1.7519886384,
				"y": 0.0991838045,
				"z": 3.2599053396,
				"element": "C" 
			},
			{
				"x": 1.1641856469,
				"y": 0.2594471333,
				"z": 2.0049616718,
				"element": "C" 
			},
			{
				"x": -1.6756691008,
				"y": 0.648372928,
				"z": 0.9515252044,
				"element": "H" 
			},
			{
				"x": -2.3567347968,
				"y": -0.8355725835,
				"z": 0.2745981103,
				"element": "H" 
			},
			{
				"x": -0.2363834276,
				"y": -1.6394651131,
				"z": -0.4418904639,
				"element": "H" 
			},
			{
				"x": 1.3781451764,
				"y": -0.0369268869,
				"z": -1.2789736654,
				"element": "H" 
			},
			{
				"x": 0.7711073427,
				"y": 1.6591505176,
				"z": -3.3361333878,
				"element": "H" 
			},
			{
				"x": -1.2076865024,
				"y": 2.5415967938,
				"z": -4.5534455902,
				"element": "H" 
			},
			{
				"x": -3.4924141766,
				"y": 2.2392228983,
				"z": -3.6460329074,
				"element": "H" 
			},
			{
				"x": -3.8315640419,
				"y": 1.0367345712,
				"z": -1.4885543304,
				"element": "H" 
			},
			{
				"x": -0.0037446218,
				"y": -2.898719774,
				"z": 1.5511067535,
				"element": "H" 
			},
			{
				"x": 1.0285436681,
				"y": -3.1819788013,
				"z": 3.7839644259,
				"element": "H" 
			},
			{
				"x": 2.1624530374,
				"y": -1.2607841361,
				"z": 4.8850198393,
				"element": "H" 
			},
			{
				"x": 2.252325566,
				"y": 0.9405067943,
				"z": 3.7317084441,
				"element": "H" 
			},
			{
				"x": 1.2102180278,
				"y": 1.2143771957,
				"z": 1.4907542133,
				"element": "H" 
			}
		],
		 "valence_orbital": [ 
			{
				"type": "occ",
				"energy": -0.28951,
				"method": "rhf"
			},
			{
				"type": "occ",
				"energy": -0.24819,
				"method": "rhf"
			},
			{
				"type": "occ",
				"energy": -0.24134,
				"method": "rhf"
			},
			{
				"type": "occ",
				"energy": -0.23736,
				"method": "rhf"
			},
			{
				"type": "occ",
				"energy": -0.19204,
				"method": "rhf"
			},
			{
				"type": "unocc",
				"energy": -0.00235,
				"method": "rhf"
			},
			{
				"type": "unocc",
				"energy": -0.00012,
				"method": "rhf"
			},
			{
				"type": "unocc",
				"energy": 0.0063,
				"method": "rhf"
			},
			{
				"type": "unocc",
				"energy": 0.02324,
				"method": "rhf"
			},
			{
				"type": "unocc",
				"energy": 0.08843,
				"method": "rhf"
			}
		],
		"cosmo_sigma_profile": { 
			"-0.025": 0.0,
			"-0.024": 0.0,
			"-0.023": 0.0,
			"-0.022": 0.0,
			"-0.021": 0.0,
			"-0.02": 0.0,
			"-0.019": 0.0,
			"-0.018": 0.0,
			"-0.017": 0.0,
			"-0.016": 0.0,
			"-0.015": 0.0,
			"-0.014": 0.0,
			"-0.013": 0.0265369694309,
			"-0.012": 1.46635988397,
			"-0.011": 1.0063692456,
			"-0.01": 1.13370193772,
			"-0.009": 1.39271386865,
			"-0.008": 1.19360780433,
			"-0.007": 1.90953444379,
			"-0.006": 3.93346907538,
			"-0.005": 17.8855325162,
			"-0.004": 25.599404421,
			"-0.003": 27.1275795097,
			"-0.002": 21.7014803802,
			"-0.001": 18.4533887063,
			"0.0": 18.2075736419,
			"0.001": 13.9879677573,
			"0.002": 12.8042820527,
			"0.003": 14.8459135079,
			"0.004": 15.4317940879,
			"0.005": 16.1354992488,
			"0.006": 17.7078476487,
			"0.007": 9.77426322368,
			"0.008": 3.10861271673,
			"0.009": 0.511977112328,
			"0.01": 0.428971435673,
			"0.011": 0.0,
			"0.012": 0.0,
			"0.013": 0.0,
			"0.014": 0.0,
			"0.015": 0.0,
			"0.016": 0.0,
			"0.017": 0.0,
			"0.018": 0.0,
			"0.019": 0.0,
			"0.02": 0.0,
			"0.021": 0.0,
			"0.022": 0.0,
			"0.023": 0.0,
			"0.024": 0.0,
			"0.025": 0.0
		}
	}
}
