{
	 "smiles": "CC1=C2OC(=CC2=CC(Br)=C1)C(O)=O", 
	 "Tm": 496.15, 
	 "num_atms": 21, 
	 "gaussian": { 
		 "optdone": 1, 
		 "sigma_profile": "yes", 
		 "theory": "DFT", 
		 "functional": "B3LYP", 
		 "basiset": "6-31G**", 
		 "properties": { 
			 "R2extent": 5434.7814, 
			 "electric_dipole_moment_norm": 3.94421672325, 
			 "electric_quadrupole_moment_norm": 23.1214376906, 
			 "total_energy": -3182.36473594, 
			 "HOMO_LUMO_gap": 0.17502, 
			 "cosmo_polarized_energy": -12.33, 
			 "cosmo_cavitation_energy": 28.6, 
			 "cosmo_dispersion_energy": -21.35, 
			 "cosmo_repulsion_energy": 1.68, 
			 "cosmo_total_nonelectrostatic_energy": 8.93, 
			 "SMD_solvation_energy": 5.3 
		},
		"coords": [
			{
				"x": -2.8439603021,
				"y": 0.7463391674,
				"z": 0.3367369505,
				"element": "C" 
			},
			{
				"x": -1.3810005712,
				"y": 1.1114953324,
				"z": 0.3700527138,
				"element": "C" 
			},
			{
				"x": -0.3645654085,
				"y": 0.156795521,
				"z": 0.3537866507,
				"element": "C" 
			},
			{
				"x": -0.5476857057,
				"y": -1.2024880187,
				"z": 0.3066685491,
				"element": "O" 
			},
			{
				"x": 0.7179016862,
				"y": -1.7621842289,
				"z": 0.3069071829,
				"element": "C" 
			},
			{
				"x": 1.689695255,
				"y": -0.8118857896,
				"z": 0.352163014,
				"element": "C" 
			},
			{
				"x": 1.0127719625,
				"y": 0.4558805355,
				"z": 0.3837038654,
				"element": "C" 
			},
			{
				"x": 1.4251597324,
				"y": 1.7964550942,
				"z": 0.4334288229,
				"element": "C" 
			},
			{
				"x": 0.4269588991,
				"y": 2.7601527815,
				"z": 0.4501761867,
				"element": "C" 
			},
			{
				"x": 0.9203603088,
				"y": 4.6073771775,
				"z": 0.5173246107,
				"element": "Br" 
			},
			{
				"x": -0.9411343795,
				"y": 2.4375172182,
				"z": 0.419673191,
				"element": "C" 
			},
			{
				"x": 0.8135298301,
				"y": -3.2352138622,
				"z": 0.2600195427,
				"element": "C" 
			},
			{
				"x": -0.3684195354,
				"y": -3.8931581052,
				"z": 0.2206272438,
				"element": "O" 
			},
			{
				"x": 1.8727882147,
				"y": -3.8167194722,
				"z": 0.2562602188,
				"element": "O" 
			},
			{
				"x": -3.3621848202,
				"y": 1.1230075941,
				"z": 1.2247471788,
				"element": "H" 
			},
			{
				"x": -3.3364520766,
				"y": 1.1808091809,
				"z": -0.5394401906,
				"element": "H" 
			},
			{
				"x": -2.982560267,
				"y": -0.335809517,
				"z": 0.2992509592,
				"element": "H" 
			},
			{
				"x": 2.7516167299,
				"y": -1.0073910095,
				"z": 0.3612769726,
				"element": "H" 
			},
			{
				"x": 2.472752068,
				"y": 2.0710841549,
				"z": 0.4576811551,
				"element": "H" 
			},
			{
				"x": -1.6711519266,
				"y": 3.2396683872,
				"z": 0.4350886341,
				"element": "H" 
			},
			{
				"x": -1.099119694,
				"y": -3.2548321414,
				"z": 0.2307665478,
				"element": "H" 
			}
		],
		 "valence_orbital": [ 
			{
				"type": "occ",
				"energy": -0.30604,
				"method": "rhf"
			},
			{
				"type": "occ",
				"energy": -0.2954,
				"method": "rhf"
			},
			{
				"type": "occ",
				"energy": -0.28583,
				"method": "rhf"
			},
			{
				"type": "occ",
				"energy": -0.2489,
				"method": "rhf"
			},
			{
				"type": "occ",
				"energy": -0.24724,
				"method": "rhf"
			},
			{
				"type": "unocc",
				"energy": -0.07222,
				"method": "rhf"
			},
			{
				"type": "unocc",
				"energy": -0.01703,
				"method": "rhf"
			},
			{
				"type": "unocc",
				"energy": -0.00257,
				"method": "rhf"
			},
			{
				"type": "unocc",
				"energy": -0.00141,
				"method": "rhf"
			},
			{
				"type": "unocc",
				"energy": 0.06343,
				"method": "rhf"
			}
		],
		"cosmo_sigma_profile": { 
			"-0.025": 0.0,
			"-0.024": 0.0,
			"-0.023": 0.0,
			"-0.022": 0.0,
			"-0.021": 0.0,
			"-0.02": 0.0,
			"-0.019": 0.0,
			"-0.018": 0.0,
			"-0.017": 0.296864153968,
			"-0.016": 0.750430392377,
			"-0.015": 0.309180424934,
			"-0.014": 0.7474779472,
			"-0.013": 0.551745197247,
			"-0.012": 0.917108889185,
			"-0.011": 1.07979811246,
			"-0.01": 1.40534072416,
			"-0.009": 2.19448250498,
			"-0.008": 3.49346722404,
			"-0.007": 6.79450688755,
			"-0.006": 8.45254181505,
			"-0.005": 11.9275558883,
			"-0.004": 13.8427879998,
			"-0.003": 15.9256336541,
			"-0.002": 17.0617214358,
			"-0.001": 25.0434636573,
			"0.0": 21.349086968,
			"0.001": 20.8279667937,
			"0.002": 20.8611187439,
			"0.003": 11.4974245386,
			"0.004": 13.6683703377,
			"0.005": 7.63985403148,
			"0.006": 1.87328861975,
			"0.007": 2.74626373412,
			"0.008": 3.27080676707,
			"0.009": 4.35151634243,
			"0.01": 4.42637511453,
			"0.011": 5.74488125336,
			"0.012": 3.4064448089,
			"0.013": 0.687039808083,
			"0.014": 0.0,
			"0.015": 0.0,
			"0.016": 0.0,
			"0.017": 0.0,
			"0.018": 0.0,
			"0.019": 0.0,
			"0.02": 0.0,
			"0.021": 0.0,
			"0.022": 0.0,
			"0.023": 0.0,
			"0.024": 0.0,
			"0.025": 0.0
		}
	}
}
