{
	 "smiles": "NC1=C(Cl)C=C(Cl)C=C1Br", 
	 "Tm": 354.95, 
	 "num_atms": 14, 
	 "gaussian": { 
		 "optdone": 1, 
		 "sigma_profile": "yes", 
		 "theory": "DFT", 
		 "functional": "B3LYP", 
		 "basiset": "6-31G**", 
		 "properties": { 
			 "R2extent": 3806.434, 
			 "electric_dipole_moment_norm": 2.1151074228, 
			 "electric_quadrupole_moment_norm": 4.38101068362, 
			 "total_energy": -3777.59335441, 
			 "HOMO_LUMO_gap": 0.1886, 
			 "cosmo_polarized_energy": -5.9, 
			 "cosmo_cavitation_energy": 23.87, 
			 "cosmo_dispersion_energy": -18.7, 
			 "cosmo_repulsion_energy": 1.52, 
			 "cosmo_total_nonelectrostatic_energy": 6.68, 
			 "SMD_solvation_energy": 2.34 
		},
		"coords": [
			{
				"x": 1.0370248939,
				"y": 2.2465814844,
				"z": 0.4970858848,
				"element": "N" 
			},
			{
				"x": 0.4115141775,
				"y": 1.1719823124,
				"z": 1.0802106208,
				"element": "C" 
			},
			{
				"x": 0.8139966259,
				"y": 0.6623417092,
				"z": 2.3350286232,
				"element": "C" 
			},
			{
				"x": 2.2063436709,
				"y": 1.3901076223,
				"z": 3.1285477255,
				"element": "Cl" 
			},
			{
				"x": 0.1629931502,
				"y": -0.3893353644,
				"z": 2.9685941179,
				"element": "C" 
			},
			{
				"x": -0.9354274253,
				"y": -0.976920504,
				"z": 2.3457159398,
				"element": "C" 
			},
			{
				"x": -1.7723849059,
				"y": -2.3046702508,
				"z": 3.1304219537,
				"element": "Cl" 
			},
			{
				"x": -1.3739504605,
				"y": -0.5218531383,
				"z": 1.1048180034,
				"element": "C" 
			},
			{
				"x": -0.7018465061,
				"y": 0.5309869929,
				"z": 0.4952731055,
				"element": "C" 
			},
			{
				"x": -1.31609991,
				"y": 1.1306145228,
				"z": -1.2155073476,
				"element": "Br" 
			},
			{
				"x": 0.8703265418,
				"y": 2.385106571,
				"z": -0.4885208083,
				"element": "H" 
			},
			{
				"x": 1.9662644668,
				"y": 2.4648475302,
				"z": 0.8231022741,
				"element": "H" 
			},
			{
				"x": 0.5117579924,
				"y": -0.7419508539,
				"z": 3.9311790666,
				"element": "H" 
			},
			{
				"x": -2.2241123116,
				"y": -0.980638634,
				"z": 0.6163508406,
				"element": "H" 
			}
		],
		 "valence_orbital": [ 
			{
				"type": "occ",
				"energy": -0.32036,
				"method": "rhf"
			},
			{
				"type": "occ",
				"energy": -0.30575,
				"method": "rhf"
			},
			{
				"type": "occ",
				"energy": -0.30237,
				"method": "rhf"
			},
			{
				"type": "occ",
				"energy": -0.25793,
				"method": "rhf"
			},
			{
				"type": "occ",
				"energy": -0.21987,
				"method": "rhf"
			},
			{
				"type": "unocc",
				"energy": -0.03127,
				"method": "rhf"
			},
			{
				"type": "unocc",
				"energy": -0.02564,
				"method": "rhf"
			},
			{
				"type": "unocc",
				"energy": -0.01237,
				"method": "rhf"
			},
			{
				"type": "unocc",
				"energy": 0.02918,
				"method": "rhf"
			},
			{
				"type": "unocc",
				"energy": 0.04592,
				"method": "rhf"
			}
		],
		"cosmo_sigma_profile": { 
			"-0.025": 0.0,
			"-0.024": 0.0,
			"-0.023": 0.0,
			"-0.022": 0.0,
			"-0.021": 0.0,
			"-0.02": 0.0,
			"-0.019": 0.0,
			"-0.018": 0.0,
			"-0.017": 0.0,
			"-0.016": 0.0,
			"-0.015": 0.0,
			"-0.014": 0.00526493348427,
			"-0.013": 0.546566809964,
			"-0.012": 1.79242055441,
			"-0.011": 2.07714496883,
			"-0.01": 1.75601292653,
			"-0.009": 2.0967812477,
			"-0.008": 4.57391682875,
			"-0.007": 4.31368672974,
			"-0.006": 5.50146055746,
			"-0.005": 6.37533080199,
			"-0.004": 6.67141301947,
			"-0.003": 8.29849547194,
			"-0.002": 11.4584158343,
			"-0.001": 13.5624395827,
			"0.0": 17.958882177,
			"0.001": 28.2811038122,
			"0.002": 31.6031907656,
			"0.003": 19.7350994762,
			"0.004": 23.1451134956,
			"0.005": 6.48718409805,
			"0.006": 0.546168479603,
			"0.007": 0.733808689788,
			"0.008": 0.48760199467,
			"0.009": 0.699122132676,
			"0.01": 0.476089648326,
			"0.011": 0.348591769035,
			"0.012": 0.0,
			"0.013": 0.0,
			"0.014": 0.0,
			"0.015": 0.0,
			"0.016": 0.0,
			"0.017": 0.0,
			"0.018": 0.0,
			"0.019": 0.0,
			"0.02": 0.0,
			"0.021": 0.0,
			"0.022": 0.0,
			"0.023": 0.0,
			"0.024": 0.0,
			"0.025": 0.0
		}
	}
}
