{
	 "smiles": "OC(=O)COC1=CC=C(C=C1)C(=O)C1=C(Cl)C=CC=C1", 
	 "Tm": 415.15, 
	 "num_atms": 31, 
	 "gaussian": { 
		 "optdone": 1, 
		 "sigma_profile": "yes", 
		 "theory": "DFT", 
		 "functional": "B3LYP", 
		 "basiset": "6-31G**", 
		 "properties": { 
			 "R2extent": 8311.6485, 
			 "electric_dipole_moment_norm": 3.01381476869, 
			 "electric_quadrupole_moment_norm": 22.3119723976, 
			 "total_energy": -1339.30825589, 
			 "HOMO_LUMO_gap": 0.17597, 
			 "cosmo_polarized_energy": -17.76, 
			 "cosmo_cavitation_energy": 38.43, 
			 "cosmo_dispersion_energy": -26.92, 
			 "cosmo_repulsion_energy": 2.09, 
			 "cosmo_total_nonelectrostatic_energy": 13.6, 
			 "SMD_solvation_energy": 8.21 
		},
		"coords": [
			{
				"x": 2.2856183657,
				"y": -1.3889706356,
				"z": -3.5217110256,
				"element": "O" 
			},
			{
				"x": 3.3311301227,
				"y": -1.3121300073,
				"z": -2.6797148551,
				"element": "C" 
			},
			{
				"x": 4.1708425557,
				"y": -0.4412322098,
				"z": -2.7153123717,
				"element": "O" 
			},
			{
				"x": 3.3883049587,
				"y": -2.4779859547,
				"z": -1.6958145016,
				"element": "C" 
			},
			{
				"x": 2.1599344205,
				"y": -3.1343153449,
				"z": -1.4605375145,
				"element": "O" 
			},
			{
				"x": 1.2154493829,
				"y": -2.5117461504,
				"z": -0.6951010422,
				"element": "C" 
			},
			{
				"x": 1.3539183577,
				"y": -1.2311323336,
				"z": -0.1448726294,
				"element": "C" 
			},
			{
				"x": 0.3239989469,
				"y": -0.7093583354,
				"z": 0.6368671567,
				"element": "C" 
			},
			{
				"x": -0.8470015452,
				"y": -1.4390758014,
				"z": 0.8741162951,
				"element": "C" 
			},
			{
				"x": -0.9742550508,
				"y": -2.7178665315,
				"z": 0.2980390217,
				"element": "C" 
			},
			{
				"x": 0.0432911029,
				"y": -3.2534362038,
				"z": -0.4705680867,
				"element": "C" 
			},
			{
				"x": -1.9910530192,
				"y": -0.8998902643,
				"z": 1.6545240117,
				"element": "C" 
			},
			{
				"x": -3.0880976595,
				"y": -1.4435776035,
				"z": 1.6388290532,
				"element": "O" 
			},
			{
				"x": -1.8427094677,
				"y": 0.3991037581,
				"z": 2.4203960138,
				"element": "C" 
			},
			{
				"x": -0.975456699,
				"y": 0.6010958611,
				"z": 3.5023773879,
				"element": "C" 
			},
			{
				"x": 0.0584794229,
				"y": -0.7002230568,
				"z": 4.0865296603,
				"element": "Cl" 
			},
			{
				"x": -0.9375914659,
				"y": 1.8171982883,
				"z": 4.1870301692,
				"element": "C" 
			},
			{
				"x": -1.7754944201,
				"y": 2.8575448792,
				"z": 3.7893709711,
				"element": "C" 
			},
			{
				"x": -2.6627415406,
				"y": 2.6742125342,
				"z": 2.7269784493,
				"element": "C" 
			},
			{
				"x": -2.7005206426,
				"y": 1.4513301409,
				"z": 2.0631078572,
				"element": "C" 
			},
			{
				"x": 2.3502827266,
				"y": -0.6177601185,
				"z": -4.1106743343,
				"element": "H" 
			},
			{
				"x": 3.8537951399,
				"y": -2.1153669388,
				"z": -0.7732929062,
				"element": "H" 
			},
			{
				"x": 4.0485139799,
				"y": -3.2361007867,
				"z": -2.1292430619,
				"element": "H" 
			},
			{
				"x": 2.2418623413,
				"y": -0.633899479,
				"z": -0.3164106061,
				"element": "H" 
			},
			{
				"x": 0.4365734103,
				"y": 0.2848624956,
				"z": 1.0564802253,
				"element": "H" 
			},
			{
				"x": -1.8898508405,
				"y": -3.2723496648,
				"z": 0.4737329229,
				"element": "H" 
			},
			{
				"x": -0.0367576228,
				"y": -4.2407839901,
				"z": -0.9128371918,
				"element": "H" 
			},
			{
				"x": -0.2630204471,
				"y": 1.9351329888,
				"z": 5.0278528337,
				"element": "H" 
			},
			{
				"x": -1.7407646818,
				"y": 3.8044419876,
				"z": 4.3197266243,
				"element": "H" 
			},
			{
				"x": -3.3279404321,
				"y": 3.476676916,
				"z": 2.4236480126,
				"element": "H" 
			},
			{
				"x": -3.4015396998,
				"y": 1.2876015614,
				"z": 1.2506834611,
				"element": "H" 
			}
		],
		 "valence_orbital": [ 
			{
				"type": "occ",
				"energy": -0.27183,
				"method": "rhf"
			},
			{
				"type": "occ",
				"energy": -0.26471,
				"method": "rhf"
			},
			{
				"type": "occ",
				"energy": -0.25376,
				"method": "rhf"
			},
			{
				"type": "occ",
				"energy": -0.2474,
				"method": "rhf"
			},
			{
				"type": "occ",
				"energy": -0.2357,
				"method": "rhf"
			},
			{
				"type": "unocc",
				"energy": -0.05973,
				"method": "rhf"
			},
			{
				"type": "unocc",
				"energy": -0.02055,
				"method": "rhf"
			},
			{
				"type": "unocc",
				"energy": -0.01949,
				"method": "rhf"
			},
			{
				"type": "unocc",
				"energy": -0.01561,
				"method": "rhf"
			},
			{
				"type": "unocc",
				"energy": -0.00509,
				"method": "rhf"
			}
		],
		"cosmo_sigma_profile": { 
			"-0.025": 0.0,
			"-0.024": 0.0,
			"-0.023": 0.0,
			"-0.022": 0.0,
			"-0.021": 0.0,
			"-0.02": 0.0,
			"-0.019": 0.5326182714,
			"-0.018": 1.14371537056,
			"-0.017": 1.00658454927,
			"-0.016": 0.773641017528,
			"-0.015": 0.711832120371,
			"-0.014": 0.341587058804,
			"-0.013": 0.63938019091,
			"-0.012": 0.907073101607,
			"-0.011": 0.95134411232,
			"-0.01": 2.01907333252,
			"-0.009": 3.978016579,
			"-0.008": 6.41862353035,
			"-0.007": 13.8318616683,
			"-0.006": 20.4700658343,
			"-0.005": 18.7759278165,
			"-0.004": 17.1153791005,
			"-0.003": 16.0650843225,
			"-0.002": 15.0367010699,
			"-0.001": 15.0219544462,
			"0.0": 20.2020679297,
			"0.001": 22.7866604487,
			"0.002": 26.5032588404,
			"0.003": 33.6852485187,
			"0.004": 20.5578500372,
			"0.005": 9.18420769623,
			"0.006": 5.03996481449,
			"0.007": 5.87974113228,
			"0.008": 5.22536934783,
			"0.009": 5.67074431242,
			"0.01": 5.08389688881,
			"0.011": 8.74304071392,
			"0.012": 5.19111291901,
			"0.013": 0.609584582473,
			"0.014": 0.0,
			"0.015": 0.0,
			"0.016": 0.0,
			"0.017": 0.0,
			"0.018": 0.0,
			"0.019": 0.0,
			"0.02": 0.0,
			"0.021": 0.0,
			"0.022": 0.0,
			"0.023": 0.0,
			"0.024": 0.0,
			"0.025": 0.0
		}
	}
}
