{
	 "smiles": "NC1=NC(=CC=N1)C1=CC=C(C=C1)[N+]([O-])=O", 
	 "Tm": 491.15, 
	 "num_atms": 24, 
	 "gaussian": { 
		 "optdone": 1, 
		 "sigma_profile": "yes", 
		 "theory": "DFT", 
		 "functional": "B3LYP", 
		 "basiset": "6-31G**", 
		 "properties": { 
			 "R2extent": 4940.2681, 
			 "electric_dipole_moment_norm": 4.80165079426, 
			 "electric_quadrupole_moment_norm": 21.6142920203, 
			 "total_energy": -755.258153321, 
			 "HOMO_LUMO_gap": 0.13961, 
			 "cosmo_polarized_energy": -13.82, 
			 "cosmo_cavitation_energy": 29.78, 
			 "cosmo_dispersion_energy": -22.15, 
			 "cosmo_repulsion_energy": 1.7, 
			 "cosmo_total_nonelectrostatic_energy": 9.33, 
			 "SMD_solvation_energy": 4.86 
		},
		"coords": [
			{
				"x": -3.7966757773,
				"y": -2.4941200135,
				"z": 1.1174980784,
				"element": "N" 
			},
			{
				"x": -2.5401744909,
				"y": -2.0951766414,
				"z": 1.460092047,
				"element": "C" 
			},
			{
				"x": -1.8644337135,
				"y": -1.3681319983,
				"z": 0.5532334028,
				"element": "N" 
			},
			{
				"x": -0.6137399597,
				"y": -1.0036860931,
				"z": 0.8722623178,
				"element": "C" 
			},
			{
				"x": -0.0400104787,
				"y": -1.3780177699,
				"z": 2.0953841825,
				"element": "C" 
			},
			{
				"x": -0.8432727359,
				"y": -2.1217901789,
				"z": 2.9585794969,
				"element": "C" 
			},
			{
				"x": -2.0910761396,
				"y": -2.4874021198,
				"z": 2.6719373208,
				"element": "N" 
			},
			{
				"x": 0.1201771995,
				"y": -0.2018161257,
				"z": -0.1447892325,
				"element": "C" 
			},
			{
				"x": -0.343802474,
				"y": -0.1772662522,
				"z": -1.471532651,
				"element": "C" 
			},
			{
				"x": 0.3228819498,
				"y": 0.5534627395,
				"z": -2.4475208102,
				"element": "C" 
			},
			{
				"x": 1.4613040127,
				"y": 1.2722960762,
				"z": -2.0859561611,
				"element": "C" 
			},
			{
				"x": 1.9425481329,
				"y": 1.2798726011,
				"z": -0.778413867,
				"element": "C" 
			},
			{
				"x": 1.2667842444,
				"y": 0.5405952893,
				"z": 0.186290278,
				"element": "C" 
			},
			{
				"x": 2.1729965305,
				"y": 2.0499356765,
				"z": -3.1119204546,
				"element": "N" 
			},
			{
				"x": 1.725007491,
				"y": 2.0274527225,
				"z": -4.2579263365,
				"element": "O" 
			},
			{
				"x": 3.1736618359,
				"y": 2.6757038649,
				"z": -2.7620784248,
				"element": "O" 
			},
			{
				"x": -4.3796303126,
				"y": -2.8765027856,
				"z": 1.8440559792,
				"element": "H" 
			},
			{
				"x": -4.2271732438,
				"y": -2.0631469787,
				"z": 0.3159506061,
				"element": "H" 
			},
			{
				"x": 0.9776047972,
				"y": -1.1274896123,
				"z": 2.3644751562,
				"element": "H" 
			},
			{
				"x": -0.4625106053,
				"y": -2.4396565051,
				"z": 3.9282495995,
				"element": "H" 
			},
			{
				"x": -1.2351748898,
				"y": -0.7420396396,
				"z": -1.716641852,
				"element": "H" 
			},
			{
				"x": -0.0174927273,
				"y": 0.5768765198,
				"z": -3.4751328777,
				"element": "H" 
			},
			{
				"x": 2.8233738572,
				"y": 1.8616416669,
				"z": -0.5380839059,
				"element": "H" 
			},
			{
				"x": 1.6272274974,
				"y": 0.5636055575,
				"z": 1.2086881081,
				"element": "H" 
			}
		],
		 "valence_orbital": [ 
			{
				"type": "occ",
				"energy": -0.29047,
				"method": "rhf"
			},
			{
				"type": "occ",
				"energy": -0.27983,
				"method": "rhf"
			},
			{
				"type": "occ",
				"energy": -0.27198,
				"method": "rhf"
			},
			{
				"type": "occ",
				"energy": -0.25802,
				"method": "rhf"
			},
			{
				"type": "occ",
				"energy": -0.23679,
				"method": "rhf"
			},
			{
				"type": "unocc",
				"energy": -0.09718,
				"method": "rhf"
			},
			{
				"type": "unocc",
				"energy": -0.04674,
				"method": "rhf"
			},
			{
				"type": "unocc",
				"energy": -0.03007,
				"method": "rhf"
			},
			{
				"type": "unocc",
				"energy": -0.01124,
				"method": "rhf"
			},
			{
				"type": "unocc",
				"energy": 0.02604,
				"method": "rhf"
			}
		],
		"cosmo_sigma_profile": { 
			"-0.025": 0.0,
			"-0.024": 0.0,
			"-0.023": 0.0,
			"-0.022": 0.0,
			"-0.021": 0.0,
			"-0.02": 0.0,
			"-0.019": 0.0,
			"-0.018": 0.0,
			"-0.017": 0.0,
			"-0.016": 0.0,
			"-0.015": 0.0,
			"-0.014": 0.93801856696,
			"-0.013": 2.10155009444,
			"-0.012": 2.53375451716,
			"-0.011": 1.05504364976,
			"-0.01": 2.18278902976,
			"-0.009": 3.82813896617,
			"-0.008": 6.13165902622,
			"-0.007": 10.3882565527,
			"-0.006": 12.3283805328,
			"-0.005": 12.1808770479,
			"-0.004": 9.61631871565,
			"-0.003": 11.0440950823,
			"-0.002": 12.7461091963,
			"-0.001": 18.7015498923,
			"0.0": 24.117882623,
			"0.001": 27.6034453161,
			"0.002": 15.3347818928,
			"0.003": 7.30181237179,
			"0.004": 7.07899295396,
			"0.005": 7.81060393738,
			"0.006": 8.15417971773,
			"0.007": 11.6897979506,
			"0.008": 10.566379946,
			"0.009": 6.0343882032,
			"0.01": 4.03049270359,
			"0.011": 1.38686960038,
			"0.012": 0.643979726959,
			"0.013": 0.845650279569,
			"0.014": 0.870186263791,
			"0.015": 0.468262773718,
			"0.016": 0.0337593319155,
			"0.017": 0.0,
			"0.018": 0.0,
			"0.019": 0.0,
			"0.02": 0.0,
			"0.021": 0.0,
			"0.022": 0.0,
			"0.023": 0.0,
			"0.024": 0.0,
			"0.025": 0.0
		}
	}
}
