{
	 "smiles": "CCOC(=O)C1=C(C)C2=C(S1)N=C(CC1=NC=CC=C1)NC2=O", 
	 "Tm": 505.15, 
	 "num_atms": 38, 
	 "gaussian": { 
		 "optdone": 1, 
		 "sigma_profile": "yes", 
		 "theory": "DFT", 
		 "functional": "B3LYP", 
		 "basiset": "6-31G**", 
		 "properties": { 
			 "R2extent": 12389.2408, 
			 "electric_dipole_moment_norm": 6.37960521898, 
			 "electric_quadrupole_moment_norm": 34.6041771451, 
			 "total_energy": -1406.91099751, 
			 "HOMO_LUMO_gap": 0.15889, 
			 "cosmo_polarized_energy": -15.88, 
			 "cosmo_cavitation_energy": 44.07, 
			 "cosmo_dispersion_energy": -32.21, 
			 "cosmo_repulsion_energy": 2.41, 
			 "cosmo_total_nonelectrostatic_energy": 14.27, 
			 "SMD_solvation_energy": 6.21 
		},
		"coords": [
			{
				"x": 3.1820428642,
				"y": -3.9071009859,
				"z": 3.343296866,
				"element": "C" 
			},
			{
				"x": 2.0773128234,
				"y": -2.9707566274,
				"z": 3.8100264834,
				"element": "C" 
			},
			{
				"x": 1.6000265515,
				"y": -2.1384826855,
				"z": 2.7283448138,
				"element": "O" 
			},
			{
				"x": 0.6350260811,
				"y": -2.6690445247,
				"z": 1.9331877767,
				"element": "C" 
			},
			{
				"x": 0.1615009603,
				"y": -3.7804036797,
				"z": 2.093391472,
				"element": "O" 
			},
			{
				"x": 0.2443061361,
				"y": -1.7323748353,
				"z": 0.874534059,
				"element": "C" 
			},
			{
				"x": -0.7078408843,
				"y": -1.9534996016,
				"z": -0.1041734504,
				"element": "C" 
			},
			{
				"x": -1.5179803773,
				"y": -3.2135457303,
				"z": -0.2476897772,
				"element": "C" 
			},
			{
				"x": -0.8217907778,
				"y": -0.8160555982,
				"z": -0.970231059,
				"element": "C" 
			},
			{
				"x": 0.0407448697,
				"y": 0.2330018396,
				"z": -0.6297996761,
				"element": "C" 
			},
			{
				"x": 1.0090875856,
				"y": -0.151560042,
				"z": 0.7588714982,
				"element": "S" 
			},
			{
				"x": 0.159176918,
				"y": 1.4351886701,
				"z": -1.2602007743,
				"element": "N" 
			},
			{
				"x": -0.6252744859,
				"y": 1.5888318735,
				"z": -2.2946983614,
				"element": "C" 
			},
			{
				"x": -0.5308141196,
				"y": 2.8653571783,
				"z": -3.1052359023,
				"element": "C" 
			},
			{
				"x": -1.8565140248,
				"y": 3.5014319082,
				"z": -3.4833233488,
				"element": "C" 
			},
			{
				"x": -2.7127497673,
				"y": 2.7357072901,
				"z": -4.1826361563,
				"element": "N" 
			},
			{
				"x": -3.8829577897,
				"y": 3.2642235282,
				"z": -4.5596813335,
				"element": "C" 
			},
			{
				"x": -4.2562384998,
				"y": 4.5771638698,
				"z": -4.2743320655,
				"element": "C" 
			},
			{
				"x": -3.3696644345,
				"y": 5.3702680875,
				"z": -3.5478769179,
				"element": "C" 
			},
			{
				"x": -2.1522014219,
				"y": 4.825021668,
				"z": -3.1423665292,
				"element": "C" 
			},
			{
				"x": -1.4997498884,
				"y": 0.6360730264,
				"z": -2.7217499239,
				"element": "N" 
			},
			{
				"x": -1.702331873,
				"y": -0.6253055966,
				"z": -2.1157064,
				"element": "C" 
			},
			{
				"x": -2.5406465289,
				"y": -1.3912403759,
				"z": -2.5746294449,
				"element": "O" 
			},
			{
				"x": 2.7958450532,
				"y": -4.6201908173,
				"z": 2.6109828923,
				"element": "H" 
			},
			{
				"x": 4.0045459441,
				"y": -3.3446680161,
				"z": 2.8917066185,
				"element": "H" 
			},
			{
				"x": 3.5768357919,
				"y": -4.4699290003,
				"z": 4.1958899011,
				"element": "H" 
			},
			{
				"x": 2.4415006381,
				"y": -2.2616504579,
				"z": 4.557284001,
				"element": "H" 
			},
			{
				"x": 1.2337944149,
				"y": -3.5307661047,
				"z": 4.2207664766,
				"element": "H" 
			},
			{
				"x": -2.0961651894,
				"y": -3.4033595828,
				"z": 0.6613238895,
				"element": "H" 
			},
			{
				"x": -2.1895216309,
				"y": -3.1321624029,
				"z": -1.1010894584,
				"element": "H" 
			},
			{
				"x": -0.8617002129,
				"y": -4.0798185697,
				"z": -0.3712327741,
				"element": "H" 
			},
			{
				"x": 0.0872360581,
				"y": 3.5579393667,
				"z": -2.5327657986,
				"element": "H" 
			},
			{
				"x": 0.011141819,
				"y": 2.6316449806,
				"z": -4.0326084337,
				"element": "H" 
			},
			{
				"x": -4.54701595,
				"y": 2.6063481188,
				"z": -5.1159017647,
				"element": "H" 
			},
			{
				"x": -5.2145403864,
				"y": 4.9596855773,
				"z": -4.6094654129,
				"element": "H" 
			},
			{
				"x": -3.6216820821,
				"y": 6.396509598,
				"z": -3.2971821251,
				"element": "H" 
			},
			{
				"x": -1.4403876816,
				"y": 5.4123573026,
				"z": -2.571220243,
				"element": "H" 
			},
			{
				"x": -2.1160565025,
				"y": 0.8840613513,
				"z": -3.4996096167,
				"element": "H" 
			}
		],
		 "valence_orbital": [ 
			{
				"type": "occ",
				"energy": -0.27725,
				"method": "rhf"
			},
			{
				"type": "occ",
				"energy": -0.26757,
				"method": "rhf"
			},
			{
				"type": "occ",
				"energy": -0.25484,
				"method": "rhf"
			},
			{
				"type": "occ",
				"energy": -0.25236,
				"method": "rhf"
			},
			{
				"type": "occ",
				"energy": -0.21757,
				"method": "rhf"
			},
			{
				"type": "unocc",
				"energy": -0.05868,
				"method": "rhf"
			},
			{
				"type": "unocc",
				"energy": -0.04894,
				"method": "rhf"
			},
			{
				"type": "unocc",
				"energy": -0.03255,
				"method": "rhf"
			},
			{
				"type": "unocc",
				"energy": -0.01402,
				"method": "rhf"
			},
			{
				"type": "unocc",
				"energy": 0.00956,
				"method": "rhf"
			}
		],
		"cosmo_sigma_profile": { 
			"-0.025": 0.0,
			"-0.024": 0.0,
			"-0.023": 0.0,
			"-0.022": 0.0,
			"-0.021": 0.0,
			"-0.02": 0.0,
			"-0.019": 0.0,
			"-0.018": 0.0,
			"-0.017": 0.0,
			"-0.016": 0.0,
			"-0.015": 0.0,
			"-0.014": 0.0,
			"-0.013": 0.0,
			"-0.012": 0.0,
			"-0.011": 0.0,
			"-0.01": 0.0,
			"-0.009": 0.00043105963074,
			"-0.008": 3.2287945417,
			"-0.007": 13.0772505831,
			"-0.006": 16.562340398,
			"-0.005": 19.0410814186,
			"-0.004": 28.1399938351,
			"-0.003": 29.8324540106,
			"-0.002": 28.9065997678,
			"-0.001": 35.1009854483,
			"0.0": 42.4862007294,
			"0.001": 34.2879222257,
			"0.002": 27.1765396957,
			"0.003": 17.7506594731,
			"0.004": 10.0137049132,
			"0.005": 7.71214319889,
			"0.006": 7.55392820378,
			"0.007": 4.27137950754,
			"0.008": 4.38990631127,
			"0.009": 4.50957584838,
			"0.01": 4.44581292269,
			"0.011": 4.95626633573,
			"0.012": 7.17319915381,
			"0.013": 3.55049490853,
			"0.014": 0.260841951421,
			"0.015": 0.0,
			"0.016": 0.0,
			"0.017": 0.0,
			"0.018": 0.0,
			"0.019": 0.0,
			"0.02": 0.0,
			"0.021": 0.0,
			"0.022": 0.0,
			"0.023": 0.0,
			"0.024": 0.0,
			"0.025": 0.0
		}
	}
}
