{
	 "smiles": "CNC(=O)OCC(F)(F)F", 
	 "Tm": 309.15, 
	 "num_atms": 16, 
	 "gaussian": { 
		 "optdone": 1, 
		 "sigma_profile": "yes", 
		 "theory": "DFT", 
		 "functional": "B3LYP", 
		 "basiset": "6-31G**", 
		 "properties": { 
			 "R2extent": 3298.01, 
			 "electric_dipole_moment_norm": 3.12452874687, 
			 "electric_quadrupole_moment_norm": 10.479711747, 
			 "total_energy": -660.783331871, 
			 "HOMO_LUMO_gap": 0.3075, 
			 "cosmo_polarized_energy": -9.61, 
			 "cosmo_cavitation_energy": 21.98, 
			 "cosmo_dispersion_energy": -15.33, 
			 "cosmo_repulsion_energy": 1.23, 
			 "cosmo_total_nonelectrostatic_energy": 7.89, 
			 "SMD_solvation_energy": 5.92 
		},
		"coords": [
			{
				"x": -1.7163351118,
				"y": 3.1200779876,
				"z": 0.4436694846,
				"element": "C" 
			},
			{
				"x": -0.7202124844,
				"y": 2.0712841227,
				"z": 0.2793436278,
				"element": "N" 
			},
			{
				"x": -0.9788306197,
				"y": 0.7688101487,
				"z": -0.003490575,
				"element": "C" 
			},
			{
				"x": -0.1535432401,
				"y": -0.1238799504,
				"z": -0.0278453098,
				"element": "O" 
			},
			{
				"x": -2.3133296883,
				"y": 0.600993819,
				"z": -0.2967197111,
				"element": "O" 
			},
			{
				"x": -2.7273832076,
				"y": -0.7371974512,
				"z": -0.5299739953,
				"element": "C" 
			},
			{
				"x": -3.5271258274,
				"y": -1.2354482499,
				"z": 0.6610492082,
				"element": "C" 
			},
			{
				"x": -2.8015270675,
				"y": -1.2024587668,
				"z": 1.7938811123,
				"element": "F" 
			},
			{
				"x": -4.6367938689,
				"y": -0.4984610141,
				"z": 0.8650229096,
				"element": "F" 
			},
			{
				"x": -3.9125105513,
				"y": -2.5108984894,
				"z": 0.4418408674,
				"element": "F" 
			},
			{
				"x": -2.3180229209,
				"y": 2.9866625484,
				"z": 1.3505029642,
				"element": "H" 
			},
			{
				"x": -2.3896854349,
				"y": 3.1447508953,
				"z": -0.4154475509,
				"element": "H" 
			},
			{
				"x": -1.1985451854,
				"y": 4.0793885145,
				"z": 0.5052559721,
				"element": "H" 
			},
			{
				"x": 0.230320532,
				"y": 2.2394629193,
				"z": 0.5696297986,
				"element": "H" 
			},
			{
				"x": -1.861988477,
				"y": -1.386238178,
				"z": -0.6760364821,
				"element": "H" 
			},
			{
				"x": -3.3703868467,
				"y": -0.7481488558,
				"z": -1.4128823207,
				"element": "H" 
			}
		],
		 "valence_orbital": [ 
			{
				"type": "occ",
				"energy": -0.38639,
				"method": "rhf"
			},
			{
				"type": "occ",
				"energy": -0.3657,
				"method": "rhf"
			},
			{
				"type": "occ",
				"energy": -0.30915,
				"method": "rhf"
			},
			{
				"type": "occ",
				"energy": -0.28315,
				"method": "rhf"
			},
			{
				"type": "occ",
				"energy": -0.26324,
				"method": "rhf"
			},
			{
				"type": "unocc",
				"energy": 0.04426,
				"method": "rhf"
			},
			{
				"type": "unocc",
				"energy": 0.06889,
				"method": "rhf"
			},
			{
				"type": "unocc",
				"energy": 0.10471,
				"method": "rhf"
			},
			{
				"type": "unocc",
				"energy": 0.11845,
				"method": "rhf"
			},
			{
				"type": "unocc",
				"energy": 0.1206,
				"method": "rhf"
			}
		],
		"cosmo_sigma_profile": { 
			"-0.025": 0.0,
			"-0.024": 0.0,
			"-0.023": 0.0,
			"-0.022": 0.0,
			"-0.021": 0.0,
			"-0.02": 0.0,
			"-0.019": 0.0,
			"-0.018": 0.0,
			"-0.017": 0.0,
			"-0.016": 0.0,
			"-0.015": 0.386584556734,
			"-0.014": 1.34268909754,
			"-0.013": 0.775375040794,
			"-0.012": 1.40401975288,
			"-0.011": 0.935582199836,
			"-0.01": 1.02789444451,
			"-0.009": 3.04635930706,
			"-0.008": 4.25763304386,
			"-0.007": 5.49364910522,
			"-0.006": 6.26153004949,
			"-0.005": 8.75851090748,
			"-0.004": 10.1207381035,
			"-0.003": 9.92398855492,
			"-0.002": 12.7346962441,
			"-0.001": 8.71515016613,
			"0.0": 10.1264914568,
			"0.001": 10.8379498935,
			"0.002": 24.6993029741,
			"0.003": 26.7148871217,
			"0.004": 6.26402831588,
			"0.005": 3.41986093973,
			"0.006": 2.41415198104,
			"0.007": 0.961714584276,
			"0.008": 1.40378860361,
			"0.009": 1.22560685591,
			"0.01": 0.923908100456,
			"0.011": 2.23298436956,
			"0.012": 3.46820660828,
			"0.013": 3.95918520432,
			"0.014": 0.303096431776,
			"0.015": 0.0,
			"0.016": 0.0,
			"0.017": 0.0,
			"0.018": 0.0,
			"0.019": 0.0,
			"0.02": 0.0,
			"0.021": 0.0,
			"0.022": 0.0,
			"0.023": 0.0,
			"0.024": 0.0,
			"0.025": 0.0
		}
	}
}
