{
	 "smiles": "BrC(Br)C1=CC=CC=C1C(Br)Br", 
	 "Tm": 389.15, 
	 "num_atms": 18, 
	 "gaussian": { 
		 "optdone": 1, 
		 "sigma_profile": "yes", 
		 "theory": "DFT", 
		 "functional": "B3LYP", 
		 "basiset": "6-31G**", 
		 "properties": { 
			 "R2extent": 9001.0479, 
			 "electric_dipole_moment_norm": 3.62544213166, 
			 "electric_quadrupole_moment_norm": 10.9319934861, 
			 "total_energy": -10594.0732863, 
			 "HOMO_LUMO_gap": 0.19405, 
			 "cosmo_polarized_energy": -8.02, 
			 "cosmo_cavitation_energy": 30.27, 
			 "cosmo_dispersion_energy": -22.42, 
			 "cosmo_repulsion_energy": 1.79, 
			 "cosmo_total_nonelectrostatic_energy": 9.63, 
			 "SMD_solvation_energy": 0.47 
		},
		"coords": [
			{
				"x": 0.3977930314,
				"y": -4.2258859574,
				"z": -0.9129861544,
				"element": "Br" 
			},
			{
				"x": 0.1788214066,
				"y": -3.1855614206,
				"z": 0.7556178913,
				"element": "C" 
			},
			{
				"x": -0.0751159359,
				"y": -4.4137461971,
				"z": 2.2859077095,
				"element": "Br" 
			},
			{
				"x": -0.9525857381,
				"y": -2.2033255136,
				"z": 0.6460228209,
				"element": "C" 
			},
			{
				"x": -2.2496132821,
				"y": -2.6828157761,
				"z": 0.4257886211,
				"element": "C" 
			},
			{
				"x": -3.3349002219,
				"y": -1.8200738448,
				"z": 0.3158373671,
				"element": "C" 
			},
			{
				"x": -3.1376874128,
				"y": -0.4435360184,
				"z": 0.4259648812,
				"element": "C" 
			},
			{
				"x": -1.8550939741,
				"y": 0.0490338356,
				"z": 0.6449450503,
				"element": "C" 
			},
			{
				"x": -0.7486492991,
				"y": -0.8091340704,
				"z": 0.7583353363,
				"element": "C" 
			},
			{
				"x": 0.5708651468,
				"y": -0.136790213,
				"z": 0.9937640539,
				"element": "C" 
			},
			{
				"x": 1.3912239898,
				"y": -0.5998256649,
				"z": 2.7369743445,
				"element": "Br" 
			},
			{
				"x": 1.8681957258,
				"y": -0.4088884901,
				"z": -0.4790412683,
				"element": "Br" 
			},
			{
				"x": 1.144896024,
				"y": -2.7304459479,
				"z": 0.9251150818,
				"element": "H" 
			},
			{
				"x": -2.3973246933,
				"y": -3.7544651435,
				"z": 0.3409094304,
				"element": "H" 
			},
			{
				"x": -4.3289242487,
				"y": -2.2214866365,
				"z": 0.145037891,
				"element": "H" 
			},
			{
				"x": -3.974272926,
				"y": 0.2431363626,
				"z": 0.3424070321,
				"element": "H" 
			},
			{
				"x": -1.7023428959,
				"y": 1.1212468327,
				"z": 0.7307001812,
				"element": "H" 
			},
			{
				"x": 0.4512153035,
				"y": 0.9396638633,
				"z": 1.0398997301,
				"element": "H" 
			}
		],
		 "valence_orbital": [ 
			{
				"type": "occ",
				"energy": -0.28697,
				"method": "rhf"
			},
			{
				"type": "occ",
				"energy": -0.28185,
				"method": "rhf"
			},
			{
				"type": "occ",
				"energy": -0.27286,
				"method": "rhf"
			},
			{
				"type": "occ",
				"energy": -0.26864,
				"method": "rhf"
			},
			{
				"type": "occ",
				"energy": -0.26031,
				"method": "rhf"
			},
			{
				"type": "unocc",
				"energy": -0.06626,
				"method": "rhf"
			},
			{
				"type": "unocc",
				"energy": -0.05072,
				"method": "rhf"
			},
			{
				"type": "unocc",
				"energy": -0.03933,
				"method": "rhf"
			},
			{
				"type": "unocc",
				"energy": -0.03687,
				"method": "rhf"
			},
			{
				"type": "unocc",
				"energy": 0.02647,
				"method": "rhf"
			}
		],
		"cosmo_sigma_profile": { 
			"-0.025": 0.0,
			"-0.024": 0.0,
			"-0.023": 0.0,
			"-0.022": 0.0,
			"-0.021": 0.0,
			"-0.02": 0.0,
			"-0.019": 0.0,
			"-0.018": 0.0,
			"-0.017": 0.0,
			"-0.016": 0.0,
			"-0.015": 0.0,
			"-0.014": 0.0,
			"-0.013": 0.0,
			"-0.012": 0.519212347428,
			"-0.011": 2.61263348897,
			"-0.01": 2.00249330942,
			"-0.009": 1.92756551029,
			"-0.008": 3.46362472955,
			"-0.007": 7.66545017583,
			"-0.006": 10.4184644944,
			"-0.005": 11.8324917774,
			"-0.004": 13.9584287897,
			"-0.003": 13.4800333313,
			"-0.002": 13.1973953935,
			"-0.001": 15.5128342384,
			"0.0": 16.3915267192,
			"0.001": 21.5705910742,
			"0.002": 32.4998626351,
			"0.003": 34.1177352431,
			"0.004": 41.6570104807,
			"0.005": 12.1058103844,
			"0.006": 0.0,
			"0.007": 0.0,
			"0.008": 0.0,
			"0.009": 0.0,
			"0.01": 0.0,
			"0.011": 0.0,
			"0.012": 0.0,
			"0.013": 0.0,
			"0.014": 0.0,
			"0.015": 0.0,
			"0.016": 0.0,
			"0.017": 0.0,
			"0.018": 0.0,
			"0.019": 0.0,
			"0.02": 0.0,
			"0.021": 0.0,
			"0.022": 0.0,
			"0.023": 0.0,
			"0.024": 0.0,
			"0.025": 0.0
		}
	}
}
