{
	 "smiles": "COC(=O)N1CCC(N)CC1", 
	 "Tm": 314.15, 
	 "num_atms": 25, 
	 "gaussian": { 
		 "optdone": 1, 
		 "sigma_profile": "yes", 
		 "theory": "DFT", 
		 "functional": "B3LYP", 
		 "basiset": "6-31G**", 
		 "properties": { 
			 "R2extent": 2692.648, 
			 "electric_dipole_moment_norm": 3.19308403115, 
			 "electric_quadrupole_moment_norm": 17.8227393927, 
			 "total_energy": -535.147185201, 
			 "HOMO_LUMO_gap": 0.29023, 
			 "cosmo_polarized_energy": -11.7, 
			 "cosmo_cavitation_energy": 26.41, 
			 "cosmo_dispersion_energy": -19.67, 
			 "cosmo_repulsion_energy": 1.61, 
			 "cosmo_total_nonelectrostatic_energy": 8.34, 
			 "SMD_solvation_energy": 4.33 
		},
		"coords": [
			{
				"x": -2.3483188274,
				"y": -1.3138029802,
				"z": 3.1921252639,
				"element": "C" 
			},
			{
				"x": -1.7183715279,
				"y": -0.7463054589,
				"z": 2.0388167573,
				"element": "O" 
			},
			{
				"x": -2.1284886577,
				"y": -1.2832913484,
				"z": 0.8529003337,
				"element": "C" 
			},
			{
				"x": -2.9478732499,
				"y": -2.1869464525,
				"z": 0.7727576951,
				"element": "O" 
			},
			{
				"x": -1.5119393769,
				"y": -0.6827988695,
				"z": -0.2041115705,
				"element": "N" 
			},
			{
				"x": -0.5071944742,
				"y": 0.381200317,
				"z": -0.0531078029,
				"element": "C" 
			},
			{
				"x": -0.408164813,
				"y": 1.1719622928,
				"z": -1.3579194319,
				"element": "C" 
			},
			{
				"x": 0.0494022489,
				"y": 0.2907898532,
				"z": -2.5418693349,
				"element": "C" 
			},
			{
				"x": 1.5182200694,
				"y": 0.2374779604,
				"z": -2.5672010451,
				"element": "N" 
			},
			{
				"x": -0.4938563099,
				"y": -1.1501468703,
				"z": -2.3863140117,
				"element": "C" 
			},
			{
				"x": -1.7721548659,
				"y": -1.208162608,
				"z": -1.5485022208,
				"element": "C" 
			},
			{
				"x": -3.4310184172,
				"y": -1.1649760954,
				"z": 3.1605535576,
				"element": "H" 
			},
			{
				"x": -2.1460718067,
				"y": -2.385821872,
				"z": 3.2600996549,
				"element": "H" 
			},
			{
				"x": -1.9181206418,
				"y": -0.7909901414,
				"z": 4.0474500121,
				"element": "H" 
			},
			{
				"x": 0.4755031433,
				"y": -0.041684854,
				"z": 0.1952345775,
				"element": "H" 
			},
			{
				"x": -0.8045297709,
				"y": 1.0299453002,
				"z": 0.7724805667,
				"element": "H" 
			},
			{
				"x": -1.3861238196,
				"y": 1.6131561518,
				"z": -1.583565842,
				"element": "H" 
			},
			{
				"x": 0.2923591899,
				"y": 2.0039705959,
				"z": -1.2244039257,
				"element": "H" 
			},
			{
				"x": -0.3749296342,
				"y": 0.7251173108,
				"z": -3.4641546864,
				"element": "H" 
			},
			{
				"x": 1.8945599105,
				"y": 1.1465773677,
				"z": -2.8285109479,
				"element": "H" 
			},
			{
				"x": 1.8300014643,
				"y": -0.4154013297,
				"z": -3.2833999094,
				"element": "H" 
			},
			{
				"x": -0.6767993724,
				"y": -1.6032628829,
				"z": -3.3671439171,
				"element": "H" 
			},
			{
				"x": 0.2773963402,
				"y": -1.7497100578,
				"z": -1.8881136863,
				"element": "H" 
			},
			{
				"x": -2.5767336481,
				"y": -0.6377584439,
				"z": -2.0365203423,
				"element": "H" 
			},
			{
				"x": -2.1313531528,
				"y": -2.2324368848,
				"z": -1.4388797438,
				"element": "H" 
			}
		],
		 "valence_orbital": [ 
			{
				"type": "occ",
				"energy": -0.32533,
				"method": "rhf"
			},
			{
				"type": "occ",
				"energy": -0.28265,
				"method": "rhf"
			},
			{
				"type": "occ",
				"energy": -0.25636,
				"method": "rhf"
			},
			{
				"type": "occ",
				"energy": -0.24045,
				"method": "rhf"
			},
			{
				"type": "occ",
				"energy": -0.22586,
				"method": "rhf"
			},
			{
				"type": "unocc",
				"energy": 0.06437,
				"method": "rhf"
			},
			{
				"type": "unocc",
				"energy": 0.07342,
				"method": "rhf"
			},
			{
				"type": "unocc",
				"energy": 0.10106,
				"method": "rhf"
			},
			{
				"type": "unocc",
				"energy": 0.11805,
				"method": "rhf"
			},
			{
				"type": "unocc",
				"energy": 0.12522,
				"method": "rhf"
			}
		],
		"cosmo_sigma_profile": { 
			"-0.025": 0.0,
			"-0.024": 0.0,
			"-0.023": 0.0,
			"-0.022": 0.0,
			"-0.021": 0.0,
			"-0.02": 0.0,
			"-0.019": 0.0,
			"-0.018": 0.0,
			"-0.017": 0.0,
			"-0.016": 0.0,
			"-0.015": 0.0,
			"-0.014": 0.0,
			"-0.013": 0.0,
			"-0.012": 0.0,
			"-0.011": 0.0,
			"-0.01": 0.425208774239,
			"-0.009": 2.83903478869,
			"-0.008": 2.38738735056,
			"-0.007": 3.40122467236,
			"-0.006": 5.52555030085,
			"-0.005": 8.85772556797,
			"-0.004": 18.5860686457,
			"-0.003": 29.5638530669,
			"-0.002": 33.7527496784,
			"-0.001": 23.1133954628,
			"0.0": 15.6042442714,
			"0.001": 8.20694744581,
			"0.002": 6.79283287322,
			"0.003": 4.88140225202,
			"0.004": 4.46312207147,
			"0.005": 5.30428778089,
			"0.006": 3.5463429139,
			"0.007": 3.68576098756,
			"0.008": 3.71892878694,
			"0.009": 2.12962210969,
			"0.01": 1.56435760001,
			"0.011": 2.52013203428,
			"0.012": 2.59828023053,
			"0.013": 3.41878882032,
			"0.014": 5.2345749127,
			"0.015": 0.795740046542,
			"0.016": 0.586781666623,
			"0.017": 0.375306126131,
			"0.018": 0.423514164983,
			"0.019": 0.104498094525,
			"0.02": 0.0,
			"0.021": 0.0,
			"0.022": 0.0,
			"0.023": 0.0,
			"0.024": 0.0,
			"0.025": 0.0
		}
	}
}
