{
	 "smiles": "O=C(C1=CC=CC=C1)C1=CC(=CC(=C1)C(=O)C1=CC=CC=C1)C(=O)C1=CC=CC=C1", 
	 "Tm": 390.65, 
	 "num_atms": 48, 
	 "gaussian": { 
		 "optdone": 1, 
		 "sigma_profile": "yes", 
		 "theory": "DFT", 
		 "functional": "B3LYP", 
		 "basiset": "6-31G**", 
		 "properties": { 
			 "R2extent": 15831.6885, 
			 "electric_dipole_moment_norm": 4.86457217235, 
			 "electric_quadrupole_moment_norm": 40.0753523706, 
			 "total_energy": -1265.39888314, 
			 "HOMO_LUMO_gap": 0.16963, 
			 "cosmo_polarized_energy": -18.79, 
			 "cosmo_cavitation_energy": 54.02, 
			 "cosmo_dispersion_energy": -36.55, 
			 "cosmo_repulsion_energy": 2.76, 
			 "cosmo_total_nonelectrostatic_energy": 20.24, 
			 "SMD_solvation_energy": 10.15 
		},
		"coords": [
			{
				"x": -3.4669904366,
				"y": -3.00077373,
				"z": -0.4110447466,
				"element": "O" 
			},
			{
				"x": -3.1017774527,
				"y": -1.9015562159,
				"z": -0.0117928387,
				"element": "C" 
			},
			{
				"x": -4.1081735129,
				"y": -0.8360298511,
				"z": 0.2955830522,
				"element": "C" 
			},
			{
				"x": -5.3614431026,
				"y": -0.924084826,
				"z": -0.3330032667,
				"element": "C" 
			},
			{
				"x": -6.354579333,
				"y": 0.0107575738,
				"z": -0.059396199,
				"element": "C" 
			},
			{
				"x": -6.1171933881,
				"y": 1.0331037382,
				"z": 0.8650430573,
				"element": "C" 
			},
			{
				"x": -4.8842245614,
				"y": 1.1147566397,
				"z": 1.5138697378,
				"element": "C" 
			},
			{
				"x": -3.8807610331,
				"y": 0.1885578802,
				"z": 1.2278708726,
				"element": "C" 
			},
			{
				"x": -1.6285832837,
				"y": -1.639014686,
				"z": 0.158938948,
				"element": "C" 
			},
			{
				"x": -1.0479132685,
				"y": -0.3839082272,
				"z": -0.05146797,
				"element": "C" 
			},
			{
				"x": 0.3387328481,
				"y": -0.205640622,
				"z": 0.0652187036,
				"element": "C" 
			},
			{
				"x": 1.1507687092,
				"y": -1.3111740225,
				"z": 0.3494393413,
				"element": "C" 
			},
			{
				"x": 0.5857855127,
				"y": -2.5828887878,
				"z": 0.5319010009,
				"element": "C" 
			},
			{
				"x": -0.8018392575,
				"y": -2.7326659939,
				"z": 0.4494432651,
				"element": "C" 
			},
			{
				"x": 1.4033130926,
				"y": -3.7900613555,
				"z": 0.9059972185,
				"element": "C" 
			},
			{
				"x": 0.9129260337,
				"y": -4.639170024,
				"z": 1.6403232934,
				"element": "O" 
			},
			{
				"x": 2.8012551573,
				"y": -3.9508425179,
				"z": 0.391427612,
				"element": "C" 
			},
			{
				"x": 3.2419724415,
				"y": -3.3863243388,
				"z": -0.8160970854,
				"element": "C" 
			},
			{
				"x": 4.5386287675,
				"y": -3.6260908442,
				"z": -1.2724340892,
				"element": "C" 
			},
			{
				"x": 5.4080138747,
				"y": -4.4208247237,
				"z": -0.523728639,
				"element": "C" 
			},
			{
				"x": 4.9740349012,
				"y": -4.993354853,
				"z": 0.6763777239,
				"element": "C" 
			},
			{
				"x": 3.6761062001,
				"y": -4.7697694155,
				"z": 1.1244688921,
				"element": "C" 
			},
			{
				"x": 0.889785479,
				"y": 1.1639338487,
				"z": -0.2220102991,
				"element": "C" 
			},
			{
				"x": 0.2832103273,
				"y": 1.9051360756,
				"z": -0.9871897343,
				"element": "O" 
			},
			{
				"x": 2.1668105462,
				"y": 1.6228803191,
				"z": 0.4140217187,
				"element": "C" 
			},
			{
				"x": 2.9066913801,
				"y": 2.6138820865,
				"z": -0.2521424193,
				"element": "C" 
			},
			{
				"x": 4.0780610148,
				"y": 3.1147871516,
				"z": 0.3070187988,
				"element": "C" 
			},
			{
				"x": 4.5128470109,
				"y": 2.6504783079,
				"z": 1.5525974057,
				"element": "C" 
			},
			{
				"x": 3.7709171649,
				"y": 1.6852348073,
				"z": 2.2351124463,
				"element": "C" 
			},
			{
				"x": 2.6057218942,
				"y": 1.1680903998,
				"z": 1.6676860529,
				"element": "C" 
			},
			{
				"x": -5.5313682038,
				"y": -1.7363172877,
				"z": -1.0317808676,
				"element": "H" 
			},
			{
				"x": -7.3157338466,
				"y": -0.0570798436,
				"z": -0.5605067178,
				"element": "H" 
			},
			{
				"x": -6.8941275563,
				"y": 1.7605566277,
				"z": 1.0823157079,
				"element": "H" 
			},
			{
				"x": -4.7030893217,
				"y": 1.8978412227,
				"z": 2.2441053664,
				"element": "H" 
			},
			{
				"x": -2.9315001865,
				"y": 0.2485339506,
				"z": 1.749368487,
				"element": "H" 
			},
			{
				"x": -1.6501957646,
				"y": 0.4737791895,
				"z": -0.3289183258,
				"element": "H" 
			},
			{
				"x": 2.2246743266,
				"y": -1.1853752402,
				"z": 0.4236977303,
				"element": "H" 
			},
			{
				"x": -1.2443737227,
				"y": -3.7103782721,
				"z": 0.603613769,
				"element": "H" 
			},
			{
				"x": 2.5658741873,
				"y": -2.7838318921,
				"z": -1.4135385087,
				"element": "H" 
			},
			{
				"x": 4.8672862388,
				"y": -3.1954969879,
				"z": -2.2136427945,
				"element": "H" 
			},
			{
				"x": 6.4195622948,
				"y": -4.6001489068,
				"z": -0.8767846792,
				"element": "H" 
			},
			{
				"x": 5.6476480752,
				"y": -5.6178662172,
				"z": 1.2558728928,
				"element": "H" 
			},
			{
				"x": 3.312199694,
				"y": -5.2215580814,
				"z": 2.0412582645,
				"element": "H" 
			},
			{
				"x": 2.5405468745,
				"y": 2.9764335919,
				"z": -1.2068750047,
				"element": "H" 
			},
			{
				"x": 4.650866632,
				"y": 3.8709676323,
				"z": -0.2217810562,
				"element": "H" 
			},
			{
				"x": 5.4242822301,
				"y": 3.0456188832,
				"z": 1.9920584475,
				"element": "H" 
			},
			{
				"x": 4.0964168933,
				"y": 1.3362145957,
				"z": 3.2105801731,
				"element": "H" 
			},
			{
				"x": 2.0247274296,
				"y": 0.4319832418,
				"z": 2.2132252623,
				"element": "H" 
			}
		],
		 "valence_orbital": [ 
			{
				"type": "occ",
				"energy": -0.26298,
				"method": "rhf"
			},
			{
				"type": "occ",
				"energy": -0.26112,
				"method": "rhf"
			},
			{
				"type": "occ",
				"energy": -0.2554,
				"method": "rhf"
			},
			{
				"type": "occ",
				"energy": -0.25169,
				"method": "rhf"
			},
			{
				"type": "occ",
				"energy": -0.24793,
				"method": "rhf"
			},
			{
				"type": "unocc",
				"energy": -0.0783,
				"method": "rhf"
			},
			{
				"type": "unocc",
				"energy": -0.07332,
				"method": "rhf"
			},
			{
				"type": "unocc",
				"energy": -0.06079,
				"method": "rhf"
			},
			{
				"type": "unocc",
				"energy": -0.02603,
				"method": "rhf"
			},
			{
				"type": "unocc",
				"energy": -0.02235,
				"method": "rhf"
			}
		],
		"cosmo_sigma_profile": { 
			"-0.025": 0.0,
			"-0.024": 0.0,
			"-0.023": 0.0,
			"-0.022": 0.0,
			"-0.021": 0.0,
			"-0.02": 0.0,
			"-0.019": 0.0,
			"-0.018": 0.0,
			"-0.017": 0.0,
			"-0.016": 0.0,
			"-0.015": 0.0,
			"-0.014": 0.0,
			"-0.013": 0.0,
			"-0.012": 0.0,
			"-0.011": 0.0,
			"-0.01": 0.0,
			"-0.009": 0.0,
			"-0.008": 0.0,
			"-0.007": 6.33288579859,
			"-0.006": 29.8869722439,
			"-0.005": 43.5868083601,
			"-0.004": 46.1952611308,
			"-0.003": 32.8355214975,
			"-0.002": 32.02306539,
			"-0.001": 27.4841007447,
			"0.0": 31.8731599931,
			"0.001": 30.6199411447,
			"0.002": 28.9460717857,
			"0.003": 37.1687856166,
			"0.004": 35.2219007935,
			"0.005": 6.46895122687,
			"0.006": 6.59609158651,
			"0.007": 4.96849207505,
			"0.008": 4.81278100999,
			"0.009": 4.5538277146,
			"0.01": 7.63584494446,
			"0.011": 9.64892782748,
			"0.012": 8.67513129551,
			"0.013": 0.192011678229,
			"0.014": 0.0,
			"0.015": 0.0,
			"0.016": 0.0,
			"0.017": 0.0,
			"0.018": 0.0,
			"0.019": 0.0,
			"0.02": 0.0,
			"0.021": 0.0,
			"0.022": 0.0,
			"0.023": 0.0,
			"0.024": 0.0,
			"0.025": 0.0
		}
	}
}
