{
	 "smiles": "CC(=O)OC1CCC2C3CCC4CC(O)(CCC4(C)C3CCC12C)C#C", 
	 "Tm": 469.15, 
	 "num_atms": 60, 
	 "gaussian": { 
		 "optdone": 1, 
		 "sigma_profile": "yes", 
		 "theory": "DFT", 
		 "functional": "B3LYP", 
		 "basiset": "6-31G**", 
		 "properties": { 
			 "R2extent": 11828.7963, 
			 "electric_dipole_moment_norm": 1.88815854472, 
			 "electric_quadrupole_moment_norm": 26.9694830013, 
			 "total_energy": -1122.56971337, 
			 "HOMO_LUMO_gap": 0.27628, 
			 "cosmo_polarized_energy": -13.04, 
			 "cosmo_cavitation_energy": 52.49, 
			 "cosmo_dispersion_energy": -35.22, 
			 "cosmo_repulsion_energy": 2.6, 
			 "cosmo_total_nonelectrostatic_energy": 19.87, 
			 "SMD_solvation_energy": 9.7 
		},
		"coords": [
			{
				"x": 1.2467539339,
				"y": 4.9958456226,
				"z": 3.7818312952,
				"element": "C" 
			},
			{
				"x": 1.3225853686,
				"y": 3.5703982115,
				"z": 4.2796913644,
				"element": "C" 
			},
			{
				"x": 1.5970748664,
				"y": 3.240562816,
				"z": 5.4131871366,
				"element": "O" 
			},
			{
				"x": 1.0341850611,
				"y": 2.701780617,
				"z": 3.2822279373,
				"element": "O" 
			},
			{
				"x": 1.0577455166,
				"y": 1.2837768361,
				"z": 3.6116479481,
				"element": "C" 
			},
			{
				"x": 2.4713979212,
				"y": 0.7462958215,
				"z": 3.3626627543,
				"element": "C" 
			},
			{
				"x": 2.5103765617,
				"y": 0.5821616661,
				"z": 1.8377359256,
				"element": "C" 
			},
			{
				"x": 1.1366713262,
				"y": -0.0430743859,
				"z": 1.5094354284,
				"element": "C" 
			},
			{
				"x": 0.6450700714,
				"y": 0.0775264912,
				"z": 0.041418281,
				"element": "C" 
			},
			{
				"x": 0.8823251867,
				"y": 1.4043793641,
				"z": -0.7036804449,
				"element": "C" 
			},
			{
				"x": 0.4595478804,
				"y": 1.2541078176,
				"z": -2.1709868094,
				"element": "C" 
			},
			{
				"x": -1.0088040917,
				"y": 0.8075170526,
				"z": -2.3521739674,
				"element": "C" 
			},
			{
				"x": -1.3717531148,
				"y": 0.6182024339,
				"z": -3.8448973327,
				"element": "C" 
			},
			{
				"x": -0.8476661489,
				"y": -0.6769397444,
				"z": -4.5238662011,
				"element": "C" 
			},
			{
				"x": -1.5780713783,
				"y": -0.9004445268,
				"z": -5.7431373567,
				"element": "O" 
			},
			{
				"x": -1.1495223701,
				"y": -1.905713672,
				"z": -3.6420402513,
				"element": "C" 
			},
			{
				"x": -0.7446256117,
				"y": -1.7101752784,
				"z": -2.1739949255,
				"element": "C" 
			},
			{
				"x": -1.3777746665,
				"y": -0.4556584536,
				"z": -1.5085151682,
				"element": "C" 
			},
			{
				"x": -2.9118063502,
				"y": -0.6540610362,
				"z": -1.4663403728,
				"element": "C" 
			},
			{
				"x": -0.8506649506,
				"y": -0.3128150612,
				"z": -0.0358873858,
				"element": "C" 
			},
			{
				"x": -1.7174366001,
				"y": 0.6460709386,
				"z": 0.8383414645,
				"element": "C" 
			},
			{
				"x": -0.9656093733,
				"y": 1.3531307403,
				"z": 1.9890473993,
				"element": "C" 
			},
			{
				"x": 0.1457517919,
				"y": 0.4958399789,
				"z": 2.6180140582,
				"element": "C" 
			},
			{
				"x": -0.4783255475,
				"y": -0.6793027631,
				"z": 3.4016707287,
				"element": "C" 
			},
			{
				"x": 0.5898393346,
				"y": -0.6036745212,
				"z": -4.8566849311,
				"element": "C" 
			},
			{
				"x": 1.7465909052,
				"y": -0.5577576082,
				"z": -5.2056766402,
				"element": "C" 
			},
			{
				"x": 0.2374748563,
				"y": 5.2128066342,
				"z": 3.4191851045,
				"element": "H" 
			},
			{
				"x": 1.9322700904,
				"y": 5.1384542039,
				"z": 2.9413603331,
				"element": "H" 
			},
			{
				"x": 1.5036749496,
				"y": 5.6771610343,
				"z": 4.5923237539,
				"element": "H" 
			},
			{
				"x": 0.7364161262,
				"y": 1.1862475232,
				"z": 4.6501707734,
				"element": "H" 
			},
			{
				"x": 3.23898965,
				"y": 1.408394753,
				"z": 3.7718250801,
				"element": "H" 
			},
			{
				"x": 2.5786008674,
				"y": -0.2262513351,
				"z": 3.8588668049,
				"element": "H" 
			},
			{
				"x": 2.6097744401,
				"y": 1.570577511,
				"z": 1.3776646638,
				"element": "H" 
			},
			{
				"x": 3.3477568193,
				"y": -0.0294951402,
				"z": 1.4859927135,
				"element": "H" 
			},
			{
				"x": 1.2337550816,
				"y": -1.1234570461,
				"z": 1.6864941977,
				"element": "H" 
			},
			{
				"x": 1.2210130204,
				"y": -0.6739219512,
				"z": -0.5153308591,
				"element": "H" 
			},
			{
				"x": 0.3321447331,
				"y": 2.2304691861,
				"z": -0.2392130078,
				"element": "H" 
			},
			{
				"x": 1.941723296,
				"y": 1.6817016195,
				"z": -0.6670953806,
				"element": "H" 
			},
			{
				"x": 0.6000149108,
				"y": 2.2050559697,
				"z": -2.7011310132,
				"element": "H" 
			},
			{
				"x": 1.1322397908,
				"y": 0.5416175647,
				"z": -2.6576019484,
				"element": "H" 
			},
			{
				"x": -1.6353045031,
				"y": 1.6360281903,
				"z": -1.9899602827,
				"element": "H" 
			},
			{
				"x": -1.0277469841,
				"y": 1.4870726355,
				"z": -4.4205355506,
				"element": "H" 
			},
			{
				"x": -2.4595250333,
				"y": 0.5774928103,
				"z": -3.9605872024,
				"element": "H" 
			},
			{
				"x": -1.297132837,
				"y": -0.2267145341,
				"z": -6.3776453361,
				"element": "H" 
			},
			{
				"x": -2.2236841971,
				"y": -2.0926143304,
				"z": -3.7346975453,
				"element": "H" 
			},
			{
				"x": -0.6437247089,
				"y": -2.7780872707,
				"z": -4.0669177878,
				"element": "H" 
			},
			{
				"x": -1.0349759327,
				"y": -2.6024833744,
				"z": -1.6048134056,
				"element": "H" 
			},
			{
				"x": 0.3478015943,
				"y": -1.6582140054,
				"z": -2.1201198392,
				"element": "H" 
			},
			{
				"x": -3.4288898465,
				"y": 0.2313123357,
				"z": -1.0880859849,
				"element": "H" 
			},
			{
				"x": -3.1687144822,
				"y": -1.4951171705,
				"z": -0.8112693699,
				"element": "H" 
			},
			{
				"x": -3.3331235375,
				"y": -0.8715914083,
				"z": -2.4496513833,
				"element": "H" 
			},
			{
				"x": -0.9373127841,
				"y": -1.3165286801,
				"z": 0.4065747391,
				"element": "H" 
			},
			{
				"x": -2.1626126738,
				"y": 1.4289757527,
				"z": 0.2149628852,
				"element": "H" 
			},
			{
				"x": -2.5622382124,
				"y": 0.0792817777,
				"z": 1.243041103,
				"element": "H" 
			},
			{
				"x": -1.6856695141,
				"y": 1.6541511701,
				"z": 2.7607479982,
				"element": "H" 
			},
			{
				"x": -0.5230460011,
				"y": 2.2803049871,
				"z": 1.6228721702,
				"element": "H" 
			},
			{
				"x": 0.289322367,
				"y": -1.2784839359,
				"z": 3.9044172422,
				"element": "H" 
			},
			{
				"x": -1.0310984715,
				"y": -1.3520729674,
				"z": 2.7390669505,
				"element": "H" 
			},
			{
				"x": -1.173864007,
				"y": -0.3159964042,
				"z": 4.1668150868,
				"element": "H" 
			},
			{
				"x": 2.7699356105,
				"y": -0.5158554623,
				"z": -5.4994556378,
				"element": "H" 
			}
		],
		 "valence_orbital": [ 
			{
				"type": "occ",
				"energy": -0.27533,
				"method": "rhf"
			},
			{
				"type": "occ",
				"energy": -0.27389,
				"method": "rhf"
			},
			{
				"type": "occ",
				"energy": -0.26561,
				"method": "rhf"
			},
			{
				"type": "occ",
				"energy": -0.26524,
				"method": "rhf"
			},
			{
				"type": "occ",
				"energy": -0.2599,
				"method": "rhf"
			},
			{
				"type": "unocc",
				"energy": 0.01638,
				"method": "rhf"
			},
			{
				"type": "unocc",
				"energy": 0.03269,
				"method": "rhf"
			},
			{
				"type": "unocc",
				"energy": 0.05193,
				"method": "rhf"
			},
			{
				"type": "unocc",
				"energy": 0.06712,
				"method": "rhf"
			},
			{
				"type": "unocc",
				"energy": 0.07819,
				"method": "rhf"
			}
		],
		"cosmo_sigma_profile": { 
			"-0.025": 0.0,
			"-0.024": 0.0,
			"-0.023": 0.0,
			"-0.022": 0.0,
			"-0.021": 0.0,
			"-0.02": 0.0,
			"-0.019": 0.0,
			"-0.018": 0.0,
			"-0.017": 0.0,
			"-0.016": 0.0273136973633,
			"-0.015": 0.686655692852,
			"-0.014": 0.846261435072,
			"-0.013": 0.629109819049,
			"-0.012": 1.2188680923,
			"-0.011": 2.31912162172,
			"-0.01": 1.66216619674,
			"-0.009": 1.69698390578,
			"-0.008": 2.06325765315,
			"-0.007": 2.7555185702,
			"-0.006": 4.90875819896,
			"-0.005": 8.37796412372,
			"-0.004": 13.183671501,
			"-0.003": 34.6049568382,
			"-0.002": 63.6929050287,
			"-0.001": 70.3108751615,
			"0.0": 59.7199202348,
			"0.001": 44.1567521518,
			"0.002": 21.5451921006,
			"0.003": 11.9447746351,
			"0.004": 10.5603872216,
			"0.005": 9.12914253834,
			"0.006": 9.2490484693,
			"0.007": 6.05577113087,
			"0.008": 3.20409617536,
			"0.009": 1.92243221281,
			"0.01": 3.13951370786,
			"0.011": 4.31494588251,
			"0.012": 5.62904365856,
			"0.013": 4.3587136999,
			"0.014": 0.896112337199,
			"0.015": 0.0,
			"0.016": 0.0,
			"0.017": 0.0,
			"0.018": 0.0,
			"0.019": 0.0,
			"0.02": 0.0,
			"0.021": 0.0,
			"0.022": 0.0,
			"0.023": 0.0,
			"0.024": 0.0,
			"0.025": 0.0
		}
	}
}
