{
	 "smiles": "O=C(CNC1CC1)NC1CC1", 
	 "Tm": 321.15, 
	 "num_atms": 25, 
	 "gaussian": { 
		 "optdone": 1, 
		 "sigma_profile": "yes", 
		 "theory": "DFT", 
		 "functional": "B3LYP", 
		 "basiset": "6-31G**", 
		 "properties": { 
			 "R2extent": 2792.0796, 
			 "electric_dipole_moment_norm": 3.65467302505, 
			 "electric_quadrupole_moment_norm": 3.94211222316, 
			 "total_energy": -497.956802392, 
			 "HOMO_LUMO_gap": 0.24649, 
			 "cosmo_polarized_energy": -11.35, 
			 "cosmo_cavitation_energy": 27.76, 
			 "cosmo_dispersion_energy": -19.6, 
			 "cosmo_repulsion_energy": 1.62, 
			 "cosmo_total_nonelectrostatic_energy": 9.78, 
			 "SMD_solvation_energy": 2.16 
		},
		"coords": [
			{
				"x": -0.1709261374,
				"y": 0.0537908964,
				"z": -1.4590503817,
				"element": "O" 
			},
			{
				"x": 0.0871248673,
				"y": 0.1334515324,
				"z": -0.2633891749,
				"element": "C" 
			},
			{
				"x": 0.013391356,
				"y": -1.0950241608,
				"z": 0.6587122173,
				"element": "C" 
			},
			{
				"x": -0.1270783368,
				"y": -2.3518016118,
				"z": -0.056160848,
				"element": "N" 
			},
			{
				"x": 1.0945940176,
				"y": -2.7936804938,
				"z": -0.6901039944,
				"element": "C" 
			},
			{
				"x": 2.0369397488,
				"y": -3.6286594018,
				"z": 0.1418874794,
				"element": "C" 
			},
			{
				"x": 1.2264830226,
				"y": -4.2672629421,
				"z": -0.9622614939,
				"element": "C" 
			},
			{
				"x": 0.4257196327,
				"y": 1.3325762807,
				"z": 0.3143900143,
				"element": "N" 
			},
			{
				"x": 0.5839101737,
				"y": 1.5945562126,
				"z": 1.7166091548,
				"element": "C" 
			},
			{
				"x": 1.5776281244,
				"y": 2.6532209268,
				"z": 2.1176134487,
				"element": "C" 
			},
			{
				"x": 1.8717476062,
				"y": 1.2052118672,
				"z": 2.4104638785,
				"element": "C" 
			},
			{
				"x": 0.895705505,
				"y": -1.1420975151,
				"z": 1.3040860628,
				"element": "H" 
			},
			{
				"x": -0.8481462615,
				"y": -0.9533382312,
				"z": 1.3282036229,
				"element": "H" 
			},
			{
				"x": -0.8322621946,
				"y": -2.221327696,
				"z": -0.7793847797,
				"element": "H" 
			},
			{
				"x": 1.5504406532,
				"y": -2.1195624539,
				"z": -1.4188351273,
				"element": "H" 
			},
			{
				"x": 1.7335785453,
				"y": -3.8401981072,
				"z": 1.1625434183,
				"element": "H" 
			},
			{
				"x": 3.105790625,
				"y": -3.5026498315,
				"z": -0.0027577797,
				"element": "H" 
			},
			{
				"x": 1.7349979629,
				"y": -4.5804244837,
				"z": -1.8689626209,
				"element": "H" 
			},
			{
				"x": 0.391549448,
				"y": -4.8933698652,
				"z": -0.6643291751,
				"element": "H" 
			},
			{
				"x": 0.3262882137,
				"y": 2.1237511343,
				"z": -0.3105455156,
				"element": "H" 
			},
			{
				"x": -0.3260560649,
				"y": 1.5351060237,
				"z": 2.3145067771,
				"element": "H" 
			},
			{
				"x": 2.1443988171,
				"y": 3.1265427208,
				"z": 1.3213748252,
				"element": "H" 
			},
			{
				"x": 1.313114649,
				"y": 3.3124943043,
				"z": 2.937966744,
				"element": "H" 
			},
			{
				"x": 2.6290787219,
				"y": 0.7178545376,
				"z": 1.8052588623,
				"element": "H" 
			},
			{
				"x": 1.8102873049,
				"y": 0.8563403572,
				"z": 3.4365643855,
				"element": "H" 
			}
		],
		 "valence_orbital": [ 
			{
				"type": "occ",
				"energy": -0.29172,
				"method": "rhf"
			},
			{
				"type": "occ",
				"energy": -0.2754,
				"method": "rhf"
			},
			{
				"type": "occ",
				"energy": -0.25216,
				"method": "rhf"
			},
			{
				"type": "occ",
				"energy": -0.24959,
				"method": "rhf"
			},
			{
				"type": "occ",
				"energy": -0.2186,
				"method": "rhf"
			},
			{
				"type": "unocc",
				"energy": 0.02789,
				"method": "rhf"
			},
			{
				"type": "unocc",
				"energy": 0.08423,
				"method": "rhf"
			},
			{
				"type": "unocc",
				"energy": 0.08732,
				"method": "rhf"
			},
			{
				"type": "unocc",
				"energy": 0.09792,
				"method": "rhf"
			},
			{
				"type": "unocc",
				"energy": 0.11336,
				"method": "rhf"
			}
		],
		"cosmo_sigma_profile": { 
			"-0.025": 0.0,
			"-0.024": 0.0,
			"-0.023": 0.0,
			"-0.022": 0.0,
			"-0.021": 0.0,
			"-0.02": 0.0,
			"-0.019": 0.0,
			"-0.018": 0.0,
			"-0.017": 0.0,
			"-0.016": 0.0,
			"-0.015": 0.0,
			"-0.014": 0.0,
			"-0.013": 0.5594813179,
			"-0.012": 0.974957606229,
			"-0.011": 0.992487052183,
			"-0.01": 0.968169134177,
			"-0.009": 0.473170003204,
			"-0.008": 2.09310473263,
			"-0.007": 1.56149703233,
			"-0.006": 5.74594726094,
			"-0.005": 16.8326069163,
			"-0.004": 22.2079434811,
			"-0.003": 20.5624579051,
			"-0.002": 22.0783290022,
			"-0.001": 23.5428105457,
			"0.0": 20.3072925787,
			"0.001": 15.0384058219,
			"0.002": 13.4204587986,
			"0.003": 10.3343607925,
			"0.004": 7.44443217167,
			"0.005": 5.86366630519,
			"0.006": 3.18612261482,
			"0.007": 2.55954867083,
			"0.008": 1.84671739756,
			"0.009": 2.12883412377,
			"0.01": 1.79400753386,
			"0.011": 2.51324783691,
			"0.012": 1.67018377258,
			"0.013": 3.52193472663,
			"0.014": 4.93645385207,
			"0.015": 0.994163457246,
			"0.016": 0.600781703981,
			"0.017": 0.070492631063,
			"0.018": 0.0,
			"0.019": 0.0,
			"0.02": 0.0,
			"0.021": 0.0,
			"0.022": 0.0,
			"0.023": 0.0,
			"0.024": 0.0,
			"0.025": 0.0
		}
	}
}
