{
	 "smiles": "COC1=C(OC(C)C)C(Cl)=CC(=C1)C#N", 
	 "Tm": 358.15, 
	 "num_atms": 27, 
	 "gaussian": { 
		 "optdone": 1, 
		 "sigma_profile": "yes", 
		 "theory": "DFT", 
		 "functional": "B3LYP", 
		 "basiset": "6-31G**", 
		 "properties": { 
			 "R2extent": 4068.2062, 
			 "electric_dipole_moment_norm": 5.0757794367, 
			 "electric_quadrupole_moment_norm": 16.5629835869, 
			 "total_energy": -1091.75769249, 
			 "HOMO_LUMO_gap": 0.19598, 
			 "cosmo_polarized_energy": -9.79, 
			 "cosmo_cavitation_energy": 33.28, 
			 "cosmo_dispersion_energy": -22.41, 
			 "cosmo_repulsion_energy": 1.77, 
			 "cosmo_total_nonelectrostatic_energy": 12.64, 
			 "SMD_solvation_energy": 7.9 
		},
		"coords": [
			{
				"x": 0.0783021394,
				"y": 2.4084891022,
				"z": -0.9618318634,
				"element": "C" 
			},
			{
				"x": 0.6003903556,
				"y": 1.6116885197,
				"z": 0.1121904209,
				"element": "O" 
			},
			{
				"x": 0.5998469025,
				"y": 0.2593596845,
				"z": -0.0905483067,
				"element": "C" 
			},
			{
				"x": -0.6102290601,
				"y": -0.471100359,
				"z": -0.1365743213,
				"element": "C" 
			},
			{
				"x": -1.7977171832,
				"y": 0.1888217783,
				"z": -0.0773860971,
				"element": "O" 
			},
			{
				"x": -2.5466789272,
				"y": 0.1291837103,
				"z": 1.1798908559,
				"element": "C" 
			},
			{
				"x": -1.9608193974,
				"y": 1.1057505666,
				"z": 2.1940714685,
				"element": "C" 
			},
			{
				"x": -3.9898209762,
				"y": 0.4349378162,
				"z": 0.8101036303,
				"element": "C" 
			},
			{
				"x": -0.5366459306,
				"y": -1.8646859656,
				"z": -0.3180812078,
				"element": "C" 
			},
			{
				"x": -2.0138230667,
				"y": -2.7963000636,
				"z": -0.4591344213,
				"element": "Cl" 
			},
			{
				"x": 0.6825271806,
				"y": -2.5285150744,
				"z": -0.4095368697,
				"element": "C" 
			},
			{
				"x": 1.8712036949,
				"y": -1.7884234778,
				"z": -0.3308414238,
				"element": "C" 
			},
			{
				"x": 1.8260972541,
				"y": -0.3941805203,
				"z": -0.1843081472,
				"element": "C" 
			},
			{
				"x": 3.1344096822,
				"y": -2.4606449715,
				"z": -0.4178651539,
				"element": "C" 
			},
			{
				"x": 4.1599969717,
				"y": -3.0050227096,
				"z": -0.4882547349,
				"element": "N" 
			},
			{
				"x": 0.1649681804,
				"y": 3.4456932748,
				"z": -0.6338222619,
				"element": "H" 
			},
			{
				"x": 0.6738701163,
				"y": 2.2653084988,
				"z": -1.8717199337,
				"element": "H" 
			},
			{
				"x": -0.9685921075,
				"y": 2.1673183865,
				"z": -1.1614992659,
				"element": "H" 
			},
			{
				"x": -2.4738240142,
				"y": -0.8947201564,
				"z": 1.5643360115,
				"element": "H" 
			},
			{
				"x": -2.5084802285,
				"y": 1.0302985635,
				"z": 3.139493631,
				"element": "H" 
			},
			{
				"x": -2.0384298635,
				"y": 2.1344569228,
				"z": 1.8299721792,
				"element": "H" 
			},
			{
				"x": -0.9076024627,
				"y": 0.8928608489,
				"z": 2.3930176592,
				"element": "H" 
			},
			{
				"x": -4.6233566672,
				"y": 0.3978731907,
				"z": 1.7014405881,
				"element": "H" 
			},
			{
				"x": -4.3632089217,
				"y": -0.2911226797,
				"z": 0.0839052106,
				"element": "H" 
			},
			{
				"x": -4.0682257617,
				"y": 1.4358844954,
				"z": 0.3737547552,
				"element": "H" 
			},
			{
				"x": 0.7086529888,
				"y": -3.6027900608,
				"z": -0.5448504704,
				"element": "H" 
			},
			{
				"x": 2.7359891017,
				"y": 0.1919806796,
				"z": -0.1293219314,
				"element": "H" 
			}
		],
		 "valence_orbital": [ 
			{
				"type": "occ",
				"energy": -0.32079,
				"method": "rhf"
			},
			{
				"type": "occ",
				"energy": -0.30367,
				"method": "rhf"
			},
			{
				"type": "occ",
				"energy": -0.28984,
				"method": "rhf"
			},
			{
				"type": "occ",
				"energy": -0.26188,
				"method": "rhf"
			},
			{
				"type": "occ",
				"energy": -0.25205,
				"method": "rhf"
			},
			{
				"type": "unocc",
				"energy": -0.05607,
				"method": "rhf"
			},
			{
				"type": "unocc",
				"energy": -0.02999,
				"method": "rhf"
			},
			{
				"type": "unocc",
				"energy": 0.00995,
				"method": "rhf"
			},
			{
				"type": "unocc",
				"energy": 0.0348,
				"method": "rhf"
			},
			{
				"type": "unocc",
				"energy": 0.06757,
				"method": "rhf"
			}
		],
		"cosmo_sigma_profile": { 
			"-0.025": 0.0,
			"-0.024": 0.0,
			"-0.023": 0.0,
			"-0.022": 0.0,
			"-0.021": 0.0,
			"-0.02": 0.0,
			"-0.019": 0.0,
			"-0.018": 0.0,
			"-0.017": 0.0,
			"-0.016": 0.0,
			"-0.015": 0.0,
			"-0.014": 0.0,
			"-0.013": 0.0,
			"-0.012": 0.0,
			"-0.011": 0.0,
			"-0.01": 0.123653286886,
			"-0.009": 1.98475568829,
			"-0.008": 3.82088301167,
			"-0.007": 3.38991138309,
			"-0.006": 4.91282641307,
			"-0.005": 10.1949606417,
			"-0.004": 23.9602387783,
			"-0.003": 31.1312468579,
			"-0.002": 29.5660794716,
			"-0.001": 29.1938445132,
			"0.0": 35.4500868892,
			"0.001": 21.3846984782,
			"0.002": 10.6957710217,
			"0.003": 13.0350037036,
			"0.004": 10.6637845576,
			"0.005": 5.99440144018,
			"0.006": 5.46459963921,
			"0.007": 5.24582840199,
			"0.008": 5.20662019271,
			"0.009": 4.70282009802,
			"0.01": 4.30162813472,
			"0.011": 3.2689815711,
			"0.012": 2.31029364453,
			"0.013": 1.12669087265,
			"0.014": 0.0,
			"0.015": 0.0,
			"0.016": 0.0,
			"0.017": 0.0,
			"0.018": 0.0,
			"0.019": 0.0,
			"0.02": 0.0,
			"0.021": 0.0,
			"0.022": 0.0,
			"0.023": 0.0,
			"0.024": 0.0,
			"0.025": 0.0
		}
	}
}
