{
	 "smiles": "NC(=O)C1=C(Cl)C(Cl)=CC=C1", 
	 "Tm": 444.15, 
	 "num_atms": 16, 
	 "gaussian": { 
		 "optdone": 1, 
		 "sigma_profile": "yes", 
		 "theory": "DFT", 
		 "functional": "B3LYP", 
		 "basiset": "6-31G**", 
		 "properties": { 
			 "R2extent": 2353.7275, 
			 "electric_dipole_moment_norm": 5.02146100353, 
			 "electric_quadrupole_moment_norm": 11.8951464573, 
			 "total_energy": -1320.12449129, 
			 "HOMO_LUMO_gap": 0.21122, 
			 "cosmo_polarized_energy": -14.83, 
			 "cosmo_cavitation_energy": 24.2, 
			 "cosmo_dispersion_energy": -18.02, 
			 "cosmo_repulsion_energy": 1.47, 
			 "cosmo_total_nonelectrostatic_energy": 7.65, 
			 "SMD_solvation_energy": 4.49 
		},
		"coords": [
			{
				"x": -0.0141569997,
				"y": 2.9827585748,
				"z": 1.3602097321,
				"element": "N" 
			},
			{
				"x": -0.605327789,
				"y": 1.8733508385,
				"z": 0.8098538796,
				"element": "C" 
			},
			{
				"x": -1.7878436678,
				"y": 1.8275893536,
				"z": 0.5198304487,
				"element": "O" 
			},
			{
				"x": 0.3236841665,
				"y": 0.6842064694,
				"z": 0.6798679198,
				"element": "C" 
			},
			{
				"x": 0.437666292,
				"y": -0.0465638355,
				"z": -0.5162390553,
				"element": "C" 
			},
			{
				"x": -0.392986066,
				"y": 0.4775321334,
				"z": -1.9554674107,
				"element": "Cl" 
			},
			{
				"x": 1.2613280233,
				"y": -1.1821265267,
				"z": -0.5539751837,
				"element": "C" 
			},
			{
				"x": 1.454200227,
				"y": -2.1150129814,
				"z": -2.0187833899,
				"element": "Cl" 
			},
			{
				"x": 1.955593795,
				"y": -1.5950536237,
				"z": 0.5855990526,
				"element": "C" 
			},
			{
				"x": 1.8427751739,
				"y": -0.8706783544,
				"z": 1.7678688624,
				"element": "C" 
			},
			{
				"x": 1.0368021206,
				"y": 0.265119906,
				"z": 1.8098020672,
				"element": "C" 
			},
			{
				"x": -0.5775977893,
				"y": 3.8201851908,
				"z": 1.4020141346,
				"element": "H" 
			},
			{
				"x": 0.988531225,
				"y": 3.0870559696,
				"z": 1.357697107,
				"element": "H" 
			},
			{
				"x": 2.5787371341,
				"y": -2.4805020163,
				"z": 0.5292363291,
				"element": "H" 
			},
			{
				"x": 2.3804922402,
				"y": -1.1941298299,
				"z": 2.6533960259,
				"element": "H" 
			},
			{
				"x": 0.9333019142,
				"y": 0.8289687318,
				"z": 2.7312894807,
				"element": "H" 
			}
		],
		 "valence_orbital": [ 
			{
				"type": "occ",
				"energy": -0.3081,
				"method": "rhf"
			},
			{
				"type": "occ",
				"energy": -0.27925,
				"method": "rhf"
			},
			{
				"type": "occ",
				"energy": -0.27212,
				"method": "rhf"
			},
			{
				"type": "occ",
				"energy": -0.25602,
				"method": "rhf"
			},
			{
				"type": "occ",
				"energy": -0.25497,
				"method": "rhf"
			},
			{
				"type": "unocc",
				"energy": -0.04375,
				"method": "rhf"
			},
			{
				"type": "unocc",
				"energy": -0.03084,
				"method": "rhf"
			},
			{
				"type": "unocc",
				"energy": 0.0014,
				"method": "rhf"
			},
			{
				"type": "unocc",
				"energy": 0.02759,
				"method": "rhf"
			},
			{
				"type": "unocc",
				"energy": 0.06324,
				"method": "rhf"
			}
		],
		"cosmo_sigma_profile": { 
			"-0.025": 0.0,
			"-0.024": 0.0,
			"-0.023": 0.0,
			"-0.022": 0.0,
			"-0.021": 0.0,
			"-0.02": 0.0,
			"-0.019": 0.0,
			"-0.018": 0.0,
			"-0.017": 0.0,
			"-0.016": 0.0,
			"-0.015": 0.551557684269,
			"-0.014": 2.1147216644,
			"-0.013": 2.01009142393,
			"-0.012": 2.96856982063,
			"-0.011": 1.91440830484,
			"-0.01": 2.23471221553,
			"-0.009": 2.35203218148,
			"-0.008": 4.77093579374,
			"-0.007": 8.48167724123,
			"-0.006": 8.79455789394,
			"-0.005": 7.12512704072,
			"-0.004": 6.52033568171,
			"-0.003": 8.85509122176,
			"-0.002": 10.4147785114,
			"-0.001": 12.1456513917,
			"0.0": 18.6888660604,
			"0.001": 20.012340924,
			"0.002": 18.1504056777,
			"0.003": 14.8235975908,
			"0.004": 15.9178437061,
			"0.005": 6.66943163883,
			"0.006": 2.54566139673,
			"0.007": 2.00241667964,
			"0.008": 1.53296756399,
			"0.009": 1.85403204846,
			"0.01": 1.91595827461,
			"0.011": 2.29902896645,
			"0.012": 2.77933543074,
			"0.013": 5.97039149158,
			"0.014": 1.70627410401,
			"0.015": 0.00426349975363,
			"0.016": 0.0,
			"0.017": 0.0,
			"0.018": 0.0,
			"0.019": 0.0,
			"0.02": 0.0,
			"0.021": 0.0,
			"0.022": 0.0,
			"0.023": 0.0,
			"0.024": 0.0,
			"0.025": 0.0
		}
	}
}
