{
	 "smiles": "NC1=CC2=C(C=CN2CC2=CC=CC=C2)C=C1", 
	 "Tm": 393.15, 
	 "num_atms": 31, 
	 "gaussian": { 
		 "optdone": 1, 
		 "sigma_profile": "yes", 
		 "theory": "DFT", 
		 "functional": "B3LYP", 
		 "basiset": "6-31G**", 
		 "properties": { 
			 "R2extent": 4435.4943, 
			 "electric_dipole_moment_norm": 2.15367291156, 
			 "electric_quadrupole_moment_norm": 7.28615431624, 
			 "total_energy": -689.541238234, 
			 "HOMO_LUMO_gap": 0.16938, 
			 "cosmo_polarized_energy": -12.91, 
			 "cosmo_cavitation_energy": 34.39, 
			 "cosmo_dispersion_energy": -24.32, 
			 "cosmo_repulsion_energy": 1.89, 
			 "cosmo_total_nonelectrostatic_energy": 11.96, 
			 "SMD_solvation_energy": 5.62 
		},
		"coords": [
			{
				"x": 2.1158277996,
				"y": -2.3509168386,
				"z": -1.3383432997,
				"element": "N" 
			},
			{
				"x": 1.2963131823,
				"y": -2.0674910353,
				"z": -0.2337702734,
				"element": "C" 
			},
			{
				"x": 0.9688045545,
				"y": -0.7482145535,
				"z": 0.0899491722,
				"element": "C" 
			},
			{
				"x": 0.0947780879,
				"y": -0.5340660193,
				"z": 1.1622076013,
				"element": "C" 
			},
			{
				"x": -0.4668006826,
				"y": -1.5972370261,
				"z": 1.9211042751,
				"element": "C" 
			},
			{
				"x": -1.3007231344,
				"y": -0.9988577392,
				"z": 2.9277179092,
				"element": "C" 
			},
			{
				"x": -1.2197769447,
				"y": 0.35601987,
				"z": 2.7591525087,
				"element": "C" 
			},
			{
				"x": -0.3750202423,
				"y": 0.6543300277,
				"z": 1.6932411879,
				"element": "N" 
			},
			{
				"x": -0.0435242411,
				"y": 1.985396857,
				"z": 1.2245809796,
				"element": "C" 
			},
			{
				"x": -0.6929965169,
				"y": 2.388709852,
				"z": -0.0930341363,
				"element": "C" 
			},
			{
				"x": -0.0629851161,
				"y": 3.3353496065,
				"z": -0.9097050973,
				"element": "C" 
			},
			{
				"x": -0.6605570646,
				"y": 3.7628756276,
				"z": -2.0961332892,
				"element": "C" 
			},
			{
				"x": -1.8954841832,
				"y": 3.2400433155,
				"z": -2.4837863114,
				"element": "C" 
			},
			{
				"x": -2.5257645787,
				"y": 2.2899984683,
				"z": -1.6778332916,
				"element": "C" 
			},
			{
				"x": -1.9295969632,
				"y": 1.8675390183,
				"z": -0.4888125619,
				"element": "C" 
			},
			{
				"x": -0.1203395587,
				"y": -2.913736268,
				"z": 1.5746070482,
				"element": "C" 
			},
			{
				"x": 0.7462256867,
				"y": -3.1388248631,
				"z": 0.5166013426,
				"element": "C" 
			},
			{
				"x": 2.6201642635,
				"y": -3.2246529706,
				"z": -1.2651758227,
				"element": "H" 
			},
			{
				"x": 2.7369903134,
				"y": -1.5967897592,
				"z": -1.6001724854,
				"element": "H" 
			},
			{
				"x": 1.3655102078,
				"y": 0.077896255,
				"z": -0.4931081862,
				"element": "H" 
			},
			{
				"x": -1.8796237558,
				"y": -1.5116316923,
				"z": 3.6829304124,
				"element": "H" 
			},
			{
				"x": -1.6884388635,
				"y": 1.1585514873,
				"z": 3.3117201784,
				"element": "H" 
			},
			{
				"x": -0.3436842945,
				"y": 2.6851878895,
				"z": 2.0135550829,
				"element": "H" 
			},
			{
				"x": 1.0466769092,
				"y": 2.0732189389,
				"z": 1.1354836978,
				"element": "H" 
			},
			{
				"x": 0.9031314116,
				"y": 3.7407796999,
				"z": -0.6160781107,
				"element": "H" 
			},
			{
				"x": -0.1581160558,
				"y": 4.4967073378,
				"z": -2.7201605176,
				"element": "H" 
			},
			{
				"x": -2.3602300749,
				"y": 3.5659109289,
				"z": -3.4098706148,
				"element": "H" 
			},
			{
				"x": -3.4834221526,
				"y": 1.872971128,
				"z": -1.9764597304,
				"element": "H" 
			},
			{
				"x": -2.4182901317,
				"y": 1.1217040001,
				"z": 0.1308031611,
				"element": "H" 
			},
			{
				"x": -0.5258194532,
				"y": -3.7544498927,
				"z": 2.1312094404,
				"element": "H" 
			},
			{
				"x": 1.0084715921,
				"y": -4.1571216505,
				"z": 0.239979731,
				"element": "H" 
			}
		],
		 "valence_orbital": [ 
			{
				"type": "occ",
				"energy": -0.2528,
				"method": "rhf"
			},
			{
				"type": "occ",
				"energy": -0.24907,
				"method": "rhf"
			},
			{
				"type": "occ",
				"energy": -0.24059,
				"method": "rhf"
			},
			{
				"type": "occ",
				"energy": -0.20241,
				"method": "rhf"
			},
			{
				"type": "occ",
				"energy": -0.17272,
				"method": "rhf"
			},
			{
				"type": "unocc",
				"energy": -0.00334,
				"method": "rhf"
			},
			{
				"type": "unocc",
				"energy": -0.00188,
				"method": "rhf"
			},
			{
				"type": "unocc",
				"energy": 0.00632,
				"method": "rhf"
			},
			{
				"type": "unocc",
				"energy": 0.04057,
				"method": "rhf"
			},
			{
				"type": "unocc",
				"energy": 0.081,
				"method": "rhf"
			}
		],
		"cosmo_sigma_profile": { 
			"-0.025": 0.0,
			"-0.024": 0.0,
			"-0.023": 0.0,
			"-0.022": 0.0,
			"-0.021": 0.0,
			"-0.02": 0.0,
			"-0.019": 0.0,
			"-0.018": 0.0,
			"-0.017": 0.0,
			"-0.016": 0.0,
			"-0.015": 0.0,
			"-0.014": 0.0,
			"-0.013": 0.0,
			"-0.012": 0.872770841812,
			"-0.011": 2.90525037198,
			"-0.01": 2.88406969078,
			"-0.009": 2.34566417859,
			"-0.008": 5.0302079583,
			"-0.007": 7.29736127247,
			"-0.006": 12.7524569947,
			"-0.005": 22.3270004637,
			"-0.004": 23.3792959552,
			"-0.003": 22.5768096529,
			"-0.002": 18.3193787402,
			"-0.001": 16.6333713587,
			"0.0": 15.0155166869,
			"0.001": 11.993555971,
			"0.002": 14.2439995534,
			"0.003": 14.9497652104,
			"0.004": 15.1938120531,
			"0.005": 19.0007617815,
			"0.006": 17.683403044,
			"0.007": 16.679171175,
			"0.008": 6.63864371882,
			"0.009": 0.623121413814,
			"0.01": 0.68301196392,
			"0.011": 0.903864896979,
			"0.012": 0.934970848065,
			"0.013": 0.502635604574,
			"0.014": 0.756919207688,
			"0.015": 0.554415426847,
			"0.016": 0.399475262665,
			"0.017": 0.0,
			"0.018": 0.0,
			"0.019": 0.0,
			"0.02": 0.0,
			"0.021": 0.0,
			"0.022": 0.0,
			"0.023": 0.0,
			"0.024": 0.0,
			"0.025": 0.0
		}
	}
}
