{
	 "smiles": "ClCC(=O)N(CC1=NN=C(O1)C1=CC=C(Cl)C=C1)C1CC1", 
	 "Tm": 376.15, 
	 "num_atms": 34, 
	 "gaussian": { 
		 "optdone": 1, 
		 "sigma_profile": "yes", 
		 "theory": "DFT", 
		 "functional": "B3LYP", 
		 "basiset": "6-31G**", 
		 "properties": { 
			 "R2extent": 9598.244, 
			 "electric_dipole_moment_norm": 3.92453962905, 
			 "electric_quadrupole_moment_norm": 13.8947173127, 
			 "total_energy": -1776.35514435, 
			 "HOMO_LUMO_gap": 0.18149, 
			 "cosmo_polarized_energy": -19.03, 
			 "cosmo_cavitation_energy": 42.44, 
			 "cosmo_dispersion_energy": -28.68, 
			 "cosmo_repulsion_energy": 2.19, 
			 "cosmo_total_nonelectrostatic_energy": 15.94, 
			 "SMD_solvation_energy": 4.85 
		},
		"coords": [
			{
				"x": 2.3478277049,
				"y": -2.3348154716,
				"z": -1.4238379848,
				"element": "Cl" 
			},
			{
				"x": 3.805612427,
				"y": -1.4628920596,
				"z": -0.7797240524,
				"element": "C" 
			},
			{
				"x": 3.6947984561,
				"y": 0.0282786194,
				"z": -1.1071688336,
				"element": "C" 
			},
			{
				"x": 4.1649077374,
				"y": 0.4567590807,
				"z": -2.1484696835,
				"element": "O" 
			},
			{
				"x": 3.0019165836,
				"y": 0.8390509043,
				"z": -0.2236781916,
				"element": "N" 
			},
			{
				"x": 2.7895878699,
				"y": 0.4920718202,
				"z": 1.1868472001,
				"element": "C" 
			},
			{
				"x": 1.6983291571,
				"y": -0.4962102732,
				"z": 1.4459668097,
				"element": "C" 
			},
			{
				"x": 1.7897210431,
				"y": -1.6080255323,
				"z": 2.1039389462,
				"element": "N" 
			},
			{
				"x": 0.5156215166,
				"y": -2.1661248524,
				"z": 2.1166137193,
				"element": "N" 
			},
			{
				"x": -0.2536352268,
				"y": -1.3490488001,
				"z": 1.4576719164,
				"element": "C" 
			},
			{
				"x": 0.4333039738,
				"y": -0.2537950007,
				"z": 1.0050951245,
				"element": "O" 
			},
			{
				"x": -1.6772884515,
				"y": -1.4755673578,
				"z": 1.1749453127,
				"element": "C" 
			},
			{
				"x": -2.3606482228,
				"y": -0.5123292041,
				"z": 0.4184589096,
				"element": "C" 
			},
			{
				"x": -3.721890579,
				"y": -0.6544377033,
				"z": 0.1626346889,
				"element": "C" 
			},
			{
				"x": -4.3979419901,
				"y": -1.7657491804,
				"z": 0.6670408965,
				"element": "C" 
			},
			{
				"x": -6.1123206199,
				"y": -1.9479072218,
				"z": 0.3484262348,
				"element": "Cl" 
			},
			{
				"x": -3.7334636371,
				"y": -2.7363683641,
				"z": 1.4207901228,
				"element": "C" 
			},
			{
				"x": -2.3744638128,
				"y": -2.5888049493,
				"z": 1.6726909959,
				"element": "C" 
			},
			{
				"x": 2.8421587394,
				"y": 2.227405384,
				"z": -0.6044508624,
				"element": "C" 
			},
			{
				"x": 1.513747923,
				"y": 2.8965589659,
				"z": -0.3432249832,
				"element": "C" 
			},
			{
				"x": 1.9368633494,
				"y": 2.5631187142,
				"z": -1.7525159731,
				"element": "C" 
			},
			{
				"x": 4.6678434225,
				"y": -1.8521184639,
				"z": -1.3171632369,
				"element": "H" 
			},
			{
				"x": 3.866327853,
				"y": -1.7112568299,
				"z": 0.2791354343,
				"element": "H" 
			},
			{
				"x": 2.5517484658,
				"y": 1.4263540086,
				"z": 1.7021393625,
				"element": "H" 
			},
			{
				"x": 3.6921379967,
				"y": 0.0902001464,
				"z": 1.6577341168,
				"element": "H" 
			},
			{
				"x": -1.8275816423,
				"y": 0.3466278607,
				"z": 0.0258554883,
				"element": "H" 
			},
			{
				"x": -4.2544716959,
				"y": 0.0864840739,
				"z": -0.4226479521,
				"element": "H" 
			},
			{
				"x": -4.2764363993,
				"y": -3.5935554745,
				"z": 1.8024243407,
				"element": "H" 
			},
			{
				"x": -1.8389610144,
				"y": -3.3309337652,
				"z": 2.2546846192,
				"element": "H" 
			},
			{
				"x": 3.7409577779,
				"y": 2.8330082139,
				"z": -0.4949785325,
				"element": "H" 
			},
			{
				"x": 1.5265965728,
				"y": 3.9324514353,
				"z": -0.0185913984,
				"element": "H" 
			},
			{
				"x": 0.723620884,
				"y": 2.2947896247,
				"z": 0.0951765065,
				"element": "H" 
			},
			{
				"x": 1.4389746215,
				"y": 1.7339487911,
				"z": -2.2430138097,
				"element": "H" 
			},
			{
				"x": 2.2460992163,
				"y": 3.3628328608,
				"z": -2.4170052516,
				"element": "H" 
			}
		],
		 "valence_orbital": [ 
			{
				"type": "occ",
				"energy": -0.28988,
				"method": "rhf"
			},
			{
				"type": "occ",
				"energy": -0.28047,
				"method": "rhf"
			},
			{
				"type": "occ",
				"energy": -0.26807,
				"method": "rhf"
			},
			{
				"type": "occ",
				"energy": -0.2568,
				"method": "rhf"
			},
			{
				"type": "occ",
				"energy": -0.24677,
				"method": "rhf"
			},
			{
				"type": "unocc",
				"energy": -0.06528,
				"method": "rhf"
			},
			{
				"type": "unocc",
				"energy": -0.03145,
				"method": "rhf"
			},
			{
				"type": "unocc",
				"energy": -0.02949,
				"method": "rhf"
			},
			{
				"type": "unocc",
				"energy": -0.00659,
				"method": "rhf"
			},
			{
				"type": "unocc",
				"energy": 0.01897,
				"method": "rhf"
			}
		],
		"cosmo_sigma_profile": { 
			"-0.025": 0.0,
			"-0.024": 0.0,
			"-0.023": 0.0,
			"-0.022": 0.0,
			"-0.021": 0.0,
			"-0.02": 0.0,
			"-0.019": 0.0,
			"-0.018": 0.0,
			"-0.017": 0.0,
			"-0.016": 0.0,
			"-0.015": 0.0,
			"-0.014": 0.0,
			"-0.013": 0.0,
			"-0.012": 0.0930904720945,
			"-0.011": 0.841975862848,
			"-0.01": 1.5088392936,
			"-0.009": 4.44425607442,
			"-0.008": 9.59758101053,
			"-0.007": 14.1936481064,
			"-0.006": 19.4336362765,
			"-0.005": 22.7229099378,
			"-0.004": 20.9000151059,
			"-0.003": 19.6403618249,
			"-0.002": 23.7512176533,
			"-0.001": 26.3473249326,
			"0.0": 29.4133601714,
			"0.001": 30.6937448484,
			"0.002": 28.7730874699,
			"0.003": 16.9884581953,
			"0.004": 20.8583881485,
			"0.005": 13.470429182,
			"0.006": 6.17567846387,
			"0.007": 2.47807196887,
			"0.008": 3.72023039071,
			"0.009": 4.28424651778,
			"0.01": 3.65214135663,
			"0.011": 5.26048685653,
			"0.012": 6.53543741647,
			"0.013": 6.53144373466,
			"0.014": 1.33920845626,
			"0.015": 0.090820600775,
			"0.016": 0.0,
			"0.017": 0.0,
			"0.018": 0.0,
			"0.019": 0.0,
			"0.02": 0.0,
			"0.021": 0.0,
			"0.022": 0.0,
			"0.023": 0.0,
			"0.024": 0.0,
			"0.025": 0.0
		}
	}
}
