{
	 "smiles": "CN(C)C1=CC(C=CN1)=C(N)N=O", 
	 "Tm": 403.15, 
	 "num_atms": 25, 
	 "gaussian": { 
		 "optdone": 1, 
		 "sigma_profile": "yes", 
		 "theory": "DFT", 
		 "functional": "B3LYP", 
		 "basiset": "6-31G**", 
		 "properties": { 
			 "R2extent": 3807.4126, 
			 "electric_dipole_moment_norm": 11.6409439622, 
			 "electric_quadrupole_moment_norm": 35.8087917427, 
			 "total_energy": -606.214726142, 
			 "HOMO_LUMO_gap": 0.11192, 
			 "cosmo_polarized_energy": -34.16, 
			 "cosmo_cavitation_energy": 28.12, 
			 "cosmo_dispersion_energy": -20.82, 
			 "cosmo_repulsion_energy": 1.65, 
			 "cosmo_total_nonelectrostatic_energy": 8.94, 
			 "SMD_solvation_energy": 4.88 
		},
		"coords": [
			{
				"x": 1.7519519823,
				"y": -1.6887081981,
				"z": 0.0309919989,
				"element": "C" 
			},
			{
				"x": 0.3799664852,
				"y": -1.6938090364,
				"z": -0.4608168989,
				"element": "N" 
			},
			{
				"x": -0.1877799789,
				"y": -2.9631973114,
				"z": -0.8946771441,
				"element": "C" 
			},
			{
				"x": -0.1450029016,
				"y": -0.5052751136,
				"z": -0.9289395133,
				"element": "C" 
			},
			{
				"x": 0.5011502662,
				"y": 0.714839751,
				"z": -0.8679085322,
				"element": "C" 
			},
			{
				"x": -0.1275292091,
				"y": 1.9214168318,
				"z": -1.3103365839,
				"element": "C" 
			},
			{
				"x": -1.4692323626,
				"y": 1.8056311462,
				"z": -1.8294906928,
				"element": "C" 
			},
			{
				"x": -2.0626604264,
				"y": 0.59472707,
				"z": -1.8987857411,
				"element": "C" 
			},
			{
				"x": -1.4125418567,
				"y": -0.5549281356,
				"z": -1.4734876702,
				"element": "N" 
			},
			{
				"x": 0.5388161044,
				"y": 3.1521068315,
				"z": -1.2617158707,
				"element": "C" 
			},
			{
				"x": 1.865549892,
				"y": 3.2800247539,
				"z": -0.8082913694,
				"element": "N" 
			},
			{
				"x": -0.1793918055,
				"y": 4.2687680436,
				"z": -1.6044421551,
				"element": "N" 
			},
			{
				"x": 0.4631111118,
				"y": 5.3512311829,
				"z": -1.527270482,
				"element": "O" 
			},
			{
				"x": 1.976692079,
				"y": -2.6664393744,
				"z": 0.4592611223,
				"element": "H" 
			},
			{
				"x": 2.4853775438,
				"y": -1.4725357928,
				"z": -0.7593979887,
				"element": "H" 
			},
			{
				"x": 1.8670305148,
				"y": -0.9417973625,
				"z": 0.821190853,
				"element": "H" 
			},
			{
				"x": -1.2215460395,
				"y": -3.0843349341,
				"z": -0.5451038509,
				"element": "H" 
			},
			{
				"x": 0.3850338269,
				"y": -3.7749619988,
				"z": -0.4462031641,
				"element": "H" 
			},
			{
				"x": -0.166278275,
				"y": -3.0958509774,
				"z": -1.9868417017,
				"element": "H" 
			},
			{
				"x": 1.4906752154,
				"y": 0.7809562574,
				"z": -0.4414165609,
				"element": "H" 
			},
			{
				"x": -1.9803342978,
				"y": 2.6973622885,
				"z": -2.1657462705,
				"element": "H" 
			},
			{
				"x": -3.0620447675,
				"y": 0.4395866735,
				"z": -2.2867115892,
				"element": "H" 
			},
			{
				"x": -1.9067364686,
				"y": -1.4299851314,
				"z": -1.5141397833,
				"element": "H" 
			},
			{
				"x": 2.5261041341,
				"y": 2.7735784582,
				"z": -1.3922448,
				"element": "H" 
			},
			{
				"x": 2.0665192333,
				"y": 4.2821940781,
				"z": -0.8686756111,
				"element": "H" 
			}
		],
		 "valence_orbital": [ 
			{
				"type": "occ",
				"energy": -0.3075,
				"method": "rhf"
			},
			{
				"type": "occ",
				"energy": -0.25968,
				"method": "rhf"
			},
			{
				"type": "occ",
				"energy": -0.2322,
				"method": "rhf"
			},
			{
				"type": "occ",
				"energy": -0.16135,
				"method": "rhf"
			},
			{
				"type": "occ",
				"energy": -0.15542,
				"method": "rhf"
			},
			{
				"type": "unocc",
				"energy": -0.0435,
				"method": "rhf"
			},
			{
				"type": "unocc",
				"energy": -0.00203,
				"method": "rhf"
			},
			{
				"type": "unocc",
				"energy": 0.03865,
				"method": "rhf"
			},
			{
				"type": "unocc",
				"energy": 0.0613,
				"method": "rhf"
			},
			{
				"type": "unocc",
				"energy": 0.07669,
				"method": "rhf"
			}
		],
		"cosmo_sigma_profile": { 
			"-0.025": 0.0,
			"-0.024": 0.0,
			"-0.023": 0.0,
			"-0.022": 0.0,
			"-0.021": 0.0,
			"-0.02": 0.0,
			"-0.019": 0.0,
			"-0.018": 0.0469000990839,
			"-0.017": 0.881682226987,
			"-0.016": 1.30815256967,
			"-0.015": 1.26957548027,
			"-0.014": 1.32138937581,
			"-0.013": 1.23784845394,
			"-0.012": 1.8132109979,
			"-0.011": 1.84104748401,
			"-0.01": 3.31087093562,
			"-0.009": 4.90602098623,
			"-0.008": 6.16091931998,
			"-0.007": 8.27525948082,
			"-0.006": 13.7779801899,
			"-0.005": 18.3077858208,
			"-0.004": 19.1483731356,
			"-0.003": 20.9890345178,
			"-0.002": 13.5164084347,
			"-0.001": 6.82363445026,
			"0.0": 9.21756714792,
			"0.001": 8.80931499461,
			"0.002": 8.581313696,
			"0.003": 10.7439283696,
			"0.004": 8.02826262483,
			"0.005": 5.19953330489,
			"0.006": 5.0278768548,
			"0.007": 3.97319716717,
			"0.008": 4.02085019329,
			"0.009": 3.43356669999,
			"0.01": 2.80637208842,
			"0.011": 2.28003068464,
			"0.012": 2.85678805855,
			"0.013": 4.07477928839,
			"0.014": 6.36411415353,
			"0.015": 4.6081327134,
			"0.016": 3.88740768088,
			"0.017": 2.49298161599,
			"0.018": 1.08425100582,
			"0.019": 0.0,
			"0.02": 0.0,
			"0.021": 0.0,
			"0.022": 0.0,
			"0.023": 0.0,
			"0.024": 0.0,
			"0.025": 0.0
		}
	}
}
