{
	 "smiles": "OC1=C(F)C=C(C=O)C=C1", 
	 "Tm": 396.15, 
	 "num_atms": 15, 
	 "gaussian": { 
		 "optdone": 1, 
		 "sigma_profile": "yes", 
		 "theory": "DFT", 
		 "functional": "B3LYP", 
		 "basiset": "6-31G**", 
		 "properties": { 
			 "R2extent": 1893.1571, 
			 "electric_dipole_moment_norm": 3.09724428807, 
			 "electric_quadrupole_moment_norm": 12.1774348986, 
			 "total_energy": -520.026533168, 
			 "HOMO_LUMO_gap": 0.1815, 
			 "cosmo_polarized_energy": -9.99, 
			 "cosmo_cavitation_energy": 20.43, 
			 "cosmo_dispersion_energy": -15.01, 
			 "cosmo_repulsion_energy": 1.19, 
			 "cosmo_total_nonelectrostatic_energy": 6.61, 
			 "SMD_solvation_energy": 5.49 
		},
		"coords": [
			{
				"x": 2.2343668933,
				"y": -0.2629961244,
				"z": 0.9485603639,
				"element": "O" 
			},
			{
				"x": 0.9048007822,
				"y": -0.0146333317,
				"z": 0.9072235163,
				"element": "C" 
			},
			{
				"x": 0.4054390293,
				"y": 1.2769624368,
				"z": 1.1225144988,
				"element": "C" 
			},
			{
				"x": 1.3261521438,
				"y": 2.2478937512,
				"z": 1.3713256875,
				"element": "F" 
			},
			{
				"x": -0.9434003844,
				"y": 1.5614517732,
				"z": 1.0867920551,
				"element": "C" 
			},
			{
				"x": -1.8459516665,
				"y": 0.5177644253,
				"z": 0.8252048311,
				"element": "C" 
			},
			{
				"x": -3.2947198858,
				"y": 0.7954300725,
				"z": 0.7814493295,
				"element": "C" 
			},
			{
				"x": -4.1532480676,
				"y": -0.0392185078,
				"z": 0.5630855707,
				"element": "O" 
			},
			{
				"x": -1.3618424166,
				"y": -0.7829111723,
				"z": 0.6071987754,
				"element": "C" 
			},
			{
				"x": 0.0000713074,
				"y": -1.051608148,
				"z": 0.6468189559,
				"element": "C" 
			},
			{
				"x": 2.6905710212,
				"y": 0.5705365532,
				"z": 1.139627934,
				"element": "H" 
			},
			{
				"x": -1.2859852932,
				"y": 2.5775758765,
				"z": 1.259515915,
				"element": "H" 
			},
			{
				"x": -3.5666001899,
				"y": 1.8589483132,
				"z": 0.968017816,
				"element": "H" 
			},
			{
				"x": -2.080866498,
				"y": -1.5704676193,
				"z": 0.4073038805,
				"element": "H" 
			},
			{
				"x": 0.3913132249,
				"y": -2.0497282982,
				"z": 0.4808608703,
				"element": "H" 
			}
		],
		 "valence_orbital": [ 
			{
				"type": "occ",
				"energy": -0.36814,
				"method": "rhf"
			},
			{
				"type": "occ",
				"energy": -0.34477,
				"method": "rhf"
			},
			{
				"type": "occ",
				"energy": -0.27231,
				"method": "rhf"
			},
			{
				"type": "occ",
				"energy": -0.25635,
				"method": "rhf"
			},
			{
				"type": "occ",
				"energy": -0.2433,
				"method": "rhf"
			},
			{
				"type": "unocc",
				"energy": -0.0618,
				"method": "rhf"
			},
			{
				"type": "unocc",
				"energy": -0.01995,
				"method": "rhf"
			},
			{
				"type": "unocc",
				"energy": 0.04395,
				"method": "rhf"
			},
			{
				"type": "unocc",
				"energy": 0.05528,
				"method": "rhf"
			},
			{
				"type": "unocc",
				"energy": 0.09734,
				"method": "rhf"
			}
		],
		"cosmo_sigma_profile": { 
			"-0.025": 0.0,
			"-0.024": 0.0,
			"-0.023": 0.0,
			"-0.022": 0.0,
			"-0.021": 0.0,
			"-0.02": 0.0,
			"-0.019": 0.0,
			"-0.018": 0.0629015242286,
			"-0.017": 0.337796684184,
			"-0.016": 1.07624391205,
			"-0.015": 0.662564079195,
			"-0.014": 0.337328235658,
			"-0.013": 0.716882461615,
			"-0.012": 1.089210938,
			"-0.011": 1.01963220345,
			"-0.01": 1.10627201237,
			"-0.009": 1.83220080667,
			"-0.008": 4.58850017684,
			"-0.007": 7.33467055654,
			"-0.006": 7.75758358001,
			"-0.005": 8.69440418573,
			"-0.004": 7.0479325368,
			"-0.003": 8.32728221217,
			"-0.002": 9.72188760044,
			"-0.001": 11.0853378398,
			"0.0": 13.4175904613,
			"0.001": 16.4754807096,
			"0.002": 15.4329556172,
			"0.003": 11.9524288795,
			"0.004": 5.77576454301,
			"0.005": 3.95710034694,
			"0.006": 2.33638984957,
			"0.007": 2.18086004525,
			"0.008": 3.66878996667,
			"0.009": 3.58099795636,
			"0.01": 4.07507143597,
			"0.011": 3.8296163858,
			"0.012": 3.62357696353,
			"0.013": 1.15462022131,
			"0.014": 0.0330988262535,
			"0.015": 0.0,
			"0.016": 0.0,
			"0.017": 0.0,
			"0.018": 0.0,
			"0.019": 0.0,
			"0.02": 0.0,
			"0.021": 0.0,
			"0.022": 0.0,
			"0.023": 0.0,
			"0.024": 0.0,
			"0.025": 0.0
		}
	}
}
