{
	 "smiles": "NC1=CC=CC=C1C(=O)C1=C(C=CC=C1)C(O)=O", 
	 "Tm": 471.15, 
	 "num_atms": 29, 
	 "gaussian": { 
		 "optdone": 1, 
		 "sigma_profile": "yes", 
		 "theory": "DFT", 
		 "functional": "B3LYP", 
		 "basiset": "6-31G**", 
		 "properties": { 
			 "R2extent": 4465.675, 
			 "electric_dipole_moment_norm": 3.10996108336, 
			 "electric_quadrupole_moment_norm": 14.8866379341, 
			 "total_energy": -820.566436023, 
			 "HOMO_LUMO_gap": 0.14907, 
			 "cosmo_polarized_energy": -16.05, 
			 "cosmo_cavitation_energy": 33.64, 
			 "cosmo_dispersion_energy": -23.88, 
			 "cosmo_repulsion_energy": 1.86, 
			 "cosmo_total_nonelectrostatic_energy": 11.61, 
			 "SMD_solvation_energy": 7.11 
		},
		"coords": [
			{
				"x": 1.3230665361,
				"y": -1.0746250717,
				"z": -2.7180965772,
				"element": "N" 
			},
			{
				"x": 0.3500171932,
				"y": -1.6353802021,
				"z": -1.9523729416,
				"element": "C" 
			},
			{
				"x": -0.1292808522,
				"y": -2.934056379,
				"z": -2.2487888161,
				"element": "C" 
			},
			{
				"x": -1.1244229002,
				"y": -3.5195727569,
				"z": -1.487140502,
				"element": "C" 
			},
			{
				"x": -1.6899778576,
				"y": -2.8431587213,
				"z": -0.393231903,
				"element": "C" 
			},
			{
				"x": -1.2382932297,
				"y": -1.5702334124,
				"z": -0.0911938261,
				"element": "C" 
			},
			{
				"x": -0.2300522387,
				"y": -0.9321670714,
				"z": -0.8466119391,
				"element": "C" 
			},
			{
				"x": 0.23814819,
				"y": 0.4113206494,
				"z": -0.4859272795,
				"element": "C" 
			},
			{
				"x": 1.1783970054,
				"y": 0.983719358,
				"z": -1.0479976042,
				"element": "O" 
			},
			{
				"x": -0.5081736912,
				"y": 1.2027664932,
				"z": 0.5742582628,
				"element": "C" 
			},
			{
				"x": 0.067024606,
				"y": 1.5851228065,
				"z": 1.8031822546,
				"element": "C" 
			},
			{
				"x": -0.6124196752,
				"y": 2.4792546581,
				"z": 2.6418044073,
				"element": "C" 
			},
			{
				"x": -1.8580831015,
				"y": 2.9865780528,
				"z": 2.2844718395,
				"element": "C" 
			},
			{
				"x": -2.4377737324,
				"y": 2.5993059795,
				"z": 1.0754765987,
				"element": "C" 
			},
			{
				"x": -1.7650784539,
				"y": 1.7163962487,
				"z": 0.2303052901,
				"element": "C" 
			},
			{
				"x": 1.3719444089,
				"y": 1.07238761,
				"z": 2.3141673498,
				"element": "C" 
			},
			{
				"x": 1.7758601151,
				"y": -0.0684509375,
				"z": 1.7107998794,
				"element": "O" 
			},
			{
				"x": 2.0057234462,
				"y": 1.5876564089,
				"z": 3.2137547612,
				"element": "O" 
			},
			{
				"x": 1.780364675,
				"y": -1.624594517,
				"z": -3.4258081914,
				"element": "H" 
			},
			{
				"x": 1.7067781462,
				"y": -0.1880337877,
				"z": -2.4112094562,
				"element": "H" 
			},
			{
				"x": 0.3032650665,
				"y": -3.4692188803,
				"z": -3.0905735848,
				"element": "H" 
			},
			{
				"x": -1.4665328854,
				"y": -4.5194278017,
				"z": -1.7410979189,
				"element": "H" 
			},
			{
				"x": -2.463860974,
				"y": -3.3112797291,
				"z": 0.2056684018,
				"element": "H" 
			},
			{
				"x": -1.6590591761,
				"y": -1.0396579711,
				"z": 0.7561017716,
				"element": "H" 
			},
			{
				"x": -0.1393151975,
				"y": 2.7586455876,
				"z": 3.5770133028,
				"element": "H" 
			},
			{
				"x": -2.3743348966,
				"y": 3.6761549168,
				"z": 2.9452979473,
				"element": "H" 
			},
			{
				"x": -3.4098702722,
				"y": 2.9872879186,
				"z": 0.7850549929,
				"element": "H" 
			},
			{
				"x": -2.210730537,
				"y": 1.4295052637,
				"z": -0.7176499938,
				"element": "H" 
			},
			{
				"x": 2.6341702825,
				"y": -0.2929447126,
				"z": 2.1064434742,
				"element": "H" 
			}
		],
		 "valence_orbital": [ 
			{
				"type": "occ",
				"energy": -0.26645,
				"method": "rhf"
			},
			{
				"type": "occ",
				"energy": -0.26301,
				"method": "rhf"
			},
			{
				"type": "occ",
				"energy": -0.25548,
				"method": "rhf"
			},
			{
				"type": "occ",
				"energy": -0.24612,
				"method": "rhf"
			},
			{
				"type": "occ",
				"energy": -0.20448,
				"method": "rhf"
			},
			{
				"type": "unocc",
				"energy": -0.05541,
				"method": "rhf"
			},
			{
				"type": "unocc",
				"energy": -0.0442,
				"method": "rhf"
			},
			{
				"type": "unocc",
				"energy": -0.01527,
				"method": "rhf"
			},
			{
				"type": "unocc",
				"energy": 0.01277,
				"method": "rhf"
			},
			{
				"type": "unocc",
				"energy": 0.04607,
				"method": "rhf"
			}
		],
		"cosmo_sigma_profile": { 
			"-0.025": 0.0,
			"-0.024": 0.0,
			"-0.023": 0.0,
			"-0.022": 0.0,
			"-0.021": 0.0,
			"-0.02": 0.0,
			"-0.019": 0.161850659974,
			"-0.018": 1.04962766019,
			"-0.017": 0.791584895066,
			"-0.016": 1.04187862697,
			"-0.015": 0.647819490527,
			"-0.014": 0.946758407655,
			"-0.013": 1.43621372677,
			"-0.012": 2.34833107651,
			"-0.011": 2.69956127025,
			"-0.01": 1.87831071886,
			"-0.009": 1.51638573162,
			"-0.008": 3.5006245336,
			"-0.007": 7.58044964582,
			"-0.006": 14.7676038376,
			"-0.005": 18.306937617,
			"-0.004": 16.3234343721,
			"-0.003": 16.0011162511,
			"-0.002": 16.1338203216,
			"-0.001": 16.5237956305,
			"0.0": 14.4343409938,
			"0.001": 16.9456754471,
			"0.002": 19.3340209796,
			"0.003": 23.9065991036,
			"0.004": 18.2078382476,
			"0.005": 15.3278979394,
			"0.006": 8.98190165269,
			"0.007": 4.96246357204,
			"0.008": 4.66888656973,
			"0.009": 3.33117639926,
			"0.01": 3.43931168525,
			"0.011": 6.40443715589,
			"0.012": 4.80028624412,
			"0.013": 0.900585689339,
			"0.014": 0.070975882944,
			"0.015": 0.0,
			"0.016": 0.0,
			"0.017": 0.0,
			"0.018": 0.0,
			"0.019": 0.0,
			"0.02": 0.0,
			"0.021": 0.0,
			"0.022": 0.0,
			"0.023": 0.0,
			"0.024": 0.0,
			"0.025": 0.0
		}
	}
}
