{
	 "smiles": "NS(=O)(=O)C1=CC(=C(Cl)C=C1)[N+]([O-])=O", 
	 "Tm": 405.15, 
	 "num_atms": 19, 
	 "gaussian": { 
		 "optdone": 1, 
		 "sigma_profile": "yes", 
		 "theory": "DFT", 
		 "functional": "B3LYP", 
		 "basiset": "6-31G**", 
		 "properties": { 
			 "R2extent": 3982.2772, 
			 "electric_dipole_moment_norm": 5.1252934355, 
			 "electric_quadrupole_moment_norm": 24.5747330616, 
			 "total_energy": -1500.23992242, 
			 "HOMO_LUMO_gap": 0.1799, 
			 "cosmo_polarized_energy": -21.94, 
			 "cosmo_cavitation_energy": 28.02, 
			 "cosmo_dispersion_energy": -20.97, 
			 "cosmo_repulsion_energy": 1.61, 
			 "cosmo_total_nonelectrostatic_energy": 8.67, 
			 "SMD_solvation_energy": 6.53 
		},
		"coords": [
			{
				"x": -1.3307584594,
				"y": -2.7954565387,
				"z": -2.0164004727,
				"element": "N" 
			},
			{
				"x": -1.0741070263,
				"y": -2.5319612286,
				"z": -0.3862650216,
				"element": "S" 
			},
			{
				"x": -0.0178311357,
				"y": -3.4593978129,
				"z": 0.0093048805,
				"element": "O" 
			},
			{
				"x": -2.3979471812,
				"y": -2.5006056377,
				"z": 0.2271315139,
				"element": "O" 
			},
			{
				"x": -0.3838367388,
				"y": -0.8720248308,
				"z": -0.2240724878,
				"element": "C" 
			},
			{
				"x": -1.2401489051,
				"y": 0.2208914739,
				"z": -0.1541496257,
				"element": "C" 
			},
			{
				"x": -0.7067344582,
				"y": 1.5027744812,
				"z": -0.0280324737,
				"element": "C" 
			},
			{
				"x": 0.683157997,
				"y": 1.7017683742,
				"z": 0.0102346897,
				"element": "C" 
			},
			{
				"x": 1.4265376328,
				"y": 3.2698834707,
				"z": 0.0849147426,
				"element": "Cl" 
			},
			{
				"x": 1.5258932635,
				"y": 0.5867075218,
				"z": -0.0635650673,
				"element": "C" 
			},
			{
				"x": 1.0007463873,
				"y": -0.6974417614,
				"z": -0.1685434236,
				"element": "C" 
			},
			{
				"x": -1.6845165362,
				"y": 2.6045643748,
				"z": 0.0704137559,
				"element": "N" 
			},
			{
				"x": -1.4009689045,
				"y": 3.5653489381,
				"z": 0.7749285576,
				"element": "O" 
			},
			{
				"x": -2.736124818,
				"y": 2.4566621723,
				"z": -0.5506550231,
				"element": "O" 
			},
			{
				"x": -0.4830458185,
				"y": -2.8505968276,
				"z": -2.5700701629,
				"element": "H" 
			},
			{
				"x": -2.0638246364,
				"y": -2.2236409616,
				"z": -2.421636597,
				"element": "H" 
			},
			{
				"x": -2.316346233,
				"y": 0.0966078316,
				"z": -0.1729985141,
				"element": "H" 
			},
			{
				"x": 2.5984160907,
				"y": 0.7412464162,
				"z": -0.0333091686,
				"element": "H" 
			},
			{
				"x": 1.65493948,
				"y": -1.5622294557,
				"z": -0.1930301021,
				"element": "H" 
			}
		],
		 "valence_orbital": [ 
			{
				"type": "occ",
				"energy": -0.32497,
				"method": "rhf"
			},
			{
				"type": "occ",
				"energy": -0.32435,
				"method": "rhf"
			},
			{
				"type": "occ",
				"energy": -0.31525,
				"method": "rhf"
			},
			{
				"type": "occ",
				"energy": -0.2992,
				"method": "rhf"
			},
			{
				"type": "occ",
				"energy": -0.28742,
				"method": "rhf"
			},
			{
				"type": "unocc",
				"energy": -0.10752,
				"method": "rhf"
			},
			{
				"type": "unocc",
				"energy": -0.07163,
				"method": "rhf"
			},
			{
				"type": "unocc",
				"energy": -0.04024,
				"method": "rhf"
			},
			{
				"type": "unocc",
				"energy": -0.00561,
				"method": "rhf"
			},
			{
				"type": "unocc",
				"energy": 0.03559,
				"method": "rhf"
			}
		],
		"cosmo_sigma_profile": { 
			"-0.025": 0.0,
			"-0.024": 0.0,
			"-0.023": 0.0,
			"-0.022": 0.0,
			"-0.021": 0.0,
			"-0.02": 0.0,
			"-0.019": 0.0,
			"-0.018": 0.0,
			"-0.017": 0.0,
			"-0.016": 1.27769664376,
			"-0.015": 2.8535415642,
			"-0.014": 3.65100444263,
			"-0.013": 2.94501677399,
			"-0.012": 2.93422496546,
			"-0.011": 2.43333897795,
			"-0.01": 2.60651341778,
			"-0.009": 5.43030820741,
			"-0.008": 9.10961415755,
			"-0.007": 8.10657142492,
			"-0.006": 7.90311814068,
			"-0.005": 6.26068337657,
			"-0.004": 9.85979144054,
			"-0.003": 14.9491098361,
			"-0.002": 17.912854393,
			"-0.001": 14.5508546555,
			"0.0": 9.43617969756,
			"0.001": 9.57305619353,
			"0.002": 11.426845991,
			"0.003": 9.32257474119,
			"0.004": 6.02535120782,
			"0.005": 7.55009633833,
			"0.006": 9.87686520185,
			"0.007": 15.5901734149,
			"0.008": 9.1382469888,
			"0.009": 8.14827608928,
			"0.01": 9.37851707669,
			"0.011": 8.48676173958,
			"0.012": 0.496957602551,
			"0.013": 0.0,
			"0.014": 0.0,
			"0.015": 0.0,
			"0.016": 0.0,
			"0.017": 0.0,
			"0.018": 0.0,
			"0.019": 0.0,
			"0.02": 0.0,
			"0.021": 0.0,
			"0.022": 0.0,
			"0.023": 0.0,
			"0.024": 0.0,
			"0.0": 0.0
		}
	}
}
