{
	 "smiles": "CC1=C(N=C(S1)C1=CC=CO1)C(O)=O", 
	 "Tm": 503.15, 
	 "num_atms": 21, 
	 "gaussian": { 
		 "optdone": 1, 
		 "sigma_profile": "yes", 
		 "theory": "DFT", 
		 "functional": "B3LYP", 
		 "basiset": "6-31G**", 
		 "properties": { 
			 "R2extent": 3860.4077, 
			 "electric_dipole_moment_norm": 6.01915841709, 
			 "electric_quadrupole_moment_norm": 17.2945353583, 
			 "total_energy": -1025.77527684, 
			 "HOMO_LUMO_gap": 0.15735, 
			 "cosmo_polarized_energy": -12.98, 
			 "cosmo_cavitation_energy": 28.07, 
			 "cosmo_dispersion_energy": -21.11, 
			 "cosmo_repulsion_energy": 1.6, 
			 "cosmo_total_nonelectrostatic_energy": 8.57, 
			 "SMD_solvation_energy": 5.75 
		},
		"coords": [
			{
				"x": 0.2512224475,
				"y": 0.0101909887,
				"z": 3.5664851328,
				"element": "C" 
			},
			{
				"x": 0.1542417147,
				"y": -0.397899167,
				"z": 2.1283576021,
				"element": "C" 
			},
			{
				"x": 1.1277968681,
				"y": -0.9017699333,
				"z": 1.2978517619,
				"element": "C" 
			},
			{
				"x": 0.7531886738,
				"y": -1.1936653138,
				"z": 0.0056843678,
				"element": "N" 
			},
			{
				"x": -0.5087723765,
				"y": -0.9276430036,
				"z": -0.202007064,
				"element": "C" 
			},
			{
				"x": -1.3303821011,
				"y": -0.2843295631,
				"z": 1.2226748449,
				"element": "S" 
			},
			{
				"x": -1.2073162749,
				"y": -1.1222686563,
				"z": -1.4509208057,
				"element": "C" 
			},
			{
				"x": -2.5048857134,
				"y": -0.9027721502,
				"z": -1.8450255905,
				"element": "C" 
			},
			{
				"x": -2.5819969871,
				"y": -1.2957844654,
				"z": -3.2139500842,
				"element": "C" 
			},
			{
				"x": -1.3321434975,
				"y": -1.7244433867,
				"z": -3.5540608862,
				"element": "C" 
			},
			{
				"x": -0.4848872942,
				"y": -1.6263619101,
				"z": -2.4968648224,
				"element": "O" 
			},
			{
				"x": 2.5434498002,
				"y": -1.1530987276,
				"z": 1.6872118652,
				"element": "C" 
			},
			{
				"x": 3.2997132894,
				"y": -1.6498597824,
				"z": 0.6890635918,
				"element": "O" 
			},
			{
				"x": 2.9883553501,
				"y": -0.9347189685,
				"z": 2.7940191215,
				"element": "O" 
			},
			{
				"x": -0.7049379218,
				"y": 0.3744414912,
				"z": 3.9487165369,
				"element": "H" 
			},
			{
				"x": 1.004869659,
				"y": 0.7933952195,
				"z": 3.6878251915,
				"element": "H" 
			},
			{
				"x": 0.5808364728,
				"y": -0.8343298543,
				"z": 4.1782503503,
				"element": "H" 
			},
			{
				"x": -3.3045210812,
				"y": -0.5096018889,
				"z": -1.2333792514,
				"element": "H" 
			},
			{
				"x": -3.4498249135,
				"y": -1.2632240495,
				"z": -3.8561621898,
				"element": "H" 
			},
			{
				"x": -0.9015024859,
				"y": -2.1115128373,
				"z": -4.4644660638,
				"element": "H" 
			},
			{
				"x": 2.7246963715,
				"y": -1.7368440414,
				"z": -0.0961036085,
				"element": "H" 
			}
		],
		 "valence_orbital": [ 
			{
				"type": "occ",
				"energy": -0.30283,
				"method": "rhf"
			},
			{
				"type": "occ",
				"energy": -0.30108,
				"method": "rhf"
			},
			{
				"type": "occ",
				"energy": -0.28569,
				"method": "rhf"
			},
			{
				"type": "occ",
				"energy": -0.26587,
				"method": "rhf"
			},
			{
				"type": "occ",
				"energy": -0.22468,
				"method": "rhf"
			},
			{
				"type": "unocc",
				"energy": -0.06733,
				"method": "rhf"
			},
			{
				"type": "unocc",
				"energy": -0.03213,
				"method": "rhf"
			},
			{
				"type": "unocc",
				"energy": -0.00809,
				"method": "rhf"
			},
			{
				"type": "unocc",
				"energy": 0.02734,
				"method": "rhf"
			},
			{
				"type": "unocc",
				"energy": 0.0679,
				"method": "rhf"
			}
		],
		"cosmo_sigma_profile": { 
			"-0.025": 0.0,
			"-0.024": 0.0,
			"-0.023": 0.0,
			"-0.022": 0.0,
			"-0.021": 0.0,
			"-0.02": 0.0,
			"-0.019": 0.0,
			"-0.018": 0.0,
			"-0.017": 0.0,
			"-0.016": 0.0,
			"-0.015": 0.0,
			"-0.014": 0.0119389837809,
			"-0.013": 0.668116183911,
			"-0.012": 0.445731616273,
			"-0.011": 0.326570186174,
			"-0.01": 1.95053694555,
			"-0.009": 2.75743813242,
			"-0.008": 5.71243698206,
			"-0.007": 7.78167156778,
			"-0.006": 10.5317598989,
			"-0.005": 12.2406399858,
			"-0.004": 14.198372075,
			"-0.003": 16.6262891436,
			"-0.002": 21.5952275706,
			"-0.001": 22.6538196652,
			"0.0": 20.2977878921,
			"0.001": 17.3690544658,
			"0.002": 14.7818589113,
			"0.003": 9.99985948133,
			"0.004": 8.31429164944,
			"0.005": 5.03876562382,
			"0.006": 4.46315242318,
			"0.007": 4.11812914142,
			"0.008": 4.81526003003,
			"0.009": 4.76980228038,
			"0.01": 6.00332082267,
			"0.011": 4.5407922425,
			"0.012": 3.6828765497,
			"0.013": 2.10066546562,
			"0.014": 0.259278359813,
			"0.015": 0.0,
			"0.016": 0.0,
			"0.017": 0.0,
			"0.018": 0.0,
			"0.019": 0.0,
			"0.02": 0.0,
			"0.021": 0.0,
			"0.022": 0.0,
			"0.023": 0.0,
			"0.024": 0.0,
			"0.025": 0.0
		}
	}
}
