{
	 "smiles": "CC(NC(=O)C1=CC=CC=C1)C1=CC=CC=C1", 
	 "Tm": 397.15, 
	 "num_atms": 32, 
	 "gaussian": { 
		 "optdone": 1, 
		 "sigma_profile": "yes", 
		 "theory": "DFT", 
		 "functional": "B3LYP", 
		 "basiset": "6-31G**", 
		 "properties": { 
			 "R2extent": 4749.07, 
			 "electric_dipole_moment_norm": 3.53627530178, 
			 "electric_quadrupole_moment_norm": 18.2519609051, 
			 "total_energy": -710.630048161, 
			 "HOMO_LUMO_gap": 0.205, 
			 "cosmo_polarized_energy": -13.31, 
			 "cosmo_cavitation_energy": 35.85, 
			 "cosmo_dispersion_energy": -24.29, 
			 "cosmo_repulsion_energy": 1.91, 
			 "cosmo_total_nonelectrostatic_energy": 13.46, 
			 "SMD_solvation_energy": 6.23 
		},
		"coords": [
			{
				"x": -0.8326022327,
				"y": 0.5569366546,
				"z": 2.9911223918,
				"element": "C" 
			},
			{
				"x": -0.7404914333,
				"y": 0.1530820364,
				"z": 1.5131048604,
				"element": "C" 
			},
			{
				"x": -1.4456590533,
				"y": -1.1261229451,
				"z": 1.3037207426,
				"element": "N" 
			},
			{
				"x": -1.1139717802,
				"y": -2.1157953556,
				"z": 0.3972746044,
				"element": "C" 
			},
			{
				"x": -1.9840371601,
				"y": -2.8015299012,
				"z": -0.1298429125,
				"element": "O" 
			},
			{
				"x": 0.3405566773,
				"y": -2.3838246432,
				"z": 0.1289235862,
				"element": "C" 
			},
			{
				"x": 0.7013492379,
				"y": -2.782917704,
				"z": -1.1651942365,
				"element": "C" 
			},
			{
				"x": 2.0253203578,
				"y": -3.1005863432,
				"z": -1.4606298259,
				"element": "C" 
			},
			{
				"x": 2.9982467886,
				"y": -3.0505085419,
				"z": -0.4585183846,
				"element": "C" 
			},
			{
				"x": 2.6409756529,
				"y": -2.683964969,
				"z": 0.8403791168,
				"element": "C" 
			},
			{
				"x": 1.3184112449,
				"y": -2.3479131106,
				"z": 1.1332644254,
				"element": "C" 
			},
			{
				"x": -1.2519666261,
				"y": 1.2419384411,
				"z": 0.5719819555,
				"element": "C" 
			},
			{
				"x": -0.4203421551,
				"y": 1.7504627379,
				"z": -0.4325034245,
				"element": "C" 
			},
			{
				"x": -0.8758768687,
				"y": 2.7376902341,
				"z": -1.3089415024,
				"element": "C" 
			},
			{
				"x": -2.176412484,
				"y": 3.2286130164,
				"z": -1.1939412886,
				"element": "C" 
			},
			{
				"x": -3.0169726128,
				"y": 2.7274362337,
				"z": -0.1970984663,
				"element": "C" 
			},
			{
				"x": -2.556744365,
				"y": 1.7446476007,
				"z": 0.6785144193,
				"element": "C" 
			},
			{
				"x": -0.3003913706,
				"y": 1.4964283449,
				"z": 3.1664413871,
				"element": "H" 
			},
			{
				"x": -1.8729376211,
				"y": 0.7001114935,
				"z": 3.3018188899,
				"element": "H" 
			},
			{
				"x": -0.3983285287,
				"y": -0.2206067974,
				"z": 3.6263791703,
				"element": "H" 
			},
			{
				"x": 0.3081223825,
				"y": -0.023974034,
				"z": 1.2696427207,
				"element": "H" 
			},
			{
				"x": -2.4558780326,
				"y": -1.0643579467,
				"z": 1.3840962077,
				"element": "H" 
			},
			{
				"x": -0.0717678363,
				"y": -2.8447428761,
				"z": -1.9239364244,
				"element": "H" 
			},
			{
				"x": 2.2982064761,
				"y": -3.3967233803,
				"z": -2.4694218291,
				"element": "H" 
			},
			{
				"x": 4.0289689394,
				"y": -3.3063204845,
				"z": -0.6871156406,
				"element": "H" 
			},
			{
				"x": 3.3895984158,
				"y": -2.6663476799,
				"z": 1.6272661728,
				"element": "H" 
			},
			{
				"x": 1.0381056463,
				"y": -2.087562856,
				"z": 2.1495636592,
				"element": "H" 
			},
			{
				"x": 0.5927749052,
				"y": 1.3682851563,
				"z": -0.5316260798,
				"element": "H" 
			},
			{
				"x": -0.2146981552,
				"y": 3.1198942844,
				"z": -2.0815601451,
				"element": "H" 
			},
			{
				"x": -2.5343152234,
				"y": 3.995020006,
				"z": -1.8752462748,
				"element": "H" 
			},
			{
				"x": -4.0315167897,
				"y": 3.1036605709,
				"z": -0.1005862789,
				"element": "H" 
			},
			{
				"x": -3.224426396,
				"y": 1.3694927578,
				"z": 1.4507684037,
				"element": "H" 
			}
		],
		 "valence_orbital": [ 
			{
				"type": "occ",
				"energy": -0.25718,
				"method": "rhf"
			},
			{
				"type": "occ",
				"energy": -0.2561,
				"method": "rhf"
			},
			{
				"type": "occ",
				"energy": -0.25431,
				"method": "rhf"
			},
			{
				"type": "occ",
				"energy": -0.24273,
				"method": "rhf"
			},
			{
				"type": "occ",
				"energy": -0.23568,
				"method": "rhf"
			},
			{
				"type": "unocc",
				"energy": -0.03068,
				"method": "rhf"
			},
			{
				"type": "unocc",
				"energy": -0.00884,
				"method": "rhf"
			},
			{
				"type": "unocc",
				"energy": -0.0069,
				"method": "rhf"
			},
			{
				"type": "unocc",
				"energy": -0.00464,
				"method": "rhf"
			},
			{
				"type": "unocc",
				"energy": 0.05281,
				"method": "rhf"
			}
		],
		"cosmo_sigma_profile": { 
			"-0.025": 0.0,
			"-0.024": 0.0,
			"-0.023": 0.0,
			"-0.022": 0.0,
			"-0.021": 0.0,
			"-0.02": 0.0,
			"-0.019": 0.0,
			"-0.018": 0.0,
			"-0.017": 0.0,
			"-0.016": 0.0,
			"-0.015": 0.0,
			"-0.014": 0.0,
			"-0.013": 0.0,
			"-0.012": 0.576876506542,
			"-0.011": 1.3282641666,
			"-0.01": 1.6516330349,
			"-0.009": 1.07324130072,
			"-0.008": 1.52817796716,
			"-0.007": 2.55853186022,
			"-0.006": 13.7084828897,
			"-0.005": 24.9329370828,
			"-0.004": 28.9110446509,
			"-0.003": 24.4966096372,
			"-0.002": 22.483770794,
			"-0.001": 22.0377771003,
			"0.0": 21.6564639467,
			"0.001": 19.2717901535,
			"0.002": 18.0593990013,
			"0.003": 16.2973409695,
			"0.004": 20.2857752306,
			"0.005": 16.5058582282,
			"0.006": 9.13468434063,
			"0.007": 1.4719771353,
			"0.008": 1.95478214841,
			"0.009": 1.26569462995,
			"0.01": 1.13800544079,
			"0.011": 1.72347139993,
			"0.012": 2.31240848396,
			"0.013": 4.2151018493,
			"0.014": 4.22203296796,
			"0.015": 0.443815744813,
			"0.016": 0.0,
			"0.017": 0.0,
			"0.018": 0.0,
			"0.019": 0.0,
			"0.02": 0.0,
			"0.021": 0.0,
			"0.022": 0.0,
			"0.023": 0.0,
			"0.024": 0.0,
			"0.025": 0.0
		}
	}
}
