{
	 "smiles": "ClCC(=O)C1=C(Cl)SC(Cl)=C1", 
	 "Tm": 317.15, 
	 "num_atms": 14, 
	 "gaussian": { 
		 "optdone": 1, 
		 "sigma_profile": "yes", 
		 "theory": "DFT", 
		 "functional": "B3LYP", 
		 "basiset": "6-31G**", 
		 "properties": { 
			 "R2extent": 3487.2893, 
			 "electric_dipole_moment_norm": 1.94147267815, 
			 "electric_quadrupole_moment_norm": 8.54083310222, 
			 "total_energy": -2084.39664516, 
			 "HOMO_LUMO_gap": 0.16678, 
			 "cosmo_polarized_energy": -6.45, 
			 "cosmo_cavitation_energy": 25.75, 
			 "cosmo_dispersion_energy": -19.61, 
			 "cosmo_repulsion_energy": 1.54, 
			 "cosmo_total_nonelectrostatic_energy": 7.68, 
			 "SMD_solvation_energy": 3.98 
		},
		"coords": [
			{
				"x": -2.7211093771,
				"y": 0.7814728619,
				"z": -2.9655926901,
				"element": "Cl" 
			},
			{
				"x": -2.3828885424,
				"y": 1.8438622572,
				"z": -1.5362590751,
				"element": "C" 
			},
			{
				"x": -2.0081726503,
				"y": 1.001686395,
				"z": -0.3206040134,
				"element": "C" 
			},
			{
				"x": -2.8032453984,
				"y": 0.919186352,
				"z": 0.6013827281,
				"element": "O" 
			},
			{
				"x": -0.7128345179,
				"y": 0.2695111459,
				"z": -0.2391801259,
				"element": "C" 
			},
			{
				"x": 0.4299737877,
				"y": 0.3716232974,
				"z": -1.0073591306,
				"element": "C" 
			},
			{
				"x": 0.7729360035,
				"y": 1.3912752372,
				"z": -2.3603865121,
				"element": "Cl" 
			},
			{
				"x": 1.7040540728,
				"y": -0.6833052216,
				"z": -0.4652091873,
				"element": "S" 
			},
			{
				"x": 0.6797752098,
				"y": -1.2768264089,
				"z": 0.8227621995,
				"element": "C" 
			},
			{
				"x": 1.268469563,
				"y": -2.4813005585,
				"z": 1.911960896,
				"element": "Cl" 
			},
			{
				"x": -0.5435427748,
				"y": -0.6889872016,
				"z": 0.8225648884,
				"element": "C" 
			},
			{
				"x": -3.3033702414,
				"y": 2.3741171085,
				"z": -1.2990831172,
				"element": "H" 
			},
			{
				"x": -1.5969260397,
				"y": 2.5390048917,
				"z": -1.8303769527,
				"element": "H" 
			},
			{
				"x": -1.331919095,
				"y": -0.8999201562,
				"z": 1.5324800923,
				"element": "H" 
			}
		],
		 "valence_orbital": [ 
			{
				"type": "occ",
				"energy": -0.32281,
				"method": "rhf"
			},
			{
				"type": "occ",
				"energy": -0.31014,
				"method": "rhf"
			},
			{
				"type": "occ",
				"energy": -0.28828,
				"method": "rhf"
			},
			{
				"type": "occ",
				"energy": -0.27514,
				"method": "rhf"
			},
			{
				"type": "occ",
				"energy": -0.25194,
				"method": "rhf"
			},
			{
				"type": "unocc",
				"energy": -0.08516,
				"method": "rhf"
			},
			{
				"type": "unocc",
				"energy": -0.03559,
				"method": "rhf"
			},
			{
				"type": "unocc",
				"energy": -0.01917,
				"method": "rhf"
			},
			{
				"type": "unocc",
				"energy": -0.01463,
				"method": "rhf"
			},
			{
				"type": "unocc",
				"energy": 0.01697,
				"method": "rhf"
			}
		],
		"cosmo_sigma_profile": { 
			"-0.025": 0.0,
			"-0.024": 0.0,
			"-0.023": 0.0,
			"-0.022": 0.0,
			"-0.021": 0.0,
			"-0.02": 0.0,
			"-0.019": 0.0,
			"-0.018": 0.0,
			"-0.017": 0.0,
			"-0.016": 0.0,
			"-0.015": 0.0,
			"-0.014": 0.0,
			"-0.013": 0.0,
			"-0.012": 0.0,
			"-0.011": 0.0,
			"-0.01": 0.152718384133,
			"-0.009": 2.24198566593,
			"-0.008": 5.04252243908,
			"-0.007": 5.62771846099,
			"-0.006": 6.07695616384,
			"-0.005": 6.14014689097,
			"-0.004": 11.2269994549,
			"-0.003": 14.7073626985,
			"-0.002": 20.6360068741,
			"-0.001": 24.3235305134,
			"0.0": 26.6520721443,
			"0.001": 23.9151991059,
			"0.002": 20.17518265,
			"0.003": 15.7545296596,
			"0.004": 9.53722562451,
			"0.005": 9.48502060089,
			"0.006": 3.30668459465,
			"0.007": 1.43408640469,
			"0.008": 1.89636890282,
			"0.009": 2.43862151216,
			"0.01": 3.43308134277,
			"0.011": 1.99266755267,
			"0.012": 0.1082407531,
			"0.013": 0.0,
			"0.014": 0.0,
			"0.015": 0.0,
			"0.016": 0.0,
			"0.017": 0.0,
			"0.018": 0.0,
			"0.019": 0.0,
			"0.02": 0.0,
			"0.021": 0.0,
			"0.022": 0.0,
			"0.023": 0.0,
			"0.024": 0.0,
			"0.025": 0.0
		}
	}
}
