{
	 "smiles": "NC(=N)SCCCS(O)(=O)=O", 
	 "Tm": 517.15, 
	 "num_atms": 21, 
	 "gaussian": { 
		 "optdone": 1, 
		 "sigma_profile": "yes", 
		 "theory": "DFT", 
		 "functional": "B3LYP", 
		 "basiset": "6-31G**", 
		 "properties": { 
			 "R2extent": 3207.5027, 
			 "electric_dipole_moment_norm": 6.54286186084, 
			 "electric_quadrupole_moment_norm": 26.6940661425, 
			 "total_energy": -1289.94711928, 
			 "HOMO_LUMO_gap": 0.24079, 
			 "cosmo_polarized_energy": -19.84, 
			 "cosmo_cavitation_energy": 25.32, 
			 "cosmo_dispersion_energy": -20.33, 
			 "cosmo_repulsion_energy": 1.53, 
			 "cosmo_total_nonelectrostatic_energy": 6.52, 
			 "SMD_solvation_energy": 2.16 
		},
		"coords": [
			{
				"x": 1.4568754578,
				"y": 1.0059901415,
				"z": 2.7743084805,
				"element": "N" 
			},
			{
				"x": 0.7371419338,
				"y": -0.0344576674,
				"z": 2.2781280971,
				"element": "C" 
			},
			{
				"x": -0.430986465,
				"y": -0.3206044772,
				"z": 2.7386967931,
				"element": "N" 
			},
			{
				"x": 1.6119686698,
				"y": -0.9037793186,
				"z": 0.950011707,
				"element": "S" 
			},
			{
				"x": 0.161516573,
				"y": -1.2883552276,
				"z": -0.1183153793,
				"element": "C" 
			},
			{
				"x": -0.5622035801,
				"y": -0.0281344129,
				"z": -0.638601967,
				"element": "C" 
			},
			{
				"x": -2.0656250614,
				"y": -0.1977033253,
				"z": -0.8945064268,
				"element": "C" 
			},
			{
				"x": -3.0787925759,
				"y": -0.4220859162,
				"z": 0.6024404899,
				"element": "S" 
			},
			{
				"x": -2.5960226245,
				"y": 0.7954207896,
				"z": 1.5429047603,
				"element": "O" 
			},
			{
				"x": -4.4654830926,
				"y": -0.174523888,
				"z": 0.2375227258,
				"element": "O" 
			},
			{
				"x": -2.6901412172,
				"y": -1.6925360126,
				"z": 1.2354509684,
				"element": "O" 
			},
			{
				"x": 1.0498765802,
				"y": 1.523038211,
				"z": 3.5410568268,
				"element": "H" 
			},
			{
				"x": 2.1634245849,
				"y": 1.4507858729,
				"z": 2.2107449324,
				"element": "H" 
			},
			{
				"x": -0.7698955196,
				"y": -1.2300900208,
				"z": 2.4292857029,
				"element": "H" 
			},
			{
				"x": -0.5144630693,
				"y": -1.9445206968,
				"z": 0.4309082017,
				"element": "H" 
			},
			{
				"x": 0.5826251984,
				"y": -1.8742611685,
				"z": -0.9401307539,
				"element": "H" 
			},
			{
				"x": -0.0972792993,
				"y": 0.2980894901,
				"z": -1.5750381966,
				"element": "H" 
			},
			{
				"x": -0.4393434325,
				"y": 0.8004263926,
				"z": 0.0631964364,
				"element": "H" 
			},
			{
				"x": -2.2992462221,
				"y": -1.0675426824,
				"z": -1.5161539824,
				"element": "H" 
			},
			{
				"x": -2.4758021593,
				"y": 0.6908911188,
				"z": -1.3805542722,
				"element": "H" 
			},
			{
				"x": -1.8434446795,
				"y": 0.4916527976,
				"z": 2.1465448561,
				"element": "H" 
			}
		],
		 "valence_orbital": [ 
			{
				"type": "occ",
				"energy": -0.30776,
				"method": "rhf"
			},
			{
				"type": "occ",
				"energy": -0.30226,
				"method": "rhf"
			},
			{
				"type": "occ",
				"energy": -0.28933,
				"method": "rhf"
			},
			{
				"type": "occ",
				"energy": -0.27087,
				"method": "rhf"
			},
			{
				"type": "occ",
				"energy": -0.26012,
				"method": "rhf"
			},
			{
				"type": "unocc",
				"energy": -0.01933,
				"method": "rhf"
			},
			{
				"type": "unocc",
				"energy": 0.01238,
				"method": "rhf"
			},
			{
				"type": "unocc",
				"energy": 0.05024,
				"method": "rhf"
			},
			{
				"type": "unocc",
				"energy": 0.05904,
				"method": "rhf"
			},
			{
				"type": "unocc",
				"energy": 0.06949,
				"method": "rhf"
			}
		],
		"cosmo_sigma_profile": { 
			"-0.025": 0.0,
			"-0.024": 0.0,
			"-0.023": 0.0,
			"-0.022": 0.0,
			"-0.021": 0.0,
			"-0.02": 0.0,
			"-0.019": 0.0,
			"-0.018": 0.0,
			"-0.017": 0.0,
			"-0.016": 0.0,
			"-0.015": 0.58659888234,
			"-0.014": 2.71030155341,
			"-0.013": 1.8057891373,
			"-0.012": 2.34131853864,
			"-0.011": 2.20899642106,
			"-0.01": 1.44205820187,
			"-0.009": 4.29869882653,
			"-0.008": 7.85166561206,
			"-0.007": 10.1493229087,
			"-0.006": 13.5950032586,
			"-0.005": 14.2410302432,
			"-0.004": 12.1186973197,
			"-0.003": 11.1224444118,
			"-0.002": 10.3698928447,
			"-0.001": 7.96121213733,
			"0.0": 9.08424422466,
			"0.001": 9.67627707442,
			"0.002": 6.27515765474,
			"0.003": 8.70436832276,
			"0.004": 7.95923784346,
			"0.005": 6.78485301926,
			"0.006": 7.57776603383,
			"0.007": 6.00619390614,
			"0.008": 6.92765906462,
			"0.009": 5.84574274901,
			"0.01": 9.96196284291,
			"0.011": 10.390072792,
			"0.012": 2.4813205,
			"0.013": 0.637596230562,
			"0.014": 0.499542151409,
			"0.015": 0.0,
			"0.016": 0.0,
			"0.017": 0.0,
			"0.018": 0.0,
			"0.019": 0.0,
			"0.02": 0.0,
			"0.021": 0.0,
			"0.022": 0.0,
			"0.023": 0.0,
			"0.024": 0.0,
			"0.025": 0.0
		}
	}
}
