{
	 "smiles": "CC1=NOC(=C1CBr)C1=CC=CC=C1", 
	 "Tm": 345.15, 
	 "num_atms": 24, 
	 "gaussian": { 
		 "optdone": 1, 
		 "sigma_profile": "yes", 
		 "theory": "DFT", 
		 "functional": "B3LYP", 
		 "basiset": "6-31G**", 
		 "properties": { 
			 "R2extent": 4435.197, 
			 "electric_dipole_moment_norm": 2.99476752019, 
			 "electric_quadrupole_moment_norm": 16.8554282357, 
			 "total_energy": -3126.5425286, 
			 "HOMO_LUMO_gap": 0.18571, 
			 "cosmo_polarized_energy": -10.69, 
			 "cosmo_cavitation_energy": 30.43, 
			 "cosmo_dispersion_energy": -22.04, 
			 "cosmo_repulsion_energy": 1.74, 
			 "cosmo_total_nonelectrostatic_energy": 10.13, 
			 "SMD_solvation_energy": 3.72 
		},
		"coords": [
			{
				"x": 0.617041669,
				"y": -4.2371153814,
				"z": 0.2045745993,
				"element": "C" 
			},
			{
				"x": 0.9187005524,
				"y": -2.7761455962,
				"z": 0.315931302,
				"element": "C" 
			},
			{
				"x": 2.1544552969,
				"y": -2.3451886541,
				"z": 0.2292549655,
				"element": "N" 
			},
			{
				"x": 2.0810114058,
				"y": -0.9520681384,
				"z": 0.360376495,
				"element": "O" 
			},
			{
				"x": 0.7926463581,
				"y": -0.5767723171,
				"z": 0.5200352139,
				"element": "C" 
			},
			{
				"x": -0.0081829511,
				"y": -1.6957411277,
				"z": 0.5006216775,
				"element": "C" 
			},
			{
				"x": -1.479794963,
				"y": -1.7958604276,
				"z": 0.5673698444,
				"element": "C" 
			},
			{
				"x": -2.3043285523,
				"y": -2.2509460625,
				"z": -1.2193591667,
				"element": "Br" 
			},
			{
				"x": 0.5462052011,
				"y": 0.8621507598,
				"z": 0.651442201,
				"element": "C" 
			},
			{
				"x": 1.3346178653,
				"y": 1.7706463504,
				"z": -0.0763534331,
				"element": "C" 
			},
			{
				"x": 1.1096076544,
				"y": 3.1404194094,
				"z": 0.0333049928,
				"element": "C" 
			},
			{
				"x": 0.0999086825,
				"y": 3.6238177515,
				"z": 0.8691952276,
				"element": "C" 
			},
			{
				"x": -0.6777127885,
				"y": 2.7291924222,
				"z": 1.6066059289,
				"element": "C" 
			},
			{
				"x": -0.4539348338,
				"y": 1.3572012932,
				"z": 1.5049037431,
				"element": "C" 
			},
			{
				"x": -0.0739485786,
				"y": -4.4230540095,
				"z": -0.6234614598,
				"element": "H" 
			},
			{
				"x": 0.1445381689,
				"y": -4.6110133802,
				"z": 1.1198781306,
				"element": "H" 
			},
			{
				"x": 1.5391206501,
				"y": -4.7964206021,
				"z": 0.0361345821,
				"element": "H" 
			},
			{
				"x": -1.8261295487,
				"y": -2.6010695613,
				"z": 1.2133141544,
				"element": "H" 
			},
			{
				"x": -1.9613962668,
				"y": -0.8626346715,
				"z": 0.8427657314,
				"element": "H" 
			},
			{
				"x": 2.1143446584,
				"y": 1.3918975264,
				"z": -0.728431279,
				"element": "H" 
			},
			{
				"x": 1.7214683917,
				"y": 3.8323823861,
				"z": -0.5376889407,
				"element": "H" 
			},
			{
				"x": -0.0745914516,
				"y": 4.6925202183,
				"z": 0.9511765297,
				"element": "H" 
			},
			{
				"x": -1.4511951693,
				"y": 3.0994344963,
				"z": 2.2728337145,
				"element": "H" 
			},
			{
				"x": -1.031051451,
				"y": 0.671867316,
				"z": 2.1170752457,
				"element": "H" 
			}
		],
		 "valence_orbital": [ 
			{
				"type": "occ",
				"energy": -0.28588,
				"method": "rhf"
			},
			{
				"type": "occ",
				"energy": -0.27419,
				"method": "rhf"
			},
			{
				"type": "occ",
				"energy": -0.2734,
				"method": "rhf"
			},
			{
				"type": "occ",
				"energy": -0.26649,
				"method": "rhf"
			},
			{
				"type": "occ",
				"energy": -0.23926,
				"method": "rhf"
			},
			{
				"type": "unocc",
				"energy": -0.05355,
				"method": "rhf"
			},
			{
				"type": "unocc",
				"energy": -0.01864,
				"method": "rhf"
			},
			{
				"type": "unocc",
				"energy": -0.01563,
				"method": "rhf"
			},
			{
				"type": "unocc",
				"energy": 0.01431,
				"method": "rhf"
			},
			{
				"type": "unocc",
				"energy": 0.06687,
				"method": "rhf"
			}
		],
		"cosmo_sigma_profile": { 
			"-0.025": 0.0,
			"-0.024": 0.0,
			"-0.023": 0.0,
			"-0.022": 0.0,
			"-0.021": 0.0,
			"-0.02": 0.0,
			"-0.019": 0.0,
			"-0.018": 0.0,
			"-0.017": 0.0,
			"-0.016": 0.0,
			"-0.015": 0.0,
			"-0.014": 0.0,
			"-0.013": 0.0,
			"-0.012": 0.0,
			"-0.011": 0.0,
			"-0.01": 0.0,
			"-0.009": 0.958299441869,
			"-0.008": 5.03600096474,
			"-0.007": 7.54661442565,
			"-0.006": 16.2799444083,
			"-0.005": 18.0401783333,
			"-0.004": 18.3781946131,
			"-0.003": 15.149170422,
			"-0.002": 18.9600628166,
			"-0.001": 18.6002446414,
			"0.0": 19.5128552981,
			"0.001": 16.4403916381,
			"0.002": 14.9841173532,
			"0.003": 17.9827714011,
			"0.004": 19.8444712679,
			"0.005": 10.3751004154,
			"0.006": 10.6918199113,
			"0.007": 5.47646361415,
			"0.008": 4.20421947925,
			"0.009": 1.68489489124,
			"0.01": 1.49456652028,
			"0.011": 1.60708014699,
			"0.012": 1.1842944011,
			"0.013": 1.32802653499,
			"0.014": 1.01331727225,
			"0.015": 0.0809198186845,
			"0.016": 0.0,
			"0.017": 0.0,
			"0.018": 0.0,
			"0.019": 0.0,
			"0.02": 0.0,
			"0.021": 0.0,
			"0.022": 0.0,
			"0.023": 0.0,
			"0.024": 0.0,
			"0.025": 0.0
		}
	}
}
