{
	 "smiles": "CSC(=O)C1=C(CC(C)C)C(C(=O)SC)=C(N=C1C(F)F)C(F)(F)F", 
	 "Tm": 338.15, 
	 "num_atms": 41, 
	 "gaussian": { 
		 "optdone": 1, 
		 "sigma_profile": "yes", 
		 "theory": "DFT", 
		 "functional": "B3LYP", 
		 "basiset": "6-31G**", 
		 "properties": { 
			 "R2extent": 10613.9603, 
			 "electric_dipole_moment_norm": 3.24459327806, 
			 "electric_quadrupole_moment_norm": 20.4643281502, 
			 "total_energy": -2082.01739403, 
			 "HOMO_LUMO_gap": 0.19024, 
			 "cosmo_polarized_energy": -12.33, 
			 "cosmo_cavitation_energy": 48.76, 
			 "cosmo_dispersion_energy": -31.27, 
			 "cosmo_repulsion_energy": 2.25, 
			 "cosmo_total_nonelectrostatic_energy": 19.75, 
			 "SMD_solvation_energy": 9.81 
		},
		"coords": [
			{
				"x": -4.2565466316,
				"y": -1.440404455,
				"z": -2.1926527303,
				"element": "C" 
			},
			{
				"x": -3.4205647284,
				"y": -0.5129608211,
				"z": -0.8617679772,
				"element": "S" 
			},
			{
				"x": -2.0678504426,
				"y": -1.646256573,
				"z": -0.5562461509,
				"element": "C" 
			},
			{
				"x": -1.9046003639,
				"y": -2.6700074083,
				"z": -1.1836568756,
				"element": "O" 
			},
			{
				"x": -1.1602016992,
				"y": -1.2138709529,
				"z": 0.5778409028,
				"element": "C" 
			},
			{
				"x": -0.1696722475,
				"y": -0.2267643047,
				"z": 0.4039764567,
				"element": "C" 
			},
			{
				"x": 0.0920951889,
				"y": 0.3796932071,
				"z": -0.9618360471,
				"element": "C" 
			},
			{
				"x": 0.732496569,
				"y": -0.581390766,
				"z": -2.0045195693,
				"element": "C" 
			},
			{
				"x": 2.1083745833,
				"y": -1.1014027997,
				"z": -1.570053314,
				"element": "C" 
			},
			{
				"x": 0.8195993378,
				"y": 0.1376026256,
				"z": -3.3587188886,
				"element": "C" 
			},
			{
				"x": 0.5729328586,
				"y": 0.1552428111,
				"z": 1.5480847034,
				"element": "C" 
			},
			{
				"x": 1.5867793516,
				"y": 1.2771285111,
				"z": 1.4392404734,
				"element": "C" 
			},
			{
				"x": 1.2536155531,
				"y": 2.425966071,
				"z": 1.2360478693,
				"element": "O" 
			},
			{
				"x": 3.2914606568,
				"y": 0.7585102611,
				"z": 1.5658185561,
				"element": "S" 
			},
			{
				"x": 4.0883461627,
				"y": 2.3947701736,
				"z": 1.4383010668,
				"element": "C" 
			},
			{
				"x": 0.2797284038,
				"y": -0.4581258596,
				"z": 2.7752987528,
				"element": "C" 
			},
			{
				"x": -0.6152322383,
				"y": -1.435073793,
				"z": 2.907002079,
				"element": "N" 
			},
			{
				"x": -1.3117729388,
				"y": -1.8131406198,
				"z": 1.8391242239,
				"element": "C" 
			},
			{
				"x": -2.25144974,
				"y": -2.9737260751,
				"z": 2.1069798004,
				"element": "C" 
			},
			{
				"x": -1.7617416198,
				"y": -4.1077567672,
				"z": 1.5302074741,
				"element": "F" 
			},
			{
				"x": -3.4859294038,
				"y": -2.7393515298,
				"z": 1.5665562431,
				"element": "F" 
			},
			{
				"x": 0.9624913126,
				"y": -0.0824414794,
				"z": 4.0883852722,
				"element": "C" 
			},
			{
				"x": 2.0860751393,
				"y": -0.8057488093,
				"z": 4.2711352254,
				"element": "F" 
			},
			{
				"x": 0.1565755585,
				"y": -0.3065396093,
				"z": 5.133242027,
				"element": "F" 
			},
			{
				"x": 1.3069404239,
				"y": 1.2245475239,
				"z": 4.1147930265,
				"element": "F" 
			},
			{
				"x": -4.5927061564,
				"y": -2.4058124345,
				"z": -1.8131396899,
				"element": "H" 
			},
			{
				"x": -5.1114204759,
				"y": -0.8374046565,
				"z": -2.5026065165,
				"element": "H" 
			},
			{
				"x": -3.5765558417,
				"y": -1.5925063032,
				"z": -3.031175565,
				"element": "H" 
			},
			{
				"x": 0.7220803887,
				"y": 1.265151912,
				"z": -0.8579673907,
				"element": "H" 
			},
			{
				"x": -0.8628959661,
				"y": 0.7330097107,
				"z": -1.3652619842,
				"element": "H" 
			},
			{
				"x": 0.0712454588,
				"y": -1.4465086129,
				"z": -2.1226909884,
				"element": "H" 
			},
			{
				"x": 2.8239663332,
				"y": -0.2816331939,
				"z": -1.442768179,
				"element": "H" 
			},
			{
				"x": 2.5122386615,
				"y": -1.7844142873,
				"z": -2.3245914345,
				"element": "H" 
			},
			{
				"x": 2.05969328,
				"y": -1.6503176724,
				"z": -0.6243186482,
				"element": "H" 
			},
			{
				"x": 1.2317016037,
				"y": -0.5269268749,
				"z": -4.1249852515,
				"element": "H" 
			},
			{
				"x": 1.4712756766,
				"y": 1.0175996436,
				"z": -3.2967858278,
				"element": "H" 
			},
			{
				"x": -0.1649999408,
				"y": 0.4744185202,
				"z": -3.7008688373,
				"element": "H" 
			},
			{
				"x": 5.1605562887,
				"y": 2.2137429049,
				"z": 1.3492758834,
				"element": "H" 
			},
			{
				"x": 3.8794399625,
				"y": 2.9839154385,
				"z": 2.3320700205,
				"element": "H" 
			},
			{
				"x": 3.7164179191,
				"y": 2.9202362483,
				"z": 0.5584483353,
				"element": "H" 
			},
			{
				"x": -2.3564862381,
				"y": -3.1334489037,
				"z": 3.1838834739,
				"element": "H" 
			}
		],
		 "valence_orbital": [ 
			{
				"type": "occ",
				"energy": -0.29476,
				"method": "rhf"
			},
			{
				"type": "occ",
				"energy": -0.27348,
				"method": "rhf"
			},
			{
				"type": "occ",
				"energy": -0.27265,
				"method": "rhf"
			},
			{
				"type": "occ",
				"energy": -0.26542,
				"method": "rhf"
			},
			{
				"type": "occ",
				"energy": -0.264,
				"method": "rhf"
			},
			{
				"type": "unocc",
				"energy": -0.07376,
				"method": "rhf"
			},
			{
				"type": "unocc",
				"energy": -0.06628,
				"method": "rhf"
			},
			{
				"type": "unocc",
				"energy": -0.04114,
				"method": "rhf"
			},
			{
				"type": "unocc",
				"energy": -0.02905,
				"method": "rhf"
			},
			{
				"type": "unocc",
				"energy": 0.01408,
				"method": "rhf"
			}
		],
		"cosmo_sigma_profile": { 
			"-0.025": 0.0,
			"-0.024": 0.0,
			"-0.023": 0.0,
			"-0.022": 0.0,
			"-0.021": 0.0,
			"-0.02": 0.0,
			"-0.019": 0.0,
			"-0.018": 0.0,
			"-0.017": 0.0,
			"-0.016": 0.0,
			"-0.015": 0.0,
			"-0.014": 0.0,
			"-0.013": 0.0,
			"-0.012": 0.0,
			"-0.011": 0.0,
			"-0.01": 0.713089024963,
			"-0.009": 2.00457544004,
			"-0.008": 3.04850398175,
			"-0.007": 7.91059303581,
			"-0.006": 10.7373704715,
			"-0.005": 17.02740086,
			"-0.004": 30.0491725673,
			"-0.003": 41.8095476572,
			"-0.002": 38.841686853,
			"-0.001": 35.6692146567,
			"0.0": 29.2965180192,
			"0.001": 33.324877282,
			"0.002": 40.3491492956,
			"0.003": 29.5881138778,
			"0.004": 27.5428216728,
			"0.005": 11.4132202423,
			"0.006": 5.57112495578,
			"0.007": 5.29497354933,
			"0.008": 5.32056275073,
			"0.009": 5.6593160792,
			"0.01": 7.58469240759,
			"0.011": 0.947219686405,
			"0.012": 0.0,
			"0.013": 0.0,
			"0.014": 0.0,
			"0.015": 0.0,
			"0.016": 0.0,
			"0.017": 0.0,
			"0.018": 0.0,
			"0.019": 0.0,
			"0.02": 0.0,
			"0.021": 0.0,
			"0.022": 0.0,
			"0.023": 0.0,
			"0.024": 0.0,
			"0.025": 0.0
		}
	}
}
