{
	 "smiles": "CN1C=CN=C1SC1=C(C=C(C=O)C=C1)[N+]([O-])=O", 
	 "Tm": 447.15, 
	 "num_atms": 27, 
	 "gaussian": { 
		 "optdone": 1, 
		 "sigma_profile": "yes", 
		 "theory": "DFT", 
		 "functional": "B3LYP", 
		 "basiset": "6-31G**", 
		 "properties": { 
			 "R2extent": 7561.443, 
			 "electric_dipole_moment_norm": 5.24015368095, 
			 "electric_quadrupole_moment_norm": 14.7745697315, 
			 "total_energy": -1212.57982966, 
			 "HOMO_LUMO_gap": 0.14617, 
			 "cosmo_polarized_energy": -18.16, 
			 "cosmo_cavitation_energy": 34.41, 
			 "cosmo_dispersion_energy": -24.54, 
			 "cosmo_repulsion_energy": 1.84, 
			 "cosmo_total_nonelectrostatic_energy": 11.71, 
			 "SMD_solvation_energy": 7.72 
		},
		"coords": [
			{
				"x": 1.1345171551,
				"y": 0.1980028232,
				"z": -1.3192357525,
				"element": "C" 
			},
			{
				"x": 1.2135065282,
				"y": 0.244024277,
				"z": 0.1352266308,
				"element": "N" 
			},
			{
				"x": 2.1156898227,
				"y": -0.4485108606,
				"z": 0.9065576847,
				"element": "C" 
			},
			{
				"x": 1.810757518,
				"y": -0.1479704733,
				"z": 2.2144676635,
				"element": "C" 
			},
			{
				"x": 0.7477233418,
				"y": 0.7123327086,
				"z": 2.2727631038,
				"element": "N" 
			},
			{
				"x": 0.3995763599,
				"y": 0.9301223528,
				"z": 1.014924148,
				"element": "C" 
			},
			{
				"x": -0.8571114016,
				"y": 2.0612942864,
				"z": 0.4850252264,
				"element": "S" 
			},
			{
				"x": -2.3128357401,
				"y": 1.0231826883,
				"z": 0.514194398,
				"element": "C" 
			},
			{
				"x": -3.542797262,
				"y": 1.4331615259,
				"z": -0.0496563967,
				"element": "C" 
			},
			{
				"x": -4.6692810176,
				"y": 0.609121133,
				"z": -0.0367832576,
				"element": "C" 
			},
			{
				"x": -4.6095863701,
				"y": -0.6491150046,
				"z": 0.5512069909,
				"element": "C" 
			},
			{
				"x": -5.8031541447,
				"y": -1.5247081168,
				"z": 0.5671447298,
				"element": "C" 
			},
			{
				"x": -5.8234893264,
				"y": -2.6385581156,
				"z": 1.0539903181,
				"element": "O" 
			},
			{
				"x": -3.4012891731,
				"y": -1.0690883592,
				"z": 1.1348304739,
				"element": "C" 
			},
			{
				"x": -2.2841357413,
				"y": -0.2526561224,
				"z": 1.1172219484,
				"element": "C" 
			},
			{
				"x": -3.7016826202,
				"y": 2.7453704229,
				"z": -0.6769814877,
				"element": "N" 
			},
			{
				"x": -4.7491078555,
				"y": 2.9824426154,
				"z": -1.2770290588,
				"element": "O" 
			},
			{
				"x": -2.769338955,
				"y": 3.5466636913,
				"z": -0.5638475897,
				"element": "O" 
			},
			{
				"x": 0.6646589336,
				"y": -0.7317091804,
				"z": -1.6549966876,
				"element": "H" 
			},
			{
				"x": 0.5427865085,
				"y": 1.0426645255,
				"z": -1.6713857975,
				"element": "H" 
			},
			{
				"x": 2.1392730491,
				"y": 0.2651808296,
				"z": -1.7423952219,
				"element": "H" 
			},
			{
				"x": 2.8788680295,
				"y": -1.0710065156,
				"z": 0.4635465137,
				"element": "H" 
			},
			{
				"x": 2.3044408125,
				"y": -0.4972695605,
				"z": 3.1106572439,
				"element": "H" 
			},
			{
				"x": -5.5798042754,
				"y": 0.9788462336,
				"z": -0.4952282913,
				"element": "H" 
			},
			{
				"x": -6.7071035668,
				"y": -1.0874284891,
				"z": 0.0900716233,
				"element": "H" 
			},
			{
				"x": -3.3663973915,
				"y": -2.0457217722,
				"z": 1.6073994932,
				"element": "H" 
			},
			{
				"x": -1.3719832177,
				"y": -0.5820675432,
				"z": 1.5989113507,
				"element": "H" 
			}
		],
		 "valence_orbital": [ 
			{
				"type": "occ",
				"energy": -0.29087,
				"method": "rhf"
			},
			{
				"type": "occ",
				"energy": -0.28446,
				"method": "rhf"
			},
			{
				"type": "occ",
				"energy": -0.26958,
				"method": "rhf"
			},
			{
				"type": "occ",
				"energy": -0.2521,
				"method": "rhf"
			},
			{
				"type": "occ",
				"energy": -0.24696,
				"method": "rhf"
			},
			{
				"type": "unocc",
				"energy": -0.10079,
				"method": "rhf"
			},
			{
				"type": "unocc",
				"energy": -0.07884,
				"method": "rhf"
			},
			{
				"type": "unocc",
				"energy": -0.02349,
				"method": "rhf"
			},
			{
				"type": "unocc",
				"energy": -0.01873,
				"method": "rhf"
			},
			{
				"type": "unocc",
				"energy": 0.02376,
				"method": "rhf"
			}
		],
		"cosmo_sigma_profile": { 
			"-0.025": 0.0,
			"-0.024": 0.0,
			"-0.023": 0.0,
			"-0.022": 0.0,
			"-0.021": 0.0,
			"-0.02": 0.0,
			"-0.019": 0.0,
			"-0.018": 0.0,
			"-0.017": 0.0,
			"-0.016": 0.0,
			"-0.015": 0.0,
			"-0.014": 0.0,
			"-0.013": 0.0,
			"-0.012": 0.0,
			"-0.011": 0.0,
			"-0.01": 1.07864345795,
			"-0.009": 4.03903651588,
			"-0.008": 7.10757365929,
			"-0.007": 14.6132575586,
			"-0.006": 17.1718091248,
			"-0.005": 19.3475817416,
			"-0.004": 24.9420312334,
			"-0.003": 23.1736962667,
			"-0.002": 20.2186691839,
			"-0.001": 21.8031918147,
			"0.0": 15.927919488,
			"0.001": 14.3323441238,
			"0.002": 9.68862006956,
			"0.003": 10.3002193929,
			"0.004": 11.0830648547,
			"0.005": 9.30211679357,
			"0.006": 9.50708438541,
			"0.007": 11.018825069,
			"0.008": 9.16770297051,
			"0.009": 8.24547702776,
			"0.01": 5.0693768927,
			"0.011": 4.91729256661,
			"0.012": 2.21810426752,
			"0.013": 1.56292942369,
			"0.014": 0.933845850156,
			"0.015": 0.783436584051,
			"0.016": 0.891426663149,
			"0.017": 0.552599569107,
			"0.018": 0.0,
			"0.019": 0.0,
			"0.02": 0.0,
			"0.021": 0.0,
			"0.022": 0.0,
			"0.023": 0.0,
			"0.024": 0.0,
			"0.025": 0.0
		}
	}
}
