{
	 "smiles": "FC1=C(N=C=S)C(Br)=CC(Br)=C1", 
	 "Tm": 323.65, 
	 "num_atms": 14, 
	 "gaussian": { 
		 "optdone": 1, 
		 "sigma_profile": "yes", 
		 "theory": "DFT", 
		 "functional": "B3LYP", 
		 "basiset": "6-31G**", 
		 "properties": { 
			 "R2extent": 6194.7322, 
			 "electric_dipole_moment_norm": 2.02194562489, 
			 "electric_quadrupole_moment_norm": 3.25964012124, 
			 "total_energy": -5963.5160403, 
			 "HOMO_LUMO_gap": 0.17388, 
			 "cosmo_polarized_energy": -4.13, 
			 "cosmo_cavitation_energy": 27.33, 
			 "cosmo_dispersion_energy": -20.82, 
			 "cosmo_repulsion_energy": 1.62, 
			 "cosmo_total_nonelectrostatic_energy": 8.13, 
			 "SMD_solvation_energy": 3.02 
		},
		"coords": [
			{
				"x": 0.3792767608,
				"y": 1.7131652166,
				"z": 1.2718487674,
				"element": "F" 
			},
			{
				"x": 0.8296019488,
				"y": 1.0835647062,
				"z": 0.1769257017,
				"element": "C" 
			},
			{
				"x": 0.151048961,
				"y": -0.0782102109,
				"z": -0.2365359798,
				"element": "C" 
			},
			{
				"x": -0.9330849355,
				"y": -0.544602263,
				"z": 0.4617268963,
				"element": "N" 
			},
			{
				"x": -1.6619951596,
				"y": -0.3734197015,
				"z": 1.4054158142,
				"element": "C" 
			},
			{
				"x": -2.6918741203,
				"y": -0.2754614256,
				"z": 2.5979966514,
				"element": "S" 
			},
			{
				"x": 0.6327482193,
				"y": -0.7296493336,
				"z": -1.3863113573,
				"element": "C" 
			},
			{
				"x": -0.2345828706,
				"y": -2.2999984623,
				"z": -1.9987100007,
				"element": "Br" 
			},
			{
				"x": 1.7357445961,
				"y": -0.2429325486,
				"z": -2.0845840664,
				"element": "C" 
			},
			{
				"x": 2.3713901722,
				"y": 0.9119991948,
				"z": -1.6320313754,
				"element": "C" 
			},
			{
				"x": 3.8778873963,
				"y": 1.5789505429,
				"z": -2.5831865651,
				"element": "Br" 
			},
			{
				"x": 1.9278443303,
				"y": 1.5903169514,
				"z": -0.4967556302,
				"element": "C" 
			},
			{
				"x": 2.0900281798,
				"y": -0.7594203182,
				"z": -2.9666649978,
				"element": "H" 
			},
			{
				"x": 2.4132665213,
				"y": 2.4880976519,
				"z": -0.1357338583,
				"element": "H" 
			}
		],
		 "valence_orbital": [ 
			{
				"type": "occ",
				"energy": -0.30535,
				"method": "rhf"
			},
			{
				"type": "occ",
				"energy": -0.29302,
				"method": "rhf"
			},
			{
				"type": "occ",
				"energy": -0.27554,
				"method": "rhf"
			},
			{
				"type": "occ",
				"energy": -0.27113,
				"method": "rhf"
			},
			{
				"type": "occ",
				"energy": -0.2411,
				"method": "rhf"
			},
			{
				"type": "unocc",
				"energy": -0.06722,
				"method": "rhf"
			},
			{
				"type": "unocc",
				"energy": -0.04531,
				"method": "rhf"
			},
			{
				"type": "unocc",
				"energy": -0.03974,
				"method": "rhf"
			},
			{
				"type": "unocc",
				"energy": -0.02581,
				"method": "rhf"
			},
			{
				"type": "unocc",
				"energy": 0.0123,
				"method": "rhf"
			}
		],
		"cosmo_sigma_profile": { 
			"-0.025": 0.0,
			"-0.024": 0.0,
			"-0.023": 0.0,
			"-0.022": 0.0,
			"-0.021": 0.0,
			"-0.02": 0.0,
			"-0.019": 0.0,
			"-0.018": 0.0,
			"-0.017": 0.0,
			"-0.016": 0.0,
			"-0.015": 0.0,
			"-0.014": 0.0,
			"-0.013": 0.0,
			"-0.012": 0.0,
			"-0.011": 0.0,
			"-0.01": 0.700688515441,
			"-0.009": 2.08232321139,
			"-0.008": 2.33097819524,
			"-0.007": 3.28341824427,
			"-0.006": 4.17452611099,
			"-0.005": 8.21667591359,
			"-0.004": 8.7761152182,
			"-0.003": 14.0396607151,
			"-0.002": 22.0252546057,
			"-0.001": 25.9884418143,
			"0.0": 33.1006297039,
			"0.001": 21.3030221042,
			"0.002": 25.4745934434,
			"0.003": 37.3859171806,
			"0.004": 21.0969482616,
			"0.005": 2.05759884511,
			"0.006": 0.0,
			"0.007": 0.0,
			"0.008": 0.0,
			"0.009": 0.0,
			"0.01": 0.0,
			"0.011": 0.0,
			"0.012": 0.0,
			"0.013": 0.0,
			"0.014": 0.0,
			"0.015": 0.0,
			"0.016": 0.0,
			"0.017": 0.0,
			"0.018": 0.0,
			"0.019": 0.0,
			"0.02": 0.0,
			"0.021": 0.0,
			"0.022": 0.0,
			"0.023": 0.0,
			"0.024": 0.0,
			"0.025": 0.0
		}
	}
}
