{
	 "smiles": "ClS(=O)(=O)C1=CC=C(OCCBr)C=C1", 
	 "Tm": 333.15, 
	 "num_atms": 22, 
	 "gaussian": { 
		 "optdone": 1, 
		 "sigma_profile": "yes", 
		 "theory": "DFT", 
		 "functional": "B3LYP", 
		 "basiset": "6-31G**", 
		 "properties": { 
			 "R2extent": 8307.6267, 
			 "electric_dipole_moment_norm": 6.53944129953, 
			 "electric_quadrupole_moment_norm": 22.9857963464, 
			 "total_energy": -3965.05379814, 
			 "HOMO_LUMO_gap": 0.17563, 
			 "cosmo_polarized_energy": -15.0, 
			 "cosmo_cavitation_energy": 32.47, 
			 "cosmo_dispersion_energy": -24.4, 
			 "cosmo_repulsion_energy": 1.91, 
			 "cosmo_total_nonelectrostatic_energy": 9.98, 
			 "SMD_solvation_energy": 3.22 
		},
		"coords": [
			{
				"x": 1.7823840899,
				"y": -4.182898136,
				"z": -1.0557720492,
				"element": "Cl" 
			},
			{
				"x": 0.9579963752,
				"y": -2.7128736367,
				"z": -2.3770842785,
				"element": "S" 
			},
			{
				"x": 2.0641042967,
				"y": -2.2725167261,
				"z": -3.2186466942,
				"element": "O" 
			},
			{
				"x": -0.2525523325,
				"y": -3.310165927,
				"z": -2.9286429738,
				"element": "O" 
			},
			{
				"x": 0.5180420455,
				"y": -1.4144159124,
				"z": -1.2493176648,
				"element": "C" 
			},
			{
				"x": -0.7642627984,
				"y": -1.3963829963,
				"z": -0.7038317166,
				"element": "C" 
			},
			{
				"x": -1.1198227366,
				"y": -0.3723021304,
				"z": 0.1712861295,
				"element": "C" 
			},
			{
				"x": -0.1817936729,
				"y": 0.6202833016,
				"z": 0.4952442426,
				"element": "C" 
			},
			{
				"x": -0.4235039545,
				"y": 1.6606780229,
				"z": 1.3292042362,
				"element": "O" 
			},
			{
				"x": -1.6896258777,
				"y": 1.7580199073,
				"z": 1.9720986265,
				"element": "C" 
			},
			{
				"x": -1.6720921778,
				"y": 2.9754140515,
				"z": 2.8698423177,
				"element": "C" 
			},
			{
				"x": -0.4442058879,
				"y": 2.7597807367,
				"z": 4.3968094661,
				"element": "Br" 
			},
			{
				"x": 1.109090502,
				"y": 0.5853866573,
				"z": -0.0633267485,
				"element": "C" 
			},
			{
				"x": 1.464198426,
				"y": -0.4307752564,
				"z": -0.9344307357,
				"element": "C" 
			},
			{
				"x": -1.4792739786,
				"y": -2.1668083634,
				"z": -0.9697792414,
				"element": "H" 
			},
			{
				"x": -2.1200525089,
				"y": -0.356143062,
				"z": 0.5857569431,
				"element": "H" 
			},
			{
				"x": -2.4842581708,
				"y": 1.8895688178,
				"z": 1.2214952664,
				"element": "H" 
			},
			{
				"x": -1.9013621362,
				"y": 0.8507567479,
				"z": 2.5504466784,
				"element": "H" 
			},
			{
				"x": -1.3366911455,
				"y": 3.8602476766,
				"z": 2.330097067,
				"element": "H" 
			},
			{
				"x": -2.6600101551,
				"y": 3.1486919856,
				"z": 3.2954722989,
				"element": "H" 
			},
			{
				"x": 1.8096606501,
				"y": 1.3687048026,
				"z": 0.2038648274,
				"element": "H" 
			},
			{
				"x": 2.453431148,
				"y": -0.4638505613,
				"z": -1.376785997,
				"element": "H" 
			}
		],
		 "valence_orbital": [ 
			{
				"type": "occ",
				"energy": -0.30824,
				"method": "rhf"
			},
			{
				"type": "occ",
				"energy": -0.29107,
				"method": "rhf"
			},
			{
				"type": "occ",
				"energy": -0.29018,
				"method": "rhf"
			},
			{
				"type": "occ",
				"energy": -0.28771,
				"method": "rhf"
			},
			{
				"type": "occ",
				"energy": -0.26082,
				"method": "rhf"
			},
			{
				"type": "unocc",
				"energy": -0.08519,
				"method": "rhf"
			},
			{
				"type": "unocc",
				"energy": -0.03968,
				"method": "rhf"
			},
			{
				"type": "unocc",
				"energy": -0.03398,
				"method": "rhf"
			},
			{
				"type": "unocc",
				"energy": -0.01559,
				"method": "rhf"
			},
			{
				"type": "unocc",
				"energy": 0.05501,
				"method": "rhf"
			}
		],
		"cosmo_sigma_profile": { 
			"-0.025": 0.0,
			"-0.024": 0.0,
			"-0.023": 0.0,
			"-0.022": 0.0,
			"-0.021": 0.0,
			"-0.02": 0.0,
			"-0.019": 0.0,
			"-0.018": 0.0,
			"-0.017": 0.0,
			"-0.016": 0.0,
			"-0.015": 0.0,
			"-0.014": 0.0,
			"-0.013": 0.0,
			"-0.012": 0.0,
			"-0.011": 0.0,
			"-0.01": 0.0,
			"-0.009": 3.18752756045,
			"-0.008": 14.9331520963,
			"-0.007": 20.7011078667,
			"-0.006": 14.571274657,
			"-0.005": 11.7981479149,
			"-0.004": 9.92485728194,
			"-0.003": 9.78482426801,
			"-0.002": 12.8201509707,
			"-0.001": 15.3272788062,
			"0.0": 19.7485174585,
			"0.001": 24.0787994031,
			"0.002": 18.5992521999,
			"0.003": 17.0245762024,
			"0.004": 20.5485844281,
			"0.005": 12.9100630496,
			"0.006": 13.007737317,
			"0.007": 8.18911208155,
			"0.008": 11.8618431,
			"0.009": 6.18207546358,
			"0.01": 0.368920826057,
			"0.011": 0.0,
			"0.012": 0.0,
			"0.013": 0.0,
			"0.014": 0.0,
			"0.015": 0.0,
			"0.016": 0.0,
			"0.017": 0.0,
			"0.018": 0.0,
			"0.019": 0.0,
			"0.02": 0.0,
			"0.021": 0.0,
			"0.022": 0.0,
			"0.023": 0.0,
			"0.024": 0.0,
			"0.025": 0.0
		}
	}
}
