{
	 "smiles": "ClCC1=NC(=NO1)C1=CSC=C1", 
	 "Tm": 327.15, 
	 "num_atms": 17, 
	 "gaussian": { 
		 "optdone": 1, 
		 "sigma_profile": "yes", 
		 "theory": "DFT", 
		 "functional": "B3LYP", 
		 "basiset": "6-31G**", 
		 "properties": { 
			 "R2extent": 3984.4515, 
			 "electric_dipole_moment_norm": 1.97054140022, 
			 "electric_quadrupole_moment_norm": 9.85296259508, 
			 "total_energy": -1312.80999315, 
			 "HOMO_LUMO_gap": 0.18612, 
			 "cosmo_polarized_energy": -9.22, 
			 "cosmo_cavitation_energy": 26.05, 
			 "cosmo_dispersion_energy": -20.01, 
			 "cosmo_repulsion_energy": 1.55, 
			 "cosmo_total_nonelectrostatic_energy": 7.59, 
			 "SMD_solvation_energy": 2.63 
		},
		"coords": [
			{
				"x": 3.3266716191,
				"y": 0.0415786745,
				"z": -2.1348687909,
				"element": "Cl" 
			},
			{
				"x": 2.8171806706,
				"y": 1.4112514135,
				"z": -1.0562895347,
				"element": "C" 
			},
			{
				"x": 1.6271477199,
				"y": 1.054854723,
				"z": -0.239905371,
				"element": "C" 
			},
			{
				"x": 0.3906516494,
				"y": 1.391508377,
				"z": -0.4479669912,
				"element": "N" 
			},
			{
				"x": -0.2594935144,
				"y": 0.7876196861,
				"z": 0.6140287929,
				"element": "C" 
			},
			{
				"x": 0.5360288841,
				"y": 0.1213410403,
				"z": 1.4253063995,
				"element": "N" 
			},
			{
				"x": 1.8051851995,
				"y": 0.3004934411,
				"z": 0.8561315921,
				"element": "O" 
			},
			{
				"x": -1.6991071271,
				"y": 0.8804439722,
				"z": 0.8221136778,
				"element": "C" 
			},
			{
				"x": -2.533715213,
				"y": 1.5694267474,
				"z": -0.0254547613,
				"element": "C" 
			},
			{
				"x": -4.175518597,
				"y": 1.4876020818,
				"z": 0.4964044101,
				"element": "S" 
			},
			{
				"x": -3.7430558359,
				"y": 0.515828811,
				"z": 1.872057515,
				"element": "C" 
			},
			{
				"x": -2.4022176776,
				"y": 0.2733087475,
				"z": 1.9165803364,
				"element": "C" 
			},
			{
				"x": 3.6714029606,
				"y": 1.644380507,
				"z": -0.420850421,
				"element": "H" 
			},
			{
				"x": 2.5727206458,
				"y": 2.2561525815,
				"z": -1.6970448713,
				"element": "H" 
			},
			{
				"x": -2.2556130688,
				"y": 2.1094928704,
				"z": -0.9187494959,
				"element": "H" 
			},
			{
				"x": -4.5066303434,
				"y": 0.1842263515,
				"z": 2.5615345477,
				"element": "H" 
			},
			{
				"x": -1.9138379717,
				"y": -0.3107100258,
				"z": 2.6867729657,
				"element": "H" 
			}
		],
		 "valence_orbital": [ 
			{
				"type": "occ",
				"energy": -0.31531,
				"method": "rhf"
			},
			{
				"type": "occ",
				"energy": -0.30827,
				"method": "rhf"
			},
			{
				"type": "occ",
				"energy": -0.30727,
				"method": "rhf"
			},
			{
				"type": "occ",
				"energy": -0.25748,
				"method": "rhf"
			},
			{
				"type": "occ",
				"energy": -0.24399,
				"method": "rhf"
			},
			{
				"type": "unocc",
				"energy": -0.05787,
				"method": "rhf"
			},
			{
				"type": "unocc",
				"energy": -0.036,
				"method": "rhf"
			},
			{
				"type": "unocc",
				"energy": 0.00386,
				"method": "rhf"
			},
			{
				"type": "unocc",
				"energy": 0.02195,
				"method": "rhf"
			},
			{
				"type": "unocc",
				"energy": 0.04021,
				"method": "rhf"
			}
		],
		"cosmo_sigma_profile": { 
			"-0.025": 0.0,
			"-0.024": 0.0,
			"-0.023": 0.0,
			"-0.022": 0.0,
			"-0.021": 0.0,
			"-0.02": 0.0,
			"-0.019": 0.0,
			"-0.018": 0.0,
			"-0.017": 0.0,
			"-0.016": 0.0,
			"-0.015": 0.0,
			"-0.014": 0.0,
			"-0.013": 0.0,
			"-0.012": 0.0,
			"-0.011": 0.325436507332,
			"-0.01": 4.3640723894,
			"-0.009": 6.36732680823,
			"-0.008": 9.04196560883,
			"-0.007": 8.48406760943,
			"-0.006": 8.58339086414,
			"-0.005": 7.1461645892,
			"-0.004": 9.304984362,
			"-0.003": 9.36684132022,
			"-0.002": 9.04692511256,
			"-0.001": 12.9991701256,
			"0.0": 15.3864073036,
			"0.001": 20.6930740779,
			"0.002": 23.3372854857,
			"0.003": 22.9409110787,
			"0.004": 14.0470461711,
			"0.005": 14.5164042966,
			"0.006": 6.7931565732,
			"0.007": 2.90787903965,
			"0.008": 1.64748231377,
			"0.009": 2.79913155478,
			"0.01": 1.77700000496,
			"0.011": 2.08805986804,
			"0.012": 0.906738177383,
			"0.013": 0.0294474956977,
			"0.014": 0.0,
			"0.015": 0.0,
			"0.016": 0.0,
			"0.017": 0.0,
			"0.018": 0.0,
			"0.019": 0.0,
			"0.02": 0.0,
			"0.021": 0.0,
			"0.022": 0.0,
			"0.023": 0.0,
			"0.024": 0.0,
			"0.025": 0.0
		}
	}
}
