{
	 "smiles": "COC1=C(OCCCC(O)=O)C=CC(=C1)C#N", 
	 "Tm": 420.15, 
	 "num_atms": 30, 
	 "gaussian": { 
		 "optdone": 1, 
		 "sigma_profile": "yes", 
		 "theory": "DFT", 
		 "functional": "B3LYP", 
		 "basiset": "6-31G**", 
		 "properties": { 
			 "R2extent": 5102.9504, 
			 "electric_dipole_moment_norm": 4.91781861601, 
			 "electric_quadrupole_moment_norm": 38.5151721719, 
			 "total_energy": -820.732943605, 
			 "HOMO_LUMO_gap": 0.18806, 
			 "cosmo_polarized_energy": -21.43, 
			 "cosmo_cavitation_energy": 35.34, 
			 "cosmo_dispersion_energy": -23.65, 
			 "cosmo_repulsion_energy": 1.85, 
			 "cosmo_total_nonelectrostatic_energy": 13.54, 
			 "SMD_solvation_energy": 9.22 
		},
		"coords": [
			{
				"x": 2.2410379652,
				"y": -1.588570161,
				"z": 0.647412806,
				"element": "C" 
			},
			{
				"x": 1.0428900592,
				"y": -0.8828541901,
				"z": 0.330495612,
				"element": "O" 
			},
			{
				"x": 1.1256256678,
				"y": 0.4523450934,
				"z": 0.0929767149,
				"element": "C" 
			},
			{
				"x": -0.0735730796,
				"y": 1.0796773668,
				"z": -0.3159256029,
				"element": "C" 
			},
			{
				"x": -1.209951275,
				"y": 0.3189464079,
				"z": -0.4970791767,
				"element": "O" 
			},
			{
				"x": -1.9425724683,
				"y": -0.0230603455,
				"z": 0.7074004501,
				"element": "C" 
			},
			{
				"x": -2.9026923184,
				"y": -1.1639338271,
				"z": 0.402271511,
				"element": "C" 
			},
			{
				"x": -2.2394481417,
				"y": -2.530637738,
				"z": 0.1089687373,
				"element": "C" 
			},
			{
				"x": -1.9479474969,
				"y": -2.8662755426,
				"z": -1.3574232292,
				"element": "C" 
			},
			{
				"x": -1.3703567409,
				"y": -1.9060217604,
				"z": -2.1021937872,
				"element": "O" 
			},
			{
				"x": -2.2002893309,
				"y": -3.9514901806,
				"z": -1.8282767923,
				"element": "O" 
			},
			{
				"x": -0.1003941083,
				"y": 2.4396955379,
				"z": -0.5996670159,
				"element": "C" 
			},
			{
				"x": 1.0548670948,
				"y": 3.2114019868,
				"z": -0.477487921,
				"element": "C" 
			},
			{
				"x": 2.2441463436,
				"y": 2.59803617,
				"z": -0.0646822324,
				"element": "C" 
			},
			{
				"x": 2.2832113897,
				"y": 1.2192108724,
				"z": 0.2189448695,
				"element": "C" 
			},
			{
				"x": 3.4430454602,
				"y": 3.3734083484,
				"z": 0.072019032,
				"element": "C" 
			},
			{
				"x": 4.4161272596,
				"y": 4.0003992425,
				"z": 0.1866140862,
				"element": "N" 
			},
			{
				"x": 1.9531243526,
				"y": -2.635506155,
				"z": 0.7428646909,
				"element": "H" 
			},
			{
				"x": 2.6714328291,
				"y": -1.2403415322,
				"z": 1.5939476614,
				"element": "H" 
			},
			{
				"x": 2.9831372497,
				"y": -1.4872735829,
				"z": -0.1525968221,
				"element": "H" 
			},
			{
				"x": -1.2322226973,
				"y": -0.3140553445,
				"z": 1.4891483479,
				"element": "H" 
			},
			{
				"x": -2.4865684347,
				"y": 0.869564701,
				"z": 1.0399761534,
				"element": "H" 
			},
			{
				"x": -3.5393111178,
				"y": -1.2713381716,
				"z": 1.2881496282,
				"element": "H" 
			},
			{
				"x": -3.5687224459,
				"y": -0.8690002678,
				"z": -0.4170206401,
				"element": "H" 
			},
			{
				"x": -1.2917475024,
				"y": -2.6016240445,
				"z": 0.6595239794,
				"element": "H" 
			},
			{
				"x": -2.8759349378,
				"y": -3.3417167177,
				"z": 0.466703465,
				"element": "H" 
			},
			{
				"x": -1.204665457,
				"y": -1.1004572341,
				"z": -1.5706441962,
				"element": "H" 
			},
			{
				"x": -1.035960371,
				"y": 2.8793971091,
				"z": -0.9288045523,
				"element": "H" 
			},
			{
				"x": 1.0390724522,
				"y": 4.2720659825,
				"z": -0.6995839053,
				"element": "H" 
			},
			{
				"x": 3.2189398003,
				"y": 0.7714079769,
				"z": 0.5276681286,
				"element": "H" 
			}
		],
		 "valence_orbital": [ 
			{
				"type": "occ",
				"energy": -0.31364,
				"method": "rhf"
			},
			{
				"type": "occ",
				"energy": -0.29323,
				"method": "rhf"
			},
			{
				"type": "occ",
				"energy": -0.27948,
				"method": "rhf"
			},
			{
				"type": "occ",
				"energy": -0.25472,
				"method": "rhf"
			},
			{
				"type": "occ",
				"energy": -0.2498,
				"method": "rhf"
			},
			{
				"type": "unocc",
				"energy": -0.06174,
				"method": "rhf"
			},
			{
				"type": "unocc",
				"energy": -0.02836,
				"method": "rhf"
			},
			{
				"type": "unocc",
				"energy": 0.02412,
				"method": "rhf"
			},
			{
				"type": "unocc",
				"energy": 0.02795,
				"method": "rhf"
			},
			{
				"type": "unocc",
				"energy": 0.04851,
				"method": "rhf"
			}
		],
		"cosmo_sigma_profile": { 
			"-0.025": 0.0,
			"-0.024": 0.0,
			"-0.023": 0.0,
			"-0.022": 0.0,
			"-0.021": 0.0,
			"-0.02": 0.0,
			"-0.019": 0.0,
			"-0.018": 0.0,
			"-0.017": 0.0,
			"-0.016": 0.0,
			"-0.015": 0.0,
			"-0.014": 0.0,
			"-0.013": 0.0,
			"-0.012": 0.0,
			"-0.011": 0.0,
			"-0.01": 0.0,
			"-0.009": 0.740184739717,
			"-0.008": 4.52680347864,
			"-0.007": 9.39196963515,
			"-0.006": 19.8590689285,
			"-0.005": 33.2850427825,
			"-0.004": 30.3974485396,
			"-0.003": 24.4711489035,
			"-0.002": 18.8164366845,
			"-0.001": 19.9502066508,
			"0.0": 18.5343043483,
			"0.001": 17.9616665806,
			"0.002": 12.6415320033,
			"0.003": 7.99420771147,
			"0.004": 4.79953855919,
			"0.005": 4.63434771971,
			"0.006": 5.45688658757,
			"0.007": 5.03148134272,
			"0.008": 5.73851846789,
			"0.009": 6.35429511644,
			"0.01": 6.10248938333,
			"0.011": 7.40139393154,
			"0.012": 9.24358921438,
			"0.013": 6.52565957605,
			"0.014": 1.84917205014,
			"0.015": 0.0440836214372,
			"0.016": 0.0,
			"0.017": 0.0,
			"0.018": 0.0,
			"0.019": 0.0,
			"0.02": 0.0,
			"0.021": 0.0,
			"0.022": 0.0,
			"0.023": 0.0,
			"0.024": 0.0,
			"0.025": 0.0
		}
	}
}
