{
	 "smiles": "CC(C)NCC(O)COC1=CC=C(COCCOC(C)C)C=C1", 
	 "Tm": 373.15, 
	 "num_atms": 54, 
	 "gaussian": { 
		 "optdone": 1, 
		 "sigma_profile": "yes", 
		 "theory": "DFT", 
		 "functional": "B3LYP", 
		 "basiset": "6-31G**", 
		 "properties": { 
			 "R2extent": 18497.4313, 
			 "electric_dipole_moment_norm": 2.48809470077, 
			 "electric_quadrupole_moment_norm": 23.0054447099, 
			 "total_energy": -1060.22110985, 
			 "HOMO_LUMO_gap": 0.21297, 
			 "cosmo_polarized_energy": -13.82, 
			 "cosmo_cavitation_energy": 55.24, 
			 "cosmo_dispersion_energy": -38.07, 
			 "cosmo_repulsion_energy": 3.01, 
			 "cosmo_total_nonelectrostatic_energy": 20.18, 
			 "SMD_solvation_energy": 8.62 
		},
		"coords": [
			{
				"x": 0.3555795482,
				"y": -3.2376734972,
				"z": -6.2816785341,
				"element": "C" 
			},
			{
				"x": -0.7077433317,
				"y": -4.0922689294,
				"z": -5.5716553846,
				"element": "C" 
			},
			{
				"x": -0.9285145564,
				"y": -5.4222968648,
				"z": -6.2988004859,
				"element": "C" 
			},
			{
				"x": -0.3908615387,
				"y": -4.367730278,
				"z": -4.1569181649,
				"element": "N" 
			},
			{
				"x": -0.5086891888,
				"y": -3.2358144428,
				"z": -3.2261602547,
				"element": "C" 
			},
			{
				"x": -1.9469261495,
				"y": -3.186017004,
				"z": -2.6792404674,
				"element": "C" 
			},
			{
				"x": -2.3275277805,
				"y": -4.4720758197,
				"z": -2.2328062821,
				"element": "O" 
			},
			{
				"x": -2.0919856183,
				"y": -2.2440084847,
				"z": -1.4901948593,
				"element": "C" 
			},
			{
				"x": -1.8115048028,
				"y": -0.9245830233,
				"z": -1.9479266109,
				"element": "O" 
			},
			{
				"x": -1.8804180828,
				"y": 0.1087575339,
				"z": -1.0573253004,
				"element": "C" 
			},
			{
				"x": -2.2126611698,
				"y": -0.0298739328,
				"z": 0.2966300833,
				"element": "C" 
			},
			{
				"x": -2.2545985709,
				"y": 1.1006284494,
				"z": 1.1147365785,
				"element": "C" 
			},
			{
				"x": -1.9645236796,
				"y": 2.3739906228,
				"z": 0.6166694073,
				"element": "C" 
			},
			{
				"x": -2.0574391997,
				"y": 3.5925615284,
				"z": 1.5155605744,
				"element": "C" 
			},
			{
				"x": -1.5240775971,
				"y": 3.3948328208,
				"z": 2.8167061053,
				"element": "O" 
			},
			{
				"x": -0.1079812636,
				"y": 3.3080359639,
				"z": 2.8487242815,
				"element": "C" 
			},
			{
				"x": 0.3017726146,
				"y": 3.1226935892,
				"z": 4.3030156212,
				"element": "C" 
			},
			{
				"x": 1.7169838178,
				"y": 3.0554625449,
				"z": 4.3188324937,
				"element": "O" 
			},
			{
				"x": 2.3523294302,
				"y": 2.858926369,
				"z": 5.5871165538,
				"element": "C" 
			},
			{
				"x": 2.0121473377,
				"y": 1.5003162638,
				"z": 6.2092970183,
				"element": "C" 
			},
			{
				"x": 2.1110644229,
				"y": 4.0244791805,
				"z": 6.5523852314,
				"element": "C" 
			},
			{
				"x": -1.6236021787,
				"y": 2.4922267914,
				"z": -0.7372238076,
				"element": "C" 
			},
			{
				"x": -1.5862778706,
				"y": 1.3795048175,
				"z": -1.5704118335,
				"element": "C" 
			},
			{
				"x": 1.3113983129,
				"y": -3.7744781786,
				"z": -6.3288090373,
				"element": "H" 
			},
			{
				"x": 0.5262824928,
				"y": -2.2882948877,
				"z": -5.7649406183,
				"element": "H" 
			},
			{
				"x": 0.0535013149,
				"y": -3.0063819772,
				"z": -7.3087067868,
				"element": "H" 
			},
			{
				"x": -1.6557354111,
				"y": -3.5391212396,
				"z": -5.5745628523,
				"element": "H" 
			},
			{
				"x": -1.7171887429,
				"y": -6.003407834,
				"z": -5.8131449594,
				"element": "H" 
			},
			{
				"x": -0.0115688928,
				"y": -6.024833917,
				"z": -6.2914017602,
				"element": "H" 
			},
			{
				"x": -1.2074226942,
				"y": -5.2580313176,
				"z": -7.3445061353,
				"element": "H" 
			},
			{
				"x": 0.5384760188,
				"y": -4.774854363,
				"z": -4.0978469578,
				"element": "H" 
			},
			{
				"x": -0.2353493476,
				"y": -2.2652358311,
				"z": -3.6615493499,
				"element": "H" 
			},
			{
				"x": 0.16892597,
				"y": -3.4223939778,
				"z": -2.3849076992,
				"element": "H" 
			},
			{
				"x": -2.6224679449,
				"y": -2.8293109206,
				"z": -3.4766630567,
				"element": "H" 
			},
			{
				"x": -1.8748286763,
				"y": -5.0694018245,
				"z": -2.8577589177,
				"element": "H" 
			},
			{
				"x": -1.3939504667,
				"y": -2.5402548847,
				"z": -0.6944503548,
				"element": "H" 
			},
			{
				"x": -3.1131185433,
				"y": -2.3122696462,
				"z": -1.0931762617,
				"element": "H" 
			},
			{
				"x": -2.4395102728,
				"y": -1.0022815692,
				"z": 0.7175318128,
				"element": "H" 
			},
			{
				"x": -2.5066282641,
				"y": 0.9910305571,
				"z": 2.1657215204,
				"element": "H" 
			},
			{
				"x": -3.1074652475,
				"y": 3.8620266622,
				"z": 1.6821643928,
				"element": "H" 
			},
			{
				"x": -1.5732502531,
				"y": 4.4531338168,
				"z": 1.0256262708,
				"element": "H" 
			},
			{
				"x": 0.2589571807,
				"y": 2.4639214984,
				"z": 2.2488504878,
				"element": "H" 
			},
			{
				"x": 0.3492633346,
				"y": 4.2271408151,
				"z": 2.4488905133,
				"element": "H" 
			},
			{
				"x": -0.161660687,
				"y": 2.2047945243,
				"z": 4.6923051459,
				"element": "H" 
			},
			{
				"x": -0.0801969861,
				"y": 3.9660858055,
				"z": 4.8958479,
				"element": "H" 
			},
			{
				"x": 3.416840971,
				"y": 2.8529703823,
				"z": 5.3228865301,
				"element": "H" 
			},
			{
				"x": 0.9775632979,
				"y": 1.458906224,
				"z": 6.5655937104,
				"element": "H" 
			},
			{
				"x": 2.1585267993,
				"y": 0.6994754028,
				"z": 5.4784282779,
				"element": "H" 
			},
			{
				"x": 2.6629851136,
				"y": 1.3053308184,
				"z": 7.0680295418,
				"element": "H" 
			},
			{
				"x": 2.7658999558,
				"y": 3.9328103021,
				"z": 7.4251843782,
				"element": "H" 
			},
			{
				"x": 1.0789266333,
				"y": 4.0486896066,
				"z": 6.917273283,
				"element": "H" 
			},
			{
				"x": 2.3262662549,
				"y": 4.9777052683,
				"z": 6.0603635804,
				"element": "H" 
			},
			{
				"x": -1.3832817989,
				"y": 3.4705765356,
				"z": -1.1475241243,
				"element": "H" 
			},
			{
				"x": -1.3226340133,
				"y": 1.4675799505,
				"z": -2.6194804373,
				"element": "H" 
			}
		],
		 "valence_orbital": [ 
			{
				"type": "occ",
				"energy": -0.25404,
				"method": "rhf"
			},
			{
				"type": "occ",
				"energy": -0.24731,
				"method": "rhf"
			},
			{
				"type": "occ",
				"energy": -0.24484,
				"method": "rhf"
			},
			{
				"type": "occ",
				"energy": -0.23551,
				"method": "rhf"
			},
			{
				"type": "occ",
				"energy": -0.21245,
				"method": "rhf"
			},
			{
				"type": "unocc",
				"energy": 0.00052,
				"method": "rhf"
			},
			{
				"type": "unocc",
				"energy": 0.01261,
				"method": "rhf"
			},
			{
				"type": "unocc",
				"energy": 0.06659,
				"method": "rhf"
			},
			{
				"type": "unocc",
				"energy": 0.08753,
				"method": "rhf"
			},
			{
				"type": "unocc",
				"energy": 0.09445,
				"method": "rhf"
			}
		],
		"cosmo_sigma_profile": { 
			"-0.025": 0.0,
			"-0.024": 0.0,
			"-0.023": 0.0,
			"-0.022": 0.0,
			"-0.021": 0.0,
			"-0.02": 0.0,
			"-0.019": 0.0,
			"-0.018": 0.0,
			"-0.017": 0.0,
			"-0.016": 0.0,
			"-0.015": 0.0,
			"-0.014": 0.0,
			"-0.013": 0.0,
			"-0.012": 0.0,
			"-0.011": 0.0754400015305,
			"-0.01": 1.00052265278,
			"-0.009": 1.16803923084,
			"-0.008": 1.46830412358,
			"-0.007": 2.08002907791,
			"-0.006": 6.55818052481,
			"-0.005": 18.962985329,
			"-0.004": 35.1663189644,
			"-0.003": 59.5736260684,
			"-0.002": 52.3602990354,
			"-0.001": 50.1491921312,
			"0.0": 47.3885342387,
			"0.001": 40.6057595559,
			"0.002": 22.505109294,
			"0.003": 15.852626997,
			"0.004": 15.515487323,
			"0.005": 16.2287400893,
			"0.006": 11.3105831035,
			"0.007": 5.28904136632,
			"0.008": 4.58376336134,
			"0.009": 4.44656010241,
			"0.01": 2.62922142297,
			"0.011": 3.33425894025,
			"0.012": 3.9078627699,
			"0.013": 3.51468335,
			"0.014": 1.92091494001,
			"0.015": 0.957278889444,
			"0.016": 0.0,
			"0.017": 0.0,
			"0.018": 0.0,
			"0.019": 0.0,
			"0.02": 0.0,
			"0.021": 0.0,
			"0.022": 0.0,
			"0.023": 0.0,
			"0.024": 0.0,
			"0.025": 0.0
		}
	}
}
