{
	 "smiles": "CC1=C(C)C(Br)=CC(=C1N)[N+]([O-])=O", 
	 "Tm": 426.15, 
	 "num_atms": 22, 
	 "gaussian": { 
		 "optdone": 1, 
		 "sigma_profile": "yes", 
		 "theory": "DFT", 
		 "functional": "B3LYP", 
		 "basiset": "6-31G**", 
		 "properties": { 
			 "R2extent": 5503.313, 
			 "electric_dipole_moment_norm": 5.65836148103, 
			 "electric_quadrupole_moment_norm": 11.267898261, 
			 "total_energy": -3141.54848599, 
			 "HOMO_LUMO_gap": 0.13463, 
			 "cosmo_polarized_energy": -11.18, 
			 "cosmo_cavitation_energy": 27.32, 
			 "cosmo_dispersion_energy": -20.98, 
			 "cosmo_repulsion_energy": 1.64, 
			 "cosmo_total_nonelectrostatic_energy": 7.98, 
			 "SMD_solvation_energy": 5.52 
		},
		"coords": [
			{
				"x": -1.2080525594,
				"y": -0.2293629581,
				"z": 0.8019637805,
				"element": "C" 
			},
			{
				"x": 0.0193355303,
				"y": -0.5486863253,
				"z": -0.020836815,
				"element": "C" 
			},
			{
				"x": 0.6491676501,
				"y": -1.7971773331,
				"z": 0.0521068765,
				"element": "C" 
			},
			{
				"x": 0.099106685,
				"y": -2.8744992168,
				"z": 0.9578974985,
				"element": "C" 
			},
			{
				"x": 1.8047930364,
				"y": -2.0155490408,
				"z": -0.7380159211,
				"element": "C" 
			},
			{
				"x": 2.7515844862,
				"y": -3.6854339657,
				"z": -0.7079684497,
				"element": "Br" 
			},
			{
				"x": 2.3053952191,
				"y": -1.0366755888,
				"z": -1.5664141993,
				"element": "C" 
			},
			{
				"x": 1.6719615769,
				"y": 0.2083017815,
				"z": -1.6449877302,
				"element": "C" 
			},
			{
				"x": 0.5121685331,
				"y": 0.4871557189,
				"z": -0.8730101545,
				"element": "C" 
			},
			{
				"x": -0.117326601,
				"y": 1.6905631548,
				"z": -0.9045411175,
				"element": "N" 
			},
			{
				"x": 2.2557359455,
				"y": 1.1745353409,
				"z": -2.5547479891,
				"element": "N" 
			},
			{
				"x": 1.7219561601,
				"y": 2.29512475,
				"z": -2.671748891,
				"element": "O" 
			},
			{
				"x": 3.262668686,
				"y": 0.8528069078,
				"z": -3.1857499505,
				"element": "O" 
			},
			{
				"x": -1.0411276409,
				"y": 0.6527359644,
				"z": 1.4338577453,
				"element": "H" 
			},
			{
				"x": -2.0760857204,
				"y": -0.0138459906,
				"z": 0.1632258689,
				"element": "H" 
			},
			{
				"x": -1.4933146985,
				"y": -1.0474164294,
				"z": 1.460203792,
				"element": "H" 
			},
			{
				"x": 0.1196617501,
				"y": -2.557289764,
				"z": 2.0062685404,
				"element": "H" 
			},
			{
				"x": -0.9403498449,
				"y": -3.1093191073,
				"z": 0.7063560443,
				"element": "H" 
			},
			{
				"x": 0.6781122324,
				"y": -3.7924992364,
				"z": 0.8771965943,
				"element": "H" 
			},
			{
				"x": 3.1855550374,
				"y": -1.2028640969,
				"z": -2.1712126108,
				"element": "H" 
			},
			{
				"x": -1.0056705892,
				"y": 1.8077746288,
				"z": -0.4510743616,
				"element": "H" 
			},
			{
				"x": 0.2191251259,
				"y": 2.3728208062,
				"z": -1.5700685505,
				"element": "H" 
			}
		],
		 "valence_orbital": [ 
			{
				"type": "occ",
				"energy": -0.29149,
				"method": "rhf"
			},
			{
				"type": "occ",
				"energy": -0.28916,
				"method": "rhf"
			},
			{
				"type": "occ",
				"energy": -0.28679,
				"method": "rhf"
			},
			{
				"type": "occ",
				"energy": -0.26721,
				"method": "rhf"
			},
			{
				"type": "occ",
				"energy": -0.2194,
				"method": "rhf"
			},
			{
				"type": "unocc",
				"energy": -0.08477,
				"method": "rhf"
			},
			{
				"type": "unocc",
				"energy": -0.01232,
				"method": "rhf"
			},
			{
				"type": "unocc",
				"energy": 0.00155,
				"method": "rhf"
			},
			{
				"type": "unocc",
				"energy": 0.00406,
				"method": "rhf"
			},
			{
				"type": "unocc",
				"energy": 0.066,
				"method": "rhf"
			}
		],
		"cosmo_sigma_profile": { 
			"-0.025": 0.0,
			"-0.024": 0.0,
			"-0.023": 0.0,
			"-0.022": 0.0,
			"-0.021": 0.0,
			"-0.02": 0.0,
			"-0.019": 0.0,
			"-0.018": 0.0,
			"-0.017": 0.0,
			"-0.016": 0.0,
			"-0.015": 0.0,
			"-0.014": 0.442487627707,
			"-0.013": 1.01230670647,
			"-0.012": 1.08337438827,
			"-0.011": 1.64904191126,
			"-0.01": 2.11250499447,
			"-0.009": 2.26557842172,
			"-0.008": 2.11103197404,
			"-0.007": 2.88313956175,
			"-0.006": 3.98512599597,
			"-0.005": 14.2279321377,
			"-0.004": 14.1876442896,
			"-0.003": 16.4471003977,
			"-0.002": 18.6251068166,
			"-0.001": 23.1271024385,
			"0.0": 22.810525065,
			"0.001": 19.816086486,
			"0.002": 18.1430931999,
			"0.003": 11.8896591562,
			"0.004": 10.7119939251,
			"0.005": 7.94587567165,
			"0.006": 3.5698212476,
			"0.007": 3.83060000575,
			"0.008": 6.18616722482,
			"0.009": 5.25388651952,
			"0.01": 3.74654190042,
			"0.011": 2.6298317679,
			"0.012": 0.0606507175306,
			"0.013": 0.0,
			"0.014": 0.0,
			"0.015": 0.0,
			"0.016": 0.0,
			"0.017": 0.0,
			"0.018": 0.0,
			"0.019": 0.0,
			"0.02": 0.0,
			"0.021": 0.0,
			"0.022": 0.0,
			"0.023": 0.0,
			"0.024": 0.0,
			"0.025": 0.0
		}
	}
}
