{
	 "smiles": "CCC[C@]1(O)CCC2C3CCC4CC(CCC4(C)C3CCC12C)OC(C)=O", 
	 "Tm": 393.15, 
	 "num_atms": 67, 
	 "gaussian": { 
		 "optdone": 1, 
		 "sigma_profile": "yes", 
		 "theory": "DFT", 
		 "functional": "B3LYP", 
		 "basiset": "6-31G**", 
		 "properties": { 
			 "R2extent": 16060.2509, 
			 "electric_dipole_moment_norm": 2.28118469879, 
			 "electric_quadrupole_moment_norm": 24.2991626006, 
			 "total_energy": -1164.36547552, 
			 "HOMO_LUMO_gap": 0.27284, 
			 "cosmo_polarized_energy": -11.26, 
			 "cosmo_cavitation_energy": 56.71, 
			 "cosmo_dispersion_energy": -39.11, 
			 "cosmo_repulsion_energy": 2.9, 
			 "cosmo_total_nonelectrostatic_energy": 20.5, 
			 "SMD_solvation_energy": 8.96 
		},
		"coords": [
			{
				"x": -2.4053808816,
				"y": -3.8126781713,
				"z": -5.735492444,
				"element": "C" 
			},
			{
				"x": -2.8624842653,
				"y": -2.3966603951,
				"z": -5.356475279,
				"element": "C" 
			},
			{
				"x": -1.8550854893,
				"y": -1.6190215837,
				"z": -4.4758196642,
				"element": "C" 
			},
			{
				"x": -2.0429959982,
				"y": -1.785287259,
				"z": -2.9534074781,
				"element": "C" 
			},
			{
				"x": -2.1019946516,
				"y": -3.1888862095,
				"z": -2.6179727016,
				"element": "O" 
			},
			{
				"x": -3.30345174,
				"y": -1.0892178084,
				"z": -2.3862472978,
				"element": "C" 
			},
			{
				"x": -3.0207690323,
				"y": -0.8754070783,
				"z": -0.8775635026,
				"element": "C" 
			},
			{
				"x": -1.5374643306,
				"y": -1.2841651153,
				"z": -0.6446762769,
				"element": "C" 
			},
			{
				"x": -0.8249499899,
				"y": -0.5003617889,
				"z": 0.4926538188,
				"element": "C" 
			},
			{
				"x": -0.0407297819,
				"y": -1.4191807376,
				"z": 1.4614049918,
				"element": "C" 
			},
			{
				"x": 0.9363860068,
				"y": -0.6244098214,
				"z": 2.3703208408,
				"element": "C" 
			},
			{
				"x": 0.4779111066,
				"y": 0.8327236996,
				"z": 2.5013778136,
				"element": "C" 
			},
			{
				"x": 1.1658792252,
				"y": 1.6295483708,
				"z": 3.623288077,
				"element": "C" 
			},
			{
				"x": 0.7856101765,
				"y": 3.1255686022,
				"z": 3.5764848455,
				"element": "C" 
			},
			{
				"x": -0.4759339398,
				"y": 3.3805790959,
				"z": 2.745306532,
				"element": "C" 
			},
			{
				"x": -0.3806983008,
				"y": 2.8394233776,
				"z": 1.2911981471,
				"element": "C" 
			},
			{
				"x": 0.5436412297,
				"y": 1.5927263352,
				"z": 1.1392806232,
				"element": "C" 
			},
			{
				"x": 1.9812288774,
				"y": 2.0579629701,
				"z": 0.8059557271,
				"element": "C" 
			},
			{
				"x": 0.1123430223,
				"y": 0.6149442821,
				"z": -0.0153825241,
				"element": "C" 
			},
			{
				"x": -0.477026256,
				"y": 1.2718111301,
				"z": -1.2687856746,
				"element": "C" 
			},
			{
				"x": -0.5575328748,
				"y": 0.2790633813,
				"z": -2.4511957332,
				"element": "C" 
			},
			{
				"x": -0.8866580618,
				"y": -1.2050194122,
				"z": -2.0625735777,
				"element": "C" 
			},
			{
				"x": 0.3840657736,
				"y": -2.0684006993,
				"z": -2.1676579846,
				"element": "C" 
			},
			{
				"x": 0.5519924691,
				"y": 3.5482416229,
				"z": 4.9519904332,
				"element": "O" 
			},
			{
				"x": 0.7864344053,
				"y": 4.8461332221,
				"z": 5.2502854061,
				"element": "C" 
			},
			{
				"x": 0.5057742561,
				"y": 5.1152863503,
				"z": 6.7113410887,
				"element": "C" 
			},
			{
				"x": 1.1715357838,
				"y": 5.6731415012,
				"z": 4.4508048062,
				"element": "O" 
			},
			{
				"x": -2.1751600469,
				"y": -4.4121675699,
				"z": -4.8508663292,
				"element": "H" 
			},
			{
				"x": -3.1693206358,
				"y": -4.3353363276,
				"z": -6.3213177743,
				"element": "H" 
			},
			{
				"x": -1.4934219944,
				"y": -3.7715616043,
				"z": -6.341796769,
				"element": "H" 
			},
			{
				"x": -3.0332679953,
				"y": -1.829450008,
				"z": -6.2791643024,
				"element": "H" 
			},
			{
				"x": -3.8433311317,
				"y": -2.4384315132,
				"z": -4.8620336758,
				"element": "H" 
			},
			{
				"x": -1.9199041404,
				"y": -0.5544199182,
				"z": -4.7214797948,
				"element": "H" 
			},
			{
				"x": -0.8403113941,
				"y": -1.9362501072,
				"z": -4.745654426,
				"element": "H" 
			},
			{
				"x": -2.9544959454,
				"y": -3.5235792341,
				"z": -2.922284603,
				"element": "H" 
			},
			{
				"x": -3.4681730042,
				"y": -0.1319623135,
				"z": -2.8922267281,
				"element": "H" 
			},
			{
				"x": -4.2020882931,
				"y": -1.689961122,
				"z": -2.5692649157,
				"element": "H" 
			},
			{
				"x": -3.1890102739,
				"y": 0.1711688042,
				"z": -0.603441142,
				"element": "H" 
			},
			{
				"x": -3.6883553191,
				"y": -1.469063639,
				"z": -0.2448081341,
				"element": "H" 
			},
			{
				"x": -1.541853193,
				"y": -2.3440228008,
				"z": -0.3732590947,
				"element": "H" 
			},
			{
				"x": -1.6207620227,
				"y": -0.0130088064,
				"z": 1.0734327477,
				"element": "H" 
			},
			{
				"x": 0.5162848003,
				"y": -2.1668750036,
				"z": 0.8848827664,
				"element": "H" 
			},
			{
				"x": -0.7559822939,
				"y": -1.9805288035,
				"z": 2.0756401365,
				"element": "H" 
			},
			{
				"x": 1.9539666327,
				"y": -0.6557738232,
				"z": 1.9604342481,
				"element": "H" 
			},
			{
				"x": 0.9989555326,
				"y": -1.0916262318,
				"z": 3.3604512549,
				"element": "H" 
			},
			{
				"x": -0.5846093734,
				"y": 0.7877728016,
				"z": 2.7762889515,
				"element": "H" 
			},
			{
				"x": 2.2551654812,
				"y": 1.5170606198,
				"z": 3.5736133671,
				"element": "H" 
			},
			{
				"x": 0.8539144771,
				"y": 1.2267853829,
				"z": 4.593035996,
				"element": "H" 
			},
			{
				"x": 1.6040858382,
				"y": 3.7398516131,
				"z": 3.1961350459,
				"element": "H" 
			},
			{
				"x": -0.6813628286,
				"y": 4.4548523229,
				"z": 2.7333908331,
				"element": "H" 
			},
			{
				"x": -1.314807347,
				"y": 2.9056528079,
				"z": 3.2675361854,
				"element": "H" 
			},
			{
				"x": -0.033623133,
				"y": 3.6346780269,
				"z": 0.6218006854,
				"element": "H" 
			},
			{
				"x": -1.3981204942,
				"y": 2.5934771298,
				"z": 0.9676832179,
				"element": "H" 
			},
			{
				"x": 2.6959612736,
				"y": 1.229557441,
				"z": 0.8606073485,
				"element": "H" 
			},
			{
				"x": 2.3420287639,
				"y": 2.8526768557,
				"z": 1.4630827545,
				"element": "H" 
			},
			{
				"x": 2.0167147851,
				"y": 2.4516782048,
				"z": -0.2159541175,
				"element": "H" 
			},
			{
				"x": 1.0419602964,
				"y": 0.1224961383,
				"z": -0.3352072265,
				"element": "H" 
			},
			{
				"x": 0.1181719419,
				"y": 2.1394864836,
				"z": -1.5777489125,
				"element": "H" 
			},
			{
				"x": -1.4772339881,
				"y": 1.6603614217,
				"z": -1.0426692834,
				"element": "H" 
			},
			{
				"x": -1.2882613551,
				"y": 0.6696765322,
				"z": -3.165318704,
				"element": "H" 
			},
			{
				"x": 0.4017339776,
				"y": 0.2872029489,
				"z": -2.9818950851,
				"element": "H" 
			},
			{
				"x": 1.1746907463,
				"y": -1.6897893452,
				"z": -1.5134531688,
				"element": "H" 
			},
			{
				"x": 0.177930003,
				"y": -3.1059534524,
				"z": -1.8978976392,
				"element": "H" 
			},
			{
				"x": 0.7832541511,
				"y": -2.0590668376,
				"z": -3.1884985955,
				"element": "H" 
			},
			{
				"x": 1.124554907,
				"y": 4.4673530097,
				"z": 7.3390314018,
				"element": "H" 
			},
			{
				"x": -0.5396013227,
				"y": 4.887055061,
				"z": 6.9398156533,
				"element": "H" 
			},
			{
				"x": 0.7146371797,
				"y": 6.1611269939,
				"z": 6.9343348151,
				"element": "H" 
			}
		],
		 "valence_orbital": [ 
			{
				"type": "occ",
				"energy": -0.27223,
				"method": "rhf"
			},
			{
				"type": "occ",
				"energy": -0.2708,
				"method": "rhf"
			},
			{
				"type": "occ",
				"energy": -0.26766,
				"method": "rhf"
			},
			{
				"type": "occ",
				"energy": -0.26155,
				"method": "rhf"
			},
			{
				"type": "occ",
				"energy": -0.25361,
				"method": "rhf"
			},
			{
				"type": "unocc",
				"energy": 0.01923,
				"method": "rhf"
			},
			{
				"type": "unocc",
				"energy": 0.05855,
				"method": "rhf"
			},
			{
				"type": "unocc",
				"energy": 0.07106,
				"method": "rhf"
			},
			{
				"type": "unocc",
				"energy": 0.0765,
				"method": "rhf"
			},
			{
				"type": "unocc",
				"energy": 0.08899,
				"method": "rhf"
			}
		],
		"cosmo_sigma_profile": { 
			"-0.025": 0.0,
			"-0.024": 0.0,
			"-0.023": 0.0,
			"-0.022": 0.0,
			"-0.021": 0.0,
			"-0.02": 0.0,
			"-0.019": 0.0,
			"-0.018": 0.0,
			"-0.017": 0.0,
			"-0.016": 0.0,
			"-0.015": 0.0,
			"-0.014": 0.0332693917965,
			"-0.013": 0.502867486421,
			"-0.012": 0.738425951675,
			"-0.011": 1.02849051118,
			"-0.01": 1.32601623594,
			"-0.009": 1.10839262088,
			"-0.008": 1.49453348186,
			"-0.007": 0.990822481609,
			"-0.006": 5.91602229643,
			"-0.005": 8.70575628209,
			"-0.004": 10.3395793628,
			"-0.003": 30.184000294,
			"-0.002": 72.3377344804,
			"-0.001": 82.257664166,
			"0.0": 70.8268704352,
			"0.001": 62.1103073376,
			"0.002": 31.6605379297,
			"0.003": 8.91723464695,
			"0.004": 6.00256611155,
			"0.005": 5.02302653708,
			"0.006": 3.96265261052,
			"0.007": 4.50063335431,
			"0.008": 3.92029592923,
			"0.009": 3.9224601075,
			"0.01": 3.45246325276,
			"0.011": 3.62366923445,
			"0.012": 5.97320289356,
			"0.013": 2.87621179085,
			"0.014": 0.165319034816,
			"0.015": 0.0,
			"0.016": 0.0,
			"0.017": 0.0,
			"0.018": 0.0,
			"0.019": 0.0,
			"0.02": 0.0,
			"0.021": 0.0,
			"0.022": 0.0,
			"0.023": 0.0,
			"0.024": 0.0,
			"0.025": 0.0
		}
	}
}
