{
	 "smiles": "COC(=O)C1=C2CC(=O)C2=C(C)C2=C1CC2=O", 
	 "Tm": 441.15, 
	 "num_atms": 27, 
	 "gaussian": { 
		 "optdone": 1, 
		 "sigma_profile": "yes", 
		 "theory": "DFT", 
		 "functional": "B3LYP", 
		 "basiset": "6-31G**", 
		 "properties": { 
			 "R2extent": 4946.2138, 
			 "electric_dipole_moment_norm": 3.28353355244, 
			 "electric_quadrupole_moment_norm": 21.7273851328, 
			 "total_energy": -802.246326585, 
			 "HOMO_LUMO_gap": 0.16351, 
			 "cosmo_polarized_energy": -13.98, 
			 "cosmo_cavitation_energy": 32.95, 
			 "cosmo_dispersion_energy": -22.83, 
			 "cosmo_repulsion_energy": 1.8, 
			 "cosmo_total_nonelectrostatic_energy": 11.92, 
			 "SMD_solvation_energy": 7.95 
		},
		"coords": [
			{
				"x": -1.0750717889,
				"y": 0.6645701607,
				"z": 5.0024838676,
				"element": "C" 
			},
			{
				"x": -0.5479003932,
				"y": 0.6441974122,
				"z": 3.6646786968,
				"element": "O" 
			},
			{
				"x": -0.1225618552,
				"y": -0.5633365518,
				"z": 3.2329140039,
				"element": "C" 
			},
			{
				"x": -0.169224047,
				"y": -1.5762754839,
				"z": 3.9025982628,
				"element": "O" 
			},
			{
				"x": 0.4055413346,
				"y": -0.5033466575,
				"z": 1.8479279483,
				"element": "C" 
			},
			{
				"x": 0.4835864763,
				"y": 0.6372423169,
				"z": 1.0396488819,
				"element": "C" 
			},
			{
				"x": 0.1818233311,
				"y": 2.130507721,
				"z": 1.0446285921,
				"element": "C" 
			},
			{
				"x": 0.770260441,
				"y": 2.0974539311,
				"z": -0.4131860295,
				"element": "C" 
			},
			{
				"x": 0.9548862755,
				"y": 2.9289282715,
				"z": -1.2657187184,
				"element": "O" 
			},
			{
				"x": 1.0019716815,
				"y": 0.6243344723,
				"z": -0.2720310521,
				"element": "C" 
			},
			{
				"x": 1.4995080865,
				"y": -0.5080242781,
				"z": -0.934736282,
				"element": "C" 
			},
			{
				"x": 2.0286750471,
				"y": -0.5126635572,
				"z": -2.3380310761,
				"element": "C" 
			},
			{
				"x": 1.4159687778,
				"y": -1.6376632867,
				"z": -0.1072575216,
				"element": "C" 
			},
			{
				"x": 0.9014885089,
				"y": -1.6430359225,
				"z": 1.2040831619,
				"element": "C" 
			},
			{
				"x": 1.1402321765,
				"y": -3.127914,
				"z": 1.4365151583,
				"element": "C" 
			},
			{
				"x": 1.7185901537,
				"y": -3.1052768207,
				"z": -0.0254677889,
				"element": "C" 
			},
			{
				"x": 2.2053882765,
				"y": -3.9318776184,
				"z": -0.7544212842,
				"element": "O" 
			},
			{
				"x": -0.3146456604,
				"y": 0.3451923183,
				"z": 5.7192318434,
				"element": "H" 
			},
			{
				"x": -1.9384673216,
				"y": -0.0001013077,
				"z": 5.084564265,
				"element": "H" 
			},
			{
				"x": -1.3669423324,
				"y": 1.6980440613,
				"z": 5.186984388,
				"element": "H" 
			},
			{
				"x": -0.8754215899,
				"y": 2.4071292976,
				"z": 1.1111398514,
				"element": "H" 
			},
			{
				"x": 0.7489337429,
				"y": 2.7338669966,
				"z": 1.7608181332,
				"element": "H" 
			},
			{
				"x": 2.7766887228,
				"y": -1.2973980003,
				"z": -2.473437697,
				"element": "H" 
			},
			{
				"x": 1.2134451972,
				"y": -0.7137293418,
				"z": -3.0443016707,
				"element": "H" 
			},
			{
				"x": 2.454428879,
				"y": 0.4584944937,
				"z": -2.6012308095,
				"element": "H" 
			},
			{
				"x": 0.2446239104,
				"y": -3.7421636743,
				"z": 1.5740068915,
				"element": "H" 
			},
			{
				"x": 1.8605939692,
				"y": -3.3818549523,
				"z": 2.2205959839,
				"element": "H" 
			}
		],
		 "valence_orbital": [ 
			{
				"type": "occ",
				"energy": -0.28898,
				"method": "rhf"
			},
			{
				"type": "occ",
				"energy": -0.27795,
				"method": "rhf"
			},
			{
				"type": "occ",
				"energy": -0.27108,
				"method": "rhf"
			},
			{
				"type": "occ",
				"energy": -0.26717,
				"method": "rhf"
			},
			{
				"type": "occ",
				"energy": -0.25022,
				"method": "rhf"
			},
			{
				"type": "unocc",
				"energy": -0.08671,
				"method": "rhf"
			},
			{
				"type": "unocc",
				"energy": -0.06437,
				"method": "rhf"
			},
			{
				"type": "unocc",
				"energy": -0.02632,
				"method": "rhf"
			},
			{
				"type": "unocc",
				"energy": 0.04008,
				"method": "rhf"
			},
			{
				"type": "unocc",
				"energy": 0.07031,
				"method": "rhf"
			}
		],
		"cosmo_sigma_profile": { 
			"-0.025": 0.0,
			"-0.024": 0.0,
			"-0.023": 0.0,
			"-0.022": 0.0,
			"-0.021": 0.0,
			"-0.02": 0.0,
			"-0.019": 0.0,
			"-0.018": 0.0,
			"-0.017": 0.0,
			"-0.016": 0.0,
			"-0.015": 0.0,
			"-0.014": 0.0,
			"-0.013": 0.0,
			"-0.012": 0.0,
			"-0.011": 0.0,
			"-0.01": 0.0,
			"-0.009": 0.0,
			"-0.008": 0.0688491710359,
			"-0.007": 7.96328570668,
			"-0.006": 19.460277846,
			"-0.005": 22.347086599,
			"-0.004": 25.3609894856,
			"-0.003": 29.5695448978,
			"-0.002": 30.3202197845,
			"-0.001": 28.6011733241,
			"0.0": 15.3992468653,
			"0.001": 7.80676225075,
			"0.002": 8.03901317711,
			"0.003": 6.04193731087,
			"0.004": 7.08466506603,
			"0.005": 6.33277362372,
			"0.006": 5.27215748015,
			"0.007": 4.0589182056,
			"0.008": 5.03207177494,
			"0.009": 7.24243030243,
			"0.01": 9.13151666865,
			"0.011": 13.1728255264,
			"0.012": 5.33210884403,
			"0.013": 0.0647192882914,
			"0.014": 0.0,
			"0.015": 0.0,
			"0.016": 0.0,
			"0.017": 0.0,
			"0.018": 0.0,
			"0.019": 0.0,
			"0.02": 0.0,
			"0.021": 0.0,
			"0.022": 0.0,
			"0.023": 0.0,
			"0.024": 0.0,
			"0.025": 0.0
		}
	}
}
