{
	 "smiles": "BrC1=CN2C=CN=C2C=C1", 
	 "Tm": 350.15, 
	 "num_atms": 15, 
	 "gaussian": { 
		 "optdone": 1, 
		 "sigma_profile": "yes", 
		 "theory": "DFT", 
		 "functional": "B3LYP", 
		 "basiset": "6-31G**", 
		 "properties": { 
			 "R2extent": 2924.5784, 
			 "electric_dipole_moment_norm": 1.86837622014, 
			 "electric_quadrupole_moment_norm": 9.78681491549, 
			 "total_energy": -2950.6490976, 
			 "HOMO_LUMO_gap": 0.17436, 
			 "cosmo_polarized_energy": -9.01, 
			 "cosmo_cavitation_energy": 21.64, 
			 "cosmo_dispersion_energy": -16.78, 
			 "cosmo_repulsion_energy": 1.33, 
			 "cosmo_total_nonelectrostatic_energy": 6.19, 
			 "SMD_solvation_energy": 1.49 
		},
		"coords": [
			{
				"x": 2.7450305006,
				"y": -1.8161659096,
				"z": 0.6507135017,
				"element": "Br" 
			},
			{
				"x": 1.0827106751,
				"y": -1.4444331342,
				"z": -0.2023655728,
				"element": "C" 
			},
			{
				"x": -0.0007431,
				"y": -1.1355332307,
				"z": 0.5708752273,
				"element": "C" 
			},
			{
				"x": -1.19601345,
				"y": -0.8685952611,
				"z": -0.052170189,
				"element": "N" 
			},
			{
				"x": -2.4325895458,
				"y": -0.5347659166,
				"z": 0.4570979008,
				"element": "C" 
			},
			{
				"x": -3.2504022431,
				"y": -0.3858899269,
				"z": -0.6466457998,
				"element": "C" 
			},
			{
				"x": -2.5875742405,
				"y": -0.6096532299,
				"z": -1.8154836259,
				"element": "N" 
			},
			{
				"x": -1.3409172186,
				"y": -0.9026316562,
				"z": -1.4559990616,
				"element": "C" 
			},
			{
				"x": -0.2046693084,
				"y": -1.2249128407,
				"z": -2.233195889,
				"element": "C" 
			},
			{
				"x": 0.9953076225,
				"y": -1.4936452199,
				"z": -1.6217910709,
				"element": "C" 
			},
			{
				"x": 0.0215256403,
				"y": -1.087013551,
				"z": 1.6513281403,
				"element": "H" 
			},
			{
				"x": -2.6085921502,
				"y": -0.4379104043,
				"z": 1.5168504908,
				"element": "H" 
			},
			{
				"x": -4.3003581294,
				"y": -0.1236159592,
				"z": -0.639250808,
				"element": "H" 
			},
			{
				"x": -0.3167013794,
				"y": -1.2508529631,
				"z": -3.3108226519,
				"element": "H" 
			},
			{
				"x": 1.8758863267,
				"y": -1.7422807966,
				"z": -2.2014405919,
				"element": "H" 
			}
		],
		 "valence_orbital": [ 
			{
				"type": "occ",
				"energy": -0.30461,
				"method": "rhf"
			},
			{
				"type": "occ",
				"energy": -0.30013,
				"method": "rhf"
			},
			{
				"type": "occ",
				"energy": -0.27523,
				"method": "rhf"
			},
			{
				"type": "occ",
				"energy": -0.2432,
				"method": "rhf"
			},
			{
				"type": "occ",
				"energy": -0.21927,
				"method": "rhf"
			},
			{
				"type": "unocc",
				"energy": -0.04491,
				"method": "rhf"
			},
			{
				"type": "unocc",
				"energy": -0.00738,
				"method": "rhf"
			},
			{
				"type": "unocc",
				"energy": -0.00629,
				"method": "rhf"
			},
			{
				"type": "unocc",
				"energy": 0.06068,
				"method": "rhf"
			},
			{
				"type": "unocc",
				"energy": 0.10952,
				"method": "rhf"
			}
		],
		"cosmo_sigma_profile": { 
			"-0.025": 0.0,
			"-0.024": 0.0,
			"-0.023": 0.0,
			"-0.022": 0.0,
			"-0.021": 0.0,
			"-0.02": 0.0,
			"-0.019": 0.0,
			"-0.018": 0.0,
			"-0.017": 0.0,
			"-0.016": 0.0,
			"-0.015": 0.0,
			"-0.014": 0.0,
			"-0.013": 0.0,
			"-0.012": 0.0,
			"-0.011": 0.927649123395,
			"-0.01": 3.14642727609,
			"-0.009": 3.51109049928,
			"-0.008": 4.82398472083,
			"-0.007": 7.51987797216,
			"-0.006": 8.4735877626,
			"-0.005": 7.89909182049,
			"-0.004": 9.10320979246,
			"-0.003": 9.17718509563,
			"-0.002": 9.72610359727,
			"-0.001": 14.4556381541,
			"0.0": 14.6149658486,
			"0.001": 18.6080005503,
			"0.002": 15.9130108379,
			"0.003": 15.1873278677,
			"0.004": 15.7757382739,
			"0.005": 4.37882818423,
			"0.006": 1.65487744819,
			"0.007": 1.31664194792,
			"0.008": 1.62198470131,
			"0.009": 1.42425831098,
			"0.01": 0.958911515755,
			"0.011": 1.28951310959,
			"0.012": 1.14179213708,
			"0.013": 1.58001501106,
			"0.014": 0.764969651686,
			"0.015": 0.812098435047,
			"0.016": 1.42394099508,
			"0.017": 0.900021126759,
			"0.018": 0.283076362532,
			"0.019": 0.0,
			"0.02": 0.0,
			"0.021": 0.0,
			"0.022": 0.0,
			"0.023": 0.0,
			"0.024": 0.0,
			"0.025": 0.0
		}
	}
}
