{
	 "smiles": "NC1=NC(C2=CC=CC=C2)=C(N=N1)C1=CC=CC=C1", 
	 "Tm": 451.15, 
	 "num_atms": 31, 
	 "gaussian": { 
		 "optdone": 1, 
		 "sigma_profile": "yes", 
		 "theory": "DFT", 
		 "functional": "B3LYP", 
		 "basiset": "6-31G**", 
		 "properties": { 
			 "R2extent": 5672.949, 
			 "electric_dipole_moment_norm": 2.79531575676, 
			 "electric_quadrupole_moment_norm": 18.3333957089, 
			 "total_energy": -797.813477851, 
			 "HOMO_LUMO_gap": 0.15267, 
			 "cosmo_polarized_energy": -14.13, 
			 "cosmo_cavitation_energy": 35.43, 
			 "cosmo_dispersion_energy": -25.3, 
			 "cosmo_repulsion_energy": 1.97, 
			 "cosmo_total_nonelectrostatic_energy": 12.09, 
			 "SMD_solvation_energy": 2.99 
		},
		"coords": [
			{
				"x": -3.8891591229,
				"y": -0.119027392,
				"z": -0.4870079461,
				"element": "N" 
			},
			{
				"x": -2.5740405446,
				"y": -0.0240885156,
				"z": -0.8331522805,
				"element": "C" 
			},
			{
				"x": -1.6674481346,
				"y": -0.5953983918,
				"z": -0.0271647827,
				"element": "N" 
			},
			{
				"x": -0.4008522574,
				"y": -0.589367399,
				"z": -0.4479416863,
				"element": "C" 
			},
			{
				"x": 0.6023949232,
				"y": -1.0833355422,
				"z": 0.531846446,
				"element": "C" 
			},
			{
				"x": 0.2554406874,
				"y": -2.1379008297,
				"z": 1.3919251837,
				"element": "C" 
			},
			{
				"x": 1.1556242158,
				"y": -2.5928482218,
				"z": 2.3531049553,
				"element": "C" 
			},
			{
				"x": 2.4066206644,
				"y": -1.9859140472,
				"z": 2.4845097409,
				"element": "C" 
			},
			{
				"x": 2.7520384603,
				"y": -0.9220501072,
				"z": 1.6480751453,
				"element": "C" 
			},
			{
				"x": 1.8607548397,
				"y": -0.4760854418,
				"z": 0.6740091647,
				"element": "C" 
			},
			{
				"x": -0.1014137243,
				"y": -0.0718646628,
				"z": -1.7409105743,
				"element": "C" 
			},
			{
				"x": -1.0577503754,
				"y": 0.5873943243,
				"z": -2.4175999196,
				"element": "N" 
			},
			{
				"x": -2.2940745875,
				"y": 0.6600852156,
				"z": -1.9648035015,
				"element": "N" 
			},
			{
				"x": 1.1975113169,
				"y": -0.1928110188,
				"z": -2.4522610098,
				"element": "C" 
			},
			{
				"x": 1.9335906759,
				"y": -1.3888030718,
				"z": -2.4365946191,
				"element": "C" 
			},
			{
				"x": 3.1211036156,
				"y": -1.499785939,
				"z": -3.15813067,
				"element": "C" 
			},
			{
				"x": 3.592237505,
				"y": -0.4201801249,
				"z": -3.9082349123,
				"element": "C" 
			},
			{
				"x": 2.8612585241,
				"y": 0.7693505822,
				"z": -3.93970963,
				"element": "C" 
			},
			{
				"x": 1.6712836461,
				"y": 0.8815916348,
				"z": -3.2226111723,
				"element": "C" 
			},
			{
				"x": -4.0967271372,
				"y": -0.3702097017,
				"z": 0.4665781253,
				"element": "H" 
			},
			{
				"x": -4.526506994,
				"y": 0.4962294059,
				"z": -0.9689480796,
				"element": "H" 
			},
			{
				"x": -0.7259887874,
				"y": -2.5894500342,
				"z": 1.2954740883,
				"element": "H" 
			},
			{
				"x": 0.8791375124,
				"y": -3.4181210066,
				"z": 3.0029827148,
				"element": "H" 
			},
			{
				"x": 3.1068804807,
				"y": -2.3367844305,
				"z": 3.2371578227,
				"element": "H" 
			},
			{
				"x": 3.7172935068,
				"y": -0.4358653493,
				"z": 1.7547897478,
				"element": "H" 
			},
			{
				"x": 2.1360985708,
				"y": 0.3530250942,
				"z": 0.0317901324,
				"element": "H" 
			},
			{
				"x": 1.5702554899,
				"y": -2.2372926196,
				"z": -1.8658218399,
				"element": "H" 
			},
			{
				"x": 3.6749848127,
				"y": -2.434062191,
				"z": -3.1396266949,
				"element": "H" 
			},
			{
				"x": 4.5189633767,
				"y": -0.5074101727,
				"z": -4.4681728564,
				"element": "H" 
			},
			{
				"x": 3.2173414118,
				"y": 1.6121770844,
				"z": -4.5253910963,
				"element": "H" 
			},
			{
				"x": 1.090447429,
				"y": 1.7970028697,
				"z": -3.2566599954,
				"element": "H" 
			}
		],
		 "valence_orbital": [ 
			{
				"type": "occ",
				"energy": -0.25802,
				"method": "rhf"
			},
			{
				"type": "occ",
				"energy": -0.25373,
				"method": "rhf"
			},
			{
				"type": "occ",
				"energy": -0.24603,
				"method": "rhf"
			},
			{
				"type": "occ",
				"energy": -0.22327,
				"method": "rhf"
			},
			{
				"type": "occ",
				"energy": -0.21694,
				"method": "rhf"
			},
			{
				"type": "unocc",
				"energy": -0.06427,
				"method": "rhf"
			},
			{
				"type": "unocc",
				"energy": -0.03791,
				"method": "rhf"
			},
			{
				"type": "unocc",
				"energy": -0.00962,
				"method": "rhf"
			},
			{
				"type": "unocc",
				"energy": 0.00376,
				"method": "rhf"
			},
			{
				"type": "unocc",
				"energy": 0.0085,
				"method": "rhf"
			}
		],
		"cosmo_sigma_profile": { 
			"-0.025": 0.0,
			"-0.024": 0.0,
			"-0.023": 0.0,
			"-0.022": 0.0,
			"-0.021": 0.0,
			"-0.02": 0.0,
			"-0.019": 0.0,
			"-0.018": 0.0,
			"-0.017": 0.0,
			"-0.016": 0.0,
			"-0.015": 0.124437633455,
			"-0.014": 1.60038672587,
			"-0.013": 2.6934475626,
			"-0.012": 1.41712447734,
			"-0.011": 1.74017255304,
			"-0.01": 2.58138825502,
			"-0.009": 2.19151366244,
			"-0.008": 1.39654250887,
			"-0.007": 1.74004546787,
			"-0.006": 13.2191549873,
			"-0.005": 21.676205882,
			"-0.004": 25.7415619926,
			"-0.003": 23.0318915052,
			"-0.002": 20.3901765121,
			"-0.001": 18.8205969512,
			"0.0": 17.8922408701,
			"0.001": 17.0459159415,
			"0.002": 18.1454680751,
			"0.003": 19.7670822782,
			"0.004": 24.2277387972,
			"0.005": 18.6381507629,
			"0.006": 7.13737375559,
			"0.007": 3.64701988953,
			"0.008": 3.53850857643,
			"0.009": 3.60623162173,
			"0.01": 2.48447973563,
			"0.011": 2.38626527449,
			"0.012": 2.04551608451,
			"0.013": 2.97679516882,
			"0.014": 1.83953855477,
			"0.015": 0.78126245811,
			"0.016": 0.0397012453634,
			"0.017": 0.0,
			"0.018": 0.0,
			"0.019": 0.0,
			"0.02": 0.0,
			"0.021": 0.0,
			"0.022": 0.0,
			"0.023": 0.0,
			"0.024": 0.0,
			"0.025": 0.0
		}
	}
}
