{
	 "smiles": "CC1NCCN2C(Cl)=CC=C12", 
	 "Tm": 327.15, 
	 "num_atms": 22, 
	 "gaussian": { 
		 "optdone": 1, 
		 "sigma_profile": "yes", 
		 "theory": "DFT", 
		 "functional": "B3LYP", 
		 "basiset": "6-31G**", 
		 "properties": { 
			 "R2extent": 2160.9321, 
			 "electric_dipole_moment_norm": 2.97696121742, 
			 "electric_quadrupole_moment_norm": 7.32511802089, 
			 "total_energy": -881.157321963, 
			 "HOMO_LUMO_gap": 0.23102, 
			 "cosmo_polarized_energy": -7.16, 
			 "cosmo_cavitation_energy": 25.36, 
			 "cosmo_dispersion_energy": -19.05, 
			 "cosmo_repulsion_energy": 1.53, 
			 "cosmo_total_nonelectrostatic_energy": 7.84, 
			 "SMD_solvation_energy": 1.39 
		},
		"coords": [
			{
				"x": -1.7897415449,
				"y": -1.9389489864,
				"z": -0.6566871844,
				"element": "C" 
			},
			{
				"x": -1.3165128008,
				"y": -1.3418440651,
				"z": 0.6874712168,
				"element": "C" 
			},
			{
				"x": -2.2310159711,
				"y": -0.3285358246,
				"z": 1.2442537388,
				"element": "N" 
			},
			{
				"x": -2.1142537321,
				"y": 0.979420947,
				"z": 0.6044607373,
				"element": "C" 
			},
			{
				"x": -0.7610450367,
				"y": 1.5787154403,
				"z": 0.9763345343,
				"element": "C" 
			},
			{
				"x": 0.2814813745,
				"y": 0.6083341341,
				"z": 0.6585740201,
				"element": "N" 
			},
			{
				"x": 1.6296248422,
				"y": 0.8454077504,
				"z": 0.5106548397,
				"element": "C" 
			},
			{
				"x": 2.2693386176,
				"y": 2.4569186203,
				"z": 0.5765593497,
				"element": "Cl" 
			},
			{
				"x": 2.2886223199,
				"y": -0.3470509352,
				"z": 0.3226726148,
				"element": "C" 
			},
			{
				"x": 1.2939984487,
				"y": -1.363264803,
				"z": 0.3684711996,
				"element": "C" 
			},
			{
				"x": 0.0717548456,
				"y": -0.7576250472,
				"z": 0.582726773,
				"element": "C" 
			},
			{
				"x": -1.0909177824,
				"y": -2.7034370824,
				"z": -1.0094264436,
				"element": "H" 
			},
			{
				"x": -1.8606442804,
				"y": -1.1715669891,
				"z": -1.4337920803,
				"element": "H" 
			},
			{
				"x": -2.7738154261,
				"y": -2.4093881012,
				"z": -0.5406610622,
				"element": "H" 
			},
			{
				"x": -1.2782728476,
				"y": -2.1628048437,
				"z": 1.4160168175,
				"element": "H" 
			},
			{
				"x": -3.1858016041,
				"y": -0.6689838636,
				"z": 1.1817912581,
				"element": "H" 
			},
			{
				"x": -2.2086545812,
				"y": 0.9558105281,
				"z": -0.4958575063,
				"element": "H" 
			},
			{
				"x": -2.9062161485,
				"y": 1.6308797462,
				"z": 0.9865664454,
				"element": "H" 
			},
			{
				"x": -0.7370006173,
				"y": 1.8081228439,
				"z": 2.0480919706,
				"element": "H" 
			},
			{
				"x": -0.5732439783,
				"y": 2.5004363933,
				"z": 0.4194250661,
				"element": "H" 
			},
			{
				"x": 3.3507856614,
				"y": -0.46537814,
				"z": 0.1691851143,
				"element": "H" 
			},
			{
				"x": 1.4592302417,
				"y": -2.425817722,
				"z": 0.2532685808,
				"element": "H" 
			}
		],
		 "valence_orbital": [ 
			{
				"type": "occ",
				"energy": -0.32462,
				"method": "rhf"
			},
			{
				"type": "occ",
				"energy": -0.31399,
				"method": "rhf"
			},
			{
				"type": "occ",
				"energy": -0.23793,
				"method": "rhf"
			},
			{
				"type": "occ",
				"energy": -0.22909,
				"method": "rhf"
			},
			{
				"type": "occ",
				"energy": -0.19498,
				"method": "rhf"
			},
			{
				"type": "unocc",
				"energy": 0.03604,
				"method": "rhf"
			},
			{
				"type": "unocc",
				"energy": 0.04584,
				"method": "rhf"
			},
			{
				"type": "unocc",
				"energy": 0.07254,
				"method": "rhf"
			},
			{
				"type": "unocc",
				"energy": 0.07732,
				"method": "rhf"
			},
			{
				"type": "unocc",
				"energy": 0.10752,
				"method": "rhf"
			}
		],
		"cosmo_sigma_profile": { 
			"-0.025": 0.0,
			"-0.024": 0.0,
			"-0.023": 0.0,
			"-0.022": 0.0,
			"-0.021": 0.0,
			"-0.02": 0.0,
			"-0.019": 0.0,
			"-0.018": 0.0,
			"-0.017": 0.0,
			"-0.016": 0.0,
			"-0.015": 0.0,
			"-0.014": 0.0,
			"-0.013": 0.0,
			"-0.012": 0.0,
			"-0.011": 0.300281492683,
			"-0.01": 1.13666011227,
			"-0.009": 1.37840182528,
			"-0.008": 1.30074348577,
			"-0.007": 1.89157967167,
			"-0.006": 4.40200863907,
			"-0.005": 12.7599161976,
			"-0.004": 18.0240990405,
			"-0.003": 24.9910746207,
			"-0.002": 20.5373553822,
			"-0.001": 17.3239231348,
			"0.0": 15.314080614,
			"0.001": 14.0272689114,
			"0.002": 11.4826723478,
			"0.003": 11.6273654909,
			"0.004": 16.2837266632,
			"0.005": 10.0789550076,
			"0.006": 4.79397199177,
			"0.007": 5.15445264851,
			"0.008": 3.96917895462,
			"0.009": 1.1881560534,
			"0.01": 0.525390688053,
			"0.011": 0.521767699901,
			"0.012": 0.38994649629,
			"0.013": 0.4728044811,
			"0.014": 0.467304744877,
			"0.015": 0.582491283702,
			"0.016": 0.461570651687,
			"0.017": 0.317946296741,
			"0.018": 0.0236358698932,
			"0.019": 0.0,
			"0.02": 0.0,
			"0.021": 0.0,
			"0.022": 0.0,
			"0.023": 0.0,
			"0.024": 0.0,
			"0.025": 0.0
		}
	}
}
