{
	 "smiles": "FC1=CC=C(OC2=CC=NC3=CC(Cl)=CC(Cl)=C23)C=C1", 
	 "Tm": 380.15, 
	 "num_atms": 28, 
	 "gaussian": { 
		 "optdone": 1, 
		 "sigma_profile": "yes", 
		 "theory": "DFT", 
		 "functional": "B3LYP", 
		 "basiset": "6-31G**", 
		 "properties": { 
			 "R2extent": 9107.5913, 
			 "electric_dipole_moment_norm": 2.80897528825, 
			 "electric_quadrupole_moment_norm": 8.22230002554, 
			 "total_energy": -1726.59971558, 
			 "HOMO_LUMO_gap": 0.16951, 
			 "cosmo_polarized_energy": -8.66, 
			 "cosmo_cavitation_energy": 37.4, 
			 "cosmo_dispersion_energy": -26.75, 
			 "cosmo_repulsion_energy": 2.01, 
			 "cosmo_total_nonelectrostatic_energy": 12.66, 
			 "SMD_solvation_energy": 4.9 
		},
		"coords": [
			{
				"x": -5.8716273213,
				"y": -2.4767325625,
				"z": 1.0949216274,
				"element": "F" 
			},
			{
				"x": -4.6854543396,
				"y": -1.8417321611,
				"z": 1.1726746948,
				"element": "C" 
			},
			{
				"x": -4.6408632529,
				"y": -0.4686589037,
				"z": 0.9528777934,
				"element": "C" 
			},
			{
				"x": -3.4123816489,
				"y": 0.1868902535,
				"z": 1.0350829,
				"element": "C" 
			},
			{
				"x": -2.2628480969,
				"y": -0.544630015,
				"z": 1.3325568286,
				"element": "C" 
			},
			{
				"x": -1.053966868,
				"y": 0.1251709622,
				"z": 1.5012782607,
				"element": "O" 
			},
			{
				"x": -0.2104782505,
				"y": 0.2935629081,
				"z": 0.4482596693,
				"element": "C" 
			},
			{
				"x": -0.4940998911,
				"y": -0.1729101342,
				"z": -0.8209724689,
				"element": "C" 
			},
			{
				"x": 0.4372972503,
				"y": 0.0457979155,
				"z": -1.8543138024,
				"element": "C" 
			},
			{
				"x": 1.5834444458,
				"y": 0.673745803,
				"z": -1.7046903259,
				"element": "N" 
			},
			{
				"x": 1.8846851178,
				"y": 1.1435641339,
				"z": -0.4592847491,
				"element": "C" 
			},
			{
				"x": 3.1282566853,
				"y": 1.8146163235,
				"z": -0.3383162408,
				"element": "C" 
			},
			{
				"x": 3.5138853798,
				"y": 2.3202472288,
				"z": 0.8763631064,
				"element": "C" 
			},
			{
				"x": 5.0480421843,
				"y": 3.152439002,
				"z": 1.0424887916,
				"element": "Cl" 
			},
			{
				"x": 2.6978337125,
				"y": 2.1882929581,
				"z": 2.017148731,
				"element": "C" 
			},
			{
				"x": 1.4838686877,
				"y": 1.5391721615,
				"z": 1.922922427,
				"element": "C" 
			},
			{
				"x": 0.5694146999,
				"y": 1.4470467955,
				"z": 3.4217467208,
				"element": "Cl" 
			},
			{
				"x": 1.022369772,
				"y": 0.9890197643,
				"z": 0.6867900649,
				"element": "C" 
			},
			{
				"x": -2.3186353032,
				"y": -1.920175976,
				"z": 1.5560370722,
				"element": "C" 
			},
			{
				"x": -3.545137069,
				"y": -2.5794452468,
				"z": 1.4746119008,
				"element": "C" 
			},
			{
				"x": -5.5555574811,
				"y": 0.0684599209,
				"z": 0.7279429443,
				"element": "H" 
			},
			{
				"x": -3.3402417813,
				"y": 1.2581812629,
				"z": 0.8810414797,
				"element": "H" 
			},
			{
				"x": -1.418164793,
				"y": -0.6994152139,
				"z": -1.0217149286,
				"element": "H" 
			},
			{
				"x": 0.2121922547,
				"y": -0.3226271528,
				"z": -2.8544873509,
				"element": "H" 
			},
			{
				"x": 3.7410636079,
				"y": 1.9058780165,
				"z": -1.2261509622,
				"element": "H" 
			},
			{
				"x": 3.0209295743,
				"y": 2.5948513768,
				"z": 2.966975155,
				"element": "H" 
			},
			{
				"x": -1.4101473876,
				"y": -2.4601605602,
				"z": 1.8003123882,
				"element": "H" 
			},
			{
				"x": -3.6268798878,
				"y": -3.6469488609,
				"z": 1.6463982726,
				"element": "H" 
			}
		],
		 "valence_orbital": [ 
			{
				"type": "occ",
				"energy": -0.27904,
				"method": "rhf"
			},
			{
				"type": "occ",
				"energy": -0.26756,
				"method": "rhf"
			},
			{
				"type": "occ",
				"energy": -0.26174,
				"method": "rhf"
			},
			{
				"type": "occ",
				"energy": -0.25543,
				"method": "rhf"
			},
			{
				"type": "occ",
				"energy": -0.23204,
				"method": "rhf"
			},
			{
				"type": "unocc",
				"energy": -0.06253,
				"method": "rhf"
			},
			{
				"type": "unocc",
				"energy": -0.03835,
				"method": "rhf"
			},
			{
				"type": "unocc",
				"energy": -0.02795,
				"method": "rhf"
			},
			{
				"type": "unocc",
				"energy": -0.01554,
				"method": "rhf"
			},
			{
				"type": "unocc",
				"energy": 0.00643,
				"method": "rhf"
			}
		],
		"cosmo_sigma_profile": { 
			"-0.025": 0.0,
			"-0.024": 0.0,
			"-0.023": 0.0,
			"-0.022": 0.0,
			"-0.021": 0.0,
			"-0.02": 0.0,
			"-0.019": 0.0,
			"-0.018": 0.0,
			"-0.017": 0.0,
			"-0.016": 0.0,
			"-0.015": 0.0,
			"-0.014": 0.0,
			"-0.013": 0.0,
			"-0.012": 0.0,
			"-0.011": 0.0,
			"-0.01": 0.0,
			"-0.009": 0.243780828979,
			"-0.008": 5.846976349,
			"-0.007": 13.9081615437,
			"-0.006": 12.9537012463,
			"-0.005": 14.971002874,
			"-0.004": 11.7700025707,
			"-0.003": 15.3859653905,
			"-0.002": 18.3732968859,
			"-0.001": 26.9584724288,
			"0.0": 40.7062604047,
			"0.001": 40.5399366697,
			"0.002": 29.535162759,
			"0.003": 25.3685345712,
			"0.004": 28.0807838013,
			"0.005": 8.95345263453,
			"0.006": 3.81904381733,
			"0.007": 1.60761005485,
			"0.008": 2.03851811391,
			"0.009": 1.23726588741,
			"0.01": 1.0148008607,
			"0.011": 0.662459339533,
			"0.012": 0.679847515874,
			"0.013": 0.635113789049,
			"0.014": 1.00109432538,
			"0.015": 0.728912906724,
			"0.016": 0.107886423843,
			"0.017": 0.0,
			"0.018": 0.0,
			"0.019": 0.0,
			"0.02": 0.0,
			"0.021": 0.0,
			"0.022": 0.0,
			"0.023": 0.0,
			"0.024": 0.0,
			"0.025": 0.0
		}
	}
}
