{
	 "smiles": "COC(=O)C1CSCCC1=O", 
	 "Tm": 341.15, 
	 "num_atms": 21, 
	 "gaussian": { 
		 "optdone": 1, 
		 "sigma_profile": "yes", 
		 "theory": "DFT", 
		 "functional": "B3LYP", 
		 "basiset": "6-31G**", 
		 "properties": { 
			 "R2extent": 2044.5764, 
			 "electric_dipole_moment_norm": 1.68651219978, 
			 "electric_quadrupole_moment_norm": 12.800898688, 
			 "total_energy": -896.628062015, 
			 "HOMO_LUMO_gap": 0.1999, 
			 "cosmo_polarized_energy": -12.72, 
			 "cosmo_cavitation_energy": 25.36, 
			 "cosmo_dispersion_energy": -18.59, 
			 "cosmo_repulsion_energy": 1.47, 
			 "cosmo_total_nonelectrostatic_energy": 8.24, 
			 "SMD_solvation_energy": 5.7 
		},
		"coords": [
			{
				"x": 1.0156739175,
				"y": 1.4572596059,
				"z": -2.0307762352,
				"element": "C" 
			},
			{
				"x": 0.5203043647,
				"y": 0.5280721706,
				"z": -1.0463733082,
				"element": "O" 
			},
			{
				"x": -0.2402337899,
				"y": 1.0677260783,
				"z": -0.0748212226,
				"element": "C" 
			},
			{
				"x": -0.5059447238,
				"y": 2.244512788,
				"z": 0.006070702,
				"element": "O" 
			},
			{
				"x": -0.743044423,
				"y": 0.0246054775,
				"z": 0.9290574368,
				"element": "C" 
			},
			{
				"x": -0.2367109614,
				"y": 0.3661406496,
				"z": 2.3394776517,
				"element": "C" 
			},
			{
				"x": 1.5930196436,
				"y": 0.2368260984,
				"z": 2.5243392651,
				"element": "S" 
			},
			{
				"x": 1.9598867072,
				"y": -1.1621725095,
				"z": 1.3717085261,
				"element": "C" 
			},
			{
				"x": 0.7702163469,
				"y": -2.0968565768,
				"z": 1.1441220567,
				"element": "C" 
			},
			{
				"x": -0.449715368,
				"y": -1.4272301149,
				"z": 0.5238899191,
				"element": "C" 
			},
			{
				"x": -1.2014005603,
				"y": -2.0258293151,
				"z": -0.2176654609,
				"element": "O" 
			},
			{
				"x": 1.5927208735,
				"y": 0.8577267004,
				"z": -2.7338260818,
				"element": "H" 
			},
			{
				"x": 0.1835689168,
				"y": 1.9510104384,
				"z": -2.5372433346,
				"element": "H" 
			},
			{
				"x": 1.6450777075,
				"y": 2.2131470691,
				"z": -1.5559286061,
				"element": "H" 
			},
			{
				"x": -1.8350024853,
				"y": 0.1265670029,
				"z": 0.9184248943,
				"element": "H" 
			},
			{
				"x": -0.7296312209,
				"y": -0.276279523,
				"z": 3.0743481827,
				"element": "H" 
			},
			{
				"x": -0.4861980307,
				"y": 1.4040872585,
				"z": 2.570074193,
				"element": "H" 
			},
			{
				"x": 2.3004209693,
				"y": -0.7510164249,
				"z": 0.4190309632,
				"element": "H" 
			},
			{
				"x": 2.7898179061,
				"y": -1.7115369543,
				"z": 1.8224251324,
				"element": "H" 
			},
			{
				"x": 0.4505211387,
				"y": -2.5298864576,
				"z": 2.1027738819,
				"element": "H" 
			},
			{
				"x": 1.0498530716,
				"y": -2.9334734615,
				"z": 0.4962914443,
				"element": "H" 
			}
		],
		 "valence_orbital": [ 
			{
				"type": "occ",
				"energy": -0.31544,
				"method": "rhf"
			},
			{
				"type": "occ",
				"energy": -0.31287,
				"method": "rhf"
			},
			{
				"type": "occ",
				"energy": -0.2888,
				"method": "rhf"
			},
			{
				"type": "occ",
				"energy": -0.25213,
				"method": "rhf"
			},
			{
				"type": "occ",
				"energy": -0.22963,
				"method": "rhf"
			},
			{
				"type": "unocc",
				"energy": -0.02973,
				"method": "rhf"
			},
			{
				"type": "unocc",
				"energy": -0.00483,
				"method": "rhf"
			},
			{
				"type": "unocc",
				"energy": 0.03305,
				"method": "rhf"
			},
			{
				"type": "unocc",
				"energy": 0.05225,
				"method": "rhf"
			},
			{
				"type": "unocc",
				"energy": 0.08538,
				"method": "rhf"
			}
		],
		"cosmo_sigma_profile": { 
			"-0.025": 0.0,
			"-0.024": 0.0,
			"-0.023": 0.0,
			"-0.022": 0.0,
			"-0.021": 0.0,
			"-0.02": 0.0,
			"-0.019": 0.0,
			"-0.018": 0.0,
			"-0.017": 0.0,
			"-0.016": 0.0,
			"-0.015": 0.0,
			"-0.014": 0.0,
			"-0.013": 0.0,
			"-0.012": 0.0,
			"-0.011": 0.0,
			"-0.01": 0.00585860198629,
			"-0.009": 0.893997537008,
			"-0.008": 4.14622615869,
			"-0.007": 10.2250307997,
			"-0.006": 17.9347201962,
			"-0.005": 18.9691020914,
			"-0.004": 23.9682031184,
			"-0.003": 19.5508552951,
			"-0.002": 11.8464312412,
			"-0.001": 9.02338350186,
			"0.0": 7.54686853044,
			"0.001": 6.6026997837,
			"0.002": 6.38403752316,
			"0.003": 6.03819223878,
			"0.004": 6.34582819916,
			"0.005": 7.83131991914,
			"0.006": 6.21095927244,
			"0.007": 5.88734997492,
			"0.008": 4.8699655751,
			"0.009": 6.57647310305,
			"0.01": 6.38128985269,
			"0.011": 9.01887399856,
			"0.012": 4.56185785091,
			"0.013": 0.469309179382,
			"0.014": 0.0,
			"0.015": 0.0,
			"0.016": 0.0,
			"0.017": 0.0,
			"0.018": 0.0,
			"0.019": 0.0,
			"0.02": 0.0,
			"0.021": 0.0,
			"0.022": 0.0,
			"0.023": 0.0,
			"0.024": 0.0,
			"0.025": 0.0
		}
	}
}
