{
	 "smiles": "CC1=CC=C(C=C1)N1C(=O)C=CC1=O", 
	 "Tm": 425.15, 
	 "num_atms": 23, 
	 "gaussian": { 
		 "optdone": 1, 
		 "sigma_profile": "yes", 
		 "theory": "DFT", 
		 "functional": "B3LYP", 
		 "basiset": "6-31G**", 
		 "properties": { 
			 "R2extent": 3253.5774, 
			 "electric_dipole_moment_norm": 1.2276366482, 
			 "electric_quadrupole_moment_norm": 17.8855557428, 
			 "total_energy": -629.796108577, 
			 "HOMO_LUMO_gap": 0.12146, 
			 "cosmo_polarized_energy": -8.83, 
			 "cosmo_cavitation_energy": 27.37, 
			 "cosmo_dispersion_energy": -20.3, 
			 "cosmo_repulsion_energy": 1.56, 
			 "cosmo_total_nonelectrostatic_energy": 8.63, 
			 "SMD_solvation_energy": 6.28 
		},
		"coords": [
			{
				"x": -0.9612128543,
				"y": -4.2393347848,
				"z": 1.1446784707,
				"element": "C" 
			},
			{
				"x": -0.6610356879,
				"y": -2.9070170689,
				"z": 0.5007755015,
				"element": "C" 
			},
			{
				"x": 0.480553778,
				"y": -2.1736121666,
				"z": 0.8398261252,
				"element": "C" 
			},
			{
				"x": 0.7555077381,
				"y": -0.9296937272,
				"z": 0.2754490394,
				"element": "C" 
			},
			{
				"x": -0.1262008436,
				"y": -0.3764020641,
				"z": -0.6669250424,
				"element": "C" 
			},
			{
				"x": -1.2754802104,
				"y": -1.099916205,
				"z": -1.0237953665,
				"element": "C" 
			},
			{
				"x": -1.5247095404,
				"y": -2.3416771544,
				"z": -0.4429079283,
				"element": "C" 
			},
			{
				"x": 0.1460638791,
				"y": 0.9065792447,
				"z": -1.2599162807,
				"element": "N" 
			},
			{
				"x": -0.6617813258,
				"y": 1.5681386597,
				"z": -2.2199895427,
				"element": "C" 
			},
			{
				"x": -1.7048928156,
				"y": 1.1807433243,
				"z": -2.7041383167,
				"element": "O" 
			},
			{
				"x": 0.0118919054,
				"y": 2.8652390945,
				"z": -2.5431551525,
				"element": "C" 
			},
			{
				"x": 1.1305002826,
				"y": 2.9584926056,
				"z": -1.8270024928,
				"element": "C" 
			},
			{
				"x": 1.2683050534,
				"y": 1.7290847229,
				"z": -0.984228123,
				"element": "C" 
			},
			{
				"x": 2.180704804,
				"y": 1.5046160399,
				"z": -0.2163029557,
				"element": "O" 
			},
			{
				"x": -0.0430174016,
				"y": -4.7644119756,
				"z": 1.4252075668,
				"element": "H" 
			},
			{
				"x": -1.5559919731,
				"y": -4.1146870129,
				"z": 2.0585429155,
				"element": "H" 
			},
			{
				"x": -1.5312896078,
				"y": -4.8890469952,
				"z": 0.4735817917,
				"element": "H" 
			},
			{
				"x": 1.1825711515,
				"y": -2.5793502674,
				"z": 1.5643487518,
				"element": "H" 
			},
			{
				"x": 1.6487864194,
				"y": -0.3968834953,
				"z": 0.562677154,
				"element": "H" 
			},
			{
				"x": -1.966266288,
				"y": -0.7000268655,
				"z": -1.7498960877,
				"element": "H" 
			},
			{
				"x": -2.4205743939,
				"y": -2.881371014,
				"z": -0.7404644025,
				"element": "H" 
			},
			{
				"x": -0.4181545556,
				"y": 3.5534222212,
				"z": -3.2584993353,
				"element": "H" 
			},
			{
				"x": 1.8730224865,
				"y": 3.7444148839,
				"z": -1.7916662898,
				"element": "H" 
			}
		],
		 "valence_orbital": [ 
			{
				"type": "occ",
				"energy": -0.31113,
				"method": "rhf"
			},
			{
				"type": "occ",
				"energy": -0.29601,
				"method": "rhf"
			},
			{
				"type": "occ",
				"energy": -0.27328,
				"method": "rhf"
			},
			{
				"type": "occ",
				"energy": -0.24716,
				"method": "rhf"
			},
			{
				"type": "occ",
				"energy": -0.22343,
				"method": "rhf"
			},
			{
				"type": "unocc",
				"energy": -0.10197,
				"method": "rhf"
			},
			{
				"type": "unocc",
				"energy": -0.00825,
				"method": "rhf"
			},
			{
				"type": "unocc",
				"energy": 0.00134,
				"method": "rhf"
			},
			{
				"type": "unocc",
				"energy": 0.06007,
				"method": "rhf"
			},
			{
				"type": "unocc",
				"energy": 0.06362,
				"method": "rhf"
			}
		],
		"cosmo_sigma_profile": { 
			"-0.025": 0.0,
			"-0.024": 0.0,
			"-0.023": 0.0,
			"-0.022": 0.0,
			"-0.021": 0.0,
			"-0.02": 0.0,
			"-0.019": 0.0,
			"-0.018": 0.0,
			"-0.017": 0.0,
			"-0.016": 0.0,
			"-0.015": 0.0,
			"-0.014": 0.0,
			"-0.013": 0.0,
			"-0.012": 0.0,
			"-0.011": 0.0,
			"-0.01": 2.31568235323,
			"-0.009": 3.72433282946,
			"-0.008": 3.28628939312,
			"-0.007": 3.4264411922,
			"-0.006": 7.14009426974,
			"-0.005": 11.539116842,
			"-0.004": 20.6073445771,
			"-0.003": 21.8872297453,
			"-0.002": 19.2019917382,
			"-0.001": 17.4118904238,
			"0.0": 20.0584777765,
			"0.001": 13.7517993935,
			"0.002": 12.8697316217,
			"0.003": 12.224180389,
			"0.004": 11.6556604543,
			"0.005": 11.4161620129,
			"0.006": 6.68862401485,
			"0.007": 4.04616739897,
			"0.008": 3.51241876349,
			"0.009": 5.20039199337,
			"0.01": 4.86946053508,
			"0.011": 3.33827122019,
			"0.012": 0.168332594927,
			"0.013": 0.0,
			"0.014": 0.0,
			"0.015": 0.0,
			"0.016": 0.0,
			"0.017": 0.0,
			"0.018": 0.0,
			"0.019": 0.0,
			"0.02": 0.0,
			"0.021": 0.0,
			"0.022": 0.0,
			"0.023": 0.0,
			"0.024": 0.0,
			"0.025": 0.0
		}
	}
}
