{
	 "smiles": "O=C1OC(=O)C2=C(C=CC=C2)N1CC1=CC=CC=C1", 
	 "Tm": 411.15, 
	 "num_atms": 30, 
	 "gaussian": { 
		 "optdone": 1, 
		 "sigma_profile": "yes", 
		 "theory": "DFT", 
		 "functional": "B3LYP", 
		 "basiset": "6-31G**", 
		 "properties": { 
			 "R2extent": 5802.6204, 
			 "electric_dipole_moment_norm": 6.54226892599, 
			 "electric_quadrupole_moment_norm": 18.3532150922, 
			 "total_energy": -858.683332341, 
			 "HOMO_LUMO_gap": 0.17825, 
			 "cosmo_polarized_energy": -15.21, 
			 "cosmo_cavitation_energy": 34.38, 
			 "cosmo_dispersion_energy": -24.55, 
			 "cosmo_repulsion_energy": 1.85, 
			 "cosmo_total_nonelectrostatic_energy": 11.68, 
			 "SMD_solvation_energy": 7.45 
		},
		"coords": [
			{
				"x": -3.0607882076,
				"y": -0.9403629621,
				"z": 0.5117892679,
				"element": "O" 
			},
			{
				"x": -2.2265537449,
				"y": -0.6940975392,
				"z": 1.3518238339,
				"element": "C" 
			},
			{
				"x": -2.5880660448,
				"y": -0.7123969222,
				"z": 2.6738183045,
				"element": "O" 
			},
			{
				"x": -1.7504531666,
				"y": -0.4423792909,
				"z": 3.7554755707,
				"element": "C" 
			},
			{
				"x": -2.216617468,
				"y": -0.5239099291,
				"z": 4.8624866213,
				"element": "O" 
			},
			{
				"x": -0.3783570352,
				"y": -0.0737502714,
				"z": 3.4060078259,
				"element": "C" 
			},
			{
				"x": 0.020088907,
				"y": -0.0415444713,
				"z": 2.0555528075,
				"element": "C" 
			},
			{
				"x": 1.3386376106,
				"y": 0.3361225385,
				"z": 1.7507285735,
				"element": "C" 
			},
			{
				"x": 2.2232827361,
				"y": 0.6526779608,
				"z": 2.7774800837,
				"element": "C" 
			},
			{
				"x": 1.8298714289,
				"y": 0.6079382971,
				"z": 4.1203557984,
				"element": "C" 
			},
			{
				"x": 0.5257948092,
				"y": 0.2478509543,
				"z": 4.4271287298,
				"element": "C" 
			},
			{
				"x": -0.9035662979,
				"y": -0.3914709774,
				"z": 1.0625887666,
				"element": "N" 
			},
			{
				"x": -0.5088678976,
				"y": -0.4747724032,
				"z": -0.3583782619,
				"element": "C" 
			},
			{
				"x": -0.4083961042,
				"y": 0.8630261096,
				"z": -1.0682192619,
				"element": "C" 
			},
			{
				"x": 0.7343488651,
				"y": 1.1849829462,
				"z": -1.8086483607,
				"element": "C" 
			},
			{
				"x": 0.818423203,
				"y": 2.3955235832,
				"z": -2.5003054361,
				"element": "C" 
			},
			{
				"x": -0.2428896133,
				"y": 3.29912391,
				"z": -2.4536881612,
				"element": "C" 
			},
			{
				"x": -1.3902447865,
				"y": 2.9823351838,
				"z": -1.7214056464,
				"element": "C" 
			},
			{
				"x": -1.4759576,
				"y": 1.77079491,
				"z": -1.0370033493,
				"element": "C" 
			},
			{
				"x": 1.6671774521,
				"y": 0.4111189908,
				"z": 0.7234134603,
				"element": "H" 
			},
			{
				"x": 3.2373534369,
				"y": 0.9453313229,
				"z": 2.5211816865,
				"element": "H" 
			},
			{
				"x": 2.5326257253,
				"y": 0.8580615803,
				"z": 4.9079686631,
				"element": "H" 
			},
			{
				"x": 0.1687015506,
				"y": 0.2044899316,
				"z": 5.4504349736,
				"element": "H" 
			},
			{
				"x": 0.4424391653,
				"y": -1.011497039,
				"z": -0.4132390401,
				"element": "H" 
			},
			{
				"x": -1.2705959903,
				"y": -1.0943325867,
				"z": -0.8337974068,
				"element": "H" 
			},
			{
				"x": 1.5639351769,
				"y": 0.4820568903,
				"z": -1.8516312687,
				"element": "H" 
			},
			{
				"x": 1.7127153568,
				"y": 2.6312807239,
				"z": -3.0699340679,
				"element": "H" 
			},
			{
				"x": -0.1796584241,
				"y": 4.2431607138,
				"z": -2.9869169484,
				"element": "H" 
			},
			{
				"x": -2.2238931419,
				"y": 3.6778578586,
				"z": -1.6891718556,
				"element": "H" 
			},
			{
				"x": -2.3787899007,
				"y": 1.519079987,
				"z": -0.4887959022,
				"element": "H" 
			}
		],
		 "valence_orbital": [ 
			{
				"type": "occ",
				"energy": -0.28334,
				"method": "rhf"
			},
			{
				"type": "occ",
				"energy": -0.27998,
				"method": "rhf"
			},
			{
				"type": "occ",
				"energy": -0.26177,
				"method": "rhf"
			},
			{
				"type": "occ",
				"energy": -0.25696,
				"method": "rhf"
			},
			{
				"type": "occ",
				"energy": -0.24361,
				"method": "rhf"
			},
			{
				"type": "unocc",
				"energy": -0.06536,
				"method": "rhf"
			},
			{
				"type": "unocc",
				"energy": -0.02801,
				"method": "rhf"
			},
			{
				"type": "unocc",
				"energy": -0.01746,
				"method": "rhf"
			},
			{
				"type": "unocc",
				"energy": -0.01388,
				"method": "rhf"
			},
			{
				"type": "unocc",
				"energy": 0.01629,
				"method": "rhf"
			}
		],
		"cosmo_sigma_profile": { 
			"-0.025": 0.0,
			"-0.024": 0.0,
			"-0.023": 0.0,
			"-0.022": 0.0,
			"-0.021": 0.0,
			"-0.02": 0.0,
			"-0.019": 0.0,
			"-0.018": 0.0,
			"-0.017": 0.0,
			"-0.016": 0.0,
			"-0.015": 0.0,
			"-0.014": 0.0,
			"-0.013": 0.0,
			"-0.012": 0.0,
			"-0.011": 0.0,
			"-0.01": 0.319322853975,
			"-0.009": 2.04065932568,
			"-0.008": 4.29634856946,
			"-0.007": 11.5225711136,
			"-0.006": 18.8638750243,
			"-0.005": 24.980374972,
			"-0.004": 24.0940526502,
			"-0.003": 19.6623783949,
			"-0.002": 15.6504525745,
			"-0.001": 14.4092376252,
			"0.0": 18.1940070217,
			"0.001": 20.5271374312,
			"0.002": 23.1859832008,
			"0.003": 16.8448524289,
			"0.004": 11.4848674096,
			"0.005": 11.7568401214,
			"0.006": 6.15037575857,
			"0.007": 3.85275136553,
			"0.008": 5.82074851009,
			"0.009": 5.58596727273,
			"0.01": 7.31658734471,
			"0.011": 7.52645968962,
			"0.012": 2.81493626529,
			"0.013": 0.202981080894,
			"0.014": 0.0,
			"0.015": 0.0,
			"0.016": 0.0,
			"0.017": 0.0,
			"0.018": 0.0,
			"0.019": 0.0,
			"0.02": 0.0,
			"0.021": 0.0,
			"0.022": 0.0,
			"0.023": 0.0,
			"0.024": 0.0,
			"0.025": 0.0
		}
	}
}
