{
	 "smiles": "CC1=CC=C(C=C1)C(C)(C)CC(O)=O", 
	 "Tm": 326.65, 
	 "num_atms": 30, 
	 "gaussian": { 
		 "optdone": 1, 
		 "sigma_profile": "yes", 
		 "theory": "DFT", 
		 "functional": "B3LYP", 
		 "basiset": "6-31G**", 
		 "properties": { 
			 "R2extent": 4396.3378, 
			 "electric_dipole_moment_norm": 1.61376671486, 
			 "electric_quadrupole_moment_norm": 7.32852474445, 
			 "total_energy": -617.399889261, 
			 "HOMO_LUMO_gap": 0.22737, 
			 "cosmo_polarized_energy": -9.87, 
			 "cosmo_cavitation_energy": 31.85, 
			 "cosmo_dispersion_energy": -22.44, 
			 "cosmo_repulsion_energy": 1.76, 
			 "cosmo_total_nonelectrostatic_energy": 11.17, 
			 "SMD_solvation_energy": 6.55 
		},
		"coords": [
			{
				"x": -3.8723412138,
				"y": 0.2682110847,
				"z": -1.6102895841,
				"element": "C" 
			},
			{
				"x": -2.4068829621,
				"y": 0.4736731543,
				"z": -1.3078476102,
				"element": "C" 
			},
			{
				"x": -1.5859911923,
				"y": 1.2310782684,
				"z": -2.1465678992,
				"element": "C" 
			},
			{
				"x": -0.2255734337,
				"y": 1.4022210918,
				"z": -1.8748857349,
				"element": "C" 
			},
			{
				"x": 0.3728215129,
				"y": 0.8201269239,
				"z": -0.7510285671,
				"element": "C" 
			},
			{
				"x": -0.4588530233,
				"y": 0.0624752343,
				"z": 0.0924116933,
				"element": "C" 
			},
			{
				"x": -1.8135734704,
				"y": -0.1061825421,
				"z": -0.1773031085,
				"element": "C" 
			},
			{
				"x": 1.8660065554,
				"y": 0.9936011638,
				"z": -0.4130174499,
				"element": "C" 
			},
			{
				"x": 2.6191161134,
				"y": 1.7903238445,
				"z": -1.4956099662,
				"element": "C" 
			},
			{
				"x": 2.5352857805,
				"y": -0.3933847774,
				"z": -0.2764827547,
				"element": "C" 
			},
			{
				"x": 1.9385183904,
				"y": 1.7781122005,
				"z": 0.9437695297,
				"element": "C" 
			},
			{
				"x": 3.3457263815,
				"y": 2.1140322842,
				"z": 1.386646127,
				"element": "C" 
			},
			{
				"x": 3.6352950782,
				"y": 3.4291532037,
				"z": 1.2169557846,
				"element": "O" 
			},
			{
				"x": 4.156541636,
				"y": 1.3316130561,
				"z": 1.8370171084,
				"element": "O" 
			},
			{
				"x": -4.0622084856,
				"y": -0.7418291018,
				"z": -1.9943046959,
				"element": "H" 
			},
			{
				"x": -4.2284650674,
				"y": 0.977545233,
				"z": -2.3628105745,
				"element": "H" 
			},
			{
				"x": -4.4880246978,
				"y": 0.3909982273,
				"z": -0.7128356467,
				"element": "H" 
			},
			{
				"x": -2.012209633,
				"y": 1.7003466902,
				"z": -3.0302684361,
				"element": "H" 
			},
			{
				"x": 0.3627588244,
				"y": 2.0028626548,
				"z": -2.559167674,
				"element": "H" 
			},
			{
				"x": -0.0461504105,
				"y": -0.4076500434,
				"z": 0.9806498111,
				"element": "H" 
			},
			{
				"x": -2.421811839,
				"y": -0.6990001315,
				"z": 0.5022950976,
				"element": "H" 
			},
			{
				"x": 3.6832739834,
				"y": 1.8510714005,
				"z": -1.2490462337,
				"element": "H" 
			},
			{
				"x": 2.5385838678,
				"y": 1.2999141803,
				"z": -2.4704830836,
				"element": "H" 
			},
			{
				"x": 2.2440149636,
				"y": 2.8139541704,
				"z": -1.5918539478,
				"element": "H" 
			},
			{
				"x": 2.4694916474,
				"y": -0.9350851363,
				"z": -1.2255268005,
				"element": "H" 
			},
			{
				"x": 3.587647521,
				"y": -0.2923061232,
				"z": -0.0008958989,
				"element": "H" 
			},
			{
				"x": 2.0536231666,
				"y": -1.0051422818,
				"z": 0.4911498678,
				"element": "H" 
			},
			{
				"x": 1.3609585458,
				"y": 2.7011332397,
				"z": 0.8539158066,
				"element": "H" 
			},
			{
				"x": 1.4922863806,
				"y": 1.1699194565,
				"z": 1.7354360042,
				"element": "H" 
			},
			{
				"x": 4.55403508,
				"y": 3.5406133747,
				"z": 1.5162788365,
				"element": "H" 
			}
		],
		 "valence_orbital": [ 
			{
				"type": "occ",
				"energy": -0.31976,
				"method": "rhf"
			},
			{
				"type": "occ",
				"energy": -0.31263,
				"method": "rhf"
			},
			{
				"type": "occ",
				"energy": -0.27041,
				"method": "rhf"
			},
			{
				"type": "occ",
				"energy": -0.24638,
				"method": "rhf"
			},
			{
				"type": "occ",
				"energy": -0.23236,
				"method": "rhf"
			},
			{
				"type": "unocc",
				"energy": -0.00499,
				"method": "rhf"
			},
			{
				"type": "unocc",
				"energy": 0.00072,
				"method": "rhf"
			},
			{
				"type": "unocc",
				"energy": 0.01439,
				"method": "rhf"
			},
			{
				"type": "unocc",
				"energy": 0.07515,
				"method": "rhf"
			},
			{
				"type": "unocc",
				"energy": 0.09509,
				"method": "rhf"
			}
		],
		"cosmo_sigma_profile": { 
			"-0.025": 0.0,
			"-0.024": 0.0,
			"-0.023": 0.0,
			"-0.022": 0.0,
			"-0.021": 0.0,
			"-0.02": 0.0,
			"-0.019": 0.0,
			"-0.018": 0.309904773117,
			"-0.017": 1.26348593204,
			"-0.016": 0.616756334172,
			"-0.015": 0.765829694271,
			"-0.014": 0.748478092835,
			"-0.013": 0.573687399998,
			"-0.012": 0.99046663157,
			"-0.011": 0.867776347535,
			"-0.01": 0.353438551152,
			"-0.009": 0.743551094253,
			"-0.008": 0.462410360547,
			"-0.007": 1.2045446108,
			"-0.006": 4.48767729455,
			"-0.005": 9.6059307246,
			"-0.004": 22.2662199906,
			"-0.003": 29.3768905427,
			"-0.002": 28.0536577168,
			"-0.001": 23.8560315765,
			"0.0": 25.7899724301,
			"0.001": 22.8384975326,
			"0.002": 11.2645158296,
			"0.003": 11.3352810716,
			"0.004": 8.65747841496,
			"0.005": 9.81947835034,
			"0.006": 9.55953836435,
			"0.007": 6.63419503854,
			"0.008": 2.65853895118,
			"0.009": 3.60372758949,
			"0.01": 2.22864179513,
			"0.011": 2.8292696682,
			"0.012": 4.68105359907,
			"0.013": 0.82137798976,
			"0.014": 0.0,
			"0.015": 0.0,
			"0.016": 0.0,
			"0.017": 0.0,
			"0.018": 0.0,
			"0.019": 0.0,
			"0.02": 0.0,
			"0.021": 0.0,
			"0.022": 0.0,
			"0.023": 0.0,
			"0.024": 0.0,
			"0.025": 0.0
		}
	}
}
