{
	 "smiles": "CC1=CC=CC(=C1C)[N+]([O-])=O", 
	 "Tm": 288.15, 
	 "num_atms": 20, 
	 "gaussian": { 
		 "optdone": 1, 
		 "sigma_profile": "yes", 
		 "theory": "DFT", 
		 "functional": "B3LYP", 
		 "basiset": "6-31G**", 
		 "properties": { 
			 "R2extent": 1792.2656, 
			 "electric_dipole_moment_norm": 4.54713559398, 
			 "electric_quadrupole_moment_norm": 6.81196275093, 
			 "total_energy": -515.383017928, 
			 "HOMO_LUMO_gap": 0.17825, 
			 "cosmo_polarized_energy": -7.7, 
			 "cosmo_cavitation_energy": 23.53, 
			 "cosmo_dispersion_energy": -17.38, 
			 "cosmo_repulsion_energy": 1.38, 
			 "cosmo_total_nonelectrostatic_energy": 7.52, 
			 "SMD_solvation_energy": 6.23 
		},
		"coords": [
			{
				"x": -2.7154024321,
				"y": -1.6874488285,
				"z": 0.6298654204,
				"element": "C" 
			},
			{
				"x": -1.8560738732,
				"y": -0.5043326678,
				"z": 0.241473412,
				"element": "C" 
			},
			{
				"x": -2.4332512635,
				"y": 0.5411738195,
				"z": -0.4880764442,
				"element": "C" 
			},
			{
				"x": -1.6948666011,
				"y": 1.6549259088,
				"z": -0.8867783903,
				"element": "C" 
			},
			{
				"x": -0.3534729823,
				"y": 1.7375489772,
				"z": -0.5443716542,
				"element": "C" 
			},
			{
				"x": 0.2186348646,
				"y": 0.7075274536,
				"z": 0.2054300199,
				"element": "C" 
			},
			{
				"x": -0.4899024707,
				"y": -0.4406785,
				"z": 0.607489785,
				"element": "C" 
			},
			{
				"x": 0.1410080437,
				"y": -1.5839665481,
				"z": 1.3686478229,
				"element": "C" 
			},
			{
				"x": 1.6330875469,
				"y": 0.9043053467,
				"z": 0.5704128043,
				"element": "N" 
			},
			{
				"x": 2.0476669395,
				"y": 0.381671881,
				"z": 1.6063188377,
				"element": "O" 
			},
			{
				"x": 2.3189554721,
				"y": 1.6071335881,
				"z": -0.1726696745,
				"element": "O" 
			},
			{
				"x": -3.7553717883,
				"y": -1.5175424083,
				"z": 0.3406404782,
				"element": "H" 
			},
			{
				"x": -2.384977563,
				"y": -2.6114518422,
				"z": 0.1408914555,
				"element": "H" 
			},
			{
				"x": -2.6947102226,
				"y": -1.8707404607,
				"z": 1.709348829,
				"element": "H" 
			},
			{
				"x": -3.4855358561,
				"y": 0.4757494004,
				"z": -0.7512986935,
				"element": "H" 
			},
			{
				"x": -2.1635816126,
				"y": 2.4513770457,
				"z": -1.4557529983,
				"element": "H" 
			},
			{
				"x": 0.2632614633,
				"y": 2.5789453516,
				"z": -0.8333144295,
				"element": "H" 
			},
			{
				"x": 0.1341055915,
				"y": -1.3886450826,
				"z": 2.4465307393,
				"element": "H" 
			},
			{
				"x": 1.1843828185,
				"y": -1.7346083903,
				"z": 1.0926834939,
				"element": "H" 
			},
			{
				"x": -0.4040560746,
				"y": -2.5119440443,
				"z": 1.1895291863,
				"element": "H" 
			}
		],
		 "valence_orbital": [ 
			{
				"type": "occ",
				"energy": -0.30374,
				"method": "rhf"
			},
			{
				"type": "occ",
				"energy": -0.30032,
				"method": "rhf"
			},
			{
				"type": "occ",
				"energy": -0.29024,
				"method": "rhf"
			},
			{
				"type": "occ",
				"energy": -0.26602,
				"method": "rhf"
			},
			{
				"type": "occ",
				"energy": -0.25794,
				"method": "rhf"
			},
			{
				"type": "unocc",
				"energy": -0.07969,
				"method": "rhf"
			},
			{
				"type": "unocc",
				"energy": -0.02039,
				"method": "rhf"
			},
			{
				"type": "unocc",
				"energy": 0.00034,
				"method": "rhf"
			},
			{
				"type": "unocc",
				"energy": 0.08606,
				"method": "rhf"
			},
			{
				"type": "unocc",
				"energy": 0.0904,
				"method": "rhf"
			}
		],
		"cosmo_sigma_profile": { 
			"-0.025": 0.0,
			"-0.024": 0.0,
			"-0.023": 0.0,
			"-0.022": 0.0,
			"-0.021": 0.0,
			"-0.02": 0.0,
			"-0.019": 0.0,
			"-0.018": 0.0,
			"-0.017": 0.0,
			"-0.016": 0.0,
			"-0.015": 0.0,
			"-0.014": 0.0,
			"-0.013": 0.0,
			"-0.012": 0.0,
			"-0.011": 0.0,
			"-0.01": 0.0,
			"-0.009": 0.0,
			"-0.008": 0.0704702760764,
			"-0.007": 3.57809416132,
			"-0.006": 9.27179142769,
			"-0.005": 14.2038506098,
			"-0.004": 16.6929085963,
			"-0.003": 18.3789204481,
			"-0.002": 16.2674545261,
			"-0.001": 18.4301950037,
			"0.0": 18.6214785489,
			"0.001": 12.5927881147,
			"0.002": 12.152774997,
			"0.003": 11.4363705399,
			"0.004": 4.97482917614,
			"0.005": 3.56121701154,
			"0.006": 3.32332622652,
			"0.007": 5.49581834581,
			"0.008": 9.08749320989,
			"0.009": 4.72243289845,
			"0.01": 3.52159789331,
			"0.011": 0.579380824706,
			"0.012": 0.0,
			"0.013": 0.0,
			"0.014": 0.0,
			"0.015": 0.0,
			"0.016": 0.0,
			"0.017": 0.0,
			"0.018": 0.0,
			"0.019": 0.0,
			"0.02": 0.0,
			"0.021": 0.0,
			"0.022": 0.0,
			"0.023": 0.0,
			"0.024": 0.0,
			"0.025": 0.0
		}
	}
}
