{
	 "smiles": "CN1C=CC=C1C(=O)NN", 
	 "Tm": 387.15, 
	 "num_atms": 19, 
	 "gaussian": { 
		 "optdone": 1, 
		 "sigma_profile": "yes", 
		 "theory": "DFT", 
		 "functional": "B3LYP", 
		 "basiset": "6-31G**", 
		 "properties": { 
			 "R2extent": 2183.6242, 
			 "electric_dipole_moment_norm": 2.53879768591, 
			 "electric_quadrupole_moment_norm": 10.5868726515, 
			 "total_energy": -473.506012099, 
			 "HOMO_LUMO_gap": 0.2027, 
			 "cosmo_polarized_energy": -12.73, 
			 "cosmo_cavitation_energy": 22.41, 
			 "cosmo_dispersion_energy": -16.7, 
			 "cosmo_repulsion_energy": 1.35, 
			 "cosmo_total_nonelectrostatic_energy": 7.05, 
			 "SMD_solvation_energy": 5.29 
		},
		"coords": [
			{
				"x": -1.3268497691,
				"y": 2.6889440696,
				"z": 2.8964181953,
				"element": "C" 
			},
			{
				"x": -0.7481849493,
				"y": 2.4461677118,
				"z": 1.5764449585,
				"element": "N" 
			},
			{
				"x": -0.380103182,
				"y": 3.4441328521,
				"z": 0.7223063139,
				"element": "C" 
			},
			{
				"x": 0.1208569513,
				"y": 2.8887544643,
				"z": -0.4416026943,
				"element": "C" 
			},
			{
				"x": 0.064001369,
				"y": 1.4900304762,
				"z": -0.2801527557,
				"element": "C" 
			},
			{
				"x": -0.4786235044,
				"y": 1.2193612742,
				"z": 0.9787598187,
				"element": "C" 
			},
			{
				"x": -0.8443384382,
				"y": -0.0328647173,
				"z": 1.6644802186,
				"element": "C" 
			},
			{
				"x": -1.5971363264,
				"y": -0.0528702386,
				"z": 2.6420209337,
				"element": "O" 
			},
			{
				"x": -0.3428823028,
				"y": -1.2312598508,
				"z": 1.1924771723,
				"element": "N" 
			},
			{
				"x": 0.7946354005,
				"y": -1.4383132626,
				"z": 0.3889210895,
				"element": "N" 
			},
			{
				"x": -2.3572561321,
				"y": 2.3360438035,
				"z": 2.9390577499,
				"element": "H" 
			},
			{
				"x": -0.7624845327,
				"y": 2.1637183593,
				"z": 3.6677188449,
				"element": "H" 
			},
			{
				"x": -1.2882725918,
				"y": 3.7642335356,
				"z": 3.0828775859,
				"element": "H" 
			},
			{
				"x": -0.4984651314,
				"y": 4.4790745888,
				"z": 1.0098633573,
				"element": "H" 
			},
			{
				"x": 0.4853854678,
				"y": 3.432428904,
				"z": -1.3012962439,
				"element": "H" 
			},
			{
				"x": 0.35696841,
				"y": 0.757811092,
				"z": -1.0159420617,
				"element": "H" 
			},
			{
				"x": -0.5517108658,
				"y": -2.0002128389,
				"z": 1.8173594466,
				"element": "H" 
			},
			{
				"x": 0.5329734279,
				"y": -1.3717556725,
				"z": -0.5913001956,
				"element": "H" 
			},
			{
				"x": 1.4890866993,
				"y": -0.7184245505,
				"z": 0.5771882659,
				"element": "H" 
			}
		],
		 "valence_orbital": [ 
			{
				"type": "occ",
				"energy": -0.29159,
				"method": "rhf"
			},
			{
				"type": "occ",
				"energy": -0.24721,
				"method": "rhf"
			},
			{
				"type": "occ",
				"energy": -0.24651,
				"method": "rhf"
			},
			{
				"type": "occ",
				"energy": -0.24292,
				"method": "rhf"
			},
			{
				"type": "occ",
				"energy": -0.22027,
				"method": "rhf"
			},
			{
				"type": "unocc",
				"energy": -0.01757,
				"method": "rhf"
			},
			{
				"type": "unocc",
				"energy": 0.06059,
				"method": "rhf"
			},
			{
				"type": "unocc",
				"energy": 0.07188,
				"method": "rhf"
			},
			{
				"type": "unocc",
				"energy": 0.09528,
				"method": "rhf"
			},
			{
				"type": "unocc",
				"energy": 0.107,
				"method": "rhf"
			}
		],
		"cosmo_sigma_profile": { 
			"-0.025": 0.0,
			"-0.024": 0.0,
			"-0.023": 0.0,
			"-0.022": 0.0,
			"-0.021": 0.0,
			"-0.02": 0.0,
			"-0.019": 0.0,
			"-0.018": 0.0,
			"-0.017": 0.0,
			"-0.016": 0.0,
			"-0.015": 0.0,
			"-0.014": 0.0,
			"-0.013": 0.447582099431,
			"-0.012": 2.15862224797,
			"-0.011": 3.3650176423,
			"-0.01": 4.03260678528,
			"-0.009": 3.3205078273,
			"-0.008": 5.7121728737,
			"-0.007": 5.91756236513,
			"-0.006": 7.97424164209,
			"-0.005": 10.8445988876,
			"-0.004": 10.5082122885,
			"-0.003": 13.988414488,
			"-0.002": 14.775866859,
			"-0.001": 9.55427031272,
			"0.0": 8.27505219325,
			"0.001": 8.57605797226,
			"0.002": 8.99014671153,
			"0.003": 9.40266363696,
			"0.004": 8.174703123,
			"0.005": 7.85899477679,
			"0.006": 8.33247612458,
			"0.007": 4.97356208084,
			"0.008": 2.00853543153,
			"0.009": 2.98123791864,
			"0.01": 1.61666702593,
			"0.011": 2.10257252824,
			"0.012": 2.14503821512,
			"0.013": 3.23112916607,
			"0.014": 4.19091542998,
			"0.015": 1.4158766881,
			"0.016": 0.389578937486,
			"0.017": 0.0478950947734,
			"0.018": 0.0,
			"0.019": 0.0,
			"0.02": 0.0,
			"0.021": 0.0,
			"0.022": 0.0,
			"0.023": 0.0,
			"0.024": 0.0,
			"0.025": 0.0
		}
	}
}
