{
	 "smiles": "COC1=C(C)C=C(C=C1C)[N+]([O-])=O", 
	 "Tm": 360.15, 
	 "num_atms": 24, 
	 "gaussian": { 
		 "optdone": 1, 
		 "sigma_profile": "yes", 
		 "theory": "DFT", 
		 "functional": "B3LYP", 
		 "basiset": "6-31G**", 
		 "properties": { 
			 "R2extent": 3359.6555, 
			 "electric_dipole_moment_norm": 5.50443334141, 
			 "electric_quadrupole_moment_norm": 22.9514665595, 
			 "total_energy": -629.90929622, 
			 "HOMO_LUMO_gap": 0.17694, 
			 "cosmo_polarized_energy": -9.37, 
			 "cosmo_cavitation_energy": 28.02, 
			 "cosmo_dispersion_energy": -19.96, 
			 "cosmo_repulsion_energy": 1.57, 
			 "cosmo_total_nonelectrostatic_energy": 9.63, 
			 "SMD_solvation_energy": 7.89 
		},
		"coords": [
			{
				"x": 2.2074621942,
				"y": 0.4608861366,
				"z": 0.1844621129,
				"element": "C" 
			},
			{
				"x": 1.3104161225,
				"y": -0.4569975208,
				"z": 0.8135937887,
				"element": "O" 
			},
			{
				"x": -0.0299064221,
				"y": -0.2039211919,
				"z": 0.6116335528,
				"element": "C" 
			},
			{
				"x": -0.680250803,
				"y": -0.819328546,
				"z": -0.4756359519,
				"element": "C" 
			},
			{
				"x": 0.0831397037,
				"y": -1.7116005175,
				"z": -1.4232678803,
				"element": "C" 
			},
			{
				"x": -2.0481769686,
				"y": -0.5968139828,
				"z": -0.6381027668,
				"element": "C" 
			},
			{
				"x": -2.7241640737,
				"y": 0.2138719072,
				"z": 0.2696054368,
				"element": "C" 
			},
			{
				"x": -2.0842607798,
				"y": 0.8032691331,
				"z": 1.3564477036,
				"element": "C" 
			},
			{
				"x": -0.7167688327,
				"y": 0.5981879187,
				"z": 1.5436460896,
				"element": "C" 
			},
			{
				"x": 0.0081792722,
				"y": 1.1991683866,
				"z": 2.7227189057,
				"element": "C" 
			},
			{
				"x": -4.1641628987,
				"y": 0.4392761617,
				"z": 0.0853456355,
				"element": "N" 
			},
			{
				"x": -4.7423721256,
				"y": 1.1540291868,
				"z": 0.9049036386,
				"element": "O" 
			},
			{
				"x": -4.7100373086,
				"y": -0.0978533975,
				"z": -0.8792191893,
				"element": "O" 
			},
			{
				"x": 2.0872057625,
				"y": 0.4584632284,
				"z": -0.9056270901,
				"element": "H" 
			},
			{
				"x": 3.2161883582,
				"y": 0.1277607261,
				"z": 0.4354887089,
				"element": "H" 
			},
			{
				"x": 2.0623265474,
				"y": 1.4831718319,
				"z": 0.5541084934,
				"element": "H" 
			},
			{
				"x": 0.7806364193,
				"y": -2.3526776349,
				"z": -0.8780474976,
				"element": "H" 
			},
			{
				"x": 0.6738378914,
				"y": -1.1288900592,
				"z": -2.1404300945,
				"element": "H" 
			},
			{
				"x": -0.6000963892,
				"y": -2.3414707415,
				"z": -1.9980694127,
				"element": "H" 
			},
			{
				"x": -2.5970592215,
				"y": -1.0488985603,
				"z": -1.4552770444,
				"element": "H" 
			},
			{
				"x": -2.6604069559,
				"y": 1.4086657994,
				"z": 2.0456291423,
				"element": "H" 
			},
			{
				"x": -0.6993338632,
				"y": 1.5136177993,
				"z": 3.4937522732,
				"element": "H" 
			},
			{
				"x": 0.7081283567,
				"y": 0.4807620843,
				"z": 3.1571103243,
				"element": "H" 
			},
			{
				"x": 0.5906760146,
				"y": 2.0819218523,
				"z": 2.4324311212,
				"element": "H" 
			}
		],
		 "valence_orbital": [ 
			{
				"type": "occ",
				"energy": -0.30002,
				"method": "rhf"
			},
			{
				"type": "occ",
				"energy": -0.29071,
				"method": "rhf"
			},
			{
				"type": "occ",
				"energy": -0.28148,
				"method": "rhf"
			},
			{
				"type": "occ",
				"energy": -0.26088,
				"method": "rhf"
			},
			{
				"type": "occ",
				"energy": -0.25812,
				"method": "rhf"
			},
			{
				"type": "unocc",
				"energy": -0.08118,
				"method": "rhf"
			},
			{
				"type": "unocc",
				"energy": -0.0188,
				"method": "rhf"
			},
			{
				"type": "unocc",
				"energy": 0.00684,
				"method": "rhf"
			},
			{
				"type": "unocc",
				"energy": 0.07014,
				"method": "rhf"
			},
			{
				"type": "unocc",
				"energy": 0.09459,
				"method": "rhf"
			}
		],
		"cosmo_sigma_profile": { 
			"-0.025": 0.0,
			"-0.024": 0.0,
			"-0.023": 0.0,
			"-0.022": 0.0,
			"-0.021": 0.0,
			"-0.02": 0.0,
			"-0.019": 0.0,
			"-0.018": 0.0,
			"-0.017": 0.0,
			"-0.016": 0.0,
			"-0.015": 0.0,
			"-0.014": 0.0,
			"-0.013": 0.0,
			"-0.012": 0.0,
			"-0.011": 0.0,
			"-0.01": 0.0,
			"-0.009": 0.0,
			"-0.008": 0.0,
			"-0.007": 1.73872868296,
			"-0.006": 7.17549988327,
			"-0.005": 18.5809794372,
			"-0.004": 22.4592429125,
			"-0.003": 23.9035619261,
			"-0.002": 20.886461317,
			"-0.001": 23.4838303848,
			"0.0": 23.755140645,
			"0.001": 18.3146865918,
			"0.002": 14.4208401783,
			"0.003": 5.48665760151,
			"0.004": 3.52795190039,
			"0.005": 4.00861281253,
			"0.006": 5.47894597348,
			"0.007": 6.22328187602,
			"0.008": 10.2425225692,
			"0.009": 5.8617766546,
			"0.01": 4.83208763783,
			"0.011": 1.28936988462,
			"0.012": 0.126577840955,
			"0.013": 0.0,
			"0.014": 0.0,
			"0.015": 0.0,
			"0.016": 0.0,
			"0.017": 0.0,
			"0.018": 0.0,
			"0.019": 0.0,
			"0.02": 0.0,
			"0.021": 0.0,
			"0.022": 0.0,
			"0.023": 0.0,
			"0.024": 0.0,
			"0.025": 0.0
		}
	}
}
