{
	 "smiles": "COC1=CC(F)=C(C=O)C=C1F", 
	 "Tm": 372.15, 
	 "num_atms": 18, 
	 "gaussian": { 
		 "optdone": 1, 
		 "sigma_profile": "yes", 
		 "theory": "DFT", 
		 "functional": "B3LYP", 
		 "basiset": "6-31G**", 
		 "properties": { 
			 "R2extent": 2587.8585, 
			 "electric_dipole_moment_norm": 4.01087984737, 
			 "electric_quadrupole_moment_norm": 8.17043123281, 
			 "total_energy": -658.553151013, 
			 "HOMO_LUMO_gap": 0.17575, 
			 "cosmo_polarized_energy": -7.51, 
			 "cosmo_cavitation_energy": 23.78, 
			 "cosmo_dispersion_energy": -17.25, 
			 "cosmo_repulsion_energy": 1.32, 
			 "cosmo_total_nonelectrostatic_energy": 7.85, 
			 "SMD_solvation_energy": 6.94 
		},
		"coords": [
			{
				"x": -0.5192885387,
				"y": -2.0447534213,
				"z": 3.1469231384,
				"element": "C" 
			},
			{
				"x": 0.1037918021,
				"y": -0.7881311609,
				"z": 2.8510323776,
				"element": "O" 
			},
			{
				"x": 0.5429181479,
				"y": -0.4788106684,
				"z": 1.6134131608,
				"element": "C" 
			},
			{
				"x": 1.1296167134,
				"y": 0.79060906,
				"z": 1.4872411706,
				"element": "C" 
			},
			{
				"x": 1.6141801842,
				"y": 1.2109487581,
				"z": 0.2616620582,
				"element": "C" 
			},
			{
				"x": 2.1706396525,
				"y": 2.4367444196,
				"z": 0.1804398938,
				"element": "F" 
			},
			{
				"x": 1.5476023631,
				"y": 0.4146908862,
				"z": -0.8883077329,
				"element": "C" 
			},
			{
				"x": 2.0649298332,
				"y": 0.8651775167,
				"z": -2.1943325522,
				"element": "C" 
			},
			{
				"x": 2.0170599331,
				"y": 0.188542787,
				"z": -3.2071538703,
				"element": "O" 
			},
			{
				"x": 0.9605076774,
				"y": -0.8529300255,
				"z": -0.7570187872,
				"element": "C" 
			},
			{
				"x": 0.4721437458,
				"y": -1.2881131305,
				"z": 0.4576219331,
				"element": "C" 
			},
			{
				"x": -0.0848952245,
				"y": -2.5229991846,
				"z": 0.5246292069,
				"element": "F" 
			},
			{
				"x": -0.7576464508,
				"y": -1.9931830619,
				"z": 4.2097794406,
				"element": "H" 
			},
			{
				"x": -1.4360701556,
				"y": -2.1824319443,
				"z": 2.5685958229,
				"element": "H" 
			},
			{
				"x": 0.1587191061,
				"y": -2.881006235,
				"z": 2.9601616976,
				"element": "H" 
			},
			{
				"x": 1.1959634597,
				"y": 1.4305779949,
				"z": 2.3588238359,
				"element": "H" 
			},
			{
				"x": 2.5103169381,
				"y": 1.8782992786,
				"z": -2.2022975017,
				"element": "H" 
			},
			{
				"x": 0.893710813,
				"y": -1.4942318688,
				"z": -1.629513292,
				"element": "H" 
			}
		],
		 "valence_orbital": [ 
			{
				"type": "occ",
				"energy": -0.34696,
				"method": "rhf"
			},
			{
				"type": "occ",
				"energy": -0.32988,
				"method": "rhf"
			},
			{
				"type": "occ",
				"energy": -0.2654,
				"method": "rhf"
			},
			{
				"type": "occ",
				"energy": -0.25606,
				"method": "rhf"
			},
			{
				"type": "occ",
				"energy": -0.24146,
				"method": "rhf"
			},
			{
				"type": "unocc",
				"energy": -0.06571,
				"method": "rhf"
			},
			{
				"type": "unocc",
				"energy": -0.01392,
				"method": "rhf"
			},
			{
				"type": "unocc",
				"energy": 0.03791,
				"method": "rhf"
			},
			{
				"type": "unocc",
				"energy": 0.06144,
				"method": "rhf"
			},
			{
				"type": "unocc",
				"energy": 0.1006,
				"method": "rhf"
			}
		],
		"cosmo_sigma_profile": { 
			"-0.025": 0.0,
			"-0.024": 0.0,
			"-0.023": 0.0,
			"-0.022": 0.0,
			"-0.021": 0.0,
			"-0.02": 0.0,
			"-0.019": 0.0,
			"-0.018": 0.0,
			"-0.017": 0.0,
			"-0.016": 0.0,
			"-0.015": 0.0,
			"-0.014": 0.0,
			"-0.013": 0.0,
			"-0.012": 0.0,
			"-0.011": 0.0,
			"-0.01": 0.0,
			"-0.009": 0.364168253065,
			"-0.008": 2.04433104834,
			"-0.007": 3.37223737312,
			"-0.006": 11.2234413126,
			"-0.005": 13.5077253075,
			"-0.004": 16.7957749258,
			"-0.003": 14.8362657627,
			"-0.002": 12.6118253711,
			"-0.001": 18.33230082,
			"0.0": 23.5012686136,
			"0.001": 15.303456033,
			"0.002": 9.66350280069,
			"0.003": 15.1327589695,
			"0.004": 10.685080417,
			"0.005": 3.00293191255,
			"0.006": 2.11605877696,
			"0.007": 3.20642818922,
			"0.008": 2.63956624699,
			"0.009": 2.57005355485,
			"0.01": 2.52139635362,
			"0.011": 4.2466996004,
			"0.012": 2.74142377299,
			"0.013": 0.797513786469,
			"0.014": 0.0,
			"0.015": 0.0,
			"0.016": 0.0,
			"0.017": 0.0,
			"0.018": 0.0,
			"0.019": 0.0,
			"0.02": 0.0,
			"0.021": 0.0,
			"0.022": 0.0,
			"0.023": 0.0,
			"0.024": 0.0,
			"0.025": 0.0
		}
	}
}
