{
	 "smiles": "CC1CC1C1=CC=C(O1)C(O)=O", 
	 "Tm": 329.15, 
	 "num_atms": 22, 
	 "gaussian": { 
		 "optdone": 1, 
		 "sigma_profile": "yes", 
		 "theory": "DFT", 
		 "functional": "B3LYP", 
		 "basiset": "6-31G**", 
		 "properties": { 
			 "R2extent": 4075.8155, 
			 "electric_dipole_moment_norm": 6.25007598754, 
			 "electric_quadrupole_moment_norm": 30.3390754839, 
			 "total_energy": -574.622336772, 
			 "HOMO_LUMO_gap": 0.18884, 
			 "cosmo_polarized_energy": -12.85, 
			 "cosmo_cavitation_energy": 26.61, 
			 "cosmo_dispersion_energy": -19.17, 
			 "cosmo_repulsion_energy": 1.56, 
			 "cosmo_total_nonelectrostatic_energy": 9.01, 
			 "SMD_solvation_energy": 5.96 
		},
		"coords": [
			{
				"x": 0.834032139,
				"y": -0.7694890625,
				"z": -1.7322288511,
				"element": "C" 
			},
			{
				"x": 0.3003490049,
				"y": 0.3589766321,
				"z": -0.8778348977,
				"element": "C" 
			},
			{
				"x": 1.2291402833,
				"y": 1.2928735491,
				"z": -0.1546307142,
				"element": "C" 
			},
			{
				"x": 0.4251267719,
				"y": 0.2910168661,
				"z": 0.644507998,
				"element": "C" 
			},
			{
				"x": -0.6731495758,
				"y": 0.7350970891,
				"z": 1.5140681295,
				"element": "C" 
			},
			{
				"x": -1.2004212359,
				"y": 1.9572571506,
				"z": 1.8479496311,
				"element": "C" 
			},
			{
				"x": -2.3019227832,
				"y": 1.712855204,
				"z": 2.7182018577,
				"element": "C" 
			},
			{
				"x": -2.3813564071,
				"y": 0.3579239498,
				"z": 2.8722676083,
				"element": "C" 
			},
			{
				"x": -1.3893104013,
				"y": -0.2519185352,
				"z": 2.1357342984,
				"element": "O" 
			},
			{
				"x": -3.2882457731,
				"y": -0.491673374,
				"z": 3.6545230216,
				"element": "C" 
			},
			{
				"x": -3.0503619953,
				"y": -1.8261919753,
				"z": 3.5745028379,
				"element": "O" 
			},
			{
				"x": -4.1905133047,
				"y": -0.0474258465,
				"z": 4.3274571832,
				"element": "O" 
			},
			{
				"x": 1.0685396305,
				"y": -0.4183756616,
				"z": -2.7433894175,
				"element": "H" 
			},
			{
				"x": 1.7525715984,
				"y": -1.1870918153,
				"z": -1.3055738106,
				"element": "H" 
			},
			{
				"x": 0.105328596,
				"y": -1.5826494642,
				"z": -1.819916293,
				"element": "H" 
			},
			{
				"x": -0.6254166469,
				"y": 0.8075938939,
				"z": -1.2322381319,
				"element": "H" 
			},
			{
				"x": 0.9571007464,
				"y": 2.3414235175,
				"z": -0.0825325113,
				"element": "H" 
			},
			{
				"x": 2.2984388853,
				"y": 1.1173562542,
				"z": -0.2292837763,
				"element": "H" 
			},
			{
				"x": 0.9659979816,
				"y": -0.5722307014,
				"z": 1.02661581,
				"element": "H" 
			},
			{
				"x": -0.833711147,
				"y": 2.9185415859,
				"z": 1.5193424452,
				"element": "H" 
			},
			{
				"x": -2.9548412303,
				"y": 2.4341284757,
				"z": 3.1867213889,
				"element": "H" 
			},
			{
				"x": -2.2927751366,
				"y": -1.984697732,
				"z": 2.9897361938,
				"element": "H" 
			}
		],
		 "valence_orbital": [ 
			{
				"type": "occ",
				"energy": -0.31158,
				"method": "rhf"
			},
			{
				"type": "occ",
				"energy": -0.30912,
				"method": "rhf"
			},
			{
				"type": "occ",
				"energy": -0.29363,
				"method": "rhf"
			},
			{
				"type": "occ",
				"energy": -0.26987,
				"method": "rhf"
			},
			{
				"type": "occ",
				"energy": -0.23164,
				"method": "rhf"
			},
			{
				"type": "unocc",
				"energy": -0.0428,
				"method": "rhf"
			},
			{
				"type": "unocc",
				"energy": 0.03247,
				"method": "rhf"
			},
			{
				"type": "unocc",
				"energy": 0.07841,
				"method": "rhf"
			},
			{
				"type": "unocc",
				"energy": 0.08553,
				"method": "rhf"
			},
			{
				"type": "unocc",
				"energy": 0.09095,
				"method": "rhf"
			}
		],
		"cosmo_sigma_profile": { 
			"-0.025": 0.0,
			"-0.024": 0.0,
			"-0.023": 0.0,
			"-0.022": 0.0,
			"-0.021": 0.0,
			"-0.02": 0.0,
			"-0.019": 0.0,
			"-0.018": 0.0,
			"-0.017": 0.0303437028525,
			"-0.016": 0.536422620286,
			"-0.015": 0.582427849931,
			"-0.014": 0.965295105371,
			"-0.013": 0.496851442053,
			"-0.012": 0.410505327877,
			"-0.011": 0.710059597205,
			"-0.01": 1.10056335713,
			"-0.009": 1.17664635845,
			"-0.008": 3.19016730847,
			"-0.007": 4.83872466592,
			"-0.006": 8.56941804851,
			"-0.005": 12.601553678,
			"-0.004": 14.3317964158,
			"-0.003": 17.9552079413,
			"-0.002": 18.1214054793,
			"-0.001": 18.9505446632,
			"0.0": 21.9694678555,
			"0.001": 21.0006640067,
			"0.002": 13.9433305444,
			"0.003": 13.2922193019,
			"0.004": 5.20417683711,
			"0.005": 2.4285919186,
			"0.006": 1.79880225754,
			"0.007": 2.40369497567,
			"0.008": 2.91031506314,
			"0.009": 3.68325968719,
			"0.01": 4.35427614339,
			"0.011": 4.72311744827,
			"0.012": 6.13931732302,
			"0.013": 2.52690655798,
			"0.014": 0.246862571953,
			"0.015": 0.0,
			"0.016": 0.0,
			"0.017": 0.0,
			"0.018": 0.0,
			"0.019": 0.0,
			"0.02": 0.0,
			"0.021": 0.0,
			"0.022": 0.0,
			"0.023": 0.0,
			"0.024": 0.0,
			"0.025": 0.0
		}
	}
}
