{
	 "smiles": "CC1CCCCN1CC1=CC=C(N)C=C1", 
	 "Tm": 328.15, 
	 "num_atms": 35, 
	 "gaussian": { 
		 "optdone": 1, 
		 "sigma_profile": "yes", 
		 "theory": "DFT", 
		 "functional": "B3LYP", 
		 "basiset": "6-31G**", 
		 "properties": { 
			 "R2extent": 4989.4449, 
			 "electric_dipole_moment_norm": 1.44310485413, 
			 "electric_quadrupole_moment_norm": 12.0235607031, 
			 "total_energy": -616.941987855, 
			 "HOMO_LUMO_gap": 0.19772, 
			 "cosmo_polarized_energy": -8.81, 
			 "cosmo_cavitation_energy": 34.65, 
			 "cosmo_dispersion_energy": -24.69, 
			 "cosmo_repulsion_energy": 1.94, 
			 "cosmo_total_nonelectrostatic_energy": 11.9, 
			 "SMD_solvation_energy": 3.99 
		},
		"coords": [
			{
				"x": 1.1588397923,
				"y": 2.6127034394,
				"z": -1.7192498105,
				"element": "C" 
			},
			{
				"x": 1.8411098575,
				"y": 1.7067831359,
				"z": -0.6823707143,
				"element": "C" 
			},
			{
				"x": 2.9261779694,
				"y": 2.4489431278,
				"z": 0.121524274,
				"element": "C" 
			},
			{
				"x": 2.336925178,
				"y": 3.535380647,
				"z": 1.0434357023,
				"element": "C" 
			},
			{
				"x": 0.9950048992,
				"y": 3.0704046879,
				"z": 1.6626990064,
				"element": "C" 
			},
			{
				"x": 0.8565334691,
				"y": 1.5491457498,
				"z": 1.6023231649,
				"element": "C" 
			},
			{
				"x": 0.831080059,
				"y": 1.0742398791,
				"z": 0.2149919647,
				"element": "N" 
			},
			{
				"x": 0.827513979,
				"y": -0.3875577772,
				"z": 0.1562716929,
				"element": "C" 
			},
			{
				"x": 0.3832778532,
				"y": -0.948452917,
				"z": -1.1804291424,
				"element": "C" 
			},
			{
				"x": -0.822745945,
				"y": -0.5378739866,
				"z": -1.7670748639,
				"element": "C" 
			},
			{
				"x": -1.2649484592,
				"y": -1.0787121308,
				"z": -2.9692218948,
				"element": "C" 
			},
			{
				"x": -0.5096072178,
				"y": -2.0622639964,
				"z": -3.6341736803,
				"element": "C" 
			},
			{
				"x": -0.9236720303,
				"y": -2.5656121787,
				"z": -4.8718509375,
				"element": "N" 
			},
			{
				"x": 0.6982726295,
				"y": -2.4772314169,
				"z": -3.0530441925,
				"element": "C" 
			},
			{
				"x": 1.1307332913,
				"y": -1.9229500351,
				"z": -1.848652556,
				"element": "C" 
			},
			{
				"x": 1.8967577974,
				"y": 3.0354933278,
				"z": -2.411932347,
				"element": "H" 
			},
			{
				"x": 0.4320502591,
				"y": 2.0388147885,
				"z": -2.2992146176,
				"element": "H" 
			},
			{
				"x": 0.6256993844,
				"y": 3.44102606,
				"z": -1.242387745,
				"element": "H" 
			},
			{
				"x": 2.3371098769,
				"y": 0.9002704369,
				"z": -1.2371970609,
				"element": "H" 
			},
			{
				"x": 3.6598366352,
				"y": 2.8837626416,
				"z": -0.5669324416,
				"element": "H" 
			},
			{
				"x": 3.4729877364,
				"y": 1.7149641938,
				"z": 0.7262595426,
				"element": "H" 
			},
			{
				"x": 3.0619129481,
				"y": 3.7671751544,
				"z": 1.8320961702,
				"element": "H" 
			},
			{
				"x": 2.1853931989,
				"y": 4.4659487147,
				"z": 0.4858943214,
				"element": "H" 
			},
			{
				"x": 0.1507714989,
				"y": 3.5096370878,
				"z": 1.1191910703,
				"element": "H" 
			},
			{
				"x": 0.9086944462,
				"y": 3.4040498978,
				"z": 2.7025141927,
				"element": "H" 
			},
			{
				"x": 1.6749105679,
				"y": 1.0873547496,
				"z": 2.1921681225,
				"element": "H" 
			},
			{
				"x": -0.0789667841,
				"y": 1.2363831928,
				"z": 2.0832449461,
				"element": "H" 
			},
			{
				"x": 1.8144986258,
				"y": -0.8198732413,
				"z": 0.4172854452,
				"element": "H" 
			},
			{
				"x": 0.1351240103,
				"y": -0.7324359014,
				"z": 0.9371117207,
				"element": "H" 
			},
			{
				"x": -1.4132403413,
				"y": 0.2266979428,
				"z": -1.2700732024,
				"element": "H" 
			},
			{
				"x": -2.2016004773,
				"y": -0.739076732,
				"z": -3.4059033024,
				"element": "H" 
			},
			{
				"x": -0.5580929679,
				"y": -3.479643712,
				"z": -5.102158432,
				"element": "H" 
			},
			{
				"x": -1.9191191376,
				"y": -2.5112835461,
				"z": -5.0400943292,
				"element": "H" 
			},
			{
				"x": 1.3038944311,
				"y": -3.2294665885,
				"z": -3.5533097039,
				"element": "H" 
			},
			{
				"x": 2.0709829664,
				"y": -2.2619446954,
				"z": -1.4190403627,
				"element": "H" 
			}
		],
		 "valence_orbital": [ 
			{
				"type": "occ",
				"energy": -0.29688,
				"method": "rhf"
			},
			{
				"type": "occ",
				"energy": -0.29144,
				"method": "rhf"
			},
			{
				"type": "occ",
				"energy": -0.23918,
				"method": "rhf"
			},
			{
				"type": "occ",
				"energy": -0.19847,
				"method": "rhf"
			},
			{
				"type": "occ",
				"energy": -0.18964,
				"method": "rhf"
			},
			{
				"type": "unocc",
				"energy": 0.00808,
				"method": "rhf"
			},
			{
				"type": "unocc",
				"energy": 0.02188,
				"method": "rhf"
			},
			{
				"type": "unocc",
				"energy": 0.08163,
				"method": "rhf"
			},
			{
				"type": "unocc",
				"energy": 0.08528,
				"method": "rhf"
			},
			{
				"type": "unocc",
				"energy": 0.10329,
				"method": "rhf"
			}
		],
		"cosmo_sigma_profile": { 
			"-0.025": 0.0,
			"-0.024": 0.0,
			"-0.023": 0.0,
			"-0.022": 0.0,
			"-0.021": 0.0,
			"-0.02": 0.0,
			"-0.019": 0.0,
			"-0.018": 0.0,
			"-0.017": 0.0,
			"-0.016": 0.0,
			"-0.015": 0.0,
			"-0.014": 0.0,
			"-0.013": 0.0435457971763,
			"-0.012": 1.88446314088,
			"-0.011": 2.61219691221,
			"-0.01": 2.66412006075,
			"-0.009": 3.11504104178,
			"-0.008": 3.146467918,
			"-0.007": 3.00572612375,
			"-0.006": 3.13748088037,
			"-0.005": 5.69103592777,
			"-0.004": 7.69100169852,
			"-0.003": 16.9735051042,
			"-0.002": 34.5904737411,
			"-0.001": 44.2220676455,
			"0.0": 39.4261001814,
			"0.001": 29.247794015,
			"0.002": 16.4882849936,
			"0.003": 10.0467192256,
			"0.004": 7.85793111852,
			"0.005": 8.68899379379,
			"0.006": 9.11154588094,
			"0.007": 8.21049596423,
			"0.008": 2.98628126894,
			"0.009": 1.75258631341,
			"0.01": 1.53481650855,
			"0.011": 1.33260410994,
			"0.012": 1.14859908482,
			"0.013": 0.78000835634,
			"0.014": 0.837823887655,
			"0.015": 0.539895376368,
			"0.016": 0.0,
			"0.017": 0.0,
			"0.018": 0.0,
			"0.019": 0.0,
			"0.02": 0.0,
			"0.021": 0.0,
			"0.022": 0.0,
			"0.023": 0.0,
			"0.024": 0.0,
			"0.025": 0.0
		}
	}
}
