{
	 "smiles": "CC1=CC(=O)OC2=C1C=CC(OCC(=O)NN)=C2", 
	 "Tm": 453.15, 
	 "num_atms": 30, 
	 "gaussian": { 
		 "optdone": 1, 
		 "sigma_profile": "yes", 
		 "theory": "DFT", 
		 "functional": "B3LYP", 
		 "basiset": "6-31G**", 
		 "properties": { 
			 "R2extent": 6292.3304, 
			 "electric_dipole_moment_norm": 4.09648440861, 
			 "electric_quadrupole_moment_norm": 29.9334080175, 
			 "total_energy": -874.888759975, 
			 "HOMO_LUMO_gap": 0.16592, 
			 "cosmo_polarized_energy": -21.15, 
			 "cosmo_cavitation_energy": 34.98, 
			 "cosmo_dispersion_energy": -25.11, 
			 "cosmo_repulsion_energy": 1.95, 
			 "cosmo_total_nonelectrostatic_energy": 11.82, 
			 "SMD_solvation_energy": 8.39 
		},
		"coords": [
			{
				"x": -1.3109652792,
				"y": -2.476473412,
				"z": 2.5515036629,
				"element": "C" 
			},
			{
				"x": -1.5169227178,
				"y": -2.3970650756,
				"z": 1.0630418376,
				"element": "C" 
			},
			{
				"x": -2.5587279922,
				"y": -3.0270799666,
				"z": 0.462096835,
				"element": "C" 
			},
			{
				"x": -2.7998658424,
				"y": -2.9803631313,
				"z": -0.9720754467,
				"element": "C" 
			},
			{
				"x": -3.7059113278,
				"y": -3.517799295,
				"z": -1.5638120988,
				"element": "O" 
			},
			{
				"x": -1.8851022381,
				"y": -2.2367685729,
				"z": -1.725106648,
				"element": "O" 
			},
			{
				"x": -0.8294793311,
				"y": -1.5923171941,
				"z": -1.1552650408,
				"element": "C" 
			},
			{
				"x": -0.593816443,
				"y": -1.6374146087,
				"z": 0.2369135277,
				"element": "C" 
			},
			{
				"x": 0.5226562975,
				"y": -0.9373399699,
				"z": 0.7248014037,
				"element": "C" 
			},
			{
				"x": 1.3711329374,
				"y": -0.2267665085,
				"z": -0.1153493268,
				"element": "C" 
			},
			{
				"x": 1.1091777257,
				"y": -0.208907878,
				"z": -1.4967443939,
				"element": "C" 
			},
			{
				"x": 1.8726953607,
				"y": 0.4562434503,
				"z": -2.4196620233,
				"element": "O" 
			},
			{
				"x": 3.0995212592,
				"y": 1.0455599476,
				"z": -1.996878444,
				"element": "C" 
			},
			{
				"x": 2.9439875206,
				"y": 2.4011055098,
				"z": -1.2998742418,
				"element": "C" 
			},
			{
				"x": 3.8258705831,
				"y": 2.8481956184,
				"z": -0.5770553057,
				"element": "O" 
			},
			{
				"x": 1.7977038406,
				"y": 3.0683232383,
				"z": -1.5920730006,
				"element": "N" 
			},
			{
				"x": 1.5369626018,
				"y": 4.3624117948,
				"z": -1.1057961856,
				"element": "N" 
			},
			{
				"x": 0.0078317084,
				"y": -0.8905329605,
				"z": -2.0165701526,
				"element": "C" 
			},
			{
				"x": -0.3376572628,
				"y": -2.9196076143,
				"z": 2.7913311049,
				"element": "H" 
			},
			{
				"x": -1.3321164832,
				"y": -1.4793119991,
				"z": 3.0059207908,
				"element": "H" 
			},
			{
				"x": -2.0875215179,
				"y": -3.0826529617,
				"z": 3.0221130517,
				"element": "H" 
			},
			{
				"x": -3.2780672054,
				"y": -3.6079424841,
				"z": 1.0279987814,
				"element": "H" 
			},
			{
				"x": 0.7310329207,
				"y": -0.9444372584,
				"z": 1.7893700353,
				"element": "H" 
			},
			{
				"x": 2.2104551959,
				"y": 0.3120436911,
				"z": 0.306754584,
				"element": "H" 
			},
			{
				"x": 3.680315859,
				"y": 1.1945786787,
				"z": -2.912093511,
				"element": "H" 
			},
			{
				"x": 3.6697042167,
				"y": 0.3834966962,
				"z": -1.3389034842,
				"element": "H" 
			},
			{
				"x": 1.1187711767,
				"y": 2.6826587358,
				"z": -2.2315580185,
				"element": "H" 
			},
			{
				"x": 2.3755723116,
				"y": 4.9195638492,
				"z": -1.268706437,
				"element": "H" 
			},
			{
				"x": 1.4456221325,
				"y": 4.3003743144,
				"z": -0.0917321512,
				"element": "H" 
			},
			{
				"x": -0.192060007,
				"y": -0.8809746341,
				"z": -3.0813897045,
				"element": "H" 
			}
		],
		 "valence_orbital": [ 
			{
				"type": "occ",
				"energy": -0.27227,
				"method": "rhf"
			},
			{
				"type": "occ",
				"energy": -0.27112,
				"method": "rhf"
			},
			{
				"type": "occ",
				"energy": -0.26755,
				"method": "rhf"
			},
			{
				"type": "occ",
				"energy": -0.2531,
				"method": "rhf"
			},
			{
				"type": "occ",
				"energy": -0.22978,
				"method": "rhf"
			},
			{
				"type": "unocc",
				"energy": -0.06386,
				"method": "rhf"
			},
			{
				"type": "unocc",
				"energy": -0.01786,
				"method": "rhf"
			},
			{
				"type": "unocc",
				"energy": 0.00362,
				"method": "rhf"
			},
			{
				"type": "unocc",
				"energy": 0.00879,
				"method": "rhf"
			},
			{
				"type": "unocc",
				"energy": 0.06877,
				"method": "rhf"
			}
		],
		"cosmo_sigma_profile": { 
			"-0.025": 0.0,
			"-0.024": 0.0,
			"-0.023": 0.0,
			"-0.022": 0.0,
			"-0.021": 0.0,
			"-0.02": 0.0,
			"-0.019": 0.0,
			"-0.018": 0.0,
			"-0.017": 0.0,
			"-0.016": 0.0,
			"-0.015": 0.0,
			"-0.014": 0.246568206929,
			"-0.013": 0.777529833173,
			"-0.012": 1.15790050612,
			"-0.011": 2.69772404602,
			"-0.01": 3.41017846002,
			"-0.009": 4.72922072988,
			"-0.008": 6.83229972289,
			"-0.007": 13.1728037871,
			"-0.006": 20.1844894976,
			"-0.005": 20.1149463613,
			"-0.004": 17.5153163235,
			"-0.003": 17.184731583,
			"-0.002": 19.6003044003,
			"-0.001": 19.70272329,
			"0.0": 18.561680264,
			"0.001": 21.2355680417,
			"0.002": 18.6684072121,
			"0.003": 10.364772882,
			"0.004": 6.05721473402,
			"0.005": 4.07263159124,
			"0.006": 4.03420833875,
			"0.007": 5.18433447449,
			"0.008": 5.1681055166,
			"0.009": 4.4839404089,
			"0.01": 4.66611931495,
			"0.011": 5.41805572401,
			"0.012": 8.40918185895,
			"0.013": 9.69647787552,
			"0.014": 3.48924383583,
			"0.015": 0.785286683117,
			"0.016": 0.475725327779,
			"0.017": 0.0825439732221,
			"0.018": 0.0,
			"0.019": 0.0,
			"0.02": 0.0,
			"0.021": 0.0,
			"0.022": 0.0,
			"0.023": 0.0,
			"0.024": 0.0,
			"0.025": 0.0
		}
	}
}
