{
	 "smiles": "FC(F)(F)C1=C(C=NC(Cl)=N1)C(=O)OCC1=CC=C(Cl)C=C1", 
	 "Tm": 343.15, 
	 "num_atms": 29, 
	 "gaussian": { 
		 "optdone": 1, 
		 "sigma_profile": "yes", 
		 "theory": "DFT", 
		 "functional": "B3LYP", 
		 "basiset": "6-31G**", 
		 "properties": { 
			 "R2extent": 11265.3085, 
			 "electric_dipole_moment_norm": 4.00490659691, 
			 "electric_quadrupole_moment_norm": 9.6274363384, 
			 "total_energy": -1979.45316615, 
			 "HOMO_LUMO_gap": 0.16376, 
			 "cosmo_polarized_energy": -12.07, 
			 "cosmo_cavitation_energy": 40.46, 
			 "cosmo_dispersion_energy": -28.35, 
			 "cosmo_repulsion_energy": 2.13, 
			 "cosmo_total_nonelectrostatic_energy": 14.24, 
			 "SMD_solvation_energy": 5.43 
		},
		"coords": [
			{
				"x": 0.1724775507,
				"y": -2.6378691473,
				"z": -2.4425286164,
				"element": "F" 
			},
			{
				"x": -0.8486554008,
				"y": -2.6907620922,
				"z": -1.57359655,
				"element": "C" 
			},
			{
				"x": -1.6409627533,
				"y": -1.6191128651,
				"z": -1.7670225589,
				"element": "F" 
			},
			{
				"x": -1.5697585835,
				"y": -3.7837251975,
				"z": -1.8473785803,
				"element": "F" 
			},
			{
				"x": -0.3335912863,
				"y": -2.7256079115,
				"z": -0.1289653578,
				"element": "C" 
			},
			{
				"x": 0.1779160114,
				"y": -1.6027983477,
				"z": 0.5459164953,
				"element": "C" 
			},
			{
				"x": 0.5288096453,
				"y": -1.8185037196,
				"z": 1.8862121956,
				"element": "C" 
			},
			{
				"x": 0.4320824456,
				"y": -3.0044924039,
				"z": 2.4899929312,
				"element": "N" 
			},
			{
				"x": -0.0317758816,
				"y": -3.9883919956,
				"z": 1.7274873671,
				"element": "C" 
			},
			{
				"x": -0.1374580119,
				"y": -5.5588157828,
				"z": 2.4728000528,
				"element": "Cl" 
			},
			{
				"x": -0.4335766464,
				"y": -3.9142130212,
				"z": 0.4638632818,
				"element": "N" 
			},
			{
				"x": 0.400299706,
				"y": -0.2629433327,
				"z": -0.0844486946,
				"element": "C" 
			},
			{
				"x": 0.6083894836,
				"y": -0.0866134358,
				"z": -1.2649547303,
				"element": "O" 
			},
			{
				"x": 0.3788254502,
				"y": 0.7094643212,
				"z": 0.8485076786,
				"element": "O" 
			},
			{
				"x": 0.6388448276,
				"y": 2.0705251048,
				"z": 0.3801618563,
				"element": "C" 
			},
			{
				"x": -0.6349574348,
				"y": 2.7834628491,
				"z": 0.0081475658,
				"element": "C" 
			},
			{
				"x": -1.1563482539,
				"y": 2.6883079085,
				"z": -1.2896577661,
				"element": "C" 
			},
			{
				"x": -2.3393975878,
				"y": 3.3409450739,
				"z": -1.6319341724,
				"element": "C" 
			},
			{
				"x": -3.0039700321,
				"y": 4.0955562012,
				"z": -0.6647035716,
				"element": "C" 
			},
			{
				"x": -4.4923078179,
				"y": 4.9250147472,
				"z": -1.0897077298,
				"element": "Cl" 
			},
			{
				"x": -2.5060604684,
				"y": 4.2062212105,
				"z": 0.6332968802,
				"element": "C" 
			},
			{
				"x": -1.3221197163,
				"y": 3.5464873091,
				"z": 0.9598509378,
				"element": "C" 
			},
			{
				"x": 0.9081755364,
				"y": -0.9967839446,
				"z": 2.485726993,
				"element": "H" 
			},
			{
				"x": 1.127234342,
				"y": 2.5500304656,
				"z": 1.2301000329,
				"element": "H" 
			},
			{
				"x": 1.3301598846,
				"y": 2.0152713844,
				"z": -0.4620960084,
				"element": "H" 
			},
			{
				"x": -0.6366483893,
				"y": 2.0901771839,
				"z": -2.0313307554,
				"element": "H" 
			},
			{
				"x": -2.7420713293,
				"y": 3.2683517485,
				"z": -2.6360252738,
				"element": "H" 
			},
			{
				"x": -3.0347705426,
				"y": 4.799642146,
				"z": 1.3707646889,
				"element": "H" 
			},
			{
				"x": -0.9286847471,
				"y": 3.6317755437,
				"z": 1.9695214085,
				"element": "H" 
			}
		],
		 "valence_orbital": [ 
			{
				"type": "occ",
				"energy": -0.30777,
				"method": "rhf"
			},
			{
				"type": "occ",
				"energy": -0.29842,
				"method": "rhf"
			},
			{
				"type": "occ",
				"energy": -0.29123,
				"method": "rhf"
			},
			{
				"type": "occ",
				"energy": -0.27498,
				"method": "rhf"
			},
			{
				"type": "occ",
				"energy": -0.25723,
				"method": "rhf"
			},
			{
				"type": "unocc",
				"energy": -0.09347,
				"method": "rhf"
			},
			{
				"type": "unocc",
				"energy": -0.08105,
				"method": "rhf"
			},
			{
				"type": "unocc",
				"energy": -0.03471,
				"method": "rhf"
			},
			{
				"type": "unocc",
				"energy": -0.02572,
				"method": "rhf"
			},
			{
				"type": "unocc",
				"energy": 0.00486,
				"method": "rhf"
			}
		],
		"cosmo_sigma_profile": { 
			"-0.025": 0.0,
			"-0.024": 0.0,
			"-0.023": 0.0,
			"-0.022": 0.0,
			"-0.021": 0.0,
			"-0.02": 0.0,
			"-0.019": 0.0,
			"-0.018": 0.0,
			"-0.017": 0.0,
			"-0.016": 0.0,
			"-0.015": 0.0,
			"-0.014": 0.0,
			"-0.013": 0.0,
			"-0.012": 0.0,
			"-0.011": 0.0,
			"-0.01": 0.487932452281,
			"-0.009": 1.58684541237,
			"-0.008": 5.75134740276,
			"-0.007": 14.3778271541,
			"-0.006": 18.9714797143,
			"-0.005": 20.4042690887,
			"-0.004": 21.1333952799,
			"-0.003": 16.7529351267,
			"-0.002": 17.7736208415,
			"-0.001": 20.0414593947,
			"0.0": 21.515185575,
			"0.001": 31.3457422695,
			"0.002": 47.8278593773,
			"0.003": 37.4694559972,
			"0.004": 21.4034780114,
			"0.005": 11.4334315304,
			"0.006": 4.41111676502,
			"0.007": 4.1258264949,
			"0.008": 4.56684351671,
			"0.009": 4.25764594442,
			"0.01": 4.10069076795,
			"0.011": 1.12021930891,
			"0.012": 0.54359486289,
			"0.013": 0.0,
			"0.014": 0.0,
			"0.015": 0.0,
			"0.016": 0.0,
			"0.017": 0.0,
			"0.018": 0.0,
			"0.019": 0.0,
			"0.02": 0.0,
			"0.021": 0.0,
			"0.022": 0.0,
			"0.023": 0.0,
			"0.024": 0.0,
			"0.025": 0.0
		}
	}
}
