{
	 "smiles": "COC1=CC2=C(OC=N2)C=C1", 
	 "Tm": 349.15, 
	 "num_atms": 18, 
	 "gaussian": { 
		 "optdone": 1, 
		 "sigma_profile": "yes", 
		 "theory": "DFT", 
		 "functional": "B3LYP", 
		 "basiset": "6-31G**", 
		 "properties": { 
			 "R2extent": 3250.0059, 
			 "electric_dipole_moment_norm": 0.674153647175, 
			 "electric_quadrupole_moment_norm": 10.0023139518, 
			 "total_energy": -514.245208948, 
			 "HOMO_LUMO_gap": 0.19126, 
			 "cosmo_polarized_energy": -7.97, 
			 "cosmo_cavitation_energy": 22.24, 
			 "cosmo_dispersion_energy": -16.95, 
			 "cosmo_repulsion_energy": 1.33, 
			 "cosmo_total_nonelectrostatic_energy": 6.62, 
			 "SMD_solvation_energy": 3.63 
		},
		"coords": [
			{
				"x": -0.3718324016,
				"y": -0.1685287778,
				"z": -4.1910824208,
				"element": "C" 
			},
			{
				"x": -0.3630402575,
				"y": -0.7044709757,
				"z": -2.8782051648,
				"element": "O" 
			},
			{
				"x": 0.6513675334,
				"y": -0.3351072832,
				"z": -2.040183056,
				"element": "C" 
			},
			{
				"x": 1.6831468171,
				"y": 0.53834744,
				"z": -2.3932193129,
				"element": "C" 
			},
			{
				"x": 2.6439649727,
				"y": 0.8105995693,
				"z": -1.4114495152,
				"element": "C" 
			},
			{
				"x": 2.5574094348,
				"y": 0.22677328,
				"z": -0.1452524975,
				"element": "C" 
			},
			{
				"x": 3.6288806915,
				"y": 0.6770366523,
				"z": 0.594438797,
				"element": "O" 
			},
			{
				"x": 4.2898992551,
				"y": 1.5011012731,
				"z": -0.2728620442,
				"element": "C" 
			},
			{
				"x": 3.7786105909,
				"y": 1.6277926835,
				"z": -1.4524751666,
				"element": "N" 
			},
			{
				"x": 1.5392590597,
				"y": -0.6438262184,
				"z": 0.2242260181,
				"element": "C" 
			},
			{
				"x": 0.5850331544,
				"y": -0.9146911865,
				"z": -0.7497358444,
				"element": "C" 
			},
			{
				"x": -0.449355465,
				"y": 0.9265744407,
				"z": -4.1810521252,
				"element": "H" 
			},
			{
				"x": 0.5263822494,
				"y": -0.4572530068,
				"z": -4.7525269364,
				"element": "H" 
			},
			{
				"x": -1.2520135702,
				"y": -0.5864517964,
				"z": -4.6819373716,
				"element": "H" 
			},
			{
				"x": 1.7584269169,
				"y": 0.9952773222,
				"z": -3.3712203759,
				"element": "H" 
			},
			{
				"x": 5.1832060121,
				"y": 1.9716736958,
				"z": 0.1133006733,
				"element": "H" 
			},
			{
				"x": 1.4875187008,
				"y": -1.0880633874,
				"z": 1.2118622982,
				"element": "H" 
			},
			{
				"x": -0.2431636945,
				"y": -1.5838837247,
				"z": -0.5436259553,
				"element": "H" 
			}
		],
		 "valence_orbital": [ 
			{
				"type": "occ",
				"energy": -0.332,
				"method": "rhf"
			},
			{
				"type": "occ",
				"energy": -0.31319,
				"method": "rhf"
			},
			{
				"type": "occ",
				"energy": -0.2909,
				"method": "rhf"
			},
			{
				"type": "occ",
				"energy": -0.24207,
				"method": "rhf"
			},
			{
				"type": "occ",
				"energy": -0.21782,
				"method": "rhf"
			},
			{
				"type": "unocc",
				"energy": -0.02656,
				"method": "rhf"
			},
			{
				"type": "unocc",
				"energy": 0.01752,
				"method": "rhf"
			},
			{
				"type": "unocc",
				"energy": 0.0396,
				"method": "rhf"
			},
			{
				"type": "unocc",
				"energy": 0.09467,
				"method": "rhf"
			},
			{
				"type": "unocc",
				"energy": 0.10487,
				"method": "rhf"
			}
		],
		"cosmo_sigma_profile": { 
			"-0.025": 0.0,
			"-0.024": 0.0,
			"-0.023": 0.0,
			"-0.022": 0.0,
			"-0.021": 0.0,
			"-0.02": 0.0,
			"-0.019": 0.0,
			"-0.018": 0.0,
			"-0.017": 0.0,
			"-0.016": 0.0,
			"-0.015": 0.0,
			"-0.014": 0.0,
			"-0.013": 0.0,
			"-0.012": 0.144400969471,
			"-0.011": 1.80704946421,
			"-0.01": 1.5007308079,
			"-0.009": 2.12518331568,
			"-0.008": 1.96115239325,
			"-0.007": 5.67024505942,
			"-0.006": 10.2194583966,
			"-0.005": 14.2434778674,
			"-0.004": 12.3886122587,
			"-0.003": 14.9990269363,
			"-0.002": 12.501141683,
			"-0.001": 9.7918966623,
			"0.0": 9.10104012908,
			"0.001": 10.3753448807,
			"0.002": 13.7197289557,
			"0.003": 18.082962511,
			"0.004": 12.5782174534,
			"0.005": 4.85761460334,
			"0.006": 4.75359581509,
			"0.007": 4.24376642187,
			"0.008": 3.16280080858,
			"0.009": 2.3118688088,
			"0.01": 2.59822634026,
			"0.011": 1.33878571944,
			"0.012": 1.23115431523,
			"0.013": 0.680467225729,
			"0.014": 1.18704765147,
			"0.015": 0.931807591397,
			"0.016": 0.307562406614,
			"0.017": 0.0,
			"0.018": 0.0,
			"0.019": 0.0,
			"0.02": 0.0,
			"0.021": 0.0,
			"0.022": 0.0,
			"0.023": 0.0,
			"0.024": 0.0,
			"0.025": 0.0
		}
	}
}
