{
	 "smiles": "CC(N)CC1=CC=C(O)C=C1", 
	 "Tm": 399.15, 
	 "num_atms": 24, 
	 "gaussian": { 
		 "optdone": 1, 
		 "sigma_profile": "yes", 
		 "theory": "DFT", 
		 "functional": "B3LYP", 
		 "basiset": "6-31G**", 
		 "properties": { 
			 "R2extent": 2784.7262, 
			 "electric_dipole_moment_norm": 0.553622849962, 
			 "electric_quadrupole_moment_norm": 13.5386205246, 
			 "total_energy": -480.769933039, 
			 "HOMO_LUMO_gap": 0.21257, 
			 "cosmo_polarized_energy": -11.58, 
			 "cosmo_cavitation_energy": 26.71, 
			 "cosmo_dispersion_energy": -19.2, 
			 "cosmo_repulsion_energy": 1.56, 
			 "cosmo_total_nonelectrostatic_energy": 9.07, 
			 "SMD_solvation_energy": 3.75 
		},
		"coords": [
			{
				"x": 1.2871761538,
				"y": -0.3536183328,
				"z": -1.6593331618,
				"element": "C" 
			},
			{
				"x": 0.5419597757,
				"y": 0.9785548811,
				"z": -1.5648597923,
				"element": "C" 
			},
			{
				"x": -0.0702961201,
				"y": 1.2702470387,
				"z": -2.869051986,
				"element": "N" 
			},
			{
				"x": -0.583563816,
				"y": 0.9496598089,
				"z": -0.5051397446,
				"element": "C" 
			},
			{
				"x": -0.1012745554,
				"y": 0.7848518681,
				"z": 0.9191076863,
				"element": "C" 
			},
			{
				"x": 0.4709461357,
				"y": 1.8609737922,
				"z": 1.617020258,
				"element": "C" 
			},
			{
				"x": 0.9366696614,
				"y": 1.7241086627,
				"z": 2.9209730974,
				"element": "C" 
			},
			{
				"x": 0.8351623002,
				"y": 0.4871109417,
				"z": 3.5675433717,
				"element": "C" 
			},
			{
				"x": 1.3036580113,
				"y": 0.4038138814,
				"z": 4.8502542151,
				"element": "O" 
			},
			{
				"x": 0.2650326488,
				"y": -0.5975333459,
				"z": 2.8959453043,
				"element": "C" 
			},
			{
				"x": -0.1951633629,
				"y": -0.4414642056,
				"z": 1.5870887711,
				"element": "C" 
			},
			{
				"x": 1.7345397625,
				"y": -0.6241013118,
				"z": -0.6992509747,
				"element": "H" 
			},
			{
				"x": 0.6006288734,
				"y": -1.1495020824,
				"z": -1.9674197475,
				"element": "H" 
			},
			{
				"x": 2.0925710754,
				"y": -0.297713565,
				"z": -2.4010500434,
				"element": "H" 
			},
			{
				"x": 1.2687816483,
				"y": 1.7513731925,
				"z": -1.2517023754,
				"element": "H" 
			},
			{
				"x": 0.6484189598,
				"y": 1.2951422143,
				"z": -3.5891832427,
				"element": "H" 
			},
			{
				"x": -0.4925358797,
				"y": 2.196531281,
				"z": -2.8556901139,
				"element": "H" 
			},
			{
				"x": -1.2784071386,
				"y": 0.1450701307,
				"z": -0.771451338,
				"element": "H" 
			},
			{
				"x": -1.1498212616,
				"y": 1.8877302946,
				"z": -0.5893466886,
				"element": "H" 
			},
			{
				"x": 0.5482117799,
				"y": 2.8307245914,
				"z": 1.1305454383,
				"element": "H" 
			},
			{
				"x": 1.3741576479,
				"y": 2.5609547619,
				"z": 3.4556931574,
				"element": "H" 
			},
			{
				"x": 1.1690320318,
				"y": -0.4953753062,
				"z": 5.1761460045,
				"element": "H" 
			},
			{
				"x": 0.1762778013,
				"y": -1.5614239808,
				"z": 3.3936941807,
				"element": "H" 
			},
			{
				"x": -0.640162133,
				"y": -1.2934152108,
				"z": 1.0792677239,
				"element": "H" 
			}
		],
		 "valence_orbital": [ 
			{
				"type": "occ",
				"energy": -0.32799,
				"method": "rhf"
			},
			{
				"type": "occ",
				"energy": -0.3146,
				"method": "rhf"
			},
			{
				"type": "occ",
				"energy": -0.24816,
				"method": "rhf"
			},
			{
				"type": "occ",
				"energy": -0.23086,
				"method": "rhf"
			},
			{
				"type": "occ",
				"energy": -0.21236,
				"method": "rhf"
			},
			{
				"type": "unocc",
				"energy": 0.00021,
				"method": "rhf"
			},
			{
				"type": "unocc",
				"energy": 0.0164,
				"method": "rhf"
			},
			{
				"type": "unocc",
				"energy": 0.07256,
				"method": "rhf"
			},
			{
				"type": "unocc",
				"energy": 0.08356,
				"method": "rhf"
			},
			{
				"type": "unocc",
				"energy": 0.09838,
				"method": "rhf"
			}
		],
		"cosmo_sigma_profile": { 
			"-0.025": 0.0,
			"-0.024": 0.0,
			"-0.023": 0.0,
			"-0.022": 0.0,
			"-0.021": 0.0,
			"-0.02": 0.0,
			"-0.019": 0.0,
			"-0.018": 0.198050502391,
			"-0.017": 0.816774734711,
			"-0.016": 1.44914238881,
			"-0.015": 0.914634983561,
			"-0.014": 0.859951101274,
			"-0.013": 0.95715845026,
			"-0.012": 0.581145850775,
			"-0.011": 1.04597881031,
			"-0.01": 1.43465787371,
			"-0.009": 3.46722740753,
			"-0.008": 3.49380867565,
			"-0.007": 4.4422683543,
			"-0.006": 6.44028147644,
			"-0.005": 9.41023978462,
			"-0.004": 13.3941091623,
			"-0.003": 16.9823675786,
			"-0.002": 16.9529631976,
			"-0.001": 17.7694835784,
			"0.0": 15.6482243536,
			"0.001": 18.2778287974,
			"0.002": 13.0660137562,
			"0.003": 8.62597762846,
			"0.004": 11.776512644,
			"0.005": 10.8515655978,
			"0.006": 11.2868900058,
			"0.007": 2.64622436583,
			"0.008": 2.5227520471,
			"0.009": 2.38524251292,
			"0.01": 1.93574558814,
			"0.011": 2.30565002366,
			"0.012": 2.17513343107,
			"0.013": 0.987854561869,
			"0.014": 0.461006055944,
			"0.015": 0.663868486411,
			"0.016": 0.767864425594,
			"0.017": 0.0336511930336,
			"0.018": 0.393726024742,
			"0.019": 0.969051647703,
			"0.02": 0.164104004522,
			"0.021": 0.0,
			"0.022": 0.0,
			"0.023": 0.0,
			"0.024": 0.0,
			"0.025": 0.0
		}
	}
}
