{
	 "smiles": "CCCCN1CCCCC1C(=O)NC1=C(C)C=CC=C1C", 
	 "Tm": 380.15, 
	 "num_atms": 49, 
	 "gaussian": { 
		 "optdone": 1, 
		 "sigma_profile": "yes", 
		 "theory": "DFT", 
		 "functional": "B3LYP", 
		 "basiset": "6-31G**", 
		 "properties": { 
			 "R2extent": 7139.9379, 
			 "electric_dipole_moment_norm": 3.07440580438, 
			 "electric_quadrupole_moment_norm": 10.6617147054, 
			 "total_energy": -887.542922027, 
			 "HOMO_LUMO_gap": 0.17905, 
			 "cosmo_polarized_energy": -10.34, 
			 "cosmo_cavitation_energy": 46.25, 
			 "cosmo_dispersion_energy": -30.6, 
			 "cosmo_repulsion_energy": 2.35, 
			 "cosmo_total_nonelectrostatic_energy": 18.0, 
			 "SMD_solvation_energy": 7.44 
		},
		"coords": [
			{
				"x": 3.7487787649,
				"y": -1.2638897576,
				"z": 1.3345734007,
				"element": "C" 
			},
			{
				"x": 3.9803747221,
				"y": 0.2387550816,
				"z": 1.1362922321,
				"element": "C" 
			},
			{
				"x": 3.6035989702,
				"y": 0.7850550667,
				"z": -0.2530569433,
				"element": "C" 
			},
			{
				"x": 2.1007606465,
				"y": 0.973231654,
				"z": -0.5231955797,
				"element": "C" 
			},
			{
				"x": 1.3192363544,
				"y": -0.2623810652,
				"z": -0.6056037565,
				"element": "N" 
			},
			{
				"x": 1.6742455796,
				"y": -1.081784653,
				"z": -1.7794789385,
				"element": "C" 
			},
			{
				"x": 0.6213043554,
				"y": -2.1605719496,
				"z": -2.0729770702,
				"element": "C" 
			},
			{
				"x": -0.0286894825,
				"y": -2.6237395619,
				"z": -0.7688332663,
				"element": "C" 
			},
			{
				"x": -0.8125435895,
				"y": -1.4593344773,
				"z": -0.1366200589,
				"element": "C" 
			},
			{
				"x": -0.1042165774,
				"y": -0.0798277022,
				"z": -0.3411142018,
				"element": "C" 
			},
			{
				"x": -0.8293019785,
				"y": 0.7753630628,
				"z": -1.4088761086,
				"element": "C" 
			},
			{
				"x": -0.4322280436,
				"y": 0.8630184185,
				"z": -2.5651899629,
				"element": "O" 
			},
			{
				"x": -1.968946704,
				"y": 1.4649244877,
				"z": -1.0282581771,
				"element": "N" 
			},
			{
				"x": -2.6990529522,
				"y": 1.4287216745,
				"z": 0.2030496415,
				"element": "C" 
			},
			{
				"x": -2.2509375526,
				"y": 2.1595707041,
				"z": 1.3221194121,
				"element": "C" 
			},
			{
				"x": -1.0082799277,
				"y": 3.0169357426,
				"z": 1.2787513203,
				"element": "C" 
			},
			{
				"x": -3.0073345012,
				"y": 2.101049532,
				"z": 2.5010526174,
				"element": "C" 
			},
			{
				"x": -4.1887535763,
				"y": 1.3694330065,
				"z": 2.5639852246,
				"element": "C" 
			},
			{
				"x": -4.6457286146,
				"y": 0.6919562658,
				"z": 1.4341469239,
				"element": "C" 
			},
			{
				"x": -3.9172358274,
				"y": 0.713561229,
				"z": 0.2417723613,
				"element": "C" 
			},
			{
				"x": -4.4461066103,
				"y": 0.0138471149,
				"z": -0.9875852987,
				"element": "C" 
			},
			{
				"x": 4.3355638925,
				"y": -1.8476979159,
				"z": 0.6151929837,
				"element": "H" 
			},
			{
				"x": 4.0524228647,
				"y": -1.5797467178,
				"z": 2.3389819297,
				"element": "H" 
			},
			{
				"x": 2.6957200902,
				"y": -1.5164797864,
				"z": 1.1910631774,
				"element": "H" 
			},
			{
				"x": 3.4229884104,
				"y": 0.7990714875,
				"z": 1.9005745226,
				"element": "H" 
			},
			{
				"x": 5.0404630398,
				"y": 0.4608764225,
				"z": 1.3173858624,
				"element": "H" 
			},
			{
				"x": 4.0592275943,
				"y": 1.7770864871,
				"z": -0.3721838727,
				"element": "H" 
			},
			{
				"x": 4.055741995,
				"y": 0.1595958478,
				"z": -1.0333774627,
				"element": "H" 
			},
			{
				"x": 1.6869489905,
				"y": 1.5739223364,
				"z": 0.2973364227,
				"element": "H" 
			},
			{
				"x": 1.9821026948,
				"y": 1.5729058717,
				"z": -1.4436771075,
				"element": "H" 
			},
			{
				"x": 1.8248760269,
				"y": -0.4572466659,
				"z": -2.6721476335,
				"element": "H" 
			},
			{
				"x": 2.6297492771,
				"y": -1.5734165101,
				"z": -1.5546425163,
				"element": "H" 
			},
			{
				"x": -0.1455636712,
				"y": -1.7530080354,
				"z": -2.7409172622,
				"element": "H" 
			},
			{
				"x": 1.0955967503,
				"y": -2.9957389051,
				"z": -2.6000306327,
				"element": "H" 
			},
			{
				"x": 0.7478279134,
				"y": -2.9727932349,
				"z": -0.0781603496,
				"element": "H" 
			},
			{
				"x": -0.7039181104,
				"y": -3.4698780466,
				"z": -0.9403990246,
				"element": "H" 
			},
			{
				"x": -1.8159154665,
				"y": -1.4207901686,
				"z": -0.572970291,
				"element": "H" 
			},
			{
				"x": -0.9512393698,
				"y": -1.6352333148,
				"z": 0.9345420226,
				"element": "H" 
			},
			{
				"x": -0.1749486476,
				"y": 0.4656017001,
				"z": 0.6035950045,
				"element": "H" 
			},
			{
				"x": -2.4269141487,
				"y": 1.8878625036,
				"z": -1.8288996727,
				"element": "H" 
			},
			{
				"x": -0.1307218367,
				"y": 2.4846156525,
				"z": 1.6661921497,
				"element": "H" 
			},
			{
				"x": -1.1387974051,
				"y": 3.9081458355,
				"z": 1.8996241185,
				"element": "H" 
			},
			{
				"x": -0.7741564212,
				"y": 3.3332910744,
				"z": 0.2601236863,
				"element": "H" 
			},
			{
				"x": -2.667265504,
				"y": 2.6563825156,
				"z": 3.3713849687,
				"element": "H" 
			},
			{
				"x": -4.7628835705,
				"y": 1.3400039597,
				"z": 3.4855940025,
				"element": "H" 
			},
			{
				"x": -5.5802368495,
				"y": 0.1387111787,
				"z": 1.4736512752,
				"element": "H" 
			},
			{
				"x": -5.3226311148,
				"y": -0.5910899489,
				"z": -0.742378189,
				"element": "H" 
			},
			{
				"x": -4.7497389439,
				"y": 0.7321383947,
				"z": -1.7601034254,
				"element": "H" 
			},
			{
				"x": -3.6967419356,
				"y": -0.6384858911,
				"z": -1.4461084582,
				"element": "H" 
			}
		],
		 "valence_orbital": [ 
			{
				"type": "occ",
				"energy": -0.27015,
				"method": "rhf"
			},
			{
				"type": "occ",
				"energy": -0.25314,
				"method": "rhf"
			},
			{
				"type": "occ",
				"energy": -0.24505,
				"method": "rhf"
			},
			{
				"type": "occ",
				"energy": -0.23917,
				"method": "rhf"
			},
			{
				"type": "occ",
				"energy": -0.19163,
				"method": "rhf"
			},
			{
				"type": "unocc",
				"energy": -0.01258,
				"method": "rhf"
			},
			{
				"type": "unocc",
				"energy": -0.0069,
				"method": "rhf"
			},
			{
				"type": "unocc",
				"energy": 0.02523,
				"method": "rhf"
			},
			{
				"type": "unocc",
				"energy": 0.07005,
				"method": "rhf"
			},
			{
				"type": "unocc",
				"energy": 0.0796,
				"method": "rhf"
			}
		],
		"cosmo_sigma_profile": { 
			"-0.025": 0.0,
			"-0.024": 0.0,
			"-0.023": 0.0,
			"-0.022": 0.0,
			"-0.021": 0.0,
			"-0.02": 0.0,
			"-0.019": 0.0,
			"-0.018": 0.0,
			"-0.017": 0.0,
			"-0.016": 0.0,
			"-0.015": 0.0,
			"-0.014": 0.0,
			"-0.013": 0.465860039753,
			"-0.012": 0.739445307239,
			"-0.011": 1.2045631128,
			"-0.01": 0.925038902684,
			"-0.009": 1.45048866551,
			"-0.008": 1.1517277842,
			"-0.007": 1.06099293029,
			"-0.006": 4.17020052297,
			"-0.005": 13.6352540521,
			"-0.004": 19.3253316928,
			"-0.003": 26.161890409,
			"-0.002": 42.6741678553,
			"-0.001": 57.3569717518,
			"0.0": 60.5607725229,
			"0.001": 45.0906969126,
			"0.002": 25.5972621854,
			"0.003": 12.7924948517,
			"0.004": 10.3098704897,
			"0.005": 9.51286768915,
			"0.006": 7.75747076555,
			"0.007": 2.0983703249,
			"0.008": 2.54817479206,
			"0.009": 1.14022960751,
			"0.01": 1.6353374284,
			"0.011": 1.80860286844,
			"0.012": 1.55225561885,
			"0.013": 2.29650643224,
			"0.014": 3.33506993211,
			"0.015": 0.642509787194,
			"0.016": 0.0,
			"0.017": 0.0,
			"0.018": 0.0,
			"0.019": 0.0,
			"0.02": 0.0,
			"0.021": 0.0,
			"0.022": 0.0,
			"0.023": 0.0,
			"0.024": 0.0,
			"0.025": 0.0
		}
	}
}
