{
	 "smiles": "OC(=O)CCS(=O)C1=CC2=C(OCCO2)C=C1", 
	 "Tm": 384.15, 
	 "num_atms": 29, 
	 "gaussian": { 
		 "optdone": 1, 
		 "sigma_profile": "yes", 
		 "theory": "DFT", 
		 "functional": "B3LYP", 
		 "basiset": "6-31G**", 
		 "properties": { 
			 "R2extent": 7618.1032, 
			 "electric_dipole_moment_norm": 4.91529709885, 
			 "electric_quadrupole_moment_norm": 23.7482472572, 
			 "total_energy": -1200.6527062, 
			 "HOMO_LUMO_gap": 0.19744, 
			 "cosmo_polarized_energy": -22.04, 
			 "cosmo_cavitation_energy": 34.49, 
			 "cosmo_dispersion_energy": -25.39, 
			 "cosmo_repulsion_energy": 1.94, 
			 "cosmo_total_nonelectrostatic_energy": 11.05, 
			 "SMD_solvation_energy": 6.57 
		},
		"coords": [
			{
				"x": 5.9798514849,
				"y": -0.0618368834,
				"z": -0.9724075386,
				"element": "O" 
			},
			{
				"x": 4.8447101088,
				"y": -0.5317399345,
				"z": -0.4137034531,
				"element": "C" 
			},
			{
				"x": 4.6491078172,
				"y": -1.7062945558,
				"z": -0.1951086969,
				"element": "O" 
			},
			{
				"x": 3.904488397,
				"y": 0.5937192522,
				"z": -0.0154316754,
				"element": "C" 
			},
			{
				"x": 2.4408411134,
				"y": 0.1721594127,
				"z": -0.125489287,
				"element": "C" 
			},
			{
				"x": 1.8971288622,
				"y": 0.3050173572,
				"z": -1.900113,
				"element": "S" 
			},
			{
				"x": 2.953452346,
				"y": -0.4085026204,
				"z": -2.7209253392,
				"element": "O" 
			},
			{
				"x": 0.4599530177,
				"y": -0.7980280994,
				"z": -1.770189169,
				"element": "C" 
			},
			{
				"x": -0.7681842845,
				"y": -0.2912837075,
				"z": -1.3480743464,
				"element": "C" 
			},
			{
				"x": -1.868370368,
				"y": -1.1449325788,
				"z": -1.2725062512,
				"element": "C" 
			},
			{
				"x": -1.7279718979,
				"y": -2.4997948912,
				"z": -1.6297481117,
				"element": "C" 
			},
			{
				"x": -2.7812762854,
				"y": -3.3748380851,
				"z": -1.5643773389,
				"element": "O" 
			},
			{
				"x": -3.8908135213,
				"y": -2.8979286969,
				"z": -0.8014953056,
				"element": "C" 
			},
			{
				"x": -4.1921331729,
				"y": -1.4527131668,
				"z": -1.162107979,
				"element": "C" 
			},
			{
				"x": -3.0683446138,
				"y": -0.626259367,
				"z": -0.8535703196,
				"element": "O" 
			},
			{
				"x": -0.4960982992,
				"y": -2.979422607,
				"z": -2.0813416661,
				"element": "C" 
			},
			{
				"x": 0.6042004052,
				"y": -2.1299453891,
				"z": -2.1591795623,
				"element": "C" 
			},
			{
				"x": 6.522008898,
				"y": -0.841840807,
				"z": -1.1786896778,
				"element": "H" 
			},
			{
				"x": 4.1313768108,
				"y": 1.4924653107,
				"z": -0.5954898439,
				"element": "H" 
			},
			{
				"x": 4.1283137278,
				"y": 0.8262832205,
				"z": 1.0337662849,
				"element": "H" 
			},
			{
				"x": 1.77678853,
				"y": 0.8206627863,
				"z": 0.4535957726,
				"element": "H" 
			},
			{
				"x": 2.3258283581,
				"y": -0.8645129174,
				"z": 0.1982241709,
				"element": "H" 
			},
			{
				"x": -0.9033467274,
				"y": 0.7541795859,
				"z": -1.0854867688,
				"element": "H" 
			},
			{
				"x": -4.7334781129,
				"y": -3.5518516153,
				"z": -1.0390903476,
				"element": "H" 
			},
			{
				"x": -3.6670905848,
				"y": -2.9772406573,
				"z": 0.2709685693,
				"element": "H" 
			},
			{
				"x": -4.4303177107,
				"y": -1.3747361951,
				"z": -2.2315386631,
				"element": "H" 
			},
			{
				"x": -5.031409352,
				"y": -1.0640047507,
				"z": -0.5802240167,
				"element": "H" 
			},
			{
				"x": -0.4253809654,
				"y": -4.0253591822,
				"z": -2.3624011891,
				"element": "H" 
			},
			{
				"x": 1.5697660192,
				"y": -2.4739202178,
				"z": -2.515965251,
				"element": "H" 
			}
		],
		 "valence_orbital": [ 
			{
				"type": "occ",
				"energy": -0.27045,
				"method": "rhf"
			},
			{
				"type": "occ",
				"energy": -0.26163,
				"method": "rhf"
			},
			{
				"type": "occ",
				"energy": -0.24941,
				"method": "rhf"
			},
			{
				"type": "occ",
				"energy": -0.2284,
				"method": "rhf"
			},
			{
				"type": "occ",
				"energy": -0.21413,
				"method": "rhf"
			},
			{
				"type": "unocc",
				"energy": -0.01669,
				"method": "rhf"
			},
			{
				"type": "unocc",
				"energy": -0.00395,
				"method": "rhf"
			},
			{
				"type": "unocc",
				"energy": 0.01707,
				"method": "rhf"
			},
			{
				"type": "unocc",
				"energy": 0.03968,
				"method": "rhf"
			},
			{
				"type": "unocc",
				"energy": 0.05419,
				"method": "rhf"
			}
		],
		"cosmo_sigma_profile": { 
			"-0.025": 0.0,
			"-0.024": 0.0,
			"-0.023": 0.0,
			"-0.022": 0.0,
			"-0.021": 0.0,
			"-0.02": 0.0,
			"-0.019": 0.0420938903388,
			"-0.018": 0.666564485409,
			"-0.017": 1.02139905615,
			"-0.016": 0.851407571938,
			"-0.015": 0.692623364942,
			"-0.014": 0.728028340616,
			"-0.013": 0.718809207211,
			"-0.012": 0.680473888372,
			"-0.011": 0.971059289503,
			"-0.01": 0.643397802641,
			"-0.009": 0.764044088844,
			"-0.008": 7.02247479829,
			"-0.007": 18.7305856462,
			"-0.006": 23.844599463,
			"-0.005": 22.28888703,
			"-0.004": 20.0780019625,
			"-0.003": 15.2885115621,
			"-0.002": 13.3723237641,
			"-0.001": 12.7802154629,
			"0.0": 11.6726126974,
			"0.001": 13.8692108574,
			"0.002": 17.5992629126,
			"0.003": 18.1078057842,
			"0.004": 10.6816390255,
			"0.005": 6.6891843599,
			"0.006": 6.37898693264,
			"0.007": 6.12510761098,
			"0.008": 6.84687827379,
			"0.009": 8.2661507994,
			"0.01": 6.15998862183,
			"0.011": 6.01164781888,
			"0.012": 6.9486472555,
			"0.013": 2.68970958966,
			"0.014": 2.6373332321,
			"0.015": 2.04422612176,
			"0.016": 0.441091746632,
			"0.017": 0.0,
			"0.018": 0.0,
			"0.019": 0.0,
			"0.02": 0.0,
			"0.021": 0.0,
			"0.022": 0.0,
			"0.023": 0.0,
			"0.024": 0.0,
			"0.025": 0.0
		}
	}
}
