{
	 "smiles": "CC1=CN(N=C1)C1=C(N)C=C(C)C=C1", 
	 "Tm": 323.15, 
	 "num_atms": 27, 
	 "gaussian": { 
		 "optdone": 1, 
		 "sigma_profile": "yes", 
		 "theory": "DFT", 
		 "functional": "B3LYP", 
		 "basiset": "6-31G**", 
		 "properties": { 
			 "R2extent": 4158.8151, 
			 "electric_dipole_moment_norm": 3.36435194503, 
			 "electric_quadrupole_moment_norm": 11.3792591806, 
			 "total_energy": -591.249407042, 
			 "HOMO_LUMO_gap": 0.19543, 
			 "cosmo_polarized_energy": -12.54, 
			 "cosmo_cavitation_energy": 30.52, 
			 "cosmo_dispersion_energy": -22.04, 
			 "cosmo_repulsion_energy": 1.75, 
			 "cosmo_total_nonelectrostatic_energy": 10.23, 
			 "SMD_solvation_energy": 4.86 
		},
		"coords": [
			{
				"x": -1.5838718867,
				"y": -0.0917974528,
				"z": -3.0382770965,
				"element": "C" 
			},
			{
				"x": -1.4040098332,
				"y": 0.1982065582,
				"z": -1.5772766712,
				"element": "C" 
			},
			{
				"x": -0.2222788464,
				"y": 0.3848036076,
				"z": -0.8840795931,
				"element": "C" 
			},
			{
				"x": -0.5450336282,
				"y": 0.6228242301,
				"z": 0.4257788048,
				"element": "N" 
			},
			{
				"x": -1.8854458514,
				"y": 0.5877300741,
				"z": 0.6253883517,
				"element": "N" 
			},
			{
				"x": -2.3989926823,
				"y": 0.3349745706,
				"z": -0.5763770624,
				"element": "C" 
			},
			{
				"x": 0.3547887409,
				"y": 0.8268867886,
				"z": 1.5158492994,
				"element": "C" 
			},
			{
				"x": 1.2424418223,
				"y": 1.9233401183,
				"z": 1.509019448,
				"element": "C" 
			},
			{
				"x": 1.2137814551,
				"y": 2.8850149109,
				"z": 0.5091217931,
				"element": "N" 
			},
			{
				"x": 2.1264341682,
				"y": 2.0560572378,
				"z": 2.5960783765,
				"element": "C" 
			},
			{
				"x": 2.120879159,
				"y": 1.1670790803,
				"z": 3.6703753625,
				"element": "C" 
			},
			{
				"x": 3.099808753,
				"y": 1.3325214642,
				"z": 4.8093643003,
				"element": "C" 
			},
			{
				"x": 1.1995427116,
				"y": 0.1077808204,
				"z": 3.6692856682,
				"element": "C" 
			},
			{
				"x": 0.3323759476,
				"y": -0.0567920411,
				"z": 2.5955475783,
				"element": "C" 
			},
			{
				"x": -0.6190689081,
				"y": -0.1903093085,
				"z": -3.5444106997,
				"element": "H" 
			},
			{
				"x": -2.1418450253,
				"y": 0.7046333504,
				"z": -3.5445559033,
				"element": "H" 
			},
			{
				"x": -2.1367707364,
				"y": -1.0242057297,
				"z": -3.199070861,
				"element": "H" 
			},
			{
				"x": 0.8082860049,
				"y": 0.3285549117,
				"z": -1.2059441522,
				"element": "H" 
			},
			{
				"x": -3.4733155756,
				"y": 0.259655946,
				"z": -0.6902489792,
				"element": "H" 
			},
			{
				"x": 2.0618111023,
				"y": 3.411374731,
				"z": 0.3653039002,
				"element": "H" 
			},
			{
				"x": 0.7185631722,
				"y": 2.6545799661,
				"z": -0.3386083135,
				"element": "H" 
			},
			{
				"x": 2.8143346802,
				"y": 2.8989771044,
				"z": 2.6024794005,
				"element": "H" 
			},
			{
				"x": 3.5237245918,
				"y": 2.3404573443,
				"z": 4.8335212084,
				"element": "H" 
			},
			{
				"x": 3.9342490323,
				"y": 0.6257730067,
				"z": 4.7197268092,
				"element": "H" 
			},
			{
				"x": 2.6207155299,
				"y": 1.143317772,
				"z": 5.7753340565,
				"element": "H" 
			},
			{
				"x": 1.1682206362,
				"y": -0.5873341562,
				"z": 4.5031688907,
				"element": "H" 
			},
			{
				"x": -0.3835245339,
				"y": -0.871804905,
				"z": 2.5737060836,
				"element": "H" 
			}
		],
		 "valence_orbital": [ 
			{
				"type": "occ",
				"energy": -0.27647,
				"method": "rhf"
			},
			{
				"type": "occ",
				"energy": -0.25798,
				"method": "rhf"
			},
			{
				"type": "occ",
				"energy": -0.23781,
				"method": "rhf"
			},
			{
				"type": "occ",
				"energy": -0.2266,
				"method": "rhf"
			},
			{
				"type": "occ",
				"energy": -0.19927,
				"method": "rhf"
			},
			{
				"type": "unocc",
				"energy": -0.00384,
				"method": "rhf"
			},
			{
				"type": "unocc",
				"energy": 0.01273,
				"method": "rhf"
			},
			{
				"type": "unocc",
				"energy": 0.03171,
				"method": "rhf"
			},
			{
				"type": "unocc",
				"energy": 0.0661,
				"method": "rhf"
			},
			{
				"type": "unocc",
				"energy": 0.09135,
				"method": "rhf"
			}
		],
		"cosmo_sigma_profile": { 
			"-0.025": 0.0,
			"-0.024": 0.0,
			"-0.023": 0.0,
			"-0.022": 0.0,
			"-0.021": 0.0,
			"-0.02": 0.0,
			"-0.019": 0.0,
			"-0.018": 0.0,
			"-0.017": 0.0,
			"-0.016": 0.0,
			"-0.015": 0.0,
			"-0.014": 0.00804447454047,
			"-0.013": 0.794064013698,
			"-0.012": 1.30390131609,
			"-0.011": 2.11769539586,
			"-0.01": 1.43030079161,
			"-0.009": 3.16683043976,
			"-0.008": 4.15886809595,
			"-0.007": 6.01467124811,
			"-0.006": 6.93324091141,
			"-0.005": 9.75649048239,
			"-0.004": 22.3349426596,
			"-0.003": 20.644405629,
			"-0.002": 20.544569822,
			"-0.001": 21.0610180342,
			"0.0": 25.5734141968,
			"0.001": 15.5575329,
			"0.002": 11.02518234,
			"0.003": 11.2246894459,
			"0.004": 12.0679966151,
			"0.005": 14.6897690151,
			"0.006": 11.6424132408,
			"0.007": 3.98991941495,
			"0.008": 3.14064075266,
			"0.009": 2.3442205703,
			"0.01": 1.98355127434,
			"0.011": 2.15945205995,
			"0.012": 1.69758728561,
			"0.013": 1.72640351102,
			"0.014": 0.923962267256,
			"0.015": 1.2064247202,
			"0.016": 0.691506430901,
			"0.017": 0.149248741988,
			"0.018": 0.0,
			"0.019": 0.0,
			"0.02": 0.0,
			"0.021": 0.0,
			"0.022": 0.0,
			"0.023": 0.0,
			"0.024": 0.0,
			"0.025": 0.0
		}
	}
}
