{
	 "smiles": "FC1=CC=C(C=C1)S(=O)(=O)N=C=O", 
	 "Tm": 308.65, 
	 "num_atms": 17, 
	 "gaussian": { 
		 "optdone": 1, 
		 "sigma_profile": "yes", 
		 "theory": "DFT", 
		 "functional": "B3LYP", 
		 "basiset": "6-31G**", 
		 "properties": { 
			 "R2extent": 3734.9756, 
			 "electric_dipole_moment_norm": 3.63351532954, 
			 "electric_quadrupole_moment_norm": 11.7425184139, 
			 "total_energy": -1047.51695635, 
			 "HOMO_LUMO_gap": 0.22267, 
			 "cosmo_polarized_energy": -9.27, 
			 "cosmo_cavitation_energy": 25.64, 
			 "cosmo_dispersion_energy": -18.6, 
			 "cosmo_repulsion_energy": 1.4, 
			 "cosmo_total_nonelectrostatic_energy": 8.44, 
			 "SMD_solvation_energy": 7.01 
		},
		"coords": [
			{
				"x": 1.7279911272,
				"y": -0.54787746,
				"z": -3.434345264,
				"element": "F" 
			},
			{
				"x": 1.1944331727,
				"y": -0.8266260757,
				"z": -2.2345979294,
				"element": "C" 
			},
			{
				"x": 1.8598151011,
				"y": -1.7192721832,
				"z": -1.3976820376,
				"element": "C" 
			},
			{
				"x": 1.3057331493,
				"y": -2.0089811136,
				"z": -0.1538312061,
				"element": "C" 
			},
			{
				"x": 0.1064101656,
				"y": -1.3943103713,
				"z": 0.2143614261,
				"element": "C" 
			},
			{
				"x": -0.5598124927,
				"y": -0.5069612569,
				"z": -0.6344803223,
				"element": "C" 
			},
			{
				"x": -0.0061346561,
				"y": -0.2169051012,
				"z": -1.8784326506,
				"element": "C" 
			},
			{
				"x": -0.6099523122,
				"y": -1.7776086438,
				"z": 1.7972579826,
				"element": "S" 
			},
			{
				"x": -0.0969368857,
				"y": -3.0620127903,
				"z": 2.2638363427,
				"element": "O" 
			},
			{
				"x": -2.04173256,
				"y": -1.4958480095,
				"z": 1.7630316806,
				"element": "O" 
			},
			{
				"x": 0.1383295893,
				"y": -0.5455845384,
				"z": 2.7441105911,
				"element": "N" 
			},
			{
				"x": -0.0139190072,
				"y": -0.3511557726,
				"z": 3.9462059708,
				"element": "C" 
			},
			{
				"x": -0.0777031033,
				"y": -0.0690991265,
				"z": 5.0787912009,
				"element": "O" 
			},
			{
				"x": 2.7869731619,
				"y": -2.1741323191,
				"z": -1.7274250404,
				"element": "H" 
			},
			{
				"x": 1.7866693317,
				"y": -2.7089358948,
				"z": 0.5200457519,
				"element": "H" 
			},
			{
				"x": -1.4997436569,
				"y": -0.0629271794,
				"z": -0.3267235586,
				"element": "H" 
			},
			{
				"x": -0.4885201245,
				"y": 0.4631378365,
				"z": -2.5713229377,
				"element": "H" 
			}
		],
		 "valence_orbital": [ 
			{
				"type": "occ",
				"energy": -0.33584,
				"method": "rhf"
			},
			{
				"type": "occ",
				"energy": -0.3298,
				"method": "rhf"
			},
			{
				"type": "occ",
				"energy": -0.30535,
				"method": "rhf"
			},
			{
				"type": "occ",
				"energy": -0.29452,
				"method": "rhf"
			},
			{
				"type": "occ",
				"energy": -0.28184,
				"method": "rhf"
			},
			{
				"type": "unocc",
				"energy": -0.05917,
				"method": "rhf"
			},
			{
				"type": "unocc",
				"energy": -0.04396,
				"method": "rhf"
			},
			{
				"type": "unocc",
				"energy": -0.0406,
				"method": "rhf"
			},
			{
				"type": "unocc",
				"energy": 0.01147,
				"method": "rhf"
			},
			{
				"type": "unocc",
				"energy": 0.04776,
				"method": "rhf"
			}
		],
		"cosmo_sigma_profile": { 
			"-0.025": 0.0,
			"-0.024": 0.0,
			"-0.023": 0.0,
			"-0.022": 0.0,
			"-0.021": 0.0,
			"-0.02": 0.0,
			"-0.019": 0.0,
			"-0.018": 0.0,
			"-0.017": 0.0,
			"-0.016": 0.0,
			"-0.015": 0.0,
			"-0.014": 0.0,
			"-0.013": 0.0,
			"-0.012": 0.0,
			"-0.011": 0.0,
			"-0.01": 0.0,
			"-0.009": 3.20046107085,
			"-0.008": 8.5147171608,
			"-0.007": 7.88831438254,
			"-0.006": 8.50397587697,
			"-0.005": 13.4306492926,
			"-0.004": 12.4211112356,
			"-0.003": 10.2576816769,
			"-0.002": 13.9455060877,
			"-0.001": 19.2607563223,
			"0.0": 21.193778621,
			"0.001": 17.7428810187,
			"0.002": 9.81943169936,
			"0.003": 14.4440355415,
			"0.004": 10.5830851538,
			"0.005": 10.1415260893,
			"0.006": 4.59856260758,
			"0.007": 3.1020847164,
			"0.008": 6.0907987195,
			"0.009": 10.1604332825,
			"0.01": 3.34136551299,
			"0.011": 0.0,
			"0.012": 0.0,
			"0.013": 0.0,
			"0.014": 0.0,
			"0.015": 0.0,
			"0.016": 0.0,
			"0.017": 0.0,
			"0.018": 0.0,
			"0.019": 0.0,
			"0.02": 0.0,
			"0.021": 0.0,
			"0.022": 0.0,
			"0.023": 0.0,
			"0.024": 0.0,
			"0.025": 0.0
		}
	}
}
