{
	 "smiles": "CCC1=NN=C(N)S1", 
	 "Tm": 474.15, 
	 "num_atms": 15, 
	 "gaussian": { 
		 "optdone": 1, 
		 "sigma_profile": "yes", 
		 "theory": "DFT", 
		 "functional": "B3LYP", 
		 "basiset": "6-31G**", 
		 "properties": { 
			 "R2extent": 2181.4083, 
			 "electric_dipole_moment_norm": 3.20034465956, 
			 "electric_quadrupole_moment_norm": 19.3036801869, 
			 "total_energy": -719.064556251, 
			 "HOMO_LUMO_gap": 0.21298, 
			 "cosmo_polarized_energy": -13.53, 
			 "cosmo_cavitation_energy": 20.51, 
			 "cosmo_dispersion_energy": -15.82, 
			 "cosmo_repulsion_energy": 1.29, 
			 "cosmo_total_nonelectrostatic_energy": 5.98, 
			 "SMD_solvation_energy": 1.41 
		},
		"coords": [
			{
				"x": 0.5178388005,
				"y": 0.0444115928,
				"z": -1.3974329134,
				"element": "C" 
			},
			{
				"x": -0.9382798562,
				"y": 0.1983820459,
				"z": -0.926492334,
				"element": "C" 
			},
			{
				"x": -1.3919139039,
				"y": -0.8830237709,
				"z": 0.0085356513,
				"element": "C" 
			},
			{
				"x": -2.2855471574,
				"y": -1.7742248286,
				"z": -0.2848833623,
				"element": "N" 
			},
			{
				"x": -2.5229749788,
				"y": -2.6900298819,
				"z": 0.7071866953,
				"element": "N" 
			},
			{
				"x": -1.8038929462,
				"y": -2.4725447489,
				"z": 1.7738981805,
				"element": "C" 
			},
			{
				"x": -1.9243777546,
				"y": -3.2060375912,
				"z": 2.9316654823,
				"element": "N" 
			},
			{
				"x": -0.7289960991,
				"y": -1.0815197581,
				"z": 1.6477067238,
				"element": "S" 
			},
			{
				"x": 0.6626372986,
				"y": -0.9130016388,
				"z": -1.9063919724,
				"element": "H" 
			},
			{
				"x": 0.77839063,
				"y": 0.8460651766,
				"z": -2.0952621031,
				"element": "H" 
			},
			{
				"x": 1.2186111142,
				"y": 0.0900256829,
				"z": -0.5575963826,
				"element": "H" 
			},
			{
				"x": -1.6193346448,
				"y": 0.1604443741,
				"z": -1.7819644385,
				"element": "H" 
			},
			{
				"x": -1.0712347688,
				"y": 1.1776515968,
				"z": -0.4500675787,
				"element": "H" 
			},
			{
				"x": -1.0805347233,
				"y": -3.3474256585,
				"z": 3.4686177514,
				"element": "H" 
			},
			{
				"x": -2.4654910102,
				"y": -4.0511725921,
				"z": 2.7955806004,
				"element": "H" 
			}
		],
		 "valence_orbital": [ 
			{
				"type": "occ",
				"energy": -0.3348,
				"method": "rhf"
			},
			{
				"type": "occ",
				"energy": -0.29291,
				"method": "rhf"
			},
			{
				"type": "occ",
				"energy": -0.28346,
				"method": "rhf"
			},
			{
				"type": "occ",
				"energy": -0.2543,
				"method": "rhf"
			},
			{
				"type": "occ",
				"energy": -0.22878,
				"method": "rhf"
			},
			{
				"type": "unocc",
				"energy": -0.0158,
				"method": "rhf"
			},
			{
				"type": "unocc",
				"energy": 0.00119,
				"method": "rhf"
			},
			{
				"type": "unocc",
				"energy": 0.04833,
				"method": "rhf"
			},
			{
				"type": "unocc",
				"energy": 0.06609,
				"method": "rhf"
			},
			{
				"type": "unocc",
				"energy": 0.10055,
				"method": "rhf"
			}
		],
		"cosmo_sigma_profile": { 
			"-0.025": 0.0,
			"-0.024": 0.0,
			"-0.023": 0.0,
			"-0.022": 0.0,
			"-0.021": 0.0,
			"-0.02": 0.0,
			"-0.019": 0.0,
			"-0.018": 0.0,
			"-0.017": 0.0,
			"-0.016": 0.0,
			"-0.015": 0.756555905165,
			"-0.014": 2.32590820717,
			"-0.013": 2.88659886152,
			"-0.012": 2.46220528595,
			"-0.011": 2.45851905003,
			"-0.01": 2.62500073084,
			"-0.009": 1.81414646197,
			"-0.008": 2.03210560733,
			"-0.007": 1.76775788738,
			"-0.006": 2.2334587507,
			"-0.005": 6.71474417227,
			"-0.004": 11.643084598,
			"-0.003": 13.4274836524,
			"-0.002": 15.5931215445,
			"-0.001": 14.7641241728,
			"0.0": 17.7705669695,
			"0.001": 12.8919516937,
			"0.002": 7.86596181973,
			"0.003": 6.86014884504,
			"0.004": 3.53252727566,
			"0.005": 3.06130443411,
			"0.006": 2.65052070887,
			"0.007": 3.07682976463,
			"0.008": 2.53956496661,
			"0.009": 2.39602161412,
			"0.01": 3.02899876947,
			"0.011": 3.37027472044,
			"0.012": 2.95032526762,
			"0.013": 3.13604655624,
			"0.014": 3.12086881534,
			"0.015": 1.83722736255,
			"0.016": 0.725133190334,
			"0.017": 0.0,
			"0.018": 0.0,
			"0.019": 0.0,
			"0.02": 0.0,
			"0.021": 0.0,
			"0.022": 0.0,
			"0.023": 0.0,
			"0.024": 0.0,
			"0.025": 0.0
		}
	}
}
