{
	 "smiles": "CC1=NN(C(N)=C1)C(C)(C)C", 
	 "Tm": 340.15, 
	 "num_atms": 26, 
	 "gaussian": { 
		 "optdone": 1, 
		 "sigma_profile": "yes", 
		 "theory": "DFT", 
		 "functional": "B3LYP", 
		 "basiset": "6-31G**", 
		 "properties": { 
			 "R2extent": 2008.8016, 
			 "electric_dipole_moment_norm": 2.65730297482, 
			 "electric_quadrupole_moment_norm": 6.94753608555, 
			 "total_energy": -478.141774005, 
			 "HOMO_LUMO_gap": 0.24559, 
			 "cosmo_polarized_energy": -10.04, 
			 "cosmo_cavitation_energy": 27.23, 
			 "cosmo_dispersion_energy": -19.57, 
			 "cosmo_repulsion_energy": 1.59, 
			 "cosmo_total_nonelectrostatic_energy": 9.25, 
			 "SMD_solvation_energy": 4.5 
		},
		"coords": [
			{
				"x": -1.1866164309,
				"y": -2.5745459211,
				"z": -0.3671820151,
				"element": "C" 
			},
			{
				"x": -0.9190171785,
				"y": -1.1256792915,
				"z": -0.0907538928,
				"element": "C" 
			},
			{
				"x": 0.2471121753,
				"y": -0.5834581105,
				"z": -0.4315044253,
				"element": "N" 
			},
			{
				"x": 0.1764711135,
				"y": 0.7268775564,
				"z": -0.0546394773,
				"element": "N" 
			},
			{
				"x": -1.0395217838,
				"y": 1.0085055114,
				"z": 0.5105704986,
				"element": "C" 
			},
			{
				"x": -1.3602374264,
				"y": 2.2735128876,
				"z": 1.0457819999,
				"element": "N" 
			},
			{
				"x": -1.771483115,
				"y": -0.1669017785,
				"z": 0.5029792757,
				"element": "C" 
			},
			{
				"x": 1.3758254909,
				"y": 1.6006149512,
				"z": -0.1885523436,
				"element": "C" 
			},
			{
				"x": 2.4704216324,
				"y": 0.8274011346,
				"z": -0.9400046746,
				"element": "C" 
			},
			{
				"x": 1.0179838306,
				"y": 2.8637369286,
				"z": -0.9973390295,
				"element": "C" 
			},
			{
				"x": 1.8759322541,
				"y": 1.9780675194,
				"z": 1.2194919189,
				"element": "C" 
			},
			{
				"x": -2.0429574087,
				"y": -2.7066963967,
				"z": -1.0387649106,
				"element": "H" 
			},
			{
				"x": -0.3101661221,
				"y": -3.0279479954,
				"z": -0.8360440627,
				"element": "H" 
			},
			{
				"x": -1.4088218429,
				"y": -3.1250573707,
				"z": 0.5542821032,
				"element": "H" 
			},
			{
				"x": -2.2077301399,
				"y": 2.2093359957,
				"z": 1.5984711169,
				"element": "H" 
			},
			{
				"x": -1.5028624159,
				"y": 2.9781967418,
				"z": 0.3282399942,
				"element": "H" 
			},
			{
				"x": -2.7836047505,
				"y": -0.2981049329,
				"z": 0.8599316403,
				"element": "H" 
			},
			{
				"x": 2.1418146622,
				"y": 0.5421860262,
				"z": -1.9418687754,
				"element": "H" 
			},
			{
				"x": 3.3501445181,
				"y": 1.4729971613,
				"z": -1.0270922611,
				"element": "H" 
			},
			{
				"x": 2.7496976122,
				"y": -0.0840329427,
				"z": -0.4104647782,
				"element": "H" 
			},
			{
				"x": 0.3492285784,
				"y": 3.5297895272,
				"z": -0.4469539845,
				"element": "H" 
			},
			{
				"x": 0.5513124621,
				"y": 2.5953287033,
				"z": -1.9501068673,
				"element": "H" 
			},
			{
				"x": 1.9285936443,
				"y": 3.4313450437,
				"z": -1.2130176568,
				"element": "H" 
			},
			{
				"x": 2.1621067007,
				"y": 1.0781210829,
				"z": 1.7720288167,
				"element": "H" 
			},
			{
				"x": 2.7540544494,
				"y": 2.6280001509,
				"z": 1.1429518909,
				"element": "H" 
			},
			{
				"x": 1.1002194903,
				"y": 2.5018078179,
				"z": 1.7823598993,
				"element": "H" 
			}
		],
		 "valence_orbital": [ 
			{
				"type": "occ",
				"energy": -0.33055,
				"method": "rhf"
			},
			{
				"type": "occ",
				"energy": -0.29534,
				"method": "rhf"
			},
			{
				"type": "occ",
				"energy": -0.26128,
				"method": "rhf"
			},
			{
				"type": "occ",
				"energy": -0.22259,
				"method": "rhf"
			},
			{
				"type": "occ",
				"energy": -0.20401,
				"method": "rhf"
			},
			{
				"type": "unocc",
				"energy": 0.04158,
				"method": "rhf"
			},
			{
				"type": "unocc",
				"energy": 0.07006,
				"method": "rhf"
			},
			{
				"type": "unocc",
				"energy": 0.08295,
				"method": "rhf"
			},
			{
				"type": "unocc",
				"energy": 0.10457,
				"method": "rhf"
			},
			{
				"type": "unocc",
				"energy": 0.11563,
				"method": "rhf"
			}
		],
		"cosmo_sigma_profile": { 
			"-0.025": 0.0,
			"-0.024": 0.0,
			"-0.023": 0.0,
			"-0.022": 0.0,
			"-0.021": 0.0,
			"-0.02": 0.0,
			"-0.019": 0.0,
			"-0.018": 0.0,
			"-0.017": 0.0,
			"-0.016": 0.0,
			"-0.015": 0.0,
			"-0.014": 0.0,
			"-0.013": 0.137056585912,
			"-0.012": 1.91697860107,
			"-0.011": 3.02418824497,
			"-0.01": 2.73297352983,
			"-0.009": 2.78979061373,
			"-0.008": 2.62779800592,
			"-0.007": 2.51860101091,
			"-0.006": 2.74262450115,
			"-0.005": 4.71033300128,
			"-0.004": 11.111577275,
			"-0.003": 20.9812354435,
			"-0.002": 22.0965720968,
			"-0.001": 23.1300564736,
			"0.0": 28.7042137145,
			"0.001": 25.5010875925,
			"0.002": 9.4025155594,
			"0.003": 6.45512497423,
			"0.004": 5.85901027531,
			"0.005": 6.99813896863,
			"0.006": 7.01798138373,
			"0.007": 6.33820928304,
			"0.008": 3.77572063021,
			"0.009": 3.02196365632,
			"0.01": 2.14078839529,
			"0.011": 1.9317066653,
			"0.012": 1.87582758446,
			"0.013": 1.08184275611,
			"0.014": 0.629497804181,
			"0.015": 0.697882181148,
			"0.016": 0.0,
			"0.017": 0.0,
			"0.018": 0.0,
			"0.019": 0.0,
			"0.02": 0.0,
			"0.021": 0.0,
			"0.022": 0.0,
			"0.023": 0.0,
			"0.024": 0.0,
			"0.025": 0.0
		}
	}
}
