{
	 "smiles": "COC1=C(C=C(C=C1)C(O)=O)S(=O)(=O)NC1CCCCC1C", 
	 "Tm": 475.15, 
	 "num_atms": 43, 
	 "gaussian": { 
		 "optdone": 1, 
		 "sigma_profile": "yes", 
		 "theory": "DFT", 
		 "functional": "B3LYP", 
		 "basiset": "6-31G**", 
		 "properties": { 
			 "R2extent": 9038.8038, 
			 "electric_dipole_moment_norm": 3.62280584354, 
			 "electric_quadrupole_moment_norm": 32.3288267325, 
			 "total_energy": -1413.24315434, 
			 "HOMO_LUMO_gap": 0.19333, 
			 "cosmo_polarized_energy": -26.76, 
			 "cosmo_cavitation_energy": 45.14, 
			 "cosmo_dispersion_energy": -31.01, 
			 "cosmo_repulsion_energy": 2.33, 
			 "cosmo_total_nonelectrostatic_energy": 16.47, 
			 "SMD_solvation_energy": 7.92 
		},
		"coords": [
			{
				"x": -4.2152603774,
				"y": 2.7422532452,
				"z": -0.0086652077,
				"element": "C" 
			},
			{
				"x": -3.203195945,
				"y": 2.0440791133,
				"z": -0.7259478132,
				"element": "O" 
			},
			{
				"x": -2.5124918458,
				"y": 1.0657794135,
				"z": -0.113232457,
				"element": "C" 
			},
			{
				"x": -1.5178151198,
				"y": 0.4136068979,
				"z": -0.8817614659,
				"element": "C" 
			},
			{
				"x": -0.7862748341,
				"y": -0.6276878991,
				"z": -0.3360080625,
				"element": "C" 
			},
			{
				"x": -1.0046121266,
				"y": -1.0487534607,
				"z": 0.9851430951,
				"element": "C" 
			},
			{
				"x": -1.9644035312,
				"y": -0.3804763577,
				"z": 1.7517370789,
				"element": "C" 
			},
			{
				"x": -2.7147567798,
				"y": 0.6637177439,
				"z": 1.2143753699,
				"element": "C" 
			},
			{
				"x": -0.1491959983,
				"y": -2.1606822394,
				"z": 1.5010017911,
				"element": "C" 
			},
			{
				"x": -0.5903012548,
				"y": -2.8123420365,
				"z": 2.611923774,
				"element": "O" 
			},
			{
				"x": 0.8929209378,
				"y": -2.4907293706,
				"z": 0.9837852222,
				"element": "O" 
			},
			{
				"x": -1.2728975915,
				"y": 0.9375719515,
				"z": -2.5935411051,
				"element": "S" 
			},
			{
				"x": -2.4111835263,
				"y": 0.4363063445,
				"z": -3.3732127859,
				"element": "O" 
			},
			{
				"x": -0.9232230084,
				"y": 2.3606101948,
				"z": -2.5902174468,
				"element": "O" 
			},
			{
				"x": 0.0643400303,
				"y": 0.02684889,
				"z": -3.0801924312,
				"element": "N" 
			},
			{
				"x": 1.3501320993,
				"y": 0.7251797482,
				"z": -3.3632840688,
				"element": "C" 
			},
			{
				"x": 2.0006670901,
				"y": 1.2066070774,
				"z": -2.0423754211,
				"element": "C" 
			},
			{
				"x": 3.530909382,
				"y": 1.2326602715,
				"z": -2.137437469,
				"element": "C" 
			},
			{
				"x": 4.0951259255,
				"y": -0.1922419051,
				"z": -2.3401002331,
				"element": "C" 
			},
			{
				"x": 3.1380175772,
				"y": -1.0777657215,
				"z": -3.1748597482,
				"element": "C" 
			},
			{
				"x": 2.3021969631,
				"y": -0.229224451,
				"z": -4.1477692491,
				"element": "C" 
			},
			{
				"x": 1.6094811579,
				"y": -1.0740462402,
				"z": -5.2258780343,
				"element": "C" 
			},
			{
				"x": -5.0108606524,
				"y": 2.0630921759,
				"z": 0.3195314953,
				"element": "H" 
			},
			{
				"x": -3.7975849433,
				"y": 3.2680539417,
				"z": 0.8578536453,
				"element": "H" 
			},
			{
				"x": -4.6232365604,
				"y": 3.4679657745,
				"z": -0.7115959903,
				"element": "H" 
			},
			{
				"x": -0.0349393693,
				"y": -1.1290345168,
				"z": -0.9322717829,
				"element": "H" 
			},
			{
				"x": -2.1222313349,
				"y": -0.6379588652,
				"z": 2.7964022269,
				"element": "H" 
			},
			{
				"x": -3.4489938208,
				"y": 1.1663899047,
				"z": 1.8313378569,
				"element": "H" 
			},
			{
				"x": -1.5073659623,
				"y": -2.5709312299,
				"z": 2.8005442032,
				"element": "H" 
			},
			{
				"x": -0.2691818226,
				"y": -0.5273485976,
				"z": -3.8642284974,
				"element": "H" 
			},
			{
				"x": 1.1510866212,
				"y": 1.5972972367,
				"z": -3.998874116,
				"element": "H" 
			},
			{
				"x": 1.600661013,
				"y": 2.1886307182,
				"z": -1.7775138128,
				"element": "H" 
			},
			{
				"x": 1.7143534706,
				"y": 0.519426471,
				"z": -1.2379760231,
				"element": "H" 
			},
			{
				"x": 3.8348304844,
				"y": 1.8845262819,
				"z": -2.9667417317,
				"element": "H" 
			},
			{
				"x": 3.9531848419,
				"y": 1.6822171344,
				"z": -1.2324462831,
				"element": "H" 
			},
			{
				"x": 4.2671070614,
				"y": -0.6646379318,
				"z": -1.3664554172,
				"element": "H" 
			},
			{
				"x": 5.0735458181,
				"y": -0.1307498826,
				"z": -2.8311538892,
				"element": "H" 
			},
			{
				"x": 2.4587574428,
				"y": -1.631738839,
				"z": -2.5148981659,
				"element": "H" 
			},
			{
				"x": 3.7070293324,
				"y": -1.8329614678,
				"z": -3.7290611313,
				"element": "H" 
			},
			{
				"x": 2.99391524,
				"y": 0.4408707835,
				"z": -4.6758803301,
				"element": "H" 
			},
			{
				"x": 2.3584778663,
				"y": -1.5546413546,
				"z": -5.862788496,
				"element": "H" 
			},
			{
				"x": 1.003362126,
				"y": -1.879616974,
				"z": -4.794143683,
				"element": "H" 
			},
			{
				"x": 0.9684039236,
				"y": -0.467421973,
				"z": -5.87662341,
				"element": "H" 
			}
		],
		 "valence_orbital": [ 
			{
				"type": "occ",
				"energy": -0.29492,
				"method": "rhf"
			},
			{
				"type": "occ",
				"energy": -0.27937,
				"method": "rhf"
			},
			{
				"type": "occ",
				"energy": -0.27531,
				"method": "rhf"
			},
			{
				"type": "occ",
				"energy": -0.2632,
				"method": "rhf"
			},
			{
				"type": "occ",
				"energy": -0.24849,
				"method": "rhf"
			},
			{
				"type": "unocc",
				"energy": -0.05516,
				"method": "rhf"
			},
			{
				"type": "unocc",
				"energy": -0.03842,
				"method": "rhf"
			},
			{
				"type": "unocc",
				"energy": 0.0361,
				"method": "rhf"
			},
			{
				"type": "unocc",
				"energy": 0.04714,
				"method": "rhf"
			},
			{
				"type": "unocc",
				"energy": 0.06,
				"method": "rhf"
			}
		],
		"cosmo_sigma_profile": { 
			"-0.025": 0.0,
			"-0.024": 0.0,
			"-0.023": 0.0,
			"-0.022": 0.0,
			"-0.021": 0.0,
			"-0.02": 0.028866149036,
			"-0.019": 0.663346732315,
			"-0.018": 0.832176526913,
			"-0.017": 1.08964602708,
			"-0.016": 0.889176951172,
			"-0.015": 1.32526334938,
			"-0.014": 0.346862966703,
			"-0.013": 1.35569600739,
			"-0.012": 1.02220700201,
			"-0.011": 2.17032868009,
			"-0.01": 2.23971413842,
			"-0.009": 3.4967289151,
			"-0.008": 7.28764993151,
			"-0.007": 10.6432281825,
			"-0.006": 14.0603162322,
			"-0.005": 13.3956042823,
			"-0.004": 19.0959433018,
			"-0.003": 28.8822874231,
			"-0.002": 37.7267768906,
			"-0.001": 44.180558722,
			"0.0": 39.9743028805,
			"0.001": 31.6390277496,
			"0.002": 10.7523573028,
			"0.003": 4.76121573409,
			"0.004": 5.40040193463,
			"0.005": 5.72031998345,
			"0.006": 5.01960016595,
			"0.007": 5.19193776601,
			"0.008": 6.34603323111,
			"0.009": 8.89115938117,
			"0.01": 11.0280376765,
			"0.011": 16.3486496445,
			"0.012": 10.3463003222,
			"0.013": 1.99707707676,
			"0.014": 0.112931162007,
			"0.015": 0.0,
			"0.016": 0.0,
			"0.017": 0.0,
			"0.018": 0.0,
			"0.019": 0.0,
			"0.02": 0.0,
			"0.021": 0.0,
			"0.022": 0.0,
			"0.023": 0.0,
			"0.024": 0.0,
			"0.025": 0.0
		}
	}
}
