{
	 "smiles": "BrC1=CN=C2C=CC=CN12", 
	 "Tm": 366.15, 
	 "num_atms": 15, 
	 "gaussian": { 
		 "optdone": 1, 
		 "sigma_profile": "yes", 
		 "theory": "DFT", 
		 "functional": "B3LYP", 
		 "basiset": "6-31G**", 
		 "properties": { 
			 "R2extent": 3357.713, 
			 "electric_dipole_moment_norm": 2.81947268297, 
			 "electric_quadrupole_moment_norm": 4.07179288643, 
			 "total_energy": -2950.64877016, 
			 "HOMO_LUMO_gap": 0.17238, 
			 "cosmo_polarized_energy": -7.69, 
			 "cosmo_cavitation_energy": 21.44, 
			 "cosmo_dispersion_energy": -16.68, 
			 "cosmo_repulsion_energy": 1.32, 
			 "cosmo_total_nonelectrostatic_energy": 6.08, 
			 "SMD_solvation_energy": 1.22 
		},
		"coords": [
			{
				"x": 1.8681655681,
				"y": -3.2922008478,
				"z": 1.9882333072,
				"element": "Br" 
			},
			{
				"x": 0.5924720927,
				"y": -1.9872886957,
				"z": 1.5607482288,
				"element": "C" 
			},
			{
				"x": -0.5719988755,
				"y": -1.6062017281,
				"z": 2.1975617008,
				"element": "C" 
			},
			{
				"x": -1.198675899,
				"y": -0.6029937267,
				"z": 1.5269389017,
				"element": "N" 
			},
			{
				"x": -0.4325904471,
				"y": -0.3486675845,
				"z": 0.4669135513,
				"element": "C" 
			},
			{
				"x": -0.5847470612,
				"y": 0.5900848511,
				"z": -0.5786461745,
				"element": "C" 
			},
			{
				"x": 0.359887582,
				"y": 0.6582315155,
				"z": -1.5740896686,
				"element": "C" 
			},
			{
				"x": 1.4885937722,
				"y": -0.2106128348,
				"z": -1.5568011719,
				"element": "C" 
			},
			{
				"x": 1.6487539388,
				"y": -1.1229311533,
				"z": -0.5525829597,
				"element": "C" 
			},
			{
				"x": 0.701480748,
				"y": -1.1882647375,
				"z": 0.4415955551,
				"element": "N" 
			},
			{
				"x": -0.9705830972,
				"y": -2.0241654635,
				"z": 3.1116690178,
				"element": "H" 
			},
			{
				"x": -1.45683534,
				"y": 1.2332904217,
				"z": -0.5562829722,
				"element": "H" 
			},
			{
				"x": 0.251304973,
				"y": 1.3756401646,
				"z": -2.3806394981,
				"element": "H" 
			},
			{
				"x": 2.2356955855,
				"y": -0.1595011395,
				"z": -2.3404455022,
				"element": "H" 
			},
			{
				"x": 2.4777764597,
				"y": -1.8141190416,
				"z": -0.4724723156,
				"element": "H" 
			}
		],
		 "valence_orbital": [ 
			{
				"type": "occ",
				"energy": -0.31316,
				"method": "rhf"
			},
			{
				"type": "occ",
				"energy": -0.3094,
				"method": "rhf"
			},
			{
				"type": "occ",
				"energy": -0.27443,
				"method": "rhf"
			},
			{
				"type": "occ",
				"energy": -0.25095,
				"method": "rhf"
			},
			{
				"type": "occ",
				"energy": -0.2116,
				"method": "rhf"
			},
			{
				"type": "unocc",
				"energy": -0.03922,
				"method": "rhf"
			},
			{
				"type": "unocc",
				"energy": -0.00499,
				"method": "rhf"
			},
			{
				"type": "unocc",
				"energy": 0.00554,
				"method": "rhf"
			},
			{
				"type": "unocc",
				"energy": 0.05887,
				"method": "rhf"
			},
			{
				"type": "unocc",
				"energy": 0.0872,
				"method": "rhf"
			}
		],
		"cosmo_sigma_profile": { 
			"-0.025": 0.0,
			"-0.024": 0.0,
			"-0.023": 0.0,
			"-0.022": 0.0,
			"-0.021": 0.0,
			"-0.02": 0.0,
			"-0.019": 0.0,
			"-0.018": 0.0,
			"-0.017": 0.0,
			"-0.016": 0.0,
			"-0.015": 0.0,
			"-0.014": 0.0,
			"-0.013": 0.0,
			"-0.012": 0.0,
			"-0.011": 0.0,
			"-0.01": 0.0,
			"-0.009": 0.542293929928,
			"-0.008": 3.58267918698,
			"-0.007": 8.55786555214,
			"-0.006": 11.1897585503,
			"-0.005": 11.608778178,
			"-0.004": 8.34932298837,
			"-0.003": 10.7278124831,
			"-0.002": 11.7968356562,
			"-0.001": 13.7680421836,
			"0.0": 14.0181956432,
			"0.001": 17.2228094796,
			"0.002": 20.3412563773,
			"0.003": 21.6364676814,
			"0.004": 6.87815394793,
			"0.005": 2.16484824253,
			"0.006": 1.46175945544,
			"0.007": 1.47134807316,
			"0.008": 1.89989308198,
			"0.009": 1.2483901473,
			"0.01": 0.863721132532,
			"0.011": 0.634640236779,
			"0.012": 1.75265575879,
			"0.013": 1.22900123468,
			"0.014": 0.690175353287,
			"0.015": 1.10031558986,
			"0.016": 1.19015306344,
			"0.017": 0.794827261828,
			"0.018": 0.113112354409,
			"0.019": 0.0,
			"0.02": 0.0,
			"0.021": 0.0,
			"0.022": 0.0,
			"0.023": 0.0,
			"0.024": 0.0,
			"0.025": 0.0
		}
	}
}
