{
	 "smiles": "CN(C)P(N(C)C)N(C)C", 
	 "Tm": 229.15, 
	 "num_atms": 28, 
	 "gaussian": { 
		 "optdone": 1, 
		 "sigma_profile": "yes", 
		 "theory": "DFT", 
		 "functional": "B3LYP", 
		 "basiset": "6-31G**", 
		 "properties": { 
			 "R2extent": 1999.1643, 
			 "electric_dipole_moment_norm": 0.99279202253, 
			 "electric_quadrupole_moment_norm": 3.08264452054, 
			 "total_energy": -745.083125663, 
			 "HOMO_LUMO_gap": 0.24704, 
			 "cosmo_polarized_energy": -3.36, 
			 "cosmo_cavitation_energy": 29.25, 
			 "cosmo_dispersion_energy": -20.58, 
			 "cosmo_repulsion_energy": 1.72, 
			 "cosmo_total_nonelectrostatic_energy": 10.39, 
			 "SMD_solvation_energy": 6.24 
		},
		"coords": [
			{
				"x": -3.2001833681,
				"y": 0.2464535008,
				"z": 0.3908067911,
				"element": "C" 
			},
			{
				"x": -1.9332132555,
				"y": -0.4714815229,
				"z": 0.2307419848,
				"element": "N" 
			},
			{
				"x": -2.1755087591,
				"y": -1.7945629145,
				"z": -0.3499460183,
				"element": "C" 
			},
			{
				"x": -0.6645453988,
				"y": 0.458369242,
				"z": -0.5752595437,
				"element": "P" 
			},
			{
				"x": 0.6208259261,
				"y": -0.6635534745,
				"z": -0.3188234062,
				"element": "N" 
			},
			{
				"x": 1.7374355216,
				"y": -0.618021892,
				"z": -1.251735475,
				"element": "C" 
			},
			{
				"x": 0.9439764374,
				"y": -1.290542292,
				"z": 0.9555876354,
				"element": "C" 
			},
			{
				"x": -0.5933202746,
				"y": 1.7550955644,
				"z": 0.5602501685,
				"element": "N" 
			},
			{
				"x": -0.5092669286,
				"y": 1.5997555277,
				"z": 2.0060755935,
				"element": "C" 
			},
			{
				"x": -0.0970240033,
				"y": 3.0351236492,
				"z": 0.0761667275,
				"element": "C" 
			},
			{
				"x": -3.0273357402,
				"y": 1.2324887948,
				"z": 0.822718406,
				"element": "H" 
			},
			{
				"x": -3.7441901141,
				"y": 0.3787748295,
				"z": -0.561486033,
				"element": "H" 
			},
			{
				"x": -3.8514722552,
				"y": -0.3202535288,
				"z": 1.0673418353,
				"element": "H" 
			},
			{
				"x": -1.2363243879,
				"y": -2.3345958082,
				"z": -0.4722275139,
				"element": "H" 
			},
			{
				"x": -2.8223555167,
				"y": -2.3696800964,
				"z": 0.3237290903,
				"element": "H" 
			},
			{
				"x": -2.6763938781,
				"y": -1.7486539826,
				"z": -1.3334566873,
				"element": "H" 
			},
			{
				"x": 2.0859893463,
				"y": -1.6343139069,
				"z": -1.4843731373,
				"element": "H" 
			},
			{
				"x": 1.4224723024,
				"y": -0.1439115448,
				"z": -2.1854488183,
				"element": "H" 
			},
			{
				"x": 2.5994675262,
				"y": -0.0559052684,
				"z": -0.8554501184,
				"element": "H" 
			},
			{
				"x": 1.3115451067,
				"y": -2.3136411972,
				"z": 0.7921969746,
				"element": "H" 
			},
			{
				"x": 0.048354035,
				"y": -1.3463629558,
				"z": 1.5763635039,
				"element": "H" 
			},
			{
				"x": 1.7254736385,
				"y": -0.7427440407,
				"z": 1.5069738998,
				"element": "H" 
			},
			{
				"x": -1.0624477374,
				"y": 2.4071094126,
				"z": 2.5068100691,
				"element": "H" 
			},
			{
				"x": 0.5296714689,
				"y": 1.6343935365,
				"z": 2.3723776769,
				"element": "H" 
			},
			{
				"x": -0.955270765,
				"y": 0.6485663318,
				"z": 2.3008667712,
				"element": "H" 
			},
			{
				"x": 0.9624347983,
				"y": 3.2039479363,
				"z": 0.3313547282,
				"element": "H" 
			},
			{
				"x": -0.6761973412,
				"y": 3.8619495794,
				"z": 0.5113942841,
				"element": "H" 
			},
			{
				"x": -0.1968963837,
				"y": 3.0848965205,
				"z": -1.0116493891,
				"element": "H" 
			}
		],
		 "valence_orbital": [ 
			{
				"type": "occ",
				"energy": -0.3393,
				"method": "rhf"
			},
			{
				"type": "occ",
				"energy": -0.27372,
				"method": "rhf"
			},
			{
				"type": "occ",
				"energy": -0.23428,
				"method": "rhf"
			},
			{
				"type": "occ",
				"energy": -0.19925,
				"method": "rhf"
			},
			{
				"type": "occ",
				"energy": -0.19295,
				"method": "rhf"
			},
			{
				"type": "unocc",
				"energy": 0.05409,
				"method": "rhf"
			},
			{
				"type": "unocc",
				"energy": 0.07244,
				"method": "rhf"
			},
			{
				"type": "unocc",
				"energy": 0.08127,
				"method": "rhf"
			},
			{
				"type": "unocc",
				"energy": 0.11581,
				"method": "rhf"
			},
			{
				"type": "unocc",
				"energy": 0.11822,
				"method": "rhf"
			}
		],
		"cosmo_sigma_profile": { 
			"-0.025": 0.0,
			"-0.024": 0.0,
			"-0.023": 0.0,
			"-0.022": 0.0,
			"-0.021": 0.0,
			"-0.02": 0.0,
			"-0.019": 0.0,
			"-0.018": 0.0,
			"-0.017": 0.0,
			"-0.016": 0.0,
			"-0.015": 0.0,
			"-0.014": 0.0,
			"-0.013": 0.0,
			"-0.012": 0.0,
			"-0.011": 0.0,
			"-0.01": 0.0,
			"-0.009": 0.0,
			"-0.008": 0.0,
			"-0.007": 0.0,
			"-0.006": 0.0,
			"-0.005": 0.0,
			"-0.004": 1.86587815094,
			"-0.003": 19.9413178906,
			"-0.002": 39.3398246688,
			"-0.001": 48.1515223224,
			"0.0": 58.4688539904,
			"0.001": 19.9305534224,
			"0.002": 9.26081432366,
			"0.003": 7.25505649154,
			"0.004": 7.0338050039,
			"0.005": 4.53689485189,
			"0.006": 2.59555324873,
			"0.007": 1.78551402038,
			"0.008": 1.43761361809,
			"0.009": 0.794125135593,
			"0.01": 0.809646104366,
			"0.011": 0.672305264978,
			"0.012": 0.518182122339,
			"0.013": 0.651684548188,
			"0.014": 0.38364951898,
			"0.015": 0.0798066988772,
			"0.016": 0.0,
			"0.017": 0.0,
			"0.018": 0.0,
			"0.019": 0.0,
			"0.02": 0.0,
			"0.021": 0.0,
			"0.022": 0.0,
			"0.023": 0.0,
			"0.024": 0.0,
			"0.025": 0.0
		}
	}
}
