{
	 "smiles": "ClS(=O)(=O)C1=CC2=C(O1)C=CC=C2", 
	 "Tm": 353.15, 
	 "num_atms": 18, 
	 "gaussian": { 
		 "optdone": 1, 
		 "sigma_profile": "yes", 
		 "theory": "DFT", 
		 "functional": "B3LYP", 
		 "basiset": "6-31G**", 
		 "properties": { 
			 "R2extent": 4737.2911, 
			 "electric_dipole_moment_norm": 5.71890026753, 
			 "electric_quadrupole_moment_norm": 14.7863620161, 
			 "total_energy": -1391.82150338, 
			 "HOMO_LUMO_gap": 0.1632, 
			 "cosmo_polarized_energy": -8.88, 
			 "cosmo_cavitation_energy": 26.62, 
			 "cosmo_dispersion_energy": -20.26, 
			 "cosmo_repulsion_energy": 1.55, 
			 "cosmo_total_nonelectrostatic_energy": 7.91, 
			 "SMD_solvation_energy": 3.54 
		},
		"coords": [
			{
				"x": 1.5482028669,
				"y": 3.3646486568,
				"z": 3.3245125058,
				"element": "Cl" 
			},
			{
				"x": 0.947538562,
				"y": 1.3575070425,
				"z": 3.660603416,
				"element": "S" 
			},
			{
				"x": 2.1334777796,
				"y": 0.6476990894,
				"z": 4.1120160888,
				"element": "O" 
			},
			{
				"x": -0.2896727387,
				"y": 1.4085552063,
				"z": 4.4266912383,
				"element": "O" 
			},
			{
				"x": 0.5193490708,
				"y": 0.8443637502,
				"z": 2.0331845558,
				"element": "C" 
			},
			{
				"x": -0.7134641048,
				"y": 0.5961830458,
				"z": 1.5143783226,
				"element": "C" 
			},
			{
				"x": -0.4687086662,
				"y": 0.1920623393,
				"z": 0.1556663391,
				"element": "C" 
			},
			{
				"x": 0.9295749172,
				"y": 0.2506334222,
				"z": -0.0147727513,
				"element": "C" 
			},
			{
				"x": 1.5380335318,
				"y": 0.6539978521,
				"z": 1.1459348199,
				"element": "O" 
			},
			{
				"x": 1.5783041524,
				"y": -0.0670065407,
				"z": -1.2028157251,
				"element": "C" 
			},
			{
				"x": 0.7602434021,
				"y": -0.4581825675,
				"z": -2.2591200196,
				"element": "C" 
			},
			{
				"x": -0.6425519799,
				"y": -0.5277767383,
				"z": -2.1235556216,
				"element": "C" 
			},
			{
				"x": -1.2710909911,
				"y": -0.2085499454,
				"z": -0.9271454239,
				"element": "C" 
			},
			{
				"x": -1.6537087083,
				"y": 0.6882370277,
				"z": 2.0368586165,
				"element": "H" 
			},
			{
				"x": 2.6570681696,
				"y": -0.0101017276,
				"z": -1.2914552162,
				"element": "H" 
			},
			{
				"x": 1.2133898549,
				"y": -0.7164003455,
				"z": -3.2111605556,
				"element": "H" 
			},
			{
				"x": -1.2393488303,
				"y": -0.8384408064,
				"z": -2.975337292,
				"element": "H" 
			},
			{
				"x": -2.350436288,
				"y": -0.2649287609,
				"z": -0.8288832974,
				"element": "H" 
			}
		],
		 "valence_orbital": [ 
			{
				"type": "occ",
				"energy": -0.34088,
				"method": "rhf"
			},
			{
				"type": "occ",
				"energy": -0.32579,
				"method": "rhf"
			},
			{
				"type": "occ",
				"energy": -0.31773,
				"method": "rhf"
			},
			{
				"type": "occ",
				"energy": -0.26842,
				"method": "rhf"
			},
			{
				"type": "occ",
				"energy": -0.25762,
				"method": "rhf"
			},
			{
				"type": "unocc",
				"energy": -0.09442,
				"method": "rhf"
			},
			{
				"type": "unocc",
				"energy": -0.05319,
				"method": "rhf"
			},
			{
				"type": "unocc",
				"energy": -0.01686,
				"method": "rhf"
			},
			{
				"type": "unocc",
				"energy": 0.00917,
				"method": "rhf"
			},
			{
				"type": "unocc",
				"energy": 0.04905,
				"method": "rhf"
			}
		],
		"cosmo_sigma_profile": { 
			"-0.025": 0.0,
			"-0.024": 0.0,
			"-0.023": 0.0,
			"-0.022": 0.0,
			"-0.021": 0.0,
			"-0.02": 0.0,
			"-0.019": 0.0,
			"-0.018": 0.0,
			"-0.017": 0.0,
			"-0.016": 0.0,
			"-0.015": 0.0,
			"-0.014": 0.0,
			"-0.013": 0.0,
			"-0.012": 0.0,
			"-0.011": 0.168695015581,
			"-0.01": 1.29591550634,
			"-0.009": 1.78991228984,
			"-0.008": 3.62182753434,
			"-0.007": 8.11099683149,
			"-0.006": 11.7889966802,
			"-0.005": 12.9975492491,
			"-0.004": 11.2299683299,
			"-0.003": 12.1166164126,
			"-0.002": 15.7607620908,
			"-0.001": 15.9148051316,
			"0.0": 19.3422442127,
			"0.001": 18.4850308656,
			"0.002": 22.5888181513,
			"0.003": 24.265900396,
			"0.004": 8.37902979844,
			"0.005": 4.92158229688,
			"0.006": 4.72584783452,
			"0.007": 9.14816147649,
			"0.008": 10.0085598115,
			"0.009": 1.24876479679,
			"0.01": 0.0,
			"0.011": 0.0,
			"0.012": 0.0,
			"0.013": 0.0,
			"0.014": 0.0,
			"0.015": 0.0,
			"0.016": 0.0,
			"0.017": 0.0,
			"0.018": 0.0,
			"0.019": 0.0,
			"0.02": 0.0,
			"0.021": 0.0,
			"0.022": 0.0,
			"0.023": 0.0,
			"0.024": 0.0,
			"0.025": 0.0
		}
	}
}
