{
	 "smiles": "CCNC1=CC2=C(C=C1)C(=CC(=O)O2)C(F)(F)F", 
	 "Tm": 431.15, 
	 "num_atms": 28, 
	 "gaussian": { 
		 "optdone": 1, 
		 "sigma_profile": "yes", 
		 "theory": "DFT", 
		 "functional": "B3LYP", 
		 "basiset": "6-31G**", 
		 "properties": { 
			 "R2extent": 5709.8887, 
			 "electric_dipole_moment_norm": 6.75956072685, 
			 "electric_quadrupole_moment_norm": 21.4113808915, 
			 "total_energy": -968.039579874, 
			 "HOMO_LUMO_gap": 0.14098, 
			 "cosmo_polarized_energy": -13.26, 
			 "cosmo_cavitation_energy": 33.31, 
			 "cosmo_dispersion_energy": -23.98, 
			 "cosmo_repulsion_energy": 1.78, 
			 "cosmo_total_nonelectrostatic_energy": 11.11, 
			 "SMD_solvation_energy": 7.24 
		},
		"coords": [
			{
				"x": 4.2108664735,
				"y": -1.590569353,
				"z": 1.8863900648,
				"element": "C" 
			},
			{
				"x": 4.2466396441,
				"y": -0.2448266222,
				"z": 1.1502425039,
				"element": "C" 
			},
			{
				"x": 3.1906651708,
				"y": 0.6822773688,
				"z": 1.5328982909,
				"element": "N" 
			},
			{
				"x": 1.8714504753,
				"y": 0.5779881884,
				"z": 1.1622512704,
				"element": "C" 
			},
			{
				"x": 0.9134940369,
				"y": 1.4028332088,
				"z": 1.7804760109,
				"element": "C" 
			},
			{
				"x": -0.4161198637,
				"y": 1.3420741273,
				"z": 1.3917121121,
				"element": "C" 
			},
			{
				"x": -0.8631631791,
				"y": 0.4633324002,
				"z": 0.3776399545,
				"element": "C" 
			},
			{
				"x": 0.1087551509,
				"y": -0.3592826832,
				"z": -0.2298456752,
				"element": "C" 
			},
			{
				"x": 1.4373819566,
				"y": -0.3131520811,
				"z": 0.1461178618,
				"element": "C" 
			},
			{
				"x": -2.2701717266,
				"y": 0.4912323601,
				"z": 0.0648122822,
				"element": "C" 
			},
			{
				"x": -3.113726703,
				"y": 1.3273168511,
				"z": 0.7202983288,
				"element": "C" 
			},
			{
				"x": -2.6427359259,
				"y": 2.2276384475,
				"z": 1.762979559,
				"element": "C" 
			},
			{
				"x": -3.3223487314,
				"y": 3.0010513694,
				"z": 2.3956803941,
				"element": "O" 
			},
			{
				"x": -1.2774106795,
				"y": 2.1777538242,
				"z": 2.0435277747,
				"element": "O" 
			},
			{
				"x": -2.8175267309,
				"y": -0.4224468987,
				"z": -1.0091142348,
				"element": "C" 
			},
			{
				"x": -4.1434594741,
				"y": -0.276846779,
				"z": -1.1811834116,
				"element": "F" 
			},
			{
				"x": -2.588529744,
				"y": -1.7210863361,
				"z": -0.7079588614,
				"element": "F" 
			},
			{
				"x": -2.2256003255,
				"y": -0.1834907137,
				"z": -2.2013431479,
				"element": "F" 
			},
			{
				"x": 4.315404458,
				"y": -1.4471157574,
				"z": 2.9666722985,
				"element": "H" 
			},
			{
				"x": 5.0300071943,
				"y": -2.2339343916,
				"z": 1.5481758831,
				"element": "H" 
			},
			{
				"x": 3.2677704389,
				"y": -2.1145833123,
				"z": 1.7060212837,
				"element": "H" 
			},
			{
				"x": 5.198868038,
				"y": 0.2606067447,
				"z": 1.341537026,
				"element": "H" 
			},
			{
				"x": 4.2020185763,
				"y": -0.4001902761,
				"z": 0.066926754,
				"element": "H" 
			},
			{
				"x": 3.3670626274,
				"y": 1.2359401488,
				"z": 2.3581994895,
				"element": "H" 
			},
			{
				"x": 1.1944129196,
				"y": 2.101370635,
				"z": 2.562215887,
				"element": "H" 
			},
			{
				"x": -0.1902898337,
				"y": -1.049638609,
				"z": -1.009077183,
				"element": "H" 
			},
			{
				"x": 2.1469167466,
				"y": -0.9666990922,
				"z": -0.3463441602,
				"element": "H" 
			},
			{
				"x": -4.1721309897,
				"y": 1.3661472312,
				"z": 0.5023916444,
				"element": "H" 
			}
		],
		 "valence_orbital": [ 
			{
				"type": "occ",
				"energy": -0.3424,
				"method": "rhf"
			},
			{
				"type": "occ",
				"energy": -0.28557,
				"method": "rhf"
			},
			{
				"type": "occ",
				"energy": -0.27367,
				"method": "rhf"
			},
			{
				"type": "occ",
				"energy": -0.2489,
				"method": "rhf"
			},
			{
				"type": "occ",
				"energy": -0.2113,
				"method": "rhf"
			},
			{
				"type": "unocc",
				"energy": -0.07032,
				"method": "rhf"
			},
			{
				"type": "unocc",
				"energy": -0.01216,
				"method": "rhf"
			},
			{
				"type": "unocc",
				"energy": 0.00381,
				"method": "rhf"
			},
			{
				"type": "unocc",
				"energy": 0.06209,
				"method": "rhf"
			},
			{
				"type": "unocc",
				"energy": 0.08092,
				"method": "rhf"
			}
		],
		"cosmo_sigma_profile": { 
			"-0.025": 0.0,
			"-0.024": 0.0,
			"-0.023": 0.0,
			"-0.022": 0.0,
			"-0.021": 0.0,
			"-0.02": 0.0,
			"-0.019": 0.0,
			"-0.018": 0.0,
			"-0.017": 0.0,
			"-0.016": 0.0,
			"-0.015": 0.0,
			"-0.014": 0.731679836571,
			"-0.013": 1.64660815422,
			"-0.012": 1.09127527419,
			"-0.011": 1.80515337901,
			"-0.01": 1.21293812915,
			"-0.009": 2.00145759372,
			"-0.008": 2.72678723094,
			"-0.007": 5.77688235027,
			"-0.006": 8.13338562574,
			"-0.005": 11.2506204569,
			"-0.004": 16.205396779,
			"-0.003": 23.293567114,
			"-0.002": 20.7995901894,
			"-0.001": 23.3359860555,
			"0.0": 23.8592584734,
			"0.001": 28.4623388277,
			"0.002": 39.1154084142,
			"0.003": 19.5736237943,
			"0.004": 6.53787944198,
			"0.005": 3.24048241873,
			"0.006": 3.05428257791,
			"0.007": 1.77581502104,
			"0.008": 2.86014843268,
			"0.009": 2.62750466381,
			"0.01": 2.91650454112,
			"0.011": 4.13755020183,
			"0.012": 6.00213062575,
			"0.013": 2.00549025793,
			"0.014": 0.013379015103,
			"0.015": 0.0,
			"0.016": 0.0,
			"0.017": 0.0,
			"0.018": 0.0,
			"0.019": 0.0,
			"0.02": 0.0,
			"0.021": 0.0,
			"0.022": 0.0,
			"0.023": 0.0,
			"0.024": 0.0,
			"0.025": 0.0
		}
	}
}
