{
	 "smiles": "CSC1=NC(N)=CC(N)=N1", 
	 "Tm": 464.15, 
	 "num_atms": 18, 
	 "gaussian": { 
		 "optdone": 1, 
		 "sigma_profile": "yes", 
		 "theory": "DFT", 
		 "functional": "B3LYP", 
		 "basiset": "6-31G**", 
		 "properties": { 
			 "R2extent": 2121.9219, 
			 "electric_dipole_moment_norm": 4.03783539288, 
			 "electric_quadrupole_moment_norm": 13.8040329632, 
			 "total_energy": -812.575626769, 
			 "HOMO_LUMO_gap": 0.21085, 
			 "cosmo_polarized_energy": -16.44, 
			 "cosmo_cavitation_energy": 23.75, 
			 "cosmo_dispersion_energy": -18.33, 
			 "cosmo_repulsion_energy": 1.48, 
			 "cosmo_total_nonelectrostatic_energy": 6.9, 
			 "SMD_solvation_energy": 1.86 
		},
		"coords": [
			{
				"x": 0.8594817669,
				"y": 1.3368926651,
				"z": -2.9321294923,
				"element": "C" 
			},
			{
				"x": 1.4935040298,
				"y": 0.3624609761,
				"z": -1.5271808972,
				"element": "S" 
			},
			{
				"x": 0.3100768741,
				"y": 0.7529615386,
				"z": -0.2565675433,
				"element": "C" 
			},
			{
				"x": 0.5554090334,
				"y": 0.1299544855,
				"z": 0.8974982359,
				"element": "N" 
			},
			{
				"x": -0.3088327738,
				"y": 0.3923368318,
				"z": 1.8957921232,
				"element": "C" 
			},
			{
				"x": -0.0342942634,
				"y": -0.2102239169,
				"z": 3.0971461013,
				"element": "N" 
			},
			{
				"x": -1.4008079319,
				"y": 1.2567946731,
				"z": 1.7309748447,
				"element": "C" 
			},
			{
				"x": -1.5441375993,
				"y": 1.8407609707,
				"z": 0.4686308859,
				"element": "C" 
			},
			{
				"x": -2.5931496636,
				"y": 2.672566527,
				"z": 0.1637367538,
				"element": "N" 
			},
			{
				"x": -0.6810220422,
				"y": 1.5952292942,
				"z": -0.5415032268,
				"element": "N" 
			},
			{
				"x": 1.5383355381,
				"y": 1.1367342229,
				"z": -3.7644386849,
				"element": "H" 
			},
			{
				"x": 0.8619732466,
				"y": 2.4021136249,
				"z": -2.6988347996,
				"element": "H" 
			},
			{
				"x": -0.1523092124,
				"y": 1.0261317107,
				"z": -3.194297395,
				"element": "H" 
			},
			{
				"x": -0.7808674985,
				"y": -0.3135940814,
				"z": 3.7660701192,
				"element": "H" 
			},
			{
				"x": 0.636690897,
				"y": -0.9631210308,
				"z": 3.0526867868,
				"element": "H" 
			},
			{
				"x": -2.0956376843,
				"y": 1.4617618882,
				"z": 2.5384831546,
				"element": "H" 
			},
			{
				"x": -2.4800024872,
				"y": 3.207284059,
				"z": -0.6848390397,
				"element": "H" 
			},
			{
				"x": -3.0716102294,
				"y": 3.1356555613,
				"z": 0.9204720735,
				"element": "H" 
			}
		],
		 "valence_orbital": [ 
			{
				"type": "occ",
				"energy": -0.28632,
				"method": "rhf"
			},
			{
				"type": "occ",
				"energy": -0.24778,
				"method": "rhf"
			},
			{
				"type": "occ",
				"energy": -0.23882,
				"method": "rhf"
			},
			{
				"type": "occ",
				"energy": -0.23429,
				"method": "rhf"
			},
			{
				"type": "occ",
				"energy": -0.20724,
				"method": "rhf"
			},
			{
				"type": "unocc",
				"energy": 0.00361,
				"method": "rhf"
			},
			{
				"type": "unocc",
				"energy": 0.01094,
				"method": "rhf"
			},
			{
				"type": "unocc",
				"energy": 0.05397,
				"method": "rhf"
			},
			{
				"type": "unocc",
				"energy": 0.08245,
				"method": "rhf"
			},
			{
				"type": "unocc",
				"energy": 0.08522,
				"method": "rhf"
			}
		],
		"cosmo_sigma_profile": { 
			"-0.025": 0.0,
			"-0.024": 0.0,
			"-0.023": 0.0,
			"-0.022": 0.0,
			"-0.021": 0.0,
			"-0.02": 0.0,
			"-0.019": 0.0,
			"-0.018": 0.0,
			"-0.017": 0.0,
			"-0.016": 0.0,
			"-0.015": 0.0,
			"-0.014": 1.15885584855,
			"-0.013": 3.84213838599,
			"-0.012": 5.09264377126,
			"-0.011": 4.78866052121,
			"-0.01": 4.36702631745,
			"-0.009": 4.70402422935,
			"-0.008": 5.69729586845,
			"-0.007": 5.81515720483,
			"-0.006": 6.44648390094,
			"-0.005": 7.30341327026,
			"-0.004": 8.81434984049,
			"-0.003": 8.14440256419,
			"-0.002": 9.18711156873,
			"-0.001": 9.79169817703,
			"0.0": 7.40271970754,
			"0.001": 8.49160427162,
			"0.002": 12.6706902437,
			"0.003": 12.2774998502,
			"0.004": 11.4093404014,
			"0.005": 9.7880399057,
			"0.006": 9.31045936658,
			"0.007": 9.45396888096,
			"0.008": 9.01502310155,
			"0.009": 6.11050349816,
			"0.01": 3.49546657328,
			"0.011": 2.14626487719,
			"0.012": 1.48872437248,
			"0.013": 0.77973973838,
			"0.014": 0.838255442173,
			"0.015": 0.0776437353848,
			"0.016": 0.0,
			"0.017": 0.0,
			"0.018": 0.0,
			"0.019": 0.0,
			"0.02": 0.0,
			"0.021": 0.0,
			"0.022": 0.0,
			"0.023": 0.0,
			"0.024": 0.0,
			"0.025": 0.0
		}
	}
}
