{
	 "smiles": "CCOC(=O)C1=CC2=C(C=C1)N(CC)C(S)=N2", 
	 "Tm": 426.15, 
	 "num_atms": 31, 
	 "gaussian": { 
		 "optdone": 1, 
		 "sigma_profile": "yes", 
		 "theory": "DFT", 
		 "functional": "B3LYP", 
		 "basiset": "6-31G**", 
		 "properties": { 
			 "R2extent": 7068.5851, 
			 "electric_dipole_moment_norm": 4.6875000352, 
			 "electric_quadrupole_moment_norm": 17.0517227842, 
			 "total_energy": -1123.88732454, 
			 "HOMO_LUMO_gap": 0.18771, 
			 "cosmo_polarized_energy": -14.24, 
			 "cosmo_cavitation_energy": 36.65, 
			 "cosmo_dispersion_energy": -26.66, 
			 "cosmo_repulsion_energy": 2.03, 
			 "cosmo_total_nonelectrostatic_energy": 12.02, 
			 "SMD_solvation_energy": 4.8 
		},
		"coords": [
			{
				"x": -4.9468921466,
				"y": -0.5581802256,
				"z": -1.3721159661,
				"element": "C" 
			},
			{
				"x": -3.8978956545,
				"y": -0.2099044834,
				"z": -2.4180782307,
				"element": "C" 
			},
			{
				"x": -2.6130330355,
				"y": 0.0521676495,
				"z": -1.810370902,
				"element": "O" 
			},
			{
				"x": -1.8315833213,
				"y": -1.0288633707,
				"z": -1.563557642,
				"element": "C" 
			},
			{
				"x": -2.1649623119,
				"y": -2.1679889332,
				"z": -1.8342041013,
				"element": "O" 
			},
			{
				"x": -0.5334337815,
				"y": -0.6603208678,
				"z": -0.9354449163,
				"element": "C" 
			},
			{
				"x": 0.3537052015,
				"y": -1.7014746787,
				"z": -0.6400663267,
				"element": "C" 
			},
			{
				"x": 1.5748194936,
				"y": -1.3786754367,
				"z": -0.0504840948,
				"element": "C" 
			},
			{
				"x": 1.8881716999,
				"y": -0.0262224762,
				"z": 0.2307488454,
				"element": "C" 
			},
			{
				"x": 1.0103994009,
				"y": 1.0217610436,
				"z": -0.0574816734,
				"element": "C" 
			},
			{
				"x": -0.2037509158,
				"y": 0.6840142224,
				"z": -0.6454689389,
				"element": "C" 
			},
			{
				"x": 3.1575238843,
				"y": -0.0528364655,
				"z": 0.7901828938,
				"element": "N" 
			},
			{
				"x": 3.9070231088,
				"y": 1.0924122897,
				"z": 1.2986065542,
				"element": "C" 
			},
			{
				"x": 3.5526632396,
				"y": 1.4502988072,
				"z": 2.7445159473,
				"element": "C" 
			},
			{
				"x": 3.517858724,
				"y": -1.3895649656,
				"z": 0.8262210389,
				"element": "C" 
			},
			{
				"x": 5.0856674819,
				"y": -1.8823763585,
				"z": 1.4860675174,
				"element": "S" 
			},
			{
				"x": 2.6209252838,
				"y": -2.2069971361,
				"z": 0.3387758393,
				"element": "N" 
			},
			{
				"x": -4.6926773248,
				"y": -1.4967882547,
				"z": -0.874091322,
				"element": "H" 
			},
			{
				"x": -5.9248831328,
				"y": -0.6764960412,
				"z": -1.8508120688,
				"element": "H" 
			},
			{
				"x": -5.0257421686,
				"y": 0.2327984203,
				"z": -0.6202750867,
				"element": "H" 
			},
			{
				"x": -3.7861094569,
				"y": -1.0176251902,
				"z": -3.1452582123,
				"element": "H" 
			},
			{
				"x": -4.1462417234,
				"y": 0.7177027137,
				"z": -2.9400860581,
				"element": "H" 
			},
			{
				"x": 0.0848399227,
				"y": -2.7259315814,
				"z": -0.8695879832,
				"element": "H" 
			},
			{
				"x": 1.2532528398,
				"y": 2.0562682026,
				"z": 0.1640961719,
				"element": "H" 
			},
			{
				"x": -0.9190786012,
				"y": 1.4602387492,
				"z": -0.8882935233,
				"element": "H" 
			},
			{
				"x": 4.9731296944,
				"y": 0.8636013362,
				"z": 1.2046683388,
				"element": "H" 
			},
			{
				"x": 3.7083107343,
				"y": 1.9353978083,
				"z": 0.6292155111,
				"element": "H" 
			},
			{
				"x": 4.1291310327,
				"y": 2.3231578637,
				"z": 3.0666061791,
				"element": "H" 
			},
			{
				"x": 2.4889932223,
				"y": 1.6867347834,
				"z": 2.8388296977,
				"element": "H" 
			},
			{
				"x": 3.7803486724,
				"y": 0.6204669491,
				"z": 3.4194296866,
				"element": "H" 
			},
			{
				"x": 4.8809199381,
				"y": -3.1761743734,
				"z": 1.1794128249,
				"element": "H" 
			}
		],
		 "valence_orbital": [ 
			{
				"type": "occ",
				"energy": -0.28708,
				"method": "rhf"
			},
			{
				"type": "occ",
				"energy": -0.28003,
				"method": "rhf"
			},
			{
				"type": "occ",
				"energy": -0.26359,
				"method": "rhf"
			},
			{
				"type": "occ",
				"energy": -0.23175,
				"method": "rhf"
			},
			{
				"type": "occ",
				"energy": -0.21979,
				"method": "rhf"
			},
			{
				"type": "unocc",
				"energy": -0.03208,
				"method": "rhf"
			},
			{
				"type": "unocc",
				"energy": -0.01395,
				"method": "rhf"
			},
			{
				"type": "unocc",
				"energy": 0.00218,
				"method": "rhf"
			},
			{
				"type": "unocc",
				"energy": 0.04341,
				"method": "rhf"
			},
			{
				"type": "unocc",
				"energy": 0.05886,
				"method": "rhf"
			}
		],
		"cosmo_sigma_profile": { 
			"-0.025": 0.0,
			"-0.024": 0.0,
			"-0.023": 0.0,
			"-0.022": 0.0,
			"-0.021": 0.0,
			"-0.02": 0.0,
			"-0.019": 0.0,
			"-0.018": 0.0,
			"-0.017": 0.0,
			"-0.016": 0.0,
			"-0.015": 0.0,
			"-0.014": 0.0,
			"-0.013": 0.141478605293,
			"-0.012": 1.10689234956,
			"-0.011": 1.33052959982,
			"-0.01": 1.24310572692,
			"-0.009": 1.14952261597,
			"-0.008": 2.14032837066,
			"-0.007": 6.28163912522,
			"-0.006": 9.37010838905,
			"-0.005": 16.7072713795,
			"-0.004": 26.9769923761,
			"-0.003": 27.1480255784,
			"-0.002": 27.9457349255,
			"-0.001": 27.9051618075,
			"0.0": 27.607826696,
			"0.001": 19.3654328888,
			"0.002": 20.6207756964,
			"0.003": 20.5865267561,
			"0.004": 16.0509398316,
			"0.005": 8.67237685066,
			"0.006": 7.02222923355,
			"0.007": 3.41203486162,
			"0.008": 3.26964911681,
			"0.009": 2.66944674049,
			"0.01": 2.44370855781,
			"0.011": 3.17779108038,
			"0.012": 5.31218929123,
			"0.013": 1.44022947585,
			"0.014": 0.95651327781,
			"0.015": 0.991026455902,
			"0.016": 0.52137550948,
			"0.017": 0.00159305709698,
			"0.018": 0.0,
			"0.019": 0.0,
			"0.02": 0.0,
			"0.021": 0.0,
			"0.022": 0.0,
			"0.023": 0.0,
			"0.024": 0.0,
			"0.025": 0.0
		}
	}
}
