{
	 "smiles": "CCC(=O)C(O)=O", 
	 "Tm": 306.15, 
	 "num_atms": 13, 
	 "gaussian": { 
		 "optdone": 1, 
		 "sigma_profile": "yes", 
		 "theory": "DFT", 
		 "functional": "B3LYP", 
		 "basiset": "6-31G**", 
		 "properties": { 
			 "R2extent": 974.0512, 
			 "electric_dipole_moment_norm": 2.56840485516, 
			 "electric_quadrupole_moment_norm": 7.67324548284, 
			 "total_energy": -381.720113935, 
			 "HOMO_LUMO_gap": 0.18054, 
			 "cosmo_polarized_energy": -9.36, 
			 "cosmo_cavitation_energy": 17.47, 
			 "cosmo_dispersion_energy": -12.86, 
			 "cosmo_repulsion_energy": 1.12, 
			 "cosmo_total_nonelectrostatic_energy": 5.73, 
			 "SMD_solvation_energy": 5.22 
		},
		"coords": [
			{
				"x": 2.6413055014,
				"y": -1.0753396046,
				"z": -0.5313023428,
				"element": "C" 
			},
			{
				"x": 1.6972932346,
				"y": -0.1820500665,
				"z": 0.2690301356,
				"element": "C" 
			},
			{
				"x": 0.3323223894,
				"y": -0.7739965877,
				"z": 0.473118155,
				"element": "C" 
			},
			{
				"x": -0.0328462334,
				"y": -1.861782807,
				"z": 0.0576937811,
				"element": "O" 
			},
			{
				"x": -0.6930432981,
				"y": 0.0649795059,
				"z": 1.2758609731,
				"element": "C" 
			},
			{
				"x": -1.8706873336,
				"y": -0.5564268525,
				"z": 1.3962034366,
				"element": "O" 
			},
			{
				"x": -0.4428128303,
				"y": 1.1535993462,
				"z": 1.7340697322,
				"element": "O" 
			},
			{
				"x": 3.61538747,
				"y": -0.5929099999,
				"z": -0.6465369392,
				"element": "H" 
			},
			{
				"x": 2.2391272395,
				"y": -1.2809542925,
				"z": -1.5269996635,
				"element": "H" 
			},
			{
				"x": 2.7903326978,
				"y": -2.0370320348,
				"z": -0.0329321833,
				"element": "H" 
			},
			{
				"x": 1.5552848746,
				"y": 0.8001761154,
				"z": -0.2022116987,
				"element": "H" 
			},
			{
				"x": 2.0962998406,
				"y": 0.0581890737,
				"z": 1.2640631562,
				"element": "H" 
			},
			{
				"x": -1.7737635524,
				"y": -1.4111517957,
				"z": 0.9281434576,
				"element": "H" 
			}
		],
		 "valence_orbital": [ 
			{
				"type": "occ",
				"energy": -0.38116,
				"method": "rhf"
			},
			{
				"type": "occ",
				"energy": -0.36665,
				"method": "rhf"
			},
			{
				"type": "occ",
				"energy": -0.33824,
				"method": "rhf"
			},
			{
				"type": "occ",
				"energy": -0.33011,
				"method": "rhf"
			},
			{
				"type": "occ",
				"energy": -0.26816,
				"method": "rhf"
			},
			{
				"type": "unocc",
				"energy": -0.08762,
				"method": "rhf"
			},
			{
				"type": "unocc",
				"energy": 0.05098,
				"method": "rhf"
			},
			{
				"type": "unocc",
				"energy": 0.07962,
				"method": "rhf"
			},
			{
				"type": "unocc",
				"energy": 0.1056,
				"method": "rhf"
			},
			{
				"type": "unocc",
				"energy": 0.13623,
				"method": "rhf"
			}
		],
		"cosmo_sigma_profile": { 
			"-0.025": 0.0,
			"-0.024": 0.0,
			"-0.023": 0.0,
			"-0.022": 0.0,
			"-0.021": 0.0,
			"-0.02": 0.0,
			"-0.019": 0.0,
			"-0.018": 0.0,
			"-0.017": 0.0,
			"-0.016": 0.0372604675476,
			"-0.015": 0.611416453738,
			"-0.014": 0.30164448582,
			"-0.013": 0.865045409283,
			"-0.012": 0.703651879942,
			"-0.011": 1.08015099935,
			"-0.01": 0.826635022505,
			"-0.009": 3.14601039099,
			"-0.008": 4.73698277587,
			"-0.007": 6.38198974726,
			"-0.006": 6.97345672702,
			"-0.005": 6.26477341013,
			"-0.004": 9.4628876417,
			"-0.003": 13.2417467244,
			"-0.002": 11.0155032392,
			"-0.001": 8.93510337151,
			"0.0": 9.72897553319,
			"0.001": 6.0130399423,
			"0.002": 3.14106330403,
			"0.003": 3.67059361315,
			"0.004": 3.61560730596,
			"0.005": 3.64913166203,
			"0.006": 3.42063806713,
			"0.007": 5.83399516109,
			"0.008": 6.68556836197,
			"0.009": 6.54025299795,
			"0.01": 6.09064555933,
			"0.011": 4.14811287615,
			"0.012": 0.835019868469,
			"0.013": 0.0,
			"0.014": 0.0,
			"0.015": 0.0,
			"0.016": 0.0,
			"0.017": 0.0,
			"0.018": 0.0,
			"0.019": 0.0,
			"0.02": 0.0,
			"0.021": 0.0,
			"0.022": 0.0,
			"0.023": 0.0,
			"0.024": 0.0,
			"0.025": 0.0
		}
	}
}
