{
	 "smiles": "C#CC#C", 
	 "Tm": 236.75, 
	 "num_atms": 6, 
	 "gaussian": { 
		 "optdone": 1, 
		 "sigma_profile": "yes", 
		 "theory": "DFT", 
		 "functional": "B3LYP", 
		 "basiset": "6-31G**", 
		 "properties": { 
			 "R2extent": 574.0098, 
			 "electric_dipole_moment_norm": 0.00120415945788, 
			 "electric_quadrupole_moment_norm": 7.16076762994, 
			 "total_energy": -153.48204157, 
			 "HOMO_LUMO_gap": 0.23679, 
			 "cosmo_polarized_energy": -4.47, 
			 "cosmo_cavitation_energy": 12.1, 
			 "cosmo_dispersion_energy": -7.53, 
			 "cosmo_repulsion_energy": 0.67, 
			 "cosmo_total_nonelectrostatic_energy": 5.24, 
			 "SMD_solvation_energy": 5.19 
		},
		"coords": [
			{
				"x": 0.8200960895,
				"y": 1.1930315662,
				"z": -1.3596588056,
				"element": "C" 
			},
			{
				"x": 1.4169501113,
				"y": 0.3893548736,
				"z": -0.675720096,
				"element": "C" 
			},
			{
				"x": 2.0890452482,
				"y": -0.5188750216,
				"z": 0.0965474785,
				"element": "C" 
			},
			{
				"x": 2.684677605,
				"y": -1.3234600761,
				"z": 0.7804835788,
				"element": "C" 
			},
			{
				"x": 0.2958676202,
				"y": 1.8990630455,
				"z": -1.9608423833,
				"element": "H" 
			},
			{
				"x": 3.2086633258,
				"y": -2.0304143875,
				"z": 1.3807902276,
				"element": "H" 
			}
		],
		 "valence_orbital": [ 
			{
				"type": "occ",
				"energy": -0.51132,
				"method": "rhf"
			},
			{
				"type": "occ",
				"energy": -0.3504,
				"method": "rhf"
			},
			{
				"type": "occ",
				"energy": -0.3504,
				"method": "rhf"
			},
			{
				"type": "occ",
				"energy": -0.25817,
				"method": "rhf"
			},
			{
				"type": "occ",
				"energy": -0.25817,
				"method": "rhf"
			},
			{
				"type": "unocc",
				"energy": -0.02138,
				"method": "rhf"
			},
			{
				"type": "unocc",
				"energy": -0.02138,
				"method": "rhf"
			},
			{
				"type": "unocc",
				"energy": 0.1077,
				"method": "rhf"
			},
			{
				"type": "unocc",
				"energy": 0.11862,
				"method": "rhf"
			},
			{
				"type": "unocc",
				"energy": 0.16271,
				"method": "rhf"
			}
		],
		"cosmo_sigma_profile": { 
			"-0.025": 0.0,
			"-0.024": 0.0,
			"-0.023": 0.0,
			"-0.022": 0.0,
			"-0.021": 0.0,
			"-0.02": 0.0,
			"-0.019": 0.0,
			"-0.018": 0.0,
			"-0.017": 0.0,
			"-0.016": 0.0,
			"-0.015": 0.0,
			"-0.014": 0.0557259291242,
			"-0.013": 2.134380002,
			"-0.012": 2.71990885723,
			"-0.011": 2.43011011849,
			"-0.01": 2.24435663469,
			"-0.009": 2.33601383301,
			"-0.008": 1.30271683671,
			"-0.007": 2.9271470057,
			"-0.006": 1.47123004149,
			"-0.005": 2.35153980883,
			"-0.004": 2.30226362326,
			"-0.003": 2.80541865296,
			"-0.002": 2.61328809374,
			"-0.001": 3.32107259355,
			"0.0": 4.3465812223,
			"0.001": 4.67687725916,
			"0.002": 14.7004265877,
			"0.003": 16.0556301119,
			"0.004": 22.1724042904,
			"0.005": 7.56086119071,
			"0.006": 0.0,
			"0.007": 0.0,
			"0.008": 0.0,
			"0.009": 0.0,
			"0.01": 0.0,
			"0.011": 0.0,
			"0.012": 0.0,
			"0.013": 0.0,
			"0.014": 0.0,
			"0.015": 0.0,
			"0.016": 0.0,
			"0.017": 0.0,
			"0.018": 0.0,
			"0.019": 0.0,
			"0.02": 0.0,
			"0.021": 0.0,
			"0.022": 0.0,
			"0.023": 0.0,
			"0.024": 0.0,
			"0.025": 0.0
		}
	}
}
