{
	 "smiles": "NC1=C(Br)C=C(C=C1)C(F)(F)F", 
	 "Tm": 302.65, 
	 "num_atms": 17, 
	 "gaussian": { 
		 "optdone": 1, 
		 "sigma_profile": "yes", 
		 "theory": "DFT", 
		 "functional": "B3LYP", 
		 "basiset": "6-31G**", 
		 "properties": { 
			 "R2extent": 4289.4456, 
			 "electric_dipole_moment_norm": 3.96118762368, 
			 "electric_quadrupole_moment_norm": 3.97276879519, 
			 "total_energy": -3195.44832472, 
			 "HOMO_LUMO_gap": 0.20125, 
			 "cosmo_polarized_energy": -7.8, 
			 "cosmo_cavitation_energy": 24.85, 
			 "cosmo_dispersion_energy": -18.41, 
			 "cosmo_repulsion_energy": 1.41, 
			 "cosmo_total_nonelectrostatic_energy": 7.85, 
			 "SMD_solvation_energy": 4.28 
		},
		"coords": [
			{
				"x": -1.6232438438,
				"y": 1.8109309808,
				"z": 1.4619546085,
				"element": "N" 
			},
			{
				"x": -0.5780359742,
				"y": 1.2784734071,
				"z": 0.7414603907,
				"element": "C" 
			},
			{
				"x": -0.0822828073,
				"y": 1.8903173522,
				"z": -0.4290183,
				"element": "C" 
			},
			{
				"x": -0.9308703864,
				"y": 3.4773424827,
				"z": -1.0867405035,
				"element": "Br" 
			},
			{
				"x": 1.0050254849,
				"y": 1.3761045092,
				"z": -1.1220009481,
				"element": "C" 
			},
			{
				"x": 1.6387914509,
				"y": 0.2196459512,
				"z": -0.6650547223,
				"element": "C" 
			},
			{
				"x": 1.1655767575,
				"y": -0.410362169,
				"z": 0.4910615571,
				"element": "C" 
			},
			{
				"x": 0.0799937961,
				"y": 0.1094594223,
				"z": 1.1786869435,
				"element": "C" 
			},
			{
				"x": 2.7739711089,
				"y": -0.377460212,
				"z": -1.4417982785,
				"element": "C" 
			},
			{
				"x": 2.3538420513,
				"y": -1.3359311338,
				"z": -2.3036685513,
				"element": "F" 
			},
			{
				"x": 3.4258288818,
				"y": 0.5490404027,
				"z": -2.1800011858,
				"element": "F" 
			},
			{
				"x": 3.6819860717,
				"y": -0.9652080694,
				"z": -0.6284742295,
				"element": "F" 
			},
			{
				"x": -2.2063564087,
				"y": 2.4862624239,
				"z": 0.9893428095,
				"element": "H" 
			},
			{
				"x": -2.1099211692,
				"y": 1.1894287199,
				"z": 2.0893742956,
				"element": "H" 
			},
			{
				"x": 1.3598549427,
				"y": 1.8779393972,
				"z": -2.0138309308,
				"element": "H" 
			},
			{
				"x": 1.6561639935,
				"y": -1.3060606834,
				"z": 0.8565063767,
				"element": "H" 
			},
			{
				"x": -0.2736239495,
				"y": -0.3797227816,
				"z": 2.0822006684,
				"element": "H" 
			}
		],
		 "valence_orbital": [ 
			{
				"type": "occ",
				"energy": -0.33281,
				"method": "rhf"
			},
			{
				"type": "occ",
				"energy": -0.32267,
				"method": "rhf"
			},
			{
				"type": "occ",
				"energy": -0.30123,
				"method": "rhf"
			},
			{
				"type": "occ",
				"energy": -0.25846,
				"method": "rhf"
			},
			{
				"type": "occ",
				"energy": -0.22323,
				"method": "rhf"
			},
			{
				"type": "unocc",
				"energy": -0.02198,
				"method": "rhf"
			},
			{
				"type": "unocc",
				"energy": -0.01615,
				"method": "rhf"
			},
			{
				"type": "unocc",
				"energy": -0.00147,
				"method": "rhf"
			},
			{
				"type": "unocc",
				"energy": 0.0726,
				"method": "rhf"
			},
			{
				"type": "unocc",
				"energy": 0.1059,
				"method": "rhf"
			}
		],
		"cosmo_sigma_profile": { 
			"-0.025": 0.0,
			"-0.024": 0.0,
			"-0.023": 0.0,
			"-0.022": 0.0,
			"-0.021": 0.0,
			"-0.02": 0.0,
			"-0.019": 0.0,
			"-0.018": 0.0,
			"-0.017": 0.0,
			"-0.016": 0.0,
			"-0.015": 0.0,
			"-0.014": 0.607618592307,
			"-0.013": 1.60744879131,
			"-0.012": 2.33524156529,
			"-0.011": 2.35487566367,
			"-0.01": 2.85846333772,
			"-0.009": 2.07675894963,
			"-0.008": 2.60009349545,
			"-0.007": 5.78631664553,
			"-0.006": 6.56588099051,
			"-0.005": 6.83273649805,
			"-0.004": 8.43723421531,
			"-0.003": 7.01157582727,
			"-0.002": 8.67171833135,
			"-0.001": 10.6134664831,
			"0.0": 13.4053974759,
			"0.001": 17.5795831971,
			"0.002": 29.9753273662,
			"0.003": 47.1204234272,
			"0.004": 18.7259667295,
			"0.005": 2.93004711213,
			"0.006": 0.919524989016,
			"0.007": 0.998899309269,
			"0.008": 0.50834305484,
			"0.009": 0.518175534716,
			"0.01": 0.630606926153,
			"0.011": 0.689291343256,
			"0.012": 0.0388962971836,
			"0.013": 0.0,
			"0.014": 0.0,
			"0.015": 0.0,
			"0.016": 0.0,
			"0.017": 0.0,
			"0.018": 0.0,
			"0.019": 0.0,
			"0.02": 0.0,
			"0.021": 0.0,
			"0.022": 0.0,
			"0.023": 0.0,
			"0.024": 0.0,
			"0.025": 0.0
		}
	}
}
