{
	 "smiles": "C1CCC(=CC1)C1=CC=CC=C1", 
	 "Tm": 262.15, 
	 "num_atms": 26, 
	 "gaussian": { 
		 "optdone": 1, 
		 "sigma_profile": "yes", 
		 "theory": "DFT", 
		 "functional": "B3LYP", 
		 "basiset": "6-31G**", 
		 "properties": { 
			 "R2extent": 2710.2902, 
			 "electric_dipole_moment_norm": 0.567319900938, 
			 "electric_quadrupole_moment_norm": 4.35894613984, 
			 "total_energy": -465.716811277, 
			 "HOMO_LUMO_gap": 0.19598, 
			 "cosmo_polarized_energy": -3.64, 
			 "cosmo_cavitation_energy": 27.32, 
			 "cosmo_dispersion_energy": -20.48, 
			 "cosmo_repulsion_energy": 1.63, 
			 "cosmo_total_nonelectrostatic_energy": 8.47, 
			 "SMD_solvation_energy": 3.82 
		},
		"coords": [
			{
				"x": -0.4021265518,
				"y": 1.9386024597,
				"z": -1.9427417617,
				"element": "C" 
			},
			{
				"x": -0.3281382422,
				"y": 0.4383248923,
				"z": -2.2445995506,
				"element": "C" 
			},
			{
				"x": 0.401496796,
				"y": -0.3097428643,
				"z": -1.1202532073,
				"element": "C" 
			},
			{
				"x": -0.0954546528,
				"y": 0.0787306376,
				"z": 0.2641907552,
				"element": "C" 
			},
			{
				"x": -0.7957849577,
				"y": 1.2128624983,
				"z": 0.4516962321,
				"element": "C" 
			},
			{
				"x": -1.1715751079,
				"y": 2.1852050386,
				"z": -0.6373913397,
				"element": "C" 
			},
			{
				"x": 0.235051641,
				"y": -0.8272448965,
				"z": 1.3962435083,
				"element": "C" 
			},
			{
				"x": 1.4177685972,
				"y": -1.5889156118,
				"z": 1.3904884936,
				"element": "C" 
			},
			{
				"x": 1.7425440807,
				"y": -2.4278776833,
				"z": 2.4566023062,
				"element": "C" 
			},
			{
				"x": 0.8870466652,
				"y": -2.5372532337,
				"z": 3.5532719205,
				"element": "C" 
			},
			{
				"x": -0.300227176,
				"y": -1.8015813226,
				"z": 3.5687757012,
				"element": "C" 
			},
			{
				"x": -0.6230089841,
				"y": -0.9638873209,
				"z": 2.5035032449,
				"element": "C" 
			},
			{
				"x": -0.8740199055,
				"y": 2.4811792995,
				"z": -2.7697936269,
				"element": "H" 
			},
			{
				"x": 0.6170318283,
				"y": 2.3357389438,
				"z": -1.8446893796,
				"element": "H" 
			},
			{
				"x": 0.176821188,
				"y": 0.2581458654,
				"z": -3.2006092616,
				"element": "H" 
			},
			{
				"x": -1.3461494364,
				"y": 0.038576804,
				"z": -2.3450722425,
				"element": "H" 
			},
			{
				"x": 1.4810864218,
				"y": -0.1083223957,
				"z": -1.1918230997,
				"element": "H" 
			},
			{
				"x": 0.293420944,
				"y": -1.3928266751,
				"z": -1.2558713954,
				"element": "H" 
			},
			{
				"x": -1.1161044573,
				"y": 1.4747858772,
				"z": 1.458301347,
				"element": "H" 
			},
			{
				"x": -2.2554617408,
				"y": 2.1146139899,
				"z": -0.8225194317,
				"element": "H" 
			},
			{
				"x": -1.0061052499,
				"y": 3.2120073235,
				"z": -0.2849879546,
				"element": "H" 
			},
			{
				"x": 2.1017913206,
				"y": -1.5143836299,
				"z": 0.5509077303,
				"element": "H" 
			},
			{
				"x": 2.667980167,
				"y": -2.9967283517,
				"z": 2.4289112716,
				"element": "H" 
			},
			{
				"x": 1.1365099811,
				"y": -3.1945902658,
				"z": 4.3812185265,
				"element": "H" 
			},
			{
				"x": -0.9851087526,
				"y": -1.8911412203,
				"z": 4.4076825517,
				"element": "H" 
			},
			{
				"x": -1.5656844158,
				"y": -0.4253781581,
				"z": 2.5145586622,
				"element": "H" 
			}
		],
		 "valence_orbital": [ 
			{
				"type": "occ",
				"energy": -0.31226,
				"method": "rhf"
			},
			{
				"type": "occ",
				"energy": -0.3025,
				"method": "rhf"
			},
			{
				"type": "occ",
				"energy": -0.26788,
				"method": "rhf"
			},
			{
				"type": "occ",
				"energy": -0.2439,
				"method": "rhf"
			},
			{
				"type": "occ",
				"energy": -0.21192,
				"method": "rhf"
			},
			{
				"type": "unocc",
				"energy": -0.01594,
				"method": "rhf"
			},
			{
				"type": "unocc",
				"energy": 0.00503,
				"method": "rhf"
			},
			{
				"type": "unocc",
				"energy": 0.05366,
				"method": "rhf"
			},
			{
				"type": "unocc",
				"energy": 0.09331,
				"method": "rhf"
			},
			{
				"type": "unocc",
				"energy": 0.09977,
				"method": "rhf"
			}
		],
		"cosmo_sigma_profile": { 
			"-0.025": 0.0,
			"-0.024": 0.0,
			"-0.023": 0.0,
			"-0.022": 0.0,
			"-0.021": 0.0,
			"-0.02": 0.0,
			"-0.019": 0.0,
			"-0.018": 0.0,
			"-0.017": 0.0,
			"-0.016": 0.0,
			"-0.015": 0.0,
			"-0.014": 0.0,
			"-0.013": 0.0,
			"-0.012": 0.0,
			"-0.011": 0.0,
			"-0.01": 0.0,
			"-0.009": 0.0,
			"-0.008": 0.0,
			"-0.007": 0.0,
			"-0.006": 1.22390388282,
			"-0.005": 9.50936807438,
			"-0.004": 13.8829679117,
			"-0.003": 22.3562911046,
			"-0.002": 27.3707551078,
			"-0.001": 32.9779649373,
			"0.0": 29.0583586796,
			"0.001": 20.205493445,
			"0.002": 10.6988248062,
			"0.003": 10.6549892977,
			"0.004": 10.9437977922,
			"0.005": 11.6302625824,
			"0.006": 11.5710748926,
			"0.007": 2.85370336267,
			"0.008": 0.0,
			"0.009": 0.0,
			"0.01": 0.0,
			"0.011": 0.0,
			"0.012": 0.0,
			"0.013": 0.0,
			"0.014": 0.0,
			"0.015": 0.0,
			"0.016": 0.0,
			"0.017": 0.0,
			"0.018": 0.0,
			"0.019": 0.0,
			"0.02": 0.0,
			"0.021": 0.0,
			"0.022": 0.0,
			"0.023": 0.0,
			"0.024": 0.0,
			"0.025": 0.0
		}
	}
}
