{
	 "smiles": "CCC1=CC=CC=C1CC", 
	 "Tm": 242.05, 
	 "num_atms": 24, 
	 "gaussian": { 
		 "optdone": 1, 
		 "sigma_profile": "yes", 
		 "theory": "DFT", 
		 "functional": "B3LYP", 
		 "basiset": "6-31G**", 
		 "properties": { 
			 "R2extent": 1799.0887, 
			 "electric_dipole_moment_norm": 0.461944174116, 
			 "electric_quadrupole_moment_norm": 4.04443814392, 
			 "total_energy": -389.519793358, 
			 "HOMO_LUMO_gap": 0.23555, 
			 "cosmo_polarized_energy": -3.16, 
			 "cosmo_cavitation_energy": 25.79, 
			 "cosmo_dispersion_energy": -18.37, 
			 "cosmo_repulsion_energy": 1.49, 
			 "cosmo_total_nonelectrostatic_energy": 8.91, 
			 "SMD_solvation_energy": 4.31 
		},
		"coords": [
			{
				"x": -2.3679545763,
				"y": -0.796761174,
				"z": 2.3255091741,
				"element": "C" 
			},
			{
				"x": -2.3128870302,
				"y": 0.2557191812,
				"z": 1.2036149009,
				"element": "C" 
			},
			{
				"x": -0.9226094335,
				"y": 0.8111582155,
				"z": 0.9486950533,
				"element": "C" 
			},
			{
				"x": -0.5719311898,
				"y": 2.0269457027,
				"z": 1.5574116477,
				"element": "C" 
			},
			{
				"x": 0.6841034928,
				"y": 2.6033573864,
				"z": 1.3847264848,
				"element": "C" 
			},
			{
				"x": 1.6238824041,
				"y": 1.9647548415,
				"z": 0.5753044428,
				"element": "C" 
			},
			{
				"x": 1.2895484776,
				"y": 0.7602599226,
				"z": -0.0383193678,
				"element": "C" 
			},
			{
				"x": 0.033085821,
				"y": 0.1597276987,
				"z": 0.1381013784,
				"element": "C" 
			},
			{
				"x": -0.2211637552,
				"y": -1.1705335235,
				"z": -0.550148168,
				"element": "C" 
			},
			{
				"x": 0.526667619,
				"y": -2.3476961276,
				"z": 0.1034181413,
				"element": "C" 
			},
			{
				"x": -1.7687185376,
				"y": -1.6783127292,
				"z": 2.0787195324,
				"element": "H" 
			},
			{
				"x": -3.3973251323,
				"y": -1.1284706416,
				"z": 2.4993124584,
				"element": "H" 
			},
			{
				"x": -1.9806202094,
				"y": -0.3859679336,
				"z": 3.2634960972,
				"element": "H" 
			},
			{
				"x": -2.731217452,
				"y": -0.1725525998,
				"z": 0.285713113,
				"element": "H" 
			},
			{
				"x": -2.9729537104,
				"y": 1.088691986,
				"z": 1.4719767062,
				"element": "H" 
			},
			{
				"x": -1.310353469,
				"y": 2.5320386044,
				"z": 2.1762536578,
				"element": "H" 
			},
			{
				"x": 0.922140424,
				"y": 3.5467646727,
				"z": 1.8680339331,
				"element": "H" 
			},
			{
				"x": 2.6049717846,
				"y": 2.4037135249,
				"z": 0.4168348741,
				"element": "H" 
			},
			{
				"x": 2.0186941563,
				"y": 0.2673919377,
				"z": -0.6781433195,
				"element": "H" 
			},
			{
				"x": -1.2906936295,
				"y": -1.3966049182,
				"z": -0.5767629967,
				"element": "H" 
			},
			{
				"x": 0.0984216717,
				"y": -1.0924811331,
				"z": -1.597252817,
				"element": "H" 
			},
			{
				"x": 0.2234000968,
				"y": -2.4823328689,
				"z": 1.1464646853,
				"element": "H" 
			},
			{
				"x": 0.327351518,
				"y": -3.2822580562,
				"z": -0.4318369075,
				"element": "H" 
			},
			{
				"x": 1.6083606595,
				"y": -2.1795519685,
				"z": 0.0966772958,
				"element": "H" 
			}
		],
		 "valence_orbital": [ 
			{
				"type": "occ",
				"energy": -0.33442,
				"method": "rhf"
			},
			{
				"type": "occ",
				"energy": -0.32186,
				"method": "rhf"
			},
			{
				"type": "occ",
				"energy": -0.31341,
				"method": "rhf"
			},
			{
				"type": "occ",
				"energy": -0.23679,
				"method": "rhf"
			},
			{
				"type": "occ",
				"energy": -0.23033,
				"method": "rhf"
			},
			{
				"type": "unocc",
				"energy": 0.00522,
				"method": "rhf"
			},
			{
				"type": "unocc",
				"energy": 0.00737,
				"method": "rhf"
			},
			{
				"type": "unocc",
				"energy": 0.08683,
				"method": "rhf"
			},
			{
				"type": "unocc",
				"energy": 0.10497,
				"method": "rhf"
			},
			{
				"type": "unocc",
				"energy": 0.11389,
				"method": "rhf"
			}
		],
		"cosmo_sigma_profile": { 
			"-0.025": 0.0,
			"-0.024": 0.0,
			"-0.023": 0.0,
			"-0.022": 0.0,
			"-0.021": 0.0,
			"-0.02": 0.0,
			"-0.019": 0.0,
			"-0.018": 0.0,
			"-0.017": 0.0,
			"-0.016": 0.0,
			"-0.015": 0.0,
			"-0.014": 0.0,
			"-0.013": 0.0,
			"-0.012": 0.0,
			"-0.011": 0.0,
			"-0.01": 0.0,
			"-0.009": 0.0,
			"-0.008": 0.0,
			"-0.007": 0.0,
			"-0.006": 0.279526552059,
			"-0.005": 5.12084364739,
			"-0.004": 11.5116032032,
			"-0.003": 25.3774302474,
			"-0.002": 26.6938547956,
			"-0.001": 30.5841226387,
			"0.0": 28.9608509741,
			"0.001": 24.5804861144,
			"0.002": 13.2660512407,
			"0.003": 7.72332644185,
			"0.004": 6.88018791373,
			"0.005": 7.3698548221,
			"0.006": 7.12902677331,
			"0.007": 6.41160930971,
			"0.008": 0.5621633648,
			"0.009": 0.0,
			"0.01": 0.0,
			"0.011": 0.0,
			"0.012": 0.0,
			"0.013": 0.0,
			"0.014": 0.0,
			"0.015": 0.0,
			"0.016": 0.0,
			"0.017": 0.0,
			"0.018": 0.0,
			"0.019": 0.0,
			"0.02": 0.0,
			"0.021": 0.0,
			"0.022": 0.0,
			"0.023": 0.0,
			"0.024": 0.0,
			"0.025": 0.0
		}
	}
}
