{
	 "smiles": "ClS(=O)(=O)CC1=CC=CC=C1Br", 
	 "Tm": 352.15, 
	 "num_atms": 18, 
	 "gaussian": { 
		 "optdone": 1, 
		 "sigma_profile": "yes", 
		 "theory": "DFT", 
		 "functional": "B3LYP", 
		 "basiset": "6-31G**", 
		 "properties": { 
			 "R2extent": 6491.9853, 
			 "electric_dipole_moment_norm": 4.8339413205, 
			 "electric_quadrupole_moment_norm": 13.3896592597, 
			 "total_energy": -3850.52759458, 
			 "HOMO_LUMO_gap": 0.17624, 
			 "cosmo_polarized_energy": -10.66, 
			 "cosmo_cavitation_energy": 27.47, 
			 "cosmo_dispersion_energy": -20.63, 
			 "cosmo_repulsion_energy": 1.59, 
			 "cosmo_total_nonelectrostatic_energy": 8.43, 
			 "SMD_solvation_energy": 2.26 
		},
		"coords": [
			{
				"x": -2.6086118522,
				"y": -2.9194354215,
				"z": -1.9131216774,
				"element": "Cl" 
			},
			{
				"x": -0.5421808652,
				"y": -2.7128360757,
				"z": -1.4682306069,
				"element": "S" 
			},
			{
				"x": 0.1852809575,
				"y": -3.6330929371,
				"z": -2.3341830648,
				"element": "O" 
			},
			{
				"x": -0.4095528148,
				"y": -2.7686227074,
				"z": -0.0163814881,
				"element": "O" 
			},
			{
				"x": -0.2073311535,
				"y": -1.0024978105,
				"z": -2.0649580437,
				"element": "C" 
			},
			{
				"x": -0.9818142027,
				"y": 0.0798050905,
				"z": -1.3786594043,
				"element": "C" 
			},
			{
				"x": -0.7136069452,
				"y": 0.3745747024,
				"z": -0.0310866507,
				"element": "C" 
			},
			{
				"x": -1.400181982,
				"y": 1.3796653831,
				"z": 0.6422603657,
				"element": "C" 
			},
			{
				"x": -2.3733969812,
				"y": 2.1219419052,
				"z": -0.0282304457,
				"element": "C" 
			},
			{
				"x": -2.6545011833,
				"y": 1.8568056526,
				"z": -1.3671195274,
				"element": "C" 
			},
			{
				"x": -1.9656406376,
				"y": 0.842078336,
				"z": -2.0310214293,
				"element": "C" 
			},
			{
				"x": -2.3962456961,
				"y": 0.5543200259,
				"z": -3.8739951356,
				"element": "Br" 
			},
			{
				"x": -0.3795258233,
				"y": -1.0449739267,
				"z": -3.1401313675,
				"element": "H" 
			},
			{
				"x": 0.8689060939,
				"y": -0.9270997116,
				"z": -1.8762604501,
				"element": "H" 
			},
			{
				"x": 0.0350305894,
				"y": -0.2124802898,
				"z": 0.4908096196,
				"element": "H" 
			},
			{
				"x": -1.1757435091,
				"y": 1.5823240495,
				"z": 1.6844444497,
				"element": "H" 
			},
			{
				"x": -2.9145392565,
				"y": 2.9109742597,
				"z": 0.484997036,
				"element": "H" 
			},
			{
				"x": -3.4039447381,
				"y": 2.4309494754,
				"z": -1.8991321794,
				"element": "H" 
			}
		],
		 "valence_orbital": [ 
			{
				"type": "occ",
				"energy": -0.32533,
				"method": "rhf"
			},
			{
				"type": "occ",
				"energy": -0.31493,
				"method": "rhf"
			},
			{
				"type": "occ",
				"energy": -0.30486,
				"method": "rhf"
			},
			{
				"type": "occ",
				"energy": -0.2784,
				"method": "rhf"
			},
			{
				"type": "occ",
				"energy": -0.26156,
				"method": "rhf"
			},
			{
				"type": "unocc",
				"energy": -0.08532,
				"method": "rhf"
			},
			{
				"type": "unocc",
				"energy": -0.04083,
				"method": "rhf"
			},
			{
				"type": "unocc",
				"energy": -0.03257,
				"method": "rhf"
			},
			{
				"type": "unocc",
				"energy": -0.01138,
				"method": "rhf"
			},
			{
				"type": "unocc",
				"energy": 0.05062,
				"method": "rhf"
			}
		],
		"cosmo_sigma_profile": { 
			"-0.025": 0.0,
			"-0.024": 0.0,
			"-0.023": 0.0,
			"-0.022": 0.0,
			"-0.021": 0.0,
			"-0.02": 0.0,
			"-0.019": 0.0,
			"-0.018": 0.0,
			"-0.017": 0.0,
			"-0.016": 0.0,
			"-0.015": 0.0,
			"-0.014": 0.0,
			"-0.013": 0.557787636327,
			"-0.012": 1.57873990132,
			"-0.011": 1.84655636483,
			"-0.01": 1.78739033594,
			"-0.009": 3.13451523174,
			"-0.008": 4.42624973471,
			"-0.007": 11.0394064743,
			"-0.006": 11.6966846875,
			"-0.005": 11.5026646589,
			"-0.004": 10.0282362016,
			"-0.003": 10.2509018067,
			"-0.002": 10.4644568646,
			"-0.001": 11.6714418174,
			"0.0": 16.631015948,
			"0.001": 19.538488134,
			"0.002": 25.5874875649,
			"0.003": 30.159246091,
			"0.004": 15.4260079914,
			"0.005": 4.29934676544,
			"0.006": 2.7479734492,
			"0.007": 4.67771702259,
			"0.008": 10.214820432,
			"0.009": 6.52459186191,
			"0.01": 0.236983507617,
			"0.011": 0.0,
			"0.012": 0.0,
			"0.013": 0.0,
			"0.014": 0.0,
			"0.015": 0.0,
			"0.016": 0.0,
			"0.017": 0.0,
			"0.018": 0.0,
			"0.019": 0.0,
			"0.02": 0.0,
			"0.021": 0.0,
			"0.022": 0.0,
			"0.023": 0.0,
			"0.024": 0.0,
			"0.025": 0.0
		}
	}
}
