{
	 "smiles": "ClC1=C(CN2C(=O)C(=O)C3=C2C=CC=C3)C=CC=C1", 
	 "Tm": 404.15, 
	 "num_atms": 29, 
	 "gaussian": { 
		 "optdone": 1, 
		 "sigma_profile": "yes", 
		 "theory": "DFT", 
		 "functional": "B3LYP", 
		 "basiset": "6-31G**", 
		 "properties": { 
			 "R2extent": 5668.7327, 
			 "electric_dipole_moment_norm": 7.27981909871, 
			 "electric_quadrupole_moment_norm": 12.0160211618, 
			 "total_energy": -1243.0168478, 
			 "HOMO_LUMO_gap": 0.13889, 
			 "cosmo_polarized_energy": -15.9, 
			 "cosmo_cavitation_energy": 35.25, 
			 "cosmo_dispersion_energy": -24.64, 
			 "cosmo_repulsion_energy": 1.86, 
			 "cosmo_total_nonelectrostatic_energy": 12.48, 
			 "SMD_solvation_energy": 6.82 
		},
		"coords": [
			{
				"x": 0.7577417926,
				"y": -3.126670573,
				"z": -1.779785538,
				"element": "Cl" 
			},
			{
				"x": 1.5772356414,
				"y": -2.8910775409,
				"z": -0.2443639727,
				"element": "C" 
			},
			{
				"x": 0.9920957686,
				"y": -2.1085751349,
				"z": 0.7636414068,
				"element": "C" 
			},
			{
				"x": -0.3553252698,
				"y": -1.4236590573,
				"z": 0.6176397545,
				"element": "C" 
			},
			{
				"x": -0.4324508852,
				"y": -0.39758262,
				"z": -0.4160766808,
				"element": "N" 
			},
			{
				"x": -1.4002423334,
				"y": -0.4331343756,
				"z": -1.4171357463,
				"element": "C" 
			},
			{
				"x": -2.2397122689,
				"y": -1.2918231894,
				"z": -1.5765080086,
				"element": "O" 
			},
			{
				"x": -1.1890697704,
				"y": 0.864914246,
				"z": -2.26188456,
				"element": "C" 
			},
			{
				"x": -1.8411519829,
				"y": 1.1631045043,
				"z": -3.2391493235,
				"element": "O" 
			},
			{
				"x": -0.0891197653,
				"y": 1.5715115909,
				"z": -1.5933998206,
				"element": "C" 
			},
			{
				"x": 0.3242131332,
				"y": 0.7887178183,
				"z": -0.4941414922,
				"element": "C" 
			},
			{
				"x": 1.3453972184,
				"y": 1.230395279,
				"z": 0.3412322967,
				"element": "C" 
			},
			{
				"x": 1.9405368152,
				"y": 2.465305268,
				"z": 0.0458407227,
				"element": "C" 
			},
			{
				"x": 1.5387042971,
				"y": 3.2446056904,
				"z": -1.0446895312,
				"element": "C" 
			},
			{
				"x": 0.5103992267,
				"y": 2.7943843731,
				"z": -1.8760867075,
				"element": "C" 
			},
			{
				"x": 1.6841284464,
				"y": -2.0074093431,
				"z": 1.9792653231,
				"element": "C" 
			},
			{
				"x": 2.9101856555,
				"y": -2.6380244683,
				"z": 2.1847220236,
				"element": "C" 
			},
			{
				"x": 3.4757164436,
				"y": -3.3939170104,
				"z": 1.1583286561,
				"element": "C" 
			},
			{
				"x": 2.8071933237,
				"y": -3.5233019644,
				"z": -0.0582652829,
				"element": "C" 
			},
			{
				"x": -0.6298348277,
				"y": -0.9852455902,
				"z": 1.5848090503,
				"element": "H" 
			},
			{
				"x": -1.1315811656,
				"y": -2.1466135068,
				"z": 0.3473866194,
				"element": "H" 
			},
			{
				"x": 1.6865019108,
				"y": 0.6426060817,
				"z": 1.1841463556,
				"element": "H" 
			},
			{
				"x": 2.7409510899,
				"y": 2.822542933,
				"z": 0.6877014493,
				"element": "H" 
			},
			{
				"x": 2.0254931374,
				"y": 4.1944744911,
				"z": -1.2399494194,
				"element": "H" 
			},
			{
				"x": 0.169452027,
				"y": 3.3747628688,
				"z": -2.7281115876,
				"element": "H" 
			},
			{
				"x": 1.2406892658,
				"y": -1.4215496855,
				"z": 2.7809702279,
				"element": "H" 
			},
			{
				"x": 3.418082521,
				"y": -2.538995644,
				"z": 3.1389842833,
				"element": "H" 
			},
			{
				"x": 4.4315185213,
				"y": -3.8889650717,
				"z": 1.300269378,
				"element": "H" 
			},
			{
				"x": 3.2261520336,
				"y": -4.1172803689,
				"z": -0.8629898761,
				"element": "H" 
			}
		],
		 "valence_orbital": [ 
			{
				"type": "occ",
				"energy": -0.2755,
				"method": "rhf"
			},
			{
				"type": "occ",
				"energy": -0.2721,
				"method": "rhf"
			},
			{
				"type": "occ",
				"energy": -0.25721,
				"method": "rhf"
			},
			{
				"type": "occ",
				"energy": -0.24219,
				"method": "rhf"
			},
			{
				"type": "occ",
				"energy": -0.2322,
				"method": "rhf"
			},
			{
				"type": "unocc",
				"energy": -0.09331,
				"method": "rhf"
			},
			{
				"type": "unocc",
				"energy": -0.02968,
				"method": "rhf"
			},
			{
				"type": "unocc",
				"energy": -0.02654,
				"method": "rhf"
			},
			{
				"type": "unocc",
				"energy": -0.01793,
				"method": "rhf"
			},
			{
				"type": "unocc",
				"energy": 0.00715,
				"method": "rhf"
			}
		],
		"cosmo_sigma_profile": { 
			"-0.025": 0.0,
			"-0.024": 0.0,
			"-0.023": 0.0,
			"-0.022": 0.0,
			"-0.021": 0.0,
			"-0.02": 0.0,
			"-0.019": 0.0,
			"-0.018": 0.0,
			"-0.017": 0.0,
			"-0.016": 0.0,
			"-0.015": 0.0,
			"-0.014": 0.0,
			"-0.013": 0.0,
			"-0.012": 0.0,
			"-0.011": 0.0,
			"-0.01": 0.0,
			"-0.009": 0.387913632126,
			"-0.008": 3.85048588992,
			"-0.007": 14.3781286397,
			"-0.006": 22.5173255133,
			"-0.005": 22.9552238303,
			"-0.004": 19.9907343613,
			"-0.003": 16.3356865105,
			"-0.002": 15.2102211835,
			"-0.001": 18.749628864,
			"0.0": 20.9068136416,
			"0.001": 23.6625889401,
			"0.002": 26.3070904733,
			"0.003": 25.2352297171,
			"0.004": 15.7736033503,
			"0.005": 5.44390659397,
			"0.006": 3.69147228611,
			"0.007": 3.1624222539,
			"0.008": 3.68957715842,
			"0.009": 4.79809209444,
			"0.01": 7.50522819373,
			"0.011": 8.26272049424,
			"0.012": 3.03098324009,
			"0.013": 0.173487272036,
			"0.014": 0.0,
			"0.015": 0.0,
			"0.016": 0.0,
			"0.017": 0.0,
			"0.018": 0.0,
			"0.019": 0.0,
			"0.02": 0.0,
			"0.021": 0.0,
			"0.022": 0.0,
			"0.023": 0.0,
			"0.024": 0.0,
			"0.0": 0.0
		}
	}
}
