{
	 "smiles": "CNC1=CC=CC=N1", 
	 "Tm": 288.15, 
	 "num_atms": 16, 
	 "gaussian": { 
		 "optdone": 1, 
		 "sigma_profile": "yes", 
		 "theory": "DFT", 
		 "functional": "B3LYP", 
		 "basiset": "6-31G**", 
		 "properties": { 
			 "R2extent": 1632.3422, 
			 "electric_dipole_moment_norm": 1.92160213364, 
			 "electric_quadrupole_moment_norm": 9.28403029831, 
			 "total_energy": -342.962903776, 
			 "HOMO_LUMO_gap": 0.19247, 
			 "cosmo_polarized_energy": -7.9, 
			 "cosmo_cavitation_energy": 19.39, 
			 "cosmo_dispersion_energy": -14.72, 
			 "cosmo_repulsion_energy": 1.23, 
			 "cosmo_total_nonelectrostatic_energy": 5.9, 
			 "SMD_solvation_energy": 1.93 
		},
		"coords": [
			{
				"x": -2.3316874487,
				"y": -0.8696615156,
				"z": -2.7445309354,
				"element": "C" 
			},
			{
				"x": -1.5634931076,
				"y": 0.3497814569,
				"z": -2.5654937573,
				"element": "N" 
			},
			{
				"x": -0.3160058092,
				"y": 0.3379882282,
				"z": -1.9810663699,
				"element": "C" 
			},
			{
				"x": 0.3214617662,
				"y": 1.5519419582,
				"z": -1.6279681234,
				"element": "C" 
			},
			{
				"x": 1.5894357522,
				"y": 1.4951368956,
				"z": -1.0764879446,
				"element": "C" 
			},
			{
				"x": 2.2059738502,
				"y": 0.2503811838,
				"z": -0.8866808566,
				"element": "C" 
			},
			{
				"x": 1.4940462357,
				"y": -0.8815752871,
				"z": -1.2661167254,
				"element": "C" 
			},
			{
				"x": 0.2626290695,
				"y": -0.8589244624,
				"z": -1.7952699488,
				"element": "N" 
			},
			{
				"x": -1.745923824,
				"y": -1.5957614,
				"z": -3.311472505,
				"element": "H" 
			},
			{
				"x": -2.6136072886,
				"y": -1.3431570357,
				"z": -1.7934092795,
				"element": "H" 
			},
			{
				"x": -3.2387897809,
				"y": -0.6304826156,
				"z": -3.305239586,
				"element": "H" 
			},
			{
				"x": -2.0876897495,
				"y": 1.205021193,
				"z": -2.4636818771,
				"element": "H" 
			},
			{
				"x": -0.1781602697,
				"y": 2.5024895907,
				"z": -1.7942017632,
				"element": "H" 
			},
			{
				"x": 2.0995660928,
				"y": 2.4126326209,
				"z": -0.7954570441,
				"element": "H" 
			},
			{
				"x": 3.1984855012,
				"y": 0.1660208134,
				"z": -0.4578168924,
				"element": "H" 
			},
			{
				"x": 1.9287590102,
				"y": -1.8720316242,
				"z": -1.1362063914,
				"element": "H" 
			}
		],
		 "valence_orbital": [ 
			{
				"type": "occ",
				"energy": -0.36288,
				"method": "rhf"
			},
			{
				"type": "occ",
				"energy": -0.29547,
				"method": "rhf"
			},
			{
				"type": "occ",
				"energy": -0.27138,
				"method": "rhf"
			},
			{
				"type": "occ",
				"energy": -0.24639,
				"method": "rhf"
			},
			{
				"type": "occ",
				"energy": -0.19986,
				"method": "rhf"
			},
			{
				"type": "unocc",
				"energy": -0.00739,
				"method": "rhf"
			},
			{
				"type": "unocc",
				"energy": 0.01732,
				"method": "rhf"
			},
			{
				"type": "unocc",
				"energy": 0.08447,
				"method": "rhf"
			},
			{
				"type": "unocc",
				"energy": 0.11172,
				"method": "rhf"
			},
			{
				"type": "unocc",
				"energy": 0.13179,
				"method": "rhf"
			}
		],
		"cosmo_sigma_profile": { 
			"-0.025": 0.0,
			"-0.024": 0.0,
			"-0.023": 0.0,
			"-0.022": 0.0,
			"-0.021": 0.0,
			"-0.02": 0.0,
			"-0.019": 0.0,
			"-0.018": 0.0,
			"-0.017": 0.0,
			"-0.016": 0.0,
			"-0.015": 0.0,
			"-0.014": 0.00816037090456,
			"-0.013": 1.15976415947,
			"-0.012": 1.21329404093,
			"-0.011": 1.62861703889,
			"-0.01": 1.48936892505,
			"-0.009": 1.58167788668,
			"-0.008": 1.17938690239,
			"-0.007": 2.27284612891,
			"-0.006": 6.41185713659,
			"-0.005": 10.4800206635,
			"-0.004": 10.8788711782,
			"-0.003": 13.9314341999,
			"-0.002": 11.9173072232,
			"-0.001": 14.1927047454,
			"0.0": 9.54739634813,
			"0.001": 7.29079151949,
			"0.002": 7.79109299889,
			"0.003": 9.01793365436,
			"0.004": 12.3003112358,
			"0.005": 11.6075892421,
			"0.006": 4.70862879923,
			"0.007": 3.21868209034,
			"0.008": 1.75562723925,
			"0.009": 2.44970511791,
			"0.01": 1.51030058774,
			"0.011": 1.08991170894,
			"0.012": 1.14654737343,
			"0.013": 0.79694618077,
			"0.014": 0.796647353942,
			"0.015": 0.59517856274,
			"0.016": 0.0269911268948,
			"0.017": 0.0,
			"0.018": 0.0,
			"0.019": 0.0,
			"0.02": 0.0,
			"0.021": 0.0,
			"0.022": 0.0,
			"0.023": 0.0,
			"0.024": 0.0,
			"0.025": 0.0
		}
	}
}
