{
	 "smiles": "BrCC#C", 
	 "Tm": 212.15, 
	 "num_atms": 7, 
	 "gaussian": { 
		 "optdone": 1, 
		 "sigma_profile": "yes", 
		 "theory": "DFT", 
		 "functional": "B3LYP", 
		 "basiset": "6-31G**", 
		 "properties": { 
			 "R2extent": 948.9957, 
			 "electric_dipole_moment_norm": 1.83901209621, 
			 "electric_quadrupole_moment_norm": 3.62206470815, 
			 "total_energy": -2687.45218078, 
			 "HOMO_LUMO_gap": 0.23763, 
			 "cosmo_polarized_energy": -5.47, 
			 "cosmo_cavitation_energy": 14.07, 
			 "cosmo_dispersion_energy": -10.32, 
			 "cosmo_repulsion_energy": 0.94, 
			 "cosmo_total_nonelectrostatic_energy": 4.68, 
			 "SMD_solvation_energy": 2.89 
		},
		"coords": [
			{
				"x": 0.3445075021,
				"y": 0.4622876934,
				"z": 2.343983186,
				"element": "Br" 
			},
			{
				"x": -0.4097906699,
				"y": -0.3079045613,
				"z": 0.6616942043,
				"element": "C" 
			},
			{
				"x": 0.2726173955,
				"y": 0.1688339757,
				"z": -0.5174375078,
				"element": "C" 
			},
			{
				"x": 0.8242386289,
				"y": 0.5499490208,
				"z": -1.5217497284,
				"element": "C" 
			},
			{
				"x": -0.3184088346,
				"y": -1.3874700671,
				"z": 0.7838229179,
				"element": "H" 
			},
			{
				"x": -1.4625750588,
				"y": -0.0246614316,
				"z": 0.6729496302,
				"element": "H" 
			},
			{
				"x": 1.3186110367,
				"y": 0.89296537,
				"z": -2.4012627022,
				"element": "H" 
			}
		],
		 "valence_orbital": [ 
			{
				"type": "occ",
				"energy": -0.40686,
				"method": "rhf"
			},
			{
				"type": "occ",
				"energy": -0.29089,
				"method": "rhf"
			},
			{
				"type": "occ",
				"energy": -0.28858,
				"method": "rhf"
			},
			{
				"type": "occ",
				"energy": -0.27412,
				"method": "rhf"
			},
			{
				"type": "occ",
				"energy": -0.27392,
				"method": "rhf"
			},
			{
				"type": "unocc",
				"energy": -0.03629,
				"method": "rhf"
			},
			{
				"type": "unocc",
				"energy": 0.03724,
				"method": "rhf"
			},
			{
				"type": "unocc",
				"energy": 0.06572,
				"method": "rhf"
			},
			{
				"type": "unocc",
				"energy": 0.11538,
				"method": "rhf"
			},
			{
				"type": "unocc",
				"energy": 0.1305,
				"method": "rhf"
			}
		],
		"cosmo_sigma_profile": { 
			"-0.025": 0.0,
			"-0.024": 0.0,
			"-0.023": 0.0,
			"-0.022": 0.0,
			"-0.021": 0.0,
			"-0.02": 0.0,
			"-0.019": 0.0,
			"-0.018": 0.0,
			"-0.017": 0.0,
			"-0.016": 0.0,
			"-0.015": 0.0,
			"-0.014": 0.0,
			"-0.013": 0.114453590999,
			"-0.012": 1.27851925837,
			"-0.011": 1.34636116471,
			"-0.01": 1.62752482734,
			"-0.009": 5.40868755131,
			"-0.008": 5.16375598029,
			"-0.007": 4.24852213822,
			"-0.006": 5.53984852806,
			"-0.005": 4.29154905417,
			"-0.004": 3.24017549973,
			"-0.003": 4.30191297918,
			"-0.002": 5.48720541066,
			"-0.001": 5.48161315453,
			"0.0": 4.87993627128,
			"0.001": 6.50489094722,
			"0.002": 7.57096161152,
			"0.003": 7.55351429917,
			"0.004": 10.093790621,
			"0.005": 18.968209924,
			"0.006": 13.9444601103,
			"0.007": 0.00491200702286,
			"0.008": 0.0,
			"0.009": 0.0,
			"0.01": 0.0,
			"0.011": 0.0,
			"0.012": 0.0,
			"0.013": 0.0,
			"0.014": 0.0,
			"0.015": 0.0,
			"0.016": 0.0,
			"0.017": 0.0,
			"0.018": 0.0,
			"0.019": 0.0,
			"0.02": 0.0,
			"0.021": 0.0,
			"0.022": 0.0,
			"0.023": 0.0,
			"0.024": 0.0,
			"0.025": 0.0
		}
	}
}
