{
	 "smiles": "CC(C)CS(=O)(=O)CCC(O)=O", 
	 "Tm": 384.15, 
	 "num_atms": 26, 
	 "gaussian": { 
		 "optdone": 1, 
		 "sigma_profile": "yes", 
		 "theory": "DFT", 
		 "functional": "B3LYP", 
		 "basiset": "6-31G**", 
		 "properties": { 
			 "R2extent": 4223.5231, 
			 "electric_dipole_moment_norm": 5.05501038674, 
			 "electric_quadrupole_moment_norm": 15.9790103752, 
			 "total_energy": -974.224508535, 
			 "HOMO_LUMO_gap": 0.2783, 
			 "cosmo_polarized_energy": -25.75, 
			 "cosmo_cavitation_energy": 30.32, 
			 "cosmo_dispersion_energy": -21.73, 
			 "cosmo_repulsion_energy": 1.72, 
			 "cosmo_total_nonelectrostatic_energy": 10.31, 
			 "SMD_solvation_energy": 5.61 
		},
		"coords": [
			{
				"x": -3.5257678058,
				"y": -1.3399133259,
				"z": -1.4556684604,
				"element": "C" 
			},
			{
				"x": -2.087243117,
				"y": -1.542456653,
				"z": -1.9584727283,
				"element": "C" 
			},
			{
				"x": -1.7599141003,
				"y": -0.5763479032,
				"z": -3.1067489787,
				"element": "C" 
			},
			{
				"x": -1.1171193712,
				"y": -1.3991585609,
				"z": -0.7698018973,
				"element": "C" 
			},
			{
				"x": 0.553764038,
				"y": -2.0396209762,
				"z": -1.1357631822,
				"element": "S" 
			},
			{
				"x": 1.272304167,
				"y": -1.0751574031,
				"z": -1.9923115759,
				"element": "O" 
			},
			{
				"x": 0.4074268074,
				"y": -3.4437377819,
				"z": -1.5540309475,
				"element": "O" 
			},
			{
				"x": 1.3920617061,
				"y": -2.0491720219,
				"z": 0.482422001,
				"element": "C" 
			},
			{
				"x": 1.8210519718,
				"y": -0.6612250982,
				"z": 0.9442214031,
				"element": "C" 
			},
			{
				"x": 2.6147838529,
				"y": -0.7291508847,
				"z": 2.2457599015,
				"element": "C" 
			},
			{
				"x": 3.124056295,
				"y": 0.4535362399,
				"z": 2.6747438202,
				"element": "O" 
			},
			{
				"x": 2.7871799832,
				"y": -1.736435627,
				"z": 2.8834807498,
				"element": "O" 
			},
			{
				"x": -3.6642621994,
				"y": -0.3329117914,
				"z": -1.0440635219,
				"element": "H" 
			},
			{
				"x": -4.2365202827,
				"y": -1.4602558141,
				"z": -2.2793367721,
				"element": "H" 
			},
			{
				"x": -3.7896550861,
				"y": -2.063464726,
				"z": -0.676948754,
				"element": "H" 
			},
			{
				"x": -1.9939692682,
				"y": -2.5720805037,
				"z": -2.3248116444,
				"element": "H" 
			},
			{
				"x": -1.8555628134,
				"y": 0.4654580057,
				"z": -2.776567219,
				"element": "H" 
			},
			{
				"x": -2.4582387867,
				"y": -0.7269914632,
				"z": -3.9362123169,
				"element": "H" 
			},
			{
				"x": -0.7437286502,
				"y": -0.7157019108,
				"z": -3.481172889,
				"element": "H" 
			},
			{
				"x": -1.0049854989,
				"y": -0.353440777,
				"z": -0.4642350506,
				"element": "H" 
			},
			{
				"x": -1.4666700624,
				"y": -1.9863599736,
				"z": 0.0856208607,
				"element": "H" 
			},
			{
				"x": 0.7396826252,
				"y": -2.549767994,
				"z": 1.2010441064,
				"element": "H" 
			},
			{
				"x": 2.2581904278,
				"y": -2.6966954728,
				"z": 0.321992643,
				"element": "H" 
			},
			{
				"x": 2.4226036157,
				"y": -0.1840028817,
				"z": 0.1618243919,
				"element": "H" 
			},
			{
				"x": 0.9533725137,
				"y": -0.009027328,
				"z": 1.1112984095,
				"element": "H" 
			},
			{
				"x": 2.9276590383,
				"y": 1.1605826267,
				"z": 2.0434376512,
				"element": "H" 
			}
		],
		 "valence_orbital": [ 
			{
				"type": "occ",
				"energy": -0.32518,
				"method": "rhf"
			},
			{
				"type": "occ",
				"energy": -0.31348,
				"method": "rhf"
			},
			{
				"type": "occ",
				"energy": -0.30074,
				"method": "rhf"
			},
			{
				"type": "occ",
				"energy": -0.28809,
				"method": "rhf"
			},
			{
				"type": "occ",
				"energy": -0.28543,
				"method": "rhf"
			},
			{
				"type": "unocc",
				"energy": -0.00713,
				"method": "rhf"
			},
			{
				"type": "unocc",
				"energy": 0.03825,
				"method": "rhf"
			},
			{
				"type": "unocc",
				"energy": 0.04429,
				"method": "rhf"
			},
			{
				"type": "unocc",
				"energy": 0.0604,
				"method": "rhf"
			},
			{
				"type": "unocc",
				"energy": 0.07077,
				"method": "rhf"
			}
		],
		"cosmo_sigma_profile": { 
			"-0.025": 0.0,
			"-0.024": 0.0,
			"-0.023": 0.0,
			"-0.022": 0.0,
			"-0.021": 0.0,
			"-0.02": 0.202198452057,
			"-0.019": 1.23197778933,
			"-0.018": 1.0657164907,
			"-0.017": 1.00115338304,
			"-0.016": 1.44538614281,
			"-0.015": 1.53300322202,
			"-0.014": 0.655058616591,
			"-0.013": 0.951320167316,
			"-0.012": 1.10280095786,
			"-0.011": 2.18774137364,
			"-0.01": 3.44645135366,
			"-0.009": 7.18812979481,
			"-0.008": 12.1457872259,
			"-0.007": 10.1501318699,
			"-0.006": 7.35792422621,
			"-0.005": 9.12098609972,
			"-0.004": 10.7852933072,
			"-0.003": 17.6363019838,
			"-0.002": 16.7644446679,
			"-0.001": 18.4873073347,
			"0.0": 17.618033557,
			"0.001": 15.5702928855,
			"0.002": 4.9995184801,
			"0.003": 4.14892001437,
			"0.004": 5.68438400641,
			"0.005": 4.75668496071,
			"0.006": 4.19148544648,
			"0.007": 4.57641870619,
			"0.008": 5.47243443152,
			"0.009": 6.91634599261,
			"0.01": 9.19318852098,
			"0.011": 14.0771088701,
			"0.012": 11.526083359,
			"0.013": 3.02313369985,
			"0.014": 0.0,
			"0.015": 0.0,
			"0.016": 0.0,
			"0.017": 0.0,
			"0.018": 0.0,
			"0.019": 0.0,
			"0.02": 0.0,
			"0.021": 0.0,
			"0.022": 0.0,
			"0.023": 0.0,
			"0.024": 0.0,
			"0.025": 0.0
		}
	}
}
