{
	 "smiles": "CC(=O)OC1=CC=C(OC(C)=O)C2=C1C=CC=C2", 
	 "Tm": 397.15, 
	 "num_atms": 30, 
	 "gaussian": { 
		 "optdone": 1, 
		 "sigma_profile": "yes", 
		 "theory": "DFT", 
		 "functional": "B3LYP", 
		 "basiset": "6-31G**", 
		 "properties": { 
			 "R2extent": 5307.0843, 
			 "electric_dipole_moment_norm": 4.79871548334, 
			 "electric_quadrupole_moment_norm": 18.2818165717, 
			 "total_energy": -841.640018647, 
			 "HOMO_LUMO_gap": 0.16749, 
			 "cosmo_polarized_energy": -14.06, 
			 "cosmo_cavitation_energy": 35.03, 
			 "cosmo_dispersion_energy": -24.37, 
			 "cosmo_repulsion_energy": 1.89, 
			 "cosmo_total_nonelectrostatic_energy": 12.55, 
			 "SMD_solvation_energy": 8.34 
		},
		"coords": [
			{
				"x": 1.4073710927,
				"y": 3.4139585457,
				"z": -0.8060635318,
				"element": "C" 
			},
			{
				"x": 2.7985640345,
				"y": 3.1220779959,
				"z": -0.2896127307,
				"element": "C" 
			},
			{
				"x": 3.684415093,
				"y": 3.9310467158,
				"z": -0.208104136,
				"element": "O" 
			},
			{
				"x": 3.0633573471,
				"y": 1.8289713978,
				"z": 0.1241522958,
				"element": "O" 
			},
			{
				"x": 2.1093882727,
				"y": 0.819923586,
				"z": 0.0506071847,
				"element": "C" 
			},
			{
				"x": 1.9722249579,
				"y": 0.0880683372,
				"z": -1.1048867911,
				"element": "C" 
			},
			{
				"x": 1.045782195,
				"y": -0.9766754628,
				"z": -1.1731974289,
				"element": "C" 
			},
			{
				"x": 0.278860885,
				"y": -1.2825253752,
				"z": -0.0728653066,
				"element": "C" 
			},
			{
				"x": -0.6124546071,
				"y": -2.3535013331,
				"z": -0.0477866013,
				"element": "O" 
			},
			{
				"x": -1.4818633687,
				"y": -2.5898791479,
				"z": -1.0870121445,
				"element": "C" 
			},
			{
				"x": -2.3309375526,
				"y": -3.7938663456,
				"z": -0.7650098279,
				"element": "C" 
			},
			{
				"x": -1.541014057,
				"y": -1.9257770231,
				"z": -2.0906106003,
				"element": "O" 
			},
			{
				"x": 0.4068005313,
				"y": -0.5636379668,
				"z": 1.1513758155,
				"element": "C" 
			},
			{
				"x": 1.3535256142,
				"y": 0.51080289,
				"z": 1.2174840668,
				"element": "C" 
			},
			{
				"x": 1.506105714,
				"y": 1.2240722068,
				"z": 2.4360408101,
				"element": "C" 
			},
			{
				"x": 0.7461307324,
				"y": 0.8980603179,
				"z": 3.5369848433,
				"element": "C" 
			},
			{
				"x": -0.1962957477,
				"y": -0.1554724463,
				"z": 3.4695007507,
				"element": "C" 
			},
			{
				"x": -0.3602488429,
				"y": -0.8730914269,
				"z": 2.3057596687,
				"element": "C" 
			},
			{
				"x": 1.349528076,
				"y": 4.47759999,
				"z": -1.0332484153,
				"element": "H" 
			},
			{
				"x": 0.6504917995,
				"y": 3.1492370467,
				"z": -0.0621310398,
				"element": "H" 
			},
			{
				"x": 1.1922230412,
				"y": 2.8325911959,
				"z": -1.7066600307,
				"element": "H" 
			},
			{
				"x": 2.5876684065,
				"y": 0.3296350326,
				"z": -1.9652186964,
				"element": "H" 
			},
			{
				"x": 0.9355467338,
				"y": -1.5385462833,
				"z": -2.0906743241,
				"element": "H" 
			},
			{
				"x": -2.9275985164,
				"y": -3.6028232539,
				"z": 0.1320611719,
				"element": "H" 
			},
			{
				"x": -2.9877273479,
				"y": -4.00718647,
				"z": -1.6074532256,
				"element": "H" 
			},
			{
				"x": -1.6938826306,
				"y": -4.6577919519,
				"z": -0.5551142636,
				"element": "H" 
			},
			{
				"x": 2.2434341155,
				"y": 2.0176694923,
				"z": 2.48718849,
				"element": "H" 
			},
			{
				"x": 0.8736145365,
				"y": 1.4477074672,
				"z": 4.4648132195,
				"element": "H" 
			},
			{
				"x": -0.7896209687,
				"y": -0.4024491904,
				"z": 4.3449544976,
				"element": "H" 
			},
			{
				"x": -1.073189539,
				"y": -1.6875985407,
				"z": 2.2536262801,
				"element": "H" 
			}
		],
		 "valence_orbital": [ 
			{
				"type": "occ",
				"energy": -0.2894,
				"method": "rhf"
			},
			{
				"type": "occ",
				"energy": -0.2857,
				"method": "rhf"
			},
			{
				"type": "occ",
				"energy": -0.27272,
				"method": "rhf"
			},
			{
				"type": "occ",
				"energy": -0.2585,
				"method": "rhf"
			},
			{
				"type": "occ",
				"energy": -0.2208,
				"method": "rhf"
			},
			{
				"type": "unocc",
				"energy": -0.05331,
				"method": "rhf"
			},
			{
				"type": "unocc",
				"energy": -0.02472,
				"method": "rhf"
			},
			{
				"type": "unocc",
				"energy": -0.00683,
				"method": "rhf"
			},
			{
				"type": "unocc",
				"energy": 0.00633,
				"method": "rhf"
			},
			{
				"type": "unocc",
				"energy": 0.02803,
				"method": "rhf"
			}
		],
		"cosmo_sigma_profile": { 
			"-0.025": 0.0,
			"-0.024": 0.0,
			"-0.023": 0.0,
			"-0.022": 0.0,
			"-0.021": 0.0,
			"-0.02": 0.0,
			"-0.019": 0.0,
			"-0.018": 0.0,
			"-0.017": 0.0,
			"-0.016": 0.0,
			"-0.015": 0.0,
			"-0.014": 0.0,
			"-0.013": 0.0,
			"-0.012": 0.0,
			"-0.011": 0.0,
			"-0.01": 0.0,
			"-0.009": 0.0,
			"-0.008": 0.9918020481,
			"-0.007": 9.70629361383,
			"-0.006": 22.7480142141,
			"-0.005": 25.6944122049,
			"-0.004": 26.3078193071,
			"-0.003": 24.4083210152,
			"-0.002": 25.9585819488,
			"-0.001": 13.4461030309,
			"0.0": 12.605882306,
			"0.001": 18.6928130296,
			"0.002": 22.6890423297,
			"0.003": 16.3620311019,
			"0.004": 14.0879354446,
			"0.005": 7.03761545135,
			"0.006": 3.95986046213,
			"0.007": 3.16067035577,
			"0.008": 4.76262237552,
			"0.009": 4.98574997415,
			"0.01": 6.74890049406,
			"0.011": 10.1086296791,
			"0.012": 5.40571139787,
			"0.013": 0.524302232284,
			"0.014": 0.0,
			"0.015": 0.0,
			"0.016": 0.0,
			"0.017": 0.0,
			"0.018": 0.0,
			"0.019": 0.0,
			"0.02": 0.0,
			"0.021": 0.0,
			"0.022": 0.0,
			"0.023": 0.0,
			"0.024": 0.0,
			"0.025": 0.0
		}
	}
}
