{
	 "smiles": "OC1=NN=C(C=C1)C1=CC=C(F)C=C1", 
	 "Tm": 543.15, 
	 "num_atms": 21, 
	 "gaussian": { 
		 "optdone": 1, 
		 "sigma_profile": "yes", 
		 "theory": "DFT", 
		 "functional": "B3LYP", 
		 "basiset": "6-31G**", 
		 "properties": { 
			 "R2extent": 4027.9327, 
			 "electric_dipole_moment_norm": 5.24273959872, 
			 "electric_quadrupole_moment_norm": 15.9666334582, 
			 "total_energy": -669.802655121, 
			 "HOMO_LUMO_gap": 0.17252, 
			 "cosmo_polarized_energy": -19.08, 
			 "cosmo_cavitation_energy": 26.55, 
			 "cosmo_dispersion_energy": -19.75, 
			 "cosmo_repulsion_energy": 1.5, 
			 "cosmo_total_nonelectrostatic_energy": 8.3, 
			 "SMD_solvation_energy": 3.76 
		},
		"coords": [
			{
				"x": 3.727134039,
				"y": -0.1041859881,
				"z": -1.484993588,
				"element": "O" 
			},
			{
				"x": 2.5903386028,
				"y": 0.2110761784,
				"z": -0.8198576596,
				"element": "C" 
			},
			{
				"x": 1.4729787449,
				"y": -0.1123020197,
				"z": -1.4682528973,
				"element": "N" 
			},
			{
				"x": 0.295094029,
				"y": 0.1362415556,
				"z": -0.9105216806,
				"element": "N" 
			},
			{
				"x": 0.2011879737,
				"y": 0.7188152891,
				"z": 0.2961054146,
				"element": "C" 
			},
			{
				"x": 1.3594861161,
				"y": 1.0996254504,
				"z": 1.0039171706,
				"element": "C" 
			},
			{
				"x": 2.5881873586,
				"y": 0.835393666,
				"z": 0.4390089396,
				"element": "C" 
			},
			{
				"x": -1.1717758869,
				"y": 0.9465263482,
				"z": 0.8111564821,
				"element": "C" 
			},
			{
				"x": -1.4219742218,
				"y": 1.1792861205,
				"z": 2.1733413013,
				"element": "C" 
			},
			{
				"x": -2.7163239526,
				"y": 1.3957653606,
				"z": 2.6425308194,
				"element": "C" 
			},
			{
				"x": -3.7678549631,
				"y": 1.3736375493,
				"z": 1.7342513342,
				"element": "C" 
			},
			{
				"x": -5.0228727942,
				"y": 1.5840394068,
				"z": 2.1803684131,
				"element": "F" 
			},
			{
				"x": -3.560910582,
				"y": 1.1365179156,
				"z": 0.3789979089,
				"element": "C" 
			},
			{
				"x": -2.2635562091,
				"y": 0.9225376541,
				"z": -0.0751334038,
				"element": "C" 
			},
			{
				"x": 4.4924543573,
				"y": 0.1555392638,
				"z": -0.9559193486,
				"element": "H" 
			},
			{
				"x": 1.2929407643,
				"y": 1.6074959138,
				"z": 1.9597364193,
				"element": "H" 
			},
			{
				"x": 3.5141883464,
				"y": 1.1118945645,
				"z": 0.9371115278,
				"element": "H" 
			},
			{
				"x": -0.6077441317,
				"y": 1.1710049687,
				"z": 2.8910888172,
				"element": "H" 
			},
			{
				"x": -2.9181464441,
				"y": 1.5699502406,
				"z": 3.693747814,
				"element": "H" 
			},
			{
				"x": -4.4080581742,
				"y": 1.1252077372,
				"z": -0.2982924425,
				"element": "H" 
			},
			{
				"x": -2.0743729724,
				"y": 0.7303328245,
				"z": -1.1246913418,
				"element": "H" 
			}
		],
		 "valence_orbital": [ 
			{
				"type": "occ",
				"energy": -0.31292,
				"method": "rhf"
			},
			{
				"type": "occ",
				"energy": -0.28036,
				"method": "rhf"
			},
			{
				"type": "occ",
				"energy": -0.26389,
				"method": "rhf"
			},
			{
				"type": "occ",
				"energy": -0.23218,
				"method": "rhf"
			},
			{
				"type": "occ",
				"energy": -0.22791,
				"method": "rhf"
			},
			{
				"type": "unocc",
				"energy": -0.05539,
				"method": "rhf"
			},
			{
				"type": "unocc",
				"energy": -0.04108,
				"method": "rhf"
			},
			{
				"type": "unocc",
				"energy": -0.01217,
				"method": "rhf"
			},
			{
				"type": "unocc",
				"energy": 0.02906,
				"method": "rhf"
			},
			{
				"type": "unocc",
				"energy": 0.05196,
				"method": "rhf"
			}
		],
		"cosmo_sigma_profile": { 
			"-0.025": 0.0,
			"-0.024": 0.0,
			"-0.023": 0.0,
			"-0.022": 0.0,
			"-0.021": 0.0,
			"-0.02": 0.0761495855272,
			"-0.019": 1.21081068348,
			"-0.018": 1.34523166013,
			"-0.017": 0.977571138251,
			"-0.016": 1.14377866302,
			"-0.015": 1.35221094334,
			"-0.014": 1.53553083631,
			"-0.013": 0.709440045321,
			"-0.012": 0.299965198876,
			"-0.011": 1.24232255292,
			"-0.01": 2.47876382982,
			"-0.009": 3.94748048486,
			"-0.008": 6.07716095521,
			"-0.007": 8.86361149235,
			"-0.006": 9.23391507922,
			"-0.005": 9.3513227571,
			"-0.004": 8.93320493088,
			"-0.003": 8.52798399973,
			"-0.002": 10.3383086233,
			"-0.001": 14.0508727191,
			"0.0": 17.7875664368,
			"0.001": 18.3569049286,
			"0.002": 13.9866884875,
			"0.003": 17.8043175359,
			"0.004": 19.1758674201,
			"0.005": 4.90993759713,
			"0.006": 2.40764510019,
			"0.007": 3.40810933795,
			"0.008": 3.15462217965,
			"0.009": 3.13624078452,
			"0.01": 3.52591241223,
			"0.011": 4.50160807716,
			"0.012": 2.75721927837,
			"0.013": 2.87012675972,
			"0.014": 2.52220845903,
			"0.015": 1.70796021958,
			"0.016": 0.540132300725,
			"0.017": 0.0,
			"0.018": 0.0,
			"0.019": 0.0,
			"0.02": 0.0,
			"0.021": 0.0,
			"0.022": 0.0,
			"0.023": 0.0,
			"0.024": 0.0,
			"0.025": 0.0
		}
	}
}
