{
	 "smiles": "FC(F)C1=NNC(=O)C1", 
	 "Tm": 423.15, 
	 "num_atms": 13, 
	 "gaussian": { 
		 "optdone": 1, 
		 "sigma_profile": "yes", 
		 "theory": "DFT", 
		 "functional": "B3LYP", 
		 "basiset": "6-31G**", 
		 "properties": { 
			 "R2extent": 1472.4899, 
			 "electric_dipole_moment_norm": 1.48671818446, 
			 "electric_quadrupole_moment_norm": 7.38440731, 
			 "total_energy": -539.208408363, 
			 "HOMO_LUMO_gap": 0.20928, 
			 "cosmo_polarized_energy": -11.29, 
			 "cosmo_cavitation_energy": 18.75, 
			 "cosmo_dispersion_energy": -13.7, 
			 "cosmo_repulsion_energy": 1.12, 
			 "cosmo_total_nonelectrostatic_energy": 6.17, 
			 "SMD_solvation_energy": 4.12 
		},
		"coords": [
			{
				"x": -1.6966069589,
				"y": 1.6436517276,
				"z": -2.1125096465,
				"element": "F" 
			},
			{
				"x": -0.8869812037,
				"y": 0.5457297446,
				"z": -2.2415234748,
				"element": "C" 
			},
			{
				"x": -0.0559775774,
				"y": 0.7872754195,
				"z": -3.3038902716,
				"element": "F" 
			},
			{
				"x": -0.07593112,
				"y": 0.377484582,
				"z": -1.0035388951,
				"element": "C" 
			},
			{
				"x": -0.1466055436,
				"y": -0.7119491354,
				"z": -0.3176082028,
				"element": "N" 
			},
			{
				"x": 0.7040845509,
				"y": -0.5751514214,
				"z": 0.7558798672,
				"element": "N" 
			},
			{
				"x": 1.3797846967,
				"y": 0.6382659223,
				"z": 0.8147112195,
				"element": "C" 
			},
			{
				"x": 2.1743834882,
				"y": 0.9797791807,
				"z": 1.6635305994,
				"element": "O" 
			},
			{
				"x": 0.8707429691,
				"y": 1.3866071095,
				"z": -0.4250419956,
				"element": "C" 
			},
			{
				"x": -1.5015571743,
				"y": -0.3340885559,
				"z": -2.4554480009,
				"element": "H" 
			},
			{
				"x": 0.7897287814,
				"y": -1.3317204256,
				"z": 1.4177536673,
				"element": "H" 
			},
			{
				"x": 1.6956673558,
				"y": 1.638481045,
				"z": -1.0998915416,
				"element": "H" 
			},
			{
				"x": 0.3803677359,
				"y": 2.325034807,
				"z": -0.1453233245,
				"element": "H" 
			}
		],
		 "valence_orbital": [ 
			{
				"type": "occ",
				"energy": -0.37589,
				"method": "rhf"
			},
			{
				"type": "occ",
				"energy": -0.36035,
				"method": "rhf"
			},
			{
				"type": "occ",
				"energy": -0.33701,
				"method": "rhf"
			},
			{
				"type": "occ",
				"energy": -0.26968,
				"method": "rhf"
			},
			{
				"type": "occ",
				"energy": -0.26066,
				"method": "rhf"
			},
			{
				"type": "unocc",
				"energy": -0.05138,
				"method": "rhf"
			},
			{
				"type": "unocc",
				"energy": 0.02127,
				"method": "rhf"
			},
			{
				"type": "unocc",
				"energy": 0.07796,
				"method": "rhf"
			},
			{
				"type": "unocc",
				"energy": 0.10781,
				"method": "rhf"
			},
			{
				"type": "unocc",
				"energy": 0.10914,
				"method": "rhf"
			}
		],
		"cosmo_sigma_profile": { 
			"-0.025": 0.0,
			"-0.024": 0.0,
			"-0.023": 0.0,
			"-0.022": 0.0,
			"-0.021": 0.0,
			"-0.02": 0.0,
			"-0.019": 0.0,
			"-0.018": 0.0,
			"-0.017": 0.35708904489,
			"-0.016": 1.34592046731,
			"-0.015": 1.37209550702,
			"-0.014": 1.21069523616,
			"-0.013": 0.810365293909,
			"-0.012": 0.581100861703,
			"-0.011": 0.885999464447,
			"-0.01": 1.6908320329,
			"-0.009": 5.96968674036,
			"-0.008": 6.80509289331,
			"-0.007": 7.33895954916,
			"-0.006": 6.13304300115,
			"-0.005": 7.10747198922,
			"-0.004": 6.15538862373,
			"-0.003": 7.78233451563,
			"-0.002": 6.40613908389,
			"-0.001": 8.61449072955,
			"0.0": 7.82997958985,
			"0.001": 5.89133563556,
			"0.002": 5.28531568192,
			"0.003": 9.24253821084,
			"0.004": 19.4168689605,
			"0.005": 6.11730790834,
			"0.006": 3.15292724297,
			"0.007": 2.15361229244,
			"0.008": 1.72187016788,
			"0.009": 2.21535135046,
			"0.01": 2.50354776108,
			"0.011": 3.61899667267,
			"0.012": 7.10240674661,
			"0.013": 2.76855920621,
			"0.014": 0.0967235843196,
			"0.015": 0.0,
			"0.016": 0.0,
			"0.017": 0.0,
			"0.018": 0.0,
			"0.019": 0.0,
			"0.02": 0.0,
			"0.021": 0.0,
			"0.022": 0.0,
			"0.023": 0.0,
			"0.024": 0.0,
			"0.025": 0.0
		}
	}
}
