{
	 "smiles": "CCOC(=O)N1COCC2=C1C=CC1=CC3=C(N=C21)C1=C(C=C3)N(COC1)C(=O)OCC", 
	 "Tm": 468.15, 
	 "num_atms": 55, 
	 "gaussian": { 
		 "optdone": 1, 
		 "sigma_profile": "yes", 
		 "theory": "DFT", 
		 "functional": "B3LYP", 
		 "basiset": "6-31G**", 
		 "properties": { 
			 "R2extent": 23840.7059, 
			 "electric_dipole_moment_norm": 2.7496634885, 
			 "electric_quadrupole_moment_norm": 33.2517903335, 
			 "total_energy": -1505.94947881, 
			 "HOMO_LUMO_gap": 0.13043, 
			 "cosmo_polarized_energy": -17.68, 
			 "cosmo_cavitation_energy": 56.98, 
			 "cosmo_dispersion_energy": -41.19, 
			 "cosmo_repulsion_energy": 3.04, 
			 "cosmo_total_nonelectrostatic_energy": 18.83, 
			 "SMD_solvation_energy": 9.79 
		},
		"coords": [
			{
				"x": 0.4173152803,
				"y": 8.5519031808,
				"z": 1.7305992302,
				"element": "C" 
			},
			{
				"x": 0.3823301253,
				"y": 7.2586646477,
				"z": 2.5222583169,
				"element": "C" 
			},
			{
				"x": -0.0045631709,
				"y": 6.2064625985,
				"z": 1.6092988961,
				"element": "O" 
			},
			{
				"x": -0.0750914978,
				"y": 4.9686343124,
				"z": 2.1563169161,
				"element": "C" 
			},
			{
				"x": 0.1333868412,
				"y": 4.7425826608,
				"z": 3.3337667025,
				"element": "O" 
			},
			{
				"x": -0.4426627284,
				"y": 4.0258692443,
				"z": 1.2085385359,
				"element": "N" 
			},
			{
				"x": -0.4460738253,
				"y": 4.3143640769,
				"z": -0.2301947823,
				"element": "C" 
			},
			{
				"x": 0.5473096071,
				"y": 3.5713977474,
				"z": -0.8842934763,
				"element": "O" 
			},
			{
				"x": 0.2624225045,
				"y": 2.1752224645,
				"z": -0.8384992304,
				"element": "C" 
			},
			{
				"x": -0.2603336205,
				"y": 1.7356065122,
				"z": 0.5091950573,
				"element": "C" 
			},
			{
				"x": -0.5451302398,
				"y": 2.6429650629,
				"z": 1.5146715821,
				"element": "C" 
			},
			{
				"x": -1.0223096579,
				"y": 2.1972882661,
				"z": 2.7909476068,
				"element": "C" 
			},
			{
				"x": -1.2006606236,
				"y": 0.8647070817,
				"z": 3.0319535316,
				"element": "C" 
			},
			{
				"x": -0.9309698497,
				"y": -0.1095097447,
				"z": 2.0252259327,
				"element": "C" 
			},
			{
				"x": -1.1007548927,
				"y": -1.4834341103,
				"z": 2.2135272154,
				"element": "C" 
			},
			{
				"x": -0.8194215566,
				"y": -2.3792659518,
				"z": 1.1789200414,
				"element": "C" 
			},
			{
				"x": -0.3508926938,
				"y": -1.8331065486,
				"z": -0.0689311246,
				"element": "C" 
			},
			{
				"x": -0.177324921,
				"y": -0.5137402805,
				"z": -0.2656258901,
				"element": "N" 
			},
			{
				"x": -0.4574718481,
				"y": 0.3353341336,
				"z": 0.7395230724,
				"element": "C" 
			},
			{
				"x": -0.0415696164,
				"y": -2.7189856676,
				"z": -1.1517912703,
				"element": "C" 
			},
			{
				"x": -0.2144033332,
				"y": -4.0827566177,
				"z": -0.9929466298,
				"element": "C" 
			},
			{
				"x": -0.687069611,
				"y": -4.6224234074,
				"z": 0.248135031,
				"element": "C" 
			},
			{
				"x": -0.9718374295,
				"y": -3.7929771063,
				"z": 1.2952996363,
				"element": "C" 
			},
			{
				"x": -0.0039949512,
				"y": -4.9141886573,
				"z": -2.1253431478,
				"element": "N" 
			},
			{
				"x": -0.0331829569,
				"y": -4.190867081,
				"z": -3.4020615991,
				"element": "C" 
			},
			{
				"x": 0.8709301425,
				"y": -3.1192109053,
				"z": -3.3817039756,
				"element": "O" 
			},
			{
				"x": 0.4721259699,
				"y": -2.1239506678,
				"z": -2.4420825103,
				"element": "C" 
			},
			{
				"x": 0.4768083693,
				"y": -6.2088647234,
				"z": -2.0132694579,
				"element": "C" 
			},
			{
				"x": 0.7101082689,
				"y": -6.7840487766,
				"z": -0.9656885351,
				"element": "O" 
			},
			{
				"x": 0.6318475937,
				"y": -6.7750178068,
				"z": -3.2356216078,
				"element": "O" 
			},
			{
				"x": 1.1239779843,
				"y": -8.1363645995,
				"z": -3.2409358578,
				"element": "C" 
			},
			{
				"x": -0.0076653586,
				"y": -9.1368648598,
				"z": -3.0655000565,
				"element": "C" 
			},
			{
				"x": 0.7058322768,
				"y": 9.3782989585,
				"z": 2.387443864,
				"element": "H" 
			},
			{
				"x": 1.1430710011,
				"y": 8.4925279779,
				"z": 0.9144100146,
				"element": "H" 
			},
			{
				"x": -0.5645348459,
				"y": 8.778325667,
				"z": 1.3048747869,
				"element": "H" 
			},
			{
				"x": -0.3404838949,
				"y": 7.2973663759,
				"z": 3.3427545742,
				"element": "H" 
			},
			{
				"x": 1.3579133955,
				"y": 7.0134314129,
				"z": 2.9525406015,
				"element": "H" 
			},
			{
				"x": -1.443818335,
				"y": 4.0645800832,
				"z": -0.6221710542,
				"element": "H" 
			},
			{
				"x": -0.2357038681,
				"y": 5.367330867,
				"z": -0.3858147075,
				"element": "H" 
			},
			{
				"x": 1.198611913,
				"y": 1.6601439887,
				"z": -1.0685686618,
				"element": "H" 
			},
			{
				"x": -0.4539181209,
				"y": 1.9011699476,
				"z": -1.6294529529,
				"element": "H" 
			},
			{
				"x": -1.2242510337,
				"y": 2.9315632006,
				"z": 3.5570419013,
				"element": "H" 
			},
			{
				"x": -1.562874046,
				"y": 0.5310233349,
				"z": 4.0006435471,
				"element": "H" 
			},
			{
				"x": -1.4531623215,
				"y": -1.8582727521,
				"z": 3.1724200698,
				"element": "H" 
			},
			{
				"x": -0.8001932555,
				"y": -5.692614441,
				"z": 0.3416410543,
				"element": "H" 
			},
			{
				"x": -1.3302109185,
				"y": -4.2060091187,
				"z": 2.2343823044,
				"element": "H" 
			},
			{
				"x": -1.0615049387,
				"y": -3.8329961541,
				"z": -3.5632145105,
				"element": "H" 
			},
			{
				"x": 0.2592356537,
				"y": -4.8627387871,
				"z": -4.2022137104,
				"element": "H" 
			},
			{
				"x": -0.2899794888,
				"y": -1.4609155917,
				"z": -2.881840462,
				"element": "H" 
			},
			{
				"x": 1.3540849326,
				"y": -1.507311315,
				"z": -2.2506721833,
				"element": "H" 
			},
			{
				"x": 1.8721166719,
				"y": -8.2436716266,
				"z": -2.4527381512,
				"element": "H" 
			},
			{
				"x": 1.6055763928,
				"y": -8.24124303,
				"z": -4.2160321948,
				"element": "H" 
			},
			{
				"x": -0.4650542508,
				"y": -9.0267502194,
				"z": -2.0794625912,
				"element": "H" 
			},
			{
				"x": 0.3829695445,
				"y": -10.1563839033,
				"z": -3.1512778679,
				"element": "H" 
			},
			{
				"x": -0.7751007674,
				"y": -8.9977793524,
				"z": -3.8327818235,
				"element": "H" 
			}
		],
		 "valence_orbital": [ 
			{
				"type": "occ",
				"energy": -0.25949,
				"method": "rhf"
			},
			{
				"type": "occ",
				"energy": -0.24978,
				"method": "rhf"
			},
			{
				"type": "occ",
				"energy": -0.24809,
				"method": "rhf"
			},
			{
				"type": "occ",
				"energy": -0.22082,
				"method": "rhf"
			},
			{
				"type": "occ",
				"energy": -0.20464,
				"method": "rhf"
			},
			{
				"type": "unocc",
				"energy": -0.07421,
				"method": "rhf"
			},
			{
				"type": "unocc",
				"energy": -0.02118,
				"method": "rhf"
			},
			{
				"type": "unocc",
				"energy": -0.00045,
				"method": "rhf"
			},
			{
				"type": "unocc",
				"energy": 0.02836,
				"method": "rhf"
			},
			{
				"type": "unocc",
				"energy": 0.03289,
				"method": "rhf"
			}
		],
		"cosmo_sigma_profile": { 
			"-0.025": 0.0,
			"-0.024": 0.0,
			"-0.023": 0.0,
			"-0.022": 0.0,
			"-0.021": 0.0,
			"-0.02": 0.0,
			"-0.019": 0.0,
			"-0.018": 0.0,
			"-0.017": 0.0,
			"-0.016": 0.0,
			"-0.015": 0.0,
			"-0.014": 0.0,
			"-0.013": 0.0,
			"-0.012": 0.0,
			"-0.011": 0.0,
			"-0.01": 0.0,
			"-0.009": 0.0,
			"-0.008": 1.04268723589,
			"-0.007": 8.6350652354,
			"-0.006": 18.5418947633,
			"-0.005": 32.9143032195,
			"-0.004": 43.7738520677,
			"-0.003": 43.4905152961,
			"-0.002": 42.0094173426,
			"-0.001": 38.3773611985,
			"0.0": 42.2394523928,
			"0.001": 40.4871103617,
			"0.002": 36.4845788835,
			"0.003": 25.9657101866,
			"0.004": 17.4249324594,
			"0.005": 10.7200804404,
			"0.006": 8.51122675717,
			"0.007": 6.68707157024,
			"0.008": 5.42652349998,
			"0.009": 6.38481151793,
			"0.01": 4.3706939129,
			"0.011": 8.18959981083,
			"0.012": 9.39635978142,
			"0.013": 1.36001871516,
			"0.014": 0.0,
			"0.015": 0.0,
			"0.016": 0.0,
			"0.017": 0.0,
			"0.018": 0.0,
			"0.019": 0.0,
			"0.02": 0.0,
			"0.021": 0.0,
			"0.022": 0.0,
			"0.023": 0.0,
			"0.024": 0.0,
			"0.025": 0.0
		}
	}
}
