{
	 "smiles": "COC(=O)CC1=C(Cl)NC(C)=C1C(=O)OC", 
	 "Tm": 359.15, 
	 "num_atms": 28, 
	 "gaussian": { 
		 "optdone": 1, 
		 "sigma_profile": "yes", 
		 "theory": "DFT", 
		 "functional": "B3LYP", 
		 "basiset": "6-31G**", 
		 "properties": { 
			 "R2extent": 4180.6711, 
			 "electric_dipole_moment_norm": 2.88071581556, 
			 "electric_quadrupole_moment_norm": 12.870946222, 
			 "total_energy": -1204.15479438, 
			 "HOMO_LUMO_gap": 0.1984, 
			 "cosmo_polarized_energy": -15.69, 
			 "cosmo_cavitation_energy": 34.32, 
			 "cosmo_dispersion_energy": -23.42, 
			 "cosmo_repulsion_energy": 1.87, 
			 "cosmo_total_nonelectrostatic_energy": 12.77, 
			 "SMD_solvation_energy": 8.55 
		},
		"coords": [
			{
				"x": -1.4003636348,
				"y": -3.1308413341,
				"z": -1.06597265,
				"element": "C" 
			},
			{
				"x": -0.9054989679,
				"y": -1.795683064,
				"z": -1.2484713557,
				"element": "O" 
			},
			{
				"x": -1.8534471862,
				"y": -0.853692697,
				"z": -1.4338899924,
				"element": "C" 
			},
			{
				"x": -3.0405229073,
				"y": -1.0945739298,
				"z": -1.4677306225,
				"element": "O" 
			},
			{
				"x": -1.2558615168,
				"y": 0.5287481,
				"z": -1.6652359902,
				"element": "C" 
			},
			{
				"x": 0.0477247249,
				"y": 0.819465585,
				"z": -0.9832867607,
				"element": "C" 
			},
			{
				"x": 1.2404790344,
				"y": 1.0710109259,
				"z": -1.6104473924,
				"element": "C" 
			},
			{
				"x": 1.6380988651,
				"y": 1.1065329209,
				"z": -3.2947762788,
				"element": "Cl" 
			},
			{
				"x": 2.2144718585,
				"y": 1.328393126,
				"z": -0.6700893654,
				"element": "N" 
			},
			{
				"x": 1.6794244014,
				"y": 1.2513465801,
				"z": 0.5873098503,
				"element": "C" 
			},
			{
				"x": 2.5169412667,
				"y": 1.4845314776,
				"z": 1.8030757312,
				"element": "C" 
			},
			{
				"x": 0.3310424618,
				"y": 0.9371423203,
				"z": 0.4314855965,
				"element": "C" 
			},
			{
				"x": -0.5985963135,
				"y": 0.749462852,
				"z": 1.5515453952,
				"element": "C" 
			},
			{
				"x": -0.3335410494,
				"y": 0.8649526104,
				"z": 2.7368369526,
				"element": "O" 
			},
			{
				"x": -1.8394738156,
				"y": 0.4152384534,
				"z": 1.1160072594,
				"element": "O" 
			},
			{
				"x": -2.826096065,
				"y": 0.1900232023,
				"z": 2.132698392,
				"element": "C" 
			},
			{
				"x": -0.5179308821,
				"y": -3.7575171877,
				"z": -0.9361396996,
				"element": "H" 
			},
			{
				"x": -2.0424528458,
				"y": -3.1858223726,
				"z": -0.1831335676,
				"element": "H" 
			},
			{
				"x": -1.975512808,
				"y": -3.4527765244,
				"z": -1.9379250401,
				"element": "H" 
			},
			{
				"x": -2.0298874007,
				"y": 1.2397776183,
				"z": -1.369445326,
				"element": "H" 
			},
			{
				"x": -1.1214054627,
				"y": 0.6319303334,
				"z": -2.7489409824,
				"element": "H" 
			},
			{
				"x": 3.1765616481,
				"y": 1.5405684612,
				"z": -0.8860030575,
				"element": "H" 
			},
			{
				"x": 2.9378426362,
				"y": 2.497584985,
				"z": 1.8081595375,
				"element": "H" 
			},
			{
				"x": 3.353899642,
				"y": 0.7771363765,
				"z": 1.8510374713,
				"element": "H" 
			},
			{
				"x": 1.9006606785,
				"y": 1.3592715393,
				"z": 2.6920363179,
				"element": "H" 
			},
			{
				"x": -3.0221294437,
				"y": 1.1102244625,
				"z": 2.6895548714,
				"element": "H" 
			},
			{
				"x": -3.7185218103,
				"y": -0.1355085993,
				"z": 1.5988123159,
				"element": "H" 
			},
			{
				"x": -2.4902051078,
				"y": -0.578726221,
				"z": 2.8329283901,
				"element": "H" 
			}
		],
		 "valence_orbital": [ 
			{
				"type": "occ",
				"energy": -0.29472,
				"method": "rhf"
			},
			{
				"type": "occ",
				"energy": -0.27271,
				"method": "rhf"
			},
			{
				"type": "occ",
				"energy": -0.26705,
				"method": "rhf"
			},
			{
				"type": "occ",
				"energy": -0.25115,
				"method": "rhf"
			},
			{
				"type": "occ",
				"energy": -0.21596,
				"method": "rhf"
			},
			{
				"type": "unocc",
				"energy": -0.01756,
				"method": "rhf"
			},
			{
				"type": "unocc",
				"energy": 0.01918,
				"method": "rhf"
			},
			{
				"type": "unocc",
				"energy": 0.02832,
				"method": "rhf"
			},
			{
				"type": "unocc",
				"energy": 0.03285,
				"method": "rhf"
			},
			{
				"type": "unocc",
				"energy": 0.07756,
				"method": "rhf"
			}
		],
		"cosmo_sigma_profile": { 
			"-0.025": 0.0,
			"-0.024": 0.0,
			"-0.023": 0.0,
			"-0.022": 0.0,
			"-0.021": 0.0,
			"-0.02": 0.0,
			"-0.019": 0.0,
			"-0.018": 0.0,
			"-0.017": 0.503030453636,
			"-0.016": 1.066557453,
			"-0.015": 1.41994977494,
			"-0.014": 0.831510410999,
			"-0.013": 1.48250840161,
			"-0.012": 1.2681049607,
			"-0.011": 1.12538897919,
			"-0.01": 1.0777120097,
			"-0.009": 1.26513701179,
			"-0.008": 1.0315488049,
			"-0.007": 2.55708061334,
			"-0.006": 10.966350324,
			"-0.005": 20.8629414119,
			"-0.004": 23.3850905818,
			"-0.003": 28.158565249,
			"-0.002": 20.5293155648,
			"-0.001": 20.1196891091,
			"0.0": 18.7147600287,
			"0.001": 19.6726864657,
			"0.002": 20.4112441619,
			"0.003": 19.9464259913,
			"0.004": 14.2559256069,
			"0.005": 5.4265690738,
			"0.006": 6.1915436252,
			"0.007": 4.23088957367,
			"0.008": 4.06253760166,
			"0.009": 5.21294734703,
			"0.01": 3.56984806163,
			"0.011": 3.92692739862,
			"0.012": 7.84213416075,
			"0.013": 3.05454990316,
			"0.014": 0.0866574095715,
			"0.015": 0.0,
			"0.016": 0.0,
			"0.017": 0.0,
			"0.018": 0.0,
			"0.019": 0.0,
			"0.02": 0.0,
			"0.021": 0.0,
			"0.022": 0.0,
			"0.023": 0.0,
			"0.024": 0.0,
			"0.025": 0.0
		}
	}
}
