{
	 "smiles": "COC(=O)CC[C@H](C)[C@H]1CCC2C3[C@H](OC(C)=O)[C@H](Br)[C@@H]4CCCC[C@]4(C)C3CC[C@]12C", 
	 "Tm": 431.15, 
	 "num_atms": 75, 
	 "gaussian": { 
		 "optdone": 1, 
		 "sigma_profile": "yes", 
		 "theory": "DFT", 
		 "functional": "B3LYP", 
		 "basiset": "6-31G**", 
		 "properties": { 
			 "R2extent": 20862.7051, 
			 "electric_dipole_moment_norm": 3.20148768231, 
			 "electric_quadrupole_moment_norm": 18.9587980808, 
			 "total_energy": -3927.13527429, 
			 "HOMO_LUMO_gap": 0.26132, 
			 "cosmo_polarized_energy": -14.51, 
			 "cosmo_cavitation_energy": 65.78, 
			 "cosmo_dispersion_energy": -43.36, 
			 "cosmo_repulsion_energy": 3.21, 
			 "cosmo_total_nonelectrostatic_energy": 25.63, 
			 "SMD_solvation_energy": 10.98 
		},
		"coords": [
			{
				"x": 6.6396511284,
				"y": 4.6135276695,
				"z": -3.3014563333,
				"element": "C" 
			},
			{
				"x": 5.3309381981,
				"y": 4.6384776646,
				"z": -2.7105492829,
				"element": "O" 
			},
			{
				"x": 4.4132849946,
				"y": 3.8360384014,
				"z": -3.3035316431,
				"element": "C" 
			},
			{
				"x": 4.660194058,
				"y": 3.1466611217,
				"z": -4.2694972587,
				"element": "O" 
			},
			{
				"x": 3.082963336,
				"y": 3.906642703,
				"z": -2.5841405061,
				"element": "C" 
			},
			{
				"x": 3.1320062968,
				"y": 3.1993081624,
				"z": -1.2136859563,
				"element": "C" 
			},
			{
				"x": 1.789416121,
				"y": 3.2077444901,
				"z": -0.4420729496,
				"element": "C" 
			},
			{
				"x": 1.5040040477,
				"y": 4.6277527263,
				"z": 0.0789013885,
				"element": "C" 
			},
			{
				"x": 1.8073261683,
				"y": 2.1025707184,
				"z": 0.6717973937,
				"element": "C" 
			},
			{
				"x": 0.9499907118,
				"y": 2.4250590609,
				"z": 1.920266127,
				"element": "C" 
			},
			{
				"x": -0.4679195785,
				"y": 1.9010785613,
				"z": 1.6066685891,
				"element": "C" 
			},
			{
				"x": -0.3171732598,
				"y": 0.909335606,
				"z": 0.4136641312,
				"element": "C" 
			},
			{
				"x": -1.1839324078,
				"y": -0.3634319829,
				"z": 0.6022875696,
				"element": "C" 
			},
			{
				"x": -1.5157529085,
				"y": -1.1162513589,
				"z": -0.6929307256,
				"element": "C" 
			},
			{
				"x": -1.9679126253,
				"y": -0.1732209909,
				"z": -1.6866461131,
				"element": "O" 
			},
			{
				"x": -1.8915327179,
				"y": -0.5597613618,
				"z": -2.9842558904,
				"element": "C" 
			},
			{
				"x": -2.4272654816,
				"y": 0.5179881887,
				"z": -3.8936807156,
				"element": "C" 
			},
			{
				"x": -1.4556074689,
				"y": -1.6332643323,
				"z": -3.3423331433,
				"element": "O" 
			},
			{
				"x": -2.5428636467,
				"y": -2.2234550138,
				"z": -0.4612630451,
				"element": "C" 
			},
			{
				"x": -4.3580004115,
				"y": -1.4045950884,
				"z": -0.1443435066,
				"element": "Br" 
			},
			{
				"x": -2.0699600344,
				"y": -3.2272921391,
				"z": 0.6088453023,
				"element": "C" 
			},
			{
				"x": -3.1132735591,
				"y": -4.3652766306,
				"z": 0.8544360126,
				"element": "C" 
			},
			{
				"x": -3.7217389318,
				"y": -4.4272021508,
				"z": 2.2735866148,
				"element": "C" 
			},
			{
				"x": -3.8967691153,
				"y": -3.0461105362,
				"z": 2.9203929323,
				"element": "C" 
			},
			{
				"x": -2.6286429257,
				"y": -2.1495964784,
				"z": 2.886228781,
				"element": "C" 
			},
			{
				"x": -1.4925776866,
				"y": -2.6017707193,
				"z": 1.9176743957,
				"element": "C" 
			},
			{
				"x": -0.6514824881,
				"y": -3.6807325301,
				"z": 2.6449917263,
				"element": "C" 
			},
			{
				"x": -0.5668977392,
				"y": -1.3608056441,
				"z": 1.6203386932,
				"element": "C" 
			},
			{
				"x": 0.8913591388,
				"y": -1.6753224849,
				"z": 1.2128234878,
				"element": "C" 
			},
			{
				"x": 1.7446441386,
				"y": -0.3967890517,
				"z": 1.18076853,
				"element": "C" 
			},
			{
				"x": 1.2226149476,
				"y": 0.7063660601,
				"z": 0.2214234226,
				"element": "C" 
			},
			{
				"x": 1.5876153764,
				"y": 0.2971946054,
				"z": -1.2182269327,
				"element": "C" 
			},
			{
				"x": 6.5982565785,
				"y": 4.9362676001,
				"z": -4.3449222045,
				"element": "H" 
			},
			{
				"x": 7.0617789377,
				"y": 3.6059220909,
				"z": -3.2639678385,
				"element": "H" 
			},
			{
				"x": 7.2437857947,
				"y": 5.3032819971,
				"z": -2.7118521913,
				"element": "H" 
			},
			{
				"x": 2.8121289214,
				"y": 4.9602961497,
				"z": -2.4621137944,
				"element": "H" 
			},
			{
				"x": 2.3419854204,
				"y": 3.4310212543,
				"z": -3.2323148412,
				"element": "H" 
			},
			{
				"x": 3.9002304718,
				"y": 3.6753550066,
				"z": -0.5912901962,
				"element": "H" 
			},
			{
				"x": 3.4629323663,
				"y": 2.1701599462,
				"z": -1.3766705407,
				"element": "H" 
			},
			{
				"x": 0.9883593233,
				"y": 2.9691382216,
				"z": -1.1545632697,
				"element": "H" 
			},
			{
				"x": 1.5777823521,
				"y": 5.3602528023,
				"z": -0.7309871719,
				"element": "H" 
			},
			{
				"x": 0.497958584,
				"y": 4.7204487063,
				"z": 0.4971406016,
				"element": "H" 
			},
			{
				"x": 2.2215548738,
				"y": 4.9237963369,
				"z": 0.8531093502,
				"element": "H" 
			},
			{
				"x": 2.8559589572,
				"y": 1.9760182039,
				"z": 0.9764421298,
				"element": "H" 
			},
			{
				"x": 0.9610924851,
				"y": 3.481473997,
				"z": 2.191564838,
				"element": "H" 
			},
			{
				"x": 1.3605983912,
				"y": 1.8955479629,
				"z": 2.7852754979,
				"element": "H" 
			},
			{
				"x": -0.9142410529,
				"y": 1.4206214897,
				"z": 2.4840666587,
				"element": "H" 
			},
			{
				"x": -1.1446867829,
				"y": 2.7169841524,
				"z": 1.330181175,
				"element": "H" 
			},
			{
				"x": -0.6944380516,
				"y": 1.4118329466,
				"z": -0.482396318,
				"element": "H" 
			},
			{
				"x": -2.1467611262,
				"y": -0.0118380133,
				"z": 0.9911511193,
				"element": "H" 
			},
			{
				"x": -0.6373475371,
				"y": -1.6223453635,
				"z": -1.1033984861,
				"element": "H" 
			},
			{
				"x": -3.4897751189,
				"y": 0.675861332,
				"z": -3.6849163785,
				"element": "H" 
			},
			{
				"x": -2.2937979802,
				"y": 0.2167475603,
				"z": -4.9321004312,
				"element": "H" 
			},
			{
				"x": -1.9135565469,
				"y": 1.4649488324,
				"z": -3.7059252908,
				"element": "H" 
			},
			{
				"x": -2.7172303428,
				"y": -2.7569320763,
				"z": -1.3943530295,
				"element": "H" 
			},
			{
				"x": -1.2109687266,
				"y": -3.6908263736,
				"z": 0.0992818464,
				"element": "H" 
			},
			{
				"x": -2.6513089313,
				"y": -5.3316897782,
				"z": 0.6261274755,
				"element": "H" 
			},
			{
				"x": -3.926004199,
				"y": -4.2418453892,
				"z": 0.1322658488,
				"element": "H" 
			},
			{
				"x": -4.6983476854,
				"y": -4.9217880206,
				"z": 2.2151915343,
				"element": "H" 
			},
			{
				"x": -3.1112287308,
				"y": -5.0690261657,
				"z": 2.9174026831,
				"element": "H" 
			},
			{
				"x": -4.2321827126,
				"y": -3.1716716061,
				"z": 3.9562971531,
				"element": "H" 
			},
			{
				"x": -4.7040608604,
				"y": -2.5288343353,
				"z": 2.3965092086,
				"element": "H" 
			},
			{
				"x": -2.1866548653,
				"y": -2.0885423763,
				"z": 3.8885766798,
				"element": "H" 
			},
			{
				"x": -2.940065765,
				"y": -1.1310399579,
				"z": 2.6361023328,
				"element": "H" 
			},
			{
				"x": 0.0856048893,
				"y": -4.1468961924,
				"z": 1.984105962,
				"element": "H" 
			},
			{
				"x": -0.1127968362,
				"y": -3.2354660976,
				"z": 3.4891276873,
				"element": "H" 
			},
			{
				"x": -1.2733836383,
				"y": -4.4783662676,
				"z": 3.0511370258,
				"element": "H" 
			},
			{
				"x": -0.4946207499,
				"y": -0.8286143546,
				"z": 2.5807886341,
				"element": "H" 
			},
			{
				"x": 0.9325802071,
				"y": -2.1908246255,
				"z": 0.2451847047,
				"element": "H" 
			},
			{
				"x": 1.3478024192,
				"y": -2.3592269806,
				"z": 1.9321818752,
				"element": "H" 
			},
			{
				"x": 2.7766288872,
				"y": -0.6488763873,
				"z": 0.9043150413,
				"element": "H" 
			},
			{
				"x": 1.7944931722,
				"y": -0.0128878279,
				"z": 2.2057728847,
				"element": "H" 
			},
			{
				"x": 2.6717499984,
				"y": 0.2028846867,
				"z": -1.3387260212,
				"element": "H" 
			},
			{
				"x": 1.225626607,
				"y": 1.0109413548,
				"z": -1.9632483048,
				"element": "H" 
			},
			{
				"x": 1.1629629274,
				"y": -0.6747316868,
				"z": -1.4810347344,
				"element": "H" 
			}
		],
		 "valence_orbital": [ 
			{
				"type": "occ",
				"energy": -0.27733,
				"method": "rhf"
			},
			{
				"type": "occ",
				"energy": -0.27385,
				"method": "rhf"
			},
			{
				"type": "occ",
				"energy": -0.26386,
				"method": "rhf"
			},
			{
				"type": "occ",
				"energy": -0.2636,
				"method": "rhf"
			},
			{
				"type": "occ",
				"energy": -0.26101,
				"method": "rhf"
			},
			{
				"type": "unocc",
				"energy": 0.00031,
				"method": "rhf"
			},
			{
				"type": "unocc",
				"energy": 0.00963,
				"method": "rhf"
			},
			{
				"type": "unocc",
				"energy": 0.01415,
				"method": "rhf"
			},
			{
				"type": "unocc",
				"energy": 0.064,
				"method": "rhf"
			},
			{
				"type": "unocc",
				"energy": 0.06896,
				"method": "rhf"
			}
		],
		"cosmo_sigma_profile": { 
			"-0.025": 0.0,
			"-0.024": 0.0,
			"-0.023": 0.0,
			"-0.022": 0.0,
			"-0.021": 0.0,
			"-0.02": 0.0,
			"-0.019": 0.0,
			"-0.018": 0.0,
			"-0.017": 0.0,
			"-0.016": 0.0,
			"-0.015": 0.0,
			"-0.014": 0.0,
			"-0.013": 0.0,
			"-0.012": 0.0,
			"-0.011": 0.0,
			"-0.01": 0.0,
			"-0.009": 0.0,
			"-0.008": 0.0860757712643,
			"-0.007": 2.20820654597,
			"-0.006": 10.6344336807,
			"-0.005": 19.4779278596,
			"-0.004": 26.1505192336,
			"-0.003": 47.753311406,
			"-0.002": 83.6089249599,
			"-0.001": 85.3647827123,
			"0.0": 65.4519095341,
			"0.001": 56.3264542608,
			"0.002": 32.9558048443,
			"0.003": 12.0327482436,
			"0.004": 10.766709889,
			"0.005": 10.6767801336,
			"0.006": 9.33914052288,
			"0.007": 6.62026364032,
			"0.008": 4.35788535066,
			"0.009": 5.04978020409,
			"0.01": 3.39550383494,
			"0.011": 5.32548806441,
			"0.012": 8.59825635928,
			"0.013": 3.21082874316,
			"0.014": 0.187119620529,
			"0.015": 0.0,
			"0.016": 0.0,
			"0.017": 0.0,
			"0.018": 0.0,
			"0.019": 0.0,
			"0.02": 0.0,
			"0.021": 0.0,
			"0.022": 0.0,
			"0.023": 0.0,
			"0.024": 0.0,
			"0.025": 0.0
		}
	}
}
