{
	 "smiles": "OC1=CC=C(OC2CCCC2)C=C1", 
	 "Tm": 324.15, 
	 "num_atms": 27, 
	 "gaussian": { 
		 "optdone": 1, 
		 "sigma_profile": "yes", 
		 "theory": "DFT", 
		 "functional": "B3LYP", 
		 "basiset": "6-31G**", 
		 "properties": { 
			 "R2extent": 4312.318, 
			 "electric_dipole_moment_norm": 2.41200021766, 
			 "electric_quadrupole_moment_norm": 11.9129301698, 
			 "total_energy": -578.048650427, 
			 "HOMO_LUMO_gap": 0.19447, 
			 "cosmo_polarized_energy": -9.63, 
			 "cosmo_cavitation_energy": 28.98, 
			 "cosmo_dispersion_energy": -21.48, 
			 "cosmo_repulsion_energy": 1.72, 
			 "cosmo_total_nonelectrostatic_energy": 9.22, 
			 "SMD_solvation_energy": 4.7 
		},
		"coords": [
			{
				"x": -1.8773457705,
				"y": -5.6368262481,
				"z": 1.7369627498,
				"element": "O" 
			},
			{
				"x": -1.1626173498,
				"y": -4.5014999732,
				"z": 1.4507217287,
				"element": "C" 
			},
			{
				"x": 0.0924066493,
				"y": -4.661673291,
				"z": 0.8482770322,
				"element": "C" 
			},
			{
				"x": 0.8612519913,
				"y": -3.5499284781,
				"z": 0.5343984858,
				"element": "C" 
			},
			{
				"x": 0.4003816378,
				"y": -2.2529665708,
				"z": 0.8139629087,
				"element": "C" 
			},
			{
				"x": 1.2533660491,
				"y": -1.2363991594,
				"z": 0.4766851255,
				"element": "O" 
			},
			{
				"x": 0.8720321227,
				"y": 0.1230752325,
				"z": 0.735937111,
				"element": "C" 
			},
			{
				"x": 2.1284629444,
				"y": 0.9675886689,
				"z": 0.4911788845,
				"element": "C" 
			},
			{
				"x": 2.1327108485,
				"y": 1.1786334739,
				"z": -1.0303265297,
				"element": "C" 
			},
			{
				"x": 0.6500276489,
				"y": 1.4615362041,
				"z": -1.3483525089,
				"element": "C" 
			},
			{
				"x": -0.1593913419,
				"y": 0.6370087532,
				"z": -0.3063191694,
				"element": "C" 
			},
			{
				"x": -0.8540579581,
				"y": -2.0931910463,
				"z": 1.4104998302,
				"element": "C" 
			},
			{
				"x": -1.6272507233,
				"y": -3.2170709068,
				"z": 1.7272397153,
				"element": "C" 
			},
			{
				"x": -2.7138875126,
				"y": -5.3843510009,
				"z": 2.1476845638,
				"element": "H" 
			},
			{
				"x": 0.4483292902,
				"y": -5.6643662692,
				"z": 0.6352122504,
				"element": "H" 
			},
			{
				"x": 1.8362314921,
				"y": -3.6611760181,
				"z": 0.071012033,
				"element": "H" 
			},
			{
				"x": 0.5121682556,
				"y": 0.2006527687,
				"z": 1.7694978462,
				"element": "H" 
			},
			{
				"x": 3.0228695029,
				"y": 0.4765667502,
				"z": 0.8835557359,
				"element": "H" 
			},
			{
				"x": 2.0140302699,
				"y": 1.930054069,
				"z": 1.00595766,
				"element": "H" 
			},
			{
				"x": 2.4588431868,
				"y": 0.2560859671,
				"z": -1.5227428047,
				"element": "H" 
			},
			{
				"x": 2.7998548909,
				"y": 1.9835326217,
				"z": -1.3536603038,
				"element": "H" 
			},
			{
				"x": 0.3846560205,
				"y": 1.2062087002,
				"z": -2.3783796637,
				"element": "H" 
			},
			{
				"x": 0.442131229,
				"y": 2.5303777341,
				"z": -1.2218506229,
				"element": "H" 
			},
			{
				"x": -0.9274544526,
				"y": 1.2507458275,
				"z": 0.1765329073,
				"element": "H" 
			},
			{
				"x": -0.6725203549,
				"y": -0.2126971622,
				"z": -0.7639099322,
				"element": "H" 
			},
			{
				"x": -1.2481914143,
				"y": -1.1087108699,
				"z": 1.6314069942,
				"element": "H" 
			},
			{
				"x": -2.6022371521,
				"y": -3.0783097772,
				"z": 2.1905179727,
				"element": "H" 
			}
		],
		 "valence_orbital": [ 
			{
				"type": "occ",
				"energy": -0.32068,
				"method": "rhf"
			},
			{
				"type": "occ",
				"energy": -0.30954,
				"method": "rhf"
			},
			{
				"type": "occ",
				"energy": -0.28415,
				"method": "rhf"
			},
			{
				"type": "occ",
				"energy": -0.24726,
				"method": "rhf"
			},
			{
				"type": "occ",
				"energy": -0.19375,
				"method": "rhf"
			},
			{
				"type": "unocc",
				"energy": 0.00072,
				"method": "rhf"
			},
			{
				"type": "unocc",
				"energy": 0.03138,
				"method": "rhf"
			},
			{
				"type": "unocc",
				"energy": 0.07527,
				"method": "rhf"
			},
			{
				"type": "unocc",
				"energy": 0.08075,
				"method": "rhf"
			},
			{
				"type": "unocc",
				"energy": 0.09893,
				"method": "rhf"
			}
		],
		"cosmo_sigma_profile": { 
			"-0.025": 0.0,
			"-0.024": 0.0,
			"-0.023": 0.0,
			"-0.022": 0.0,
			"-0.021": 0.0,
			"-0.02": 0.0,
			"-0.019": 0.0,
			"-0.018": 0.0876809100405,
			"-0.017": 0.872156976408,
			"-0.016": 1.19292263824,
			"-0.015": 0.832352249992,
			"-0.014": 1.23860318433,
			"-0.013": 1.12263267847,
			"-0.012": 0.622014793135,
			"-0.011": 0.49840201859,
			"-0.01": 1.27776079804,
			"-0.009": 1.51890390137,
			"-0.008": 1.12102264733,
			"-0.007": 0.955646395842,
			"-0.006": 5.44002258231,
			"-0.005": 8.7803471154,
			"-0.004": 11.6196941515,
			"-0.003": 23.3804230276,
			"-0.002": 22.8529959814,
			"-0.001": 24.6797718735,
			"0.0": 24.1201542994,
			"0.001": 21.4854486515,
			"0.002": 9.64499906228,
			"0.003": 9.48134741253,
			"0.004": 14.5780094249,
			"0.005": 14.4644781064,
			"0.006": 10.8337623804,
			"0.007": 3.38435581274,
			"0.008": 3.20422252363,
			"0.009": 2.23847020957,
			"0.01": 2.25728732479,
			"0.011": 1.69561059891,
			"0.012": 1.87370153079,
			"0.013": 0.0126900067583,
			"0.014": 0.0,
			"0.015": 0.0,
			"0.016": 0.0,
			"0.017": 0.0,
			"0.018": 0.0,
			"0.019": 0.0,
			"0.02": 0.0,
			"0.021": 0.0,
			"0.022": 0.0,
			"0.023": 0.0,
			"0.024": 0.0,
			"0.025": 0.0
		}
	}
}
