{
	 "smiles": "COC(=O)C1=C(C)C=C(OC(=O)C2=C(C)C=C(O)C(C=O)=C2O)C(C)=C1O", 
	 "Tm": 468.15, 
	 "num_atms": 45, 
	 "gaussian": { 
		 "optdone": 1, 
		 "sigma_profile": "yes", 
		 "theory": "DFT", 
		 "functional": "B3LYP", 
		 "basiset": "6-31G**", 
		 "properties": { 
			 "R2extent": 12440.2598, 
			 "electric_dipole_moment_norm": 5.79214467188, 
			 "electric_quadrupole_moment_norm": 16.9498078476, 
			 "total_energy": -1336.70229391, 
			 "HOMO_LUMO_gap": 0.1543, 
			 "cosmo_polarized_energy": -13.8, 
			 "cosmo_cavitation_energy": 47.33, 
			 "cosmo_dispersion_energy": -33.34, 
			 "cosmo_repulsion_energy": 2.45, 
			 "cosmo_total_nonelectrostatic_energy": 16.44, 
			 "SMD_solvation_energy": 11.84 
		},
		"coords": [
			{
				"x": 4.8068467627,
				"y": -4.1378374305,
				"z": -2.5746533598,
				"element": "C" 
			},
			{
				"x": 3.976947044,
				"y": -2.9901231378,
				"z": -2.3174412331,
				"element": "O" 
			},
			{
				"x": 3.5573663139,
				"y": -2.8450662481,
				"z": -1.0508484849,
				"element": "C" 
			},
			{
				"x": 3.8842220321,
				"y": -3.6718974067,
				"z": -0.1888344886,
				"element": "O" 
			},
			{
				"x": 2.7102738998,
				"y": -1.6722531559,
				"z": -0.7848034259,
				"element": "C" 
			},
			{
				"x": 2.3442867895,
				"y": -0.694917688,
				"z": -1.7565574643,
				"element": "C" 
			},
			{
				"x": 2.7885075469,
				"y": -0.7166062403,
				"z": -3.2019041295,
				"element": "C" 
			},
			{
				"x": 1.5221420069,
				"y": 0.3469935078,
				"z": -1.3585004119,
				"element": "C" 
			},
			{
				"x": 1.0561447084,
				"y": 0.4630000436,
				"z": -0.0388009992,
				"element": "C" 
			},
			{
				"x": 0.2822930046,
				"y": 1.5952934758,
				"z": 0.1689455956,
				"element": "O" 
			},
			{
				"x": -0.6672234286,
				"y": 1.7639362778,
				"z": 1.1461306703,
				"element": "C" 
			},
			{
				"x": -0.4982648642,
				"y": 2.7168956337,
				"z": 1.9066604954,
				"element": "O" 
			},
			{
				"x": -1.823929572,
				"y": 0.870285308,
				"z": 1.2315577879,
				"element": "C" 
			},
			{
				"x": -2.3420602396,
				"y": 0.056139742,
				"z": 0.1737410958,
				"element": "C" 
			},
			{
				"x": -1.8507127198,
				"y": 0.1514680239,
				"z": -1.2512279288,
				"element": "C" 
			},
			{
				"x": -3.3886807078,
				"y": -0.8178264044,
				"z": 0.4241729898,
				"element": "C" 
			},
			{
				"x": -3.9674723042,
				"y": -0.9241234564,
				"z": 1.6990026328,
				"element": "C" 
			},
			{
				"x": -4.9486116687,
				"y": -1.7987818893,
				"z": 1.8881155417,
				"element": "O" 
			},
			{
				"x": -3.5346643402,
				"y": -0.0735901924,
				"z": 2.7503607676,
				"element": "C" 
			},
			{
				"x": -4.1873645669,
				"y": -0.1406518443,
				"z": 4.0429453263,
				"element": "C" 
			},
			{
				"x": -5.1026267919,
				"y": -0.937987889,
				"z": 4.2972729764,
				"element": "O" 
			},
			{
				"x": -2.4931361138,
				"y": 0.8496104854,
				"z": 2.4943647768,
				"element": "C" 
			},
			{
				"x": -2.158010417,
				"y": 1.6728883409,
				"z": 3.4873756302,
				"element": "O" 
			},
			{
				"x": 1.4285788962,
				"y": -0.4306205611,
				"z": 0.961547267,
				"element": "C" 
			},
			{
				"x": 1.0790147817,
				"y": -0.3140201911,
				"z": 2.4250070153,
				"element": "C" 
			},
			{
				"x": 2.2432557091,
				"y": -1.5176934136,
				"z": 0.5554501188,
				"element": "C" 
			},
			{
				"x": 2.5628206802,
				"y": -2.3891174412,
				"z": 1.5206076395,
				"element": "O" 
			},
			{
				"x": 5.7158998312,
				"y": -4.0975143438,
				"z": -1.9706594672,
				"element": "H" 
			},
			{
				"x": 4.2686881396,
				"y": -5.0599589069,
				"z": -2.3445311629,
				"element": "H" 
			},
			{
				"x": 5.0468347667,
				"y": -4.0863296912,
				"z": -3.6362834088,
				"element": "H" 
			},
			{
				"x": 2.3845779207,
				"y": 0.1534019634,
				"z": -3.7252548298,
				"element": "H" 
			},
			{
				"x": 3.8778545202,
				"y": -0.69820284,
				"z": -3.2902467025,
				"element": "H" 
			},
			{
				"x": 2.4504880231,
				"y": -1.6193319718,
				"z": -3.7175757426,
				"element": "H" 
			},
			{
				"x": 1.2188201419,
				"y": 1.1076087501,
				"z": -2.0686883176,
				"element": "H" 
			},
			{
				"x": -0.9741476414,
				"y": -0.4814425772,
				"z": -1.4171653217,
				"element": "H" 
			},
			{
				"x": -2.6354069559,
				"y": -0.1843593031,
				"z": -1.9329700204,
				"element": "H" 
			},
			{
				"x": -1.5687666102,
				"y": 1.1710251799,
				"z": -1.5202316479,
				"element": "H" 
			},
			{
				"x": -3.8018930624,
				"y": -1.4263542488,
				"z": -0.3725066216,
				"element": "H" 
			},
			{
				"x": -5.2418545925,
				"y": -1.698302105,
				"z": 2.8389914699,
				"element": "H" 
			},
			{
				"x": -3.8370123659,
				"y": 0.5560219908,
				"z": 4.8189693934,
				"element": "H" 
			},
			{
				"x": -1.4987167228,
				"y": 2.3190410507,
				"z": 3.1130672481,
				"element": "H" 
			},
			{
				"x": 0.8894895859,
				"y": 0.7181365324,
				"z": 2.7206078756,
				"element": "H" 
			},
			{
				"x": 0.2006778067,
				"y": -0.9152016684,
				"z": 2.6856335776,
				"element": "H" 
			},
			{
				"x": 1.9093651475,
				"y": -0.6907607227,
				"z": 3.0249801057,
				"element": "H" 
			},
			{
				"x": 3.1473596259,
				"y": -3.0790733371,
				"z": 1.1045771712,
				"element": "H" 
			}
		],
		 "valence_orbital": [ 
			{
				"type": "occ",
				"energy": -0.27075,
				"method": "rhf"
			},
			{
				"type": "occ",
				"energy": -0.25858,
				"method": "rhf"
			},
			{
				"type": "occ",
				"energy": -0.24885,
				"method": "rhf"
			},
			{
				"type": "occ",
				"energy": -0.24004,
				"method": "rhf"
			},
			{
				"type": "occ",
				"energy": -0.22921,
				"method": "rhf"
			},
			{
				"type": "unocc",
				"energy": -0.07491,
				"method": "rhf"
			},
			{
				"type": "unocc",
				"energy": -0.06073,
				"method": "rhf"
			},
			{
				"type": "unocc",
				"energy": -0.05019,
				"method": "rhf"
			},
			{
				"type": "unocc",
				"energy": -0.00328,
				"method": "rhf"
			},
			{
				"type": "unocc",
				"energy": 0.01227,
				"method": "rhf"
			}
		],
		"cosmo_sigma_profile": { 
			"-0.025": 0.0,
			"-0.024": 0.0,
			"-0.023": 0.0,
			"-0.022": 0.0,
			"-0.021": 0.0,
			"-0.02": 0.0,
			"-0.019": 0.0,
			"-0.018": 0.0,
			"-0.017": 0.0,
			"-0.016": 0.0,
			"-0.015": 0.0,
			"-0.014": 0.0,
			"-0.013": 0.0,
			"-0.012": 0.0,
			"-0.011": 0.0,
			"-0.01": 0.0,
			"-0.009": 0.121405352523,
			"-0.008": 0.929010601924,
			"-0.007": 5.68193152101,
			"-0.006": 16.3197227374,
			"-0.005": 20.1213429867,
			"-0.004": 31.0319620343,
			"-0.003": 39.8610919821,
			"-0.002": 42.0608215429,
			"-0.001": 46.627814072,
			"0.0": 38.5739913342,
			"0.001": 27.7525665833,
			"0.002": 25.4594189157,
			"0.003": 14.5051137047,
			"0.004": 9.42441632769,
			"0.005": 8.80975124489,
			"0.006": 9.19647300212,
			"0.007": 9.77242105345,
			"0.008": 8.41684205251,
			"0.009": 8.25111772279,
			"0.01": 7.85987391927,
			"0.011": 4.70681047898,
			"0.012": 1.59475605631,
			"0.013": 0.149026688301,
			"0.014": 0.0,
			"0.015": 0.0,
			"0.016": 0.0,
			"0.017": 0.0,
			"0.018": 0.0,
			"0.019": 0.0,
			"0.02": 0.0,
			"0.021": 0.0,
			"0.022": 0.0,
			"0.023": 0.0,
			"0.024": 0.0,
			"0.025": 0.0
		}
	}
}
