{
	 "smiles": "CC(NC1=NC(C)=CS1)C(O)=O", 
	 "Tm": 463.15, 
	 "num_atms": 22, 
	 "gaussian": { 
		 "optdone": 1, 
		 "sigma_profile": "yes", 
		 "theory": "DFT", 
		 "functional": "B3LYP", 
		 "basiset": "6-31G**", 
		 "properties": { 
			 "R2extent": 2641.6209, 
			 "electric_dipole_moment_norm": 4.04083652354, 
			 "electric_quadrupole_moment_norm": 15.3545880277, 
			 "total_energy": -930.918338749, 
			 "HOMO_LUMO_gap": 0.20305, 
			 "cosmo_polarized_energy": -15.11, 
			 "cosmo_cavitation_energy": 27.04, 
			 "cosmo_dispersion_energy": -20.09, 
			 "cosmo_repulsion_energy": 1.58, 
			 "cosmo_total_nonelectrostatic_energy": 8.53, 
			 "SMD_solvation_energy": 4.04 
		},
		"coords": [
			{
				"x": 1.2780894888,
				"y": 0.8054127727,
				"z": -2.1885820663,
				"element": "C" 
			},
			{
				"x": 1.7360254356,
				"y": -0.1399312212,
				"z": -1.0763599378,
				"element": "C" 
			},
			{
				"x": 0.6682423754,
				"y": -0.8781496731,
				"z": -0.3631648084,
				"element": "N" 
			},
			{
				"x": -0.5154837163,
				"y": -0.256106526,
				"z": 0.0458806378,
				"element": "C" 
			},
			{
				"x": -1.6818281019,
				"y": -0.8060279986,
				"z": -0.1268941185,
				"element": "N" 
			},
			{
				"x": -2.6846273243,
				"y": -0.05341172,
				"z": 0.4638333681,
				"element": "C" 
			},
			{
				"x": -4.1026128504,
				"y": -0.5311143661,
				"z": 0.3622210061,
				"element": "C" 
			},
			{
				"x": -2.265471833,
				"y": 1.0877009788,
				"z": 1.0813957989,
				"element": "C" 
			},
			{
				"x": -0.53122591,
				"y": 1.2468299966,
				"z": 0.9693435486,
				"element": "S" 
			},
			{
				"x": 2.6773071193,
				"y": 0.5590878118,
				"z": -0.0694505673,
				"element": "C" 
			},
			{
				"x": 2.6602753994,
				"y": 0.0280081188,
				"z": 1.1676460552,
				"element": "O" 
			},
			{
				"x": 3.4091719911,
				"y": 1.4671672722,
				"z": -0.3767680247,
				"element": "O" 
			},
			{
				"x": 2.1522709055,
				"y": 1.2823355637,
				"z": -2.6349175394,
				"element": "H" 
			},
			{
				"x": 0.7352158484,
				"y": 0.2523763389,
				"z": -2.9601126516,
				"element": "H" 
			},
			{
				"x": 0.6276173724,
				"y": 1.592284859,
				"z": -1.7997493592,
				"element": "H" 
			},
			{
				"x": 2.3603462932,
				"y": -0.9251411804,
				"z": -1.5223300437,
				"element": "H" 
			},
			{
				"x": 0.4139146188,
				"y": -1.7443483452,
				"z": -0.827540339,
				"element": "H" 
			},
			{
				"x": -4.2123239811,
				"y": -1.5162859942,
				"z": 0.828469403,
				"element": "H" 
			},
			{
				"x": -4.7898624706,
				"y": 0.1623007672,
				"z": 0.85267134,
				"element": "H" 
			},
			{
				"x": -4.4019013069,
				"y": -0.6347748962,
				"z": -0.6862933763,
				"element": "H" 
			},
			{
				"x": -2.8561266152,
				"y": 1.8445459177,
				"z": 1.5769880397,
				"element": "H" 
			},
			{
				"x": 1.9765872619,
				"y": -0.6713584764,
				"z": 1.1640136349,
				"element": "H" 
			}
		],
		 "valence_orbital": [ 
			{
				"type": "occ",
				"energy": -0.3145,
				"method": "rhf"
			},
			{
				"type": "occ",
				"energy": -0.28502,
				"method": "rhf"
			},
			{
				"type": "occ",
				"energy": -0.28265,
				"method": "rhf"
			},
			{
				"type": "occ",
				"energy": -0.26818,
				"method": "rhf"
			},
			{
				"type": "occ",
				"energy": -0.22438,
				"method": "rhf"
			},
			{
				"type": "unocc",
				"energy": -0.02133,
				"method": "rhf"
			},
			{
				"type": "unocc",
				"energy": -0.00372,
				"method": "rhf"
			},
			{
				"type": "unocc",
				"energy": 0.01986,
				"method": "rhf"
			},
			{
				"type": "unocc",
				"energy": 0.04636,
				"method": "rhf"
			},
			{
				"type": "unocc",
				"energy": 0.063,
				"method": "rhf"
			}
		],
		"cosmo_sigma_profile": { 
			"-0.025": 0.0,
			"-0.024": 0.0,
			"-0.023": 0.0,
			"-0.022": 0.0,
			"-0.021": 0.0,
			"-0.02": 0.0,
			"-0.019": 0.0,
			"-0.018": 0.0,
			"-0.017": 0.0,
			"-0.016": 0.0,
			"-0.015": 0.144514305483,
			"-0.014": 1.43350273951,
			"-0.013": 1.62959410834,
			"-0.012": 2.01046200333,
			"-0.011": 1.90394060718,
			"-0.01": 3.15671779705,
			"-0.009": 6.13365764872,
			"-0.008": 5.86348358719,
			"-0.007": 5.76068465155,
			"-0.006": 5.49030894885,
			"-0.005": 9.04418552557,
			"-0.004": 14.2847959405,
			"-0.003": 14.2015379587,
			"-0.002": 17.1896862228,
			"-0.001": 19.2414060015,
			"0.0": 19.9189848084,
			"0.001": 12.5746239953,
			"0.002": 11.8260616123,
			"0.003": 12.986089386,
			"0.004": 8.92111506458,
			"0.005": 5.07040768303,
			"0.006": 3.58927731305,
			"0.007": 4.28926398296,
			"0.008": 4.29394838307,
			"0.009": 4.61964521226,
			"0.01": 6.48135536321,
			"0.011": 5.7684985968,
			"0.012": 5.12874248463,
			"0.013": 1.63547247485,
			"0.014": 0.874221422265,
			"0.015": 0.267522188063,
			"0.016": 0.0,
			"0.017": 0.0,
			"0.018": 0.0,
			"0.019": 0.0,
			"0.02": 0.0,
			"0.021": 0.0,
			"0.022": 0.0,
			"0.023": 0.0,
			"0.024": 0.0,
			"0.025": 0.0
		}
	}
}
