{
	 "smiles": "CCCOC1=C(OCC(O)CO)C=CC=C1", 
	 "Tm": 343.15, 
	 "num_atms": 34, 
	 "gaussian": { 
		 "optdone": 1, 
		 "sigma_profile": "yes", 
		 "theory": "DFT", 
		 "functional": "B3LYP", 
		 "basiset": "6-31G**", 
		 "properties": { 
			 "R2extent": 5004.9297, 
			 "electric_dipole_moment_norm": 1.85936005389, 
			 "electric_quadrupole_moment_norm": 12.2425394175, 
			 "total_energy": -768.989648837, 
			 "HOMO_LUMO_gap": 0.22003, 
			 "cosmo_polarized_energy": -13.77, 
			 "cosmo_cavitation_energy": 35.18, 
			 "cosmo_dispersion_energy": -24.77, 
			 "cosmo_repulsion_energy": 1.94, 
			 "cosmo_total_nonelectrostatic_energy": 12.36, 
			 "SMD_solvation_energy": 5.91 
		},
		"coords": [
			{
				"x": 3.0416085891,
				"y": -0.1564885176,
				"z": -0.0834156238,
				"element": "C" 
			},
			{
				"x": 2.2310192876,
				"y": -1.3101098299,
				"z": 0.5170490152,
				"element": "C" 
			},
			{
				"x": 1.4856223396,
				"y": -0.950875543,
				"z": 1.7963138744,
				"element": "C" 
			},
			{
				"x": 0.4344899247,
				"y": -0.0249427472,
				"z": 1.4846791559,
				"element": "O" 
			},
			{
				"x": -0.3301607748,
				"y": 0.4618984308,
				"z": 2.5136028395,
				"element": "C" 
			},
			{
				"x": -1.3880178097,
				"y": 1.3253685457,
				"z": 2.1527204665,
				"element": "C" 
			},
			{
				"x": -1.5799976924,
				"y": 1.6525295226,
				"z": 0.8295775436,
				"element": "O" 
			},
			{
				"x": -2.4230191494,
				"y": 0.7460754931,
				"z": 0.0986698487,
				"element": "C" 
			},
			{
				"x": -2.3492813733,
				"y": 1.0820232945,
				"z": -1.3843611096,
				"element": "C" 
			},
			{
				"x": -3.1730080573,
				"y": 2.2192401519,
				"z": -1.6231883263,
				"element": "O" 
			},
			{
				"x": -0.9001009842,
				"y": 1.3520779415,
				"z": -1.8280331055,
				"element": "C" 
			},
			{
				"x": -0.0129969158,
				"y": 0.3190254541,
				"z": -1.4422782666,
				"element": "O" 
			},
			{
				"x": -2.2013773006,
				"y": 1.8789135506,
				"z": 3.1362504263,
				"element": "C" 
			},
			{
				"x": -1.9876305461,
				"y": 1.5846009808,
				"z": 4.4858854714,
				"element": "C" 
			},
			{
				"x": -0.9524114699,
				"y": 0.7248583465,
				"z": 4.8415846129,
				"element": "C" 
			},
			{
				"x": -0.1231120163,
				"y": 0.1641479289,
				"z": 3.8640195273,
				"element": "C" 
			},
			{
				"x": 3.6192418989,
				"y": -0.5024902295,
				"z": -0.945894494,
				"element": "H" 
			},
			{
				"x": 2.3895862628,
				"y": 0.6479733433,
				"z": -0.4301339028,
				"element": "H" 
			},
			{
				"x": 3.7456536533,
				"y": 0.2559548733,
				"z": 0.6486332253,
				"element": "H" 
			},
			{
				"x": 1.5117389191,
				"y": -1.6871584326,
				"z": -0.2190283765,
				"element": "H" 
			},
			{
				"x": 2.8977435797,
				"y": -2.1461692984,
				"z": 0.7642911816,
				"element": "H" 
			},
			{
				"x": 2.1719301974,
				"y": -0.4922398956,
				"z": 2.5217067485,
				"element": "H" 
			},
			{
				"x": 1.0479602142,
				"y": -1.8463382261,
				"z": 2.2585096112,
				"element": "H" 
			},
			{
				"x": -3.4606150283,
				"y": 0.82804529,
				"z": 0.4457082633,
				"element": "H" 
			},
			{
				"x": -2.0776012462,
				"y": -0.2831191659,
				"z": 0.2507955768,
				"element": "H" 
			},
			{
				"x": -2.7353958163,
				"y": 0.1999585982,
				"z": -1.9225563975,
				"element": "H" 
			},
			{
				"x": -3.1059874884,
				"y": 2.443905526,
				"z": -2.5603467939,
				"element": "H" 
			},
			{
				"x": -0.8614032935,
				"y": 1.4144088269,
				"z": -2.9231206769,
				"element": "H" 
			},
			{
				"x": -0.6039919158,
				"y": 2.3281976401,
				"z": -1.4232717557,
				"element": "H" 
			},
			{
				"x": 0.0964847681,
				"y": 0.3811542699,
				"z": -0.4788680321,
				"element": "H" 
			},
			{
				"x": -2.9944585506,
				"y": 2.5501472121,
				"z": 2.8214450767,
				"element": "H" 
			},
			{
				"x": -2.6258685169,
				"y": 2.0238029423,
				"z": 5.2461001112,
				"element": "H" 
			},
			{
				"x": -0.7751020401,
				"y": 0.483678133,
				"z": 5.885488781,
				"element": "H" 
			},
			{
				"x": 0.6784583514,
				"y": -0.4993544102,
				"z": 4.1644655039,
				"element": "H" 
			}
		],
		 "valence_orbital": [ 
			{
				"type": "occ",
				"energy": -0.28261,
				"method": "rhf"
			},
			{
				"type": "occ",
				"energy": -0.26881,
				"method": "rhf"
			},
			{
				"type": "occ",
				"energy": -0.24818,
				"method": "rhf"
			},
			{
				"type": "occ",
				"energy": -0.24344,
				"method": "rhf"
			},
			{
				"type": "occ",
				"energy": -0.2207,
				"method": "rhf"
			},
			{
				"type": "unocc",
				"energy": -0.00067,
				"method": "rhf"
			},
			{
				"type": "unocc",
				"energy": 0.00865,
				"method": "rhf"
			},
			{
				"type": "unocc",
				"energy": 0.07155,
				"method": "rhf"
			},
			{
				"type": "unocc",
				"energy": 0.07743,
				"method": "rhf"
			},
			{
				"type": "unocc",
				"energy": 0.09027,
				"method": "rhf"
			}
		],
		"cosmo_sigma_profile": { 
			"-0.025": 0.0,
			"-0.024": 0.0,
			"-0.023": 0.0,
			"-0.022": 0.0,
			"-0.021": 0.0,
			"-0.02": 0.0,
			"-0.019": 0.0,
			"-0.018": 0.0,
			"-0.017": 0.0,
			"-0.016": 0.434399529941,
			"-0.015": 0.930414010401,
			"-0.014": 1.19001140431,
			"-0.013": 0.950368304754,
			"-0.012": 1.24383768635,
			"-0.011": 0.86418572346,
			"-0.01": 0.632092906772,
			"-0.009": 1.28187915934,
			"-0.008": 1.36301872343,
			"-0.007": 1.89493000388,
			"-0.006": 8.51719469593,
			"-0.005": 19.1542793374,
			"-0.004": 28.8531338014,
			"-0.003": 28.1869756878,
			"-0.002": 25.1694348003,
			"-0.001": 24.2464845163,
			"0.0": 21.4841616474,
			"0.001": 19.6964967066,
			"0.002": 14.4841152909,
			"0.003": 12.3218620338,
			"0.004": 14.291787544,
			"0.005": 13.1210900302,
			"0.006": 7.39671441493,
			"0.007": 4.44321377582,
			"0.008": 3.33015765048,
			"0.009": 2.84923369515,
			"0.01": 3.18927857627,
			"0.011": 3.30262203913,
			"0.012": 3.76629771003,
			"0.013": 3.62838107643,
			"0.014": 2.78076580123,
			"0.015": 0.250559280964,
			"0.016": 0.0,
			"0.017": 0.0,
			"0.018": 0.0,
			"0.019": 0.0,
			"0.02": 0.0,
			"0.021": 0.0,
			"0.022": 0.0,
			"0.023": 0.0,
			"0.024": 0.0,
			"0.025": 0.0
		}
	}
}
