{
	 "smiles": "NC1=C(C=CC=C1C(F)(F)F)C(O)=O", 
	 "Tm": 431.15, 
	 "num_atms": 20, 
	 "gaussian": { 
		 "optdone": 1, 
		 "sigma_profile": "yes", 
		 "theory": "DFT", 
		 "functional": "B3LYP", 
		 "basiset": "6-31G**", 
		 "properties": { 
			 "R2extent": 3213.0934, 
			 "electric_dipole_moment_norm": 4.66678845674, 
			 "electric_quadrupole_moment_norm": 17.3807468099, 
			 "total_energy": -813.211314972, 
			 "HOMO_LUMO_gap": 0.20645, 
			 "cosmo_polarized_energy": -14.42, 
			 "cosmo_cavitation_energy": 25.18, 
			 "cosmo_dispersion_energy": -18.61, 
			 "cosmo_repulsion_energy": 1.38, 
			 "cosmo_total_nonelectrostatic_energy": 7.95, 
			 "SMD_solvation_energy": 6.85 
		},
		"coords": [
			{
				"x": -0.9305686091,
				"y": -1.4105800133,
				"z": 1.9935743027,
				"element": "N" 
			},
			{
				"x": -0.5749026024,
				"y": -0.4314299019,
				"z": 0.983079331,
				"element": "C" 
			},
			{
				"x": -0.1670961032,
				"y": -0.8775436197,
				"z": -0.2846062057,
				"element": "C" 
			},
			{
				"x": 0.1763428766,
				"y": 0.0682151759,
				"z": -1.2624995682,
				"element": "C" 
			},
			{
				"x": 0.1202046801,
				"y": 1.4302762215,
				"z": -0.9964998475,
				"element": "C" 
			},
			{
				"x": -0.2840368979,
				"y": 1.8752116675,
				"z": 0.2626775558,
				"element": "C" 
			},
			{
				"x": -0.6301150496,
				"y": 0.9506212927,
				"z": 1.2474433955,
				"element": "C" 
			},
			{
				"x": -1.0685966691,
				"y": 1.4301655161,
				"z": 2.6063531145,
				"element": "C" 
			},
			{
				"x": -0.2604464395,
				"y": 0.9555797769,
				"z": 3.5913558823,
				"element": "F" 
			},
			{
				"x": -2.3236089812,
				"y": 1.0044726656,
				"z": 2.908227627,
				"element": "F" 
			},
			{
				"x": -1.0695841683,
				"y": 2.7698560094,
				"z": 2.7060087275,
				"element": "F" 
			},
			{
				"x": -0.0600576634,
				"y": -2.3375004141,
				"z": -0.7037086378,
				"element": "C" 
			},
			{
				"x": -0.3722470342,
				"y": -3.2592171784,
				"z": 0.2069698838,
				"element": "O" 
			},
			{
				"x": 0.2977125369,
				"y": -2.6316291599,
				"z": -1.8254263279,
				"element": "O" 
			},
			{
				"x": -0.3534407475,
				"y": -1.2829556432,
				"z": 2.8228922572,
				"element": "H" 
			},
			{
				"x": -1.8927963533,
				"y": -1.2680092345,
				"z": 2.2955496279,
				"element": "H" 
			},
			{
				"x": 0.486440491,
				"y": -0.3102634817,
				"z": -2.2301973696,
				"element": "H" 
			},
			{
				"x": 0.3894991829,
				"y": 2.1490269828,
				"z": -1.7637497937,
				"element": "H" 
			},
			{
				"x": -0.3329834654,
				"y": 2.9347753313,
				"z": 0.4855697797,
				"element": "H" 
			},
			{
				"x": -0.6367189834,
				"y": -2.7908719929,
				"z": 1.0484862654,
				"element": "H" 
			}
		],
		 "valence_orbital": [ 
			{
				"type": "occ",
				"energy": -0.30157,
				"method": "rhf"
			},
			{
				"type": "occ",
				"energy": -0.30142,
				"method": "rhf"
			},
			{
				"type": "occ",
				"energy": -0.28404,
				"method": "rhf"
			},
			{
				"type": "occ",
				"energy": -0.28143,
				"method": "rhf"
			},
			{
				"type": "occ",
				"energy": -0.26503,
				"method": "rhf"
			},
			{
				"type": "unocc",
				"energy": -0.05858,
				"method": "rhf"
			},
			{
				"type": "unocc",
				"energy": -0.04845,
				"method": "rhf"
			},
			{
				"type": "unocc",
				"energy": 0.04572,
				"method": "rhf"
			},
			{
				"type": "unocc",
				"energy": 0.06035,
				"method": "rhf"
			},
			{
				"type": "unocc",
				"energy": 0.09,
				"method": "rhf"
			}
		],
		"cosmo_sigma_profile": { 
			"-0.025": 0.0,
			"-0.024": 0.0,
			"-0.023": 0.0,
			"-0.022": 0.0,
			"-0.021": 0.0,
			"-0.02": 0.0,
			"-0.019": 0.0,
			"-0.018": 0.0,
			"-0.017": 0.0,
			"-0.016": 0.0,
			"-0.015": 0.0,
			"-0.014": 0.0,
			"-0.013": 0.330263754747,
			"-0.012": 2.77914850825,
			"-0.011": 3.01385980096,
			"-0.01": 2.82300235591,
			"-0.009": 2.74853159719,
			"-0.008": 4.16627192257,
			"-0.007": 6.7617237279,
			"-0.006": 9.53058478506,
			"-0.005": 9.78336720423,
			"-0.004": 11.2345862189,
			"-0.003": 13.2176331603,
			"-0.002": 11.5964595951,
			"-0.001": 13.6732247459,
			"0.0": 14.8789217105,
			"0.001": 22.1130483522,
			"0.002": 28.5145008671,
			"0.003": 12.3635175495,
			"0.004": 2.06012971488,
			"0.005": 1.96215090194,
			"0.006": 2.16921310474,
			"0.007": 2.88861808877,
			"0.008": 1.50869837849,
			"0.009": 3.18484357994,
			"0.01": 3.50782584953,
			"0.011": 4.58845570288,
			"0.012": 6.76960457253,
			"0.013": 3.03236162806,
			"0.014": 1.08728364585,
			"0.015": 0.0,
			"0.016": 0.0,
			"0.017": 0.0,
			"0.018": 0.0,
			"0.019": 0.0,
			"0.02": 0.0,
			"0.021": 0.0,
			"0.022": 0.0,
			"0.023": 0.0,
			"0.024": 0.0,
			"0.025": 0.0
		}
	}
}
