{
	 "smiles": "CC1=NN(C(N)=C1C#N)C1=CC=CC=C1", 
	 "Tm": 403.15, 
	 "num_atms": 25, 
	 "gaussian": { 
		 "optdone": 1, 
		 "sigma_profile": "yes", 
		 "theory": "DFT", 
		 "functional": "B3LYP", 
		 "basiset": "6-31G**", 
		 "properties": { 
			 "R2extent": 3650.1992, 
			 "electric_dipole_moment_norm": 5.08060447683, 
			 "electric_quadrupole_moment_norm": 15.0308239302, 
			 "total_energy": -644.181452006, 
			 "HOMO_LUMO_gap": 0.19431, 
			 "cosmo_polarized_energy": -15.48, 
			 "cosmo_cavitation_energy": 30.28, 
			 "cosmo_dispersion_energy": -21.48, 
			 "cosmo_repulsion_energy": 1.69, 
			 "cosmo_total_nonelectrostatic_energy": 10.49, 
			 "SMD_solvation_energy": 5.81 
		},
		"coords": [
			{
				"x": -2.2363896708,
				"y": 0.5598044929,
				"z": -2.2722474891,
				"element": "C" 
			},
			{
				"x": -1.1412072337,
				"y": 0.20649621,
				"z": -1.3181978832,
				"element": "C" 
			},
			{
				"x": -1.256804282,
				"y": 0.4369109731,
				"z": -0.0252066515,
				"element": "N" 
			},
			{
				"x": -0.0826533918,
				"y": -0.0258630825,
				"z": 0.5443861389,
				"element": "N" 
			},
			{
				"x": 0.7739865832,
				"y": -0.5172953575,
				"z": -0.3953826107,
				"element": "C" 
			},
			{
				"x": 2.0134314547,
				"y": -1.049568515,
				"z": -0.1213665671,
				"element": "N" 
			},
			{
				"x": 0.1201389356,
				"y": -0.3967884582,
				"z": -1.6253040274,
				"element": "C" 
			},
			{
				"x": 0.6566843716,
				"y": -0.7699280253,
				"z": -2.8764352716,
				"element": "C" 
			},
			{
				"x": 1.130398296,
				"y": -1.0799832419,
				"z": -3.8964519951,
				"element": "N" 
			},
			{
				"x": 0.1158867891,
				"y": 0.1177709713,
				"z": 1.944098125,
				"element": "C" 
			},
			{
				"x": -0.4056832542,
				"y": 1.2467660504,
				"z": 2.5874647913,
				"element": "C" 
			},
			{
				"x": -0.2259549515,
				"y": 1.3978375538,
				"z": 3.9600718987,
				"element": "C" 
			},
			{
				"x": 0.4770224468,
				"y": 0.4389302777,
				"z": 4.6947736563,
				"element": "C" 
			},
			{
				"x": 0.9853055606,
				"y": -0.6877838413,
				"z": 4.0485552478,
				"element": "C" 
			},
			{
				"x": 0.7995619832,
				"y": -0.8616378084,
				"z": 2.6757478155,
				"element": "C" 
			},
			{
				"x": -1.8804515912,
				"y": 1.2535760433,
				"z": -3.0414047686,
				"element": "H" 
			},
			{
				"x": -2.6120848306,
				"y": -0.3307890697,
				"z": -2.7872973862,
				"element": "H" 
			},
			{
				"x": -3.061179676,
				"y": 1.0261941268,
				"z": -1.7302923571,
				"element": "H" 
			},
			{
				"x": 2.5964623724,
				"y": -1.1511857643,
				"z": -0.9425796177,
				"element": "H" 
			},
			{
				"x": 2.5032067188,
				"y": -0.6430288026,
				"z": 0.6655838609,
				"element": "H" 
			},
			{
				"x": -0.9518478819,
				"y": 1.9780160774,
				"z": 2.0038732284,
				"element": "H" 
			},
			{
				"x": -0.6327069828,
				"y": 2.2735129783,
				"z": 4.4571166349,
				"element": "H" 
			},
			{
				"x": 0.6192541751,
				"y": 0.5660145708,
				"z": 5.7635563005,
				"element": "H" 
			},
			{
				"x": 1.5146720547,
				"y": -1.4492138061,
				"z": 4.6136345875,
				"element": "H" 
			},
			{
				"x": 1.1551520047,
				"y": -1.760264553,
				"z": 2.1839043396,
				"element": "H" 
			}
		],
		 "valence_orbital": [ 
			{
				"type": "occ",
				"energy": -0.29516,
				"method": "rhf"
			},
			{
				"type": "occ",
				"energy": -0.28889,
				"method": "rhf"
			},
			{
				"type": "occ",
				"energy": -0.26816,
				"method": "rhf"
			},
			{
				"type": "occ",
				"energy": -0.23547,
				"method": "rhf"
			},
			{
				"type": "occ",
				"energy": -0.22512,
				"method": "rhf"
			},
			{
				"type": "unocc",
				"energy": -0.03081,
				"method": "rhf"
			},
			{
				"type": "unocc",
				"energy": -0.02044,
				"method": "rhf"
			},
			{
				"type": "unocc",
				"energy": 0.00728,
				"method": "rhf"
			},
			{
				"type": "unocc",
				"energy": 0.02731,
				"method": "rhf"
			},
			{
				"type": "unocc",
				"energy": 0.03185,
				"method": "rhf"
			}
		],
		"cosmo_sigma_profile": { 
			"-0.025": 0.0,
			"-0.024": 0.0,
			"-0.023": 0.0,
			"-0.022": 0.0,
			"-0.021": 0.0,
			"-0.02": 0.0,
			"-0.019": 0.0,
			"-0.018": 0.0,
			"-0.017": 0.0,
			"-0.016": 0.0,
			"-0.015": 0.175973547282,
			"-0.014": 1.92745490726,
			"-0.013": 2.14476866072,
			"-0.012": 2.96394093874,
			"-0.011": 2.41773576474,
			"-0.01": 2.03710402762,
			"-0.009": 2.55273248449,
			"-0.008": 2.55592186867,
			"-0.007": 2.68172007698,
			"-0.006": 10.9514876582,
			"-0.005": 18.2604809694,
			"-0.004": 19.5296194993,
			"-0.003": 16.8985448695,
			"-0.002": 17.3327481363,
			"-0.001": 17.7311655216,
			"0.0": 17.0745436691,
			"0.001": 17.1263184567,
			"0.002": 15.5300732576,
			"0.003": 13.1646464655,
			"0.004": 15.9780337181,
			"0.005": 8.08311545147,
			"0.006": 4.33041551336,
			"0.007": 4.76009771726,
			"0.008": 4.65863581719,
			"0.009": 4.68519054291,
			"0.01": 5.26887522773,
			"0.011": 4.06142802852,
			"0.012": 3.76934389385,
			"0.013": 3.17485980635,
			"0.014": 1.561910119,
			"0.015": 0.0211891015321,
			"0.016": 0.0,
			"0.017": 0.0,
			"0.018": 0.0,
			"0.019": 0.0,
			"0.02": 0.0,
			"0.021": 0.0,
			"0.022": 0.0,
			"0.023": 0.0,
			"0.024": 0.0,
			"0.025": 0.0
		}
	}
}
