{
	 "smiles": "OC1(CC2=CC=CC=C12)C1=CC=CC=C1", 
	 "Tm": 341.15, 
	 "num_atms": 27, 
	 "gaussian": { 
		 "optdone": 1, 
		 "sigma_profile": "yes", 
		 "theory": "DFT", 
		 "functional": "B3LYP", 
		 "basiset": "6-31G**", 
		 "properties": { 
			 "R2extent": 3342.7097, 
			 "electric_dipole_moment_norm": 1.67242670691, 
			 "electric_quadrupole_moment_norm": 2.73679124341, 
			 "total_energy": -615.902968833, 
			 "HOMO_LUMO_gap": 0.21867, 
			 "cosmo_polarized_energy": -8.3, 
			 "cosmo_cavitation_energy": 30.24, 
			 "cosmo_dispersion_energy": -21.67, 
			 "cosmo_repulsion_energy": 1.7, 
			 "cosmo_total_nonelectrostatic_energy": 10.27, 
			 "SMD_solvation_energy": 4.84 
		},
		"coords": [
			{
				"x": 1.7223779535,
				"y": -0.0860918229,
				"z": 1.4937987687,
				"element": "O" 
			},
			{
				"x": 0.7495736213,
				"y": -0.1515760754,
				"z": 0.4663223286,
				"element": "C" 
			},
			{
				"x": 0.7034328928,
				"y": 1.1325642815,
				"z": -0.4956535764,
				"element": "C" 
			},
			{
				"x": -0.7046266412,
				"y": 1.3593136693,
				"z": 0.0327340717,
				"element": "C" 
			},
			{
				"x": -1.8184513538,
				"y": 2.1848319358,
				"z": -0.0581863124,
				"element": "C" 
			},
			{
				"x": -2.9027675259,
				"y": 1.8494491957,
				"z": 0.7678318464,
				"element": "C" 
			},
			{
				"x": -2.8640658972,
				"y": 0.74106499,
				"z": 1.628652038,
				"element": "C" 
			},
			{
				"x": -1.7386425541,
				"y": -0.0933840434,
				"z": 1.7024525401,
				"element": "C" 
			},
			{
				"x": -0.6733742278,
				"y": 0.254192056,
				"z": 0.8808797004,
				"element": "C" 
			},
			{
				"x": 0.906429764,
				"y": -1.4832009232,
				"z": -0.2478263219,
				"element": "C" 
			},
			{
				"x": 2.0025745166,
				"y": -2.3132996892,
				"z": 0.0135237927,
				"element": "C" 
			},
			{
				"x": 2.1531893464,
				"y": -3.5229661091,
				"z": -0.6683821706,
				"element": "C" 
			},
			{
				"x": 1.2130601954,
				"y": -3.920008084,
				"z": -1.6189855236,
				"element": "C" 
			},
			{
				"x": 0.115337005,
				"y": -3.0976210882,
				"z": -1.8834999957,
				"element": "C" 
			},
			{
				"x": -0.0369920106,
				"y": -1.8911072686,
				"z": -1.2022548123,
				"element": "C" 
			},
			{
				"x": 1.5343444308,
				"y": 0.7012725633,
				"z": 2.0206944622,
				"element": "H" 
			},
			{
				"x": 1.4487157524,
				"y": 1.8875274863,
				"z": -0.2210925085,
				"element": "H" 
			},
			{
				"x": 0.7964605863,
				"y": 0.9170032452,
				"z": -1.5647026076,
				"element": "H" 
			},
			{
				"x": -1.8664476311,
				"y": 3.0469284303,
				"z": -0.7177756943,
				"element": "H" 
			},
			{
				"x": -3.7992783801,
				"y": 2.4632994294,
				"z": 0.744557378,
				"element": "H" 
			},
			{
				"x": -3.7310392757,
				"y": 0.5261643095,
				"z": 2.2474542943,
				"element": "H" 
			},
			{
				"x": -1.7191782349,
				"y": -0.9552070064,
				"z": 2.3633120874,
				"element": "H" 
			},
			{
				"x": 2.7320665749,
				"y": -2.0068093,
				"z": 0.7532979203,
				"element": "H" 
			},
			{
				"x": 3.0095432409,
				"y": -4.1561265603,
				"z": -0.4524195202,
				"element": "H" 
			},
			{
				"x": 1.3310293545,
				"y": -4.8618900449,
				"z": -2.1473040927,
				"element": "H" 
			},
			{
				"x": -0.6270504299,
				"y": -3.3979092636,
				"z": -2.6178472299,
				"element": "H" 
			},
			{
				"x": -0.9012210724,
				"y": -1.2652143131,
				"z": -1.4070808624,
				"element": "H" 
			}
		],
		 "valence_orbital": [ 
			{
				"type": "occ",
				"energy": -0.274,
				"method": "rhf"
			},
			{
				"type": "occ",
				"energy": -0.25331,
				"method": "rhf"
			},
			{
				"type": "occ",
				"energy": -0.24355,
				"method": "rhf"
			},
			{
				"type": "occ",
				"energy": -0.24097,
				"method": "rhf"
			},
			{
				"type": "occ",
				"energy": -0.23179,
				"method": "rhf"
			},
			{
				"type": "unocc",
				"energy": -0.01312,
				"method": "rhf"
			},
			{
				"type": "unocc",
				"energy": -0.00246,
				"method": "rhf"
			},
			{
				"type": "unocc",
				"energy": 0.00287,
				"method": "rhf"
			},
			{
				"type": "unocc",
				"energy": 0.00994,
				"method": "rhf"
			},
			{
				"type": "unocc",
				"energy": 0.08448,
				"method": "rhf"
			}
		],
		"cosmo_sigma_profile": { 
			"-0.025": 0.0,
			"-0.024": 0.0,
			"-0.023": 0.0,
			"-0.022": 0.0,
			"-0.021": 0.0,
			"-0.02": 0.0,
			"-0.019": 0.0,
			"-0.018": 0.0,
			"-0.017": 0.0,
			"-0.016": 0.253531518303,
			"-0.015": 0.964473974869,
			"-0.014": 0.507554025684,
			"-0.013": 0.899006685112,
			"-0.012": 1.02101461677,
			"-0.011": 0.918659790296,
			"-0.01": 1.09150865497,
			"-0.009": 0.700283721764,
			"-0.008": 0.3757974437,
			"-0.007": 0.932220124734,
			"-0.006": 7.69033369348,
			"-0.005": 18.1476330622,
			"-0.004": 21.4790466656,
			"-0.003": 22.3197678225,
			"-0.002": 19.6052140162,
			"-0.001": 18.3031872595,
			"0.0": 18.5339144891,
			"0.001": 15.0343797321,
			"0.002": 15.4823181282,
			"0.003": 18.2751618977,
			"0.004": 16.4056844502,
			"0.005": 17.7249314278,
			"0.006": 14.2378388439,
			"0.007": 2.95069838229,
			"0.008": 1.82085910849,
			"0.009": 1.7367896981,
			"0.01": 2.07513238925,
			"0.011": 0.813789674159,
			"0.012": 1.037509903,
			"0.013": 0.0158166741161,
			"0.014": 0.0,
			"0.015": 0.0,
			"0.016": 0.0,
			"0.017": 0.0,
			"0.018": 0.0,
			"0.019": 0.0,
			"0.02": 0.0,
			"0.021": 0.0,
			"0.022": 0.0,
			"0.023": 0.0,
			"0.024": 0.0,
			"0.025": 0.0
		}
	}
}
