{
	 "smiles": "COC(=O)C1=NC(C)(C)[N+]([O-])=C1", 
	 "Tm": 354.65, 
	 "num_atms": 22, 
	 "gaussian": { 
		 "optdone": 1, 
		 "sigma_profile": "yes", 
		 "theory": "DFT", 
		 "functional": "B3LYP", 
		 "basiset": "6-31G**", 
		 "properties": { 
			 "R2extent": 2998.6848, 
			 "electric_dipole_moment_norm": 2.6777399519, 
			 "electric_quadrupole_moment_norm": 9.38242634717, 
			 "total_energy": -607.878518738, 
			 "HOMO_LUMO_gap": 0.15148, 
			 "cosmo_polarized_energy": -12.49, 
			 "cosmo_cavitation_energy": 26.64, 
			 "cosmo_dispersion_energy": -18.83, 
			 "cosmo_repulsion_energy": 1.52, 
			 "cosmo_total_nonelectrostatic_energy": 9.32, 
			 "SMD_solvation_energy": 5.34 
		},
		"coords": [
			{
				"x": 0.65472362,
				"y": -3.1565319157,
				"z": -0.8198590898,
				"element": "C" 
			},
			{
				"x": 0.5961184328,
				"y": -1.8486230263,
				"z": -0.2233796906,
				"element": "O" 
			},
			{
				"x": 1.4260128356,
				"y": -0.9445902239,
				"z": -0.7543947975,
				"element": "C" 
			},
			{
				"x": 2.1934799203,
				"y": -1.1565204782,
				"z": -1.6725320642,
				"element": "O" 
			},
			{
				"x": 1.3241063618,
				"y": 0.3976314858,
				"z": -0.0965916925,
				"element": "C" 
			},
			{
				"x": 0.5228779696,
				"y": 0.6747571264,
				"z": 0.8841152978,
				"element": "N" 
			},
			{
				"x": 0.7453542053,
				"y": 2.0658309753,
				"z": 1.2107795108,
				"element": "C" 
			},
			{
				"x": -0.5024636484,
				"y": 2.9132706494,
				"z": 0.9537247555,
				"element": "C" 
			},
			{
				"x": 1.3068851843,
				"y": 2.2315031198,
				"z": 2.6244895426,
				"element": "C" 
			},
			{
				"x": 1.8281929089,
				"y": 2.5332655247,
				"z": 0.2287601684,
				"element": "N" 
			},
			{
				"x": 2.2620129551,
				"y": 3.7081070203,
				"z": 0.2382139817,
				"element": "O" 
			},
			{
				"x": 2.146497528,
				"y": 1.5019273474,
				"z": -0.5366325835,
				"element": "C" 
			},
			{
				"x": 0.3942018859,
				"y": -3.1057312276,
				"z": -1.8799287948,
				"element": "H" 
			},
			{
				"x": -0.0705628305,
				"y": -3.7579526749,
				"z": -0.2733285062,
				"element": "H" 
			},
			{
				"x": 1.6583864568,
				"y": -3.5774473789,
				"z": -0.7218334539,
				"element": "H" 
			},
			{
				"x": -0.8948493164,
				"y": 2.7223423518,
				"z": -0.0483454262,
				"element": "H" 
			},
			{
				"x": -1.2733873973,
				"y": 2.6642538581,
				"z": 1.6856550853,
				"element": "H" 
			},
			{
				"x": -0.2350140666,
				"y": 3.9696034469,
				"z": 1.0376653684,
				"element": "H" 
			},
			{
				"x": 1.6272542019,
				"y": 3.2678472945,
				"z": 2.7578108617,
				"element": "H" 
			},
			{
				"x": 0.5372696697,
				"y": 1.9816049472,
				"z": 3.3574882692,
				"element": "H" 
			},
			{
				"x": 2.1637985774,
				"y": 1.5701454561,
				"z": 2.7757142678,
				"element": "H" 
			},
			{
				"x": 2.8875045459,
				"y": 1.5529063215,
				"z": -1.3182910101,
				"element": "H" 
			}
		],
		 "valence_orbital": [ 
			{
				"type": "occ",
				"energy": -0.31979,
				"method": "rhf"
			},
			{
				"type": "occ",
				"energy": -0.31504,
				"method": "rhf"
			},
			{
				"type": "occ",
				"energy": -0.28831,
				"method": "rhf"
			},
			{
				"type": "occ",
				"energy": -0.25317,
				"method": "rhf"
			},
			{
				"type": "occ",
				"energy": -0.23363,
				"method": "rhf"
			},
			{
				"type": "unocc",
				"energy": -0.08215,
				"method": "rhf"
			},
			{
				"type": "unocc",
				"energy": -0.01737,
				"method": "rhf"
			},
			{
				"type": "unocc",
				"energy": 0.09407,
				"method": "rhf"
			},
			{
				"type": "unocc",
				"energy": 0.09499,
				"method": "rhf"
			},
			{
				"type": "unocc",
				"energy": 0.10412,
				"method": "rhf"
			}
		],
		"cosmo_sigma_profile": { 
			"-0.025": 0.0,
			"-0.024": 0.0,
			"-0.023": 0.0,
			"-0.022": 0.0,
			"-0.021": 0.0,
			"-0.02": 0.0,
			"-0.019": 0.0,
			"-0.018": 0.0,
			"-0.017": 0.0,
			"-0.016": 0.0,
			"-0.015": 0.0,
			"-0.014": 0.0,
			"-0.013": 0.0,
			"-0.012": 0.0,
			"-0.011": 0.197303213559,
			"-0.01": 1.20412601719,
			"-0.009": 1.20897817038,
			"-0.008": 1.22395036637,
			"-0.007": 3.35873604437,
			"-0.006": 15.0796063024,
			"-0.005": 23.6571130743,
			"-0.004": 25.1295485206,
			"-0.003": 22.1114982924,
			"-0.002": 22.1870215141,
			"-0.001": 16.1429138751,
			"0.0": 9.42307708222,
			"0.001": 7.09897673741,
			"0.002": 3.93629292959,
			"0.003": 6.85919920905,
			"0.004": 5.27960188472,
			"0.005": 3.23771397625,
			"0.006": 3.4303673987,
			"0.007": 4.91147388032,
			"0.008": 4.71923064335,
			"0.009": 4.79746926947,
			"0.01": 7.36735865358,
			"0.011": 10.3344404179,
			"0.012": 4.34923473977,
			"0.013": 1.72607623421,
			"0.014": 0.989537381444,
			"0.015": 0.732763810275,
			"0.016": 0.0,
			"0.017": 0.0,
			"0.018": 0.0,
			"0.019": 0.0,
			"0.02": 0.0,
			"0.021": 0.0,
			"0.022": 0.0,
			"0.023": 0.0,
			"0.024": 0.0,
			"0.025": 0.0
		}
	}
}
