{
	 "smiles": "FC(OC(F)(F)F)C(F)(F)OC1=C(Cl)C=C(NC(=O)NC(=O)C2=C(F)C=CC=C2F)C=C1", 
	 "Tm": 451.15, 
	 "num_atms": 41, 
	 "gaussian": { 
		 "optdone": 1, 
		 "sigma_profile": "yes", 
		 "theory": "DFT", 
		 "functional": "B3LYP", 
		 "basiset": "6-31G**", 
		 "properties": { 
			 "R2extent": 17903.9684, 
			 "electric_dipole_moment_norm": 4.53339712247, 
			 "electric_quadrupole_moment_norm": 43.341631072, 
			 "total_energy": -2322.54083268, 
			 "HOMO_LUMO_gap": 0.18428, 
			 "cosmo_polarized_energy": -24.66, 
			 "cosmo_cavitation_energy": 53.12, 
			 "cosmo_dispersion_energy": -34.41, 
			 "cosmo_repulsion_energy": 2.42, 
			 "cosmo_total_nonelectrostatic_energy": 21.14, 
			 "SMD_solvation_energy": 13.31 
		},
		"coords": [
			{
				"x": 1.5495678998,
				"y": 1.2388402525,
				"z": 1.6115362408,
				"element": "F" 
			},
			{
				"x": 2.3100093897,
				"y": 0.643519238,
				"z": 2.5816095365,
				"element": "C" 
			},
			{
				"x": 2.9046987463,
				"y": 1.6232984091,
				"z": 3.3873155886,
				"element": "O" 
			},
			{
				"x": 4.1439180604,
				"y": 2.0532082488,
				"z": 3.0039590584,
				"element": "C" 
			},
			{
				"x": 4.5256566797,
				"y": 2.9906183717,
				"z": 3.8613642597,
				"element": "F" 
			},
			{
				"x": 5.0417943947,
				"y": 1.0499962816,
				"z": 3.0179807788,
				"element": "F" 
			},
			{
				"x": 4.1372219549,
				"y": 2.5631800965,
				"z": 1.7614354584,
				"element": "F" 
			},
			{
				"x": 1.3898753368,
				"y": -0.1997790618,
				"z": 3.4816178355,
				"element": "C" 
			},
			{
				"x": 0.5027526561,
				"y": 0.6163524931,
				"z": 4.1064072915,
				"element": "F" 
			},
			{
				"x": 2.1506461676,
				"y": -0.7972396256,
				"z": 4.4164748637,
				"element": "F" 
			},
			{
				"x": 0.7551913959,
				"y": -1.2203768104,
				"z": 2.8071143495,
				"element": "O" 
			},
			{
				"x": -0.2976143818,
				"y": -0.9561397286,
				"z": 1.9394276925,
				"element": "C" 
			},
			{
				"x": -0.1423287598,
				"y": -1.2233617244,
				"z": 0.5754683541,
				"element": "C" 
			},
			{
				"x": 1.3951418306,
				"y": -1.7802581066,
				"z": -0.0415224275,
				"element": "Cl" 
			},
			{
				"x": -1.2116434148,
				"y": -1.0770064524,
				"z": -0.3060729851,
				"element": "C" 
			},
			{
				"x": -2.4493047103,
				"y": -0.6152595231,
				"z": 0.1661204228,
				"element": "C" 
			},
			{
				"x": -3.5629051163,
				"y": -0.4607647004,
				"z": -0.6822346802,
				"element": "N" 
			},
			{
				"x": -3.6822786072,
				"y": -0.0148337978,
				"z": -2.0001128864,
				"element": "C" 
			},
			{
				"x": -4.7346547594,
				"y": -0.1151435008,
				"z": -2.592574555,
				"element": "O" 
			},
			{
				"x": -2.5240689093,
				"y": 0.5925181617,
				"z": -2.5098488168,
				"element": "N" 
			},
			{
				"x": -2.3289325905,
				"y": 0.9511384874,
				"z": -3.8500700801,
				"element": "C" 
			},
			{
				"x": -3.0704143795,
				"y": 0.6332941428,
				"z": -4.7515429539,
				"element": "O" 
			},
			{
				"x": -1.100288059,
				"y": 1.7973293974,
				"z": -4.0951471705,
				"element": "C" 
			},
			{
				"x": -1.122779398,
				"y": 2.7861766821,
				"z": -5.0946737346,
				"element": "C" 
			},
			{
				"x": -2.2618463098,
				"y": 3.0323922771,
				"z": -5.7489221812,
				"element": "F" 
			},
			{
				"x": -0.0090469565,
				"y": 3.5534432177,
				"z": -5.4177460516,
				"element": "C" 
			},
			{
				"x": 1.1881355057,
				"y": 3.3341636159,
				"z": -4.738571934,
				"element": "C" 
			},
			{
				"x": 1.2668836581,
				"y": 2.365635118,
				"z": -3.7381450658,
				"element": "C" 
			},
			{
				"x": 0.1278323512,
				"y": 1.6317345677,
				"z": -3.4432543843,
				"element": "C" 
			},
			{
				"x": 0.2199754806,
				"y": 0.6980170024,
				"z": -2.4601719556,
				"element": "F" 
			},
			{
				"x": -2.6040111428,
				"y": -0.3591001423,
				"z": 1.5378870048,
				"element": "C" 
			},
			{
				"x": -1.5440674165,
				"y": -0.5484546492,
				"z": 2.4163414971,
				"element": "C" 
			},
			{
				"x": 3.0528652613,
				"y": -0.0031829965,
				"z": 2.1080663695,
				"element": "H" 
			},
			{
				"x": -1.0753377561,
				"y": -1.3349959534,
				"z": -1.3481206768,
				"element": "H" 
			},
			{
				"x": -4.470219738,
				"y": -0.6926987979,
				"z": -0.3009109999,
				"element": "H" 
			},
			{
				"x": -1.7834831528,
				"y": 0.8172027891,
				"z": -1.8599795572,
				"element": "H" 
			},
			{
				"x": -0.1008167557,
				"y": 4.3061413134,
				"z": -6.1921099122,
				"element": "H" 
			},
			{
				"x": 2.0646590586,
				"y": 3.9235356433,
				"z": -4.9871920638,
				"element": "H" 
			},
			{
				"x": 2.1818667403,
				"y": 2.1692062951,
				"z": -3.1917967543,
				"element": "H" 
			},
			{
				"x": -3.5613731708,
				"y": -0.0115718443,
				"z": 1.9135898253,
				"element": "H" 
			},
			{
				"x": -1.6658770833,
				"y": -0.3667746868,
				"z": 3.4768053994,
				"element": "H" 
			}
		],
		 "valence_orbital": [ 
			{
				"type": "occ",
				"energy": -0.28069,
				"method": "rhf"
			},
			{
				"type": "occ",
				"energy": -0.27581,
				"method": "rhf"
			},
			{
				"type": "occ",
				"energy": -0.26712,
				"method": "rhf"
			},
			{
				"type": "occ",
				"energy": -0.25794,
				"method": "rhf"
			},
			{
				"type": "occ",
				"energy": -0.24463,
				"method": "rhf"
			},
			{
				"type": "unocc",
				"energy": -0.06035,
				"method": "rhf"
			},
			{
				"type": "unocc",
				"energy": -0.04121,
				"method": "rhf"
			},
			{
				"type": "unocc",
				"energy": -0.03707,
				"method": "rhf"
			},
			{
				"type": "unocc",
				"energy": -0.02119,
				"method": "rhf"
			},
			{
				"type": "unocc",
				"energy": 0.00517,
				"method": "rhf"
			}
		],
		"cosmo_sigma_profile": { 
			"-0.025": 0.0,
			"-0.024": 0.0,
			"-0.023": 0.0,
			"-0.022": 0.0,
			"-0.021": 0.0,
			"-0.02": 0.0,
			"-0.019": 0.0,
			"-0.018": 0.0,
			"-0.017": 0.0,
			"-0.016": 0.243970982546,
			"-0.015": 1.07532296228,
			"-0.014": 1.50010617032,
			"-0.013": 1.19909856264,
			"-0.012": 2.70974978087,
			"-0.011": 2.0569807979,
			"-0.01": 4.2175921944,
			"-0.009": 4.94994119909,
			"-0.008": 12.2109439595,
			"-0.007": 14.3012548757,
			"-0.006": 15.4639901806,
			"-0.005": 15.1250279261,
			"-0.004": 16.6156676851,
			"-0.003": 21.0853331588,
			"-0.002": 24.7733617007,
			"-0.001": 34.2602094166,
			"0.0": 42.021540513,
			"0.001": 63.1394852612,
			"0.002": 57.8131470535,
			"0.003": 34.9805871231,
			"0.004": 15.7054027538,
			"0.005": 6.95689995463,
			"0.006": 4.02079450938,
			"0.007": 2.96429326279,
			"0.008": 2.26688245692,
			"0.009": 3.38602416856,
			"0.01": 3.69733984039,
			"0.011": 5.91112897351,
			"0.012": 7.69143492101,
			"0.013": 3.41621560617,
			"0.014": 1.76075644982,
			"0.015": 1.23505643064,
			"0.016": 1.23220556886,
			"0.017": 0.283396198498,
			"0.018": 0.0,
			"0.019": 0.0,
			"0.02": 0.0,
			"0.021": 0.0,
			"0.022": 0.0,
			"0.023": 0.0,
			"0.024": 0.0,
			"0.025": 0.0
		}
	}
}
