{
	 "smiles": "OC(=O)CC(=C)C(O)=O", 
	 "Tm": 448.15, 
	 "num_atms": 15, 
	 "gaussian": { 
		 "optdone": 1, 
		 "sigma_profile": "yes", 
		 "theory": "DFT", 
		 "functional": "B3LYP", 
		 "basiset": "6-31G**", 
		 "properties": { 
			 "R2extent": 1540.553, 
			 "electric_dipole_moment_norm": 2.67801533043, 
			 "electric_quadrupole_moment_norm": 10.1971076463, 
			 "total_energy": -495.050470521, 
			 "HOMO_LUMO_gap": 0.22811, 
			 "cosmo_polarized_energy": -15.15, 
			 "cosmo_cavitation_energy": 20.46, 
			 "cosmo_dispersion_energy": -14.47, 
			 "cosmo_repulsion_energy": 1.22, 
			 "cosmo_total_nonelectrostatic_energy": 7.22, 
			 "SMD_solvation_energy": 6.7 
		},
		"coords": [
			{
				"x": 1.7120557967,
				"y": 1.1426536222,
				"z": 0.6012992088,
				"element": "O" 
			},
			{
				"x": 1.2453788576,
				"y": 0.3479659746,
				"z": -0.3913440818,
				"element": "C" 
			},
			{
				"x": 1.8527638125,
				"y": -0.6112203734,
				"z": -0.8072273934,
				"element": "O" 
			},
			{
				"x": -0.0989461282,
				"y": 0.8475175678,
				"z": -0.8963053245,
				"element": "C" 
			},
			{
				"x": -0.7387323981,
				"y": -0.0919110223,
				"z": -1.8855722304,
				"element": "C" 
			},
			{
				"x": -0.92968726,
				"y": 0.2088034866,
				"z": -3.1738606041,
				"element": "C" 
			},
			{
				"x": -1.2066758152,
				"y": -1.4300769057,
				"z": -1.4095141686,
				"element": "C" 
			},
			{
				"x": -1.106206229,
				"y": -1.5533250057,
				"z": -0.0615673467,
				"element": "O" 
			},
			{
				"x": -1.6497398689,
				"y": -2.315001138,
				"z": -2.1108408924,
				"element": "O" 
			},
			{
				"x": 2.5733302881,
				"y": 0.773747917,
				"z": 0.859892562,
				"element": "H" 
			},
			{
				"x": 0.0635751385,
				"y": 1.8307196761,
				"z": -1.3517794706,
				"element": "H" 
			},
			{
				"x": -0.7407245311,
				"y": 1.010246718,
				"z": -0.0239796555,
				"element": "H" 
			},
			{
				"x": -0.6194855214,
				"y": 1.1629938731,
				"z": -3.5883113616,
				"element": "H" 
			},
			{
				"x": -1.400887635,
				"y": -0.5080871012,
				"z": -3.8374922526,
				"element": "H" 
			},
			{
				"x": -1.4136185066,
				"y": -2.4504272891,
				"z": 0.1488030114,
				"element": "H" 
			}
		],
		 "valence_orbital": [ 
			{
				"type": "occ",
				"energy": -0.32673,
				"method": "rhf"
			},
			{
				"type": "occ",
				"energy": -0.31973,
				"method": "rhf"
			},
			{
				"type": "occ",
				"energy": -0.28538,
				"method": "rhf"
			},
			{
				"type": "occ",
				"energy": -0.2784,
				"method": "rhf"
			},
			{
				"type": "occ",
				"energy": -0.27529,
				"method": "rhf"
			},
			{
				"type": "unocc",
				"energy": -0.04718,
				"method": "rhf"
			},
			{
				"type": "unocc",
				"energy": 0.00665,
				"method": "rhf"
			},
			{
				"type": "unocc",
				"energy": 0.0695,
				"method": "rhf"
			},
			{
				"type": "unocc",
				"energy": 0.07582,
				"method": "rhf"
			},
			{
				"type": "unocc",
				"energy": 0.08173,
				"method": "rhf"
			}
		],
		"cosmo_sigma_profile": { 
			"-0.025": 0.0,
			"-0.024": 0.0,
			"-0.023": 0.0,
			"-0.022": 0.0,
			"-0.021": 0.0,
			"-0.02": 0.0,
			"-0.019": 0.231994593388,
			"-0.018": 1.86887713614,
			"-0.017": 1.57907100154,
			"-0.016": 1.79727566725,
			"-0.015": 1.86625519535,
			"-0.014": 0.859103906531,
			"-0.013": 1.26899872734,
			"-0.012": 1.03568883623,
			"-0.011": 1.58040465642,
			"-0.01": 1.58772892439,
			"-0.009": 0.797268391972,
			"-0.008": 5.0566496731,
			"-0.007": 7.67345029023,
			"-0.006": 8.49439913164,
			"-0.005": 7.40797855075,
			"-0.004": 8.4140275125,
			"-0.003": 9.30917262052,
			"-0.002": 8.91847116505,
			"-0.001": 8.68473724738,
			"0.0": 8.67778854841,
			"0.001": 7.84927634061,
			"0.002": 7.5260123378,
			"0.003": 5.7833731948,
			"0.004": 6.08639754795,
			"0.005": 6.87191107078,
			"0.006": 6.13163497215,
			"0.007": 5.15473116774,
			"0.008": 4.65237605783,
			"0.009": 5.23727949444,
			"0.01": 4.8261973089,
			"0.011": 8.66417069414,
			"0.012": 5.94339032346,
			"0.013": 0.106455772277,
			"0.014": 0.0,
			"0.015": 0.0,
			"0.016": 0.0,
			"0.017": 0.0,
			"0.018": 0.0,
			"0.019": 0.0,
			"0.02": 0.0,
			"0.021": 0.0,
			"0.022": 0.0,
			"0.023": 0.0,
			"0.024": 0.0,
			"0.025": 0.0
		}
	}
}
