{
	 "smiles": "COC(=O)C(Cl)C(Cl)C1=CC(=CC=C1)C(Cl)C(Cl)C(=O)OC", 
	 "Tm": 404.15, 
	 "num_atms": 36, 
	 "gaussian": { 
		 "optdone": 1, 
		 "sigma_profile": "yes", 
		 "theory": "DFT", 
		 "functional": "B3LYP", 
		 "basiset": "6-31G**", 
		 "properties": { 
			 "R2extent": 9794.8914, 
			 "electric_dipole_moment_norm": 7.1980449297, 
			 "electric_quadrupole_moment_norm": 12.248058649, 
			 "total_energy": -2683.59929854, 
			 "HOMO_LUMO_gap": 0.20695, 
			 "cosmo_polarized_energy": -18.82, 
			 "cosmo_cavitation_energy": 46.6, 
			 "cosmo_dispersion_energy": -29.9, 
			 "cosmo_repulsion_energy": 2.33, 
			 "cosmo_total_nonelectrostatic_energy": 19.02, 
			 "SMD_solvation_energy": 8.96 
		},
		"coords": [
			{
				"x": -0.2345094946,
				"y": -2.1688239744,
				"z": -3.092545675,
				"element": "C" 
			},
			{
				"x": -0.2037502358,
				"y": -2.8675142036,
				"z": -1.8258242208,
				"element": "O" 
			},
			{
				"x": 1.0132487101,
				"y": -2.9736612747,
				"z": -1.2617222652,
				"element": "C" 
			},
			{
				"x": 2.0401127577,
				"y": -2.589179513,
				"z": -1.7617786896,
				"element": "O" 
			},
			{
				"x": 0.8816276711,
				"y": -3.7027108252,
				"z": 0.0914224739,
				"element": "C" 
			},
			{
				"x": 2.4719578347,
				"y": -3.7911248125,
				"z": 0.9219582353,
				"element": "Cl" 
			},
			{
				"x": -0.2487292015,
				"y": -3.1369433325,
				"z": 0.9701463354,
				"element": "C" 
			},
			{
				"x": -0.5433791639,
				"y": -4.3033300722,
				"z": 2.358085273,
				"element": "Cl" 
			},
			{
				"x": -0.13996607,
				"y": -1.7049588344,
				"z": 1.4661774721,
				"element": "C" 
			},
			{
				"x": 0.848628858,
				"y": -0.8282869385,
				"z": 1.0061742822,
				"element": "C" 
			},
			{
				"x": 0.8569169427,
				"y": 0.5179163744,
				"z": 1.3932765694,
				"element": "C" 
			},
			{
				"x": -0.1211909328,
				"y": 0.989550973,
				"z": 2.2743670747,
				"element": "C" 
			},
			{
				"x": -1.105797883,
				"y": 0.1210405491,
				"z": 2.7441533763,
				"element": "C" 
			},
			{
				"x": -1.121701949,
				"y": -1.2108674738,
				"z": 2.3381454104,
				"element": "C" 
			},
			{
				"x": 1.9046429413,
				"y": 1.4376714571,
				"z": 0.8041546218,
				"element": "C" 
			},
			{
				"x": 2.9350740875,
				"y": 2.174788553,
				"z": 2.1208418303,
				"element": "Cl" 
			},
			{
				"x": 1.2630183377,
				"y": 2.5561821217,
				"z": -0.0288166317,
				"element": "C" 
			},
			{
				"x": 2.5061580918,
				"y": 3.5886844984,
				"z": -0.8621409106,
				"element": "Cl" 
			},
			{
				"x": 0.37410735,
				"y": 1.9820879458,
				"z": -1.1345957317,
				"element": "C" 
			},
			{
				"x": 0.6248725654,
				"y": 0.983369027,
				"z": -1.7720914773,
				"element": "O" 
			},
			{
				"x": -0.7083209961,
				"y": 2.7533659197,
				"z": -1.3087953261,
				"element": "O" 
			},
			{
				"x": -1.5936499551,
				"y": 2.3536432916,
				"z": -2.3721460183,
				"element": "C" 
			},
			{
				"x": 0.0546473653,
				"y": -1.1263329543,
				"z": -2.9444459913,
				"element": "H" 
			},
			{
				"x": 0.4460653053,
				"y": -2.6436267473,
				"z": -3.8018641926,
				"element": "H" 
			},
			{
				"x": -1.2654712413,
				"y": -2.2459590042,
				"z": -3.4370126361,
				"element": "H" 
			},
			{
				"x": 0.6111784574,
				"y": -4.7359497428,
				"z": -0.1392077385,
				"element": "H" 
			},
			{
				"x": -1.1550062752,
				"y": -3.2292315059,
				"z": 0.3678718418,
				"element": "H" 
			},
			{
				"x": 1.6255798268,
				"y": -1.1695614111,
				"z": 0.3341211037,
				"element": "H" 
			},
			{
				"x": -0.1024829003,
				"y": 2.0218492043,
				"z": 2.610979179,
				"element": "H" 
			},
			{
				"x": -1.8643049834,
				"y": 0.4834143257,
				"z": 3.4313072813,
				"element": "H" 
			},
			{
				"x": -1.8907705562,
				"y": -1.878278579,
				"z": 2.7129561634,
				"element": "H" 
			},
			{
				"x": 2.5899004421,
				"y": 0.8741830655,
				"z": 0.1715611073,
				"element": "H" 
			},
			{
				"x": 0.6830656318,
				"y": 3.2321668016,
				"z": 0.5982828653,
				"element": "H" 
			},
			{
				"x": -2.3873232026,
				"y": 3.0993458021,
				"z": -2.3865579378,
				"element": "H" 
			},
			{
				"x": -2.0027794934,
				"y": 1.3603634729,
				"z": -2.1726622339,
				"element": "H" 
			},
			{
				"x": -1.0599686428,
				"y": 2.3393178163,
				"z": -3.3251748202,
				"element": "H" 
			}
		],
		 "valence_orbital": [ 
			{
				"type": "occ",
				"energy": -0.2999,
				"method": "rhf"
			},
			{
				"type": "occ",
				"energy": -0.29332,
				"method": "rhf"
			},
			{
				"type": "occ",
				"energy": -0.29053,
				"method": "rhf"
			},
			{
				"type": "occ",
				"energy": -0.26873,
				"method": "rhf"
			},
			{
				"type": "occ",
				"energy": -0.26184,
				"method": "rhf"
			},
			{
				"type": "unocc",
				"energy": -0.05489,
				"method": "rhf"
			},
			{
				"type": "unocc",
				"energy": -0.04187,
				"method": "rhf"
			},
			{
				"type": "unocc",
				"energy": -0.0167,
				"method": "rhf"
			},
			{
				"type": "unocc",
				"energy": -0.01259,
				"method": "rhf"
			},
			{
				"type": "unocc",
				"energy": 0.00096,
				"method": "rhf"
			}
		],
		"cosmo_sigma_profile": { 
			"-0.025": 0.0,
			"-0.024": 0.0,
			"-0.023": 0.0,
			"-0.022": 0.0,
			"-0.021": 0.0,
			"-0.02": 0.0,
			"-0.019": 0.0,
			"-0.018": 0.0,
			"-0.017": 0.0,
			"-0.016": 0.0,
			"-0.015": 0.0,
			"-0.014": 0.0,
			"-0.013": 0.0,
			"-0.012": 0.034093626713,
			"-0.011": 1.83152597142,
			"-0.01": 3.26761412796,
			"-0.009": 6.33661958325,
			"-0.008": 7.54471206799,
			"-0.007": 12.9451853028,
			"-0.006": 22.7546229506,
			"-0.005": 24.1319285913,
			"-0.004": 25.7569748981,
			"-0.003": 20.5368837133,
			"-0.002": 18.8950371137,
			"-0.001": 21.9234864367,
			"0.0": 21.958770224,
			"0.001": 25.3486193088,
			"0.002": 30.5919235708,
			"0.003": 37.577833364,
			"0.004": 32.7112795207,
			"0.005": 28.4827279681,
			"0.006": 15.5622222353,
			"0.007": 5.51534061138,
			"0.008": 3.21256953698,
			"0.009": 3.26180366894,
			"0.01": 4.61563518135,
			"0.011": 3.12216442731,
			"0.012": 0.621911661407,
			"0.013": 0.0,
			"0.014": 0.0,
			"0.015": 0.0,
			"0.016": 0.0,
			"0.017": 0.0,
			"0.018": 0.0,
			"0.019": 0.0,
			"0.02": 0.0,
			"0.021": 0.0,
			"0.022": 0.0,
			"0.023": 0.0,
			"0.024": 0.0,
			"0.025": 0.0
		}
	}
}
