{
	 "smiles": "COC1=CC=C(CCl)C(C)=C1CCl", 
	 "Tm": 370.15, 
	 "num_atms": 25, 
	 "gaussian": { 
		 "optdone": 1, 
		 "sigma_profile": "yes", 
		 "theory": "DFT", 
		 "functional": "B3LYP", 
		 "basiset": "6-31G**", 
		 "properties": { 
			 "R2extent": 4144.3464, 
			 "electric_dipole_moment_norm": 4.73518815466, 
			 "electric_quadrupole_moment_norm": 17.1507303308, 
			 "total_energy": -1383.90995464, 
			 "HOMO_LUMO_gap": 0.19732, 
			 "cosmo_polarized_energy": -10.89, 
			 "cosmo_cavitation_energy": 30.88, 
			 "cosmo_dispersion_energy": -22.24, 
			 "cosmo_repulsion_energy": 1.78, 
			 "cosmo_total_nonelectrostatic_energy": 10.42, 
			 "SMD_solvation_energy": 5.26 
		},
		"coords": [
			{
				"x": -2.9716529902,
				"y": 0.9367945756,
				"z": 1.2422849516,
				"element": "C" 
			},
			{
				"x": -1.7415874495,
				"y": 1.4185723956,
				"z": 0.7198613437,
				"element": "O" 
			},
			{
				"x": -0.8577076479,
				"y": 0.5266993294,
				"z": 0.1937143851,
				"element": "C" 
			},
			{
				"x": -1.0709419891,
				"y": -0.8535432426,
				"z": 0.1669484114,
				"element": "C" 
			},
			{
				"x": -0.0948565726,
				"y": -1.6755064681,
				"z": -0.3869067105,
				"element": "C" 
			},
			{
				"x": 1.0882850064,
				"y": -1.1594602178,
				"z": -0.9226156951,
				"element": "C" 
			},
			{
				"x": 2.1017754033,
				"y": -2.1184816878,
				"z": -1.4664887286,
				"element": "C" 
			},
			{
				"x": 2.0136528441,
				"y": -2.3158070039,
				"z": -3.3017946681,
				"element": "Cl" 
			},
			{
				"x": 1.2980756283,
				"y": 0.2381711187,
				"z": -0.917128507,
				"element": "C" 
			},
			{
				"x": 2.5496506903,
				"y": 0.8347936078,
				"z": -1.5260599149,
				"element": "C" 
			},
			{
				"x": 0.3326277624,
				"y": 1.0782993886,
				"z": -0.3342893063,
				"element": "C" 
			},
			{
				"x": 0.5301889812,
				"y": 2.5599124681,
				"z": -0.2419333188,
				"element": "C" 
			},
			{
				"x": -0.0538727022,
				"y": 3.4541024726,
				"z": -1.7468983765,
				"element": "Cl" 
			},
			{
				"x": -2.8121555406,
				"y": 0.2568195206,
				"z": 2.0884865167,
				"element": "H" 
			},
			{
				"x": -3.5154341765,
				"y": 1.8177479724,
				"z": 1.585406027,
				"element": "H" 
			},
			{
				"x": -3.5611724754,
				"y": 0.4249620103,
				"z": 0.4721700355,
				"element": "H" 
			},
			{
				"x": -1.9765668238,
				"y": -1.2891871894,
				"z": 0.5699064668,
				"element": "H" 
			},
			{
				"x": -0.2591430068,
				"y": -2.7498634848,
				"z": -0.403900445,
				"element": "H" 
			},
			{
				"x": 3.1292719345,
				"y": -1.8160889541,
				"z": -1.2691582946,
				"element": "H" 
			},
			{
				"x": 1.9460800363,
				"y": -3.1219629681,
				"z": -1.0718750836,
				"element": "H" 
			},
			{
				"x": 2.3368569466,
				"y": 1.7886509369,
				"z": -2.0134155265,
				"element": "H" 
			},
			{
				"x": 3.3206722856,
				"y": 1.0148718908,
				"z": -0.7649690538,
				"element": "H" 
			},
			{
				"x": 2.978037159,
				"y": 0.1797600972,
				"z": -2.2856043762,
				"element": "H" 
			},
			{
				"x": 1.5779302457,
				"y": 2.8350383739,
				"z": -0.1404818791,
				"element": "H" 
			},
			{
				"x": -0.0445135487,
				"y": 2.9859050579,
				"z": 0.5761417466,
				"element": "H" 
			}
		],
		 "valence_orbital": [ 
			{
				"type": "occ",
				"energy": -0.29074,
				"method": "rhf"
			},
			{
				"type": "occ",
				"energy": -0.2881,
				"method": "rhf"
			},
			{
				"type": "occ",
				"energy": -0.28616,
				"method": "rhf"
			},
			{
				"type": "occ",
				"energy": -0.25244,
				"method": "rhf"
			},
			{
				"type": "occ",
				"energy": -0.22887,
				"method": "rhf"
			},
			{
				"type": "unocc",
				"energy": -0.03155,
				"method": "rhf"
			},
			{
				"type": "unocc",
				"energy": -0.02162,
				"method": "rhf"
			},
			{
				"type": "unocc",
				"energy": 0.03262,
				"method": "rhf"
			},
			{
				"type": "unocc",
				"energy": 0.05525,
				"method": "rhf"
			},
			{
				"type": "unocc",
				"energy": 0.08506,
				"method": "rhf"
			}
		],
		"cosmo_sigma_profile": { 
			"-0.025": 0.0,
			"-0.024": 0.0,
			"-0.023": 0.0,
			"-0.022": 0.0,
			"-0.021": 0.0,
			"-0.02": 0.0,
			"-0.019": 0.0,
			"-0.018": 0.0,
			"-0.017": 0.0,
			"-0.016": 0.0,
			"-0.015": 0.0,
			"-0.014": 0.0,
			"-0.013": 0.0,
			"-0.012": 0.0,
			"-0.011": 0.0,
			"-0.01": 0.0,
			"-0.009": 0.0,
			"-0.008": 1.47456078702,
			"-0.007": 8.809208169,
			"-0.006": 18.0125261292,
			"-0.005": 23.1023768979,
			"-0.004": 22.326889345,
			"-0.003": 19.6454314243,
			"-0.002": 14.0756170046,
			"-0.001": 13.0245433428,
			"0.0": 13.5115209322,
			"0.001": 12.7577950149,
			"0.002": 14.3948739938,
			"0.003": 16.0545118356,
			"0.004": 20.1904555401,
			"0.005": 15.7929226406,
			"0.006": 16.9344668858,
			"0.007": 17.7691754216,
			"0.008": 1.19324837472,
			"0.009": 0.0,
			"0.01": 0.0,
			"0.011": 0.0,
			"0.012": 0.0,
			"0.013": 0.0,
			"0.014": 0.0,
			"0.015": 0.0,
			"0.016": 0.0,
			"0.017": 0.0,
			"0.018": 0.0,
			"0.019": 0.0,
			"0.02": 0.0,
			"0.021": 0.0,
			"0.022": 0.0,
			"0.023": 0.0,
			"0.024": 0.0,
			"0.025": 0.0
		}
	}
}
