{
	 "smiles": "CC(C)(C)NS(=O)(=O)CC1=CC(N)=CC=C1", 
	 "Tm": 375.15, 
	 "num_atms": 34, 
	 "gaussian": { 
		 "optdone": 1, 
		 "sigma_profile": "yes", 
		 "theory": "DFT", 
		 "functional": "B3LYP", 
		 "basiset": "6-31G**", 
		 "properties": { 
			 "R2extent": 4234.3866, 
			 "electric_dipole_moment_norm": 4.15009338329, 
			 "electric_quadrupole_moment_norm": 22.0254095844, 
			 "total_energy": -1088.11263797, 
			 "HOMO_LUMO_gap": 0.19358, 
			 "cosmo_polarized_energy": -18.04, 
			 "cosmo_cavitation_energy": 36.42, 
			 "cosmo_dispersion_energy": -25.09, 
			 "cosmo_repulsion_energy": 1.91, 
			 "cosmo_total_nonelectrostatic_energy": 13.24, 
			 "SMD_solvation_energy": 5.13 
		},
		"coords": [
			{
				"x": 0.6562381495,
				"y": -2.0771030923,
				"z": -2.78890503,
				"element": "C" 
			},
			{
				"x": -0.0767524292,
				"y": -1.9223609631,
				"z": -1.442907905,
				"element": "C" 
			},
			{
				"x": -0.9657022691,
				"y": -0.6715126067,
				"z": -1.4411683794,
				"element": "C" 
			},
			{
				"x": -0.9415536733,
				"y": -3.1662041382,
				"z": -1.1706610999,
				"element": "C" 
			},
			{
				"x": 0.8827162635,
				"y": -1.8844977297,
				"z": -0.2879901773,
				"element": "N" 
			},
			{
				"x": 2.104044493,
				"y": -0.7315752272,
				"z": -0.0958058412,
				"element": "S" 
			},
			{
				"x": 3.3536199437,
				"y": -1.4763647255,
				"z": 0.118964609,
				"element": "O" 
			},
			{
				"x": 2.0133255543,
				"y": 0.3008357104,
				"z": -1.137174903,
				"element": "O" 
			},
			{
				"x": 1.7183860124,
				"y": 0.0518719229,
				"z": 1.5152372563,
				"element": "C" 
			},
			{
				"x": 0.4077802278,
				"y": 0.7819643238,
				"z": 1.595668454,
				"element": "C" 
			},
			{
				"x": 0.2641975897,
				"y": 2.0319691621,
				"z": 0.9859931139,
				"element": "C" 
			},
			{
				"x": -0.9495328282,
				"y": 2.7347203266,
				"z": 1.0568502081,
				"element": "C" 
			},
			{
				"x": -1.1052416067,
				"y": 3.9508036536,
				"z": 0.3945928138,
				"element": "N" 
			},
			{
				"x": -2.0209230969,
				"y": 2.1615195804,
				"z": 1.7660056093,
				"element": "C" 
			},
			{
				"x": -1.8741280029,
				"y": 0.9185066503,
				"z": 2.3750060636,
				"element": "C" 
			},
			{
				"x": -0.6689455933,
				"y": 0.2192458595,
				"z": 2.2933081887,
				"element": "C" 
			},
			{
				"x": 1.2898835625,
				"y": -2.9713224757,
				"z": -2.7875160398,
				"element": "H" 
			},
			{
				"x": 1.2849258669,
				"y": -1.2075764333,
				"z": -2.9896712008,
				"element": "H" 
			},
			{
				"x": -0.0671031129,
				"y": -2.1795844787,
				"z": -3.6050718898,
				"element": "H" 
			},
			{
				"x": -1.7197325251,
				"y": -0.7660695262,
				"z": -2.229284096,
				"element": "H" 
			},
			{
				"x": -1.4781093431,
				"y": -0.561098366,
				"z": -0.482088205,
				"element": "H" 
			},
			{
				"x": -0.3837515467,
				"y": 0.2311766958,
				"z": -1.6310881489,
				"element": "H" 
			},
			{
				"x": -1.6896743316,
				"y": -3.2796042722,
				"z": -1.9609285538,
				"element": "H" 
			},
			{
				"x": -1.4587099505,
				"y": -3.0786666525,
				"z": -0.2109882324,
				"element": "H" 
			},
			{
				"x": -0.3349733762,
				"y": -4.079854559,
				"z": -1.1559048694,
				"element": "H" 
			},
			{
				"x": 1.3412394636,
				"y": -2.7841348556,
				"z": -0.1600201432,
				"element": "H" 
			},
			{
				"x": 1.7865449996,
				"y": -0.7595251139,
				"z": 2.2426518232,
				"element": "H" 
			},
			{
				"x": 2.5749068019,
				"y": 0.7176812255,
				"z": 1.6604844324,
				"element": "H" 
			},
			{
				"x": 1.0965144221,
				"y": 2.4543124366,
				"z": 0.4294723261,
				"element": "H" 
			},
			{
				"x": -0.2499405208,
				"y": 4.4432820087,
				"z": 0.1791137027,
				"element": "H" 
			},
			{
				"x": -1.8190306431,
				"y": 4.5625835209,
				"z": 0.7642264935,
				"element": "H" 
			},
			{
				"x": -2.965707019,
				"y": 2.6952984215,
				"z": 1.8330351323,
				"element": "H" 
			},
			{
				"x": -2.7099595315,
				"y": 0.4922687277,
				"z": 2.9228385397,
				"element": "H" 
			},
			{
				"x": -0.5612519502,
				"y": -0.7504850103,
				"z": 2.7692259484,
				"element": "H" 
			}
		],
		 "valence_orbital": [ 
			{
				"type": "occ",
				"energy": -0.29241,
				"method": "rhf"
			},
			{
				"type": "occ",
				"energy": -0.29054,
				"method": "rhf"
			},
			{
				"type": "occ",
				"energy": -0.26043,
				"method": "rhf"
			},
			{
				"type": "occ",
				"energy": -0.24605,
				"method": "rhf"
			},
			{
				"type": "occ",
				"energy": -0.20664,
				"method": "rhf"
			},
			{
				"type": "unocc",
				"energy": -0.01306,
				"method": "rhf"
			},
			{
				"type": "unocc",
				"energy": 0.0106,
				"method": "rhf"
			},
			{
				"type": "unocc",
				"energy": 0.0615,
				"method": "rhf"
			},
			{
				"type": "unocc",
				"energy": 0.07444,
				"method": "rhf"
			},
			{
				"type": "unocc",
				"energy": 0.07975,
				"method": "rhf"
			}
		],
		"cosmo_sigma_profile": { 
			"-0.025": 0.0,
			"-0.024": 0.0,
			"-0.023": 0.0,
			"-0.022": 0.0,
			"-0.021": 0.0,
			"-0.02": 0.0,
			"-0.019": 0.0,
			"-0.018": 0.0,
			"-0.017": 0.0,
			"-0.016": 0.0,
			"-0.015": 0.0,
			"-0.014": 0.0,
			"-0.013": 0.964087347035,
			"-0.012": 3.34005350671,
			"-0.011": 3.93151313757,
			"-0.01": 3.87390042861,
			"-0.009": 5.00259642896,
			"-0.008": 6.72706872784,
			"-0.007": 8.34752671626,
			"-0.006": 10.9617260575,
			"-0.005": 13.4974276837,
			"-0.004": 20.2093634745,
			"-0.003": 23.0739189836,
			"-0.002": 17.8649813883,
			"-0.001": 21.3394931021,
			"0.0": 26.178107406,
			"0.001": 21.4031070293,
			"0.002": 13.0528106578,
			"0.003": 12.9607885558,
			"0.004": 12.8798347915,
			"0.005": 12.4569874285,
			"0.006": 9.45630801876,
			"0.007": 5.94937613724,
			"0.008": 4.44533275384,
			"0.009": 3.93673619699,
			"0.01": 4.70912815478,
			"0.011": 8.52752658644,
			"0.012": 7.40429330661,
			"0.013": 1.54734100651,
			"0.014": 0.52562938136,
			"0.015": 0.094485224747,
			"0.016": 0.0,
			"0.017": 0.0,
			"0.018": 0.0,
			"0.019": 0.0,
			"0.02": 0.0,
			"0.021": 0.0,
			"0.022": 0.0,
			"0.023": 0.0,
			"0.024": 0.0,
			"0.025": 0.0
		}
	}
}
