{
	 "smiles": "OC(=O)C1=CC=CN=C1OC1=CC=C2OCOC2=C1", 
	 "Tm": 455.15, 
	 "num_atms": 28, 
	 "gaussian": { 
		 "optdone": 1, 
		 "sigma_profile": "yes", 
		 "theory": "DFT", 
		 "functional": "B3LYP", 
		 "basiset": "6-31G**", 
		 "properties": { 
			 "R2extent": 6403.5025, 
			 "electric_dipole_moment_norm": 4.79639597406, 
			 "electric_quadrupole_moment_norm": 24.556785684, 
			 "total_energy": -931.638585617, 
			 "HOMO_LUMO_gap": 0.15034, 
			 "cosmo_polarized_energy": -21.24, 
			 "cosmo_cavitation_energy": 34.13, 
			 "cosmo_dispersion_energy": -24.8, 
			 "cosmo_repulsion_energy": 1.92, 
			 "cosmo_total_nonelectrostatic_energy": 11.25, 
			 "SMD_solvation_energy": 6.99 
		},
		"coords": [
			{
				"x": 3.3387959947,
				"y": -2.3604965087,
				"z": -1.4490365756,
				"element": "O" 
			},
			{
				"x": 2.7818877307,
				"y": -1.117154138,
				"z": -1.3594933456,
				"element": "C" 
			},
			{
				"x": 3.4800774629,
				"y": -0.1485741749,
				"z": -1.2052890635,
				"element": "O" 
			},
			{
				"x": 1.2911563036,
				"y": -1.0802415057,
				"z": -1.5269784836,
				"element": "C" 
			},
			{
				"x": 0.6595928555,
				"y": -1.8455874782,
				"z": -2.5088717914,
				"element": "C" 
			},
			{
				"x": -0.7157616536,
				"y": -1.7273992363,
				"z": -2.7170342255,
				"element": "C" 
			},
			{
				"x": -1.4136363569,
				"y": -0.831605382,
				"z": -1.9139002328,
				"element": "C" 
			},
			{
				"x": -0.8403220416,
				"y": -0.094459651,
				"z": -0.9531369218,
				"element": "N" 
			},
			{
				"x": 0.4669687044,
				"y": -0.2118834058,
				"z": -0.767021436,
				"element": "C" 
			},
			{
				"x": 1.0689766171,
				"y": 0.4954340768,
				"z": 0.2157399525,
				"element": "O" 
			},
			{
				"x": 0.3306131933,
				"y": 1.3929494196,
				"z": 0.993957391,
				"element": "C" 
			},
			{
				"x": 0.5543099278,
				"y": 2.7495459569,
				"z": 0.7965177573,
				"element": "C" 
			},
			{
				"x": -0.0795885786,
				"y": 3.7017889032,
				"z": 1.6167477651,
				"element": "C" 
			},
			{
				"x": -0.9165456152,
				"y": 3.2218581999,
				"z": 2.6034332097,
				"element": "C" 
			},
			{
				"x": -1.6435561974,
				"y": 3.9326361754,
				"z": 3.5291549176,
				"element": "O" 
			},
			{
				"x": -2.3465394029,
				"y": 2.9626873782,
				"z": 4.3130982977,
				"element": "C" 
			},
			{
				"x": -1.9899209009,
				"y": 1.6574250575,
				"z": 3.838402652,
				"element": "O" 
			},
			{
				"x": -1.1260931222,
				"y": 1.8564323405,
				"z": 2.790570001,
				"element": "C" 
			},
			{
				"x": -0.5130441102,
				"y": 0.9026420062,
				"z": 2.0048143445,
				"element": "C" 
			},
			{
				"x": 2.6450487825,
				"y": -3.0337586519,
				"z": -1.4085333047,
				"element": "H" 
			},
			{
				"x": 1.2518561778,
				"y": -2.5087680649,
				"z": -3.1342555633,
				"element": "H" 
			},
			{
				"x": -1.2235430713,
				"y": -2.3018286216,
				"z": -3.4835572935,
				"element": "H" 
			},
			{
				"x": -2.4852955849,
				"y": -0.6908532681,
				"z": -2.0405501457,
				"element": "H" 
			},
			{
				"x": 1.2326583249,
				"y": 3.0592573687,
				"z": 0.0099506966,
				"element": "H" 
			},
			{
				"x": 0.0843170872,
				"y": 4.7645642917,
				"z": 1.4821276701,
				"element": "H" 
			},
			{
				"x": -2.0539357351,
				"y": 3.059881462,
				"z": 5.3657688625,
				"element": "H" 
			},
			{
				"x": -3.4277982363,
				"y": 3.1101095613,
				"z": 4.1966404383,
				"element": "H" 
			},
			{
				"x": -0.6720785553,
				"y": -0.1582021106,
				"z": 2.1496344272,
				"element": "H" 
			}
		],
		 "valence_orbital": [ 
			{
				"type": "occ",
				"energy": -0.28567,
				"method": "rhf"
			},
			{
				"type": "occ",
				"energy": -0.26959,
				"method": "rhf"
			},
			{
				"type": "occ",
				"energy": -0.25481,
				"method": "rhf"
			},
			{
				"type": "occ",
				"energy": -0.24347,
				"method": "rhf"
			},
			{
				"type": "occ",
				"energy": -0.20613,
				"method": "rhf"
			},
			{
				"type": "unocc",
				"energy": -0.05579,
				"method": "rhf"
			},
			{
				"type": "unocc",
				"energy": -0.02578,
				"method": "rhf"
			},
			{
				"type": "unocc",
				"energy": -0.00227,
				"method": "rhf"
			},
			{
				"type": "unocc",
				"energy": 0.01298,
				"method": "rhf"
			},
			{
				"type": "unocc",
				"energy": 0.02974,
				"method": "rhf"
			}
		],
		"cosmo_sigma_profile": { 
			"-0.025": 0.0,
			"-0.024": 0.0,
			"-0.023": 0.0,
			"-0.022": 0.0,
			"-0.021": 0.0,
			"-0.02": 0.0,
			"-0.019": 0.327389236496,
			"-0.018": 0.970766195477,
			"-0.017": 0.896952937801,
			"-0.016": 1.12606444997,
			"-0.015": 0.71468031451,
			"-0.014": 0.792054451719,
			"-0.013": 1.16325889915,
			"-0.012": 1.45417093162,
			"-0.011": 1.18072722238,
			"-0.01": 0.909516336316,
			"-0.009": 2.27982811465,
			"-0.008": 8.30107317475,
			"-0.007": 20.1430382088,
			"-0.006": 18.0414789192,
			"-0.005": 16.4792310035,
			"-0.004": 11.8962505109,
			"-0.003": 13.4949448399,
			"-0.002": 12.9277775303,
			"-0.001": 17.1198989291,
			"0.0": 16.8941409394,
			"0.001": 18.0307673737,
			"0.002": 20.7085029142,
			"0.003": 16.5747355956,
			"0.004": 11.0737322702,
			"0.005": 7.17966358749,
			"0.006": 7.74239174166,
			"0.007": 7.86161735745,
			"0.008": 6.06581687721,
			"0.009": 9.20333013878,
			"0.01": 7.01169530605,
			"0.011": 7.25902320345,
			"0.012": 6.83433618567,
			"0.013": 1.97339924212,
			"0.014": 0.166902783334,
			"0.015": 0.0,
			"0.016": 0.0,
			"0.017": 0.0,
			"0.018": 0.0,
			"0.019": 0.0,
			"0.02": 0.0,
			"0.021": 0.0,
			"0.022": 0.0,
			"0.023": 0.0,
			"0.024": 0.0,
			"0.025": 0.0
		}
	}
}
