{
	 "smiles": "ClC1=CC=C(OCOC2=CC=C(Cl)C=C2)C=C1", 
	 "Tm": 343.65, 
	 "num_atms": 27, 
	 "gaussian": { 
		 "optdone": 1, 
		 "sigma_profile": "yes", 
		 "theory": "DFT", 
		 "functional": "B3LYP", 
		 "basiset": "6-31G**", 
		 "properties": { 
			 "R2extent": 8803.3782, 
			 "electric_dipole_moment_norm": 2.40344666261, 
			 "electric_quadrupole_moment_norm": 16.9740343337, 
			 "total_energy": -1572.22735878, 
			 "HOMO_LUMO_gap": 0.2114, 
			 "cosmo_polarized_energy": -8.26, 
			 "cosmo_cavitation_energy": 35.51, 
			 "cosmo_dispersion_energy": -26.01, 
			 "cosmo_repulsion_energy": 2.02, 
			 "cosmo_total_nonelectrostatic_energy": 11.52, 
			 "SMD_solvation_energy": 5.95 
		},
		"coords": [
			{
				"x": -3.9017541966,
				"y": -5.2134654007,
				"z": -1.3511356369,
				"element": "Cl" 
			},
			{
				"x": -2.5297369461,
				"y": -4.2491573341,
				"z": -0.8205594138,
				"element": "C" 
			},
			{
				"x": -2.1504098565,
				"y": -3.1281150797,
				"z": -1.5534440167,
				"element": "C" 
			},
			{
				"x": -1.0639165448,
				"y": -2.3564387109,
				"z": -1.1340546792,
				"element": "C" 
			},
			{
				"x": -0.3574902067,
				"y": -2.7272528941,
				"z": 0.0143983481,
				"element": "C" 
			},
			{
				"x": 0.733071847,
				"y": -2.0443767447,
				"z": 0.5089653868,
				"element": "O" 
			},
			{
				"x": 1.4265537919,
				"y": -1.1602348262,
				"z": -0.3409436814,
				"element": "C" 
			},
			{
				"x": 0.7612782556,
				"y": 0.0575629245,
				"z": -0.5846521231,
				"element": "O" 
			},
			{
				"x": 0.7361296083,
				"y": 1.013893033,
				"z": 0.4078731747,
				"element": "C" 
			},
			{
				"x": 0.425542528,
				"y": 2.3119047592,
				"z": -0.0121688519,
				"element": "C" 
			},
			{
				"x": 0.374853412,
				"y": 3.3528008314,
				"z": 0.9092982629,
				"element": "C" 
			},
			{
				"x": 0.6424267987,
				"y": 3.0908555265,
				"z": 2.2543197642,
				"element": "C" 
			},
			{
				"x": 0.5865776579,
				"y": 4.4049091687,
				"z": 3.4222074917,
				"element": "Cl" 
			},
			{
				"x": 0.9464126536,
				"y": 1.8013201694,
				"z": 2.681439033,
				"element": "C" 
			},
			{
				"x": 0.9879647246,
				"y": 0.7533405901,
				"z": 1.7584895474,
				"element": "C" 
			},
			{
				"x": -0.7490721114,
				"y": -3.8521314668,
				"z": 0.7486148617,
				"element": "C" 
			},
			{
				"x": -1.8371470688,
				"y": -4.6140646551,
				"z": 0.3354830319,
				"element": "C" 
			},
			{
				"x": -2.7046756795,
				"y": -2.8469721544,
				"z": -2.4420538373,
				"element": "H" 
			},
			{
				"x": -0.7986582982,
				"y": -1.4614312849,
				"z": -1.6832430438,
				"element": "H" 
			},
			{
				"x": 2.386161137,
				"y": -0.9817259464,
				"z": 0.1539968386,
				"element": "H" 
			},
			{
				"x": 1.5708566018,
				"y": -1.6097937457,
				"z": -1.3282429584,
				"element": "H" 
			},
			{
				"x": 0.231780334,
				"y": 2.4898403476,
				"z": -1.0646189603,
				"element": "H" 
			},
			{
				"x": 0.1369071104,
				"y": 4.3605262772,
				"z": 0.5874816278,
				"element": "H" 
			},
			{
				"x": 1.1389449832,
				"y": 1.6079097947,
				"z": 3.730914913,
				"element": "H" 
			},
			{
				"x": 1.183066697,
				"y": -0.2552872563,
				"z": 2.1014105257,
				"element": "H" 
			},
			{
				"x": -0.1873700516,
				"y": -4.1193482128,
				"z": 1.6374007259,
				"element": "H" 
			},
			{
				"x": -2.1422971805,
				"y": -5.4878677097,
				"z": 0.9003236694,
				"element": "H" 
			}
		],
		 "valence_orbital": [ 
			{
				"type": "occ",
				"energy": -0.31227,
				"method": "rhf"
			},
			{
				"type": "occ",
				"energy": -0.26897,
				"method": "rhf"
			},
			{
				"type": "occ",
				"energy": -0.26851,
				"method": "rhf"
			},
			{
				"type": "occ",
				"energy": -0.23368,
				"method": "rhf"
			},
			{
				"type": "occ",
				"energy": -0.23146,
				"method": "rhf"
			},
			{
				"type": "unocc",
				"energy": -0.02006,
				"method": "rhf"
			},
			{
				"type": "unocc",
				"energy": -0.01892,
				"method": "rhf"
			},
			{
				"type": "unocc",
				"energy": -0.00849,
				"method": "rhf"
			},
			{
				"type": "unocc",
				"energy": -0.00691,
				"method": "rhf"
			},
			{
				"type": "unocc",
				"energy": 0.02894,
				"method": "rhf"
			}
		],
		"cosmo_sigma_profile": { 
			"-0.025": 0.0,
			"-0.024": 0.0,
			"-0.023": 0.0,
			"-0.022": 0.0,
			"-0.021": 0.0,
			"-0.02": 0.0,
			"-0.019": 0.0,
			"-0.018": 0.0,
			"-0.017": 0.0,
			"-0.016": 0.0,
			"-0.015": 0.0,
			"-0.014": 0.0,
			"-0.013": 0.0,
			"-0.012": 0.0,
			"-0.011": 0.0,
			"-0.01": 0.0,
			"-0.009": 0.0,
			"-0.008": 3.73987852197,
			"-0.007": 15.0640192282,
			"-0.006": 19.3021511233,
			"-0.005": 19.4131678301,
			"-0.004": 12.325581323,
			"-0.003": 13.7983852518,
			"-0.002": 13.7877842796,
			"-0.001": 15.7323879346,
			"0.0": 17.2738097032,
			"0.001": 23.7326704717,
			"0.002": 37.6265642864,
			"0.003": 43.8922533422,
			"0.004": 30.2356601319,
			"0.005": 18.7630275204,
			"0.006": 2.97448350856,
			"0.007": 1.3383496404,
			"0.008": 0.886860611641,
			"0.009": 0.0516405599992,
			"0.01": 0.0,
			"0.011": 0.0,
			"0.012": 0.0,
			"0.013": 0.0,
			"0.014": 0.0,
			"0.015": 0.0,
			"0.016": 0.0,
			"0.017": 0.0,
			"0.018": 0.0,
			"0.019": 0.0,
			"0.02": 0.0,
			"0.021": 0.0,
			"0.022": 0.0,
			"0.023": 0.0,
			"0.024": 0.0,
			"0.025": 0.0
		}
	}
}
