{
	 "smiles": "CC1=NC(Cl)=C(CCl)C(Cl)=C1", 
	 "Tm": 319.15, 
	 "num_atms": 17, 
	 "gaussian": { 
		 "optdone": 1, 
		 "sigma_profile": "yes", 
		 "theory": "DFT", 
		 "functional": "B3LYP", 
		 "basiset": "6-31G**", 
		 "properties": { 
			 "R2extent": 3976.93, 
			 "electric_dipole_moment_norm": 3.30598372349, 
			 "electric_quadrupole_moment_norm": 10.9336244969, 
			 "total_energy": -1705.69729547, 
			 "HOMO_LUMO_gap": 0.20997, 
			 "cosmo_polarized_energy": -7.74, 
			 "cosmo_cavitation_energy": 26.31, 
			 "cosmo_dispersion_energy": -19.45, 
			 "cosmo_repulsion_energy": 1.58, 
			 "cosmo_total_nonelectrostatic_energy": 8.44, 
			 "SMD_solvation_energy": 2.41 
		},
		"coords": [
			{
				"x": 1.3609802963,
				"y": 1.7414774945,
				"z": -1.8976347694,
				"element": "C" 
			},
			{
				"x": 1.3762130276,
				"y": 0.7976958402,
				"z": -0.7254175911,
				"element": "C" 
			},
			{
				"x": 0.2705209308,
				"y": 0.0543818134,
				"z": -0.5390523164,
				"element": "N" 
			},
			{
				"x": 0.2351456597,
				"y": -0.7820333986,
				"z": 0.4753141929,
				"element": "C" 
			},
			{
				"x": -1.2611927519,
				"y": -1.7030697108,
				"z": 0.6330110216,
				"element": "Cl" 
			},
			{
				"x": 1.2694600999,
				"y": -0.9919131654,
				"z": 1.4123051506,
				"element": "C" 
			},
			{
				"x": 1.1652759245,
				"y": -1.9679134032,
				"z": 2.5408072922,
				"element": "C" 
			},
			{
				"x": 0.4967843006,
				"y": -1.1929554889,
				"z": 4.057679635,
				"element": "Cl" 
			},
			{
				"x": 2.4072574192,
				"y": -0.2017238696,
				"z": 1.1929829199,
				"element": "C" 
			},
			{
				"x": 3.7901137211,
				"y": -0.3188924482,
				"z": 2.2594002241,
				"element": "Cl" 
			},
			{
				"x": 2.474900488,
				"y": 0.6942451603,
				"z": 0.1283832879,
				"element": "C" 
			},
			{
				"x": 0.5354569113,
				"y": 2.4531472629,
				"z": -1.7961257219,
				"element": "H" 
			},
			{
				"x": 2.2973581801,
				"y": 2.2974149216,
				"z": -1.9825158634,
				"element": "H" 
			},
			{
				"x": 1.1929961799,
				"y": 1.1862411396,
				"z": -2.8258224231,
				"element": "H" 
			},
			{
				"x": 2.1411207494,
				"y": -2.3626548253,
				"z": 2.8157676137,
				"element": "H" 
			},
			{
				"x": 0.4863636502,
				"y": -2.7819549551,
				"z": 2.2993780744,
				"element": "H" 
			},
			{
				"x": 3.3629452132,
				"y": 1.2951076324,
				"z": -0.025860727,
				"element": "H" 
			}
		],
		 "valence_orbital": [ 
			{
				"type": "occ",
				"energy": -0.30593,
				"method": "rhf"
			},
			{
				"type": "occ",
				"energy": -0.29939,
				"method": "rhf"
			},
			{
				"type": "occ",
				"energy": -0.28838,
				"method": "rhf"
			},
			{
				"type": "occ",
				"energy": -0.28468,
				"method": "rhf"
			},
			{
				"type": "occ",
				"energy": -0.26891,
				"method": "rhf"
			},
			{
				"type": "unocc",
				"energy": -0.05894,
				"method": "rhf"
			},
			{
				"type": "unocc",
				"energy": -0.04443,
				"method": "rhf"
			},
			{
				"type": "unocc",
				"energy": -0.00264,
				"method": "rhf"
			},
			{
				"type": "unocc",
				"energy": 0.02795,
				"method": "rhf"
			},
			{
				"type": "unocc",
				"energy": 0.04068,
				"method": "rhf"
			}
		],
		"cosmo_sigma_profile": { 
			"-0.025": 0.0,
			"-0.024": 0.0,
			"-0.023": 0.0,
			"-0.022": 0.0,
			"-0.021": 0.0,
			"-0.02": 0.0,
			"-0.019": 0.0,
			"-0.018": 0.0,
			"-0.017": 0.0,
			"-0.016": 0.0,
			"-0.015": 0.0,
			"-0.014": 0.0,
			"-0.013": 0.0,
			"-0.012": 0.0,
			"-0.011": 0.0,
			"-0.01": 0.0,
			"-0.009": 0.568165151086,
			"-0.008": 4.29501138538,
			"-0.007": 6.13652895557,
			"-0.006": 8.93010846442,
			"-0.005": 12.0075813722,
			"-0.004": 10.9043590607,
			"-0.003": 14.4782396147,
			"-0.002": 22.7695760613,
			"-0.001": 25.0682362454,
			"0.0": 20.2730471522,
			"0.001": 14.6345202127,
			"0.002": 14.3326386717,
			"0.003": 18.8481082116,
			"0.004": 14.4259072035,
			"0.005": 10.3779767257,
			"0.006": 10.8497608782,
			"0.007": 2.13390461251,
			"0.008": 1.778065631,
			"0.009": 0.815654579976,
			"0.01": 0.962620222094,
			"0.011": 0.971908999701,
			"0.012": 0.822234487551,
			"0.013": 0.705081246279,
			"0.014": 0.186751191439,
			"0.015": 0.0,
			"0.016": 0.0,
			"0.017": 0.0,
			"0.018": 0.0,
			"0.019": 0.0,
			"0.02": 0.0,
			"0.021": 0.0,
			"0.022": 0.0,
			"0.023": 0.0,
			"0.024": 0.0,
			"0.025": 0.0
		}
	}
}
