{
	 "smiles": "O=C1C=C(OC2=C1C1=C(C=CC=C1)C=C2)C1=CC=CC=C1", 
	 "Tm": 437.15, 
	 "num_atms": 33, 
	 "gaussian": { 
		 "optdone": 1, 
		 "sigma_profile": "yes", 
		 "theory": "DFT", 
		 "functional": "B3LYP", 
		 "basiset": "6-31G**", 
		 "properties": { 
			 "R2extent": 8003.4671, 
			 "electric_dipole_moment_norm": 3.88221605916, 
			 "electric_quadrupole_moment_norm": 21.9648398146, 
			 "total_energy": -881.715600327, 
			 "HOMO_LUMO_gap": 0.15686, 
			 "cosmo_polarized_energy": -11.85, 
			 "cosmo_cavitation_energy": 37.03, 
			 "cosmo_dispersion_energy": -27.47, 
			 "cosmo_repulsion_energy": 2.0, 
			 "cosmo_total_nonelectrostatic_energy": 11.56, 
			 "SMD_solvation_energy": 6.57 
		},
		"coords": [
			{
				"x": 0.2208753111,
				"y": 0.3309675337,
				"z": -3.7562384556,
				"element": "O" 
			},
			{
				"x": 0.2166047448,
				"y": 0.4881705225,
				"z": -2.5309548774,
				"element": "C" 
			},
			{
				"x": -0.4801506783,
				"y": 1.6202962637,
				"z": -1.9300332815,
				"element": "C" 
			},
			{
				"x": -0.5303898696,
				"y": 1.8323780318,
				"z": -0.5931686209,
				"element": "C" 
			},
			{
				"x": 0.1026309396,
				"y": 0.9872012462,
				"z": 0.2662780015,
				"element": "O" 
			},
			{
				"x": 0.7978454061,
				"y": -0.0931684654,
				"z": -0.2063743282,
				"element": "C" 
			},
			{
				"x": 0.8956395661,
				"y": -0.4071294825,
				"z": -1.5598320066,
				"element": "C" 
			},
			{
				"x": 1.6559549104,
				"y": -1.5796229469,
				"z": -1.9299024297,
				"element": "C" 
			},
			{
				"x": 2.2710157807,
				"y": -2.3644223977,
				"z": -0.898783028,
				"element": "C" 
			},
			{
				"x": 3.0200560264,
				"y": -3.5174687034,
				"z": -1.2428560092,
				"element": "C" 
			},
			{
				"x": 3.1664753587,
				"y": -3.896842721,
				"z": -2.5590820189,
				"element": "C" 
			},
			{
				"x": 2.5631153513,
				"y": -3.1277378203,
				"z": -3.5763880049,
				"element": "C" 
			},
			{
				"x": 1.8262289705,
				"y": -1.9985141501,
				"z": -3.2771178119,
				"element": "C" 
			},
			{
				"x": 2.1230451182,
				"y": -1.977509722,
				"z": 0.4643207884,
				"element": "C" 
			},
			{
				"x": 1.4035407418,
				"y": -0.8680358289,
				"z": 0.8118132087,
				"element": "C" 
			},
			{
				"x": -1.2121067231,
				"y": 2.940467674,
				"z": 0.1009891869,
				"element": "C" 
			},
			{
				"x": -2.2076901169,
				"y": 3.6904559278,
				"z": -0.5486783255,
				"element": "C" 
			},
			{
				"x": -2.835742209,
				"y": 4.7470770039,
				"z": 0.1046573402,
				"element": "C" 
			},
			{
				"x": -2.4869445002,
				"y": 5.0700184941,
				"z": 1.4184431199,
				"element": "C" 
			},
			{
				"x": -1.5066585569,
				"y": 4.3246151493,
				"z": 2.0754070044,
				"element": "C" 
			},
			{
				"x": -0.8743527269,
				"y": 3.2666305258,
				"z": 1.4254028869,
				"element": "C" 
			},
			{
				"x": -0.955339372,
				"y": 2.3091484338,
				"z": -2.6163785908,
				"element": "H" 
			},
			{
				"x": 3.477447444,
				"y": -4.0973694959,
				"z": -0.4452493732,
				"element": "H" 
			},
			{
				"x": 3.7421381459,
				"y": -4.7819069732,
				"z": -2.8138338561,
				"element": "H" 
			},
			{
				"x": 2.6786767066,
				"y": -3.4271737583,
				"z": -4.6142942126,
				"element": "H" 
			},
			{
				"x": 1.3643596993,
				"y": -1.4100824022,
				"z": -4.0573086893,
				"element": "H" 
			},
			{
				"x": 2.5944735179,
				"y": -2.5833814982,
				"z": 1.2334479908,
				"element": "H" 
			},
			{
				"x": 1.2775993935,
				"y": -0.5581789039,
				"z": 1.8434166539,
				"element": "H" 
			},
			{
				"x": -2.5060690264,
				"y": 3.4345767348,
				"z": -1.5598378307,
				"element": "H" 
			},
			{
				"x": -3.6058054758,
				"y": 5.3138771854,
				"z": -0.4100741805,
				"element": "H" 
			},
			{
				"x": -2.9798197695,
				"y": 5.8933510757,
				"z": 1.9269421964,
				"element": "H" 
			},
			{
				"x": -1.2307242428,
				"y": 4.5678000271,
				"z": 3.0972682168,
				"element": "H" 
			},
			{
				"x": -0.1112298659,
				"y": 2.6920134401,
				"z": 1.9371993366,
				"element": "H" 
			}
		],
		 "valence_orbital": [ 
			{
				"type": "occ",
				"energy": -0.26442,
				"method": "rhf"
			},
			{
				"type": "occ",
				"energy": -0.2464,
				"method": "rhf"
			},
			{
				"type": "occ",
				"energy": -0.23347,
				"method": "rhf"
			},
			{
				"type": "occ",
				"energy": -0.23187,
				"method": "rhf"
			},
			{
				"type": "occ",
				"energy": -0.22185,
				"method": "rhf"
			},
			{
				"type": "unocc",
				"energy": -0.06499,
				"method": "rhf"
			},
			{
				"type": "unocc",
				"energy": -0.04928,
				"method": "rhf"
			},
			{
				"type": "unocc",
				"energy": -0.01425,
				"method": "rhf"
			},
			{
				"type": "unocc",
				"energy": -0.01002,
				"method": "rhf"
			},
			{
				"type": "unocc",
				"energy": 0.00605,
				"method": "rhf"
			}
		],
		"cosmo_sigma_profile": { 
			"-0.025": 0.0,
			"-0.024": 0.0,
			"-0.023": 0.0,
			"-0.022": 0.0,
			"-0.021": 0.0,
			"-0.02": 0.0,
			"-0.019": 0.0,
			"-0.018": 0.0,
			"-0.017": 0.0,
			"-0.016": 0.0,
			"-0.015": 0.0,
			"-0.014": 0.0,
			"-0.013": 0.0,
			"-0.012": 0.0,
			"-0.011": 0.0,
			"-0.01": 0.0,
			"-0.009": 0.421075730035,
			"-0.008": 2.68405163966,
			"-0.007": 9.17823741341,
			"-0.006": 18.9872093773,
			"-0.005": 22.2032942262,
			"-0.004": 20.4903419145,
			"-0.003": 19.8450360493,
			"-0.002": 18.7899503497,
			"-0.001": 21.2475740076,
			"0.0": 26.2711096962,
			"0.001": 28.5693624239,
			"0.002": 28.686434087,
			"0.003": 27.7462649228,
			"0.004": 25.8349615728,
			"0.005": 10.5215520757,
			"0.006": 1.63777479813,
			"0.007": 1.84346300186,
			"0.008": 1.722751721,
			"0.009": 1.39472931534,
			"0.01": 1.26461234953,
			"0.011": 2.53020564948,
			"0.012": 2.03871223866,
			"0.013": 2.64315704332,
			"0.014": 2.35122394023,
			"0.015": 0.588024842356,
			"0.016": 0.0,
			"0.017": 0.0,
			"0.018": 0.0,
			"0.019": 0.0,
			"0.02": 0.0,
			"0.021": 0.0,
			"0.022": 0.0,
			"0.023": 0.0,
			"0.024": 0.0,
			"0.025": 0.0
		}
	}
}
