{
	 "smiles": "ClCCC(=O)NC1=CC=C(Cl)C=C1", 
	 "Tm": 398.15, 
	 "num_atms": 22, 
	 "gaussian": { 
		 "optdone": 1, 
		 "sigma_profile": "yes", 
		 "theory": "DFT", 
		 "functional": "B3LYP", 
		 "basiset": "6-31G**", 
		 "properties": { 
			 "R2extent": 5408.9297, 
			 "electric_dipole_moment_norm": 2.53001524501, 
			 "electric_quadrupole_moment_norm": 12.8157599022, 
			 "total_energy": -1398.76276891, 
			 "HOMO_LUMO_gap": 0.20407, 
			 "cosmo_polarized_energy": -12.91, 
			 "cosmo_cavitation_energy": 30.0, 
			 "cosmo_dispersion_energy": -21.99, 
			 "cosmo_repulsion_energy": 1.78, 
			 "cosmo_total_nonelectrostatic_energy": 9.79, 
			 "SMD_solvation_energy": 4.96 
		},
		"coords": [
			{
				"x": -3.0076859904,
				"y": 3.1973975065,
				"z": -0.3960997897,
				"element": "Cl" 
			},
			{
				"x": -1.6218221218,
				"y": 2.6323952767,
				"z": 0.6318799611,
				"element": "C" 
			},
			{
				"x": -0.9808715931,
				"y": 1.3886953922,
				"z": 0.0261835711,
				"element": "C" 
			},
			{
				"x": 0.2252070792,
				"y": 0.9717174116,
				"z": 0.8600497022,
				"element": "C" 
			},
			{
				"x": 0.7869728116,
				"y": 1.7550679045,
				"z": 1.6145435075,
				"element": "O" 
			},
			{
				"x": 0.6781905589,
				"y": -0.3313017975,
				"z": 0.7699367556,
				"element": "N" 
			},
			{
				"x": 0.1934292525,
				"y": -1.449303769,
				"z": 0.0516295337,
				"element": "C" 
			},
			{
				"x": 0.1580213364,
				"y": -2.6943683366,
				"z": 0.6980736085,
				"element": "C" 
			},
			{
				"x": -0.2705325711,
				"y": -3.8356284057,
				"z": 0.0264766647,
				"element": "C" 
			},
			{
				"x": -0.6851016265,
				"y": -3.73269113,
				"z": -1.3015908604,
				"element": "C" 
			},
			{
				"x": -1.2424234443,
				"y": -5.1643779697,
				"z": -2.150688935,
				"element": "Cl" 
			},
			{
				"x": -0.6526220785,
				"y": -2.5065217874,
				"z": -1.9629108184,
				"element": "C" 
			},
			{
				"x": -0.1980243531,
				"y": -1.3719605376,
				"z": -1.2919811355,
				"element": "C" 
			},
			{
				"x": -0.9098758308,
				"y": 3.4523440486,
				"z": 0.6979293645,
				"element": "H" 
			},
			{
				"x": -2.0269372393,
				"y": 2.4368587919,
				"z": 1.6246465379,
				"element": "H" 
			},
			{
				"x": -0.6507538647,
				"y": 1.6162819623,
				"z": -0.9940569644,
				"element": "H" 
			},
			{
				"x": -1.7071411355,
				"y": 0.5746240134,
				"z": -0.0525423228,
				"element": "H" 
			},
			{
				"x": 1.4093868951,
				"y": -0.5106163476,
				"z": 1.4483346621,
				"element": "H" 
			},
			{
				"x": 0.4606155374,
				"y": -2.765406995,
				"z": 1.7390063908,
				"element": "H" 
			},
			{
				"x": -0.2949377305,
				"y": -4.794396395,
				"z": 0.5322014866,
				"element": "H" 
			},
			{
				"x": -0.9587733639,
				"y": -2.4403032981,
				"z": -3.0009215084,
				"element": "H" 
			},
			{
				"x": -0.1281205278,
				"y": -0.4336055386,
				"z": -1.8287994118,
				"element": "H" 
			}
		],
		 "valence_orbital": [ 
			{
				"type": "occ",
				"energy": -0.30117,
				"method": "rhf"
			},
			{
				"type": "occ",
				"energy": -0.29625,
				"method": "rhf"
			},
			{
				"type": "occ",
				"energy": -0.28106,
				"method": "rhf"
			},
			{
				"type": "occ",
				"energy": -0.27028,
				"method": "rhf"
			},
			{
				"type": "occ",
				"energy": -0.2392,
				"method": "rhf"
			},
			{
				"type": "unocc",
				"energy": -0.03513,
				"method": "rhf"
			},
			{
				"type": "unocc",
				"energy": -0.03151,
				"method": "rhf"
			},
			{
				"type": "unocc",
				"energy": 0.01005,
				"method": "rhf"
			},
			{
				"type": "unocc",
				"energy": 0.01873,
				"method": "rhf"
			},
			{
				"type": "unocc",
				"energy": 0.03038,
				"method": "rhf"
			}
		],
		"cosmo_sigma_profile": { 
			"-0.025": 0.0,
			"-0.024": 0.0,
			"-0.023": 0.0,
			"-0.022": 0.0,
			"-0.021": 0.0,
			"-0.02": 0.0,
			"-0.019": 0.0,
			"-0.018": 0.0,
			"-0.017": 0.0,
			"-0.016": 0.0,
			"-0.015": 0.252325136038,
			"-0.014": 1.12845256768,
			"-0.013": 0.884012713145,
			"-0.012": 1.34081065439,
			"-0.011": 1.1860068271,
			"-0.01": 1.28915829716,
			"-0.009": 3.51223308555,
			"-0.008": 5.18122181284,
			"-0.007": 12.2460233759,
			"-0.006": 16.531884178,
			"-0.005": 13.7605690453,
			"-0.004": 12.5340431475,
			"-0.003": 12.4170132557,
			"-0.002": 12.1122544634,
			"-0.001": 13.4016888558,
			"0.0": 13.0988428988,
			"0.001": 18.6562954801,
			"0.002": 21.6378220271,
			"0.003": 22.6649793465,
			"0.004": 16.2595324194,
			"0.005": 13.9270035866,
			"0.006": 10.8586557777,
			"0.007": 4.6758133075,
			"0.008": 1.36515669183,
			"0.009": 0.762914821883,
			"0.01": 1.76992021055,
			"0.011": 1.89758597077,
			"0.012": 3.19685738573,
			"0.013": 4.49266569105,
			"0.014": 0.421351956066,
			"0.015": 0.0,
			"0.016": 0.0,
			"0.017": 0.0,
			"0.018": 0.0,
			"0.019": 0.0,
			"0.02": 0.0,
			"0.021": 0.0,
			"0.022": 0.0,
			"0.023": 0.0,
			"0.024": 0.0,
			"0.025": 0.0
		}
	}
}
