{
	 "smiles": "OC(=O)COC1=CC=C(Br)C=C1", 
	 "Tm": 431.15, 
	 "num_atms": 19, 
	 "gaussian": { 
		 "optdone": 1, 
		 "sigma_profile": "yes", 
		 "theory": "DFT", 
		 "functional": "B3LYP", 
		 "basiset": "6-31G**", 
		 "properties": { 
			 "R2extent": 6353.0222, 
			 "electric_dipole_moment_norm": 1.8198625058, 
			 "electric_quadrupole_moment_norm": 9.38979313031, 
			 "total_energy": -3106.14099501, 
			 "HOMO_LUMO_gap": 0.20361, 
			 "cosmo_polarized_energy": -12.01, 
			 "cosmo_cavitation_energy": 26.33, 
			 "cosmo_dispersion_energy": -19.59, 
			 "cosmo_repulsion_energy": 1.59, 
			 "cosmo_total_nonelectrostatic_energy": 8.34, 
			 "SMD_solvation_energy": 4.89 
		},
		"coords": [
			{
				"x": -0.8563722414,
				"y": -2.663685576,
				"z": 1.7187372059,
				"element": "O" 
			},
			{
				"x": -1.9145266591,
				"y": -1.8425715822,
				"z": 1.8389957628,
				"element": "C" 
			},
			{
				"x": -2.8246685806,
				"y": -1.7859526043,
				"z": 1.0428759673,
				"element": "O" 
			},
			{
				"x": -1.8832729415,
				"y": -1.0183546149,
				"z": 3.1241218971,
				"element": "C" 
			},
			{
				"x": -0.6056198162,
				"y": -0.820736584,
				"z": 3.6879198551,
				"element": "O" 
			},
			{
				"x": 0.2554052407,
				"y": 0.0498922675,
				"z": 3.0712417755,
				"element": "C" 
			},
			{
				"x": 1.4880563345,
				"y": 0.229278944,
				"z": 3.7131138683,
				"element": "C" 
			},
			{
				"x": 2.43599892,
				"y": 1.0958693534,
				"z": 3.1824630771,
				"element": "C" 
			},
			{
				"x": 2.1513664096,
				"y": 1.7885637711,
				"z": 2.0034745165,
				"element": "C" 
			},
			{
				"x": 3.4534595175,
				"y": 2.9820559548,
				"z": 1.2711037193,
				"element": "Br" 
			},
			{
				"x": 0.9324400605,
				"y": 1.6167576681,
				"z": 1.3575907932,
				"element": "C" 
			},
			{
				"x": -0.0225215771,
				"y": 0.7445850335,
				"z": 1.8893925081,
				"element": "C" 
			},
			{
				"x": -0.9794155683,
				"y": -3.1488981829,
				"z": 0.8849241459,
				"element": "H" 
			},
			{
				"x": -2.4557750642,
				"y": -1.5705273715,
				"z": 3.8766253878,
				"element": "H" 
			},
			{
				"x": -2.4082050369,
				"y": -0.076786799,
				"z": 2.9286171044,
				"element": "H" 
			},
			{
				"x": 1.6837636504,
				"y": -0.3200853156,
				"z": 4.6278097919,
				"element": "H" 
			},
			{
				"x": 3.3890574531,
				"y": 1.2342364496,
				"z": 3.6801100257,
				"element": "H" 
			},
			{
				"x": 0.7195429562,
				"y": 2.1554219357,
				"z": 0.4412644175,
				"element": "H" 
			},
			{
				"x": -0.9635130574,
				"y": 0.6220372528,
				"z": 1.3655181807,
				"element": "H" 
			}
		],
		 "valence_orbital": [ 
			{
				"type": "occ",
				"energy": -0.30132,
				"method": "rhf"
			},
			{
				"type": "occ",
				"energy": -0.28571,
				"method": "rhf"
			},
			{
				"type": "occ",
				"energy": -0.28493,
				"method": "rhf"
			},
			{
				"type": "occ",
				"energy": -0.26732,
				"method": "rhf"
			},
			{
				"type": "occ",
				"energy": -0.22557,
				"method": "rhf"
			},
			{
				"type": "unocc",
				"energy": -0.02196,
				"method": "rhf"
			},
			{
				"type": "unocc",
				"energy": -0.0063,
				"method": "rhf"
			},
			{
				"type": "unocc",
				"energy": -0.0046,
				"method": "rhf"
			},
			{
				"type": "unocc",
				"energy": 0.00882,
				"method": "rhf"
			},
			{
				"type": "unocc",
				"energy": 0.06252,
				"method": "rhf"
			}
		],
		"cosmo_sigma_profile": { 
			"-0.025": 0.0,
			"-0.024": 0.0,
			"-0.023": 0.0,
			"-0.022": 0.0,
			"-0.021": 0.0,
			"-0.02": 0.0,
			"-0.019": 0.395897464626,
			"-0.018": 1.23022781231,
			"-0.017": 0.730498769738,
			"-0.016": 0.771105760316,
			"-0.015": 0.930484220852,
			"-0.014": 0.808188151699,
			"-0.013": 0.506144627347,
			"-0.012": 0.982953507031,
			"-0.011": 0.907660571449,
			"-0.01": 0.998146919419,
			"-0.009": 3.66347164362,
			"-0.008": 5.63689889023,
			"-0.007": 10.7713779562,
			"-0.006": 11.3614841402,
			"-0.005": 11.4996343425,
			"-0.004": 10.1528266778,
			"-0.003": 11.4308997713,
			"-0.002": 8.71899587208,
			"-0.001": 8.97604377831,
			"0.0": 10.8120613347,
			"0.001": 12.7536416207,
			"0.002": 17.8080509846,
			"0.003": 23.8495958912,
			"0.004": 19.655359593,
			"0.005": 11.8628699092,
			"0.006": 2.99111391898,
			"0.007": 4.04713567494,
			"0.008": 4.66608861314,
			"0.009": 4.14924840106,
			"0.01": 2.98743394483,
			"0.011": 5.349165421,
			"0.012": 2.29199244506,
			"0.013": 0.0331277036982,
			"0.014": 0.0,
			"0.015": 0.0,
			"0.016": 0.0,
			"0.017": 0.0,
			"0.018": 0.0,
			"0.019": 0.0,
			"0.02": 0.0,
			"0.021": 0.0,
			"0.022": 0.0,
			"0.023": 0.0,
			"0.024": 0.0,
			"0.025": 0.0
		}
	}
}
