{
	 "smiles": "OC(=O)C1=CN=C(OCC2CC2)C=C1", 
	 "Tm": 430.15, 
	 "num_atms": 25, 
	 "gaussian": { 
		 "optdone": 1, 
		 "sigma_profile": "yes", 
		 "theory": "DFT", 
		 "functional": "B3LYP", 
		 "basiset": "6-31G**", 
		 "properties": { 
			 "R2extent": 4667.2988, 
			 "electric_dipole_moment_norm": 4.51883299758, 
			 "electric_quadrupole_moment_norm": 19.9833112454, 
			 "total_energy": -668.090204663, 
			 "HOMO_LUMO_gap": 0.20125, 
			 "cosmo_polarized_energy": -14.5, 
			 "cosmo_cavitation_energy": 29.52, 
			 "cosmo_dispersion_energy": -21.54, 
			 "cosmo_repulsion_energy": 1.7, 
			 "cosmo_total_nonelectrostatic_energy": 9.69, 
			 "SMD_solvation_energy": 5.17 
		},
		"coords": [
			{
				"x": 1.5840297127,
				"y": -4.9687747595,
				"z": 1.9850913719,
				"element": "O" 
			},
			{
				"x": 0.9623873349,
				"y": -3.8901851958,
				"z": 2.5346765357,
				"element": "C" 
			},
			{
				"x": 0.5585336359,
				"y": -3.9436167372,
				"z": 3.6732584555,
				"element": "O" 
			},
			{
				"x": 0.8170915405,
				"y": -2.6779283408,
				"z": 1.6764766786,
				"element": "C" 
			},
			{
				"x": 1.5631382961,
				"y": -2.4380340714,
				"z": 0.5229383493,
				"element": "C" 
			},
			{
				"x": 1.444036316,
				"y": -1.3409156562,
				"z": -0.2360437679,
				"element": "N" 
			},
			{
				"x": 0.55764832,
				"y": -0.4241944119,
				"z": 0.1466588221,
				"element": "C" 
			},
			{
				"x": 0.3921820628,
				"y": 0.6870875876,
				"z": -0.589217566,
				"element": "O" 
			},
			{
				"x": 1.1950673148,
				"y": 0.8427050181,
				"z": -1.7753472351,
				"element": "C" 
			},
			{
				"x": 0.8386512303,
				"y": 2.1577608761,
				"z": -2.4276519143,
				"element": "C" 
			},
			{
				"x": 0.4969817521,
				"y": 3.3807674906,
				"z": -1.6158239377,
				"element": "C" 
			},
			{
				"x": -0.5724928434,
				"y": 2.68731303,
				"z": -2.429943474,
				"element": "C" 
			},
			{
				"x": -0.2368505351,
				"y": -0.5411078122,
				"z": 1.3079348176,
				"element": "C" 
			},
			{
				"x": -0.092958271,
				"y": -1.6770022583,
				"z": 2.0751113617,
				"element": "C" 
			},
			{
				"x": 1.7001145767,
				"y": -4.84593221,
				"z": 1.0330407366,
				"element": "H" 
			},
			{
				"x": 2.3269464607,
				"y": -3.1409905223,
				"z": 0.1886272184,
				"element": "H" 
			},
			{
				"x": 1.0053378552,
				"y": -0.0013216475,
				"z": -2.4484408432,
				"element": "H" 
			},
			{
				"x": 2.2544113498,
				"y": 0.8087956396,
				"z": -1.4963387276,
				"element": "H" 
			},
			{
				"x": 1.4191713758,
				"y": 2.3253002549,
				"z": -3.3329262502,
				"element": "H" 
			},
			{
				"x": 0.4495345812,
				"y": 3.2700028716,
				"z": -0.5374287589,
				"element": "H" 
			},
			{
				"x": 0.8683816988,
				"y": 4.342438429,
				"z": -1.9565925713,
				"element": "H" 
			},
			{
				"x": -0.9366822971,
				"y": 3.1720684311,
				"z": -3.3306537064,
				"element": "H" 
			},
			{
				"x": -1.3216548888,
				"y": 2.1217022973,
				"z": -1.885596405,
				"element": "H" 
			},
			{
				"x": -0.9275362607,
				"y": 0.2530024883,
				"z": 1.5668438405,
				"element": "H" 
			},
			{
				"x": -0.6641703182,
				"y": -1.8260407911,
				"z": 2.9852469695,
				"element": "H" 
			}
		],
		 "valence_orbital": [ 
			{
				"type": "occ",
				"energy": -0.29994,
				"method": "rhf"
			},
			{
				"type": "occ",
				"energy": -0.28936,
				"method": "rhf"
			},
			{
				"type": "occ",
				"energy": -0.28625,
				"method": "rhf"
			},
			{
				"type": "occ",
				"energy": -0.27149,
				"method": "rhf"
			},
			{
				"type": "occ",
				"energy": -0.25112,
				"method": "rhf"
			},
			{
				"type": "unocc",
				"energy": -0.04987,
				"method": "rhf"
			},
			{
				"type": "unocc",
				"energy": -0.03999,
				"method": "rhf"
			},
			{
				"type": "unocc",
				"energy": 0.04693,
				"method": "rhf"
			},
			{
				"type": "unocc",
				"energy": 0.05993,
				"method": "rhf"
			},
			{
				"type": "unocc",
				"energy": 0.08921,
				"method": "rhf"
			}
		],
		"cosmo_sigma_profile": { 
			"-0.025": 0.0,
			"-0.024": 0.0,
			"-0.023": 0.0,
			"-0.022": 0.0,
			"-0.021": 0.0,
			"-0.02": 0.0095013437313,
			"-0.019": 0.549150392412,
			"-0.018": 0.94213265829,
			"-0.017": 0.910093755466,
			"-0.016": 1.53721613105,
			"-0.015": 1.17086339656,
			"-0.014": 0.5248981732,
			"-0.013": 0.611376222219,
			"-0.012": 1.63330994798,
			"-0.011": 1.21261884231,
			"-0.01": 1.18952394903,
			"-0.009": 0.937912117359,
			"-0.008": 2.72876646031,
			"-0.007": 5.33782154417,
			"-0.006": 5.43151992001,
			"-0.005": 11.3956608937,
			"-0.004": 17.963874242,
			"-0.003": 19.4305721039,
			"-0.002": 17.7161171357,
			"-0.001": 19.6508966442,
			"0.0": 21.9091615456,
			"0.001": 21.8087985242,
			"0.002": 17.1957908866,
			"0.003": 12.2674432465,
			"0.004": 9.89757795061,
			"0.005": 6.4028173565,
			"0.006": 5.45927660335,
			"0.007": 3.06957362166,
			"0.008": 3.36113217817,
			"0.009": 3.8599649239,
			"0.01": 5.9011792847,
			"0.011": 5.99590174393,
			"0.012": 5.12630870497,
			"0.013": 1.63563746563,
			"0.014": 0.0492459109217,
			"0.015": 0.0,
			"0.016": 0.0,
			"0.017": 0.0,
			"0.018": 0.0,
			"0.019": 0.0,
			"0.02": 0.0,
			"0.021": 0.0,
			"0.022": 0.0,
			"0.023": 0.0,
			"0.024": 0.0,
			"0.025": 0.0
		}
	}
}
