{
	 "smiles": "OC(=O)CCC1=CC2=C(OCCCO2)C=C1", 
	 "Tm": 355.15, 
	 "num_atms": 30, 
	 "gaussian": { 
		 "optdone": 1, 
		 "sigma_profile": "yes", 
		 "theory": "DFT", 
		 "functional": "B3LYP", 
		 "basiset": "6-31G**", 
		 "properties": { 
			 "R2extent": 6018.9046, 
			 "electric_dipole_moment_norm": 5.29564284766, 
			 "electric_quadrupole_moment_norm": 25.5063067315, 
			 "total_energy": -766.601328252, 
			 "HOMO_LUMO_gap": 0.21093, 
			 "cosmo_polarized_energy": -18.1, 
			 "cosmo_cavitation_energy": 33.2, 
			 "cosmo_dispersion_energy": -24.29, 
			 "cosmo_repulsion_energy": 1.92, 
			 "cosmo_total_nonelectrostatic_energy": 10.83, 
			 "SMD_solvation_energy": 6.6 
		},
		"coords": [
			{
				"x": -1.2315773457,
				"y": 4.6192847937,
				"z": 3.8869595541,
				"element": "O" 
			},
			{
				"x": -1.2083698815,
				"y": 3.2783653364,
				"z": 4.1288992549,
				"element": "C" 
			},
			{
				"x": -1.6465646812,
				"y": 2.8463970356,
				"z": 5.1650592668,
				"element": "O" 
			},
			{
				"x": -0.6047510774,
				"y": 2.4286309505,
				"z": 3.0182087003,
				"element": "C" 
			},
			{
				"x": -0.6104879153,
				"y": 0.9264639114,
				"z": 3.3434543883,
				"element": "C" 
			},
			{
				"x": -0.006654128,
				"y": 0.095034449,
				"z": 2.2323655824,
				"element": "C" 
			},
			{
				"x": -0.7975326533,
				"y": -0.3632344071,
				"z": 1.1739126788,
				"element": "C" 
			},
			{
				"x": -0.2598793745,
				"y": -1.1059952681,
				"z": 0.1201711449,
				"element": "C" 
			},
			{
				"x": 1.1225593771,
				"y": -1.3857666397,
				"z": 0.1052315667,
				"element": "C" 
			},
			{
				"x": 1.7530098815,
				"y": -2.0959706216,
				"z": -0.8916915603,
				"element": "O" 
			},
			{
				"x": 1.2865495313,
				"y": -1.8649500343,
				"z": -2.2278599762,
				"element": "C" 
			},
			{
				"x": 0.0984544874,
				"y": -2.7628546938,
				"z": -2.579205817,
				"element": "C" 
			},
			{
				"x": -0.9021329347,
				"y": -2.8113846934,
				"z": -1.4227492784,
				"element": "C" 
			},
			{
				"x": -1.1339093803,
				"y": -1.5106649356,
				"z": -0.8633350241,
				"element": "O" 
			},
			{
				"x": 1.9118243281,
				"y": -0.9470249407,
				"z": 1.1707707002,
				"element": "C" 
			},
			{
				"x": 1.3577459735,
				"y": -0.2233102219,
				"z": 2.2239206216,
				"element": "C" 
			},
			{
				"x": -0.8478012328,
				"y": 4.8079110317,
				"z": 3.0187078298,
				"element": "H" 
			},
			{
				"x": -1.1598486201,
				"y": 2.6194092884,
				"z": 2.0892956596,
				"element": "H" 
			},
			{
				"x": 0.421479326,
				"y": 2.7741560737,
				"z": 2.8312070085,
				"element": "H" 
			},
			{
				"x": -0.0633915464,
				"y": 0.769762952,
				"z": 4.2781424227,
				"element": "H" 
			},
			{
				"x": -1.6418070611,
				"y": 0.6165368761,
				"z": 3.5388844971,
				"element": "H" 
			},
			{
				"x": -1.867047246,
				"y": -0.1723881812,
				"z": 1.1530399331,
				"element": "H" 
			},
			{
				"x": 2.1397972477,
				"y": -2.0695387671,
				"z": -2.8808382272,
				"element": "H" 
			},
			{
				"x": 1.016317531,
				"y": -0.8087542871,
				"z": -2.341754363,
				"element": "H" 
			},
			{
				"x": -0.3764740713,
				"y": -2.3754302688,
				"z": -3.4884240994,
				"element": "H" 
			},
			{
				"x": 0.4336959933,
				"y": -3.7843125557,
				"z": -2.7947739628,
				"element": "H" 
			},
			{
				"x": -0.5480589823,
				"y": -3.487613959,
				"z": -0.6363880553,
				"element": "H" 
			},
			{
				"x": -1.8787514786,
				"y": -3.1673827763,
				"z": -1.7627274851,
				"element": "H" 
			},
			{
				"x": 2.9708091213,
				"y": -1.1837082343,
				"z": 1.1447745817,
				"element": "H" 
			},
			{
				"x": 1.9945968124,
				"y": 0.1029327874,
				"z": 3.0420424575,
				"element": "H" 
			}
		],
		 "valence_orbital": [ 
			{
				"type": "occ",
				"energy": -0.30051,
				"method": "rhf"
			},
			{
				"type": "occ",
				"energy": -0.29506,
				"method": "rhf"
			},
			{
				"type": "occ",
				"energy": -0.27066,
				"method": "rhf"
			},
			{
				"type": "occ",
				"energy": -0.23678,
				"method": "rhf"
			},
			{
				"type": "occ",
				"energy": -0.21242,
				"method": "rhf"
			},
			{
				"type": "unocc",
				"energy": -0.00149,
				"method": "rhf"
			},
			{
				"type": "unocc",
				"energy": 0.00699,
				"method": "rhf"
			},
			{
				"type": "unocc",
				"energy": 0.01414,
				"method": "rhf"
			},
			{
				"type": "unocc",
				"energy": 0.05678,
				"method": "rhf"
			},
			{
				"type": "unocc",
				"energy": 0.07297,
				"method": "rhf"
			}
		],
		"cosmo_sigma_profile": { 
			"-0.025": 0.0,
			"-0.024": 0.0,
			"-0.023": 0.0,
			"-0.022": 0.0,
			"-0.021": 0.0,
			"-0.02": 0.0,
			"-0.019": 0.363897126239,
			"-0.018": 1.42923112518,
			"-0.017": 0.664874173193,
			"-0.016": 1.54697730665,
			"-0.015": 1.0237553284,
			"-0.014": 0.655608382009,
			"-0.013": 0.797127717929,
			"-0.012": 1.41932261714,
			"-0.011": 1.45784811523,
			"-0.01": 1.44090495679,
			"-0.009": 0.813967884073,
			"-0.008": 2.15459602078,
			"-0.007": 3.33359053712,
			"-0.006": 7.97359007452,
			"-0.005": 20.9147002055,
			"-0.004": 34.4923075991,
			"-0.003": 27.8076076229,
			"-0.002": 18.3166722976,
			"-0.001": 15.6391539963,
			"0.0": 11.4308619825,
			"0.001": 10.0081047401,
			"0.002": 11.7298643758,
			"0.003": 12.098458709,
			"0.004": 13.6369045908,
			"0.005": 12.423186212,
			"0.006": 9.55485726622,
			"0.007": 4.48238017998,
			"0.008": 4.20391496205,
			"0.009": 6.34497102101,
			"0.01": 6.54331868899,
			"0.011": 7.90308634461,
			"0.012": 6.42526910843,
			"0.013": 1.98477503468,
			"0.014": 0.142150184201,
			"0.015": 0.0,
			"0.016": 0.0,
			"0.017": 0.0,
			"0.018": 0.0,
			"0.019": 0.0,
			"0.02": 0.0,
			"0.021": 0.0,
			"0.022": 0.0,
			"0.023": 0.0,
			"0.024": 0.0,
			"0.025": 0.0
		}
	}
}
