{
	 "smiles": "CCOC(=O)N1CCNC(=O)CC1", 
	 "Tm": 377.15, 
	 "num_atms": 27, 
	 "gaussian": { 
		 "optdone": 1, 
		 "sigma_profile": "yes", 
		 "theory": "DFT", 
		 "functional": "B3LYP", 
		 "basiset": "6-31G**", 
		 "properties": { 
			 "R2extent": 3458.3571, 
			 "electric_dipole_moment_norm": 4.48720996277, 
			 "electric_quadrupole_moment_norm": 11.3667891029, 
			 "total_energy": -648.495755376, 
			 "HOMO_LUMO_gap": 0.26184, 
			 "cosmo_polarized_energy": -16.88, 
			 "cosmo_cavitation_energy": 29.28, 
			 "cosmo_dispersion_energy": -21.51, 
			 "cosmo_repulsion_energy": 1.74, 
			 "cosmo_total_nonelectrostatic_energy": 9.51, 
			 "SMD_solvation_energy": 5.48 
		},
		"coords": [
			{
				"x": 1.8916528621,
				"y": -0.3184607057,
				"z": -4.2795331238,
				"element": "C" 
			},
			{
				"x": 2.538328954,
				"y": -0.6861312007,
				"z": -2.9572656185,
				"element": "C" 
			},
			{
				"x": 1.6176239403,
				"y": -0.3136396152,
				"z": -1.9097000419,
				"element": "O" 
			},
			{
				"x": 2.0407163022,
				"y": -0.5919235938,
				"z": -0.6472177943,
				"element": "C" 
			},
			{
				"x": 3.1049632176,
				"y": -1.1357055788,
				"z": -0.397254087,
				"element": "O" 
			},
			{
				"x": 1.1238169739,
				"y": -0.1757764113,
				"z": 0.2854166171,
				"element": "N" 
			},
			{
				"x": -0.1615262975,
				"y": 0.4038311162,
				"z": -0.1121235573,
				"element": "C" 
			},
			{
				"x": -0.8264025269,
				"y": 1.1901639893,
				"z": 1.0177241818,
				"element": "C" 
			},
			{
				"x": -1.471082564,
				"y": 0.3747814519,
				"z": 2.0419387255,
				"element": "N" 
			},
			{
				"x": -1.0494462449,
				"y": -0.758361618,
				"z": 2.6940773212,
				"element": "C" 
			},
			{
				"x": -1.7540948671,
				"y": -1.2701109229,
				"z": 3.5555508577,
				"element": "O" 
			},
			{
				"x": 0.2870882578,
				"y": -1.3933722152,
				"z": 2.3133446579,
				"element": "C" 
			},
			{
				"x": 1.3699517982,
				"y": -0.5076862464,
				"z": 1.687191823,
				"element": "C" 
			},
			{
				"x": 2.5580965488,
				"y": -0.5867100299,
				"z": -5.1051293563,
				"element": "H" 
			},
			{
				"x": 0.945784458,
				"y": -0.8511703627,
				"z": -4.4145807675,
				"element": "H" 
			},
			{
				"x": 1.6929711931,
				"y": 0.7560059444,
				"z": -4.334206175,
				"element": "H" 
			},
			{
				"x": 2.7440273133,
				"y": -1.758415412,
				"z": -2.8854951753,
				"element": "H" 
			},
			{
				"x": 3.4856269119,
				"y": -0.1596708931,
				"z": -2.80408924,
				"element": "H" 
			},
			{
				"x": 0.0144353436,
				"y": 1.0840409395,
				"z": -0.9479942986,
				"element": "H" 
			},
			{
				"x": -0.8582034326,
				"y": -0.3696637437,
				"z": -0.4652286859,
				"element": "H" 
			},
			{
				"x": -0.1046420471,
				"y": 1.8978755582,
				"z": 1.4496945112,
				"element": "H" 
			},
			{
				"x": -1.6185112938,
				"y": 1.7926319802,
				"z": 0.5635079883,
				"element": "H" 
			},
			{
				"x": -2.3583833937,
				"y": 0.7023710802,
				"z": 2.4007511796,
				"element": "H" 
			},
			{
				"x": 0.665794036,
				"y": -1.8210214976,
				"z": 3.2460363916,
				"element": "H" 
			},
			{
				"x": 0.0761683365,
				"y": -2.24403548,
				"z": 1.6531687702,
				"element": "H" 
			},
			{
				"x": 1.4935008125,
				"y": 0.4101085857,
				"z": 2.2768486281,
				"element": "H" 
			},
			{
				"x": 2.3259454077,
				"y": -1.0305551186,
				"z": 1.7077662683,
				"element": "H" 
			}
		],
		 "valence_orbital": [ 
			{
				"type": "occ",
				"energy": -0.29521,
				"method": "rhf"
			},
			{
				"type": "occ",
				"energy": -0.27058,
				"method": "rhf"
			},
			{
				"type": "occ",
				"energy": -0.25208,
				"method": "rhf"
			},
			{
				"type": "occ",
				"energy": -0.25003,
				"method": "rhf"
			},
			{
				"type": "occ",
				"energy": -0.23817,
				"method": "rhf"
			},
			{
				"type": "unocc",
				"energy": 0.02367,
				"method": "rhf"
			},
			{
				"type": "unocc",
				"energy": 0.05072,
				"method": "rhf"
			},
			{
				"type": "unocc",
				"energy": 0.06452,
				"method": "rhf"
			},
			{
				"type": "unocc",
				"energy": 0.0965,
				"method": "rhf"
			},
			{
				"type": "unocc",
				"energy": 0.1002,
				"method": "rhf"
			}
		],
		"cosmo_sigma_profile": { 
			"-0.025": 0.0,
			"-0.024": 0.0,
			"-0.023": 0.0,
			"-0.022": 0.0,
			"-0.021": 0.0,
			"-0.02": 0.0,
			"-0.019": 0.0,
			"-0.018": 0.0,
			"-0.017": 0.0,
			"-0.016": 0.0,
			"-0.015": 0.0,
			"-0.014": 0.203911625002,
			"-0.013": 1.16640138636,
			"-0.012": 0.992155504119,
			"-0.011": 1.44859347187,
			"-0.01": 0.873811513445,
			"-0.009": 1.19800773945,
			"-0.008": 1.26715973709,
			"-0.007": 2.9022382104,
			"-0.006": 10.8582088193,
			"-0.005": 22.0789579194,
			"-0.004": 29.6106267796,
			"-0.003": 27.8602767148,
			"-0.002": 21.0584730264,
			"-0.001": 16.9877323143,
			"0.0": 15.4341417666,
			"0.001": 10.124624969,
			"0.002": 8.76437019989,
			"0.003": 5.67034416163,
			"0.004": 5.53122302145,
			"0.005": 4.67502090986,
			"0.006": 3.98155843467,
			"0.007": 3.03636857294,
			"0.008": 2.88489979247,
			"0.009": 2.80373187101,
			"0.01": 2.23343438793,
			"0.011": 2.63698319069,
			"0.012": 3.6970164757,
			"0.013": 7.02910840342,
			"0.014": 8.2447241071,
			"0.015": 2.94309604592,
			"0.016": 0.225531727202,
			"0.017": 0.0,
			"0.018": 0.0,
			"0.019": 0.0,
			"0.02": 0.0,
			"0.021": 0.0,
			"0.022": 0.0,
			"0.023": 0.0,
			"0.024": 0.0,
			"0.025": 0.0
		}
	}
}
