{
	 "smiles": "CC1=CC(O)=C(CC2=C(O)C=C(C)OC2=O)C(=O)O1", 
	 "Tm": 522.15, 
	 "num_atms": 31, 
	 "gaussian": { 
		 "optdone": 1, 
		 "sigma_profile": "yes", 
		 "theory": "DFT", 
		 "functional": "B3LYP", 
		 "basiset": "6-31G**", 
		 "properties": { 
			 "R2extent": 6159.4507, 
			 "electric_dipole_moment_norm": 5.19200687788, 
			 "electric_quadrupole_moment_norm": 39.2241119036, 
			 "total_energy": -953.96908213, 
			 "HOMO_LUMO_gap": 0.15133, 
			 "cosmo_polarized_energy": -24.01, 
			 "cosmo_cavitation_energy": 35.33, 
			 "cosmo_dispersion_energy": -25.81, 
			 "cosmo_repulsion_energy": 1.97, 
			 "cosmo_total_nonelectrostatic_energy": 11.49, 
			 "SMD_solvation_energy": 8.92 
		},
		"coords": [
			{
				"x": 5.4011021997,
				"y": 0.3553064738,
				"z": -1.2967969561,
				"element": "C" 
			},
			{
				"x": 4.1995716316,
				"y": 0.7347255055,
				"z": -0.4950774048,
				"element": "C" 
			},
			{
				"x": 3.7641237287,
				"y": 1.9918850308,
				"z": -0.2403592522,
				"element": "C" 
			},
			{
				"x": 2.5850228071,
				"y": 2.1753742123,
				"z": 0.55643488,
				"element": "C" 
			},
			{
				"x": 2.1666528135,
				"y": 3.4148465626,
				"z": 0.8703026344,
				"element": "O" 
			},
			{
				"x": 1.8788304092,
				"y": 1.0917952401,
				"z": 1.0308852297,
				"element": "C" 
			},
			{
				"x": 0.6165718885,
				"y": 1.2081491212,
				"z": 1.8621847681,
				"element": "C" 
			},
			{
				"x": -0.6855749835,
				"y": 0.9190533019,
				"z": 1.1350302387,
				"element": "C" 
			},
			{
				"x": -1.2725678643,
				"y": -0.3306627536,
				"z": 1.0800439722,
				"element": "C" 
			},
			{
				"x": -0.7164854896,
				"y": -1.4529741872,
				"z": 1.5485579378,
				"element": "O" 
			},
			{
				"x": -2.5823169184,
				"y": -0.4910922317,
				"z": 0.5103038561,
				"element": "C" 
			},
			{
				"x": -3.2122579012,
				"y": 0.5834034695,
				"z": -0.0156352832,
				"element": "C" 
			},
			{
				"x": -4.5627398086,
				"y": 0.5876947368,
				"z": -0.6574012254,
				"element": "C" 
			},
			{
				"x": -2.638134664,
				"y": 1.8071179852,
				"z": -0.0150588062,
				"element": "O" 
			},
			{
				"x": -1.3650852709,
				"y": 2.0532625673,
				"z": 0.5548011776,
				"element": "C" 
			},
			{
				"x": -0.9724374112,
				"y": 3.201387881,
				"z": 0.5086676969,
				"element": "O" 
			},
			{
				"x": 2.3783374411,
				"y": -0.223176019,
				"z": 0.7582706239,
				"element": "C" 
			},
			{
				"x": 1.8975010017,
				"y": -1.2862805811,
				"z": 1.1425665653,
				"element": "O" 
			},
			{
				"x": 3.5407517344,
				"y": -0.339132527,
				"z": -0.0082000334,
				"element": "O" 
			},
			{
				"x": 5.9148641807,
				"y": 1.2424586625,
				"z": -1.6713872858,
				"element": "H" 
			},
			{
				"x": 5.1089977751,
				"y": -0.2719446925,
				"z": -2.1457276615,
				"element": "H" 
			},
			{
				"x": 6.0974032211,
				"y": -0.2288373662,
				"z": -0.6858121321,
				"element": "H" 
			},
			{
				"x": 4.3112541024,
				"y": 2.8432150803,
				"z": -0.6305669082,
				"element": "H" 
			},
			{
				"x": 2.7001433495,
				"y": 4.0799509911,
				"z": 0.416452716,
				"element": "H" 
			},
			{
				"x": 0.704992384,
				"y": 0.5246242829,
				"z": 2.7148017688,
				"element": "H" 
			},
			{
				"x": 0.55485617,
				"y": 2.2258611045,
				"z": 2.2513993271,
				"element": "H" 
			},
			{
				"x": 0.2722089535,
				"y": -1.3761623798,
				"z": 1.5702806387,
				"element": "H" 
			},
			{
				"x": -3.0338125879,
				"y": -1.4744475062,
				"z": 0.4935400824,
				"element": "H" 
			},
			{
				"x": -4.4918350863,
				"y": 0.9311184639,
				"z": -1.6952408278,
				"element": "H" 
			},
			{
				"x": -5.0026659296,
				"y": -0.4112877204,
				"z": -0.6432129585,
				"element": "H" 
			},
			{
				"x": -5.2313718762,
				"y": 1.2791672916,
				"z": -0.1331473785,
				"element": "H" 
			}
		],
		 "valence_orbital": [ 
			{
				"type": "occ",
				"energy": -0.28981,
				"method": "rhf"
			},
			{
				"type": "occ",
				"energy": -0.26037,
				"method": "rhf"
			},
			{
				"type": "occ",
				"energy": -0.25053,
				"method": "rhf"
			},
			{
				"type": "occ",
				"energy": -0.23429,
				"method": "rhf"
			},
			{
				"type": "occ",
				"energy": -0.20466,
				"method": "rhf"
			},
			{
				"type": "unocc",
				"energy": -0.05333,
				"method": "rhf"
			},
			{
				"type": "unocc",
				"energy": -0.02272,
				"method": "rhf"
			},
			{
				"type": "unocc",
				"energy": -0.00119,
				"method": "rhf"
			},
			{
				"type": "unocc",
				"energy": 0.0336,
				"method": "rhf"
			},
			{
				"type": "unocc",
				"energy": 0.04731,
				"method": "rhf"
			}
		],
		"cosmo_sigma_profile": { 
			"-0.025": 0.0,
			"-0.024": 0.0,
			"-0.023": 0.0,
			"-0.022": 0.0,
			"-0.021": 0.0,
			"-0.02": 0.329394110228,
			"-0.019": 1.33582989122,
			"-0.018": 1.59970259844,
			"-0.017": 1.23331286305,
			"-0.016": 0.740746613256,
			"-0.015": 0.50993553647,
			"-0.014": 0.773849436883,
			"-0.013": 1.37424650342,
			"-0.012": 1.3404660689,
			"-0.011": 1.18536125676,
			"-0.01": 1.168904571,
			"-0.009": 1.66945461126,
			"-0.008": 3.00989890722,
			"-0.007": 6.60729639641,
			"-0.006": 13.7278641517,
			"-0.005": 17.616781273,
			"-0.004": 18.4773902438,
			"-0.003": 21.898655795,
			"-0.002": 32.5572745948,
			"-0.001": 27.4274411407,
			"0.0": 20.8403996085,
			"0.001": 18.6199281367,
			"0.002": 12.3175655778,
			"0.003": 8.65830030891,
			"0.004": 6.48376739438,
			"0.005": 5.70219605705,
			"0.006": 6.77821543714,
			"0.007": 6.33375160243,
			"0.008": 6.06753687974,
			"0.009": 6.29367898522,
			"0.01": 7.17547628543,
			"0.011": 4.91931131671,
			"0.012": 5.50619833979,
			"0.013": 7.26648240692,
			"0.014": 3.71088850614,
			"0.015": 0.346652455691,
			"0.016": 0.0,
			"0.017": 0.0,
			"0.018": 0.0,
			"0.019": 0.0,
			"0.02": 0.0,
			"0.021": 0.0,
			"0.022": 0.0,
			"0.023": 0.0,
			"0.024": 0.0,
			"0.025": 0.0
		}
	}
}
