{
	 "smiles": "COC(=O)C1=CC(=C(Cl)N=C1)S(=O)(=O)N1CCOCC1", 
	 "Tm": 406.15, 
	 "num_atms": 33, 
	 "gaussian": { 
		 "optdone": 1, 
		 "sigma_profile": "yes", 
		 "theory": "DFT", 
		 "functional": "B3LYP", 
		 "basiset": "6-31G**", 
		 "properties": { 
			 "R2extent": 7949.408, 
			 "electric_dipole_moment_norm": 3.19329740864, 
			 "electric_quadrupole_moment_norm": 15.3434707661, 
			 "total_energy": -1770.91379461, 
			 "HOMO_LUMO_gap": 0.16379, 
			 "cosmo_polarized_energy": -16.62, 
			 "cosmo_cavitation_energy": 39.32, 
			 "cosmo_dispersion_energy": -28.4, 
			 "cosmo_repulsion_energy": 2.12, 
			 "cosmo_total_nonelectrostatic_energy": 13.04, 
			 "SMD_solvation_energy": 5.53 
		},
		"coords": [
			{
				"x": 2.167055539,
				"y": -1.8410115923,
				"z": -4.0774404964,
				"element": "C" 
			},
			{
				"x": 1.5035782518,
				"y": -1.1193486718,
				"z": -3.0237695809,
				"element": "O" 
			},
			{
				"x": 1.0290701012,
				"y": 0.0942896449,
				"z": -3.3651903964,
				"element": "C" 
			},
			{
				"x": 1.1291793101,
				"y": 0.5760829066,
				"z": -4.4753777109,
				"element": "O" 
			},
			{
				"x": 0.3646156581,
				"y": 0.7783618869,
				"z": -2.2193319153,
				"element": "C" 
			},
			{
				"x": 0.2535002117,
				"y": 0.2130762742,
				"z": -0.94572194,
				"element": "C" 
			},
			{
				"x": -0.3868685304,
				"y": 0.9257744243,
				"z": 0.0654482879,
				"element": "C" 
			},
			{
				"x": -0.8862750285,
				"y": 2.2031804611,
				"z": -0.2535006905,
				"element": "C" 
			},
			{
				"x": -1.6995334854,
				"y": 3.1854527387,
				"z": 0.9401249104,
				"element": "Cl" 
			},
			{
				"x": -0.788212476,
				"y": 2.7455406267,
				"z": -1.4564662094,
				"element": "N" 
			},
			{
				"x": -0.17623139,
				"y": 2.0514174338,
				"z": -2.4200327527,
				"element": "C" 
			},
			{
				"x": -0.4515656,
				"y": 0.1534674939,
				"z": 1.7042863885,
				"element": "S" 
			},
			{
				"x": 0.0878674959,
				"y": -1.1975161077,
				"z": 1.5013191198,
				"element": "O" 
			},
			{
				"x": 0.1522173999,
				"y": 1.0676490524,
				"z": 2.6732345707,
				"element": "O" 
			},
			{
				"x": -2.0885907368,
				"y": 0.0610874188,
				"z": 2.0272947544,
				"element": "N" 
			},
			{
				"x": -2.8224070868,
				"y": -1.1444840215,
				"z": 1.5952343457,
				"element": "C" 
			},
			{
				"x": -2.9793460437,
				"y": -2.1230980153,
				"z": 2.7609021038,
				"element": "C" 
			},
			{
				"x": -3.5863401264,
				"y": -1.4870854267,
				"z": 3.8783992144,
				"element": "O" 
			},
			{
				"x": -2.8006371009,
				"y": -0.3973538468,
				"z": 4.3477896129,
				"element": "C" 
			},
			{
				"x": -2.624350163,
				"y": 0.6656381848,
				"z": 3.2628546209,
				"element": "C" 
			},
			{
				"x": 3.0282236258,
				"y": -1.2764373082,
				"z": -4.4422666167,
				"element": "H" 
			},
			{
				"x": 2.4845733973,
				"y": -2.7826449661,
				"z": -3.6312119801,
				"element": "H" 
			},
			{
				"x": 1.4808776658,
				"y": -2.0186838281,
				"z": -4.908827834,
				"element": "H" 
			},
			{
				"x": 0.6570290296,
				"y": -0.7688794739,
				"z": -0.7306107142,
				"element": "H" 
			},
			{
				"x": -0.1072841839,
				"y": 2.5192039503,
				"z": -3.397886692,
				"element": "H" 
			},
			{
				"x": -2.3002950534,
				"y": -1.6159771039,
				"z": 0.7606741364,
				"element": "H" 
			},
			{
				"x": -3.8093606457,
				"y": -0.81623368,
				"z": 1.2479294249,
				"element": "H" 
			},
			{
				"x": -1.9916283379,
				"y": -2.5263383062,
				"z": 3.0326380882,
				"element": "H" 
			},
			{
				"x": -3.6348137296,
				"y": -2.9529711451,
				"z": 2.4795259774,
				"element": "H" 
			},
			{
				"x": -3.3307617034,
				"y": 0.0210212032,
				"z": 5.2087920005,
				"element": "H" 
			},
			{
				"x": -1.8129053456,
				"y": -0.7528144075,
				"z": 4.6830737065,
				"element": "H" 
			},
			{
				"x": -1.9539998953,
				"y": 1.4592224409,
				"z": 3.592583452,
				"element": "H" 
			},
			{
				"x": -3.5953810235,
				"y": 1.1073117597,
				"z": 3.0093308145,
				"element": "H" 
			}
		],
		 "valence_orbital": [ 
			{
				"type": "occ",
				"energy": -0.29845,
				"method": "rhf"
			},
			{
				"type": "occ",
				"energy": -0.29098,
				"method": "rhf"
			},
			{
				"type": "occ",
				"energy": -0.28807,
				"method": "rhf"
			},
			{
				"type": "occ",
				"energy": -0.28276,
				"method": "rhf"
			},
			{
				"type": "occ",
				"energy": -0.2439,
				"method": "rhf"
			},
			{
				"type": "unocc",
				"energy": -0.08011,
				"method": "rhf"
			},
			{
				"type": "unocc",
				"energy": -0.06389,
				"method": "rhf"
			},
			{
				"type": "unocc",
				"energy": 0.0111,
				"method": "rhf"
			},
			{
				"type": "unocc",
				"energy": 0.01282,
				"method": "rhf"
			},
			{
				"type": "unocc",
				"energy": 0.05723,
				"method": "rhf"
			}
		],
		"cosmo_sigma_profile": { 
			"-0.025": 0.0,
			"-0.024": 0.0,
			"-0.023": 0.0,
			"-0.022": 0.0,
			"-0.021": 0.0,
			"-0.02": 0.0,
			"-0.019": 0.0,
			"-0.018": 0.0,
			"-0.017": 0.0,
			"-0.016": 0.0,
			"-0.015": 0.0,
			"-0.014": 0.0,
			"-0.013": 0.0,
			"-0.012": 0.0,
			"-0.011": 0.0,
			"-0.01": 0.0,
			"-0.009": 0.218464689556,
			"-0.008": 1.629557686,
			"-0.007": 5.18795500317,
			"-0.006": 19.8423849473,
			"-0.005": 31.9328544161,
			"-0.004": 40.8274542516,
			"-0.003": 41.0564472132,
			"-0.002": 24.9243378602,
			"-0.001": 15.9469692337,
			"0.0": 15.0077090881,
			"0.001": 14.4798973203,
			"0.002": 12.2101060728,
			"0.003": 16.1026480156,
			"0.004": 11.255147054,
			"0.005": 6.96631953661,
			"0.006": 7.0402538969,
			"0.007": 7.8486971186,
			"0.008": 7.01160743843,
			"0.009": 8.66228173589,
			"0.01": 11.972606384,
			"0.011": 10.0561377493,
			"0.012": 2.76018761111,
			"0.013": 1.71469162602,
			"0.014": 0.00879815139679,
			"0.015": 0.0,
			"0.016": 0.0,
			"0.017": 0.0,
			"0.018": 0.0,
			"0.019": 0.0,
			"0.02": 0.0,
			"0.021": 0.0,
			"0.022": 0.0,
			"0.023": 0.0,
			"0.024": 0.0,
			"0.025": 0.0
		}
	}
}
