{
	 "smiles": "CCCCNCC(O)C1=CC=C(O)C=C1", 
	 "Tm": 397.15, 
	 "num_atms": 34, 
	 "gaussian": { 
		 "optdone": 1, 
		 "sigma_profile": "yes", 
		 "theory": "DFT", 
		 "functional": "B3LYP", 
		 "basiset": "6-31G**", 
		 "properties": { 
			 "R2extent": 5250.6033, 
			 "electric_dipole_moment_norm": 2.14926684709, 
			 "electric_quadrupole_moment_norm": 15.5881598718, 
			 "total_energy": -673.922985494, 
			 "HOMO_LUMO_gap": 0.21095, 
			 "cosmo_polarized_energy": -13.17, 
			 "cosmo_cavitation_energy": 36.26, 
			 "cosmo_dispersion_energy": -25.08, 
			 "cosmo_repulsion_energy": 2.04, 
			 "cosmo_total_nonelectrostatic_energy": 13.23, 
			 "SMD_solvation_energy": 5.61 
		},
		"coords": [
			{
				"x": -2.6378058663,
				"y": -0.393492407,
				"z": -2.7392765281,
				"element": "C" 
			},
			{
				"x": -1.5538812469,
				"y": 0.310623459,
				"z": -1.9176621127,
				"element": "C" 
			},
			{
				"x": -2.124705563,
				"y": 1.2008945419,
				"z": -0.8065849834,
				"element": "C" 
			},
			{
				"x": -1.0572839411,
				"y": 1.8691354911,
				"z": 0.0663938487,
				"element": "C" 
			},
			{
				"x": -0.2744118989,
				"y": 0.8837794923,
				"z": 0.807338941,
				"element": "N" 
			},
			{
				"x": 0.7579332182,
				"y": 1.4704502671,
				"z": 1.6461166204,
				"element": "C" 
			},
			{
				"x": 1.5253679888,
				"y": 0.3969318271,
				"z": 2.433911002,
				"element": "C" 
			},
			{
				"x": 0.5327797146,
				"y": -0.3084104527,
				"z": 3.1871719558,
				"element": "O" 
			},
			{
				"x": 2.3671193267,
				"y": -0.5313595741,
				"z": 1.5773913107,
				"element": "C" 
			},
			{
				"x": 3.7487963086,
				"y": -0.3411905343,
				"z": 1.4792757609,
				"element": "C" 
			},
			{
				"x": 4.5415749146,
				"y": -1.1710648395,
				"z": 0.6853422894,
				"element": "C" 
			},
			{
				"x": 3.9516903259,
				"y": -2.2232372425,
				"z": -0.0211363768,
				"element": "C" 
			},
			{
				"x": 4.6684263883,
				"y": -3.0788766759,
				"z": -0.8103961262,
				"element": "O" 
			},
			{
				"x": 2.570921036,
				"y": -2.4351812293,
				"z": 0.0736974077,
				"element": "C" 
			},
			{
				"x": 1.7929908265,
				"y": -1.5950044652,
				"z": 0.8629565698,
				"element": "C" 
			},
			{
				"x": -3.3099872924,
				"y": 0.3288072263,
				"z": -3.2176586244,
				"element": "H" 
			},
			{
				"x": -2.2015800722,
				"y": -1.0136038587,
				"z": -3.5294869718,
				"element": "H" 
			},
			{
				"x": -3.2532959518,
				"y": -1.0457852431,
				"z": -2.1085551358,
				"element": "H" 
			},
			{
				"x": -0.8791076354,
				"y": -0.4261431733,
				"z": -1.4690941715,
				"element": "H" 
			},
			{
				"x": -0.9314790269,
				"y": 0.9261688447,
				"z": -2.5818340903,
				"element": "H" 
			},
			{
				"x": -2.7904566412,
				"y": 0.6053220199,
				"z": -0.1636022685,
				"element": "H" 
			},
			{
				"x": -2.7559794953,
				"y": 1.9846175129,
				"z": -1.246784456,
				"element": "H" 
			},
			{
				"x": -0.3666479483,
				"y": 2.4359622715,
				"z": -0.5739222699,
				"element": "H" 
			},
			{
				"x": -1.540073058,
				"y": 2.6122570734,
				"z": 0.7311721046,
				"element": "H" 
			},
			{
				"x": -0.8898045758,
				"y": 0.3417053291,
				"z": 1.4099653116,
				"element": "H" 
			},
			{
				"x": 1.4714060858,
				"y": 2.0124351045,
				"z": 1.012961774,
				"element": "H" 
			},
			{
				"x": 0.3557831962,
				"y": 2.199856737,
				"z": 2.3759701661,
				"element": "H" 
			},
			{
				"x": 2.2045708008,
				"y": 0.9326320974,
				"z": 3.1179326292,
				"element": "H" 
			},
			{
				"x": 0.9539101865,
				"y": -1.0921498485,
				"z": 3.5630633192,
				"element": "H" 
			},
			{
				"x": 4.2205058854,
				"y": 0.4680641828,
				"z": 2.0325043843,
				"element": "H" 
			},
			{
				"x": 5.6157690365,
				"y": -1.0071113898,
				"z": 0.6247193994,
				"element": "H" 
			},
			{
				"x": 5.5985295216,
				"y": -2.818845136,
				"z": -0.7938827346,
				"element": "H" 
			},
			{
				"x": 2.1292402591,
				"y": -3.257560358,
				"z": -0.4797007665,
				"element": "H" 
			},
			{
				"x": 0.7230851934,
				"y": -1.7561270501,
				"z": 0.9273928215,
				"element": "H" 
			}
		],
		 "valence_orbital": [ 
			{
				"type": "occ",
				"energy": -0.30964,
				"method": "rhf"
			},
			{
				"type": "occ",
				"energy": -0.27255,
				"method": "rhf"
			},
			{
				"type": "occ",
				"energy": -0.24955,
				"method": "rhf"
			},
			{
				"type": "occ",
				"energy": -0.21547,
				"method": "rhf"
			},
			{
				"type": "occ",
				"energy": -0.21116,
				"method": "rhf"
			},
			{
				"type": "unocc",
				"energy": -0.00021,
				"method": "rhf"
			},
			{
				"type": "unocc",
				"energy": 0.01082,
				"method": "rhf"
			},
			{
				"type": "unocc",
				"energy": 0.07149,
				"method": "rhf"
			},
			{
				"type": "unocc",
				"energy": 0.08258,
				"method": "rhf"
			},
			{
				"type": "unocc",
				"energy": 0.10003,
				"method": "rhf"
			}
		],
		"cosmo_sigma_profile": { 
			"-0.025": 0.0,
			"-0.024": 0.0,
			"-0.023": 0.0,
			"-0.022": 0.0,
			"-0.021": 0.0,
			"-0.02": 0.0,
			"-0.019": 0.0,
			"-0.018": 0.370849365356,
			"-0.017": 1.06361593504,
			"-0.016": 0.866955817487,
			"-0.015": 1.52074370233,
			"-0.014": 1.97834731176,
			"-0.013": 1.40973766371,
			"-0.012": 1.77278072826,
			"-0.011": 2.04781288284,
			"-0.01": 1.1911759032,
			"-0.009": 2.26890699214,
			"-0.008": 2.15924615046,
			"-0.007": 3.00609607098,
			"-0.006": 4.8969103042,
			"-0.005": 9.39625120926,
			"-0.004": 12.9049139959,
			"-0.003": 18.8110515705,
			"-0.002": 29.0682998103,
			"-0.001": 38.3782330232,
			"0.0": 32.9313724851,
			"0.001": 28.9728333154,
			"0.002": 18.0306568105,
			"0.003": 11.247736171,
			"0.004": 11.2253402092,
			"0.005": 10.836112718,
			"0.006": 10.6748745591,
			"0.007": 4.83446511748,
			"0.008": 4.64851050564,
			"0.009": 3.21926370676,
			"0.01": 2.63145506345,
			"0.011": 3.75336111916,
			"0.012": 2.85766847833,
			"0.013": 1.98301342375,
			"0.014": 0.703643866991,
			"0.015": 0.0641119321373,
			"0.016": 0.0,
			"0.017": 0.0,
			"0.018": 0.0,
			"0.019": 0.0,
			"0.02": 0.0,
			"0.021": 0.0,
			"0.022": 0.0,
			"0.023": 0.0,
			"0.024": 0.0,
			"0.025": 0.0
		}
	}
}
