{
	 "smiles": "C=CC1=CC=CC=C1", 
	 "Tm": 242.15, 
	 "num_atms": 16, 
	 "gaussian": { 
		 "optdone": 1, 
		 "sigma_profile": "yes", 
		 "theory": "DFT", 
		 "functional": "B3LYP", 
		 "basiset": "6-31G**", 
		 "properties": { 
			 "R2extent": 1121.5113, 
			 "electric_dipole_moment_norm": 0.187047587528, 
			 "electric_quadrupole_moment_norm": 5.79579951603, 
			 "total_energy": -309.654108539, 
			 "HOMO_LUMO_gap": 0.19076, 
			 "cosmo_polarized_energy": -3.9, 
			 "cosmo_cavitation_energy": 19.63, 
			 "cosmo_dispersion_energy": -14.45, 
			 "cosmo_repulsion_energy": 1.18, 
			 "cosmo_total_nonelectrostatic_energy": 6.35, 
			 "SMD_solvation_energy": 4.07 
		},
		"coords": [
			{
				"x": 2.5630964072,
				"y": -0.4264431451,
				"z": 1.2527524945,
				"element": "C" 
			},
			{
				"x": 1.7663494538,
				"y": -1.1195135666,
				"z": 0.4298478844,
				"element": "C" 
			},
			{
				"x": 0.3276972074,
				"y": -0.917692986,
				"z": 0.1896246895,
				"element": "C" 
			},
			{
				"x": -0.4281298886,
				"y": 0.0805566624,
				"z": 0.8323351903,
				"element": "C" 
			},
			{
				"x": -1.7864741791,
				"y": 0.2285939992,
				"z": 0.5686939822,
				"element": "C" 
			},
			{
				"x": -2.4269415551,
				"y": -0.6160569384,
				"z": -0.3436844181,
				"element": "C" 
			},
			{
				"x": -1.6929406908,
				"y": -1.6109931665,
				"z": -0.9896219977,
				"element": "C" 
			},
			{
				"x": -0.3318619962,
				"y": -1.7577270403,
				"z": -0.7240542361,
				"element": "C" 
			},
			{
				"x": 3.6160308024,
				"y": -0.6716681814,
				"z": 1.3450079789,
				"element": "H" 
			},
			{
				"x": 2.2074953572,
				"y": 0.4010456243,
				"z": 1.8596639943,
				"element": "H" 
			},
			{
				"x": 2.2083554109,
				"y": -1.934918924,
				"z": -0.1424015395,
				"element": "H" 
			},
			{
				"x": 0.0505070241,
				"y": 0.7461360503,
				"z": 1.5441963878,
				"element": "H" 
			},
			{
				"x": -2.3505056832,
				"y": 1.006110523,
				"z": 1.0764474649,
				"element": "H" 
			},
			{
				"x": -3.48729914,
				"y": -0.4975941671,
				"z": -0.5469026191,
				"element": "H" 
			},
			{
				"x": -2.1787604099,
				"y": -2.2735099205,
				"z": -1.70044203,
				"element": "H" 
			},
			{
				"x": 0.2349818799,
				"y": -2.5351248233,
				"z": -1.2306632262,
				"element": "H" 
			}
		],
		 "valence_orbital": [ 
			{
				"type": "occ",
				"energy": -0.34146,
				"method": "rhf"
			},
			{
				"type": "occ",
				"energy": -0.33536,
				"method": "rhf"
			},
			{
				"type": "occ",
				"energy": -0.29711,
				"method": "rhf"
			},
			{
				"type": "occ",
				"energy": -0.24972,
				"method": "rhf"
			},
			{
				"type": "occ",
				"energy": -0.2221,
				"method": "rhf"
			},
			{
				"type": "unocc",
				"energy": -0.03134,
				"method": "rhf"
			},
			{
				"type": "unocc",
				"energy": 0.0012,
				"method": "rhf"
			},
			{
				"type": "unocc",
				"energy": 0.06175,
				"method": "rhf"
			},
			{
				"type": "unocc",
				"energy": 0.09373,
				"method": "rhf"
			},
			{
				"type": "unocc",
				"energy": 0.11356,
				"method": "rhf"
			}
		],
		"cosmo_sigma_profile": { 
			"-0.025": 0.0,
			"-0.024": 0.0,
			"-0.023": 0.0,
			"-0.022": 0.0,
			"-0.021": 0.0,
			"-0.02": 0.0,
			"-0.019": 0.0,
			"-0.018": 0.0,
			"-0.017": 0.0,
			"-0.016": 0.0,
			"-0.015": 0.0,
			"-0.014": 0.0,
			"-0.013": 0.0,
			"-0.012": 0.0,
			"-0.011": 0.0,
			"-0.01": 0.0,
			"-0.009": 0.0,
			"-0.008": 0.0,
			"-0.007": 0.777725170115,
			"-0.006": 7.15156506887,
			"-0.005": 16.2204664071,
			"-0.004": 14.1058053421,
			"-0.003": 15.8156608029,
			"-0.002": 10.8317931318,
			"-0.001": 11.4090930705,
			"0.0": 8.97931223154,
			"0.001": 9.73696048299,
			"0.002": 10.327513187,
			"0.003": 11.4102853314,
			"0.004": 14.5086706395,
			"0.005": 14.3391816017,
			"0.006": 10.3687378426,
			"0.007": 1.19735858385,
			"0.008": 0.0,
			"0.009": 0.0,
			"0.01": 0.0,
			"0.011": 0.0,
			"0.012": 0.0,
			"0.013": 0.0,
			"0.014": 0.0,
			"0.015": 0.0,
			"0.016": 0.0,
			"0.017": 0.0,
			"0.018": 0.0,
			"0.019": 0.0,
			"0.02": 0.0,
			"0.021": 0.0,
			"0.022": 0.0,
			"0.023": 0.0,
			"0.024": 0.0,
			"0.025": 0.0
		}
	}
}
