{
	 "smiles": "NC1=C(C=CC=C1)N1CC(OC1=O)C(F)(F)F", 
	 "Tm": 348.15, 
	 "num_atms": 26, 
	 "gaussian": { 
		 "optdone": 1, 
		 "sigma_profile": "yes", 
		 "theory": "DFT", 
		 "functional": "B3LYP", 
		 "basiset": "6-31G**", 
		 "properties": { 
			 "R2extent": 4326.3628, 
			 "electric_dipole_moment_norm": 3.26932368235, 
			 "electric_quadrupole_moment_norm": 15.9116733491, 
			 "total_energy": -945.981632046, 
			 "HOMO_LUMO_gap": 0.19523, 
			 "cosmo_polarized_energy": -14.84, 
			 "cosmo_cavitation_energy": 30.96, 
			 "cosmo_dispersion_energy": -22.02, 
			 "cosmo_repulsion_energy": 1.64, 
			 "cosmo_total_nonelectrostatic_energy": 10.58, 
			 "SMD_solvation_energy": 6.83 
		},
		"coords": [
			{
				"x": -1.8434908159,
				"y": -1.007379984,
				"z": -1.0618839396,
				"element": "N" 
			},
			{
				"x": -0.6832349947,
				"y": -0.5994257104,
				"z": -1.7111164427,
				"element": "C" 
			},
			{
				"x": 0.4770230626,
				"y": -0.2222269275,
				"z": -0.9908174413,
				"element": "C" 
			},
			{
				"x": 1.6095169051,
				"y": 0.2362024612,
				"z": -1.6723716301,
				"element": "C" 
			},
			{
				"x": 1.6208914922,
				"y": 0.358115574,
				"z": -3.0590596635,
				"element": "C" 
			},
			{
				"x": 0.4782623208,
				"y": 0.0010328669,
				"z": -3.7778867081,
				"element": "C" 
			},
			{
				"x": -0.6439225702,
				"y": -0.4796275415,
				"z": -3.1136309302,
				"element": "C" 
			},
			{
				"x": 0.4968801308,
				"y": -0.2228249749,
				"z": 0.4392045476,
				"element": "N" 
			},
			{
				"x": 1.0088463763,
				"y": 0.9010814989,
				"z": 1.2127955937,
				"element": "C" 
			},
			{
				"x": 0.69555675,
				"y": 0.4482605487,
				"z": 2.6551163805,
				"element": "C" 
			},
			{
				"x": 0.3309096658,
				"y": -0.9252890823,
				"z": 2.5594719834,
				"element": "O" 
			},
			{
				"x": 0.142392738,
				"y": -1.274998534,
				"z": 1.2400796444,
				"element": "C" 
			},
			{
				"x": -0.2797335324,
				"y": -2.3641395309,
				"z": 0.918359253,
				"element": "O" 
			},
			{
				"x": -0.4618442413,
				"y": 1.2268193993,
				"z": 3.2762248129,
				"element": "C" 
			},
			{
				"x": -0.7451466662,
				"y": 0.7806112294,
				"z": 4.5084865941,
				"element": "F" 
			},
			{
				"x": -0.1192976515,
				"y": 2.5325890669,
				"z": 3.3690609973,
				"element": "F" 
			},
			{
				"x": -1.5743751292,
				"y": 1.1399252877,
				"z": 2.52696108,
				"element": "F" 
			},
			{
				"x": -1.6803474728,
				"y": -1.6597470121,
				"z": -0.2996581675,
				"element": "H" 
			},
			{
				"x": -2.5544207248,
				"y": -1.348693696,
				"z": -1.6955788927,
				"element": "H" 
			},
			{
				"x": 2.4951162,
				"y": 0.5017857938,
				"z": -1.1029116066,
				"element": "H" 
			},
			{
				"x": 2.508584127,
				"y": 0.7198736332,
				"z": -3.5672797275,
				"element": "H" 
			},
			{
				"x": 0.4633744436,
				"y": 0.0858665074,
				"z": -4.8605889657,
				"element": "H" 
			},
			{
				"x": -1.5270336147,
				"y": -0.7669843945,
				"z": -3.6793249042,
				"element": "H" 
			},
			{
				"x": 0.5009577545,
				"y": 1.831582488,
				"z": 0.9446580717,
				"element": "H" 
			},
			{
				"x": 2.0856024986,
				"y": 1.042319834,
				"z": 1.0713880473,
				"element": "H" 
			},
			{
				"x": 1.5522329484,
				"y": 0.5439711989,
				"z": 3.3267020137,
				"element": "H" 
			}
		],
		 "valence_orbital": [ 
			{
				"type": "occ",
				"energy": -0.31067,
				"method": "rhf"
			},
			{
				"type": "occ",
				"energy": -0.29395,
				"method": "rhf"
			},
			{
				"type": "occ",
				"energy": -0.29038,
				"method": "rhf"
			},
			{
				"type": "occ",
				"energy": -0.24151,
				"method": "rhf"
			},
			{
				"type": "occ",
				"energy": -0.20693,
				"method": "rhf"
			},
			{
				"type": "unocc",
				"energy": -0.0117,
				"method": "rhf"
			},
			{
				"type": "unocc",
				"energy": 0.0083,
				"method": "rhf"
			},
			{
				"type": "unocc",
				"energy": 0.03384,
				"method": "rhf"
			},
			{
				"type": "unocc",
				"energy": 0.06481,
				"method": "rhf"
			},
			{
				"type": "unocc",
				"energy": 0.0681,
				"method": "rhf"
			}
		],
		"cosmo_sigma_profile": { 
			"-0.025": 0.0,
			"-0.024": 0.0,
			"-0.023": 0.0,
			"-0.022": 0.0,
			"-0.021": 0.0,
			"-0.02": 0.0,
			"-0.019": 0.0,
			"-0.018": 0.0,
			"-0.017": 0.0,
			"-0.016": 0.0,
			"-0.015": 0.0,
			"-0.014": 0.0,
			"-0.013": 0.12234767339,
			"-0.012": 1.21410603359,
			"-0.011": 2.36668705718,
			"-0.01": 5.62061152857,
			"-0.009": 5.82897515184,
			"-0.008": 10.1446196852,
			"-0.007": 8.73870025625,
			"-0.006": 10.7230648866,
			"-0.005": 14.343975696,
			"-0.004": 13.0416234386,
			"-0.003": 11.2279548997,
			"-0.002": 11.1141871389,
			"-0.001": 11.6002592047,
			"0.0": 12.5799795117,
			"0.001": 17.1546922131,
			"0.002": 35.476166934,
			"0.003": 17.4409992952,
			"0.004": 11.7598358863,
			"0.005": 12.5127245649,
			"0.006": 10.3200176664,
			"0.007": 3.41744316078,
			"0.008": 4.23112838194,
			"0.009": 3.96848497057,
			"0.01": 2.51286328779,
			"0.011": 4.27196869187,
			"0.012": 3.7990979228,
			"0.013": 1.15525655248,
			"0.014": 0.435083694653,
			"0.015": 0.0,
			"0.016": 0.0,
			"0.017": 0.0,
			"0.018": 0.0,
			"0.019": 0.0,
			"0.02": 0.0,
			"0.021": 0.0,
			"0.022": 0.0,
			"0.023": 0.0,
			"0.024": 0.0,
			"0.025": 0.0
		}
	}
}
