{
	 "smiles": "CC1(C)C(=O)C(C)(C)C1=O", 
	 "Tm": 387.15, 
	 "num_atms": 22, 
	 "gaussian": { 
		 "optdone": 1, 
		 "sigma_profile": "yes", 
		 "theory": "DFT", 
		 "functional": "B3LYP", 
		 "basiset": "6-31G**", 
		 "properties": { 
			 "R2extent": 2234.2895, 
			 "electric_dipole_moment_norm": 0.000141421356237, 
			 "electric_quadrupole_moment_norm": 14.9022584208, 
			 "total_energy": -462.507935257, 
			 "HOMO_LUMO_gap": 0.18069, 
			 "cosmo_polarized_energy": -9.43, 
			 "cosmo_cavitation_energy": 25.23, 
			 "cosmo_dispersion_energy": -16.81, 
			 "cosmo_repulsion_energy": 1.38, 
			 "cosmo_total_nonelectrostatic_energy": 9.8, 
			 "SMD_solvation_energy": 6.27 
		},
		"coords": [
			{
				"x": -3.7746415112,
				"y": 0.7596789257,
				"z": 0.6016430493,
				"element": "C" 
			},
			{
				"x": -2.3547921289,
				"y": 0.3607843714,
				"z": 0.1716984112,
				"element": "C" 
			},
			{
				"x": -2.1790202992,
				"y": 0.4442515999,
				"z": -1.3521241013,
				"element": "C" 
			},
			{
				"x": -1.225473107,
				"y": 1.0479471217,
				"z": 0.9829163972,
				"element": "C" 
			},
			{
				"x": -0.8717933299,
				"y": 2.1960288314,
				"z": 1.0869299149,
				"element": "O" 
			},
			{
				"x": -0.7158513883,
				"y": -0.2746675985,
				"z": 1.6126547017,
				"element": "C" 
			},
			{
				"x": -0.891453989,
				"y": -0.3581874663,
				"z": 3.1364936206,
				"element": "C" 
			},
			{
				"x": 0.7039549445,
				"y": -0.6735325262,
				"z": 1.1825396284,
				"element": "C" 
			},
			{
				"x": -1.8452563848,
				"y": -0.9618134931,
				"z": 0.8015419125,
				"element": "C" 
			},
			{
				"x": -2.1988884683,
				"y": -2.1099035138,
				"z": 0.6974700034,
				"element": "O" 
			},
			{
				"x": -3.9844668198,
				"y": 1.7872619865,
				"z": 0.2887052169,
				"element": "H" 
			},
			{
				"x": -4.5068009109,
				"y": 0.0928308878,
				"z": 0.1356516597,
				"element": "H" 
			},
			{
				"x": -3.9086857802,
				"y": 0.7029919048,
				"z": 1.6864107317,
				"element": "H" 
			},
			{
				"x": -1.1697807547,
				"y": 0.1614421644,
				"z": -1.6673187786,
				"element": "H" 
			},
			{
				"x": -2.3652260934,
				"y": 1.4672536273,
				"z": -1.6937140162,
				"element": "H" 
			},
			{
				"x": -2.8878634918,
				"y": -0.2270705981,
				"z": -1.8468495917,
				"element": "H" 
			},
			{
				"x": -1.9006618908,
				"y": -0.0753989006,
				"z": 3.4518090122,
				"element": "H" 
			},
			{
				"x": -0.1825630893,
				"y": 0.3131257861,
				"z": 3.6311628381,
				"element": "H" 
			},
			{
				"x": -0.7051998663,
				"y": -1.3811990921,
				"z": 3.4780284513,
				"element": "H" 
			},
			{
				"x": 0.8378787889,
				"y": -0.6168076793,
				"z": 0.0977592262,
				"element": "H" 
			},
			{
				"x": 1.4361591024,
				"y": -0.0066925171,
				"z": 1.6484721621,
				"element": "H" 
			},
			{
				"x": 0.9138264682,
				"y": -1.701123822,
				"z": 1.4954195502,
				"element": "H" 
			}
		],
		 "valence_orbital": [ 
			{
				"type": "occ",
				"energy": -0.36987,
				"method": "rhf"
			},
			{
				"type": "occ",
				"energy": -0.35975,
				"method": "rhf"
			},
			{
				"type": "occ",
				"energy": -0.34563,
				"method": "rhf"
			},
			{
				"type": "occ",
				"energy": -0.25451,
				"method": "rhf"
			},
			{
				"type": "occ",
				"energy": -0.23054,
				"method": "rhf"
			},
			{
				"type": "unocc",
				"energy": -0.04985,
				"method": "rhf"
			},
			{
				"type": "unocc",
				"energy": -0.00682,
				"method": "rhf"
			},
			{
				"type": "unocc",
				"energy": 0.0627,
				"method": "rhf"
			},
			{
				"type": "unocc",
				"energy": 0.1081,
				"method": "rhf"
			},
			{
				"type": "unocc",
				"energy": 0.11422,
				"method": "rhf"
			}
		],
		"cosmo_sigma_profile": { 
			"-0.025": 0.0,
			"-0.024": 0.0,
			"-0.023": 0.0,
			"-0.022": 0.0,
			"-0.021": 0.0,
			"-0.02": 0.0,
			"-0.019": 0.0,
			"-0.018": 0.0,
			"-0.017": 0.0,
			"-0.016": 0.0,
			"-0.015": 0.0,
			"-0.014": 0.0,
			"-0.013": 0.0,
			"-0.012": 0.0,
			"-0.011": 0.0,
			"-0.01": 0.0351162493191,
			"-0.009": 0.598662237277,
			"-0.008": 1.60922220551,
			"-0.007": 2.82134863379,
			"-0.006": 4.24286966145,
			"-0.005": 13.2694367293,
			"-0.004": 27.0249587138,
			"-0.003": 22.6785131662,
			"-0.002": 21.4160535112,
			"-0.001": 30.9311863265,
			"0.0": 19.1014830252,
			"0.001": 5.29252644498,
			"0.002": 4.12380751304,
			"0.003": 3.05907903734,
			"0.004": 2.77505182602,
			"0.005": 4.07642424336,
			"0.006": 2.7683675724,
			"0.007": 2.75096029633,
			"0.008": 3.64527134808,
			"0.009": 4.59147903111,
			"0.01": 6.16515732666,
			"0.011": 9.17023766426,
			"0.012": 4.43337076388,
			"0.013": 0.215285457962,
			"0.014": 0.0,
			"0.015": 0.0,
			"0.016": 0.0,
			"0.017": 0.0,
			"0.018": 0.0,
			"0.019": 0.0,
			"0.02": 0.0,
			"0.021": 0.0,
			"0.022": 0.0,
			"0.023": 0.0,
			"0.024": 0.0,
			"0.025": 0.0
		}
	}
}
