{
	 "smiles": "NC1=C(Cl)N=C2C=CC=CC2=N1", 
	 "Tm": 415.15, 
	 "num_atms": 18, 
	 "gaussian": { 
		 "optdone": 1, 
		 "sigma_profile": "yes", 
		 "theory": "DFT", 
		 "functional": "B3LYP", 
		 "basiset": "6-31G**", 
		 "properties": { 
			 "R2extent": 2855.4079, 
			 "electric_dipole_moment_norm": 1.8994900184, 
			 "electric_quadrupole_moment_norm": 13.0797819848, 
			 "total_energy": -932.929259979, 
			 "HOMO_LUMO_gap": 0.15895, 
			 "cosmo_polarized_energy": -9.31, 
			 "cosmo_cavitation_energy": 24.1, 
			 "cosmo_dispersion_energy": -18.63, 
			 "cosmo_repulsion_energy": 1.48, 
			 "cosmo_total_nonelectrostatic_energy": 6.95, 
			 "SMD_solvation_energy": 0.76 
		},
		"coords": [
			{
				"x": -0.1557001343,
				"y": 0.4050073468,
				"z": -2.8364737512,
				"element": "N" 
			},
			{
				"x": -0.0251964466,
				"y": -0.3376186457,
				"z": -1.7000098293,
				"element": "C" 
			},
			{
				"x": -1.1666857581,
				"y": -0.6297533687,
				"z": -0.8582832677,
				"element": "C" 
			},
			{
				"x": -2.762591665,
				"y": -0.0594119786,
				"z": -1.3785662183,
				"element": "Cl" 
			},
			{
				"x": -1.0902909093,
				"y": -1.2898555712,
				"z": 0.2446053691,
				"element": "N" 
			},
			{
				"x": 0.1467578729,
				"y": -1.7333964503,
				"z": 0.6352724392,
				"element": "C" 
			},
			{
				"x": 0.2884273417,
				"y": -2.4584436917,
				"z": 1.8401315932,
				"element": "C" 
			},
			{
				"x": 1.5350042011,
				"y": -2.9069323769,
				"z": 2.22576491,
				"element": "C" 
			},
			{
				"x": 2.6684669892,
				"y": -2.6444598843,
				"z": 1.4194934354,
				"element": "C" 
			},
			{
				"x": 2.552597039,
				"y": -1.9386940571,
				"z": 0.2391487261,
				"element": "C" 
			},
			{
				"x": 1.2858782219,
				"y": -1.4643828377,
				"z": -0.1809884829,
				"element": "C" 
			},
			{
				"x": 1.1702962175,
				"y": -0.7683176546,
				"z": -1.3478901365,
				"element": "N" 
			},
			{
				"x": -1.0683435287,
				"y": 0.5319306945,
				"z": -3.2427740459,
				"element": "H" 
			},
			{
				"x": 0.6467531929,
				"y": 0.4258502755,
				"z": -3.4471522215,
				"element": "H" 
			},
			{
				"x": -0.6003488412,
				"y": -2.6434798219,
				"z": 2.4346651055,
				"element": "H" 
			},
			{
				"x": 1.6510283201,
				"y": -3.4641541988,
				"z": 3.1502784899,
				"element": "H" 
			},
			{
				"x": 3.6427901077,
				"y": -3.0047045914,
				"z": 1.7370570255,
				"element": "H" 
			},
			{
				"x": 3.4118577791,
				"y": -1.7288831879,
				"z": -0.3893791406,
				"element": "H" 
			}
		],
		 "valence_orbital": [ 
			{
				"type": "occ",
				"energy": -0.30625,
				"method": "rhf"
			},
			{
				"type": "occ",
				"energy": -0.3013,
				"method": "rhf"
			},
			{
				"type": "occ",
				"energy": -0.26084,
				"method": "rhf"
			},
			{
				"type": "occ",
				"energy": -0.24533,
				"method": "rhf"
			},
			{
				"type": "occ",
				"energy": -0.22365,
				"method": "rhf"
			},
			{
				"type": "unocc",
				"energy": -0.0647,
				"method": "rhf"
			},
			{
				"type": "unocc",
				"energy": -0.01539,
				"method": "rhf"
			},
			{
				"type": "unocc",
				"energy": 0.01093,
				"method": "rhf"
			},
			{
				"type": "unocc",
				"energy": 0.02569,
				"method": "rhf"
			},
			{
				"type": "unocc",
				"energy": 0.07972,
				"method": "rhf"
			}
		],
		"cosmo_sigma_profile": { 
			"-0.025": 0.0,
			"-0.024": 0.0,
			"-0.023": 0.0,
			"-0.022": 0.0,
			"-0.021": 0.0,
			"-0.02": 0.0,
			"-0.019": 0.0,
			"-0.018": 0.0,
			"-0.017": 0.0,
			"-0.016": 0.0,
			"-0.015": 0.0327437588157,
			"-0.014": 1.29510442342,
			"-0.013": 1.90893051948,
			"-0.012": 2.10538750475,
			"-0.011": 1.80009618849,
			"-0.01": 2.01084877258,
			"-0.009": 1.75140459723,
			"-0.008": 2.13263173738,
			"-0.007": 2.82849410034,
			"-0.006": 9.48503305276,
			"-0.005": 9.55771260869,
			"-0.004": 11.8518140028,
			"-0.003": 12.0864438771,
			"-0.002": 12.5477678298,
			"-0.001": 12.2108282783,
			"0.0": 15.3410280667,
			"0.001": 13.4547360739,
			"0.002": 19.4074917622,
			"0.003": 19.8286770567,
			"0.004": 19.101306853,
			"0.005": 6.21597110783,
			"0.006": 4.19572351926,
			"0.007": 3.61720655592,
			"0.008": 3.67231006949,
			"0.009": 2.01646125463,
			"0.01": 1.03023093318,
			"0.011": 1.96487203457,
			"0.012": 1.78324216287,
			"0.013": 1.01737502615,
			"0.014": 0.0990278876868,
			"0.015": 0.0,
			"0.016": 0.0,
			"0.017": 0.0,
			"0.018": 0.0,
			"0.019": 0.0,
			"0.02": 0.0,
			"0.021": 0.0,
			"0.022": 0.0,
			"0.023": 0.0,
			"0.024": 0.0,
			"0.025": 0.0
		}
	}
}
