{
	 "smiles": "NCCN", 
	 "Tm": 282.95, 
	 "num_atms": 12, 
	 "gaussian": { 
		 "optdone": 1, 
		 "sigma_profile": "yes", 
		 "theory": "DFT", 
		 "functional": "B3LYP", 
		 "basiset": "6-31G**", 
		 "properties": { 
			 "R2extent": 643.6053, 
			 "electric_dipole_moment_norm": 2.34162526678, 
			 "electric_quadrupole_moment_norm": 5.34331677425, 
			 "total_energy": -190.524527872, 
			 "HOMO_LUMO_gap": 0.30812, 
			 "cosmo_polarized_energy": -9.1, 
			 "cosmo_cavitation_energy": 14.5, 
			 "cosmo_dispersion_energy": -11.02, 
			 "cosmo_repulsion_energy": 1.04, 
			 "cosmo_total_nonelectrostatic_energy": 4.52, 
			 "SMD_solvation_energy": 0.1 
		},
		"coords": [
			{
				"x": -1.5128472801,
				"y": 1.0509185452,
				"z": -2.0144358766,
				"element": "N" 
			},
			{
				"x": -0.1374524142,
				"y": 1.1294789087,
				"z": -1.5208101572,
				"element": "C" 
			},
			{
				"x": 0.5548766108,
				"y": -0.2165683304,
				"z": -1.2618610668,
				"element": "C" 
			},
			{
				"x": 1.9298488468,
				"y": -0.0101029501,
				"z": -0.8004157364,
				"element": "N" 
			},
			{
				"x": -2.0852392014,
				"y": 0.5144450135,
				"z": -1.3656997848,
				"element": "H" 
			},
			{
				"x": -1.5343453672,
				"y": 0.5434410239,
				"z": -2.8964940353,
				"element": "H" 
			},
			{
				"x": 0.4631229486,
				"y": 1.6998665427,
				"z": -2.2376983822,
				"element": "H" 
			},
			{
				"x": -0.1443707855,
				"y": 1.7156140048,
				"z": -0.5913185697,
				"element": "H" 
			},
			{
				"x": 0.5951919496,
				"y": -0.7798479389,
				"z": -2.203787832,
				"element": "H" 
			},
			{
				"x": -0.0751165847,
				"y": -0.8100337264,
				"z": -0.5709062084,
				"element": "H" 
			},
			{
				"x": 1.9231712891,
				"y": 0.4145094914,
				"z": 0.1245289261,
				"element": "H" 
			},
			{
				"x": 2.4064599883,
				"y": -0.9023205844,
				"z": -0.6994012767,
				"element": "H" 
			}
		],
		 "valence_orbital": [ 
			{
				"type": "occ",
				"energy": -0.39733,
				"method": "rhf"
			},
			{
				"type": "occ",
				"energy": -0.36504,
				"method": "rhf"
			},
			{
				"type": "occ",
				"energy": -0.3367,
				"method": "rhf"
			},
			{
				"type": "occ",
				"energy": -0.23831,
				"method": "rhf"
			},
			{
				"type": "occ",
				"energy": -0.22558,
				"method": "rhf"
			},
			{
				"type": "unocc",
				"energy": 0.08254,
				"method": "rhf"
			},
			{
				"type": "unocc",
				"energy": 0.084,
				"method": "rhf"
			},
			{
				"type": "unocc",
				"energy": 0.12658,
				"method": "rhf"
			},
			{
				"type": "unocc",
				"energy": 0.14616,
				"method": "rhf"
			},
			{
				"type": "unocc",
				"energy": 0.16538,
				"method": "rhf"
			}
		],
		"cosmo_sigma_profile": { 
			"-0.025": 0.0,
			"-0.024": 0.0,
			"-0.023": 0.0,
			"-0.022": 0.0,
			"-0.021": 0.0,
			"-0.02": 0.0,
			"-0.019": 0.0,
			"-0.018": 0.0,
			"-0.017": 0.0,
			"-0.016": 0.0,
			"-0.015": 0.0,
			"-0.014": 0.0,
			"-0.013": 0.0,
			"-0.012": 0.0,
			"-0.011": 0.0,
			"-0.01": 0.877673424808,
			"-0.009": 4.25356381478,
			"-0.008": 5.90593761776,
			"-0.007": 5.92650322954,
			"-0.006": 5.53417686256,
			"-0.005": 6.22741409057,
			"-0.004": 6.51699658608,
			"-0.003": 10.0849956173,
			"-0.002": 12.3251573635,
			"-0.001": 10.5285247017,
			"0.0": 7.93674060591,
			"0.001": 5.26558244409,
			"0.002": 3.06692819374,
			"0.003": 1.62409758383,
			"0.004": 1.72415496491,
			"0.005": 2.12529565171,
			"0.006": 2.15483064717,
			"0.007": 1.6613801866,
			"0.008": 1.74867704955,
			"0.009": 1.07635960963,
			"0.01": 1.70760363381,
			"0.011": 1.70844781813,
			"0.012": 0.829674212567,
			"0.013": 1.14714724053,
			"0.014": 2.17939761486,
			"0.015": 0.849142239656,
			"0.016": 0.987985354833,
			"0.017": 1.5106013568,
			"0.018": 1.34173689469,
			"0.019": 1.08269458862,
			"0.02": 0.836134706243,
			"0.021": 0.0999654395923,
			"0.022": 0.0,
			"0.023": 0.0,
			"0.024": 0.0,
			"0.025": 0.0
		}
	}
}
