{
	 "smiles": "CC1=CC=C(C=C1)S(=O)(=O)NCCCN(CCCN(CCCNS(=O)(=O)C1=CC=C(C)C=C1)S(=O)(=O)C1=CC=C(C)C=C1)S(=O)(=O)C1=CC=C(C)C=C1", 
	 "Tm": 399.15, 
	 "num_atms": 101, 
	 "gaussian": { 
		 "optdone": 1, 
		 "sigma_profile": "yes", 
		 "theory": "DFT", 
		 "functional": "B3LYP", 
		 "basiset": "6-31G**", 
		 "properties": { 
			 "R2extent": 39024.4976, 
			 "electric_dipole_moment_norm": 8.68293962319, 
			 "electric_quadrupole_moment_norm": 65.8747531215, 
			 "total_energy": -3852.18253928, 
			 "HOMO_LUMO_gap": 0.19173, 
			 "cosmo_polarized_energy": -40.71, 
			 "cosmo_cavitation_energy": 101.83, 
			 "cosmo_dispersion_energy": -58.54, 
			 "cosmo_repulsion_energy": 4.2, 
			 "cosmo_total_nonelectrostatic_energy": 47.49, 
			 "SMD_solvation_energy": 12.08 
		},
		"coords": [
			{
				"x": -2.7198110937,
				"y": -6.7483959812,
				"z": -2.4717658631,
				"element": "C" 
			},
			{
				"x": -2.2523404361,
				"y": -5.4184880588,
				"z": -3.0129204338,
				"element": "C" 
			},
			{
				"x": -3.0736855289,
				"y": -4.658688194,
				"z": -3.8570287623,
				"element": "C" 
			},
			{
				"x": -2.6598590085,
				"y": -3.4176363318,
				"z": -4.3388073933,
				"element": "C" 
			},
			{
				"x": -1.4046563077,
				"y": -2.9272531724,
				"z": -3.9727155684,
				"element": "C" 
			},
			{
				"x": -0.5598510375,
				"y": -3.6665467622,
				"z": -3.1396917295,
				"element": "C" 
			},
			{
				"x": -0.9926176736,
				"y": -4.9051843323,
				"z": -2.6697172317,
				"element": "C" 
			},
			{
				"x": -0.8840320406,
				"y": -1.3110124919,
				"z": -4.563322749,
				"element": "S" 
			},
			{
				"x": 0.5803637776,
				"y": -1.331013605,
				"z": -4.6679584854,
				"element": "O" 
			},
			{
				"x": -1.730557949,
				"y": -0.9802272469,
				"z": -5.7124510602,
				"element": "O" 
			},
			{
				"x": -1.229781036,
				"y": -0.2012809418,
				"z": -3.3638315498,
				"element": "N" 
			},
			{
				"x": -2.6391282741,
				"y": 0.0390784292,
				"z": -3.0125087741,
				"element": "C" 
			},
			{
				"x": -2.8162146758,
				"y": 1.3396806561,
				"z": -2.2258012122,
				"element": "C" 
			},
			{
				"x": -2.3207228539,
				"y": 1.3033677378,
				"z": -0.7708517628,
				"element": "C" 
			},
			{
				"x": -2.9876764748,
				"y": 0.282771093,
				"z": 0.0665251291,
				"element": "N" 
			},
			{
				"x": -2.1920163123,
				"y": -0.8306489542,
				"z": 0.6046832242,
				"element": "C" 
			},
			{
				"x": -1.1204693926,
				"y": -0.4225772943,
				"z": 1.6304581534,
				"element": "C" 
			},
			{
				"x": -0.4147358666,
				"y": -1.6622476202,
				"z": 2.1874321386,
				"element": "C" 
			},
			{
				"x": 0.9021398937,
				"y": -1.4037483067,
				"z": 2.8293638132,
				"element": "N" 
			},
			{
				"x": 1.7053746038,
				"y": -2.6491364876,
				"z": 2.995011261,
				"element": "C" 
			},
			{
				"x": 2.3863307046,
				"y": -3.106473721,
				"z": 1.6968877448,
				"element": "C" 
			},
			{
				"x": 3.3727484921,
				"y": -2.0982192773,
				"z": 1.0917474473,
				"element": "C" 
			},
			{
				"x": 2.7386288049,
				"y": -0.9000896151,
				"z": 0.5064477737,
				"element": "N" 
			},
			{
				"x": 2.1745106019,
				"y": -0.9786246419,
				"z": -1.0701176946,
				"element": "S" 
			},
			{
				"x": 0.8857843115,
				"y": -0.2469090481,
				"z": -1.065716888,
				"element": "O" 
			},
			{
				"x": 2.1938975317,
				"y": -2.3681304002,
				"z": -1.551135943,
				"element": "O" 
			},
			{
				"x": 3.3760515039,
				"y": -0.0515770817,
				"z": -2.0167729188,
				"element": "C" 
			},
			{
				"x": 3.3258001565,
				"y": -0.1752410796,
				"z": -3.4103646665,
				"element": "C" 
			},
			{
				"x": 4.220857643,
				"y": 0.5628943639,
				"z": -4.1783343492,
				"element": "C" 
			},
			{
				"x": 5.1660829392,
				"y": 1.4154970641,
				"z": -3.5862232239,
				"element": "C" 
			},
			{
				"x": 6.1423493114,
				"y": 2.1875077263,
				"z": -4.4402942005,
				"element": "C" 
			},
			{
				"x": 5.1863165557,
				"y": 1.5198363583,
				"z": -2.1899491648,
				"element": "C" 
			},
			{
				"x": 4.2951220054,
				"y": 0.7953696581,
				"z": -1.3978786834,
				"element": "C" 
			},
			{
				"x": 0.8181236012,
				"y": -0.4316761734,
				"z": 4.2650766323,
				"element": "S" 
			},
			{
				"x": -0.5460373167,
				"y": -0.4746847392,
				"z": 4.8085803305,
				"element": "O" 
			},
			{
				"x": 1.969941374,
				"y": -0.8083367252,
				"z": 5.0936729219,
				"element": "O" 
			},
			{
				"x": 1.1239180405,
				"y": 1.2281595847,
				"z": 3.6571012226,
				"element": "C" 
			},
			{
				"x": 0.0972407931,
				"y": 2.1697637802,
				"z": 3.6699538915,
				"element": "C" 
			},
			{
				"x": 0.3604954861,
				"y": 3.4667884382,
				"z": 3.2275538124,
				"element": "C" 
			},
			{
				"x": 1.6344390697,
				"y": 3.8374203949,
				"z": 2.7801760181,
				"element": "C" 
			},
			{
				"x": 1.9070998549,
				"y": 5.2324770192,
				"z": 2.2730758186,
				"element": "C" 
			},
			{
				"x": 2.655952259,
				"y": 2.8731847396,
				"z": 2.8012789632,
				"element": "C" 
			},
			{
				"x": 2.4125210566,
				"y": 1.5755319237,
				"z": 3.2391568923,
				"element": "C" 
			},
			{
				"x": -4.4611857383,
				"y": 0.657771589,
				"z": 0.7733952433,
				"element": "S" 
			},
			{
				"x": -5.00307364,
				"y": -0.5991782028,
				"z": 1.2983937025,
				"element": "O" 
			},
			{
				"x": -5.1911879466,
				"y": 1.4729067512,
				"z": -0.2024947442,
				"element": "O" 
			},
			{
				"x": -4.1604848028,
				"y": 1.7272224082,
				"z": 2.1909809082,
				"element": "C" 
			},
			{
				"x": -4.1541846791,
				"y": 3.11332549,
				"z": 2.0237060002,
				"element": "C" 
			},
			{
				"x": -3.9186854178,
				"y": 3.9335012396,
				"z": 3.1282324417,
				"element": "C" 
			},
			{
				"x": -3.6990225137,
				"y": 3.3917476362,
				"z": 4.4021354587,
				"element": "C" 
			},
			{
				"x": -3.4857045679,
				"y": 4.2822238351,
				"z": 5.6029624409,
				"element": "C" 
			},
			{
				"x": -3.7195904524,
				"y": 1.9943624298,
				"z": 4.5450593193,
				"element": "C" 
			},
			{
				"x": -3.9520704431,
				"y": 1.1617566751,
				"z": 3.4528449091,
				"element": "C" 
			},
			{
				"x": -3.2594343832,
				"y": -6.619298859,
				"z": -1.525075025,
				"element": "H" 
			},
			{
				"x": -3.4011463883,
				"y": -7.246833545,
				"z": -3.1674867854,
				"element": "H" 
			},
			{
				"x": -1.8784478061,
				"y": -7.4202265806,
				"z": -2.2781039994,
				"element": "H" 
			},
			{
				"x": -4.04699751,
				"y": -5.0455158314,
				"z": -4.1476808422,
				"element": "H" 
			},
			{
				"x": -3.2859969232,
				"y": -2.8412226377,
				"z": -5.0108270771,
				"element": "H" 
			},
			{
				"x": 0.4229351465,
				"y": -3.2891144179,
				"z": -2.8761523461,
				"element": "H" 
			},
			{
				"x": -0.3340289377,
				"y": -5.4885231305,
				"z": -2.0310451221,
				"element": "H" 
			},
			{
				"x": -0.562117508,
				"y": -0.2773324924,
				"z": -2.5947409559,
				"element": "H" 
			},
			{
				"x": -3.0755440828,
				"y": -0.7985389375,
				"z": -2.4487558392,
				"element": "H" 
			},
			{
				"x": -3.1829279549,
				"y": 0.1212954217,
				"z": -3.9562629845,
				"element": "H" 
			},
			{
				"x": -2.2874316186,
				"y": 2.1459558454,
				"z": -2.7484226085,
				"element": "H" 
			},
			{
				"x": -3.8800840506,
				"y": 1.5887068425,
				"z": -2.2161154571,
				"element": "H" 
			},
			{
				"x": -2.4440559116,
				"y": 2.2974659634,
				"z": -0.3244452555,
				"element": "H" 
			},
			{
				"x": -1.2494343965,
				"y": 1.0872742989,
				"z": -0.7348602025,
				"element": "H" 
			},
			{
				"x": -2.8927572385,
				"y": -1.5501327455,
				"z": 1.0338076466,
				"element": "H" 
			},
			{
				"x": -1.7078636229,
				"y": -1.321968206,
				"z": -0.2472063657,
				"element": "H" 
			},
			{
				"x": -1.5845374718,
				"y": 0.1409211935,
				"z": 2.4415738256,
				"element": "H" 
			},
			{
				"x": -0.3868317878,
				"y": 0.2265970094,
				"z": 1.1447242932,
				"element": "H" 
			},
			{
				"x": -0.1941879715,
				"y": -2.3399633247,
				"z": 1.3567636842,
				"element": "H" 
			},
			{
				"x": -1.0757911241,
				"y": -2.1993719861,
				"z": 2.8808005702,
				"element": "H" 
			},
			{
				"x": 2.4649299309,
				"y": -2.4510409792,
				"z": 3.7519937725,
				"element": "H" 
			},
			{
				"x": 1.0679909473,
				"y": -3.458159832,
				"z": 3.3809232176,
				"element": "H" 
			},
			{
				"x": 1.6586716653,
				"y": -3.390093392,
				"z": 0.9296395351,
				"element": "H" 
			},
			{
				"x": 2.9397010374,
				"y": -4.0218627426,
				"z": 1.9435645971,
				"element": "H" 
			},
			{
				"x": 4.0756899269,
				"y": -1.7467287528,
				"z": 1.8567474802,
				"element": "H" 
			},
			{
				"x": 3.9626656862,
				"y": -2.581356176,
				"z": 0.3099474538,
				"element": "H" 
			},
			{
				"x": 2.0068345426,
				"y": -0.5218291603,
				"z": 1.1083550339,
				"element": "H" 
			},
			{
				"x": 2.5901973941,
				"y": -0.8156523606,
				"z": -3.885562688,
				"element": "H" 
			},
			{
				"x": 4.1806278687,
				"y": 0.4754209925,
				"z": -5.2607238631,
				"element": "H" 
			},
			{
				"x": 6.8954430517,
				"y": 1.5203567381,
				"z": -4.8765420986,
				"element": "H" 
			},
			{
				"x": 6.6701435822,
				"y": 2.9488948522,
				"z": -3.8597880656,
				"element": "H" 
			},
			{
				"x": 5.6340026886,
				"y": 2.6852153248,
				"z": -5.272528353,
				"element": "H" 
			},
			{
				"x": 5.9088839258,
				"y": 2.176340009,
				"z": -1.7123903616,
				"element": "H" 
			},
			{
				"x": 4.3134049923,
				"y": 0.8766481735,
				"z": -0.3175061317,
				"element": "H" 
			},
			{
				"x": -0.888888748,
				"y": 1.8937498338,
				"z": 4.0253285274,
				"element": "H" 
			},
			{
				"x": -0.4426928216,
				"y": 4.1983506427,
				"z": 3.2319291169,
				"element": "H" 
			},
			{
				"x": 2.8815524583,
				"y": 5.5975860689,
				"z": 2.6121321168,
				"element": "H" 
			},
			{
				"x": 1.1427251989,
				"y": 5.9378536199,
				"z": 2.6095364718,
				"element": "H" 
			},
			{
				"x": 1.9166954766,
				"y": 5.2544062505,
				"z": 1.1764517929,
				"element": "H" 
			},
			{
				"x": 3.6568302937,
				"y": 3.1475465171,
				"z": 2.4785300748,
				"element": "H" 
			},
			{
				"x": 3.2147031778,
				"y": 0.8463054642,
				"z": 3.2754443156,
				"element": "H" 
			},
			{
				"x": -4.3641675981,
				"y": 3.5389838445,
				"z": 1.0487335136,
				"element": "H" 
			},
			{
				"x": -3.9242328282,
				"y": 5.0129220318,
				"z": 3.0000977949,
				"element": "H" 
			},
			{
				"x": -4.3923767248,
				"y": 4.3321405421,
				"z": 6.2179703474,
				"element": "H" 
			},
			{
				"x": -3.2337207077,
				"y": 5.3040199116,
				"z": 5.3062482095,
				"element": "H" 
			},
			{
				"x": -2.6831168094,
				"y": 3.9040940657,
				"z": 6.2440758005,
				"element": "H" 
			},
			{
				"x": -3.5599315101,
				"y": 1.5518704486,
				"z": 5.5247173277,
				"element": "H" 
			},
			{
				"x": -3.9932914477,
				"y": 0.0853236484,
				"z": 3.5772473487,
				"element": "H" 
			}
		],
		 "valence_orbital": [ 
			{
				"type": "occ",
				"energy": -0.25967,
				"method": "rhf"
			},
			{
				"type": "occ",
				"energy": -0.25729,
				"method": "rhf"
			},
			{
				"type": "occ",
				"energy": -0.25512,
				"method": "rhf"
			},
			{
				"type": "occ",
				"energy": -0.2425,
				"method": "rhf"
			},
			{
				"type": "occ",
				"energy": -0.23862,
				"method": "rhf"
			},
			{
				"type": "unocc",
				"energy": -0.04689,
				"method": "rhf"
			},
			{
				"type": "unocc",
				"energy": -0.03629,
				"method": "rhf"
			},
			{
				"type": "unocc",
				"energy": -0.03438,
				"method": "rhf"
			},
			{
				"type": "unocc",
				"energy": -0.02969,
				"method": "rhf"
			},
			{
				"type": "unocc",
				"energy": -0.02355,
				"method": "rhf"
			}
		],
		"cosmo_sigma_profile": { 
			"-0.025": 0.0,
			"-0.024": 0.0,
			"-0.023": 0.0,
			"-0.022": 0.0,
			"-0.021": 0.0,
			"-0.02": 0.0,
			"-0.019": 0.0,
			"-0.018": 0.0,
			"-0.017": 0.0,
			"-0.016": 0.0,
			"-0.015": 0.0,
			"-0.014": 0.0,
			"-0.013": 0.0,
			"-0.012": 0.0,
			"-0.011": 0.0,
			"-0.01": 0.000401860277414,
			"-0.009": 0.210084304415,
			"-0.008": 0.95650538382,
			"-0.007": 6.9264059694,
			"-0.006": 33.6210582167,
			"-0.005": 73.831259243,
			"-0.004": 84.3597350535,
			"-0.003": 78.0813217473,
			"-0.002": 77.9141388486,
			"-0.001": 79.7133889051,
			"0.0": 67.6928566645,
			"0.001": 45.7572165328,
			"0.002": 49.2419241183,
			"0.003": 58.9131492684,
			"0.004": 30.686143726,
			"0.005": 17.4882679819,
			"0.006": 13.050175231,
			"0.007": 12.3614650815,
			"0.008": 14.6665929895,
			"0.009": 14.0566721742,
			"0.01": 16.7093350513,
			"0.011": 19.5303123652,
			"0.012": 10.5276991381,
			"0.013": 0.184380098341,
			"0.014": 0.0,
			"0.015": 0.0,
			"0.016": 0.0,
			"0.017": 0.0,
			"0.018": 0.0,
			"0.019": 0.0,
			"0.02": 0.0,
			"0.021": 0.0,
			"0.022": 0.0,
			"0.023": 0.0,
			"0.024": 0.0,
			"0.025": 0.0
		}
	}
}
