{
	 "smiles": "CC(C)N(CCC(N)=S)C(C)=O", 
	 "Tm": 378.15, 
	 "num_atms": 28, 
	 "gaussian": { 
		 "optdone": 1, 
		 "sigma_profile": "yes", 
		 "theory": "DFT", 
		 "functional": "B3LYP", 
		 "basiset": "6-31G**", 
		 "properties": { 
			 "R2extent": 3905.9236, 
			 "electric_dipole_moment_norm": 5.28281284545, 
			 "electric_quadrupole_moment_norm": 15.5664949231, 
			 "total_energy": -897.439390785, 
			 "HOMO_LUMO_gap": 0.17593, 
			 "cosmo_polarized_energy": -21.92, 
			 "cosmo_cavitation_energy": 31.8, 
			 "cosmo_dispersion_energy": -22.03, 
			 "cosmo_repulsion_energy": 1.74, 
			 "cosmo_total_nonelectrostatic_energy": 11.51, 
			 "SMD_solvation_energy": 5.24 
		},
		"coords": [
			{
				"x": -0.4697830439,
				"y": 1.9494657418,
				"z": 0.5262470032,
				"element": "C" 
			},
			{
				"x": 0.6732163021,
				"y": 1.1728138317,
				"z": 1.1958979232,
				"element": "C" 
			},
			{
				"x": 1.5386340216,
				"y": 2.0662767922,
				"z": 2.0964459176,
				"element": "C" 
			},
			{
				"x": 1.4963200034,
				"y": 0.4077017962,
				"z": 0.2231330842,
				"element": "N" 
			},
			{
				"x": 1.5408466367,
				"y": -1.0405674238,
				"z": 0.3871695711,
				"element": "C" 
			},
			{
				"x": 0.3058726765,
				"y": -1.7535229116,
				"z": -0.2114541867,
				"element": "C" 
			},
			{
				"x": 0.3817215362,
				"y": -3.2641120176,
				"z": -0.0784599365,
				"element": "C" 
			},
			{
				"x": -0.6661111102,
				"y": -3.8329845223,
				"z": 0.546581883,
				"element": "N" 
			},
			{
				"x": 1.6650832532,
				"y": -4.1561677648,
				"z": -0.654799355,
				"element": "S" 
			},
			{
				"x": 2.188985134,
				"y": 1.071703787,
				"z": -0.7659742664,
				"element": "C" 
			},
			{
				"x": 3.0269329375,
				"y": 0.241038674,
				"z": -1.7323942384,
				"element": "C" 
			},
			{
				"x": 2.1524239202,
				"y": 2.2954044525,
				"z": -0.8739084113,
				"element": "O" 
			},
			{
				"x": -1.088992426,
				"y": 1.2856416494,
				"z": -0.08649849,
				"element": "H" 
			},
			{
				"x": -1.1101234731,
				"y": 2.3989515542,
				"z": 1.2928724964,
				"element": "H" 
			},
			{
				"x": -0.0733891791,
				"y": 2.7399742223,
				"z": -0.1114394047,
				"element": "H" 
			},
			{
				"x": 0.2185979824,
				"y": 0.4043717946,
				"z": 1.8327140419,
				"element": "H" 
			},
			{
				"x": 2.0156142555,
				"y": 2.8504737355,
				"z": 1.5070716915,
				"element": "H" 
			},
			{
				"x": 2.3164711295,
				"y": 1.4784561312,
				"z": 2.5947494764,
				"element": "H" 
			},
			{
				"x": 0.917718576,
				"y": 2.5323369976,
				"z": 2.8690149595,
				"element": "H" 
			},
			{
				"x": 1.6108053292,
				"y": -1.272014749,
				"z": 1.4565038515,
				"element": "H" 
			},
			{
				"x": 2.4342312963,
				"y": -1.4545925811,
				"z": -0.0770533571,
				"element": "H" 
			},
			{
				"x": 0.247080516,
				"y": -1.5099904716,
				"z": -1.2775201407,
				"element": "H" 
			},
			{
				"x": -0.6070308878,
				"y": -1.3663988817,
				"z": 0.2587595499,
				"element": "H" 
			},
			{
				"x": -0.6872101722,
				"y": -4.8372686684,
				"z": 0.6549839495,
				"element": "H" 
			},
			{
				"x": -1.4532160051,
				"y": -3.2919509615,
				"z": 0.8729640138,
				"element": "H" 
			},
			{
				"x": 3.8994648446,
				"y": -0.1909672687,
				"z": -1.2300425054,
				"element": "H" 
			},
			{
				"x": 2.4702535076,
				"y": -0.5826499768,
				"z": -2.1891717149,
				"element": "H" 
			},
			{
				"x": 3.3754824386,
				"y": 0.9177770389,
				"z": -2.5120934056,
				"element": "H" 
			}
		],
		 "valence_orbital": [ 
			{
				"type": "occ",
				"energy": -0.33538,
				"method": "rhf"
			},
			{
				"type": "occ",
				"energy": -0.24078,
				"method": "rhf"
			},
			{
				"type": "occ",
				"energy": -0.23849,
				"method": "rhf"
			},
			{
				"type": "occ",
				"energy": -0.23708,
				"method": "rhf"
			},
			{
				"type": "occ",
				"energy": -0.21719,
				"method": "rhf"
			},
			{
				"type": "unocc",
				"energy": -0.04126,
				"method": "rhf"
			},
			{
				"type": "unocc",
				"energy": 0.02934,
				"method": "rhf"
			},
			{
				"type": "unocc",
				"energy": 0.0474,
				"method": "rhf"
			},
			{
				"type": "unocc",
				"energy": 0.07584,
				"method": "rhf"
			},
			{
				"type": "unocc",
				"energy": 0.08053,
				"method": "rhf"
			}
		],
		"cosmo_sigma_profile": { 
			"-0.025": 0.0,
			"-0.024": 0.0,
			"-0.023": 0.0,
			"-0.022": 0.0,
			"-0.021": 0.0,
			"-0.02": 0.0,
			"-0.019": 0.0,
			"-0.018": 0.0,
			"-0.017": 0.0,
			"-0.016": 0.695642552105,
			"-0.015": 2.7165415748,
			"-0.014": 2.46247548839,
			"-0.013": 2.87531517252,
			"-0.012": 2.58478884601,
			"-0.011": 2.4329045178,
			"-0.01": 2.57189205642,
			"-0.009": 1.68274618481,
			"-0.008": 1.55236219997,
			"-0.007": 2.49613384561,
			"-0.006": 11.7943870987,
			"-0.005": 14.135532504,
			"-0.004": 14.5553131794,
			"-0.003": 23.6910933107,
			"-0.002": 22.1279562323,
			"-0.001": 22.374672098,
			"0.0": 19.3633052794,
			"0.001": 20.2484814581,
			"0.002": 13.3883002647,
			"0.003": 6.01340116078,
			"0.004": 4.74864824615,
			"0.005": 6.81261155639,
			"0.006": 5.86781646144,
			"0.007": 5.44551061116,
			"0.008": 7.68800913911,
			"0.009": 9.48262358417,
			"0.01": 5.32039650843,
			"0.011": 4.65530778656,
			"0.012": 3.46362871561,
			"0.013": 1.76384931381,
			"0.014": 2.72334136148,
			"0.015": 2.36972037117,
			"0.016": 0.381623864994,
			"0.017": 0.0,
			"0.018": 0.0,
			"0.019": 0.0,
			"0.02": 0.0,
			"0.021": 0.0,
			"0.022": 0.0,
			"0.023": 0.0,
			"0.024": 0.0,
			"0.025": 0.0
		}
	}
}
