{
	 "smiles": "NCC(O)C1=CC=C(Cl)C=C1", 
	 "Tm": 371.15, 
	 "num_atms": 21, 
	 "gaussian": { 
		 "optdone": 1, 
		 "sigma_profile": "yes", 
		 "theory": "DFT", 
		 "functional": "B3LYP", 
		 "basiset": "6-31G**", 
		 "properties": { 
			 "R2extent": 3008.7954, 
			 "electric_dipole_moment_norm": 2.56489092945, 
			 "electric_quadrupole_moment_norm": 15.6602631613, 
			 "total_energy": -901.03614063, 
			 "HOMO_LUMO_gap": 0.2164, 
			 "cosmo_polarized_energy": -11.51, 
			 "cosmo_cavitation_energy": 26.01, 
			 "cosmo_dispersion_energy": -18.95, 
			 "cosmo_repulsion_energy": 1.54, 
			 "cosmo_total_nonelectrostatic_energy": 8.6, 
			 "SMD_solvation_energy": 2.65 
		},
		"coords": [
			{
				"x": 2.6890918159,
				"y": 1.147696589,
				"z": 2.0630199426,
				"element": "N" 
			},
			{
				"x": 1.758520693,
				"y": 0.8200600092,
				"z": 3.1346192767,
				"element": "C" 
			},
			{
				"x": 0.3263405516,
				"y": 1.3995484978,
				"z": 2.9855291294,
				"element": "C" 
			},
			{
				"x": 0.3871747795,
				"y": 2.8212798995,
				"z": 2.8700491472,
				"element": "O" 
			},
			{
				"x": -0.387655134,
				"y": 0.8545593851,
				"z": 1.7654305078,
				"element": "C" 
			},
			{
				"x": -0.4928115308,
				"y": 1.5985461553,
				"z": 0.5849199917,
				"element": "C" 
			},
			{
				"x": -1.113922319,
				"y": 1.0647795312,
				"z": -0.5458883147,
				"element": "C" 
			},
			{
				"x": -1.631322635,
				"y": -0.2275362544,
				"z": -0.493160149,
				"element": "C" 
			},
			{
				"x": -2.4166795599,
				"y": -0.9077554264,
				"z": -1.913171819,
				"element": "Cl" 
			},
			{
				"x": -1.5422379301,
				"y": -0.9895860299,
				"z": 0.6718243761,
				"element": "C" 
			},
			{
				"x": -0.9214702445,
				"y": -0.4404772165,
				"z": 1.7922919856,
				"element": "C" 
			},
			{
				"x": 2.6560790771,
				"y": 2.1524854232,
				"z": 1.9015857524,
				"element": "H" 
			},
			{
				"x": 2.3771110684,
				"y": 0.7161980272,
				"z": 1.1955847169,
				"element": "H" 
			},
			{
				"x": 2.1739668503,
				"y": 1.1970489705,
				"z": 4.0810782519,
				"element": "H" 
			},
			{
				"x": 1.6994540148,
				"y": -0.2696031311,
				"z": 3.2374193199,
				"element": "H" 
			},
			{
				"x": -0.2510013636,
				"y": 1.1139310968,
				"z": 3.8809138452,
				"element": "H" 
			},
			{
				"x": 0.7895476167,
				"y": 3.1645176027,
				"z": 3.6782908479,
				"element": "H" 
			},
			{
				"x": -0.102220597,
				"y": 2.6092159715,
				"z": 0.5604285407,
				"element": "H" 
			},
			{
				"x": -1.198087263,
				"y": 1.6468216313,
				"z": -1.4571642859,
				"element": "H" 
			},
			{
				"x": -1.9571636023,
				"y": -1.9910163842,
				"z": 0.7009876191,
				"element": "H" 
			},
			{
				"x": -0.8604142882,
				"y": -1.0317143477,
				"z": 2.7030113176,
				"element": "H" 
			}
		],
		 "valence_orbital": [ 
			{
				"type": "occ",
				"energy": -0.31062,
				"method": "rhf"
			},
			{
				"type": "occ",
				"energy": -0.29216,
				"method": "rhf"
			},
			{
				"type": "occ",
				"energy": -0.26368,
				"method": "rhf"
			},
			{
				"type": "occ",
				"energy": -0.24636,
				"method": "rhf"
			},
			{
				"type": "occ",
				"energy": -0.2322,
				"method": "rhf"
			},
			{
				"type": "unocc",
				"energy": -0.0158,
				"method": "rhf"
			},
			{
				"type": "unocc",
				"energy": -0.01236,
				"method": "rhf"
			},
			{
				"type": "unocc",
				"energy": 0.03106,
				"method": "rhf"
			},
			{
				"type": "unocc",
				"energy": 0.05889,
				"method": "rhf"
			},
			{
				"type": "unocc",
				"energy": 0.10269,
				"method": "rhf"
			}
		],
		"cosmo_sigma_profile": { 
			"-0.025": 0.0,
			"-0.024": 0.0,
			"-0.023": 0.0,
			"-0.022": 0.0,
			"-0.021": 0.0,
			"-0.02": 0.0,
			"-0.019": 0.0,
			"-0.018": 0.0,
			"-0.017": 0.0,
			"-0.016": 0.420471569145,
			"-0.015": 1.23947976021,
			"-0.014": 0.547151408575,
			"-0.013": 1.14010519964,
			"-0.012": 1.32072872215,
			"-0.011": 1.32133601991,
			"-0.01": 0.660660739991,
			"-0.009": 0.638835154929,
			"-0.008": 2.84669817456,
			"-0.007": 6.52089686332,
			"-0.006": 11.1817173391,
			"-0.005": 15.9913418694,
			"-0.004": 15.8032973322,
			"-0.003": 13.1551190999,
			"-0.002": 13.6388817182,
			"-0.001": 12.3567885952,
			"0.0": 12.8780608509,
			"0.001": 10.4109512774,
			"0.002": 16.8442467855,
			"0.003": 16.0501033605,
			"0.004": 19.816175899,
			"0.005": 12.6504021616,
			"0.006": 2.66826058502,
			"0.007": 2.40945690035,
			"0.008": 1.65172448664,
			"0.009": 1.73097595297,
			"0.01": 2.14677548863,
			"0.011": 1.99203878326,
			"0.012": 1.61763280481,
			"0.013": 1.22351989141,
			"0.014": 0.852907284587,
			"0.015": 0.263182466139,
			"0.016": 0.661226444302,
			"0.017": 0.91715708991,
			"0.018": 0.733355211085,
			"0.019": 0.543797160638,
			"0.02": 0.318922511925,
			"0.021": 0.0,
			"0.022": 0.0,
			"0.023": 0.0,
			"0.024": 0.0,
			"0.025": 0.0
		}
	}
}
