{
	 "smiles": "NS(=O)(=O)C1=C2OCCOC2=CC=C1", 
	 "Tm": 447.15, 
	 "num_atms": 23, 
	 "gaussian": { 
		 "optdone": 1, 
		 "sigma_profile": "yes", 
		 "theory": "DFT", 
		 "functional": "B3LYP", 
		 "basiset": "6-31G**", 
		 "properties": { 
			 "R2extent": 3892.3201, 
			 "electric_dipole_moment_norm": 6.98145799744, 
			 "electric_quadrupole_moment_norm": 29.2300438978, 
			 "total_energy": -1064.017492, 
			 "HOMO_LUMO_gap": 0.20003, 
			 "cosmo_polarized_energy": -20.82, 
			 "cosmo_cavitation_energy": 27.6, 
			 "cosmo_dispersion_energy": -21.21, 
			 "cosmo_repulsion_energy": 1.62, 
			 "cosmo_total_nonelectrostatic_energy": 8.01, 
			 "SMD_solvation_energy": 4.55 
		},
		"coords": [
			{
				"x": 1.6593154162,
				"y": -3.1535033426,
				"z": -2.5257234576,
				"element": "N" 
			},
			{
				"x": 2.1376476978,
				"y": -1.5461822209,
				"z": -2.4477459195,
				"element": "S" 
			},
			{
				"x": 3.1928163124,
				"y": -1.4723950403,
				"z": -1.4418013659,
				"element": "O" 
			},
			{
				"x": 2.3518754167,
				"y": -1.1201883074,
				"z": -3.8308772228,
				"element": "O" 
			},
			{
				"x": 0.7149802192,
				"y": -0.6246729269,
				"z": -1.8345029487,
				"element": "C" 
			},
			{
				"x": 0.1038180519,
				"y": -0.9736144286,
				"z": -0.6209375069,
				"element": "C" 
			},
			{
				"x": 0.5367458946,
				"y": -2.0924237755,
				"z": 0.0463094252,
				"element": "O" 
			},
			{
				"x": -0.310323581,
				"y": -2.5155364805,
				"z": 1.1228282782,
				"element": "C" 
			},
			{
				"x": -0.790042248,
				"y": -1.3112707548,
				"z": 1.9126961628,
				"element": "C" 
			},
			{
				"x": -1.5551606207,
				"y": -0.4524887898,
				"z": 1.0667247969,
				"element": "O" 
			},
			{
				"x": -0.9445182894,
				"y": -0.1767477027,
				"z": -0.130888688,
				"element": "C" 
			},
			{
				"x": -1.3898224324,
				"y": 0.922554616,
				"z": -0.866431353,
				"element": "C" 
			},
			{
				"x": -0.7914133695,
				"y": 1.2435089691,
				"z": -2.0826734806,
				"element": "C" 
			},
			{
				"x": 0.2717070819,
				"y": 0.4785173689,
				"z": -2.5644505084,
				"element": "C" 
			},
			{
				"x": 0.9651051586,
				"y": -3.2996048043,
				"z": -3.252747195,
				"element": "H" 
			},
			{
				"x": 1.3520333971,
				"y": -3.4813525895,
				"z": -1.6136896445,
				"element": "H" 
			},
			{
				"x": -1.1704652037,
				"y": -3.0658660662,
				"z": 0.7197027685,
				"element": "H" 
			},
			{
				"x": 0.2925222701,
				"y": -3.1871517509,
				"z": 1.7382686305,
				"element": "H" 
			},
			{
				"x": -1.4497266874,
				"y": -1.6126225213,
				"z": 2.729534688,
				"element": "H" 
			},
			{
				"x": 0.0683780229,
				"y": -0.764547795,
				"z": 2.3248957959,
				"element": "H" 
			},
			{
				"x": -2.204654764,
				"y": 1.5121013096,
				"z": -0.4589518001,
				"element": "H" 
			},
			{
				"x": -1.1438033766,
				"y": 2.0997029369,
				"z": -2.6483268534,
				"element": "H" 
			},
			{
				"x": 0.7658856333,
				"y": 0.7151840968,
				"z": -3.4994126016,
				"element": "H" 
			}
		],
		 "valence_orbital": [ 
			{
				"type": "occ",
				"energy": -0.30708,
				"method": "rhf"
			},
			{
				"type": "occ",
				"energy": -0.29635,
				"method": "rhf"
			},
			{
				"type": "occ",
				"energy": -0.29145,
				"method": "rhf"
			},
			{
				"type": "occ",
				"energy": -0.25599,
				"method": "rhf"
			},
			{
				"type": "occ",
				"energy": -0.23391,
				"method": "rhf"
			},
			{
				"type": "unocc",
				"energy": -0.03388,
				"method": "rhf"
			},
			{
				"type": "unocc",
				"energy": -0.00675,
				"method": "rhf"
			},
			{
				"type": "unocc",
				"energy": 0.04719,
				"method": "rhf"
			},
			{
				"type": "unocc",
				"energy": 0.06505,
				"method": "rhf"
			},
			{
				"type": "unocc",
				"energy": 0.08479,
				"method": "rhf"
			}
		],
		"cosmo_sigma_profile": { 
			"-0.025": 0.0,
			"-0.024": 0.0,
			"-0.023": 0.0,
			"-0.022": 0.0,
			"-0.021": 0.0,
			"-0.02": 0.0,
			"-0.019": 0.0,
			"-0.018": 0.0,
			"-0.017": 0.0,
			"-0.016": 0.0481102033331,
			"-0.015": 1.33134739996,
			"-0.014": 1.25861575899,
			"-0.013": 1.38529967401,
			"-0.012": 2.05327518132,
			"-0.011": 2.48146018983,
			"-0.01": 2.00639329229,
			"-0.009": 1.51424424237,
			"-0.008": 4.84525206101,
			"-0.007": 16.3504768844,
			"-0.006": 19.3828022156,
			"-0.005": 16.6539034977,
			"-0.004": 12.9266259695,
			"-0.003": 10.5194682612,
			"-0.002": 9.02668295444,
			"-0.001": 9.25426586556,
			"0.0": 9.1313465281,
			"0.001": 10.5341288253,
			"0.002": 13.5123492225,
			"0.003": 11.6038503515,
			"0.004": 8.18280308013,
			"0.005": 4.5608131296,
			"0.006": 6.00785137767,
			"0.007": 5.07308134191,
			"0.008": 6.83165568082,
			"0.009": 7.31731960052,
			"0.01": 8.01696436088,
			"0.011": 12.9586059887,
			"0.012": 4.70663834512,
			"0.013": 0.393800061554,
			"0.014": 0.0176734702074,
			"0.015": 0.0,
			"0.016": 0.0,
			"0.017": 0.0,
			"0.018": 0.0,
			"0.019": 0.0,
			"0.02": 0.0,
			"0.021": 0.0,
			"0.022": 0.0,
			"0.023": 0.0,
			"0.024": 0.0,
			"0.025": 0.0
		}
	}
}
