{
	 "smiles": "O=C1NC2=CC=CC=C2C1=O", 
	 "Tm": 475.15, 
	 "num_atms": 16, 
	 "gaussian": { 
		 "optdone": 1, 
		 "sigma_profile": "yes", 
		 "theory": "DFT", 
		 "functional": "B3LYP", 
		 "basiset": "6-31G**", 
		 "properties": { 
			 "R2extent": 1775.2887, 
			 "electric_dipole_moment_norm": 5.90145734035, 
			 "electric_quadrupole_moment_norm": 15.1684245194, 
			 "total_energy": -513.063155304, 
			 "HOMO_LUMO_gap": 0.14342, 
			 "cosmo_polarized_energy": -15.07, 
			 "cosmo_cavitation_energy": 21.28, 
			 "cosmo_dispersion_energy": -15.84, 
			 "cosmo_repulsion_energy": 1.26, 
			 "cosmo_total_nonelectrostatic_energy": 6.7, 
			 "SMD_solvation_energy": 5.03 
		},
		"coords": [
			{
				"x": -0.1783289386,
				"y": 2.0187245636,
				"z": -3.5101316957,
				"element": "O" 
			},
			{
				"x": -0.1767323147,
				"y": 1.4273036966,
				"z": -2.4549386582,
				"element": "C" 
			},
			{
				"x": -1.2563313434,
				"y": 1.2204367379,
				"z": -1.608670391,
				"element": "N" 
			},
			{
				"x": -0.8994932581,
				"y": 0.4917234913,
				"z": -0.4646896476,
				"element": "C" 
			},
			{
				"x": -1.7016768907,
				"y": 0.0951191478,
				"z": 0.5980499737,
				"element": "C" 
			},
			{
				"x": -1.094686526,
				"y": -0.6329064912,
				"z": 1.6304394792,
				"element": "C" 
			},
			{
				"x": 0.2675089338,
				"y": -0.9573276368,
				"z": 1.6083384482,
				"element": "C" 
			},
			{
				"x": 1.0631353322,
				"y": -0.5525392278,
				"z": 0.5338677491,
				"element": "C" 
			},
			{
				"x": 0.4730981172,
				"y": 0.1712890335,
				"z": -0.4985011116,
				"element": "C" 
			},
			{
				"x": 1.0346348444,
				"y": 0.7276041252,
				"z": -1.7399994929,
				"element": "C" 
			},
			{
				"x": 2.1629884962,
				"y": 0.6944837191,
				"z": -2.1794027188,
				"element": "O" 
			},
			{
				"x": -2.1834376806,
				"y": 1.5639825862,
				"z": -1.8126627051,
				"element": "H" 
			},
			{
				"x": -2.7592291773,
				"y": 0.3372424294,
				"z": 0.6326034824,
				"element": "H" 
			},
			{
				"x": -1.7038813284,
				"y": -0.9528849171,
				"z": 2.4710797257,
				"element": "H" 
			},
			{
				"x": 0.7005338128,
				"y": -1.5226379946,
				"z": 2.4269294794,
				"element": "H" 
			},
			{
				"x": 2.1219979214,
				"y": -0.7887132631,
				"z": 0.4881880833,
				"element": "H" 
			}
		],
		 "valence_orbital": [ 
			{
				"type": "occ",
				"energy": -0.32956,
				"method": "rhf"
			},
			{
				"type": "occ",
				"energy": -0.31006,
				"method": "rhf"
			},
			{
				"type": "occ",
				"energy": -0.27919,
				"method": "rhf"
			},
			{
				"type": "occ",
				"energy": -0.24676,
				"method": "rhf"
			},
			{
				"type": "occ",
				"energy": -0.24092,
				"method": "rhf"
			},
			{
				"type": "unocc",
				"energy": -0.0975,
				"method": "rhf"
			},
			{
				"type": "unocc",
				"energy": -0.02328,
				"method": "rhf"
			},
			{
				"type": "unocc",
				"energy": 0.00676,
				"method": "rhf"
			},
			{
				"type": "unocc",
				"energy": 0.07461,
				"method": "rhf"
			},
			{
				"type": "unocc",
				"energy": 0.0813,
				"method": "rhf"
			}
		],
		"cosmo_sigma_profile": { 
			"-0.025": 0.0,
			"-0.024": 0.0,
			"-0.023": 0.0,
			"-0.022": 0.0,
			"-0.021": 0.0,
			"-0.02": 0.0,
			"-0.019": 0.0,
			"-0.018": 0.0,
			"-0.017": 0.317761871994,
			"-0.016": 1.57929487921,
			"-0.015": 1.29807012079,
			"-0.014": 1.2768424222,
			"-0.013": 1.07724266443,
			"-0.012": 1.10905862885,
			"-0.011": 1.2503136943,
			"-0.01": 1.05065544427,
			"-0.009": 1.42059068622,
			"-0.008": 2.73552388779,
			"-0.007": 9.21645847461,
			"-0.006": 10.6947429188,
			"-0.005": 12.136007806,
			"-0.004": 8.29514377234,
			"-0.003": 10.2132623148,
			"-0.002": 8.67557647553,
			"-0.001": 12.0848476271,
			"0.0": 11.7695018272,
			"0.001": 10.6103087685,
			"0.002": 11.9165213492,
			"0.003": 11.6640883923,
			"0.004": 4.28393742303,
			"0.005": 1.67804796745,
			"0.006": 3.43669039167,
			"0.007": 2.22267448658,
			"0.008": 3.23841902379,
			"0.009": 5.21695824387,
			"0.01": 7.44351621297,
			"0.011": 9.53178722794,
			"0.012": 3.95354237474,
			"0.013": 0.361386585562,
			"0.014": 0.0,
			"0.015": 0.0,
			"0.016": 0.0,
			"0.017": 0.0,
			"0.018": 0.0,
			"0.019": 0.0,
			"0.02": 0.0,
			"0.021": 0.0,
			"0.022": 0.0,
			"0.023": 0.0,
			"0.024": 0.0,
			"0.025": 0.0
		}
	}
}
