{
	 "smiles": "CN1C(=O)OC2=C1C=C(N)C=C2", 
	 "Tm": 503.15, 
	 "num_atms": 20, 
	 "gaussian": { 
		 "optdone": 1, 
		 "sigma_profile": "yes", 
		 "theory": "DFT", 
		 "functional": "B3LYP", 
		 "basiset": "6-31G**", 
		 "properties": { 
			 "R2extent": 2490.0237, 
			 "electric_dipole_moment_norm": 5.6098014546, 
			 "electric_quadrupole_moment_norm": 16.8295661349, 
			 "total_energy": -569.644870868, 
			 "HOMO_LUMO_gap": 0.18874, 
			 "cosmo_polarized_energy": -14.77, 
			 "cosmo_cavitation_energy": 24.22, 
			 "cosmo_dispersion_energy": -18.17, 
			 "cosmo_repulsion_energy": 1.43, 
			 "cosmo_total_nonelectrostatic_energy": 7.48, 
			 "SMD_solvation_energy": 5.47 
		},
		"coords": [
			{
				"x": 2.7266616884,
				"y": 1.7693242352,
				"z": 0.4107206427,
				"element": "C" 
			},
			{
				"x": 1.9344918974,
				"y": 0.8057747245,
				"z": 1.145779823,
				"element": "N" 
			},
			{
				"x": 2.1753489332,
				"y": 0.4909599112,
				"z": 2.4776842695,
				"element": "C" 
			},
			{
				"x": 3.0309867639,
				"y": 0.9293181791,
				"z": 3.2076157598,
				"element": "O" 
			},
			{
				"x": 1.2342242452,
				"y": -0.4514588933,
				"z": 2.8559225228,
				"element": "O" 
			},
			{
				"x": 0.426324822,
				"y": -0.7059191136,
				"z": 1.7618082013,
				"element": "C" 
			},
			{
				"x": 0.8484823191,
				"y": 0.0711380652,
				"z": 0.6807247095,
				"element": "C" 
			},
			{
				"x": 0.2138760565,
				"y": 0.0123993985,
				"z": -0.5516339929,
				"element": "C" 
			},
			{
				"x": -0.8831032626,
				"y": -0.8668010602,
				"z": -0.6775517611,
				"element": "C" 
			},
			{
				"x": -1.5963945305,
				"y": -0.9177753436,
				"z": -1.88113642,
				"element": "N" 
			},
			{
				"x": -1.2946207716,
				"y": -1.6434142933,
				"z": 0.4225935326,
				"element": "C" 
			},
			{
				"x": -0.64312133,
				"y": -1.5711360117,
				"z": 1.6610350724,
				"element": "C" 
			},
			{
				"x": 3.4898956398,
				"y": 2.1500203044,
				"z": 1.0903356976,
				"element": "H" 
			},
			{
				"x": 3.2109617263,
				"y": 1.29853261,
				"z": -0.4515726789,
				"element": "H" 
			},
			{
				"x": 2.1039134057,
				"y": 2.6000631091,
				"z": 0.0619022244,
				"element": "H" 
			},
			{
				"x": 0.5362937263,
				"y": 0.6224973567,
				"z": -1.3895788048,
				"element": "H" 
			},
			{
				"x": -2.1222434042,
				"y": -1.7694657598,
				"z": -2.0230328313,
				"element": "H" 
			},
			{
				"x": -1.0608639174,
				"y": -0.6755227696,
				"z": -2.7037085063,
				"element": "H" 
			},
			{
				"x": -2.1437897297,
				"y": -2.3109724901,
				"z": 0.3081182433,
				"element": "H" 
			},
			{
				"x": -0.9643242779,
				"y": -2.1727621588,
				"z": 2.5038742964,
				"element": "H" 
			}
		],
		 "valence_orbital": [ 
			{
				"type": "occ",
				"energy": -0.32983,
				"method": "rhf"
			},
			{
				"type": "occ",
				"energy": -0.28417,
				"method": "rhf"
			},
			{
				"type": "occ",
				"energy": -0.28299,
				"method": "rhf"
			},
			{
				"type": "occ",
				"energy": -0.23385,
				"method": "rhf"
			},
			{
				"type": "occ",
				"energy": -0.19725,
				"method": "rhf"
			},
			{
				"type": "unocc",
				"energy": -0.00851,
				"method": "rhf"
			},
			{
				"type": "unocc",
				"energy": 0.01861,
				"method": "rhf"
			},
			{
				"type": "unocc",
				"energy": 0.05466,
				"method": "rhf"
			},
			{
				"type": "unocc",
				"energy": 0.07293,
				"method": "rhf"
			},
			{
				"type": "unocc",
				"energy": 0.09431,
				"method": "rhf"
			}
		],
		"cosmo_sigma_profile": { 
			"-0.025": 0.0,
			"-0.024": 0.0,
			"-0.023": 0.0,
			"-0.022": 0.0,
			"-0.021": 0.0,
			"-0.02": 0.0,
			"-0.019": 0.0,
			"-0.018": 0.0,
			"-0.017": 0.0,
			"-0.016": 0.0,
			"-0.015": 0.0,
			"-0.014": 0.0,
			"-0.013": 0.431396404125,
			"-0.012": 2.42350357322,
			"-0.011": 3.16519877618,
			"-0.01": 2.69918486021,
			"-0.009": 3.38104349455,
			"-0.008": 3.46858132039,
			"-0.007": 6.46573590781,
			"-0.006": 12.5131449969,
			"-0.005": 14.5971954192,
			"-0.004": 14.9686970832,
			"-0.003": 15.9842789937,
			"-0.002": 12.8231611905,
			"-0.001": 8.92964966767,
			"0.0": 7.3380592329,
			"0.001": 8.20626421184,
			"0.002": 10.2272329458,
			"0.003": 9.58348428751,
			"0.004": 9.57425871981,
			"0.005": 10.7412054065,
			"0.006": 5.88508554054,
			"0.007": 3.73161755243,
			"0.008": 5.28751183261,
			"0.009": 3.72012166119,
			"0.01": 3.03001864491,
			"0.011": 2.90086611265,
			"0.012": 6.657664029,
			"0.013": 3.52378751507,
			"0.014": 0.588746628521,
			"0.015": 0.296501353079,
			"0.016": 0.0,
			"0.017": 0.0,
			"0.018": 0.0,
			"0.019": 0.0,
			"0.02": 0.0,
			"0.021": 0.0,
			"0.022": 0.0,
			"0.023": 0.0,
			"0.024": 0.0,
			"0.025": 0.0
		}
	}
}
