{
	 "smiles": "CN1C=C(C=O)C(=N1)C1=CN=CC=C1", 
	 "Tm": 360.15, 
	 "num_atms": 23, 
	 "gaussian": { 
		 "optdone": 1, 
		 "sigma_profile": "yes", 
		 "theory": "DFT", 
		 "functional": "B3LYP", 
		 "basiset": "6-31G**", 
		 "properties": { 
			 "R2extent": 4354.2664, 
			 "electric_dipole_moment_norm": 5.08685845685, 
			 "electric_quadrupole_moment_norm": 25.8018802166, 
			 "total_energy": -625.934621056, 
			 "HOMO_LUMO_gap": 0.19072, 
			 "cosmo_polarized_energy": -14.53, 
			 "cosmo_cavitation_energy": 28.15, 
			 "cosmo_dispersion_energy": -20.35, 
			 "cosmo_repulsion_energy": 1.59, 
			 "cosmo_total_nonelectrostatic_energy": 9.39, 
			 "SMD_solvation_energy": 3.9 
		},
		"coords": [
			{
				"x": 0.8655916416,
				"y": 3.3352386109,
				"z": -0.1475908512,
				"element": "C" 
			},
			{
				"x": 1.4486618863,
				"y": 2.0813784007,
				"z": 0.2970062986,
				"element": "N" 
			},
			{
				"x": 2.7475153924,
				"y": 1.7889113864,
				"z": 0.4923471556,
				"element": "C" 
			},
			{
				"x": 2.8067666177,
				"y": 0.4717217972,
				"z": 0.9387733284,
				"element": "C" 
			},
			{
				"x": 4.0497482589,
				"y": -0.2630934404,
				"z": 1.1684332049,
				"element": "C" 
			},
			{
				"x": 5.1566948517,
				"y": 0.2487490017,
				"z": 1.1051352327,
				"element": "O" 
			},
			{
				"x": 1.4377079991,
				"y": 0.0548803034,
				"z": 0.9878390483,
				"element": "C" 
			},
			{
				"x": 0.6286939315,
				"y": 1.0429010176,
				"z": 0.593532398,
				"element": "N" 
			},
			{
				"x": 0.8579233833,
				"y": -1.238022388,
				"z": 1.38695747,
				"element": "C" 
			},
			{
				"x": 1.4155637693,
				"y": -2.0217201957,
				"z": 2.4107323492,
				"element": "C" 
			},
			{
				"x": 0.9234713595,
				"y": -3.1990291349,
				"z": 2.8076349169,
				"element": "N" 
			},
			{
				"x": -0.1797126445,
				"y": -3.644931945,
				"z": 2.1954013683,
				"element": "C" 
			},
			{
				"x": -0.8363476227,
				"y": -2.9381673614,
				"z": 1.1851875611,
				"element": "C" 
			},
			{
				"x": -0.3090773518,
				"y": -1.7190247374,
				"z": 0.7742500354,
				"element": "C" 
			},
			{
				"x": 0.233877103,
				"y": 3.7539023474,
				"z": 0.6398335044,
				"element": "H" 
			},
			{
				"x": 0.2571083123,
				"y": 3.1624328571,
				"z": -1.0381325192,
				"element": "H" 
			},
			{
				"x": 1.6686036062,
				"y": 4.0348382127,
				"z": -0.3828168923,
				"element": "H" 
			},
			{
				"x": 3.5444896874,
				"y": 2.4911733351,
				"z": 0.2980338274,
				"element": "H" 
			},
			{
				"x": 3.9370891866,
				"y": -1.3434717155,
				"z": 1.3899463853,
				"element": "H" 
			},
			{
				"x": 2.2898246433,
				"y": -1.6663475656,
				"z": 2.9524762818,
				"element": "H" 
			},
			{
				"x": -0.558836362,
				"y": -4.6086467035,
				"z": 2.5307867992,
				"element": "H" 
			},
			{
				"x": -1.735283221,
				"y": -3.3410839426,
				"z": 0.7290864479,
				"element": "H" 
			},
			{
				"x": -0.7785744283,
				"y": -1.1347881403,
				"z": -0.0103533507,
				"element": "H" 
			}
		],
		 "valence_orbital": [ 
			{
				"type": "occ",
				"energy": -0.28147,
				"method": "rhf"
			},
			{
				"type": "occ",
				"energy": -0.26188,
				"method": "rhf"
			},
			{
				"type": "occ",
				"energy": -0.2574,
				"method": "rhf"
			},
			{
				"type": "occ",
				"energy": -0.24981,
				"method": "rhf"
			},
			{
				"type": "occ",
				"energy": -0.2414,
				"method": "rhf"
			},
			{
				"type": "unocc",
				"energy": -0.05068,
				"method": "rhf"
			},
			{
				"type": "unocc",
				"energy": -0.03299,
				"method": "rhf"
			},
			{
				"type": "unocc",
				"energy": -0.02284,
				"method": "rhf"
			},
			{
				"type": "unocc",
				"energy": 0.02126,
				"method": "rhf"
			},
			{
				"type": "unocc",
				"energy": 0.0828,
				"method": "rhf"
			}
		],
		"cosmo_sigma_profile": { 
			"-0.025": 0.0,
			"-0.024": 0.0,
			"-0.023": 0.0,
			"-0.022": 0.0,
			"-0.021": 0.0,
			"-0.02": 0.0,
			"-0.019": 0.0,
			"-0.018": 0.0,
			"-0.017": 0.0,
			"-0.016": 0.0,
			"-0.015": 0.0,
			"-0.014": 0.0,
			"-0.013": 0.0,
			"-0.012": 0.0,
			"-0.011": 0.570575493437,
			"-0.01": 2.64611304593,
			"-0.009": 2.22024954491,
			"-0.008": 3.81956607257,
			"-0.007": 11.7016131144,
			"-0.006": 17.3325567924,
			"-0.005": 19.410970319,
			"-0.004": 19.5487336854,
			"-0.003": 14.70177066,
			"-0.002": 9.52603442921,
			"-0.001": 12.4024939414,
			"0.0": 15.4853567508,
			"0.001": 20.1516812734,
			"0.002": 19.1052954334,
			"0.003": 8.63330709777,
			"0.004": 6.29218747975,
			"0.005": 4.66511977907,
			"0.006": 3.82022285837,
			"0.007": 4.92769311079,
			"0.008": 2.99988854603,
			"0.009": 4.49945665983,
			"0.01": 4.15483171472,
			"0.011": 4.99996136505,
			"0.012": 6.21206344047,
			"0.013": 3.22832277672,
			"0.014": 1.63407483287,
			"0.015": 0.95924664657,
			"0.016": 0.667573564764,
			"0.017": 0.144955175043,
			"0.018": 0.0,
			"0.019": 0.0,
			"0.02": 0.0,
			"0.021": 0.0,
			"0.022": 0.0,
			"0.023": 0.0,
			"0.024": 0.0,
			"0.025": 0.0
		}
	}
}
