{
	 "smiles": "CCCCN(C)S(=O)(=O)C1=CC=C(N)C=C1", 
	 "Tm": 351.15, 
	 "num_atms": 34, 
	 "gaussian": { 
		 "optdone": 1, 
		 "sigma_profile": "yes", 
		 "theory": "DFT", 
		 "functional": "B3LYP", 
		 "basiset": "6-31G**", 
		 "properties": { 
			 "R2extent": 5095.7332, 
			 "electric_dipole_moment_norm": 6.52228171808, 
			 "electric_quadrupole_moment_norm": 25.952737814, 
			 "total_energy": -1088.09712779, 
			 "HOMO_LUMO_gap": 0.20055, 
			 "cosmo_polarized_energy": -18.52, 
			 "cosmo_cavitation_energy": 37.3, 
			 "cosmo_dispersion_energy": -25.92, 
			 "cosmo_repulsion_energy": 1.99, 
			 "cosmo_total_nonelectrostatic_energy": 13.38, 
			 "SMD_solvation_energy": 5.53 
		},
		"coords": [
			{
				"x": -3.4664299748,
				"y": -2.2187795078,
				"z": -0.3619764481,
				"element": "C" 
			},
			{
				"x": -2.1424912482,
				"y": -2.0635739373,
				"z": -1.1207084877,
				"element": "C" 
			},
			{
				"x": -2.0204677777,
				"y": -0.7642326644,
				"z": -1.9313379472,
				"element": "C" 
			},
			{
				"x": -1.9181259548,
				"y": 0.5147955207,
				"z": -1.0919518891,
				"element": "C" 
			},
			{
				"x": -0.7212772235,
				"y": 0.5250535016,
				"z": -0.2062922209,
				"element": "N" 
			},
			{
				"x": -0.9807441296,
				"y": 0.8666351986,
				"z": 1.1984458157,
				"element": "C" 
			},
			{
				"x": 0.6242218487,
				"y": 1.3461595671,
				"z": -0.8572987478,
				"element": "S" 
			},
			{
				"x": 0.6022971631,
				"y": 1.0606276426,
				"z": -2.2971330321,
				"element": "O" 
			},
			{
				"x": 0.6657324468,
				"y": 2.7399099,
				"z": -0.3850711727,
				"element": "O" 
			},
			{
				"x": 1.9901536447,
				"y": 0.4855203648,
				"z": -0.1016502939,
				"element": "C" 
			},
			{
				"x": 2.2600262044,
				"y": -0.8408041949,
				"z": -0.4579888537,
				"element": "C" 
			},
			{
				"x": 3.3443912839,
				"y": -1.4988771799,
				"z": 0.1020102164,
				"element": "C" 
			},
			{
				"x": 4.1857721948,
				"y": -0.8417728644,
				"z": 1.0249399497,
				"element": "C" 
			},
			{
				"x": 5.2962144713,
				"y": -1.4846678297,
				"z": 1.5432267291,
				"element": "N" 
			},
			{
				"x": 3.9043923785,
				"y": 0.4951800257,
				"z": 1.3655615936,
				"element": "C" 
			},
			{
				"x": 2.8171877057,
				"y": 1.1543072857,
				"z": 0.8039962822,
				"element": "C" 
			},
			{
				"x": -3.5081942078,
				"y": -3.1759200652,
				"z": 0.1684455435,
				"element": "H" 
			},
			{
				"x": -3.6104660209,
				"y": -1.429418815,
				"z": 0.3843851338,
				"element": "H" 
			},
			{
				"x": -4.3218950537,
				"y": -2.1816035155,
				"z": -1.0466242164,
				"element": "H" 
			},
			{
				"x": -1.302547448,
				"y": -2.1218640632,
				"z": -0.4172870036,
				"element": "H" 
			},
			{
				"x": -2.0269442228,
				"y": -2.9121966987,
				"z": -1.8066196701,
				"element": "H" 
			},
			{
				"x": -2.891828113,
				"y": -0.6595952439,
				"z": -2.5934123263,
				"element": "H" 
			},
			{
				"x": -1.1403898869,
				"y": -0.8102653923,
				"z": -2.5797292721,
				"element": "H" 
			},
			{
				"x": -2.7880200425,
				"y": 0.6153467558,
				"z": -0.435403006,
				"element": "H" 
			},
			{
				"x": -1.9248837896,
				"y": 1.3883790748,
				"z": -1.7524983403,
				"element": "H" 
			},
			{
				"x": -1.3623098523,
				"y": 1.8876163622,
				"z": 1.3291294239,
				"element": "H" 
			},
			{
				"x": -1.7077997926,
				"y": 0.1529955262,
				"z": 1.5941662083,
				"element": "H" 
			},
			{
				"x": -0.0603754127,
				"y": 0.7615475644,
				"z": 1.7783807268,
				"element": "H" 
			},
			{
				"x": 1.6229843136,
				"y": -1.3495505036,
				"z": -1.1735277322,
				"element": "H" 
			},
			{
				"x": 3.5575273078,
				"y": -2.5273056201,
				"z": -0.1774976938,
				"element": "H" 
			},
			{
				"x": 5.6919827145,
				"y": -1.1034838519,
				"z": 2.389647246,
				"element": "H" 
			},
			{
				"x": 5.2962341525,
				"y": -2.4933749673,
				"z": 1.5145544836,
				"element": "H" 
			},
			{
				"x": 4.5502631329,
				"y": 1.0169885101,
				"z": 2.0667824361,
				"element": "H" 
			},
			{
				"x": 2.6035091879,
				"y": 2.1875241145,
				"z": 1.0551365652,
				"element": "H" 
			}
		],
		 "valence_orbital": [ 
			{
				"type": "occ",
				"energy": -0.29287,
				"method": "rhf"
			},
			{
				"type": "occ",
				"energy": -0.28417,
				"method": "rhf"
			},
			{
				"type": "occ",
				"energy": -0.26487,
				"method": "rhf"
			},
			{
				"type": "occ",
				"energy": -0.24229,
				"method": "rhf"
			},
			{
				"type": "occ",
				"energy": -0.21925,
				"method": "rhf"
			},
			{
				"type": "unocc",
				"energy": -0.0187,
				"method": "rhf"
			},
			{
				"type": "unocc",
				"energy": -0.01308,
				"method": "rhf"
			},
			{
				"type": "unocc",
				"energy": 0.06161,
				"method": "rhf"
			},
			{
				"type": "unocc",
				"energy": 0.07005,
				"method": "rhf"
			},
			{
				"type": "unocc",
				"energy": 0.07854,
				"method": "rhf"
			}
		],
		"cosmo_sigma_profile": { 
			"-0.025": 0.0,
			"-0.024": 0.0,
			"-0.023": 0.0,
			"-0.022": 0.0,
			"-0.021": 0.0,
			"-0.02": 0.0,
			"-0.019": 0.0,
			"-0.018": 0.0,
			"-0.017": 0.0,
			"-0.016": 0.0,
			"-0.015": 0.0,
			"-0.014": 0.207684816416,
			"-0.013": 3.06778416727,
			"-0.012": 2.19709586555,
			"-0.011": 3.47675363185,
			"-0.01": 3.24479204742,
			"-0.009": 3.83183422772,
			"-0.008": 3.04444928955,
			"-0.007": 4.10266299616,
			"-0.006": 7.5070339319,
			"-0.005": 14.4982882694,
			"-0.004": 18.4810514019,
			"-0.003": 22.9704041944,
			"-0.002": 32.4067571067,
			"-0.001": 25.9622310396,
			"0.0": 28.0190646636,
			"0.001": 25.9740993743,
			"0.002": 17.1414957289,
			"0.003": 12.8586008287,
			"0.004": 18.2082444823,
			"0.005": 7.30905323405,
			"0.006": 4.70121552132,
			"0.007": 2.92882177135,
			"0.008": 3.95638027279,
			"0.009": 4.14644606864,
			"0.01": 5.03284361134,
			"0.011": 8.22743447701,
			"0.012": 7.50410215837,
			"0.013": 1.41927211155,
			"0.014": 0.0,
			"0.015": 0.0,
			"0.016": 0.0,
			"0.017": 0.0,
			"0.018": 0.0,
			"0.019": 0.0,
			"0.02": 0.0,
			"0.021": 0.0,
			"0.022": 0.0,
			"0.023": 0.0,
			"0.024": 0.0,
			"0.025": 0.0
		}
	}
}
