{
	 "smiles": "FC1=C(C=C2N(CC#C)C(=O)COC2=C1)N1C(=O)C2=C(CCCC2)C1=O", 
	 "Tm": 476.15, 
	 "num_atms": 41, 
	 "gaussian": { 
		 "optdone": 1, 
		 "sigma_profile": "yes", 
		 "theory": "DFT", 
		 "functional": "B3LYP", 
		 "basiset": "6-31G**", 
		 "properties": { 
			 "R2extent": 11211.1046, 
			 "electric_dipole_moment_norm": 4.05045018115, 
			 "electric_quadrupole_moment_norm": 14.3216866957, 
			 "total_energy": -1243.23950542, 
			 "HOMO_LUMO_gap": 0.13299, 
			 "cosmo_polarized_energy": -18.75, 
			 "cosmo_cavitation_energy": 46.29, 
			 "cosmo_dispersion_energy": -31.45, 
			 "cosmo_repulsion_energy": 2.35, 
			 "cosmo_total_nonelectrostatic_energy": 17.19, 
			 "SMD_solvation_energy": 10.83 
		},
		"coords": [
			{
				"x": 0.8605718385,
				"y": -3.2881945943,
				"z": 0.8690118604,
				"element": "F" 
			},
			{
				"x": 0.7374907301,
				"y": -2.1798887156,
				"z": 1.6188256446,
				"element": "C" 
			},
			{
				"x": 0.4041571662,
				"y": -0.9705561561,
				"z": 1.0059745553,
				"element": "C" 
			},
			{
				"x": 0.244792083,
				"y": 0.1688312953,
				"z": 1.8013643651,
				"element": "C" 
			},
			{
				"x": 0.4242393695,
				"y": 0.1038165654,
				"z": 3.1843361596,
				"element": "C" 
			},
			{
				"x": 0.3512601207,
				"y": 1.2474487495,
				"z": 4.0188043192,
				"element": "N" 
			},
			{
				"x": 0.388281677,
				"y": 2.602717753,
				"z": 3.4531986645,
				"element": "C" 
			},
			{
				"x": -0.8680955088,
				"y": 3.0181066262,
				"z": 2.8229696728,
				"element": "C" 
			},
			{
				"x": -1.8916553315,
				"y": 3.3663400902,
				"z": 2.2864490298,
				"element": "C" 
			},
			{
				"x": 0.2569515464,
				"y": 1.1236122206,
				"z": 5.3895214623,
				"element": "C" 
			},
			{
				"x": 0.1982589592,
				"y": 2.0746199388,
				"z": 6.1535061654,
				"element": "O" 
			},
			{
				"x": 0.1909692671,
				"y": -0.3122010429,
				"z": 5.8940877904,
				"element": "C" 
			},
			{
				"x": 0.9675157621,
				"y": -1.2252320692,
				"z": 5.1189087224,
				"element": "O" 
			},
			{
				"x": 0.7579942771,
				"y": -1.1316057952,
				"z": 3.7724413222,
				"element": "C" 
			},
			{
				"x": 0.9186603606,
				"y": -2.2715751413,
				"z": 2.9917240256,
				"element": "C" 
			},
			{
				"x": 0.2167592632,
				"y": -0.9107584423,
				"z": -0.396767188,
				"element": "N" 
			},
			{
				"x": -0.9678106028,
				"y": -0.4888841436,
				"z": -1.0435177721,
				"element": "C" 
			},
			{
				"x": -1.9719106578,
				"y": -0.0870865017,
				"z": -0.4942461261,
				"element": "O" 
			},
			{
				"x": -0.7117523625,
				"y": -0.6395001537,
				"z": -2.5100248782,
				"element": "C" 
			},
			{
				"x": 0.5330425368,
				"y": -1.1100462604,
				"z": -2.6910090016,
				"element": "C" 
			},
			{
				"x": 1.1643513087,
				"y": -1.3807774474,
				"z": -4.018315463,
				"element": "C" 
			},
			{
				"x": 0.329422595,
				"y": -0.7254880379,
				"z": -5.137840402,
				"element": "C" 
			},
			{
				"x": -1.1829366638,
				"y": -0.9379261882,
				"z": -4.9315261883,
				"element": "C" 
			},
			{
				"x": -1.6788496306,
				"y": -0.3246900402,
				"z": -3.6056133873,
				"element": "C" 
			},
			{
				"x": 1.1841989214,
				"y": -1.2934841572,
				"z": -1.3561807153,
				"element": "C" 
			},
			{
				"x": 2.3114349419,
				"y": -1.6661643323,
				"z": -1.1148275709,
				"element": "O" 
			},
			{
				"x": -0.0439911611,
				"y": 1.097024896,
				"z": 1.326140276,
				"element": "H" 
			},
			{
				"x": 0.6230267051,
				"y": 3.2667279963,
				"z": 4.2893231026,
				"element": "H" 
			},
			{
				"x": 1.2102232077,
				"y": 2.6538427829,
				"z": 2.7293630333,
				"element": "H" 
			},
			{
				"x": -2.8040939387,
				"y": 3.6603990387,
				"z": 1.8209520806,
				"element": "H" 
			},
			{
				"x": -0.8620728617,
				"y": -0.6321279057,
				"z": 5.9176295574,
				"element": "H" 
			},
			{
				"x": 0.5892740376,
				"y": -0.334059981,
				"z": 6.9077759592,
				"element": "H" 
			},
			{
				"x": 1.1747673494,
				"y": -3.2174535092,
				"z": 3.4532212553,
				"element": "H" 
			},
			{
				"x": 1.2323373537,
				"y": -2.4675041175,
				"z": -4.1699848886,
				"element": "H" 
			},
			{
				"x": 2.1987455036,
				"y": -1.0182018153,
				"z": -4.0245673297,
				"element": "H" 
			},
			{
				"x": 0.636261802,
				"y": -1.1232514886,
				"z": -6.1106895527,
				"element": "H" 
			},
			{
				"x": 0.5412839718,
				"y": 0.3515280024,
				"z": -5.1575154077,
				"element": "H" 
			},
			{
				"x": -1.7414227003,
				"y": -0.5092690424,
				"z": -5.7700967996,
				"element": "H" 
			},
			{
				"x": -1.3969667873,
				"y": -2.0145932288,
				"z": -4.928560768,
				"element": "H" 
			},
			{
				"x": -2.6779999166,
				"y": -0.6918884304,
				"z": -3.3441185722,
				"element": "H" 
			},
			{
				"x": -1.7801145322,
				"y": 0.7662927831,
				"z": -3.6965270128,
				"element": "H" 
			}
		],
		 "valence_orbital": [ 
			{
				"type": "occ",
				"energy": -0.27603,
				"method": "rhf"
			},
			{
				"type": "occ",
				"energy": -0.26652,
				"method": "rhf"
			},
			{
				"type": "occ",
				"energy": -0.26412,
				"method": "rhf"
			},
			{
				"type": "occ",
				"energy": -0.24769,
				"method": "rhf"
			},
			{
				"type": "occ",
				"energy": -0.21884,
				"method": "rhf"
			},
			{
				"type": "unocc",
				"energy": -0.08585,
				"method": "rhf"
			},
			{
				"type": "unocc",
				"energy": -0.02237,
				"method": "rhf"
			},
			{
				"type": "unocc",
				"energy": -0.02095,
				"method": "rhf"
			},
			{
				"type": "unocc",
				"energy": 0.01715,
				"method": "rhf"
			},
			{
				"type": "unocc",
				"energy": 0.0345,
				"method": "rhf"
			}
		],
		"cosmo_sigma_profile": { 
			"-0.025": 0.0,
			"-0.024": 0.0,
			"-0.023": 0.0,
			"-0.022": 0.0,
			"-0.021": 0.0,
			"-0.02": 0.0,
			"-0.019": 0.0,
			"-0.018": 0.0,
			"-0.017": 0.0,
			"-0.016": 0.0,
			"-0.015": 0.0,
			"-0.014": 0.0,
			"-0.013": 0.0357864381443,
			"-0.012": 1.19330065853,
			"-0.011": 0.998056149598,
			"-0.01": 0.791908094965,
			"-0.009": 3.3435304482,
			"-0.008": 12.0078757391,
			"-0.007": 10.5715467219,
			"-0.006": 12.6604527067,
			"-0.005": 22.1268703635,
			"-0.004": 29.5858795788,
			"-0.003": 40.589688138,
			"-0.002": 36.6107154514,
			"-0.001": 29.9056044509,
			"0.0": 24.9248010982,
			"0.001": 23.3002370008,
			"0.002": 16.3131876742,
			"0.003": 16.2917215199,
			"0.004": 17.9037599307,
			"0.005": 13.2986744276,
			"0.006": 9.79894341044,
			"0.007": 7.33838554085,
			"0.008": 7.41403346546,
			"0.009": 7.01746245316,
			"0.01": 8.26854609072,
			"0.011": 11.4782878472,
			"0.012": 5.58493270678,
			"0.013": 0.975162324364,
			"0.014": 0.0,
			"0.015": 0.0,
			"0.016": 0.0,
			"0.017": 0.0,
			"0.018": 0.0,
			"0.019": 0.0,
			"0.02": 0.0,
			"0.021": 0.0,
			"0.022": 0.0,
			"0.023": 0.0,
			"0.024": 0.0,
			"0.025": 0.0
		}
	}
}
