{
	 "smiles": "[O-][N+](=O)C1=C(Cl)C=C(Cl)C=C1C=O", 
	 "Tm": 364.15, 
	 "num_atms": 16, 
	 "gaussian": { 
		 "optdone": 1, 
		 "sigma_profile": "yes", 
		 "theory": "DFT", 
		 "functional": "B3LYP", 
		 "basiset": "6-31G**", 
		 "properties": { 
			 "R2extent": 4402.2136, 
			 "electric_dipole_moment_norm": 5.02823780961, 
			 "electric_quadrupole_moment_norm": 9.97650423996, 
			 "total_energy": -1469.22338073, 
			 "HOMO_LUMO_gap": 0.17533, 
			 "cosmo_polarized_energy": -12.83, 
			 "cosmo_cavitation_energy": 26.16, 
			 "cosmo_dispersion_energy": -18.59, 
			 "cosmo_repulsion_energy": 1.46, 
			 "cosmo_total_nonelectrostatic_energy": 9.03, 
			 "SMD_solvation_energy": 7.56 
		},
		"coords": [
			{
				"x": 0.5716204037,
				"y": 2.3379987539,
				"z": 0.72278053,
				"element": "O" 
			},
			{
				"x": 0.3911108557,
				"y": 1.6706729358,
				"z": 1.7311357816,
				"element": "N" 
			},
			{
				"x": 0.836314438,
				"y": 1.8833819226,
				"z": 2.8497178527,
				"element": "O" 
			},
			{
				"x": -0.5124939147,
				"y": 0.5060994087,
				"z": 1.5946655172,
				"element": "C" 
			},
			{
				"x": -1.8780370758,
				"y": 0.6888833005,
				"z": 1.8039750494,
				"element": "C" 
			},
			{
				"x": -2.5167912607,
				"y": 2.2548560218,
				"z": 2.2185655017,
				"element": "Cl" 
			},
			{
				"x": -2.7577701886,
				"y": -0.3903737821,
				"z": 1.6828097267,
				"element": "C" 
			},
			{
				"x": -2.2542038391,
				"y": -1.6463922542,
				"z": 1.3513773748,
				"element": "C" 
			},
			{
				"x": -3.3530811273,
				"y": -2.9963436084,
				"z": 1.1996437246,
				"element": "Cl" 
			},
			{
				"x": -0.8908281846,
				"y": -1.8365924707,
				"z": 1.1407328632,
				"element": "C" 
			},
			{
				"x": -0.0080864216,
				"y": -0.7591824863,
				"z": 1.2611685807,
				"element": "C" 
			},
			{
				"x": 1.4419319386,
				"y": -1.0120928148,
				"z": 1.0265649247,
				"element": "C" 
			},
			{
				"x": 2.3083490706,
				"y": -0.1696094795,
				"z": 1.0992835447,
				"element": "O" 
			},
			{
				"x": -3.818324802,
				"y": -0.2432717169,
				"z": 1.8464988599,
				"element": "H" 
			},
			{
				"x": -0.5083131578,
				"y": -2.8188855718,
				"z": 0.8829696091,
				"element": "H" 
			},
			{
				"x": 1.6752032656,
				"y": -2.0674481585,
				"z": 0.7715105591,
				"element": "H" 
			}
		],
		 "valence_orbital": [ 
			{
				"type": "occ",
				"energy": -0.3221,
				"method": "rhf"
			},
			{
				"type": "occ",
				"energy": -0.31725,
				"method": "rhf"
			},
			{
				"type": "occ",
				"energy": -0.29871,
				"method": "rhf"
			},
			{
				"type": "occ",
				"energy": -0.28878,
				"method": "rhf"
			},
			{
				"type": "occ",
				"energy": -0.2788,
				"method": "rhf"
			},
			{
				"type": "unocc",
				"energy": -0.10347,
				"method": "rhf"
			},
			{
				"type": "unocc",
				"energy": -0.08073,
				"method": "rhf"
			},
			{
				"type": "unocc",
				"energy": -0.06215,
				"method": "rhf"
			},
			{
				"type": "unocc",
				"energy": -0.02191,
				"method": "rhf"
			},
			{
				"type": "unocc",
				"energy": -0.00305,
				"method": "rhf"
			}
		],
		"cosmo_sigma_profile": { 
			"-0.025": 0.0,
			"-0.024": 0.0,
			"-0.023": 0.0,
			"-0.022": 0.0,
			"-0.021": 0.0,
			"-0.02": 0.0,
			"-0.019": 0.0,
			"-0.018": 0.0,
			"-0.017": 0.0,
			"-0.016": 0.0,
			"-0.015": 0.0,
			"-0.014": 0.0,
			"-0.013": 0.0,
			"-0.012": 0.253850870186,
			"-0.011": 2.47362005866,
			"-0.01": 4.65478182857,
			"-0.009": 4.80903934726,
			"-0.008": 5.66788980354,
			"-0.007": 5.63604674229,
			"-0.006": 5.99909198029,
			"-0.005": 6.77042933222,
			"-0.004": 10.6662871238,
			"-0.003": 20.4809928119,
			"-0.002": 23.7356161259,
			"-0.001": 12.1908958528,
			"0.0": 12.6625175347,
			"0.001": 15.7940163024,
			"0.002": 17.0810423457,
			"0.003": 15.3117404378,
			"0.004": 6.42252697604,
			"0.005": 6.00416903455,
			"0.006": 16.0635784357,
			"0.007": 10.6371586633,
			"0.008": 5.84121890038,
			"0.009": 3.33447254599,
			"0.01": 2.06758795157,
			"0.011": 1.35883566625,
			"0.012": 0.0120159252054,
			"0.013": 0.0,
			"0.014": 0.0,
			"0.015": 0.0,
			"0.016": 0.0,
			"0.017": 0.0,
			"0.018": 0.0,
			"0.019": 0.0,
			"0.02": 0.0,
			"0.021": 0.0,
			"0.022": 0.0,
			"0.023": 0.0,
			"0.024": 0.0,
			"0.025": 0.0
		}
	}
}
