{
	 "smiles": "COC1=CC(C=NN=CC2=CC=C(OCC3=CC=CC=C3)C(OC)=C2)=CC=C1OCC1=CC=CC=C1", 
	 "Tm": 489.15, 
	 "num_atms": 64, 
	 "gaussian": { 
		 "optdone": 1, 
		 "sigma_profile": "yes", 
		 "theory": "DFT", 
		 "functional": "B3LYP", 
		 "basiset": "6-31G**", 
		 "properties": { 
			 "R2extent": 29217.4256, 
			 "electric_dipole_moment_norm": 3.94117936283, 
			 "electric_quadrupole_moment_norm": 17.6000978852, 
			 "total_energy": -1570.36649981, 
			 "HOMO_LUMO_gap": 0.14665, 
			 "cosmo_polarized_energy": -18.71, 
			 "cosmo_cavitation_energy": 69.84, 
			 "cosmo_dispersion_energy": -46.41, 
			 "cosmo_repulsion_energy": 3.52, 
			 "cosmo_total_nonelectrostatic_energy": 26.96, 
			 "SMD_solvation_energy": 12.53 
		},
		"coords": [
			{
				"x": 0.9298961413,
				"y": 3.4216883604,
				"z": -2.0845293202,
				"element": "C" 
			},
			{
				"x": 1.1620006351,
				"y": 2.2697577456,
				"z": -1.2623975316,
				"element": "O" 
			},
			{
				"x": 1.8510895038,
				"y": 1.249237644,
				"z": -1.8797815227,
				"element": "C" 
			},
			{
				"x": 1.1872261872,
				"y": 0.0627993759,
				"z": -2.164116521,
				"element": "C" 
			},
			{
				"x": 1.8608674409,
				"y": -1.0122390943,
				"z": -2.7731184226,
				"element": "C" 
			},
			{
				"x": 1.181209007,
				"y": -2.2683210727,
				"z": -3.088662984,
				"element": "C" 
			},
			{
				"x": -0.0428901363,
				"y": -2.4903573695,
				"z": -2.7573014448,
				"element": "N" 
			},
			{
				"x": -0.5338933734,
				"y": -3.7000942471,
				"z": -3.2055114852,
				"element": "N" 
			},
			{
				"x": -1.3709368562,
				"y": -4.3282162188,
				"z": -2.4498372142,
				"element": "C" 
			},
			{
				"x": -1.8830068956,
				"y": -4.081157607,
				"z": -1.098372114,
				"element": "C" 
			},
			{
				"x": -1.4452954322,
				"y": -3.0671030016,
				"z": -0.2285958064,
				"element": "C" 
			},
			{
				"x": -2.0143594181,
				"y": -2.9168472584,
				"z": 1.0346608308,
				"element": "C" 
			},
			{
				"x": -3.0255745037,
				"y": -3.7791939085,
				"z": 1.473870321,
				"element": "C" 
			},
			{
				"x": -3.6124660124,
				"y": -3.7317142187,
				"z": 2.7059925049,
				"element": "O" 
			},
			{
				"x": -3.0403093876,
				"y": -2.9050366733,
				"z": 3.7213891148,
				"element": "C" 
			},
			{
				"x": -3.4026944726,
				"y": -1.4360095286,
				"z": 3.616288797,
				"element": "C" 
			},
			{
				"x": -4.6346279759,
				"y": -1.0312487101,
				"z": 3.089866263,
				"element": "C" 
			},
			{
				"x": -4.9752038815,
				"y": 0.3210091891,
				"z": 3.0512183566,
				"element": "C" 
			},
			{
				"x": -4.092498042,
				"y": 1.283597235,
				"z": 3.5458080373,
				"element": "C" 
			},
			{
				"x": -2.8632848126,
				"y": 0.886812384,
				"z": 4.0745440096,
				"element": "C" 
			},
			{
				"x": -2.5197172496,
				"y": -0.4657081369,
				"z": 4.104846798,
				"element": "C" 
			},
			{
				"x": -3.4810064636,
				"y": -4.8027698339,
				"z": 0.6100984232,
				"element": "C" 
			},
			{
				"x": -4.4211044601,
				"y": -5.7216934123,
				"z": 1.0089964071,
				"element": "O" 
			},
			{
				"x": -5.7455737284,
				"y": -5.2232464402,
				"z": 1.204195809,
				"element": "C" 
			},
			{
				"x": -2.9082214401,
				"y": -4.9376984819,
				"z": -0.6457186231,
				"element": "C" 
			},
			{
				"x": 3.2174215878,
				"y": -0.8627183075,
				"z": -3.100828904,
				"element": "C" 
			},
			{
				"x": 3.8919176714,
				"y": 0.319608572,
				"z": -2.803966018,
				"element": "C" 
			},
			{
				"x": 3.2243366908,
				"y": 1.3775150881,
				"z": -2.1864280222,
				"element": "C" 
			},
			{
				"x": 3.9087247892,
				"y": 2.5434573355,
				"z": -1.9354578874,
				"element": "O" 
			},
			{
				"x": 4.1060767015,
				"y": 2.8561423089,
				"z": -0.5425882451,
				"element": "C" 
			},
			{
				"x": 4.8831758249,
				"y": 4.1446587486,
				"z": -0.4280753628,
				"element": "C" 
			},
			{
				"x": 4.6579197623,
				"y": 4.9972817497,
				"z": 0.6588470236,
				"element": "C" 
			},
			{
				"x": 5.4052790243,
				"y": 6.1660496845,
				"z": 0.8125453086,
				"element": "C" 
			},
			{
				"x": 6.3793396752,
				"y": 6.5014577572,
				"z": -0.1291147408,
				"element": "C" 
			},
			{
				"x": 6.6021546481,
				"y": 5.6602907877,
				"z": -1.2215957771,
				"element": "C" 
			},
			{
				"x": 5.8624688285,
				"y": 4.4866931155,
				"z": -1.3687077597,
				"element": "C" 
			},
			{
				"x": 0.3705109683,
				"y": 4.1280262293,
				"z": -1.4679995219,
				"element": "H" 
			},
			{
				"x": 1.8708173369,
				"y": 3.8776913614,
				"z": -2.4076446708,
				"element": "H" 
			},
			{
				"x": 0.3305734369,
				"y": 3.1540241702,
				"z": -2.9633889247,
				"element": "H" 
			},
			{
				"x": 0.1337882311,
				"y": -0.0241726568,
				"z": -1.921872442,
				"element": "H" 
			},
			{
				"x": 1.7569920036,
				"y": -3.0328438994,
				"z": -3.6217220369,
				"element": "H" 
			},
			{
				"x": -1.7679196987,
				"y": -5.2309504018,
				"z": -2.9185507494,
				"element": "H" 
			},
			{
				"x": -0.6621113682,
				"y": -2.3931010887,
				"z": -0.546103288,
				"element": "H" 
			},
			{
				"x": -1.669645415,
				"y": -2.1143897936,
				"z": 1.6752983604,
				"element": "H" 
			},
			{
				"x": -1.9507440262,
				"y": -3.0339034117,
				"z": 3.7425330283,
				"element": "H" 
			},
			{
				"x": -3.4387910776,
				"y": -3.3230391605,
				"z": 4.6523355618,
				"element": "H" 
			},
			{
				"x": -5.319478057,
				"y": -1.7788211851,
				"z": 2.7019933937,
				"element": "H" 
			},
			{
				"x": -5.9314911369,
				"y": 0.6237109918,
				"z": 2.6340638169,
				"element": "H" 
			},
			{
				"x": -4.358999808,
				"y": 2.336026058,
				"z": 3.514680449,
				"element": "H" 
			},
			{
				"x": -2.1673650086,
				"y": 1.6291650573,
				"z": 4.4547055491,
				"element": "H" 
			},
			{
				"x": -1.5565275003,
				"y": -0.7685861815,
				"z": 4.5099185736,
				"element": "H" 
			},
			{
				"x": -5.7923022963,
				"y": -4.5193052805,
				"z": 2.040658103,
				"element": "H" 
			},
			{
				"x": -6.36707094,
				"y": -6.0929816005,
				"z": 1.4277098838,
				"element": "H" 
			},
			{
				"x": -6.1208158077,
				"y": -4.7370761532,
				"z": 0.2941846413,
				"element": "H" 
			},
			{
				"x": -3.27210886,
				"y": -5.7433427961,
				"z": -1.2769965245,
				"element": "H" 
			},
			{
				"x": 3.7475213149,
				"y": -1.6814695144,
				"z": -3.5796247402,
				"element": "H" 
			},
			{
				"x": 4.9434872981,
				"y": 0.4440159972,
				"z": -3.042114764,
				"element": "H" 
			},
			{
				"x": 3.1391786042,
				"y": 2.9386594331,
				"z": -0.0352427776,
				"element": "H" 
			},
			{
				"x": 4.6611346063,
				"y": 2.0272473633,
				"z": -0.0777324472,
				"element": "H" 
			},
			{
				"x": 3.8913878878,
				"y": 4.7465413112,
				"z": 1.3885020004,
				"element": "H" 
			},
			{
				"x": 5.2191755463,
				"y": 6.818148529,
				"z": 1.6612877529,
				"element": "H" 
			},
			{
				"x": 6.9573253845,
				"y": 7.4141411589,
				"z": -0.0154768542,
				"element": "H" 
			},
			{
				"x": 7.3548948844,
				"y": 5.9182815357,
				"z": -1.9613989729,
				"element": "H" 
			},
			{
				"x": 6.0282439198,
				"y": 3.835620367,
				"z": -2.2204646978,
				"element": "H" 
			}
		],
		 "valence_orbital": [ 
			{
				"type": "occ",
				"energy": -0.24329,
				"method": "rhf"
			},
			{
				"type": "occ",
				"energy": -0.24218,
				"method": "rhf"
			},
			{
				"type": "occ",
				"energy": -0.23285,
				"method": "rhf"
			},
			{
				"type": "occ",
				"energy": -0.21493,
				"method": "rhf"
			},
			{
				"type": "occ",
				"energy": -0.20555,
				"method": "rhf"
			},
			{
				"type": "unocc",
				"energy": -0.0589,
				"method": "rhf"
			},
			{
				"type": "unocc",
				"energy": -0.01823,
				"method": "rhf"
			},
			{
				"type": "unocc",
				"energy": -0.01147,
				"method": "rhf"
			},
			{
				"type": "unocc",
				"energy": -0.00941,
				"method": "rhf"
			},
			{
				"type": "unocc",
				"energy": -0.00435,
				"method": "rhf"
			}
		],
		"cosmo_sigma_profile": { 
			"-0.025": 0.0,
			"-0.024": 0.0,
			"-0.023": 0.0,
			"-0.022": 0.0,
			"-0.021": 0.0,
			"-0.02": 0.0,
			"-0.019": 0.0,
			"-0.018": 0.0,
			"-0.017": 0.0,
			"-0.016": 0.0,
			"-0.015": 0.0,
			"-0.014": 0.0,
			"-0.013": 0.0,
			"-0.012": 0.0,
			"-0.011": 0.0,
			"-0.01": 0.0,
			"-0.009": 0.0,
			"-0.008": 1.13756530232,
			"-0.007": 10.3718028826,
			"-0.006": 27.0797773099,
			"-0.005": 44.968597449,
			"-0.004": 51.4919449164,
			"-0.003": 55.1108975171,
			"-0.002": 44.996912583,
			"-0.001": 41.7381544277,
			"0.0": 38.4518222113,
			"0.001": 38.2403428078,
			"0.002": 41.2099102499,
			"0.003": 45.8053921637,
			"0.004": 36.6441936667,
			"0.005": 27.2659669027,
			"0.006": 20.52742606,
			"0.007": 8.38383027017,
			"0.008": 5.64207597251,
			"0.009": 5.20913060575,
			"0.01": 5.20723113917,
			"0.011": 3.98623990705,
			"0.012": 2.38331570702,
			"0.013": 0.926589399425,
			"0.014": 0.716314338048,
			"0.015": 0.516304499725,
			"0.016": 0.0,
			"0.017": 0.0,
			"0.018": 0.0,
			"0.019": 0.0,
			"0.02": 0.0,
			"0.021": 0.0,
			"0.022": 0.0,
			"0.023": 0.0,
			"0.024": 0.0,
			"0.025": 0.0
		}
	}
}
