{
	 "smiles": "FC1=CC=C(C=C1)C(=O)C1=CC=NC=C1", 
	 "Tm": 359.15, 
	 "num_atms": 23, 
	 "gaussian": { 
		 "optdone": 1, 
		 "sigma_profile": "yes", 
		 "theory": "DFT", 
		 "functional": "B3LYP", 
		 "basiset": "6-31G**", 
		 "properties": { 
			 "R2extent": 4093.2639, 
			 "electric_dipole_moment_norm": 1.99202066505, 
			 "electric_quadrupole_moment_norm": 6.70801641545, 
			 "total_energy": -691.899356818, 
			 "HOMO_LUMO_gap": 0.17546, 
			 "cosmo_polarized_energy": -10.02, 
			 "cosmo_cavitation_energy": 28.54, 
			 "cosmo_dispersion_energy": -20.59, 
			 "cosmo_repulsion_energy": 1.56, 
			 "cosmo_total_nonelectrostatic_energy": 9.5, 
			 "SMD_solvation_energy": 4.48 
		},
		"coords": [
			{
				"x": 1.7517073525,
				"y": -3.2160640881,
				"z": -4.2742140577,
				"element": "F" 
			},
			{
				"x": 1.3276961712,
				"y": -2.5827663137,
				"z": -3.1661719976,
				"element": "C" 
			},
			{
				"x": 0.6139732528,
				"y": -3.303580615,
				"z": -2.2105385367,
				"element": "C" 
			},
			{
				"x": 0.1840921832,
				"y": -2.6432853442,
				"z": -1.0665515178,
				"element": "C" 
			},
			{
				"x": 0.4400813343,
				"y": -1.2725326381,
				"z": -0.884499184,
				"element": "C" 
			},
			{
				"x": 1.1696325026,
				"y": -0.5792292013,
				"z": -1.8645243965,
				"element": "C" 
			},
			{
				"x": 1.6215547987,
				"y": -1.2324421261,
				"z": -3.0095483948,
				"element": "C" 
			},
			{
				"x": -0.0154515328,
				"y": -0.6474287012,
				"z": 0.3944684322,
				"element": "C" 
			},
			{
				"x": -0.2348331856,
				"y": -1.339709025,
				"z": 1.3812621431,
				"element": "O" 
			},
			{
				"x": -0.2159022888,
				"y": 0.8427940367,
				"z": 0.4911367394,
				"element": "C" 
			},
			{
				"x": -0.0017051055,
				"y": 1.4645066691,
				"z": 1.7276796703,
				"element": "C" 
			},
			{
				"x": -0.2348115399,
				"y": 2.83266966,
				"z": 1.8425279314,
				"element": "C" 
			},
			{
				"x": -0.6813472136,
				"y": 3.5991373224,
				"z": 0.8365995345,
				"element": "N" 
			},
			{
				"x": -0.9105875747,
				"y": 2.9937876254,
				"z": -0.3337059965,
				"element": "C" 
			},
			{
				"x": -0.6903279272,
				"y": 1.6334887069,
				"z": -0.5623737637,
				"element": "C" 
			},
			{
				"x": 0.4142809263,
				"y": -4.3569830599,
				"z": -2.3738276434,
				"element": "H" 
			},
			{
				"x": -0.3569253501,
				"y": -3.1735087864,
				"z": -0.2903284639,
				"element": "H" 
			},
			{
				"x": 1.4104525965,
				"y": 0.4687936081,
				"z": -1.7250153481,
				"element": "H" 
			},
			{
				"x": 2.1964022646,
				"y": -0.7172426793,
				"z": -3.7711222696,
				"element": "H" 
			},
			{
				"x": 0.3367318283,
				"y": 0.8766635745,
				"z": 2.5738285007,
				"element": "H" 
			},
			{
				"x": -0.0599630765,
				"y": 3.3405516791,
				"z": 2.7891088745,
				"element": "H" 
			},
			{
				"x": -1.2903301255,
				"y": 3.625602831,
				"z": -1.134778112,
				"element": "H" 
			},
			{
				"x": -0.9102202907,
				"y": 1.2038768655,
				"z": -1.5337121438,
				"element": "H" 
			}
		],
		 "valence_orbital": [ 
			{
				"type": "occ",
				"energy": -0.27931,
				"method": "rhf"
			},
			{
				"type": "occ",
				"energy": -0.27462,
				"method": "rhf"
			},
			{
				"type": "occ",
				"energy": -0.26824,
				"method": "rhf"
			},
			{
				"type": "occ",
				"energy": -0.26466,
				"method": "rhf"
			},
			{
				"type": "occ",
				"energy": -0.25538,
				"method": "rhf"
			},
			{
				"type": "unocc",
				"energy": -0.07992,
				"method": "rhf"
			},
			{
				"type": "unocc",
				"energy": -0.03199,
				"method": "rhf"
			},
			{
				"type": "unocc",
				"energy": -0.0266,
				"method": "rhf"
			},
			{
				"type": "unocc",
				"energy": -0.0197,
				"method": "rhf"
			},
			{
				"type": "unocc",
				"energy": 0.04329,
				"method": "rhf"
			}
		],
		"cosmo_sigma_profile": { 
			"-0.025": 0.0,
			"-0.024": 0.0,
			"-0.023": 0.0,
			"-0.022": 0.0,
			"-0.021": 0.0,
			"-0.02": 0.0,
			"-0.019": 0.0,
			"-0.018": 0.0,
			"-0.017": 0.0,
			"-0.016": 0.0,
			"-0.015": 0.0,
			"-0.014": 0.0,
			"-0.013": 0.0,
			"-0.012": 0.0,
			"-0.011": 0.0,
			"-0.01": 0.0,
			"-0.009": 0.0,
			"-0.008": 2.65588087478,
			"-0.007": 11.4426525371,
			"-0.006": 16.6696656764,
			"-0.005": 17.5764202916,
			"-0.004": 14.6502386829,
			"-0.003": 13.6302732463,
			"-0.002": 12.3749861195,
			"-0.001": 17.7651830022,
			"0.0": 20.8802133687,
			"0.001": 26.4365243392,
			"0.002": 22.4030218346,
			"0.003": 12.9092984562,
			"0.004": 11.6669542732,
			"0.005": 3.39363169156,
			"0.006": 3.13652568988,
			"0.007": 2.5554350921,
			"0.008": 3.88933608706,
			"0.009": 2.31170555294,
			"0.01": 3.09707023088,
			"0.011": 5.29255249118,
			"0.012": 2.29639867881,
			"0.013": 1.08507835043,
			"0.014": 0.998190886295,
			"0.015": 0.815468695402,
			"0.016": 0.625547660032,
			"0.017": 0.0641952977264,
			"0.018": 0.0,
			"0.019": 0.0,
			"0.02": 0.0,
			"0.021": 0.0,
			"0.022": 0.0,
			"0.023": 0.0,
			"0.024": 0.0,
			"0.025": 0.0
		}
	}
}
