{
	 "smiles": "OC(=O)C1=CC(=CC=C1)N1C=C(Br)C=N1", 
	 "Tm": 469.15, 
	 "num_atms": 22, 
	 "gaussian": { 
		 "optdone": 1, 
		 "sigma_profile": "yes", 
		 "theory": "DFT", 
		 "functional": "B3LYP", 
		 "basiset": "6-31G**", 
		 "properties": { 
			 "R2extent": 8589.2832, 
			 "electric_dipole_moment_norm": 2.69934519097, 
			 "electric_quadrupole_moment_norm": 15.077252576, 
			 "total_energy": -3216.61468365, 
			 "HOMO_LUMO_gap": 0.17958, 
			 "cosmo_polarized_energy": -17.19, 
			 "cosmo_cavitation_energy": 30.0, 
			 "cosmo_dispersion_energy": -22.41, 
			 "cosmo_repulsion_energy": 1.74, 
			 "cosmo_total_nonelectrostatic_energy": 9.32, 
			 "SMD_solvation_energy": 4.88 
		},
		"coords": [
			{
				"x": -0.8700518984,
				"y": 1.8537185721,
				"z": 2.5335240118,
				"element": "O" 
			},
			{
				"x": 0.3551199032,
				"y": 1.4259357703,
				"z": 2.1238924049,
				"element": "C" 
			},
			{
				"x": 1.341481962,
				"y": 1.7146973809,
				"z": 2.7573621668,
				"element": "O" 
			},
			{
				"x": 0.3955895895,
				"y": 0.5943688816,
				"z": 0.8747757803,
				"element": "C" 
			},
			{
				"x": -0.7061586705,
				"y": -0.1535251275,
				"z": 0.4401107087,
				"element": "C" 
			},
			{
				"x": -0.6068844934,
				"y": -0.9288582242,
				"z": -0.7181901118,
				"element": "C" 
			},
			{
				"x": 0.578166226,
				"y": -0.9360309861,
				"z": -1.4622219497,
				"element": "C" 
			},
			{
				"x": 1.6682239073,
				"y": -0.1866367387,
				"z": -1.0235177295,
				"element": "C" 
			},
			{
				"x": 1.5916239807,
				"y": 0.5629931307,
				"z": 0.1484875639,
				"element": "C" 
			},
			{
				"x": -1.7040827106,
				"y": -1.7182981315,
				"z": -1.1500305064,
				"element": "N" 
			},
			{
				"x": -2.7443575551,
				"y": -2.1990472399,
				"z": -0.4035583893,
				"element": "C" 
			},
			{
				"x": -3.5402025726,
				"y": -2.9111850321,
				"z": -1.2736498026,
				"element": "C" 
			},
			{
				"x": -5.1286497501,
				"y": -3.8276836842,
				"z": -0.8563812348,
				"element": "Br" 
			},
			{
				"x": -2.9054899424,
				"y": -2.8161900785,
				"z": -2.5323347527,
				"element": "C" 
			},
			{
				"x": -1.7942574137,
				"y": -2.0950999227,
				"z": -2.4523146247,
				"element": "N" 
			},
			{
				"x": -1.5227510671,
				"y": 1.7212946153,
				"z": 1.832046628,
				"element": "H" 
			},
			{
				"x": -1.6302489078,
				"y": -0.1554512523,
				"z": 1.0095353109,
				"element": "H" 
			},
			{
				"x": 0.6256997458,
				"y": -1.5315302564,
				"z": -2.3654702626,
				"element": "H" 
			},
			{
				"x": 2.5887474613,
				"y": -0.2004075888,
				"z": -1.5986452564,
				"element": "H" 
			},
			{
				"x": 2.4377768831,
				"y": 1.1335787104,
				"z": 0.5142481497,
				"element": "H" 
			},
			{
				"x": -2.8303913335,
				"y": -2.0405980749,
				"z": 0.6591129036,
				"element": "H" 
			},
			{
				"x": -3.2200033438,
				"y": -3.2404447232,
				"z": -3.4751810081,
				"element": "H" 
			}
		],
		 "valence_orbital": [ 
			{
				"type": "occ",
				"energy": -0.29532,
				"method": "rhf"
			},
			{
				"type": "occ",
				"energy": -0.28826,
				"method": "rhf"
			},
			{
				"type": "occ",
				"energy": -0.27979,
				"method": "rhf"
			},
			{
				"type": "occ",
				"energy": -0.26667,
				"method": "rhf"
			},
			{
				"type": "occ",
				"energy": -0.24188,
				"method": "rhf"
			},
			{
				"type": "unocc",
				"energy": -0.0623,
				"method": "rhf"
			},
			{
				"type": "unocc",
				"energy": -0.04948,
				"method": "rhf"
			},
			{
				"type": "unocc",
				"energy": 0.00322,
				"method": "rhf"
			},
			{
				"type": "unocc",
				"energy": 0.00651,
				"method": "rhf"
			},
			{
				"type": "unocc",
				"energy": 0.03986,
				"method": "rhf"
			}
		],
		"cosmo_sigma_profile": { 
			"-0.025": 0.0,
			"-0.024": 0.0,
			"-0.023": 0.0,
			"-0.022": 0.0,
			"-0.021": 0.0,
			"-0.02": 0.0124009067683,
			"-0.019": 0.56849297522,
			"-0.018": 0.692994493375,
			"-0.017": 1.18790539676,
			"-0.016": 1.4741692476,
			"-0.015": 0.671548241535,
			"-0.014": 0.900030596047,
			"-0.013": 1.24929880003,
			"-0.012": 2.92247357475,
			"-0.011": 3.36411986206,
			"-0.01": 2.48129430718,
			"-0.009": 2.5545662014,
			"-0.008": 5.29554003879,
			"-0.007": 7.84315012245,
			"-0.006": 10.5646782033,
			"-0.005": 10.7412994408,
			"-0.004": 9.62660599001,
			"-0.003": 12.5741785693,
			"-0.002": 12.5783666017,
			"-0.001": 16.09146218,
			"0.0": 17.4613843082,
			"0.001": 23.0266987677,
			"0.002": 27.6036660152,
			"0.003": 16.6376189431,
			"0.004": 16.0439032274,
			"0.005": 5.74978509664,
			"0.006": 4.66089800822,
			"0.007": 3.80012540129,
			"0.008": 3.625185033,
			"0.009": 5.60841835005,
			"0.01": 5.64574505774,
			"0.011": 6.49285848362,
			"0.012": 4.7874218149,
			"0.013": 1.03668324079,
			"0.014": 0.0,
			"0.015": 0.0,
			"0.016": 0.0,
			"0.017": 0.0,
			"0.018": 0.0,
			"0.019": 0.0,
			"0.02": 0.0,
			"0.021": 0.0,
			"0.022": 0.0,
			"0.023": 0.0,
			"0.024": 0.0,
			"0.025": 0.0
		}
	}
}
