{
	 "smiles": "NC(=O)CO", 
	 "Tm": 398.15, 
	 "num_atms": 10, 
	 "gaussian": { 
		 "optdone": 1, 
		 "sigma_profile": "yes", 
		 "theory": "DFT", 
		 "functional": "B3LYP", 
		 "basiset": "6-31G**", 
		 "properties": { 
			 "R2extent": 1683.0692, 
			 "electric_dipole_moment_norm": 2.98086057708, 
			 "electric_quadrupole_moment_norm": 16.7205709517, 
			 "total_energy": -284.42821223, 
			 "HOMO_LUMO_gap": 0.26901, 
			 "cosmo_polarized_energy": -14.13, 
			 "cosmo_cavitation_energy": 13.85, 
			 "cosmo_dispersion_energy": -10.54, 
			 "cosmo_repulsion_energy": 0.98, 
			 "cosmo_total_nonelectrostatic_energy": 4.28, 
			 "SMD_solvation_energy": 3.69 
		},
		"coords": [
			{
				"x": -1.5031040098,
				"y": -1.9962478791,
				"z": 1.4349175047,
				"element": "N" 
			},
			{
				"x": -2.4037311186,
				"y": -1.3082508356,
				"z": 2.1898283885,
				"element": "C" 
			},
			{
				"x": -3.4276849609,
				"y": -1.7816567312,
				"z": 2.6590746168,
				"element": "O" 
			},
			{
				"x": -2.0257262835,
				"y": 0.1602847559,
				"z": 2.4241491593,
				"element": "C" 
			},
			{
				"x": -0.9257829922,
				"y": 0.6191278383,
				"z": 1.6463967653,
				"element": "O" 
			},
			{
				"x": -0.6190336153,
				"y": -1.5625338653,
				"z": 1.2150249175,
				"element": "H" 
			},
			{
				"x": -1.6192992618,
				"y": -2.9930345962,
				"z": 1.3362824938,
				"element": "H" 
			},
			{
				"x": -2.9303588575,
				"y": 0.7637755852,
				"z": 2.2815696528,
				"element": "H" 
			},
			{
				"x": -1.7343370046,
				"y": 0.2600716322,
				"z": 3.4749190689,
				"element": "H" 
			},
			{
				"x": -1.2525418957,
				"y": 0.8138640958,
				"z": 0.7586374324,
				"element": "H" 
			}
		],
		 "valence_orbital": [ 
			{
				"type": "occ",
				"energy": -0.38771,
				"method": "rhf"
			},
			{
				"type": "occ",
				"energy": -0.34886,
				"method": "rhf"
			},
			{
				"type": "occ",
				"energy": -0.31325,
				"method": "rhf"
			},
			{
				"type": "occ",
				"energy": -0.26763,
				"method": "rhf"
			},
			{
				"type": "occ",
				"energy": -0.23996,
				"method": "rhf"
			},
			{
				"type": "unocc",
				"energy": 0.02905,
				"method": "rhf"
			},
			{
				"type": "unocc",
				"energy": 0.05841,
				"method": "rhf"
			},
			{
				"type": "unocc",
				"energy": 0.1024,
				"method": "rhf"
			},
			{
				"type": "unocc",
				"energy": 0.13041,
				"method": "rhf"
			},
			{
				"type": "unocc",
				"energy": 0.14479,
				"method": "rhf"
			}
		],
		"cosmo_sigma_profile": { 
			"-0.025": 0.0,
			"-0.024": 0.0,
			"-0.023": 0.0,
			"-0.022": 0.0,
			"-0.021": 0.0,
			"-0.02": 0.0,
			"-0.019": 0.0,
			"-0.018": 0.0,
			"-0.017": 0.473725609183,
			"-0.016": 1.04547121931,
			"-0.015": 1.00772748927,
			"-0.014": 1.72412806913,
			"-0.013": 2.3223725369,
			"-0.012": 2.7287514622,
			"-0.011": 2.48378834322,
			"-0.01": 2.02557316693,
			"-0.009": 4.27828577921,
			"-0.008": 2.70732702273,
			"-0.007": 4.15623396782,
			"-0.006": 7.76818669449,
			"-0.005": 5.97693723352,
			"-0.004": 5.097409973,
			"-0.003": 5.11384956785,
			"-0.002": 4.8811204258,
			"-0.001": 4.55491980864,
			"0.0": 2.97630907654,
			"0.001": 3.82139744688,
			"0.002": 3.12910053797,
			"0.003": 2.91316752322,
			"0.004": 4.04361253761,
			"0.005": 2.64588696969,
			"0.006": 2.32430271604,
			"0.007": 2.05326360843,
			"0.008": 2.82331037449,
			"0.009": 1.67120769505,
			"0.01": 2.32054770236,
			"0.011": 2.70947126593,
			"0.012": 2.92297276569,
			"0.013": 4.82574891601,
			"0.014": 6.14769429216,
			"0.015": 2.48851147951,
			"0.016": 0.0275946542005,
			"0.017": 0.0,
			"0.018": 0.0,
			"0.019": 0.0,
			"0.02": 0.0,
			"0.021": 0.0,
			"0.022": 0.0,
			"0.023": 0.0,
			"0.024": 0.0,
			"0.025": 0.0
		}
	}
}
