{
	 "smiles": "CN(C)C1=CC=C(C=C1)C(C)=O", 
	 "Tm": 379.15, 
	 "num_atms": 25, 
	 "gaussian": { 
		 "optdone": 1, 
		 "sigma_profile": "yes", 
		 "theory": "DFT", 
		 "functional": "B3LYP", 
		 "basiset": "6-31G**", 
		 "properties": { 
			 "R2extent": 2984.9702, 
			 "electric_dipole_moment_norm": 5.543814187, 
			 "electric_quadrupole_moment_norm": 10.8831809605, 
			 "total_energy": -518.875227892, 
			 "HOMO_LUMO_gap": 0.16469, 
			 "cosmo_polarized_energy": -11.39, 
			 "cosmo_cavitation_energy": 27.75, 
			 "cosmo_dispersion_energy": -20.29, 
			 "cosmo_repulsion_energy": 1.59, 
			 "cosmo_total_nonelectrostatic_energy": 9.05, 
			 "SMD_solvation_energy": 5.3 
		},
		"coords": [
			{
				"x": 1.9121854105,
				"y": -0.0453692909,
				"z": -3.9467716223,
				"element": "C" 
			},
			{
				"x": 2.1572923029,
				"y": -0.2108502271,
				"z": -2.5241238377,
				"element": "N" 
			},
			{
				"x": 3.523291857,
				"y": -0.204629201,
				"z": -2.0270779713,
				"element": "C" 
			},
			{
				"x": 1.0991751238,
				"y": -0.2634134734,
				"z": -1.6411087678,
				"element": "C" 
			},
			{
				"x": -0.2419608133,
				"y": -0.2147284464,
				"z": -2.095666653,
				"element": "C" 
			},
			{
				"x": -1.2999309587,
				"y": -0.2772942499,
				"z": -1.1992701883,
				"element": "C" 
			},
			{
				"x": -1.0870968883,
				"y": -0.3875308092,
				"z": 0.1841409891,
				"element": "C" 
			},
			{
				"x": 0.2437296381,
				"y": -0.4312562708,
				"z": 0.6350633501,
				"element": "C" 
			},
			{
				"x": 1.3122234077,
				"y": -0.3703209738,
				"z": -0.2420681677,
				"element": "C" 
			},
			{
				"x": -2.1843006678,
				"y": -0.4573142741,
				"z": 1.1834881605,
				"element": "C" 
			},
			{
				"x": -3.6261395488,
				"y": -0.4096381346,
				"z": 0.6947426635,
				"element": "C" 
			},
			{
				"x": -1.9463254631,
				"y": -0.5519256385,
				"z": 2.3821504809,
				"element": "O" 
			},
			{
				"x": 1.3101130222,
				"y": -0.8690230319,
				"z": -4.3519551859,
				"element": "H" 
			},
			{
				"x": 1.3914073747,
				"y": 0.8962135634,
				"z": -4.1716726093,
				"element": "H" 
			},
			{
				"x": 2.8650411993,
				"y": -0.0379288322,
				"z": -4.4769945614,
				"element": "H" 
			},
			{
				"x": 3.7472350941,
				"y": -1.1097826662,
				"z": -1.448163412,
				"element": "H" 
			},
			{
				"x": 4.2120263835,
				"y": -0.1712221328,
				"z": -2.8718787263,
				"element": "H" 
			},
			{
				"x": 3.7283478281,
				"y": 0.6652061809,
				"z": -1.3873457617,
				"element": "H" 
			},
			{
				"x": -0.4581075846,
				"y": -0.1272040239,
				"z": -3.1531476042,
				"element": "H" 
			},
			{
				"x": -2.310550139,
				"y": -0.2372015592,
				"z": -1.5943845558,
				"element": "H" 
			},
			{
				"x": 0.4144558603,
				"y": -0.5138028897,
				"z": 1.7036613874,
				"element": "H" 
			},
			{
				"x": 2.3190680464,
				"y": -0.4048923029,
				"z": 0.1555251258,
				"element": "H" 
			},
			{
				"x": -4.2877029245,
				"y": -0.4723782292,
				"z": 1.5593074648,
				"element": "H" 
			},
			{
				"x": -3.8405295119,
				"y": -1.2405753898,
				"z": 0.013433735,
				"element": "H" 
			},
			{
				"x": -3.8287480484,
				"y": 0.5193623029,
				"z": 0.1502162677,
				"element": "H" 
			}
		],
		 "valence_orbital": [ 
			{
				"type": "occ",
				"energy": -0.3319,
				"method": "rhf"
			},
			{
				"type": "occ",
				"energy": -0.28514,
				"method": "rhf"
			},
			{
				"type": "occ",
				"energy": -0.24986,
				"method": "rhf"
			},
			{
				"type": "occ",
				"energy": -0.22963,
				"method": "rhf"
			},
			{
				"type": "occ",
				"energy": -0.19719,
				"method": "rhf"
			},
			{
				"type": "unocc",
				"energy": -0.0325,
				"method": "rhf"
			},
			{
				"type": "unocc",
				"energy": 0.00218,
				"method": "rhf"
			},
			{
				"type": "unocc",
				"energy": 0.06167,
				"method": "rhf"
			},
			{
				"type": "unocc",
				"energy": 0.07935,
				"method": "rhf"
			},
			{
				"type": "unocc",
				"energy": 0.09786,
				"method": "rhf"
			}
		],
		"cosmo_sigma_profile": { 
			"-0.025": 0.0,
			"-0.024": 0.0,
			"-0.023": 0.0,
			"-0.022": 0.0,
			"-0.021": 0.0,
			"-0.02": 0.0,
			"-0.019": 0.0,
			"-0.018": 0.0,
			"-0.017": 0.0,
			"-0.016": 0.0,
			"-0.015": 0.0,
			"-0.014": 0.0,
			"-0.013": 0.0,
			"-0.012": 0.0,
			"-0.011": 0.0,
			"-0.01": 0.0,
			"-0.009": 0.0,
			"-0.008": 0.140794805866,
			"-0.007": 2.21223492497,
			"-0.006": 6.72221863177,
			"-0.005": 20.8492380912,
			"-0.004": 27.3729249914,
			"-0.003": 24.3971879978,
			"-0.002": 25.817256128,
			"-0.001": 19.4930524869,
			"0.0": 13.3796446866,
			"0.001": 10.1634210157,
			"0.002": 8.9826231213,
			"0.003": 10.358184918,
			"0.004": 10.3823651029,
			"0.005": 13.0400062002,
			"0.006": 7.5876093829,
			"0.007": 2.22833139193,
			"0.008": 1.44194300667,
			"0.009": 1.53036510897,
			"0.01": 1.9160382601,
			"0.011": 1.95634359166,
			"0.012": 2.71110597087,
			"0.013": 4.42139872391,
			"0.014": 1.88344960017,
			"0.015": 0.247636134214,
			"0.016": 0.0,
			"0.017": 0.0,
			"0.018": 0.0,
			"0.019": 0.0,
			"0.02": 0.0,
			"0.021": 0.0,
			"0.022": 0.0,
			"0.023": 0.0,
			"0.024": 0.0,
			"0.025": 0.0
		}
	}
}
