{
	 "smiles": "CC(C)(C)C1=NN(C(=C1)C(C)(C)C)C1=CC=C(N)C=C1", 
	 "Tm": 479.15, 
	 "num_atms": 45, 
	 "gaussian": { 
		 "optdone": 1, 
		 "sigma_profile": "yes", 
		 "theory": "DFT", 
		 "functional": "B3LYP", 
		 "basiset": "6-31G**", 
		 "properties": { 
			 "R2extent": 6769.7438, 
			 "electric_dipole_moment_norm": 4.2891087291, 
			 "electric_quadrupole_moment_norm": 20.0495659604, 
			 "total_energy": -827.141315084, 
			 "HOMO_LUMO_gap": 0.2033, 
			 "cosmo_polarized_energy": -13.45, 
			 "cosmo_cavitation_energy": 44.78, 
			 "cosmo_dispersion_energy": -29.79, 
			 "cosmo_repulsion_energy": 2.32, 
			 "cosmo_total_nonelectrostatic_energy": 17.31, 
			 "SMD_solvation_energy": 7.02 
		},
		"coords": [
			{
				"x": -2.8991558937,
				"y": 2.0478516947,
				"z": 2.850642447,
				"element": "C" 
			},
			{
				"x": -1.7086308767,
				"y": 2.7547015687,
				"z": 2.164461498,
				"element": "C" 
			},
			{
				"x": -2.1955479022,
				"y": 4.0633279351,
				"z": 1.5170980162,
				"element": "C" 
			},
			{
				"x": -0.6292094204,
				"y": 3.0760508222,
				"z": 3.2222740955,
				"element": "C" 
			},
			{
				"x": -1.1170226393,
				"y": 1.8277744836,
				"z": 1.1115253976,
				"element": "C" 
			},
			{
				"x": -0.6283228998,
				"y": 0.6428879015,
				"z": 1.4710100846,
				"element": "N" 
			},
			{
				"x": -0.1833435555,
				"y": 0.0637386974,
				"z": 0.3188107932,
				"element": "N" 
			},
			{
				"x": -0.3832433357,
				"y": 0.8703937368,
				"z": -0.7814841777,
				"element": "C" 
			},
			{
				"x": -0.9870257629,
				"y": 2.0163636994,
				"z": -0.284197395,
				"element": "C" 
			},
			{
				"x": -0.0093333281,
				"y": 0.5418215877,
				"z": -2.2230459548,
				"element": "C" 
			},
			{
				"x": -0.7595805138,
				"y": -0.7153498151,
				"z": -2.7234885376,
				"element": "C" 
			},
			{
				"x": 1.5158936317,
				"y": 0.3290040873,
				"z": -2.3718631296,
				"element": "C" 
			},
			{
				"x": -0.4148600305,
				"y": 1.7283827722,
				"z": -3.122942299,
				"element": "C" 
			},
			{
				"x": 0.3981806142,
				"y": -1.2406570823,
				"z": 0.4384036127,
				"element": "C" 
			},
			{
				"x": 1.760973132,
				"y": -1.3834317964,
				"z": 0.7120366209,
				"element": "C" 
			},
			{
				"x": 2.3194876881,
				"y": -2.645956366,
				"z": 0.882787853,
				"element": "C" 
			},
			{
				"x": 1.5199640725,
				"y": -3.8004899401,
				"z": 0.7992116077,
				"element": "C" 
			},
			{
				"x": 2.0655887232,
				"y": -5.0617310323,
				"z": 1.0227545334,
				"element": "N" 
			},
			{
				"x": 0.1444640254,
				"y": -3.6463704492,
				"z": 0.5473735295,
				"element": "C" 
			},
			{
				"x": -0.4073677233,
				"y": -2.3807765686,
				"z": 0.377650698,
				"element": "C" 
			},
			{
				"x": -3.3251597336,
				"y": 2.6831525904,
				"z": 3.6361527509,
				"element": "H" 
			},
			{
				"x": -3.6913807152,
				"y": 1.823727006,
				"z": 2.1279601577,
				"element": "H" 
			},
			{
				"x": -2.5776958052,
				"y": 1.1048148023,
				"z": 3.3004379155,
				"element": "H" 
			},
			{
				"x": -1.3746334143,
				"y": 4.5987324571,
				"z": 1.027771304,
				"element": "H" 
			},
			{
				"x": -2.9730185524,
				"y": 3.8757913379,
				"z": 0.7685162848,
				"element": "H" 
			},
			{
				"x": -2.6192588987,
				"y": 4.7266119841,
				"z": 2.2787291168,
				"element": "H" 
			},
			{
				"x": -0.2545468157,
				"y": 2.1565807878,
				"z": 3.6795277585,
				"element": "H" 
			},
			{
				"x": 0.2208903048,
				"y": 3.5974777811,
				"z": 2.7689004189,
				"element": "H" 
			},
			{
				"x": -1.0402044734,
				"y": 3.7172679295,
				"z": 4.0109327164,
				"element": "H" 
			},
			{
				"x": -1.2931661671,
				"y": 2.8762175765,
				"z": -0.8577969094,
				"element": "H" 
			},
			{
				"x": -0.5337012644,
				"y": -0.8869069673,
				"z": -3.7821187398,
				"element": "H" 
			},
			{
				"x": -0.4693268399,
				"y": -1.6109225652,
				"z": -2.1703672939,
				"element": "H" 
			},
			{
				"x": -1.8426759345,
				"y": -0.5877965082,
				"z": -2.6251042253,
				"element": "H" 
			},
			{
				"x": 1.8632420408,
				"y": -0.5406182072,
				"z": -1.8103202745,
				"element": "H" 
			},
			{
				"x": 2.0680682486,
				"y": 1.2068547604,
				"z": -2.0203862069,
				"element": "H" 
			},
			{
				"x": 1.7684423342,
				"y": 0.1701400204,
				"z": -3.4264405412,
				"element": "H" 
			},
			{
				"x": -0.1532119008,
				"y": 1.5076077406,
				"z": -4.1628482431,
				"element": "H" 
			},
			{
				"x": 0.1041520591,
				"y": 2.6474634019,
				"z": -2.8338638322,
				"element": "H" 
			},
			{
				"x": -1.4923319389,
				"y": 1.9150600323,
				"z": -3.0800737555,
				"element": "H" 
			},
			{
				"x": 2.381096883,
				"y": -0.4966862139,
				"z": 0.7948323557,
				"element": "H" 
			},
			{
				"x": 3.3808357048,
				"y": -2.7432142814,
				"z": 1.0964134576,
				"element": "H" 
			},
			{
				"x": 1.5496189234,
				"y": -5.8383521564,
				"z": 0.6342946098,
				"element": "H" 
			},
			{
				"x": 3.0602623897,
				"y": -5.1435452752,
				"z": 0.8672063815,
				"element": "H" 
			},
			{
				"x": -0.4933973121,
				"y": -4.5252011568,
				"z": 0.4989474621,
				"element": "H" 
			},
			{
				"x": -1.4722071273,
				"y": -2.2689928134,
				"z": 0.200578038,
				"element": "H" 
			}
		],
		 "valence_orbital": [ 
			{
				"type": "occ",
				"energy": -0.26032,
				"method": "rhf"
			},
			{
				"type": "occ",
				"energy": -0.25459,
				"method": "rhf"
			},
			{
				"type": "occ",
				"energy": -0.2263,
				"method": "rhf"
			},
			{
				"type": "occ",
				"energy": -0.21805,
				"method": "rhf"
			},
			{
				"type": "occ",
				"energy": -0.20919,
				"method": "rhf"
			},
			{
				"type": "unocc",
				"energy": -0.00589,
				"method": "rhf"
			},
			{
				"type": "unocc",
				"energy": 0.00556,
				"method": "rhf"
			},
			{
				"type": "unocc",
				"energy": 0.03157,
				"method": "rhf"
			},
			{
				"type": "unocc",
				"energy": 0.07438,
				"method": "rhf"
			},
			{
				"type": "unocc",
				"energy": 0.0883,
				"method": "rhf"
			}
		],
		"cosmo_sigma_profile": { 
			"-0.025": 0.0,
			"-0.024": 0.0,
			"-0.023": 0.0,
			"-0.022": 0.0,
			"-0.021": 0.0,
			"-0.02": 0.0,
			"-0.019": 0.0,
			"-0.018": 0.0,
			"-0.017": 0.0,
			"-0.016": 0.0,
			"-0.015": 0.0,
			"-0.014": 0.0,
			"-0.013": 1.01692746881,
			"-0.012": 2.74268157335,
			"-0.011": 2.75379609143,
			"-0.01": 3.17849076008,
			"-0.009": 2.78243766314,
			"-0.008": 2.89917274863,
			"-0.007": 3.8357637294,
			"-0.006": 7.64464415466,
			"-0.005": 8.26733173023,
			"-0.004": 9.2306748157,
			"-0.003": 27.3256302098,
			"-0.002": 44.9411622801,
			"-0.001": 42.349068677,
			"0.0": 44.5317142979,
			"0.001": 50.4425572416,
			"0.002": 27.1563129269,
			"0.003": 11.6741276152,
			"0.004": 11.0554736635,
			"0.005": 14.0570037247,
			"0.006": 8.96780042718,
			"0.007": 5.783528226,
			"0.008": 3.45776854776,
			"0.009": 2.6861831354,
			"0.01": 2.80128278798,
			"0.011": 1.58005071977,
			"0.012": 1.9132044979,
			"0.013": 1.34875550869,
			"0.014": 0.961207356764,
			"0.015": 0.792519567653,
			"0.016": 0.477713420272,
			"0.017": 0.110654049633,
			"0.018": 0.0,
			"0.019": 0.0,
			"0.02": 0.0,
			"0.021": 0.0,
			"0.022": 0.0,
			"0.023": 0.0,
			"0.024": 0.0,
			"0.025": 0.0
		}
	}
}
