{
	 "smiles": "OC(=O)CCCC1=CNC2=CC=CC=C12", 
	 "Tm": 397.15, 
	 "num_atms": 28, 
	 "gaussian": { 
		 "optdone": 1, 
		 "sigma_profile": "yes", 
		 "theory": "DFT", 
		 "functional": "B3LYP", 
		 "basiset": "6-31G**", 
		 "properties": { 
			 "R2extent": 3855.7083, 
			 "electric_dipole_moment_norm": 5.59791720375, 
			 "electric_quadrupole_moment_norm": 13.6009173463, 
			 "total_energy": -670.33052037, 
			 "HOMO_LUMO_gap": 0.1918, 
			 "cosmo_polarized_energy": -19.68, 
			 "cosmo_cavitation_energy": 30.86, 
			 "cosmo_dispersion_energy": -22.2, 
			 "cosmo_repulsion_energy": 1.73, 
			 "cosmo_total_nonelectrostatic_energy": 10.39, 
			 "SMD_solvation_energy": 5.72 
		},
		"coords": [
			{
				"x": 2.3790873021,
				"y": 3.2362296343,
				"z": 2.7917486954,
				"element": "O" 
			},
			{
				"x": 1.3672952005,
				"y": 2.7841956069,
				"z": 1.9989990725,
				"element": "C" 
			},
			{
				"x": 1.1020007292,
				"y": 3.3807317304,
				"z": 0.9824048384,
				"element": "O" 
			},
			{
				"x": 0.696144209,
				"y": 1.4976106179,
				"z": 2.4543875749,
				"element": "C" 
			},
			{
				"x": 1.5006555963,
				"y": 0.2544394284,
				"z": 2.0054659898,
				"element": "C" 
			},
			{
				"x": 1.4560297193,
				"y": -0.0215122702,
				"z": 0.4843483849,
				"element": "C" 
			},
			{
				"x": 0.1394614609,
				"y": -0.5542533039,
				"z": -0.0174634981,
				"element": "C" 
			},
			{
				"x": -0.2006199405,
				"y": -1.8827212108,
				"z": -0.1049850784,
				"element": "C" 
			},
			{
				"x": -1.4874498073,
				"y": -2.0160906073,
				"z": -0.5927585942,
				"element": "N" 
			},
			{
				"x": -2.0067340761,
				"y": -0.7632073236,
				"z": -0.8468887708,
				"element": "C" 
			},
			{
				"x": -3.2539548325,
				"y": -0.3878521748,
				"z": -1.358269375,
				"element": "C" 
			},
			{
				"x": -3.4981136235,
				"y": 0.9711223202,
				"z": -1.5171593198,
				"element": "C" 
			},
			{
				"x": -2.5239476529,
				"y": 1.931809424,
				"z": -1.1749719457,
				"element": "C" 
			},
			{
				"x": -1.2860385672,
				"y": 1.5577261022,
				"z": -0.6662539786,
				"element": "C" 
			},
			{
				"x": -1.0085666663,
				"y": 0.1875589366,
				"z": -0.4921839414,
				"element": "C" 
			},
			{
				"x": 2.468432149,
				"y": 2.6708348624,
				"z": 3.5714823036,
				"element": "H" 
			},
			{
				"x": -0.3089859078,
				"y": 1.4693622144,
				"z": 2.0290896501,
				"element": "H" 
			},
			{
				"x": 0.5957843976,
				"y": 1.4977112327,
				"z": 3.5474223737,
				"element": "H" 
			},
			{
				"x": 2.5468795264,
				"y": 0.3715558235,
				"z": 2.3194862098,
				"element": "H" 
			},
			{
				"x": 1.1089818653,
				"y": -0.6200758424,
				"z": 2.536435118,
				"element": "H" 
			},
			{
				"x": 2.2423592295,
				"y": -0.7513193854,
				"z": 0.2573216846,
				"element": "H" 
			},
			{
				"x": 1.7218685601,
				"y": 0.8924343716,
				"z": -0.0591316917,
				"element": "H" 
			},
			{
				"x": 0.3860830723,
				"y": -2.7584638749,
				"z": 0.1378187027,
				"element": "H" 
			},
			{
				"x": -1.9515937555,
				"y": -2.8893969541,
				"z": -0.7796808123,
				"element": "H" 
			},
			{
				"x": -4.002500169,
				"y": -1.1298911167,
				"z": -1.6228867917,
				"element": "H" 
			},
			{
				"x": -4.4555555483,
				"y": 1.2978858982,
				"z": -1.9127816478,
				"element": "H" 
			},
			{
				"x": -2.7476338752,
				"y": 2.9857282418,
				"z": -1.3129068388,
				"element": "H" 
			},
			{
				"x": -0.5485685955,
				"y": 2.3089476185,
				"z": -0.398288314,
				"element": "H" 
			}
		],
		 "valence_orbital": [ 
			{
				"type": "occ",
				"energy": -0.31337,
				"method": "rhf"
			},
			{
				"type": "occ",
				"energy": -0.26823,
				"method": "rhf"
			},
			{
				"type": "occ",
				"energy": -0.26292,
				"method": "rhf"
			},
			{
				"type": "occ",
				"energy": -0.21339,
				"method": "rhf"
			},
			{
				"type": "occ",
				"energy": -0.19409,
				"method": "rhf"
			},
			{
				"type": "unocc",
				"energy": -0.00229,
				"method": "rhf"
			},
			{
				"type": "unocc",
				"energy": 0.00749,
				"method": "rhf"
			},
			{
				"type": "unocc",
				"energy": 0.03464,
				"method": "rhf"
			},
			{
				"type": "unocc",
				"energy": 0.04856,
				"method": "rhf"
			},
			{
				"type": "unocc",
				"energy": 0.07161,
				"method": "rhf"
			}
		],
		"cosmo_sigma_profile": { 
			"-0.025": 0.0,
			"-0.024": 0.0,
			"-0.023": 0.0,
			"-0.022": 0.0,
			"-0.021": 0.0,
			"-0.02": 0.0,
			"-0.019": 0.253615061624,
			"-0.018": 0.862332593931,
			"-0.017": 1.28591324883,
			"-0.016": 0.864576325817,
			"-0.015": 2.14566265317,
			"-0.014": 3.56203902021,
			"-0.013": 1.96763063848,
			"-0.012": 2.23343815036,
			"-0.011": 2.14536256988,
			"-0.01": 2.63435315289,
			"-0.009": 2.80568910286,
			"-0.008": 2.99248099738,
			"-0.007": 5.32987427278,
			"-0.006": 6.801188706,
			"-0.005": 9.53879359361,
			"-0.004": 13.8338091558,
			"-0.003": 20.5992121785,
			"-0.002": 22.5776832555,
			"-0.001": 16.5190404415,
			"0.0": 15.2469938438,
			"0.001": 10.9685155135,
			"0.002": 12.0643327369,
			"0.003": 10.8360727303,
			"0.004": 12.4183293757,
			"0.005": 15.420848781,
			"0.006": 13.5625137811,
			"0.007": 11.4589048596,
			"0.008": 6.19403316878,
			"0.009": 3.23594170191,
			"0.01": 4.13932141415,
			"0.011": 4.91792352704,
			"0.012": 2.98201606972,
			"0.013": 1.82581077295,
			"0.014": 0.100833741563,
			"0.015": 0.0,
			"0.016": 0.0,
			"0.017": 0.0,
			"0.018": 0.0,
			"0.019": 0.0,
			"0.02": 0.0,
			"0.021": 0.0,
			"0.022": 0.0,
			"0.023": 0.0,
			"0.024": 0.0,
			"0.025": 0.0
		}
	}
}
