{
	 "smiles": "COC1=CC(=CC=C1)C(C[N+]([O-])=O)C1=CNC2=C1C=CC=C2", 
	 "Tm": 367.15, 
	 "num_atms": 38, 
	 "gaussian": { 
		 "optdone": 1, 
		 "sigma_profile": "yes", 
		 "theory": "DFT", 
		 "functional": "B3LYP", 
		 "basiset": "6-31G**", 
		 "properties": { 
			 "R2extent": 7422.7736, 
			 "electric_dipole_moment_norm": 5.07306331717, 
			 "electric_quadrupole_moment_norm": 13.2617019703, 
			 "total_energy": -992.520884237, 
			 "HOMO_LUMO_gap": 0.13693, 
			 "cosmo_polarized_energy": -18.35, 
			 "cosmo_cavitation_energy": 41.84, 
			 "cosmo_dispersion_energy": -28.54, 
			 "cosmo_repulsion_energy": 2.18, 
			 "cosmo_total_nonelectrostatic_energy": 15.48, 
			 "SMD_solvation_energy": 9.45 
		},
		"coords": [
			{
				"x": 4.5634237361,
				"y": 1.5777935617,
				"z": -1.1084587736,
				"element": "C" 
			},
			{
				"x": 4.1151518814,
				"y": 2.6623616449,
				"z": -0.3124820329,
				"element": "O" 
			},
			{
				"x": 2.7977146298,
				"y": 2.7116801048,
				"z": 0.0418134727,
				"element": "C" 
			},
			{
				"x": 1.8461213737,
				"y": 1.7477060307,
				"z": -0.3140757645,
				"element": "C" 
			},
			{
				"x": 0.508353741,
				"y": 1.8863856926,
				"z": 0.0952829371,
				"element": "C" 
			},
			{
				"x": 0.1400452244,
				"y": 2.9963577168,
				"z": 0.8590280916,
				"element": "C" 
			},
			{
				"x": 1.0951814931,
				"y": 3.9535309592,
				"z": 1.2140269588,
				"element": "C" 
			},
			{
				"x": 2.4182410844,
				"y": 3.8203644152,
				"z": 0.8118124976,
				"element": "C" 
			},
			{
				"x": -0.543826308,
				"y": 0.8403018165,
				"z": -0.2651712076,
				"element": "C" 
			},
			{
				"x": -0.3949363875,
				"y": 0.4300372643,
				"z": -1.7503322088,
				"element": "C" 
			},
			{
				"x": -1.6406158374,
				"y": -0.2282894912,
				"z": -2.2846078954,
				"element": "N" 
			},
			{
				"x": -1.5250945328,
				"y": -1.3329517749,
				"z": -2.800940046,
				"element": "O" 
			},
			{
				"x": -2.68918282,
				"y": 0.4089441632,
				"z": -2.1869045551,
				"element": "O" 
			},
			{
				"x": -0.534533906,
				"y": -0.3443837455,
				"z": 0.6803182824,
				"element": "C" 
			},
			{
				"x": 0.5437447555,
				"y": -0.8116523948,
				"z": 1.3942694041,
				"element": "C" 
			},
			{
				"x": 0.172711231,
				"y": -1.9042648101,
				"z": 2.1493332126,
				"element": "N" 
			},
			{
				"x": -1.1692514383,
				"y": -2.1607475596,
				"z": 1.9543477571,
				"element": "C" 
			},
			{
				"x": -1.6531339682,
				"y": -1.1961074516,
				"z": 1.0273736303,
				"element": "C" 
			},
			{
				"x": -3.014162207,
				"y": -1.2331281194,
				"z": 0.6686174539,
				"element": "C" 
			},
			{
				"x": -3.8331054849,
				"y": -2.2052224464,
				"z": 1.2283138698,
				"element": "C" 
			},
			{
				"x": -3.3278370265,
				"y": -3.1521597005,
				"z": 2.1424312158,
				"element": "C" 
			},
			{
				"x": -1.9901079394,
				"y": -3.1435534152,
				"z": 2.5174398247,
				"element": "C" 
			},
			{
				"x": 4.4276858826,
				"y": 0.614889469,
				"z": -0.5983932266,
				"element": "H" 
			},
			{
				"x": 5.6284422488,
				"y": 1.7459258838,
				"z": -1.2750669592,
				"element": "H" 
			},
			{
				"x": 4.0486430762,
				"y": 1.5445180341,
				"z": -2.0774612566,
				"element": "H" 
			},
			{
				"x": 2.1405952514,
				"y": 0.8904906711,
				"z": -0.907798104,
				"element": "H" 
			},
			{
				"x": -0.8916117152,
				"y": 3.1114638863,
				"z": 1.1780293397,
				"element": "H" 
			},
			{
				"x": 0.8006162718,
				"y": 4.8150088693,
				"z": 1.8064820078,
				"element": "H" 
			},
			{
				"x": 3.1722673118,
				"y": 4.5553650104,
				"z": 1.0727935061,
				"element": "H" 
			},
			{
				"x": -1.5218742699,
				"y": 1.3284091338,
				"z": -0.1949358796,
				"element": "H" 
			},
			{
				"x": -0.258737534,
				"y": 1.316090191,
				"z": -2.3754348305,
				"element": "H" 
			},
			{
				"x": 0.4087206695,
				"y": -0.2843359491,
				"z": -1.918420027,
				"element": "H" 
			},
			{
				"x": 1.5531545501,
				"y": -0.4305020385,
				"z": 1.4390653408,
				"element": "H" 
			},
			{
				"x": 0.7762644444,
				"y": -2.4031347633,
				"z": 2.7819876844,
				"element": "H" 
			},
			{
				"x": -3.4186431805,
				"y": -0.5239160118,
				"z": -0.046287913,
				"element": "H" 
			},
			{
				"x": -4.8831077787,
				"y": -2.2408893596,
				"z": 0.9535562946,
				"element": "H" 
			},
			{
				"x": -3.994437844,
				"y": -3.9012099414,
				"z": 2.5597042549,
				"element": "H" 
			},
			{
				"x": -1.5969786785,
				"y": -3.8707755459,
				"z": 3.2225436436,
				"element": "H" 
			}
		],
		 "valence_orbital": [ 
			{
				"type": "occ",
				"energy": -0.27128,
				"method": "rhf"
			},
			{
				"type": "occ",
				"energy": -0.25563,
				"method": "rhf"
			},
			{
				"type": "occ",
				"energy": -0.22716,
				"method": "rhf"
			},
			{
				"type": "occ",
				"energy": -0.21933,
				"method": "rhf"
			},
			{
				"type": "occ",
				"energy": -0.20106,
				"method": "rhf"
			},
			{
				"type": "unocc",
				"energy": -0.06413,
				"method": "rhf"
			},
			{
				"type": "unocc",
				"energy": -0.01107,
				"method": "rhf"
			},
			{
				"type": "unocc",
				"energy": -0.00813,
				"method": "rhf"
			},
			{
				"type": "unocc",
				"energy": 0.00338,
				"method": "rhf"
			},
			{
				"type": "unocc",
				"energy": 0.03015,
				"method": "rhf"
			}
		],
		"cosmo_sigma_profile": { 
			"-0.025": 0.0,
			"-0.024": 0.0,
			"-0.023": 0.0,
			"-0.022": 0.0,
			"-0.021": 0.0,
			"-0.02": 0.0,
			"-0.019": 0.0,
			"-0.018": 0.0,
			"-0.017": 0.0,
			"-0.016": 0.209334110802,
			"-0.015": 1.61226142119,
			"-0.014": 1.76554354053,
			"-0.013": 1.08312316704,
			"-0.012": 1.27191056258,
			"-0.011": 1.21329576871,
			"-0.01": 1.47959566743,
			"-0.009": 4.18043450041,
			"-0.008": 6.02368788764,
			"-0.007": 6.78263085412,
			"-0.006": 16.6688187598,
			"-0.005": 27.5655205569,
			"-0.004": 25.5435673727,
			"-0.003": 29.400972523,
			"-0.002": 21.3695553181,
			"-0.001": 15.1976732761,
			"0.0": 15.9999491131,
			"0.001": 14.6502439041,
			"0.002": 18.8798530159,
			"0.003": 17.999598382,
			"0.004": 24.1704551073,
			"0.005": 26.1051848514,
			"0.006": 18.617260205,
			"0.007": 15.2186284274,
			"0.008": 10.65671631,
			"0.009": 5.81279012264,
			"0.01": 3.31376566242,
			"0.011": 0.44009563074,
			"0.012": 0.0,
			"0.013": 0.0,
			"0.014": 0.0,
			"0.015": 0.0,
			"0.016": 0.0,
			"0.017": 0.0,
			"0.018": 0.0,
			"0.019": 0.0,
			"0.02": 0.0,
			"0.021": 0.0,
			"0.022": 0.0,
			"0.023": 0.0,
			"0.024": 0.0,
			"0.025": 0.0
		}
	}
}
