{
	 "smiles": "FC1=CC(F)=C(F)C=C1F", 
	 "Tm": 277.4, 
	 "num_atms": 12, 
	 "gaussian": { 
		 "optdone": 1, 
		 "sigma_profile": "yes", 
		 "theory": "DFT", 
		 "functional": "B3LYP", 
		 "basiset": "6-31G**", 
		 "properties": { 
			 "R2extent": 2521.6574, 
			 "electric_dipole_moment_norm": 0.0, 
			 "electric_quadrupole_moment_norm": 6.50361605724, 
			 "total_energy": -629.158961607, 
			 "HOMO_LUMO_gap": 0.21861, 
			 "cosmo_polarized_energy": -3.22, 
			 "cosmo_cavitation_energy": 18.89, 
			 "cosmo_dispersion_energy": -13.45, 
			 "cosmo_repulsion_energy": 1.0, 
			 "cosmo_total_nonelectrostatic_energy": 6.45, 
			 "SMD_solvation_energy": 5.4 
		},
		"coords": [
			{
				"x": 2.4967256299,
				"y": -1.3674105144,
				"z": 0.4599906795,
				"element": "F" 
			},
			{
				"x": 1.2109815264,
				"y": -1.7177119215,
				"z": 0.3036009357,
				"element": "C" 
			},
			{
				"x": 0.7014261472,
				"y": -1.9554514413,
				"z": -0.9674946718,
				"element": "C" 
			},
			{
				"x": -0.633857206,
				"y": -2.3169803396,
				"z": -1.102192672,
				"element": "C" 
			},
			{
				"x": -1.1494553194,
				"y": -2.5517944355,
				"z": -2.3184654206,
				"element": "F" 
			},
			{
				"x": -1.450281056,
				"y": -2.4393882886,
				"z": 0.0213832451,
				"element": "C" 
			},
			{
				"x": -2.7360254443,
				"y": -2.7896893076,
				"z": -0.135008255,
				"element": "F" 
			},
			{
				"x": -0.9407269751,
				"y": -2.201649066,
				"z": 1.2924769885,
				"element": "C" 
			},
			{
				"x": 0.3945579089,
				"y": -1.8401197031,
				"z": 1.4271747839,
				"element": "C" 
			},
			{
				"x": 0.9101526939,
				"y": -1.6053056881,
				"z": 2.6434498048,
				"element": "F" 
			},
			{
				"x": 1.3357853437,
				"y": -1.860362052,
				"z": -1.8405210728,
				"element": "H" 
			},
			{
				"x": -1.5750832494,
				"y": -2.2967372422,
				"z": 2.1655056548,
				"element": "H" 
			}
		],
		 "valence_orbital": [ 
			{
				"type": "occ",
				"energy": -0.38413,
				"method": "rhf"
			},
			{
				"type": "occ",
				"energy": -0.38085,
				"method": "rhf"
			},
			{
				"type": "occ",
				"energy": -0.35579,
				"method": "rhf"
			},
			{
				"type": "occ",
				"energy": -0.27767,
				"method": "rhf"
			},
			{
				"type": "occ",
				"energy": -0.24922,
				"method": "rhf"
			},
			{
				"type": "unocc",
				"energy": -0.03061,
				"method": "rhf"
			},
			{
				"type": "unocc",
				"energy": -0.00874,
				"method": "rhf"
			},
			{
				"type": "unocc",
				"energy": 0.04254,
				"method": "rhf"
			},
			{
				"type": "unocc",
				"energy": 0.10184,
				"method": "rhf"
			},
			{
				"type": "unocc",
				"energy": 0.12752,
				"method": "rhf"
			}
		],
		"cosmo_sigma_profile": { 
			"-0.025": 0.0,
			"-0.024": 0.0,
			"-0.023": 0.0,
			"-0.022": 0.0,
			"-0.021": 0.0,
			"-0.02": 0.0,
			"-0.019": 0.0,
			"-0.018": 0.0,
			"-0.017": 0.0,
			"-0.016": 0.0,
			"-0.015": 0.0,
			"-0.014": 0.0,
			"-0.013": 0.0,
			"-0.012": 0.0,
			"-0.011": 0.0,
			"-0.01": 1.43644287567,
			"-0.009": 3.50728604012,
			"-0.008": 3.15219853601,
			"-0.007": 2.91003907773,
			"-0.006": 2.50010723149,
			"-0.005": 2.72565808757,
			"-0.004": 3.4657070362,
			"-0.003": 4.82207989707,
			"-0.002": 15.8799496026,
			"-0.001": 24.3578682317,
			"0.0": 15.7465015782,
			"0.001": 9.42419578839,
			"0.002": 12.2575463475,
			"0.003": 35.8834735661,
			"0.004": 15.4125891197,
			"0.005": 0.0,
			"0.006": 0.0,
			"0.007": 0.0,
			"0.008": 0.0,
			"0.009": 0.0,
			"0.01": 0.0,
			"0.011": 0.0,
			"0.012": 0.0,
			"0.013": 0.0,
			"0.014": 0.0,
			"0.015": 0.0,
			"0.016": 0.0,
			"0.017": 0.0,
			"0.018": 0.0,
			"0.019": 0.0,
			"0.02": 0.0,
			"0.021": 0.0,
			"0.022": 0.0,
			"0.023": 0.0,
			"0.024": 0.0,
			"0.025": 0.0
		}
	}
}
