{
	 "smiles": "[O-][N+](=O)C1=CC(NC=O)=C(Cl)C=C1", 
	 "Tm": 457.15, 
	 "num_atms": 18, 
	 "gaussian": { 
		 "optdone": 1, 
		 "sigma_profile": "yes", 
		 "theory": "DFT", 
		 "functional": "B3LYP", 
		 "basiset": "6-31G**", 
		 "properties": { 
			 "R2extent": 3213.945, 
			 "electric_dipole_moment_norm": 3.34097659675, 
			 "electric_quadrupole_moment_norm": 14.3769522573, 
			 "total_energy": -1065.02741834, 
			 "HOMO_LUMO_gap": 0.15212, 
			 "cosmo_polarized_energy": -13.68, 
			 "cosmo_cavitation_energy": 25.71, 
			 "cosmo_dispersion_energy": -18.96, 
			 "cosmo_repulsion_energy": 1.49, 
			 "cosmo_total_nonelectrostatic_energy": 8.25, 
			 "SMD_solvation_energy": 7.96 
		},
		"coords": [
			{
				"x": 1.9005230005,
				"y": -3.2814552384,
				"z": 0.6653989223,
				"element": "O" 
			},
			{
				"x": 1.4115099622,
				"y": -2.2539574967,
				"z": 1.1298100842,
				"element": "N" 
			},
			{
				"x": 1.6020462135,
				"y": -1.8357271715,
				"z": 2.270841344,
				"element": "O" 
			},
			{
				"x": 0.5294799072,
				"y": -1.4649820531,
				"z": 0.2500151994,
				"element": "C" 
			},
			{
				"x": -0.0310967836,
				"y": -0.3010398913,
				"z": 0.7607316298,
				"element": "C" 
			},
			{
				"x": -0.8750988076,
				"y": 0.4750498801,
				"z": -0.0466961674,
				"element": "C" 
			},
			{
				"x": -1.4733357773,
				"y": 1.6539650155,
				"z": 0.3960984443,
				"element": "N" 
			},
			{
				"x": -1.3736871393,
				"y": 2.2684724331,
				"z": 1.628630783,
				"element": "C" 
			},
			{
				"x": -1.9521278458,
				"y": 3.3032245063,
				"z": 1.8878915488,
				"element": "O" 
			},
			{
				"x": -1.113695706,
				"y": 0.0200145182,
				"z": -1.3635551937,
				"element": "C" 
			},
			{
				"x": -2.1603076231,
				"y": 0.9468176327,
				"z": -2.4220330724,
				"element": "Cl" 
			},
			{
				"x": -0.5399372147,
				"y": -1.1512079304,
				"z": -1.8538256253,
				"element": "C" 
			},
			{
				"x": 0.2959196145,
				"y": -1.9144249433,
				"z": -1.0457178841,
				"element": "C" 
			},
			{
				"x": 0.2049087958,
				"y": -0.0271655484,
				"z": 1.7792924174,
				"element": "H" 
			},
			{
				"x": -2.068458346,
				"y": 2.1454781511,
				"z": -0.2614030963,
				"element": "H" 
			},
			{
				"x": -0.7287332654,
				"y": 1.7407782218,
				"z": 2.348755096,
				"element": "H" 
			},
			{
				"x": -0.7537375621,
				"y": -1.4580732724,
				"z": -2.8710799456,
				"element": "H" 
			},
			{
				"x": 0.7561285774,
				"y": -2.8280668136,
				"z": -1.3972544844,
				"element": "H" 
			}
		],
		 "valence_orbital": [ 
			{
				"type": "occ",
				"energy": -0.32198,
				"method": "rhf"
			},
			{
				"type": "occ",
				"energy": -0.30557,
				"method": "rhf"
			},
			{
				"type": "occ",
				"energy": -0.29256,
				"method": "rhf"
			},
			{
				"type": "occ",
				"energy": -0.28447,
				"method": "rhf"
			},
			{
				"type": "occ",
				"energy": -0.2571,
				"method": "rhf"
			},
			{
				"type": "unocc",
				"energy": -0.10498,
				"method": "rhf"
			},
			{
				"type": "unocc",
				"energy": -0.05532,
				"method": "rhf"
			},
			{
				"type": "unocc",
				"energy": -0.02239,
				"method": "rhf"
			},
			{
				"type": "unocc",
				"energy": -0.0041,
				"method": "rhf"
			},
			{
				"type": "unocc",
				"energy": 0.01347,
				"method": "rhf"
			}
		],
		"cosmo_sigma_profile": { 
			"-0.025": 0.0,
			"-0.024": 0.0,
			"-0.023": 0.0,
			"-0.022": 0.0,
			"-0.021": 0.0,
			"-0.02": 0.0,
			"-0.019": 0.0,
			"-0.018": 0.0,
			"-0.017": 0.0,
			"-0.016": 0.0,
			"-0.015": 0.0,
			"-0.014": 0.0,
			"-0.013": 0.112351087277,
			"-0.012": 1.7979511845,
			"-0.011": 2.61838534785,
			"-0.01": 3.15106712212,
			"-0.009": 4.69346430479,
			"-0.008": 6.59114253851,
			"-0.007": 8.31499878299,
			"-0.006": 7.87511613412,
			"-0.005": 9.54242086137,
			"-0.004": 10.5733139507,
			"-0.003": 12.3464809249,
			"-0.002": 19.481592633,
			"-0.001": 24.171800675,
			"0.0": 17.6263208407,
			"0.001": 11.3907937575,
			"0.002": 9.19557135607,
			"0.003": 8.60947407449,
			"0.004": 4.03778578167,
			"0.005": 4.89311254073,
			"0.006": 5.81611083794,
			"0.007": 10.113439317,
			"0.008": 7.16915111042,
			"0.009": 5.70649832314,
			"0.01": 3.06689000441,
			"0.011": 3.90558369148,
			"0.012": 5.08000954846,
			"0.013": 1.79586608476,
			"0.014": 0.0785942531015,
			"0.015": 0.0,
			"0.016": 0.0,
			"0.017": 0.0,
			"0.018": 0.0,
			"0.019": 0.0,
			"0.02": 0.0,
			"0.021": 0.0,
			"0.022": 0.0,
			"0.023": 0.0,
			"0.024": 0.0,
			"0.025": 0.0
		}
	}
}
