{
	 "smiles": "CC12CC(O)C3(F)C(CCC4=CC(=O)C=CC34C)C1CC(O)C2(O)C(=O)CO", 
	 "Tm": 542.15, 
	 "num_atms": 55, 
	 "gaussian": { 
		 "optdone": 1, 
		 "sigma_profile": "yes", 
		 "theory": "DFT", 
		 "functional": "B3LYP", 
		 "basiset": "6-31G**", 
		 "properties": { 
			 "R2extent": 11359.4425, 
			 "electric_dipole_moment_norm": 5.57201477564, 
			 "electric_quadrupole_moment_norm": 41.2777838842, 
			 "total_energy": -1367.62975599, 
			 "HOMO_LUMO_gap": 0.17189, 
			 "cosmo_polarized_energy": -25.54, 
			 "cosmo_cavitation_energy": 47.67, 
			 "cosmo_dispersion_energy": -34.04, 
			 "cosmo_repulsion_energy": 2.44, 
			 "cosmo_total_nonelectrostatic_energy": 16.07, 
			 "SMD_solvation_energy": 8.54 
		},
		"coords": [
			{
				"x": 1.1732272999,
				"y": -1.1191496325,
				"z": 2.297324421,
				"element": "C" 
			},
			{
				"x": 1.1457812199,
				"y": 0.3000931865,
				"z": 1.6867788991,
				"element": "C" 
			},
			{
				"x": -0.2110726166,
				"y": 0.9507202745,
				"z": 2.0272367279,
				"element": "C" 
			},
			{
				"x": -1.4268858472,
				"y": 0.3334321855,
				"z": 1.3058245079,
				"element": "C" 
			},
			{
				"x": -2.5390622472,
				"y": 1.2045928058,
				"z": 1.4281846509,
				"element": "O" 
			},
			{
				"x": -1.1210842937,
				"y": -0.1257233299,
				"z": -0.1618006163,
				"element": "C" 
			},
			{
				"x": -0.7649663379,
				"y": -1.4991639702,
				"z": -0.042007737,
				"element": "F" 
			},
			{
				"x": 0.1061295646,
				"y": 0.5906919421,
				"z": -0.7503344245,
				"element": "C" 
			},
			{
				"x": -0.2620914133,
				"y": 2.0570062667,
				"z": -1.0737606412,
				"element": "C" 
			},
			{
				"x": -1.4548659598,
				"y": 2.1184764437,
				"z": -2.050104186,
				"element": "C" 
			},
			{
				"x": -2.6459140358,
				"y": 1.333315967,
				"z": -1.556575861,
				"element": "C" 
			},
			{
				"x": -3.8924245525,
				"y": 1.8409917282,
				"z": -1.5465677083,
				"element": "C" 
			},
			{
				"x": -5.0674672744,
				"y": 1.0941694086,
				"z": -1.052578658,
				"element": "C" 
			},
			{
				"x": -6.1997139154,
				"y": 1.57149175,
				"z": -1.0912177595,
				"element": "O" 
			},
			{
				"x": -4.7965869995,
				"y": -0.2474975454,
				"z": -0.4980354514,
				"element": "C" 
			},
			{
				"x": -3.5603273086,
				"y": -0.7622279316,
				"z": -0.4808309851,
				"element": "C" 
			},
			{
				"x": -2.3658024424,
				"y": -0.094297938,
				"z": -1.1178936408,
				"element": "C" 
			},
			{
				"x": -2.0635493912,
				"y": -0.9483794629,
				"z": -2.3957184541,
				"element": "C" 
			},
			{
				"x": 1.3744617547,
				"y": 0.304699165,
				"z": 0.1251090347,
				"element": "C" 
			},
			{
				"x": 2.5685967135,
				"y": 1.2616904682,
				"z": -0.1555180042,
				"element": "C" 
			},
			{
				"x": 2.7537339665,
				"y": 2.1255154454,
				"z": 1.0892942275,
				"element": "C" 
			},
			{
				"x": 1.8928832733,
				"y": 3.2479345617,
				"z": 1.0224374829,
				"element": "O" 
			},
			{
				"x": 2.3162705449,
				"y": 1.2146084746,
				"z": 2.2773290505,
				"element": "C" 
			},
			{
				"x": 1.8681291947,
				"y": 2.033676804,
				"z": 3.3410133643,
				"element": "O" 
			},
			{
				"x": 3.499495084,
				"y": 0.3967369371,
				"z": 2.8180259009,
				"element": "C" 
			},
			{
				"x": 3.7029199109,
				"y": 0.3938371331,
				"z": 4.0270647186,
				"element": "O" 
			},
			{
				"x": 4.4865086737,
				"y": -0.3543414001,
				"z": 1.9350043649,
				"element": "C" 
			},
			{
				"x": 5.3180633123,
				"y": -1.1865354782,
				"z": 2.6903423795,
				"element": "O" 
			},
			{
				"x": 1.1062446263,
				"y": -1.0661289545,
				"z": 3.3895091125,
				"element": "H" 
			},
			{
				"x": 0.3356920659,
				"y": -1.7126195191,
				"z": 1.9313336078,
				"element": "H" 
			},
			{
				"x": 2.0821854348,
				"y": -1.6731334129,
				"z": 2.0444372534,
				"element": "H" 
			},
			{
				"x": -0.3926321871,
				"y": 0.9085459963,
				"z": 3.103577307,
				"element": "H" 
			},
			{
				"x": -0.1634305349,
				"y": 2.0129791573,
				"z": 1.7760673076,
				"element": "H" 
			},
			{
				"x": -1.7413257767,
				"y": -0.5810387518,
				"z": 1.8171046283,
				"element": "H" 
			},
			{
				"x": -2.2776724638,
				"y": 2.0897522352,
				"z": 1.1439732285,
				"element": "H" 
			},
			{
				"x": 0.3236918984,
				"y": 0.1188827983,
				"z": -1.7162318712,
				"element": "H" 
			},
			{
				"x": 0.5891640363,
				"y": 2.5707692207,
				"z": -1.5260488201,
				"element": "H" 
			},
			{
				"x": -0.4894443671,
				"y": 2.6278962749,
				"z": -0.1700830962,
				"element": "H" 
			},
			{
				"x": -1.1301290721,
				"y": 1.7160205268,
				"z": -3.0206705755,
				"element": "H" 
			},
			{
				"x": -1.7446061379,
				"y": 3.1584984625,
				"z": -2.2299419647,
				"element": "H" 
			},
			{
				"x": -4.0927159766,
				"y": 2.8488771914,
				"z": -1.9027869181,
				"element": "H" 
			},
			{
				"x": -5.6490364698,
				"y": -0.7800792207,
				"z": -0.0867433134,
				"element": "H" 
			},
			{
				"x": -3.3751903273,
				"y": -1.7492276484,
				"z": -0.0622734581,
				"element": "H" 
			},
			{
				"x": -1.2226659925,
				"y": -0.5553816587,
				"z": -2.9715200968,
				"element": "H" 
			},
			{
				"x": -2.9458093484,
				"y": -0.9487630107,
				"z": -3.0397318686,
				"element": "H" 
			},
			{
				"x": -1.8307188849,
				"y": -1.976583246,
				"z": -2.1137884301,
				"element": "H" 
			},
			{
				"x": 1.6721019765,
				"y": -0.7084819911,
				"z": -0.1592313674,
				"element": "H" 
			},
			{
				"x": 3.4800120065,
				"y": 0.6866556592,
				"z": -0.3424663929,
				"element": "H" 
			},
			{
				"x": 2.429437855,
				"y": 1.8970336266,
				"z": -1.0324875561,
				"element": "H" 
			},
			{
				"x": 3.7959696608,
				"y": 2.4638229322,
				"z": 1.2068365425,
				"element": "H" 
			},
			{
				"x": 1.7744811955,
				"y": 3.5373344491,
				"z": 1.9423859799,
				"element": "H" 
			},
			{
				"x": 2.3473808398,
				"y": 1.7314057009,
				"z": 4.1346694418,
				"element": "H" 
			},
			{
				"x": 3.9607233878,
				"y": -0.9436628972,
				"z": 1.1756328131,
				"element": "H" 
			},
			{
				"x": 5.063267428,
				"y": 0.4155393025,
				"z": 1.38809079,
				"element": "H" 
			},
			{
				"x": 5.2315392495,
				"y": -0.8852774816,
				"z": 3.6105621137,
				"element": "H" 
			}
		],
		 "valence_orbital": [ 
			{
				"type": "occ",
				"energy": -0.28164,
				"method": "rhf"
			},
			{
				"type": "occ",
				"energy": -0.27362,
				"method": "rhf"
			},
			{
				"type": "occ",
				"energy": -0.26481,
				"method": "rhf"
			},
			{
				"type": "occ",
				"energy": -0.24717,
				"method": "rhf"
			},
			{
				"type": "occ",
				"energy": -0.23008,
				"method": "rhf"
			},
			{
				"type": "unocc",
				"energy": -0.05819,
				"method": "rhf"
			},
			{
				"type": "unocc",
				"energy": -0.05292,
				"method": "rhf"
			},
			{
				"type": "unocc",
				"energy": -0.00206,
				"method": "rhf"
			},
			{
				"type": "unocc",
				"energy": 0.04366,
				"method": "rhf"
			},
			{
				"type": "unocc",
				"energy": 0.05439,
				"method": "rhf"
			}
		],
		"cosmo_sigma_profile": { 
			"-0.025": 0.0,
			"-0.024": 0.0,
			"-0.023": 0.0,
			"-0.022": 0.0,
			"-0.021": 0.0,
			"-0.02": 0.0,
			"-0.019": 0.0,
			"-0.018": 0.0,
			"-0.017": 0.0,
			"-0.016": 0.0,
			"-0.015": 0.114759942196,
			"-0.014": 0.740616085905,
			"-0.013": 0.97203587454,
			"-0.012": 1.73728023705,
			"-0.011": 1.85518165723,
			"-0.01": 2.65313939046,
			"-0.009": 3.29814008337,
			"-0.008": 6.61305394616,
			"-0.007": 11.3193332618,
			"-0.006": 15.7483312235,
			"-0.005": 24.0087876901,
			"-0.004": 31.5473124917,
			"-0.003": 40.9801932937,
			"-0.002": 34.8268045144,
			"-0.001": 34.5695776476,
			"0.0": 24.3342893498,
			"0.001": 20.4553578269,
			"0.002": 16.9041106386,
			"0.003": 13.0724981534,
			"0.004": 9.38237364547,
			"0.005": 11.034936313,
			"0.006": 9.28896927024,
			"0.007": 7.50733095336,
			"0.008": 7.40072986219,
			"0.009": 5.89002167757,
			"0.01": 5.51353824539,
			"0.011": 5.46411806196,
			"0.012": 6.27843556646,
			"0.013": 9.15703619135,
			"0.014": 5.88309923106,
			"0.015": 1.51944474965,
			"0.016": 0.0,
			"0.017": 0.0,
			"0.018": 0.0,
			"0.019": 0.0,
			"0.02": 0.0,
			"0.021": 0.0,
			"0.022": 0.0,
			"0.023": 0.0,
			"0.024": 0.0,
			"0.025": 0.0
		}
	}
}
