{
	 "smiles": "CC(C)(C)NS(=O)(=O)C1=CC=C(C=C1)C(O)=O", 
	 "Tm": 456.15, 
	 "num_atms": 32, 
	 "gaussian": { 
		 "optdone": 1, 
		 "sigma_profile": "yes", 
		 "theory": "DFT", 
		 "functional": "B3LYP", 
		 "basiset": "6-31G**", 
		 "properties": { 
			 "R2extent": 6004.2505, 
			 "electric_dipole_moment_norm": 6.02193341793, 
			 "electric_quadrupole_moment_norm": 21.0289773144, 
			 "total_energy": -1181.99460367, 
			 "HOMO_LUMO_gap": 0.19252, 
			 "cosmo_polarized_energy": -22.47, 
			 "cosmo_cavitation_energy": 36.31, 
			 "cosmo_dispersion_energy": -25.47, 
			 "cosmo_repulsion_energy": 1.92, 
			 "cosmo_total_nonelectrostatic_energy": 12.75, 
			 "SMD_solvation_energy": 6.61 
		},
		"coords": [
			{
				"x": 0.5977476193,
				"y": -0.8584058228,
				"z": 1.6814429494,
				"element": "C" 
			},
			{
				"x": -0.8411790768,
				"y": -0.5791287136,
				"z": 2.1392996857,
				"element": "C" 
			},
			{
				"x": -0.838232567,
				"y": 0.5273833131,
				"z": 3.2083008644,
				"element": "C" 
			},
			{
				"x": -1.4961932141,
				"y": -1.8548574636,
				"z": 2.7009104786,
				"element": "C" 
			},
			{
				"x": -1.6333580174,
				"y": -0.0058640443,
				"z": 1.0045750189,
				"element": "N" 
			},
			{
				"x": -1.817922582,
				"y": -0.7411764118,
				"z": -0.4993291056,
				"element": "S" 
			},
			{
				"x": -3.1349613206,
				"y": -0.2909817269,
				"z": -0.9633492297,
				"element": "O" 
			},
			{
				"x": -1.4684878202,
				"y": -2.1671273741,
				"z": -0.4703786431,
				"element": "O" 
			},
			{
				"x": -0.5695634833,
				"y": 0.0736134266,
				"z": -1.5111520914,
				"element": "C" 
			},
			{
				"x": 0.3796029547,
				"y": -0.7019951168,
				"z": -2.1772268308,
				"element": "C" 
			},
			{
				"x": 1.3069560362,
				"y": -0.0753600656,
				"z": -3.0069366664,
				"element": "C" 
			},
			{
				"x": 1.2940770675,
				"y": 1.3160759422,
				"z": -3.1602717752,
				"element": "C" 
			},
			{
				"x": 0.3159027865,
				"y": 2.0770680257,
				"z": -2.5002242157,
				"element": "C" 
			},
			{
				"x": -0.6215546789,
				"y": 1.4590577032,
				"z": -1.6781041348,
				"element": "C" 
			},
			{
				"x": 2.3253885617,
				"y": 1.921950534,
				"z": -4.0701191857,
				"element": "C" 
			},
			{
				"x": 2.5864211592,
				"y": 3.2452395004,
				"z": -3.9065340779,
				"element": "O" 
			},
			{
				"x": 2.9114794259,
				"y": 1.2877683416,
				"z": -4.914178874,
				"element": "O" 
			},
			{
				"x": 1.0542887561,
				"y": 0.0407285226,
				"z": 1.2571950023,
				"element": "H" 
			},
			{
				"x": 1.1966135215,
				"y": -1.1729040588,
				"z": 2.5412402406,
				"element": "H" 
			},
			{
				"x": 0.6331540973,
				"y": -1.6586899474,
				"z": 0.9390733737,
				"element": "H" 
			},
			{
				"x": -1.8572555602,
				"y": 0.7678253032,
				"z": 3.5331966866,
				"element": "H" 
			},
			{
				"x": -0.2807590679,
				"y": 0.1950824219,
				"z": 4.0892141934,
				"element": "H" 
			},
			{
				"x": -0.3749976732,
				"y": 1.4409257728,
				"z": 2.825059442,
				"element": "H" 
			},
			{
				"x": -2.5196409681,
				"y": -1.6497326538,
				"z": 3.0348230239,
				"element": "H" 
			},
			{
				"x": -0.9311936376,
				"y": -2.223223799,
				"z": 3.5637902403,
				"element": "H" 
			},
			{
				"x": -1.5312443606,
				"y": -2.6406258609,
				"z": 1.9442286164,
				"element": "H" 
			},
			{
				"x": -2.566402775,
				"y": 0.2890046537,
				"z": 1.2852776945,
				"element": "H" 
			},
			{
				"x": 0.3793088851,
				"y": -1.7777678895,
				"z": -2.043119105,
				"element": "H" 
			},
			{
				"x": 2.0516030254,
				"y": -0.6491195153,
				"z": -3.5476116563,
				"element": "H" 
			},
			{
				"x": 0.2473050737,
				"y": 3.1511940905,
				"z": -2.6530577896,
				"element": "H" 
			},
			{
				"x": -1.3864511631,
				"y": 2.0411495737,
				"z": -1.1763060231,
				"element": "H" 
			},
			{
				"x": 2.168548996,
				"y": 3.5762933391,
				"z": -3.0997281067,
				"element": "H" 
			}
		],
		 "valence_orbital": [ 
			{
				"type": "occ",
				"energy": -0.30877,
				"method": "rhf"
			},
			{
				"type": "occ",
				"energy": -0.29738,
				"method": "rhf"
			},
			{
				"type": "occ",
				"energy": -0.28879,
				"method": "rhf"
			},
			{
				"type": "occ",
				"energy": -0.28291,
				"method": "rhf"
			},
			{
				"type": "occ",
				"energy": -0.26767,
				"method": "rhf"
			},
			{
				"type": "unocc",
				"energy": -0.07515,
				"method": "rhf"
			},
			{
				"type": "unocc",
				"energy": -0.03892,
				"method": "rhf"
			},
			{
				"type": "unocc",
				"energy": 0.02071,
				"method": "rhf"
			},
			{
				"type": "unocc",
				"energy": 0.04104,
				"method": "rhf"
			},
			{
				"type": "unocc",
				"energy": 0.05475,
				"method": "rhf"
			}
		],
		"cosmo_sigma_profile": { 
			"-0.025": 0.0,
			"-0.024": 0.0,
			"-0.023": 0.0,
			"-0.022": 0.0,
			"-0.021": 0.0,
			"-0.02": 0.0219457555031,
			"-0.019": 0.629509595071,
			"-0.018": 0.806812196739,
			"-0.017": 1.21627463937,
			"-0.016": 0.923544592538,
			"-0.015": 0.781470482607,
			"-0.014": 1.02085419831,
			"-0.013": 2.58314977333,
			"-0.012": 1.76663883202,
			"-0.011": 2.58448385829,
			"-0.01": 2.45601481735,
			"-0.009": 3.47796780639,
			"-0.008": 5.68202714411,
			"-0.007": 8.82903777125,
			"-0.006": 8.26210188349,
			"-0.005": 7.545461575,
			"-0.004": 19.5443880918,
			"-0.003": 21.5420945424,
			"-0.002": 24.488065358,
			"-0.001": 26.0612885612,
			"0.0": 35.9762225659,
			"0.001": 28.248035041,
			"0.002": 8.04070847327,
			"0.003": 6.88764068943,
			"0.004": 6.00972286558,
			"0.005": 5.58412883098,
			"0.006": 5.74949460733,
			"0.007": 5.05682025599,
			"0.008": 6.58924543166,
			"0.009": 7.02780511111,
			"0.01": 12.0908807626,
			"0.011": 13.1023630301,
			"0.012": 5.29621139406,
			"0.013": 0.649442868248,
			"0.014": 0.0,
			"0.015": 0.0,
			"0.016": 0.0,
			"0.017": 0.0,
			"0.018": 0.0,
			"0.019": 0.0,
			"0.02": 0.0,
			"0.021": 0.0,
			"0.022": 0.0,
			"0.023": 0.0,
			"0.024": 0.0,
			"0.025": 0.0
		}
	}
}
