{
	 "smiles": "CCC1=C(N(COC(C)C)C(=O)CCl)C(C)=CC=C1", 
	 "Tm": 294.75, 
	 "num_atms": 41, 
	 "gaussian": { 
		 "optdone": 1, 
		 "sigma_profile": "yes", 
		 "theory": "DFT", 
		 "functional": "B3LYP", 
		 "basiset": "6-31G**", 
		 "properties": { 
			 "R2extent": 5993.1356, 
			 "electric_dipole_moment_norm": 3.43742808943, 
			 "electric_quadrupole_moment_norm": 10.892672532, 
			 "total_energy": -1250.26532988, 
			 "HOMO_LUMO_gap": 0.21986, 
			 "cosmo_polarized_energy": -12.22, 
			 "cosmo_cavitation_energy": 42.86, 
			 "cosmo_dispersion_energy": -28.21, 
			 "cosmo_repulsion_energy": 2.21, 
			 "cosmo_total_nonelectrostatic_energy": 16.86, 
			 "SMD_solvation_energy": 7.67 
		},
		"coords": [
			{
				"x": -0.4904811562,
				"y": 2.5006303921,
				"z": -1.7351308409,
				"element": "C" 
			},
			{
				"x": -0.9848962661,
				"y": 1.9143017765,
				"z": -0.4000387542,
				"element": "C" 
			},
			{
				"x": 0.0714068252,
				"y": 1.9109921236,
				"z": 0.6897381463,
				"element": "C" 
			},
			{
				"x": 0.71799203,
				"y": 0.7407867425,
				"z": 1.1365386143,
				"element": "C" 
			},
			{
				"x": 0.3678236885,
				"y": -0.5467038887,
				"z": 0.5807877479,
				"element": "N" 
			},
			{
				"x": -0.6733383293,
				"y": -1.3248877662,
				"z": 1.2386644822,
				"element": "C" 
			},
			{
				"x": -1.9361439391,
				"y": -0.9904062743,
				"z": 0.6935130619,
				"element": "O" 
			},
			{
				"x": -2.9522018709,
				"y": -2.0108813558,
				"z": 0.7122977502,
				"element": "C" 
			},
			{
				"x": -3.2656396001,
				"y": -2.486143702,
				"z": 2.1341268467,
				"element": "C" 
			},
			{
				"x": -2.6399361631,
				"y": -3.1595515593,
				"z": -0.2505988765,
				"element": "C" 
			},
			{
				"x": 0.9203626835,
				"y": -1.0895145205,
				"z": -0.5631971482,
				"element": "C" 
			},
			{
				"x": 0.5610045637,
				"y": -2.1646130349,
				"z": -1.0202595927,
				"element": "O" 
			},
			{
				"x": 2.0366830266,
				"y": -0.2992564553,
				"z": -1.250063124,
				"element": "C" 
			},
			{
				"x": 3.6434555597,
				"y": -1.0860265173,
				"z": -0.9453083155,
				"element": "Cl" 
			},
			{
				"x": 1.684279848,
				"y": 0.7783274773,
				"z": 2.166542909,
				"element": "C" 
			},
			{
				"x": 2.358572853,
				"y": -0.4808238171,
				"z": 2.6594037502,
				"element": "C" 
			},
			{
				"x": 2.0092989446,
				"y": 2.0157567371,
				"z": 2.7297038382,
				"element": "C" 
			},
			{
				"x": 1.390063532,
				"y": 3.1861351302,
				"z": 2.2926182893,
				"element": "C" 
			},
			{
				"x": 0.4318314609,
				"y": 3.1286599233,
				"z": 1.2866628516,
				"element": "C" 
			},
			{
				"x": 0.318054041,
				"y": 1.9017069642,
				"z": -2.1666930808,
				"element": "H" 
			},
			{
				"x": -1.3053948764,
				"y": 2.5297957969,
				"z": -2.4655806138,
				"element": "H" 
			},
			{
				"x": -0.1127833082,
				"y": 3.5210093149,
				"z": -1.6115210447,
				"element": "H" 
			},
			{
				"x": -1.8304545189,
				"y": 2.517999612,
				"z": -0.0474965374,
				"element": "H" 
			},
			{
				"x": -1.3727463625,
				"y": 0.9058151033,
				"z": -0.5493521044,
				"element": "H" 
			},
			{
				"x": -0.640832791,
				"y": -1.078888451,
				"z": 2.3069142422,
				"element": "H" 
			},
			{
				"x": -0.4389054434,
				"y": -2.3814208689,
				"z": 1.0901929064,
				"element": "H" 
			},
			{
				"x": -3.8286662462,
				"y": -1.4741863177,
				"z": 0.3312018919,
				"element": "H" 
			},
			{
				"x": -3.4677763416,
				"y": -1.6337681796,
				"z": 2.7898819735,
				"element": "H" 
			},
			{
				"x": -2.4378198221,
				"y": -3.0636416545,
				"z": 2.5603913454,
				"element": "H" 
			},
			{
				"x": -4.1487029876,
				"y": -3.1333176386,
				"z": 2.1310780069,
				"element": "H" 
			},
			{
				"x": -2.3729317123,
				"y": -2.7681520085,
				"z": -1.2347014664,
				"element": "H" 
			},
			{
				"x": -1.8091386656,
				"y": -3.7810781254,
				"z": 0.0956696148,
				"element": "H" 
			},
			{
				"x": -3.5186446645,
				"y": -3.8054867366,
				"z": -0.3526445224,
				"element": "H" 
			},
			{
				"x": 1.8696959813,
				"y": -0.3487943939,
				"z": -2.3253045569,
				"element": "H" 
			},
			{
				"x": 2.1245857664,
				"y": 0.731857668,
				"z": -0.9184706201,
				"element": "H" 
			},
			{
				"x": 2.8799440454,
				"y": -1.0043233068,
				"z": 1.8524372159,
				"element": "H" 
			},
			{
				"x": 3.0899860159,
				"y": -0.2434294045,
				"z": 3.4359931175,
				"element": "H" 
			},
			{
				"x": 1.6386146465,
				"y": -1.1874424158,
				"z": 3.0876570024,
				"element": "H" 
			},
			{
				"x": 2.7541075039,
				"y": 2.0577158081,
				"z": 3.5196362759,
				"element": "H" 
			},
			{
				"x": 1.6505509168,
				"y": 4.1397088191,
				"z": 2.7431494038,
				"element": "H" 
			},
			{
				"x": -0.0612788679,
				"y": 4.0397390041,
				"z": 0.9570599144,
				"element": "H" 
			}
		],
		 "valence_orbital": [ 
			{
				"type": "occ",
				"energy": -0.26966,
				"method": "rhf"
			},
			{
				"type": "occ",
				"energy": -0.26108,
				"method": "rhf"
			},
			{
				"type": "occ",
				"energy": -0.25516,
				"method": "rhf"
			},
			{
				"type": "occ",
				"energy": -0.24514,
				"method": "rhf"
			},
			{
				"type": "occ",
				"energy": -0.24425,
				"method": "rhf"
			},
			{
				"type": "unocc",
				"energy": -0.02439,
				"method": "rhf"
			},
			{
				"type": "unocc",
				"energy": -0.01453,
				"method": "rhf"
			},
			{
				"type": "unocc",
				"energy": -0.00605,
				"method": "rhf"
			},
			{
				"type": "unocc",
				"energy": 0.05296,
				"method": "rhf"
			},
			{
				"type": "unocc",
				"energy": 0.08597,
				"method": "rhf"
			}
		],
		"cosmo_sigma_profile": { 
			"-0.025": 0.0,
			"-0.024": 0.0,
			"-0.023": 0.0,
			"-0.022": 0.0,
			"-0.021": 0.0,
			"-0.02": 0.0,
			"-0.019": 0.0,
			"-0.018": 0.0,
			"-0.017": 0.0,
			"-0.016": 0.0,
			"-0.015": 0.0,
			"-0.014": 0.0,
			"-0.013": 0.0,
			"-0.012": 0.0,
			"-0.011": 0.0,
			"-0.01": 0.0,
			"-0.009": 0.668620683677,
			"-0.008": 2.0581248158,
			"-0.007": 3.7905534568,
			"-0.006": 11.1495138006,
			"-0.005": 18.4133566967,
			"-0.004": 28.6468553361,
			"-0.003": 36.0122121026,
			"-0.002": 32.8470718638,
			"-0.001": 36.9824420026,
			"0.0": 38.2679653236,
			"0.001": 31.8751093949,
			"0.002": 17.6710079146,
			"0.003": 14.2415682995,
			"0.004": 15.2043697589,
			"0.005": 16.6608269829,
			"0.006": 9.30110253359,
			"0.007": 6.3581706338,
			"0.008": 4.87347244023,
			"0.009": 3.17802800781,
			"0.01": 1.82619552361,
			"0.011": 2.68997239079,
			"0.012": 2.03529327043,
			"0.013": 2.46085274989,
			"0.014": 0.653401292688,
			"0.015": 0.0,
			"0.016": 0.0,
			"0.017": 0.0,
			"0.018": 0.0,
			"0.019": 0.0,
			"0.02": 0.0,
			"0.021": 0.0,
			"0.022": 0.0,
			"0.023": 0.0,
			"0.024": 0.0,
			"0.025": 0.0
		}
	}
}
