{
	 "smiles": "NC(=O)CCSC1=CC=C(F)C=C1", 
	 "Tm": 393.15, 
	 "num_atms": 23, 
	 "gaussian": { 
		 "optdone": 1, 
		 "sigma_profile": "yes", 
		 "theory": "DFT", 
		 "functional": "B3LYP", 
		 "basiset": "6-31G**", 
		 "properties": { 
			 "R2extent": 3920.1024, 
			 "electric_dipole_moment_norm": 4.03978956506, 
			 "electric_quadrupole_moment_norm": 8.94355617023, 
			 "total_energy": -977.000104676, 
			 "HOMO_LUMO_gap": 0.20236, 
			 "cosmo_polarized_energy": -13.94, 
			 "cosmo_cavitation_energy": 28.86, 
			 "cosmo_dispersion_energy": -21.17, 
			 "cosmo_repulsion_energy": 1.64, 
			 "cosmo_total_nonelectrostatic_energy": 9.33, 
			 "SMD_solvation_energy": 5.63 
		},
		"coords": [
			{
				"x": -2.2577542069,
				"y": -0.2025165365,
				"z": 2.8442739598,
				"element": "N" 
			},
			{
				"x": -1.5418433127,
				"y": 0.7109119281,
				"z": 2.1282008968,
				"element": "C" 
			},
			{
				"x": -0.4426264841,
				"y": 1.1112444559,
				"z": 2.4924905699,
				"element": "O" 
			},
			{
				"x": -2.237858924,
				"y": 1.2635725321,
				"z": 0.883147103,
				"element": "C" 
			},
			{
				"x": -1.242714298,
				"y": 1.581432405,
				"z": -0.2313898164,
				"element": "C" 
			},
			{
				"x": -0.5828233363,
				"y": 0.0346041285,
				"z": -1.0051839129,
				"element": "S" 
			},
			{
				"x": 1.1858093918,
				"y": 0.3297804259,
				"z": -1.0527219905,
				"element": "C" 
			},
			{
				"x": 1.9144966691,
				"y": 0.643359538,
				"z": 0.1055546252,
				"element": "C" 
			},
			{
				"x": 3.2962446995,
				"y": 0.8150845248,
				"z": 0.0375740559,
				"element": "C" 
			},
			{
				"x": 3.939820504,
				"y": 0.6400536602,
				"z": -1.183503259,
				"element": "C" 
			},
			{
				"x": 5.2796935734,
				"y": 0.7948520629,
				"z": -1.2454900316,
				"element": "F" 
			},
			{
				"x": 3.2447965401,
				"y": 0.3125420245,
				"z": -2.3409373997,
				"element": "C" 
			},
			{
				"x": 1.8582625713,
				"y": 0.1686468563,
				"z": -2.2713655726,
				"element": "C" 
			},
			{
				"x": -3.0767306108,
				"y": -0.649836177,
				"z": 2.4655621162,
				"element": "H" 
			},
			{
				"x": -1.8090051589,
				"y": -0.6221074105,
				"z": 3.6452745284,
				"element": "H" 
			},
			{
				"x": -3.0236063805,
				"y": 0.5854233676,
				"z": 0.5310238779,
				"element": "H" 
			},
			{
				"x": -2.7390118933,
				"y": 2.1940072657,
				"z": 1.1840671641,
				"element": "H" 
			},
			{
				"x": -1.7164170181,
				"y": 2.184899534,
				"z": -1.0096314558,
				"element": "H" 
			},
			{
				"x": -0.400658358,
				"y": 2.1362040339,
				"z": 0.1839241338,
				"element": "H" 
			},
			{
				"x": 1.3998858985,
				"y": 0.7580584579,
				"z": 1.0551027667,
				"element": "H" 
			},
			{
				"x": 3.877712124,
				"y": 1.0654006785,
				"z": 0.9185517623,
				"element": "H" 
			},
			{
				"x": 3.7824389638,
				"y": 0.1904811706,
				"z": -3.2750606231,
				"element": "H" 
			},
			{
				"x": 1.2943890461,
				"y": -0.0651989264,
				"z": -3.1686634983,
				"element": "H" 
			}
		],
		 "valence_orbital": [ 
			{
				"type": "occ",
				"energy": -0.27715,
				"method": "rhf"
			},
			{
				"type": "occ",
				"energy": -0.25941,
				"method": "rhf"
			},
			{
				"type": "occ",
				"energy": -0.25598,
				"method": "rhf"
			},
			{
				"type": "occ",
				"energy": -0.25579,
				"method": "rhf"
			},
			{
				"type": "occ",
				"energy": -0.21226,
				"method": "rhf"
			},
			{
				"type": "unocc",
				"energy": -0.0099,
				"method": "rhf"
			},
			{
				"type": "unocc",
				"energy": -0.00483,
				"method": "rhf"
			},
			{
				"type": "unocc",
				"energy": 0.01823,
				"method": "rhf"
			},
			{
				"type": "unocc",
				"energy": 0.04318,
				"method": "rhf"
			},
			{
				"type": "unocc",
				"energy": 0.06859,
				"method": "rhf"
			}
		],
		"cosmo_sigma_profile": { 
			"-0.025": 0.0,
			"-0.024": 0.0,
			"-0.023": 0.0,
			"-0.022": 0.0,
			"-0.021": 0.0,
			"-0.02": 0.0,
			"-0.019": 0.0,
			"-0.018": 0.0,
			"-0.017": 0.0,
			"-0.016": 0.0,
			"-0.015": 0.270936722876,
			"-0.014": 2.15506693512,
			"-0.013": 2.6871614192,
			"-0.012": 2.25280613149,
			"-0.011": 2.16124403192,
			"-0.01": 2.28081854798,
			"-0.009": 3.21840513113,
			"-0.008": 2.4096960176,
			"-0.007": 6.76553312372,
			"-0.006": 10.8050258165,
			"-0.005": 14.8285034525,
			"-0.004": 15.2624673061,
			"-0.003": 14.3108084438,
			"-0.002": 12.1821401936,
			"-0.001": 9.92757018031,
			"0.0": 13.7084218232,
			"0.001": 16.8015399121,
			"0.002": 15.7108622417,
			"0.003": 20.0589571183,
			"0.004": 25.0250724606,
			"0.005": 11.10573435,
			"0.006": 6.07237734606,
			"0.007": 4.57950576114,
			"0.008": 4.04183479201,
			"0.009": 2.75268716936,
			"0.01": 1.42553937591,
			"0.011": 1.5623614411,
			"0.012": 1.40848971938,
			"0.013": 3.2138997799,
			"0.014": 2.04231007855,
			"0.015": 0.261808131892,
			"0.016": 0.0,
			"0.017": 0.0,
			"0.018": 0.0,
			"0.019": 0.0,
			"0.02": 0.0,
			"0.021": 0.0,
			"0.022": 0.0,
			"0.023": 0.0,
			"0.024": 0.0,
			"0.025": 0.0
		}
	}
}
