{
	 "smiles": "NC(=O)C1=CC(=CC(=C1)[N+]([O-])=O)C(O)=O", 
	 "Tm": 514.15, 
	 "num_atms": 21, 
	 "gaussian": { 
		 "optdone": 1, 
		 "sigma_profile": "yes", 
		 "theory": "DFT", 
		 "functional": "B3LYP", 
		 "basiset": "6-31G**", 
		 "properties": { 
			 "R2extent": 3779.9599, 
			 "electric_dipole_moment_norm": 5.23800621325, 
			 "electric_quadrupole_moment_norm": 21.3508627013, 
			 "total_energy": -794.011389355, 
			 "HOMO_LUMO_gap": 0.17145, 
			 "cosmo_polarized_energy": -24.7, 
			 "cosmo_cavitation_energy": 27.71, 
			 "cosmo_dispersion_energy": -20.11, 
			 "cosmo_repulsion_energy": 1.58, 
			 "cosmo_total_nonelectrostatic_energy": 9.18, 
			 "SMD_solvation_energy": 9.07 
		},
		"coords": [
			{
				"x": 2.4436251168,
				"y": -2.5296123251,
				"z": 1.3129923559,
				"element": "N" 
			},
			{
				"x": 1.4423697026,
				"y": -1.6266230749,
				"z": 1.5298658217,
				"element": "C" 
			},
			{
				"x": 1.0419113144,
				"y": -1.3425632637,
				"z": 2.6519311467,
				"element": "O" 
			},
			{
				"x": 0.8190765609,
				"y": -0.9979153846,
				"z": 0.3080528899,
				"element": "C" 
			},
			{
				"x": 0.0047546455,
				"y": 0.1217754451,
				"z": 0.523580162,
				"element": "C" 
			},
			{
				"x": -0.6238556057,
				"y": 0.7748361502,
				"z": -0.5392579808,
				"element": "C" 
			},
			{
				"x": -0.4303526814,
				"y": 0.3101367589,
				"z": -1.8465345768,
				"element": "C" 
			},
			{
				"x": 0.3589858474,
				"y": -0.8142264892,
				"z": -2.0418761145,
				"element": "C" 
			},
			{
				"x": 0.9855640958,
				"y": -1.4815787156,
				"z": -0.9903471007,
				"element": "C" 
			},
			{
				"x": 0.546717386,
				"y": -1.3294458191,
				"z": -3.4133548302,
				"element": "N" 
			},
			{
				"x": 1.2654070079,
				"y": -2.3188740532,
				"z": -3.5499961947,
				"element": "O" 
			},
			{
				"x": -0.0229685764,
				"y": -0.7372304465,
				"z": -4.3245775259,
				"element": "O" 
			},
			{
				"x": -1.4841243298,
				"y": 1.9991557397,
				"z": -0.3677212014,
				"element": "C" 
			},
			{
				"x": -1.9639952751,
				"y": 2.2473608044,
				"z": 0.8736076749,
				"element": "O" 
			},
			{
				"x": -1.7429706163,
				"y": 2.7400421567,
				"z": -1.2849915238,
				"element": "O" 
			},
			{
				"x": 2.9074660355,
				"y": -2.8863951598,
				"z": 2.1357859383,
				"element": "H" 
			},
			{
				"x": 2.9448603684,
				"y": -2.573174291,
				"z": 0.4403271192,
				"element": "H" 
			},
			{
				"x": -0.0875880184,
				"y": 0.4563573195,
				"z": 1.5529791771,
				"element": "H" 
			},
			{
				"x": -0.8933322078,
				"y": 0.8197207839,
				"z": -2.6821076725,
				"element": "H" 
			},
			{
				"x": 1.5633090252,
				"y": -2.368941268,
				"z": -1.217219651,
				"element": "H" 
			},
			{
				"x": -1.7951597956,
				"y": 1.5052951321,
				"z": 1.4707620865,
				"element": "H" 
			}
		],
		 "valence_orbital": [ 
			{
				"type": "occ",
				"energy": -0.31066,
				"method": "rhf"
			},
			{
				"type": "occ",
				"energy": -0.30462,
				"method": "rhf"
			},
			{
				"type": "occ",
				"energy": -0.2996,
				"method": "rhf"
			},
			{
				"type": "occ",
				"energy": -0.29142,
				"method": "rhf"
			},
			{
				"type": "occ",
				"energy": -0.28244,
				"method": "rhf"
			},
			{
				"type": "unocc",
				"energy": -0.11099,
				"method": "rhf"
			},
			{
				"type": "unocc",
				"energy": -0.08631,
				"method": "rhf"
			},
			{
				"type": "unocc",
				"energy": -0.05126,
				"method": "rhf"
			},
			{
				"type": "unocc",
				"energy": 0.01658,
				"method": "rhf"
			},
			{
				"type": "unocc",
				"energy": 0.03892,
				"method": "rhf"
			}
		],
		"cosmo_sigma_profile": { 
			"-0.025": 0.0,
			"-0.024": 0.0,
			"-0.023": 0.0,
			"-0.022": 0.0,
			"-0.021": 0.0,
			"-0.02": 0.443440266392,
			"-0.019": 0.482547783793,
			"-0.018": 1.30586723487,
			"-0.017": 1.43993366221,
			"-0.016": 1.53637877981,
			"-0.015": 2.63811658588,
			"-0.014": 4.10033297037,
			"-0.013": 3.1093532869,
			"-0.012": 3.77712048161,
			"-0.011": 3.76639418649,
			"-0.01": 2.686473461,
			"-0.009": 3.91128464318,
			"-0.008": 4.66250628161,
			"-0.007": 5.1684344806,
			"-0.006": 6.62940412465,
			"-0.005": 8.74724708148,
			"-0.004": 12.3910719414,
			"-0.003": 17.013435522,
			"-0.002": 19.8792475714,
			"-0.001": 12.8656118081,
			"0.0": 7.48886593363,
			"0.001": 6.15077327758,
			"0.002": 6.7631084355,
			"0.003": 6.77281028952,
			"0.004": 7.15496562398,
			"0.005": 6.16293064338,
			"0.006": 10.0765041982,
			"0.007": 13.2856308186,
			"0.008": 8.68919678072,
			"0.009": 9.03934230494,
			"0.01": 6.98966647877,
			"0.011": 6.62449713512,
			"0.012": 5.77504748688,
			"0.013": 4.3231545868,
			"0.014": 0.661144511647,
			"0.015": 0.0,
			"0.016": 0.0,
			"0.017": 0.0,
			"0.018": 0.0,
			"0.019": 0.0,
			"0.02": 0.0,
			"0.021": 0.0,
			"0.022": 0.0,
			"0.023": 0.0,
			"0.024": 0.0,
			"0.025": 0.0
		}
	}
}
