{
	 "smiles": "ClCC#CCN1C(=O)C2=CC=CC=C2C1=O", 
	 "Tm": 390.65, 
	 "num_atms": 24, 
	 "gaussian": { 
		 "optdone": 1, 
		 "sigma_profile": "yes", 
		 "theory": "DFT", 
		 "functional": "B3LYP", 
		 "basiset": "6-31G**", 
		 "properties": { 
			 "R2extent": 6680.7612, 
			 "electric_dipole_moment_norm": 4.86949325187, 
			 "electric_quadrupole_moment_norm": 8.80636865569, 
			 "total_energy": -1127.45007268, 
			 "HOMO_LUMO_gap": 0.18205, 
			 "cosmo_polarized_energy": -13.79, 
			 "cosmo_cavitation_energy": 32.84, 
			 "cosmo_dispersion_energy": -23.19, 
			 "cosmo_repulsion_energy": 1.85, 
			 "cosmo_total_nonelectrostatic_energy": 11.5, 
			 "SMD_solvation_energy": 6.74 
		},
		"coords": [
			{
				"x": 1.0049695452,
				"y": -0.4651290645,
				"z": -6.6784926789,
				"element": "Cl" 
			},
			{
				"x": 0.2347534441,
				"y": 0.2447494559,
				"z": -5.1761384551,
				"element": "C" 
			},
			{
				"x": 0.3684393509,
				"y": -0.6226856418,
				"z": -4.0231039789,
				"element": "C" 
			},
			{
				"x": 0.4688904488,
				"y": -1.3309595839,
				"z": -3.0493338957,
				"element": "C" 
			},
			{
				"x": 0.6033587024,
				"y": -2.2082509067,
				"z": -1.8812212543,
				"element": "C" 
			},
			{
				"x": -0.0048245415,
				"y": -1.6598025679,
				"z": -0.6750709753,
				"element": "N" 
			},
			{
				"x": 0.6785069398,
				"y": -0.8375878038,
				"z": 0.2394752915,
				"element": "C" 
			},
			{
				"x": 1.8456652041,
				"y": -0.5154459003,
				"z": 0.1542673054,
				"element": "O" 
			},
			{
				"x": -0.3268488071,
				"y": -0.4948189102,
				"z": 1.2888210705,
				"element": "C" 
			},
			{
				"x": -0.1964484221,
				"y": 0.2831685224,
				"z": 2.4300847043,
				"element": "C" 
			},
			{
				"x": -1.3275697242,
				"y": 0.4268368927,
				"z": 3.2446654224,
				"element": "C" 
			},
			{
				"x": -2.5391757262,
				"y": -0.1953558745,
				"z": 2.916640531,
				"element": "C" 
			},
			{
				"x": -2.6598184981,
				"y": -0.9818162965,
				"z": 1.7631469527,
				"element": "C" 
			},
			{
				"x": -1.535336439,
				"y": -1.1153715455,
				"z": 0.9616294167,
				"element": "C" 
			},
			{
				"x": -1.3456674884,
				"y": -1.8769532924,
				"z": -0.3085448477,
				"element": "C" 
			},
			{
				"x": -2.137468077,
				"y": -2.5606383711,
				"z": -0.9241124169,
				"element": "O" 
			},
			{
				"x": 0.7258016487,
				"y": 1.2068521378,
				"z": -5.0164620613,
				"element": "H" 
			},
			{
				"x": -0.8126119942,
				"y": 0.4172686768,
				"z": -5.432110566,
				"element": "H" 
			},
			{
				"x": 0.1221166095,
				"y": -3.1714218874,
				"z": -2.0785287903,
				"element": "H" 
			},
			{
				"x": 1.6618297134,
				"y": -2.3805131032,
				"z": -1.6617301248,
				"element": "H" 
			},
			{
				"x": 0.7475668212,
				"y": 0.7588502767,
				"z": 2.6753566097,
				"element": "H" 
			},
			{
				"x": -1.2660073643,
				"y": 1.0295689586,
				"z": 4.1457929572,
				"element": "H" 
			},
			{
				"x": -3.3976451317,
				"y": -0.0651015879,
				"z": 3.5686909539,
				"element": "H" 
			},
			{
				"x": -3.5926762144,
				"y": -1.4699425833,
				"z": 1.5002788299,
				"element": "H" 
			}
		],
		 "valence_orbital": [ 
			{
				"type": "occ",
				"energy": -0.28309,
				"method": "rhf"
			},
			{
				"type": "occ",
				"energy": -0.28028,
				"method": "rhf"
			},
			{
				"type": "occ",
				"energy": -0.27448,
				"method": "rhf"
			},
			{
				"type": "occ",
				"energy": -0.27283,
				"method": "rhf"
			},
			{
				"type": "occ",
				"energy": -0.2693,
				"method": "rhf"
			},
			{
				"type": "unocc",
				"energy": -0.08725,
				"method": "rhf"
			},
			{
				"type": "unocc",
				"energy": -0.04645,
				"method": "rhf"
			},
			{
				"type": "unocc",
				"energy": -0.02033,
				"method": "rhf"
			},
			{
				"type": "unocc",
				"energy": 0.02241,
				"method": "rhf"
			},
			{
				"type": "unocc",
				"energy": 0.04041,
				"method": "rhf"
			}
		],
		"cosmo_sigma_profile": { 
			"-0.025": 0.0,
			"-0.024": 0.0,
			"-0.023": 0.0,
			"-0.022": 0.0,
			"-0.021": 0.0,
			"-0.02": 0.0,
			"-0.019": 0.0,
			"-0.018": 0.0,
			"-0.017": 0.0,
			"-0.016": 0.0,
			"-0.015": 0.0,
			"-0.014": 0.0,
			"-0.013": 0.0,
			"-0.012": 0.0,
			"-0.011": 0.0,
			"-0.01": 0.487444632323,
			"-0.009": 4.57024264769,
			"-0.008": 8.4484810511,
			"-0.007": 16.0456599278,
			"-0.006": 19.6475885733,
			"-0.005": 17.926156999,
			"-0.004": 15.6359983279,
			"-0.003": 12.7430989208,
			"-0.002": 13.776880065,
			"-0.001": 17.0244111303,
			"0.0": 16.5041608012,
			"0.001": 20.6004977325,
			"0.002": 21.2531379555,
			"0.003": 13.0447463707,
			"0.004": 15.2040060356,
			"0.005": 14.7665622086,
			"0.006": 11.9512160941,
			"0.007": 3.58573658438,
			"0.008": 3.52314362053,
			"0.009": 3.84454729735,
			"0.01": 5.8698772225,
			"0.011": 9.4213163129,
			"0.012": 1.49166404805,
			"0.013": 0.0,
			"0.014": 0.0,
			"0.015": 0.0,
			"0.016": 0.0,
			"0.017": 0.0,
			"0.018": 0.0,
			"0.019": 0.0,
			"0.02": 0.0,
			"0.021": 0.0,
			"0.022": 0.0,
			"0.023": 0.0,
			"0.024": 0.0,
			"0.025": 0.0
		}
	}
}
