{
	 "smiles": "CC(=O)C1=CC(=NO1)C1=CC=C(Cl)C(Cl)=C1", 
	 "Tm": 404.15, 
	 "num_atms": 23, 
	 "gaussian": { 
		 "optdone": 1, 
		 "sigma_profile": "yes", 
		 "theory": "DFT", 
		 "functional": "B3LYP", 
		 "basiset": "6-31G**", 
		 "properties": { 
			 "R2extent": 7351.7552, 
			 "electric_dipole_moment_norm": 2.89515824438, 
			 "electric_quadrupole_moment_norm": 22.2915814491, 
			 "total_energy": -1548.91595898, 
			 "HOMO_LUMO_gap": 0.16894, 
			 "cosmo_polarized_energy": -14.23, 
			 "cosmo_cavitation_energy": 32.67, 
			 "cosmo_dispersion_energy": -23.86, 
			 "cosmo_repulsion_energy": 1.84, 
			 "cosmo_total_nonelectrostatic_energy": 10.66, 
			 "SMD_solvation_energy": 5.8 
		},
		"coords": [
			{
				"x": 3.5850445024,
				"y": -1.4461156544,
				"z": -1.8787407562,
				"element": "C" 
			},
			{
				"x": 3.0474766993,
				"y": -1.8197495967,
				"z": -0.51167127,
				"element": "C" 
			},
			{
				"x": 3.6083972392,
				"y": -2.6038494512,
				"z": 0.229601767,
				"element": "O" 
			},
			{
				"x": 1.7711528373,
				"y": -1.1697855917,
				"z": -0.1043281228,
				"element": "C" 
			},
			{
				"x": 0.9417601692,
				"y": -0.2730022475,
				"z": -0.7162434224,
				"element": "C" 
			},
			{
				"x": -0.1084054963,
				"y": -0.0677514617,
				"z": 0.2278459826,
				"element": "C" 
			},
			{
				"x": 0.0967692569,
				"y": -0.795747555,
				"z": 1.3145262889,
				"element": "N" 
			},
			{
				"x": 1.2710731632,
				"y": -1.4865914752,
				"z": 1.1112741778,
				"element": "O" 
			},
			{
				"x": -1.296222888,
				"y": 0.7969962332,
				"z": 0.1268381755,
				"element": "C" 
			},
			{
				"x": -2.2237111662,
				"y": 0.8600453917,
				"z": 1.1795220541,
				"element": "C" 
			},
			{
				"x": -3.3423432623,
				"y": 1.6760977642,
				"z": 1.0812289188,
				"element": "C" 
			},
			{
				"x": -3.5631248412,
				"y": 2.4468540613,
				"z": -0.0651406443,
				"element": "C" 
			},
			{
				"x": -4.9816256768,
				"y": 3.4567397333,
				"z": -0.1438473402,
				"element": "Cl" 
			},
			{
				"x": -2.6428608294,
				"y": 2.3896838487,
				"z": -1.1194677368,
				"element": "C" 
			},
			{
				"x": -2.8624780186,
				"y": 3.3275448318,
				"z": -2.5759385559,
				"element": "Cl" 
			},
			{
				"x": -1.519289879,
				"y": 1.5687236919,
				"z": -1.0184089946,
				"element": "C" 
			},
			{
				"x": 4.5154444283,
				"y": -1.98777926,
				"z": -2.0507029089,
				"element": "H" 
			},
			{
				"x": 3.7723354888,
				"y": -0.3683695523,
				"z": -1.9408300651,
				"element": "H" 
			},
			{
				"x": 2.8631480823,
				"y": -1.7009165606,
				"z": -2.6625832978,
				"element": "H" 
			},
			{
				"x": 1.0633600366,
				"y": 0.1717317714,
				"z": -1.6912314107,
				"element": "H" 
			},
			{
				"x": -2.0592425362,
				"y": 0.2656461526,
				"z": 2.070915391,
				"element": "H" 
			},
			{
				"x": -4.0595829086,
				"y": 1.7261666738,
				"z": 1.8927973645,
				"element": "H" 
			},
			{
				"x": -0.8252744008,
				"y": 1.5455282524,
				"z": -1.8504155946,
				"element": "H" 
			}
		],
		 "valence_orbital": [ 
			{
				"type": "occ",
				"energy": -0.3187,
				"method": "rhf"
			},
			{
				"type": "occ",
				"energy": -0.2906,
				"method": "rhf"
			},
			{
				"type": "occ",
				"energy": -0.27366,
				"method": "rhf"
			},
			{
				"type": "occ",
				"energy": -0.27312,
				"method": "rhf"
			},
			{
				"type": "occ",
				"energy": -0.25279,
				"method": "rhf"
			},
			{
				"type": "unocc",
				"energy": -0.08385,
				"method": "rhf"
			},
			{
				"type": "unocc",
				"energy": -0.05746,
				"method": "rhf"
			},
			{
				"type": "unocc",
				"energy": -0.03474,
				"method": "rhf"
			},
			{
				"type": "unocc",
				"energy": -0.00726,
				"method": "rhf"
			},
			{
				"type": "unocc",
				"energy": 0.0293,
				"method": "rhf"
			}
		],
		"cosmo_sigma_profile": { 
			"-0.025": 0.0,
			"-0.024": 0.0,
			"-0.023": 0.0,
			"-0.022": 0.0,
			"-0.021": 0.0,
			"-0.02": 0.0,
			"-0.019": 0.0,
			"-0.018": 0.0,
			"-0.017": 0.0,
			"-0.016": 0.0,
			"-0.015": 0.0,
			"-0.014": 0.0,
			"-0.013": 0.0,
			"-0.012": 0.328099593489,
			"-0.011": 2.08592664874,
			"-0.01": 1.93131780333,
			"-0.009": 2.37928355121,
			"-0.008": 5.58091786844,
			"-0.007": 13.189943925,
			"-0.006": 12.2759728672,
			"-0.005": 11.3846728113,
			"-0.004": 12.6657382909,
			"-0.003": 15.2714638916,
			"-0.002": 21.5990640222,
			"-0.001": 24.2038684923,
			"0.0": 29.6531602214,
			"0.001": 24.4777060921,
			"0.002": 16.5720167222,
			"0.003": 18.4678488844,
			"0.004": 16.9686420187,
			"0.005": 6.73168270278,
			"0.006": 4.79479560973,
			"0.007": 5.21475753763,
			"0.008": 4.50102707382,
			"0.009": 4.64487566523,
			"0.01": 4.74785910857,
			"0.011": 5.95718422821,
			"0.012": 2.12185139825,
			"0.013": 0.00979947838406,
			"0.014": 0.0,
			"0.015": 0.0,
			"0.016": 0.0,
			"0.017": 0.0,
			"0.018": 0.0,
			"0.019": 0.0,
			"0.02": 0.0,
			"0.021": 0.0,
			"0.022": 0.0,
			"0.023": 0.0,
			"0.024": 0.0,
			"0.025": 0.0
		}
	}
}
