{
	 "smiles": "COC(=O)C1=C(OC)C=C(OC)C=C1C", 
	 "Tm": 322.15, 
	 "num_atms": 29, 
	 "gaussian": { 
		 "optdone": 1, 
		 "sigma_profile": "yes", 
		 "theory": "DFT", 
		 "functional": "B3LYP", 
		 "basiset": "6-31G**", 
		 "properties": { 
			 "R2extent": 3694.3522, 
			 "electric_dipole_moment_norm": 1.32217519263, 
			 "electric_quadrupole_moment_norm": 18.8898968782, 
			 "total_energy": -728.486100667, 
			 "HOMO_LUMO_gap": 0.19979, 
			 "cosmo_polarized_energy": -10.77, 
			 "cosmo_cavitation_energy": 32.41, 
			 "cosmo_dispersion_energy": -23.01, 
			 "cosmo_repulsion_energy": 1.82, 
			 "cosmo_total_nonelectrostatic_energy": 11.22, 
			 "SMD_solvation_energy": 8.48 
		},
		"coords": [
			{
				"x": 0.6664945913,
				"y": -3.8043897347,
				"z": 0.5821391006,
				"element": "C" 
			},
			{
				"x": 0.6590720148,
				"y": -2.4931497434,
				"z": -0.0040585062,
				"element": "O" 
			},
			{
				"x": -0.07332938,
				"y": -1.5686228256,
				"z": 0.6633819207,
				"element": "C" 
			},
			{
				"x": -0.6624660546,
				"y": -1.8279053553,
				"z": 1.6944229603,
				"element": "O" 
			},
			{
				"x": -0.057084749,
				"y": -0.2384264444,
				"z": -0.0142924679,
				"element": "C" 
			},
			{
				"x": 0.1770951762,
				"y": 0.9049457353,
				"z": 0.7687749082,
				"element": "C" 
			},
			{
				"x": 0.5026784237,
				"y": 0.7820253107,
				"z": 2.0978875689,
				"element": "O" 
			},
			{
				"x": -0.579140269,
				"y": 0.9775280733,
				"z": 3.0147173275,
				"element": "C" 
			},
			{
				"x": 0.1793413246,
				"y": 2.1859254192,
				"z": 0.2082023985,
				"element": "C" 
			},
			{
				"x": -0.0705791421,
				"y": 2.3325072905,
				"z": -1.1566072894,
				"element": "C" 
			},
			{
				"x": -0.0970535357,
				"y": 3.5248170505,
				"z": -1.8128245393,
				"element": "O" 
			},
			{
				"x": 0.1381176651,
				"y": 4.7093721249,
				"z": -1.0657779898,
				"element": "C" 
			},
			{
				"x": -0.3109249002,
				"y": 1.1985648734,
				"z": -1.9466340561,
				"element": "C" 
			},
			{
				"x": -0.2944015123,
				"y": -0.0824361741,
				"z": -1.4036684302,
				"element": "C" 
			},
			{
				"x": -0.5627912576,
				"y": -1.259555616,
				"z": -2.3154841557,
				"element": "C" 
			},
			{
				"x": -0.3484245472,
				"y": -4.2041677424,
				"z": 0.6531548904,
				"element": "H" 
			},
			{
				"x": 1.1011666111,
				"y": -3.7741915768,
				"z": 1.5843227283,
				"element": "H" 
			},
			{
				"x": 1.2757023454,
				"y": -4.4190419513,
				"z": -0.0807652576,
				"element": "H" 
			},
			{
				"x": -0.1438169547,
				"y": 0.9222507995,
				"z": 4.0145207429,
				"element": "H" 
			},
			{
				"x": -1.0426135619,
				"y": 1.9633773737,
				"z": 2.8767430537,
				"element": "H" 
			},
			{
				"x": -1.3271108844,
				"y": 0.1888794579,
				"z": 2.8950826987,
				"element": "H" 
			},
			{
				"x": 0.4020400785,
				"y": 3.0259830474,
				"z": 0.853676097,
				"element": "H" 
			},
			{
				"x": -0.6123558146,
				"y": 4.8446631611,
				"z": -0.2766925411,
				"element": "H" 
			},
			{
				"x": 0.0645461921,
				"y": 5.5331689618,
				"z": -1.7771621217,
				"element": "H" 
			},
			{
				"x": 1.1380706166,
				"y": 4.7101551748,
				"z": -0.6139962462,
				"element": "H" 
			},
			{
				"x": -0.5088053349,
				"y": 1.3463235637,
				"z": -3.0032480105,
				"element": "H" 
			},
			{
				"x": -0.9078220239,
				"y": -0.9127341775,
				"z": -3.2926888865,
				"element": "H" 
			},
			{
				"x": -1.3270756908,
				"y": -1.9262331191,
				"z": -1.9037118037,
				"element": "H" 
			},
			{
				"x": 0.3384705735,
				"y": -1.861732957,
				"z": -2.4594140937,
				"element": "H" 
			}
		],
		 "valence_orbital": [ 
			{
				"type": "occ",
				"energy": -0.29499,
				"method": "rhf"
			},
			{
				"type": "occ",
				"energy": -0.26832,
				"method": "rhf"
			},
			{
				"type": "occ",
				"energy": -0.26451,
				"method": "rhf"
			},
			{
				"type": "occ",
				"energy": -0.2389,
				"method": "rhf"
			},
			{
				"type": "occ",
				"energy": -0.22049,
				"method": "rhf"
			},
			{
				"type": "unocc",
				"energy": -0.0207,
				"method": "rhf"
			},
			{
				"type": "unocc",
				"energy": 0.00123,
				"method": "rhf"
			},
			{
				"type": "unocc",
				"energy": 0.0472,
				"method": "rhf"
			},
			{
				"type": "unocc",
				"energy": 0.0938,
				"method": "rhf"
			},
			{
				"type": "unocc",
				"energy": 0.10487,
				"method": "rhf"
			}
		],
		"cosmo_sigma_profile": { 
			"-0.025": 0.0,
			"-0.024": 0.0,
			"-0.023": 0.0,
			"-0.022": 0.0,
			"-0.021": 0.0,
			"-0.02": 0.0,
			"-0.019": 0.0,
			"-0.018": 0.0,
			"-0.017": 0.0,
			"-0.016": 0.0,
			"-0.015": 0.0,
			"-0.014": 0.0,
			"-0.013": 0.0,
			"-0.012": 0.0,
			"-0.011": 0.0,
			"-0.01": 0.0,
			"-0.009": 0.0,
			"-0.008": 0.0,
			"-0.007": 1.70737610719,
			"-0.006": 12.741383603,
			"-0.005": 24.6853032324,
			"-0.004": 27.9646328109,
			"-0.003": 31.1635906499,
			"-0.002": 23.9557330659,
			"-0.001": 16.3690098024,
			"0.0": 17.1651261966,
			"0.001": 13.5024899284,
			"0.002": 12.6095275604,
			"0.003": 19.7559840195,
			"0.004": 14.2768416594,
			"0.005": 6.85879205897,
			"0.006": 5.15761653355,
			"0.007": 5.40951284298,
			"0.008": 5.37057316909,
			"0.009": 4.96767237431,
			"0.01": 5.33087251952,
			"0.011": 4.13366851955,
			"0.012": 2.66752368487,
			"0.013": 0.295583154148,
			"0.014": 0.0,
			"0.015": 0.0,
			"0.016": 0.0,
			"0.017": 0.0,
			"0.018": 0.0,
			"0.019": 0.0,
			"0.02": 0.0,
			"0.021": 0.0,
			"0.022": 0.0,
			"0.023": 0.0,
			"0.024": 0.0,
			"0.025": 0.0
		}
	}
}
