{
	 "smiles": "CCN(CC)S(=O)(=O)C1=CC(C(O)=O)=C(C=C1)N1CCOCC1", 
	 "Tm": 423.15, 
	 "num_atms": 45, 
	 "gaussian": { 
		 "optdone": 1, 
		 "sigma_profile": "yes", 
		 "theory": "DFT", 
		 "functional": "B3LYP", 
		 "basiset": "6-31G**", 
		 "properties": { 
			 "R2extent": 9551.718, 
			 "electric_dipole_moment_norm": 7.48759979032, 
			 "electric_quadrupole_moment_norm": 30.4203309372, 
			 "total_energy": -1468.58656332, 
			 "HOMO_LUMO_gap": 0.17505, 
			 "cosmo_polarized_energy": -25.63, 
			 "cosmo_cavitation_energy": 46.71, 
			 "cosmo_dispersion_energy": -32.04, 
			 "cosmo_repulsion_energy": 2.41, 
			 "cosmo_total_nonelectrostatic_energy": 17.08, 
			 "SMD_solvation_energy": 7.72 
		},
		"coords": [
			{
				"x": 2.1879300386,
				"y": 2.8889165741,
				"z": -1.0229182307,
				"element": "C" 
			},
			{
				"x": 1.1815469909,
				"y": 3.055044613,
				"z": 0.1147966529,
				"element": "C" 
			},
			{
				"x": -0.2099230247,
				"y": 3.0231691798,
				"z": -0.3815675602,
				"element": "N" 
			},
			{
				"x": -0.6599288268,
				"y": 4.2090673973,
				"z": -1.1591166,
				"element": "C" 
			},
			{
				"x": -1.1323345714,
				"y": 3.8387483544,
				"z": -2.5626103959,
				"element": "C" 
			},
			{
				"x": -1.3442580651,
				"y": 2.4305069457,
				"z": 0.7312379375,
				"element": "S" 
			},
			{
				"x": -1.0378960985,
				"y": 2.8682251777,
				"z": 2.0990732881,
				"element": "O" 
			},
			{
				"x": -2.661798665,
				"y": 2.6928474891,
				"z": 0.1402942756,
				"element": "O" 
			},
			{
				"x": -1.0431355884,
				"y": 0.6604155449,
				"z": 0.6611127105,
				"element": "C" 
			},
			{
				"x": -0.3938459275,
				"y": 0.0206896674,
				"z": 1.7102369485,
				"element": "C" 
			},
			{
				"x": -0.1905579414,
				"y": -1.364289836,
				"z": 1.6794966633,
				"element": "C" 
			},
			{
				"x": 0.4006795664,
				"y": -1.9597460708,
				"z": 2.9401952074,
				"element": "C" 
			},
			{
				"x": 0.2214148378,
				"y": -3.2792493653,
				"z": 3.1236422516,
				"element": "O" 
			},
			{
				"x": 0.9644510235,
				"y": -1.2770669585,
				"z": 3.7662122729,
				"element": "O" 
			},
			{
				"x": -0.6164736631,
				"y": -2.1087820919,
				"z": 0.5512430594,
				"element": "C" 
			},
			{
				"x": -1.302360587,
				"y": -1.4422745312,
				"z": -0.4791135679,
				"element": "C" 
			},
			{
				"x": -1.5237880109,
				"y": -0.0707657152,
				"z": -0.4266492104,
				"element": "C" 
			},
			{
				"x": -0.3663819319,
				"y": -3.5180639483,
				"z": 0.5227147309,
				"element": "N" 
			},
			{
				"x": -1.2918900195,
				"y": -4.3977988339,
				"z": -0.2219995563,
				"element": "C" 
			},
			{
				"x": -0.8714948636,
				"y": -4.6545786217,
				"z": -1.6757043294,
				"element": "C" 
			},
			{
				"x": 0.4767660121,
				"y": -5.0933605905,
				"z": -1.7481125408,
				"element": "O" 
			},
			{
				"x": 1.3560795556,
				"y": -4.1319855032,
				"z": -1.178325838,
				"element": "C" 
			},
			{
				"x": 1.0492645619,
				"y": -3.9308403444,
				"z": 0.303787832,
				"element": "C" 
			},
			{
				"x": 2.1169933944,
				"y": 3.6995839266,
				"z": -1.7546418461,
				"element": "H" 
			},
			{
				"x": 2.0252484897,
				"y": 1.9426609871,
				"z": -1.5470261882,
				"element": "H" 
			},
			{
				"x": 3.2063097484,
				"y": 2.8948905516,
				"z": -0.6212419335,
				"element": "H" 
			},
			{
				"x": 1.3709472039,
				"y": 3.9821429812,
				"z": 0.6737552993,
				"element": "H" 
			},
			{
				"x": 1.3068132087,
				"y": 2.2334579662,
				"z": 0.8247876354,
				"element": "H" 
			},
			{
				"x": 0.1921828773,
				"y": 4.8944364895,
				"z": -1.209362623,
				"element": "H" 
			},
			{
				"x": -1.4560927858,
				"y": 4.7361222098,
				"z": -0.6256927593,
				"element": "H" 
			},
			{
				"x": -2.0109964178,
				"y": 3.1915186552,
				"z": -2.5069970841,
				"element": "H" 
			},
			{
				"x": -0.3471187162,
				"y": 3.3164224732,
				"z": -3.1177425956,
				"element": "H" 
			},
			{
				"x": -1.4083436836,
				"y": 4.7407265782,
				"z": -3.1200020145,
				"element": "H" 
			},
			{
				"x": -0.0707515266,
				"y": 0.5735605204,
				"z": 2.5851871084,
				"element": "H" 
			},
			{
				"x": -0.2231451231,
				"y": -3.6393469071,
				"z": 2.3172727664,
				"element": "H" 
			},
			{
				"x": -1.6574505718,
				"y": -1.9954971559,
				"z": -1.3395484298,
				"element": "H" 
			},
			{
				"x": -2.0595821988,
				"y": 0.4307924103,
				"z": -1.2251794565,
				"element": "H" 
			},
			{
				"x": -1.3013915263,
				"y": -5.3616358303,
				"z": 0.3016363847,
				"element": "H" 
			},
			{
				"x": -2.3016743141,
				"y": -3.9824563019,
				"z": -0.1684884122,
				"element": "H" 
			},
			{
				"x": -1.4856809156,
				"y": -5.4527585507,
				"z": -2.1033720221,
				"element": "H" 
			},
			{
				"x": -1.0043929702,
				"y": -3.7547120729,
				"z": -2.296990505,
				"element": "H" 
			},
			{
				"x": 1.2806520374,
				"y": -3.1737502895,
				"z": -1.7189478879,
				"element": "H" 
			},
			{
				"x": 2.37097923,
				"y": -4.5198889245,
				"z": -1.3056756885,
				"element": "H" 
			},
			{
				"x": 1.7138086054,
				"y": -3.1826257057,
				"z": 0.7400055606,
				"element": "H" 
			},
			{
				"x": 1.2109211527,
				"y": -4.8766725432,
				"z": 0.8334386904,
				"element": "H" 
			}
		],
		 "valence_orbital": [ 
			{
				"type": "occ",
				"energy": -0.28758,
				"method": "rhf"
			},
			{
				"type": "occ",
				"energy": -0.28277,
				"method": "rhf"
			},
			{
				"type": "occ",
				"energy": -0.26956,
				"method": "rhf"
			},
			{
				"type": "occ",
				"energy": -0.25246,
				"method": "rhf"
			},
			{
				"type": "occ",
				"energy": -0.23958,
				"method": "rhf"
			},
			{
				"type": "unocc",
				"energy": -0.06453,
				"method": "rhf"
			},
			{
				"type": "unocc",
				"energy": -0.04196,
				"method": "rhf"
			},
			{
				"type": "unocc",
				"energy": 0.02969,
				"method": "rhf"
			},
			{
				"type": "unocc",
				"energy": 0.05404,
				"method": "rhf"
			},
			{
				"type": "unocc",
				"energy": 0.06843,
				"method": "rhf"
			}
		],
		"cosmo_sigma_profile": { 
			"-0.025": 0.0,
			"-0.024": 0.0,
			"-0.023": 0.0,
			"-0.022": 0.0,
			"-0.021": 0.0,
			"-0.02": 0.0,
			"-0.019": 0.0,
			"-0.018": 0.0,
			"-0.017": 0.0,
			"-0.016": 0.0,
			"-0.015": 0.0,
			"-0.014": 0.0,
			"-0.013": 0.0,
			"-0.012": 0.0,
			"-0.011": 0.0,
			"-0.01": 0.0,
			"-0.009": 1.38881969797,
			"-0.008": 5.84030287054,
			"-0.007": 10.9507158284,
			"-0.006": 20.3283601733,
			"-0.005": 34.8099974063,
			"-0.004": 37.2565593977,
			"-0.003": 40.4876743849,
			"-0.002": 34.5122127461,
			"-0.001": 26.8999560661,
			"0.0": 30.7100590078,
			"0.001": 22.0972035253,
			"0.002": 11.9307075834,
			"0.003": 7.97342570124,
			"0.004": 7.08807596539,
			"0.005": 6.62613632599,
			"0.006": 6.77586621176,
			"0.007": 6.4073813306,
			"0.008": 7.24648117917,
			"0.009": 6.98001543078,
			"0.01": 11.8686417615,
			"0.011": 14.9198513637,
			"0.012": 10.622633169,
			"0.013": 3.41586583025,
			"0.014": 0.184693000737,
			"0.015": 0.0,
			"0.016": 0.0,
			"0.017": 0.0,
			"0.018": 0.0,
			"0.019": 0.0,
			"0.02": 0.0,
			"0.021": 0.0,
			"0.022": 0.0,
			"0.023": 0.0,
			"0.024": 0.0,
			"0.025": 0.0
		}
	}
}
