{
	 "smiles": "CCC1=NC(COC2=CC=C(C=C2)C(=O)OC)=NO1", 
	 "Tm": 318.15, 
	 "num_atms": 33, 
	 "gaussian": { 
		 "optdone": 1, 
		 "sigma_profile": "yes", 
		 "theory": "DFT", 
		 "functional": "B3LYP", 
		 "basiset": "6-31G**", 
		 "properties": { 
			 "R2extent": 8388.8575, 
			 "electric_dipole_moment_norm": 3.08607750227, 
			 "electric_quadrupole_moment_norm": 14.9012161812, 
			 "total_energy": -914.1882014, 
			 "HOMO_LUMO_gap": 0.19486, 
			 "cosmo_polarized_energy": -14.03, 
			 "cosmo_cavitation_energy": 38.61, 
			 "cosmo_dispersion_energy": -27.47, 
			 "cosmo_repulsion_energy": 2.16, 
			 "cosmo_total_nonelectrostatic_energy": 13.3, 
			 "SMD_solvation_energy": 6.39 
		},
		"coords": [
			{
				"x": 3.6731826788,
				"y": -2.3357701267,
				"z": 1.7423542304,
				"element": "C" 
			},
			{
				"x": 2.8701673037,
				"y": -2.2359440753,
				"z": 3.052179111,
				"element": "C" 
			},
			{
				"x": 1.67421255,
				"y": -1.351736334,
				"z": 2.9329386015,
				"element": "C" 
			},
			{
				"x": 0.4133202749,
				"y": -1.6675849759,
				"z": 3.0185975097,
				"element": "N" 
			},
			{
				"x": -0.2062611233,
				"y": -0.4560103755,
				"z": 2.8106140602,
				"element": "C" 
			},
			{
				"x": -1.6976474838,
				"y": -0.2724916025,
				"z": 2.8309777053,
				"element": "C" 
			},
			{
				"x": -2.373400882,
				"y": -1.086285488,
				"z": 1.8794356991,
				"element": "O" 
			},
			{
				"x": -2.3903281433,
				"y": -0.7231879677,
				"z": 0.5616100653,
				"element": "C" 
			},
			{
				"x": -1.7284172575,
				"y": 0.3894288682,
				"z": 0.02377826,
				"element": "C" 
			},
			{
				"x": -1.84650579,
				"y": 0.6556296999,
				"z": -1.3385688957,
				"element": "C" 
			},
			{
				"x": -2.6080012928,
				"y": -0.1673090699,
				"z": -2.1754236409,
				"element": "C" 
			},
			{
				"x": -3.2604331781,
				"y": -1.2834362735,
				"z": -1.624326195,
				"element": "C" 
			},
			{
				"x": -3.1528121613,
				"y": -1.559281754,
				"z": -0.2700529229,
				"element": "C" 
			},
			{
				"x": -2.6860083305,
				"y": 0.1801836027,
				"z": -3.6160791043,
				"element": "C" 
			},
			{
				"x": -2.1344758954,
				"y": 1.1350253248,
				"z": -4.1311581674,
				"element": "O" 
			},
			{
				"x": -3.4510401044,
				"y": -0.6917832121,
				"z": -4.3190771673,
				"element": "O" 
			},
			{
				"x": -3.5660780251,
				"y": -0.4076299729,
				"z": -5.7200154823,
				"element": "C" 
			},
			{
				"x": 0.6049684697,
				"y": 0.5517591687,
				"z": 2.6087961953,
				"element": "N" 
			},
			{
				"x": 1.874322436,
				"y": -0.0398921604,
				"z": 2.6924957191,
				"element": "O" 
			},
			{
				"x": 3.0591768926,
				"y": -2.7485321239,
				"z": 0.9368598238,
				"element": "H" 
			},
			{
				"x": 4.5371685007,
				"y": -2.9909657394,
				"z": 1.8827546759,
				"element": "H" 
			},
			{
				"x": 4.0355619988,
				"y": -1.353544573,
				"z": 1.4276859984,
				"element": "H" 
			},
			{
				"x": 3.5124681414,
				"y": -1.8478507895,
				"z": 3.8515398393,
				"element": "H" 
			},
			{
				"x": 2.5093454358,
				"y": -3.2185809364,
				"z": 3.3647986705,
				"element": "H" 
			},
			{
				"x": -1.937583062,
				"y": 0.7883193317,
				"z": 2.7021717054,
				"element": "H" 
			},
			{
				"x": -2.0819515781,
				"y": -0.6038194762,
				"z": 3.7990443085,
				"element": "H" 
			},
			{
				"x": -1.1116292416,
				"y": 1.0321097608,
				"z": 0.639404534,
				"element": "H" 
			},
			{
				"x": -1.3412790864,
				"y": 1.5107554166,
				"z": -1.7749386207,
				"element": "H" 
			},
			{
				"x": -3.851402847,
				"y": -1.9281449341,
				"z": -2.2645714792,
				"element": "H" 
			},
			{
				"x": -3.6514744483,
				"y": -2.4139586723,
				"z": 0.1745907171,
				"element": "H" 
			},
			{
				"x": -2.5841328973,
				"y": -0.4240126941,
				"z": -6.2000689739,
				"element": "H" 
			},
			{
				"x": -4.0162308277,
				"y": 0.5756243833,
				"z": -5.8796764264,
				"element": "H" 
			},
			{
				"x": -4.2045010264,
				"y": -1.1912822291,
				"z": -6.1285703539,
				"element": "H" 
			}
		],
		 "valence_orbital": [ 
			{
				"type": "occ",
				"energy": -0.2942,
				"method": "rhf"
			},
			{
				"type": "occ",
				"energy": -0.29386,
				"method": "rhf"
			},
			{
				"type": "occ",
				"energy": -0.26556,
				"method": "rhf"
			},
			{
				"type": "occ",
				"energy": -0.25691,
				"method": "rhf"
			},
			{
				"type": "occ",
				"energy": -0.22934,
				"method": "rhf"
			},
			{
				"type": "unocc",
				"energy": -0.03448,
				"method": "rhf"
			},
			{
				"type": "unocc",
				"energy": -0.03275,
				"method": "rhf"
			},
			{
				"type": "unocc",
				"energy": -0.00574,
				"method": "rhf"
			},
			{
				"type": "unocc",
				"energy": 0.02061,
				"method": "rhf"
			},
			{
				"type": "unocc",
				"energy": 0.06917,
				"method": "rhf"
			}
		],
		"cosmo_sigma_profile": { 
			"-0.025": 0.0,
			"-0.024": 0.0,
			"-0.023": 0.0,
			"-0.022": 0.0,
			"-0.021": 0.0,
			"-0.02": 0.0,
			"-0.019": 0.0,
			"-0.018": 0.0,
			"-0.017": 0.0,
			"-0.016": 0.0,
			"-0.015": 0.0,
			"-0.014": 0.0,
			"-0.013": 0.0,
			"-0.012": 0.0,
			"-0.011": 0.0,
			"-0.01": 0.0,
			"-0.009": 0.703421192722,
			"-0.008": 4.27498134594,
			"-0.007": 7.77077474525,
			"-0.006": 18.1997683107,
			"-0.005": 23.5448415872,
			"-0.004": 29.5083461025,
			"-0.003": 31.9998900934,
			"-0.002": 24.6688165533,
			"-0.001": 22.5256794128,
			"0.0": 20.1671573749,
			"0.001": 18.3189838421,
			"0.002": 20.3738092415,
			"0.003": 20.3284459737,
			"0.004": 12.2248132603,
			"0.005": 9.92429884497,
			"0.006": 9.45287202569,
			"0.007": 5.39453256486,
			"0.008": 6.65167688836,
			"0.009": 3.96067023411,
			"0.01": 3.467549228,
			"0.011": 4.87702065296,
			"0.012": 6.4997884879,
			"0.013": 1.98266182203,
			"0.014": 0.733097730046,
			"0.015": 0.0805206257006,
			"0.016": 0.0,
			"0.017": 0.0,
			"0.018": 0.0,
			"0.019": 0.0,
			"0.02": 0.0,
			"0.021": 0.0,
			"0.022": 0.0,
			"0.023": 0.0,
			"0.024": 0.0,
			"0.025": 0.0
		}
	}
}
