{
	 "smiles": "CN(C)C(=O)SC1=CC=C(CCl)C=C1", 
	 "Tm": 352.15, 
	 "num_atms": 26, 
	 "gaussian": { 
		 "optdone": 1, 
		 "sigma_profile": "yes", 
		 "theory": "DFT", 
		 "functional": "B3LYP", 
		 "basiset": "6-31G**", 
		 "properties": { 
			 "R2extent": 6122.0598, 
			 "electric_dipole_moment_norm": 4.17906629524, 
			 "electric_quadrupole_moment_norm": 11.7145105758, 
			 "total_energy": -1376.66639617, 
			 "HOMO_LUMO_gap": 0.19615, 
			 "cosmo_polarized_energy": -12.45, 
			 "cosmo_cavitation_energy": 33.1, 
			 "cosmo_dispersion_energy": -24.3, 
			 "cosmo_repulsion_energy": 1.9, 
			 "cosmo_total_nonelectrostatic_energy": 10.7, 
			 "SMD_solvation_energy": 5.77 
		},
		"coords": [
			{
				"x": -2.5783114016,
				"y": -3.3809021613,
				"z": 0.3756474209,
				"element": "C" 
			},
			{
				"x": -2.3014730364,
				"y": -1.980670019,
				"z": 0.6833658223,
				"element": "N" 
			},
			{
				"x": -3.4380981788,
				"y": -1.174941576,
				"z": 1.1046019614,
				"element": "C" 
			},
			{
				"x": -1.0697030517,
				"y": -1.4828741289,
				"z": 0.3614703108,
				"element": "C" 
			},
			{
				"x": -0.1457927232,
				"y": -2.1503942587,
				"z": -0.0630121675,
				"element": "O" 
			},
			{
				"x": -0.9022996428,
				"y": 0.3336713713,
				"z": 0.6513794783,
				"element": "S" 
			},
			{
				"x": 0.7838742714,
				"y": 0.5977457739,
				"z": 0.1235466152,
				"element": "C" 
			},
			{
				"x": 1.8588552769,
				"y": -0.0836820149,
				"z": 0.7078851078,
				"element": "C" 
			},
			{
				"x": 3.1596958901,
				"y": 0.2047190849,
				"z": 0.3062533944,
				"element": "C" 
			},
			{
				"x": 3.4140118557,
				"y": 1.1837773908,
				"z": -0.6640445465,
				"element": "C" 
			},
			{
				"x": 4.8183100327,
				"y": 1.4895090576,
				"z": -1.0879818342,
				"element": "C" 
			},
			{
				"x": 5.5848774794,
				"y": 2.8188257358,
				"z": -0.0728849329,
				"element": "Cl" 
			},
			{
				"x": 2.3332815999,
				"y": 1.8674769847,
				"z": -1.2330070036,
				"element": "C" 
			},
			{
				"x": 1.0257423958,
				"y": 1.5725727284,
				"z": -0.851435668,
				"element": "C" 
			},
			{
				"x": -1.646368099,
				"y": -3.8660313117,
				"z": 0.0922088782,
				"element": "H" 
			},
			{
				"x": -3.2953966746,
				"y": -3.4650814307,
				"z": -0.4512425077,
				"element": "H" 
			},
			{
				"x": -3.0007392082,
				"y": -3.8797064977,
				"z": 1.2550120059,
				"element": "H" 
			},
			{
				"x": -3.1109184859,
				"y": -0.2827405263,
				"z": 1.6398463481,
				"element": "H" 
			},
			{
				"x": -4.0641396351,
				"y": -0.8694504896,
				"z": 0.255620503,
				"element": "H" 
			},
			{
				"x": -4.0519882937,
				"y": -1.7657964214,
				"z": 1.7911957643,
				"element": "H" 
			},
			{
				"x": 1.6743541996,
				"y": -0.8421484911,
				"z": 1.4588026326,
				"element": "H" 
			},
			{
				"x": 3.9901997878,
				"y": -0.3305483008,
				"z": 0.7589227068,
				"element": "H" 
			},
			{
				"x": 4.8664319445,
				"y": 1.8508760894,
				"z": -2.1152461386,
				"element": "H" 
			},
			{
				"x": 5.4767175739,
				"y": 0.6282014998,
				"z": -0.975384254,
				"element": "H" 
			},
			{
				"x": 2.5139398076,
				"y": 2.6292924768,
				"z": -1.9867542862,
				"element": "H" 
			},
			{
				"x": 0.1920363155,
				"y": 2.0924994348,
				"z": -1.3121656108,
				"element": "H" 
			}
		],
		 "valence_orbital": [ 
			{
				"type": "occ",
				"energy": -0.27557,
				"method": "rhf"
			},
			{
				"type": "occ",
				"energy": -0.26519,
				"method": "rhf"
			},
			{
				"type": "occ",
				"energy": -0.25481,
				"method": "rhf"
			},
			{
				"type": "occ",
				"energy": -0.25245,
				"method": "rhf"
			},
			{
				"type": "occ",
				"energy": -0.2331,
				"method": "rhf"
			},
			{
				"type": "unocc",
				"energy": -0.03695,
				"method": "rhf"
			},
			{
				"type": "unocc",
				"energy": -0.00882,
				"method": "rhf"
			},
			{
				"type": "unocc",
				"energy": 0.02449,
				"method": "rhf"
			},
			{
				"type": "unocc",
				"energy": 0.02905,
				"method": "rhf"
			},
			{
				"type": "unocc",
				"energy": 0.04489,
				"method": "rhf"
			}
		],
		"cosmo_sigma_profile": { 
			"-0.025": 0.0,
			"-0.024": 0.0,
			"-0.023": 0.0,
			"-0.022": 0.0,
			"-0.021": 0.0,
			"-0.02": 0.0,
			"-0.019": 0.0,
			"-0.018": 0.0,
			"-0.017": 0.0,
			"-0.016": 0.0,
			"-0.015": 0.0,
			"-0.014": 0.0,
			"-0.013": 0.0,
			"-0.012": 0.0,
			"-0.011": 0.0,
			"-0.01": 0.0,
			"-0.009": 0.0,
			"-0.008": 3.12648913784,
			"-0.007": 10.0293222078,
			"-0.006": 15.9041161091,
			"-0.005": 24.3226873752,
			"-0.004": 23.9031431112,
			"-0.003": 24.4447790239,
			"-0.002": 18.7578279986,
			"-0.001": 15.9858070962,
			"0.0": 14.6941510601,
			"0.001": 14.630220052,
			"0.002": 16.2191767558,
			"0.003": 17.8280816552,
			"0.004": 18.3648315322,
			"0.005": 11.4655648041,
			"0.006": 13.0527962141,
			"0.007": 10.3054208607,
			"0.008": 1.67694096238,
			"0.009": 2.21987105231,
			"0.01": 1.75403231377,
			"0.011": 2.19403068355,
			"0.012": 4.12547631958,
			"0.013": 1.97714225415,
			"0.014": 0.0,
			"0.015": 0.0,
			"0.016": 0.0,
			"0.017": 0.0,
			"0.018": 0.0,
			"0.019": 0.0,
			"0.02": 0.0,
			"0.021": 0.0,
			"0.022": 0.0,
			"0.023": 0.0,
			"0.024": 0.0,
			"0.025": 0.0
		}
	}
}
