{
	 "smiles": "CC1=C(N2C(SC1)C(NC(=O)C(N)C1=CC=C(O)C=C1)C2=O)C(O)=O", 
	 "Tm": 470.15, 
	 "num_atms": 42, 
	 "gaussian": { 
		 "optdone": 1, 
		 "sigma_profile": "yes", 
		 "theory": "DFT", 
		 "functional": "B3LYP", 
		 "basiset": "6-31G**", 
		 "properties": { 
			 "R2extent": 13013.3472, 
			 "electric_dipole_moment_norm": 4.86426971086, 
			 "electric_quadrupole_moment_norm": 28.8299144919, 
			 "total_energy": -1558.4925566, 
			 "HOMO_LUMO_gap": 0.16726, 
			 "cosmo_polarized_energy": -35.43, 
			 "cosmo_cavitation_energy": 48.39, 
			 "cosmo_dispersion_energy": -33.24, 
			 "cosmo_repulsion_energy": 2.51, 
			 "cosmo_total_nonelectrostatic_energy": 17.65, 
			 "SMD_solvation_energy": 8.46 
		},
		"coords": [
			{
				"x": -2.3215479932,
				"y": -0.9410642998,
				"z": -5.9964517866,
				"element": "C" 
			},
			{
				"x": -2.135876567,
				"y": -0.5466518326,
				"z": -4.5538512226,
				"element": "C" 
			},
			{
				"x": -0.9486893836,
				"y": -0.5738030979,
				"z": -3.9002289526,
				"element": "C" 
			},
			{
				"x": -0.8347963294,
				"y": -0.1093240529,
				"z": -2.5765519363,
				"element": "N" 
			},
			{
				"x": -1.8415798397,
				"y": 0.6346085326,
				"z": -1.8232428471,
				"element": "C" 
			},
			{
				"x": -3.5165239414,
				"y": -0.0619314928,
				"z": -2.0804256035,
				"element": "S" 
			},
			{
				"x": -3.4159213958,
				"y": -0.0468876115,
				"z": -3.9143498508,
				"element": "C" 
			},
			{
				"x": -1.117635242,
				"y": 0.2000316911,
				"z": -0.5096999545,
				"element": "C" 
			},
			{
				"x": -0.5366239596,
				"y": 1.1913603796,
				"z": 0.342976979,
				"element": "N" 
			},
			{
				"x": -0.7764417242,
				"y": 1.2007993727,
				"z": 1.7011373778,
				"element": "C" 
			},
			{
				"x": -1.6399592158,
				"y": 0.5124198456,
				"z": 2.2212689538,
				"element": "O" 
			},
			{
				"x": 0.1325081863,
				"y": 2.1351452459,
				"z": 2.5307299132,
				"element": "C" 
			},
			{
				"x": 0.7820874863,
				"y": 3.2430234287,
				"z": 1.8262631336,
				"element": "N" 
			},
			{
				"x": 1.1878110673,
				"y": 1.3216584979,
				"z": 3.2701988326,
				"element": "C" 
			},
			{
				"x": 1.855146031,
				"y": 0.2462707822,
				"z": 2.6643837629,
				"element": "C" 
			},
			{
				"x": 2.8600189699,
				"y": -0.4460808437,
				"z": 3.3343193719,
				"element": "C" 
			},
			{
				"x": 3.2190638433,
				"y": -0.068798333,
				"z": 4.6324027158,
				"element": "C" 
			},
			{
				"x": 4.2092496883,
				"y": -0.7814873158,
				"z": 5.2456286916,
				"element": "O" 
			},
			{
				"x": 2.5641966456,
				"y": 1.0027260079,
				"z": 5.249681408,
				"element": "C" 
			},
			{
				"x": 1.5600647328,
				"y": 1.6868136575,
				"z": 4.5679652807,
				"element": "C" 
			},
			{
				"x": -0.1519101703,
				"y": -0.5713639694,
				"z": -1.4445920658,
				"element": "C" 
			},
			{
				"x": 0.8108565418,
				"y": -1.2792352082,
				"z": -1.2929589731,
				"element": "O" 
			},
			{
				"x": 0.3270999276,
				"y": -1.0174604394,
				"z": -4.5423189825,
				"element": "C" 
			},
			{
				"x": 1.3916012955,
				"y": -0.3505800401,
				"z": -4.0471228662,
				"element": "O" 
			},
			{
				"x": 0.4241333211,
				"y": -1.8509061473,
				"z": -5.4197929935,
				"element": "O" 
			},
			{
				"x": -1.3814189211,
				"y": -1.0491399039,
				"z": -6.532466383,
				"element": "H" 
			},
			{
				"x": -2.8450914938,
				"y": -1.9039098857,
				"z": -6.054624807,
				"element": "H" 
			},
			{
				"x": -2.9538493081,
				"y": -0.2042251996,
				"z": -6.5072989996,
				"element": "H" 
			},
			{
				"x": -1.8313147438,
				"y": 1.7080419912,
				"z": -2.0341868265,
				"element": "H" 
			},
			{
				"x": -4.2462631415,
				"y": -0.6798204124,
				"z": -4.2448175892,
				"element": "H" 
			},
			{
				"x": -3.6340111832,
				"y": 0.9629315896,
				"z": -4.2867395474,
				"element": "H" 
			},
			{
				"x": -1.7228952615,
				"y": -0.4620063351,
				"z": 0.116184055,
				"element": "H" 
			},
			{
				"x": 0.2437235058,
				"y": 1.7370664937,
				"z": 0.0057666228,
				"element": "H" 
			},
			{
				"x": -0.5471083709,
				"y": 2.5636755368,
				"z": 3.2763131287,
				"element": "H" 
			},
			{
				"x": 0.1551282283,
				"y": 3.7499023585,
				"z": 1.209177896,
				"element": "H" 
			},
			{
				"x": 1.6154357182,
				"y": 2.9536933777,
				"z": 1.324823992,
				"element": "H" 
			},
			{
				"x": 1.5850655863,
				"y": -0.0760402584,
				"z": 1.661891428,
				"element": "H" 
			},
			{
				"x": 3.3695811779,
				"y": -1.2835834032,
				"z": 2.8698752991,
				"element": "H" 
			},
			{
				"x": 4.348132687,
				"y": -0.4306786375,
				"z": 6.1348512397,
				"element": "H" 
			},
			{
				"x": 2.8363453851,
				"y": 1.2989147066,
				"z": 6.2607807577,
				"element": "H" 
			},
			{
				"x": 1.0598889248,
				"y": 2.5205935814,
				"z": 5.052746304,
				"element": "H" 
			},
			{
				"x": 2.1742192357,
				"y": -0.7450983572,
				"z": -4.4666449561,
				"element": "H" 
			}
		],
		 "valence_orbital": [ 
			{
				"type": "occ",
				"energy": -0.25318,
				"method": "rhf"
			},
			{
				"type": "occ",
				"energy": -0.24625,
				"method": "rhf"
			},
			{
				"type": "occ",
				"energy": -0.23722,
				"method": "rhf"
			},
			{
				"type": "occ",
				"energy": -0.2336,
				"method": "rhf"
			},
			{
				"type": "occ",
				"energy": -0.22105,
				"method": "rhf"
			},
			{
				"type": "unocc",
				"energy": -0.05379,
				"method": "rhf"
			},
			{
				"type": "unocc",
				"energy": -0.00574,
				"method": "rhf"
			},
			{
				"type": "unocc",
				"energy": -0.00288,
				"method": "rhf"
			},
			{
				"type": "unocc",
				"energy": 0.00499,
				"method": "rhf"
			},
			{
				"type": "unocc",
				"energy": 0.01127,
				"method": "rhf"
			}
		],
		"cosmo_sigma_profile": { 
			"-0.025": 0.0,
			"-0.024": 0.0,
			"-0.023": 0.0,
			"-0.022": 0.0,
			"-0.021": 0.0,
			"-0.02": 0.0,
			"-0.019": 0.359267446196,
			"-0.018": 1.28616898849,
			"-0.017": 2.05921924833,
			"-0.016": 1.59846506009,
			"-0.015": 3.12816682826,
			"-0.014": 3.60616686861,
			"-0.013": 2.7994411303,
			"-0.012": 3.14005897937,
			"-0.011": 5.63184992173,
			"-0.01": 6.93627541019,
			"-0.009": 5.01606934345,
			"-0.008": 8.36755883696,
			"-0.007": 14.9096997694,
			"-0.006": 20.4096483394,
			"-0.005": 23.6253085154,
			"-0.004": 20.7748895461,
			"-0.003": 22.9581825212,
			"-0.002": 23.2981490699,
			"-0.001": 23.6072418146,
			"0.0": 18.6000630711,
			"0.001": 16.5838318682,
			"0.002": 16.2932926813,
			"0.003": 16.1773386474,
			"0.004": 20.2833647906,
			"0.005": 19.0747840904,
			"0.006": 12.7469833202,
			"0.007": 10.9577515389,
			"0.008": 11.1046631882,
			"0.009": 9.44226597524,
			"0.01": 9.31334466173,
			"0.011": 14.0366264298,
			"0.012": 7.53617306399,
			"0.013": 5.40051919499,
			"0.014": 2.22472386233,
			"0.015": 0.503597123152,
			"0.016": 0.598849847205,
			"0.017": 0.514634174039,
			"0.018": 0.0775473343488,
			"0.019": 0.0,
			"0.02": 0.0,
			"0.021": 0.0,
			"0.022": 0.0,
			"0.023": 0.0,
			"0.024": 0.0,
			"0.025": 0.0
		}
	}
}
