{
	 "smiles": "CC1=CC(C)=NC(NNC=CC2=CC=C(C=C2)[N+]([O-])=O)=N1", 
	 "Tm": 457.15, 
	 "num_atms": 36, 
	 "gaussian": { 
		 "optdone": 1, 
		 "sigma_profile": "yes", 
		 "theory": "DFT", 
		 "functional": "B3LYP", 
		 "basiset": "6-31G**", 
		 "properties": { 
			 "R2extent": 11720.9026, 
			 "electric_dipole_moment_norm": 9.57499039477, 
			 "electric_quadrupole_moment_norm": 36.3405946406, 
			 "total_energy": -966.620811291, 
			 "HOMO_LUMO_gap": 0.13114, 
			 "cosmo_polarized_energy": -18.05, 
			 "cosmo_cavitation_energy": 42.39, 
			 "cosmo_dispersion_energy": -30.08, 
			 "cosmo_repulsion_energy": 2.34, 
			 "cosmo_total_nonelectrostatic_energy": 14.64, 
			 "SMD_solvation_energy": 7.44 
		},
		"coords": [
			{
				"x": -5.6528293656,
				"y": 0.2398494344,
				"z": -3.3712160156,
				"element": "C" 
			},
			{
				"x": -4.272867039,
				"y": 0.5015726031,
				"z": -2.8298111771,
				"element": "C" 
			},
			{
				"x": -3.8179982748,
				"y": 1.7960168095,
				"z": -2.545874971,
				"element": "C" 
			},
			{
				"x": -2.515789051,
				"y": 1.9386349401,
				"z": -2.0641234867,
				"element": "C" 
			},
			{
				"x": -1.9179749835,
				"y": 3.2830883988,
				"z": -1.7492473079,
				"element": "C" 
			},
			{
				"x": -1.7256809481,
				"y": 0.8700385406,
				"z": -1.8600325884,
				"element": "N" 
			},
			{
				"x": -2.2700019811,
				"y": -0.3180469224,
				"z": -2.1389666707,
				"element": "C" 
			},
			{
				"x": -1.5010994199,
				"y": -1.4497773818,
				"z": -1.8981085187,
				"element": "N" 
			},
			{
				"x": -0.1302239447,
				"y": -1.3348499904,
				"z": -1.6862019536,
				"element": "N" 
			},
			{
				"x": 0.3045988243,
				"y": -1.3197825865,
				"z": -0.3698760909,
				"element": "C" 
			},
			{
				"x": 1.4927582175,
				"y": -0.8246591715,
				"z": 0.0389811078,
				"element": "C" 
			},
			{
				"x": 2.0204986521,
				"y": -0.8806161383,
				"z": 1.3949448249,
				"element": "C" 
			},
			{
				"x": 1.3878055523,
				"y": -1.5698356588,
				"z": 2.4561771299,
				"element": "C" 
			},
			{
				"x": 1.9261797955,
				"y": -1.5802917692,
				"z": 3.7328160909,
				"element": "C" 
			},
			{
				"x": 3.1236037372,
				"y": -0.9015586088,
				"z": 3.9753412695,
				"element": "C" 
			},
			{
				"x": 3.7846062893,
				"y": -0.2169927848,
				"z": 2.9551849683,
				"element": "C" 
			},
			{
				"x": 3.2319430727,
				"y": -0.2124373471,
				"z": 1.6826731444,
				"element": "C" 
			},
			{
				"x": 3.6944018552,
				"y": -0.9133631803,
				"z": 5.3185239274,
				"element": "N" 
			},
			{
				"x": 3.0856313171,
				"y": -1.5284619992,
				"z": 6.1981020199,
				"element": "O" 
			},
			{
				"x": 4.7535235912,
				"y": -0.3070649817,
				"z": 5.5002422544,
				"element": "O" 
			},
			{
				"x": -3.4931913503,
				"y": -0.5679894475,
				"z": -2.6310707147,
				"element": "N" 
			},
			{
				"x": -6.1948711967,
				"y": 1.1675616536,
				"z": -3.5681000477,
				"element": "H" 
			},
			{
				"x": -5.5900474747,
				"y": -0.3407540871,
				"z": -4.296730124,
				"element": "H" 
			},
			{
				"x": -6.2282375435,
				"y": -0.3590403011,
				"z": -2.6574251909,
				"element": "H" 
			},
			{
				"x": -4.4526055035,
				"y": 2.6596295177,
				"z": -2.7087942211,
				"element": "H" 
			},
			{
				"x": -2.6165928283,
				"y": 4.0970235236,
				"z": -1.9555966509,
				"element": "H" 
			},
			{
				"x": -1.0084312456,
				"y": 3.4382202131,
				"z": -2.3386530415,
				"element": "H" 
			},
			{
				"x": -1.6248629022,
				"y": 3.3255647522,
				"z": -0.6952356871,
				"element": "H" 
			},
			{
				"x": -1.7848125836,
				"y": -2.2642201389,
				"z": -2.4280293444,
				"element": "H" 
			},
			{
				"x": 0.3142331883,
				"y": -0.6489905662,
				"z": -2.290773844,
				"element": "H" 
			},
			{
				"x": -0.3921737116,
				"y": -1.8050831745,
				"z": 0.3060319429,
				"element": "H" 
			},
			{
				"x": 2.1233187083,
				"y": -0.3258220272,
				"z": -0.6955226413,
				"element": "H" 
			},
			{
				"x": 0.4650649989,
				"y": -2.1123918615,
				"z": 2.2786266889,
				"element": "H" 
			},
			{
				"x": 1.4438428403,
				"y": -2.1069468282,
				"z": 4.5468889425,
				"element": "H" 
			},
			{
				"x": 4.7122765755,
				"y": 0.2965373299,
				"z": 3.1751616264,
				"element": "H" 
			},
			{
				"x": 3.7409041322,
				"y": 0.3214392364,
				"z": 0.8850943498,
				"element": "H" 
			}
		],
		 "valence_orbital": [ 
			{
				"type": "occ",
				"energy": -0.27211,
				"method": "rhf"
			},
			{
				"type": "occ",
				"energy": -0.26442,
				"method": "rhf"
			},
			{
				"type": "occ",
				"energy": -0.25953,
				"method": "rhf"
			},
			{
				"type": "occ",
				"energy": -0.24497,
				"method": "rhf"
			},
			{
				"type": "occ",
				"energy": -0.20709,
				"method": "rhf"
			},
			{
				"type": "unocc",
				"energy": -0.07595,
				"method": "rhf"
			},
			{
				"type": "unocc",
				"energy": -0.04313,
				"method": "rhf"
			},
			{
				"type": "unocc",
				"energy": -0.01616,
				"method": "rhf"
			},
			{
				"type": "unocc",
				"energy": -0.01114,
				"method": "rhf"
			},
			{
				"type": "unocc",
				"energy": -0.00496,
				"method": "rhf"
			}
		],
		"cosmo_sigma_profile": { 
			"-0.025": 0.0,
			"-0.024": 0.0,
			"-0.023": 0.0,
			"-0.022": 0.0,
			"-0.021": 0.0,
			"-0.02": 0.0,
			"-0.019": 0.0,
			"-0.018": 0.0,
			"-0.017": 0.0,
			"-0.016": 0.0,
			"-0.015": 0.0,
			"-0.014": 0.480078163751,
			"-0.013": 1.86691760964,
			"-0.012": 1.93899831545,
			"-0.011": 2.21160233715,
			"-0.01": 1.86976681503,
			"-0.009": 3.63007974679,
			"-0.008": 4.30288359404,
			"-0.007": 7.84852354576,
			"-0.006": 16.8153745789,
			"-0.005": 23.7839358293,
			"-0.004": 22.0628738341,
			"-0.003": 20.3249436385,
			"-0.002": 24.5817717687,
			"-0.001": 32.6613315183,
			"0.0": 30.6531383096,
			"0.001": 22.7239840494,
			"0.002": 24.4111263004,
			"0.003": 24.6375126455,
			"0.004": 10.6008610318,
			"0.005": 10.4654167066,
			"0.006": 7.35592738933,
			"0.007": 7.52176212894,
			"0.008": 12.3926479488,
			"0.009": 9.41365684082,
			"0.01": 6.44285917289,
			"0.011": 4.06822012426,
			"0.012": 1.26198477173,
			"0.013": 0.999174018911,
			"0.014": 0.548857459622,
			"0.015": 0.11216968968,
			"0.016": 0.0,
			"0.017": 0.0,
			"0.018": 0.0,
			"0.019": 0.0,
			"0.02": 0.0,
			"0.021": 0.0,
			"0.022": 0.0,
			"0.023": 0.0,
			"0.024": 0.0,
			"0.025": 0.0
		}
	}
}
