{
	 "smiles": "OC(=O)C1=CSC(NC2=NC=CC=C2)=N1", 
	 "Tm": 572.15, 
	 "num_atms": 22, 
	 "gaussian": { 
		 "optdone": 1, 
		 "sigma_profile": "yes", 
		 "theory": "DFT", 
		 "functional": "B3LYP", 
		 "basiset": "6-31G**", 
		 "properties": { 
			 "R2extent": 5489.1958, 
			 "electric_dipole_moment_norm": 8.44755030053, 
			 "electric_quadrupole_moment_norm": 31.1837966503, 
			 "total_energy": -1060.07963061, 
			 "HOMO_LUMO_gap": 0.17528, 
			 "cosmo_polarized_energy": -17.06, 
			 "cosmo_cavitation_energy": 29.09, 
			 "cosmo_dispersion_energy": -22.32, 
			 "cosmo_repulsion_energy": 1.69, 
			 "cosmo_total_nonelectrostatic_energy": 8.46, 
			 "SMD_solvation_energy": 4.74 
		},
		"coords": [
			{
				"x": 0.8502573706,
				"y": -5.0512472664,
				"z": 0.4489286669,
				"element": "O" 
			},
			{
				"x": -0.1898921602,
				"y": -5.0104708989,
				"z": -0.4123005227,
				"element": "C" 
			},
			{
				"x": -0.6483071241,
				"y": -6.0056114811,
				"z": -0.9248516075,
				"element": "O" 
			},
			{
				"x": -0.7045601842,
				"y": -3.6339020222,
				"z": -0.6607693019,
				"element": "C" 
			},
			{
				"x": -1.7422110252,
				"y": -3.3191755672,
				"z": -1.4845321357,
				"element": "C" 
			},
			{
				"x": -2.0112320043,
				"y": -1.6009183973,
				"z": -1.4839300988,
				"element": "S" 
			},
			{
				"x": -0.671978005,
				"y": -1.4445254597,
				"z": -0.3471558627,
				"element": "C" 
			},
			{
				"x": -0.2262489732,
				"y": -0.2543841469,
				"z": 0.180180752,
				"element": "N" 
			},
			{
				"x": -0.7098094047,
				"y": 1.0254445274,
				"z": -0.0544391403,
				"element": "C" 
			},
			{
				"x": -1.7392076516,
				"y": 1.1383683849,
				"z": -0.8959145771,
				"element": "N" 
			},
			{
				"x": -2.2222947289,
				"y": 2.3652321891,
				"z": -1.1370107494,
				"element": "C" 
			},
			{
				"x": -1.7093145403,
				"y": 3.5206279526,
				"z": -0.5587361555,
				"element": "C" 
			},
			{
				"x": -0.6285622343,
				"y": 3.3874071809,
				"z": 0.3223420831,
				"element": "C" 
			},
			{
				"x": -0.1124028718,
				"y": 2.1282612914,
				"z": 0.5865319647,
				"element": "C" 
			},
			{
				"x": -0.0978383724,
				"y": -2.5728695995,
				"z": -0.0160065126,
				"element": "N" 
			},
			{
				"x": 1.0334362931,
				"y": -4.1328201281,
				"z": 0.7219356084,
				"element": "H" 
			},
			{
				"x": -2.3421258418,
				"y": -3.9974592172,
				"z": -2.073180386,
				"element": "H" 
			},
			{
				"x": 0.5535154433,
				"y": -0.3638544507,
				"z": 0.8136577782,
				"element": "H" 
			},
			{
				"x": -3.0609406443,
				"y": 2.4130861618,
				"z": -1.8280381461,
				"element": "H" 
			},
			{
				"x": -2.1376623594,
				"y": 4.4899705152,
				"z": -0.7873820904,
				"element": "H" 
			},
			{
				"x": -0.1934421426,
				"y": 4.2609858953,
				"z": 0.7985683541,
				"element": "H" 
			},
			{
				"x": 0.7248211613,
				"y": 1.9908545364,
				"z": 1.2642020791,
				"element": "H" 
			}
		],
		 "valence_orbital": [ 
			{
				"type": "occ",
				"energy": -0.29425,
				"method": "rhf"
			},
			{
				"type": "occ",
				"energy": -0.28363,
				"method": "rhf"
			},
			{
				"type": "occ",
				"energy": -0.27269,
				"method": "rhf"
			},
			{
				"type": "occ",
				"energy": -0.2611,
				"method": "rhf"
			},
			{
				"type": "occ",
				"energy": -0.22134,
				"method": "rhf"
			},
			{
				"type": "unocc",
				"energy": -0.04606,
				"method": "rhf"
			},
			{
				"type": "unocc",
				"energy": -0.0415,
				"method": "rhf"
			},
			{
				"type": "unocc",
				"energy": -0.02233,
				"method": "rhf"
			},
			{
				"type": "unocc",
				"energy": 0.01798,
				"method": "rhf"
			},
			{
				"type": "unocc",
				"energy": 0.0195,
				"method": "rhf"
			}
		],
		"cosmo_sigma_profile": { 
			"-0.025": 0.0,
			"-0.024": 0.0,
			"-0.023": 0.0,
			"-0.022": 0.0,
			"-0.021": 0.0,
			"-0.02": 0.0,
			"-0.019": 0.0,
			"-0.018": 0.0,
			"-0.017": 0.104130957319,
			"-0.016": 0.993380502123,
			"-0.015": 1.02041776468,
			"-0.014": 1.3078920285,
			"-0.013": 1.34849192956,
			"-0.012": 1.80453824335,
			"-0.011": 2.04671981619,
			"-0.01": 2.4744908112,
			"-0.009": 3.48035300398,
			"-0.008": 4.42548190875,
			"-0.007": 8.76292934669,
			"-0.006": 12.5593807085,
			"-0.005": 12.6377372909,
			"-0.004": 11.0955386167,
			"-0.003": 10.2674415232,
			"-0.002": 11.1497815611,
			"-0.001": 17.7029858405,
			"0.0": 19.1832320742,
			"0.001": 24.0258506532,
			"0.002": 22.0022208612,
			"0.003": 17.0671004379,
			"0.004": 8.65017045265,
			"0.005": 6.996747722,
			"0.006": 5.05494163867,
			"0.007": 5.29146341121,
			"0.008": 3.96283813784,
			"0.009": 3.39543847736,
			"0.01": 5.11844853678,
			"0.011": 4.67428758455,
			"0.012": 5.65350632093,
			"0.013": 2.0348045855,
			"0.014": 0.206905655825,
			"0.015": 0.0,
			"0.016": 0.0,
			"0.017": 0.0,
			"0.018": 0.0,
			"0.019": 0.0,
			"0.02": 0.0,
			"0.021": 0.0,
			"0.022": 0.0,
			"0.023": 0.0,
			"0.024": 0.0,
			"0.025": 0.0
		}
	}
}
