{
	 "smiles": "C1=CC2=CC=CC3=C2C1=CC=C3", 
	 "Tm": 364.95, 
	 "num_atms": 20, 
	 "gaussian": { 
		 "optdone": 1, 
		 "sigma_profile": "yes", 
		 "theory": "DFT", 
		 "functional": "B3LYP", 
		 "basiset": "6-31G**", 
		 "properties": { 
			 "R2extent": 1865.2691, 
			 "electric_dipole_moment_norm": 0.325106474866, 
			 "electric_quadrupole_moment_norm": 10.1732571441, 
			 "total_energy": -462.090786418, 
			 "HOMO_LUMO_gap": 0.14387, 
			 "cosmo_polarized_energy": -4.96, 
			 "cosmo_cavitation_energy": 23.34, 
			 "cosmo_dispersion_energy": -17.68, 
			 "cosmo_repulsion_energy": 1.36, 
			 "cosmo_total_nonelectrostatic_energy": 7.02, 
			 "SMD_solvation_energy": 3.41 
		},
		"coords": [
			{
				"x": 1.132781799,
				"y": 0.7277134874,
				"z": -1.4771790332,
				"element": "C" 
			},
			{
				"x": 0.044632551,
				"y": 0.3329168218,
				"z": -2.1984080962,
				"element": "C" 
			},
			{
				"x": -1.101695621,
				"y": 0.1706736604,
				"z": -1.2874242012,
				"element": "C" 
			},
			{
				"x": -2.4278375913,
				"y": -0.1955432893,
				"z": -1.4100855593,
				"element": "C" 
			},
			{
				"x": -3.2402601781,
				"y": -0.2306687581,
				"z": -0.2387554688,
				"element": "C" 
			},
			{
				"x": -2.7512015268,
				"y": 0.0881507541,
				"z": 1.0171394866,
				"element": "C" 
			},
			{
				"x": -1.385436542,
				"y": 0.469908685,
				"z": 1.1737601885,
				"element": "C" 
			},
			{
				"x": -0.6195210412,
				"y": 0.4932977476,
				"z": 0.0053699355,
				"element": "C" 
			},
			{
				"x": 0.7521041001,
				"y": 0.8432144651,
				"z": -0.058716447,
				"element": "C" 
			},
			{
				"x": 1.3869867273,
				"y": 1.1884517778,
				"z": 1.1183762128,
				"element": "C" 
			},
			{
				"x": 0.6367208327,
				"y": 1.1758227653,
				"z": 2.3309041807,
				"element": "C" 
			},
			{
				"x": -0.7038795478,
				"y": 0.8308397015,
				"z": 2.3740898549,
				"element": "C" 
			},
			{
				"x": 2.1211490689,
				"y": 0.9266039579,
				"z": -1.8741072647,
				"element": "H" 
			},
			{
				"x": 0.0177595883,
				"y": 0.1634623125,
				"z": -3.2682410736,
				"element": "H" 
			},
			{
				"x": -2.8654182147,
				"y": -0.4560226869,
				"z": -2.3704490973,
				"element": "H" 
			},
			{
				"x": -4.2825763422,
				"y": -0.51941045,
				"z": -0.3412325817,
				"element": "H" 
			},
			{
				"x": -3.4077125386,
				"y": 0.0474402258,
				"z": 1.8824654678,
				"element": "H" 
			},
			{
				"x": 2.4371945004,
				"y": 1.4677817871,
				"z": 1.1441069393,
				"element": "H" 
			},
			{
				"x": 1.1412569975,
				"y": 1.4482374071,
				"z": 3.253687923,
				"element": "H" 
			},
			{
				"x": -1.2359470215,
				"y": 0.8352296278,
				"z": 3.3218986337,
				"element": "H" 
			}
		],
		 "valence_orbital": [ 
			{
				"type": "occ",
				"energy": -0.32469,
				"method": "rhf"
			},
			{
				"type": "occ",
				"energy": -0.32313,
				"method": "rhf"
			},
			{
				"type": "occ",
				"energy": -0.2438,
				"method": "rhf"
			},
			{
				"type": "occ",
				"energy": -0.2265,
				"method": "rhf"
			},
			{
				"type": "occ",
				"energy": -0.21377,
				"method": "rhf"
			},
			{
				"type": "unocc",
				"energy": -0.0699,
				"method": "rhf"
			},
			{
				"type": "unocc",
				"energy": -0.00445,
				"method": "rhf"
			},
			{
				"type": "unocc",
				"energy": 0.0455,
				"method": "rhf"
			},
			{
				"type": "unocc",
				"energy": 0.04985,
				"method": "rhf"
			},
			{
				"type": "unocc",
				"energy": 0.09994,
				"method": "rhf"
			}
		],
		"cosmo_sigma_profile": { 
			"-0.025": 0.0,
			"-0.024": 0.0,
			"-0.023": 0.0,
			"-0.022": 0.0,
			"-0.021": 0.0,
			"-0.02": 0.0,
			"-0.019": 0.0,
			"-0.018": 0.0,
			"-0.017": 0.0,
			"-0.016": 0.0,
			"-0.015": 0.0,
			"-0.014": 0.0,
			"-0.013": 0.0,
			"-0.012": 0.0,
			"-0.011": 0.0,
			"-0.01": 0.0,
			"-0.009": 0.0,
			"-0.008": 0.0,
			"-0.007": 0.694414845784,
			"-0.006": 13.2919843755,
			"-0.005": 17.1896574686,
			"-0.004": 17.9453659265,
			"-0.003": 14.9244858499,
			"-0.002": 12.6900351516,
			"-0.001": 10.8758836036,
			"0.0": 9.86591407834,
			"0.001": 10.6031560941,
			"0.002": 12.2260209769,
			"0.003": 14.1971098875,
			"0.004": 27.2631629414,
			"0.005": 23.7565105603,
			"0.006": 2.8607925051,
			"0.007": 0.0898306409239,
			"0.008": 0.0,
			"0.009": 0.0,
			"0.01": 0.0,
			"0.011": 0.0,
			"0.012": 0.0,
			"0.013": 0.0,
			"0.014": 0.0,
			"0.015": 0.0,
			"0.016": 0.0,
			"0.017": 0.0,
			"0.018": 0.0,
			"0.019": 0.0,
			"0.02": 0.0,
			"0.021": 0.0,
			"0.022": 0.0,
			"0.023": 0.0,
			"0.024": 0.0,
			"0.025": 0.0
		}
	}
}
