{
	 "smiles": "OC(=O)C1=NN(C2=C1CCCCC2)C1=CC=C(Cl)C=C1", 
	 "Tm": 486.15, 
	 "num_atms": 35, 
	 "gaussian": { 
		 "optdone": 1, 
		 "sigma_profile": "yes", 
		 "theory": "DFT", 
		 "functional": "B3LYP", 
		 "basiset": "6-31G**", 
		 "properties": { 
			 "R2extent": 8911.5333, 
			 "electric_dipole_moment_norm": 4.39547022854, 
			 "electric_quadrupole_moment_norm": 7.3930645547, 
			 "total_energy": -1300.79214635, 
			 "HOMO_LUMO_gap": 0.19374, 
			 "cosmo_polarized_energy": -15.68, 
			 "cosmo_cavitation_energy": 39.28, 
			 "cosmo_dispersion_energy": -28.42, 
			 "cosmo_repulsion_energy": 2.2, 
			 "cosmo_total_nonelectrostatic_energy": 13.06, 
			 "SMD_solvation_energy": 5.85 
		},
		"coords": [
			{
				"x": -2.4706560792,
				"y": -2.1692207183,
				"z": 0.7077851291,
				"element": "O" 
			},
			{
				"x": -1.9678188465,
				"y": -1.6758868418,
				"z": -0.4582176305,
				"element": "C" 
			},
			{
				"x": -2.4713040238,
				"y": -1.9360045093,
				"z": -1.5290851217,
				"element": "O" 
			},
			{
				"x": -0.7786026866,
				"y": -0.8169753678,
				"z": -0.2536611384,
				"element": "C" 
			},
			{
				"x": -0.2846658397,
				"y": -0.2131743189,
				"z": -1.3396438753,
				"element": "N" 
			},
			{
				"x": 0.7661968465,
				"y": 0.4966482105,
				"z": -0.8942443175,
				"element": "N" 
			},
			{
				"x": 0.9735813472,
				"y": 0.346152488,
				"z": 0.4637411044,
				"element": "C" 
			},
			{
				"x": -0.0288561624,
				"y": -0.4979166051,
				"z": 0.9178470023,
				"element": "C" 
			},
			{
				"x": -0.2232288038,
				"y": -0.9411169472,
				"z": 2.344288152,
				"element": "C" 
			},
			{
				"x": 1.0123674766,
				"y": -1.5941358021,
				"z": 2.993370866,
				"element": "C" 
			},
			{
				"x": 2.1863305387,
				"y": -0.6469645234,
				"z": 3.2862820163,
				"element": "C" 
			},
			{
				"x": 2.9216138182,
				"y": -0.0785670862,
				"z": 2.0626895973,
				"element": "C" 
			},
			{
				"x": 2.1306123402,
				"y": 0.9395136454,
				"z": 1.2159602859,
				"element": "C" 
			},
			{
				"x": 1.4985522276,
				"y": 1.2679533504,
				"z": -1.8426612278,
				"element": "C" 
			},
			{
				"x": 1.8534461426,
				"y": 2.5928768211,
				"z": -1.573053791,
				"element": "C" 
			},
			{
				"x": 2.5625899061,
				"y": 3.3315465781,
				"z": -2.5199441772,
				"element": "C" 
			},
			{
				"x": 2.8906758597,
				"y": 2.7425003069,
				"z": -3.7398347475,
				"element": "C" 
			},
			{
				"x": 3.7798227158,
				"y": 3.6708978101,
				"z": -4.935529937,
				"element": "Cl" 
			},
			{
				"x": 2.5154971545,
				"y": 1.4293783333,
				"z": -4.0290017868,
				"element": "C" 
			},
			{
				"x": 1.8206666717,
				"y": 0.691054584,
				"z": -3.0753533315,
				"element": "C" 
			},
			{
				"x": -3.2330746942,
				"y": -2.7115375087,
				"z": 0.4453512115,
				"element": "H" 
			},
			{
				"x": -0.5214470436,
				"y": -0.0748275633,
				"z": 2.9540504452,
				"element": "H" 
			},
			{
				"x": -1.0585023498,
				"y": -1.6401864585,
				"z": 2.3832071987,
				"element": "H" 
			},
			{
				"x": 1.3569363497,
				"y": -2.4229546677,
				"z": 2.3609192321,
				"element": "H" 
			},
			{
				"x": 0.6932878223,
				"y": -2.0427840591,
				"z": 3.9424731217,
				"element": "H" 
			},
			{
				"x": 2.9192498305,
				"y": -1.187184536,
				"z": 3.8987378953,
				"element": "H" 
			},
			{
				"x": 1.8294761226,
				"y": 0.1865614143,
				"z": 3.9094686752,
				"element": "H" 
			},
			{
				"x": 3.8312861643,
				"y": 0.4256090468,
				"z": 2.4118314805,
				"element": "H" 
			},
			{
				"x": 3.2522003381,
				"y": -0.9008952603,
				"z": 1.415191715,
				"element": "H" 
			},
			{
				"x": 2.8195941286,
				"y": 1.407546048,
				"z": 0.5082065115,
				"element": "H" 
			},
			{
				"x": 1.7729084394,
				"y": 1.746103038,
				"z": 1.8732547346,
				"element": "H" 
			},
			{
				"x": 1.5560278177,
				"y": 3.0582136763,
				"z": -0.6400231943,
				"element": "H" 
			},
			{
				"x": 2.8408278514,
				"y": 4.3597971107,
				"z": -2.3187923853,
				"element": "H" 
			},
			{
				"x": 2.7692649695,
				"y": 0.9896868076,
				"z": -4.9868939214,
				"element": "H" 
			},
			{
				"x": 1.5110436498,
				"y": -0.3274064956,
				"z": -3.2783157911,
				"element": "H" 
			}
		],
		 "valence_orbital": [ 
			{
				"type": "occ",
				"energy": -0.2777,
				"method": "rhf"
			},
			{
				"type": "occ",
				"energy": -0.27571,
				"method": "rhf"
			},
			{
				"type": "occ",
				"energy": -0.26908,
				"method": "rhf"
			},
			{
				"type": "occ",
				"energy": -0.24294,
				"method": "rhf"
			},
			{
				"type": "occ",
				"energy": -0.23534,
				"method": "rhf"
			},
			{
				"type": "unocc",
				"energy": -0.0416,
				"method": "rhf"
			},
			{
				"type": "unocc",
				"energy": -0.02669,
				"method": "rhf"
			},
			{
				"type": "unocc",
				"energy": -0.01357,
				"method": "rhf"
			},
			{
				"type": "unocc",
				"energy": 0.02247,
				"method": "rhf"
			},
			{
				"type": "unocc",
				"energy": 0.02546,
				"method": "rhf"
			}
		],
		"cosmo_sigma_profile": { 
			"-0.025": 0.0,
			"-0.024": 0.0,
			"-0.023": 0.0,
			"-0.022": 0.0,
			"-0.021": 0.0,
			"-0.02": 0.0,
			"-0.019": 0.0,
			"-0.018": 0.473309043922,
			"-0.017": 1.05093938566,
			"-0.016": 0.591776793301,
			"-0.015": 0.826052610083,
			"-0.014": 0.803991300934,
			"-0.013": 1.32355847547,
			"-0.012": 0.531939936182,
			"-0.011": 0.280127296699,
			"-0.01": 0.811171786969,
			"-0.009": 0.344603263992,
			"-0.008": 3.8401347542,
			"-0.007": 8.77355242171,
			"-0.006": 10.0404333777,
			"-0.005": 9.01212879159,
			"-0.004": 12.9694577578,
			"-0.003": 27.5173638541,
			"-0.002": 36.0871253227,
			"-0.001": 37.9816389164,
			"0.0": 33.5659510458,
			"0.001": 31.0517805474,
			"0.002": 26.923402509,
			"0.003": 16.5173544158,
			"0.004": 14.8230823305,
			"0.005": 8.18585235613,
			"0.006": 3.23392570247,
			"0.007": 2.95899769246,
			"0.008": 2.32831422848,
			"0.009": 2.52386561269,
			"0.01": 2.16664077655,
			"0.011": 3.74112014429,
			"0.012": 6.05569429233,
			"0.013": 2.09684630429,
			"0.014": 1.5919864786,
			"0.015": 1.58513150338,
			"0.016": 0.899275191234,
			"0.017": 0.00393730726884,
			"0.018": 0.0,
			"0.019": 0.0,
			"0.02": 0.0,
			"0.021": 0.0,
			"0.022": 0.0,
			"0.023": 0.0,
			"0.024": 0.0,
			"0.025": 0.0
		}
	}
}
