{
	 "smiles": "NC1=NC=NC=C1", 
	 "Tm": 425.15, 
	 "num_atms": 12, 
	 "gaussian": { 
		 "optdone": 1, 
		 "sigma_profile": "yes", 
		 "theory": "DFT", 
		 "functional": "B3LYP", 
		 "basiset": "6-31G**", 
		 "properties": { 
			 "R2extent": 910.8843, 
			 "electric_dipole_moment_norm": 3.72477923775, 
			 "electric_quadrupole_moment_norm": 6.84831527969, 
			 "total_energy": -319.696371626, 
			 "HOMO_LUMO_gap": 0.21646, 
			 "cosmo_polarized_energy": -11.52, 
			 "cosmo_cavitation_energy": 16.09, 
			 "cosmo_dispersion_energy": -12.4, 
			 "cosmo_repulsion_energy": 1.05, 
			 "cosmo_total_nonelectrostatic_energy": 4.75, 
			 "SMD_solvation_energy": 0.18 
		},
		"coords": [
			{
				"x": 1.7947389462,
				"y": -2.1010893386,
				"z": 0.5246196601,
				"element": "N" 
			},
			{
				"x": 1.3907018777,
				"y": -0.9568302581,
				"z": -0.1058753461,
				"element": "C" 
			},
			{
				"x": 0.3357945697,
				"y": -1.0669180267,
				"z": -0.9336849691,
				"element": "N" 
			},
			{
				"x": -0.0306352431,
				"y": 0.0436828893,
				"z": -1.5773453136,
				"element": "C" 
			},
			{
				"x": 0.5171289823,
				"y": 1.2583035839,
				"z": -1.4970968558,
				"element": "N" 
			},
			{
				"x": 1.5677624161,
				"y": 1.3466276396,
				"z": -0.6605526302,
				"element": "C" 
			},
			{
				"x": 2.0566330326,
				"y": 0.2750505352,
				"z": 0.0651944786,
				"element": "C" 
			},
			{
				"x": 2.3856493359,
				"y": -2.0365634384,
				"z": 1.3376942287,
				"element": "H" 
			},
			{
				"x": 1.1541226443,
				"y": -2.8794632963,
				"z": 0.4794788397,
				"element": "H" 
			},
			{
				"x": -0.8846052976,
				"y": -0.0580194211,
				"z": -2.2458826273,
				"element": "H" 
			},
			{
				"x": 2.0342299333,
				"y": 2.326764624,
				"z": -0.5737253004,
				"element": "H" 
			},
			{
				"x": 2.9099788028,
				"y": 0.3769545073,
				"z": 0.7280758355,
				"element": "H" 
			}
		],
		 "valence_orbital": [ 
			{
				"type": "occ",
				"energy": -0.34813,
				"method": "rhf"
			},
			{
				"type": "occ",
				"energy": -0.29041,
				"method": "rhf"
			},
			{
				"type": "occ",
				"energy": -0.28832,
				"method": "rhf"
			},
			{
				"type": "occ",
				"energy": -0.24617,
				"method": "rhf"
			},
			{
				"type": "occ",
				"energy": -0.23659,
				"method": "rhf"
			},
			{
				"type": "unocc",
				"energy": -0.02013,
				"method": "rhf"
			},
			{
				"type": "unocc",
				"energy": -0.0044,
				"method": "rhf"
			},
			{
				"type": "unocc",
				"energy": 0.07573,
				"method": "rhf"
			},
			{
				"type": "unocc",
				"energy": 0.11018,
				"method": "rhf"
			},
			{
				"type": "unocc",
				"energy": 0.13496,
				"method": "rhf"
			}
		],
		"cosmo_sigma_profile": { 
			"-0.025": 0.0,
			"-0.024": 0.0,
			"-0.023": 0.0,
			"-0.022": 0.0,
			"-0.021": 0.0,
			"-0.02": 0.0,
			"-0.019": 0.0,
			"-0.018": 0.0,
			"-0.017": 0.0,
			"-0.016": 0.0,
			"-0.015": 0.172216399484,
			"-0.014": 1.39845807825,
			"-0.013": 2.79630600113,
			"-0.012": 2.2827081223,
			"-0.011": 2.43885262268,
			"-0.01": 2.52554392947,
			"-0.009": 2.83803946683,
			"-0.008": 2.80694656194,
			"-0.007": 5.38837306423,
			"-0.006": 6.95525145794,
			"-0.005": 6.60378957247,
			"-0.004": 5.15251417843,
			"-0.003": 5.4790002799,
			"-0.002": 5.38612437593,
			"-0.001": 5.03930659459,
			"0.0": 7.64490869065,
			"0.001": 12.093280131,
			"0.002": 10.2987976248,
			"0.003": 6.8777623808,
			"0.004": 5.35841147338,
			"0.005": 4.30192318221,
			"0.006": 3.33012256408,
			"0.007": 3.00515760753,
			"0.008": 2.69965955568,
			"0.009": 3.62339121512,
			"0.01": 2.01036488567,
			"0.011": 2.06037438079,
			"0.012": 1.32384517482,
			"0.013": 1.98352715915,
			"0.014": 1.67605788293,
			"0.015": 1.51292460045,
			"0.016": 0.97240854428,
			"0.017": 0.632647566125,
			"0.018": 0.043225557981,
			"0.019": 0.0,
			"0.02": 0.0,
			"0.021": 0.0,
			"0.022": 0.0,
			"0.023": 0.0,
			"0.024": 0.0,
			"0.025": 0.0
		}
	}
}
