{
	 "smiles": "OCCC1=C(C=CC=C1)N(=O)=O", 
	 "Tm": 275.15, 
	 "num_atms": 21, 
	 "gaussian": { 
		 "optdone": 1, 
		 "sigma_profile": "yes", 
		 "theory": "DFT", 
		 "functional": "B3LYP", 
		 "basiset": "6-31G**", 
		 "properties": { 
			 "R2extent": 2508.4931, 
			 "electric_dipole_moment_norm": 3.55628746167, 
			 "electric_quadrupole_moment_norm": 9.45608373694, 
			 "total_energy": -590.588715435, 
			 "HOMO_LUMO_gap": 0.16953, 
			 "cosmo_polarized_energy": -11.25, 
			 "cosmo_cavitation_energy": 25.14, 
			 "cosmo_dispersion_energy": -18.28, 
			 "cosmo_repulsion_energy": 1.46, 
			 "cosmo_total_nonelectrostatic_energy": 8.32, 
			 "SMD_solvation_energy": 6.19 
		},
		"coords": [
			{
				"x": -3.2373632956,
				"y": -1.9734428061,
				"z": 1.450968417,
				"element": "O" 
			},
			{
				"x": -1.8859535585,
				"y": -1.5618933147,
				"z": 1.3342288333,
				"element": "C" 
			},
			{
				"x": -1.6323873264,
				"y": -0.805184436,
				"z": 0.0130656428,
				"element": "C" 
			},
			{
				"x": -0.2015371396,
				"y": -0.3355414796,
				"z": -0.122644866,
				"element": "C" 
			},
			{
				"x": 0.8597513318,
				"y": -1.0626767539,
				"z": -0.6980553696,
				"element": "C" 
			},
			{
				"x": 2.1579653846,
				"y": -0.5506585986,
				"z": -0.7903316291,
				"element": "C" 
			},
			{
				"x": 2.4430953358,
				"y": 0.7073819152,
				"z": -0.2756540053,
				"element": "C" 
			},
			{
				"x": 1.4177014997,
				"y": 1.4553858109,
				"z": 0.3070264178,
				"element": "C" 
			},
			{
				"x": 0.1259049901,
				"y": 0.9390947112,
				"z": 0.3688213662,
				"element": "C" 
			},
			{
				"x": 0.6672840655,
				"y": -2.4119104706,
				"z": -1.2614463407,
				"element": "N" 
			},
			{
				"x": -0.2904842199,
				"y": -3.0842890743,
				"z": -0.8711379813,
				"element": "O" 
			},
			{
				"x": 1.4882094666,
				"y": -2.8049091935,
				"z": -2.0891750762,
				"element": "O" 
			},
			{
				"x": -3.3766062921,
				"y": -2.694506286,
				"z": 0.8232490025,
				"element": "H" 
			},
			{
				"x": -1.1917999223,
				"y": -2.4080860792,
				"z": 1.4095060946,
				"element": "H" 
			},
			{
				"x": -1.6965156062,
				"y": -0.8948905225,
				"z": 2.18200163,
				"element": "H" 
			},
			{
				"x": -1.9113037632,
				"y": -1.4561092194,
				"z": -0.8178211597,
				"element": "H" 
			},
			{
				"x": -2.2928422888,
				"y": 0.0678687566,
				"z": -0.0085335416,
				"element": "H" 
			},
			{
				"x": 2.9203639655,
				"y": -1.1558692589,
				"z": -1.2641011707,
				"element": "H" 
			},
			{
				"x": 3.4527025643,
				"y": 1.1008816538,
				"z": -0.3336568703,
				"element": "H" 
			},
			{
				"x": 1.6218208045,
				"y": 2.4441925842,
				"z": 0.7069366948,
				"element": "H" 
			},
			{
				"x": -0.6687059958,
				"y": 1.5373620613,
				"z": 0.8059539114,
				"element": "H" 
			}
		],
		 "valence_orbital": [ 
			{
				"type": "occ",
				"energy": -0.30916,
				"method": "rhf"
			},
			{
				"type": "occ",
				"energy": -0.29761,
				"method": "rhf"
			},
			{
				"type": "occ",
				"energy": -0.2831,
				"method": "rhf"
			},
			{
				"type": "occ",
				"energy": -0.27785,
				"method": "rhf"
			},
			{
				"type": "occ",
				"energy": -0.25937,
				"method": "rhf"
			},
			{
				"type": "unocc",
				"energy": -0.08984,
				"method": "rhf"
			},
			{
				"type": "unocc",
				"energy": -0.02833,
				"method": "rhf"
			},
			{
				"type": "unocc",
				"energy": -0.00676,
				"method": "rhf"
			},
			{
				"type": "unocc",
				"energy": 0.0749,
				"method": "rhf"
			},
			{
				"type": "unocc",
				"energy": 0.08141,
				"method": "rhf"
			}
		],
		"cosmo_sigma_profile": { 
			"-0.025": 0.0,
			"-0.024": 0.0,
			"-0.023": 0.0,
			"-0.022": 0.0,
			"-0.021": 0.0,
			"-0.02": 0.0,
			"-0.019": 0.0,
			"-0.018": 0.0,
			"-0.017": 0.0,
			"-0.016": 0.2177645623,
			"-0.015": 0.74545834929,
			"-0.014": 1.10701929329,
			"-0.013": 0.740329285911,
			"-0.012": 0.718591127423,
			"-0.011": 0.427896208601,
			"-0.01": 0.775389961136,
			"-0.009": 1.33816647458,
			"-0.008": 0.958831050911,
			"-0.007": 7.85296319136,
			"-0.006": 12.7889990678,
			"-0.005": 14.4554346569,
			"-0.004": 15.4271420455,
			"-0.003": 14.2745877913,
			"-0.002": 15.822734216,
			"-0.001": 15.6569837162,
			"0.0": 12.3785120422,
			"0.001": 14.5523632462,
			"0.002": 14.4396923552,
			"0.003": 10.6339385063,
			"0.004": 4.45829952765,
			"0.005": 3.49950519326,
			"0.006": 4.33091601109,
			"0.007": 6.27092287649,
			"0.008": 7.76847063407,
			"0.009": 5.84639473264,
			"0.01": 4.60263579362,
			"0.011": 0.927392731506,
			"0.012": 1.5631082091,
			"0.013": 2.01171249871,
			"0.014": 2.21255878254,
			"0.015": 0.53246859395,
			"0.016": 0.0,
			"0.017": 0.0,
			"0.018": 0.0,
			"0.019": 0.0,
			"0.02": 0.0,
			"0.021": 0.0,
			"0.022": 0.0,
			"0.023": 0.0,
			"0.024": 0.0,
			"0.025": 0.0
		}
	}
}
