{
	 "smiles": "COC1=CC(=CC=C1O)C1NN2C(S1)=NN=C2C1=CC=CC=C1", 
	 "Tm": 422.15, 
	 "num_atms": 37, 
	 "gaussian": { 
		 "optdone": 1, 
		 "sigma_profile": "yes", 
		 "theory": "DFT", 
		 "functional": "B3LYP", 
		 "basiset": "6-31G**", 
		 "properties": { 
			 "R2extent": 10826.5911, 
			 "electric_dipole_moment_norm": 7.92637397616, 
			 "electric_quadrupole_moment_norm": 31.4634879233, 
			 "total_energy": -1385.68188848, 
			 "HOMO_LUMO_gap": 0.17773, 
			 "cosmo_polarized_energy": -27.37, 
			 "cosmo_cavitation_energy": 43.25, 
			 "cosmo_dispersion_energy": -31.39, 
			 "cosmo_repulsion_energy": 2.33, 
			 "cosmo_total_nonelectrostatic_energy": 14.2, 
			 "SMD_solvation_energy": 5.14 
		},
		"coords": [
			{
				"x": 1.5905535732,
				"y": 5.3633724072,
				"z": 1.0366107192,
				"element": "C" 
			},
			{
				"x": 0.4539598254,
				"y": 4.509003438,
				"z": 0.8648815334,
				"element": "O" 
			},
			{
				"x": 0.2211584412,
				"y": 3.6000840757,
				"z": 1.8624834742,
				"element": "C" 
			},
			{
				"x": 0.2975633352,
				"y": 2.243980716,
				"z": 1.5646516938,
				"element": "C" 
			},
			{
				"x": -0.0095614048,
				"y": 1.2704793826,
				"z": 2.5270204617,
				"element": "C" 
			},
			{
				"x": -0.38207803,
				"y": 1.6788928645,
				"z": 3.8100960314,
				"element": "C" 
			},
			{
				"x": -0.4539985195,
				"y": 3.0359294933,
				"z": 4.1245808252,
				"element": "C" 
			},
			{
				"x": -0.1647892487,
				"y": 4.00364985,
				"z": 3.1608858661,
				"element": "C" 
			},
			{
				"x": -0.2515841899,
				"y": 5.3422935255,
				"z": 3.4067841354,
				"element": "O" 
			},
			{
				"x": 0.0846463363,
				"y": -0.1924345812,
				"z": 2.2072207168,
				"element": "C" 
			},
			{
				"x": -0.4873066472,
				"y": -0.5070473963,
				"z": 0.8659766282,
				"element": "N" 
			},
			{
				"x": 0.0478638075,
				"y": -1.7765038594,
				"z": 0.5190702971,
				"element": "N" 
			},
			{
				"x": 1.264129358,
				"y": -2.0927834527,
				"z": 1.040525497,
				"element": "C" 
			},
			{
				"x": 1.8536983777,
				"y": -0.8349376203,
				"z": 2.1256729077,
				"element": "S" 
			},
			{
				"x": 1.7133206111,
				"y": -3.2205484096,
				"z": 0.544288204,
				"element": "N" 
			},
			{
				"x": 0.7552417772,
				"y": -3.6493883122,
				"z": -0.3538990601,
				"element": "N" 
			},
			{
				"x": -0.2383096587,
				"y": -2.7703975476,
				"z": -0.38718359,
				"element": "C" 
			},
			{
				"x": -1.4489950032,
				"y": -2.8731993974,
				"z": -1.2036787267,
				"element": "C" 
			},
			{
				"x": -2.2097758546,
				"y": -1.7444817945,
				"z": -1.5520260199,
				"element": "C" 
			},
			{
				"x": -3.3562277577,
				"y": -1.8848592985,
				"z": -2.3348743055,
				"element": "C" 
			},
			{
				"x": -3.7497871166,
				"y": -3.1451251953,
				"z": -2.7859823651,
				"element": "C" 
			},
			{
				"x": -2.9856236188,
				"y": -4.268980957,
				"z": -2.4566562644,
				"element": "C" 
			},
			{
				"x": -1.8449654995,
				"y": -4.1385593548,
				"z": -1.6704413373,
				"element": "C" 
			},
			{
				"x": 1.4779304534,
				"y": 6.0138825602,
				"z": 1.9084076334,
				"element": "H" 
			},
			{
				"x": 1.6476487735,
				"y": 5.9714145023,
				"z": 0.131962305,
				"element": "H" 
			},
			{
				"x": 2.5100772456,
				"y": 4.7724587916,
				"z": 1.1332181164,
				"element": "H" 
			},
			{
				"x": 0.5844770235,
				"y": 1.9529548197,
				"z": 0.5605004482,
				"element": "H" 
			},
			{
				"x": -0.6202728619,
				"y": 0.9405612722,
				"z": 4.5708237311,
				"element": "H" 
			},
			{
				"x": -0.7533589174,
				"y": 3.3484764055,
				"z": 5.1227941131,
				"element": "H" 
			},
			{
				"x": -0.5287888388,
				"y": 5.4790478133,
				"z": 4.3222347304,
				"element": "H" 
			},
			{
				"x": -0.4045883265,
				"y": -0.7844102394,
				"z": 2.9916886975,
				"element": "H" 
			},
			{
				"x": -1.4965587088,
				"y": -0.6190616869,
				"z": 0.9710031308,
				"element": "H" 
			},
			{
				"x": -1.8856833657,
				"y": -0.7534000192,
				"z": -1.248804589,
				"element": "H" 
			},
			{
				"x": -3.9341172888,
				"y": -1.0048112179,
				"z": -2.6019106046,
				"element": "H" 
			},
			{
				"x": -4.6421889941,
				"y": -3.2517060752,
				"z": -3.3957084005,
				"element": "H" 
			},
			{
				"x": -3.283647035,
				"y": -5.2516038343,
				"z": -2.8106826709,
				"element": "H" 
			},
			{
				"x": -1.2435620525,
				"y": -5.0016416678,
				"z": -1.406533963,
				"element": "H" 
			}
		],
		 "valence_orbital": [ 
			{
				"type": "occ",
				"energy": -0.25658,
				"method": "rhf"
			},
			{
				"type": "occ",
				"energy": -0.24861,
				"method": "rhf"
			},
			{
				"type": "occ",
				"energy": -0.24332,
				"method": "rhf"
			},
			{
				"type": "occ",
				"energy": -0.23376,
				"method": "rhf"
			},
			{
				"type": "occ",
				"energy": -0.21425,
				"method": "rhf"
			},
			{
				"type": "unocc",
				"energy": -0.03652,
				"method": "rhf"
			},
			{
				"type": "unocc",
				"energy": -0.02838,
				"method": "rhf"
			},
			{
				"type": "unocc",
				"energy": -0.01648,
				"method": "rhf"
			},
			{
				"type": "unocc",
				"energy": -0.01017,
				"method": "rhf"
			},
			{
				"type": "unocc",
				"energy": 0.00446,
				"method": "rhf"
			}
		],
		"cosmo_sigma_profile": { 
			"-0.025": 0.0,
			"-0.024": 0.0,
			"-0.023": 0.0,
			"-0.022": 0.0,
			"-0.021": 0.0,
			"-0.02": 0.0,
			"-0.019": 0.0554602077818,
			"-0.018": 1.07293763953,
			"-0.017": 0.961491683852,
			"-0.016": 1.73860197984,
			"-0.015": 2.26650728154,
			"-0.014": 2.4617700193,
			"-0.013": 2.59581772775,
			"-0.012": 2.14105028099,
			"-0.011": 2.21930489223,
			"-0.01": 2.83673088279,
			"-0.009": 4.50655089622,
			"-0.008": 6.68778048671,
			"-0.007": 6.61277077266,
			"-0.006": 15.0321661018,
			"-0.005": 20.5206988022,
			"-0.004": 21.9726507414,
			"-0.003": 22.7727176339,
			"-0.002": 22.9447424641,
			"-0.001": 22.7143702872,
			"0.0": 20.034080211,
			"0.001": 24.2369378279,
			"0.002": 26.5772600185,
			"0.003": 29.3992179434,
			"0.004": 27.2506502164,
			"0.005": 13.7898130266,
			"0.006": 7.30651498978,
			"0.007": 4.85900054944,
			"0.008": 4.38651663097,
			"0.009": 4.43038888459,
			"0.01": 4.95472618286,
			"0.011": 4.0015276157,
			"0.012": 4.14196310757,
			"0.013": 3.6961264618,
			"0.014": 2.4763848391,
			"0.015": 3.13542403173,
			"0.016": 1.60171734189,
			"0.017": 0.283514366023,
			"0.018": 0.0,
			"0.019": 0.0,
			"0.02": 0.0,
			"0.021": 0.0,
			"0.022": 0.0,
			"0.023": 0.0,
			"0.024": 0.0,
			"0.025": 0.0
		}
	}
}
