{
	 "smiles": "CC1(C(=O)NC(=O)NC1=O)C1=CC=CC=C1", 
	 "Tm": 497.4, 
	 "num_atms": 26, 
	 "gaussian": { 
		 "optdone": 1, 
		 "sigma_profile": "yes", 
		 "theory": "DFT", 
		 "functional": "B3LYP", 
		 "basiset": "6-31G**", 
		 "properties": { 
			 "R2extent": 3225.108, 
			 "electric_dipole_moment_norm": 1.49317054954, 
			 "electric_quadrupole_moment_norm": 10.4213394317, 
			 "total_energy": -760.424737889, 
			 "HOMO_LUMO_gap": 0.20297, 
			 "cosmo_polarized_energy": -15.36, 
			 "cosmo_cavitation_energy": 29.96, 
			 "cosmo_dispersion_energy": -21.36, 
			 "cosmo_repulsion_energy": 1.66, 
			 "cosmo_total_nonelectrostatic_energy": 10.26, 
			 "SMD_solvation_energy": 7.14 
		},
		"coords": [
			{
				"x": -1.9848910905,
				"y": -1.1314058789,
				"z": -1.0178676512,
				"element": "C" 
			},
			{
				"x": -0.799198777,
				"y": -0.3125155178,
				"z": -0.4691090639,
				"element": "C" 
			},
			{
				"x": -0.4387842253,
				"y": 0.7986470517,
				"z": -1.466593582,
				"element": "C" 
			},
			{
				"x": -1.2594421975,
				"y": 1.3604124422,
				"z": -2.1664613247,
				"element": "O" 
			},
			{
				"x": 0.8920984054,
				"y": 1.1989330773,
				"z": -1.4834700389,
				"element": "N" 
			},
			{
				"x": 1.984900696,
				"y": 0.5187639021,
				"z": -0.9576523391,
				"element": "C" 
			},
			{
				"x": 3.1263151143,
				"y": 0.9147084188,
				"z": -1.0681622909,
				"element": "O" 
			},
			{
				"x": 1.6546615409,
				"y": -0.6776075049,
				"z": -0.330766702,
				"element": "N" 
			},
			{
				"x": 0.3923575205,
				"y": -1.2466330741,
				"z": -0.2101279398,
				"element": "C" 
			},
			{
				"x": 0.2699437299,
				"y": -2.4030628032,
				"z": 0.1456230231,
				"element": "O" 
			},
			{
				"x": -1.1980028429,
				"y": 0.355055665,
				"z": 0.8810493759,
				"element": "C" 
			},
			{
				"x": -1.0211519203,
				"y": -0.3262667831,
				"z": 2.0942116316,
				"element": "C" 
			},
			{
				"x": -1.4322647196,
				"y": 0.2493412773,
				"z": 3.2971680165,
				"element": "C" 
			},
			{
				"x": -2.0293136847,
				"y": 1.5097098252,
				"z": 3.3100465969,
				"element": "C" 
			},
			{
				"x": -2.2213182219,
				"y": 2.1869556345,
				"z": 2.1060260886,
				"element": "C" 
			},
			{
				"x": -1.8120040135,
				"y": 1.6159691023,
				"z": 0.9002610279,
				"element": "C" 
			},
			{
				"x": -2.8358247162,
				"y": -0.4702935456,
				"z": -1.1827907071,
				"element": "H" 
			},
			{
				"x": -1.7255395573,
				"y": -1.6092237349,
				"z": -1.9671862389,
				"element": "H" 
			},
			{
				"x": -2.252065894,
				"y": -1.9071558993,
				"z": -0.3000974641,
				"element": "H" 
			},
			{
				"x": 1.1179759027,
				"y": 1.9994794994,
				"z": -2.0623149735,
				"element": "H" 
			},
			{
				"x": 2.4413143253,
				"y": -1.2570642575,
				"z": -0.0617700474,
				"element": "H" 
			},
			{
				"x": -0.5748200399,
				"y": -1.314377384,
				"z": 2.1044465211,
				"element": "H" 
			},
			{
				"x": -1.2841530029,
				"y": -0.294813923,
				"z": 4.2254606035,
				"element": "H" 
			},
			{
				"x": -2.3459446912,
				"y": 1.957118482,
				"z": 4.2475667291,
				"element": "H" 
			},
			{
				"x": -2.6931607954,
				"y": 3.165260468,
				"z": 2.0984179975,
				"element": "H" 
			},
			{
				"x": -1.985986845,
				"y": 2.1517654604,
				"z": -0.0262072482,
				"element": "H" 
			}
		],
		 "valence_orbital": [ 
			{
				"type": "occ",
				"energy": -0.30582,
				"method": "rhf"
			},
			{
				"type": "occ",
				"energy": -0.30032,
				"method": "rhf"
			},
			{
				"type": "occ",
				"energy": -0.27073,
				"method": "rhf"
			},
			{
				"type": "occ",
				"energy": -0.26086,
				"method": "rhf"
			},
			{
				"type": "occ",
				"energy": -0.25784,
				"method": "rhf"
			},
			{
				"type": "unocc",
				"energy": -0.05487,
				"method": "rhf"
			},
			{
				"type": "unocc",
				"energy": -0.01844,
				"method": "rhf"
			},
			{
				"type": "unocc",
				"energy": -0.015,
				"method": "rhf"
			},
			{
				"type": "unocc",
				"energy": -0.00195,
				"method": "rhf"
			},
			{
				"type": "unocc",
				"energy": 0.04838,
				"method": "rhf"
			}
		],
		"cosmo_sigma_profile": { 
			"-0.025": 0.0,
			"-0.024": 0.0,
			"-0.023": 0.0,
			"-0.022": 0.0,
			"-0.021": 0.0,
			"-0.02": 0.0,
			"-0.019": 0.0,
			"-0.018": 0.0,
			"-0.017": 0.51133118658,
			"-0.016": 2.12233701817,
			"-0.015": 1.8965298749,
			"-0.014": 1.85440389231,
			"-0.013": 1.4738691851,
			"-0.012": 1.48750486232,
			"-0.011": 1.82179519271,
			"-0.01": 2.49867319173,
			"-0.009": 2.5384167954,
			"-0.008": 2.88905683076,
			"-0.007": 3.2314330132,
			"-0.006": 10.237140245,
			"-0.005": 16.0510389745,
			"-0.004": 18.8491197479,
			"-0.003": 17.9975157593,
			"-0.002": 19.108601228,
			"-0.001": 19.0041016276,
			"0.0": 14.548537995,
			"0.001": 12.7388692244,
			"0.002": 11.3483754737,
			"0.003": 10.0673168496,
			"0.004": 12.7225249822,
			"0.005": 11.4235089502,
			"0.006": 4.75102144594,
			"0.007": 3.32590172295,
			"0.008": 4.2634580314,
			"0.009": 4.7598144754,
			"0.01": 7.39667353877,
			"0.011": 14.1256864148,
			"0.012": 3.61453142016,
			"0.013": 0.0,
			"0.014": 0.0,
			"0.015": 0.0,
			"0.016": 0.0,
			"0.017": 0.0,
			"0.018": 0.0,
			"0.019": 0.0,
			"0.02": 0.0,
			"0.021": 0.0,
			"0.022": 0.0,
			"0.023": 0.0,
			"0.024": 0.0,
			"0.025": 0.0
		}
	}
}
