{
	 "smiles": "CCC1=CC=C(C=C1)C(C)(C)C(O)=O", 
	 "Tm": 326.15, 
	 "num_atms": 30, 
	 "gaussian": { 
		 "optdone": 1, 
		 "sigma_profile": "yes", 
		 "theory": "DFT", 
		 "functional": "B3LYP", 
		 "basiset": "6-31G**", 
		 "properties": { 
			 "R2extent": 4482.8435, 
			 "electric_dipole_moment_norm": 4.81584048012, 
			 "electric_quadrupole_moment_norm": 23.1824634362, 
			 "total_energy": -617.395988089, 
			 "HOMO_LUMO_gap": 0.22583, 
			 "cosmo_polarized_energy": -11.75, 
			 "cosmo_cavitation_energy": 32.09, 
			 "cosmo_dispersion_energy": -22.29, 
			 "cosmo_repulsion_energy": 1.76, 
			 "cosmo_total_nonelectrostatic_energy": 11.56, 
			 "SMD_solvation_energy": 6.5 
		},
		"coords": [
			{
				"x": 3.5836463209,
				"y": 2.5236519916,
				"z": 0.1434250428,
				"element": "C" 
			},
			{
				"x": 3.3620155334,
				"y": 1.0893864083,
				"z": -0.3706230606,
				"element": "C" 
			},
			{
				"x": 2.1568691969,
				"y": 0.4215425642,
				"z": 0.2557625004,
				"element": "C" 
			},
			{
				"x": 2.2605620055,
				"y": -0.2594967652,
				"z": 1.4779011591,
				"element": "C" 
			},
			{
				"x": 1.146233492,
				"y": -0.8402228031,
				"z": 2.0754568799,
				"element": "C" 
			},
			{
				"x": -0.1260097615,
				"y": -0.7697712218,
				"z": 1.4774143894,
				"element": "C" 
			},
			{
				"x": -0.2252225965,
				"y": -0.0974186258,
				"z": 0.2517198424,
				"element": "C" 
			},
			{
				"x": 0.8955519661,
				"y": 0.4873154904,
				"z": -0.3439615921,
				"element": "C" 
			},
			{
				"x": -1.3287948129,
				"y": -1.4068897648,
				"z": 2.1896296308,
				"element": "C" 
			},
			{
				"x": -1.6060125777,
				"y": -0.6826542676,
				"z": 3.5228764973,
				"element": "C" 
			},
			{
				"x": -2.6186224184,
				"y": -1.3885136471,
				"z": 1.3339909479,
				"element": "C" 
			},
			{
				"x": -1.0542209579,
				"y": -2.9044296417,
				"z": 2.4833110889,
				"element": "C" 
			},
			{
				"x": -0.3917807915,
				"y": -3.5866600306,
				"z": 1.5158831892,
				"element": "O" 
			},
			{
				"x": -1.454445825,
				"y": -3.4798112299,
				"z": 3.4657147568,
				"element": "O" 
			},
			{
				"x": 3.7358499122,
				"y": 2.5332710575,
				"z": 1.2275445805,
				"element": "H" 
			},
			{
				"x": 2.7176485022,
				"y": 3.1567390008,
				"z": -0.0751429564,
				"element": "H" 
			},
			{
				"x": 4.4630047705,
				"y": 2.9756700588,
				"z": -0.326865991,
				"element": "H" 
			},
			{
				"x": 3.242659413,
				"y": 1.1104622681,
				"z": -1.4602530583,
				"element": "H" 
			},
			{
				"x": 4.2581506953,
				"y": 0.4911024454,
				"z": -0.166753482,
				"element": "H" 
			},
			{
				"x": 3.2294421805,
				"y": -0.340076966,
				"z": 1.9651365844,
				"element": "H" 
			},
			{
				"x": 1.2672438772,
				"y": -1.3665483203,
				"z": 3.0191684961,
				"element": "H" 
			},
			{
				"x": -1.1815062453,
				"y": -0.0203055576,
				"z": -0.2540493744,
				"element": "H" 
			},
			{
				"x": 0.7825892227,
				"y": 1.0002580986,
				"z": -1.2962819919,
				"element": "H" 
			},
			{
				"x": -2.4205263831,
				"y": -1.1767297805,
				"z": 4.0564535771,
				"element": "H" 
			},
			{
				"x": -0.7282192058,
				"y": -0.690755471,
				"z": 4.1737117406,
				"element": "H" 
			},
			{
				"x": -1.8789815085,
				"y": 0.3591988175,
				"z": 3.3302583425,
				"element": "H" 
			},
			{
				"x": -2.4862322271,
				"y": -1.9006192654,
				"z": 0.3759583149,
				"element": "H" 
			},
			{
				"x": -3.422639374,
				"y": -1.8918805573,
				"z": 1.8771886746,
				"element": "H" 
			},
			{
				"x": -2.9372315881,
				"y": -0.3606308135,
				"z": 1.1364452672,
				"element": "H" 
			},
			{
				"x": -0.0578208151,
				"y": -2.959183472,
				"z": 0.854980004,
				"element": "H" 
			}
		],
		 "valence_orbital": [ 
			{
				"type": "occ",
				"energy": -0.33365,
				"method": "rhf"
			},
			{
				"type": "occ",
				"energy": -0.30736,
				"method": "rhf"
			},
			{
				"type": "occ",
				"energy": -0.26852,
				"method": "rhf"
			},
			{
				"type": "occ",
				"energy": -0.26174,
				"method": "rhf"
			},
			{
				"type": "occ",
				"energy": -0.24372,
				"method": "rhf"
			},
			{
				"type": "unocc",
				"energy": -0.01789,
				"method": "rhf"
			},
			{
				"type": "unocc",
				"energy": -0.01411,
				"method": "rhf"
			},
			{
				"type": "unocc",
				"energy": 0.0151,
				"method": "rhf"
			},
			{
				"type": "unocc",
				"energy": 0.07626,
				"method": "rhf"
			},
			{
				"type": "unocc",
				"energy": 0.08815,
				"method": "rhf"
			}
		],
		"cosmo_sigma_profile": { 
			"-0.025": 0.0,
			"-0.024": 0.0,
			"-0.023": 0.0,
			"-0.022": 0.0,
			"-0.021": 0.0,
			"-0.02": 0.0,
			"-0.019": 0.0,
			"-0.018": 0.0,
			"-0.017": 0.0,
			"-0.016": 0.0,
			"-0.015": 0.261884400865,
			"-0.014": 0.433085276085,
			"-0.013": 0.34474738168,
			"-0.012": 0.757169618597,
			"-0.011": 1.09743752736,
			"-0.01": 1.43068926043,
			"-0.009": 0.929276699315,
			"-0.008": 1.23629698957,
			"-0.007": 2.46361345639,
			"-0.006": 5.32251991552,
			"-0.005": 12.5145918912,
			"-0.004": 22.706250625,
			"-0.003": 27.47295445,
			"-0.002": 28.2093173828,
			"-0.001": 29.1986955931,
			"0.0": 29.5618968922,
			"0.001": 20.6279153378,
			"0.002": 11.0851237078,
			"0.003": 8.72731059722,
			"0.004": 8.71583317443,
			"0.005": 7.66998508001,
			"0.006": 4.53926048022,
			"0.007": 2.66797229132,
			"0.008": 2.34157761649,
			"0.009": 3.34077958551,
			"0.01": 4.40751466747,
			"0.011": 5.29408636472,
			"0.012": 5.61326470926,
			"0.013": 2.06474237515,
			"0.014": 0.167145574464,
			"0.015": 0.0,
			"0.016": 0.0,
			"0.017": 0.0,
			"0.018": 0.0,
			"0.019": 0.0,
			"0.02": 0.0,
			"0.021": 0.0,
			"0.022": 0.0,
			"0.023": 0.0,
			"0.024": 0.0,
			"0.025": 0.0
		}
	}
}
