{
	 "smiles": "ClC1=CC=C(C=C1)C1=CC2=C(S1)C(Cl)=NC=N2", 
	 "Tm": 462.15, 
	 "num_atms": 23, 
	 "gaussian": { 
		 "optdone": 1, 
		 "sigma_profile": "yes", 
		 "theory": "DFT", 
		 "functional": "B3LYP", 
		 "basiset": "6-31G**", 
		 "properties": { 
			 "R2extent": 7759.1531, 
			 "electric_dipole_moment_norm": 2.34249993383, 
			 "electric_quadrupole_moment_norm": 11.6217589615, 
			 "total_energy": -1888.96972687, 
			 "HOMO_LUMO_gap": 0.16165, 
			 "cosmo_polarized_energy": -8.67, 
			 "cosmo_cavitation_energy": 33.41, 
			 "cosmo_dispersion_energy": -25.47, 
			 "cosmo_repulsion_energy": 1.9, 
			 "cosmo_total_nonelectrostatic_energy": 9.83, 
			 "SMD_solvation_energy": 1.51 
		},
		"coords": [
			{
				"x": -4.2284892881,
				"y": 3.2736078978,
				"z": 3.4678736186,
				"element": "Cl" 
			},
			{
				"x": -3.1038760828,
				"y": 2.3387807514,
				"z": 2.5012523118,
				"element": "C" 
			},
			{
				"x": -3.1111733559,
				"y": 2.4758832355,
				"z": 1.1122223701,
				"element": "C" 
			},
			{
				"x": -2.2135378128,
				"y": 1.735254534,
				"z": 0.3500468158,
				"element": "C" 
			},
			{
				"x": -1.307057201,
				"y": 0.8458993293,
				"z": 0.9555949248,
				"element": "C" 
			},
			{
				"x": -1.3216831981,
				"y": 0.7308889484,
				"z": 2.3565697224,
				"element": "C" 
			},
			{
				"x": -2.2112689319,
				"y": 1.471115779,
				"z": 3.130310097,
				"element": "C" 
			},
			{
				"x": -0.3803223238,
				"y": 0.0623642617,
				"z": 0.1295244934,
				"element": "C" 
			},
			{
				"x": -0.5506979115,
				"y": -0.3450069617,
				"z": -1.1665685574,
				"element": "C" 
			},
			{
				"x": 0.5603635285,
				"y": -1.0938788593,
				"z": -1.6711124682,
				"element": "C" 
			},
			{
				"x": 1.5838817883,
				"y": -1.2408836937,
				"z": -0.7004998367,
				"element": "C" 
			},
			{
				"x": 1.1790184848,
				"y": -0.4536712586,
				"z": 0.7973884554,
				"element": "S" 
			},
			{
				"x": 2.7117707142,
				"y": -1.9621863782,
				"z": -1.0903084088,
				"element": "C" 
			},
			{
				"x": 4.0337882116,
				"y": -2.1993127541,
				"z": 0.0371930527,
				"element": "Cl" 
			},
			{
				"x": 2.8244496295,
				"y": -2.4815167683,
				"z": -2.2947122524,
				"element": "N" 
			},
			{
				"x": 1.7915232587,
				"y": -2.2860949925,
				"z": -3.1434198427,
				"element": "C" 
			},
			{
				"x": 0.6660756519,
				"y": -1.6257389127,
				"z": -2.9062407407,
				"element": "N" 
			},
			{
				"x": -3.8030786173,
				"y": 3.1623147093,
				"z": 0.6372325653,
				"element": "H" 
			},
			{
				"x": -2.2011042853,
				"y": 1.8651572017,
				"z": -0.7271415214,
				"element": "H" 
			},
			{
				"x": -0.6461978053,
				"y": 0.0389896221,
				"z": 2.8507132817,
				"element": "H" 
			},
			{
				"x": -2.2187011281,
				"y": 1.371085731,
				"z": 4.209804465,
				"element": "H" 
			},
			{
				"x": -1.4416271989,
				"y": -0.1594934892,
				"z": -1.7528499197,
				"element": "H" 
			},
			{
				"x": 1.9073438734,
				"y": -2.7255579329,
				"z": -4.1309726259,
				"element": "H" 
			}
		],
		 "valence_orbital": [ 
			{
				"type": "occ",
				"energy": -0.29269,
				"method": "rhf"
			},
			{
				"type": "occ",
				"energy": -0.28321,
				"method": "rhf"
			},
			{
				"type": "occ",
				"energy": -0.27221,
				"method": "rhf"
			},
			{
				"type": "occ",
				"energy": -0.26,
				"method": "rhf"
			},
			{
				"type": "occ",
				"energy": -0.24421,
				"method": "rhf"
			},
			{
				"type": "unocc",
				"energy": -0.08256,
				"method": "rhf"
			},
			{
				"type": "unocc",
				"energy": -0.04049,
				"method": "rhf"
			},
			{
				"type": "unocc",
				"energy": -0.0344,
				"method": "rhf"
			},
			{
				"type": "unocc",
				"energy": -0.02345,
				"method": "rhf"
			},
			{
				"type": "unocc",
				"energy": -0.00445,
				"method": "rhf"
			}
		],
		"cosmo_sigma_profile": { 
			"-0.025": 0.0,
			"-0.024": 0.0,
			"-0.023": 0.0,
			"-0.022": 0.0,
			"-0.021": 0.0,
			"-0.02": 0.0,
			"-0.019": 0.0,
			"-0.018": 0.0,
			"-0.017": 0.0,
			"-0.016": 0.0,
			"-0.015": 0.0,
			"-0.014": 0.0,
			"-0.013": 0.0,
			"-0.012": 0.0,
			"-0.011": 0.0,
			"-0.01": 0.0,
			"-0.009": 1.16624764593,
			"-0.008": 7.39150635861,
			"-0.007": 11.3454169893,
			"-0.006": 11.7904907143,
			"-0.005": 8.5110104022,
			"-0.004": 11.2205804447,
			"-0.003": 17.0242607972,
			"-0.002": 22.3734183648,
			"-0.001": 25.800441448,
			"0.0": 31.872623153,
			"0.001": 34.9172290837,
			"0.002": 32.5782058322,
			"0.003": 22.6125481726,
			"0.004": 14.9656813881,
			"0.005": 6.96968393752,
			"0.006": 2.79822058956,
			"0.007": 2.29117628989,
			"0.008": 1.71149688002,
			"0.009": 2.11541368636,
			"0.01": 1.9760980752,
			"0.011": 1.70303019151,
			"0.012": 1.65531947204,
			"0.013": 1.8096875817,
			"0.014": 0.705862929426,
			"0.015": 0.259635609074,
			"0.016": 0.0,
			"0.017": 0.0,
			"0.018": 0.0,
			"0.019": 0.0,
			"0.02": 0.0,
			"0.021": 0.0,
			"0.022": 0.0,
			"0.023": 0.0,
			"0.024": 0.0,
			"0.025": 0.0
		}
	}
}
