{
	 "smiles": "CC1=C(CC(N)C(O)=O)C(=O)NO1", 
	 "Tm": 519.15, 
	 "num_atms": 23, 
	 "gaussian": { 
		 "optdone": 1, 
		 "sigma_profile": "yes", 
		 "theory": "DFT", 
		 "functional": "B3LYP", 
		 "basiset": "6-31G**", 
		 "properties": { 
			 "R2extent": 2971.5995, 
			 "electric_dipole_moment_norm": 3.68334927206, 
			 "electric_quadrupole_moment_norm": 19.8743487003, 
			 "total_energy": -683.121985896, 
			 "HOMO_LUMO_gap": 0.20764, 
			 "cosmo_polarized_energy": -25.99, 
			 "cosmo_cavitation_energy": 26.99, 
			 "cosmo_dispersion_energy": -19.01, 
			 "cosmo_repulsion_energy": 1.52, 
			 "cosmo_total_nonelectrostatic_energy": 9.5, 
			 "SMD_solvation_energy": 5.83 
		},
		"coords": [
			{
				"x": -1.855770184,
				"y": -0.2587424859,
				"z": 0.2336706387,
				"element": "C" 
			},
			{
				"x": -0.4672467654,
				"y": 0.2292938303,
				"z": 0.4602175331,
				"element": "C" 
			},
			{
				"x": 0.2053489648,
				"y": 1.3481916186,
				"z": 0.0876093003,
				"element": "C" 
			},
			{
				"x": -0.2379137853,
				"y": 2.5673553528,
				"z": -0.6671769539,
				"element": "C" 
			},
			{
				"x": -0.2922062741,
				"y": 2.4015758527,
				"z": -2.2147692447,
				"element": "C" 
			},
			{
				"x": 1.0024799126,
				"y": 2.006376212,
				"z": -2.7293115909,
				"element": "N" 
			},
			{
				"x": -1.4311609341,
				"y": 1.4409207367,
				"z": -2.6012274765,
				"element": "C" 
			},
			{
				"x": -2.6977391742,
				"y": 1.9176969937,
				"z": -2.4237085667,
				"element": "O" 
			},
			{
				"x": -1.2630740251,
				"y": 0.3164536259,
				"z": -3.0037151638,
				"element": "O" 
			},
			{
				"x": 1.5461137232,
				"y": 1.2438375664,
				"z": 0.6712830915,
				"element": "C" 
			},
			{
				"x": 2.4615678637,
				"y": 2.0471532878,
				"z": 0.7341896509,
				"element": "O" 
			},
			{
				"x": 1.6100571557,
				"y": -0.0718574571,
				"z": 1.1871759064,
				"element": "N" 
			},
			{
				"x": 0.3072910062,
				"y": -0.6298634993,
				"z": 1.1829053465,
				"element": "O" 
			},
			{
				"x": -1.8718895634,
				"y": -1.0052948482,
				"z": -0.5665278809,
				"element": "H" 
			},
			{
				"x": -2.2472442777,
				"y": -0.7196985071,
				"z": 1.1451213978,
				"element": "H" 
			},
			{
				"x": -2.5095397939,
				"y": 0.5613944912,
				"z": -0.0672085636,
				"element": "H" 
			},
			{
				"x": 0.4926597328,
				"y": 3.3541960247,
				"z": -0.4568155416,
				"element": "H" 
			},
			{
				"x": -1.2129099459,
				"y": 2.9152940348,
				"z": -0.3035085498,
				"element": "H" 
			},
			{
				"x": -0.5386965251,
				"y": 3.3896874493,
				"z": -2.6320813534,
				"element": "H" 
			},
			{
				"x": 1.238718523,
				"y": 1.0880112385,
				"z": -2.359529345,
				"element": "H" 
			},
			{
				"x": 0.9493015352,
				"y": 1.8888666003,
				"z": -3.7380710823,
				"element": "H" 
			},
			{
				"x": -2.6681857582,
				"y": 2.8454094522,
				"z": -2.1473478593,
				"element": "H" 
			},
			{
				"x": 2.0307385891,
				"y": -0.2199575701,
				"z": 2.0989263072,
				"element": "H" 
			}
		],
		 "valence_orbital": [ 
			{
				"type": "occ",
				"energy": -0.2906,
				"method": "rhf"
			},
			{
				"type": "occ",
				"energy": -0.28452,
				"method": "rhf"
			},
			{
				"type": "occ",
				"energy": -0.25827,
				"method": "rhf"
			},
			{
				"type": "occ",
				"energy": -0.25207,
				"method": "rhf"
			},
			{
				"type": "occ",
				"energy": -0.23635,
				"method": "rhf"
			},
			{
				"type": "unocc",
				"energy": -0.02871,
				"method": "rhf"
			},
			{
				"type": "unocc",
				"energy": -0.00195,
				"method": "rhf"
			},
			{
				"type": "unocc",
				"energy": 0.03075,
				"method": "rhf"
			},
			{
				"type": "unocc",
				"energy": 0.05723,
				"method": "rhf"
			},
			{
				"type": "unocc",
				"energy": 0.08024,
				"method": "rhf"
			}
		],
		"cosmo_sigma_profile": { 
			"-0.025": 0.0,
			"-0.024": 0.0,
			"-0.023": 0.0,
			"-0.022": 0.0,
			"-0.021": 0.0,
			"-0.02": 0.0164677667596,
			"-0.019": 0.940052327774,
			"-0.018": 0.701293497354,
			"-0.017": 1.57582661258,
			"-0.016": 2.73843315584,
			"-0.015": 2.40383738747,
			"-0.014": 2.1661418559,
			"-0.013": 2.46182909323,
			"-0.012": 1.60387302804,
			"-0.011": 3.15795210247,
			"-0.01": 4.16145948944,
			"-0.009": 4.70942364843,
			"-0.008": 6.04322885496,
			"-0.007": 7.83448411669,
			"-0.006": 10.7014648685,
			"-0.005": 10.9090946073,
			"-0.004": 11.5128609802,
			"-0.003": 13.7580418322,
			"-0.002": 14.4710523585,
			"-0.001": 10.2031564023,
			"0.0": 8.48767921403,
			"0.001": 8.07837152698,
			"0.002": 6.75514019904,
			"0.003": 5.69458329439,
			"0.004": 5.51374006413,
			"0.005": 6.50043254961,
			"0.006": 7.95418852912,
			"0.007": 6.04462845702,
			"0.008": 6.28048369151,
			"0.009": 5.63006428174,
			"0.01": 6.01559532987,
			"0.011": 7.01725122257,
			"0.012": 6.55105529775,
			"0.013": 8.06779869604,
			"0.014": 2.9429995297,
			"0.015": 0.897677327383,
			"0.016": 0.455203059172,
			"0.017": 0.483143593385,
			"0.018": 0.394320777832,
			"0.019": 0.0335690247581,
			"0.02": 0.0,
			"0.021": 0.0,
			"0.022": 0.0,
			"0.023": 0.0,
			"0.024": 0.0,
			"0.025": 0.0
		}
	}
}
