{
	 "smiles": "CN(C)C(=S)OC1=CC=C2C=CC=CC2=C1", 
	 "Tm": 363.15, 
	 "num_atms": 29, 
	 "gaussian": { 
		 "optdone": 1, 
		 "sigma_profile": "yes", 
		 "theory": "DFT", 
		 "functional": "B3LYP", 
		 "basiset": "6-31G**", 
		 "properties": { 
			 "R2extent": 5337.7061, 
			 "electric_dipole_moment_norm": 3.6333084441, 
			 "electric_quadrupole_moment_norm": 21.8053944926, 
			 "total_energy": -1031.38825114, 
			 "HOMO_LUMO_gap": 0.16838, 
			 "cosmo_polarized_energy": -13.22, 
			 "cosmo_cavitation_energy": 34.25, 
			 "cosmo_dispersion_energy": -24.84, 
			 "cosmo_repulsion_energy": 1.89, 
			 "cosmo_total_nonelectrostatic_energy": 11.3, 
			 "SMD_solvation_energy": 5.15 
		},
		"coords": [
			{
				"x": 0.7483225867,
				"y": 3.8814717923,
				"z": 0.678856012,
				"element": "C" 
			},
			{
				"x": -0.3292836861,
				"y": 3.2685318563,
				"z": -0.0997643602,
				"element": "N" 
			},
			{
				"x": -1.4518079155,
				"y": 4.1387871561,
				"z": -0.4286250559,
				"element": "C" 
			},
			{
				"x": -0.3765949737,
				"y": 1.9343402968,
				"z": -0.3325281355,
				"element": "C" 
			},
			{
				"x": -1.5802421571,
				"y": 1.1009149295,
				"z": -1.1354356878,
				"element": "S" 
			},
			{
				"x": 0.7286268798,
				"y": 1.3421564664,
				"z": 0.2087933126,
				"element": "O" 
			},
			{
				"x": 0.9980695576,
				"y": -0.0124519098,
				"z": -0.0019133193,
				"element": "C" 
			},
			{
				"x": 1.4978104665,
				"y": -0.4355754231,
				"z": -1.2547268553,
				"element": "C" 
			},
			{
				"x": 1.8715375504,
				"y": -1.7479887272,
				"z": -1.4176573449,
				"element": "C" 
			},
			{
				"x": 1.7672154283,
				"y": -2.6815089501,
				"z": -0.3497898088,
				"element": "C" 
			},
			{
				"x": 2.1478951543,
				"y": -4.0424028261,
				"z": -0.4923381182,
				"element": "C" 
			},
			{
				"x": 2.0372618477,
				"y": -4.9206222711,
				"z": 0.5625661921,
				"element": "C" 
			},
			{
				"x": 1.5400098394,
				"y": -4.4756727818,
				"z": 1.8119326719,
				"element": "C" 
			},
			{
				"x": 1.1634309066,
				"y": -3.1623093651,
				"z": 1.9838102035,
				"element": "C" 
			},
			{
				"x": 1.2643651611,
				"y": -2.2318304159,
				"z": 0.9149723471,
				"element": "C" 
			},
			{
				"x": 0.8837471975,
				"y": -0.8708215774,
				"z": 1.0610574736,
				"element": "C" 
			},
			{
				"x": 1.6987839858,
				"y": 3.3950064254,
				"z": 0.468342253,
				"element": "H" 
			},
			{
				"x": 0.8164658077,
				"y": 4.935701245,
				"z": 0.4006010337,
				"element": "H" 
			},
			{
				"x": 0.5526578096,
				"y": 3.8170728735,
				"z": 1.7569656703,
				"element": "H" 
			},
			{
				"x": -2.150486618,
				"y": 3.5973312328,
				"z": -1.0628636536,
				"element": "H" 
			},
			{
				"x": -1.0839468135,
				"y": 5.0258380252,
				"z": -0.95480222,
				"element": "H" 
			},
			{
				"x": -1.9690321462,
				"y": 4.4613649511,
				"z": 0.4841293333,
				"element": "H" 
			},
			{
				"x": 1.5739782824,
				"y": 0.2795876059,
				"z": -2.0658814132,
				"element": "H" 
			},
			{
				"x": 2.2549210283,
				"y": -2.0880558144,
				"z": -2.3758204838,
				"element": "H" 
			},
			{
				"x": 2.5281494327,
				"y": -4.3804953813,
				"z": -1.4529354235,
				"element": "H" 
			},
			{
				"x": 2.3304296446,
				"y": -5.9592059922,
				"z": 0.4400421892,
				"element": "H" 
			},
			{
				"x": 1.4556819036,
				"y": -5.1774261665,
				"z": 2.6366900149,
				"element": "H" 
			},
			{
				"x": 0.7800890957,
				"y": -2.8199574659,
				"z": 2.9414993713,
				"element": "H" 
			},
			{
				"x": 0.5025447438,
				"y": -0.5072797886,
				"z": 2.0099238016,
				"element": "H" 
			}
		],
		 "valence_orbital": [ 
			{
				"type": "occ",
				"energy": -0.28383,
				"method": "rhf"
			},
			{
				"type": "occ",
				"energy": -0.24148,
				"method": "rhf"
			},
			{
				"type": "occ",
				"energy": -0.21871,
				"method": "rhf"
			},
			{
				"type": "occ",
				"energy": -0.21444,
				"method": "rhf"
			},
			{
				"type": "occ",
				"energy": -0.2071,
				"method": "rhf"
			},
			{
				"type": "unocc",
				"energy": -0.03872,
				"method": "rhf"
			},
			{
				"type": "unocc",
				"energy": -0.01176,
				"method": "rhf"
			},
			{
				"type": "unocc",
				"energy": -0.00389,
				"method": "rhf"
			},
			{
				"type": "unocc",
				"energy": 0.03196,
				"method": "rhf"
			},
			{
				"type": "unocc",
				"energy": 0.08365,
				"method": "rhf"
			}
		],
		"cosmo_sigma_profile": { 
			"-0.025": 0.0,
			"-0.024": 0.0,
			"-0.023": 0.0,
			"-0.022": 0.0,
			"-0.021": 0.0,
			"-0.02": 0.0,
			"-0.019": 0.0,
			"-0.018": 0.0,
			"-0.017": 0.0,
			"-0.016": 0.0,
			"-0.015": 0.0,
			"-0.014": 0.0,
			"-0.013": 0.0,
			"-0.012": 0.0,
			"-0.011": 0.0,
			"-0.01": 0.0,
			"-0.009": 0.0,
			"-0.008": 0.000325730031974,
			"-0.007": 5.44368508832,
			"-0.006": 21.5799614249,
			"-0.005": 25.1678242693,
			"-0.004": 27.0418757412,
			"-0.003": 27.1235086434,
			"-0.002": 21.4775114825,
			"-0.001": 13.6786363603,
			"0.0": 13.7735184573,
			"0.001": 14.3506719277,
			"0.002": 15.9324985127,
			"0.003": 23.0038325521,
			"0.004": 21.0612355297,
			"0.005": 14.2851838266,
			"0.006": 4.35543360469,
			"0.007": 5.45409208304,
			"0.008": 5.23412099678,
			"0.009": 7.90687667326,
			"0.01": 6.78193356093,
			"0.011": 2.20362520733,
			"0.012": 0.0415260899695,
			"0.013": 0.0,
			"0.014": 0.0,
			"0.015": 0.0,
			"0.016": 0.0,
			"0.017": 0.0,
			"0.018": 0.0,
			"0.019": 0.0,
			"0.02": 0.0,
			"0.021": 0.0,
			"0.022": 0.0,
			"0.023": 0.0,
			"0.024": 0.0,
			"0.025": 0.0
		}
	}
}
