{
	 "smiles": "CC(C)(C)C1=CC2=C(CCC2O)C=C1", 
	 "Tm": 347.15, 
	 "num_atms": 32, 
	 "gaussian": { 
		 "optdone": 1, 
		 "sigma_profile": "yes", 
		 "theory": "DFT", 
		 "functional": "B3LYP", 
		 "basiset": "6-31G**", 
		 "properties": { 
			 "R2extent": 3734.4178, 
			 "electric_dipole_moment_norm": 1.50462979168, 
			 "electric_quadrupole_moment_norm": 10.1089099215, 
			 "total_energy": -581.470900446, 
			 "HOMO_LUMO_gap": 0.22477, 
			 "cosmo_polarized_energy": -7.19, 
			 "cosmo_cavitation_energy": 32.33, 
			 "cosmo_dispersion_energy": -23.02, 
			 "cosmo_repulsion_energy": 1.82, 
			 "cosmo_total_nonelectrostatic_energy": 11.12, 
			 "SMD_solvation_energy": 4.98 
		},
		"coords": [
			{
				"x": 0.4633122142,
				"y": 2.4032285549,
				"z": -2.4995562099,
				"element": "C" 
			},
			{
				"x": -0.0675373754,
				"y": 0.9523299925,
				"z": -2.412241205,
				"element": "C" 
			},
			{
				"x": 0.6353013032,
				"y": 0.0863850028,
				"z": -3.484957162,
				"element": "C" 
			},
			{
				"x": -1.5753074934,
				"y": 0.974321553,
				"z": -2.7274766224,
				"element": "C" 
			},
			{
				"x": 0.2337782505,
				"y": 0.3797938997,
				"z": -1.0139812426,
				"element": "C" 
			},
			{
				"x": 1.5670699407,
				"y": 0.2860211812,
				"z": -0.5723048601,
				"element": "C" 
			},
			{
				"x": 1.8543143165,
				"y": -0.2208557867,
				"z": 0.6891487672,
				"element": "C" 
			},
			{
				"x": 0.8382687315,
				"y": -0.6489685897,
				"z": 1.5507149187,
				"element": "C" 
			},
			{
				"x": 1.4258377885,
				"y": -1.148462981,
				"z": 2.8556850968,
				"element": "C" 
			},
			{
				"x": 2.8575171738,
				"y": -0.5571114255,
				"z": 2.8376026404,
				"element": "C" 
			},
			{
				"x": 3.2157060483,
				"y": -0.3974781074,
				"z": 1.3366249804,
				"element": "C" 
			},
			{
				"x": 4.1569352673,
				"y": 0.6269103404,
				"z": 1.0500960112,
				"element": "O" 
			},
			{
				"x": -0.485213677,
				"y": -0.5703024233,
				"z": 1.1315614736,
				"element": "C" 
			},
			{
				"x": -0.7743781457,
				"y": -0.0588469304,
				"z": -0.1397881762,
				"element": "C" 
			},
			{
				"x": 0.2643883585,
				"y": 2.8241839109,
				"z": -3.491776918,
				"element": "H" 
			},
			{
				"x": 1.5427178004,
				"y": 2.4521186474,
				"z": -2.3281518541,
				"element": "H" 
			},
			{
				"x": -0.0229566426,
				"y": 3.0432346302,
				"z": -1.7557500197,
				"element": "H" 
			},
			{
				"x": 0.4377543717,
				"y": 0.4842693944,
				"z": -4.4869433459,
				"element": "H" 
			},
			{
				"x": 1.7198080842,
				"y": 0.0643760886,
				"z": -3.3434300543,
				"element": "H" 
			},
			{
				"x": 0.2734605451,
				"y": -0.9466071053,
				"z": -3.4522647128,
				"element": "H" 
			},
			{
				"x": -2.1310406259,
				"y": 1.6003430307,
				"z": -2.0215285813,
				"element": "H" 
			},
			{
				"x": -2.0103154202,
				"y": -0.0304221629,
				"z": -2.7099031349,
				"element": "H" 
			},
			{
				"x": -1.7363196079,
				"y": 1.385448477,
				"z": -3.72942314,
				"element": "H" 
			},
			{
				"x": 2.3871719516,
				"y": 0.6180826025,
				"z": -1.203137831,
				"element": "H" 
			},
			{
				"x": 1.4614059666,
				"y": -2.246799017,
				"z": 2.8664223637,
				"element": "H" 
			},
			{
				"x": 0.847643309,
				"y": -0.8449337985,
				"z": 3.7350357994,
				"element": "H" 
			},
			{
				"x": 2.8465019788,
				"y": 0.4443959838,
				"z": 3.2872138831,
				"element": "H" 
			},
			{
				"x": 3.5888174864,
				"y": -1.1555647149,
				"z": 3.3872615259,
				"element": "H" 
			},
			{
				"x": 3.6936135537,
				"y": -1.3137131055,
				"z": 0.964047864,
				"element": "H" 
			},
			{
				"x": 3.7341444661,
				"y": 1.4698606738,
				"z": 1.266294523,
				"element": "H" 
			},
			{
				"x": -1.297047904,
				"y": -0.8897928551,
				"z": 1.7807946498,
				"element": "H" 
			},
			{
				"x": -1.8136520142,
				"y": 0.0004550394,
				"z": -0.4421894268,
				"element": "H" 
			}
		],
		 "valence_orbital": [ 
			{
				"type": "occ",
				"energy": -0.31538,
				"method": "rhf"
			},
			{
				"type": "occ",
				"energy": -0.3071,
				"method": "rhf"
			},
			{
				"type": "occ",
				"energy": -0.2655,
				"method": "rhf"
			},
			{
				"type": "occ",
				"energy": -0.23922,
				"method": "rhf"
			},
			{
				"type": "occ",
				"energy": -0.22801,
				"method": "rhf"
			},
			{
				"type": "unocc",
				"energy": -0.00324,
				"method": "rhf"
			},
			{
				"type": "unocc",
				"energy": 0.00614,
				"method": "rhf"
			},
			{
				"type": "unocc",
				"energy": 0.08454,
				"method": "rhf"
			},
			{
				"type": "unocc",
				"energy": 0.09285,
				"method": "rhf"
			},
			{
				"type": "unocc",
				"energy": 0.10689,
				"method": "rhf"
			}
		],
		"cosmo_sigma_profile": { 
			"-0.025": 0.0,
			"-0.024": 0.0,
			"-0.023": 0.0,
			"-0.022": 0.0,
			"-0.021": 0.0,
			"-0.02": 0.0,
			"-0.019": 0.0,
			"-0.018": 0.0,
			"-0.017": 0.0,
			"-0.016": 0.0,
			"-0.015": 0.206261870494,
			"-0.014": 1.11985019941,
			"-0.013": 0.620503061611,
			"-0.012": 0.51278165085,
			"-0.011": 1.32920047989,
			"-0.01": 0.72992420322,
			"-0.009": 0.898838525811,
			"-0.008": 1.04989280608,
			"-0.007": 1.11460150506,
			"-0.006": 1.1541743819,
			"-0.005": 4.74480456076,
			"-0.004": 14.1997229835,
			"-0.003": 27.4737430108,
			"-0.002": 40.0223245219,
			"-0.001": 30.990210012,
			"0.0": 30.9374809088,
			"0.001": 30.6854166395,
			"0.002": 17.074002898,
			"0.003": 8.63609938054,
			"0.004": 7.26787873897,
			"0.005": 7.24277286964,
			"0.006": 7.5544345667,
			"0.007": 5.12309756251,
			"0.008": 1.34699622609,
			"0.009": 1.29132169242,
			"0.01": 1.32826824117,
			"0.011": 0.593682327072,
			"0.012": 1.55840396609,
			"0.013": 1.80704998989,
			"0.014": 2.11252554003,
			"0.015": 0.528394831278,
			"0.016": 0.0,
			"0.017": 0.0,
			"0.018": 0.0,
			"0.019": 0.0,
			"0.02": 0.0,
			"0.021": 0.0,
			"0.022": 0.0,
			"0.023": 0.0,
			"0.024": 0.0,
			"0.025": 0.0
		}
	}
}
