{
	 "smiles": "CCOC(=O)C1=NOC(C)=C1", 
	 "Tm": 302.15, 
	 "num_atms": 20, 
	 "gaussian": { 
		 "optdone": 1, 
		 "sigma_profile": "yes", 
		 "theory": "DFT", 
		 "functional": "B3LYP", 
		 "basiset": "6-31G**", 
		 "properties": { 
			 "R2extent": 2486.8107, 
			 "electric_dipole_moment_norm": 1.47014546899, 
			 "electric_quadrupole_moment_norm": 16.8992275569, 
			 "total_energy": -552.554642033, 
			 "HOMO_LUMO_gap": 0.21574, 
			 "cosmo_polarized_energy": -10.34, 
			 "cosmo_cavitation_energy": 25.01, 
			 "cosmo_dispersion_energy": -18.27, 
			 "cosmo_repulsion_energy": 1.51, 
			 "cosmo_total_nonelectrostatic_energy": 8.24, 
			 "SMD_solvation_energy": 5.8 
		},
		"coords": [
			{
				"x": 0.3641471572,
				"y": -0.4416037092,
				"z": 4.5044584384,
				"element": "C" 
			},
			{
				"x": 1.4349068371,
				"y": -0.2640518278,
				"z": 3.4388063956,
				"element": "C" 
			},
			{
				"x": 0.8838115321,
				"y": -0.4302379899,
				"z": 2.108256876,
				"element": "O" 
			},
			{
				"x": 0.3307643112,
				"y": 0.6562930205,
				"z": 1.5506656558,
				"element": "C" 
			},
			{
				"x": 0.2634591671,
				"y": 1.7547695778,
				"z": 2.0672720781,
				"element": "O" 
			},
			{
				"x": -0.208973801,
				"y": 0.3901353104,
				"z": 0.1892602142,
				"element": "C" 
			},
			{
				"x": -0.1500850171,
				"y": -0.7958502441,
				"z": -0.3830388226,
				"element": "N" 
			},
			{
				"x": -0.7528967013,
				"y": -0.62449403,
				"z": -1.6216301463,
				"element": "O" 
			},
			{
				"x": -1.16052875,
				"y": 0.6626693906,
				"z": -1.7656538775,
				"element": "C" 
			},
			{
				"x": -1.8299274843,
				"y": 1.0131872673,
				"z": -3.0483888587,
				"element": "C" 
			},
			{
				"x": -0.840823094,
				"y": 1.3589908885,
				"z": -0.6402864011,
				"element": "C" 
			},
			{
				"x": 0.8206329996,
				"y": -0.3922718658,
				"z": 5.4986555785,
				"element": "H" 
			},
			{
				"x": -0.3862003025,
				"y": 0.3495788726,
				"z": 4.4327959061,
				"element": "H" 
			},
			{
				"x": -0.1307516563,
				"y": -1.4113795281,
				"z": 4.4004254764,
				"element": "H" 
			},
			{
				"x": 1.9021700986,
				"y": 0.721241207,
				"z": 3.5061080977,
				"element": "H" 
			},
			{
				"x": 2.2026511586,
				"y": -1.0377224706,
				"z": 3.5073317815,
				"element": "H" 
			},
			{
				"x": -2.110946963,
				"y": 2.067954252,
				"z": -3.0483548197,
				"element": "H" 
			},
			{
				"x": -1.1658055262,
				"y": 0.8284767297,
				"z": -3.899140544,
				"element": "H" 
			},
			{
				"x": -2.7324831179,
				"y": 0.4109982778,
				"z": -3.1957589592,
				"element": "H" 
			},
			{
				"x": -1.0149208477,
				"y": 2.3979168713,
				"z": -0.4112840693,
				"element": "H" 
			}
		],
		 "valence_orbital": [ 
			{
				"type": "occ",
				"energy": -0.30954,
				"method": "rhf"
			},
			{
				"type": "occ",
				"energy": -0.30375,
				"method": "rhf"
			},
			{
				"type": "occ",
				"energy": -0.29991,
				"method": "rhf"
			},
			{
				"type": "occ",
				"energy": -0.28219,
				"method": "rhf"
			},
			{
				"type": "occ",
				"energy": -0.26297,
				"method": "rhf"
			},
			{
				"type": "unocc",
				"energy": -0.04723,
				"method": "rhf"
			},
			{
				"type": "unocc",
				"energy": 0.01112,
				"method": "rhf"
			},
			{
				"type": "unocc",
				"energy": 0.08845,
				"method": "rhf"
			},
			{
				"type": "unocc",
				"energy": 0.10668,
				"method": "rhf"
			},
			{
				"type": "unocc",
				"energy": 0.1129,
				"method": "rhf"
			}
		],
		"cosmo_sigma_profile": { 
			"-0.025": 0.0,
			"-0.024": 0.0,
			"-0.023": 0.0,
			"-0.022": 0.0,
			"-0.021": 0.0,
			"-0.02": 0.0,
			"-0.019": 0.0,
			"-0.018": 0.0,
			"-0.017": 0.0,
			"-0.016": 0.0,
			"-0.015": 0.0,
			"-0.014": 0.0,
			"-0.013": 0.0,
			"-0.012": 0.0,
			"-0.011": 0.0,
			"-0.01": 0.0,
			"-0.009": 0.498881752917,
			"-0.008": 1.39294245178,
			"-0.007": 4.07475856354,
			"-0.006": 11.741462736,
			"-0.005": 12.9832401345,
			"-0.004": 22.078433727,
			"-0.003": 22.6264935256,
			"-0.002": 21.6582039657,
			"-0.001": 18.9639938937,
			"0.0": 16.8257731512,
			"0.001": 9.90060964204,
			"0.002": 6.30840936099,
			"0.003": 5.37538596602,
			"0.004": 4.80151847215,
			"0.005": 3.8084182992,
			"0.006": 4.66716999334,
			"0.007": 7.19807836033,
			"0.008": 4.8726352455,
			"0.009": 3.81149379751,
			"0.01": 3.99432869287,
			"0.011": 6.43669815355,
			"0.012": 2.85717237699,
			"0.013": 1.2913071665,
			"0.014": 0.512748402012,
			"0.015": 0.0,
			"0.016": 0.0,
			"0.017": 0.0,
			"0.018": 0.0,
			"0.019": 0.0,
			"0.02": 0.0,
			"0.021": 0.0,
			"0.022": 0.0,
			"0.023": 0.0,
			"0.024": 0.0,
			"0.025": 0.0
		}
	}
}
