{
	 "smiles": "CC(=O)CC(C)(C)NC(=O)C=C", 
	 "Tm": 329.35, 
	 "num_atms": 27, 
	 "gaussian": { 
		 "optdone": 1, 
		 "sigma_profile": "yes", 
		 "theory": "DFT", 
		 "functional": "B3LYP", 
		 "basiset": "6-31G**", 
		 "properties": { 
			 "R2extent": 2467.2487, 
			 "electric_dipole_moment_norm": 3.35175477772, 
			 "electric_quadrupole_moment_norm": 13.9183909167, 
			 "total_energy": -557.187483768, 
			 "HOMO_LUMO_gap": 0.20768, 
			 "cosmo_polarized_energy": -14.15, 
			 "cosmo_cavitation_energy": 29.18, 
			 "cosmo_dispersion_energy": -19.7, 
			 "cosmo_repulsion_energy": 1.58, 
			 "cosmo_total_nonelectrostatic_energy": 11.05, 
			 "SMD_solvation_energy": 7.05 
		},
		"coords": [
			{
				"x": 1.4807257261,
				"y": -1.1444041026,
				"z": 0.8580485921,
				"element": "C" 
			},
			{
				"x": 0.6356281445,
				"y": -0.9436737893,
				"z": -0.3810636337,
				"element": "C" 
			},
			{
				"x": -0.108412884,
				"y": -1.8139404877,
				"z": -0.8027550341,
				"element": "O" 
			},
			{
				"x": 0.7392516838,
				"y": 0.4074520052,
				"z": -1.0828324015,
				"element": "C" 
			},
			{
				"x": -0.5142442266,
				"y": 1.3289455175,
				"z": -0.9171963975,
				"element": "C" 
			},
			{
				"x": -0.1711380791,
				"y": 2.6921087869,
				"z": -1.553849002,
				"element": "C" 
			},
			{
				"x": -1.7373797618,
				"y": 0.7521632396,
				"z": -1.6535527203,
				"element": "C" 
			},
			{
				"x": -0.764914942,
				"y": 1.615775343,
				"z": 0.5164203108,
				"element": "N" 
			},
			{
				"x": -1.665619995,
				"y": 1.1639252224,
				"z": 1.4666590638,
				"element": "C" 
			},
			{
				"x": -1.8635937387,
				"y": 1.8551273115,
				"z": 2.4642252382,
				"element": "O" 
			},
			{
				"x": -2.3237081814,
				"y": -0.1665990611,
				"z": 1.2980424955,
				"element": "C" 
			},
			{
				"x": -3.3211909833,
				"y": -0.5155522791,
				"z": 2.1143075659,
				"element": "C" 
			},
			{
				"x": 2.5442931965,
				"y": -1.039542182,
				"z": 0.6113270287,
				"element": "H" 
			},
			{
				"x": 1.2471653367,
				"y": -0.3645332831,
				"z": 1.5922060753,
				"element": "H" 
			},
			{
				"x": 1.2964897471,
				"y": -2.1306581199,
				"z": 1.2857806658,
				"element": "H" 
			},
			{
				"x": 0.8802091912,
				"y": 0.2124667963,
				"z": -2.1519759337,
				"element": "H" 
			},
			{
				"x": 1.6164603546,
				"y": 0.9522393447,
				"z": -0.7179527041,
				"element": "H" 
			},
			{
				"x": 0.6691888785,
				"y": 3.1709384777,
				"z": -1.0378937143,
				"element": "H" 
			},
			{
				"x": 0.1091217733,
				"y": 2.5665961226,
				"z": -2.6034406461,
				"element": "H" 
			},
			{
				"x": -1.0343548236,
				"y": 3.3630450025,
				"z": -1.5053804509,
				"element": "H" 
			},
			{
				"x": -1.5648678729,
				"y": 0.8213519404,
				"z": -2.7322189405,
				"element": "H" 
			},
			{
				"x": -1.9148430553,
				"y": -0.2976551846,
				"z": -1.4281099135,
				"element": "H" 
			},
			{
				"x": -2.6333300827,
				"y": 1.3317885742,
				"z": -1.4135941423,
				"element": "H" 
			},
			{
				"x": -0.3995326772,
				"y": 2.5091952488,
				"z": 0.8251003316,
				"element": "H" 
			},
			{
				"x": -1.9631071059,
				"y": -0.8525425094,
				"z": 0.5421918895,
				"element": "H" 
			},
			{
				"x": -3.8066769866,
				"y": -1.4830750778,
				"z": 2.0352202712,
				"element": "H" 
			},
			{
				"x": -3.6631186362,
				"y": 0.1707571434,
				"z": 2.8827861061,
				"element": "H" 
			}
		],
		 "valence_orbital": [ 
			{
				"type": "occ",
				"energy": -0.34703,
				"method": "rhf"
			},
			{
				"type": "occ",
				"energy": -0.26981,
				"method": "rhf"
			},
			{
				"type": "occ",
				"energy": -0.25475,
				"method": "rhf"
			},
			{
				"type": "occ",
				"energy": -0.24908,
				"method": "rhf"
			},
			{
				"type": "occ",
				"energy": -0.24173,
				"method": "rhf"
			},
			{
				"type": "unocc",
				"energy": -0.03405,
				"method": "rhf"
			},
			{
				"type": "unocc",
				"energy": -0.02536,
				"method": "rhf"
			},
			{
				"type": "unocc",
				"energy": 0.06757,
				"method": "rhf"
			},
			{
				"type": "unocc",
				"energy": 0.08784,
				"method": "rhf"
			},
			{
				"type": "unocc",
				"energy": 0.10736,
				"method": "rhf"
			}
		],
		"cosmo_sigma_profile": { 
			"-0.025": 0.0,
			"-0.024": 0.0,
			"-0.023": 0.0,
			"-0.022": 0.0,
			"-0.021": 0.0,
			"-0.02": 0.0,
			"-0.019": 0.0,
			"-0.018": 0.0,
			"-0.017": 0.0,
			"-0.016": 0.0,
			"-0.015": 0.0,
			"-0.014": 0.0,
			"-0.013": 0.0,
			"-0.012": 0.37411086586,
			"-0.011": 0.803729181293,
			"-0.01": 1.19679775588,
			"-0.009": 0.754740528656,
			"-0.008": 1.83384402687,
			"-0.007": 2.6148674832,
			"-0.006": 8.49877732547,
			"-0.005": 18.1298074626,
			"-0.004": 25.2278180707,
			"-0.003": 26.7924153019,
			"-0.002": 25.7624474993,
			"-0.001": 25.1325006806,
			"0.0": 22.045066278,
			"0.001": 9.87032756594,
			"0.002": 7.54645474675,
			"0.003": 5.34536208359,
			"0.004": 7.22512960798,
			"0.005": 4.58111832436,
			"0.006": 2.47753301024,
			"0.007": 2.6498109095,
			"0.008": 3.5987865716,
			"0.009": 3.02213259338,
			"0.01": 2.67238394848,
			"0.011": 3.92572747838,
			"0.012": 5.61636243152,
			"0.013": 3.50239366075,
			"0.014": 5.9602031239,
			"0.015": 1.05532297242,
			"0.016": 0.0,
			"0.017": 0.0,
			"0.018": 0.0,
			"0.019": 0.0,
			"0.02": 0.0,
			"0.021": 0.0,
			"0.022": 0.0,
			"0.023": 0.0,
			"0.024": 0.0,
			"0.025": 0.0
		}
	}
}
