{
	 "smiles": "CS(=O)(=O)OCCN1C=NC2=C(SC=C2)C1=O", 
	 "Tm": 386.15, 
	 "num_atms": 27, 
	 "gaussian": { 
		 "optdone": 1, 
		 "sigma_profile": "yes", 
		 "theory": "DFT", 
		 "functional": "B3LYP", 
		 "basiset": "6-31G**", 
		 "properties": { 
			 "R2extent": 6754.505, 
			 "electric_dipole_moment_norm": 2.92541523207, 
			 "electric_quadrupole_moment_norm": 12.2958792711, 
			 "total_energy": -1555.70170749, 
			 "HOMO_LUMO_gap": 0.18132, 
			 "cosmo_polarized_energy": -18.35, 
			 "cosmo_cavitation_energy": 33.91, 
			 "cosmo_dispersion_energy": -25.57, 
			 "cosmo_repulsion_energy": 1.86, 
			 "cosmo_total_nonelectrostatic_energy": 10.2, 
			 "SMD_solvation_energy": 4.28 
		},
		"coords": [
			{
				"x": -0.5713376865,
				"y": 1.4733158715,
				"z": -2.8207739157,
				"element": "C" 
			},
			{
				"x": -1.421794346,
				"y": 1.562073977,
				"z": -1.2469726085,
				"element": "S" 
			},
			{
				"x": -2.5017739618,
				"y": 0.5725245064,
				"z": -1.2187501267,
				"element": "O" 
			},
			{
				"x": -1.7098352882,
				"y": 2.9511580082,
				"z": -0.8940729036,
				"element": "O" 
			},
			{
				"x": -0.1723692552,
				"y": 1.0229689995,
				"z": -0.3247374515,
				"element": "O" 
			},
			{
				"x": -0.2592855191,
				"y": 1.2848314626,
				"z": 1.1029110161,
				"element": "C" 
			},
			{
				"x": -1.184176646,
				"y": 0.3036398851,
				"z": 1.8190142,
				"element": "C" 
			},
			{
				"x": -0.7359958847,
				"y": -1.0866941855,
				"z": 1.6938872352,
				"element": "N" 
			},
			{
				"x": -1.3077802006,
				"y": -1.9263075702,
				"z": 0.7653315885,
				"element": "C" 
			},
			{
				"x": -0.985473586,
				"y": -3.1685498667,
				"z": 0.5710022155,
				"element": "N" 
			},
			{
				"x": 0.0197024617,
				"y": -3.6541854326,
				"z": 1.3756255322,
				"element": "C" 
			},
			{
				"x": 0.6630087402,
				"y": -2.8727770485,
				"z": 2.3354890609,
				"element": "C" 
			},
			{
				"x": 1.8910689736,
				"y": -3.7549447472,
				"z": 3.1882501126,
				"element": "S" 
			},
			{
				"x": 1.5309635855,
				"y": -5.1784670279,
				"z": 2.2508507174,
				"element": "C" 
			},
			{
				"x": 0.5336801017,
				"y": -4.9907534516,
				"z": 1.3382361398,
				"element": "C" 
			},
			{
				"x": 0.3244859325,
				"y": -1.4931723748,
				"z": 2.550198446,
				"element": "C" 
			},
			{
				"x": 0.8332212909,
				"y": -0.7037398139,
				"z": 3.3424223269,
				"element": "O" 
			},
			{
				"x": -1.2991046971,
				"y": 1.7542897479,
				"z": -3.5835705993,
				"element": "H" 
			},
			{
				"x": -0.2317734192,
				"y": 0.4487419501,
				"z": -2.972805757,
				"element": "H" 
			},
			{
				"x": 0.2651157861,
				"y": 2.1714065581,
				"z": -2.8053212556,
				"element": "H" 
			},
			{
				"x": -0.593716442,
				"y": 2.3139272856,
				"z": 1.2643666723,
				"element": "H" 
			},
			{
				"x": 0.7631505054,
				"y": 1.1733184189,
				"z": 1.4641618632,
				"element": "H" 
			},
			{
				"x": -1.1840991901,
				"y": 0.5587968452,
				"z": 2.8815782343,
				"element": "H" 
			},
			{
				"x": -2.2029678749,
				"y": 0.3730303888,
				"z": 1.4342816687,
				"element": "H" 
			},
			{
				"x": -2.0850738481,
				"y": -1.4722074688,
				"z": 0.1560832042,
				"element": "H" 
			},
			{
				"x": 2.090400595,
				"y": -6.0854311444,
				"z": 2.4372442959,
				"element": "H" 
			},
			{
				"x": 0.1639598725,
				"y": -5.7505937727,
				"z": 0.6610700881,
				"element": "H" 
			}
		],
		 "valence_orbital": [ 
			{
				"type": "occ",
				"energy": -0.29061,
				"method": "rhf"
			},
			{
				"type": "occ",
				"energy": -0.27878,
				"method": "rhf"
			},
			{
				"type": "occ",
				"energy": -0.2692,
				"method": "rhf"
			},
			{
				"type": "occ",
				"energy": -0.25476,
				"method": "rhf"
			},
			{
				"type": "occ",
				"energy": -0.2318,
				"method": "rhf"
			},
			{
				"type": "unocc",
				"energy": -0.05048,
				"method": "rhf"
			},
			{
				"type": "unocc",
				"energy": -0.01428,
				"method": "rhf"
			},
			{
				"type": "unocc",
				"energy": 0.02313,
				"method": "rhf"
			},
			{
				"type": "unocc",
				"energy": 0.03023,
				"method": "rhf"
			},
			{
				"type": "unocc",
				"energy": 0.03674,
				"method": "rhf"
			}
		],
		"cosmo_sigma_profile": { 
			"-0.025": 0.0,
			"-0.024": 0.0,
			"-0.023": 0.0,
			"-0.022": 0.0,
			"-0.021": 0.0,
			"-0.02": 0.0,
			"-0.019": 0.0,
			"-0.018": 0.0,
			"-0.017": 0.0,
			"-0.016": 0.0,
			"-0.015": 0.0,
			"-0.014": 0.0,
			"-0.013": 0.0,
			"-0.012": 0.0,
			"-0.011": 0.431091092409,
			"-0.01": 3.27528518407,
			"-0.009": 8.22668531664,
			"-0.008": 11.3991268151,
			"-0.007": 17.8759946274,
			"-0.006": 16.8070390706,
			"-0.005": 19.0187681941,
			"-0.004": 16.5533231864,
			"-0.003": 14.8109308144,
			"-0.002": 9.92267467687,
			"-0.001": 12.6701661238,
			"0.0": 16.2948342477,
			"0.001": 24.1118080916,
			"0.002": 21.0847805006,
			"0.003": 14.7960183424,
			"0.004": 8.99976973754,
			"0.005": 5.90554001337,
			"0.006": 6.31862563836,
			"0.007": 6.09469005939,
			"0.008": 4.59974323832,
			"0.009": 7.7960147489,
			"0.01": 11.4632402528,
			"0.011": 5.48664492897,
			"0.012": 4.32086368523,
			"0.013": 4.07041433967,
			"0.014": 0.937548438362,
			"0.015": 0.589567723283,
			"0.016": 0.0236195517165,
			"0.017": 0.0,
			"0.018": 0.0,
			"0.019": 0.0,
			"0.02": 0.0,
			"0.021": 0.0,
			"0.022": 0.0,
			"0.023": 0.0,
			"0.024": 0.0,
			"0.025": 0.0
		}
	}
}
