{
	 "smiles": "CC1=C(CC(O)=O)N=C(S1)C1CCN(CC1)C(=O)OC(C)(C)C", 
	 "Tm": 322.15, 
	 "num_atms": 47, 
	 "gaussian": { 
		 "optdone": 1, 
		 "sigma_profile": "yes", 
		 "theory": "DFT", 
		 "functional": "B3LYP", 
		 "basiset": "6-31G**", 
		 "properties": { 
			 "R2extent": 8682.0635, 
			 "electric_dipole_moment_norm": 6.81949781949, 
			 "electric_quadrupole_moment_norm": 17.6469582543, 
			 "total_energy": -1432.81607547, 
			 "HOMO_LUMO_gap": 0.19799, 
			 "cosmo_polarized_energy": -16.36, 
			 "cosmo_cavitation_energy": 47.18, 
			 "cosmo_dispersion_energy": -31.49, 
			 "cosmo_repulsion_energy": 2.33, 
			 "cosmo_total_nonelectrostatic_energy": 18.02, 
			 "SMD_solvation_energy": 7.3 
		},
		"coords": [
			{
				"x": -1.7273440116,
				"y": -1.1463033862,
				"z": -4.9453188239,
				"element": "C" 
			},
			{
				"x": -1.5376595138,
				"y": -0.115023565,
				"z": -3.8725637011,
				"element": "C" 
			},
			{
				"x": -0.6638698805,
				"y": -0.1248689387,
				"z": -2.8140666429,
				"element": "C" 
			},
			{
				"x": 0.2821461657,
				"y": -1.2454299631,
				"z": -2.4550703943,
				"element": "C" 
			},
			{
				"x": -0.464607306,
				"y": -2.3901647193,
				"z": -1.7559026633,
				"element": "C" 
			},
			{
				"x": -0.8327406686,
				"y": -2.1948756685,
				"z": -0.4827022577,
				"element": "O" 
			},
			{
				"x": -0.7455483142,
				"y": -3.4165671048,
				"z": -2.3368080016,
				"element": "O" 
			},
			{
				"x": -0.7235881418,
				"y": 0.9671668374,
				"z": -1.9733363632,
				"element": "N" 
			},
			{
				"x": -1.6252229147,
				"y": 1.8284736124,
				"z": -2.3426350569,
				"element": "C" 
			},
			{
				"x": -2.4772676748,
				"y": 1.3587169883,
				"z": -3.8076025131,
				"element": "S" 
			},
			{
				"x": -2.0168878588,
				"y": 3.0443990712,
				"z": -1.5364589035,
				"element": "C" 
			},
			{
				"x": -0.7819822083,
				"y": 3.7702706941,
				"z": -0.9151128067,
				"element": "C" 
			},
			{
				"x": -0.6557140171,
				"y": 3.5045212876,
				"z": 0.5980898349,
				"element": "C" 
			},
			{
				"x": -0.9647792939,
				"y": 2.1082555637,
				"z": 0.9041349301,
				"element": "N" 
			},
			{
				"x": -2.3414131338,
				"y": 1.6829714046,
				"z": 0.6096569675,
				"element": "C" 
			},
			{
				"x": -3.0000887032,
				"y": 2.6298910074,
				"z": -0.4092605977,
				"element": "C" 
			},
			{
				"x": -0.0116501688,
				"y": 1.1534459655,
				"z": 1.0904602027,
				"element": "C" 
			},
			{
				"x": -0.2570107855,
				"y": -0.0548461231,
				"z": 1.1398790878,
				"element": "O" 
			},
			{
				"x": 1.2159255407,
				"y": 1.6899324103,
				"z": 1.2555242057,
				"element": "O" 
			},
			{
				"x": 2.3637013379,
				"y": 0.8749567417,
				"z": 1.691343408,
				"element": "C" 
			},
			{
				"x": 2.7097088155,
				"y": -0.1789483401,
				"z": 0.6348109637,
				"element": "C" 
			},
			{
				"x": 3.4811006883,
				"y": 1.9167802596,
				"z": 1.7962291357,
				"element": "C" 
			},
			{
				"x": 2.0704996909,
				"y": 0.2507799455,
				"z": 3.0592958458,
				"element": "C" 
			},
			{
				"x": -1.2345540343,
				"y": -0.8560357253,
				"z": -5.8813912133,
				"element": "H" 
			},
			{
				"x": -2.7872527478,
				"y": -1.3041620197,
				"z": -5.1666526725,
				"element": "H" 
			},
			{
				"x": -1.3163343982,
				"y": -2.1032079557,
				"z": -4.6146050517,
				"element": "H" 
			},
			{
				"x": 1.0612117747,
				"y": -0.8390011689,
				"z": -1.804889941,
				"element": "H" 
			},
			{
				"x": 0.7538404196,
				"y": -1.6717697054,
				"z": -3.3417867493,
				"element": "H" 
			},
			{
				"x": -0.5629687927,
				"y": -1.3315752326,
				"z": -0.0959944097,
				"element": "H" 
			},
			{
				"x": -2.5430402007,
				"y": 3.7352144334,
				"z": -2.2037329598,
				"element": "H" 
			},
			{
				"x": -0.8637730139,
				"y": 4.8506859455,
				"z": -1.0792907246,
				"element": "H" 
			},
			{
				"x": 0.1282411336,
				"y": 3.4302048024,
				"z": -1.4147296099,
				"element": "H" 
			},
			{
				"x": -1.3523746222,
				"y": 4.1379412624,
				"z": 1.1604947884,
				"element": "H" 
			},
			{
				"x": 0.3469555944,
				"y": 3.7326937465,
				"z": 0.9521360157,
				"element": "H" 
			},
			{
				"x": -2.9337370582,
				"y": 1.6607379849,
				"z": 1.5343092189,
				"element": "H" 
			},
			{
				"x": -2.3011092937,
				"y": 0.6644015277,
				"z": 0.2246991465,
				"element": "H" 
			},
			{
				"x": -3.358891564,
				"y": 3.540037579,
				"z": 0.0857334775,
				"element": "H" 
			},
			{
				"x": -3.8818175177,
				"y": 2.1366551396,
				"z": -0.83026517,
				"element": "H" 
			},
			{
				"x": 1.9421120693,
				"y": -0.9505704353,
				"z": 0.5805631385,
				"element": "H" 
			},
			{
				"x": 3.6629879521,
				"y": -0.6529364676,
				"z": 0.8902869451,
				"element": "H" 
			},
			{
				"x": 2.8181318308,
				"y": 0.2924632739,
				"z": -0.3470734094,
				"element": "H" 
			},
			{
				"x": 4.4089709125,
				"y": 1.440127241,
				"z": 2.1254849287,
				"element": "H" 
			},
			{
				"x": 3.6605136562,
				"y": 2.3903055246,
				"z": 0.8264985925,
				"element": "H" 
			},
			{
				"x": 3.2169844871,
				"y": 2.6951416821,
				"z": 2.5179750897,
				"element": "H" 
			},
			{
				"x": 2.9640387377,
				"y": -0.2645552893,
				"z": 3.4258536798,
				"element": "H" 
			},
			{
				"x": 1.8056724914,
				"y": 1.0275899384,
				"z": 3.7835802093,
				"element": "H" 
			},
			{
				"x": 1.2535845404,
				"y": -0.4686200623,
				"z": 2.9950108244,
				"element": "H" 
			}
		],
		 "valence_orbital": [ 
			{
				"type": "occ",
				"energy": -0.27356,
				"method": "rhf"
			},
			{
				"type": "occ",
				"energy": -0.27226,
				"method": "rhf"
			},
			{
				"type": "occ",
				"energy": -0.25434,
				"method": "rhf"
			},
			{
				"type": "occ",
				"energy": -0.2431,
				"method": "rhf"
			},
			{
				"type": "occ",
				"energy": -0.22572,
				"method": "rhf"
			},
			{
				"type": "unocc",
				"energy": -0.02773,
				"method": "rhf"
			},
			{
				"type": "unocc",
				"energy": 0.00906,
				"method": "rhf"
			},
			{
				"type": "unocc",
				"energy": 0.02197,
				"method": "rhf"
			},
			{
				"type": "unocc",
				"energy": 0.03928,
				"method": "rhf"
			},
			{
				"type": "unocc",
				"energy": 0.05873,
				"method": "rhf"
			}
		],
		"cosmo_sigma_profile": { 
			"-0.025": 0.0,
			"-0.024": 0.0,
			"-0.023": 0.0,
			"-0.022": 0.0,
			"-0.021": 0.0,
			"-0.02": 0.0,
			"-0.019": 0.0,
			"-0.018": 0.0,
			"-0.017": 0.0,
			"-0.016": 0.0,
			"-0.015": 0.0,
			"-0.014": 0.0,
			"-0.013": 0.0,
			"-0.012": 0.0,
			"-0.011": 0.0,
			"-0.01": 0.0,
			"-0.009": 0.0,
			"-0.008": 0.0,
			"-0.007": 0.233921953399,
			"-0.006": 5.29301045461,
			"-0.005": 18.8551730512,
			"-0.004": 44.0550884327,
			"-0.003": 50.005503342,
			"-0.002": 48.0769012523,
			"-0.001": 40.7820764126,
			"0.0": 39.655955799,
			"0.001": 27.8343214518,
			"0.002": 20.0526693131,
			"0.003": 16.4343257582,
			"0.004": 11.7758821394,
			"0.005": 8.33703680116,
			"0.006": 5.21866927773,
			"0.007": 5.44164956276,
			"0.008": 4.53240505812,
			"0.009": 3.48962963728,
			"0.01": 4.37956974571,
			"0.011": 5.53075705668,
			"0.012": 6.50365377834,
			"0.013": 3.53899430027,
			"0.014": 0.911253612721,
			"0.015": 0.0,
			"0.016": 0.0,
			"0.017": 0.0,
			"0.018": 0.0,
			"0.019": 0.0,
			"0.02": 0.0,
			"0.021": 0.0,
			"0.022": 0.0,
			"0.023": 0.0,
			"0.024": 0.0,
			"0.025": 0.0
		}
	}
}
