{
	 "smiles": "BrC1=CN=CC(=C1)C1=NN=NN1", 
	 "Tm": 499.65, 
	 "num_atms": 16, 
	 "gaussian": { 
		 "optdone": 1, 
		 "sigma_profile": "yes", 
		 "theory": "DFT", 
		 "functional": "B3LYP", 
		 "basiset": "6-31G**", 
		 "properties": { 
			 "R2extent": 5751.9768, 
			 "electric_dipole_moment_norm": 3.68388755122, 
			 "electric_quadrupole_moment_norm": 10.5738720169, 
			 "total_energy": -3076.14586008, 
			 "HOMO_LUMO_gap": 0.19111, 
			 "cosmo_polarized_energy": -18.35, 
			 "cosmo_cavitation_energy": 24.12, 
			 "cosmo_dispersion_energy": -18.43, 
			 "cosmo_repulsion_energy": 1.44, 
			 "cosmo_total_nonelectrostatic_energy": 7.13, 
			 "SMD_solvation_energy": -0.18 
		},
		"coords": [
			{
				"x": 2.3186085689,
				"y": -4.5145641735,
				"z": 1.114561221,
				"element": "Br" 
			},
			{
				"x": 0.7546453419,
				"y": -3.7048297442,
				"z": 0.3970486168,
				"element": "C" 
			},
			{
				"x": -0.3724691112,
				"y": -4.4906929238,
				"z": 0.1330153219,
				"element": "C" 
			},
			{
				"x": -1.4982133119,
				"y": -3.9787019138,
				"z": -0.3706818631,
				"element": "N" 
			},
			{
				"x": -1.5360112425,
				"y": -2.6697200154,
				"z": -0.626684082,
				"element": "C" 
			},
			{
				"x": -0.4592592285,
				"y": -1.8023403153,
				"z": -0.3960200383,
				"element": "C" 
			},
			{
				"x": 0.7222883117,
				"y": -2.3430387066,
				"z": 0.1333338753,
				"element": "C" 
			},
			{
				"x": -0.5197590874,
				"y": -0.3698450506,
				"z": -0.6831705755,
				"element": "C" 
			},
			{
				"x": 0.4609026195,
				"y": 0.4994906759,
				"z": -0.4871106354,
				"element": "N" 
			},
			{
				"x": -0.0096160759,
				"y": 1.7087408133,
				"z": -0.8826165629,
				"element": "N" 
			},
			{
				"x": -1.2270453677,
				"y": 1.622017634,
				"z": -1.3088371371,
				"element": "N" 
			},
			{
				"x": -1.5689003146,
				"y": 0.3179259447,
				"z": -1.192271318,
				"element": "N" 
			},
			{
				"x": -0.3593795147,
				"y": -5.5582054148,
				"z": 0.3352546293,
				"element": "H" 
			},
			{
				"x": -2.4751396727,
				"y": -2.3002978044,
				"z": -1.0362147158,
				"element": "H" 
			},
			{
				"x": 1.5740915469,
				"y": -1.7008990286,
				"z": 0.3239371289,
				"element": "H" 
			},
			{
				"x": -2.4903434619,
				"y": 0.0145600232,
				"z": -1.4714438651,
				"element": "H" 
			}
		],
		 "valence_orbital": [ 
			{
				"type": "occ",
				"energy": -0.31083,
				"method": "rhf"
			},
			{
				"type": "occ",
				"energy": -0.29898,
				"method": "rhf"
			},
			{
				"type": "occ",
				"energy": -0.28907,
				"method": "rhf"
			},
			{
				"type": "occ",
				"energy": -0.28661,
				"method": "rhf"
			},
			{
				"type": "occ",
				"energy": -0.2703,
				"method": "rhf"
			},
			{
				"type": "unocc",
				"energy": -0.07919,
				"method": "rhf"
			},
			{
				"type": "unocc",
				"energy": -0.05659,
				"method": "rhf"
			},
			{
				"type": "unocc",
				"energy": -0.01445,
				"method": "rhf"
			},
			{
				"type": "unocc",
				"energy": -0.0125,
				"method": "rhf"
			},
			{
				"type": "unocc",
				"energy": 0.02976,
				"method": "rhf"
			}
		],
		"cosmo_sigma_profile": { 
			"-0.025": 0.0,
			"-0.024": 0.0,
			"-0.023": 0.0,
			"-0.022": 0.0,
			"-0.021": 0.0,
			"-0.02": 0.491114631688,
			"-0.019": 1.56404724646,
			"-0.018": 1.85770636215,
			"-0.017": 1.51343353345,
			"-0.016": 1.30811620384,
			"-0.015": 1.91849121681,
			"-0.014": 0.922877043966,
			"-0.013": 0.660490017589,
			"-0.012": 2.08555474192,
			"-0.011": 1.40013787594,
			"-0.01": 1.00923117461,
			"-0.009": 1.71926438372,
			"-0.008": 4.52165175227,
			"-0.007": 4.24272917741,
			"-0.006": 5.52617285378,
			"-0.005": 8.46212124662,
			"-0.004": 10.3632267045,
			"-0.003": 11.7581831488,
			"-0.002": 17.9861424358,
			"-0.001": 20.73184316,
			"0.0": 11.2334645751,
			"0.001": 10.4126187136,
			"0.002": 9.12534156846,
			"0.003": 14.8409588483,
			"0.004": 9.1935564757,
			"0.005": 4.47135888812,
			"0.006": 4.0104973708,
			"0.007": 5.62432982616,
			"0.008": 5.91109558696,
			"0.009": 4.80784815587,
			"0.01": 6.82238300019,
			"0.011": 4.94174675169,
			"0.012": 3.14280629823,
			"0.013": 2.89892794334,
			"0.014": 1.20125747055,
			"0.015": 0.296347412573,
			"0.016": 0.0,
			"0.017": 0.0,
			"0.018": 0.0,
			"0.019": 0.0,
			"0.02": 0.0,
			"0.021": 0.0,
			"0.022": 0.0,
			"0.023": 0.0,
			"0.024": 0.0,
			"0.025": 0.0
		}
	}
}
