{
	 "smiles": "CC1=C(C)C(NC(=O)CCl)=CC(=C1)S(N)(=O)=O", 
	 "Tm": 484.15, 
	 "num_atms": 30, 
	 "gaussian": { 
		 "optdone": 1, 
		 "sigma_profile": "yes", 
		 "theory": "DFT", 
		 "functional": "B3LYP", 
		 "basiset": "6-31G**", 
		 "properties": { 
			 "R2extent": 5433.4761, 
			 "electric_dipole_moment_norm": 7.34323826455, 
			 "electric_quadrupole_moment_norm": 21.6456564613, 
			 "total_energy": -1582.40481319, 
			 "HOMO_LUMO_gap": 0.20983, 
			 "cosmo_polarized_energy": -26.95, 
			 "cosmo_cavitation_energy": 37.07, 
			 "cosmo_dispersion_energy": -25.63, 
			 "cosmo_repulsion_energy": 1.96, 
			 "cosmo_total_nonelectrostatic_energy": 13.39, 
			 "SMD_solvation_energy": 6.55 
		},
		"coords": [
			{
				"x": -1.1419735191,
				"y": -2.4971123166,
				"z": 2.704629704,
				"element": "C" 
			},
			{
				"x": -0.4425069158,
				"y": -1.4629399009,
				"z": 1.8543925813,
				"element": "C" 
			},
			{
				"x": 0.5444963645,
				"y": -1.8455620845,
				"z": 0.9189882967,
				"element": "C" 
			},
			{
				"x": 0.9006453122,
				"y": -3.3012890055,
				"z": 0.7444797371,
				"element": "C" 
			},
			{
				"x": 1.1924071113,
				"y": -0.8424623933,
				"z": 0.1654281961,
				"element": "C" 
			},
			{
				"x": 2.2120262838,
				"y": -1.1909095923,
				"z": -0.7719395901,
				"element": "N" 
			},
			{
				"x": 2.2414480233,
				"y": -0.9706833432,
				"z": -2.1316659409,
				"element": "C" 
			},
			{
				"x": 3.2297730225,
				"y": -1.2193574063,
				"z": -2.8002181659,
				"element": "O" 
			},
			{
				"x": 0.9500132097,
				"y": -0.4712461838,
				"z": -2.7839724463,
				"element": "C" 
			},
			{
				"x": 0.9884790528,
				"y": 1.3228940738,
				"z": -3.0621718805,
				"element": "Cl" 
			},
			{
				"x": 0.8765390848,
				"y": 0.507239595,
				"z": 0.3409733078,
				"element": "C" 
			},
			{
				"x": -0.1337745573,
				"y": 0.8562283346,
				"z": 1.2310789211,
				"element": "C" 
			},
			{
				"x": -0.7851392371,
				"y": -0.1129566314,
				"z": 1.9895819319,
				"element": "C" 
			},
			{
				"x": -0.5888617438,
				"y": 2.5900254657,
				"z": 1.402379973,
				"element": "S" 
			},
			{
				"x": -1.4629614781,
				"y": 2.9857405804,
				"z": 0.025223545,
				"element": "N" 
			},
			{
				"x": 0.6424208178,
				"y": 3.3725822652,
				"z": 1.3301150879,
				"element": "O" 
			},
			{
				"x": -1.529790955,
				"y": 2.6829124842,
				"z": 2.5174831499,
				"element": "O" 
			},
			{
				"x": -1.7092452332,
				"y": -3.2090358526,
				"z": 2.0929959068,
				"element": "H" 
			},
			{
				"x": -0.4280661625,
				"y": -3.0838261482,
				"z": 3.2937339337,
				"element": "H" 
			},
			{
				"x": -1.8403767033,
				"y": -2.0242354509,
				"z": 3.3986142004,
				"element": "H" 
			},
			{
				"x": 0.0028265004,
				"y": -3.9221606665,
				"z": 0.6643440366,
				"element": "H" 
			},
			{
				"x": 1.4667796982,
				"y": -3.6777678413,
				"z": 1.6060333936,
				"element": "H" 
			},
			{
				"x": 1.5045519014,
				"y": -3.463516195,
				"z": -0.149212543,
				"element": "H" 
			},
			{
				"x": 3.0787591825,
				"y": -1.5839302373,
				"z": -0.4225172261,
				"element": "H" 
			},
			{
				"x": 0.0578912891,
				"y": -0.6840853229,
				"z": -2.1967159262,
				"element": "H" 
			},
			{
				"x": 0.8851377246,
				"y": -0.9299194507,
				"z": -3.7690364583,
				"element": "H" 
			},
			{
				"x": 1.4277049806,
				"y": 1.2667888596,
				"z": -0.2008715054,
				"element": "H" 
			},
			{
				"x": -1.5463715569,
				"y": 0.1947310068,
				"z": 2.6989530233,
				"element": "H" 
			},
			{
				"x": -2.354131707,
				"y": 2.5031748283,
				"z": -0.02945857,
				"element": "H" 
			},
			{
				"x": -0.9155997906,
				"y": 2.9188785298,
				"z": -0.8282486733,
				"element": "H" 
			}
		],
		 "valence_orbital": [ 
			{
				"type": "occ",
				"energy": -0.30625,
				"method": "rhf"
			},
			{
				"type": "occ",
				"energy": -0.29683,
				"method": "rhf"
			},
			{
				"type": "occ",
				"energy": -0.27402,
				"method": "rhf"
			},
			{
				"type": "occ",
				"energy": -0.26759,
				"method": "rhf"
			},
			{
				"type": "occ",
				"energy": -0.26271,
				"method": "rhf"
			},
			{
				"type": "unocc",
				"energy": -0.05288,
				"method": "rhf"
			},
			{
				"type": "unocc",
				"energy": -0.04049,
				"method": "rhf"
			},
			{
				"type": "unocc",
				"energy": -0.02912,
				"method": "rhf"
			},
			{
				"type": "unocc",
				"energy": 0.04056,
				"method": "rhf"
			},
			{
				"type": "unocc",
				"energy": 0.04903,
				"method": "rhf"
			}
		],
		"cosmo_sigma_profile": { 
			"-0.025": 0.0,
			"-0.024": 0.0,
			"-0.023": 0.0,
			"-0.022": 0.0,
			"-0.021": 0.0,
			"-0.02": 0.0,
			"-0.019": 0.0,
			"-0.018": 0.0,
			"-0.017": 0.0,
			"-0.016": 0.145310244473,
			"-0.015": 1.69972214235,
			"-0.014": 2.47320363541,
			"-0.013": 2.09500166652,
			"-0.012": 2.07088717732,
			"-0.011": 3.72097892563,
			"-0.01": 3.33291090053,
			"-0.009": 3.74923488148,
			"-0.008": 6.89173309165,
			"-0.007": 8.54657231882,
			"-0.006": 13.144476707,
			"-0.005": 21.8301438376,
			"-0.004": 23.2680441772,
			"-0.003": 20.4758340949,
			"-0.002": 23.1898347955,
			"-0.001": 24.3980557635,
			"0.0": 18.9296411791,
			"0.001": 13.0132544093,
			"0.002": 13.6864734562,
			"0.003": 9.97354180956,
			"0.004": 7.63628026651,
			"0.005": 10.4104369539,
			"0.006": 7.51248957966,
			"0.007": 5.44422704342,
			"0.008": 5.09770112932,
			"0.009": 6.63526948968,
			"0.01": 8.23344968106,
			"0.011": 13.1998045826,
			"0.012": 9.6387367768,
			"0.013": 4.36370037573,
			"0.014": 0.584265384287,
			"0.015": 0.0,
			"0.016": 0.0,
			"0.017": 0.0,
			"0.018": 0.0,
			"0.019": 0.0,
			"0.02": 0.0,
			"0.021": 0.0,
			"0.022": 0.0,
			"0.023": 0.0,
			"0.024": 0.0,
			"0.025": 0.0
		}
	}
}
