{
	 "smiles": "NC(=O)C(Cl)C1=CC(Br)=CC=C1", 
	 "Tm": 383.15, 
	 "num_atms": 19, 
	 "gaussian": { 
		 "optdone": 1, 
		 "sigma_profile": "yes", 
		 "theory": "DFT", 
		 "functional": "B3LYP", 
		 "basiset": "6-31G**", 
		 "properties": { 
			 "R2extent": 4486.4375, 
			 "electric_dipole_moment_norm": 1.09414328586, 
			 "electric_quadrupole_moment_norm": 20.2664319615, 
			 "total_energy": -3470.65947227, 
			 "HOMO_LUMO_gap": 0.2048, 
			 "cosmo_polarized_energy": -13.11, 
			 "cosmo_cavitation_energy": 27.64, 
			 "cosmo_dispersion_energy": -20.19, 
			 "cosmo_repulsion_energy": 1.65, 
			 "cosmo_total_nonelectrostatic_energy": 9.11, 
			 "SMD_solvation_energy": 4.04 
		},
		"coords": [
			{
				"x": 0.8873560967,
				"y": -3.6528116502,
				"z": -0.694181285,
				"element": "N" 
			},
			{
				"x": 1.1286572783,
				"y": -3.5364057238,
				"z": 0.6369942088,
				"element": "C" 
			},
			{
				"x": 2.1959436157,
				"y": -3.793719734,
				"z": 1.1693496877,
				"element": "O" 
			},
			{
				"x": 0.0022534742,
				"y": -2.968533334,
				"z": 1.5221715318,
				"element": "C" 
			},
			{
				"x": -1.6842421057,
				"y": -3.2102023236,
				"z": 0.7945438244,
				"element": "Cl" 
			},
			{
				"x": 0.2198889978,
				"y": -1.515782082,
				"z": 1.8715506805,
				"element": "C" 
			},
			{
				"x": 0.5069322528,
				"y": -0.5749962722,
				"z": 0.8732242959,
				"element": "C" 
			},
			{
				"x": 0.6976862636,
				"y": 0.7568591802,
				"z": 1.2249599148,
				"element": "C" 
			},
			{
				"x": 1.0898933965,
				"y": 2.0358230886,
				"z": -0.1400402974,
				"element": "Br" 
			},
			{
				"x": 0.6113819118,
				"y": 1.1794890289,
				"z": 2.5517424325,
				"element": "C" 
			},
			{
				"x": 0.3273342666,
				"y": 0.2375289169,
				"z": 3.5399333871,
				"element": "C" 
			},
			{
				"x": 0.1311151809,
				"y": -1.1022677015,
				"z": 3.2047277443,
				"element": "C" 
			},
			{
				"x": -0.0510136437,
				"y": -3.5959489995,
				"z": -1.059165225,
				"element": "H" 
			},
			{
				"x": 1.6127155134,
				"y": -4.0694747074,
				"z": -1.2588635038,
				"element": "H" 
			},
			{
				"x": -0.0039700261,
				"y": -3.5738100685,
				"z": 2.4273769885,
				"element": "H" 
			},
			{
				"x": 0.5838563364,
				"y": -0.8797984052,
				"z": -0.1640949043,
				"element": "H" 
			},
			{
				"x": 0.765187901,
				"y": 2.2224288253,
				"z": 2.803488907,
				"element": "H" 
			},
			{
				"x": 0.2601553484,
				"y": 0.5529615199,
				"z": 4.5766306269,
				"element": "H" 
			},
			{
				"x": -0.0897320586,
				"y": -1.8296395577,
				"z": 3.9802509853,
				"element": "H" 
			}
		],
		 "valence_orbital": [ 
			{
				"type": "occ",
				"energy": -0.29217,
				"method": "rhf"
			},
			{
				"type": "occ",
				"energy": -0.2833,
				"method": "rhf"
			},
			{
				"type": "occ",
				"energy": -0.27019,
				"method": "rhf"
			},
			{
				"type": "occ",
				"energy": -0.26254,
				"method": "rhf"
			},
			{
				"type": "occ",
				"energy": -0.25086,
				"method": "rhf"
			},
			{
				"type": "unocc",
				"energy": -0.04606,
				"method": "rhf"
			},
			{
				"type": "unocc",
				"energy": -0.02416,
				"method": "rhf"
			},
			{
				"type": "unocc",
				"energy": 0.00052,
				"method": "rhf"
			},
			{
				"type": "unocc",
				"energy": 0.01219,
				"method": "rhf"
			},
			{
				"type": "unocc",
				"energy": 0.02637,
				"method": "rhf"
			}
		],
		"cosmo_sigma_profile": { 
			"-0.025": 0.0,
			"-0.024": 0.0,
			"-0.023": 0.0,
			"-0.022": 0.0,
			"-0.021": 0.0,
			"-0.02": 0.0,
			"-0.019": 0.0,
			"-0.018": 0.0,
			"-0.017": 0.0,
			"-0.016": 0.0,
			"-0.015": 0.542417020285,
			"-0.014": 1.66682520123,
			"-0.013": 1.68762233824,
			"-0.012": 2.03818902781,
			"-0.011": 1.86608254533,
			"-0.01": 3.02871638206,
			"-0.009": 3.85272255573,
			"-0.008": 5.03267090458,
			"-0.007": 9.13208734504,
			"-0.006": 10.7573807618,
			"-0.005": 10.7625885565,
			"-0.004": 9.43199326677,
			"-0.003": 10.7816352477,
			"-0.002": 10.9967367801,
			"-0.001": 11.5900029448,
			"0.0": 16.0815979526,
			"0.001": 18.3808550121,
			"0.002": 22.8003293404,
			"0.003": 23.6832172217,
			"0.004": 18.8939431231,
			"0.005": 12.2404920114,
			"0.006": 4.11426156243,
			"0.007": 0.49040174515,
			"0.008": 1.55013230685,
			"0.009": 1.69899061677,
			"0.01": 1.32063814727,
			"0.011": 1.36656621728,
			"0.012": 4.24337618818,
			"0.013": 5.18040112613,
			"0.014": 0.976045451624,
			"0.015": 0.0,
			"0.016": 0.0,
			"0.017": 0.0,
			"0.018": 0.0,
			"0.019": 0.0,
			"0.02": 0.0,
			"0.021": 0.0,
			"0.022": 0.0,
			"0.023": 0.0,
			"0.024": 0.0,
			"0.025": 0.0
		}
	}
}
