{
	 "smiles": "CC(CC(N)=O)N1N=C2C=CC=CC2=N1", 
	 "Tm": 425.15, 
	 "num_atms": 27, 
	 "gaussian": { 
		 "optdone": 1, 
		 "sigma_profile": "yes", 
		 "theory": "DFT", 
		 "functional": "B3LYP", 
		 "basiset": "6-31G**", 
		 "properties": { 
			 "R2extent": 3451.4105, 
			 "electric_dipole_moment_norm": 3.44395359725, 
			 "electric_quadrupole_moment_norm": 15.2259811884, 
			 "total_energy": -682.523201012, 
			 "HOMO_LUMO_gap": 0.17929, 
			 "cosmo_polarized_energy": -14.16, 
			 "cosmo_cavitation_energy": 30.92, 
			 "cosmo_dispersion_energy": -21.89, 
			 "cosmo_repulsion_energy": 1.73, 
			 "cosmo_total_nonelectrostatic_energy": 10.76, 
			 "SMD_solvation_energy": 4.1 
		},
		"coords": [
			{
				"x": 2.5192990584,
				"y": -1.3514151538,
				"z": 0.7981207109,
				"element": "C" 
			},
			{
				"x": 1.3478325057,
				"y": -1.262930119,
				"z": -0.1870399382,
				"element": "C" 
			},
			{
				"x": 0.4037655418,
				"y": -2.4689383956,
				"z": -0.0869841832,
				"element": "C" 
			},
			{
				"x": -0.6333751574,
				"y": -2.4992085456,
				"z": -1.2132444423,
				"element": "C" 
			},
			{
				"x": -1.8854958213,
				"y": -2.083109825,
				"z": -0.8551187365,
				"element": "N" 
			},
			{
				"x": -0.3458345594,
				"y": -2.88686831,
				"z": -2.3367032459,
				"element": "O" 
			},
			{
				"x": 0.6164303906,
				"y": 0.0035954429,
				"z": 0.0359918732,
				"element": "N" 
			},
			{
				"x": -0.4311264596,
				"y": 0.0872298087,
				"z": 0.8551269587,
				"element": "N" 
			},
			{
				"x": -0.7132289991,
				"y": 1.4124188069,
				"z": 0.8520178114,
				"element": "C" 
			},
			{
				"x": -1.7259805176,
				"y": 2.1411460038,
				"z": 1.5171136775,
				"element": "C" 
			},
			{
				"x": -1.7548784819,
				"y": 3.5030582001,
				"z": 1.3063176484,
				"element": "C" 
			},
			{
				"x": -0.8135434682,
				"y": 4.1570449897,
				"z": 0.4555750646,
				"element": "C" 
			},
			{
				"x": 0.1786319574,
				"y": 3.4631776921,
				"z": -0.2027711561,
				"element": "C" 
			},
			{
				"x": 0.2270346532,
				"y": 2.0653107928,
				"z": 0.003195495,
				"element": "C" 
			},
			{
				"x": 1.0669341235,
				"y": 1.1294159462,
				"z": -0.49894866,
				"element": "N" 
			},
			{
				"x": 3.1185234737,
				"y": -2.2406229174,
				"z": 0.5823921895,
				"element": "H" 
			},
			{
				"x": 2.1548191612,
				"y": -1.4175874797,
				"z": 1.8278308023,
				"element": "H" 
			},
			{
				"x": 3.1591934066,
				"y": -0.4702377317,
				"z": 0.7075882792,
				"element": "H" 
			},
			{
				"x": 1.7266662361,
				"y": -1.1864264771,
				"z": -1.2092864225,
				"element": "H" 
			},
			{
				"x": -0.0624356147,
				"y": -2.4942882126,
				"z": 0.9011271705,
				"element": "H" 
			},
			{
				"x": 1.0155066988,
				"y": -3.3669284492,
				"z": -0.2053235521,
				"element": "H" 
			},
			{
				"x": -2.5450878521,
				"y": -1.9509289204,
				"z": -1.6091553904,
				"element": "H" 
			},
			{
				"x": -1.9834947103,
				"y": -1.5011015428,
				"z": -0.0337519202,
				"element": "H" 
			},
			{
				"x": -2.4403664798,
				"y": 1.6444008639,
				"z": 2.1651905781,
				"element": "H" 
			},
			{
				"x": -2.5135388524,
				"y": 4.1038543507,
				"z": 1.7991752874,
				"element": "H" 
			},
			{
				"x": -0.8885402383,
				"y": 5.2329647404,
				"z": 0.3290744292,
				"element": "H" 
			},
			{
				"x": 0.8951900051,
				"y": 3.9561744416,
				"z": -0.8508103289,
				"element": "H" 
			}
		],
		 "valence_orbital": [ 
			{
				"type": "occ",
				"energy": -0.30471,
				"method": "rhf"
			},
			{
				"type": "occ",
				"energy": -0.26662,
				"method": "rhf"
			},
			{
				"type": "occ",
				"energy": -0.25684,
				"method": "rhf"
			},
			{
				"type": "occ",
				"energy": -0.24415,
				"method": "rhf"
			},
			{
				"type": "occ",
				"energy": -0.2347,
				"method": "rhf"
			},
			{
				"type": "unocc",
				"energy": -0.05541,
				"method": "rhf"
			},
			{
				"type": "unocc",
				"energy": 0.01586,
				"method": "rhf"
			},
			{
				"type": "unocc",
				"energy": 0.0211,
				"method": "rhf"
			},
			{
				"type": "unocc",
				"energy": 0.02657,
				"method": "rhf"
			},
			{
				"type": "unocc",
				"energy": 0.08869,
				"method": "rhf"
			}
		],
		"cosmo_sigma_profile": { 
			"-0.025": 0.0,
			"-0.024": 0.0,
			"-0.023": 0.0,
			"-0.022": 0.0,
			"-0.021": 0.0,
			"-0.02": 0.0,
			"-0.019": 0.0,
			"-0.018": 0.0,
			"-0.017": 0.0,
			"-0.016": 0.0,
			"-0.015": 0.0,
			"-0.014": 0.233365378068,
			"-0.013": 1.45042117147,
			"-0.012": 1.02296092886,
			"-0.011": 0.873550868988,
			"-0.01": 1.75293716518,
			"-0.009": 2.29910511553,
			"-0.008": 1.82354954148,
			"-0.007": 5.10617622084,
			"-0.006": 15.9727313379,
			"-0.005": 19.4064304485,
			"-0.004": 20.1644390727,
			"-0.003": 20.1237301942,
			"-0.002": 20.8000557888,
			"-0.001": 20.6287141387,
			"0.0": 15.4939312118,
			"0.001": 13.0809396901,
			"0.002": 15.0054689076,
			"0.003": 15.5664639266,
			"0.004": 14.1184100741,
			"0.005": 7.36714867988,
			"0.006": 3.87061802016,
			"0.007": 2.8360622391,
			"0.008": 4.5076593936,
			"0.009": 3.01695445194,
			"0.01": 2.06995362242,
			"0.011": 2.39841208987,
			"0.012": 3.07189770447,
			"0.013": 4.31268916228,
			"0.014": 5.50471500944,
			"0.015": 1.38887450049,
			"0.016": 0.0,
			"0.017": 0.0,
			"0.018": 0.0,
			"0.019": 0.0,
			"0.02": 0.0,
			"0.021": 0.0,
			"0.022": 0.0,
			"0.023": 0.0,
			"0.024": 0.0,
			"0.025": 0.0
		}
	}
}
