{
	 "smiles": "COC(=O)C1=CC(=C(C)C=C1)S(Cl)(=O)=O", 
	 "Tm": 319.15, 
	 "num_atms": 24, 
	 "gaussian": { 
		 "optdone": 1, 
		 "sigma_profile": "yes", 
		 "theory": "DFT", 
		 "functional": "B3LYP", 
		 "basiset": "6-31G**", 
		 "properties": { 
			 "R2extent": 5569.4432, 
			 "electric_dipole_moment_norm": 6.53086851958, 
			 "electric_quadrupole_moment_norm": 12.1575748322, 
			 "total_energy": -1507.60438309, 
			 "HOMO_LUMO_gap": 0.18939, 
			 "cosmo_polarized_energy": -11.82, 
			 "cosmo_cavitation_energy": 31.68, 
			 "cosmo_dispersion_energy": -23.47, 
			 "cosmo_repulsion_energy": 1.79, 
			 "cosmo_total_nonelectrostatic_energy": 10.0, 
			 "SMD_solvation_energy": 5.87 
		},
		"coords": [
			{
				"x": 4.0659590426,
				"y": -1.4479091632,
				"z": 0.3022722133,
				"element": "C" 
			},
			{
				"x": 2.7863137287,
				"y": -0.9802678231,
				"z": -0.158994113,
				"element": "O" 
			},
			{
				"x": 2.0173323153,
				"y": -0.3906364222,
				"z": 0.7803021946,
				"element": "C" 
			},
			{
				"x": 2.3552605685,
				"y": -0.2521178537,
				"z": 1.9381126979,
				"element": "O" 
			},
			{
				"x": 0.7083995853,
				"y": 0.0689773693,
				"z": 0.2291162429,
				"element": "C" 
			},
			{
				"x": -0.1790593299,
				"y": 0.7005031568,
				"z": 1.1042016918,
				"element": "C" 
			},
			{
				"x": -1.4124656463,
				"y": 1.1386373042,
				"z": 0.628654134,
				"element": "C" 
			},
			{
				"x": -1.8154872752,
				"y": 0.9843140791,
				"z": -0.7154578003,
				"element": "C" 
			},
			{
				"x": -3.1377187224,
				"y": 1.4548967281,
				"z": -1.2658858091,
				"element": "C" 
			},
			{
				"x": -0.8957004175,
				"y": 0.3487769381,
				"z": -1.5615802999,
				"element": "C" 
			},
			{
				"x": 0.3410544711,
				"y": -0.1043088286,
				"z": -1.1094476124,
				"element": "C" 
			},
			{
				"x": -2.4850868325,
				"y": 1.8932928959,
				"z": 1.8571019394,
				"element": "S" 
			},
			{
				"x": -2.3497137078,
				"y": 3.9625945914,
				"z": 1.3208845892,
				"element": "Cl" 
			},
			{
				"x": -1.8683829872,
				"y": 1.7779898659,
				"z": 3.1713904866,
				"element": "O" 
			},
			{
				"x": -3.8722072953,
				"y": 1.5067460194,
				"z": 1.6279148869,
				"element": "O" 
			},
			{
				"x": 4.5480397788,
				"y": -1.8895099509,
				"z": -0.5693862149,
				"element": "H" 
			},
			{
				"x": 3.9390848817,
				"y": -2.1923534721,
				"z": 1.0918165368,
				"element": "H" 
			},
			{
				"x": 4.6589230193,
				"y": -0.617030499,
				"z": 0.691781095,
				"element": "H" 
			},
			{
				"x": 0.1008058891,
				"y": 0.8381286957,
				"z": 2.1419831994,
				"element": "H" 
			},
			{
				"x": -3.3047502174,
				"y": 2.516436878,
				"z": -1.0603304742,
				"element": "H" 
			},
			{
				"x": -3.1675368139,
				"y": 1.3049961619,
				"z": -2.3471153015,
				"element": "H" 
			},
			{
				"x": -3.9698351717,
				"y": 0.9121806158,
				"z": -0.8100387366,
				"element": "H" 
			},
			{
				"x": -1.1653696918,
				"y": 0.209771985,
				"z": -2.6042700343,
				"element": "H" 
			},
			{
				"x": 1.0267408285,
				"y": -0.5916092716,
				"z": -1.7929255115,
				"element": "H" 
			}
		],
		 "valence_orbital": [ 
			{
				"type": "occ",
				"energy": -0.31764,
				"method": "rhf"
			},
			{
				"type": "occ",
				"energy": -0.31455,
				"method": "rhf"
			},
			{
				"type": "occ",
				"energy": -0.29327,
				"method": "rhf"
			},
			{
				"type": "occ",
				"energy": -0.29086,
				"method": "rhf"
			},
			{
				"type": "occ",
				"energy": -0.28112,
				"method": "rhf"
			},
			{
				"type": "unocc",
				"energy": -0.09173,
				"method": "rhf"
			},
			{
				"type": "unocc",
				"energy": -0.06887,
				"method": "rhf"
			},
			{
				"type": "unocc",
				"energy": -0.04502,
				"method": "rhf"
			},
			{
				"type": "unocc",
				"energy": 0.0221,
				"method": "rhf"
			},
			{
				"type": "unocc",
				"energy": 0.05705,
				"method": "rhf"
			}
		],
		"cosmo_sigma_profile": { 
			"-0.025": 0.0,
			"-0.024": 0.0,
			"-0.023": 0.0,
			"-0.022": 0.0,
			"-0.021": 0.0,
			"-0.02": 0.0,
			"-0.019": 0.0,
			"-0.018": 0.0,
			"-0.017": 0.0,
			"-0.016": 0.0,
			"-0.015": 0.0,
			"-0.014": 0.0,
			"-0.013": 0.0,
			"-0.012": 0.0,
			"-0.011": 0.0,
			"-0.01": 0.0,
			"-0.009": 0.0,
			"-0.008": 2.84757623456,
			"-0.007": 7.43778815689,
			"-0.006": 11.7037711062,
			"-0.005": 14.1190219772,
			"-0.004": 21.4415936133,
			"-0.003": 24.9062340857,
			"-0.002": 26.9165183751,
			"-0.001": 26.8256898813,
			"0.0": 22.4124707107,
			"0.001": 16.2719719015,
			"0.002": 13.4017673406,
			"0.003": 15.5285606862,
			"0.004": 10.8112414484,
			"0.005": 5.83094398354,
			"0.006": 5.67768385131,
			"0.007": 7.25909919223,
			"0.008": 9.77233629908,
			"0.009": 4.79720871786,
			"0.01": 2.33258386505,
			"0.011": 3.85799535774,
			"0.012": 1.81508482543,
			"0.013": 0.0,
			"0.014": 0.0,
			"0.015": 0.0,
			"0.016": 0.0,
			"0.017": 0.0,
			"0.018": 0.0,
			"0.019": 0.0,
			"0.02": 0.0,
			"0.021": 0.0,
			"0.022": 0.0,
			"0.023": 0.0,
			"0.024": 0.0,
			"0.025": 0.0
		}
	}
}
