{
	 "smiles": "OC(=O)C1=CC=C(Br)C=C1", 
	 "Tm": 527.15, 
	 "num_atms": 15, 
	 "gaussian": { 
		 "optdone": 1, 
		 "sigma_profile": "yes", 
		 "theory": "DFT", 
		 "functional": "B3LYP", 
		 "basiset": "6-31G**", 
		 "properties": { 
			 "R2extent": 3117.8548, 
			 "electric_dipole_moment_norm": 3.43561993532, 
			 "electric_quadrupole_moment_norm": 21.6477966094, 
			 "total_energy": -2991.61655836, 
			 "HOMO_LUMO_gap": 0.19869, 
			 "cosmo_polarized_energy": -13.45, 
			 "cosmo_cavitation_energy": 22.19, 
			 "cosmo_dispersion_energy": -16.95, 
			 "cosmo_repulsion_energy": 1.37, 
			 "cosmo_total_nonelectrostatic_energy": 6.61, 
			 "SMD_solvation_energy": 3.88 
		},
		"coords": [
			{
				"x": 2.7791293667,
				"y": 3.023031178,
				"z": 0.0228994751,
				"element": "O" 
			},
			{
				"x": 1.458330857,
				"y": 2.7033528141,
				"z": -0.0346762207,
				"element": "C" 
			},
			{
				"x": 0.6430169273,
				"y": 3.5500611512,
				"z": -0.3137610907,
				"element": "O" 
			},
			{
				"x": 1.0924492362,
				"y": 1.2793647978,
				"z": 0.2605599035,
				"element": "C" 
			},
			{
				"x": -0.2373110079,
				"y": 1.0114940334,
				"z": 0.613300126,
				"element": "C" 
			},
			{
				"x": -0.6496077809,
				"y": -0.286557667,
				"z": 0.8970769727,
				"element": "C" 
			},
			{
				"x": 0.275739392,
				"y": -1.328359483,
				"z": 0.8081843117,
				"element": "C" 
			},
			{
				"x": -0.2799721038,
				"y": -3.111088235,
				"z": 1.1919887931,
				"element": "Br" 
			},
			{
				"x": 1.5982299954,
				"y": -1.0907601209,
				"z": 0.4354676551,
				"element": "C" 
			},
			{
				"x": 2.0006237961,
				"y": 0.2159293696,
				"z": 0.1640571315,
				"element": "C" 
			},
			{
				"x": 3.2837243511,
				"y": 2.3018804623,
				"z": 0.4234168776,
				"element": "H" 
			},
			{
				"x": -0.9368469799,
				"y": 1.8390218543,
				"z": 0.6609166394,
				"element": "H" 
			},
			{
				"x": -1.675321431,
				"y": -0.4921863095,
				"z": 1.180614404,
				"element": "H" 
			},
			{
				"x": 2.2982494634,
				"y": -1.9138060588,
				"z": 0.3516400329,
				"element": "H" 
			},
			{
				"x": 3.0241659184,
				"y": 0.3825222135,
				"z": -0.1626850114,
				"element": "H" 
			}
		],
		 "valence_orbital": [ 
			{
				"type": "occ",
				"energy": -0.31942,
				"method": "rhf"
			},
			{
				"type": "occ",
				"energy": -0.30244,
				"method": "rhf"
			},
			{
				"type": "occ",
				"energy": -0.286,
				"method": "rhf"
			},
			{
				"type": "occ",
				"energy": -0.28086,
				"method": "rhf"
			},
			{
				"type": "occ",
				"energy": -0.26132,
				"method": "rhf"
			},
			{
				"type": "unocc",
				"energy": -0.06263,
				"method": "rhf"
			},
			{
				"type": "unocc",
				"energy": -0.03607,
				"method": "rhf"
			},
			{
				"type": "unocc",
				"energy": -0.00845,
				"method": "rhf"
			},
			{
				"type": "unocc",
				"energy": 0.03629,
				"method": "rhf"
			},
			{
				"type": "unocc",
				"energy": 0.05874,
				"method": "rhf"
			}
		],
		"cosmo_sigma_profile": { 
			"-0.025": 0.0,
			"-0.024": 0.0,
			"-0.023": 0.0,
			"-0.022": 0.0,
			"-0.021": 0.0,
			"-0.02": 0.0,
			"-0.019": 0.500433707689,
			"-0.018": 1.08461304889,
			"-0.017": 0.878742527849,
			"-0.016": 0.850566999313,
			"-0.015": 1.01698708031,
			"-0.014": 1.16418878534,
			"-0.013": 1.05571474884,
			"-0.012": 1.08271666677,
			"-0.011": 1.29121467954,
			"-0.01": 1.53626824193,
			"-0.009": 1.09538031843,
			"-0.008": 4.27912556755,
			"-0.007": 8.1284526751,
			"-0.006": 7.64977550139,
			"-0.005": 6.57251626363,
			"-0.004": 8.29418532751,
			"-0.003": 9.52582352035,
			"-0.002": 9.74850984878,
			"-0.001": 10.0681130664,
			"0.0": 13.739398242,
			"0.001": 20.8230835004,
			"0.002": 18.8574471495,
			"0.003": 10.4873390105,
			"0.004": 12.1363100228,
			"0.005": 3.02188239844,
			"0.006": 2.57164491657,
			"0.007": 2.92027521577,
			"0.008": 2.45568035367,
			"0.009": 3.5343040858,
			"0.01": 4.61908636778,
			"0.011": 5.6635977685,
			"0.012": 4.07427086124,
			"0.013": 1.11314274741,
			"0.014": 0.0,
			"0.015": 0.0,
			"0.016": 0.0,
			"0.017": 0.0,
			"0.018": 0.0,
			"0.019": 0.0,
			"0.02": 0.0,
			"0.021": 0.0,
			"0.022": 0.0,
			"0.023": 0.0,
			"0.024": 0.0,
			"0.025": 0.0
		}
	}
}
