{
	 "smiles": "OC(=O)C1=CC=C(C=C1)C1=NC=CC=N1", 
	 "Tm": 512.15, 
	 "num_atms": 23, 
	 "gaussian": { 
		 "optdone": 1, 
		 "sigma_profile": "yes", 
		 "theory": "DFT", 
		 "functional": "B3LYP", 
		 "basiset": "6-31G**", 
		 "properties": { 
			 "R2extent": 4321.8308, 
			 "electric_dipole_moment_norm": 6.658376245, 
			 "electric_quadrupole_moment_norm": 10.6099877191, 
			 "total_energy": -683.952495815, 
			 "HOMO_LUMO_gap": 0.17605, 
			 "cosmo_polarized_energy": -16.48, 
			 "cosmo_cavitation_energy": 28.36, 
			 "cosmo_dispersion_energy": -21.16, 
			 "cosmo_repulsion_energy": 1.62, 
			 "cosmo_total_nonelectrostatic_energy": 8.82, 
			 "SMD_solvation_energy": 4.03 
		},
		"coords": [
			{
				"x": -0.8316436858,
				"y": -2.0444437692,
				"z": 4.4426367314,
				"element": "O" 
			},
			{
				"x": -1.4511127999,
				"y": -1.9485630928,
				"z": 3.234687865,
				"element": "C" 
			},
			{
				"x": -2.510019599,
				"y": -2.502612783,
				"z": 3.0545532979,
				"element": "O" 
			},
			{
				"x": -0.7560698313,
				"y": -1.1368045605,
				"z": 2.1830911853,
				"element": "C" 
			},
			{
				"x": 0.6198179397,
				"y": -0.8633122324,
				"z": 2.2110654901,
				"element": "C" 
			},
			{
				"x": 1.2118554297,
				"y": -0.1132719913,
				"z": 1.2000415535,
				"element": "C" 
			},
			{
				"x": 0.4375696778,
				"y": 0.3811846788,
				"z": 0.1396296283,
				"element": "C" 
			},
			{
				"x": -0.9373184541,
				"y": 0.0952230506,
				"z": 0.104445877,
				"element": "C" 
			},
			{
				"x": -1.52392372,
				"y": -0.6625956756,
				"z": 1.1102241717,
				"element": "C" 
			},
			{
				"x": 1.0678991616,
				"y": 1.1895937786,
				"z": -0.936080593,
				"element": "C" 
			},
			{
				"x": 2.3898784803,
				"y": 1.422204821,
				"z": -0.8418493977,
				"element": "N" 
			},
			{
				"x": 2.9447258058,
				"y": 2.1488332264,
				"z": -1.8137942731,
				"element": "C" 
			},
			{
				"x": 2.2093682353,
				"y": 2.6534327879,
				"z": -2.8848494141,
				"element": "C" 
			},
			{
				"x": 0.8477614237,
				"y": 2.3557483217,
				"z": -2.8864359598,
				"element": "C" 
			},
			{
				"x": 0.2709833407,
				"y": 1.6312616204,
				"z": -1.9257458775,
				"element": "N" 
			},
			{
				"x": -0.0889221125,
				"y": -1.4265064417,
				"z": 4.4856038061,
				"element": "H" 
			},
			{
				"x": 1.2519191911,
				"y": -1.2662454748,
				"z": 2.9991086407,
				"element": "H" 
			},
			{
				"x": 2.2754182812,
				"y": 0.0940175809,
				"z": 1.2121528463,
				"element": "H" 
			},
			{
				"x": -1.5279618117,
				"y": 0.4740221664,
				"z": -0.7214418575,
				"element": "H" 
			},
			{
				"x": -2.581982515,
				"y": -0.8999041113,
				"z": 1.0881184951,
				"element": "H" 
			},
			{
				"x": 4.0148487165,
				"y": 2.3322407826,
				"z": -1.7302927855,
				"element": "H" 
			},
			{
				"x": 2.6692204046,
				"y": 3.2427460646,
				"z": -3.6700761429,
				"element": "H" 
			},
			{
				"x": 0.1955884414,
				"y": 2.7089512525,
				"z": -3.6836932877,
				"element": "H" 
			}
		],
		 "valence_orbital": [ 
			{
				"type": "occ",
				"energy": -0.30851,
				"method": "rhf"
			},
			{
				"type": "occ",
				"energy": -0.27286,
				"method": "rhf"
			},
			{
				"type": "occ",
				"energy": -0.26751,
				"method": "rhf"
			},
			{
				"type": "occ",
				"energy": -0.26125,
				"method": "rhf"
			},
			{
				"type": "occ",
				"energy": -0.25243,
				"method": "rhf"
			},
			{
				"type": "unocc",
				"energy": -0.07638,
				"method": "rhf"
			},
			{
				"type": "unocc",
				"energy": -0.05285,
				"method": "rhf"
			},
			{
				"type": "unocc",
				"energy": -0.01736,
				"method": "rhf"
			},
			{
				"type": "unocc",
				"energy": -0.01212,
				"method": "rhf"
			},
			{
				"type": "unocc",
				"energy": 0.05524,
				"method": "rhf"
			}
		],
		"cosmo_sigma_profile": { 
			"-0.025": 0.0,
			"-0.024": 0.0,
			"-0.023": 0.0,
			"-0.022": 0.0,
			"-0.021": 0.0,
			"-0.02": 0.0,
			"-0.019": 0.222983073155,
			"-0.018": 1.14476510578,
			"-0.017": 1.07081474005,
			"-0.016": 0.760639936143,
			"-0.015": 0.516292940885,
			"-0.014": 0.802143258958,
			"-0.013": 1.37852987725,
			"-0.012": 1.38722845737,
			"-0.011": 0.900785122405,
			"-0.01": 1.27034021388,
			"-0.009": 1.49830271182,
			"-0.008": 7.16276425743,
			"-0.007": 10.2834192831,
			"-0.006": 11.0077320147,
			"-0.005": 11.9902840911,
			"-0.004": 11.2214157609,
			"-0.003": 10.827376051,
			"-0.002": 13.9934988544,
			"-0.001": 17.9790498306,
			"0.0": 19.4840120336,
			"0.001": 16.6889638249,
			"0.002": 21.8296217784,
			"0.003": 14.567756683,
			"0.004": 5.10888083315,
			"0.005": 5.23047320716,
			"0.006": 6.72477073035,
			"0.007": 4.09681621917,
			"0.008": 5.23874841291,
			"0.009": 5.30487019619,
			"0.01": 7.27488791735,
			"0.011": 6.09347810306,
			"0.012": 4.59346960944,
			"0.013": 1.40727746294,
			"0.014": 0.00167277944778,
			"0.015": 0.0,
			"0.016": 0.0,
			"0.017": 0.0,
			"0.018": 0.0,
			"0.019": 0.0,
			"0.02": 0.0,
			"0.021": 0.0,
			"0.022": 0.0,
			"0.023": 0.0,
			"0.024": 0.0,
			"0.025": 0.0
		}
	}
}
