{
	 "smiles": "NC1=C(N=CN1CC#C)C1=CC=CC=C1", 
	 "Tm": 400.15, 
	 "num_atms": 26, 
	 "gaussian": { 
		 "optdone": 1, 
		 "sigma_profile": "yes", 
		 "theory": "DFT", 
		 "functional": "B3LYP", 
		 "basiset": "6-31G**", 
		 "properties": { 
			 "R2extent": 4174.1178, 
			 "electric_dipole_moment_norm": 3.66834327456, 
			 "electric_quadrupole_moment_norm": 7.86912919452, 
			 "total_energy": -628.080237443, 
			 "HOMO_LUMO_gap": 0.18529, 
			 "cosmo_polarized_energy": -15.78, 
			 "cosmo_cavitation_energy": 31.11, 
			 "cosmo_dispersion_energy": -21.79, 
			 "cosmo_repulsion_energy": 1.68, 
			 "cosmo_total_nonelectrostatic_energy": 11.0, 
			 "SMD_solvation_energy": 5.54 
		},
		"coords": [
			{
				"x": 1.2361340023,
				"y": -2.0261794793,
				"z": 1.6941265703,
				"element": "N" 
			},
			{
				"x": 0.6547782312,
				"y": -1.4231547457,
				"z": 0.5674888893,
				"element": "C" 
			},
			{
				"x": 0.833957546,
				"y": -0.2213533347,
				"z": -0.1023694071,
				"element": "C" 
			},
			{
				"x": 0.0840945013,
				"y": -0.2287780109,
				"z": -1.2693546296,
				"element": "N" 
			},
			{
				"x": -0.5442582309,
				"y": -1.3767342976,
				"z": -1.2921001297,
				"element": "C" 
			},
			{
				"x": -0.2261839068,
				"y": -2.1574421432,
				"z": -0.2101683846,
				"element": "N" 
			},
			{
				"x": -0.6937513115,
				"y": -3.5031991703,
				"z": 0.0942684189,
				"element": "C" 
			},
			{
				"x": -1.7007866765,
				"y": -3.5429809886,
				"z": 1.1610497497,
				"element": "C" 
			},
			{
				"x": -2.5143125439,
				"y": -3.5782712504,
				"z": 2.0521000277,
				"element": "C" 
			},
			{
				"x": 1.6852824137,
				"y": 0.9252637584,
				"z": 0.2440626884,
				"element": "C" 
			},
			{
				"x": 2.1190164123,
				"y": 1.1759668941,
				"z": 1.5589428936,
				"element": "C" 
			},
			{
				"x": 2.933415118,
				"y": 2.2707823142,
				"z": 1.8483767287,
				"element": "C" 
			},
			{
				"x": 3.3242679764,
				"y": 3.1463171513,
				"z": 0.8344723956,
				"element": "C" 
			},
			{
				"x": 2.8835929273,
				"y": 2.919288102,
				"z": -0.4723154529,
				"element": "C" 
			},
			{
				"x": 2.0751203339,
				"y": 1.8242616143,
				"z": -0.7654127965,
				"element": "C" 
			},
			{
				"x": 0.6205652708,
				"y": -2.0527757906,
				"z": 2.5034451752,
				"element": "H" 
			},
			{
				"x": 2.1068366195,
				"y": -1.5751321496,
				"z": 1.9477682308,
				"element": "H" 
			},
			{
				"x": -1.2494968114,
				"y": -1.7038339559,
				"z": -2.0448505851,
				"element": "H" 
			},
			{
				"x": 0.1746620614,
				"y": -4.1030893012,
				"z": 0.3894624685,
				"element": "H" 
			},
			{
				"x": -1.0992395506,
				"y": -3.9323604026,
				"z": -0.8278236411,
				"element": "H" 
			},
			{
				"x": -3.2443233061,
				"y": -3.6050229524,
				"z": 2.8281179544,
				"element": "H" 
			},
			{
				"x": 1.7900492802,
				"y": 0.5330369881,
				"z": 2.369675879,
				"element": "H" 
			},
			{
				"x": 3.2521605791,
				"y": 2.4458707774,
				"z": 2.8724763392,
				"element": "H" 
			},
			{
				"x": 3.9576349009,
				"y": 3.9992911658,
				"z": 1.0604882906,
				"element": "H" 
			},
			{
				"x": 3.1741860054,
				"y": 3.5991682476,
				"z": -1.2687641999,
				"element": "H" 
			},
			{
				"x": 1.7267981581,
				"y": 1.6453609599,
				"z": -1.7768634734,
				"element": "H" 
			}
		],
		 "valence_orbital": [ 
			{
				"type": "occ",
				"energy": -0.27878,
				"method": "rhf"
			},
			{
				"type": "occ",
				"energy": -0.25936,
				"method": "rhf"
			},
			{
				"type": "occ",
				"energy": -0.2428,
				"method": "rhf"
			},
			{
				"type": "occ",
				"energy": -0.23843,
				"method": "rhf"
			},
			{
				"type": "occ",
				"energy": -0.19142,
				"method": "rhf"
			},
			{
				"type": "unocc",
				"energy": -0.00613,
				"method": "rhf"
			},
			{
				"type": "unocc",
				"energy": 0.00751,
				"method": "rhf"
			},
			{
				"type": "unocc",
				"energy": 0.02199,
				"method": "rhf"
			},
			{
				"type": "unocc",
				"energy": 0.03725,
				"method": "rhf"
			},
			{
				"type": "unocc",
				"energy": 0.04107,
				"method": "rhf"
			}
		],
		"cosmo_sigma_profile": { 
			"-0.025": 0.0,
			"-0.024": 0.0,
			"-0.023": 0.0,
			"-0.022": 0.0,
			"-0.021": 0.0,
			"-0.02": 0.0,
			"-0.019": 0.0,
			"-0.018": 0.0,
			"-0.017": 0.0,
			"-0.016": 0.0,
			"-0.015": 0.0,
			"-0.014": 0.0,
			"-0.013": 0.0,
			"-0.012": 1.8432333274,
			"-0.011": 3.31239663267,
			"-0.01": 5.68067190118,
			"-0.009": 7.58027558095,
			"-0.008": 8.79295280275,
			"-0.007": 7.76552139217,
			"-0.006": 11.293959461,
			"-0.005": 14.8835895647,
			"-0.004": 13.333281993,
			"-0.003": 15.8261518309,
			"-0.002": 12.1185740551,
			"-0.001": 12.9620847496,
			"0.0": 11.9181278731,
			"0.001": 13.2050443908,
			"0.002": 15.9457331099,
			"0.003": 15.9898146419,
			"0.004": 18.0126147625,
			"0.005": 18.6474922086,
			"0.006": 20.1475476953,
			"0.007": 5.89590123692,
			"0.008": 2.0344747991,
			"0.009": 2.8709916413,
			"0.01": 2.67417260032,
			"0.011": 1.39771210357,
			"0.012": 1.85464290522,
			"0.013": 1.25330649293,
			"0.014": 0.995069265459,
			"0.015": 0.83403977446,
			"0.016": 0.909135328382,
			"0.017": 0.203386107812,
			"0.018": 0.0,
			"0.019": 0.0,
			"0.02": 0.0,
			"0.021": 0.0,
			"0.022": 0.0,
			"0.023": 0.0,
			"0.024": 0.0,
			"0.025": 0.0
		}
	}
}
