{
	 "smiles": "CCOC(=O)C(=O)CC(=O)C1=CC2=C(C=CC=C2)C=C1", 
	 "Tm": 325.15, 
	 "num_atms": 34, 
	 "gaussian": { 
		 "optdone": 1, 
		 "sigma_profile": "yes", 
		 "theory": "DFT", 
		 "functional": "B3LYP", 
		 "basiset": "6-31G**", 
		 "properties": { 
			 "R2extent": 7865.8491, 
			 "electric_dipole_moment_norm": 2.73452744912, 
			 "electric_quadrupole_moment_norm": 26.5276916218, 
			 "total_energy": -919.042968044, 
			 "HOMO_LUMO_gap": 0.14125, 
			 "cosmo_polarized_energy": -15.1, 
			 "cosmo_cavitation_energy": 39.47, 
			 "cosmo_dispersion_energy": -27.37, 
			 "cosmo_repulsion_energy": 2.09, 
			 "cosmo_total_nonelectrostatic_energy": 14.19, 
			 "SMD_solvation_energy": 8.72 
		},
		"coords": [
			{
				"x": 3.0941934272,
				"y": -4.576400497,
				"z": -0.8105503311,
				"element": "C" 
			},
			{
				"x": 2.8728878313,
				"y": -3.5913826612,
				"z": -1.9410709309,
				"element": "C" 
			},
			{
				"x": 3.0003222863,
				"y": -2.258691019,
				"z": -1.3807754902,
				"element": "O" 
			},
			{
				"x": 2.690618326,
				"y": -1.2374682974,
				"z": -2.1910910566,
				"element": "C" 
			},
			{
				"x": 2.3703813976,
				"y": -1.3283250695,
				"z": -3.3518500083,
				"element": "O" 
			},
			{
				"x": 2.7826276786,
				"y": 0.1175800082,
				"z": -1.4436304588,
				"element": "C" 
			},
			{
				"x": 2.7765785205,
				"y": 1.1377803783,
				"z": -2.0955491896,
				"element": "O" 
			},
			{
				"x": 2.8421313019,
				"y": 0.0951458995,
				"z": 0.0785170637,
				"element": "C" 
			},
			{
				"x": 1.4664848837,
				"y": -0.2065394861,
				"z": 0.7182308214,
				"element": "C" 
			},
			{
				"x": 1.2283354698,
				"y": -1.3329166045,
				"z": 1.1226109092,
				"element": "O" 
			},
			{
				"x": 0.4712266089,
				"y": 0.8998361396,
				"z": 0.8371968325,
				"element": "C" 
			},
			{
				"x": -0.6923018645,
				"y": 0.6412077411,
				"z": 1.5461984364,
				"element": "C" 
			},
			{
				"x": -1.6853703027,
				"y": 1.6321387004,
				"z": 1.7197744021,
				"element": "C" 
			},
			{
				"x": -1.4804593158,
				"y": 2.9275690534,
				"z": 1.1382979467,
				"element": "C" 
			},
			{
				"x": -2.4790871999,
				"y": 3.9220202866,
				"z": 1.3128159403,
				"element": "C" 
			},
			{
				"x": -3.6244953065,
				"y": 3.6496893706,
				"z": 2.0272059195,
				"element": "C" 
			},
			{
				"x": -3.8278871589,
				"y": 2.369664207,
				"z": 2.6024004508,
				"element": "C" 
			},
			{
				"x": -2.8800821144,
				"y": 1.3841193022,
				"z": 2.4520295798,
				"element": "C" 
			},
			{
				"x": -0.2859388638,
				"y": 3.1661731648,
				"z": 0.4061953735,
				"element": "C" 
			},
			{
				"x": 0.6685660105,
				"y": 2.1876257876,
				"z": 0.2594819286,
				"element": "C" 
			},
			{
				"x": 2.9718024242,
				"y": -5.5988531324,
				"z": -1.1809495583,
				"element": "H" 
			},
			{
				"x": 4.1017302235,
				"y": -4.4791192937,
				"z": -0.396119971,
				"element": "H" 
			},
			{
				"x": 2.3722170695,
				"y": -4.4044511821,
				"z": -0.0078307516,
				"element": "H" 
			},
			{
				"x": 3.6079858069,
				"y": -3.7002374401,
				"z": -2.7450150325,
				"element": "H" 
			},
			{
				"x": 1.8774016395,
				"y": -3.6824362759,
				"z": -2.3851256907,
				"element": "H" 
			},
			{
				"x": 3.2166259585,
				"y": 1.0664028623,
				"z": 0.4081528052,
				"element": "H" 
			},
			{
				"x": 3.5070048714,
				"y": -0.703544167,
				"z": 0.4080215421,
				"element": "H" 
			},
			{
				"x": -0.8292289815,
				"y": -0.3470116021,
				"z": 1.9747733528,
				"element": "H" 
			},
			{
				"x": -2.3248633127,
				"y": 4.9032096268,
				"z": 0.8717352566,
				"element": "H" 
			},
			{
				"x": -4.3812307802,
				"y": 4.4186452268,
				"z": 2.1530905506,
				"element": "H" 
			},
			{
				"x": -4.7370991157,
				"y": 2.17176587,
				"z": 3.1622361265,
				"element": "H" 
			},
			{
				"x": -3.0294870933,
				"y": 0.4007739715,
				"z": 2.8898039773,
				"element": "H" 
			},
			{
				"x": -0.1357213625,
				"y": 4.1432584652,
				"z": -0.0450831505,
				"element": "H" 
			},
			{
				"x": 1.5573310369,
				"y": 2.3936706659,
				"z": -0.3263275955,
				"element": "H" 
			}
		],
		 "valence_orbital": [ 
			{
				"type": "occ",
				"energy": -0.29412,
				"method": "rhf"
			},
			{
				"type": "occ",
				"energy": -0.26934,
				"method": "rhf"
			},
			{
				"type": "occ",
				"energy": -0.25544,
				"method": "rhf"
			},
			{
				"type": "occ",
				"energy": -0.25489,
				"method": "rhf"
			},
			{
				"type": "occ",
				"energy": -0.22638,
				"method": "rhf"
			},
			{
				"type": "unocc",
				"energy": -0.08513,
				"method": "rhf"
			},
			{
				"type": "unocc",
				"energy": -0.06462,
				"method": "rhf"
			},
			{
				"type": "unocc",
				"energy": -0.03633,
				"method": "rhf"
			},
			{
				"type": "unocc",
				"energy": 0.00829,
				"method": "rhf"
			},
			{
				"type": "unocc",
				"energy": 0.02874,
				"method": "rhf"
			}
		],
		"cosmo_sigma_profile": { 
			"-0.025": 0.0,
			"-0.024": 0.0,
			"-0.023": 0.0,
			"-0.022": 0.0,
			"-0.021": 0.0,
			"-0.02": 0.0,
			"-0.019": 0.0,
			"-0.018": 0.0,
			"-0.017": 0.0,
			"-0.016": 0.0,
			"-0.015": 0.0,
			"-0.014": 0.0,
			"-0.013": 0.0,
			"-0.012": 0.0,
			"-0.011": 0.0,
			"-0.01": 0.370663375965,
			"-0.009": 0.809046175935,
			"-0.008": 2.6863111391,
			"-0.007": 9.13097450295,
			"-0.006": 25.2237043299,
			"-0.005": 28.551796749,
			"-0.004": 29.9408937951,
			"-0.003": 23.4206546043,
			"-0.002": 20.8487800495,
			"-0.001": 17.9224598251,
			"0.0": 19.5660277864,
			"0.001": 17.772708481,
			"0.002": 24.4922193567,
			"0.003": 27.2802686522,
			"0.004": 17.8386900215,
			"0.005": 5.51658932254,
			"0.006": 4.54043059853,
			"0.007": 5.48975669346,
			"0.008": 6.8031345453,
			"0.009": 7.98300731786,
			"0.01": 8.39746719738,
			"0.011": 7.84536503521,
			"0.012": 2.51571288951,
			"0.013": 0.293606442416,
			"0.014": 0.0,
			"0.015": 0.0,
			"0.016": 0.0,
			"0.017": 0.0,
			"0.018": 0.0,
			"0.019": 0.0,
			"0.02": 0.0,
			"0.021": 0.0,
			"0.022": 0.0,
			"0.023": 0.0,
			"0.024": 0.0,
			"0.025": 0.0
		}
	}
}
