{
	 "smiles": "OC(=O)C1=CC(NC(=O)CC2SC(=NC2=O)N2CCCCC2)=CC=C1", 
	 "Tm": 462.15, 
	 "num_atms": 44, 
	 "gaussian": { 
		 "optdone": 1, 
		 "sigma_profile": "yes", 
		 "theory": "DFT", 
		 "functional": "B3LYP", 
		 "basiset": "6-31G**", 
		 "properties": { 
			 "R2extent": 11720.4566, 
			 "electric_dipole_moment_norm": 12.4293918025, 
			 "electric_quadrupole_moment_norm": 31.2614592455, 
			 "total_energy": -1522.63940347, 
			 "HOMO_LUMO_gap": 0.18735, 
			 "cosmo_polarized_energy": -33.15, 
			 "cosmo_cavitation_energy": 48.23, 
			 "cosmo_dispersion_energy": -33.43, 
			 "cosmo_repulsion_energy": 2.51, 
			 "cosmo_total_nonelectrostatic_energy": 17.31, 
			 "SMD_solvation_energy": 7.2 
		},
		"coords": [
			{
				"x": 5.0646754052,
				"y": -3.7200579983,
				"z": 1.0330150735,
				"element": "O" 
			},
			{
				"x": 5.1517254512,
				"y": -2.4188418221,
				"z": 1.4056957432,
				"element": "C" 
			},
			{
				"x": 6.2362059047,
				"y": -1.9130726709,
				"z": 1.5832948277,
				"element": "O" 
			},
			{
				"x": 3.8615745287,
				"y": -1.6694988067,
				"z": 1.5879703261,
				"element": "C" 
			},
			{
				"x": 2.6483467777,
				"y": -2.1388543065,
				"z": 1.0706789147,
				"element": "C" 
			},
			{
				"x": 1.4718217391,
				"y": -1.4020340232,
				"z": 1.2716562839,
				"element": "C" 
			},
			{
				"x": 0.2163276692,
				"y": -1.8067917595,
				"z": 0.7775921711,
				"element": "N" 
			},
			{
				"x": -0.1173376221,
				"y": -3.0041434781,
				"z": 0.1864844006,
				"element": "C" 
			},
			{
				"x": 0.6737969052,
				"y": -3.918524133,
				"z": 0.0033714844,
				"element": "O" 
			},
			{
				"x": -1.5943821846,
				"y": -3.1797322585,
				"z": -0.1901709897,
				"element": "C" 
			},
			{
				"x": -2.3549790486,
				"y": -2.0275224361,
				"z": -0.870791329,
				"element": "C" 
			},
			{
				"x": -2.7552842461,
				"y": -0.5536556672,
				"z": 0.1528929312,
				"element": "S" 
			},
			{
				"x": -2.0953246837,
				"y": 0.4975206994,
				"z": -1.1769427087,
				"element": "C" 
			},
			{
				"x": -1.5797494506,
				"y": -0.0987113901,
				"z": -2.214960828,
				"element": "N" 
			},
			{
				"x": -1.6156728066,
				"y": -1.4778351491,
				"z": -2.1326114693,
				"element": "C" 
			},
			{
				"x": -1.1528440052,
				"y": -2.2531815848,
				"z": -2.9426492707,
				"element": "O" 
			},
			{
				"x": -2.1540332842,
				"y": 1.829082919,
				"z": -1.0435105212,
				"element": "N" 
			},
			{
				"x": -2.757962739,
				"y": 2.4926198253,
				"z": 0.1237927446,
				"element": "C" 
			},
			{
				"x": -3.2892784697,
				"y": 3.8726062804,
				"z": -0.2726417784,
				"element": "C" 
			},
			{
				"x": -2.1681850841,
				"y": 4.7958563737,
				"z": -0.7997778515,
				"element": "C" 
			},
			{
				"x": -1.0470458474,
				"y": 3.9858318019,
				"z": -1.4906792138,
				"element": "C" 
			},
			{
				"x": -1.5670704962,
				"y": 2.6841953966,
				"z": -2.1011533934,
				"element": "C" 
			},
			{
				"x": 1.5328764061,
				"y": -0.1949535832,
				"z": 1.9860568584,
				"element": "C" 
			},
			{
				"x": 2.7472973169,
				"y": 0.2711884756,
				"z": 2.4841692684,
				"element": "C" 
			},
			{
				"x": 3.9171184663,
				"y": -0.4574145098,
				"z": 2.2858251771,
				"element": "C" 
			},
			{
				"x": 4.1435533167,
				"y": -4.016395121,
				"z": 1.0381815554,
				"element": "H" 
			},
			{
				"x": 2.5750957309,
				"y": -3.0478803296,
				"z": 0.4887135288,
				"element": "H" 
			},
			{
				"x": -0.544489939,
				"y": -1.1524238732,
				"z": 0.9250379109,
				"element": "H" 
			},
			{
				"x": -1.5967515286,
				"y": -4.0110240613,
				"z": -0.898027126,
				"element": "H" 
			},
			{
				"x": -2.1390447601,
				"y": -3.5132504564,
				"z": 0.7015698266,
				"element": "H" 
			},
			{
				"x": -3.3117402511,
				"y": -2.4315818107,
				"z": -1.216149584,
				"element": "H" 
			},
			{
				"x": -2.0168822051,
				"y": 2.5850467125,
				"z": 0.9307476169,
				"element": "H" 
			},
			{
				"x": -3.5757488087,
				"y": 1.8703463894,
				"z": 0.4981183211,
				"element": "H" 
			},
			{
				"x": -4.0594383073,
				"y": 3.7336854668,
				"z": -1.0398427625,
				"element": "H" 
			},
			{
				"x": -3.7888752725,
				"y": 4.319498817,
				"z": 0.5925555481,
				"element": "H" 
			},
			{
				"x": -2.6008359547,
				"y": 5.519421273,
				"z": -1.4986522447,
				"element": "H" 
			},
			{
				"x": -1.7403148276,
				"y": 5.3786414751,
				"z": 0.0229184109,
				"element": "H" 
			},
			{
				"x": -0.5690975625,
				"y": 4.5765909882,
				"z": -2.2782594372,
				"element": "H" 
			},
			{
				"x": -0.2589197421,
				"y": 3.7381833087,
				"z": -0.7700039684,
				"element": "H" 
			},
			{
				"x": -2.3277477452,
				"y": 2.8845841624,
				"z": -2.8672903169,
				"element": "H" 
			},
			{
				"x": -0.7720161841,
				"y": 2.11181134,
				"z": -2.579241657,
				"element": "H" 
			},
			{
				"x": 0.6227451636,
				"y": 0.3773891524,
				"z": 2.1493080959,
				"element": "H" 
			},
			{
				"x": 2.7759576297,
				"y": 1.2083514558,
				"z": 3.0320343338,
				"element": "H" 
			},
			{
				"x": 4.8747346456,
				"y": -0.1139710841,
				"z": 2.659575097,
				"element": "H" 
			}
		],
		 "valence_orbital": [ 
			{
				"type": "occ",
				"energy": -0.26619,
				"method": "rhf"
			},
			{
				"type": "occ",
				"energy": -0.26154,
				"method": "rhf"
			},
			{
				"type": "occ",
				"energy": -0.25616,
				"method": "rhf"
			},
			{
				"type": "occ",
				"energy": -0.25571,
				"method": "rhf"
			},
			{
				"type": "occ",
				"energy": -0.23296,
				"method": "rhf"
			},
			{
				"type": "unocc",
				"energy": -0.04561,
				"method": "rhf"
			},
			{
				"type": "unocc",
				"energy": -0.04038,
				"method": "rhf"
			},
			{
				"type": "unocc",
				"energy": -0.02434,
				"method": "rhf"
			},
			{
				"type": "unocc",
				"energy": -0.01764,
				"method": "rhf"
			},
			{
				"type": "unocc",
				"energy": 0.02473,
				"method": "rhf"
			}
		],
		"cosmo_sigma_profile": { 
			"-0.025": 0.0,
			"-0.024": 0.0,
			"-0.023": 0.0,
			"-0.022": 0.0,
			"-0.021": 0.0,
			"-0.02": 0.0,
			"-0.019": 0.0,
			"-0.018": 0.0643504110706,
			"-0.017": 0.867466507204,
			"-0.016": 0.51987735966,
			"-0.015": 0.630260090108,
			"-0.014": 1.31042284045,
			"-0.013": 0.950058548595,
			"-0.012": 1.17796424232,
			"-0.011": 1.12412228671,
			"-0.01": 2.11401058174,
			"-0.009": 3.39789543033,
			"-0.008": 9.97149229535,
			"-0.007": 13.4313425338,
			"-0.006": 15.7859606316,
			"-0.005": 25.1279763536,
			"-0.004": 40.1694880246,
			"-0.003": 42.0031242778,
			"-0.002": 30.6744827644,
			"-0.001": 26.1709688324,
			"0.0": 24.1181089517,
			"0.001": 19.6291456914,
			"0.002": 18.1860518911,
			"0.003": 18.5403030989,
			"0.004": 10.3045580979,
			"0.005": 7.22322043388,
			"0.006": 7.29958288296,
			"0.007": 5.09245626711,
			"0.008": 6.02080138562,
			"0.009": 7.98548035705,
			"0.01": 8.22437806262,
			"0.011": 10.2399564544,
			"0.012": 13.5328000043,
			"0.013": 9.20164652816,
			"0.014": 2.80091963959,
			"0.015": 0.0963031184094,
			"0.016": 0.0,
			"0.017": 0.0,
			"0.018": 0.0,
			"0.019": 0.0,
			"0.02": 0.0,
			"0.021": 0.0,
			"0.022": 0.0,
			"0.023": 0.0,
			"0.024": 0.0,
			"0.025": 0.0
		}
	}
}
