{
	 "smiles": "IC1=CN=C(I)C=C1", 
	 "Tm": 428.15, 
	 "num_atms": 11, 
	 "gaussian": { 
		 "optdone": 1, 
		 "sigma_profile": "no", 
		 "theory": "DFT", 
		 "functional": "B3LYP", 
		 "basiset": "6-31G**", 
		 "properties": { 
			 "R2extent": 1217.444, 
			 "electric_dipole_moment_norm": 2.27396012278, 
			 "electric_quadrupole_moment_norm": 5.92163895894, 
			 "total_energy": -269.851457686, 
			 "HOMO_LUMO_gap": 0.19537, 
			 "cosmo_polarized_energy": -189225.89, 
			 "cosmo_cavitation_energy": 22.0, 
			 "cosmo_dispersion_energy": -19.35, 
			 "cosmo_repulsion_energy": 1.53, 
			 "cosmo_total_nonelectrostatic_energy": 4.17, 
			 "SMD_solvation_energy": 0.6 
		},
		"coords": [
			{
				"x": -2.3566185649,
				"y": 1.5873214963,
				"z": -0.8269139058,
				"element": "I" 
			},
			{
				"x": -0.4638232083,
				"y": 0.7857406049,
				"z": -0.3426318612,
				"element": "C" 
			},
			{
				"x": 0.479494935,
				"y": 0.562830497,
				"z": -1.3476783375,
				"element": "C" 
			},
			{
				"x": 1.6919834167,
				"y": 0.0563607991,
				"z": -1.0880797606,
				"element": "N" 
			},
			{
				"x": 1.9950420072,
				"y": -0.238282387,
				"z": 0.162356206,
				"element": "C" 
			},
			{
				"x": 3.9375402802,
				"y": -1.0431326517,
				"z": 0.5298844445,
				"element": "I" 
			},
			{
				"x": 1.1279983158,
				"y": -0.0556877329,
				"z": 1.2443119595,
				"element": "C" 
			},
			{
				"x": -0.1339975389,
				"y": 0.4709508489,
				"z": 0.977580131,
				"element": "C" 
			},
			{
				"x": 0.2622676521,
				"y": 0.7942462267,
				"z": -2.3864427717,
				"element": "H" 
			},
			{
				"x": 1.4240985341,
				"y": -0.3134400477,
				"z": 2.2541320071,
				"element": "H" 
			},
			{
				"x": -0.8409858288,
				"y": 0.6304923465,
				"z": 1.7844818887,
				"element": "H" 
			}
		],
		 "valence_orbital": [ 
			{
				"type": "occ",
				"energy": -0.28955,
				"method": "rhf"
			},
			{
				"type": "occ",
				"energy": -0.28209,
				"method": "rhf"
			},
			{
				"type": "occ",
				"energy": -0.28102,
				"method": "rhf"
			},
			{
				"type": "occ",
				"energy": -0.26923,
				"method": "rhf"
			},
			{
				"type": "occ",
				"energy": -0.24969,
				"method": "rhf"
			},
			{
				"type": "unocc",
				"energy": -0.05432,
				"method": "rhf"
			},
			{
				"type": "unocc",
				"energy": -0.05339,
				"method": "rhf"
			},
			{
				"type": "unocc",
				"energy": -0.0463,
				"method": "rhf"
			},
			{
				"type": "unocc",
				"energy": -0.04516,
				"method": "rhf"
			},
			{
				"type": "unocc",
				"energy": 0.03258,
				"method": "rhf"
			}
		],
		"cosmo_sigma_profile": { 
			"0.0": 0.0,
			"0.0": 0.0,
			"0.0": 0.0,
			"0.0": 0.0,
			"0.0": 0.0,
			"0.0": 0.0,
			"0.0": 0.0,
			"0.0": 0.0,
			"0.0": 0.0,
			"0.0": 0.0,
			"0.0": 0.0,
			"0.0": 0.0,
			"0.0": 0.0,
			"0.0": 0.0,
			"0.0": 0.0,
			"0.0": 0.0,
			"0.0": 0.0,
			"0.0": 0.0,
			"0.0": 0.0,
			"0.0": 0.0,
			"0.0": 0.0,
			"0.0": 0.0,
			"0.0": 0.0,
			"0.0": 0.0,
			"0.0": 0.0,
			"0.0": 0.0,
			"0.0": 0.0,
			"0.0": 0.0,
			"0.0": 0.0,
			"0.0": 0.0,
			"0.0": 0.0,
			"0.0": 0.0,
			"0.0": 0.0,
			"0.0": 0.0,
			"0.0": 0.0,
			"0.0": 0.0,
			"0.0": 0.0,
			"0.0": 0.0,
			"0.0": 0.0,
			"0.0": 0.0,
			"0.0": 0.0,
			"0.0": 0.0,
			"0.0": 0.0,
			"0.0": 0.0,
			"0.0": 0.0,
			"0.0": 0.0,
			"0.0": 0.0,
			"0.0": 0.0,
			"0.0": 0.0,
			"0.0": 0.0,
			"0.0": 0.0
		}
	}
}
