{
	 "smiles": "COC1=CC(=O)OC(C)=C1", 
	 "Tm": 359.15, 
	 "num_atms": 18, 
	 "gaussian": { 
		 "optdone": 1, 
		 "sigma_profile": "yes", 
		 "theory": "DFT", 
		 "functional": "B3LYP", 
		 "basiset": "6-31G**", 
		 "properties": { 
			 "R2extent": 1733.8598, 
			 "electric_dipole_moment_norm": 6.58191300003, 
			 "electric_quadrupole_moment_norm": 6.67622583351, 
			 "total_energy": -497.21976745, 
			 "HOMO_LUMO_gap": 0.17726, 
			 "cosmo_polarized_energy": -14.24, 
			 "cosmo_cavitation_energy": 22.31, 
			 "cosmo_dispersion_energy": -16.6, 
			 "cosmo_repulsion_energy": 1.36, 
			 "cosmo_total_nonelectrostatic_energy": 7.06, 
			 "SMD_solvation_energy": 6.3 
		},
		"coords": [
			{
				"x": 3.2691314917,
				"y": 1.1968733358,
				"z": 0.0698060093,
				"element": "C" 
			},
			{
				"x": 2.180088697,
				"y": 0.897945126,
				"z": 0.9382491075,
				"element": "O" 
			},
			{
				"x": 1.1962309496,
				"y": 0.0723951804,
				"z": 0.5162711378,
				"element": "C" 
			},
			{
				"x": 0.173476357,
				"y": -0.179698481,
				"z": 1.3936270548,
				"element": "C" 
			},
			{
				"x": -0.9202417497,
				"y": -1.0395125556,
				"z": 1.0496511022,
				"element": "C" 
			},
			{
				"x": -1.8807622982,
				"y": -1.3503087996,
				"z": 1.7125365589,
				"element": "O" 
			},
			{
				"x": -0.850672688,
				"y": -1.6021903465,
				"z": -0.2694081152,
				"element": "O" 
			},
			{
				"x": 0.1576956869,
				"y": -1.3459147966,
				"z": -1.1174304257,
				"element": "C" 
			},
			{
				"x": -0.00183525,
				"y": -2.0512920141,
				"z": -2.4272100934,
				"element": "C" 
			},
			{
				"x": 1.1936357821,
				"y": -0.529488334,
				"z": -0.7873172126,
				"element": "C" 
			},
			{
				"x": 2.9314246896,
				"y": 1.7012788652,
				"z": -0.8429144017,
				"element": "H" 
			},
			{
				"x": 3.9162468179,
				"y": 1.8708728745,
				"z": 0.6319981213,
				"element": "H" 
			},
			{
				"x": 3.8334472911,
				"y": 0.295468389,
				"z": -0.1957678745,
				"element": "H" 
			},
			{
				"x": 0.1651754146,
				"y": 0.2683564622,
				"z": 2.3784621969,
				"element": "H" 
			},
			{
				"x": 0.8293501939,
				"y": -1.8276974567,
				"z": -3.0986997653,
				"element": "H" 
			},
			{
				"x": -0.9394569615,
				"y": -1.7506147446,
				"z": -2.9066798975,
				"element": "H" 
			},
			{
				"x": -0.0527958306,
				"y": -3.1338930094,
				"z": -2.2697196935,
				"element": "H" 
			},
			{
				"x": 1.9811614067,
				"y": -0.355279695,
				"z": -1.5060538094,
				"element": "H" 
			}
		],
		 "valence_orbital": [ 
			{
				"type": "occ",
				"energy": -0.34568,
				"method": "rhf"
			},
			{
				"type": "occ",
				"energy": -0.34504,
				"method": "rhf"
			},
			{
				"type": "occ",
				"energy": -0.27995,
				"method": "rhf"
			},
			{
				"type": "occ",
				"energy": -0.26153,
				"method": "rhf"
			},
			{
				"type": "occ",
				"energy": -0.21978,
				"method": "rhf"
			},
			{
				"type": "unocc",
				"energy": -0.04252,
				"method": "rhf"
			},
			{
				"type": "unocc",
				"energy": 0.02113,
				"method": "rhf"
			},
			{
				"type": "unocc",
				"energy": 0.07631,
				"method": "rhf"
			},
			{
				"type": "unocc",
				"energy": 0.09351,
				"method": "rhf"
			},
			{
				"type": "unocc",
				"energy": 0.10864,
				"method": "rhf"
			}
		],
		"cosmo_sigma_profile": { 
			"-0.025": 0.0,
			"-0.024": 0.0,
			"-0.023": 0.0,
			"-0.022": 0.0,
			"-0.021": 0.0,
			"-0.02": 0.0,
			"-0.019": 0.0,
			"-0.018": 0.0,
			"-0.017": 0.0,
			"-0.016": 0.0,
			"-0.015": 0.0,
			"-0.014": 0.0,
			"-0.013": 0.0,
			"-0.012": 0.0,
			"-0.011": 0.0,
			"-0.01": 0.0,
			"-0.009": 0.181738633945,
			"-0.008": 2.92568122063,
			"-0.007": 7.48490277642,
			"-0.006": 17.1309942114,
			"-0.005": 14.8632568036,
			"-0.004": 17.1172140041,
			"-0.003": 13.7388656481,
			"-0.002": 16.4690172381,
			"-0.001": 13.1278831299,
			"0.0": 9.32663839733,
			"0.001": 9.16903056978,
			"0.002": 9.22349577144,
			"0.003": 7.07806701304,
			"0.004": 4.48096300726,
			"0.005": 3.64728710562,
			"0.006": 2.79414083336,
			"0.007": 3.86297193102,
			"0.008": 3.29704069983,
			"0.009": 3.12398097695,
			"0.01": 2.60607924864,
			"0.011": 2.77759148204,
			"0.012": 3.59829435631,
			"0.013": 7.1122289839,
			"0.014": 2.31508967688,
			"0.015": 0.0221086665082,
			"0.016": 0.0,
			"0.017": 0.0,
			"0.018": 0.0,
			"0.019": 0.0,
			"0.02": 0.0,
			"0.021": 0.0,
			"0.022": 0.0,
			"0.023": 0.0,
			"0.024": 0.0,
			"0.025": 0.0
		}
	}
}
