{
	 "smiles": "O=S1(=O)CC2=CC=CC=C2C1", 
	 "Tm": 425.15, 
	 "num_atms": 19, 
	 "gaussian": { 
		 "optdone": 1, 
		 "sigma_profile": "yes", 
		 "theory": "DFT", 
		 "functional": "B3LYP", 
		 "basiset": "6-31G**", 
		 "properties": { 
			 "R2extent": 2139.0357, 
			 "electric_dipole_moment_norm": 5.26595716845, 
			 "electric_quadrupole_moment_norm": 14.0544269015, 
			 "total_energy": -858.245382393, 
			 "HOMO_LUMO_gap": 0.23337, 
			 "cosmo_polarized_energy": -14.39, 
			 "cosmo_cavitation_energy": 23.55, 
			 "cosmo_dispersion_energy": -18.4, 
			 "cosmo_repulsion_energy": 1.41, 
			 "cosmo_total_nonelectrostatic_energy": 6.57, 
			 "SMD_solvation_energy": 2.88 
		},
		"coords": [
			{
				"x": 2.0297941794,
				"y": -0.4934404703,
				"z": -2.7206751081,
				"element": "O" 
			},
			{
				"x": 0.8746370862,
				"y": -1.1252385403,
				"z": -2.0650216006,
				"element": "S" 
			},
			{
				"x": 0.453990281,
				"y": -2.4857745641,
				"z": -2.433032195,
				"element": "O" 
			},
			{
				"x": 1.0811835429,
				"y": -1.0250647487,
				"z": -0.2398784546,
				"element": "C" 
			},
			{
				"x": -0.003914678,
				"y": -0.0975373093,
				"z": 0.2437849529,
				"element": "C" 
			},
			{
				"x": -0.1937310172,
				"y": 0.2459087711,
				"z": 1.5853605825,
				"element": "C" 
			},
			{
				"x": -1.2256972557,
				"y": 1.1129722762,
				"z": 1.9411285858,
				"element": "C" 
			},
			{
				"x": -2.0708732098,
				"y": 1.6396158266,
				"z": 0.9598245445,
				"element": "C" 
			},
			{
				"x": -1.8861624538,
				"y": 1.3005291239,
				"z": -0.3796648722,
				"element": "C" 
			},
			{
				"x": -0.8530155513,
				"y": 0.4315892291,
				"z": -0.7421117178,
				"element": "C" 
			},
			{
				"x": -0.5729368068,
				"y": 0.0058255983,
				"z": -2.1605441567,
				"element": "C" 
			},
			{
				"x": 0.9923196652,
				"y": -2.0442216031,
				"z": 0.1467499653,
				"element": "H" 
			},
			{
				"x": 2.0924713117,
				"y": -0.6524102996,
				"z": -0.0541719186,
				"element": "H" 
			},
			{
				"x": 0.4628585864,
				"y": -0.16316725,
				"z": 2.3481720358,
				"element": "H" 
			},
			{
				"x": -1.371994288,
				"y": 1.3789206805,
				"z": 2.983703264,
				"element": "H" 
			},
			{
				"x": -2.8738741664,
				"y": 2.3147579424,
				"z": 1.2399434275,
				"element": "H" 
			},
			{
				"x": -2.5431416912,
				"y": 1.7100060282,
				"z": -1.1419258582,
				"element": "H" 
			},
			{
				"x": -0.2885980853,
				"y": 0.8315636228,
				"z": -2.8188484532,
				"element": "H" 
			},
			{
				"x": -1.3891154495,
				"y": -0.5600343136,
				"z": -2.6184930233,
				"element": "H" 
			}
		],
		 "valence_orbital": [ 
			{
				"type": "occ",
				"energy": -0.30956,
				"method": "rhf"
			},
			{
				"type": "occ",
				"energy": -0.29491,
				"method": "rhf"
			},
			{
				"type": "occ",
				"energy": -0.28343,
				"method": "rhf"
			},
			{
				"type": "occ",
				"energy": -0.26856,
				"method": "rhf"
			},
			{
				"type": "occ",
				"energy": -0.2637,
				"method": "rhf"
			},
			{
				"type": "unocc",
				"energy": -0.03033,
				"method": "rhf"
			},
			{
				"type": "unocc",
				"energy": -0.02155,
				"method": "rhf"
			},
			{
				"type": "unocc",
				"energy": 0.05021,
				"method": "rhf"
			},
			{
				"type": "unocc",
				"energy": 0.06843,
				"method": "rhf"
			},
			{
				"type": "unocc",
				"energy": 0.06973,
				"method": "rhf"
			}
		],
		"cosmo_sigma_profile": { 
			"-0.025": 0.0,
			"-0.024": 0.0,
			"-0.023": 0.0,
			"-0.022": 0.0,
			"-0.021": 0.0,
			"-0.02": 0.0,
			"-0.019": 0.0,
			"-0.018": 0.0,
			"-0.017": 0.0,
			"-0.016": 0.0,
			"-0.015": 0.0,
			"-0.014": 0.0,
			"-0.013": 0.0,
			"-0.012": 0.0,
			"-0.011": 0.0,
			"-0.01": 0.0,
			"-0.009": 1.31319047319,
			"-0.008": 7.49084258686,
			"-0.007": 10.1793930845,
			"-0.006": 22.3127384321,
			"-0.005": 19.3634453381,
			"-0.004": 15.7983629483,
			"-0.003": 9.77296999887,
			"-0.002": 8.89650760247,
			"-0.001": 7.90012755478,
			"0.0": 7.08203045786,
			"0.001": 8.67347716698,
			"0.002": 7.69009531473,
			"0.003": 8.93644502765,
			"0.004": 10.6694685605,
			"0.005": 6.79463947819,
			"0.006": 1.86543213619,
			"0.007": 1.57384941923,
			"0.008": 2.97310755513,
			"0.009": 3.42637041722,
			"0.01": 4.08437074572,
			"0.011": 10.5114683393,
			"0.012": 9.80086176882,
			"0.013": 0.956067971393,
			"0.014": 0.0,
			"0.015": 0.0,
			"0.016": 0.0,
			"0.017": 0.0,
			"0.018": 0.0,
			"0.019": 0.0,
			"0.02": 0.0,
			"0.021": 0.0,
			"0.022": 0.0,
			"0.023": 0.0,
			"0.024": 0.0,
			"0.025": 0.0
		}
	}
}
