{
	 "smiles": "CC(CCC1=CC=CC=C1)NCC(O)C1=CC=C(O)C(=C1)C(N)=O", 
	 "Tm": 463.65, 
	 "num_atms": 48, 
	 "gaussian": { 
		 "optdone": 1, 
		 "sigma_profile": "yes", 
		 "theory": "DFT", 
		 "functional": "B3LYP", 
		 "basiset": "6-31G**", 
		 "properties": { 
			 "R2extent": 14483.5267, 
			 "electric_dipole_moment_norm": 5.37333316574, 
			 "electric_quadrupole_moment_norm": 22.3718141225, 
			 "total_energy": -1073.69662701, 
			 "HOMO_LUMO_gap": 0.17233, 
			 "cosmo_polarized_energy": -19.65, 
			 "cosmo_cavitation_energy": 50.09, 
			 "cosmo_dispersion_energy": -34.76, 
			 "cosmo_repulsion_energy": 2.65, 
			 "cosmo_total_nonelectrostatic_energy": 17.98, 
			 "SMD_solvation_energy": 7.88 
		},
		"coords": [
			{
				"x": 2.915632912,
				"y": -0.6674344314,
				"z": 2.1498791058,
				"element": "C" 
			},
			{
				"x": 2.4362653202,
				"y": 0.6221098835,
				"z": 1.4745372652,
				"element": "C" 
			},
			{
				"x": 2.9337673973,
				"y": 0.6991133147,
				"z": 0.0133722174,
				"element": "C" 
			},
			{
				"x": 2.6115447729,
				"y": 2.027807392,
				"z": -0.6986632533,
				"element": "C" 
			},
			{
				"x": 3.1675623518,
				"y": 2.089712816,
				"z": -2.1057785662,
				"element": "C" 
			},
			{
				"x": 2.4184779632,
				"y": 1.6240589979,
				"z": -3.1950416043,
				"element": "C" 
			},
			{
				"x": 2.9431408173,
				"y": 1.6444233649,
				"z": -4.4880559123,
				"element": "C" 
			},
			{
				"x": 4.2308054871,
				"y": 2.1342501169,
				"z": -4.7139309498,
				"element": "C" 
			},
			{
				"x": 4.9871201709,
				"y": 2.6035517458,
				"z": -3.6383531115,
				"element": "C" 
			},
			{
				"x": 4.4580480503,
				"y": 2.5803931615,
				"z": -2.3472000857,
				"element": "C" 
			},
			{
				"x": 0.9791635034,
				"y": 0.8050819005,
				"z": 1.6463546684,
				"element": "N" 
			},
			{
				"x": 0.0575248499,
				"y": -0.1671868331,
				"z": 1.0376511578,
				"element": "C" 
			},
			{
				"x": -0.4632164104,
				"y": -1.1670159311,
				"z": 2.1091142601,
				"element": "C" 
			},
			{
				"x": -0.7799292164,
				"y": -0.4400509996,
				"z": 3.2805965589,
				"element": "O" 
			},
			{
				"x": -1.678087674,
				"y": -1.919385797,
				"z": 1.6087150264,
				"element": "C" 
			},
			{
				"x": -1.5392284663,
				"y": -3.0015821784,
				"z": 0.7205356327,
				"element": "C" 
			},
			{
				"x": -2.6451759168,
				"y": -3.6536815636,
				"z": 0.1996119075,
				"element": "C" 
			},
			{
				"x": -3.9440736638,
				"y": -3.2545319234,
				"z": 0.5624371326,
				"element": "C" 
			},
			{
				"x": -4.9824324671,
				"y": -3.9077597595,
				"z": 0.0233195695,
				"element": "O" 
			},
			{
				"x": -4.1046503907,
				"y": -2.1903096639,
				"z": 1.4890856824,
				"element": "C" 
			},
			{
				"x": -2.9602841773,
				"y": -1.5341655837,
				"z": 1.9783010885,
				"element": "C" 
			},
			{
				"x": -5.4801204545,
				"y": -1.8292781183,
				"z": 1.9041766928,
				"element": "C" 
			},
			{
				"x": -5.6435014994,
				"y": -0.9017183175,
				"z": 2.8887584939,
				"element": "N" 
			},
			{
				"x": -6.4828960878,
				"y": -2.3420329583,
				"z": 1.3691060276,
				"element": "O" 
			},
			{
				"x": 2.560110001,
				"y": -0.7201945222,
				"z": 3.1828027039,
				"element": "H" 
			},
			{
				"x": 2.560684286,
				"y": -1.5574428887,
				"z": 1.6194918945,
				"element": "H" 
			},
			{
				"x": 4.0092408572,
				"y": -0.7071345215,
				"z": 2.157817315,
				"element": "H" 
			},
			{
				"x": 2.8871073198,
				"y": 1.4651212725,
				"z": 2.0173678164,
				"element": "H" 
			},
			{
				"x": 4.0214500788,
				"y": 0.5541649201,
				"z": 0.0134480891,
				"element": "H" 
			},
			{
				"x": 2.5220512104,
				"y": -0.1341945349,
				"z": -0.5704116912,
				"element": "H" 
			},
			{
				"x": 1.5242108791,
				"y": 2.1694538418,
				"z": -0.7357480318,
				"element": "H" 
			},
			{
				"x": 3.0170703722,
				"y": 2.8588909406,
				"z": -0.1063560725,
				"element": "H" 
			},
			{
				"x": 1.4120673544,
				"y": 1.2462904755,
				"z": -3.0285336369,
				"element": "H" 
			},
			{
				"x": 2.3443466765,
				"y": 1.2824392841,
				"z": -5.3192314975,
				"element": "H" 
			},
			{
				"x": 4.6395062635,
				"y": 2.1545233445,
				"z": -5.7200686114,
				"element": "H" 
			},
			{
				"x": 5.9879566459,
				"y": 2.9923535974,
				"z": -3.8047268799,
				"element": "H" 
			},
			{
				"x": 5.0517041288,
				"y": 2.9526496715,
				"z": -1.5151584471,
				"element": "H" 
			},
			{
				"x": 0.7283266663,
				"y": 1.7420664154,
				"z": 1.352802495,
				"element": "H" 
			},
			{
				"x": 0.4922907143,
				"y": -0.7153953103,
				"z": 0.1912210093,
				"element": "H" 
			},
			{
				"x": -0.809785024,
				"y": 0.3797282675,
				"z": 0.6534778209,
				"element": "H" 
			},
			{
				"x": 0.333870865,
				"y": -1.8992686701,
				"z": 2.3216389127,
				"element": "H" 
			},
			{
				"x": -0.1206021952,
				"y": 0.2815810447,
				"z": 3.2776728791,
				"element": "H" 
			},
			{
				"x": -0.5439075165,
				"y": -3.3360730129,
				"z": 0.4349350148,
				"element": "H" 
			},
			{
				"x": -2.5418110992,
				"y": -4.4830731667,
				"z": -0.4920545707,
				"element": "H" 
			},
			{
				"x": -5.7985347527,
				"y": -3.4637810915,
				"z": 0.3828899474,
				"element": "H" 
			},
			{
				"x": -3.0431506332,
				"y": -0.6958186818,
				"z": 2.6616158295,
				"element": "H" 
			},
			{
				"x": -4.887738883,
				"y": -0.6457479909,
				"z": 3.5022989243,
				"element": "H" 
			},
			{
				"x": -6.5882213873,
				"y": -0.7654073191,
				"z": 3.2157797826,
				"element": "H" 
			}
		],
		 "valence_orbital": [ 
			{
				"type": "occ",
				"energy": -0.25373,
				"method": "rhf"
			},
			{
				"type": "occ",
				"energy": -0.25155,
				"method": "rhf"
			},
			{
				"type": "occ",
				"energy": -0.24859,
				"method": "rhf"
			},
			{
				"type": "occ",
				"energy": -0.23884,
				"method": "rhf"
			},
			{
				"type": "occ",
				"energy": -0.20973,
				"method": "rhf"
			},
			{
				"type": "unocc",
				"energy": -0.0374,
				"method": "rhf"
			},
			{
				"type": "unocc",
				"energy": -0.00337,
				"method": "rhf"
			},
			{
				"type": "unocc",
				"energy": -0.00309,
				"method": "rhf"
			},
			{
				"type": "unocc",
				"energy": 0.01206,
				"method": "rhf"
			},
			{
				"type": "unocc",
				"energy": 0.05703,
				"method": "rhf"
			}
		],
		"cosmo_sigma_profile": { 
			"-0.025": 0.0,
			"-0.024": 0.0,
			"-0.023": 0.0,
			"-0.022": 0.0,
			"-0.021": 0.0,
			"-0.02": 0.0,
			"-0.019": 0.0,
			"-0.018": 0.0,
			"-0.017": 0.0,
			"-0.016": 0.0,
			"-0.015": 0.906163587574,
			"-0.014": 2.08200658908,
			"-0.013": 2.57594233619,
			"-0.012": 1.50144685098,
			"-0.011": 2.87738436115,
			"-0.01": 3.30263730238,
			"-0.009": 3.71344829904,
			"-0.008": 3.3132575178,
			"-0.007": 3.69676392446,
			"-0.006": 8.6906691687,
			"-0.005": 20.1802654258,
			"-0.004": 31.450214726,
			"-0.003": 40.6353703115,
			"-0.002": 38.6161798598,
			"-0.001": 35.2897468705,
			"0.0": 31.7669584374,
			"0.001": 28.6988131906,
			"0.002": 21.6940198095,
			"0.003": 22.7255256013,
			"0.004": 22.9630488795,
			"0.005": 17.2679166254,
			"0.006": 13.9884161497,
			"0.007": 9.23316979034,
			"0.008": 3.52453643473,
			"0.009": 4.45160649806,
			"0.01": 4.34342666422,
			"0.011": 4.24464326197,
			"0.012": 4.88483046537,
			"0.013": 2.81862561811,
			"0.014": 1.49032470642,
			"0.015": 0.770666896612,
			"0.016": 0.0435120346929,
			"0.017": 0.0,
			"0.018": 0.0,
			"0.019": 0.0,
			"0.02": 0.0,
			"0.021": 0.0,
			"0.022": 0.0,
			"0.023": 0.0,
			"0.024": 0.0,
			"0.025": 0.0
		}
	}
}
