{
	 "smiles": "C1CNC2=C(C1)C=CC=C2", 
	 "Tm": 293.15, 
	 "num_atms": 21, 
	 "gaussian": { 
		 "optdone": 1, 
		 "sigma_profile": "yes", 
		 "theory": "DFT", 
		 "functional": "B3LYP", 
		 "basiset": "6-31G**", 
		 "properties": { 
			 "R2extent": 1480.3263, 
			 "electric_dipole_moment_norm": 1.75132990324, 
			 "electric_quadrupole_moment_norm": 5.77255441031, 
			 "total_energy": -404.349022669, 
			 "HOMO_LUMO_gap": 0.19557, 
			 "cosmo_polarized_energy": -6.01, 
			 "cosmo_cavitation_energy": 22.62, 
			 "cosmo_dispersion_energy": -17.43, 
			 "cosmo_repulsion_energy": 1.41, 
			 "cosmo_total_nonelectrostatic_energy": 6.59, 
			 "SMD_solvation_energy": 2.31 
		},
		"coords": [
			{
				"x": 2.0552728422,
				"y": -1.5606454032,
				"z": 1.3770826971,
				"element": "C" 
			},
			{
				"x": 0.6646427872,
				"y": -2.1918631577,
				"z": 1.4709904748,
				"element": "C" 
			},
			{
				"x": -0.0593767087,
				"y": -1.9348479957,
				"z": 0.233977084,
				"element": "N" 
			},
			{
				"x": -0.0478723659,
				"y": -0.6521383247,
				"z": -0.317889825,
				"element": "C" 
			},
			{
				"x": 0.9285981058,
				"y": 0.293171553,
				"z": 0.0698945524,
				"element": "C" 
			},
			{
				"x": 1.9308819684,
				"y": -0.0461964848,
				"z": 1.1589510198,
				"element": "C" 
			},
			{
				"x": 0.9389749408,
				"y": 1.5425814994,
				"z": -0.5562830426,
				"element": "C" 
			},
			{
				"x": 0.0088791568,
				"y": 1.8855285143,
				"z": -1.5373557848,
				"element": "C" 
			},
			{
				"x": -0.957289735,
				"y": 0.9476351226,
				"z": -1.9095575623,
				"element": "C" 
			},
			{
				"x": -0.9842719453,
				"y": -0.306871093,
				"z": -1.3094866398,
				"element": "C" 
			},
			{
				"x": 2.6241004477,
				"y": -1.773105065,
				"z": 2.2885041416,
				"element": "H" 
			},
			{
				"x": 2.5913157554,
				"y": -2.0189117828,
				"z": 0.5379373309,
				"element": "H" 
			},
			{
				"x": 0.1399131876,
				"y": -1.7867671671,
				"z": 2.3547795793,
				"element": "H" 
			},
			{
				"x": 0.740480179,
				"y": -3.2761892249,
				"z": 1.6065035375,
				"element": "H" 
			},
			{
				"x": -0.9416492309,
				"y": -2.4192404184,
				"z": 0.1442486041,
				"element": "H" 
			},
			{
				"x": 1.6225396348,
				"y": 0.427658804,
				"z": 2.1023769436,
				"element": "H" 
			},
			{
				"x": 2.9092504311,
				"y": 0.3830123582,
				"z": 0.9124583637,
				"element": "H" 
			},
			{
				"x": 1.6974694783,
				"y": 2.2641498674,
				"z": -0.25871069,
				"element": "H" 
			},
			{
				"x": 0.0389924411,
				"y": 2.8647843312,
				"z": -2.0049223786,
				"element": "H" 
			},
			{
				"x": -1.6925425063,
				"y": 1.191133728,
				"z": -2.6717214547,
				"element": "H" 
			},
			{
				"x": -1.7310088643,
				"y": -1.039479661,
				"z": -1.6086769511,
				"element": "H" 
			}
		],
		 "valence_orbital": [ 
			{
				"type": "occ",
				"energy": -0.32339,
				"method": "rhf"
			},
			{
				"type": "occ",
				"energy": -0.31618,
				"method": "rhf"
			},
			{
				"type": "occ",
				"energy": -0.28365,
				"method": "rhf"
			},
			{
				"type": "occ",
				"energy": -0.23024,
				"method": "rhf"
			},
			{
				"type": "occ",
				"energy": -0.18502,
				"method": "rhf"
			},
			{
				"type": "unocc",
				"energy": 0.01055,
				"method": "rhf"
			},
			{
				"type": "unocc",
				"energy": 0.02665,
				"method": "rhf"
			},
			{
				"type": "unocc",
				"energy": 0.08636,
				"method": "rhf"
			},
			{
				"type": "unocc",
				"energy": 0.10961,
				"method": "rhf"
			},
			{
				"type": "unocc",
				"energy": 0.1134,
				"method": "rhf"
			}
		],
		"cosmo_sigma_profile": { 
			"-0.025": 0.0,
			"-0.024": 0.0,
			"-0.023": 0.0,
			"-0.022": 0.0,
			"-0.021": 0.0,
			"-0.02": 0.0,
			"-0.019": 0.0,
			"-0.018": 0.0,
			"-0.017": 0.0,
			"-0.016": 0.0,
			"-0.015": 0.0,
			"-0.014": 0.0,
			"-0.013": 0.000990789003551,
			"-0.012": 0.769401152668,
			"-0.011": 1.38035168367,
			"-0.01": 1.37498368341,
			"-0.009": 1.10440039294,
			"-0.008": 1.72690298411,
			"-0.007": 1.21204560255,
			"-0.006": 2.17204443968,
			"-0.005": 5.37782521705,
			"-0.004": 12.4256899035,
			"-0.003": 19.7401596477,
			"-0.002": 28.2355790577,
			"-0.001": 22.3714287763,
			"0.0": 16.2271310488,
			"0.001": 10.2942892498,
			"0.002": 6.5507405935,
			"0.003": 6.61238480061,
			"0.004": 7.18741142706,
			"0.005": 7.50702378176,
			"0.006": 7.87883208903,
			"0.007": 8.18100269939,
			"0.008": 6.0164513154,
			"0.009": 1.50801673597,
			"0.01": 0.67517083658,
			"0.011": 0.61190157246,
			"0.012": 0.469872018795,
			"0.013": 0.154562371571,
			"0.014": 0.0,
			"0.015": 0.0,
			"0.016": 0.0,
			"0.017": 0.0,
			"0.018": 0.0,
			"0.019": 0.0,
			"0.02": 0.0,
			"0.021": 0.0,
			"0.022": 0.0,
			"0.023": 0.0,
			"0.024": 0.0,
			"0.025": 0.0
		}
	}
}
