{
	 "smiles": "OC(=O)CCOC1=CC=C(C=O)C=C1", 
	 "Tm": 406.15, 
	 "num_atms": 24, 
	 "gaussian": { 
		 "optdone": 1, 
		 "sigma_profile": "yes", 
		 "theory": "DFT", 
		 "functional": "B3LYP", 
		 "basiset": "6-31G**", 
		 "properties": { 
			 "R2extent": 4196.6428, 
			 "electric_dipole_moment_norm": 4.50974432424, 
			 "electric_quadrupole_moment_norm": 26.0217490965, 
			 "total_energy": -687.979826971, 
			 "HOMO_LUMO_gap": 0.18806, 
			 "cosmo_polarized_energy": -20.11, 
			 "cosmo_cavitation_energy": 28.89, 
			 "cosmo_dispersion_energy": -20.7, 
			 "cosmo_repulsion_energy": 1.62, 
			 "cosmo_total_nonelectrostatic_energy": 9.81, 
			 "SMD_solvation_energy": 7.34 
		},
		"coords": [
			{
				"x": -1.8378892433,
				"y": 2.9563051197,
				"z": 1.3505295936,
				"element": "O" 
			},
			{
				"x": -2.2218072308,
				"y": 1.9888219671,
				"z": 2.2121633789,
				"element": "C" 
			},
			{
				"x": -2.7676488443,
				"y": 2.2588737227,
				"z": 3.2528812799,
				"element": "O" 
			},
			{
				"x": -1.8939387249,
				"y": 0.5493545987,
				"z": 1.8011865929,
				"element": "C" 
			},
			{
				"x": -2.0373449343,
				"y": 0.2492211182,
				"z": 0.3068568031,
				"element": "C" 
			},
			{
				"x": -1.1067058854,
				"y": 1.0092358342,
				"z": -0.4882456695,
				"element": "O" 
			},
			{
				"x": 0.1744281173,
				"y": 0.5553047486,
				"z": -0.6846068907,
				"element": "C" 
			},
			{
				"x": 0.9725192386,
				"y": 1.3725907922,
				"z": -1.5044094347,
				"element": "C" 
			},
			{
				"x": 2.2784380221,
				"y": 1.007217666,
				"z": -1.7795597274,
				"element": "C" 
			},
			{
				"x": 2.8136661148,
				"y": -0.1782034105,
				"z": -1.2443417213,
				"element": "C" 
			},
			{
				"x": 4.2069781359,
				"y": -0.5702271813,
				"z": -1.5379733215,
				"element": "C" 
			},
			{
				"x": 4.9711252662,
				"y": 0.0685217989,
				"z": -2.2370680197,
				"element": "O" 
			},
			{
				"x": 2.0106123856,
				"y": -0.9815583341,
				"z": -0.4298801224,
				"element": "C" 
			},
			{
				"x": 0.6928514001,
				"y": -0.6263697449,
				"z": -0.1413363026,
				"element": "C" 
			},
			{
				"x": -1.4191500788,
				"y": 2.5609201526,
				"z": 0.5639377885,
				"element": "H" 
			},
			{
				"x": -2.5576691986,
				"y": -0.1024674879,
				"z": 2.3746602515,
				"element": "H" 
			},
			{
				"x": -0.8693171947,
				"y": 0.3316368938,
				"z": 2.1276083884,
				"element": "H" 
			},
			{
				"x": -1.9228440703,
				"y": -0.8188317202,
				"z": 0.1011407612,
				"element": "H" 
			},
			{
				"x": -3.0205193495,
				"y": 0.5555141176,
				"z": -0.0594650105,
				"element": "H" 
			},
			{
				"x": 0.5389520388,
				"y": 2.2790167353,
				"z": -1.9143605381,
				"element": "H" 
			},
			{
				"x": 2.9112911969,
				"y": 1.6219108918,
				"z": -2.4116403581,
				"element": "H" 
			},
			{
				"x": 4.529030489,
				"y": -1.5239665034,
				"z": -1.0626473422,
				"element": "H" 
			},
			{
				"x": 2.4194133499,
				"y": -1.897743544,
				"z": -0.0101224815,
				"element": "H" 
			},
			{
				"x": 0.0964289995,
				"y": -1.2644782311,
				"z": 0.4989921023,
				"element": "H" 
			}
		],
		 "valence_orbital": [ 
			{
				"type": "occ",
				"energy": -0.31318,
				"method": "rhf"
			},
			{
				"type": "occ",
				"energy": -0.28383,
				"method": "rhf"
			},
			{
				"type": "occ",
				"energy": -0.27064,
				"method": "rhf"
			},
			{
				"type": "occ",
				"energy": -0.26127,
				"method": "rhf"
			},
			{
				"type": "occ",
				"energy": -0.25631,
				"method": "rhf"
			},
			{
				"type": "unocc",
				"energy": -0.06825,
				"method": "rhf"
			},
			{
				"type": "unocc",
				"energy": -0.03302,
				"method": "rhf"
			},
			{
				"type": "unocc",
				"energy": 0.00664,
				"method": "rhf"
			},
			{
				"type": "unocc",
				"energy": 0.03168,
				"method": "rhf"
			},
			{
				"type": "unocc",
				"energy": 0.06348,
				"method": "rhf"
			}
		],
		"cosmo_sigma_profile": { 
			"-0.025": 0.0,
			"-0.024": 0.0,
			"-0.023": 0.0,
			"-0.022": 0.0,
			"-0.021": 0.0,
			"-0.02": 0.0,
			"-0.019": 0.0,
			"-0.018": 0.0,
			"-0.017": 0.0,
			"-0.016": 0.0,
			"-0.015": 0.0,
			"-0.014": 0.0,
			"-0.013": 0.0,
			"-0.012": 0.0,
			"-0.011": 0.0628279167251,
			"-0.01": 1.2937354826,
			"-0.009": 4.15985450592,
			"-0.008": 10.7901031591,
			"-0.007": 20.6384160547,
			"-0.006": 21.0665035638,
			"-0.005": 17.6511838919,
			"-0.004": 12.8427266445,
			"-0.003": 11.7067032715,
			"-0.002": 10.8786694426,
			"-0.001": 8.50658914145,
			"0.0": 10.410581196,
			"0.001": 14.1805627524,
			"0.002": 13.967134442,
			"0.003": 15.1546120624,
			"0.004": 5.13691328728,
			"0.005": 4.18167075015,
			"0.006": 3.28733892314,
			"0.007": 5.53929903185,
			"0.008": 3.41707563579,
			"0.009": 5.34930297672,
			"0.01": 6.25240046253,
			"0.011": 9.86411335482,
			"0.012": 9.4562663509,
			"0.013": 4.4206743454,
			"0.014": 0.305742359829,
			"0.015": 0.0,
			"0.016": 0.0,
			"0.017": 0.0,
			"0.018": 0.0,
			"0.019": 0.0,
			"0.02": 0.0,
			"0.021": 0.0,
			"0.022": 0.0,
			"0.023": 0.0,
			"0.024": 0.0,
			"0.025": 0.0
		}
	}
}
