{
	 "smiles": "CC(=O)NC1=CC=CC=C1CCC1=CC=CC=C1", 
	 "Tm": 390.15, 
	 "num_atms": 35, 
	 "gaussian": { 
		 "optdone": 1, 
		 "sigma_profile": "yes", 
		 "theory": "DFT", 
		 "functional": "B3LYP", 
		 "basiset": "6-31G**", 
		 "properties": { 
			 "R2extent": 6318.563, 
			 "electric_dipole_moment_norm": 3.21572127679, 
			 "electric_quadrupole_moment_norm": 13.4892080809, 
			 "total_energy": -749.951794547, 
			 "HOMO_LUMO_gap": 0.22035, 
			 "cosmo_polarized_energy": -14.97, 
			 "cosmo_cavitation_energy": 38.42, 
			 "cosmo_dispersion_energy": -26.66, 
			 "cosmo_repulsion_energy": 2.09, 
			 "cosmo_total_nonelectrostatic_energy": 13.85, 
			 "SMD_solvation_energy": 6.92 
		},
		"coords": [
			{
				"x": -1.0054721545,
				"y": 3.558018586,
				"z": -3.0705775245,
				"element": "C" 
			},
			{
				"x": -0.0688383553,
				"y": 3.1732721562,
				"z": -1.9335249928,
				"element": "C" 
			},
			{
				"x": 1.1097674534,
				"y": 2.9164319695,
				"z": -2.1240940905,
				"element": "O" 
			},
			{
				"x": -0.6714447503,
				"y": 3.0955580655,
				"z": -0.6934096163,
				"element": "N" 
			},
			{
				"x": 0.008458321,
				"y": 2.8453734345,
				"z": 0.5374212078,
				"element": "C" 
			},
			{
				"x": -0.0579327395,
				"y": 3.8319991816,
				"z": 1.5271345953,
				"element": "C" 
			},
			{
				"x": 0.544216106,
				"y": 3.6394866978,
				"z": 2.7680862959,
				"element": "C" 
			},
			{
				"x": 1.231647621,
				"y": 2.452376848,
				"z": 3.0131829766,
				"element": "C" 
			},
			{
				"x": 1.290376264,
				"y": 1.4665300549,
				"z": 2.0276505618,
				"element": "C" 
			},
			{
				"x": 0.6738191738,
				"y": 1.6237114657,
				"z": 0.7784450428,
				"element": "C" 
			},
			{
				"x": 0.6847889215,
				"y": 0.5306951464,
				"z": -0.2709067125,
				"element": "C" 
			},
			{
				"x": 1.1087304764,
				"y": -0.8699475471,
				"z": 0.2123545074,
				"element": "C" 
			},
			{
				"x": 0.9745987898,
				"y": -1.9095615884,
				"z": -0.8808572785,
				"element": "C" 
			},
			{
				"x": -0.1705919566,
				"y": -2.7114125739,
				"z": -0.9753997688,
				"element": "C" 
			},
			{
				"x": -0.3089438046,
				"y": -3.6489405604,
				"z": -2.0005504534,
				"element": "C" 
			},
			{
				"x": 0.7005177793,
				"y": -3.7993374386,
				"z": -2.9526253041,
				"element": "C" 
			},
			{
				"x": 1.8473500772,
				"y": -3.0066679818,
				"z": -2.8704703272,
				"element": "C" 
			},
			{
				"x": 1.9809678162,
				"y": -2.0718632827,
				"z": -1.8434553399,
				"element": "C" 
			},
			{
				"x": -0.4793096373,
				"y": 4.24515966,
				"z": -3.7359273622,
				"element": "H" 
			},
			{
				"x": -1.9413040137,
				"y": 4.0173775264,
				"z": -2.7391231939,
				"element": "H" 
			},
			{
				"x": -1.2480202934,
				"y": 2.6600361881,
				"z": -3.6479879804,
				"element": "H" 
			},
			{
				"x": -1.5912622788,
				"y": 3.5051900339,
				"z": -0.612452755,
				"element": "H" 
			},
			{
				"x": -0.5776063195,
				"y": 4.7615634261,
				"z": 1.3087127777,
				"element": "H" 
			},
			{
				"x": 0.4858787632,
				"y": 4.413910586,
				"z": 3.5270245633,
				"element": "H" 
			},
			{
				"x": 1.7165103728,
				"y": 2.2869628601,
				"z": 3.9709269899,
				"element": "H" 
			},
			{
				"x": 1.816014929,
				"y": 0.5431230617,
				"z": 2.245498925,
				"element": "H" 
			},
			{
				"x": -0.3200148875,
				"y": 0.4631118228,
				"z": -0.7079593001,
				"element": "H" 
			},
			{
				"x": 1.3330006416,
				"y": 0.8446920952,
				"z": -1.0967373323,
				"element": "H" 
			},
			{
				"x": 0.4997745038,
				"y": -1.1643643688,
				"z": 1.0755549704,
				"element": "H" 
			},
			{
				"x": 2.1500000244,
				"y": -0.8423488797,
				"z": 0.5552190159,
				"element": "H" 
			},
			{
				"x": -0.9592584693,
				"y": -2.6029783795,
				"z": -0.2341322239,
				"element": "H" 
			},
			{
				"x": -1.2030640607,
				"y": -4.2643435758,
				"z": -2.0524557793,
				"element": "H" 
			},
			{
				"x": 0.5967366793,
				"y": -4.5302930518,
				"z": -3.7495048711,
				"element": "H" 
			},
			{
				"x": 2.6405363529,
				"y": -3.118719647,
				"z": -3.6045916958,
				"element": "H" 
			},
			{
				"x": 2.8784726545,
				"y": -1.4604019909,
				"z": -1.7847685273,
				"element": "H" 
			}
		],
		 "valence_orbital": [ 
			{
				"type": "occ",
				"energy": -0.25032,
				"method": "rhf"
			},
			{
				"type": "occ",
				"energy": -0.24446,
				"method": "rhf"
			},
			{
				"type": "occ",
				"energy": -0.24155,
				"method": "rhf"
			},
			{
				"type": "occ",
				"energy": -0.2344,
				"method": "rhf"
			},
			{
				"type": "occ",
				"energy": -0.22925,
				"method": "rhf"
			},
			{
				"type": "unocc",
				"energy": -0.0089,
				"method": "rhf"
			},
			{
				"type": "unocc",
				"energy": -0.00026,
				"method": "rhf"
			},
			{
				"type": "unocc",
				"energy": 0.00668,
				"method": "rhf"
			},
			{
				"type": "unocc",
				"energy": 0.00837,
				"method": "rhf"
			},
			{
				"type": "unocc",
				"energy": 0.03267,
				"method": "rhf"
			}
		],
		"cosmo_sigma_profile": { 
			"-0.025": 0.0,
			"-0.024": 0.0,
			"-0.023": 0.0,
			"-0.022": 0.0,
			"-0.021": 0.0,
			"-0.02": 0.0,
			"-0.019": 0.0,
			"-0.018": 0.0,
			"-0.017": 0.0,
			"-0.016": 0.0,
			"-0.015": 0.238967704309,
			"-0.014": 1.18620738616,
			"-0.013": 1.33807248369,
			"-0.012": 1.16311224117,
			"-0.011": 1.53139942471,
			"-0.01": 1.26344693078,
			"-0.009": 1.75203686116,
			"-0.008": 1.88252809307,
			"-0.007": 2.16464497049,
			"-0.006": 8.34743812639,
			"-0.005": 23.4940799387,
			"-0.004": 29.4013373185,
			"-0.003": 31.9516833729,
			"-0.002": 30.6074755292,
			"-0.001": 25.7972379883,
			"0.0": 19.2095712682,
			"0.001": 16.6361718954,
			"0.002": 17.5481264202,
			"0.003": 15.2632151844,
			"0.004": 16.7175324215,
			"0.005": 17.3419710866,
			"0.006": 17.0697798968,
			"0.007": 5.92195501234,
			"0.008": 1.7072606512,
			"0.009": 1.97842036582,
			"0.01": 1.62464801336,
			"0.011": 1.74965741204,
			"0.012": 1.99295222309,
			"0.013": 3.43635351907,
			"0.014": 3.50176252534,
			"0.015": 0.847889411066,
			"0.016": 0.0,
			"0.017": 0.0,
			"0.018": 0.0,
			"0.019": 0.0,
			"0.02": 0.0,
			"0.021": 0.0,
			"0.022": 0.0,
			"0.023": 0.0,
			"0.024": 0.0,
			"0.025": 0.0
		}
	}
}
