{
	 "smiles": "NNC(=O)C1=CC=C(F)C=C1", 
	 "Tm": 437.15, 
	 "num_atms": 18, 
	 "gaussian": { 
		 "optdone": 1, 
		 "sigma_profile": "yes", 
		 "theory": "DFT", 
		 "functional": "B3LYP", 
		 "basiset": "6-31G**", 
		 "properties": { 
			 "R2extent": 2495.6005, 
			 "electric_dipole_moment_norm": 2.86973169826, 
			 "electric_quadrupole_moment_norm": 12.3068801132, 
			 "total_energy": -555.498219218, 
			 "HOMO_LUMO_gap": 0.20535, 
			 "cosmo_polarized_energy": -13.5, 
			 "cosmo_cavitation_energy": 23.02, 
			 "cosmo_dispersion_energy": -16.72, 
			 "cosmo_repulsion_energy": 1.33, 
			 "cosmo_total_nonelectrostatic_energy": 7.63, 
			 "SMD_solvation_energy": 5.61 
		},
		"coords": [
			{
				"x": -2.2346165138,
				"y": 0.6142860763,
				"z": -2.3785534004,
				"element": "N" 
			},
			{
				"x": -1.8636134788,
				"y": -0.7258921999,
				"z": -2.1273003428,
				"element": "N" 
			},
			{
				"x": -0.811964438,
				"y": -1.1427761808,
				"z": -1.3307599782,
				"element": "C" 
			},
			{
				"x": -0.8639425257,
				"y": -2.2278424355,
				"z": -0.7630235954,
				"element": "O" 
			},
			{
				"x": 0.3866255572,
				"y": -0.2487692854,
				"z": -1.1982174714,
				"element": "C" 
			},
			{
				"x": 0.8984781955,
				"y": 0.5271165051,
				"z": -2.2490780273,
				"element": "C" 
			},
			{
				"x": 2.0628863929,
				"y": 1.2745263242,
				"z": -2.0813572215,
				"element": "C" 
			},
			{
				"x": 2.70278275,
				"y": 1.2433481069,
				"z": -0.8465653988,
				"element": "C" 
			},
			{
				"x": 3.8210006817,
				"y": 1.9734988628,
				"z": -0.674932511,
				"element": "F" 
			},
			{
				"x": 2.2298926606,
				"y": 0.4740425132,
				"z": 0.212368154,
				"element": "C" 
			},
			{
				"x": 1.0769646291,
				"y": -0.2818229057,
				"z": 0.0226875237,
				"element": "C" 
			},
			{
				"x": -1.9802555724,
				"y": 1.2063187964,
				"z": -1.5915329256,
				"element": "H" 
			},
			{
				"x": -1.7491096064,
				"y": 0.9580872734,
				"z": -3.2014189117,
				"element": "H" 
			},
			{
				"x": -2.6578134427,
				"y": -1.3525606246,
				"z": -2.0634170479,
				"element": "H" 
			},
			{
				"x": 0.4124622104,
				"y": 0.5220907948,
				"z": -3.2190362547,
				"element": "H" 
			},
			{
				"x": 2.4817310847,
				"y": 1.8673248409,
				"z": -2.8871202407,
				"element": "H" 
			},
			{
				"x": 2.7685649036,
				"y": 0.4687417181,
				"z": 1.1536243474,
				"element": "H" 
			},
			{
				"x": 0.697126512,
				"y": -0.9174181801,
				"z": 0.8153333021,
				"element": "H" 
			}
		],
		 "valence_orbital": [ 
			{
				"type": "occ",
				"energy": -0.30122,
				"method": "rhf"
			},
			{
				"type": "occ",
				"energy": -0.27444,
				"method": "rhf"
			},
			{
				"type": "occ",
				"energy": -0.26558,
				"method": "rhf"
			},
			{
				"type": "occ",
				"energy": -0.25624,
				"method": "rhf"
			},
			{
				"type": "occ",
				"energy": -0.24566,
				"method": "rhf"
			},
			{
				"type": "unocc",
				"energy": -0.04031,
				"method": "rhf"
			},
			{
				"type": "unocc",
				"energy": -0.0238,
				"method": "rhf"
			},
			{
				"type": "unocc",
				"energy": 0.04305,
				"method": "rhf"
			},
			{
				"type": "unocc",
				"energy": 0.05964,
				"method": "rhf"
			},
			{
				"type": "unocc",
				"energy": 0.09196,
				"method": "rhf"
			}
		],
		"cosmo_sigma_profile": { 
			"-0.025": 0.0,
			"-0.024": 0.0,
			"-0.023": 0.0,
			"-0.022": 0.0,
			"-0.021": 0.0,
			"-0.02": 0.0,
			"-0.019": 0.0,
			"-0.018": 0.0,
			"-0.017": 0.0,
			"-0.016": 0.0,
			"-0.015": 0.0,
			"-0.014": 0.0317547879849,
			"-0.013": 0.677698452379,
			"-0.012": 2.91934362916,
			"-0.011": 3.65866879274,
			"-0.01": 4.34555535828,
			"-0.009": 4.80100990369,
			"-0.008": 4.33016263402,
			"-0.007": 8.17385660974,
			"-0.006": 9.0950168006,
			"-0.005": 9.85863580973,
			"-0.004": 7.48262512345,
			"-0.003": 8.51147114383,
			"-0.002": 9.27641964567,
			"-0.001": 8.61472992069,
			"0.0": 14.3436414121,
			"0.001": 12.9564922613,
			"0.002": 15.3680876856,
			"0.003": 15.3499183748,
			"0.004": 14.0497877406,
			"0.005": 3.3178318871,
			"0.006": 2.45407295567,
			"0.007": 2.74562700094,
			"0.008": 2.22343195624,
			"0.009": 1.37057699791,
			"0.01": 2.04802684847,
			"0.011": 2.44271447325,
			"0.012": 2.932145166,
			"0.013": 6.02121199441,
			"0.014": 3.2452583745,
			"0.015": 0.527080646345,
			"0.016": 0.36554319681,
			"0.017": 0.0,
			"0.018": 0.0,
			"0.019": 0.0,
			"0.02": 0.0,
			"0.021": 0.0,
			"0.022": 0.0,
			"0.023": 0.0,
			"0.024": 0.0,
			"0.025": 0.0
		}
	}
}
