{
	 "smiles": "CC(N(C)C)C1=NN=C(S)N1C1=CC=C(F)C=C1", 
	 "Tm": 443.15, 
	 "num_atms": 33, 
	 "gaussian": { 
		 "optdone": 1, 
		 "sigma_profile": "yes", 
		 "theory": "DFT", 
		 "functional": "B3LYP", 
		 "basiset": "6-31G**", 
		 "properties": { 
			 "R2extent": 5243.6113, 
			 "electric_dipole_moment_norm": 3.54650023826, 
			 "electric_quadrupole_moment_norm": 18.4559316286, 
			 "total_energy": -1183.30491369, 
			 "HOMO_LUMO_gap": 0.1932, 
			 "cosmo_polarized_energy": -13.92, 
			 "cosmo_cavitation_energy": 37.55, 
			 "cosmo_dispersion_energy": -25.4, 
			 "cosmo_repulsion_energy": 1.9, 
			 "cosmo_total_nonelectrostatic_energy": 14.04, 
			 "SMD_solvation_energy": 4.74 
		},
		"coords": [
			{
				"x": 0.3980100119,
				"y": 2.2023690226,
				"z": -0.331901448,
				"element": "C" 
			},
			{
				"x": -0.9393605281,
				"y": 1.6217252588,
				"z": 0.1598652811,
				"element": "C" 
			},
			{
				"x": -0.8965790882,
				"y": 1.1591865546,
				"z": 1.566590214,
				"element": "N" 
			},
			{
				"x": -2.2415561063,
				"y": 0.8476636924,
				"z": 2.0572141001,
				"element": "C" 
			},
			{
				"x": -0.2491913523,
				"y": 2.1068089141,
				"z": 2.4713638447,
				"element": "C" 
			},
			{
				"x": -1.4242530552,
				"y": 0.5146701829,
				"z": -0.7425432578,
				"element": "C" 
			},
			{
				"x": -2.5855856428,
				"y": 0.5398621457,
				"z": -1.3499797277,
				"element": "N" 
			},
			{
				"x": -2.7138518814,
				"y": -0.6106750937,
				"z": -2.1039796199,
				"element": "N" 
			},
			{
				"x": -1.6148514858,
				"y": -1.3014979567,
				"z": -1.928060903,
				"element": "C" 
			},
			{
				"x": -1.2666213867,
				"y": -2.8843756968,
				"z": -2.6371780385,
				"element": "S" 
			},
			{
				"x": -0.7445500568,
				"y": -0.6530184359,
				"z": -1.0774341686,
				"element": "N" 
			},
			{
				"x": 0.5608541917,
				"y": -1.1106552817,
				"z": -0.7008996914,
				"element": "C" 
			},
			{
				"x": 1.540450902,
				"y": -1.2655342192,
				"z": -1.6887379127,
				"element": "C" 
			},
			{
				"x": 2.8058311347,
				"y": -1.7408001346,
				"z": -1.3485822925,
				"element": "C" 
			},
			{
				"x": 3.0697793826,
				"y": -2.0420636931,
				"z": -0.0169856716,
				"element": "C" 
			},
			{
				"x": 4.2923835537,
				"y": -2.4954283308,
				"z": 0.3188880235,
				"element": "F" 
			},
			{
				"x": 2.1121096864,
				"y": -1.8849084194,
				"z": 0.9801359656,
				"element": "C" 
			},
			{
				"x": 0.8446761,
				"y": -1.4221519328,
				"z": 0.633049666,
				"element": "C" 
			},
			{
				"x": 0.334878803,
				"y": 2.3930608425,
				"z": -1.4067507401,
				"element": "H" 
			},
			{
				"x": 1.2298281881,
				"y": 1.5171522847,
				"z": -0.1512763636,
				"element": "H" 
			},
			{
				"x": 0.6198345817,
				"y": 3.1536297642,
				"z": 0.1569485764,
				"element": "H" 
			},
			{
				"x": -1.7069451201,
				"y": 2.4079478522,
				"z": 0.0398101947,
				"element": "H" 
			},
			{
				"x": -2.169966073,
				"y": 0.41434499,
				"z": 3.0595714997,
				"element": "H" 
			},
			{
				"x": -2.892220316,
				"y": 1.7397446131,
				"z": 2.1130180706,
				"element": "H" 
			},
			{
				"x": -2.7307178085,
				"y": 0.1240393601,
				"z": 1.4023169767,
				"element": "H" 
			},
			{
				"x": -0.2923872941,
				"y": 1.7050098855,
				"z": 3.4880706795,
				"element": "H" 
			},
			{
				"x": -0.7340634042,
				"y": 3.1014682645,
				"z": 2.4841122705,
				"element": "H" 
			},
			{
				"x": 0.8036187723,
				"y": 2.239085643,
				"z": 2.2149672047,
				"element": "H" 
			},
			{
				"x": -2.4824254355,
				"y": -2.9488229558,
				"z": -3.2131540278,
				"element": "H" 
			},
			{
				"x": 1.3116661659,
				"y": -1.012154128,
				"z": -2.7184417921,
				"element": "H" 
			},
			{
				"x": 3.5814642793,
				"y": -1.8720822675,
				"z": -2.0946103609,
				"element": "H" 
			},
			{
				"x": 2.3625351756,
				"y": -2.129840697,
				"z": 2.0063303804,
				"element": "H" 
			},
			{
				"x": 0.0854051062,
				"y": -1.263060028,
				"z": 1.3881630678,
				"element": "H" 
			}
		],
		 "valence_orbital": [ 
			{
				"type": "occ",
				"energy": -0.27926,
				"method": "rhf"
			},
			{
				"type": "occ",
				"energy": -0.2673,
				"method": "rhf"
			},
			{
				"type": "occ",
				"energy": -0.24677,
				"method": "rhf"
			},
			{
				"type": "occ",
				"energy": -0.229,
				"method": "rhf"
			},
			{
				"type": "occ",
				"energy": -0.22388,
				"method": "rhf"
			},
			{
				"type": "unocc",
				"energy": -0.03068,
				"method": "rhf"
			},
			{
				"type": "unocc",
				"energy": -0.02604,
				"method": "rhf"
			},
			{
				"type": "unocc",
				"energy": 0.01415,
				"method": "rhf"
			},
			{
				"type": "unocc",
				"energy": 0.01906,
				"method": "rhf"
			},
			{
				"type": "unocc",
				"energy": 0.04328,
				"method": "rhf"
			}
		],
		"cosmo_sigma_profile": { 
			"-0.025": 0.0,
			"-0.024": 0.0,
			"-0.023": 0.0,
			"-0.022": 0.0,
			"-0.021": 0.0,
			"-0.02": 0.0,
			"-0.019": 0.0,
			"-0.018": 0.0,
			"-0.017": 0.0,
			"-0.016": 0.0,
			"-0.015": 0.0,
			"-0.014": 0.0,
			"-0.013": 0.0,
			"-0.012": 1.01741378575,
			"-0.011": 1.59073227136,
			"-0.01": 1.40518600718,
			"-0.009": 1.04670119575,
			"-0.008": 4.61488600688,
			"-0.007": 6.83687112,
			"-0.006": 7.4198666854,
			"-0.005": 10.6040956396,
			"-0.004": 18.7903248529,
			"-0.003": 32.4437751621,
			"-0.002": 34.3135241539,
			"-0.001": 34.9949064448,
			"0.0": 35.970202364,
			"0.001": 23.7763393085,
			"0.002": 21.7553763956,
			"0.003": 13.184521355,
			"0.004": 15.2896975454,
			"0.005": 6.01713420237,
			"0.006": 4.56004967663,
			"0.007": 2.90824705706,
			"0.008": 2.18153723822,
			"0.009": 2.01645173277,
			"0.01": 1.33349825427,
			"0.011": 1.84838464949,
			"0.012": 2.63058720538,
			"0.013": 4.01941822019,
			"0.014": 2.71733470311,
			"0.015": 1.93738845031,
			"0.016": 2.12335700922,
			"0.017": 0.535848254817,
			"0.018": 0.0,
			"0.019": 0.0,
			"0.02": 0.0,
			"0.021": 0.0,
			"0.022": 0.0,
			"0.023": 0.0,
			"0.024": 0.0,
			"0.025": 0.0
		}
	}
}
