{
	 "smiles": "COC1=C(OC)C=C(C(Br)=C1)S(Cl)(=O)=O", 
	 "Tm": 366.15, 
	 "num_atms": 23, 
	 "gaussian": { 
		 "optdone": 1, 
		 "sigma_profile": "yes", 
		 "theory": "DFT", 
		 "functional": "B3LYP", 
		 "basiset": "6-31G**", 
		 "properties": { 
			 "R2extent": 6553.5192, 
			 "electric_dipole_moment_norm": 6.71444495174, 
			 "electric_quadrupole_moment_norm": 15.3396043, 
			 "total_energy": -4040.23164898, 
			 "HOMO_LUMO_gap": 0.16907, 
			 "cosmo_polarized_energy": -11.01, 
			 "cosmo_cavitation_energy": 32.66, 
			 "cosmo_dispersion_energy": -24.21, 
			 "cosmo_repulsion_energy": 1.86, 
			 "cosmo_total_nonelectrostatic_energy": 10.31, 
			 "SMD_solvation_energy": 4.9 
		},
		"coords": [
			{
				"x": 1.4204232668,
				"y": 2.1543460085,
				"z": -2.1533073739,
				"element": "C" 
			},
			{
				"x": 1.0582052418,
				"y": 0.7878374032,
				"z": -1.8827606779,
				"element": "O" 
			},
			{
				"x": 0.4088939585,
				"y": 0.5675396057,
				"z": -0.7019582282,
				"element": "C" 
			},
			{
				"x": -0.8729907461,
				"y": 1.088507864,
				"z": -0.4380226026,
				"element": "C" 
			},
			{
				"x": -1.5299981865,
				"y": 1.888735362,
				"z": -1.3351081762,
				"element": "O" 
			},
			{
				"x": -1.9875661398,
				"y": 1.2201499858,
				"z": -2.5232699965,
				"element": "C" 
			},
			{
				"x": -1.4837132865,
				"y": 0.817387582,
				"z": 0.7849214552,
				"element": "C" 
			},
			{
				"x": -0.8507825035,
				"y": 0.0210061223,
				"z": 1.7395894069,
				"element": "C" 
			},
			{
				"x": 0.4105042854,
				"y": -0.5324300412,
				"z": 1.4640603515,
				"element": "C" 
			},
			{
				"x": 1.3447610479,
				"y": -1.6522764705,
				"z": 2.6827423795,
				"element": "Br" 
			},
			{
				"x": 1.0276650597,
				"y": -0.2464369621,
				"z": 0.2485761928,
				"element": "C" 
			},
			{
				"x": -1.6318342667,
				"y": -0.3534072168,
				"z": 3.3315198986,
				"element": "S" 
			},
			{
				"x": -3.45981129,
				"y": 0.7632565141,
				"z": 3.242253446,
				"element": "Cl" 
			},
			{
				"x": -2.0293237498,
				"y": -1.7534874781,
				"z": 3.3584435973,
				"element": "O" 
			},
			{
				"x": -0.8588702331,
				"y": 0.2529652245,
				"z": 4.4051900385,
				"element": "O" 
			},
			{
				"x": 2.130457145,
				"y": 2.5148285929,
				"z": -1.4003334218,
				"element": "H" 
			},
			{
				"x": 0.5415392479,
				"y": 2.8036900015,
				"z": -2.1719211857,
				"element": "H" 
			},
			{
				"x": 1.9018866495,
				"y": 2.1462674277,
				"z": -3.1319898879,
				"element": "H" 
			},
			{
				"x": -1.1538253136,
				"y": 0.776692432,
				"z": -3.0757297229,
				"element": "H" 
			},
			{
				"x": -2.4715999717,
				"y": 1.9854585851,
				"z": -3.1316563524,
				"element": "H" 
			},
			{
				"x": -2.715843495,
				"y": 0.4416427854,
				"z": -2.2684119711,
				"element": "H" 
			},
			{
				"x": -2.4630371727,
				"y": 1.2388486952,
				"z": 0.9672199628,
				"element": "H" 
			},
			{
				"x": 2.0075604526,
				"y": -0.650622023,
				"z": 0.024952868,
				"element": "H" 
			}
		],
		 "valence_orbital": [ 
			{
				"type": "occ",
				"energy": -0.31357,
				"method": "rhf"
			},
			{
				"type": "occ",
				"energy": -0.30149,
				"method": "rhf"
			},
			{
				"type": "occ",
				"energy": -0.29457,
				"method": "rhf"
			},
			{
				"type": "occ",
				"energy": -0.277,
				"method": "rhf"
			},
			{
				"type": "occ",
				"energy": -0.25691,
				"method": "rhf"
			},
			{
				"type": "unocc",
				"energy": -0.08784,
				"method": "rhf"
			},
			{
				"type": "unocc",
				"energy": -0.05457,
				"method": "rhf"
			},
			{
				"type": "unocc",
				"energy": -0.04088,
				"method": "rhf"
			},
			{
				"type": "unocc",
				"energy": -0.02025,
				"method": "rhf"
			},
			{
				"type": "unocc",
				"energy": 0.04253,
				"method": "rhf"
			}
		],
		"cosmo_sigma_profile": { 
			"-0.025": 0.0,
			"-0.024": 0.0,
			"-0.023": 0.0,
			"-0.022": 0.0,
			"-0.021": 0.0,
			"-0.02": 0.0,
			"-0.019": 0.0,
			"-0.018": 0.0,
			"-0.017": 0.0,
			"-0.016": 0.0,
			"-0.015": 0.0,
			"-0.014": 0.0,
			"-0.013": 0.0,
			"-0.012": 0.0,
			"-0.011": 0.0,
			"-0.01": 0.0,
			"-0.009": 0.744408030224,
			"-0.008": 1.3207179026,
			"-0.007": 3.73422081,
			"-0.006": 10.5183261699,
			"-0.005": 17.7193800591,
			"-0.004": 25.1339787121,
			"-0.003": 29.419119804,
			"-0.002": 23.9359391084,
			"-0.001": 27.4649539096,
			"0.0": 21.2763435964,
			"0.001": 14.9401005694,
			"0.002": 17.9136405534,
			"0.003": 20.9044834587,
			"0.004": 8.95658577662,
			"0.005": 5.93339681333,
			"0.006": 7.4027236285,
			"0.007": 9.55870230043,
			"0.008": 14.1562465944,
			"0.009": 3.66126004108,
			"0.01": 2.08295484707,
			"0.011": 0.13562020475,
			"0.012": 0.0,
			"0.013": 0.0,
			"0.014": 0.0,
			"0.015": 0.0,
			"0.016": 0.0,
			"0.017": 0.0,
			"0.018": 0.0,
			"0.019": 0.0,
			"0.02": 0.0,
			"0.021": 0.0,
			"0.022": 0.0,
			"0.023": 0.0,
			"0.024": 0.0,
			"0.025": 0.0
		}
	}
}
