{
	 "smiles": "CN1C(C(CO)CC1=O)C1=CC(Cl)=CC=C1", 
	 "Tm": 375.15, 
	 "num_atms": 30, 
	 "gaussian": { 
		 "optdone": 1, 
		 "sigma_profile": "yes", 
		 "theory": "DFT", 
		 "functional": "B3LYP", 
		 "basiset": "6-31G**", 
		 "properties": { 
			 "R2extent": 4674.5693, 
			 "electric_dipole_moment_norm": 5.57100278047, 
			 "electric_quadrupole_moment_norm": 15.946817924, 
			 "total_energy": -1131.12090887, 
			 "HOMO_LUMO_gap": 0.20981, 
			 "cosmo_polarized_energy": -15.24, 
			 "cosmo_cavitation_energy": 34.33, 
			 "cosmo_dispersion_energy": -23.95, 
			 "cosmo_repulsion_energy": 1.91, 
			 "cosmo_total_nonelectrostatic_energy": 12.28, 
			 "SMD_solvation_energy": 6.38 
		},
		"coords": [
			{
				"x": -1.0941099737,
				"y": -2.2964531067,
				"z": 1.3996399421,
				"element": "C" 
			},
			{
				"x": -0.0052952222,
				"y": -1.3375506792,
				"z": 1.3931487373,
				"element": "N" 
			},
			{
				"x": -0.0945048486,
				"y": -0.0656653314,
				"z": 0.6778742505,
				"element": "C" 
			},
			{
				"x": 1.2981805437,
				"y": 0.5833220586,
				"z": 0.9568815535,
				"element": "C" 
			},
			{
				"x": 1.2624882235,
				"y": 2.107008524,
				"z": 0.945237587,
				"element": "C" 
			},
			{
				"x": 0.3761621521,
				"y": 2.5466667706,
				"z": 1.9689019525,
				"element": "O" 
			},
			{
				"x": 1.7392855394,
				"y": -0.0466968597,
				"z": 2.2856840571,
				"element": "C" 
			},
			{
				"x": 0.9666969906,
				"y": -1.3576546371,
				"z": 2.37273114,
				"element": "C" 
			},
			{
				"x": 1.1394781706,
				"y": -2.260279551,
				"z": 3.1754248935,
				"element": "O" 
			},
			{
				"x": -0.3988125406,
				"y": -0.2151039851,
				"z": -0.8018122582,
				"element": "C" 
			},
			{
				"x": 0.2518275614,
				"y": -1.191765627,
				"z": -1.5687849892,
				"element": "C" 
			},
			{
				"x": -0.0096549911,
				"y": -1.2829108534,
				"z": -2.9328669916,
				"element": "C" 
			},
			{
				"x": 0.8079593346,
				"y": -2.5170324984,
				"z": -3.8839957023,
				"element": "Cl" 
			},
			{
				"x": -0.9054981813,
				"y": -0.4187483229,
				"z": -3.5646906697,
				"element": "C" 
			},
			{
				"x": -1.5503479509,
				"y": 0.5504176253,
				"z": -2.7975532386,
				"element": "C" 
			},
			{
				"x": -1.3042706544,
				"y": 0.649305211,
				"z": -1.4265782585,
				"element": "C" 
			},
			{
				"x": -2.0265885812,
				"y": -1.8350212989,
				"z": 1.7526429557,
				"element": "H" 
			},
			{
				"x": -0.813937474,
				"y": -3.1014231371,
				"z": 2.0806662066,
				"element": "H" 
			},
			{
				"x": -1.2659865782,
				"y": -2.704175135,
				"z": 0.3991929449,
				"element": "H" 
			},
			{
				"x": -0.8760302773,
				"y": 0.5641273323,
				"z": 1.1282594325,
				"element": "H" 
			},
			{
				"x": 1.9810205902,
				"y": 0.2647687555,
				"z": 0.1603137037,
				"element": "H" 
			},
			{
				"x": 0.9312619146,
				"y": 2.4575720645,
				"z": -0.0451874867,
				"element": "H" 
			},
			{
				"x": 2.281486577,
				"y": 2.490921528,
				"z": 1.1077193528,
				"element": "H" 
			},
			{
				"x": 0.3931429547,
				"y": 3.5107706024,
				"z": 1.994515344,
				"element": "H" 
			},
			{
				"x": 1.4352651936,
				"y": 0.5777860858,
				"z": 3.1333791702,
				"element": "H" 
			},
			{
				"x": 2.8146748553,
				"y": -0.2232678242,
				"z": 2.3642913481,
				"element": "H" 
			},
			{
				"x": 0.9477646481,
				"y": -1.8789954947,
				"z": -1.0988990814,
				"element": "H" 
			},
			{
				"x": -1.093488647,
				"y": -0.5105627736,
				"z": -4.6284937071,
				"element": "H" 
			},
			{
				"x": -2.254689573,
				"y": 1.226742137,
				"z": -3.2729231032,
				"element": "H" 
			},
			{
				"x": -1.8209797561,
				"y": 1.4000984205,
				"z": -0.8348190855,
				"element": "H" 
			}
		],
		 "valence_orbital": [ 
			{
				"type": "occ",
				"energy": -0.28442,
				"method": "rhf"
			},
			{
				"type": "occ",
				"energy": -0.26466,
				"method": "rhf"
			},
			{
				"type": "occ",
				"energy": -0.25226,
				"method": "rhf"
			},
			{
				"type": "occ",
				"energy": -0.24344,
				"method": "rhf"
			},
			{
				"type": "occ",
				"energy": -0.23399,
				"method": "rhf"
			},
			{
				"type": "unocc",
				"energy": -0.02418,
				"method": "rhf"
			},
			{
				"type": "unocc",
				"energy": -0.01909,
				"method": "rhf"
			},
			{
				"type": "unocc",
				"energy": 0.027,
				"method": "rhf"
			},
			{
				"type": "unocc",
				"energy": 0.03343,
				"method": "rhf"
			},
			{
				"type": "unocc",
				"energy": 0.05909,
				"method": "rhf"
			}
		],
		"cosmo_sigma_profile": { 
			"-0.025": 0.0,
			"-0.024": 0.0,
			"-0.023": 0.0,
			"-0.022": 0.0,
			"-0.021": 0.0,
			"-0.02": 0.0,
			"-0.019": 0.0,
			"-0.018": 0.0,
			"-0.017": 0.0493204232054,
			"-0.016": 0.772859527764,
			"-0.015": 1.29396797597,
			"-0.014": 0.0461090074212,
			"-0.013": 1.28521678387,
			"-0.012": 1.21869975064,
			"-0.011": 0.866685795411,
			"-0.01": 0.907663611476,
			"-0.009": 0.440885158036,
			"-0.008": 0.903604760982,
			"-0.007": 3.63762493087,
			"-0.006": 9.58494162229,
			"-0.005": 16.9008106538,
			"-0.004": 30.4720973629,
			"-0.003": 29.2903737264,
			"-0.002": 28.3274715277,
			"-0.001": 21.8914364462,
			"0.0": 15.0260718665,
			"0.001": 14.6805348579,
			"0.002": 18.201981021,
			"0.003": 17.7872527247,
			"0.004": 18.2034606231,
			"0.005": 11.4241325776,
			"0.006": 3.18414638754,
			"0.007": 2.47984027447,
			"0.008": 2.56364011823,
			"0.009": 3.51263943425,
			"0.01": 2.476617908,
			"0.011": 2.15587373579,
			"0.012": 2.82280653637,
			"0.013": 3.75478781105,
			"0.014": 5.48056688013,
			"0.015": 1.29742798513,
			"0.016": 0.0437272711646,
			"0.017": 0.0,
			"0.018": 0.0,
			"0.019": 0.0,
			"0.02": 0.0,
			"0.021": 0.0,
			"0.022": 0.0,
			"0.023": 0.0,
			"0.024": 0.0,
			"0.025": 0.0
		}
	}
}
