{
	 "smiles": "OCCN1CCN(CC1)C1=NC=CC=C1[N+]([O-])=O", 
	 "Tm": 355.65, 
	 "num_atms": 34, 
	 "gaussian": { 
		 "optdone": 1, 
		 "sigma_profile": "yes", 
		 "theory": "DFT", 
		 "functional": "B3LYP", 
		 "basiset": "6-31G**", 
		 "properties": { 
			 "R2extent": 5517.8396, 
			 "electric_dipole_moment_norm": 3.96711597763, 
			 "electric_quadrupole_moment_norm": 22.0335155479, 
			 "total_energy": -873.351004339, 
			 "HOMO_LUMO_gap": 0.139, 
			 "cosmo_polarized_energy": -16.03, 
			 "cosmo_cavitation_energy": 35.76, 
			 "cosmo_dispersion_energy": -25.61, 
			 "cosmo_repulsion_energy": 1.99, 
			 "cosmo_total_nonelectrostatic_energy": 12.14, 
			 "SMD_solvation_energy": 4.56 
		},
		"coords": [
			{
				"x": 1.6573057364,
				"y": -2.8492636428,
				"z": 2.5250445825,
				"element": "O" 
			},
			{
				"x": 0.3290939859,
				"y": -2.9679215351,
				"z": 2.0309002509,
				"element": "C" 
			},
			{
				"x": -0.55489264,
				"y": -1.740108934,
				"z": 2.2672728542,
				"element": "C" 
			},
			{
				"x": -0.1949937974,
				"y": -0.5832394623,
				"z": 1.4600631471,
				"element": "N" 
			},
			{
				"x": 1.0860122857,
				"y": 0.0366888405,
				"z": 1.8408469063,
				"element": "C" 
			},
			{
				"x": 1.1607372642,
				"y": 1.4846450574,
				"z": 1.3223467051,
				"element": "C" 
			},
			{
				"x": 0.4545197877,
				"y": 1.6336839202,
				"z": 0.0501523341,
				"element": "N" 
			},
			{
				"x": -0.9751241362,
				"y": 1.3192646987,
				"z": 0.1298412759,
				"element": "C" 
			},
			{
				"x": -1.2502300747,
				"y": 0.4167067653,
				"z": 1.3469415974,
				"element": "C" 
			},
			{
				"x": 1.1452649657,
				"y": 1.6484293962,
				"z": -1.1259884538,
				"element": "C" 
			},
			{
				"x": 2.4661655288,
				"y": 1.365564035,
				"z": -1.0545024524,
				"element": "N" 
			},
			{
				"x": 3.1687984786,
				"y": 1.1830166808,
				"z": -2.1640542721,
				"element": "C" 
			},
			{
				"x": 2.6266486488,
				"y": 1.2311886288,
				"z": -3.4542808573,
				"element": "C" 
			},
			{
				"x": 1.3015629816,
				"y": 1.6207232321,
				"z": -3.5630540611,
				"element": "C" 
			},
			{
				"x": 0.5628375958,
				"y": 1.8950540682,
				"z": -2.4090986171,
				"element": "C" 
			},
			{
				"x": -0.7093172186,
				"y": 2.5737784579,
				"z": -2.6086600679,
				"element": "N" 
			},
			{
				"x": -1.0912081821,
				"y": 3.3592141806,
				"z": -1.7340675608,
				"element": "O" 
			},
			{
				"x": -1.3096172088,
				"y": 2.3761261401,
				"z": -3.6699958677,
				"element": "O" 
			},
			{
				"x": 1.6069122006,
				"y": -2.7375053892,
				"z": 3.4834588676,
				"element": "H" 
			},
			{
				"x": -0.1751772789,
				"y": -3.8458170224,
				"z": 2.4669325086,
				"element": "H" 
			},
			{
				"x": 0.4239392573,
				"y": -3.1367997065,
				"z": 0.9542539012,
				"element": "H" 
			},
			{
				"x": -1.5817174459,
				"y": -2.0254292269,
				"z": 2.0066660789,
				"element": "H" 
			},
			{
				"x": -0.5608664996,
				"y": -1.508987523,
				"z": 3.3554854061,
				"element": "H" 
			},
			{
				"x": 1.9058344766,
				"y": -0.5607194191,
				"z": 1.437901863,
				"element": "H" 
			},
			{
				"x": 1.2127340322,
				"y": 0.0611140302,
				"z": 2.9405328766,
				"element": "H" 
			},
			{
				"x": 2.197417614,
				"y": 1.7857497187,
				"z": 1.191319071,
				"element": "H" 
			},
			{
				"x": 0.6909357445,
				"y": 2.172076579,
				"z": 2.0350933958,
				"element": "H" 
			},
			{
				"x": -1.5843628958,
				"y": 2.2287999974,
				"z": 0.17529415,
				"element": "H" 
			},
			{
				"x": -1.2552719033,
				"y": 0.7776176221,
				"z": -0.7793685996,
				"element": "H" 
			},
			{
				"x": -1.3727568829,
				"y": 1.0241914829,
				"z": 2.2641990134,
				"element": "H" 
			},
			{
				"x": -2.2087083481,
				"y": -0.0848834894,
				"z": 1.1805232428,
				"element": "H" 
			},
			{
				"x": 4.2290536337,
				"y": 0.9781016964,
				"z": -2.0218433471,
				"element": "H" 
			},
			{
				"x": 3.2351311789,
				"y": 1.0289445696,
				"z": -4.327856955,
				"element": "H" 
			},
			{
				"x": 0.8202391152,
				"y": 1.7717955526,
				"z": -4.5220989168,
				"element": "H" 
			}
		],
		 "valence_orbital": [ 
			{
				"type": "occ",
				"energy": -0.27546,
				"method": "rhf"
			},
			{
				"type": "occ",
				"energy": -0.27306,
				"method": "rhf"
			},
			{
				"type": "occ",
				"energy": -0.26708,
				"method": "rhf"
			},
			{
				"type": "occ",
				"energy": -0.22044,
				"method": "rhf"
			},
			{
				"type": "occ",
				"energy": -0.21404,
				"method": "rhf"
			},
			{
				"type": "unocc",
				"energy": -0.07504,
				"method": "rhf"
			},
			{
				"type": "unocc",
				"energy": -0.0217,
				"method": "rhf"
			},
			{
				"type": "unocc",
				"energy": 0.00086,
				"method": "rhf"
			},
			{
				"type": "unocc",
				"energy": 0.06318,
				"method": "rhf"
			},
			{
				"type": "unocc",
				"energy": 0.08518,
				"method": "rhf"
			}
		],
		"cosmo_sigma_profile": { 
			"-0.025": 0.0,
			"-0.024": 0.0,
			"-0.023": 0.0,
			"-0.022": 0.0,
			"-0.021": 0.0,
			"-0.02": 0.0,
			"-0.019": 0.0,
			"-0.018": 0.0,
			"-0.017": 0.0,
			"-0.016": 0.0437446521945,
			"-0.015": 0.56824362771,
			"-0.014": 1.35509374152,
			"-0.013": 0.16043612753,
			"-0.012": 0.89931320161,
			"-0.011": 1.62616154875,
			"-0.01": 0.840893992912,
			"-0.009": 0.581652634145,
			"-0.008": 2.58594281613,
			"-0.007": 7.72099256994,
			"-0.006": 10.5927783899,
			"-0.005": 18.5889921408,
			"-0.004": 28.3700716174,
			"-0.003": 30.5513372632,
			"-0.002": 29.4870488403,
			"-0.001": 24.2670885402,
			"0.0": 16.7680175891,
			"0.001": 15.6477739479,
			"0.002": 13.7688869088,
			"0.003": 8.88051107301,
			"0.004": 8.51231365982,
			"0.005": 6.91805236728,
			"0.006": 7.67969910173,
			"0.007": 7.76916554293,
			"0.008": 11.0844536334,
			"0.009": 10.1121324572,
			"0.01": 6.40868736314,
			"0.011": 3.72700571565,
			"0.012": 1.25072688848,
			"0.013": 1.72894384924,
			"0.014": 1.592402339,
			"0.015": 0.621690667205,
			"0.016": 0.0,
			"0.017": 0.0,
			"0.018": 0.0,
			"0.019": 0.0,
			"0.02": 0.0,
			"0.021": 0.0,
			"0.022": 0.0,
			"0.023": 0.0,
			"0.024": 0.0,
			"0.025": 0.0
		}
	}
}
