{
	 "smiles": "CCOC(=O)CNC1=CC(NCC(=O)OCC)=C(C=C1[N+]([O-])=O)[N+]([O-])=O", 
	 "Tm": 471.15, 
	 "num_atms": 44, 
	 "gaussian": { 
		 "optdone": 1, 
		 "sigma_profile": "yes", 
		 "theory": "DFT", 
		 "functional": "B3LYP", 
		 "basiset": "6-31G**", 
		 "properties": { 
			 "R2extent": 13005.4474, 
			 "electric_dipole_moment_norm": 9.30428353556, 
			 "electric_quadrupole_moment_norm": 31.5138951047, 
			 "total_energy": -1364.96455806, 
			 "HOMO_LUMO_gap": 0.14779, 
			 "cosmo_polarized_energy": -23.33, 
			 "cosmo_cavitation_energy": 49.87, 
			 "cosmo_dispersion_energy": -33.35, 
			 "cosmo_repulsion_energy": 2.57, 
			 "cosmo_total_nonelectrostatic_energy": 19.08, 
			 "SMD_solvation_energy": 12.98 
		},
		"coords": [
			{
				"x": 2.8492314964,
				"y": -2.4457448361,
				"z": -0.9421978241,
				"element": "C" 
			},
			{
				"x": 2.9788136102,
				"y": -1.4701642924,
				"z": -2.0962756756,
				"element": "C" 
			},
			{
				"x": 2.8455798762,
				"y": -0.1260850741,
				"z": -1.5590052542,
				"element": "O" 
			},
			{
				"x": 2.5312815019,
				"y": 0.8461228278,
				"z": -2.4383385754,
				"element": "C" 
			},
			{
				"x": 2.3461717886,
				"y": 0.6809809958,
				"z": -3.6210761769,
				"element": "O" 
			},
			{
				"x": 2.4405091766,
				"y": 2.2074918935,
				"z": -1.7295303448,
				"element": "C" 
			},
			{
				"x": 1.2691211802,
				"y": 2.9602521129,
				"z": -2.1071559928,
				"element": "N" 
			},
			{
				"x": 0.007624909,
				"y": 2.6221816386,
				"z": -1.73801894,
				"element": "C" 
			},
			{
				"x": -0.2340711091,
				"y": 1.5118861284,
				"z": -0.91379267,
				"element": "C" 
			},
			{
				"x": -1.5094574128,
				"y": 1.1092927944,
				"z": -0.4809439114,
				"element": "C" 
			},
			{
				"x": -1.5790946311,
				"y": -0.0376321492,
				"z": 0.2598021072,
				"element": "N" 
			},
			{
				"x": -2.644384483,
				"y": -1.0205359012,
				"z": 0.2548832876,
				"element": "C" 
			},
			{
				"x": -2.0154403844,
				"y": -2.4032943636,
				"z": 0.3679024514,
				"element": "C" 
			},
			{
				"x": -0.8178582618,
				"y": -2.6014563867,
				"z": 0.4599860916,
				"element": "O" 
			},
			{
				"x": -2.9553411162,
				"y": -3.3516598138,
				"z": 0.3623548489,
				"element": "O" 
			},
			{
				"x": -2.5082011944,
				"y": -4.7307741837,
				"z": 0.4869886833,
				"element": "C" 
			},
			{
				"x": -2.343821661,
				"y": -5.1230661545,
				"z": 1.9461303462,
				"element": "C" 
			},
			{
				"x": -2.6150617496,
				"y": 1.9249406228,
				"z": -0.883054639,
				"element": "C" 
			},
			{
				"x": -2.4101191757,
				"y": 2.9986524605,
				"z": -1.7391826205,
				"element": "C" 
			},
			{
				"x": -1.1456133085,
				"y": 3.3599436426,
				"z": -2.1792455674,
				"element": "C" 
			},
			{
				"x": -1.0611989544,
				"y": 4.5023990462,
				"z": -3.0615507986,
				"element": "N" 
			},
			{
				"x": -2.0977533411,
				"y": 5.088978042,
				"z": -3.3693314936,
				"element": "O" 
			},
			{
				"x": 0.0599144258,
				"y": 4.8529608281,
				"z": -3.4819486117,
				"element": "O" 
			},
			{
				"x": -3.957931573,
				"y": 1.7906014954,
				"z": -0.3432930498,
				"element": "N" 
			},
			{
				"x": -4.0890999592,
				"y": 1.2313271955,
				"z": 0.7525838718,
				"element": "O" 
			},
			{
				"x": -4.8916654486,
				"y": 2.2858735135,
				"z": -0.9778575705,
				"element": "O" 
			},
			{
				"x": 3.600140298,
				"y": -2.2459235565,
				"z": -0.1723048652,
				"element": "H" 
			},
			{
				"x": 2.9999351144,
				"y": -3.4661348021,
				"z": -1.3087286923,
				"element": "H" 
			},
			{
				"x": 1.8562541622,
				"y": -2.3914985795,
				"z": -0.4863840282,
				"element": "H" 
			},
			{
				"x": 2.2087969591,
				"y": -1.6178341195,
				"z": -2.8573105732,
				"element": "H" 
			},
			{
				"x": 3.954948373,
				"y": -1.5408709764,
				"z": -2.5877818764,
				"element": "H" 
			},
			{
				"x": 3.3190582712,
				"y": 2.7878817259,
				"z": -2.0260595155,
				"element": "H" 
			},
			{
				"x": 2.4911802905,
				"y": 2.0643894305,
				"z": -0.6457968503,
				"element": "H" 
			},
			{
				"x": 1.3289347096,
				"y": 3.6957127517,
				"z": -2.8019248125,
				"element": "H" 
			},
			{
				"x": 0.5989744473,
				"y": 0.876993925,
				"z": -0.6375809215,
				"element": "H" 
			},
			{
				"x": -0.6812629602,
				"y": -0.490207276,
				"z": 0.401016554,
				"element": "H" 
			},
			{
				"x": -3.2361506421,
				"y": -0.9856415654,
				"z": -0.6679585734,
				"element": "H" 
			},
			{
				"x": -3.3499484197,
				"y": -0.8819634975,
				"z": 1.0793737972,
				"element": "H" 
			},
			{
				"x": -3.2951008976,
				"y": -5.3088557423,
				"z": -0.0013832779,
				"element": "H" 
			},
			{
				"x": -1.5739360226,
				"y": -4.8454863216,
				"z": -0.066978125,
				"element": "H" 
			},
			{
				"x": -3.2723215125,
				"y": -4.9608654994,
				"z": 2.500694167,
				"element": "H" 
			},
			{
				"x": -1.5436963737,
				"y": -4.5452752302,
				"z": 2.4154196197,
				"element": "H" 
			},
			{
				"x": -2.0842472684,
				"y": -6.1845413323,
				"z": 2.0139224024,
				"element": "H" 
			},
			{
				"x": -3.2607927293,
				"y": 3.5902485828,
				"z": -2.0488664004,
				"element": "H" 
			}
		],
		 "valence_orbital": [ 
			{
				"type": "occ",
				"energy": -0.29065,
				"method": "rhf"
			},
			{
				"type": "occ",
				"energy": -0.28892,
				"method": "rhf"
			},
			{
				"type": "occ",
				"energy": -0.28398,
				"method": "rhf"
			},
			{
				"type": "occ",
				"energy": -0.23877,
				"method": "rhf"
			},
			{
				"type": "occ",
				"energy": -0.23605,
				"method": "rhf"
			},
			{
				"type": "unocc",
				"energy": -0.08826,
				"method": "rhf"
			},
			{
				"type": "unocc",
				"energy": -0.07571,
				"method": "rhf"
			},
			{
				"type": "unocc",
				"energy": -0.0169,
				"method": "rhf"
			},
			{
				"type": "unocc",
				"energy": -0.01456,
				"method": "rhf"
			},
			{
				"type": "unocc",
				"energy": -0.00298,
				"method": "rhf"
			}
		],
		"cosmo_sigma_profile": { 
			"-0.025": 0.0,
			"-0.024": 0.0,
			"-0.023": 0.0,
			"-0.022": 0.0,
			"-0.021": 0.0,
			"-0.02": 0.0,
			"-0.019": 0.0,
			"-0.018": 0.0,
			"-0.017": 0.0,
			"-0.016": 0.0,
			"-0.015": 0.0,
			"-0.014": 0.0,
			"-0.013": 0.229264863624,
			"-0.012": 1.27870472687,
			"-0.011": 1.50401021135,
			"-0.01": 2.89106578684,
			"-0.009": 7.19028897154,
			"-0.008": 6.33430422306,
			"-0.007": 9.42253565165,
			"-0.006": 15.9010889256,
			"-0.005": 26.6427219498,
			"-0.004": 39.0930932948,
			"-0.003": 36.1663916591,
			"-0.002": 33.9514945201,
			"-0.001": 34.3905956833,
			"0.0": 31.3424470646,
			"0.001": 22.0699020954,
			"0.002": 14.0605092164,
			"0.003": 11.8644556346,
			"0.004": 11.1409314415,
			"0.005": 11.6799335979,
			"0.006": 12.9916975122,
			"0.007": 15.374984348,
			"0.008": 18.0600638653,
			"0.009": 11.7993746688,
			"0.01": 10.8992077244,
			"0.011": 6.67292675792,
			"0.012": 2.57115447233,
			"0.013": 0.0394741070714,
			"0.014": 0.0,
			"0.015": 0.0,
			"0.016": 0.0,
			"0.017": 0.0,
			"0.018": 0.0,
			"0.019": 0.0,
			"0.02": 0.0,
			"0.021": 0.0,
			"0.022": 0.0,
			"0.023": 0.0,
			"0.024": 0.0,
			"0.025": 0.0
		}
	}
}
