{
	 "smiles": "CCSC1=NC=CC=C1C(Cl)=O", 
	 "Tm": 327.15, 
	 "num_atms": 20, 
	 "gaussian": { 
		 "optdone": 1, 
		 "sigma_profile": "yes", 
		 "theory": "DFT", 
		 "functional": "B3LYP", 
		 "basiset": "6-31G**", 
		 "properties": { 
			 "R2extent": 3373.5255, 
			 "electric_dipole_moment_norm": 3.73139548829, 
			 "electric_quadrupole_moment_norm": 15.1781017496, 
			 "total_energy": -1298.02015015, 
			 "HOMO_LUMO_gap": 0.14428, 
			 "cosmo_polarized_energy": -10.1, 
			 "cosmo_cavitation_energy": 27.44, 
			 "cosmo_dispersion_energy": -20.18, 
			 "cosmo_repulsion_energy": 1.59, 
			 "cosmo_total_nonelectrostatic_energy": 8.85, 
			 "SMD_solvation_energy": 3.71 
		},
		"coords": [
			{
				"x": -2.4095057621,
				"y": -0.279876201,
				"z": 1.06594015,
				"element": "C" 
			},
			{
				"x": -2.1269557863,
				"y": -0.2787627428,
				"z": -0.4329028437,
				"element": "C" 
			},
			{
				"x": -1.6188744615,
				"y": 1.3636654614,
				"z": -1.113036856,
				"element": "S" 
			},
			{
				"x": 0.0025669299,
				"y": 1.5875014198,
				"z": -0.3594613371,
				"element": "C" 
			},
			{
				"x": 0.026458652,
				"y": 2.3765944339,
				"z": 0.7203272105,
				"element": "N" 
			},
			{
				"x": 1.1991951613,
				"y": 2.6788313908,
				"z": 1.2879290215,
				"element": "C" 
			},
			{
				"x": 2.4263625031,
				"y": 2.2368248301,
				"z": 0.7979440324,
				"element": "C" 
			},
			{
				"x": 2.4221443018,
				"y": 1.4330556523,
				"z": -0.334793135,
				"element": "C" 
			},
			{
				"x": 1.2028012397,
				"y": 1.0789491736,
				"z": -0.9282727268,
				"element": "C" 
			},
			{
				"x": 1.1908223266,
				"y": 0.1535619632,
				"z": -2.0928254885,
				"element": "C" 
			},
			{
				"x": 2.6038479814,
				"y": 0.4015207438,
				"z": -3.2387739053,
				"element": "Cl" 
			},
			{
				"x": 0.3967343512,
				"y": -0.6983722504,
				"z": -2.3395896476,
				"element": "O" 
			},
			{
				"x": -3.1977605373,
				"y": 0.4332465448,
				"z": 1.3216446615,
				"element": "H" 
			},
			{
				"x": -2.7299134758,
				"y": -1.2796579658,
				"z": 1.382457545,
				"element": "H" 
			},
			{
				"x": -1.5187839881,
				"y": -0.0130489261,
				"z": 1.6415815174,
				"element": "H" 
			},
			{
				"x": -1.3673870568,
				"y": -1.0089500718,
				"z": -0.7174760562,
				"element": "H" 
			},
			{
				"x": -3.0315478411,
				"y": -0.5094036324,
				"z": -1.0048224771,
				"element": "H" 
			},
			{
				"x": 1.1486579609,
				"y": 3.3095515097,
				"z": 2.1733807948,
				"element": "H" 
			},
			{
				"x": 3.3544642222,
				"y": 2.517313895,
				"z": 1.2843187632,
				"element": "H" 
			},
			{
				"x": 3.3505732789,
				"y": 1.0715547721,
				"z": -0.7616692229,
				"element": "H" 
			}
		],
		 "valence_orbital": [ 
			{
				"type": "occ",
				"energy": -0.31071,
				"method": "rhf"
			},
			{
				"type": "occ",
				"energy": -0.30295,
				"method": "rhf"
			},
			{
				"type": "occ",
				"energy": -0.2831,
				"method": "rhf"
			},
			{
				"type": "occ",
				"energy": -0.27585,
				"method": "rhf"
			},
			{
				"type": "occ",
				"energy": -0.23037,
				"method": "rhf"
			},
			{
				"type": "unocc",
				"energy": -0.08609,
				"method": "rhf"
			},
			{
				"type": "unocc",
				"energy": -0.05496,
				"method": "rhf"
			},
			{
				"type": "unocc",
				"energy": -0.01104,
				"method": "rhf"
			},
			{
				"type": "unocc",
				"energy": 0.01475,
				"method": "rhf"
			},
			{
				"type": "unocc",
				"energy": 0.04342,
				"method": "rhf"
			}
		],
		"cosmo_sigma_profile": { 
			"-0.025": 0.0,
			"-0.024": 0.0,
			"-0.023": 0.0,
			"-0.022": 0.0,
			"-0.021": 0.0,
			"-0.02": 0.0,
			"-0.019": 0.0,
			"-0.018": 0.0,
			"-0.017": 0.0,
			"-0.016": 0.0,
			"-0.015": 0.0,
			"-0.014": 0.0,
			"-0.013": 0.0,
			"-0.012": 0.0,
			"-0.011": 0.0,
			"-0.01": 0.0,
			"-0.009": 1.13327586488,
			"-0.008": 6.48697292042,
			"-0.007": 9.41614788018,
			"-0.006": 8.37848084591,
			"-0.005": 8.10122984437,
			"-0.004": 12.8332044916,
			"-0.003": 20.8519197332,
			"-0.002": 24.5441977917,
			"-0.001": 22.8481545121,
			"0.0": 23.1302443105,
			"0.001": 13.3790698865,
			"0.002": 11.0119368128,
			"0.003": 11.0386023296,
			"0.004": 13.4344526349,
			"0.005": 9.44835013362,
			"0.006": 5.97380734409,
			"0.007": 6.27637761838,
			"0.008": 5.84870092931,
			"0.009": 2.43661731407,
			"0.01": 2.06975786029,
			"0.011": 0.996886936733,
			"0.012": 1.40385447572,
			"0.013": 0.6775373995,
			"0.014": 0.934979313455,
			"0.015": 0.85157007713,
			"0.016": 0.191011910094,
			"0.017": 0.0,
			"0.018": 0.0,
			"0.019": 0.0,
			"0.02": 0.0,
			"0.021": 0.0,
			"0.022": 0.0,
			"0.023": 0.0,
			"0.024": 0.0,
			"0.025": 0.0
		}
	}
}
