{
	 "smiles": "NC(=S)C1=CC2=C(OCO2)C=C1", 
	 "Tm": 457.15, 
	 "num_atms": 19, 
	 "gaussian": { 
		 "optdone": 1, 
		 "sigma_profile": "yes", 
		 "theory": "DFT", 
		 "functional": "B3LYP", 
		 "basiset": "6-31G**", 
		 "properties": { 
			 "R2extent": 4140.2055, 
			 "electric_dipole_moment_norm": 4.70687228741, 
			 "electric_quadrupole_moment_norm": 24.2399675881, 
			 "total_energy": -912.437671748, 
			 "HOMO_LUMO_gap": 0.14815, 
			 "cosmo_polarized_energy": -16.86, 
			 "cosmo_cavitation_energy": 24.86, 
			 "cosmo_dispersion_energy": -19.47, 
			 "cosmo_repulsion_energy": 1.51, 
			 "cosmo_total_nonelectrostatic_energy": 6.9, 
			 "SMD_solvation_energy": 4.09 
		},
		"coords": [
			{
				"x": 0.4116408625,
				"y": -5.0989518437,
				"z": 1.4068222862,
				"element": "N" 
			},
			{
				"x": 0.8326861966,
				"y": -4.3171834886,
				"z": 0.3829694218,
				"element": "C" 
			},
			{
				"x": 1.614960516,
				"y": -4.975173294,
				"z": -0.9385322222,
				"element": "S" 
			},
			{
				"x": 0.5204926655,
				"y": -2.8700058869,
				"z": 0.5208148001,
				"element": "C" 
			},
			{
				"x": 1.3550641715,
				"y": -1.9187279675,
				"z": -0.1145498409,
				"element": "C" 
			},
			{
				"x": 1.0294418496,
				"y": -0.592043454,
				"z": 0.0416057131,
				"element": "C" 
			},
			{
				"x": -0.0809507829,
				"y": -0.1775327181,
				"z": 0.7799059657,
				"element": "C" 
			},
			{
				"x": -0.1576608119,
				"y": 1.1875614287,
				"z": 0.7774412011,
				"element": "O" 
			},
			{
				"x": 0.8923054126,
				"y": 1.6403688165,
				"z": -0.0923582646,
				"element": "C" 
			},
			{
				"x": 1.6927489255,
				"y": 0.5084719147,
				"z": -0.443604141,
				"element": "O" 
			},
			{
				"x": -0.921686067,
				"y": -1.0835917988,
				"z": 1.3962710374,
				"element": "C" 
			},
			{
				"x": -0.5981321672,
				"y": -2.4429861204,
				"z": 1.2567068595,
				"element": "C" 
			},
			{
				"x": 0.1672362401,
				"y": -4.6983649606,
				"z": 2.300292527,
				"element": "H" 
			},
			{
				"x": 0.6282953547,
				"y": -6.0840333947,
				"z": 1.3653308225,
				"element": "H" 
			},
			{
				"x": 2.2094222596,
				"y": -2.242628108,
				"z": -0.6956105977,
				"element": "H" 
			},
			{
				"x": 1.5073702378,
				"y": 2.3761069364,
				"z": 0.4356005714,
				"element": "H" 
			},
			{
				"x": 0.4499813368,
				"y": 2.0770299611,
				"z": -0.9978369377,
				"element": "H" 
			},
			{
				"x": -1.7949284619,
				"y": -0.758729882,
				"z": 1.9499961493,
				"element": "H" 
			},
			{
				"x": -1.2690877379,
				"y": -3.1782861399,
				"z": 1.6883346491,
				"element": "H" 
			}
		],
		 "valence_orbital": [ 
			{
				"type": "occ",
				"energy": -0.32081,
				"method": "rhf"
			},
			{
				"type": "occ",
				"energy": -0.261,
				"method": "rhf"
			},
			{
				"type": "occ",
				"energy": -0.23146,
				"method": "rhf"
			},
			{
				"type": "occ",
				"energy": -0.21734,
				"method": "rhf"
			},
			{
				"type": "occ",
				"energy": -0.20391,
				"method": "rhf"
			},
			{
				"type": "unocc",
				"energy": -0.05576,
				"method": "rhf"
			},
			{
				"type": "unocc",
				"energy": -0.01087,
				"method": "rhf"
			},
			{
				"type": "unocc",
				"energy": 0.03009,
				"method": "rhf"
			},
			{
				"type": "unocc",
				"energy": 0.07231,
				"method": "rhf"
			},
			{
				"type": "unocc",
				"energy": 0.09121,
				"method": "rhf"
			}
		],
		"cosmo_sigma_profile": { 
			"-0.025": 0.0,
			"-0.024": 0.0,
			"-0.023": 0.0,
			"-0.022": 0.0,
			"-0.021": 0.0,
			"-0.02": 0.0,
			"-0.019": 0.0,
			"-0.018": 0.0,
			"-0.017": 0.0,
			"-0.016": 0.0758179118,
			"-0.015": 1.48476737741,
			"-0.014": 2.13491705473,
			"-0.013": 2.49690920429,
			"-0.012": 3.16447208178,
			"-0.011": 2.16772576206,
			"-0.01": 1.53240874097,
			"-0.009": 2.71913797629,
			"-0.008": 8.14771563814,
			"-0.007": 11.3902621143,
			"-0.006": 11.44069118,
			"-0.005": 8.96139376321,
			"-0.004": 7.80793421523,
			"-0.003": 7.96129563525,
			"-0.002": 8.36327591502,
			"-0.001": 8.42314994162,
			"0.0": 10.1905361594,
			"0.001": 15.4657839299,
			"0.002": 15.182262213,
			"0.003": 13.9566286496,
			"0.004": 8.67389445189,
			"0.005": 6.94330774432,
			"0.006": 6.38345800747,
			"0.007": 7.59914285099,
			"0.008": 8.82950761473,
			"0.009": 9.38817697218,
			"0.01": 5.41921065484,
			"0.011": 3.45736055646,
			"0.012": 2.17800497785,
			"0.013": 0.0421624842759,
			"0.014": 0.0,
			"0.015": 0.0,
			"0.016": 0.0,
			"0.017": 0.0,
			"0.018": 0.0,
			"0.019": 0.0,
			"0.02": 0.0,
			"0.021": 0.0,
			"0.022": 0.0,
			"0.023": 0.0,
			"0.024": 0.0,
			"0.025": 0.0
		}
	}
}
