{
	 "smiles": "NC1=CC2=C(C=C1)C(=O)NS2(=O)=O", 
	 "Tm": 553.15, 
	 "num_atms": 19, 
	 "gaussian": { 
		 "optdone": 1, 
		 "sigma_profile": "yes", 
		 "theory": "DFT", 
		 "functional": "B3LYP", 
		 "basiset": "6-31G**", 
		 "properties": { 
			 "R2extent": 2765.0025, 
			 "electric_dipole_moment_norm": 6.30907188261, 
			 "electric_quadrupole_moment_norm": 15.6267881953, 
			 "total_energy": -1003.66255372, 
			 "HOMO_LUMO_gap": 0.17757, 
			 "cosmo_polarized_energy": -22.47, 
			 "cosmo_cavitation_energy": 25.35, 
			 "cosmo_dispersion_energy": -19.49, 
			 "cosmo_repulsion_energy": 1.49, 
			 "cosmo_total_nonelectrostatic_energy": 7.35, 
			 "SMD_solvation_energy": 4.21 
		},
		"coords": [
			{
				"x": 0.7374448925,
				"y": -2.905751336,
				"z": -0.4163437472,
				"element": "N" 
			},
			{
				"x": 0.1483634908,
				"y": -1.7060926186,
				"z": -0.0849259859,
				"element": "C" 
			},
			{
				"x": 0.76060301,
				"y": -0.4861900257,
				"z": -0.4514774485,
				"element": "C" 
			},
			{
				"x": 0.1450215046,
				"y": 0.6852262452,
				"z": -0.0559750136,
				"element": "C" 
			},
			{
				"x": -1.0348918411,
				"y": 0.7223688293,
				"z": 0.6863819285,
				"element": "C" 
			},
			{
				"x": -1.6392139255,
				"y": -0.4821155697,
				"z": 1.0497016064,
				"element": "C" 
			},
			{
				"x": -1.0518638365,
				"y": -1.6798182593,
				"z": 0.6655176163,
				"element": "C" 
			},
			{
				"x": -1.5129237352,
				"y": 2.0889425271,
				"z": 0.997659941,
				"element": "C" 
			},
			{
				"x": -2.535654105,
				"y": 2.4042719172,
				"z": 1.5733404565,
				"element": "O" 
			},
			{
				"x": -0.566690491,
				"y": 3.0042091326,
				"z": 0.515335002,
				"element": "N" 
			},
			{
				"x": 0.7149258715,
				"y": 2.3449757556,
				"z": -0.4106913275,
				"element": "S" 
			},
			{
				"x": 1.9973837736,
				"y": 2.6177394476,
				"z": 0.2350236079,
				"element": "O" 
			},
			{
				"x": 0.536214759,
				"y": 2.6930372634,
				"z": -1.8214480658,
				"element": "O" 
			},
			{
				"x": 1.4317626906,
				"y": -2.9068331746,
				"z": -1.1477968538,
				"element": "H" 
			},
			{
				"x": 0.1687907974,
				"y": -3.7376235271,
				"z": -0.3766634849,
				"element": "H" 
			},
			{
				"x": 1.6834274373,
				"y": -0.4780475921,
				"z": -1.0229645891,
				"element": "H" 
			},
			{
				"x": -2.5587078504,
				"y": -0.4677276709,
				"z": 1.6256904701,
				"element": "H" 
			},
			{
				"x": -1.5139728842,
				"y": -2.6221541875,
				"z": 0.9465945499,
				"element": "H" 
			},
			{
				"x": -0.7809195584,
				"y": 3.9915828434,
				"z": 0.4479413379,
				"element": "H" 
			}
		],
		 "valence_orbital": [ 
			{
				"type": "occ",
				"energy": -0.32309,
				"method": "rhf"
			},
			{
				"type": "occ",
				"energy": -0.2839,
				"method": "rhf"
			},
			{
				"type": "occ",
				"energy": -0.28087,
				"method": "rhf"
			},
			{
				"type": "occ",
				"energy": -0.27551,
				"method": "rhf"
			},
			{
				"type": "occ",
				"energy": -0.23865,
				"method": "rhf"
			},
			{
				"type": "unocc",
				"energy": -0.06108,
				"method": "rhf"
			},
			{
				"type": "unocc",
				"energy": -0.04243,
				"method": "rhf"
			},
			{
				"type": "unocc",
				"energy": 0.03868,
				"method": "rhf"
			},
			{
				"type": "unocc",
				"energy": 0.04101,
				"method": "rhf"
			},
			{
				"type": "unocc",
				"energy": 0.04901,
				"method": "rhf"
			}
		],
		"cosmo_sigma_profile": { 
			"-0.025": 0.0,
			"-0.024": 0.0,
			"-0.023": 0.0,
			"-0.022": 0.0,
			"-0.021": 0.0,
			"-0.02": 0.0,
			"-0.019": 0.0,
			"-0.018": 0.647171385693,
			"-0.017": 1.35008478918,
			"-0.016": 1.48638925468,
			"-0.015": 0.823010024823,
			"-0.014": 3.57144415422,
			"-0.013": 4.64809638191,
			"-0.012": 4.10523338611,
			"-0.011": 5.22916512431,
			"-0.01": 3.85394449536,
			"-0.009": 5.31080563528,
			"-0.008": 6.21674244312,
			"-0.007": 7.60533627353,
			"-0.006": 6.32105433271,
			"-0.005": 5.83174806544,
			"-0.004": 6.70580798639,
			"-0.003": 8.89798906589,
			"-0.002": 6.9215680997,
			"-0.001": 8.58426450657,
			"0.0": 12.4017595457,
			"0.001": 18.7125296455,
			"0.002": 14.0285309674,
			"0.003": 6.80114202964,
			"0.004": 4.34982309462,
			"0.005": 4.36820715671,
			"0.006": 4.47305107989,
			"0.007": 4.16504001692,
			"0.008": 6.38767930866,
			"0.009": 10.1620010299,
			"0.01": 17.2772149529,
			"0.011": 7.17773046576,
			"0.012": 4.44393574767,
			"0.013": 0.33573929978,
			"0.014": 0.0,
			"0.015": 0.0,
			"0.016": 0.0,
			"0.017": 0.0,
			"0.018": 0.0,
			"0.019": 0.0,
			"0.02": 0.0,
			"0.021": 0.0,
			"0.022": 0.0,
			"0.023": 0.0,
			"0.024": 0.0,
			"0.025": 0.0
		}
	}
}
