{
	 "smiles": "FC(F)(F)C1=C(C=CC(Cl)=C1)N=[N+]=[N-]", 
	 "Tm": 306.15, 
	 "num_atms": 17, 
	 "gaussian": { 
		 "optdone": 1, 
		 "sigma_profile": "yes", 
		 "theory": "DFT", 
		 "functional": "B3LYP", 
		 "basiset": "6-31G**", 
		 "properties": { 
			 "R2extent": 4333.0748, 
			 "electric_dipole_moment_norm": 2.17763161485, 
			 "electric_quadrupole_moment_norm": 6.66808161018, 
			 "total_energy": -1192.45418154, 
			 "HOMO_LUMO_gap": 0.18592, 
			 "cosmo_polarized_energy": -6.15, 
			 "cosmo_cavitation_energy": 26.45, 
			 "cosmo_dispersion_energy": -18.62, 
			 "cosmo_repulsion_energy": 1.42, 
			 "cosmo_total_nonelectrostatic_energy": 9.26, 
			 "SMD_solvation_energy": 3.85 
		},
		"coords": [
			{
				"x": -0.717739725,
				"y": 0.4211857008,
				"z": 1.3961641823,
				"element": "F" 
			},
			{
				"x": -1.5859630949,
				"y": 0.6737552449,
				"z": 0.3963406722,
				"element": "C" 
			},
			{
				"x": -1.466002822,
				"y": 1.9777464754,
				"z": 0.0760751135,
				"element": "F" 
			},
			{
				"x": -2.830549851,
				"y": 0.4977945776,
				"z": 0.8943481914,
				"element": "F" 
			},
			{
				"x": -1.3418048239,
				"y": -0.22115333,
				"z": -0.7973116273,
				"element": "C" 
			},
			{
				"x": -0.1053761593,
				"y": -0.1986959742,
				"z": -1.4723653356,
				"element": "C" 
			},
			{
				"x": 0.0892966744,
				"y": -1.0405395938,
				"z": -2.5755009673,
				"element": "C" 
			},
			{
				"x": -0.9226457323,
				"y": -1.8928100711,
				"z": -3.0063009614,
				"element": "C" 
			},
			{
				"x": -2.1414609538,
				"y": -1.9059153506,
				"z": -2.3302597054,
				"element": "C" 
			},
			{
				"x": -3.4219365843,
				"y": -2.9756045883,
				"z": -2.8651962338,
				"element": "Cl" 
			},
			{
				"x": -2.3535581551,
				"y": -1.0760075828,
				"z": -1.2313598997,
				"element": "C" 
			},
			{
				"x": 0.8793136327,
				"y": 0.6882736649,
				"z": -0.9853219002,
				"element": "N" 
			},
			{
				"x": 1.9746436228,
				"y": 0.7268077926,
				"z": -1.5615805639,
				"element": "N" 
			},
			{
				"x": 3.0217808614,
				"y": 0.8681588351,
				"z": -1.9890984667,
				"element": "N" 
			},
			{
				"x": 1.0385551871,
				"y": -1.0304069679,
				"z": -3.1022020504,
				"element": "H" 
			},
			{
				"x": -0.7651324726,
				"y": -2.5415475454,
				"z": -3.8606386269,
				"element": "H" 
			},
			{
				"x": -3.3022196041,
				"y": -1.0909412874,
				"z": -0.7107918207,
				"element": "H" 
			}
		],
		 "valence_orbital": [ 
			{
				"type": "occ",
				"energy": -0.33254,
				"method": "rhf"
			},
			{
				"type": "occ",
				"energy": -0.32845,
				"method": "rhf"
			},
			{
				"type": "occ",
				"energy": -0.31562,
				"method": "rhf"
			},
			{
				"type": "occ",
				"energy": -0.29313,
				"method": "rhf"
			},
			{
				"type": "occ",
				"energy": -0.24464,
				"method": "rhf"
			},
			{
				"type": "unocc",
				"energy": -0.05872,
				"method": "rhf"
			},
			{
				"type": "unocc",
				"energy": -0.05533,
				"method": "rhf"
			},
			{
				"type": "unocc",
				"energy": -0.04658,
				"method": "rhf"
			},
			{
				"type": "unocc",
				"energy": 0.01508,
				"method": "rhf"
			},
			{
				"type": "unocc",
				"energy": 0.01515,
				"method": "rhf"
			}
		],
		"cosmo_sigma_profile": { 
			"-0.025": 0.0,
			"-0.024": 0.0,
			"-0.023": 0.0,
			"-0.022": 0.0,
			"-0.021": 0.0,
			"-0.02": 0.0,
			"-0.019": 0.0,
			"-0.018": 0.0,
			"-0.017": 0.0,
			"-0.016": 0.0,
			"-0.015": 0.0,
			"-0.014": 0.0,
			"-0.013": 0.0,
			"-0.012": 0.0,
			"-0.011": 0.0,
			"-0.01": 0.0,
			"-0.009": 2.51094512335,
			"-0.008": 7.81929071187,
			"-0.007": 7.3978809794,
			"-0.006": 5.81751417606,
			"-0.005": 9.47160542394,
			"-0.004": 8.41673512647,
			"-0.003": 11.2784403128,
			"-0.002": 11.6335812198,
			"-0.001": 14.5717241268,
			"0.0": 24.3939042587,
			"0.001": 24.516850165,
			"0.002": 28.0561364086,
			"0.003": 28.6805099345,
			"0.004": 16.8632414184,
			"0.005": 7.77617353624,
			"0.006": 5.62603753067,
			"0.007": 2.24108166396,
			"0.008": 0.0206034602741,
			"0.009": 0.0,
			"0.01": 0.0,
			"0.011": 0.0,
			"0.012": 0.0,
			"0.013": 0.0,
			"0.014": 0.0,
			"0.015": 0.0,
			"0.016": 0.0,
			"0.017": 0.0,
			"0.018": 0.0,
			"0.019": 0.0,
			"0.02": 0.0,
			"0.021": 0.0,
			"0.022": 0.0,
			"0.023": 0.0,
			"0.024": 0.0,
			"0.025": 0.0
		}
	}
}
