{
	 "smiles": "C[C@]12CC[C@H]3[C@@H](CC(=O)C4=CC(=O)C=C[C@]34C)[C@@H]1CCC21OCCO1", 
	 "Tm": 480.0, 
	 "num_atms": 51, 
	 "gaussian": { 
		 "optdone": 1, 
		 "sigma_profile": "yes", 
		 "theory": "DFT", 
		 "functional": "B3LYP", 
		 "basiset": "6-31G**", 
		 "properties": { 
			 "R2extent": 10017.8967, 
			 "electric_dipole_moment_norm": 7.40145856774, 
			 "electric_quadrupole_moment_norm": 30.0777437872, 
			 "total_energy": -1116.76403386, 
			 "HOMO_LUMO_gap": 0.1578, 
			 "cosmo_polarized_energy": -18.58, 
			 "cosmo_cavitation_energy": 46.77, 
			 "cosmo_dispersion_energy": -32.41, 
			 "cosmo_repulsion_energy": 2.37, 
			 "cosmo_total_nonelectrostatic_energy": 16.73, 
			 "SMD_solvation_energy": 8.26 
		},
		"coords": [
			{
				"x": 0.5715747455,
				"y": 1.6967210859,
				"z": -1.9091514405,
				"element": "C" 
			},
			{
				"x": -0.4830961849,
				"y": 0.8179555323,
				"z": -1.2009389823,
				"element": "C" 
			},
			{
				"x": -0.6989945493,
				"y": 1.2953706689,
				"z": 0.2416779158,
				"element": "C" 
			},
			{
				"x": 0.5328147043,
				"y": 0.9970908841,
				"z": 1.1233245965,
				"element": "C" 
			},
			{
				"x": 0.9796689708,
				"y": -0.4841964933,
				"z": 1.0786620298,
				"element": "C" 
			},
			{
				"x": 1.1542652437,
				"y": -0.9971659128,
				"z": -0.379768953,
				"element": "C" 
			},
			{
				"x": 1.4694415225,
				"y": -2.5037076688,
				"z": -0.4091118668,
				"element": "C" 
			},
			{
				"x": 2.531507004,
				"y": -2.9687488425,
				"z": 0.5729798222,
				"element": "C" 
			},
			{
				"x": 3.278327163,
				"y": -3.900012338,
				"z": 0.3265990296,
				"element": "O" 
			},
			{
				"x": 2.5220536772,
				"y": -2.2882594643,
				"z": 1.913048238,
				"element": "C" 
			},
			{
				"x": 2.7052627614,
				"y": -3.044810036,
				"z": 3.0121845158,
				"element": "C" 
			},
			{
				"x": 2.5794947979,
				"y": -2.501248303,
				"z": 4.3805821653,
				"element": "C" 
			},
			{
				"x": 2.748441343,
				"y": -3.1997121617,
				"z": 5.3760787867,
				"element": "O" 
			},
			{
				"x": 2.23074304,
				"y": -1.0691094011,
				"z": 4.4681778089,
				"element": "C" 
			},
			{
				"x": 2.0808295619,
				"y": -0.3069106786,
				"z": 3.374329844,
				"element": "C" 
			},
			{
				"x": 2.258741783,
				"y": -0.7927661137,
				"z": 1.9558026406,
				"element": "C" 
			},
			{
				"x": 3.53225195,
				"y": -0.0765030911,
				"z": 1.4024973412,
				"element": "C" 
			},
			{
				"x": -0.1214535756,
				"y": -0.6875429996,
				"z": -1.1731663632,
				"element": "C" 
			},
			{
				"x": -0.2257024392,
				"y": -1.1319272156,
				"z": -2.6488630251,
				"element": "C" 
			},
			{
				"x": -1.3646289295,
				"y": -0.2464021986,
				"z": -3.2295783864,
				"element": "C" 
			},
			{
				"x": -1.7463116047,
				"y": 0.7594198202,
				"z": -2.1082370051,
				"element": "C" 
			},
			{
				"x": -2.8558862609,
				"y": 0.2792703743,
				"z": -1.3433465974,
				"element": "O" 
			},
			{
				"x": -4.0111021453,
				"y": 0.988123874,
				"z": -1.7772413565,
				"element": "C" 
			},
			{
				"x": -3.4308758164,
				"y": 2.35261365,
				"z": -2.1330598864,
				"element": "C" 
			},
			{
				"x": -2.1497636508,
				"y": 2.0121169093,
				"z": -2.657793648,
				"element": "O" 
			},
			{
				"x": 0.1984705971,
				"y": 2.7212065999,
				"z": -1.9852404149,
				"element": "H" 
			},
			{
				"x": 1.5181866728,
				"y": 1.7196222382,
				"z": -1.3643128205,
				"element": "H" 
			},
			{
				"x": 0.7901085263,
				"y": 1.3566461683,
				"z": -2.9248339283,
				"element": "H" 
			},
			{
				"x": -0.9090153211,
				"y": 2.3721873421,
				"z": 0.2706621296,
				"element": "H" 
			},
			{
				"x": -1.5767756838,
				"y": 0.7879619557,
				"z": 0.6543463798,
				"element": "H" 
			},
			{
				"x": 1.3634502785,
				"y": 1.6459732876,
				"z": 0.8228842227,
				"element": "H" 
			},
			{
				"x": 0.2872232859,
				"y": 1.2739946247,
				"z": 2.1532863267,
				"element": "H" 
			},
			{
				"x": 0.165738666,
				"y": -1.0766016637,
				"z": 1.5243407069,
				"element": "H" 
			},
			{
				"x": 1.9920804184,
				"y": -0.4643335221,
				"z": -0.8472438015,
				"element": "H" 
			},
			{
				"x": 1.7524238114,
				"y": -2.8489435608,
				"z": -1.4072619055,
				"element": "H" 
			},
			{
				"x": 0.5568106143,
				"y": -3.0555125984,
				"z": -0.1307205793,
				"element": "H" 
			},
			{
				"x": 2.9169269608,
				"y": -4.1061857077,
				"z": 2.920960881,
				"element": "H" 
			},
			{
				"x": 2.1247307638,
				"y": -0.6614573737,
				"z": 5.469472786,
				"element": "H" 
			},
			{
				"x": 1.8758095263,
				"y": 0.7541975233,
				"z": 3.4936424425,
				"element": "H" 
			},
			{
				"x": 3.7683769068,
				"y": -0.3935341506,
				"z": 0.3833191266,
				"element": "H" 
			},
			{
				"x": 3.405187012,
				"y": 1.0096679886,
				"z": 1.402003395,
				"element": "H" 
			},
			{
				"x": 4.3919064795,
				"y": -0.317299762,
				"z": 2.0329088876,
				"element": "H" 
			},
			{
				"x": -0.9475027538,
				"y": -1.1806307911,
				"z": -0.6382930686,
				"element": "H" 
			},
			{
				"x": -0.4428831524,
				"y": -2.199452917,
				"z": -2.742637749,
				"element": "H" 
			},
			{
				"x": 0.7163283157,
				"y": -0.9522582825,
				"z": -3.1792278932,
				"element": "H" 
			},
			{
				"x": -2.2487542251,
				"y": -0.828241153,
				"z": -3.5037623714,
				"element": "H" 
			},
			{
				"x": -1.0457641638,
				"y": 0.3053406513,
				"z": -4.1171353365,
				"element": "H" 
			},
			{
				"x": -4.4663248248,
				"y": 0.5071075037,
				"z": -2.6559268194,
				"element": "H" 
			},
			{
				"x": -4.7361218507,
				"y": 1.0040729588,
				"z": -0.9596304011,
				"element": "H" 
			},
			{
				"x": -3.9930189742,
				"y": 2.8892036615,
				"z": -2.9025979537,
				"element": "H" 
			},
			{
				"x": -3.3365009974,
				"y": 2.9914090986,
				"z": -1.2434894651,
				"element": "H" 
			}
		],
		 "valence_orbital": [ 
			{
				"type": "occ",
				"energy": -0.27572,
				"method": "rhf"
			},
			{
				"type": "occ",
				"energy": -0.26819,
				"method": "rhf"
			},
			{
				"type": "occ",
				"energy": -0.25604,
				"method": "rhf"
			},
			{
				"type": "occ",
				"energy": -0.24885,
				"method": "rhf"
			},
			{
				"type": "occ",
				"energy": -0.23657,
				"method": "rhf"
			},
			{
				"type": "unocc",
				"energy": -0.07877,
				"method": "rhf"
			},
			{
				"type": "unocc",
				"energy": -0.03056,
				"method": "rhf"
			},
			{
				"type": "unocc",
				"energy": 0.01857,
				"method": "rhf"
			},
			{
				"type": "unocc",
				"energy": 0.06852,
				"method": "rhf"
			},
			{
				"type": "unocc",
				"energy": 0.07695,
				"method": "rhf"
			}
		],
		"cosmo_sigma_profile": { 
			"-0.025": 0.0,
			"-0.024": 0.0,
			"-0.023": 0.0,
			"-0.022": 0.0,
			"-0.021": 0.0,
			"-0.02": 0.0,
			"-0.019": 0.0,
			"-0.018": 0.0,
			"-0.017": 0.0,
			"-0.016": 0.0,
			"-0.015": 0.0,
			"-0.014": 0.0,
			"-0.013": 0.0,
			"-0.012": 0.0,
			"-0.011": 0.0,
			"-0.01": 0.0,
			"-0.009": 0.0,
			"-0.008": 0.132094352505,
			"-0.007": 3.15115490845,
			"-0.006": 15.1495326353,
			"-0.005": 24.7362275896,
			"-0.004": 37.9170994796,
			"-0.003": 46.6787344128,
			"-0.002": 46.700170856,
			"-0.001": 41.293436136,
			"0.0": 32.6820889506,
			"0.001": 23.6684606609,
			"0.002": 15.2484730174,
			"0.003": 8.24582310451,
			"0.004": 8.57885032913,
			"0.005": 6.12814547282,
			"0.006": 6.23683443984,
			"0.007": 6.23072216813,
			"0.008": 5.2228966337,
			"0.009": 5.3883869979,
			"0.01": 6.23595007391,
			"0.011": 7.86210293736,
			"0.012": 8.83855651793,
			"0.013": 5.50836494565,
			"0.014": 1.76178959376,
			"0.015": 0.0207064612458,
			"0.016": 0.0,
			"0.017": 0.0,
			"0.018": 0.0,
			"0.019": 0.0,
			"0.02": 0.0,
			"0.021": 0.0,
			"0.022": 0.0,
			"0.023": 0.0,
			"0.024": 0.0,
			"0.025": 0.0
		}
	}
}
