{
	 "smiles": "C1CN2C=CC=C2C(N1)C1=CC=CC=C1", 
	 "Tm": 346.15, 
	 "num_atms": 29, 
	 "gaussian": { 
		 "optdone": 1, 
		 "sigma_profile": "yes", 
		 "theory": "DFT", 
		 "functional": "B3LYP", 
		 "basiset": "6-31G**", 
		 "properties": { 
			 "R2extent": 3827.525, 
			 "electric_dipole_moment_norm": 2.01135304957, 
			 "electric_quadrupole_moment_norm": 6.92881473919, 
			 "total_energy": -613.30417636, 
			 "HOMO_LUMO_gap": 0.201, 
			 "cosmo_polarized_energy": -8.81, 
			 "cosmo_cavitation_energy": 30.55, 
			 "cosmo_dispersion_energy": -22.22, 
			 "cosmo_repulsion_energy": 1.73, 
			 "cosmo_total_nonelectrostatic_energy": 10.05, 
			 "SMD_solvation_energy": 3.19 
		},
		"coords": [
			{
				"x": 0.9407914653,
				"y": -1.421624311,
				"z": 1.8322243413,
				"element": "C" 
			},
			{
				"x": 0.4755188316,
				"y": -2.8852795954,
				"z": 1.8197999943,
				"element": "C" 
			},
			{
				"x": -0.2891243584,
				"y": -3.1548595709,
				"z": 0.6064807802,
				"element": "N" 
			},
			{
				"x": -0.7252073818,
				"y": -4.3947151449,
				"z": 0.1952486377,
				"element": "C" 
			},
			{
				"x": -1.5848689021,
				"y": -4.2193489224,
				"z": -0.8673735485,
				"element": "C" 
			},
			{
				"x": -1.6858407104,
				"y": -2.8187943678,
				"z": -1.1008573553,
				"element": "C" 
			},
			{
				"x": -0.8813578542,
				"y": -2.1793561887,
				"z": -0.1753143238,
				"element": "C" 
			},
			{
				"x": -0.5710931564,
				"y": -0.720522752,
				"z": 0.0641705273,
				"element": "C" 
			},
			{
				"x": -0.110869015,
				"y": -0.4785677731,
				"z": 1.4502951426,
				"element": "N" 
			},
			{
				"x": 0.439784186,
				"y": -0.1029359337,
				"z": -0.920208491,
				"element": "C" 
			},
			{
				"x": 0.9149735801,
				"y": 1.1930634934,
				"z": -0.6674507078,
				"element": "C" 
			},
			{
				"x": 1.8000151895,
				"y": 1.8122057019,
				"z": -1.5481292633,
				"element": "C" 
			},
			{
				"x": 2.229189065,
				"y": 1.1445339048,
				"z": -2.6986170146,
				"element": "C" 
			},
			{
				"x": 1.7635476379,
				"y": -0.1439004895,
				"z": -2.9565953854,
				"element": "C" 
			},
			{
				"x": 0.8740275129,
				"y": -0.7635154571,
				"z": -2.0737033488,
				"element": "C" 
			},
			{
				"x": 1.3103141751,
				"y": -1.1692251093,
				"z": 2.8315555739,
				"element": "H" 
			},
			{
				"x": 1.7725756335,
				"y": -1.2888743025,
				"z": 1.1321461632,
				"element": "H" 
			},
			{
				"x": 1.332217403,
				"y": -3.5672181959,
				"z": 1.8685946596,
				"element": "H" 
			},
			{
				"x": -0.1552974623,
				"y": -3.0849752363,
				"z": 2.6981370403,
				"element": "H" 
			},
			{
				"x": -0.3910966686,
				"y": -5.2906024975,
				"z": 0.698796244,
				"element": "H" 
			},
			{
				"x": -2.0802833078,
				"y": -5.0069680182,
				"z": -1.4179333595,
				"element": "H" 
			},
			{
				"x": -2.2675206705,
				"y": -2.329044011,
				"z": -1.8703435584,
				"element": "H" 
			},
			{
				"x": -1.5061946652,
				"y": -0.1567647252,
				"z": -0.0505764855,
				"element": "H" 
			},
			{
				"x": -0.9036652393,
				"y": -0.583319938,
				"z": 2.0810602166,
				"element": "H" 
			},
			{
				"x": 0.5937541081,
				"y": 1.7004478723,
				"z": 0.2366725899,
				"element": "H" 
			},
			{
				"x": 2.1572680523,
				"y": 2.816489989,
				"z": -1.336191287,
				"element": "H" 
			},
			{
				"x": 2.91999261,
				"y": 1.625731595,
				"z": -3.3854228772,
				"element": "H" 
			},
			{
				"x": 2.0923272807,
				"y": -0.6742693551,
				"z": -3.8462730053,
				"element": "H" 
			},
			{
				"x": 0.5127226608,
				"y": -1.7649906609,
				"z": -2.2831918995,
				"element": "H" 
			}
		],
		 "valence_orbital": [ 
			{
				"type": "occ",
				"energy": -0.24236,
				"method": "rhf"
			},
			{
				"type": "occ",
				"energy": -0.24023,
				"method": "rhf"
			},
			{
				"type": "occ",
				"energy": -0.23047,
				"method": "rhf"
			},
			{
				"type": "occ",
				"energy": -0.22542,
				"method": "rhf"
			},
			{
				"type": "occ",
				"energy": -0.19733,
				"method": "rhf"
			},
			{
				"type": "unocc",
				"energy": 0.00367,
				"method": "rhf"
			},
			{
				"type": "unocc",
				"energy": 0.00862,
				"method": "rhf"
			},
			{
				"type": "unocc",
				"energy": 0.0388,
				"method": "rhf"
			},
			{
				"type": "unocc",
				"energy": 0.08188,
				"method": "rhf"
			},
			{
				"type": "unocc",
				"energy": 0.08342,
				"method": "rhf"
			}
		],
		"cosmo_sigma_profile": { 
			"-0.025": 0.0,
			"-0.024": 0.0,
			"-0.023": 0.0,
			"-0.022": 0.0,
			"-0.021": 0.0,
			"-0.02": 0.0,
			"-0.019": 0.0,
			"-0.018": 0.0,
			"-0.017": 0.0,
			"-0.016": 0.0,
			"-0.015": 0.0,
			"-0.014": 0.0,
			"-0.013": 0.0,
			"-0.012": 0.0,
			"-0.011": 0.324106518081,
			"-0.01": 1.37442883299,
			"-0.009": 1.86908472598,
			"-0.008": 1.14822567667,
			"-0.007": 2.73750802227,
			"-0.006": 6.82521392733,
			"-0.005": 22.3454770913,
			"-0.004": 24.8991242063,
			"-0.003": 27.1327384729,
			"-0.002": 19.0400452701,
			"-0.001": 16.7738937767,
			"0.0": 14.7436858013,
			"0.001": 14.7624331177,
			"0.002": 14.288807866,
			"0.003": 14.1145782297,
			"0.004": 12.8334355172,
			"0.005": 13.4272712553,
			"0.006": 13.3134672569,
			"0.007": 8.2953240866,
			"0.008": 4.88402993029,
			"0.009": 3.75673562514,
			"0.01": 1.26891404556,
			"0.011": 0.773817193552,
			"0.012": 0.426442527522,
			"0.013": 0.465843177054,
			"0.014": 0.301547194721,
			"0.015": 0.0,
			"0.016": 0.0,
			"0.017": 0.0,
			"0.018": 0.0,
			"0.019": 0.0,
			"0.02": 0.0,
			"0.021": 0.0,
			"0.022": 0.0,
			"0.023": 0.0,
			"0.024": 0.0,
			"0.025": 0.0
		}
	}
}
