{
	 "smiles": "NC1=C(N)C=C(Cl)C(Cl)=C1", 
	 "Tm": 435.15, 
	 "num_atms": 16, 
	 "gaussian": { 
		 "optdone": 1, 
		 "sigma_profile": "yes", 
		 "theory": "DFT", 
		 "functional": "B3LYP", 
		 "basiset": "6-31G**", 
		 "properties": { 
			 "R2extent": 2564.3782, 
			 "electric_dipole_moment_norm": 4.62753344883, 
			 "electric_quadrupole_moment_norm": 8.90256749595, 
			 "total_energy": -1262.1457961, 
			 "HOMO_LUMO_gap": 0.19461, 
			 "cosmo_polarized_energy": -12.13, 
			 "cosmo_cavitation_energy": 23.35, 
			 "cosmo_dispersion_energy": -17.87, 
			 "cosmo_repulsion_energy": 1.46, 
			 "cosmo_total_nonelectrostatic_energy": 6.93, 
			 "SMD_solvation_energy": 3.43 
		},
		"coords": [
			{
				"x": 0.7073826385,
				"y": -2.3164589213,
				"z": 1.2257754971,
				"element": "N" 
			},
			{
				"x": 0.7613613036,
				"y": -1.0155981304,
				"z": 0.6984919424,
				"element": "C" 
			},
			{
				"x": 0.3598902184,
				"y": -0.8304790597,
				"z": -0.6471815033,
				"element": "C" 
			},
			{
				"x": -0.0029425778,
				"y": -1.9689562848,
				"z": -1.3857010335,
				"element": "N" 
			},
			{
				"x": 0.3869790301,
				"y": 0.4500385489,
				"z": -1.1954366221,
				"element": "C" 
			},
			{
				"x": 0.7866582529,
				"y": 1.5540727,
				"z": -0.4351318713,
				"element": "C" 
			},
			{
				"x": 0.7907489247,
				"y": 3.1322591533,
				"z": -1.1926317681,
				"element": "Cl" 
			},
			{
				"x": 1.1506983192,
				"y": 1.3762590785,
				"z": 0.9000495957,
				"element": "C" 
			},
			{
				"x": 1.6454594146,
				"y": 2.7175354149,
				"z": 1.9103187586,
				"element": "Cl" 
			},
			{
				"x": 1.1422332483,
				"y": 0.0916162413,
				"z": 1.4535156616,
				"element": "C" 
			},
			{
				"x": 1.0901174346,
				"y": -3.0075310049,
				"z": 0.5872046009,
				"element": "H" 
			},
			{
				"x": 1.1359174642,
				"y": -2.4019526924,
				"z": 2.138991765,
				"element": "H" 
			},
			{
				"x": -0.4094464361,
				"y": -1.7545516554,
				"z": -2.2877548492,
				"element": "H" 
			},
			{
				"x": -0.6101881423,
				"y": -2.5915934558,
				"z": -0.8609001938,
				"element": "H" 
			},
			{
				"x": 0.0831206478,
				"y": 0.6049641425,
				"z": -2.2257789522,
				"element": "H" 
			},
			{
				"x": 1.4506102593,
				"y": -0.0367240746,
				"z": 2.4861689722,
				"element": "H" 
			}
		],
		 "valence_orbital": [ 
			{
				"type": "occ",
				"energy": -0.31532,
				"method": "rhf"
			},
			{
				"type": "occ",
				"energy": -0.29943,
				"method": "rhf"
			},
			{
				"type": "occ",
				"energy": -0.28253,
				"method": "rhf"
			},
			{
				"type": "occ",
				"energy": -0.2349,
				"method": "rhf"
			},
			{
				"type": "occ",
				"energy": -0.20128,
				"method": "rhf"
			},
			{
				"type": "unocc",
				"energy": -0.00667,
				"method": "rhf"
			},
			{
				"type": "unocc",
				"energy": 0.00349,
				"method": "rhf"
			},
			{
				"type": "unocc",
				"energy": 0.01172,
				"method": "rhf"
			},
			{
				"type": "unocc",
				"energy": 0.06288,
				"method": "rhf"
			},
			{
				"type": "unocc",
				"energy": 0.07204,
				"method": "rhf"
			}
		],
		"cosmo_sigma_profile": { 
			"-0.025": 0.0,
			"-0.024": 0.0,
			"-0.023": 0.0,
			"-0.022": 0.0,
			"-0.021": 0.0,
			"-0.02": 0.0,
			"-0.019": 0.0,
			"-0.018": 0.0,
			"-0.017": 0.0,
			"-0.016": 0.0,
			"-0.015": 0.0,
			"-0.014": 0.0,
			"-0.013": 1.02220503327,
			"-0.012": 3.7507303194,
			"-0.011": 5.72791150243,
			"-0.01": 5.32050872833,
			"-0.009": 6.68393308968,
			"-0.008": 5.94675902716,
			"-0.007": 6.24647497032,
			"-0.006": 5.32224048943,
			"-0.005": 4.84212958143,
			"-0.004": 4.1514887035,
			"-0.003": 5.25039347947,
			"-0.002": 8.07326716903,
			"-0.001": 8.43863350884,
			"0.0": 8.65259231041,
			"0.001": 10.171467798,
			"0.002": 18.5640341891,
			"0.003": 22.7961701098,
			"0.004": 26.5529266053,
			"0.005": 17.7971649397,
			"0.006": 5.59589112236,
			"0.007": 1.88713083448,
			"0.008": 1.83775302908,
			"0.009": 0.878842960285,
			"0.01": 0.325367778311,
			"0.011": 1.0460006754,
			"0.012": 1.83911281751,
			"0.013": 0.8627785664,
			"0.014": 0.457872458718,
			"0.015": 0.0,
			"0.016": 0.0,
			"0.017": 0.0,
			"0.018": 0.0,
			"0.019": 0.0,
			"0.02": 0.0,
			"0.021": 0.0,
			"0.022": 0.0,
			"0.023": 0.0,
			"0.024": 0.0,
			"0.025": 0.0
		}
	}
}
