{
	 "smiles": "CCCC1=NC(=NN1C1=C(F)C=CC=C1)C(O)=O", 
	 "Tm": 411.15, 
	 "num_atms": 30, 
	 "gaussian": { 
		 "optdone": 1, 
		 "sigma_profile": "yes", 
		 "theory": "DFT", 
		 "functional": "B3LYP", 
		 "basiset": "6-31G**", 
		 "properties": { 
			 "R2extent": 5627.2798, 
			 "electric_dipole_moment_norm": 8.08847644121, 
			 "electric_quadrupole_moment_norm": 34.9424045004, 
			 "total_energy": -879.055522259, 
			 "HOMO_LUMO_gap": 0.21109, 
			 "cosmo_polarized_energy": -15.98, 
			 "cosmo_cavitation_energy": 35.01, 
			 "cosmo_dispersion_energy": -24.44, 
			 "cosmo_repulsion_energy": 1.91, 
			 "cosmo_total_nonelectrostatic_energy": 12.48, 
			 "SMD_solvation_energy": 5.87 
		},
		"coords": [
			{
				"x": -2.3297766817,
				"y": 2.3434181551,
				"z": -0.1010186685,
				"element": "C" 
			},
			{
				"x": -2.8950379632,
				"y": 1.0357417146,
				"z": -0.6631736309,
				"element": "C" 
			},
			{
				"x": -1.8666206351,
				"y": -0.1061494859,
				"z": -0.7359107655,
				"element": "C" 
			},
			{
				"x": -1.4269637637,
				"y": -0.5918195767,
				"z": 0.6123662203,
				"element": "C" 
			},
			{
				"x": -2.1442564821,
				"y": -0.5676697188,
				"z": 1.7238357065,
				"element": "N" 
			},
			{
				"x": -1.3043072484,
				"y": -1.081834286,
				"z": 2.6711598006,
				"element": "C" 
			},
			{
				"x": -0.1094735561,
				"y": -1.4290443352,
				"z": 2.2273888037,
				"element": "N" 
			},
			{
				"x": -0.1947071247,
				"y": -1.1212254137,
				"z": 0.9032866561,
				"element": "N" 
			},
			{
				"x": 0.9393251149,
				"y": -1.3207067373,
				"z": 0.0673338876,
				"element": "C" 
			},
			{
				"x": 0.8344379073,
				"y": -2.0313530354,
				"z": -1.1307271074,
				"element": "C" 
			},
			{
				"x": -0.3633853384,
				"y": -2.5304043867,
				"z": -1.4981468951,
				"element": "F" 
			},
			{
				"x": 1.9368549295,
				"y": -2.2422967447,
				"z": -1.9487215132,
				"element": "C" 
			},
			{
				"x": 3.1802812746,
				"y": -1.755758386,
				"z": -1.5458206087,
				"element": "C" 
			},
			{
				"x": 3.3096125538,
				"y": -1.0663140793,
				"z": -0.3369469873,
				"element": "C" 
			},
			{
				"x": 2.1931834414,
				"y": -0.8476636231,
				"z": 0.4665304377,
				"element": "C" 
			},
			{
				"x": -1.7442268553,
				"y": -1.2168994395,
				"z": 4.0935437605,
				"element": "C" 
			},
			{
				"x": -3.0152849804,
				"y": -0.8002552554,
				"z": 4.2797275813,
				"element": "O" 
			},
			{
				"x": -1.0567082186,
				"y": -1.6441317602,
				"z": 4.9867618882,
				"element": "O" 
			},
			{
				"x": -1.9815299402,
				"y": 2.2161111739,
				"z": 0.9284609819,
				"element": "H" 
			},
			{
				"x": -1.4865887897,
				"y": 2.7033482784,
				"z": -0.7020680629,
				"element": "H" 
			},
			{
				"x": -3.0929390807,
				"y": 3.1277448264,
				"z": -0.0976569607,
				"element": "H" 
			},
			{
				"x": -3.7454593187,
				"y": 0.7069502047,
				"z": -0.0570399665,
				"element": "H" 
			},
			{
				"x": -3.276169323,
				"y": 1.2039569734,
				"z": -1.6770898345,
				"element": "H" 
			},
			{
				"x": -2.2891615081,
				"y": -0.9538924064,
				"z": -1.287620225,
				"element": "H" 
			},
			{
				"x": -0.9851319985,
				"y": 0.2146566797,
				"z": -1.3036891704,
				"element": "H" 
			},
			{
				"x": 1.8065446859,
				"y": -2.7964375203,
				"z": -2.8716597546,
				"element": "H" 
			},
			{
				"x": 4.0485648529,
				"y": -1.9220283982,
				"z": -2.1754302065,
				"element": "H" 
			},
			{
				"x": 4.2791357519,
				"y": -0.696609796,
				"z": -0.0202407037,
				"element": "H" 
			},
			{
				"x": 2.2708355987,
				"y": -0.3244528342,
				"z": 1.4129080578,
				"element": "H" 
			},
			{
				"x": -3.3600473044,
				"y": -0.4994807873,
				"z": 3.418257279,
				"element": "H" 
			}
		],
		 "valence_orbital": [ 
			{
				"type": "occ",
				"energy": -0.3027,
				"method": "rhf"
			},
			{
				"type": "occ",
				"energy": -0.2862,
				"method": "rhf"
			},
			{
				"type": "occ",
				"energy": -0.27535,
				"method": "rhf"
			},
			{
				"type": "occ",
				"energy": -0.26702,
				"method": "rhf"
			},
			{
				"type": "occ",
				"energy": -0.26356,
				"method": "rhf"
			},
			{
				"type": "unocc",
				"energy": -0.05247,
				"method": "rhf"
			},
			{
				"type": "unocc",
				"energy": -0.03171,
				"method": "rhf"
			},
			{
				"type": "unocc",
				"energy": -0.02313,
				"method": "rhf"
			},
			{
				"type": "unocc",
				"energy": 0.00438,
				"method": "rhf"
			},
			{
				"type": "unocc",
				"energy": 0.05956,
				"method": "rhf"
			}
		],
		"cosmo_sigma_profile": { 
			"-0.025": 0.0,
			"-0.024": 0.0,
			"-0.023": 0.0,
			"-0.022": 0.0,
			"-0.021": 0.0,
			"-0.02": 0.0,
			"-0.019": 0.0,
			"-0.018": 0.0,
			"-0.017": 0.0,
			"-0.016": 0.0,
			"-0.015": 0.0,
			"-0.014": 0.494445682895,
			"-0.013": 0.564840642415,
			"-0.012": 0.330937414547,
			"-0.011": 0.439893038181,
			"-0.01": 0.814458149985,
			"-0.009": 1.15851857114,
			"-0.008": 3.04561920641,
			"-0.007": 9.03993261922,
			"-0.006": 11.8230253991,
			"-0.005": 19.079244356,
			"-0.004": 16.5706525022,
			"-0.003": 26.5247334722,
			"-0.002": 28.7792485528,
			"-0.001": 27.2573806216,
			"0.0": 25.3808272158,
			"0.001": 23.1231069756,
			"0.002": 17.7622620773,
			"0.003": 16.1730628143,
			"0.004": 6.37974512427,
			"0.005": 5.92368741419,
			"0.006": 4.70869498578,
			"0.007": 3.47042224987,
			"0.008": 4.31633822888,
			"0.009": 5.5678815786,
			"0.01": 6.04961939807,
			"0.011": 7.23048960439,
			"0.012": 5.94556532784,
			"0.013": 1.34716322543,
			"0.014": 0.0,
			"0.015": 0.0,
			"0.016": 0.0,
			"0.017": 0.0,
			"0.018": 0.0,
			"0.019": 0.0,
			"0.02": 0.0,
			"0.021": 0.0,
			"0.022": 0.0,
			"0.023": 0.0,
			"0.024": 0.0,
			"0.025": 0.0
		}
	}
}
