{
	 "smiles": "COC(=O)C1=C(C)C2=C(SC=C2C)S1", 
	 "Tm": 411.15, 
	 "num_atms": 24, 
	 "gaussian": { 
		 "optdone": 1, 
		 "sigma_profile": "yes", 
		 "theory": "DFT", 
		 "functional": "B3LYP", 
		 "basiset": "6-31G**", 
		 "properties": { 
			 "R2extent": 4234.9263, 
			 "electric_dipole_moment_norm": 3.84310796492, 
			 "electric_quadrupole_moment_norm": 14.3536797146, 
			 "total_energy": -1333.91318354, 
			 "HOMO_LUMO_gap": 0.1724, 
			 "cosmo_polarized_energy": -9.11, 
			 "cosmo_cavitation_energy": 30.69, 
			 "cosmo_dispersion_energy": -23.32, 
			 "cosmo_repulsion_energy": 1.72, 
			 "cosmo_total_nonelectrostatic_energy": 9.09, 
			 "SMD_solvation_energy": 6.22 
		},
		"coords": [
			{
				"x": 2.1557676996,
				"y": 0.6232942812,
				"z": 3.8287041379,
				"element": "C" 
			},
			{
				"x": 1.4927111819,
				"y": 0.375753706,
				"z": 2.5774548449,
				"element": "O" 
			},
			{
				"x": 1.0310256692,
				"y": 1.483287896,
				"z": 1.9491950973,
				"element": "C" 
			},
			{
				"x": 1.166743536,
				"y": 2.6047455344,
				"z": 2.4078754607,
				"element": "O" 
			},
			{
				"x": 0.3547843955,
				"y": 1.2188293348,
				"z": 0.6708017118,
				"element": "C" 
			},
			{
				"x": 0.0808361068,
				"y": 0.0648804339,
				"z": -0.0421622606,
				"element": "C" 
			},
			{
				"x": 0.4478466465,
				"y": -1.3378676604,
				"z": 0.3636874486,
				"element": "C" 
			},
			{
				"x": -0.6210699029,
				"y": 0.3661056427,
				"z": -1.2624988642,
				"element": "C" 
			},
			{
				"x": -0.8452191718,
				"y": 1.7335293211,
				"z": -1.4154098049,
				"element": "C" 
			},
			{
				"x": -1.6880628089,
				"y": 2.1243929681,
				"z": -2.8756947689,
				"element": "S" 
			},
			{
				"x": -1.7423517108,
				"y": 0.4195487631,
				"z": -3.2922626532,
				"element": "C" 
			},
			{
				"x": -1.1534491791,
				"y": -0.3990201581,
				"z": -2.3735533336,
				"element": "C" 
			},
			{
				"x": -1.0866512185,
				"y": -1.8947134525,
				"z": -2.5309028571,
				"element": "C" 
			},
			{
				"x": -0.2306038021,
				"y": 2.6904847845,
				"z": -0.1191270481,
				"element": "S" 
			},
			{
				"x": 3.0268200669,
				"y": 1.2664838992,
				"z": 3.6823729101,
				"element": "H" 
			},
			{
				"x": 1.4766870976,
				"y": 1.1057874895,
				"z": 4.5357225086,
				"element": "H" 
			},
			{
				"x": 2.4595927185,
				"y": -0.3569169912,
				"z": 4.195977671,
				"element": "H" 
			},
			{
				"x": -0.4495325585,
				"y": -1.9610535731,
				"z": 0.4450004379,
				"element": "H" 
			},
			{
				"x": 0.9684369874,
				"y": -1.356259552,
				"z": 1.3175169362,
				"element": "H" 
			},
			{
				"x": 1.0918465158,
				"y": -1.8001621146,
				"z": -0.3926286614,
				"element": "H" 
			},
			{
				"x": -2.221100656,
				"y": 0.1279635444,
				"z": -4.2176507049,
				"element": "H" 
			},
			{
				"x": -1.5926365665,
				"y": -2.4115595352,
				"z": -1.7081774768,
				"element": "H" 
			},
			{
				"x": -0.051995092,
				"y": -2.2539584974,
				"z": -2.5518875626,
				"element": "H" 
			},
			{
				"x": -1.5655259547,
				"y": -2.2051760643,
				"z": -3.4631531687,
				"element": "H" 
			}
		],
		 "valence_orbital": [ 
			{
				"type": "occ",
				"energy": -0.30228,
				"method": "rhf"
			},
			{
				"type": "occ",
				"energy": -0.27624,
				"method": "rhf"
			},
			{
				"type": "occ",
				"energy": -0.2747,
				"method": "rhf"
			},
			{
				"type": "occ",
				"energy": -0.22718,
				"method": "rhf"
			},
			{
				"type": "occ",
				"energy": -0.21931,
				"method": "rhf"
			},
			{
				"type": "unocc",
				"energy": -0.04691,
				"method": "rhf"
			},
			{
				"type": "unocc",
				"energy": -0.00722,
				"method": "rhf"
			},
			{
				"type": "unocc",
				"energy": 0.01326,
				"method": "rhf"
			},
			{
				"type": "unocc",
				"energy": 0.03372,
				"method": "rhf"
			},
			{
				"type": "unocc",
				"energy": 0.05867,
				"method": "rhf"
			}
		],
		"cosmo_sigma_profile": { 
			"-0.025": 0.0,
			"-0.024": 0.0,
			"-0.023": 0.0,
			"-0.022": 0.0,
			"-0.021": 0.0,
			"-0.02": 0.0,
			"-0.019": 0.0,
			"-0.018": 0.0,
			"-0.017": 0.0,
			"-0.016": 0.0,
			"-0.015": 0.0,
			"-0.014": 0.0,
			"-0.013": 0.0,
			"-0.012": 0.0,
			"-0.011": 0.0,
			"-0.01": 0.0,
			"-0.009": 0.270177848276,
			"-0.008": 2.05887705543,
			"-0.007": 3.40195301643,
			"-0.006": 8.65540381929,
			"-0.005": 19.2386507615,
			"-0.004": 22.5126304704,
			"-0.003": 20.2334963098,
			"-0.002": 20.385720697,
			"-0.001": 20.6875052691,
			"0.0": 21.9312445791,
			"0.001": 18.9805951407,
			"0.002": 27.8991611049,
			"0.003": 23.3276938455,
			"0.004": 16.5763582844,
			"0.005": 6.47755729351,
			"0.006": 1.47661479941,
			"0.007": 2.2430913171,
			"0.008": 1.59896646791,
			"0.009": 1.55521403441,
			"0.01": 2.04734319137,
			"0.011": 3.08028425893,
			"0.012": 4.11546364089,
			"0.013": 0.200986968722,
			"0.014": 0.0,
			"0.015": 0.0,
			"0.016": 0.0,
			"0.017": 0.0,
			"0.018": 0.0,
			"0.019": 0.0,
			"0.02": 0.0,
			"0.021": 0.0,
			"0.022": 0.0,
			"0.023": 0.0,
			"0.024": 0.0,
			"0.025": 0.0
		}
	}
}
