{
	 "smiles": "CC(C)C1=C(O)C(=O)C2=C([C@@H](O)C[C@H]3C(C)(C)CCC[C@]23C)C1=O", 
	 "Tm": 487.15, 
	 "num_atms": 52, 
	 "gaussian": { 
		 "optdone": 1, 
		 "sigma_profile": "yes", 
		 "theory": "DFT", 
		 "functional": "B3LYP", 
		 "basiset": "6-31G**", 
		 "properties": { 
			 "R2extent": 9635.699, 
			 "electric_dipole_moment_norm": 2.39495682007, 
			 "electric_quadrupole_moment_norm": 22.7120287377, 
			 "total_energy": -1079.89191315, 
			 "HOMO_LUMO_gap": 0.13087, 
			 "cosmo_polarized_energy": -14.81, 
			 "cosmo_cavitation_energy": 46.47, 
			 "cosmo_dispersion_energy": -32.9, 
			 "cosmo_repulsion_energy": 2.44, 
			 "cosmo_total_nonelectrostatic_energy": 16.01, 
			 "SMD_solvation_energy": 8.3 
		},
		"coords": [
			{
				"x": -2.3978019756,
				"y": 4.1286113085,
				"z": 4.1946348714,
				"element": "C" 
			},
			{
				"x": -3.2975874962,
				"y": 3.3160408918,
				"z": 3.2413610946,
				"element": "C" 
			},
			{
				"x": -4.3605664612,
				"y": 2.5063167526,
				"z": 4.0113352136,
				"element": "C" 
			},
			{
				"x": -2.4912462517,
				"y": 2.4508501833,
				"z": 2.2815000929,
				"element": "C" 
			},
			{
				"x": -2.5204188124,
				"y": 2.6054851939,
				"z": 0.931896396,
				"element": "C" 
			},
			{
				"x": -3.2445876169,
				"y": 3.5127424359,
				"z": 0.2536125355,
				"element": "O" 
			},
			{
				"x": -1.7509185364,
				"y": 1.7113518942,
				"z": -0.0099448311,
				"element": "C" 
			},
			{
				"x": -2.0043073444,
				"y": 1.7817388096,
				"z": -1.2035056492,
				"element": "O" 
			},
			{
				"x": -0.7477113605,
				"y": 0.7601462808,
				"z": 0.5607847709,
				"element": "C" 
			},
			{
				"x": -0.7848333696,
				"y": 0.5421674268,
				"z": 1.8982486153,
				"element": "C" 
			},
			{
				"x": 0.0715496626,
				"y": -0.5012337424,
				"z": 2.6133398481,
				"element": "C" 
			},
			{
				"x": -0.7143078018,
				"y": -1.3370290946,
				"z": 3.4490036295,
				"element": "O" 
			},
			{
				"x": 0.8168865562,
				"y": -1.3969863725,
				"z": 1.6321739416,
				"element": "C" 
			},
			{
				"x": 1.3774397574,
				"y": -0.5587829558,
				"z": 0.4780042912,
				"element": "C" 
			},
			{
				"x": 2.5863667534,
				"y": -1.2026399161,
				"z": -0.2837495143,
				"element": "C" 
			},
			{
				"x": 3.7605799933,
				"y": -1.3863339667,
				"z": 0.7062277686,
				"element": "C" 
			},
			{
				"x": 2.2889767248,
				"y": -2.5875856953,
				"z": -0.8984788127,
				"element": "C" 
			},
			{
				"x": 3.0614460422,
				"y": -0.2081155293,
				"z": -1.3729845847,
				"element": "C" 
			},
			{
				"x": 1.9384155617,
				"y": 0.3344874268,
				"z": -2.2601149385,
				"element": "C" 
			},
			{
				"x": 0.8202035311,
				"y": 0.9881534867,
				"z": -1.4371861502,
				"element": "C" 
			},
			{
				"x": 0.2006073696,
				"y": 0.0108149892,
				"z": -0.3949300192,
				"element": "C" 
			},
			{
				"x": -0.6574281729,
				"y": -1.0587728025,
				"z": -1.1256422543,
				"element": "C" 
			},
			{
				"x": -1.6402271619,
				"y": 1.3745587861,
				"z": 2.8111673605,
				"element": "C" 
			},
			{
				"x": -1.5884581418,
				"y": 1.1601338017,
				"z": 4.0308397732,
				"element": "O" 
			},
			{
				"x": -3.0095351424,
				"y": 4.7999608229,
				"z": 4.8065386884,
				"element": "H" 
			},
			{
				"x": -1.6793182987,
				"y": 4.7385734961,
				"z": 3.6375361064,
				"element": "H" 
			},
			{
				"x": -1.8444832389,
				"y": 3.4628604581,
				"z": 4.8591331688,
				"element": "H" 
			},
			{
				"x": -3.8521906614,
				"y": 4.0575769092,
				"z": 2.6438309031,
				"element": "H" 
			},
			{
				"x": -3.884132955,
				"y": 1.7769454785,
				"z": 4.668506389,
				"element": "H" 
			},
			{
				"x": -4.9727690932,
				"y": 3.1771974119,
				"z": 4.6233068597,
				"element": "H" 
			},
			{
				"x": -5.0253868649,
				"y": 1.9717618717,
				"z": 3.3252534711,
				"element": "H" 
			},
			{
				"x": -3.7571292796,
				"y": 4.0456873919,
				"z": 0.8784341383,
				"element": "H" 
			},
			{
				"x": 0.809589115,
				"y": 0.0550490857,
				"z": 3.2176362335,
				"element": "H" 
			},
			{
				"x": -1.0998611914,
				"y": -0.7426831915,
				"z": 4.1122838485,
				"element": "H" 
			},
			{
				"x": 1.6010188483,
				"y": -1.9240059774,
				"z": 2.1804636721,
				"element": "H" 
			},
			{
				"x": 0.1190447926,
				"y": -2.1607401502,
				"z": 1.2756526718,
				"element": "H" 
			},
			{
				"x": 1.8181766597,
				"y": 0.3412615362,
				"z": 0.9381807148,
				"element": "H" 
			},
			{
				"x": 3.9695653692,
				"y": -0.4625435257,
				"z": 1.2578770154,
				"element": "H" 
			},
			{
				"x": 4.6699050945,
				"y": -1.6584688003,
				"z": 0.1587135239,
				"element": "H" 
			},
			{
				"x": 3.5737551817,
				"y": -2.1804652951,
				"z": 1.4352548047,
				"element": "H" 
			},
			{
				"x": 3.2234923358,
				"y": -3.0463099632,
				"z": -1.24106389,
				"element": "H" 
			},
			{
				"x": 1.6188277873,
				"y": -2.5437981498,
				"z": -1.758474074,
				"element": "H" 
			},
			{
				"x": 1.8431813569,
				"y": -3.2657603613,
				"z": -0.1636285391,
				"element": "H" 
			},
			{
				"x": 3.547763713,
				"y": 0.6419855256,
				"z": -0.8728798103,
				"element": "H" 
			},
			{
				"x": 3.8366858325,
				"y": -0.6868586017,
				"z": -1.9852806015,
				"element": "H" 
			},
			{
				"x": 1.5264436623,
				"y": -0.4657328472,
				"z": -2.8866469689,
				"element": "H" 
			},
			{
				"x": 2.3468775802,
				"y": 1.0758947521,
				"z": -2.9574125512,
				"element": "H" 
			},
			{
				"x": 1.2371351106,
				"y": 1.8536207615,
				"z": -0.9019419816,
				"element": "H" 
			},
			{
				"x": 0.0422595076,
				"y": 1.369925635,
				"z": -2.0988777187,
				"element": "H" 
			},
			{
				"x": -1.0220319033,
				"y": -1.8283948752,
				"z": -0.440840651,
				"element": "H" 
			},
			{
				"x": -1.5229064522,
				"y": -0.5778276862,
				"z": -1.5853153793,
				"element": "H" 
			},
			{
				"x": -0.0996483154,
				"y": -1.5540313046,
				"z": -1.9207334925,
				"element": "H" 
			}
		],
		 "valence_orbital": [ 
			{
				"type": "occ",
				"energy": -0.27948,
				"method": "rhf"
			},
			{
				"type": "occ",
				"energy": -0.26893,
				"method": "rhf"
			},
			{
				"type": "occ",
				"energy": -0.26779,
				"method": "rhf"
			},
			{
				"type": "occ",
				"energy": -0.24984,
				"method": "rhf"
			},
			{
				"type": "occ",
				"energy": -0.24713,
				"method": "rhf"
			},
			{
				"type": "unocc",
				"energy": -0.11626,
				"method": "rhf"
			},
			{
				"type": "unocc",
				"energy": -0.00419,
				"method": "rhf"
			},
			{
				"type": "unocc",
				"energy": 0.00927,
				"method": "rhf"
			},
			{
				"type": "unocc",
				"energy": 0.03858,
				"method": "rhf"
			},
			{
				"type": "unocc",
				"energy": 0.07364,
				"method": "rhf"
			}
		],
		"cosmo_sigma_profile": { 
			"-0.025": 0.0,
			"-0.024": 0.0,
			"-0.023": 0.0,
			"-0.022": 0.0,
			"-0.021": 0.0,
			"-0.02": 0.0,
			"-0.019": 0.0,
			"-0.018": 0.439011075639,
			"-0.017": 0.869303502819,
			"-0.016": 1.13778863293,
			"-0.015": 1.0800161803,
			"-0.014": 0.63723730857,
			"-0.013": 0.457114280875,
			"-0.012": 1.88064218224,
			"-0.011": 1.2261984956,
			"-0.01": 0.642712934589,
			"-0.009": 0.85660363039,
			"-0.008": 1.76967622988,
			"-0.007": 1.69121145111,
			"-0.006": 2.63327777308,
			"-0.005": 5.86064364674,
			"-0.004": 16.8632928636,
			"-0.003": 37.0874678149,
			"-0.002": 55.408113143,
			"-0.001": 51.6954954798,
			"0.0": 50.6902217526,
			"0.001": 49.0160553073,
			"0.002": 21.0236451182,
			"0.003": 7.01002283321,
			"0.004": 5.95460201892,
			"0.005": 5.54637084479,
			"0.006": 5.71077501343,
			"0.007": 4.72226902847,
			"0.008": 4.53221003905,
			"0.009": 5.10901618853,
			"0.01": 5.55271784746,
			"0.011": 3.60242736914,
			"0.012": 3.25129219956,
			"0.013": 2.93236700474,
			"0.014": 2.73958450411,
			"0.015": 0.636746391429,
			"0.016": 0.0,
			"0.017": 0.0,
			"0.018": 0.0,
			"0.019": 0.0,
			"0.02": 0.0,
			"0.021": 0.0,
			"0.022": 0.0,
			"0.023": 0.0,
			"0.024": 0.0,
			"0.025": 0.0
		}
	}
}
