{
	 "smiles": "CNCC1=NN=CN1", 
	 "Tm": 365.15, 
	 "num_atms": 16, 
	 "gaussian": { 
		 "optdone": 1, 
		 "sigma_profile": "yes", 
		 "theory": "DFT", 
		 "functional": "B3LYP", 
		 "basiset": "6-31G**", 
		 "properties": { 
			 "R2extent": 1360.0641, 
			 "electric_dipole_moment_norm": 5.09870607115, 
			 "electric_quadrupole_moment_norm": 15.0634218855, 
			 "total_energy": -376.215262594, 
			 "HOMO_LUMO_gap": 0.2408, 
			 "cosmo_polarized_energy": -21.53, 
			 "cosmo_cavitation_energy": 19.73, 
			 "cosmo_dispersion_energy": -14.54, 
			 "cosmo_repulsion_energy": 1.22, 
			 "cosmo_total_nonelectrostatic_energy": 6.41, 
			 "SMD_solvation_energy": -0.24 
		},
		"coords": [
			{
				"x": -0.1894561432,
				"y": -2.6429379178,
				"z": 0.4270225091,
				"element": "C" 
			},
			{
				"x": 0.8122086746,
				"y": -2.0831828109,
				"z": -0.4831217774,
				"element": "N" 
			},
			{
				"x": 1.8744939763,
				"y": -1.3289850238,
				"z": 0.1874784873,
				"element": "C" 
			},
			{
				"x": 1.4490247061,
				"y": -0.0560523195,
				"z": 0.8706859431,
				"element": "C" 
			},
			{
				"x": 0.9775945657,
				"y": 0.0544925239,
				"z": 2.0940053513,
				"element": "N" 
			},
			{
				"x": 0.631973971,
				"y": 1.3783620394,
				"z": 2.3030601247,
				"element": "N" 
			},
			{
				"x": 0.9039312797,
				"y": 2.0279436439,
				"z": 1.1994551359,
				"element": "C" 
			},
			{
				"x": 1.4168207812,
				"y": 1.1758265632,
				"z": 0.2588874529,
				"element": "N" 
			},
			{
				"x": -0.6732738783,
				"y": -1.9081997959,
				"z": 1.0876187792,
				"element": "H" 
			},
			{
				"x": 0.2894127518,
				"y": -3.3943803864,
				"z": 1.0644062838,
				"element": "H" 
			},
			{
				"x": -0.9584165635,
				"y": -3.1488011242,
				"z": -0.1642985094,
				"element": "H" 
			},
			{
				"x": 0.3530283014,
				"y": -1.4880458005,
				"z": -1.1684446216,
				"element": "H" 
			},
			{
				"x": 2.6564399827,
				"y": -1.1036464524,
				"z": -0.548588578,
				"element": "H" 
			},
			{
				"x": 2.3225090459,
				"y": -1.9778860626,
				"z": 0.9461616299,
				"element": "H" 
			},
			{
				"x": 0.7589316046,
				"y": 3.0858077229,
				"z": 1.0329659978,
				"element": "H" 
			},
			{
				"x": 1.7407769441,
				"y": 1.4094852007,
				"z": -0.6677942086,
				"element": "H" 
			}
		],
		 "valence_orbital": [ 
			{
				"type": "occ",
				"energy": -0.30793,
				"method": "rhf"
			},
			{
				"type": "occ",
				"energy": -0.30307,
				"method": "rhf"
			},
			{
				"type": "occ",
				"energy": -0.2608,
				"method": "rhf"
			},
			{
				"type": "occ",
				"energy": -0.25149,
				"method": "rhf"
			},
			{
				"type": "occ",
				"energy": -0.22779,
				"method": "rhf"
			},
			{
				"type": "unocc",
				"energy": 0.01301,
				"method": "rhf"
			},
			{
				"type": "unocc",
				"energy": 0.03986,
				"method": "rhf"
			},
			{
				"type": "unocc",
				"energy": 0.05652,
				"method": "rhf"
			},
			{
				"type": "unocc",
				"energy": 0.09929,
				"method": "rhf"
			},
			{
				"type": "unocc",
				"energy": 0.12352,
				"method": "rhf"
			}
		],
		"cosmo_sigma_profile": { 
			"-0.025": 0.0,
			"-0.024": 0.0,
			"-0.023": 0.0,
			"-0.022": 0.0,
			"-0.021": 0.0,
			"-0.02": 0.0,
			"-0.019": 0.0,
			"-0.018": 0.222910376872,
			"-0.017": 1.96279827594,
			"-0.016": 1.50632903156,
			"-0.015": 1.72092425615,
			"-0.014": 1.47858594766,
			"-0.013": 1.37555185593,
			"-0.012": 1.5290523481,
			"-0.011": 2.01242991864,
			"-0.01": 5.3830777572,
			"-0.009": 5.26122737521,
			"-0.008": 3.64524307033,
			"-0.007": 4.39656742598,
			"-0.006": 4.29729553544,
			"-0.005": 5.83294900513,
			"-0.004": 10.1617585511,
			"-0.003": 11.758603426,
			"-0.002": 9.37367833658,
			"-0.001": 11.81482237,
			"0.0": 13.3630235945,
			"0.001": 7.70803570195,
			"0.002": 4.05385771738,
			"0.003": 3.97644992289,
			"0.004": 3.52901310232,
			"0.005": 2.80268211125,
			"0.006": 2.91539473371,
			"0.007": 2.31121730399,
			"0.008": 3.0407637815,
			"0.009": 3.22220206699,
			"0.01": 2.54749831881,
			"0.011": 2.4159974345,
			"0.012": 3.5364657588,
			"0.013": 2.63613949515,
			"0.014": 3.6910812664,
			"0.015": 3.88262864784,
			"0.016": 3.03423271907,
			"0.017": 2.50894534557,
			"0.018": 0.754311949651,
			"0.019": 0.0,
			"0.02": 0.0,
			"0.021": 0.0,
			"0.022": 0.0,
			"0.023": 0.0,
			"0.024": 0.0,
			"0.025": 0.0
		}
	}
}
