{
	 "smiles": "CS(=O)(=O)C1=CC=C(S)C=C1", 
	 "Tm": 337.15, 
	 "num_atms": 19, 
	 "gaussian": { 
		 "optdone": 1, 
		 "sigma_profile": "yes", 
		 "theory": "DFT", 
		 "functional": "B3LYP", 
		 "basiset": "6-31G**", 
		 "properties": { 
			 "R2extent": 3188.6641, 
			 "electric_dipole_moment_norm": 4.79519986341, 
			 "electric_quadrupole_moment_norm": 17.686394478, 
			 "total_energy": -1218.32119325, 
			 "HOMO_LUMO_gap": 0.19766, 
			 "cosmo_polarized_energy": -16.61, 
			 "cosmo_cavitation_energy": 26.13, 
			 "cosmo_dispersion_energy": -20.05, 
			 "cosmo_repulsion_energy": 1.51, 
			 "cosmo_total_nonelectrostatic_energy": 7.59, 
			 "SMD_solvation_energy": 3.74 
		},
		"coords": [
			{
				"x": 0.8210363217,
				"y": 0.8687391415,
				"z": 2.7326339804,
				"element": "C" 
			},
			{
				"x": -0.1703079028,
				"y": -0.6275413626,
				"z": 2.5026756242,
				"element": "S" 
			},
			{
				"x": -1.5603195247,
				"y": -0.2893608394,
				"z": 2.8460960146,
				"element": "O" 
			},
			{
				"x": 0.5372010506,
				"y": -1.7295017963,
				"z": 3.1735323572,
				"element": "O" 
			},
			{
				"x": -0.0957418415,
				"y": -0.9225074673,
				"z": 0.732449408,
				"element": "C" 
			},
			{
				"x": -1.0562073142,
				"y": -0.3487187118,
				"z": -0.1037627664,
				"element": "C" 
			},
			{
				"x": -0.9943867086,
				"y": -0.5758479606,
				"z": -1.4748962934,
				"element": "C" 
			},
			{
				"x": 0.0235133965,
				"y": -1.3796957038,
				"z": -2.0129531705,
				"element": "C" 
			},
			{
				"x": 0.0382033882,
				"y": -1.6188148466,
				"z": -3.7774951875,
				"element": "S" 
			},
			{
				"x": 0.9732712737,
				"y": -1.9616521046,
				"z": -1.15998465,
				"element": "C" 
			},
			{
				"x": 0.9125648938,
				"y": -1.7355218168,
				"z": 0.2127120885,
				"element": "C" 
			},
			{
				"x": 0.8019413338,
				"y": 1.0855240118,
				"z": 3.8027479424,
				"element": "H" 
			},
			{
				"x": 1.8428215074,
				"y": 0.6777332376,
				"z": 2.4019612059,
				"element": "H" 
			},
			{
				"x": 0.3710304644,
				"y": 1.688515103,
				"z": 2.1710802301,
				"element": "H" 
			},
			{
				"x": -1.8541292257,
				"y": 0.2500922185,
				"z": 0.3227755793,
				"element": "H" 
			},
			{
				"x": -1.742689239,
				"y": -0.1368402738,
				"z": -2.1278587725,
				"element": "H" 
			},
			{
				"x": 1.1048556696,
				"y": -2.4393979979,
				"z": -3.8210069385,
				"element": "H" 
			},
			{
				"x": 1.7556764957,
				"y": -2.5977046887,
				"z": -1.5626612368,
				"element": "H" 
			},
			{
				"x": 1.6280659612,
				"y": -2.2012981421,
				"z": 0.882354585,
				"element": "H" 
			}
		],
		 "valence_orbital": [ 
			{
				"type": "occ",
				"energy": -0.31175,
				"method": "rhf"
			},
			{
				"type": "occ",
				"energy": -0.29566,
				"method": "rhf"
			},
			{
				"type": "occ",
				"energy": -0.28741,
				"method": "rhf"
			},
			{
				"type": "occ",
				"energy": -0.28032,
				"method": "rhf"
			},
			{
				"type": "occ",
				"energy": -0.24219,
				"method": "rhf"
			},
			{
				"type": "unocc",
				"energy": -0.04453,
				"method": "rhf"
			},
			{
				"type": "unocc",
				"energy": -0.03015,
				"method": "rhf"
			},
			{
				"type": "unocc",
				"energy": -0.00192,
				"method": "rhf"
			},
			{
				"type": "unocc",
				"energy": 0.05443,
				"method": "rhf"
			},
			{
				"type": "unocc",
				"energy": 0.07173,
				"method": "rhf"
			}
		],
		"cosmo_sigma_profile": { 
			"-0.025": 0.0,
			"-0.024": 0.0,
			"-0.023": 0.0,
			"-0.022": 0.0,
			"-0.021": 0.0,
			"-0.02": 0.0,
			"-0.019": 0.0,
			"-0.018": 0.0,
			"-0.017": 0.0,
			"-0.016": 0.0,
			"-0.015": 0.0,
			"-0.014": 0.0,
			"-0.013": 0.0,
			"-0.012": 0.206385501748,
			"-0.011": 3.24723773774,
			"-0.01": 2.47088665587,
			"-0.009": 3.65256550809,
			"-0.008": 10.1220674306,
			"-0.007": 15.3862257851,
			"-0.006": 13.6632828773,
			"-0.005": 13.2251828752,
			"-0.004": 13.4735087833,
			"-0.003": 11.7364238977,
			"-0.002": 7.77634965165,
			"-0.001": 8.15938437089,
			"0.0": 9.95447988328,
			"0.001": 11.4513740707,
			"0.002": 20.0224219789,
			"0.003": 13.9791149766,
			"0.004": 5.97848161028,
			"0.005": 5.84372859405,
			"0.006": 4.25033729616,
			"0.007": 5.95938258879,
			"0.008": 4.35438263772,
			"0.009": 3.24668858326,
			"0.01": 3.96498221418,
			"0.011": 8.47115975871,
			"0.012": 9.20360426059,
			"0.013": 1.5325368156,
			"0.014": 0.0,
			"0.015": 0.0,
			"0.016": 0.0,
			"0.017": 0.0,
			"0.018": 0.0,
			"0.019": 0.0,
			"0.02": 0.0,
			"0.021": 0.0,
			"0.022": 0.0,
			"0.023": 0.0,
			"0.024": 0.0,
			"0.025": 0.0
		}
	}
}
