{
	 "smiles": "CC(C)(C)C(=O)NCC1=CC=C(S1)C(=O)CCl", 
	 "Tm": 376.15, 
	 "num_atms": 33, 
	 "gaussian": { 
		 "optdone": 1, 
		 "sigma_profile": "yes", 
		 "theory": "DFT", 
		 "functional": "B3LYP", 
		 "basiset": "6-31G**", 
		 "properties": { 
			 "R2extent": 8333.7166, 
			 "electric_dipole_moment_norm": 2.33822155494, 
			 "electric_quadrupole_moment_norm": 24.2594737777, 
			 "total_energy": -1530.51477434, 
			 "HOMO_LUMO_gap": 0.1668, 
			 "cosmo_polarized_energy": -16.71, 
			 "cosmo_cavitation_energy": 39.61, 
			 "cosmo_dispersion_energy": -27.38, 
			 "cosmo_repulsion_energy": 2.12, 
			 "cosmo_total_nonelectrostatic_energy": 14.35, 
			 "SMD_solvation_energy": 6.66 
		},
		"coords": [
			{
				"x": 0.0229696801,
				"y": -3.1426628429,
				"z": 2.3947639846,
				"element": "C" 
			},
			{
				"x": 0.6458522527,
				"y": -1.7336323699,
				"z": 2.5059089172,
				"element": "C" 
			},
			{
				"x": 1.2706637312,
				"y": -1.5557872737,
				"z": 3.8990684942,
				"element": "C" 
			},
			{
				"x": 1.736046384,
				"y": -1.5508228573,
				"z": 1.4242125465,
				"element": "C" 
			},
			{
				"x": -0.4361713953,
				"y": -0.6446902978,
				"z": 2.3158786944,
				"element": "C" 
			},
			{
				"x": -0.6254969481,
				"y": 0.2541027103,
				"z": 3.1298689532,
				"element": "O" 
			},
			{
				"x": -1.1928209823,
				"y": -0.738272146,
				"z": 1.1742537232,
				"element": "N" 
			},
			{
				"x": -2.164407431,
				"y": 0.2968221384,
				"z": 0.8346298339,
				"element": "C" 
			},
			{
				"x": -1.5629618386,
				"y": 1.4773549506,
				"z": 0.1098962127,
				"element": "C" 
			},
			{
				"x": -0.8362546564,
				"y": 2.5079347224,
				"z": 0.6674645313,
				"element": "C" 
			},
			{
				"x": -0.3688240453,
				"y": 3.4339569801,
				"z": -0.2960292378,
				"element": "C" 
			},
			{
				"x": -0.7386432755,
				"y": 3.1094417259,
				"z": -1.5880635687,
				"element": "C" 
			},
			{
				"x": -1.6798912801,
				"y": 1.6372228118,
				"z": -1.6146403947,
				"element": "S" 
			},
			{
				"x": -0.4922595468,
				"y": 3.8040436897,
				"z": -2.8509800114,
				"element": "C" 
			},
			{
				"x": -0.9272643934,
				"y": 3.3920281038,
				"z": -3.9179702789,
				"element": "O" 
			},
			{
				"x": 0.2977017027,
				"y": 5.1167019933,
				"z": -2.8264308026,
				"element": "C" 
			},
			{
				"x": 2.0441637202,
				"y": 4.8632417589,
				"z": -2.4018609002,
				"element": "Cl" 
			},
			{
				"x": 0.7876853173,
				"y": -3.9027727059,
				"z": 2.586771035,
				"element": "H" 
			},
			{
				"x": -0.3924451017,
				"y": -3.3435136959,
				"z": 1.4015957986,
				"element": "H" 
			},
			{
				"x": -0.7791211621,
				"y": -3.2800283944,
				"z": 3.1268920575,
				"element": "H" 
			},
			{
				"x": 1.7064366806,
				"y": -0.5604572808,
				"z": 4.0100709494,
				"element": "H" 
			},
			{
				"x": 0.5202499527,
				"y": -1.6729788722,
				"z": 4.685248733,
				"element": "H" 
			},
			{
				"x": 2.0559962819,
				"y": -2.3032972396,
				"z": 4.0526442665,
				"element": "H" 
			},
			{
				"x": 2.1730054059,
				"y": -0.548293566,
				"z": 1.4697967025,
				"element": "H" 
			},
			{
				"x": 1.3494436251,
				"y": -1.7022152119,
				"z": 0.4104500781,
				"element": "H" 
			},
			{
				"x": 2.5406551473,
				"y": -2.2772530795,
				"z": 1.5797015618,
				"element": "H" 
			},
			{
				"x": -0.9199708628,
				"y": -1.3883064846,
				"z": 0.4527964429,
				"element": "H" 
			},
			{
				"x": -2.9623479295,
				"y": -0.1579530822,
				"z": 0.2406548652,
				"element": "H" 
			},
			{
				"x": -2.594968806,
				"y": 0.6437089432,
				"z": 1.7766483194,
				"element": "H" 
			},
			{
				"x": -0.644535581,
				"y": 2.5689201211,
				"z": 1.7322213135,
				"element": "H" 
			},
			{
				"x": 0.2308249714,
				"y": 4.3034973099,
				"z": -0.0531641094,
				"element": "H" 
			},
			{
				"x": 0.2661160228,
				"y": 5.5438089144,
				"z": -3.8270672786,
				"element": "H" 
			},
			{
				"x": -0.1071256401,
				"y": 5.8205505269,
				"z": -2.0967314326,
				"element": "H" 
			}
		],
		 "valence_orbital": [ 
			{
				"type": "occ",
				"energy": -0.27114,
				"method": "rhf"
			},
			{
				"type": "occ",
				"energy": -0.26634,
				"method": "rhf"
			},
			{
				"type": "occ",
				"energy": -0.26324,
				"method": "rhf"
			},
			{
				"type": "occ",
				"energy": -0.25255,
				"method": "rhf"
			},
			{
				"type": "occ",
				"energy": -0.24438,
				"method": "rhf"
			},
			{
				"type": "unocc",
				"energy": -0.07758,
				"method": "rhf"
			},
			{
				"type": "unocc",
				"energy": -0.0059,
				"method": "rhf"
			},
			{
				"type": "unocc",
				"energy": 0.01309,
				"method": "rhf"
			},
			{
				"type": "unocc",
				"energy": 0.0207,
				"method": "rhf"
			},
			{
				"type": "unocc",
				"energy": 0.03314,
				"method": "rhf"
			}
		],
		"cosmo_sigma_profile": { 
			"-0.025": 0.0,
			"-0.024": 0.0,
			"-0.023": 0.0,
			"-0.022": 0.0,
			"-0.021": 0.0,
			"-0.02": 0.0,
			"-0.019": 0.0,
			"-0.018": 0.0,
			"-0.017": 0.0,
			"-0.016": 0.0,
			"-0.015": 0.0057977182684,
			"-0.014": 0.642357445645,
			"-0.013": 0.924871906538,
			"-0.012": 1.75663948049,
			"-0.011": 1.47442975358,
			"-0.01": 1.59144635254,
			"-0.009": 4.9235803752,
			"-0.008": 8.79844637877,
			"-0.007": 10.2403613713,
			"-0.006": 10.6792920469,
			"-0.005": 12.1882456518,
			"-0.004": 13.5286305495,
			"-0.003": 26.8398117506,
			"-0.002": 25.5035234429,
			"-0.001": 25.4478745284,
			"0.0": 30.5516974269,
			"0.001": 33.4220442819,
			"0.002": 27.3762014024,
			"0.003": 20.5595639902,
			"0.004": 13.6234535535,
			"0.005": 11.1961943338,
			"0.006": 6.26580694185,
			"0.007": 3.36012678603,
			"0.008": 3.37046569698,
			"0.009": 3.33754037638,
			"0.01": 3.63080999412,
			"0.011": 5.96532467649,
			"0.012": 3.63922984583,
			"0.013": 2.37422039997,
			"0.014": 2.41442898627,
			"0.015": 0.40249196707,
			"0.016": 0.0,
			"0.017": 0.0,
			"0.018": 0.0,
			"0.019": 0.0,
			"0.02": 0.0,
			"0.021": 0.0,
			"0.022": 0.0,
			"0.023": 0.0,
			"0.024": 0.0,
			"0.025": 0.0
		}
	}
}
