{
	 "smiles": "OC(=O)CCS(=O)(=O)C1=CC2=C(OCCO2)C=C1", 
	 "Tm": 428.15, 
	 "num_atms": 30, 
	 "gaussian": { 
		 "optdone": 1, 
		 "sigma_profile": "yes", 
		 "theory": "DFT", 
		 "functional": "B3LYP", 
		 "basiset": "6-31G**", 
		 "properties": { 
			 "R2extent": 6858.0115, 
			 "electric_dipole_moment_norm": 10.0080476343, 
			 "electric_quadrupole_moment_norm": 28.6274246914, 
			 "total_energy": -1275.86419099, 
			 "HOMO_LUMO_gap": 0.19753, 
			 "cosmo_polarized_energy": -23.9, 
			 "cosmo_cavitation_energy": 34.69, 
			 "cosmo_dispersion_energy": -25.92, 
			 "cosmo_repulsion_energy": 1.95, 
			 "cosmo_total_nonelectrostatic_energy": 10.72, 
			 "SMD_solvation_energy": 6.64 
		},
		"coords": [
			{
				"x": -2.9660305346,
				"y": 2.0338487401,
				"z": 0.2618734106,
				"element": "O" 
			},
			{
				"x": -2.0112806756,
				"y": 2.9420929287,
				"z": 0.0192744968,
				"element": "C" 
			},
			{
				"x": -2.2635361543,
				"y": 4.122742669,
				"z": -0.0481427676,
				"element": "O" 
			},
			{
				"x": -0.5743817862,
				"y": 2.4275046957,
				"z": -0.1617035932,
				"element": "C" 
			},
			{
				"x": -0.3904208799,
				"y": 1.2827118961,
				"z": -1.1715112229,
				"element": "C" 
			},
			{
				"x": -0.5418444014,
				"y": -0.398519935,
				"z": -0.4801415603,
				"element": "S" 
			},
			{
				"x": -0.4716834221,
				"y": -1.3395276128,
				"z": -1.6055298534,
				"element": "O" 
			},
			{
				"x": -1.7270316359,
				"y": -0.3840693046,
				"z": 0.4194942065,
				"element": "O" 
			},
			{
				"x": 0.8969430078,
				"y": -0.6200741411,
				"z": 0.5573394912,
				"element": "C" 
			},
			{
				"x": 2.0911823537,
				"y": -1.0325861076,
				"z": -0.0380657983,
				"element": "C" 
			},
			{
				"x": 3.2223136283,
				"y": -1.1986774428,
				"z": 0.7555259555,
				"element": "C" 
			},
			{
				"x": 3.1499437987,
				"y": -0.9437346472,
				"z": 2.142016163,
				"element": "C" 
			},
			{
				"x": 4.2376588958,
				"y": -1.0756838316,
				"z": 2.9530595305,
				"element": "O" 
			},
			{
				"x": 5.4886372659,
				"y": -1.1851486789,
				"z": 2.2635475855,
				"element": "C" 
			},
			{
				"x": 5.3530085121,
				"y": -2.1244103829,
				"z": 1.0780068294,
				"element": "C" 
			},
			{
				"x": 4.3815987485,
				"y": -1.6144013942,
				"z": 0.1598609076,
				"element": "O" 
			},
			{
				"x": 1.9379563854,
				"y": -0.5604213211,
				"z": 2.7216098877,
				"element": "C" 
			},
			{
				"x": 0.8016286791,
				"y": -0.3980744188,
				"z": 1.9346601546,
				"element": "C" 
			},
			{
				"x": -2.6038066145,
				"y": 1.1225227246,
				"z": 0.3501222842,
				"element": "H" 
			},
			{
				"x": -0.1704191634,
				"y": 2.1413224213,
				"z": 0.8176400148,
				"element": "H" 
			},
			{
				"x": 0.0050472096,
				"y": 3.289308217,
				"z": -0.4971843235,
				"element": "H" 
			},
			{
				"x": 0.598320567,
				"y": 1.3111019915,
				"z": -1.636233933,
				"element": "H" 
			},
			{
				"x": -1.1354651783,
				"y": 1.3014743581,
				"z": -1.9734574839,
				"element": "H" 
			},
			{
				"x": 2.148424345,
				"y": -1.2583667047,
				"z": -1.0972576413,
				"element": "H" 
			},
			{
				"x": 6.2083937529,
				"y": -1.5626940152,
				"z": 2.9932322028,
				"element": "H" 
			},
			{
				"x": 5.8083195711,
				"y": -0.1915520213,
				"z": 1.9242098335,
				"element": "H" 
			},
			{
				"x": 6.2905918255,
				"y": -2.2021120041,
				"z": 0.52327488,
				"element": "H" 
			},
			{
				"x": 5.0525770148,
				"y": -3.1239870364,
				"z": 1.4183732364,
				"element": "H" 
			},
			{
				"x": 1.9107022834,
				"y": -0.3931610632,
				"z": 3.7930762179,
				"element": "H" 
			},
			{
				"x": -0.1489473982,
				"y": -0.1234285785,
				"z": 2.3765308886,
				"element": "H" 
			}
		],
		 "valence_orbital": [ 
			{
				"type": "occ",
				"energy": -0.30385,
				"method": "rhf"
			},
			{
				"type": "occ",
				"energy": -0.29807,
				"method": "rhf"
			},
			{
				"type": "occ",
				"energy": -0.27133,
				"method": "rhf"
			},
			{
				"type": "occ",
				"energy": -0.2578,
				"method": "rhf"
			},
			{
				"type": "occ",
				"energy": -0.247,
				"method": "rhf"
			},
			{
				"type": "unocc",
				"energy": -0.04947,
				"method": "rhf"
			},
			{
				"type": "unocc",
				"energy": -0.02956,
				"method": "rhf"
			},
			{
				"type": "unocc",
				"energy": 0.01756,
				"method": "rhf"
			},
			{
				"type": "unocc",
				"energy": 0.04379,
				"method": "rhf"
			},
			{
				"type": "unocc",
				"energy": 0.05522,
				"method": "rhf"
			}
		],
		"cosmo_sigma_profile": { 
			"-0.025": 0.0,
			"-0.024": 0.0,
			"-0.023": 0.0,
			"-0.022": 0.0,
			"-0.021": 0.0,
			"-0.02": 0.0,
			"-0.019": 0.0,
			"-0.018": 0.0,
			"-0.017": 0.0,
			"-0.016": 0.0,
			"-0.015": 0.0,
			"-0.014": 0.0,
			"-0.013": 0.0,
			"-0.012": 0.0,
			"-0.011": 0.214097568358,
			"-0.01": 2.54255462813,
			"-0.009": 7.05262342578,
			"-0.008": 11.430219835,
			"-0.007": 24.2834416417,
			"-0.006": 26.0140812391,
			"-0.005": 20.6498334426,
			"-0.004": 16.4750505384,
			"-0.003": 12.8795115992,
			"-0.002": 10.502876038,
			"-0.001": 10.5782782848,
			"0.0": 12.8021838338,
			"0.001": 17.9861254446,
			"0.002": 16.3629716406,
			"0.003": 9.30531856499,
			"0.004": 5.85356456233,
			"0.005": 6.66335663558,
			"0.006": 7.05884601603,
			"0.007": 7.32329185197,
			"0.008": 7.88913722597,
			"0.009": 8.94142139767,
			"0.01": 10.2361327933,
			"0.011": 11.571001322,
			"0.012": 7.47837017305,
			"0.013": 3.38649689885,
			"0.014": 0.593601775165,
			"0.015": 0.0,
			"0.016": 0.0,
			"0.017": 0.0,
			"0.018": 0.0,
			"0.019": 0.0,
			"0.02": 0.0,
			"0.021": 0.0,
			"0.022": 0.0,
			"0.023": 0.0,
			"0.024": 0.0,
			"0.025": 0.0
		}
	}
}
