{
	 "smiles": "CC1=C(NC2=CC=CC=C12)C(N)=O", 
	 "Tm": 444.15, 
	 "num_atms": 23, 
	 "gaussian": { 
		 "optdone": 1, 
		 "sigma_profile": "yes", 
		 "theory": "DFT", 
		 "functional": "B3LYP", 
		 "basiset": "6-31G**", 
		 "properties": { 
			 "R2extent": 2621.0062, 
			 "electric_dipole_moment_norm": 3.48618427654, 
			 "electric_quadrupole_moment_norm": 12.8723772777, 
			 "total_energy": -571.849623123, 
			 "HOMO_LUMO_gap": 0.16897, 
			 "cosmo_polarized_energy": -15.29, 
			 "cosmo_cavitation_energy": 26.76, 
			 "cosmo_dispersion_energy": -19.81, 
			 "cosmo_repulsion_energy": 1.56, 
			 "cosmo_total_nonelectrostatic_energy": 8.51, 
			 "SMD_solvation_energy": 5.04 
		},
		"coords": [
			{
				"x": 0.0932643017,
				"y": 1.1224370481,
				"z": 1.8820175317,
				"element": "C" 
			},
			{
				"x": -0.0014394756,
				"y": 0.5820706895,
				"z": 0.4883649806,
				"element": "C" 
			},
			{
				"x": -1.0746297102,
				"y": -0.0590453895,
				"z": -0.0985263152,
				"element": "C" 
			},
			{
				"x": -0.7287640578,
				"y": -0.4695177007,
				"z": -1.3935258119,
				"element": "N" 
			},
			{
				"x": 0.5488285061,
				"y": -0.0281480966,
				"z": -1.6701482266,
				"element": "C" 
			},
			{
				"x": 1.3110621048,
				"y": -0.1366711357,
				"z": -2.8391029187,
				"element": "C" 
			},
			{
				"x": 2.5997424831,
				"y": 0.3828863694,
				"z": -2.8130295168,
				"element": "C" 
			},
			{
				"x": 3.1227554231,
				"y": 0.9946619225,
				"z": -1.6533240787,
				"element": "C" 
			},
			{
				"x": 2.3605348046,
				"y": 1.1073851788,
				"z": -0.4989461692,
				"element": "C" 
			},
			{
				"x": 1.0473314553,
				"y": 0.6024549305,
				"z": -0.4986088882,
				"element": "C" 
			},
			{
				"x": -2.3933785129,
				"y": -0.3913420525,
				"z": 0.4745856997,
				"element": "C" 
			},
			{
				"x": -3.0870906153,
				"y": -1.3819577502,
				"z": -0.2096841576,
				"element": "N" 
			},
			{
				"x": -2.8744213596,
				"y": 0.1766812418,
				"z": 1.4484745523,
				"element": "O" 
			},
			{
				"x": -0.8415029191,
				"y": 0.9691394138,
				"z": 2.4208254764,
				"element": "H" 
			},
			{
				"x": 0.3035852769,
				"y": 2.1987919381,
				"z": 1.8651042156,
				"element": "H" 
			},
			{
				"x": 0.9115701404,
				"y": 0.6458825817,
				"z": 2.4357908064,
				"element": "H" 
			},
			{
				"x": -1.4216434886,
				"y": -0.6602948097,
				"z": -2.1020563639,
				"element": "H" 
			},
			{
				"x": 0.9142470258,
				"y": -0.6125634786,
				"z": -3.731369975,
				"element": "H" 
			},
			{
				"x": 3.2190098129,
				"y": 0.3133906168,
				"z": -3.7026156598,
				"element": "H" 
			},
			{
				"x": 4.1364461467,
				"y": 1.3837252208,
				"z": -1.6707757937,
				"element": "H" 
			},
			{
				"x": 2.7669588945,
				"y": 1.5841127825,
				"z": 0.3884667176,
				"element": "H" 
			},
			{
				"x": -3.9274533166,
				"y": -1.6849958679,
				"z": 0.2651585951,
				"element": "H" 
			},
			{
				"x": -2.5493129203,
				"y": -2.121483653,
				"z": -0.6412747001,
				"element": "H" 
			}
		],
		 "valence_orbital": [ 
			{
				"type": "occ",
				"energy": -0.27966,
				"method": "rhf"
			},
			{
				"type": "occ",
				"energy": -0.27397,
				"method": "rhf"
			},
			{
				"type": "occ",
				"energy": -0.25261,
				"method": "rhf"
			},
			{
				"type": "occ",
				"energy": -0.22649,
				"method": "rhf"
			},
			{
				"type": "occ",
				"energy": -0.20819,
				"method": "rhf"
			},
			{
				"type": "unocc",
				"energy": -0.03922,
				"method": "rhf"
			},
			{
				"type": "unocc",
				"energy": 0.01466,
				"method": "rhf"
			},
			{
				"type": "unocc",
				"energy": 0.03015,
				"method": "rhf"
			},
			{
				"type": "unocc",
				"energy": 0.06415,
				"method": "rhf"
			},
			{
				"type": "unocc",
				"energy": 0.09997,
				"method": "rhf"
			}
		],
		"cosmo_sigma_profile": { 
			"-0.025": 0.0,
			"-0.024": 0.0,
			"-0.023": 0.0,
			"-0.022": 0.0,
			"-0.021": 0.0,
			"-0.02": 0.0,
			"-0.019": 0.0,
			"-0.018": 0.0,
			"-0.017": 0.0,
			"-0.016": 0.00415182849809,
			"-0.015": 0.614119578703,
			"-0.014": 1.94906418915,
			"-0.013": 3.61046461521,
			"-0.012": 4.06524144319,
			"-0.011": 3.26419784113,
			"-0.01": 3.4263683038,
			"-0.009": 3.64477463006,
			"-0.008": 2.99135290302,
			"-0.007": 2.82919379709,
			"-0.006": 5.76527536531,
			"-0.005": 9.25694789035,
			"-0.004": 13.041220505,
			"-0.003": 16.1140960111,
			"-0.002": 13.4572440283,
			"-0.001": 14.1363770126,
			"0.0": 14.1482397611,
			"0.001": 13.7864365064,
			"0.002": 12.2056619202,
			"0.003": 11.9950189266,
			"0.004": 15.8681094735,
			"0.005": 14.7862230314,
			"0.006": 10.9916650537,
			"0.007": 4.23513293294,
			"0.008": 1.65938316073,
			"0.009": 1.66646989847,
			"0.01": 2.47607350136,
			"0.011": 1.9443964476,
			"0.012": 1.97419476897,
			"0.013": 4.44813555513,
			"0.014": 2.43660395759,
			"0.015": 0.12259391697,
			"0.016": 0.0,
			"0.017": 0.0,
			"0.018": 0.0,
			"0.019": 0.0,
			"0.02": 0.0,
			"0.021": 0.0,
			"0.022": 0.0,
			"0.023": 0.0,
			"0.024": 0.0,
			"0.025": 0.0
		}
	}
}
