{
	 "smiles": "CN1C=C(C)C(C(O)=O)=C1CC(O)=O", 
	 "Tm": 472.15, 
	 "num_atms": 25, 
	 "gaussian": { 
		 "optdone": 1, 
		 "sigma_profile": "yes", 
		 "theory": "DFT", 
		 "functional": "B3LYP", 
		 "basiset": "6-31G**", 
		 "properties": { 
			 "R2extent": 3127.6568, 
			 "electric_dipole_moment_norm": 5.07632884869, 
			 "electric_quadrupole_moment_norm": 21.0317357534, 
			 "total_energy": -705.276797496, 
			 "HOMO_LUMO_gap": 0.18545, 
			 "cosmo_polarized_energy": -15.61, 
			 "cosmo_cavitation_energy": 28.34, 
			 "cosmo_dispersion_energy": -20.56, 
			 "cosmo_repulsion_energy": 1.6, 
			 "cosmo_total_nonelectrostatic_energy": 9.38, 
			 "SMD_solvation_energy": 7.19 
		},
		"coords": [
			{
				"x": -2.1610376865,
				"y": 2.2283459118,
				"z": -1.2729085962,
				"element": "C" 
			},
			{
				"x": -1.9423768498,
				"y": 1.2123679335,
				"z": -0.2485843776,
				"element": "N" 
			},
			{
				"x": -2.8050884839,
				"y": 0.951756073,
				"z": 0.8052789246,
				"element": "C" 
			},
			{
				"x": -2.2959342881,
				"y": -0.0623174553,
				"z": 1.576307269,
				"element": "C" 
			},
			{
				"x": -2.9416369221,
				"y": -0.645891048,
				"z": 2.7978485881,
				"element": "C" 
			},
			{
				"x": -1.0576859269,
				"y": -0.4464167526,
				"z": 0.9467333746,
				"element": "C" 
			},
			{
				"x": -0.1508950623,
				"y": -1.520565423,
				"z": 1.2937179551,
				"element": "C" 
			},
			{
				"x": -0.3464109487,
				"y": -2.0446371821,
				"z": 2.5223301792,
				"element": "O" 
			},
			{
				"x": 0.7458283826,
				"y": -1.9711712796,
				"z": 0.5702955435,
				"element": "O" 
			},
			{
				"x": -0.8678639366,
				"y": 0.3799339132,
				"z": -0.1698166648,
				"element": "C" 
			},
			{
				"x": 0.2700258197,
				"y": 0.4410573305,
				"z": -1.1444885696,
				"element": "C" 
			},
			{
				"x": 0.0291937724,
				"y": -0.4908396621,
				"z": -2.3458665578,
				"element": "C" 
			},
			{
				"x": 0.256518314,
				"y": -1.7869039002,
				"z": -2.1130013656,
				"element": "O" 
			},
			{
				"x": -0.3654762203,
				"y": -0.0796207927,
				"z": -3.4146555889,
				"element": "O" 
			},
			{
				"x": -3.2245787909,
				"y": 2.4697796647,
				"z": -1.3020894962,
				"element": "H" 
			},
			{
				"x": -1.860139855,
				"y": 1.8423040306,
				"z": -2.2487169612,
				"element": "H" 
			},
			{
				"x": -1.5991317125,
				"y": 3.1427000285,
				"z": -1.0527004203,
				"element": "H" 
			},
			{
				"x": -3.7237069202,
				"y": 1.5107749939,
				"z": 0.9103225634,
				"element": "H" 
			},
			{
				"x": -3.1182390256,
				"y": -1.720653328,
				"z": 2.6866555141,
				"element": "H" 
			},
			{
				"x": -2.3123859278,
				"y": -0.5217646998,
				"z": 3.684738952,
				"element": "H" 
			},
			{
				"x": -3.9033122726,
				"y": -0.1614943631,
				"z": 2.9899726111,
				"element": "H" 
			},
			{
				"x": 0.2958023031,
				"y": -2.7691824926,
				"z": 2.6069786024,
				"element": "H" 
			},
			{
				"x": 0.3946752013,
				"y": 1.4518632179,
				"z": -1.5362903612,
				"element": "H" 
			},
			{
				"x": 1.1895744406,
				"y": 0.1493266937,
				"z": -0.6310470279,
				"element": "H" 
			},
			{
				"x": 0.517782596,
				"y": -1.9232514122,
				"z": -1.16991409,
				"element": "H" 
			}
		],
		 "valence_orbital": [ 
			{
				"type": "occ",
				"energy": -0.29763,
				"method": "rhf"
			},
			{
				"type": "occ",
				"energy": -0.295,
				"method": "rhf"
			},
			{
				"type": "occ",
				"energy": -0.26482,
				"method": "rhf"
			},
			{
				"type": "occ",
				"energy": -0.2531,
				"method": "rhf"
			},
			{
				"type": "occ",
				"energy": -0.22221,
				"method": "rhf"
			},
			{
				"type": "unocc",
				"energy": -0.03676,
				"method": "rhf"
			},
			{
				"type": "unocc",
				"energy": 0.01907,
				"method": "rhf"
			},
			{
				"type": "unocc",
				"energy": 0.03562,
				"method": "rhf"
			},
			{
				"type": "unocc",
				"energy": 0.07185,
				"method": "rhf"
			},
			{
				"type": "unocc",
				"energy": 0.08488,
				"method": "rhf"
			}
		],
		"cosmo_sigma_profile": { 
			"-0.025": 0.0,
			"-0.024": 0.0,
			"-0.023": 0.0,
			"-0.022": 0.0,
			"-0.021": 0.0,
			"-0.02": 0.0,
			"-0.019": 0.0727629491794,
			"-0.018": 0.741580306061,
			"-0.017": 1.09003524364,
			"-0.016": 0.67491114012,
			"-0.015": 0.502434603465,
			"-0.014": 0.867042930256,
			"-0.013": 0.359738466349,
			"-0.012": 0.877543407927,
			"-0.011": 0.840643015742,
			"-0.01": 0.571308260842,
			"-0.009": 0.46127733034,
			"-0.008": 3.51384014767,
			"-0.007": 9.40204480636,
			"-0.006": 12.0374043211,
			"-0.005": 11.9915808227,
			"-0.004": 18.0483741906,
			"-0.003": 21.4084617591,
			"-0.002": 17.8461080388,
			"-0.001": 15.53471991,
			"0.0": 16.8385126558,
			"0.001": 13.7755795013,
			"0.002": 9.91877513665,
			"0.003": 9.51618362712,
			"0.004": 9.61949578571,
			"0.005": 9.64268838079,
			"0.006": 5.8655595185,
			"0.007": 4.04933327956,
			"0.008": 4.26909163986,
			"0.009": 3.90677034569,
			"0.01": 5.06258715305,
			"0.011": 6.88347207543,
			"0.012": 5.63217211121,
			"0.013": 2.30962552577,
			"0.014": 0.373877630227,
			"0.015": 0.0,
			"0.016": 0.0,
			"0.017": 0.0,
			"0.018": 0.0,
			"0.019": 0.0,
			"0.02": 0.0,
			"0.021": 0.0,
			"0.022": 0.0,
			"0.023": 0.0,
			"0.024": 0.0,
			"0.025": 0.0
		}
	}
}
