{
	 "smiles": "COC1=CC(F)=CC=C1", 
	 "Tm": 238.15, 
	 "num_atms": 16, 
	 "gaussian": { 
		 "optdone": 1, 
		 "sigma_profile": "yes", 
		 "theory": "DFT", 
		 "functional": "B3LYP", 
		 "basiset": "6-31G**", 
		 "properties": { 
			 "R2extent": 2260.0923, 
			 "electric_dipole_moment_norm": 2.74212569734, 
			 "electric_quadrupole_moment_norm": 9.49136730087, 
			 "total_energy": -446.008017719, 
			 "HOMO_LUMO_gap": 0.22135, 
			 "cosmo_polarized_energy": -5.19, 
			 "cosmo_cavitation_energy": 20.23, 
			 "cosmo_dispersion_energy": -15.06, 
			 "cosmo_repulsion_energy": 1.21, 
			 "cosmo_total_nonelectrostatic_energy": 6.38, 
			 "SMD_solvation_energy": 4.87 
		},
		"coords": [
			{
				"x": 2.581100516,
				"y": -1.3574966368,
				"z": -3.3207842525,
				"element": "C" 
			},
			{
				"x": 1.3752323834,
				"y": -1.9858779831,
				"z": -2.9142655082,
				"element": "O" 
			},
			{
				"x": 0.9040436629,
				"y": -1.7301262554,
				"z": -1.6609810786,
				"element": "C" 
			},
			{
				"x": -0.2910760077,
				"y": -2.3841200803,
				"z": -1.3260459343,
				"element": "C" 
			},
			{
				"x": -0.8338514513,
				"y": -2.1753161344,
				"z": -0.069489091,
				"element": "C" 
			},
			{
				"x": -1.9840126606,
				"y": -2.806952723,
				"z": 0.2480942746,
				"element": "F" 
			},
			{
				"x": -0.2421738329,
				"y": -1.3418257591,
				"z": 0.8775821069,
				"element": "C" 
			},
			{
				"x": 0.9434014957,
				"y": -0.7022134364,
				"z": 0.525255821,
				"element": "C" 
			},
			{
				"x": 1.5265255225,
				"y": -0.8844433883,
				"z": -0.7327774976,
				"element": "C" 
			},
			{
				"x": 3.4249396164,
				"y": -1.6488586105,
				"z": -2.6823575301,
				"element": "H" 
			},
			{
				"x": 2.489309525,
				"y": -0.2638294431,
				"z": -3.3169283541,
				"element": "H" 
			},
			{
				"x": 2.7681637978,
				"y": -1.6981552097,
				"z": -4.3401530433,
				"element": "H" 
			},
			{
				"x": -0.7749285893,
				"y": -3.0385124272,
				"z": -2.0411832488,
				"element": "H" 
			},
			{
				"x": -0.7052887324,
				"y": -1.2100330489,
				"z": 1.8484770787,
				"element": "H" 
			},
			{
				"x": 1.4288993021,
				"y": -0.0460754651,
				"z": 1.2417239176,
				"element": "H" 
			},
			{
				"x": 2.4491154524,
				"y": -0.3718633987,
				"z": -0.9745676603,
				"element": "H" 
			}
		],
		 "valence_orbital": [ 
			{
				"type": "occ",
				"energy": -0.35693,
				"method": "rhf"
			},
			{
				"type": "occ",
				"energy": -0.3331,
				"method": "rhf"
			},
			{
				"type": "occ",
				"energy": -0.31814,
				"method": "rhf"
			},
			{
				"type": "occ",
				"energy": -0.24532,
				"method": "rhf"
			},
			{
				"type": "occ",
				"energy": -0.22419,
				"method": "rhf"
			},
			{
				"type": "unocc",
				"energy": -0.00284,
				"method": "rhf"
			},
			{
				"type": "unocc",
				"energy": 0.01356,
				"method": "rhf"
			},
			{
				"type": "unocc",
				"energy": 0.08531,
				"method": "rhf"
			},
			{
				"type": "unocc",
				"energy": 0.10268,
				"method": "rhf"
			},
			{
				"type": "unocc",
				"energy": 0.12674,
				"method": "rhf"
			}
		],
		"cosmo_sigma_profile": { 
			"-0.025": 0.0,
			"-0.024": 0.0,
			"-0.023": 0.0,
			"-0.022": 0.0,
			"-0.021": 0.0,
			"-0.02": 0.0,
			"-0.019": 0.0,
			"-0.018": 0.0,
			"-0.017": 0.0,
			"-0.016": 0.0,
			"-0.015": 0.0,
			"-0.014": 0.0,
			"-0.013": 0.0,
			"-0.012": 0.0,
			"-0.011": 0.0,
			"-0.01": 0.0,
			"-0.009": 0.0,
			"-0.008": 0.0282945083676,
			"-0.007": 2.80647759747,
			"-0.006": 10.7337339036,
			"-0.005": 15.9746472139,
			"-0.004": 15.1207216764,
			"-0.003": 13.1144609892,
			"-0.002": 9.5189654076,
			"-0.001": 7.11037095993,
			"0.0": 6.45446948125,
			"0.001": 11.2064632296,
			"0.002": 13.7392486005,
			"0.003": 15.8110644126,
			"0.004": 19.6138893863,
			"0.005": 13.0165088991,
			"0.006": 1.84997746139,
			"0.007": 1.35634406474,
			"0.008": 1.32035835796,
			"0.009": 1.25578087542,
			"0.01": 1.50740430529,
			"0.011": 0.106077841377,
			"0.012": 0.0,
			"0.013": 0.0,
			"0.014": 0.0,
			"0.015": 0.0,
			"0.016": 0.0,
			"0.017": 0.0,
			"0.018": 0.0,
			"0.019": 0.0,
			"0.02": 0.0,
			"0.021": 0.0,
			"0.022": 0.0,
			"0.023": 0.0,
			"0.024": 0.0,
			"0.025": 0.0
		}
	}
}
