{
	 "smiles": "COC1=C2C=CC=CC2=C(C=C1)C(=O)N1CCC(CC1)C(O)=O", 
	 "Tm": 529.15, 
	 "num_atms": 42, 
	 "gaussian": { 
		 "optdone": 1, 
		 "sigma_profile": "yes", 
		 "theory": "DFT", 
		 "functional": "B3LYP", 
		 "basiset": "6-31G**", 
		 "properties": { 
			 "R2extent": 10285.3891, 
			 "electric_dipole_moment_norm": 2.18833541076, 
			 "electric_quadrupole_moment_norm": 39.0114729313, 
			 "total_energy": -1053.03245495, 
			 "HOMO_LUMO_gap": 0.16424, 
			 "cosmo_polarized_energy": -24.78, 
			 "cosmo_cavitation_energy": 43.71, 
			 "cosmo_dispersion_energy": -30.63, 
			 "cosmo_repulsion_energy": 2.31, 
			 "cosmo_total_nonelectrostatic_energy": 15.39, 
			 "SMD_solvation_energy": 8.77 
		},
		"coords": [
			{
				"x": 3.204732065,
				"y": -4.240790235,
				"z": -1.2483624119,
				"element": "C" 
			},
			{
				"x": 1.8891481091,
				"y": -3.956721216,
				"z": -0.7963864989,
				"element": "O" 
			},
			{
				"x": 1.510412168,
				"y": -2.6542478349,
				"z": -0.6822359367,
				"element": "C" 
			},
			{
				"x": 0.176551288,
				"y": -2.4495818055,
				"z": -0.1974957101,
				"element": "C" 
			},
			{
				"x": -0.6485696584,
				"y": -3.5458387132,
				"z": 0.1635911895,
				"element": "C" 
			},
			{
				"x": -1.9167712812,
				"y": -3.3392269731,
				"z": 0.6595809658,
				"element": "C" 
			},
			{
				"x": -2.4051368694,
				"y": -2.023690286,
				"z": 0.82281393,
				"element": "C" 
			},
			{
				"x": -1.6274832895,
				"y": -0.9413299413,
				"z": 0.4735198661,
				"element": "C" 
			},
			{
				"x": -0.319893515,
				"y": -1.1119382922,
				"z": -0.0600880926,
				"element": "C" 
			},
			{
				"x": 0.5268057741,
				"y": -0.0109066775,
				"z": -0.4226574016,
				"element": "C" 
			},
			{
				"x": 1.8185997844,
				"y": -0.2639841326,
				"z": -0.8377145397,
				"element": "C" 
			},
			{
				"x": 2.3179433471,
				"y": -1.5753248976,
				"z": -0.9859960258,
				"element": "C" 
			},
			{
				"x": 0.133711655,
				"y": 1.4367036434,
				"z": -0.2870129541,
				"element": "C" 
			},
			{
				"x": 0.8220257349,
				"y": 2.2175168719,
				"z": 0.3702424606,
				"element": "O" 
			},
			{
				"x": -1.0026748371,
				"y": 1.8764503614,
				"z": -0.9299288441,
				"element": "N" 
			},
			{
				"x": -1.3321655682,
				"y": 3.2964088668,
				"z": -0.748115712,
				"element": "C" 
			},
			{
				"x": -2.7220438251,
				"y": 3.5955822701,
				"z": -1.3085855042,
				"element": "C" 
			},
			{
				"x": -2.793539937,
				"y": 3.3088974549,
				"z": -2.8376127113,
				"element": "C" 
			},
			{
				"x": -1.8958347224,
				"y": 2.110007458,
				"z": -3.2185006315,
				"element": "C" 
			},
			{
				"x": -1.6670213322,
				"y": 1.1664920572,
				"z": -2.0337252392,
				"element": "C" 
			},
			{
				"x": -4.2467335623,
				"y": 3.0865294422,
				"z": -3.2644711106,
				"element": "C" 
			},
			{
				"x": -5.0859359121,
				"y": 4.132373559,
				"z": -3.0307701849,
				"element": "O" 
			},
			{
				"x": -4.6777634576,
				"y": 2.0747338936,
				"z": -3.7590725965,
				"element": "O" 
			},
			{
				"x": 3.9606504782,
				"y": -3.825273075,
				"z": -0.5704985628,
				"element": "H" 
			},
			{
				"x": 3.2899166719,
				"y": -5.3282166749,
				"z": -1.2615535878,
				"element": "H" 
			},
			{
				"x": 3.3748975597,
				"y": -3.8510553626,
				"z": -2.2597804898,
				"element": "H" 
			},
			{
				"x": -0.2555506525,
				"y": -4.549058636,
				"z": 0.047949313,
				"element": "H" 
			},
			{
				"x": -2.5387315992,
				"y": -4.1859356712,
				"z": 0.9345925538,
				"element": "H" 
			},
			{
				"x": -3.3988075131,
				"y": -1.8640147351,
				"z": 1.2316890733,
				"element": "H" 
			},
			{
				"x": -2.0054569541,
				"y": 0.0650262709,
				"z": 0.616708342,
				"element": "H" 
			},
			{
				"x": 2.4690808059,
				"y": 0.5762922803,
				"z": -1.0591765222,
				"element": "H" 
			},
			{
				"x": 3.3332354781,
				"y": -1.7154588501,
				"z": -1.3357132744,
				"element": "H" 
			},
			{
				"x": -0.5757945116,
				"y": 3.9307631453,
				"z": -1.2329962609,
				"element": "H" 
			},
			{
				"x": -1.2823591231,
				"y": 3.5270694057,
				"z": 0.3187850492,
				"element": "H" 
			},
			{
				"x": -3.4599104426,
				"y": 2.9823118369,
				"z": -0.7780461224,
				"element": "H" 
			},
			{
				"x": -2.9687139481,
				"y": 4.6409093741,
				"z": -1.0895251629,
				"element": "H" 
			},
			{
				"x": -2.437429146,
				"y": 4.2013811012,
				"z": -3.3712108341,
				"element": "H" 
			},
			{
				"x": -2.3630526393,
				"y": 1.5537795631,
				"z": -4.0345936143,
				"element": "H" 
			},
			{
				"x": -0.9260693373,
				"y": 2.4762869265,
				"z": -3.5713836127,
				"element": "H" 
			},
			{
				"x": -2.6259586665,
				"y": 0.7434389067,
				"z": -1.7076061477,
				"element": "H" 
			},
			{
				"x": -1.0373350587,
				"y": 0.329410856,
				"z": -2.3367968452,
				"element": "H" 
			},
			{
				"x": -4.5996735597,
				"y": 4.8746284645,
				"z": -2.6450596001,
				"element": "H" 
			}
		],
		 "valence_orbital": [ 
			{
				"type": "occ",
				"energy": -0.26365,
				"method": "rhf"
			},
			{
				"type": "occ",
				"energy": -0.24847,
				"method": "rhf"
			},
			{
				"type": "occ",
				"energy": -0.24431,
				"method": "rhf"
			},
			{
				"type": "occ",
				"energy": -0.2342,
				"method": "rhf"
			},
			{
				"type": "occ",
				"energy": -0.20363,
				"method": "rhf"
			},
			{
				"type": "unocc",
				"energy": -0.03939,
				"method": "rhf"
			},
			{
				"type": "unocc",
				"energy": -0.0114,
				"method": "rhf"
			},
			{
				"type": "unocc",
				"energy": 0.00363,
				"method": "rhf"
			},
			{
				"type": "unocc",
				"energy": 0.0132,
				"method": "rhf"
			},
			{
				"type": "unocc",
				"energy": 0.04038,
				"method": "rhf"
			}
		],
		"cosmo_sigma_profile": { 
			"-0.025": 0.0,
			"-0.024": 0.0,
			"-0.023": 0.0,
			"-0.022": 0.0,
			"-0.021": 0.0,
			"-0.02": 0.0,
			"-0.019": 0.0903354504943,
			"-0.018": 0.852110500644,
			"-0.017": 1.08481314523,
			"-0.016": 1.30310389722,
			"-0.015": 1.03702389372,
			"-0.014": 1.56995748651,
			"-0.013": 0.749079216435,
			"-0.012": 1.03858893769,
			"-0.011": 0.974908281465,
			"-0.01": 1.31183114171,
			"-0.009": 1.05376452779,
			"-0.008": 2.17229970567,
			"-0.007": 3.9346475705,
			"-0.006": 17.982434879,
			"-0.005": 29.1887500477,
			"-0.004": 40.119541863,
			"-0.003": 38.0287519888,
			"-0.002": 27.6651502781,
			"-0.001": 19.0689683908,
			"0.0": 15.3467932489,
			"0.001": 13.2594894408,
			"0.002": 19.1869887372,
			"0.003": 21.7567930892,
			"0.004": 19.8677648096,
			"0.005": 15.1948313016,
			"0.006": 5.96958499387,
			"0.007": 5.22867732118,
			"0.008": 4.52350577715,
			"0.009": 5.01989421341,
			"0.01": 6.5197358047,
			"0.011": 6.52014907758,
			"0.012": 6.20456015239,
			"0.013": 4.38496146121,
			"0.014": 4.93293458245,
			"0.015": 2.02264169932,
			"0.016": 0.127477517981,
			"0.017": 0.0,
			"0.018": 0.0,
			"0.019": 0.0,
			"0.02": 0.0,
			"0.021": 0.0,
			"0.022": 0.0,
			"0.023": 0.0,
			"0.024": 0.0,
			"0.025": 0.0
		}
	}
}
