{
	 "smiles": "NNC(=S)NCCCN1CCOCC1", 
	 "Tm": 409.15, 
	 "num_atms": 32, 
	 "gaussian": { 
		 "optdone": 1, 
		 "sigma_profile": "yes", 
		 "theory": "DFT", 
		 "functional": "B3LYP", 
		 "basiset": "6-31G**", 
		 "properties": { 
			 "R2extent": 5993.7145, 
			 "electric_dipole_moment_norm": 4.42231221535, 
			 "electric_quadrupole_moment_norm": 25.9707407438, 
			 "total_energy": -1008.0790413, 
			 "HOMO_LUMO_gap": 0.20787, 
			 "cosmo_polarized_energy": -20.12, 
			 "cosmo_cavitation_energy": 34.79, 
			 "cosmo_dispersion_energy": -25.45, 
			 "cosmo_repulsion_energy": 2.0, 
			 "cosmo_total_nonelectrostatic_energy": 11.35, 
			 "SMD_solvation_energy": 3.19 
		},
		"coords": [
			{
				"x": -3.2283501772,
				"y": -3.6306699048,
				"z": 2.5895737478,
				"element": "N" 
			},
			{
				"x": -2.1958473724,
				"y": -2.8098414861,
				"z": 2.0970431451,
				"element": "N" 
			},
			{
				"x": -1.2548243309,
				"y": -2.2279186012,
				"z": 2.8981421405,
				"element": "C" 
			},
			{
				"x": -1.3540817955,
				"y": -2.259711403,
				"z": 4.5820334337,
				"element": "S" 
			},
			{
				"x": -0.2189207433,
				"y": -1.6195022453,
				"z": 2.2581372526,
				"element": "N" 
			},
			{
				"x": -0.0860990386,
				"y": -1.3573220603,
				"z": 0.8292681035,
				"element": "C" 
			},
			{
				"x": -0.9937011002,
				"y": -0.232991058,
				"z": 0.3026473898,
				"element": "C" 
			},
			{
				"x": -0.7609221357,
				"y": 0.0496094614,
				"z": -1.1872409225,
				"element": "C" 
			},
			{
				"x": 0.6133690495,
				"y": 0.4568664127,
				"z": -1.489613312,
				"element": "N" 
			},
			{
				"x": 0.9004406654,
				"y": 1.8373275786,
				"z": -1.0859799146,
				"element": "C" 
			},
			{
				"x": 2.3620304459,
				"y": 2.1729930046,
				"z": -1.3771895357,
				"element": "C" 
			},
			{
				"x": 2.6726029315,
				"y": 1.9879407371,
				"z": -2.7501412642,
				"element": "O" 
			},
			{
				"x": 2.4060812691,
				"y": 0.6510873582,
				"z": -3.1494702863,
				"element": "C" 
			},
			{
				"x": 0.9442992028,
				"y": 0.2815551308,
				"z": -2.9070016998,
				"element": "C" 
			},
			{
				"x": -3.9065942435,
				"y": -3.0177903755,
				"z": 3.0417295972,
				"element": "H" 
			},
			{
				"x": -2.8339073345,
				"y": -4.1862401121,
				"z": 3.3518811759,
				"element": "H" 
			},
			{
				"x": -1.9844469974,
				"y": -2.9827385834,
				"z": 1.1250888741,
				"element": "H" 
			},
			{
				"x": 0.4201518174,
				"y": -1.1602985067,
				"z": 2.8901210404,
				"element": "H" 
			},
			{
				"x": 0.9566260779,
				"y": -1.0947135789,
				"z": 0.6382669818,
				"element": "H" 
			},
			{
				"x": -0.2613477336,
				"y": -2.2832261675,
				"z": 0.2624993337,
				"element": "H" 
			},
			{
				"x": -2.0462143516,
				"y": -0.5000464214,
				"z": 0.449744019,
				"element": "H" 
			},
			{
				"x": -0.8240428301,
				"y": 0.6681832017,
				"z": 0.9026982776,
				"element": "H" 
			},
			{
				"x": -0.961540049,
				"y": -0.8685396533,
				"z": -1.7543726924,
				"element": "H" 
			},
			{
				"x": -1.4962444779,
				"y": 0.7980662771,
				"z": -1.538921541,
				"element": "H" 
			},
			{
				"x": 0.2495687077,
				"y": 2.5559160833,
				"z": -1.6211733249,
				"element": "H" 
			},
			{
				"x": 0.7124084384,
				"y": 1.9564433212,
				"z": -0.0137100445,
				"element": "H" 
			},
			{
				"x": 2.5673189302,
				"y": 3.2225966778,
				"z": -1.1477790736,
				"element": "H" 
			},
			{
				"x": 3.0134531765,
				"y": 1.5415848711,
				"z": -0.7505328029,
				"element": "H" 
			},
			{
				"x": 3.0552770661,
				"y": -0.0481999857,
				"z": -2.5972248056,
				"element": "H" 
			},
			{
				"x": 2.6481192574,
				"y": 0.5873799455,
				"z": -4.2142920595,
				"element": "H" 
			},
			{
				"x": 0.3032223136,
				"y": 0.906560537,
				"z": -3.5582967159,
				"element": "H" 
			},
			{
				"x": 0.7806153621,
				"y": -0.766460455,
				"z": -3.1849345177,
				"element": "H" 
			}
		],
		 "valence_orbital": [ 
			{
				"type": "occ",
				"energy": -0.26271,
				"method": "rhf"
			},
			{
				"type": "occ",
				"energy": -0.26041,
				"method": "rhf"
			},
			{
				"type": "occ",
				"energy": -0.23149,
				"method": "rhf"
			},
			{
				"type": "occ",
				"energy": -0.21163,
				"method": "rhf"
			},
			{
				"type": "occ",
				"energy": -0.20397,
				"method": "rhf"
			},
			{
				"type": "unocc",
				"energy": 0.0039,
				"method": "rhf"
			},
			{
				"type": "unocc",
				"energy": 0.05158,
				"method": "rhf"
			},
			{
				"type": "unocc",
				"energy": 0.06909,
				"method": "rhf"
			},
			{
				"type": "unocc",
				"energy": 0.08073,
				"method": "rhf"
			},
			{
				"type": "unocc",
				"energy": 0.09537,
				"method": "rhf"
			}
		],
		"cosmo_sigma_profile": { 
			"-0.025": 0.0,
			"-0.024": 0.0,
			"-0.023": 0.0,
			"-0.022": 0.0,
			"-0.021": 0.0,
			"-0.02": 0.0,
			"-0.019": 0.0,
			"-0.018": 0.0,
			"-0.017": 0.0,
			"-0.016": 0.0,
			"-0.015": 0.275108320385,
			"-0.014": 1.41253077426,
			"-0.013": 2.44817267482,
			"-0.012": 1.97746984691,
			"-0.011": 3.00329149152,
			"-0.01": 3.46195030021,
			"-0.009": 4.38129521157,
			"-0.008": 4.46500041116,
			"-0.007": 4.01524811911,
			"-0.006": 6.26097810607,
			"-0.005": 13.8218664136,
			"-0.004": 23.5784474279,
			"-0.003": 28.1616442584,
			"-0.002": 36.1850261329,
			"-0.001": 28.5445521223,
			"0.0": 17.7523028092,
			"0.001": 10.9245606183,
			"0.002": 7.08671854703,
			"0.003": 6.46028704202,
			"0.004": 7.29399911332,
			"0.005": 6.50009801006,
			"0.006": 5.94290587093,
			"0.007": 6.64423182968,
			"0.008": 5.65708059887,
			"0.009": 5.6641366443,
			"0.01": 7.88148969644,
			"0.011": 8.80375191536,
			"0.012": 7.71545240259,
			"0.013": 3.26162865644,
			"0.014": 1.40867347073,
			"0.015": 0.803415309149,
			"0.016": 0.536016218293,
			"0.017": 0.0210365252181,
			"0.018": 0.0,
			"0.019": 0.0,
			"0.02": 0.0,
			"0.021": 0.0,
			"0.022": 0.0,
			"0.023": 0.0,
			"0.024": 0.0,
			"0.025": 0.0
		}
	}
}
