{
	 "smiles": "CC(C)OC(=O)C1=C(C=CC=N1)C(C)=O", 
	 "Tm": 313.15, 
	 "num_atms": 28, 
	 "gaussian": { 
		 "optdone": 1, 
		 "sigma_profile": "yes", 
		 "theory": "DFT", 
		 "functional": "B3LYP", 
		 "basiset": "6-31G**", 
		 "properties": { 
			 "R2extent": 4199.0309, 
			 "electric_dipole_moment_norm": 3.1069890312, 
			 "electric_quadrupole_moment_norm": 21.4607873847, 
			 "total_energy": -707.438967696, 
			 "HOMO_LUMO_gap": 0.17848, 
			 "cosmo_polarized_energy": -14.11, 
			 "cosmo_cavitation_energy": 32.29, 
			 "cosmo_dispersion_energy": -22.53, 
			 "cosmo_repulsion_energy": 1.82, 
			 "cosmo_total_nonelectrostatic_energy": 11.57, 
			 "SMD_solvation_energy": 6.06 
		},
		"coords": [
			{
				"x": 0.7294643966,
				"y": 0.207521655,
				"z": -2.4444132368,
				"element": "C" 
			},
			{
				"x": 0.181312745,
				"y": -1.0568119465,
				"z": -1.7911923198,
				"element": "C" 
			},
			{
				"x": 0.834396995,
				"y": -2.336735896,
				"z": -2.291892729,
				"element": "C" 
			},
			{
				"x": 0.4499348053,
				"y": -1.012845755,
				"z": -0.3553442564,
				"element": "O" 
			},
			{
				"x": -0.4084117799,
				"y": -0.329188012,
				"z": 0.4045702786,
				"element": "C" 
			},
			{
				"x": -1.4048621999,
				"y": 0.2395854422,
				"z": -0.0122433191,
				"element": "O" 
			},
			{
				"x": -0.0306313953,
				"y": -0.3152538701,
				"z": 1.8609293758,
				"element": "C" 
			},
			{
				"x": -0.9239554958,
				"y": 0.2478468276,
				"z": 2.7932594389,
				"element": "C" 
			},
			{
				"x": -0.4756025464,
				"y": 0.368370108,
				"z": 4.1143197486,
				"element": "C" 
			},
			{
				"x": 0.7822315008,
				"y": -0.1120717292,
				"z": 4.4608086495,
				"element": "C" 
			},
			{
				"x": 1.5689017765,
				"y": -0.6911844715,
				"z": 3.4616788149,
				"element": "C" 
			},
			{
				"x": 1.1834947744,
				"y": -0.7778388831,
				"z": 2.1884579868,
				"element": "N" 
			},
			{
				"x": -2.3169330126,
				"y": 0.7671782354,
				"z": 2.4883637661,
				"element": "C" 
			},
			{
				"x": -3.3878367874,
				"y": -0.2318896281,
				"z": 2.0980769653,
				"element": "C" 
			},
			{
				"x": -2.5752670055,
				"y": 1.9314807887,
				"z": 2.7284164032,
				"element": "O" 
			},
			{
				"x": 1.8061832361,
				"y": 0.2947795633,
				"z": -2.2681130243,
				"element": "H" 
			},
			{
				"x": 0.2304746879,
				"y": 1.0945459153,
				"z": -2.0474956237,
				"element": "H" 
			},
			{
				"x": 0.5576743063,
				"y": 0.1738363995,
				"z": -3.5251403391,
				"element": "H" 
			},
			{
				"x": -0.9043728076,
				"y": -1.0971458602,
				"z": -1.9192808878,
				"element": "H" 
			},
			{
				"x": 0.4262143327,
				"y": -3.2101190883,
				"z": -1.7759699487,
				"element": "H" 
			},
			{
				"x": 0.6535660941,
				"y": -2.4527555572,
				"z": -3.3649692052,
				"element": "H" 
			},
			{
				"x": 1.9153831767,
				"y": -2.3113340825,
				"z": -2.1236347261,
				"element": "H" 
			},
			{
				"x": -1.1195065878,
				"y": 0.8361670074,
				"z": 4.8528656188,
				"element": "H" 
			},
			{
				"x": 1.1508418121,
				"y": -0.0382208191,
				"z": 5.4790312995,
				"element": "H" 
			},
			{
				"x": 2.5546278351,
				"y": -1.0899543046,
				"z": 3.6936981965,
				"element": "H" 
			},
			{
				"x": -4.1963192684,
				"y": 0.2889375436,
				"z": 1.5824352214,
				"element": "H" 
			},
			{
				"x": -3.7914505881,
				"y": -0.6677381392,
				"z": 3.0217064359,
				"element": "H" 
			},
			{
				"x": -3.0070529999,
				"y": -1.0420614436,
				"z": 1.476671416,
				"element": "H" 
			}
		],
		 "valence_orbital": [ 
			{
				"type": "occ",
				"energy": -0.29915,
				"method": "rhf"
			},
			{
				"type": "occ",
				"energy": -0.29174,
				"method": "rhf"
			},
			{
				"type": "occ",
				"energy": -0.2747,
				"method": "rhf"
			},
			{
				"type": "occ",
				"energy": -0.26693,
				"method": "rhf"
			},
			{
				"type": "occ",
				"energy": -0.2433,
				"method": "rhf"
			},
			{
				"type": "unocc",
				"energy": -0.06482,
				"method": "rhf"
			},
			{
				"type": "unocc",
				"energy": -0.04233,
				"method": "rhf"
			},
			{
				"type": "unocc",
				"energy": 0.00097,
				"method": "rhf"
			},
			{
				"type": "unocc",
				"energy": 0.04451,
				"method": "rhf"
			},
			{
				"type": "unocc",
				"energy": 0.09272,
				"method": "rhf"
			}
		],
		"cosmo_sigma_profile": { 
			"-0.025": 0.0,
			"-0.024": 0.0,
			"-0.023": 0.0,
			"-0.022": 0.0,
			"-0.021": 0.0,
			"-0.02": 0.0,
			"-0.019": 0.0,
			"-0.018": 0.0,
			"-0.017": 0.0,
			"-0.016": 0.0,
			"-0.015": 0.0,
			"-0.014": 0.0,
			"-0.013": 0.0,
			"-0.012": 0.0,
			"-0.011": 0.0,
			"-0.01": 0.0,
			"-0.009": 0.0782448036735,
			"-0.008": 4.08198894494,
			"-0.007": 10.0357752048,
			"-0.006": 11.4659116212,
			"-0.005": 14.8631295647,
			"-0.004": 24.2409720412,
			"-0.003": 26.3501747498,
			"-0.002": 26.2947757313,
			"-0.001": 28.5167945975,
			"0.0": 29.482467591,
			"0.001": 15.8066960023,
			"0.002": 5.78042309707,
			"0.003": 6.2670561306,
			"0.004": 4.85500077759,
			"0.005": 5.19345032704,
			"0.006": 4.657955365,
			"0.007": 5.58941273125,
			"0.008": 4.8918401193,
			"0.009": 5.04232649517,
			"0.01": 5.52835648264,
			"0.011": 6.52003052414,
			"0.012": 5.27436974289,
			"0.013": 1.60200968509,
			"0.014": 1.21782700644,
			"0.015": 0.905070812163,
			"0.016": 0.866953957535,
			"0.017": 0.379629550827,
			"0.018": 0.0,
			"0.019": 0.0,
			"0.02": 0.0,
			"0.021": 0.0,
			"0.022": 0.0,
			"0.023": 0.0,
			"0.024": 0.0,
			"0.025": 0.0
		}
	}
}
