{
	 "smiles": "NC(=O)C1=CC=C(C=C1)C(F)(F)F", 
	 "Tm": 457.15, 
	 "num_atms": 19, 
	 "gaussian": { 
		 "optdone": 1, 
		 "sigma_profile": "yes", 
		 "theory": "DFT", 
		 "functional": "B3LYP", 
		 "basiset": "6-31G**", 
		 "properties": { 
			 "R2extent": 4463.8459, 
			 "electric_dipole_moment_norm": 3.39350559746, 
			 "electric_quadrupole_moment_norm": 18.8997060117, 
			 "total_energy": -737.989505362, 
			 "HOMO_LUMO_gap": 0.20176, 
			 "cosmo_polarized_energy": -12.75, 
			 "cosmo_cavitation_energy": 25.21, 
			 "cosmo_dispersion_energy": -18.11, 
			 "cosmo_repulsion_energy": 1.38, 
			 "cosmo_total_nonelectrostatic_energy": 8.48, 
			 "SMD_solvation_energy": 6.31 
		},
		"coords": [
			{
				"x": 1.6975304315,
				"y": 0.3910499618,
				"z": 2.5668262891,
				"element": "N" 
			},
			{
				"x": 1.3776385963,
				"y": 0.279506695,
				"z": 1.2357935345,
				"element": "C" 
			},
			{
				"x": 2.1301336357,
				"y": -0.2510987606,
				"z": 0.4292512846,
				"element": "O" 
			},
			{
				"x": 0.0353468482,
				"y": 0.823922536,
				"z": 0.825218917,
				"element": "C" 
			},
			{
				"x": -0.166868865,
				"y": 1.0698940231,
				"z": -0.5387836448,
				"element": "C" 
			},
			{
				"x": -1.3813092529,
				"y": 1.5738240617,
				"z": -0.9922627513,
				"element": "C" 
			},
			{
				"x": -2.4136908089,
				"y": 1.823121383,
				"z": -0.0823387596,
				"element": "C" 
			},
			{
				"x": -2.2304667321,
				"y": 1.5605431304,
				"z": 1.2772541862,
				"element": "C" 
			},
			{
				"x": -1.0097499355,
				"y": 1.0622926587,
				"z": 1.7278821108,
				"element": "C" 
			},
			{
				"x": -3.7093086926,
				"y": 2.4216847047,
				"z": -0.5632166473,
				"element": "C" 
			},
			{
				"x": -3.6575905964,
				"y": 3.7741073792,
				"z": -0.5650447381,
				"element": "F" 
			},
			{
				"x": -4.0027163926,
				"y": 2.0379775971,
				"z": -1.8242581282,
				"element": "F" 
			},
			{
				"x": -4.7495351666,
				"y": 2.0692853358,
				"z": 0.2237794974,
				"element": "F" 
			},
			{
				"x": 1.2566242976,
				"y": 1.0892284729,
				"z": 3.1448205734,
				"element": "H" 
			},
			{
				"x": 2.6419140009,
				"y": 0.1268089099,
				"z": 2.8085655563,
				"element": "H" 
			},
			{
				"x": 0.6436835513,
				"y": 0.8523077971,
				"z": -1.2255443435,
				"element": "H" 
			},
			{
				"x": -1.5361213927,
				"y": 1.7641059033,
				"z": -2.0487821988,
				"element": "H" 
			},
			{
				"x": -3.0438501121,
				"y": 1.7303575151,
				"z": 1.9741058151,
				"element": "H" 
			},
			{
				"x": -0.8922634141,
				"y": 0.8260806958,
				"z": 2.7810334473,
				"element": "H" 
			}
		],
		 "valence_orbital": [ 
			{
				"type": "occ",
				"energy": -0.36521,
				"method": "rhf"
			},
			{
				"type": "occ",
				"energy": -0.28292,
				"method": "rhf"
			},
			{
				"type": "occ",
				"energy": -0.27723,
				"method": "rhf"
			},
			{
				"type": "occ",
				"energy": -0.2752,
				"method": "rhf"
			},
			{
				"type": "occ",
				"energy": -0.25948,
				"method": "rhf"
			},
			{
				"type": "unocc",
				"energy": -0.05772,
				"method": "rhf"
			},
			{
				"type": "unocc",
				"energy": -0.02575,
				"method": "rhf"
			},
			{
				"type": "unocc",
				"energy": 0.03901,
				"method": "rhf"
			},
			{
				"type": "unocc",
				"energy": 0.0677,
				"method": "rhf"
			},
			{
				"type": "unocc",
				"energy": 0.10338,
				"method": "rhf"
			}
		],
		"cosmo_sigma_profile": { 
			"-0.025": 0.0,
			"-0.024": 0.0,
			"-0.023": 0.0,
			"-0.022": 0.0,
			"-0.021": 0.0,
			"-0.02": 0.0,
			"-0.019": 0.0,
			"-0.018": 0.0,
			"-0.017": 0.0,
			"-0.016": 0.0,
			"-0.015": 0.247660727304,
			"-0.014": 2.14786765021,
			"-0.013": 2.40186095325,
			"-0.012": 2.5863256333,
			"-0.011": 2.46012952651,
			"-0.01": 2.7004365042,
			"-0.009": 3.04683489158,
			"-0.008": 3.46779533575,
			"-0.007": 5.43224905142,
			"-0.006": 8.40909038786,
			"-0.005": 7.46542656124,
			"-0.004": 7.68979025294,
			"-0.003": 8.01568871336,
			"-0.002": 10.3612480923,
			"-0.001": 12.9506083653,
			"0.0": 14.580001412,
			"0.001": 18.0841998448,
			"0.002": 33.2544554021,
			"0.003": 30.7504107116,
			"0.004": 3.5739078037,
			"0.005": 2.21182824561,
			"0.006": 1.71503624259,
			"0.007": 2.24939172403,
			"0.008": 1.90468863836,
			"0.009": 1.37904982572,
			"0.01": 1.18108058916,
			"0.011": 1.53707171715,
			"0.012": 2.85699049777,
			"0.013": 5.07935483322,
			"0.014": 2.22743917316,
			"0.015": 0.0529052615892,
			"0.016": 0.0,
			"0.017": 0.0,
			"0.018": 0.0,
			"0.019": 0.0,
			"0.02": 0.0,
			"0.021": 0.0,
			"0.022": 0.0,
			"0.023": 0.0,
			"0.024": 0.0,
			"0.025": 0.0
		}
	}
}
