{
	 "smiles": "CC1=CC(=NN1C1=CC(Cl)=CC=C1)C(O)=O", 
	 "Tm": 464.15, 
	 "num_atms": 25, 
	 "gaussian": { 
		 "optdone": 1, 
		 "sigma_profile": "yes", 
		 "theory": "DFT", 
		 "functional": "B3LYP", 
		 "basiset": "6-31G**", 
		 "properties": { 
			 "R2extent": 5585.5734, 
			 "electric_dipole_moment_norm": 5.78709352352, 
			 "electric_quadrupole_moment_norm": 26.9188221473, 
			 "total_energy": -1144.7382491, 
			 "HOMO_LUMO_gap": 0.20072, 
			 "cosmo_polarized_energy": -14.41, 
			 "cosmo_cavitation_energy": 32.0, 
			 "cosmo_dispersion_energy": -23.05, 
			 "cosmo_repulsion_energy": 1.8, 
			 "cosmo_total_nonelectrostatic_energy": 10.75, 
			 "SMD_solvation_energy": 5.94 
		},
		"coords": [
			{
				"x": -0.3302746832,
				"y": 3.2414899347,
				"z": 1.9865997352,
				"element": "C" 
			},
			{
				"x": -0.3367260067,
				"y": 1.7499601055,
				"z": 2.1090228431,
				"element": "C" 
			},
			{
				"x": -0.6061961421,
				"y": 0.9600335001,
				"z": 3.2085182347,
				"element": "C" 
			},
			{
				"x": -0.4094560803,
				"y": -0.3656160008,
				"z": 2.7710884343,
				"element": "C" 
			},
			{
				"x": -0.0401543275,
				"y": -0.4122356814,
				"z": 1.4913665814,
				"element": "N" 
			},
			{
				"x": -0.0064680171,
				"y": 0.8783664481,
				"z": 1.0865263796,
				"element": "N" 
			},
			{
				"x": 0.4089815001,
				"y": 1.1672057567,
				"z": -0.2448713085,
				"element": "C" 
			},
			{
				"x": -0.2632762344,
				"y": 2.1333540754,
				"z": -0.9985912292,
				"element": "C" 
			},
			{
				"x": 0.172972291,
				"y": 2.3932865816,
				"z": -2.2970210897,
				"element": "C" 
			},
			{
				"x": -0.6643911448,
				"y": 3.6112570826,
				"z": -3.2435178179,
				"element": "Cl" 
			},
			{
				"x": 1.2413442164,
				"y": 1.6982445273,
				"z": -2.8608705144,
				"element": "C" 
			},
			{
				"x": 1.8834645402,
				"y": 0.7214276113,
				"z": -2.0971778959,
				"element": "C" 
			},
			{
				"x": 1.480690464,
				"y": 0.4532922415,
				"z": -0.7914771856,
				"element": "C" 
			},
			{
				"x": -0.5643484299,
				"y": -1.6265280153,
				"z": 3.5420270781,
				"element": "C" 
			},
			{
				"x": -0.326466356,
				"y": -2.7497424664,
				"z": 2.8288127321,
				"element": "O" 
			},
			{
				"x": -0.8752602775,
				"y": -1.6571143346,
				"z": 4.7099558275,
				"element": "O" 
			},
			{
				"x": -1.2519230585,
				"y": 3.628096278,
				"z": 1.537205434,
				"element": "H" 
			},
			{
				"x": -0.2438281391,
				"y": 3.6801880708,
				"z": 2.9830358432,
				"element": "H" 
			},
			{
				"x": 0.5084670012,
				"y": 3.5976636399,
				"z": 1.3816912361,
				"element": "H" 
			},
			{
				"x": -0.8932661005,
				"y": 1.2843004175,
				"z": 4.1967706165,
				"element": "H" 
			},
			{
				"x": -1.1234251791,
				"y": 2.6547976724,
				"z": -0.5997045682,
				"element": "H" 
			},
			{
				"x": 1.5582148964,
				"y": 1.9155023359,
				"z": -3.8743763858,
				"element": "H" 
			},
			{
				"x": 2.7150788213,
				"y": 0.1706194872,
				"z": -2.5253950423,
				"element": "H" 
			},
			{
				"x": 1.9773867805,
				"y": -0.298936633,
				"z": -0.1910027173,
				"element": "H" 
			},
			{
				"x": -0.1043403344,
				"y": -2.4873126349,
				"z": 1.917784779,
				"element": "H" 
			}
		],
		 "valence_orbital": [ 
			{
				"type": "occ",
				"energy": -0.30093,
				"method": "rhf"
			},
			{
				"type": "occ",
				"energy": -0.27238,
				"method": "rhf"
			},
			{
				"type": "occ",
				"energy": -0.26845,
				"method": "rhf"
			},
			{
				"type": "occ",
				"energy": -0.26543,
				"method": "rhf"
			},
			{
				"type": "occ",
				"energy": -0.25476,
				"method": "rhf"
			},
			{
				"type": "unocc",
				"energy": -0.05404,
				"method": "rhf"
			},
			{
				"type": "unocc",
				"energy": -0.0359,
				"method": "rhf"
			},
			{
				"type": "unocc",
				"energy": -0.0205,
				"method": "rhf"
			},
			{
				"type": "unocc",
				"energy": 0.01115,
				"method": "rhf"
			},
			{
				"type": "unocc",
				"energy": 0.01654,
				"method": "rhf"
			}
		],
		"cosmo_sigma_profile": { 
			"-0.025": 0.0,
			"-0.024": 0.0,
			"-0.023": 0.0,
			"-0.022": 0.0,
			"-0.021": 0.0,
			"-0.02": 0.0,
			"-0.019": 0.0,
			"-0.018": 0.0,
			"-0.017": 0.0,
			"-0.016": 0.0,
			"-0.015": 0.143951084617,
			"-0.014": 0.67501421224,
			"-0.013": 0.404734702608,
			"-0.012": 0.400546537264,
			"-0.011": 0.69070527482,
			"-0.01": 1.02372305913,
			"-0.009": 1.61475705872,
			"-0.008": 4.77167994384,
			"-0.007": 10.5744850575,
			"-0.006": 14.9889523313,
			"-0.005": 16.8439516498,
			"-0.004": 14.6954041968,
			"-0.003": 17.3322981682,
			"-0.002": 19.7808675957,
			"-0.001": 18.5514849273,
			"0.0": 19.0821960421,
			"0.001": 23.4772183842,
			"0.002": 25.2068172095,
			"0.003": 18.866220568,
			"0.004": 12.3703137419,
			"0.005": 6.93336163625,
			"0.006": 3.70470006769,
			"0.007": 3.12032589046,
			"0.008": 3.41937470585,
			"0.009": 2.94303073752,
			"0.01": 5.53457872171,
			"0.011": 5.0635503061,
			"0.012": 5.31882575353,
			"0.013": 1.55198587264,
			"0.014": 0.0456373617196,
			"0.015": 0.0,
			"0.016": 0.0,
			"0.017": 0.0,
			"0.018": 0.0,
			"0.019": 0.0,
			"0.02": 0.0,
			"0.021": 0.0,
			"0.022": 0.0,
			"0.023": 0.0,
			"0.024": 0.0,
			"0.025": 0.0
		}
	}
}
