{
	 "smiles": "CC1=CC=C2C(C=CC3=CC4=CC=CC=C4C=C23)=C1", 
	 "Tm": 429.15, 
	 "num_atms": 33, 
	 "gaussian": { 
		 "optdone": 1, 
		 "sigma_profile": "yes", 
		 "theory": "DFT", 
		 "functional": "B3LYP", 
		 "basiset": "6-31G**", 
		 "properties": { 
			 "R2extent": 6074.599, 
			 "electric_dipole_moment_norm": 0.578002084771, 
			 "electric_quadrupole_moment_norm": 13.1725896592, 
			 "total_energy": -732.503180462, 
			 "HOMO_LUMO_gap": 0.13774, 
			 "cosmo_polarized_energy": -7.26, 
			 "cosmo_cavitation_energy": 35.68, 
			 "cosmo_dispersion_energy": -26.51, 
			 "cosmo_repulsion_energy": 1.95, 
			 "cosmo_total_nonelectrostatic_energy": 11.11, 
			 "SMD_solvation_energy": 5.14 
		},
		"coords": [
			{
				"x": -3.622540991,
				"y": 3.763459922,
				"z": -2.707455405,
				"element": "C" 
			},
			{
				"x": -2.7268801161,
				"y": 2.7857680954,
				"z": -1.9860177027,
				"element": "C" 
			},
			{
				"x": -3.2657754686,
				"y": 1.8706599794,
				"z": -1.0564166063,
				"element": "C" 
			},
			{
				"x": -2.459534938,
				"y": 0.9676374765,
				"z": -0.3865089552,
				"element": "C" 
			},
			{
				"x": -1.0648033971,
				"y": 0.9202030898,
				"z": -0.6013091762,
				"element": "C" 
			},
			{
				"x": -0.5130749573,
				"y": 1.8391062847,
				"z": -1.536966481,
				"element": "C" 
			},
			{
				"x": 0.9052042015,
				"y": 1.8331578926,
				"z": -1.7943036524,
				"element": "C" 
			},
			{
				"x": 1.7343350478,
				"y": 0.9661572257,
				"z": -1.1615094242,
				"element": "C" 
			},
			{
				"x": 1.2336256596,
				"y": 0.0134539083,
				"z": -0.2041998767,
				"element": "C" 
			},
			{
				"x": 2.0968729899,
				"y": -0.8719894664,
				"z": 0.4395957146,
				"element": "C" 
			},
			{
				"x": 1.6370442819,
				"y": -1.8113810004,
				"z": 1.3778238884,
				"element": "C" 
			},
			{
				"x": 2.5069345351,
				"y": -2.7238728188,
				"z": 2.0451312493,
				"element": "C" 
			},
			{
				"x": 2.0149825372,
				"y": -3.6258403451,
				"z": 2.9555779509,
				"element": "C" 
			},
			{
				"x": 0.6234026681,
				"y": -3.6650179129,
				"z": 3.2493315503,
				"element": "C" 
			},
			{
				"x": -0.2428576263,
				"y": -2.8014770152,
				"z": 2.6257458595,
				"element": "C" 
			},
			{
				"x": 0.2301951189,
				"y": -1.8500694847,
				"z": 1.6739116722,
				"element": "C" 
			},
			{
				"x": -0.6346930964,
				"y": -0.9524039421,
				"z": 1.0191585372,
				"element": "C" 
			},
			{
				"x": -0.1796024542,
				"y": -0.0201824973,
				"z": 0.0882718198,
				"element": "C" 
			},
			{
				"x": -1.3583025755,
				"y": 2.7502267065,
				"z": -2.2069635687,
				"element": "C" 
			},
			{
				"x": -3.0523325792,
				"y": 4.401202201,
				"z": -3.388353391,
				"element": "H" 
			},
			{
				"x": -4.3870936279,
				"y": 3.2433247895,
				"z": -3.2965239888,
				"element": "H" 
			},
			{
				"x": -4.1512942701,
				"y": 4.4148615821,
				"z": -2.0016700562,
				"element": "H" 
			},
			{
				"x": -4.335870046,
				"y": 1.8755825872,
				"z": -0.863057835,
				"element": "H" 
			},
			{
				"x": -2.9229326951,
				"y": 0.2853675939,
				"z": 0.3179015862,
				"element": "H" 
			},
			{
				"x": 1.2983687395,
				"y": 2.5464028252,
				"z": -2.5141703244,
				"element": "H" 
			},
			{
				"x": 2.8018669183,
				"y": 0.9731425027,
				"z": -1.365758951,
				"element": "H" 
			},
			{
				"x": 3.1591069538,
				"y": -0.8337374482,
				"z": 0.2079947143,
				"element": "H" 
			},
			{
				"x": 3.5695601921,
				"y": -2.6910235469,
				"z": 1.8181885031,
				"element": "H" 
			},
			{
				"x": 2.687059415,
				"y": -4.3158605055,
				"z": 3.4575868917,
				"element": "H" 
			},
			{
				"x": 0.2496680714,
				"y": -4.3845181072,
				"z": 3.9721443464,
				"element": "H" 
			},
			{
				"x": -1.3064283542,
				"y": -2.830225817,
				"z": 2.8491938288,
				"element": "H" 
			},
			{
				"x": -1.6902157187,
				"y": -1.0078823456,
				"z": 1.2654210242,
				"element": "H" 
			},
			{
				"x": -0.9105944183,
				"y": 3.4420675908,
				"z": -2.9173937419,
				"element": "H" 
			}
		],
		 "valence_orbital": [ 
			{
				"type": "occ",
				"energy": -0.28269,
				"method": "rhf"
			},
			{
				"type": "occ",
				"energy": -0.26107,
				"method": "rhf"
			},
			{
				"type": "occ",
				"energy": -0.24264,
				"method": "rhf"
			},
			{
				"type": "occ",
				"energy": -0.21559,
				"method": "rhf"
			},
			{
				"type": "occ",
				"energy": -0.19365,
				"method": "rhf"
			},
			{
				"type": "unocc",
				"energy": -0.05591,
				"method": "rhf"
			},
			{
				"type": "unocc",
				"energy": -0.03037,
				"method": "rhf"
			},
			{
				"type": "unocc",
				"energy": -0.00217,
				"method": "rhf"
			},
			{
				"type": "unocc",
				"energy": 0.01739,
				"method": "rhf"
			},
			{
				"type": "unocc",
				"energy": 0.04124,
				"method": "rhf"
			}
		],
		"cosmo_sigma_profile": { 
			"-0.025": 0.0,
			"-0.024": 0.0,
			"-0.023": 0.0,
			"-0.022": 0.0,
			"-0.021": 0.0,
			"-0.02": 0.0,
			"-0.019": 0.0,
			"-0.018": 0.0,
			"-0.017": 0.0,
			"-0.016": 0.0,
			"-0.015": 0.0,
			"-0.014": 0.0,
			"-0.013": 0.0,
			"-0.012": 0.0,
			"-0.011": 0.0,
			"-0.01": 0.0,
			"-0.009": 0.00659486892204,
			"-0.008": 0.91729593078,
			"-0.007": 1.90317264998,
			"-0.006": 14.5194382051,
			"-0.005": 23.6928530625,
			"-0.004": 25.7792770946,
			"-0.003": 25.1517377512,
			"-0.002": 20.8832125647,
			"-0.001": 20.487920282,
			"0.0": 17.3161298039,
			"0.001": 15.9379351558,
			"0.002": 17.7779807552,
			"0.003": 27.0632855628,
			"0.004": 46.2576697015,
			"0.005": 24.7118042286,
			"0.006": 3.79515872745,
			"0.007": 0.0,
			"0.008": 0.0,
			"0.009": 0.0,
			"0.01": 0.0,
			"0.011": 0.0,
			"0.012": 0.0,
			"0.013": 0.0,
			"0.014": 0.0,
			"0.015": 0.0,
			"0.016": 0.0,
			"0.017": 0.0,
			"0.018": 0.0,
			"0.019": 0.0,
			"0.02": 0.0,
			"0.021": 0.0,
			"0.022": 0.0,
			"0.023": 0.0,
			"0.024": 0.0,
			"0.025": 0.0
		}
	}
}
