{
	 "smiles": "CNC(=O)C1=NC=CC(NC)=C1", 
	 "Tm": 388.15, 
	 "num_atms": 23, 
	 "gaussian": { 
		 "optdone": 1, 
		 "sigma_profile": "yes", 
		 "theory": "DFT", 
		 "functional": "B3LYP", 
		 "basiset": "6-31G**", 
		 "properties": { 
			 "R2extent": 3112.2247, 
			 "electric_dipole_moment_norm": 3.90621787155, 
			 "electric_quadrupole_moment_norm": 21.5071284685, 
			 "total_energy": -550.983846919, 
			 "HOMO_LUMO_gap": 0.19049, 
			 "cosmo_polarized_energy": -14.1, 
			 "cosmo_cavitation_energy": 26.79, 
			 "cosmo_dispersion_energy": -20.06, 
			 "cosmo_repulsion_energy": 1.61, 
			 "cosmo_total_nonelectrostatic_energy": 8.34, 
			 "SMD_solvation_energy": 3.64 
		},
		"coords": [
			{
				"x": 2.425107495,
				"y": -0.6096856269,
				"z": -3.0058799594,
				"element": "C" 
			},
			{
				"x": 1.2939225181,
				"y": -0.8113643984,
				"z": -2.1272958634,
				"element": "N" 
			},
			{
				"x": 1.383602556,
				"y": -0.7147737159,
				"z": -0.7771724635,
				"element": "C" 
			},
			{
				"x": 2.4141186186,
				"y": -0.4506922417,
				"z": -0.1582021308,
				"element": "O" 
			},
			{
				"x": 0.071390794,
				"y": -0.9662154847,
				"z": -0.0661836174,
				"element": "C" 
			},
			{
				"x": -1.0040076945,
				"y": -1.2533952901,
				"z": -0.8270425396,
				"element": "N" 
			},
			{
				"x": -2.1483856765,
				"y": -1.4744593122,
				"z": -0.1735831222,
				"element": "C" 
			},
			{
				"x": -2.2894510328,
				"y": -1.4275357879,
				"z": 1.2110924636,
				"element": "C" 
			},
			{
				"x": -1.161855095,
				"y": -1.1221116628,
				"z": 2.0003877327,
				"element": "C" 
			},
			{
				"x": -1.2160346202,
				"y": -1.0330178869,
				"z": 3.3662736868,
				"element": "N" 
			},
			{
				"x": -2.3740896203,
				"y": -1.4014849984,
				"z": 4.1533807621,
				"element": "C" 
			},
			{
				"x": 0.0493727853,
				"y": -0.8892019154,
				"z": 1.316566144,
				"element": "C" 
			},
			{
				"x": 2.2519421358,
				"y": 0.2251659037,
				"z": -3.6953552744,
				"element": "H" 
			},
			{
				"x": 3.2906608306,
				"y": -0.381232349,
				"z": -2.3821145993,
				"element": "H" 
			},
			{
				"x": 2.6381746242,
				"y": -1.5088297482,
				"z": -3.5962328358,
				"element": "H" 
			},
			{
				"x": 0.3741071426,
				"y": -1.0370093656,
				"z": -2.4862156835,
				"element": "H" 
			},
			{
				"x": -3.0153299856,
				"y": -1.7084169447,
				"z": -0.7896276782,
				"element": "H" 
			},
			{
				"x": -3.2563397109,
				"y": -1.6244585474,
				"z": 1.6591838102,
				"element": "H" 
			},
			{
				"x": -0.333548649,
				"y": -0.951764601,
				"z": 3.8458138389,
				"element": "H" 
			},
			{
				"x": -2.6693118258,
				"y": -2.4507570678,
				"z": 4.0078384344,
				"element": "H" 
			},
			{
				"x": -2.1420121227,
				"y": -1.2548208831,
				"z": 5.209906701,
				"element": "H" 
			},
			{
				"x": -3.2358232229,
				"y": -0.7682990879,
				"z": 3.9104242202,
				"element": "H" 
			},
			{
				"x": 0.9702897558,
				"y": -0.6490389876,
				"z": 1.8380379736,
				"element": "H" 
			}
		],
		 "valence_orbital": [ 
			{
				"type": "occ",
				"energy": -0.2664,
				"method": "rhf"
			},
			{
				"type": "occ",
				"energy": -0.25519,
				"method": "rhf"
			},
			{
				"type": "occ",
				"energy": -0.23656,
				"method": "rhf"
			},
			{
				"type": "occ",
				"energy": -0.23447,
				"method": "rhf"
			},
			{
				"type": "occ",
				"energy": -0.2185,
				"method": "rhf"
			},
			{
				"type": "unocc",
				"energy": -0.02801,
				"method": "rhf"
			},
			{
				"type": "unocc",
				"energy": -0.00456,
				"method": "rhf"
			},
			{
				"type": "unocc",
				"energy": 0.0717,
				"method": "rhf"
			},
			{
				"type": "unocc",
				"energy": 0.0826,
				"method": "rhf"
			},
			{
				"type": "unocc",
				"energy": 0.09462,
				"method": "rhf"
			}
		],
		"cosmo_sigma_profile": { 
			"-0.025": 0.0,
			"-0.024": 0.0,
			"-0.023": 0.0,
			"-0.022": 0.0,
			"-0.021": 0.0,
			"-0.02": 0.0,
			"-0.019": 0.0,
			"-0.018": 0.0,
			"-0.017": 0.0,
			"-0.016": 0.0,
			"-0.015": 0.0,
			"-0.014": 0.771067488505,
			"-0.013": 1.44497427796,
			"-0.012": 1.59550926525,
			"-0.011": 2.04247929044,
			"-0.01": 1.78645718892,
			"-0.009": 1.95412662734,
			"-0.008": 2.87510995209,
			"-0.007": 3.08925078233,
			"-0.006": 8.46621828016,
			"-0.005": 13.9293395981,
			"-0.004": 19.7137816197,
			"-0.003": 18.3996240006,
			"-0.002": 21.0292386603,
			"-0.001": 13.8608211572,
			"0.0": 10.8441433175,
			"0.001": 10.0440822575,
			"0.002": 16.2157934424,
			"0.003": 20.6792634203,
			"0.004": 8.69816879657,
			"0.005": 5.9090715241,
			"0.006": 4.43013598434,
			"0.007": 2.95171766195,
			"0.008": 3.92463312907,
			"0.009": 2.80931805388,
			"0.01": 2.54549460223,
			"0.011": 1.77728293358,
			"0.012": 2.18006722905,
			"0.013": 2.14897566251,
			"0.014": 5.72727042598,
			"0.015": 0.544506410151,
			"0.016": 0.0,
			"0.017": 0.0,
			"0.018": 0.0,
			"0.019": 0.0,
			"0.02": 0.0,
			"0.021": 0.0,
			"0.022": 0.0,
			"0.023": 0.0,
			"0.024": 0.0,
			"0.025": 0.0
		}
	}
}
