{
	 "smiles": "CCOC1=CC(C(N)=O)=C(N)C=C1", 
	 "Tm": 422.15, 
	 "num_atms": 25, 
	 "gaussian": { 
		 "optdone": 1, 
		 "sigma_profile": "yes", 
		 "theory": "DFT", 
		 "functional": "B3LYP", 
		 "basiset": "6-31G**", 
		 "properties": { 
			 "R2extent": 3440.1891, 
			 "electric_dipole_moment_norm": 2.70919298131, 
			 "electric_quadrupole_moment_norm": 12.1099631692, 
			 "total_energy": -610.162800053, 
			 "HOMO_LUMO_gap": 0.15181, 
			 "cosmo_polarized_energy": -14.58, 
			 "cosmo_cavitation_energy": 28.35, 
			 "cosmo_dispersion_energy": -21.34, 
			 "cosmo_repulsion_energy": 1.72, 
			 "cosmo_total_nonelectrostatic_energy": 8.73, 
			 "SMD_solvation_energy": 5.66 
		},
		"coords": [
			{
				"x": 1.1527029297,
				"y": -2.6903618984,
				"z": 2.8796147481,
				"element": "C" 
			},
			{
				"x": 0.4758163871,
				"y": -1.456507148,
				"z": 2.3074915556,
				"element": "C" 
			},
			{
				"x": 0.7613972233,
				"y": -1.4161223259,
				"z": 0.9136377791,
				"element": "O" 
			},
			{
				"x": 0.2392639479,
				"y": -0.3869241973,
				"z": 0.1708780172,
				"element": "C" 
			},
			{
				"x": 0.5200564039,
				"y": -0.4078759497,
				"z": -1.1929456664,
				"element": "C" 
			},
			{
				"x": 0.0433097253,
				"y": 0.5805285255,
				"z": -2.0681205155,
				"element": "C" 
			},
			{
				"x": 0.3635537997,
				"y": 0.522757054,
				"z": -3.523305443,
				"element": "C" 
			},
			{
				"x": 1.4202340655,
				"y": -0.2745722166,
				"z": -3.8945825799,
				"element": "N" 
			},
			{
				"x": -0.2824781106,
				"y": 1.1285657241,
				"z": -4.385176881,
				"element": "O" 
			},
			{
				"x": -0.7766530959,
				"y": 1.6282693387,
				"z": -1.5588764207,
				"element": "C" 
			},
			{
				"x": -1.2539948287,
				"y": 2.6413557784,
				"z": -2.3651503951,
				"element": "N" 
			},
			{
				"x": -1.0412150073,
				"y": 1.6348926568,
				"z": -0.1762323377,
				"element": "C" 
			},
			{
				"x": -0.5488972162,
				"y": 0.6552126022,
				"z": 0.6786763717,
				"element": "C" 
			},
			{
				"x": 0.9600227907,
				"y": -2.762855789,
				"z": 3.9544456544,
				"element": "H" 
			},
			{
				"x": 0.7740977504,
				"y": -3.5955220326,
				"z": 2.396606497,
				"element": "H" 
			},
			{
				"x": 2.2340649475,
				"y": -2.6435537171,
				"z": 2.7229502183,
				"element": "H" 
			},
			{
				"x": 0.8503241891,
				"y": -0.5453337686,
				"z": 2.7975606283,
				"element": "H" 
			},
			{
				"x": -0.6115732013,
				"y": -1.4984000751,
				"z": 2.4697104641,
				"element": "H" 
			},
			{
				"x": 1.0915639995,
				"y": -1.2491294559,
				"z": -1.5701659292,
				"element": "H" 
			},
			{
				"x": 1.6860505839,
				"y": -0.1990202427,
				"z": -4.8657703129,
				"element": "H" 
			},
			{
				"x": 2.151874435,
				"y": -0.486788376,
				"z": -3.235102337,
				"element": "H" 
			},
			{
				"x": -1.2667976908,
				"y": 2.4173130797,
				"z": -3.3543408234,
				"element": "H" 
			},
			{
				"x": -2.0420176659,
				"y": 3.1599150587,
				"z": -2.0082454943,
				"element": "H" 
			},
			{
				"x": -1.653710395,
				"y": 2.4348567208,
				"z": 0.23234866,
				"element": "H" 
			},
			{
				"x": -0.793095967,
				"y": 0.7085006542,
				"z": 1.7332945424,
				"element": "H" 
			}
		],
		 "valence_orbital": [ 
			{
				"type": "occ",
				"energy": -0.27429,
				"method": "rhf"
			},
			{
				"type": "occ",
				"energy": -0.26865,
				"method": "rhf"
			},
			{
				"type": "occ",
				"energy": -0.25262,
				"method": "rhf"
			},
			{
				"type": "occ",
				"energy": -0.24817,
				"method": "rhf"
			},
			{
				"type": "occ",
				"energy": -0.18244,
				"method": "rhf"
			},
			{
				"type": "unocc",
				"energy": -0.03063,
				"method": "rhf"
			},
			{
				"type": "unocc",
				"energy": 0.0233,
				"method": "rhf"
			},
			{
				"type": "unocc",
				"energy": 0.06626,
				"method": "rhf"
			},
			{
				"type": "unocc",
				"energy": 0.08686,
				"method": "rhf"
			},
			{
				"type": "unocc",
				"energy": 0.0981,
				"method": "rhf"
			}
		],
		"cosmo_sigma_profile": { 
			"-0.025": 0.0,
			"-0.024": 0.0,
			"-0.023": 0.0,
			"-0.022": 0.0,
			"-0.021": 0.0,
			"-0.02": 0.0,
			"-0.019": 0.0,
			"-0.018": 0.0,
			"-0.017": 0.0,
			"-0.016": 0.0,
			"-0.015": 0.0180589240124,
			"-0.014": 1.06983461938,
			"-0.013": 2.35078277137,
			"-0.012": 3.12597597234,
			"-0.011": 4.19245056079,
			"-0.01": 3.79123652246,
			"-0.009": 3.70034634929,
			"-0.008": 3.49810948789,
			"-0.007": 4.92091335449,
			"-0.006": 8.13196969894,
			"-0.005": 10.13287699,
			"-0.004": 16.5243939178,
			"-0.003": 17.9640117007,
			"-0.002": 15.3964709765,
			"-0.001": 14.9839252803,
			"0.0": 14.7406959772,
			"0.001": 12.4202275949,
			"0.002": 9.44512121747,
			"0.003": 11.0740454157,
			"0.004": 15.7476795859,
			"0.005": 15.211285452,
			"0.006": 7.92016387761,
			"0.007": 4.30746885354,
			"0.008": 4.87996291489,
			"0.009": 3.61131711996,
			"0.01": 3.88173805173,
			"0.011": 2.23209729091,
			"0.012": 3.69595549516,
			"0.013": 2.77941157216,
			"0.014": 1.85952421761,
			"0.015": 0.101139783909,
			"0.016": 0.0,
			"0.017": 0.0,
			"0.018": 0.0,
			"0.019": 0.0,
			"0.02": 0.0,
			"0.021": 0.0,
			"0.022": 0.0,
			"0.023": 0.0,
			"0.024": 0.0,
			"0.025": 0.0
		}
	}
}
