{
	 "smiles": "CSCC1=CC=CC=C1", 
	 "Tm": 245.15, 
	 "num_atms": 19, 
	 "gaussian": { 
		 "optdone": 1, 
		 "sigma_profile": "yes", 
		 "theory": "DFT", 
		 "functional": "B3LYP", 
		 "basiset": "6-31G**", 
		 "properties": { 
			 "R2extent": 1821.3822, 
			 "electric_dipole_moment_norm": 1.61135963397, 
			 "electric_quadrupole_moment_norm": 5.50150885939, 
			 "total_energy": -709.070231047, 
			 "HOMO_LUMO_gap": 0.20626, 
			 "cosmo_polarized_energy": -5.87, 
			 "cosmo_cavitation_energy": 23.61, 
			 "cosmo_dispersion_energy": -17.43, 
			 "cosmo_repulsion_energy": 1.38, 
			 "cosmo_total_nonelectrostatic_energy": 7.57, 
			 "SMD_solvation_energy": 3.93 
		},
		"coords": [
			{
				"x": 0.2227331456,
				"y": 3.5551815021,
				"z": 0.536251644,
				"element": "C" 
			},
			{
				"x": 0.7555179119,
				"y": 2.4698003973,
				"z": 1.9031153538,
				"element": "S" 
			},
			{
				"x": 1.3347081257,
				"y": 0.9955544407,
				"z": 0.953118471,
				"element": "C" 
			},
			{
				"x": 0.2686266275,
				"y": 0.2990336265,
				"z": 0.1426774446,
				"element": "C" 
			},
			{
				"x": -0.7673714118,
				"y": -0.4079597228,
				"z": 0.7716184611,
				"element": "C" 
			},
			{
				"x": -1.7442820126,
				"y": -1.0571690915,
				"z": 0.0200518512,
				"element": "C" 
			},
			{
				"x": -1.7066605187,
				"y": -1.0069754065,
				"z": -1.3768762349,
				"element": "C" 
			},
			{
				"x": -0.6849018479,
				"y": -0.3035846982,
				"z": -2.0134442165,
				"element": "C" 
			},
			{
				"x": 0.2952010256,
				"y": 0.3442916765,
				"z": -1.2567651241,
				"element": "C" 
			},
			{
				"x": -0.5510772199,
				"y": 3.0749320128,
				"z": -0.0670190669,
				"element": "H" 
			},
			{
				"x": -0.1904877207,
				"y": 4.456376241,
				"z": 0.9944399036,
				"element": "H" 
			},
			{
				"x": 1.0671995276,
				"y": 3.8372469714,
				"z": -0.0989617601,
				"element": "H" 
			},
			{
				"x": 1.7349323882,
				"y": 0.3328359881,
				"z": 1.7269061509,
				"element": "H" 
			},
			{
				"x": 2.171443606,
				"y": 1.2965177904,
				"z": 0.3150537121,
				"element": "H" 
			},
			{
				"x": -0.8071358366,
				"y": -0.4395268486,
				"z": 1.8572672426,
				"element": "H" 
			},
			{
				"x": -2.5366458844,
				"y": -1.6044209745,
				"z": 0.5230574373,
				"element": "H" 
			},
			{
				"x": -2.4688035409,
				"y": -1.5135211521,
				"z": -1.9620240454,
				"element": "H" 
			},
			{
				"x": -0.6465572816,
				"y": -0.258367361,
				"z": -3.0982536572,
				"element": "H" 
			},
			{
				"x": 1.0944609171,
				"y": 0.8847546084,
				"z": -1.7585135671,
				"element": "H" 
			}
		],
		 "valence_orbital": [ 
			{
				"type": "occ",
				"energy": -0.341,
				"method": "rhf"
			},
			{
				"type": "occ",
				"energy": -0.30836,
				"method": "rhf"
			},
			{
				"type": "occ",
				"energy": -0.25156,
				"method": "rhf"
			},
			{
				"type": "occ",
				"energy": -0.24462,
				"method": "rhf"
			},
			{
				"type": "occ",
				"energy": -0.21692,
				"method": "rhf"
			},
			{
				"type": "unocc",
				"energy": -0.01066,
				"method": "rhf"
			},
			{
				"type": "unocc",
				"energy": -0.00139,
				"method": "rhf"
			},
			{
				"type": "unocc",
				"energy": 0.04893,
				"method": "rhf"
			},
			{
				"type": "unocc",
				"energy": 0.08703,
				"method": "rhf"
			},
			{
				"type": "unocc",
				"energy": 0.08872,
				"method": "rhf"
			}
		],
		"cosmo_sigma_profile": { 
			"-0.025": 0.0,
			"-0.024": 0.0,
			"-0.023": 0.0,
			"-0.022": 0.0,
			"-0.021": 0.0,
			"-0.02": 0.0,
			"-0.019": 0.0,
			"-0.018": 0.0,
			"-0.017": 0.0,
			"-0.016": 0.0,
			"-0.015": 0.0,
			"-0.014": 0.0,
			"-0.013": 0.0,
			"-0.012": 0.0,
			"-0.011": 0.0,
			"-0.01": 0.0,
			"-0.009": 0.0,
			"-0.008": 0.0,
			"-0.007": 0.263604677118,
			"-0.006": 7.83901992094,
			"-0.005": 18.8255614238,
			"-0.004": 21.1501300995,
			"-0.003": 19.0350883399,
			"-0.002": 16.2563041523,
			"-0.001": 17.6449501023,
			"0.0": 12.2334575625,
			"0.001": 10.288326867,
			"0.002": 10.247739598,
			"0.003": 9.43211686007,
			"0.004": 10.3596383038,
			"0.005": 12.2551640293,
			"0.006": 10.6748607944,
			"0.007": 3.64666374565,
			"0.008": 2.75464786574,
			"0.009": 2.34712049499,
			"0.01": 2.12552193795,
			"0.011": 1.44919029562,
			"0.012": 0.21889480011,
			"0.013": 0.0,
			"0.014": 0.0,
			"0.015": 0.0,
			"0.016": 0.0,
			"0.017": 0.0,
			"0.018": 0.0,
			"0.019": 0.0,
			"0.02": 0.0,
			"0.021": 0.0,
			"0.022": 0.0,
			"0.023": 0.0,
			"0.024": 0.0,
			"0.025": 0.0
		}
	}
}
