{
	 "smiles": "CCC(C)N=C(/C)C1=C(O)C2=CC=CC=C2N(C2=CC=CC=C2)C1=O", 
	 "Tm": 467.15, 
	 "num_atms": 47, 
	 "gaussian": { 
		 "optdone": 1, 
		 "sigma_profile": "yes", 
		 "theory": "DFT", 
		 "functional": "B3LYP", 
		 "basiset": "6-31G**", 
		 "properties": { 
			 "R2extent": 10709.161, 
			 "electric_dipole_moment_norm": 1.77097905408, 
			 "electric_quadrupole_moment_norm": 19.0490900502, 
			 "total_energy": -1073.49841497, 
			 "HOMO_LUMO_gap": 0.15974, 
			 "cosmo_polarized_energy": -14.97, 
			 "cosmo_cavitation_energy": 48.53, 
			 "cosmo_dispersion_energy": -33.58, 
			 "cosmo_repulsion_energy": 2.53, 
			 "cosmo_total_nonelectrostatic_energy": 17.48, 
			 "SMD_solvation_energy": 8.4 
		},
		"coords": [
			{
				"x": -2.8702449937,
				"y": 3.6603473506,
				"z": -4.3367669558,
				"element": "C" 
			},
			{
				"x": -2.4292312495,
				"y": 2.4981356109,
				"z": -3.4405847674,
				"element": "C" 
			},
			{
				"x": -2.640810752,
				"y": 2.7470667411,
				"z": -1.9312313703,
				"element": "C" 
			},
			{
				"x": -4.1188302833,
				"y": 2.8903672201,
				"z": -1.5476960707,
				"element": "C" 
			},
			{
				"x": -2.0815498654,
				"y": 1.6417133662,
				"z": -1.14607929,
				"element": "N" 
			},
			{
				"x": -0.832679298,
				"y": 1.4487086984,
				"z": -0.7245515926,
				"element": "C" 
			},
			{
				"x": 0.2143495869,
				"y": 2.4829989838,
				"z": -1.0438202161,
				"element": "C" 
			},
			{
				"x": -0.5430916911,
				"y": 0.2609777713,
				"z": 0.0186682882,
				"element": "C" 
			},
			{
				"x": -1.5916870128,
				"y": -0.7065870841,
				"z": 0.2767216495,
				"element": "C" 
			},
			{
				"x": -2.7816618142,
				"y": -0.5667154173,
				"z": -0.1132314677,
				"element": "O" 
			},
			{
				"x": -1.2351608527,
				"y": -1.9181303183,
				"z": 1.0351355458,
				"element": "C" 
			},
			{
				"x": -2.2222199341,
				"y": -2.8804450803,
				"z": 1.3012714703,
				"element": "C" 
			},
			{
				"x": -1.924026587,
				"y": -4.0333257556,
				"z": 2.011317845,
				"element": "C" 
			},
			{
				"x": -0.6133503339,
				"y": -4.231324477,
				"z": 2.4662702712,
				"element": "C" 
			},
			{
				"x": 0.3812995952,
				"y": -3.2942552718,
				"z": 2.2163152831,
				"element": "C" 
			},
			{
				"x": 0.0816294223,
				"y": -2.1216685265,
				"z": 1.4949383938,
				"element": "C" 
			},
			{
				"x": 1.0590382626,
				"y": -1.1592773743,
				"z": 1.2273515579,
				"element": "N" 
			},
			{
				"x": 2.4090843924,
				"y": -1.354261922,
				"z": 1.6980435839,
				"element": "C" 
			},
			{
				"x": 3.3350824707,
				"y": -2.0228855571,
				"z": 0.8954139363,
				"element": "C" 
			},
			{
				"x": 4.6351798569,
				"y": -2.2266096456,
				"z": 1.3592360162,
				"element": "C" 
			},
			{
				"x": 5.0091774291,
				"y": -1.7634824872,
				"z": 2.6223825978,
				"element": "C" 
			},
			{
				"x": 4.0801374958,
				"y": -1.094176385,
				"z": 3.4217073446,
				"element": "C" 
			},
			{
				"x": 2.7792133733,
				"y": -0.8888534216,
				"z": 2.9610611706,
				"element": "C" 
			},
			{
				"x": 0.8182933642,
				"y": 0.0360044514,
				"z": 0.5112741072,
				"element": "C" 
			},
			{
				"x": 1.7668588933,
				"y": 0.8069495552,
				"z": 0.34999352,
				"element": "O" 
			},
			{
				"x": -2.3702180797,
				"y": 4.5940429349,
				"z": -4.0537456603,
				"element": "H" 
			},
			{
				"x": -3.9497704002,
				"y": 3.8320929388,
				"z": -4.2884741939,
				"element": "H" 
			},
			{
				"x": -2.618629583,
				"y": 3.4559851747,
				"z": -5.3818744465,
				"element": "H" 
			},
			{
				"x": -2.9631017674,
				"y": 1.5804255494,
				"z": -3.7186202248,
				"element": "H" 
			},
			{
				"x": -1.3649542837,
				"y": 2.2951320286,
				"z": -3.607778665,
				"element": "H" 
			},
			{
				"x": -2.1280573328,
				"y": 3.6746647719,
				"z": -1.6536463252,
				"element": "H" 
			},
			{
				"x": -4.5722116305,
				"y": 3.7420555918,
				"z": -2.060291574,
				"element": "H" 
			},
			{
				"x": -4.6819956031,
				"y": 1.9906176636,
				"z": -1.8198770033,
				"element": "H" 
			},
			{
				"x": -4.22519866,
				"y": 3.0457000252,
				"z": -0.4704323276,
				"element": "H" 
			},
			{
				"x": 0.6350185213,
				"y": 2.8905877519,
				"z": -0.1225355767,
				"element": "H" 
			},
			{
				"x": 1.0582354588,
				"y": 2.0158728857,
				"z": -1.5535861122,
				"element": "H" 
			},
			{
				"x": -0.1841829005,
				"y": 3.2901360072,
				"z": -1.6569309061,
				"element": "H" 
			},
			{
				"x": -2.7058863116,
				"y": 0.8501521995,
				"z": -0.8773304542,
				"element": "H" 
			},
			{
				"x": -3.2208219561,
				"y": -2.6810546034,
				"z": 0.9282472308,
				"element": "H" 
			},
			{
				"x": -2.6934569092,
				"y": -4.7721163629,
				"z": 2.2123938332,
				"element": "H" 
			},
			{
				"x": -0.3616952806,
				"y": -5.1290701695,
				"z": 3.0243278013,
				"element": "H" 
			},
			{
				"x": 1.3884483799,
				"y": -3.4633704852,
				"z": 2.575518036,
				"element": "H" 
			},
			{
				"x": 3.0321204925,
				"y": -2.3740429011,
				"z": -0.0859160055,
				"element": "H" 
			},
			{
				"x": 5.3554447364,
				"y": -2.7449217225,
				"z": 0.7330034608,
				"element": "H" 
			},
			{
				"x": 6.0216844688,
				"y": -1.9222439662,
				"z": 2.9820268694,
				"element": "H" 
			},
			{
				"x": 4.367701032,
				"y": -0.7294900419,
				"z": 4.4034926071,
				"element": "H" 
			},
			{
				"x": 2.0483281334,
				"y": -0.3666262954,
				"z": 3.5702887862,
				"element": "H" 
			}
		],
		 "valence_orbital": [ 
			{
				"type": "occ",
				"energy": -0.24626,
				"method": "rhf"
			},
			{
				"type": "occ",
				"energy": -0.24598,
				"method": "rhf"
			},
			{
				"type": "occ",
				"energy": -0.23204,
				"method": "rhf"
			},
			{
				"type": "occ",
				"energy": -0.21481,
				"method": "rhf"
			},
			{
				"type": "occ",
				"energy": -0.20831,
				"method": "rhf"
			},
			{
				"type": "unocc",
				"energy": -0.04857,
				"method": "rhf"
			},
			{
				"type": "unocc",
				"energy": -0.00756,
				"method": "rhf"
			},
			{
				"type": "unocc",
				"energy": -0.00473,
				"method": "rhf"
			},
			{
				"type": "unocc",
				"energy": -0.00051,
				"method": "rhf"
			},
			{
				"type": "unocc",
				"energy": 0.01707,
				"method": "rhf"
			}
		],
		"cosmo_sigma_profile": { 
			"-0.025": 0.0,
			"-0.024": 0.0,
			"-0.023": 0.0,
			"-0.022": 0.0,
			"-0.021": 0.0,
			"-0.02": 0.0,
			"-0.019": 0.0,
			"-0.018": 0.0,
			"-0.017": 0.0,
			"-0.016": 0.0,
			"-0.015": 0.0,
			"-0.014": 0.0,
			"-0.013": 0.0,
			"-0.012": 0.0,
			"-0.011": 0.0,
			"-0.01": 0.0,
			"-0.009": 0.0,
			"-0.008": 0.0,
			"-0.007": 2.34775512375,
			"-0.006": 16.6396442184,
			"-0.005": 22.6713963366,
			"-0.004": 37.2102409069,
			"-0.003": 42.1015121429,
			"-0.002": 37.9166996978,
			"-0.001": 42.5468195722,
			"0.0": 40.4860406139,
			"0.001": 32.2681762921,
			"0.002": 23.8720954823,
			"0.003": 20.0655024981,
			"0.004": 19.0643430756,
			"0.005": 14.0567059581,
			"0.006": 5.26562035806,
			"0.007": 4.02392394406,
			"0.008": 3.64699456962,
			"0.009": 3.02769493439,
			"0.01": 2.34911086164,
			"0.011": 4.2416176774,
			"0.012": 3.74026677361,
			"0.013": 4.19490958557,
			"0.014": 2.8270727126,
			"0.015": 0.790348861426,
			"0.016": 0.0,
			"0.017": 0.0,
			"0.018": 0.0,
			"0.019": 0.0,
			"0.02": 0.0,
			"0.021": 0.0,
			"0.022": 0.0,
			"0.023": 0.0,
			"0.024": 0.0,
			"0.025": 0.0
		}
	}
}
