{
	 "smiles": "CN(CC(O)=O)C1CC1", 
	 "Tm": 375.15, 
	 "num_atms": 20, 
	 "gaussian": { 
		 "optdone": 1, 
		 "sigma_profile": "yes", 
		 "theory": "DFT", 
		 "functional": "B3LYP", 
		 "basiset": "6-31G**", 
		 "properties": { 
			 "R2extent": 1593.574, 
			 "electric_dipole_moment_norm": 5.32480037278, 
			 "electric_quadrupole_moment_norm": 11.4536920004, 
			 "total_energy": -440.437456927, 
			 "HOMO_LUMO_gap": 0.26609, 
			 "cosmo_polarized_energy": -11.48, 
			 "cosmo_cavitation_energy": 22.82, 
			 "cosmo_dispersion_energy": -16.19, 
			 "cosmo_repulsion_energy": 1.34, 
			 "cosmo_total_nonelectrostatic_energy": 7.97, 
			 "SMD_solvation_energy": 5.24 
		},
		"coords": [
			{
				"x": -1.331112946,
				"y": 0.2227650524,
				"z": 1.7708633974,
				"element": "C" 
			},
			{
				"x": -0.8170346783,
				"y": -0.2760956795,
				"z": 0.4887035604,
				"element": "N" 
			},
			{
				"x": -0.2329221326,
				"y": 0.7982156913,
				"z": -0.3226422016,
				"element": "C" 
			},
			{
				"x": -1.3141176189,
				"y": 1.553011693,
				"z": -1.111283734,
				"element": "C" 
			},
			{
				"x": -2.4601355298,
				"y": 0.8590353292,
				"z": -1.2374002974,
				"element": "O" 
			},
			{
				"x": -1.1401283201,
				"y": 2.6418202658,
				"z": -1.6012614059,
				"element": "O" 
			},
			{
				"x": 0.0618577006,
				"y": -1.4123078656,
				"z": 0.6616452237,
				"element": "C" 
			},
			{
				"x": 0.1634424181,
				"y": -2.4120110063,
				"z": -0.4588932544,
				"element": "C" 
			},
			{
				"x": -0.5637154676,
				"y": -2.7725051597,
				"z": 0.8164284444,
				"element": "C" 
			},
			{
				"x": -0.5322810555,
				"y": 0.6230474746,
				"z": 2.4164214031,
				"element": "H" 
			},
			{
				"x": -2.0590250726,
				"y": 1.0194329152,
				"z": 1.5918016624,
				"element": "H" 
			},
			{
				"x": -1.8322690337,
				"y": -0.5899988253,
				"z": 2.3020290536,
				"element": "H" 
			},
			{
				"x": 0.4443879832,
				"y": 0.3532439815,
				"z": -1.0592317196,
				"element": "H" 
			},
			{
				"x": 0.3480045617,
				"y": 1.5292827705,
				"z": 0.2568223589,
				"element": "H" 
			},
			{
				"x": -2.3099908399,
				"y": 0.0322103123,
				"z": -0.7244854744,
				"element": "H" 
			},
			{
				"x": 0.9722647059,
				"y": -1.2224847079,
				"z": 1.2386726213,
				"element": "H" 
			},
			{
				"x": 1.1293607286,
				"y": -2.866110628,
				"z": -0.6559534403,
				"element": "H" 
			},
			{
				"x": -0.4417590768,
				"y": -2.2323953573,
				"z": -1.3421733243,
				"element": "H" 
			},
			{
				"x": -1.6470432164,
				"y": -2.8253709748,
				"z": 0.770497233,
				"element": "H" 
			},
			{
				"x": -0.1018831099,
				"y": -3.4773852815,
				"z": 1.5004398936,
				"element": "H" 
			}
		],
		 "valence_orbital": [ 
			{
				"type": "occ",
				"energy": -0.32224,
				"method": "rhf"
			},
			{
				"type": "occ",
				"energy": -0.3096,
				"method": "rhf"
			},
			{
				"type": "occ",
				"energy": -0.30182,
				"method": "rhf"
			},
			{
				"type": "occ",
				"energy": -0.26762,
				"method": "rhf"
			},
			{
				"type": "occ",
				"energy": -0.2467,
				"method": "rhf"
			},
			{
				"type": "unocc",
				"energy": 0.01939,
				"method": "rhf"
			},
			{
				"type": "unocc",
				"energy": 0.07479,
				"method": "rhf"
			},
			{
				"type": "unocc",
				"energy": 0.08392,
				"method": "rhf"
			},
			{
				"type": "unocc",
				"energy": 0.09956,
				"method": "rhf"
			},
			{
				"type": "unocc",
				"energy": 0.10771,
				"method": "rhf"
			}
		],
		"cosmo_sigma_profile": { 
			"-0.025": 0.0,
			"-0.024": 0.0,
			"-0.023": 0.0,
			"-0.022": 0.0,
			"-0.021": 0.0,
			"-0.02": 0.0,
			"-0.019": 0.0,
			"-0.018": 0.0,
			"-0.017": 0.0,
			"-0.016": 0.0,
			"-0.015": 0.0,
			"-0.014": 0.0,
			"-0.013": 0.0,
			"-0.012": 0.0,
			"-0.011": 0.0667547504748,
			"-0.01": 0.520404612526,
			"-0.009": 0.758287655294,
			"-0.008": 1.01368270287,
			"-0.007": 2.62566132334,
			"-0.006": 5.00485394113,
			"-0.005": 15.8369178044,
			"-0.004": 25.4056172248,
			"-0.003": 22.8341601138,
			"-0.002": 19.2690946018,
			"-0.001": 18.2599625606,
			"0.0": 12.0188218821,
			"0.001": 8.16172188808,
			"0.002": 5.58114509344,
			"0.003": 4.14255469346,
			"0.004": 2.44372936351,
			"0.005": 4.14520516839,
			"0.006": 2.4101939171,
			"0.007": 2.34577625987,
			"0.008": 2.04819167648,
			"0.009": 3.41850673323,
			"0.01": 4.47037216314,
			"0.011": 5.41719896801,
			"0.012": 5.77312217911,
			"0.013": 3.89232255247,
			"0.014": 0.615584757628,
			"0.015": 0.0,
			"0.016": 0.0,
			"0.017": 0.0,
			"0.018": 0.0,
			"0.019": 0.0,
			"0.02": 0.0,
			"0.021": 0.0,
			"0.022": 0.0,
			"0.023": 0.0,
			"0.024": 0.0,
			"0.025": 0.0
		}
	}
}
