{
	 "smiles": "CC1CC(N)C(=O)N1C1=CC=CC=C1", 
	 "Tm": 351.15, 
	 "num_atms": 28, 
	 "gaussian": { 
		 "optdone": 1, 
		 "sigma_profile": "yes", 
		 "theory": "DFT", 
		 "functional": "B3LYP", 
		 "basiset": "6-31G**", 
		 "properties": { 
			 "R2extent": 3095.8302, 
			 "electric_dipole_moment_norm": 2.99003444963, 
			 "electric_quadrupole_moment_norm": 7.02713311031, 
			 "total_energy": -612.355164931, 
			 "HOMO_LUMO_gap": 0.20963, 
			 "cosmo_polarized_energy": -12.91, 
			 "cosmo_cavitation_energy": 30.24, 
			 "cosmo_dispersion_energy": -21.64, 
			 "cosmo_repulsion_energy": 1.71, 
			 "cosmo_total_nonelectrostatic_energy": 10.31, 
			 "SMD_solvation_energy": 3.93 
		},
		"coords": [
			{
				"x": 1.0318607676,
				"y": -0.5621403291,
				"z": -1.9143650835,
				"element": "C" 
			},
			{
				"x": -0.4168424878,
				"y": -0.192832599,
				"z": -1.5945975873,
				"element": "C" 
			},
			{
				"x": -0.9745140476,
				"y": 0.8926468902,
				"z": -2.5391476668,
				"element": "C" 
			},
			{
				"x": -1.9912523954,
				"y": 1.6595275555,
				"z": -1.6951929701,
				"element": "C" 
			},
			{
				"x": -2.2360126022,
				"y": 3.025596265,
				"z": -2.1311617101,
				"element": "N" 
			},
			{
				"x": -1.4363511127,
				"y": 1.5084563926,
				"z": -0.2698479061,
				"element": "C" 
			},
			{
				"x": -1.7281586348,
				"y": 2.228784199,
				"z": 0.6716924126,
				"element": "O" 
			},
			{
				"x": -0.5814772667,
				"y": 0.4184932624,
				"z": -0.2543387326,
				"element": "N" 
			},
			{
				"x": -0.0944631431,
				"y": -0.1842163389,
				"z": 0.9372402288,
				"element": "C" 
			},
			{
				"x": -0.0018144931,
				"y": -1.5812240275,
				"z": 1.0345710032,
				"element": "C" 
			},
			{
				"x": 0.4772221194,
				"y": -2.1748982202,
				"z": 2.2020509252,
				"element": "C" 
			},
			{
				"x": 0.8573571525,
				"y": -1.3884803008,
				"z": 3.2898195993,
				"element": "C" 
			},
			{
				"x": 0.7537962056,
				"y": 0.0007142977,
				"z": 3.1968718379,
				"element": "C" 
			},
			{
				"x": 0.2881212731,
				"y": 0.6072430115,
				"z": 2.0314521441,
				"element": "C" 
			},
			{
				"x": 1.0934991805,
				"y": -0.9312832258,
				"z": -2.9434131,
				"element": "H" 
			},
			{
				"x": 1.6765043533,
				"y": 0.3180748875,
				"z": -1.8253299279,
				"element": "H" 
			},
			{
				"x": 1.4212547486,
				"y": -1.3379065308,
				"z": -1.2517771693,
				"element": "H" 
			},
			{
				"x": -1.0454172335,
				"y": -1.0935231754,
				"z": -1.6635744696,
				"element": "H" 
			},
			{
				"x": -1.3942378878,
				"y": 0.4682680721,
				"z": -3.453763025,
				"element": "H" 
			},
			{
				"x": -0.1619421319,
				"y": 1.5714689766,
				"z": -2.8289769471,
				"element": "H" 
			},
			{
				"x": -2.9553161086,
				"y": 1.1292038453,
				"z": -1.7025997464,
				"element": "H" 
			},
			{
				"x": -2.8342289043,
				"y": 3.473161903,
				"z": -1.4380019337,
				"element": "H" 
			},
			{
				"x": -1.3593179161,
				"y": 3.544734438,
				"z": -2.0998696584,
				"element": "H" 
			},
			{
				"x": -0.3151666269,
				"y": -2.2076501392,
				"z": 0.2061243451,
				"element": "H" 
			},
			{
				"x": 0.5442012577,
				"y": -3.257611005,
				"z": 2.2598842021,
				"element": "H" 
			},
			{
				"x": 1.2277631031,
				"y": -1.8522712045,
				"z": 4.1990685105,
				"element": "H" 
			},
			{
				"x": 1.0438171584,
				"y": 0.6246871925,
				"z": 4.0374814731,
				"element": "H" 
			},
			{
				"x": 0.1985156727,
				"y": 1.6829759072,
				"z": 1.9665009521,
				"element": "H" 
			}
		],
		 "valence_orbital": [ 
			{
				"type": "occ",
				"energy": -0.28537,
				"method": "rhf"
			},
			{
				"type": "occ",
				"energy": -0.26827,
				"method": "rhf"
			},
			{
				"type": "occ",
				"energy": -0.24983,
				"method": "rhf"
			},
			{
				"type": "occ",
				"energy": -0.23155,
				"method": "rhf"
			},
			{
				"type": "occ",
				"energy": -0.21971,
				"method": "rhf"
			},
			{
				"type": "unocc",
				"energy": -0.01008,
				"method": "rhf"
			},
			{
				"type": "unocc",
				"energy": -0.00056,
				"method": "rhf"
			},
			{
				"type": "unocc",
				"energy": 0.0339,
				"method": "rhf"
			},
			{
				"type": "unocc",
				"energy": 0.07976,
				"method": "rhf"
			},
			{
				"type": "unocc",
				"energy": 0.09363,
				"method": "rhf"
			}
		],
		"cosmo_sigma_profile": { 
			"-0.025": 0.0,
			"-0.024": 0.0,
			"-0.023": 0.0,
			"-0.022": 0.0,
			"-0.021": 0.0,
			"-0.02": 0.0,
			"-0.019": 0.0,
			"-0.018": 0.0,
			"-0.017": 0.0,
			"-0.016": 0.0,
			"-0.015": 0.0,
			"-0.014": 0.0,
			"-0.013": 0.0,
			"-0.012": 0.0,
			"-0.011": 0.0508425706145,
			"-0.01": 1.05147830406,
			"-0.009": 2.9741234523,
			"-0.008": 3.29901479008,
			"-0.007": 2.20955360858,
			"-0.006": 10.7015405448,
			"-0.005": 20.5012179809,
			"-0.004": 30.317332345,
			"-0.003": 26.446201777,
			"-0.002": 17.9056029183,
			"-0.001": 17.3473702341,
			"0.0": 16.4004705132,
			"0.001": 12.6835356006,
			"0.002": 11.1751814636,
			"0.003": 9.57848124358,
			"0.004": 10.0435164692,
			"0.005": 11.5712614003,
			"0.006": 8.65167146207,
			"0.007": 2.45596341237,
			"0.008": 1.93739947647,
			"0.009": 2.58635250046,
			"0.01": 2.2738974698,
			"0.011": 2.34541425998,
			"0.012": 3.61621620255,
			"0.013": 5.09198747465,
			"0.014": 1.40562483817,
			"0.015": 0.463724392556,
			"0.016": 0.845561925635,
			"0.017": 0.674847299321,
			"0.018": 0.613200845448,
			"0.019": 0.378670528828,
			"0.02": 0.0344318195025,
			"0.021": 0.0,
			"0.022": 0.0,
			"0.023": 0.0,
			"0.024": 0.0,
			"0.025": 0.0
		}
	}
}
