{
	 "smiles": "COC1=CC=C2C=CC=CC2=C1C#N", 
	 "Tm": 369.15, 
	 "num_atms": 23, 
	 "gaussian": { 
		 "optdone": 1, 
		 "sigma_profile": "yes", 
		 "theory": "DFT", 
		 "functional": "B3LYP", 
		 "basiset": "6-31G**", 
		 "properties": { 
			 "R2extent": 2841.9187, 
			 "electric_dipole_moment_norm": 5.54903831398, 
			 "electric_quadrupole_moment_norm": 18.4318251435, 
			 "total_energy": -592.659072567, 
			 "HOMO_LUMO_gap": 0.15538, 
			 "cosmo_polarized_energy": -12.73, 
			 "cosmo_cavitation_energy": 27.77, 
			 "cosmo_dispersion_energy": -20.01, 
			 "cosmo_repulsion_energy": 1.54, 
			 "cosmo_total_nonelectrostatic_energy": 9.31, 
			 "SMD_solvation_energy": 6.46 
		},
		"coords": [
			{
				"x": 2.3133285768,
				"y": -2.1362211486,
				"z": -2.5081111531,
				"element": "C" 
			},
			{
				"x": 1.5666760555,
				"y": -0.9414205036,
				"z": -2.3112905447,
				"element": "O" 
			},
			{
				"x": 1.1053877956,
				"y": -0.6426602727,
				"z": -1.0740985197,
				"element": "C" 
			},
			{
				"x": 1.3199444614,
				"y": -1.4578192016,
				"z": 0.0650964414,
				"element": "C" 
			},
			{
				"x": 0.815180031,
				"y": -1.0793251144,
				"z": 1.2884035666,
				"element": "C" 
			},
			{
				"x": 0.0746263743,
				"y": 0.1180908627,
				"z": 1.4549728562,
				"element": "C" 
			},
			{
				"x": -0.4471947958,
				"y": 0.5107004784,
				"z": 2.7165460556,
				"element": "C" 
			},
			{
				"x": -1.1625492213,
				"y": 1.6782294448,
				"z": 2.8500295068,
				"element": "C" 
			},
			{
				"x": -1.3846149636,
				"y": 2.5025036597,
				"z": 1.7201183462,
				"element": "C" 
			},
			{
				"x": -0.8928981592,
				"y": 2.1519237103,
				"z": 0.482125329,
				"element": "C" 
			},
			{
				"x": -0.1509704101,
				"y": 0.9526891649,
				"z": 0.3140888009,
				"element": "C" 
			},
			{
				"x": 0.380007586,
				"y": 0.546610034,
				"z": -0.9528064381,
				"element": "C" 
			},
			{
				"x": 0.1703661327,
				"y": 1.3598272292,
				"z": -2.1085464037,
				"element": "C" 
			},
			{
				"x": -0.0219260463,
				"y": 2.049622291,
				"z": -3.0265885283,
				"element": "N" 
			},
			{
				"x": 2.5676151904,
				"y": -2.1514438422,
				"z": -3.5681547489,
				"element": "H" 
			},
			{
				"x": 1.7207550812,
				"y": -3.0264411567,
				"z": -2.2653634818,
				"element": "H" 
			},
			{
				"x": 3.2355360026,
				"y": -2.1375211672,
				"z": -1.9147427896,
				"element": "H" 
			},
			{
				"x": 1.8810044919,
				"y": -2.3797181023,
				"z": -0.0236485428,
				"element": "H" 
			},
			{
				"x": 0.985647998,
				"y": -1.7120404805,
				"z": 2.1555785121,
				"element": "H" 
			},
			{
				"x": -0.2695188124,
				"y": -0.1311014861,
				"z": 3.5756443485,
				"element": "H" 
			},
			{
				"x": -1.5579217315,
				"y": 1.9709531846,
				"z": 3.8179134721,
				"element": "H" 
			},
			{
				"x": -1.9500871931,
				"y": 3.4230381744,
				"z": 1.8316100539,
				"element": "H" 
			},
			{
				"x": -1.0665944443,
				"y": 2.7881242419,
				"z": -0.3798761386,
				"element": "H" 
			}
		],
		 "valence_orbital": [ 
			{
				"type": "occ",
				"energy": -0.31762,
				"method": "rhf"
			},
			{
				"type": "occ",
				"energy": -0.31727,
				"method": "rhf"
			},
			{
				"type": "occ",
				"energy": -0.28172,
				"method": "rhf"
			},
			{
				"type": "occ",
				"energy": -0.24783,
				"method": "rhf"
			},
			{
				"type": "occ",
				"energy": -0.21874,
				"method": "rhf"
			},
			{
				"type": "unocc",
				"energy": -0.06336,
				"method": "rhf"
			},
			{
				"type": "unocc",
				"energy": -0.0154,
				"method": "rhf"
			},
			{
				"type": "unocc",
				"energy": 0.00185,
				"method": "rhf"
			},
			{
				"type": "unocc",
				"energy": 0.04357,
				"method": "rhf"
			},
			{
				"type": "unocc",
				"energy": 0.07362,
				"method": "rhf"
			}
		],
		"cosmo_sigma_profile": { 
			"-0.025": 0.0,
			"-0.024": 0.0,
			"-0.023": 0.0,
			"-0.022": 0.0,
			"-0.021": 0.0,
			"-0.02": 0.0,
			"-0.019": 0.0,
			"-0.018": 0.0,
			"-0.017": 0.0,
			"-0.016": 0.0,
			"-0.015": 0.0,
			"-0.014": 0.0,
			"-0.013": 0.0,
			"-0.012": 0.0,
			"-0.011": 0.0,
			"-0.01": 0.0,
			"-0.009": 0.0,
			"-0.008": 1.89719830041,
			"-0.007": 10.4329430684,
			"-0.006": 19.8108372096,
			"-0.005": 18.4248013271,
			"-0.004": 19.0702979637,
			"-0.003": 13.5669841394,
			"-0.002": 9.32569880993,
			"-0.001": 13.5503252978,
			"0.0": 17.8952962506,
			"0.001": 17.5171171226,
			"0.002": 19.5060807214,
			"0.003": 15.6237829529,
			"0.004": 13.3046607225,
			"0.005": 5.23677876769,
			"0.006": 3.35892776205,
			"0.007": 4.35624863373,
			"0.008": 5.60874007331,
			"0.009": 3.90611710776,
			"0.01": 3.13031464515,
			"0.011": 3.36194736827,
			"0.012": 2.43796562431,
			"0.013": 2.25626325926,
			"0.014": 0.431300396196,
			"0.015": 0.0,
			"0.016": 0.0,
			"0.017": 0.0,
			"0.018": 0.0,
			"0.019": 0.0,
			"0.02": 0.0,
			"0.021": 0.0,
			"0.022": 0.0,
			"0.023": 0.0,
			"0.024": 0.0,
			"0.025": 0.0
		}
	}
}
