{
	 "smiles": "CC1=C(C=CC=C1)N1C(=O)C2=C(C=C(C=C2)C(O)=O)C1=O", 
	 "Tm": 508.15, 
	 "num_atms": 32, 
	 "gaussian": { 
		 "optdone": 1, 
		 "sigma_profile": "yes", 
		 "theory": "DFT", 
		 "functional": "B3LYP", 
		 "basiset": "6-31G**", 
		 "properties": { 
			 "R2extent": 7907.3034, 
			 "electric_dipole_moment_norm": 3.76353585077, 
			 "electric_quadrupole_moment_norm": 29.9536538174, 
			 "total_energy": -972.019233019, 
			 "HOMO_LUMO_gap": 0.14487, 
			 "cosmo_polarized_energy": -22.21, 
			 "cosmo_cavitation_energy": 37.75, 
			 "cosmo_dispersion_energy": -26.48, 
			 "cosmo_repulsion_energy": 1.99, 
			 "cosmo_total_nonelectrostatic_energy": 13.25, 
			 "SMD_solvation_energy": 8.98 
		},
		"coords": [
			{
				"x": 2.308665346,
				"y": -0.4620843141,
				"z": -3.4048888332,
				"element": "C" 
			},
			{
				"x": 1.5213375712,
				"y": 0.8166119693,
				"z": -3.2658275846,
				"element": "C" 
			},
			{
				"x": 0.6545081214,
				"y": 1.0508552312,
				"z": -2.1833398773,
				"element": "C" 
			},
			{
				"x": -0.0841069703,
				"y": 2.2330105879,
				"z": -2.0848990376,
				"element": "C" 
			},
			{
				"x": 0.0353110372,
				"y": 3.2156056156,
				"z": -3.0641221157,
				"element": "C" 
			},
			{
				"x": 0.9025944917,
				"y": 3.0124220583,
				"z": -4.1376314076,
				"element": "C" 
			},
			{
				"x": 1.6310712861,
				"y": 1.8274273783,
				"z": -4.2299095552,
				"element": "C" 
			},
			{
				"x": 0.4918039108,
				"y": 0.0638845693,
				"z": -1.1565762266,
				"element": "N" 
			},
			{
				"x": -0.743872957,
				"y": -0.556591538,
				"z": -0.8552492652,
				"element": "C" 
			},
			{
				"x": -1.7950780482,
				"y": -0.3729975815,
				"z": -1.4290644119,
				"element": "O" 
			},
			{
				"x": -0.4665357712,
				"y": -1.4605376138,
				"z": 0.301279653,
				"element": "C" 
			},
			{
				"x": 0.8782722049,
				"y": -1.3346310159,
				"z": 0.6511475767,
				"element": "C" 
			},
			{
				"x": 1.4244432205,
				"y": -2.0465821806,
				"z": 1.7050226184,
				"element": "C" 
			},
			{
				"x": 0.5800935567,
				"y": -2.9295601158,
				"z": 2.4019051726,
				"element": "C" 
			},
			{
				"x": -0.7769256015,
				"y": -3.0440607561,
				"z": 2.0503401675,
				"element": "C" 
			},
			{
				"x": -1.3206766744,
				"y": -2.3057394936,
				"z": 0.9928767974,
				"element": "C" 
			},
			{
				"x": 1.1822664139,
				"y": -3.6918803173,
				"z": 3.5504096376,
				"element": "C" 
			},
			{
				"x": 0.5538392229,
				"y": -4.8358973939,
				"z": 3.9254875428,
				"element": "O" 
			},
			{
				"x": 2.175277752,
				"y": -3.3238669803,
				"z": 4.1294425557,
				"element": "O" 
			},
			{
				"x": 1.514965877,
				"y": -0.3442452796,
				"z": -0.2693333176,
				"element": "C" 
			},
			{
				"x": 2.6624336729,
				"y": 0.0455283291,
				"z": -0.2785480857,
				"element": "O" 
			},
			{
				"x": 3.1452719022,
				"y": -0.4857371338,
				"z": -2.6992192202,
				"element": "H" 
			},
			{
				"x": 1.6870139186,
				"y": -1.3409000219,
				"z": -3.2027752085,
				"element": "H" 
			},
			{
				"x": 2.7098824198,
				"y": -0.5589402124,
				"z": -4.4167260227,
				"element": "H" 
			},
			{
				"x": -0.7500735563,
				"y": 2.3726741373,
				"z": -1.2401006607,
				"element": "H" 
			},
			{
				"x": -0.541238218,
				"y": 4.1319398947,
				"z": -2.9850359836,
				"element": "H" 
			},
			{
				"x": 1.0084627708,
				"y": 3.7724280646,
				"z": -4.906223013,
				"element": "H" 
			},
			{
				"x": 2.2978522158,
				"y": 1.6710734061,
				"z": -5.0736160205,
				"element": "H" 
			},
			{
				"x": 2.4630399955,
				"y": -1.9420952267,
				"z": 1.9984966954,
				"element": "H" 
			},
			{
				"x": -1.4362015169,
				"y": -3.6857141992,
				"z": 2.6293470654,
				"element": "H" 
			},
			{
				"x": -2.3693819247,
				"y": -2.3820769045,
				"z": 0.7256230181,
				"element": "H" 
			},
			{
				"x": -0.1096156695,
				"y": -5.0911229628,
				"z": 3.2697073467,
				"element": "H" 
			}
		],
		 "valence_orbital": [ 
			{
				"type": "occ",
				"energy": -0.29553,
				"method": "rhf"
			},
			{
				"type": "occ",
				"energy": -0.28508,
				"method": "rhf"
			},
			{
				"type": "occ",
				"energy": -0.27893,
				"method": "rhf"
			},
			{
				"type": "occ",
				"energy": -0.2533,
				"method": "rhf"
			},
			{
				"type": "occ",
				"energy": -0.24753,
				"method": "rhf"
			},
			{
				"type": "unocc",
				"energy": -0.10266,
				"method": "rhf"
			},
			{
				"type": "unocc",
				"energy": -0.06661,
				"method": "rhf"
			},
			{
				"type": "unocc",
				"energy": -0.02396,
				"method": "rhf"
			},
			{
				"type": "unocc",
				"energy": -0.01366,
				"method": "rhf"
			},
			{
				"type": "unocc",
				"energy": -0.00634,
				"method": "rhf"
			}
		],
		"cosmo_sigma_profile": { 
			"-0.025": 0.0,
			"-0.024": 0.0,
			"-0.023": 0.0,
			"-0.022": 0.0,
			"-0.021": 0.0,
			"-0.02": 0.0146201315062,
			"-0.019": 0.966464534985,
			"-0.018": 1.14697246232,
			"-0.017": 1.26408243896,
			"-0.016": 0.754600067799,
			"-0.015": 1.06739329204,
			"-0.014": 1.12772220107,
			"-0.013": 0.584052644681,
			"-0.012": 1.82869588883,
			"-0.011": 1.55004487838,
			"-0.01": 1.49318782083,
			"-0.009": 2.55229977642,
			"-0.008": 5.18745505162,
			"-0.007": 7.60116939187,
			"-0.006": 16.1929773576,
			"-0.005": 22.0109677068,
			"-0.004": 21.8068651657,
			"-0.003": 20.5752011236,
			"-0.002": 23.4136702295,
			"-0.001": 28.7764476038,
			"0.0": 24.0803115552,
			"0.001": 12.8010346574,
			"0.002": 10.976901386,
			"0.003": 11.9747611867,
			"0.004": 14.3541425771,
			"0.005": 12.7710297595,
			"0.006": 5.87801745963,
			"0.007": 6.43897115865,
			"0.008": 7.37997745799,
			"0.009": 8.18311306523,
			"0.01": 12.4360834296,
			"0.011": 12.9601415092,
			"0.012": 2.99144128004,
			"0.013": 0.377893913593,
			"0.014": 0.0,
			"0.015": 0.0,
			"0.016": 0.0,
			"0.017": 0.0,
			"0.018": 0.0,
			"0.019": 0.0,
			"0.02": 0.0,
			"0.021": 0.0,
			"0.022": 0.0,
			"0.023": 0.0,
			"0.024": 0.0,
			"0.025": 0.0
		}
	}
}
