{
	 "smiles": "OC(=O)CS(=O)(=O)C1=CC(Br)=CC=C1", 
	 "Tm": 413.15, 
	 "num_atms": 21, 
	 "gaussian": { 
		 "optdone": 1, 
		 "sigma_profile": "yes", 
		 "theory": "DFT", 
		 "functional": "B3LYP", 
		 "basiset": "6-31G**", 
		 "properties": { 
			 "R2extent": 5591.1004, 
			 "electric_dipole_moment_norm": 5.71254539238, 
			 "electric_quadrupole_moment_norm": 20.5632139626, 
			 "total_energy": -3579.49115821, 
			 "HOMO_LUMO_gap": 0.20847, 
			 "cosmo_polarized_energy": -22.74, 
			 "cosmo_cavitation_energy": 30.38, 
			 "cosmo_dispersion_energy": -22.39, 
			 "cosmo_repulsion_energy": 1.74, 
			 "cosmo_total_nonelectrostatic_energy": 9.72, 
			 "SMD_solvation_energy": 4.63 
		},
		"coords": [
			{
				"x": -4.2801638604,
				"y": -1.794010592,
				"z": 0.257010686,
				"element": "O" 
			},
			{
				"x": -3.0165910048,
				"y": -2.1483866386,
				"z": -0.0722103066,
				"element": "C" 
			},
			{
				"x": -2.710266484,
				"y": -3.2344543463,
				"z": -0.4934432872,
				"element": "O" 
			},
			{
				"x": -2.0859198855,
				"y": -0.9729893372,
				"z": 0.1762473218,
				"element": "C" 
			},
			{
				"x": -0.3442720634,
				"y": -1.3473528497,
				"z": -0.2435416208,
				"element": "S" 
			},
			{
				"x": 0.149710637,
				"y": -2.349788373,
				"z": 0.7071067439,
				"element": "O" 
			},
			{
				"x": -0.2529229086,
				"y": -1.5215074046,
				"z": -1.6972972046,
				"element": "O" 
			},
			{
				"x": 0.4468906446,
				"y": 0.2241053165,
				"z": 0.1685536765,
				"element": "C" 
			},
			{
				"x": 0.5493458707,
				"y": 1.20256949,
				"z": -0.8216250051,
				"element": "C" 
			},
			{
				"x": 1.1604704092,
				"y": 2.4097292825,
				"z": -0.4894408614,
				"element": "C" 
			},
			{
				"x": 1.3185034533,
				"y": 3.7736524914,
				"z": -1.8138260561,
				"element": "Br" 
			},
			{
				"x": 1.6646879576,
				"y": 2.636294777,
				"z": 0.7924318873,
				"element": "C" 
			},
			{
				"x": 1.561384957,
				"y": 1.6346420391,
				"z": 1.7594750063,
				"element": "C" 
			},
			{
				"x": 0.9517236641,
				"y": 0.417090281,
				"z": 1.4550320028,
				"element": "C" 
			},
			{
				"x": -4.837098575,
				"y": -2.5721362828,
				"z": 0.0820411341,
				"element": "H" 
			},
			{
				"x": -2.400242645,
				"y": -0.1159545999,
				"z": -0.4256896097,
				"element": "H" 
			},
			{
				"x": -2.1234899345,
				"y": -0.6853092327,
				"z": 1.2305026661,
				"element": "H" 
			},
			{
				"x": 0.1818495444,
				"y": 1.0117158033,
				"z": -1.8230606098,
				"element": "H" 
			},
			{
				"x": 2.1390758603,
				"y": 3.5824724378,
				"z": 1.0266416915,
				"element": "H" 
			},
			{
				"x": 1.9663029503,
				"y": 1.8059695011,
				"z": 2.7520479151,
				"element": "H" 
			},
			{
				"x": 0.8848214128,
				"y": -0.3809517627,
				"z": 2.1863438298,
				"element": "H" 
			}
		],
		 "valence_orbital": [ 
			{
				"type": "occ",
				"energy": -0.30632,
				"method": "rhf"
			},
			{
				"type": "occ",
				"energy": -0.30212,
				"method": "rhf"
			},
			{
				"type": "occ",
				"energy": -0.29267,
				"method": "rhf"
			},
			{
				"type": "occ",
				"energy": -0.28944,
				"method": "rhf"
			},
			{
				"type": "occ",
				"energy": -0.2655,
				"method": "rhf"
			},
			{
				"type": "unocc",
				"energy": -0.05703,
				"method": "rhf"
			},
			{
				"type": "unocc",
				"energy": -0.04052,
				"method": "rhf"
			},
			{
				"type": "unocc",
				"energy": -0.0123,
				"method": "rhf"
			},
			{
				"type": "unocc",
				"energy": -0.01162,
				"method": "rhf"
			},
			{
				"type": "unocc",
				"energy": 0.0468,
				"method": "rhf"
			}
		],
		"cosmo_sigma_profile": { 
			"-0.025": 0.0,
			"-0.024": 0.0,
			"-0.023": 0.0,
			"-0.022": 0.0,
			"-0.021": 0.0,
			"-0.02": 0.0,
			"-0.019": 0.75348313067,
			"-0.018": 1.01097440952,
			"-0.017": 0.782841423227,
			"-0.016": 0.816694569395,
			"-0.015": 1.43046763922,
			"-0.014": 0.246035355968,
			"-0.013": 0.127284097967,
			"-0.012": 1.03562752999,
			"-0.011": 3.57784784655,
			"-0.01": 5.45427883235,
			"-0.009": 5.39247936227,
			"-0.008": 10.1893570138,
			"-0.007": 12.4504996079,
			"-0.006": 12.4217629412,
			"-0.005": 10.5678939078,
			"-0.004": 10.8295418424,
			"-0.003": 9.61723009501,
			"-0.002": 11.2002147205,
			"-0.001": 12.8700802966,
			"0.0": 20.0283857183,
			"0.001": 21.1423494332,
			"0.002": 12.9473135561,
			"0.003": 12.2251650526,
			"0.004": 13.5193452994,
			"0.005": 3.97306953722,
			"0.006": 4.96271527799,
			"0.007": 4.60149706393,
			"0.008": 5.65298541505,
			"0.009": 7.44753144146,
			"0.01": 14.8231634878,
			"0.011": 12.0995039116,
			"0.012": 2.36426468695,
			"0.013": 0.0,
			"0.014": 0.0,
			"0.015": 0.0,
			"0.016": 0.0,
			"0.017": 0.0,
			"0.018": 0.0,
			"0.019": 0.0,
			"0.02": 0.0,
			"0.021": 0.0,
			"0.022": 0.0,
			"0.023": 0.0,
			"0.024": 0.0,
			"0.025": 0.0
		}
	}
}
