{
	 "smiles": "COC(=O)CC1=NC(=O)CS1", 
	 "Tm": 458.15, 
	 "num_atms": 18, 
	 "gaussian": { 
		 "optdone": 1, 
		 "sigma_profile": "yes", 
		 "theory": "DFT", 
		 "functional": "B3LYP", 
		 "basiset": "6-31G**", 
		 "properties": { 
			 "R2extent": 3573.5396, 
			 "electric_dipole_moment_norm": 2.52338219261, 
			 "electric_quadrupole_moment_norm": 19.5370427593, 
			 "total_energy": -911.465806986, 
			 "HOMO_LUMO_gap": 0.19317, 
			 "cosmo_polarized_energy": -15.24, 
			 "cosmo_cavitation_energy": 24.91, 
			 "cosmo_dispersion_energy": -18.19, 
			 "cosmo_repulsion_energy": 1.46, 
			 "cosmo_total_nonelectrostatic_energy": 8.18, 
			 "SMD_solvation_energy": 4.6 
		},
		"coords": [
			{
				"x": 0.4852066846,
				"y": 0.8549950153,
				"z": 3.1409206684,
				"element": "C" 
			},
			{
				"x": 0.7643410687,
				"y": 0.352641645,
				"z": 1.8200433956,
				"element": "O" 
			},
			{
				"x": 0.3987168357,
				"y": -0.9210376485,
				"z": 1.5975702819,
				"element": "C" 
			},
			{
				"x": -0.1353156353,
				"y": -1.6362219828,
				"z": 2.4130127609,
				"element": "O" 
			},
			{
				"x": 0.6931237108,
				"y": -1.3447907364,
				"z": 0.1578509851,
				"element": "C" 
			},
			{
				"x": 1.9333188062,
				"y": -0.7398016524,
				"z": -0.4339907033,
				"element": "C" 
			},
			{
				"x": 1.8972152429,
				"y": 0.1661172084,
				"z": -1.3436582358,
				"element": "N" 
			},
			{
				"x": 3.1894362573,
				"y": 0.5820724528,
				"z": -1.7412474059,
				"element": "C" 
			},
			{
				"x": 3.4096908895,
				"y": 1.4206265244,
				"z": -2.5807798931,
				"element": "O" 
			},
			{
				"x": 4.325474134,
				"y": -0.1516682003,
				"z": -0.9838706749,
				"element": "C" 
			},
			{
				"x": 3.5189196934,
				"y": -1.3240198041,
				"z": 0.1479990537,
				"element": "S" 
			},
			{
				"x": 0.8498949527,
				"y": 1.881370389,
				"z": 3.1452111041,
				"element": "H" 
			},
			{
				"x": -0.5885773097,
				"y": 0.8261674166,
				"z": 3.3397253348,
				"element": "H" 
			},
			{
				"x": 1.0035417148,
				"y": 0.2565941951,
				"z": 3.893604069,
				"element": "H" 
			},
			{
				"x": 0.7478465476,
				"y": -2.4361739793,
				"z": 0.1525420689,
				"element": "H" 
			},
			{
				"x": -0.1551269419,
				"y": -1.0360256333,
				"z": -0.4612814469,
				"element": "H" 
			},
			{
				"x": 4.9274371881,
				"y": 0.573629148,
				"z": -0.4319294607,
				"element": "H" 
			},
			{
				"x": 4.9677561605,
				"y": -0.6735743575,
				"z": -1.6963219018,
				"element": "H" 
			}
		],
		 "valence_orbital": [ 
			{
				"type": "occ",
				"energy": -0.31885,
				"method": "rhf"
			},
			{
				"type": "occ",
				"energy": -0.29851,
				"method": "rhf"
			},
			{
				"type": "occ",
				"energy": -0.28979,
				"method": "rhf"
			},
			{
				"type": "occ",
				"energy": -0.26841,
				"method": "rhf"
			},
			{
				"type": "occ",
				"energy": -0.26302,
				"method": "rhf"
			},
			{
				"type": "unocc",
				"energy": -0.06985,
				"method": "rhf"
			},
			{
				"type": "unocc",
				"energy": -0.01547,
				"method": "rhf"
			},
			{
				"type": "unocc",
				"energy": 0.00396,
				"method": "rhf"
			},
			{
				"type": "unocc",
				"energy": 0.03308,
				"method": "rhf"
			},
			{
				"type": "unocc",
				"energy": 0.06095,
				"method": "rhf"
			}
		],
		"cosmo_sigma_profile": { 
			"-0.025": 0.0,
			"-0.024": 0.0,
			"-0.023": 0.0,
			"-0.022": 0.0,
			"-0.021": 0.0,
			"-0.02": 0.0,
			"-0.019": 0.0,
			"-0.018": 0.0,
			"-0.017": 0.0,
			"-0.016": 0.0,
			"-0.015": 0.0,
			"-0.014": 0.0,
			"-0.013": 0.0,
			"-0.012": 0.0,
			"-0.011": 0.0,
			"-0.01": 0.387846442891,
			"-0.009": 6.96817152709,
			"-0.008": 10.6684547924,
			"-0.007": 10.8697658928,
			"-0.006": 15.9174254279,
			"-0.005": 17.6805094271,
			"-0.004": 16.517577185,
			"-0.003": 14.1068354685,
			"-0.002": 9.33199476769,
			"-0.001": 7.74672315097,
			"0.0": 7.06988795031,
			"0.001": 8.24838186752,
			"0.002": 7.71351589006,
			"0.003": 7.81041689911,
			"0.004": 8.93842447741,
			"0.005": 5.71266068552,
			"0.006": 4.79899139025,
			"0.007": 3.91996297904,
			"0.008": 4.45519365484,
			"0.009": 5.65080438141,
			"0.01": 6.0692744079,
			"0.011": 12.1414913684,
			"0.012": 5.96979428863,
			"0.013": 1.54652808585,
			"0.014": 0.32550949031,
			"0.015": 0.0,
			"0.016": 0.0,
			"0.017": 0.0,
			"0.018": 0.0,
			"0.019": 0.0,
			"0.02": 0.0,
			"0.021": 0.0,
			"0.022": 0.0,
			"0.023": 0.0,
			"0.024": 0.0,
			"0.025": 0.0
		}
	}
}
