{
	 "smiles": "CC1=C(C=C(C(Cl)=C1)[N+]([O-])=O)S(Cl)(=O)=O", 
	 "Tm": 390.15, 
	 "num_atms": 20, 
	 "gaussian": { 
		 "optdone": 1, 
		 "sigma_profile": "yes", 
		 "theory": "DFT", 
		 "functional": "B3LYP", 
		 "basiset": "6-31G**", 
		 "properties": { 
			 "R2extent": 5296.0156, 
			 "electric_dipole_moment_norm": 4.84084576908, 
			 "electric_quadrupole_moment_norm": 13.2895931439, 
			 "total_energy": -1943.79429831, 
			 "HOMO_LUMO_gap": 0.18488, 
			 "cosmo_polarized_energy": -12.2, 
			 "cosmo_cavitation_energy": 30.15, 
			 "cosmo_dispersion_energy": -22.49, 
			 "cosmo_repulsion_energy": 1.71, 
			 "cosmo_total_nonelectrostatic_energy": 9.37, 
			 "SMD_solvation_energy": 5.98 
		},
		"coords": [
			{
				"x": -1.4132287034,
				"y": 2.2531707786,
				"z": -1.8022103133,
				"element": "C" 
			},
			{
				"x": -0.9294666263,
				"y": 1.1348385441,
				"z": -0.9158704677,
				"element": "C" 
			},
			{
				"x": -1.7596519341,
				"y": 0.388410254,
				"z": -0.0530009855,
				"element": "C" 
			},
			{
				"x": -1.2710160314,
				"y": -0.6435502981,
				"z": 0.7384629681,
				"element": "C" 
			},
			{
				"x": 0.0876089333,
				"y": -0.9473562144,
				"z": 0.7186771087,
				"element": "C" 
			},
			{
				"x": 0.9509071104,
				"y": -0.2352708159,
				"z": -0.1270311505,
				"element": "C" 
			},
			{
				"x": 2.6423806584,
				"y": -0.5798639559,
				"z": -0.2942836155,
				"element": "Cl" 
			},
			{
				"x": 0.4226565962,
				"y": 0.7808679446,
				"z": -0.9298166067,
				"element": "C" 
			},
			{
				"x": 0.5274316664,
				"y": -2.0273188974,
				"z": 1.6228266703,
				"element": "N" 
			},
			{
				"x": -0.3074780273,
				"y": -2.8886124847,
				"z": 1.8923460432,
				"element": "O" 
			},
			{
				"x": 1.6704461098,
				"y": -1.9796953302,
				"z": 2.0611436938,
				"element": "O" 
			},
			{
				"x": -3.5166944948,
				"y": 0.7262044801,
				"z": 0.120767843,
				"element": "S" 
			},
			{
				"x": -4.2757389819,
				"y": -0.0810234509,
				"z": -1.698823828,
				"element": "Cl" 
			},
			{
				"x": -4.0504212034,
				"y": -0.1030483832,
				"z": 1.1916860944,
				"element": "O" 
			},
			{
				"x": -3.7557029079,
				"y": 2.1623861497,
				"z": 0.06512219,
				"element": "O" 
			},
			{
				"x": -1.7925260567,
				"y": 3.0866568119,
				"z": -1.2054901674,
				"element": "H" 
			},
			{
				"x": -0.600277949,
				"y": 2.6112031177,
				"z": -2.4364213929,
				"element": "H" 
			},
			{
				"x": -2.235362229,
				"y": 1.9251965484,
				"z": -2.4451452632,
				"element": "H" 
			},
			{
				"x": -1.9298488848,
				"y": -1.2168292861,
				"z": 1.3787471436,
				"element": "H" 
			},
			{
				"x": 1.0989829555,
				"y": 1.3119344878,
				"z": -1.5902859643,
				"element": "H" 
			}
		],
		 "valence_orbital": [ 
			{
				"type": "occ",
				"energy": -0.3293,
				"method": "rhf"
			},
			{
				"type": "occ",
				"energy": -0.32757,
				"method": "rhf"
			},
			{
				"type": "occ",
				"energy": -0.317,
				"method": "rhf"
			},
			{
				"type": "occ",
				"energy": -0.30239,
				"method": "rhf"
			},
			{
				"type": "occ",
				"energy": -0.29889,
				"method": "rhf"
			},
			{
				"type": "unocc",
				"energy": -0.11401,
				"method": "rhf"
			},
			{
				"type": "unocc",
				"energy": -0.10522,
				"method": "rhf"
			},
			{
				"type": "unocc",
				"energy": -0.06982,
				"method": "rhf"
			},
			{
				"type": "unocc",
				"energy": -0.04206,
				"method": "rhf"
			},
			{
				"type": "unocc",
				"energy": -0.00982,
				"method": "rhf"
			}
		],
		"cosmo_sigma_profile": { 
			"-0.025": 0.0,
			"-0.024": 0.0,
			"-0.023": 0.0,
			"-0.022": 0.0,
			"-0.021": 0.0,
			"-0.02": 0.0,
			"-0.019": 0.0,
			"-0.018": 0.0,
			"-0.017": 0.0,
			"-0.016": 0.0,
			"-0.015": 0.0,
			"-0.014": 0.0,
			"-0.013": 0.0,
			"-0.012": 0.0,
			"-0.011": 0.0,
			"-0.01": 0.921616809696,
			"-0.009": 4.06091099841,
			"-0.008": 5.00872636656,
			"-0.007": 6.46394679683,
			"-0.006": 8.91912177309,
			"-0.005": 12.9866058938,
			"-0.004": 22.9477305003,
			"-0.003": 28.1823674146,
			"-0.002": 21.9998374732,
			"-0.001": 13.9503550865,
			"0.0": 12.8048428843,
			"0.001": 14.5225193611,
			"0.002": 20.531006259,
			"0.003": 16.3655817286,
			"0.004": 7.22428437127,
			"0.005": 6.73287899446,
			"0.006": 11.0950908688,
			"0.007": 16.9764401761,
			"0.008": 12.0146399227,
			"0.009": 3.52531441009,
			"0.01": 0.0863411977423,
			"0.011": 0.0,
			"0.012": 0.0,
			"0.013": 0.0,
			"0.014": 0.0,
			"0.015": 0.0,
			"0.016": 0.0,
			"0.017": 0.0,
			"0.018": 0.0,
			"0.019": 0.0,
			"0.02": 0.0,
			"0.021": 0.0,
			"0.022": 0.0,
			"0.023": 0.0,
			"0.024": 0.0,
			"0.025": 0.0
		}
	}
}
