{
	 "smiles": "ClC1=C2C=CC=CC2=CC2=CC=CC=C12", 
	 "Tm": 376.65, 
	 "num_atms": 24, 
	 "gaussian": { 
		 "optdone": 1, 
		 "sigma_profile": "yes", 
		 "theory": "DFT", 
		 "functional": "B3LYP", 
		 "basiset": "6-31G**", 
		 "properties": { 
			 "R2extent": 3944.1025, 
			 "electric_dipole_moment_norm": 1.71689231462, 
			 "electric_quadrupole_moment_norm": 12.8328175215, 
			 "total_energy": -999.12258325, 
			 "HOMO_LUMO_gap": 0.12801, 
			 "cosmo_polarized_energy": -5.41, 
			 "cosmo_cavitation_energy": 28.82, 
			 "cosmo_dispersion_energy": -21.85, 
			 "cosmo_repulsion_energy": 1.64, 
			 "cosmo_total_nonelectrostatic_energy": 8.6, 
			 "SMD_solvation_energy": 4.08 
		},
		"coords": [
			{
				"x": 3.4108484272,
				"y": 0.2357931065,
				"z": -0.8606700801,
				"element": "Cl" 
			},
			{
				"x": 1.7218624815,
				"y": -0.2625898798,
				"z": -0.7287074481,
				"element": "C" 
			},
			{
				"x": 1.4408327714,
				"y": -1.5926410847,
				"z": -0.3627142397,
				"element": "C" 
			},
			{
				"x": 2.4430639224,
				"y": -2.5755940585,
				"z": -0.0883060793,
				"element": "C" 
			},
			{
				"x": 2.0996434447,
				"y": -3.8546702292,
				"z": 0.263561983,
				"element": "C" 
			},
			{
				"x": 0.7331359126,
				"y": -4.242457072,
				"z": 0.3662302725,
				"element": "C" 
			},
			{
				"x": -0.2568417604,
				"y": -3.332500744,
				"z": 0.11192642,
				"element": "C" 
			},
			{
				"x": 0.0520792151,
				"y": -1.9861558823,
				"z": -0.2586306812,
				"element": "C" 
			},
			{
				"x": -0.9547993521,
				"y": -1.0523961699,
				"z": -0.5195606179,
				"element": "C" 
			},
			{
				"x": -0.6609469305,
				"y": 0.2651833859,
				"z": -0.8821133137,
				"element": "C" 
			},
			{
				"x": -1.6969993322,
				"y": 1.2146942901,
				"z": -1.1474502977,
				"element": "C" 
			},
			{
				"x": -1.4033656286,
				"y": 2.5034476681,
				"z": -1.5019250078,
				"element": "C" 
			},
			{
				"x": -0.0457739515,
				"y": 2.9194415918,
				"z": -1.6121491233,
				"element": "C" 
			},
			{
				"x": 0.979911916,
				"y": 2.0443132848,
				"z": -1.3674067678,
				"element": "C" 
			},
			{
				"x": 0.7183949743,
				"y": 0.688437921,
				"z": -0.9943171641,
				"element": "C" 
			},
			{
				"x": 3.485926642,
				"y": -2.2925299659,
				"z": -0.1631154715,
				"element": "H" 
			},
			{
				"x": 2.8783126664,
				"y": -4.5838348993,
				"z": 0.4672594065,
				"element": "H" 
			},
			{
				"x": 0.482935442,
				"y": -5.2612922483,
				"z": 0.6466223385,
				"element": "H" 
			},
			{
				"x": -1.3034937222,
				"y": -3.6155360348,
				"z": 0.1866937024,
				"element": "H" 
			},
			{
				"x": -1.9947128683,
				"y": -1.3592381559,
				"z": -0.4382661523,
				"element": "H" 
			},
			{
				"x": -2.7287182879,
				"y": 0.8844702296,
				"z": -1.059770466,
				"element": "H" 
			},
			{
				"x": -2.2010099697,
				"y": 3.2131311842,
				"z": -1.7003153676,
				"element": "H" 
			},
			{
				"x": 0.1774086813,
				"y": 3.9442424579,
				"z": -1.8940576757,
				"element": "H" 
			},
			{
				"x": 2.0085053064,
				"y": 2.3724813047,
				"z": -1.454518169,
				"element": "H" 
			}
		],
		 "valence_orbital": [ 
			{
				"type": "occ",
				"energy": -0.30656,
				"method": "rhf"
			},
			{
				"type": "occ",
				"energy": -0.28328,
				"method": "rhf"
			},
			{
				"type": "occ",
				"energy": -0.26084,
				"method": "rhf"
			},
			{
				"type": "occ",
				"energy": -0.24642,
				"method": "rhf"
			},
			{
				"type": "occ",
				"energy": -0.19824,
				"method": "rhf"
			},
			{
				"type": "unocc",
				"energy": -0.07023,
				"method": "rhf"
			},
			{
				"type": "unocc",
				"energy": -0.01997,
				"method": "rhf"
			},
			{
				"type": "unocc",
				"energy": 0.0013,
				"method": "rhf"
			},
			{
				"type": "unocc",
				"energy": 0.03593,
				"method": "rhf"
			},
			{
				"type": "unocc",
				"energy": 0.03872,
				"method": "rhf"
			}
		],
		"cosmo_sigma_profile": { 
			"-0.025": 0.0,
			"-0.024": 0.0,
			"-0.023": 0.0,
			"-0.022": 0.0,
			"-0.021": 0.0,
			"-0.02": 0.0,
			"-0.019": 0.0,
			"-0.018": 0.0,
			"-0.017": 0.0,
			"-0.016": 0.0,
			"-0.015": 0.0,
			"-0.014": 0.0,
			"-0.013": 0.0,
			"-0.012": 0.0,
			"-0.011": 0.0,
			"-0.01": 0.0,
			"-0.009": 0.0,
			"-0.008": 0.0,
			"-0.007": 3.57747329205,
			"-0.006": 16.2617244743,
			"-0.005": 16.0918142416,
			"-0.004": 18.5528633389,
			"-0.003": 12.2882545628,
			"-0.002": 12.9166280884,
			"-0.001": 14.6243513343,
			"0.0": 12.8588141439,
			"0.001": 20.4109944349,
			"0.002": 35.0370573656,
			"0.003": 35.514011471,
			"0.004": 25.9807651573,
			"0.005": 10.4538072519,
			"0.006": 0.030855685979,
			"0.007": 0.0,
			"0.008": 0.0,
			"0.009": 0.0,
			"0.01": 0.0,
			"0.011": 0.0,
			"0.012": 0.0,
			"0.013": 0.0,
			"0.014": 0.0,
			"0.015": 0.0,
			"0.016": 0.0,
			"0.017": 0.0,
			"0.018": 0.0,
			"0.019": 0.0,
			"0.02": 0.0,
			"0.021": 0.0,
			"0.022": 0.0,
			"0.023": 0.0,
			"0.024": 0.0,
			"0.025": 0.0
		}
	}
}
