{
	 "smiles": "NC1=C(C(=O)C2=CC=C(Cl)C=C2)C2=C(CCCC2)S1", 
	 "Tm": 413.15, 
	 "num_atms": 33, 
	 "gaussian": { 
		 "optdone": 1, 
		 "sigma_profile": "yes", 
		 "theory": "DFT", 
		 "functional": "B3LYP", 
		 "basiset": "6-31G**", 
		 "properties": { 
			 "R2extent": 8545.9659, 
			 "electric_dipole_moment_norm": 2.4944172566, 
			 "electric_quadrupole_moment_norm": 10.6333885681, 
			 "total_energy": -1568.3956909, 
			 "HOMO_LUMO_gap": 0.13576, 
			 "cosmo_polarized_energy": -12.31, 
			 "cosmo_cavitation_energy": 38.36, 
			 "cosmo_dispersion_energy": -28.48, 
			 "cosmo_repulsion_energy": 2.16, 
			 "cosmo_total_nonelectrostatic_energy": 12.04, 
			 "SMD_solvation_energy": 5.24 
		},
		"coords": [
			{
				"x": 2.5953479467,
				"y": -0.892257224,
				"z": 1.2518251872,
				"element": "N" 
			},
			{
				"x": 1.2490308932,
				"y": -0.5915079522,
				"z": 1.3322706057,
				"element": "C" 
			},
			{
				"x": 0.386184235,
				"y": -0.0418002883,
				"z": 0.3902612581,
				"element": "C" 
			},
			{
				"x": 0.7918570324,
				"y": 0.481736235,
				"z": -0.9322550849,
				"element": "C" 
			},
			{
				"x": 0.2641053652,
				"y": 1.4824380746,
				"z": -1.4175159382,
				"element": "O" 
			},
			{
				"x": 1.8549488713,
				"y": -0.2196291266,
				"z": -1.7379409314,
				"element": "C" 
			},
			{
				"x": 2.5898263361,
				"y": 0.5358267582,
				"z": -2.6656527525,
				"element": "C" 
			},
			{
				"x": 3.5325982676,
				"y": -0.0668246448,
				"z": -3.4919661968,
				"element": "C" 
			},
			{
				"x": 3.721267398,
				"y": -1.4487196458,
				"z": -3.4072355533,
				"element": "C" 
			},
			{
				"x": 4.902069496,
				"y": -2.2207846376,
				"z": -4.4522833035,
				"element": "Cl" 
			},
			{
				"x": 2.98760052,
				"y": -2.2273391871,
				"z": -2.5124209613,
				"element": "C" 
			},
			{
				"x": 2.0599304216,
				"y": -1.6061907072,
				"z": -1.6766450801,
				"element": "C" 
			},
			{
				"x": -0.9638657909,
				"y": 0.1142429835,
				"z": 0.920729546,
				"element": "C" 
			},
			{
				"x": -1.1043120165,
				"y": -0.3426479028,
				"z": 2.1947568439,
				"element": "C" 
			},
			{
				"x": -2.3684371552,
				"y": -0.3626704144,
				"z": 3.0087979461,
				"element": "C" 
			},
			{
				"x": -3.5847447506,
				"y": -0.1597043608,
				"z": 2.0868597642,
				"element": "C" 
			},
			{
				"x": -3.3318375484,
				"y": 0.9768427853,
				"z": 1.0875240897,
				"element": "C" 
			},
			{
				"x": -2.1451665046,
				"y": 0.6715769109,
				"z": 0.1578135016,
				"element": "C" 
			},
			{
				"x": 0.4203661896,
				"y": -0.954146612,
				"z": 2.8315578509,
				"element": "S" 
			},
			{
				"x": 3.1142287838,
				"y": -0.8287740987,
				"z": 2.1166590158,
				"element": "H" 
			},
			{
				"x": 3.0876022103,
				"y": -0.4958938159,
				"z": 0.4637990397,
				"element": "H" 
			},
			{
				"x": 2.3983191707,
				"y": 1.6017443909,
				"z": -2.7312590386,
				"element": "H" 
			},
			{
				"x": 4.1097653443,
				"y": 0.5175645158,
				"z": -4.1999594938,
				"element": "H" 
			},
			{
				"x": 3.1380817922,
				"y": -3.3004413722,
				"z": -2.4746809778,
				"element": "H" 
			},
			{
				"x": 1.4821139407,
				"y": -2.2056804164,
				"z": -0.9810360189,
				"element": "H" 
			},
			{
				"x": -2.342093432,
				"y": 0.4315254056,
				"z": 3.7696725743,
				"element": "H" 
			},
			{
				"x": -2.4638682529,
				"y": -1.3076916815,
				"z": 3.5581872219,
				"element": "H" 
			},
			{
				"x": -4.4744336393,
				"y": 0.0463729383,
				"z": 2.6924914037,
				"element": "H" 
			},
			{
				"x": -3.7806067215,
				"y": -1.0898240477,
				"z": 1.5376432256,
				"element": "H" 
			},
			{
				"x": -4.2290382115,
				"y": 1.1632254548,
				"z": 0.4868184023,
				"element": "H" 
			},
			{
				"x": -3.128164647,
				"y": 1.9023503042,
				"z": 1.6426875434,
				"element": "H" 
			},
			{
				"x": -2.4506864488,
				"y": -0.0547326618,
				"z": -0.6102055471,
				"element": "H" 
			},
			{
				"x": -1.8379890956,
				"y": 1.5669140409,
				"z": -0.386398142,
				"element": "H" 
			}
		],
		 "valence_orbital": [ 
			{
				"type": "occ",
				"energy": -0.27199,
				"method": "rhf"
			},
			{
				"type": "occ",
				"energy": -0.25634,
				"method": "rhf"
			},
			{
				"type": "occ",
				"energy": -0.24614,
				"method": "rhf"
			},
			{
				"type": "occ",
				"energy": -0.24082,
				"method": "rhf"
			},
			{
				"type": "occ",
				"energy": -0.19739,
				"method": "rhf"
			},
			{
				"type": "unocc",
				"energy": -0.06163,
				"method": "rhf"
			},
			{
				"type": "unocc",
				"energy": -0.02125,
				"method": "rhf"
			},
			{
				"type": "unocc",
				"energy": -0.00573,
				"method": "rhf"
			},
			{
				"type": "unocc",
				"energy": 0.01284,
				"method": "rhf"
			},
			{
				"type": "unocc",
				"energy": 0.0217,
				"method": "rhf"
			}
		],
		"cosmo_sigma_profile": { 
			"-0.025": 0.0,
			"-0.024": 0.0,
			"-0.023": 0.0,
			"-0.022": 0.0,
			"-0.021": 0.0,
			"-0.02": 0.0,
			"-0.019": 0.0,
			"-0.018": 0.0,
			"-0.017": 0.0,
			"-0.016": 0.0,
			"-0.015": 0.130185169665,
			"-0.014": 1.04989290808,
			"-0.013": 1.77161810669,
			"-0.012": 2.10871457258,
			"-0.011": 2.43436690854,
			"-0.01": 2.30163882061,
			"-0.009": 2.75397906195,
			"-0.008": 3.16070533336,
			"-0.007": 6.26462060373,
			"-0.006": 9.2750807826,
			"-0.005": 8.23284676358,
			"-0.004": 11.6730069744,
			"-0.003": 21.111423844,
			"-0.002": 31.6102602453,
			"-0.001": 35.8601968426,
			"0.0": 32.7117897028,
			"0.001": 30.3066572618,
			"0.002": 24.8073206356,
			"0.003": 22.8578952315,
			"0.004": 22.1564872195,
			"0.005": 12.9420616328,
			"0.006": 5.03661020009,
			"0.007": 2.83652612372,
			"0.008": 3.09085463279,
			"0.009": 2.28960544446,
			"0.01": 2.64556323451,
			"0.011": 2.14406735448,
			"0.012": 3.3653414596,
			"0.013": 1.78244800917,
			"0.014": 0.0583619704366,
			"0.015": 0.0,
			"0.016": 0.0,
			"0.017": 0.0,
			"0.018": 0.0,
			"0.019": 0.0,
			"0.02": 0.0,
			"0.021": 0.0,
			"0.022": 0.0,
			"0.023": 0.0,
			"0.024": 0.0,
			"0.025": 0.0
		}
	}
}
