{
	 "smiles": "CC1=NN(C(C)=C1C=O)C1=C(F)C=C(F)C=C1", 
	 "Tm": 403.15, 
	 "num_atms": 27, 
	 "gaussian": { 
		 "optdone": 1, 
		 "sigma_profile": "yes", 
		 "theory": "DFT", 
		 "functional": "B3LYP", 
		 "basiset": "6-31G**", 
		 "properties": { 
			 "R2extent": 5171.247, 
			 "electric_dipole_moment_norm": 2.66245494798, 
			 "electric_quadrupole_moment_norm": 18.6591343234, 
			 "total_energy": -847.68334777, 
			 "HOMO_LUMO_gap": 0.19557, 
			 "cosmo_polarized_energy": -10.42, 
			 "cosmo_cavitation_energy": 32.49, 
			 "cosmo_dispersion_energy": -22.76, 
			 "cosmo_repulsion_energy": 1.71, 
			 "cosmo_total_nonelectrostatic_energy": 11.45, 
			 "SMD_solvation_energy": 6.8 
		},
		"coords": [
			{
				"x": -0.8548674359,
				"y": -0.7597616952,
				"z": 3.6930450148,
				"element": "C" 
			},
			{
				"x": -0.8657308091,
				"y": -1.1122127764,
				"z": 2.2365334264,
				"element": "C" 
			},
			{
				"x": -0.2666860769,
				"y": -0.3240162554,
				"z": 1.359466831,
				"element": "N" 
			},
			{
				"x": -0.4540959708,
				"y": -0.9373397372,
				"z": 0.1398108193,
				"element": "N" 
			},
			{
				"x": -1.1761729963,
				"y": -2.0877440267,
				"z": 0.2326276932,
				"element": "C" 
			},
			{
				"x": -1.5854644625,
				"y": -2.9261400438,
				"z": -0.9321381594,
				"element": "C" 
			},
			{
				"x": -1.458562945,
				"y": -2.2443574887,
				"z": 1.5932570365,
				"element": "C" 
			},
			{
				"x": -2.2277916895,
				"y": -3.3075208136,
				"z": 2.2219505158,
				"element": "C" 
			},
			{
				"x": -2.7465121506,
				"y": -4.2539989692,
				"z": 1.6450209557,
				"element": "O" 
			},
			{
				"x": 0.0418524284,
				"y": -0.2861633748,
				"z": -1.0191721201,
				"element": "C" 
			},
			{
				"x": 0.8729019654,
				"y": -0.946038439,
				"z": -1.92998616,
				"element": "C" 
			},
			{
				"x": 1.2119804967,
				"y": -2.2293834381,
				"z": -1.7088753472,
				"element": "F" 
			},
			{
				"x": 1.3735050193,
				"y": -0.3135478214,
				"z": -3.0607719975,
				"element": "C" 
			},
			{
				"x": 1.0513763615,
				"y": 1.0250052576,
				"z": -3.2511979792,
				"element": "C" 
			},
			{
				"x": 1.5333484791,
				"y": 1.6542374307,
				"z": -4.3369867049,
				"element": "F" 
			},
			{
				"x": 0.2535051505,
				"y": 1.7310620101,
				"z": -2.3552460768,
				"element": "C" 
			},
			{
				"x": -0.2486887757,
				"y": 1.0646863653,
				"z": -1.2414478934,
				"element": "C" 
			},
			{
				"x": -0.3547596199,
				"y": -1.5313471662,
				"z": 4.2882540085,
				"element": "H" 
			},
			{
				"x": -0.32357543,
				"y": 0.1834784223,
				"z": 3.8352154601,
				"element": "H" 
			},
			{
				"x": -1.8707759788,
				"y": -0.6490871823,
				"z": 4.0873756893,
				"element": "H" 
			},
			{
				"x": -1.9251531581,
				"y": -2.3040217209,
				"z": -1.7669636242,
				"element": "H" 
			},
			{
				"x": -0.7504163486,
				"y": -3.5346702541,
				"z": -1.2919167707,
				"element": "H" 
			},
			{
				"x": -2.385264005,
				"y": -3.5950582056,
				"z": -0.6158360633,
				"element": "H" 
			},
			{
				"x": -2.3311660015,
				"y": -3.2058092604,
				"z": 3.3245576253,
				"element": "H" 
			},
			{
				"x": 2.0117014408,
				"y": -0.8457644346,
				"z": -3.7552526334,
				"element": "H" 
			},
			{
				"x": 0.0337881298,
				"y": 2.7762992783,
				"z": -2.5383626083,
				"element": "H" 
			},
			{
				"x": -0.8664756171,
				"y": 1.5819143393,
				"z": -0.5166609377,
				"element": "H" 
			}
		],
		 "valence_orbital": [ 
			{
				"type": "occ",
				"energy": -0.28659,
				"method": "rhf"
			},
			{
				"type": "occ",
				"energy": -0.27596,
				"method": "rhf"
			},
			{
				"type": "occ",
				"energy": -0.25186,
				"method": "rhf"
			},
			{
				"type": "occ",
				"energy": -0.24592,
				"method": "rhf"
			},
			{
				"type": "occ",
				"energy": -0.24312,
				"method": "rhf"
			},
			{
				"type": "unocc",
				"energy": -0.04755,
				"method": "rhf"
			},
			{
				"type": "unocc",
				"energy": -0.02967,
				"method": "rhf"
			},
			{
				"type": "unocc",
				"energy": -0.02116,
				"method": "rhf"
			},
			{
				"type": "unocc",
				"energy": 0.01741,
				"method": "rhf"
			},
			{
				"type": "unocc",
				"energy": 0.06263,
				"method": "rhf"
			}
		],
		"cosmo_sigma_profile": { 
			"-0.025": 0.0,
			"-0.024": 0.0,
			"-0.023": 0.0,
			"-0.022": 0.0,
			"-0.021": 0.0,
			"-0.02": 0.0,
			"-0.019": 0.0,
			"-0.018": 0.0,
			"-0.017": 0.0,
			"-0.016": 0.0,
			"-0.015": 0.0,
			"-0.014": 0.0,
			"-0.013": 0.0,
			"-0.012": 0.0,
			"-0.011": 0.0,
			"-0.01": 0.131132798476,
			"-0.009": 1.65299034811,
			"-0.008": 3.94369711501,
			"-0.007": 5.3276488968,
			"-0.006": 9.14089616968,
			"-0.005": 19.7755472631,
			"-0.004": 17.2013728628,
			"-0.003": 19.2612269848,
			"-0.002": 23.3071870457,
			"-0.001": 30.8493467124,
			"0.0": 29.6038387813,
			"0.001": 22.9240646472,
			"0.002": 18.0343199531,
			"0.003": 16.7197496356,
			"0.004": 11.1334056323,
			"0.005": 5.03972216157,
			"0.006": 3.08257802359,
			"0.007": 2.21120103341,
			"0.008": 2.73876635622,
			"0.009": 3.94755350563,
			"0.01": 2.7319254849,
			"0.011": 3.99503566532,
			"0.012": 4.18899157809,
			"0.013": 2.22237485851,
			"0.014": 1.27424715542,
			"0.015": 0.235260939177,
			"0.016": 0.0,
			"0.017": 0.0,
			"0.018": 0.0,
			"0.019": 0.0,
			"0.02": 0.0,
			"0.021": 0.0,
			"0.022": 0.0,
			"0.023": 0.0,
			"0.024": 0.0,
			"0.025": 0.0
		}
	}
}
