{
	 "smiles": "CC(C)(C)C1=CC(=C(O)C(=C1)C(O)=O)C(C)(C)C", 
	 "Tm": 433.15, 
	 "num_atms": 40, 
	 "gaussian": { 
		 "optdone": 1, 
		 "sigma_profile": "yes", 
		 "theory": "DFT", 
		 "functional": "B3LYP", 
		 "basiset": "6-31G**", 
		 "properties": { 
			 "R2extent": 6254.9252, 
			 "electric_dipole_moment_norm": 2.22375339235, 
			 "electric_quadrupole_moment_norm": 12.100809356, 
			 "total_energy": -810.577067527, 
			 "HOMO_LUMO_gap": 0.16491, 
			 "cosmo_polarized_energy": -8.47, 
			 "cosmo_cavitation_energy": 39.5, 
			 "cosmo_dispersion_energy": -27.2, 
			 "cosmo_repulsion_energy": 2.09, 
			 "cosmo_total_nonelectrostatic_energy": 14.4, 
			 "SMD_solvation_energy": 8.35 
		},
		"coords": [
			{
				"x": 1.9628306921,
				"y": -2.6472344095,
				"z": 0.7889317008,
				"element": "C" 
			},
			{
				"x": 0.7661113568,
				"y": -1.7251097199,
				"z": 1.1228945256,
				"element": "C" 
			},
			{
				"x": -0.541585953,
				"y": -2.3858497543,
				"z": 0.6255579314,
				"element": "C" 
			},
			{
				"x": 0.6805589711,
				"y": -1.5868844712,
				"z": 2.6547839797,
				"element": "C" 
			},
			{
				"x": 0.953810449,
				"y": -0.3669251414,
				"z": 0.4199605125,
				"element": "C" 
			},
			{
				"x": 1.0361418624,
				"y": 0.8524242442,
				"z": 1.1118618398,
				"element": "C" 
			},
			{
				"x": 1.2065139933,
				"y": 2.1114220129,
				"z": 0.5200901574,
				"element": "C" 
			},
			{
				"x": 1.3020308706,
				"y": 2.1443630012,
				"z": -0.8914933795,
				"element": "C" 
			},
			{
				"x": 1.4662270405,
				"y": 3.3109506755,
				"z": -1.5394123894,
				"element": "O" 
			},
			{
				"x": 1.2222429687,
				"y": 0.9239689786,
				"z": -1.6253775381,
				"element": "C" 
			},
			{
				"x": 1.0510288089,
				"y": -0.3015740358,
				"z": -0.9655844876,
				"element": "C" 
			},
			{
				"x": 1.3224241908,
				"y": 0.9717985929,
				"z": -3.0864401542,
				"element": "C" 
			},
			{
				"x": 1.2375180909,
				"y": -0.223913372,
				"z": -3.7048693403,
				"element": "O" 
			},
			{
				"x": 1.4734331225,
				"y": 2.000998515,
				"z": -3.7525086613,
				"element": "O" 
			},
			{
				"x": 1.2725031192,
				"y": 3.3381491927,
				"z": 1.468823125,
				"element": "C" 
			},
			{
				"x": -0.0467987978,
				"y": 3.4151596752,
				"z": 2.2778488992,
				"element": "C" 
			},
			{
				"x": 2.4615495378,
				"y": 3.1515659977,
				"z": 2.4447531257,
				"element": "C" 
			},
			{
				"x": 1.4622906259,
				"y": 4.7068100748,
				"z": 0.7799646932,
				"element": "C" 
			},
			{
				"x": 2.9040038957,
				"y": -2.2093163689,
				"z": 1.1374417262,
				"element": "H" 
			},
			{
				"x": 1.8417608576,
				"y": -3.6229597433,
				"z": 1.2732108927,
				"element": "H" 
			},
			{
				"x": 2.0542994487,
				"y": -2.8200670792,
				"z": -0.2876680883,
				"element": "H" 
			},
			{
				"x": -1.4093917679,
				"y": -1.7590491185,
				"z": 0.8559329409,
				"element": "H" 
			},
			{
				"x": -0.5274637873,
				"y": -2.5508035768,
				"z": -0.4560531508,
				"element": "H" 
			},
			{
				"x": -0.687029165,
				"y": -3.3589558485,
				"z": 1.1083816601,
				"element": "H" 
			},
			{
				"x": 1.592351076,
				"y": -1.1523264388,
				"z": 3.078114252,
				"element": "H" 
			},
			{
				"x": 0.5482252463,
				"y": -2.5754268125,
				"z": 3.1061656759,
				"element": "H" 
			},
			{
				"x": -0.1694562722,
				"y": -0.9689794595,
				"z": 2.9631522348,
				"element": "H" 
			},
			{
				"x": 0.9628211829,
				"y": 0.8261625654,
				"z": 2.1917784689,
				"element": "H" 
			},
			{
				"x": 1.5079936772,
				"y": 3.1066969397,
				"z": -2.5063685538,
				"element": "H" 
			},
			{
				"x": 0.9965174096,
				"y": -1.1992226429,
				"z": -1.5702440224,
				"element": "H" 
			},
			{
				"x": 1.3188837982,
				"y": -0.0370731465,
				"z": -4.6546822285,
				"element": "H" 
			},
			{
				"x": -0.2291510178,
				"y": 2.5129828001,
				"z": 2.8692474991,
				"element": "H" 
			},
			{
				"x": -0.0135798814,
				"y": 4.2635472071,
				"z": 2.9705972102,
				"element": "H" 
			},
			{
				"x": -0.9037408331,
				"y": 3.557167454,
				"z": 1.6112603044,
				"element": "H" 
			},
			{
				"x": 2.5143192131,
				"y": 3.9981846757,
				"z": 3.1384304548,
				"element": "H" 
			},
			{
				"x": 2.3740323884,
				"y": 2.2397359432,
				"z": 3.0429222188,
				"element": "H" 
			},
			{
				"x": 3.4091008502,
				"y": 3.1035626372,
				"z": 1.8982288985,
				"element": "H" 
			},
			{
				"x": 1.4926225839,
				"y": 5.4798188652,
				"z": 1.5564985771,
				"element": "H" 
			},
			{
				"x": 0.6444553248,
				"y": 4.9422592465,
				"z": 0.0970202626,
				"element": "H" 
			},
			{
				"x": 2.3927948224,
				"y": 4.7578418446,
				"z": 0.2122482266,
				"element": "H" 
			}
		],
		 "valence_orbital": [ 
			{
				"type": "occ",
				"energy": -0.31337,
				"method": "rhf"
			},
			{
				"type": "occ",
				"energy": -0.31059,
				"method": "rhf"
			},
			{
				"type": "occ",
				"energy": -0.28264,
				"method": "rhf"
			},
			{
				"type": "occ",
				"energy": -0.25201,
				"method": "rhf"
			},
			{
				"type": "occ",
				"energy": -0.21465,
				"method": "rhf"
			},
			{
				"type": "unocc",
				"energy": -0.04974,
				"method": "rhf"
			},
			{
				"type": "unocc",
				"energy": 0.00815,
				"method": "rhf"
			},
			{
				"type": "unocc",
				"energy": 0.0509,
				"method": "rhf"
			},
			{
				"type": "unocc",
				"energy": 0.07063,
				"method": "rhf"
			},
			{
				"type": "unocc",
				"energy": 0.07738,
				"method": "rhf"
			}
		],
		"cosmo_sigma_profile": { 
			"-0.025": 0.0,
			"-0.024": 0.0,
			"-0.023": 0.0,
			"-0.022": 0.0,
			"-0.021": 0.0,
			"-0.02": 0.0,
			"-0.019": 0.199787957991,
			"-0.018": 1.07833048448,
			"-0.017": 0.509865456434,
			"-0.016": 0.845278505158,
			"-0.015": 1.10202317402,
			"-0.014": 0.748335043049,
			"-0.013": 0.222179984464,
			"-0.012": 0.918517149832,
			"-0.011": 0.94255167288,
			"-0.01": 0.573856571603,
			"-0.009": 0.5324904631,
			"-0.008": 0.553523307942,
			"-0.007": 0.779737076056,
			"-0.006": 2.39942591286,
			"-0.005": 5.58636037715,
			"-0.004": 8.38956207339,
			"-0.003": 26.1255158763,
			"-0.002": 44.7652995515,
			"-0.001": 38.741312136,
			"0.0": 37.2778395243,
			"0.001": 48.8779918442,
			"0.002": 31.8276946378,
			"0.003": 14.8235800215,
			"0.004": 13.1414317559,
			"0.005": 6.10628476087,
			"0.006": 5.48375724224,
			"0.007": 5.25586710175,
			"0.008": 3.67673017621,
			"0.009": 1.65772395876,
			"0.01": 2.21781279134,
			"0.011": 1.68511592977,
			"0.012": 0.234281640149,
			"0.013": 0.0,
			"0.014": 0.0,
			"0.015": 0.0,
			"0.016": 0.0,
			"0.017": 0.0,
			"0.018": 0.0,
			"0.019": 0.0,
			"0.02": 0.0,
			"0.021": 0.0,
			"0.022": 0.0,
			"0.023": 0.0,
			"0.024": 0.0,
			"0.025": 0.0
		}
	}
}
