{
	 "smiles": "ClC1=CC=C(C(Cl)=C1)C1(CC1)C#N", 
	 "Tm": 356.15, 
	 "num_atms": 20, 
	 "gaussian": { 
		 "optdone": 1, 
		 "sigma_profile": "yes", 
		 "theory": "DFT", 
		 "functional": "B3LYP", 
		 "basiset": "6-31G**", 
		 "properties": { 
			 "R2extent": 4053.0468, 
			 "electric_dipole_moment_norm": 4.31380640966, 
			 "electric_quadrupole_moment_norm": 12.0600720649, 
			 "total_energy": -1360.3691125, 
			 "HOMO_LUMO_gap": 0.21923, 
			 "cosmo_polarized_energy": -10.98, 
			 "cosmo_cavitation_energy": 28.58, 
			 "cosmo_dispersion_energy": -19.93, 
			 "cosmo_repulsion_energy": 1.59, 
			 "cosmo_total_nonelectrostatic_energy": 10.24, 
			 "SMD_solvation_energy": 5.48 
		},
		"coords": [
			{
				"x": 4.057133235,
				"y": 3.1313648818,
				"z": -1.282781548,
				"element": "Cl" 
			},
			{
				"x": 2.8305520248,
				"y": 2.1005472848,
				"z": -0.5723366317,
				"element": "C" 
			},
			{
				"x": 1.9412115459,
				"y": 2.6277628659,
				"z": 0.3622207533,
				"element": "C" 
			},
			{
				"x": 0.9780409,
				"y": 1.7888287021,
				"z": 0.9171609711,
				"element": "C" 
			},
			{
				"x": 0.8800607633,
				"y": 0.4351394903,
				"z": 0.569928092,
				"element": "C" 
			},
			{
				"x": 1.7868682527,
				"y": -0.0527469367,
				"z": -0.3854281408,
				"element": "C" 
			},
			{
				"x": 1.7216562556,
				"y": -1.726551364,
				"z": -0.9043168303,
				"element": "Cl" 
			},
			{
				"x": 2.7633540674,
				"y": 0.7630742958,
				"z": -0.9567327033,
				"element": "C" 
			},
			{
				"x": -0.1861307911,
				"y": -0.4337869234,
				"z": 1.1874635902,
				"element": "C" 
			},
			{
				"x": -0.462841894,
				"y": -0.3405328975,
				"z": 2.6878503566,
				"element": "C" 
			},
			{
				"x": 0.2054537002,
				"y": -1.5612360262,
				"z": 2.1401840019,
				"element": "C" 
			},
			{
				"x": -1.3386366203,
				"y": -0.6713479002,
				"z": 0.3404551999,
				"element": "C" 
			},
			{
				"x": -2.2686140479,
				"y": -0.8512927128,
				"z": -0.3331648548,
				"element": "N" 
			},
			{
				"x": 1.999871769,
				"y": 3.6720864604,
				"z": 0.6459811898,
				"element": "H" 
			},
			{
				"x": 0.2756200672,
				"y": 2.1929535871,
				"z": 1.6393537224,
				"element": "H" 
			},
			{
				"x": 3.4537070349,
				"y": 0.3604220535,
				"z": -1.6874265164,
				"element": "H" 
			},
			{
				"x": -1.4977558314,
				"y": -0.4108797062,
				"z": 3.0045219948,
				"element": "H" 
			},
			{
				"x": 0.1400089896,
				"y": 0.3663191693,
				"z": 3.2484289168,
				"element": "H" 
			},
			{
				"x": -0.3602115592,
				"y": -2.4839675956,
				"z": 2.0728965188,
				"element": "H" 
			},
			{
				"x": 1.2690521383,
				"y": -1.6875567283,
				"z": 2.3120419176,
				"element": "H" 
			}
		],
		 "valence_orbital": [ 
			{
				"type": "occ",
				"energy": -0.32657,
				"method": "rhf"
			},
			{
				"type": "occ",
				"energy": -0.31494,
				"method": "rhf"
			},
			{
				"type": "occ",
				"energy": -0.29602,
				"method": "rhf"
			},
			{
				"type": "occ",
				"energy": -0.27405,
				"method": "rhf"
			},
			{
				"type": "occ",
				"energy": -0.26127,
				"method": "rhf"
			},
			{
				"type": "unocc",
				"energy": -0.04204,
				"method": "rhf"
			},
			{
				"type": "unocc",
				"energy": -0.03731,
				"method": "rhf"
			},
			{
				"type": "unocc",
				"energy": -0.00267,
				"method": "rhf"
			},
			{
				"type": "unocc",
				"energy": 0.0288,
				"method": "rhf"
			},
			{
				"type": "unocc",
				"energy": 0.03355,
				"method": "rhf"
			}
		],
		"cosmo_sigma_profile": { 
			"-0.025": 0.0,
			"-0.024": 0.0,
			"-0.023": 0.0,
			"-0.022": 0.0,
			"-0.021": 0.0,
			"-0.02": 0.0,
			"-0.019": 0.0,
			"-0.018": 0.0,
			"-0.017": 0.0,
			"-0.016": 0.0,
			"-0.015": 0.0,
			"-0.014": 0.0,
			"-0.013": 0.0,
			"-0.012": 0.0,
			"-0.011": 0.0,
			"-0.01": 0.0,
			"-0.009": 0.395792579687,
			"-0.008": 3.93327556728,
			"-0.007": 12.5959231846,
			"-0.006": 16.0983063636,
			"-0.005": 12.3081188083,
			"-0.004": 13.2133472787,
			"-0.003": 13.4574871735,
			"-0.002": 15.1132395432,
			"-0.001": 18.2566742938,
			"0.0": 22.3685037864,
			"0.001": 26.3338547328,
			"0.002": 20.1876733668,
			"0.003": 15.9308407207,
			"0.004": 17.7134533983,
			"0.005": 3.50174000207,
			"0.006": 2.81243749718,
			"0.007": 2.03283984798,
			"0.008": 3.18936704579,
			"0.009": 3.56950800272,
			"0.01": 3.29220234577,
			"0.011": 3.22733118876,
			"0.012": 2.42960686522,
			"0.013": 2.1059134443,
			"0.014": 0.286812214438,
			"0.015": 0.0,
			"0.016": 0.0,
			"0.017": 0.0,
			"0.018": 0.0,
			"0.019": 0.0,
			"0.02": 0.0,
			"0.021": 0.0,
			"0.022": 0.0,
			"0.023": 0.0,
			"0.024": 0.0,
			"0.025": 0.0
		}
	}
}
