{
	 "smiles": "OCC1CNC(=NO1)C1=CC=CC=C1", 
	 "Tm": 423.15, 
	 "num_atms": 26, 
	 "gaussian": { 
		 "optdone": 1, 
		 "sigma_profile": "yes", 
		 "theory": "DFT", 
		 "functional": "B3LYP", 
		 "basiset": "6-31G**", 
		 "properties": { 
			 "R2extent": 3554.9677, 
			 "electric_dipole_moment_norm": 2.65725037962, 
			 "electric_quadrupole_moment_norm": 13.4740113982, 
			 "total_energy": -648.175050935, 
			 "HOMO_LUMO_gap": 0.18335, 
			 "cosmo_polarized_energy": -14.77, 
			 "cosmo_cavitation_energy": 28.58, 
			 "cosmo_dispersion_energy": -21.16, 
			 "cosmo_repulsion_energy": 1.66, 
			 "cosmo_total_nonelectrostatic_energy": 9.08, 
			 "SMD_solvation_energy": 3.73 
		},
		"coords": [
			{
				"x": -1.6877052641,
				"y": 2.2242259101,
				"z": 2.2985933946,
				"element": "O" 
			},
			{
				"x": -3.0312569765,
				"y": 1.7742896863,
				"z": 2.3753543415,
				"element": "C" 
			},
			{
				"x": -3.3850477447,
				"y": 0.6128058041,
				"z": 1.4381810053,
				"element": "C" 
			},
			{
				"x": -2.4886614729,
				"y": -0.6242478804,
				"z": 1.5529619754,
				"element": "C" 
			},
			{
				"x": -1.2050939129,
				"y": -0.3949947649,
				"z": 0.9005469592,
				"element": "N" 
			},
			{
				"x": -1.1797244573,
				"y": 0.5049110865,
				"z": -0.1524149852,
				"element": "C" 
			},
			{
				"x": -2.1958815164,
				"y": 1.1652252132,
				"z": -0.6164995318,
				"element": "N" 
			},
			{
				"x": -3.4305061874,
				"y": 1.0339962765,
				"z": 0.0654303138,
				"element": "O" 
			},
			{
				"x": 0.1270047318,
				"y": 0.7153599517,
				"z": -0.82701915,
				"element": "C" 
			},
			{
				"x": 0.3657242238,
				"y": 1.8857665727,
				"z": -1.565804504,
				"element": "C" 
			},
			{
				"x": 1.5918126237,
				"y": 2.0826835041,
				"z": -2.1946333308,
				"element": "C" 
			},
			{
				"x": 2.601743608,
				"y": 1.1215547519,
				"z": -2.0896727507,
				"element": "C" 
			},
			{
				"x": 2.371530148,
				"y": -0.0446273749,
				"z": -1.359470501,
				"element": "C" 
			},
			{
				"x": 1.1408217644,
				"y": -0.2505445642,
				"z": -0.7349521627,
				"element": "C" 
			},
			{
				"x": -1.5670033474,
				"y": 2.6148797525,
				"z": 1.4222777318,
				"element": "H" 
			},
			{
				"x": -3.7401484823,
				"y": 2.5919185696,
				"z": 2.1767287951,
				"element": "H" 
			},
			{
				"x": -3.1851882779,
				"y": 1.448141575,
				"z": 3.4115844183,
				"element": "H" 
			},
			{
				"x": -4.4230146685,
				"y": 0.3298647799,
				"z": 1.6544784613,
				"element": "H" 
			},
			{
				"x": -2.9945603836,
				"y": -1.4672566523,
				"z": 1.0688640111,
				"element": "H" 
			},
			{
				"x": -2.3174784719,
				"y": -0.894703402,
				"z": 2.5983556958,
				"element": "H" 
			},
			{
				"x": -0.4191984432,
				"y": -0.2853708121,
				"z": 1.528435561,
				"element": "H" 
			},
			{
				"x": -0.4223118898,
				"y": 2.6269836232,
				"z": -1.6391518586,
				"element": "H" 
			},
			{
				"x": 1.7640817088,
				"y": 2.9923775834,
				"z": -2.7627289421,
				"element": "H" 
			},
			{
				"x": 3.5598256094,
				"y": 1.2811490741,
				"z": -2.5759307308,
				"element": "H" 
			},
			{
				"x": 3.1465060681,
				"y": -0.8018846126,
				"z": -1.2823239211,
				"element": "H" 
			},
			{
				"x": 0.9534310108,
				"y": -1.1735036513,
				"z": -0.1957902955,
				"element": "H" 
			}
		],
		 "valence_orbital": [ 
			{
				"type": "occ",
				"energy": -0.27384,
				"method": "rhf"
			},
			{
				"type": "occ",
				"energy": -0.26228,
				"method": "rhf"
			},
			{
				"type": "occ",
				"energy": -0.25346,
				"method": "rhf"
			},
			{
				"type": "occ",
				"energy": -0.24688,
				"method": "rhf"
			},
			{
				"type": "occ",
				"energy": -0.21273,
				"method": "rhf"
			},
			{
				"type": "unocc",
				"energy": -0.02938,
				"method": "rhf"
			},
			{
				"type": "unocc",
				"energy": -0.00436,
				"method": "rhf"
			},
			{
				"type": "unocc",
				"energy": 0.04984,
				"method": "rhf"
			},
			{
				"type": "unocc",
				"energy": 0.07056,
				"method": "rhf"
			},
			{
				"type": "unocc",
				"energy": 0.09065,
				"method": "rhf"
			}
		],
		"cosmo_sigma_profile": { 
			"-0.025": 0.0,
			"-0.024": 0.0,
			"-0.023": 0.0,
			"-0.022": 0.0,
			"-0.021": 0.0,
			"-0.02": 0.0,
			"-0.019": 0.0,
			"-0.018": 0.0,
			"-0.017": 0.0,
			"-0.016": 0.0,
			"-0.015": 0.0,
			"-0.014": 0.0167095024107,
			"-0.013": 0.998298849422,
			"-0.012": 1.42373390915,
			"-0.011": 1.58898222859,
			"-0.01": 1.54418823859,
			"-0.009": 2.55972710356,
			"-0.008": 2.11611082333,
			"-0.007": 4.55948016304,
			"-0.006": 17.3973530382,
			"-0.005": 22.8731919937,
			"-0.004": 22.683302165,
			"-0.003": 18.1357413909,
			"-0.002": 14.2377100633,
			"-0.001": 10.8683349921,
			"0.0": 9.02244090063,
			"0.001": 10.9288862817,
			"0.002": 11.798583622,
			"0.003": 11.6221529278,
			"0.004": 14.0633665333,
			"0.005": 13.8405221623,
			"0.006": 4.49224560361,
			"0.007": 3.61644574676,
			"0.008": 2.5556654253,
			"0.009": 2.55608054531,
			"0.01": 3.66233360435,
			"0.011": 3.02834977207,
			"0.012": 6.05751977092,
			"0.013": 3.95894133402,
			"0.014": 2.99993788746,
			"0.015": 0.661923020211,
			"0.016": 0.0,
			"0.017": 0.0,
			"0.018": 0.0,
			"0.019": 0.0,
			"0.02": 0.0,
			"0.021": 0.0,
			"0.022": 0.0,
			"0.023": 0.0,
			"0.024": 0.0,
			"0.025": 0.0
		}
	}
}
