{
	 "smiles": "CC(C)(C)OC(=O)N[C@H]1CCCNC1", 
	 "Tm": 398.15, 
	 "num_atms": 34, 
	 "gaussian": { 
		 "optdone": 1, 
		 "sigma_profile": "yes", 
		 "theory": "DFT", 
		 "functional": "B3LYP", 
		 "basiset": "6-31G**", 
		 "properties": { 
			 "R2extent": 5281.2691, 
			 "electric_dipole_moment_norm": 2.05068297647, 
			 "electric_quadrupole_moment_norm": 8.15915673094, 
			 "total_energy": -653.108395306, 
			 "HOMO_LUMO_gap": 0.27531, 
			 "cosmo_polarized_energy": -11.66, 
			 "cosmo_cavitation_energy": 33.98, 
			 "cosmo_dispersion_energy": -23.7, 
			 "cosmo_repulsion_energy": 1.89, 
			 "cosmo_total_nonelectrostatic_energy": 12.16, 
			 "SMD_solvation_energy": 3.48 
		},
		"coords": [
			{
				"x": -1.2410631923,
				"y": 2.07321882,
				"z": 2.7933617183,
				"element": "C" 
			},
			{
				"x": 0.0902944195,
				"y": 2.3562501075,
				"z": 2.0923706605,
				"element": "C" 
			},
			{
				"x": 0.9621465476,
				"y": 3.2898276246,
				"z": 2.9391025688,
				"element": "C" 
			},
			{
				"x": -0.1445290901,
				"y": 2.9040967231,
				"z": 0.6804986871,
				"element": "C" 
			},
			{
				"x": 0.7035528937,
				"y": 1.0212791082,
				"z": 2.0194919103,
				"element": "O" 
			},
			{
				"x": 1.9290300234,
				"y": 0.8502688232,
				"z": 1.4639295716,
				"element": "C" 
			},
			{
				"x": 2.6203136258,
				"y": 1.7227108001,
				"z": 0.9597511621,
				"element": "O" 
			},
			{
				"x": 2.3239088809,
				"y": -0.4571473064,
				"z": 1.5530043176,
				"element": "N" 
			},
			{
				"x": 1.519479109,
				"y": -1.5920480006,
				"z": 2.0095227511,
				"element": "C" 
			},
			{
				"x": 0.5384679234,
				"y": -2.0974244731,
				"z": 0.9285973355,
				"element": "C" 
			},
			{
				"x": 1.2800379914,
				"y": -2.7835429194,
				"z": -0.2289998121,
				"element": "C" 
			},
			{
				"x": 2.2102754977,
				"y": -3.8873105779,
				"z": 0.3037513941,
				"element": "C" 
			},
			{
				"x": 3.1345525733,
				"y": -3.4381229147,
				"z": 1.3508921609,
				"element": "N" 
			},
			{
				"x": 2.4537138901,
				"y": -2.7429676877,
				"z": 2.4440301888,
				"element": "C" 
			},
			{
				"x": -1.8438844693,
				"y": 1.3711970432,
				"z": 2.2097098028,
				"element": "H" 
			},
			{
				"x": -1.072166237,
				"y": 1.6417509447,
				"z": 3.7843848737,
				"element": "H" 
			},
			{
				"x": -1.8083339997,
				"y": 3.0012238863,
				"z": 2.9118309381,
				"element": "H" 
			},
			{
				"x": 1.1433717181,
				"y": 2.849472267,
				"z": 3.9248402029,
				"element": "H" 
			},
			{
				"x": 0.4457840959,
				"y": 4.2445218331,
				"z": 3.0834785536,
				"element": "H" 
			},
			{
				"x": 1.9198103356,
				"y": 3.4752619861,
				"z": 2.4525201905,
				"element": "H" 
			},
			{
				"x": -0.7387876728,
				"y": 2.1968979031,
				"z": 0.0927440437,
				"element": "H" 
			},
			{
				"x": 0.8022345486,
				"y": 3.0811880072,
				"z": 0.1701788653,
				"element": "H" 
			},
			{
				"x": -0.6992915297,
				"y": 3.8463147847,
				"z": 0.7389459048,
				"element": "H" 
			},
			{
				"x": 3.1863771125,
				"y": -0.6349764303,
				"z": 1.0599415119,
				"element": "H" 
			},
			{
				"x": 0.952960946,
				"y": -1.2495596007,
				"z": 2.8798602834,
				"element": "H" 
			},
			{
				"x": -0.0703556789,
				"y": -1.2606744621,
				"z": 0.5718463735,
				"element": "H" 
			},
			{
				"x": -0.149077166,
				"y": -2.8153515917,
				"z": 1.397647371,
				"element": "H" 
			},
			{
				"x": 0.5642621059,
				"y": -3.2045243347,
				"z": -0.9456066928,
				"element": "H" 
			},
			{
				"x": 1.8730711192,
				"y": -2.0403796791,
				"z": -0.7794662328,
				"element": "H" 
			},
			{
				"x": 2.7974359081,
				"y": -4.3314957815,
				"z": -0.507348555,
				"element": "H" 
			},
			{
				"x": 1.6004315865,
				"y": -4.6964597322,
				"z": 0.7315041454,
				"element": "H" 
			},
			{
				"x": 3.8643539768,
				"y": -2.8542833737,
				"z": 0.949121168,
				"element": "H" 
			},
			{
				"x": 3.2043697751,
				"y": -2.3699299222,
				"z": 3.148859411,
				"element": "H" 
			},
			{
				"x": 1.844852432,
				"y": -3.4836818737,
				"z": 2.9795032261,
				"element": "H" 
			}
		],
		 "valence_orbital": [ 
			{
				"type": "occ",
				"energy": -0.32349,
				"method": "rhf"
			},
			{
				"type": "occ",
				"energy": -0.28476,
				"method": "rhf"
			},
			{
				"type": "occ",
				"energy": -0.25701,
				"method": "rhf"
			},
			{
				"type": "occ",
				"energy": -0.248,
				"method": "rhf"
			},
			{
				"type": "occ",
				"energy": -0.21841,
				"method": "rhf"
			},
			{
				"type": "unocc",
				"energy": 0.0569,
				"method": "rhf"
			},
			{
				"type": "unocc",
				"energy": 0.05983,
				"method": "rhf"
			},
			{
				"type": "unocc",
				"energy": 0.08117,
				"method": "rhf"
			},
			{
				"type": "unocc",
				"energy": 0.09715,
				"method": "rhf"
			},
			{
				"type": "unocc",
				"energy": 0.10571,
				"method": "rhf"
			}
		],
		"cosmo_sigma_profile": { 
			"-0.025": 0.0,
			"-0.024": 0.0,
			"-0.023": 0.0,
			"-0.022": 0.0,
			"-0.021": 0.0,
			"-0.02": 0.0,
			"-0.019": 0.0,
			"-0.018": 0.0,
			"-0.017": 0.0,
			"-0.016": 0.0,
			"-0.015": 0.0,
			"-0.014": 0.681944611234,
			"-0.013": 1.97123562295,
			"-0.012": 0.728511704492,
			"-0.011": 1.64593491992,
			"-0.01": 1.77913019544,
			"-0.009": 1.85766281952,
			"-0.008": 1.94383164238,
			"-0.007": 1.5028390198,
			"-0.006": 1.0411310265,
			"-0.005": 2.15957984583,
			"-0.004": 16.1130327423,
			"-0.003": 36.4911252875,
			"-0.002": 33.2948673217,
			"-0.001": 34.9703374999,
			"0.0": 39.248973663,
			"0.001": 29.8871756249,
			"0.002": 9.49771537287,
			"0.003": 7.86014122057,
			"0.004": 5.99025888538,
			"0.005": 6.11714210045,
			"0.006": 4.18571553855,
			"0.007": 2.04829947016,
			"0.008": 2.87711964378,
			"0.009": 2.12346913042,
			"0.01": 1.66671319567,
			"0.011": 2.24459447767,
			"0.012": 2.41381052472,
			"0.013": 3.37451417149,
			"0.014": 3.51373661371,
			"0.015": 0.760999925724,
			"0.016": 0.853824258799,
			"0.017": 0.660640208679,
			"0.018": 0.352380505195,
			"0.019": 0.104209812805,
			"0.02": 0.0,
			"0.021": 0.0,
			"0.022": 0.0,
			"0.023": 0.0,
			"0.024": 0.0,
			"0.025": 0.0
		}
	}
}
