{
	 "smiles": "CCC1=CC=CC(CC)=C1N1C=CN=C1S", 
	 "Tm": 470.15, 
	 "num_atms": 32, 
	 "gaussian": { 
		 "optdone": 1, 
		 "sigma_profile": "yes", 
		 "theory": "DFT", 
		 "functional": "B3LYP", 
		 "basiset": "6-31G**", 
		 "properties": { 
			 "R2extent": 3690.9498, 
			 "electric_dipole_moment_norm": 2.76105930758, 
			 "electric_quadrupole_moment_norm": 4.23354693254, 
			 "total_energy": -1012.72125482, 
			 "HOMO_LUMO_gap": 0.18919, 
			 "cosmo_polarized_energy": -9.02, 
			 "cosmo_cavitation_energy": 35.42, 
			 "cosmo_dispersion_energy": -24.23, 
			 "cosmo_repulsion_energy": 1.87, 
			 "cosmo_total_nonelectrostatic_energy": 13.05, 
			 "SMD_solvation_energy": 4.46 
		},
		"coords": [
			{
				"x": -0.8145595688,
				"y": 0.5155649276,
				"z": 3.7421023949,
				"element": "C" 
			},
			{
				"x": -0.8383695289,
				"y": 1.2527688484,
				"z": 2.3901413792,
				"element": "C" 
			},
			{
				"x": -1.3856640947,
				"y": 0.4013974837,
				"z": 1.2621270678,
				"element": "C" 
			},
			{
				"x": -2.7620388074,
				"y": 0.3911354488,
				"z": 1.0081977031,
				"element": "C" 
			},
			{
				"x": -3.3043795306,
				"y": -0.4198804261,
				"z": 0.0137024446,
				"element": "C" 
			},
			{
				"x": -2.4729312457,
				"y": -1.2343527411,
				"z": -0.7502119689,
				"element": "C" 
			},
			{
				"x": -1.0874069933,
				"y": -1.250725115,
				"z": -0.5454445143,
				"element": "C" 
			},
			{
				"x": -0.2157362021,
				"y": -2.126491274,
				"z": -1.4240605678,
				"element": "C" 
			},
			{
				"x": 0.0598161099,
				"y": -1.5073692495,
				"z": -2.8071267625,
				"element": "C" 
			},
			{
				"x": -0.5634097229,
				"y": -0.4238607441,
				"z": 0.4680241534,
				"element": "C" 
			},
			{
				"x": 0.8538236661,
				"y": -0.4333197308,
				"z": 0.7132795823,
				"element": "N" 
			},
			{
				"x": 1.551767311,
				"y": -1.355885361,
				"z": 1.4893734424,
				"element": "C" 
			},
			{
				"x": 2.8664217204,
				"y": -0.9816619455,
				"z": 1.419541715,
				"element": "C" 
			},
			{
				"x": 3.0164476812,
				"y": 0.1393899758,
				"z": 0.6294930934,
				"element": "N" 
			},
			{
				"x": 1.8005080217,
				"y": 0.4348303145,
				"z": 0.225634335,
				"element": "C" 
			},
			{
				"x": 1.3589129526,
				"y": 1.7992290114,
				"z": -0.820661227,
				"element": "S" 
			},
			{
				"x": -1.8147727296,
				"y": 0.1669023107,
				"z": 4.0194469135,
				"element": "H" 
			},
			{
				"x": -0.453629344,
				"y": 1.1787931047,
				"z": 4.5347947725,
				"element": "H" 
			},
			{
				"x": -0.1517729095,
				"y": -0.353960164,
				"z": 3.7049082484,
				"element": "H" 
			},
			{
				"x": -1.4643666518,
				"y": 2.1476487185,
				"z": 2.4809624422,
				"element": "H" 
			},
			{
				"x": 0.1694112597,
				"y": 1.6019501259,
				"z": 2.1508137947,
				"element": "H" 
			},
			{
				"x": -3.4114603731,
				"y": 1.0262483607,
				"z": 1.6049960247,
				"element": "H" 
			},
			{
				"x": -4.3760221334,
				"y": -0.4179948422,
				"z": -0.1643417354,
				"element": "H" 
			},
			{
				"x": -2.8973523935,
				"y": -1.8706371247,
				"z": -1.5225652514,
				"element": "H" 
			},
			{
				"x": -0.7213217433,
				"y": -3.090429812,
				"z": -1.5587365649,
				"element": "H" 
			},
			{
				"x": 0.7340140187,
				"y": -2.3386878139,
				"z": -0.9264041601,
				"element": "H" 
			},
			{
				"x": 0.6682116157,
				"y": -2.1847676314,
				"z": -3.4151154147,
				"element": "H" 
			},
			{
				"x": -0.8736902033,
				"y": -1.3146810956,
				"z": -3.3460296464,
				"element": "H" 
			},
			{
				"x": 0.5948292187,
				"y": -0.5579927774,
				"z": -2.7147641217,
				"element": "H" 
			},
			{
				"x": 1.0392229952,
				"y": -2.1622312048,
				"z": 1.9901910621,
				"element": "H" 
			},
			{
				"x": 3.718882663,
				"y": -1.4501956318,
				"z": 1.8916218129,
				"element": "H" 
			},
			{
				"x": 2.6352149421,
				"y": 2.2154660541,
				"z": -0.9149904469,
				"element": "H" 
			}
		],
		 "valence_orbital": [ 
			{
				"type": "occ",
				"energy": -0.27711,
				"method": "rhf"
			},
			{
				"type": "occ",
				"energy": -0.27007,
				"method": "rhf"
			},
			{
				"type": "occ",
				"energy": -0.2505,
				"method": "rhf"
			},
			{
				"type": "occ",
				"energy": -0.24599,
				"method": "rhf"
			},
			{
				"type": "occ",
				"energy": -0.20674,
				"method": "rhf"
			},
			{
				"type": "unocc",
				"energy": -0.01755,
				"method": "rhf"
			},
			{
				"type": "unocc",
				"energy": -0.01133,
				"method": "rhf"
			},
			{
				"type": "unocc",
				"energy": 0.02215,
				"method": "rhf"
			},
			{
				"type": "unocc",
				"energy": 0.02811,
				"method": "rhf"
			},
			{
				"type": "unocc",
				"energy": 0.06754,
				"method": "rhf"
			}
		],
		"cosmo_sigma_profile": { 
			"-0.025": 0.0,
			"-0.024": 0.0,
			"-0.023": 0.0,
			"-0.022": 0.0,
			"-0.021": 0.0,
			"-0.02": 0.0,
			"-0.019": 0.0,
			"-0.018": 0.0,
			"-0.017": 0.0,
			"-0.016": 0.0,
			"-0.015": 0.0,
			"-0.014": 0.0,
			"-0.013": 0.0,
			"-0.012": 0.181695814132,
			"-0.011": 1.59168999081,
			"-0.01": 1.05749828518,
			"-0.009": 1.3385475709,
			"-0.008": 2.94577684475,
			"-0.007": 3.05151805225,
			"-0.006": 8.23346946357,
			"-0.005": 12.1490110493,
			"-0.004": 18.1064532088,
			"-0.003": 24.7787106788,
			"-0.002": 26.6869238597,
			"-0.001": 32.9623098396,
			"0.0": 30.8968824006,
			"0.001": 32.0208774157,
			"0.002": 22.8976087016,
			"0.003": 17.4759081112,
			"0.004": 15.4316228361,
			"0.005": 13.5672032732,
			"0.006": 3.16880700039,
			"0.007": 2.95245763514,
			"0.008": 1.37428576685,
			"0.009": 1.88141579632,
			"0.01": 1.44579289561,
			"0.011": 1.18380660928,
			"0.012": 0.505336081744,
			"0.013": 0.772270261331,
			"0.014": 1.76028045634,
			"0.015": 0.57272441967,
			"0.016": 1.10676838647,
			"0.017": 0.449641568816,
			"0.018": 0.0263577276079,
			"0.019": 0.0,
			"0.02": 0.0,
			"0.021": 0.0,
			"0.022": 0.0,
			"0.023": 0.0,
			"0.024": 0.0,
			"0.025": 0.0
		}
	}
}
