{
	 "smiles": "O=C1CCCC(=O)O1", 
	 "Tm": 329.45, 
	 "num_atms": 14, 
	 "gaussian": { 
		 "optdone": 1, 
		 "sigma_profile": "yes", 
		 "theory": "DFT", 
		 "functional": "B3LYP", 
		 "basiset": "6-31G**", 
		 "properties": { 
			 "R2extent": 1787.5296, 
			 "electric_dipole_moment_norm": 5.2491955698, 
			 "electric_quadrupole_moment_norm": 16.5984005154, 
			 "total_energy": -419.834145761, 
			 "HOMO_LUMO_gap": 0.24556, 
			 "cosmo_polarized_energy": -13.94, 
			 "cosmo_cavitation_energy": 17.81, 
			 "cosmo_dispersion_energy": -13.58, 
			 "cosmo_repulsion_energy": 1.15, 
			 "cosmo_total_nonelectrostatic_energy": 5.39, 
			 "SMD_solvation_energy": 4.88 
		},
		"coords": [
			{
				"x": -1.9040406509,
				"y": 3.1356013252,
				"z": 1.8745042582,
				"element": "O" 
			},
			{
				"x": -1.2333048448,
				"y": 2.4748412958,
				"z": 1.1312815852,
				"element": "C" 
			},
			{
				"x": -1.6321098544,
				"y": 1.1223407278,
				"z": 0.5777109873,
				"element": "C" 
			},
			{
				"x": -0.4281410636,
				"y": 0.2432353283,
				"z": 0.2374223949,
				"element": "C" 
			},
			{
				"x": 0.5135695344,
				"y": 1.0196146816,
				"z": -0.6837855745,
				"element": "C" 
			},
			{
				"x": 0.9005601835,
				"y": 2.3720118086,
				"z": -0.1218041928,
				"element": "C" 
			},
			{
				"x": 1.9212477266,
				"y": 2.9508411525,
				"z": -0.3708345216,
				"element": "O" 
			},
			{
				"x": -0.0055737164,
				"y": 2.9936812805,
				"z": 0.7317806341,
				"element": "O" 
			},
			{
				"x": -2.3026941792,
				"y": 0.6657910508,
				"z": 1.3087045732,
				"element": "H" 
			},
			{
				"x": -2.2286128385,
				"y": 1.3107213366,
				"z": -0.3259999494,
				"element": "H" 
			},
			{
				"x": -0.7557207596,
				"y": -0.6822524988,
				"z": -0.2444013853,
				"element": "H" 
			},
			{
				"x": 0.0978392895,
				"y": -0.0441336973,
				"z": 1.1553909886,
				"element": "H" 
			},
			{
				"x": 0.0267072327,
				"y": 1.2037488087,
				"z": -1.651797489,
				"element": "H" 
			},
			{
				"x": 1.4427739408,
				"y": 0.4860573997,
				"z": -0.8943723091,
				"element": "H" 
			}
		],
		 "valence_orbital": [ 
			{
				"type": "occ",
				"energy": -0.37947,
				"method": "rhf"
			},
			{
				"type": "occ",
				"energy": -0.37137,
				"method": "rhf"
			},
			{
				"type": "occ",
				"energy": -0.32472,
				"method": "rhf"
			},
			{
				"type": "occ",
				"energy": -0.30129,
				"method": "rhf"
			},
			{
				"type": "occ",
				"energy": -0.28009,
				"method": "rhf"
			},
			{
				"type": "unocc",
				"energy": -0.03453,
				"method": "rhf"
			},
			{
				"type": "unocc",
				"energy": 0.00127,
				"method": "rhf"
			},
			{
				"type": "unocc",
				"energy": 0.06772,
				"method": "rhf"
			},
			{
				"type": "unocc",
				"energy": 0.10612,
				"method": "rhf"
			},
			{
				"type": "unocc",
				"energy": 0.11926,
				"method": "rhf"
			}
		],
		"cosmo_sigma_profile": { 
			"-0.025": 0.0,
			"-0.024": 0.0,
			"-0.023": 0.0,
			"-0.022": 0.0,
			"-0.021": 0.0,
			"-0.02": 0.0,
			"-0.019": 0.0,
			"-0.018": 0.0,
			"-0.017": 0.0,
			"-0.016": 0.0,
			"-0.015": 0.0,
			"-0.014": 0.0,
			"-0.013": 0.0,
			"-0.012": 0.00417982763682,
			"-0.011": 0.502493562922,
			"-0.01": 1.53124199701,
			"-0.009": 3.09432162147,
			"-0.008": 7.15844181615,
			"-0.007": 8.54116591754,
			"-0.006": 12.7087963825,
			"-0.005": 15.7233587698,
			"-0.004": 14.5186149712,
			"-0.003": 10.3541783253,
			"-0.002": 5.69571647866,
			"-0.001": 3.28064611756,
			"0.0": 2.53349731338,
			"0.001": 2.68711673107,
			"0.002": 2.24572968995,
			"0.003": 3.33109266841,
			"0.004": 3.19248236473,
			"0.005": 2.44496209472,
			"0.006": 3.32722217575,
			"0.007": 3.97727797111,
			"0.008": 5.38301648701,
			"0.009": 8.23238159925,
			"0.01": 9.77305480304,
			"0.011": 9.07620311763,
			"0.012": 1.56089360814,
			"0.013": 0.0,
			"0.014": 0.0,
			"0.015": 0.0,
			"0.016": 0.0,
			"0.017": 0.0,
			"0.018": 0.0,
			"0.019": 0.0,
			"0.02": 0.0,
			"0.021": 0.0,
			"0.022": 0.0,
			"0.023": 0.0,
			"0.024": 0.0,
			"0.025": 0.0
		}
	}
}
