{
	 "smiles": "CC1=C(C=CO1)C1=NN=C(S)N1N", 
	 "Tm": 433.15, 
	 "num_atms": 21, 
	 "gaussian": { 
		 "optdone": 1, 
		 "sigma_profile": "yes", 
		 "theory": "DFT", 
		 "functional": "B3LYP", 
		 "basiset": "6-31G**", 
		 "properties": { 
			 "R2extent": 3873.0317, 
			 "electric_dipole_moment_norm": 4.42729273823, 
			 "electric_quadrupole_moment_norm": 8.42693134421, 
			 "total_energy": -963.901642419, 
			 "HOMO_LUMO_gap": 0.19085, 
			 "cosmo_polarized_energy": -19.49, 
			 "cosmo_cavitation_energy": 27.32, 
			 "cosmo_dispersion_energy": -20.62, 
			 "cosmo_repulsion_energy": 1.58, 
			 "cosmo_total_nonelectrostatic_energy": 8.28, 
			 "SMD_solvation_energy": 4.02 
		},
		"coords": [
			{
				"x": 1.1379172673,
				"y": -0.0130706866,
				"z": 1.5629514266,
				"element": "C" 
			},
			{
				"x": 0.0725223008,
				"y": 0.9649461565,
				"z": 1.2151345698,
				"element": "C" 
			},
			{
				"x": -0.7775737468,
				"y": 1.0985154319,
				"z": 0.1375313817,
				"element": "C" 
			},
			{
				"x": -1.5818880132,
				"y": 2.2676339628,
				"z": 0.4081283738,
				"element": "C" 
			},
			{
				"x": -1.1660898195,
				"y": 2.7465129206,
				"z": 1.60825484,
				"element": "C" 
			},
			{
				"x": -0.1652429298,
				"y": 1.9671501033,
				"z": 2.1073161098,
				"element": "O" 
			},
			{
				"x": -0.7890391549,
				"y": 0.194086861,
				"z": -0.9980902059,
				"element": "C" 
			},
			{
				"x": -0.0005841775,
				"y": -0.8518897418,
				"z": -1.1459385398,
				"element": "N" 
			},
			{
				"x": -0.30351318,
				"y": -1.469128679,
				"z": -2.3486734167,
				"element": "N" 
			},
			{
				"x": -1.2701666944,
				"y": -0.7793293026,
				"z": -2.899832817,
				"element": "C" 
			},
			{
				"x": -2.073948449,
				"y": -1.0800757042,
				"z": -4.4389065633,
				"element": "S" 
			},
			{
				"x": -1.6250676787,
				"y": 0.2811685015,
				"z": -2.1046393099,
				"element": "N" 
			},
			{
				"x": -2.6320668742,
				"y": 1.1855202271,
				"z": -2.4486145492,
				"element": "N" 
			},
			{
				"x": 1.5769338521,
				"y": 0.2477889211,
				"z": 2.5284753673,
				"element": "H" 
			},
			{
				"x": 1.9196765104,
				"y": -0.0286987903,
				"z": 0.7974008112,
				"element": "H" 
			},
			{
				"x": 0.7363305147,
				"y": -1.0301067026,
				"z": 1.6060888608,
				"element": "H" 
			},
			{
				"x": -2.3619517579,
				"y": 2.6981075117,
				"z": -0.2000445443,
				"element": "H" 
			},
			{
				"x": -1.4619903355,
				"y": 3.5872123176,
				"z": 2.2155120127,
				"element": "H" 
			},
			{
				"x": -1.3162294677,
				"y": -2.166843862,
				"z": -4.6838410324,
				"element": "H" 
			},
			{
				"x": -2.2446208903,
				"y": 2.1224445399,
				"z": -2.5195033723,
				"element": "H" 
			},
			{
				"x": -3.3652072759,
				"y": 1.1691560141,
				"z": -1.7449094026,
				"element": "H" 
			}
		],
		 "valence_orbital": [ 
			{
				"type": "occ",
				"energy": -0.29707,
				"method": "rhf"
			},
			{
				"type": "occ",
				"energy": -0.28421,
				"method": "rhf"
			},
			{
				"type": "occ",
				"energy": -0.24848,
				"method": "rhf"
			},
			{
				"type": "occ",
				"energy": -0.24515,
				"method": "rhf"
			},
			{
				"type": "occ",
				"energy": -0.20796,
				"method": "rhf"
			},
			{
				"type": "unocc",
				"energy": -0.01711,
				"method": "rhf"
			},
			{
				"type": "unocc",
				"energy": 0.01719,
				"method": "rhf"
			},
			{
				"type": "unocc",
				"energy": 0.01756,
				"method": "rhf"
			},
			{
				"type": "unocc",
				"energy": 0.04083,
				"method": "rhf"
			},
			{
				"type": "unocc",
				"energy": 0.04342,
				"method": "rhf"
			}
		],
		"cosmo_sigma_profile": { 
			"-0.025": 0.0,
			"-0.024": 0.0,
			"-0.023": 0.0,
			"-0.022": 0.0,
			"-0.021": 0.0,
			"-0.02": 0.0,
			"-0.019": 0.0,
			"-0.018": 0.0,
			"-0.017": 0.0,
			"-0.016": 0.0,
			"-0.015": 0.00821574359132,
			"-0.014": 2.30379805855,
			"-0.013": 5.24192081463,
			"-0.012": 4.14312753389,
			"-0.011": 5.88976235917,
			"-0.01": 3.84957471307,
			"-0.009": 4.73017026013,
			"-0.008": 5.50518819394,
			"-0.007": 5.22297064107,
			"-0.006": 5.61988560776,
			"-0.005": 7.43933699046,
			"-0.004": 9.56306235877,
			"-0.003": 12.507331172,
			"-0.002": 12.8717078907,
			"-0.001": 16.4480810521,
			"0.0": 12.6532464109,
			"0.001": 13.3209658421,
			"0.002": 17.1985123626,
			"0.003": 14.7389376647,
			"0.004": 13.2561104782,
			"0.005": 9.87873590218,
			"0.006": 8.3385903555,
			"0.007": 5.94750544549,
			"0.008": 3.70284396675,
			"0.009": 2.83336271621,
			"0.01": 3.33206222378,
			"0.011": 2.44158090308,
			"0.012": 2.20913234136,
			"0.013": 3.03701120358,
			"0.014": 3.05153028346,
			"0.015": 2.24717800967,
			"0.016": 0.916026201432,
			"0.017": 0.340098112164,
			"0.018": 0.0,
			"0.019": 0.0,
			"0.02": 0.0,
			"0.021": 0.0,
			"0.022": 0.0,
			"0.023": 0.0,
			"0.024": 0.0,
			"0.025": 0.0
		}
	}
}
