{
	 "smiles": "CSC1=C(C=C(C(O)=O)C(=O)N1)C#N", 
	 "Tm": 528.15, 
	 "num_atms": 20, 
	 "gaussian": { 
		 "optdone": 1, 
		 "sigma_profile": "yes", 
		 "theory": "DFT", 
		 "functional": "B3LYP", 
		 "basiset": "6-31G**", 
		 "properties": { 
			 "R2extent": 4227.3571, 
			 "electric_dipole_moment_norm": 7.13896666472, 
			 "electric_quadrupole_moment_norm": 15.6431509332, 
			 "total_energy": -1041.83471266, 
			 "HOMO_LUMO_gap": 0.15711, 
			 "cosmo_polarized_energy": -21.34, 
			 "cosmo_cavitation_energy": 27.55, 
			 "cosmo_dispersion_energy": -20.32, 
			 "cosmo_repulsion_energy": 1.54, 
			 "cosmo_total_nonelectrostatic_energy": 8.76, 
			 "SMD_solvation_energy": 7.78 
		},
		"coords": [
			{
				"x": -1.8778417775,
				"y": 4.7062688247,
				"z": -0.2113939533,
				"element": "C" 
			},
			{
				"x": -0.3732814575,
				"y": 4.2585086427,
				"z": 0.7395523908,
				"element": "S" 
			},
			{
				"x": -0.0248247677,
				"y": 2.59503125,
				"z": 0.2372211522,
				"element": "C" 
			},
			{
				"x": 0.0532236293,
				"y": 2.0944555022,
				"z": -1.0591739001,
				"element": "C" 
			},
			{
				"x": 0.3923747922,
				"y": 0.7205452972,
				"z": -1.2394780114,
				"element": "C" 
			},
			{
				"x": 0.6856465024,
				"y": -0.1074383622,
				"z": -0.1891462453,
				"element": "C" 
			},
			{
				"x": 1.0431815072,
				"y": -1.5454505832,
				"z": -0.4669317429,
				"element": "C" 
			},
			{
				"x": 1.3260300723,
				"y": -2.2947222259,
				"z": 0.6024877494,
				"element": "O" 
			},
			{
				"x": 1.0686788631,
				"y": -1.9802020832,
				"z": -1.5983572769,
				"element": "O" 
			},
			{
				"x": 0.6481353828,
				"y": 0.4049692703,
				"z": 1.1641343323,
				"element": "C" 
			},
			{
				"x": 0.8945651112,
				"y": -0.2274422677,
				"z": 2.1994719302,
				"element": "O" 
			},
			{
				"x": 0.2638166412,
				"y": 1.7508276693,
				"z": 1.2670492512,
				"element": "N" 
			},
			{
				"x": -0.1420725663,
				"y": 2.931956315,
				"z": -2.1971297285,
				"element": "C" 
			},
			{
				"x": -0.2987809344,
				"y": 3.6049650688,
				"z": -3.1336502255,
				"element": "N" 
			},
			{
				"x": -2.1854129655,
				"y": 5.6647195217,
				"z": 0.2121955172,
				"element": "H" 
			},
			{
				"x": -1.6626450804,
				"y": 4.8246344164,
				"z": -1.2718575227,
				"element": "H" 
			},
			{
				"x": -2.6652440976,
				"y": 3.9699355451,
				"z": -0.0477378036,
				"element": "H" 
			},
			{
				"x": 0.4416539644,
				"y": 0.3043027086,
				"z": -2.2413018138,
				"element": "H" 
			},
			{
				"x": 1.2444199649,
				"y": -1.743596004,
				"z": 1.4194886644,
				"element": "H" 
			},
			{
				"x": 0.174477216,
				"y": 2.0918314941,
				"z": 2.2194572362,
				"element": "H" 
			}
		],
		 "valence_orbital": [ 
			{
				"type": "occ",
				"energy": -0.30928,
				"method": "rhf"
			},
			{
				"type": "occ",
				"energy": -0.30737,
				"method": "rhf"
			},
			{
				"type": "occ",
				"energy": -0.29688,
				"method": "rhf"
			},
			{
				"type": "occ",
				"energy": -0.27675,
				"method": "rhf"
			},
			{
				"type": "occ",
				"energy": -0.26063,
				"method": "rhf"
			},
			{
				"type": "unocc",
				"energy": -0.10352,
				"method": "rhf"
			},
			{
				"type": "unocc",
				"energy": -0.06786,
				"method": "rhf"
			},
			{
				"type": "unocc",
				"energy": -0.01291,
				"method": "rhf"
			},
			{
				"type": "unocc",
				"energy": 0.00209,
				"method": "rhf"
			},
			{
				"type": "unocc",
				"energy": 0.00382,
				"method": "rhf"
			}
		],
		"cosmo_sigma_profile": { 
			"-0.025": 0.0,
			"-0.024": 0.0,
			"-0.023": 0.0,
			"-0.022": 0.0,
			"-0.021": 0.0,
			"-0.02": 0.0,
			"-0.019": 0.0,
			"-0.018": 0.131353234412,
			"-0.017": 0.792603135896,
			"-0.016": 1.41485212967,
			"-0.015": 0.546100880044,
			"-0.014": 0.978748557108,
			"-0.013": 0.850099727899,
			"-0.012": 1.07340377833,
			"-0.011": 1.03482646967,
			"-0.01": 1.78497029649,
			"-0.009": 3.64780831477,
			"-0.008": 7.44522352778,
			"-0.007": 10.3616249491,
			"-0.006": 14.3059254377,
			"-0.005": 17.0607056532,
			"-0.004": 19.3916543555,
			"-0.003": 20.7074061844,
			"-0.002": 12.7015313051,
			"-0.001": 9.94164288847,
			"0.0": 8.07800770977,
			"0.001": 9.16403375704,
			"0.002": 7.75042696801,
			"0.003": 7.70137923908,
			"0.004": 7.83735330297,
			"0.005": 6.08356090997,
			"0.006": 5.10707097991,
			"0.007": 6.16151527411,
			"0.008": 6.89740021555,
			"0.009": 7.15157357368,
			"0.01": 8.99496898485,
			"0.011": 9.85999628417,
			"0.012": 7.19103717024,
			"0.013": 2.13169855064,
			"0.014": 0.239418549408,
			"0.015": 0.0,
			"0.016": 0.0,
			"0.017": 0.0,
			"0.018": 0.0,
			"0.019": 0.0,
			"0.02": 0.0,
			"0.021": 0.0,
			"0.022": 0.0,
			"0.023": 0.0,
			"0.024": 0.0,
			"0.025": 0.0
		}
	}
}
