{
	 "smiles": "NC1=NC=NC2=C1N=CN2[C@@H]1O[C@H](COP(O)(=O)OP(O)(=O)OP(O)(O)=O)[C@@H](O)[C@H]1O", 
	 "Tm": 449.15, 
	 "num_atms": 47, 
	 "gaussian": { 
		 "optdone": 1, 
		 "sigma_profile": "yes", 
		 "theory": "DFT", 
		 "functional": "B3LYP", 
		 "basiset": "6-31G**", 
		 "properties": { 
			 "R2extent": 14813.9769, 
			 "electric_dipole_moment_norm": 5.2230935096, 
			 "electric_quadrupole_moment_norm": 14.332169528, 
			 "total_energy": -2666.71073599, 
			 "HOMO_LUMO_gap": 0.19781, 
			 "cosmo_polarized_energy": -40.69, 
			 "cosmo_cavitation_energy": 55.1, 
			 "cosmo_dispersion_energy": -37.67, 
			 "cosmo_repulsion_energy": 2.72, 
			 "cosmo_total_nonelectrostatic_energy": 20.14, 
			 "SMD_solvation_energy": 11.7 
		},
		"coords": [
			{
				"x": 4.7064796932,
				"y": 0.8613862849,
				"z": 2.5268389785,
				"element": "N" 
			},
			{
				"x": 3.5001124381,
				"y": 0.3931160111,
				"z": 2.9183073232,
				"element": "C" 
			},
			{
				"x": 3.1319637288,
				"y": 0.5687372306,
				"z": 4.2032434029,
				"element": "N" 
			},
			{
				"x": 1.9392705322,
				"y": 0.1170905608,
				"z": 4.6031714598,
				"element": "C" 
			},
			{
				"x": 1.0117405506,
				"y": -0.5268815206,
				"z": 3.8803276827,
				"element": "N" 
			},
			{
				"x": 1.4115828556,
				"y": -0.7087818143,
				"z": 2.6109186531,
				"element": "C" 
			},
			{
				"x": 2.6152350371,
				"y": -0.2822427138,
				"z": 2.0493176792,
				"element": "C" 
			},
			{
				"x": 2.6493771555,
				"y": -0.5947304403,
				"z": 0.6984369356,
				"element": "N" 
			},
			{
				"x": 1.495445718,
				"y": -1.1974859584,
				"z": 0.4673431241,
				"element": "C" 
			},
			{
				"x": 0.7119952209,
				"y": -1.3045944057,
				"z": 1.58059918,
				"element": "N" 
			},
			{
				"x": -0.6748291995,
				"y": -1.7854919889,
				"z": 1.6690279755,
				"element": "C" 
			},
			{
				"x": -1.1027834695,
				"y": -2.1642986368,
				"z": 0.3862913995,
				"element": "O" 
			},
			{
				"x": -2.4522698765,
				"y": -1.6825560159,
				"z": 0.1422045603,
				"element": "C" 
			},
			{
				"x": -2.4571072453,
				"y": -0.7072581086,
				"z": -1.0251584533,
				"element": "C" 
			},
			{
				"x": -2.2749994491,
				"y": -1.4971875683,
				"z": -2.2335912387,
				"element": "O" 
			},
			{
				"x": -2.1241332915,
				"y": -0.7730581364,
				"z": -3.6519397017,
				"element": "P" 
			},
			{
				"x": -2.058341072,
				"y": -2.0242571106,
				"z": -4.6436510905,
				"element": "O" 
			},
			{
				"x": -3.0641381662,
				"y": 0.2862588505,
				"z": -4.0344986049,
				"element": "O" 
			},
			{
				"x": -0.542950785,
				"y": -0.3038525341,
				"z": -3.5500292115,
				"element": "O" 
			},
			{
				"x": 0.3049750452,
				"y": 0.96057944,
				"z": -4.0559317296,
				"element": "P" 
			},
			{
				"x": 0.8274137536,
				"y": 0.437103251,
				"z": -5.4755298587,
				"element": "O" 
			},
			{
				"x": -0.293937381,
				"y": 2.3153919807,
				"z": -4.0311859536,
				"element": "O" 
			},
			{
				"x": 1.5947855241,
				"y": 0.8363916234,
				"z": -3.0928219148,
				"element": "O" 
			},
			{
				"x": 1.5717191532,
				"y": 1.6635373848,
				"z": -1.6339562928,
				"element": "P" 
			},
			{
				"x": 3.0118614636,
				"y": 1.3685404185,
				"z": -1.0763998308,
				"element": "O" 
			},
			{
				"x": 1.6582191115,
				"y": 3.1879122782,
				"z": -2.0911519923,
				"element": "O" 
			},
			{
				"x": 0.4002034871,
				"y": 1.2486431617,
				"z": -0.822843591,
				"element": "O" 
			},
			{
				"x": -2.9394635972,
				"y": -1.0901038812,
				"z": 1.472621316,
				"element": "C" 
			},
			{
				"x": -3.5607476455,
				"y": -2.1187577708,
				"z": 2.216014311,
				"element": "O" 
			},
			{
				"x": -1.6318664267,
				"y": -0.6731906182,
				"z": 2.1602310456,
				"element": "C" 
			},
			{
				"x": -1.8169980621,
				"y": -0.6462802469,
				"z": 3.5514069477,
				"element": "O" 
			},
			{
				"x": 4.9498433127,
				"y": 0.8883620085,
				"z": 1.5499160132,
				"element": "H" 
			},
			{
				"x": 5.216995323,
				"y": 1.4410312097,
				"z": 3.1749676648,
				"element": "H" 
			},
			{
				"x": 1.6880460103,
				"y": 0.3021459946,
				"z": 5.6447347635,
				"element": "H" 
			},
			{
				"x": 1.1499044011,
				"y": -1.550541013,
				"z": -0.490919568,
				"element": "H" 
			},
			{
				"x": -0.6977133569,
				"y": -2.6343628635,
				"z": 2.3646937985,
				"element": "H" 
			},
			{
				"x": -3.0716483094,
				"y": -2.54775385,
				"z": -0.1124813751,
				"element": "H" 
			},
			{
				"x": -1.6482033991,
				"y": 0.0255832656,
				"z": -0.9386613403,
				"element": "H" 
			},
			{
				"x": -3.4224289324,
				"y": -0.1963876382,
				"z": -1.0930774576,
				"element": "H" 
			},
			{
				"x": -1.497156253,
				"y": -2.7433207942,
				"z": -4.3189217269,
				"element": "H" 
			},
			{
				"x": 1.0177851211,
				"y": 1.1783036711,
				"z": -6.0691784381,
				"element": "H" 
			},
			{
				"x": 3.002375333,
				"y": 0.5746733129,
				"z": -0.4425119291,
				"element": "H" 
			},
			{
				"x": 0.9089210106,
				"y": 3.3793748171,
				"z": -2.6924922634,
				"element": "H" 
			},
			{
				"x": -3.6159514668,
				"y": -0.2355788624,
				"z": 1.3263373449,
				"element": "H" 
			},
			{
				"x": -3.3885106392,
				"y": -1.9043662106,
				"z": 3.1480933145,
				"element": "H" 
			},
			{
				"x": -1.2812973197,
				"y": 0.2901892209,
				"z": 1.7607233928,
				"element": "H" 
			},
			{
				"x": -0.9278756367,
				"y": -0.5824312751,
				"z": 3.9637652956,
				"element": "H" 
			}
		],
		 "valence_orbital": [ 
			{
				"type": "occ",
				"energy": -0.29105,
				"method": "rhf"
			},
			{
				"type": "occ",
				"energy": -0.28849,
				"method": "rhf"
			},
			{
				"type": "occ",
				"energy": -0.28147,
				"method": "rhf"
			},
			{
				"type": "occ",
				"energy": -0.27278,
				"method": "rhf"
			},
			{
				"type": "occ",
				"energy": -0.2445,
				"method": "rhf"
			},
			{
				"type": "unocc",
				"energy": -0.04669,
				"method": "rhf"
			},
			{
				"type": "unocc",
				"energy": -0.02057,
				"method": "rhf"
			},
			{
				"type": "unocc",
				"energy": 0.00814,
				"method": "rhf"
			},
			{
				"type": "unocc",
				"energy": 0.00913,
				"method": "rhf"
			},
			{
				"type": "unocc",
				"energy": 0.03504,
				"method": "rhf"
			}
		],
		"cosmo_sigma_profile": { 
			"-0.025": 0.0,
			"-0.024": 0.0,
			"-0.023": 0.0,
			"-0.022": 0.0,
			"-0.021": 0.803757663314,
			"-0.02": 2.87914259037,
			"-0.019": 1.93827078682,
			"-0.018": 1.5299583506,
			"-0.017": 2.1336702992,
			"-0.016": 0.912187117492,
			"-0.015": 2.25486518961,
			"-0.014": 3.56134117991,
			"-0.013": 4.44508870343,
			"-0.012": 4.19589877379,
			"-0.011": 4.85903447377,
			"-0.01": 5.75841719065,
			"-0.009": 6.56993631006,
			"-0.008": 14.3652886912,
			"-0.007": 16.9281066478,
			"-0.006": 17.224929511,
			"-0.005": 17.9663268696,
			"-0.004": 19.0996752251,
			"-0.003": 22.0177358152,
			"-0.002": 23.9141097054,
			"-0.001": 27.2133762377,
			"0.0": 24.8477536928,
			"0.001": 24.0019848706,
			"0.002": 22.684510015,
			"0.003": 21.0973995853,
			"0.004": 16.9949916343,
			"0.005": 17.7470603114,
			"0.006": 16.4557853122,
			"0.007": 16.231056459,
			"0.008": 14.3172993964,
			"0.009": 14.1275972835,
			"0.01": 9.27983551071,
			"0.011": 7.66400014953,
			"0.012": 12.3118151509,
			"0.013": 8.07453154722,
			"0.014": 0.90472877248,
			"0.015": 0.272907834878,
			"0.016": 0.0,
			"0.017": 0.0,
			"0.018": 0.0,
			"0.019": 0.0,
			"0.02": 0.0,
			"0.021": 0.0,
			"0.022": 0.0,
			"0.023": 0.0,
			"0.024": 0.0,
			"0.025": 0.0
		}
	}
}
