{
	 "smiles": "CC(C)(C)OC(=O)NCC1=NN=NN1", 
	 "Tm": 427.15, 
	 "num_atms": 27, 
	 "gaussian": { 
		 "optdone": 1, 
		 "sigma_profile": "yes", 
		 "theory": "DFT", 
		 "functional": "B3LYP", 
		 "basiset": "6-31G**", 
		 "properties": { 
			 "R2extent": 3991.0825, 
			 "electric_dipole_moment_norm": 5.4558911811, 
			 "electric_quadrupole_moment_norm": 22.3975782198, 
			 "total_energy": -698.766484207, 
			 "HOMO_LUMO_gap": 0.25759, 
			 "cosmo_polarized_energy": -20.86, 
			 "cosmo_cavitation_energy": 30.51, 
			 "cosmo_dispersion_energy": -21.02, 
			 "cosmo_repulsion_energy": 1.65, 
			 "cosmo_total_nonelectrostatic_energy": 11.14, 
			 "SMD_solvation_energy": 3.68 
		},
		"coords": [
			{
				"x": 2.0503139453,
				"y": -1.5462527075,
				"z": -1.8737229051,
				"element": "C" 
			},
			{
				"x": 1.6279763377,
				"y": -0.8960568917,
				"z": -0.5532029906,
				"element": "C" 
			},
			{
				"x": 1.6764978537,
				"y": 0.6303355838,
				"z": -0.65142334,
				"element": "C" 
			},
			{
				"x": 2.4611403428,
				"y": -1.3891893303,
				"z": 0.6331505451,
				"element": "C" 
			},
			{
				"x": 0.190627021,
				"y": -1.1597037237,
				"z": -0.2991545133,
				"element": "O" 
			},
			{
				"x": -0.2455367491,
				"y": -2.4307805712,
				"z": -0.0624015344,
				"element": "C" 
			},
			{
				"x": 0.4038433458,
				"y": -3.4499980128,
				"z": -0.2031597955,
				"element": "O" 
			},
			{
				"x": -1.548914154,
				"y": -2.4200588999,
				"z": 0.3594834632,
				"element": "N" 
			},
			{
				"x": -2.3779670222,
				"y": -1.2437804422,
				"z": 0.5783556976,
				"element": "C" 
			},
			{
				"x": -2.9566966813,
				"y": -0.6562756767,
				"z": -0.6762662714,
				"element": "C" 
			},
			{
				"x": -4.2347908741,
				"y": -0.4990605126,
				"z": -0.9633442227,
				"element": "N" 
			},
			{
				"x": -4.2752263117,
				"y": 0.0735871676,
				"z": -2.2006900058,
				"element": "N" 
			},
			{
				"x": -3.0838573211,
				"y": 0.2621603249,
				"z": -2.6679572733,
				"element": "N" 
			},
			{
				"x": -2.2377105752,
				"y": -0.1873806315,
				"z": -1.7161032583,
				"element": "N" 
			},
			{
				"x": 3.0814059991,
				"y": -1.2619124052,
				"z": -2.1066535072,
				"element": "H" 
			},
			{
				"x": 1.4145456915,
				"y": -1.2002049062,
				"z": -2.6956502893,
				"element": "H" 
			},
			{
				"x": 1.9871560677,
				"y": -2.6323840536,
				"z": -1.8120832097,
				"element": "H" 
			},
			{
				"x": 2.7056316995,
				"y": 0.9591941247,
				"z": -0.8209971439,
				"element": "H" 
			},
			{
				"x": 1.3141814512,
				"y": 1.092844429,
				"z": 0.2710831072,
				"element": "H" 
			},
			{
				"x": 1.0675162735,
				"y": 0.995070181,
				"z": -1.4852961454,
				"element": "H" 
			},
			{
				"x": 3.5050866826,
				"y": -1.0926413332,
				"z": 0.4917898054,
				"element": "H" 
			},
			{
				"x": 2.1043240185,
				"y": -0.9383110629,
				"z": 1.5645565041,
				"element": "H" 
			},
			{
				"x": 2.4150759666,
				"y": -2.4747067338,
				"z": 0.7222321085,
				"element": "H" 
			},
			{
				"x": -1.9673141833,
				"y": -3.3359034672,
				"z": 0.4231455984,
				"element": "H" 
			},
			{
				"x": -1.7873161255,
				"y": -0.4866369689,
				"z": 1.1021181364,
				"element": "H" 
			},
			{
				"x": -3.2142864211,
				"y": -1.5207667127,
				"z": 1.2227343524,
				"element": "H" 
			},
			{
				"x": -1.2324062779,
				"y": -0.1753867674,
				"z": -1.8276429126,
				"element": "H" 
			}
		],
		 "valence_orbital": [ 
			{
				"type": "occ",
				"energy": -0.30152,
				"method": "rhf"
			},
			{
				"type": "occ",
				"energy": -0.29684,
				"method": "rhf"
			},
			{
				"type": "occ",
				"energy": -0.28649,
				"method": "rhf"
			},
			{
				"type": "occ",
				"energy": -0.28454,
				"method": "rhf"
			},
			{
				"type": "occ",
				"energy": -0.27684,
				"method": "rhf"
			},
			{
				"type": "unocc",
				"energy": -0.01925,
				"method": "rhf"
			},
			{
				"type": "unocc",
				"energy": 0.01677,
				"method": "rhf"
			},
			{
				"type": "unocc",
				"energy": 0.03151,
				"method": "rhf"
			},
			{
				"type": "unocc",
				"energy": 0.04503,
				"method": "rhf"
			},
			{
				"type": "unocc",
				"energy": 0.06198,
				"method": "rhf"
			}
		],
		"cosmo_sigma_profile": { 
			"-0.025": 0.0,
			"-0.024": 0.0,
			"-0.023": 0.0,
			"-0.022": 0.0,
			"-0.021": 0.0,
			"-0.02": 0.0,
			"-0.019": 0.0,
			"-0.018": 0.0,
			"-0.017": 0.0,
			"-0.016": 0.0,
			"-0.015": 0.875769720643,
			"-0.014": 1.78001100014,
			"-0.013": 2.04703989919,
			"-0.012": 1.81404341049,
			"-0.011": 2.81192003533,
			"-0.01": 3.03114571085,
			"-0.009": 4.26877809096,
			"-0.008": 6.26702765972,
			"-0.007": 7.42024468421,
			"-0.006": 7.68251008591,
			"-0.005": 10.151140372,
			"-0.004": 18.8313557019,
			"-0.003": 20.0320407953,
			"-0.002": 20.0249047753,
			"-0.001": 21.9662283185,
			"0.0": 26.0503679961,
			"0.001": 15.4907496946,
			"0.002": 6.1877548228,
			"0.003": 4.86163562362,
			"0.004": 4.08656677584,
			"0.005": 4.8890323292,
			"0.006": 4.47212925678,
			"0.007": 4.98419475209,
			"0.008": 5.71577203414,
			"0.009": 6.46419630805,
			"0.01": 5.97194585108,
			"0.011": 6.93269108192,
			"0.012": 5.96127678218,
			"0.013": 5.50538293924,
			"0.014": 2.79487664557,
			"0.015": 0.68657851616,
			"0.016": 0.0169601480931,
			"0.017": 0.0,
			"0.018": 0.0,
			"0.019": 0.0,
			"0.02": 0.0,
			"0.021": 0.0,
			"0.022": 0.0,
			"0.023": 0.0,
			"0.024": 0.0,
			"0.025": 0.0
		}
	}
}
