{
	 "smiles": "O=C1C(=O)C2=C3C1=CC=CC3=CC1=C2C=CC=C1", 
	 "Tm": 542.15, 
	 "num_atms": 26, 
	 "gaussian": { 
		 "optdone": 1, 
		 "sigma_profile": "yes", 
		 "theory": "DFT", 
		 "functional": "B3LYP", 
		 "basiset": "6-31G**", 
		 "properties": { 
			 "R2extent": 4767.4234, 
			 "electric_dipole_moment_norm": 6.35635734757, 
			 "electric_quadrupole_moment_norm": 22.5026860497, 
			 "total_energy": -764.97173589, 
			 "HOMO_LUMO_gap": 0.12031, 
			 "cosmo_polarized_energy": -13.47, 
			 "cosmo_cavitation_energy": 30.76, 
			 "cosmo_dispersion_energy": -22.67, 
			 "cosmo_repulsion_energy": 1.66, 
			 "cosmo_total_nonelectrostatic_energy": 9.75, 
			 "SMD_solvation_energy": 5.72 
		},
		"coords": [
			{
				"x": -0.3136563197,
				"y": 3.7063900227,
				"z": -2.0806121641,
				"element": "O" 
			},
			{
				"x": -0.3720309863,
				"y": 2.801050748,
				"z": -1.2783811938,
				"element": "C" 
			},
			{
				"x": -1.4163266335,
				"y": 2.6996121955,
				"z": -0.0957606776,
				"element": "C" 
			},
			{
				"x": -2.2761978424,
				"y": 3.5272350116,
				"z": 0.1353471164,
				"element": "O" 
			},
			{
				"x": -1.1025431524,
				"y": 1.4370821605,
				"z": 0.6061023592,
				"element": "C" 
			},
			{
				"x": -0.0157752805,
				"y": 0.8398404956,
				"z": -0.0515544096,
				"element": "C" 
			},
			{
				"x": 0.4682017456,
				"y": 1.5809714944,
				"z": -1.1677295542,
				"element": "C" 
			},
			{
				"x": 1.5284692606,
				"y": 1.1062183597,
				"z": -1.8980927363,
				"element": "C" 
			},
			{
				"x": 2.1235699513,
				"y": -0.1336578349,
				"z": -1.5122703593,
				"element": "C" 
			},
			{
				"x": 1.6650927971,
				"y": -0.8610684581,
				"z": -0.4339192504,
				"element": "C" 
			},
			{
				"x": 0.5611657275,
				"y": -0.3951569707,
				"z": 0.3495932145,
				"element": "C" 
			},
			{
				"x": -0.012866317,
				"y": -1.0203794764,
				"z": 1.466176434,
				"element": "C" 
			},
			{
				"x": -1.1051751616,
				"y": -0.4524632598,
				"z": 2.1538082768,
				"element": "C" 
			},
			{
				"x": -1.6795576424,
				"y": 0.810940987,
				"z": 1.7265226284,
				"element": "C" 
			},
			{
				"x": -2.7831319324,
				"y": 1.3545251564,
				"z": 2.445646066,
				"element": "C" 
			},
			{
				"x": -3.2963358412,
				"y": 0.6886978066,
				"z": 3.5311987772,
				"element": "C" 
			},
			{
				"x": -2.7400577469,
				"y": -0.5503814944,
				"z": 3.9577659283,
				"element": "C" 
			},
			{
				"x": -1.6778599162,
				"y": -1.1033696514,
				"z": 3.2898527885,
				"element": "C" 
			},
			{
				"x": 1.9085799556,
				"y": 1.6596711885,
				"z": -2.7513953378,
				"element": "H" 
			},
			{
				"x": 2.9627983847,
				"y": -0.511911978,
				"z": -2.0882703699,
				"element": "H" 
			},
			{
				"x": 2.1434407194,
				"y": -1.8006606612,
				"z": -0.1703654869,
				"element": "H" 
			},
			{
				"x": 0.3872721412,
				"y": -1.9683358118,
				"z": 1.8192449548,
				"element": "H" 
			},
			{
				"x": -3.1973470298,
				"y": 2.2988798611,
				"z": 2.1101685212,
				"element": "H" 
			},
			{
				"x": -4.1375657443,
				"y": 1.108730966,
				"z": 4.0747242248,
				"element": "H" 
			},
			{
				"x": -3.1640858427,
				"y": -1.0573659313,
				"z": 4.8194005233,
				"element": "H" 
			},
			{
				"x": -1.2528772937,
				"y": -2.0492949257,
				"z": 3.6150997266,
				"element": "H" 
			}
		],
		 "valence_orbital": [ 
			{
				"type": "occ",
				"energy": -0.30148,
				"method": "rhf"
			},
			{
				"type": "occ",
				"energy": -0.27618,
				"method": "rhf"
			},
			{
				"type": "occ",
				"energy": -0.26199,
				"method": "rhf"
			},
			{
				"type": "occ",
				"energy": -0.23134,
				"method": "rhf"
			},
			{
				"type": "occ",
				"energy": -0.21866,
				"method": "rhf"
			},
			{
				"type": "unocc",
				"energy": -0.09835,
				"method": "rhf"
			},
			{
				"type": "unocc",
				"energy": -0.09157,
				"method": "rhf"
			},
			{
				"type": "unocc",
				"energy": -0.03272,
				"method": "rhf"
			},
			{
				"type": "unocc",
				"energy": -0.01394,
				"method": "rhf"
			},
			{
				"type": "unocc",
				"energy": 0.02944,
				"method": "rhf"
			}
		],
		"cosmo_sigma_profile": { 
			"-0.025": 0.0,
			"-0.024": 0.0,
			"-0.023": 0.0,
			"-0.022": 0.0,
			"-0.021": 0.0,
			"-0.02": 0.0,
			"-0.019": 0.0,
			"-0.018": 0.0,
			"-0.017": 0.0,
			"-0.016": 0.0,
			"-0.015": 0.0,
			"-0.014": 0.0,
			"-0.013": 0.0,
			"-0.012": 0.0,
			"-0.011": 0.0,
			"-0.01": 0.0,
			"-0.009": 0.0,
			"-0.008": 4.43866134446,
			"-0.007": 14.5079667183,
			"-0.006": 16.8472296286,
			"-0.005": 17.7021693392,
			"-0.004": 14.9759133661,
			"-0.003": 12.1249159823,
			"-0.002": 13.9664761419,
			"-0.001": 18.2146577541,
			"0.0": 25.6621188566,
			"0.001": 29.9175926433,
			"0.002": 22.770807315,
			"0.003": 15.6013532623,
			"0.004": 8.41260557606,
			"0.005": 2.09968102368,
			"0.006": 2.84891526885,
			"0.007": 2.93531343194,
			"0.008": 4.56198238702,
			"0.009": 4.24239063581,
			"0.01": 7.96303563536,
			"0.011": 6.41594783747,
			"0.012": 2.95748060959,
			"0.013": 0.422830753022,
			"0.014": 0.0,
			"0.015": 0.0,
			"0.016": 0.0,
			"0.017": 0.0,
			"0.018": 0.0,
			"0.019": 0.0,
			"0.02": 0.0,
			"0.021": 0.0,
			"0.022": 0.0,
			"0.023": 0.0,
			"0.024": 0.0,
			"0.025": 0.0
		}
	}
}
