{
	 "smiles": "NC1=NC=C(CN2CCOCC2)C=C1", 
	 "Tm": 393.15, 
	 "num_atms": 29, 
	 "gaussian": { 
		 "optdone": 1, 
		 "sigma_profile": "yes", 
		 "theory": "DFT", 
		 "functional": "B3LYP", 
		 "basiset": "6-31G**", 
		 "properties": { 
			 "R2extent": 3462.215, 
			 "electric_dipole_moment_norm": 2.22170911912, 
			 "electric_quadrupole_moment_norm": 18.7165467742, 
			 "total_energy": -629.552276194, 
			 "HOMO_LUMO_gap": 0.1817, 
			 "cosmo_polarized_energy": -13.38, 
			 "cosmo_cavitation_energy": 30.6, 
			 "cosmo_dispersion_energy": -22.22, 
			 "cosmo_repulsion_energy": 1.76, 
			 "cosmo_total_nonelectrostatic_energy": 10.14, 
			 "SMD_solvation_energy": 0.94 
		},
		"coords": [
			{
				"x": -2.9866074645,
				"y": -3.7533698461,
				"z": 1.8104179074,
				"element": "N" 
			},
			{
				"x": -2.4817950704,
				"y": -2.5301362489,
				"z": 1.4084259075,
				"element": "C" 
			},
			{
				"x": -2.7083635024,
				"y": -2.1850158186,
				"z": 0.1320231899,
				"element": "N" 
			},
			{
				"x": -2.2748663838,
				"y": -0.9883374049,
				"z": -0.2786807866,
				"element": "C" 
			},
			{
				"x": -1.5842449697,
				"y": -0.065663463,
				"z": 0.5141934249,
				"element": "C" 
			},
			{
				"x": -1.0858807514,
				"y": 1.2568603502,
				"z": -0.0478714427,
				"element": "C" 
			},
			{
				"x": 0.2431984531,
				"y": 1.2672518234,
				"z": -0.6683758693,
				"element": "N" 
			},
			{
				"x": 1.3898489959,
				"y": 1.0541523944,
				"z": 0.2325818558,
				"element": "C" 
			},
			{
				"x": 2.1991371059,
				"y": -0.18644061,
				"z": -0.1452994785,
				"element": "C" 
			},
			{
				"x": 2.6766226445,
				"y": -0.1300222409,
				"z": -1.4862140756,
				"element": "O" 
			},
			{
				"x": 1.7864296754,
				"y": 0.5140856671,
				"z": -2.3998187376,
				"element": "C" 
			},
			{
				"x": 0.341286334,
				"y": 0.5097304708,
				"z": -1.9138608075,
				"element": "C" 
			},
			{
				"x": -1.3760867852,
				"y": -0.4448085776,
				"z": 1.8514185103,
				"element": "C" 
			},
			{
				"x": -1.8198964972,
				"y": -1.674043035,
				"z": 2.3129807926,
				"element": "C" 
			},
			{
				"x": -3.2378562624,
				"y": -4.3628292079,
				"z": 1.0446438663,
				"element": "H" 
			},
			{
				"x": -2.5295006889,
				"y": -4.2110365337,
				"z": 2.5846767606,
				"element": "H" 
			},
			{
				"x": -2.5029115075,
				"y": -0.7423015043,
				"z": -1.3160842198,
				"element": "H" 
			},
			{
				"x": -1.7939048947,
				"y": 1.6118979275,
				"z": -0.8079572297,
				"element": "H" 
			},
			{
				"x": -1.0831270829,
				"y": 2.009796407,
				"z": 0.7495765933,
				"element": "H" 
			},
			{
				"x": 2.0531654423,
				"y": 1.9315351762,
				"z": 0.204276415,
				"element": "H" 
			},
			{
				"x": 1.0496408158,
				"y": 0.9464659795,
				"z": 1.2681353339,
				"element": "H" 
			},
			{
				"x": 1.5854749738,
				"y": -1.0879312163,
				"z": 0.0073608758,
				"element": "H" 
			},
			{
				"x": 3.083251654,
				"y": -0.2742029489,
				"z": 0.495723472,
				"element": "H" 
			},
			{
				"x": 1.864971995,
				"y": -0.0165953822,
				"z": -3.3552872932,
				"element": "H" 
			},
			{
				"x": 2.1085346774,
				"y": 1.5542590338,
				"z": -2.561259229,
				"element": "H" 
			},
			{
				"x": 0.0024836672,
				"y": -0.5377500893,
				"z": -1.8198675938,
				"element": "H" 
			},
			{
				"x": -0.2976700223,
				"y": 0.9830418787,
				"z": -2.6720981845,
				"element": "H" 
			},
			{
				"x": -0.8813336907,
				"y": 0.237245338,
				"z": 2.5394658542,
				"element": "H" 
			},
			{
				"x": -1.6808008602,
				"y": -1.968838319,
				"z": 3.3490741883,
				"element": "H" 
			}
		],
		 "valence_orbital": [ 
			{
				"type": "occ",
				"energy": -0.27812,
				"method": "rhf"
			},
			{
				"type": "occ",
				"energy": -0.25513,
				"method": "rhf"
			},
			{
				"type": "occ",
				"energy": -0.24055,
				"method": "rhf"
			},
			{
				"type": "occ",
				"energy": -0.21399,
				"method": "rhf"
			},
			{
				"type": "occ",
				"energy": -0.19902,
				"method": "rhf"
			},
			{
				"type": "unocc",
				"energy": -0.01732,
				"method": "rhf"
			},
			{
				"type": "unocc",
				"energy": 0.0066,
				"method": "rhf"
			},
			{
				"type": "unocc",
				"energy": 0.08179,
				"method": "rhf"
			},
			{
				"type": "unocc",
				"energy": 0.08747,
				"method": "rhf"
			},
			{
				"type": "unocc",
				"energy": 0.10123,
				"method": "rhf"
			}
		],
		"cosmo_sigma_profile": { 
			"-0.025": 0.0,
			"-0.024": 0.0,
			"-0.023": 0.0,
			"-0.022": 0.0,
			"-0.021": 0.0,
			"-0.02": 0.0,
			"-0.019": 0.0,
			"-0.018": 0.0,
			"-0.017": 0.0,
			"-0.016": 0.0,
			"-0.015": 0.0,
			"-0.014": 0.0,
			"-0.013": 1.06532091223,
			"-0.012": 2.13219453105,
			"-0.011": 2.66601557779,
			"-0.01": 2.17105708425,
			"-0.009": 2.45200576454,
			"-0.008": 2.5161675087,
			"-0.007": 2.90361636666,
			"-0.006": 7.85940544187,
			"-0.005": 13.1359509189,
			"-0.004": 23.6700182542,
			"-0.003": 24.794782382,
			"-0.002": 26.7990952837,
			"-0.001": 23.7945710917,
			"0.0": 14.690409424,
			"0.001": 10.8906785768,
			"0.002": 10.4899949628,
			"0.003": 11.9047562331,
			"0.004": 12.4031984148,
			"0.005": 6.94653575328,
			"0.006": 5.39327055201,
			"0.007": 3.49565229264,
			"0.008": 3.94683580127,
			"0.009": 5.00968915735,
			"0.01": 3.1254718341,
			"0.011": 3.28262024876,
			"0.012": 3.53202871118,
			"0.013": 2.97765200366,
			"0.014": 3.19593102248,
			"0.015": 1.17948041366,
			"0.016": 0.712299222052,
			"0.017": 0.0993727733834,
			"0.018": 0.0,
			"0.019": 0.0,
			"0.02": 0.0,
			"0.021": 0.0,
			"0.022": 0.0,
			"0.023": 0.0,
			"0.024": 0.0,
			"0.025": 0.0
		}
	}
}
