{
	 "smiles": "CC1=CC2=NC(C3=CC=CS3)=C(N)N2C=C1", 
	 "Tm": 497.15, 
	 "num_atms": 27, 
	 "gaussian": { 
		 "optdone": 1, 
		 "sigma_profile": "yes", 
		 "theory": "DFT", 
		 "functional": "B3LYP", 
		 "basiset": "6-31G**", 
		 "properties": { 
			 "R2extent": 6400.8598, 
			 "electric_dipole_moment_norm": 3.80377168873, 
			 "electric_quadrupole_moment_norm": 13.9968492029, 
			 "total_energy": -1026.33914998, 
			 "HOMO_LUMO_gap": 0.14496, 
			 "cosmo_polarized_energy": -16.19, 
			 "cosmo_cavitation_energy": 32.38, 
			 "cosmo_dispersion_energy": -24.49, 
			 "cosmo_repulsion_energy": 1.83, 
			 "cosmo_total_nonelectrostatic_energy": 9.73, 
			 "SMD_solvation_energy": 3.86 
		},
		"coords": [
			{
				"x": -4.1256133147,
				"y": -2.295316638,
				"z": -1.0911334176,
				"element": "C" 
			},
			{
				"x": -2.9496937081,
				"y": -1.4748938774,
				"z": -0.6239296373,
				"element": "C" 
			},
			{
				"x": -2.9966832748,
				"y": -0.7332378071,
				"z": 0.5352636913,
				"element": "C" 
			},
			{
				"x": -1.881176685,
				"y": 0.0313997925,
				"z": 0.9518627706,
				"element": "C" 
			},
			{
				"x": -1.6960794249,
				"y": 0.7966745085,
				"z": 2.0153110534,
				"element": "N" 
			},
			{
				"x": -0.4231894627,
				"y": 1.3065564566,
				"z": 1.8938324549,
				"element": "C" 
			},
			{
				"x": 0.1351771501,
				"y": 2.2150840602,
				"z": 2.8785327373,
				"element": "C" 
			},
			{
				"x": 1.4524072083,
				"y": 2.4543393243,
				"z": 3.2123159736,
				"element": "C" 
			},
			{
				"x": 1.6091324726,
				"y": 3.4548520465,
				"z": 4.2160853801,
				"element": "C" 
			},
			{
				"x": 0.413307284,
				"y": 3.9617108197,
				"z": 4.6458008014,
				"element": "C" 
			},
			{
				"x": -0.9295423706,
				"y": 3.2265770173,
				"z": 3.8304124027,
				"element": "S" 
			},
			{
				"x": 0.1881460923,
				"y": 0.8544645572,
				"z": 0.7252310368,
				"element": "C" 
			},
			{
				"x": 1.4377879973,
				"y": 1.0758209394,
				"z": 0.1316713264,
				"element": "N" 
			},
			{
				"x": -0.73047061,
				"y": 0.0181152202,
				"z": 0.1321335246,
				"element": "N" 
			},
			{
				"x": -0.6578857,
				"y": -0.7326934095,
				"z": -1.0186979205,
				"element": "C" 
			},
			{
				"x": -1.7428873035,
				"y": -1.4667074115,
				"z": -1.3989831769,
				"element": "C" 
			},
			{
				"x": -4.472482019,
				"y": -1.9681863001,
				"z": -2.0788710092,
				"element": "H" 
			},
			{
				"x": -4.9663028394,
				"y": -2.2165333313,
				"z": -0.3972614186,
				"element": "H" 
			},
			{
				"x": -3.860727401,
				"y": -3.3558097779,
				"z": -1.1807071082,
				"element": "H" 
			},
			{
				"x": -3.8805348034,
				"y": -0.7112995969,
				"z": 1.1636019211,
				"element": "H" 
			},
			{
				"x": 2.2820119537,
				"y": 1.8845390857,
				"z": 2.8071659684,
				"element": "H" 
			},
			{
				"x": 2.5694163861,
				"y": 3.7660888292,
				"z": 4.6118625044,
				"element": "H" 
			},
			{
				"x": 0.2394364215,
				"y": 4.7111878011,
				"z": 5.405571951,
				"element": "H" 
			},
			{
				"x": 1.9874347319,
				"y": 1.7180720633,
				"z": 0.6908585625,
				"element": "H" 
			},
			{
				"x": 1.3505503246,
				"y": 1.4689856077,
				"z": -0.8046077948,
				"element": "H" 
			},
			{
				"x": 0.285913636,
				"y": -0.7133611732,
				"z": -1.549407105,
				"element": "H" 
			},
			{
				"x": -1.6775527411,
				"y": -2.0617288065,
				"z": -2.3040154723,
				"element": "H" 
			}
		],
		 "valence_orbital": [ 
			{
				"type": "occ",
				"energy": -0.2648,
				"method": "rhf"
			},
			{
				"type": "occ",
				"energy": -0.25905,
				"method": "rhf"
			},
			{
				"type": "occ",
				"energy": -0.24192,
				"method": "rhf"
			},
			{
				"type": "occ",
				"energy": -0.21184,
				"method": "rhf"
			},
			{
				"type": "occ",
				"energy": -0.18067,
				"method": "rhf"
			},
			{
				"type": "unocc",
				"energy": -0.03571,
				"method": "rhf"
			},
			{
				"type": "unocc",
				"energy": -0.00273,
				"method": "rhf"
			},
			{
				"type": "unocc",
				"energy": 0.01098,
				"method": "rhf"
			},
			{
				"type": "unocc",
				"energy": 0.04526,
				"method": "rhf"
			},
			{
				"type": "unocc",
				"energy": 0.05745,
				"method": "rhf"
			}
		],
		"cosmo_sigma_profile": { 
			"-0.025": 0.0,
			"-0.024": 0.0,
			"-0.023": 0.0,
			"-0.022": 0.0,
			"-0.021": 0.0,
			"-0.02": 0.0,
			"-0.019": 0.0,
			"-0.018": 0.0,
			"-0.017": 0.0,
			"-0.016": 0.0,
			"-0.015": 0.0,
			"-0.014": 0.00499174326482,
			"-0.013": 0.859412584963,
			"-0.012": 2.36490262672,
			"-0.011": 3.9437090516,
			"-0.01": 3.52505087131,
			"-0.009": 3.34591148382,
			"-0.008": 6.42099350881,
			"-0.007": 6.97874834674,
			"-0.006": 12.1247867133,
			"-0.005": 14.5007292011,
			"-0.004": 16.5327171823,
			"-0.003": 17.671287571,
			"-0.002": 15.4344271349,
			"-0.001": 15.8268483092,
			"0.0": 19.3399967755,
			"0.001": 17.3931924054,
			"0.002": 15.0696032292,
			"0.003": 22.2598016494,
			"0.004": 22.2153066153,
			"0.005": 16.9559768775,
			"0.006": 8.30007544695,
			"0.007": 3.63304055943,
			"0.008": 2.4215197287,
			"0.009": 2.50705638063,
			"0.01": 2.47152083554,
			"0.011": 1.95003223657,
			"0.012": 1.5959542053,
			"0.013": 1.49357819682,
			"0.014": 1.75985405953,
			"0.015": 1.37115966303,
			"0.016": 0.514742678712,
			"0.017": 0.719873332597,
			"0.018": 0.0,
			"0.019": 0.0,
			"0.02": 0.0,
			"0.021": 0.0,
			"0.022": 0.0,
			"0.023": 0.0,
			"0.024": 0.0,
			"0.025": 0.0
		}
	}
}
