{
	 "smiles": "NC(=S)CC1=NC2=C(S1)C=CC=C2", 
	 "Tm": 447.15, 
	 "num_atms": 21, 
	 "gaussian": { 
		 "optdone": 1, 
		 "sigma_profile": "yes", 
		 "theory": "DFT", 
		 "functional": "B3LYP", 
		 "basiset": "6-31G**", 
		 "properties": { 
			 "R2extent": 4855.5586, 
			 "electric_dipole_moment_norm": 5.46274182531, 
			 "electric_quadrupole_moment_norm": 24.1634522846, 
			 "total_energy": -1253.67848435, 
			 "HOMO_LUMO_gap": 0.15408, 
			 "cosmo_polarized_energy": -13.61, 
			 "cosmo_cavitation_energy": 28.46, 
			 "cosmo_dispersion_energy": -22.07, 
			 "cosmo_repulsion_energy": 1.66, 
			 "cosmo_total_nonelectrostatic_energy": 8.05, 
			 "SMD_solvation_energy": 2.17 
		},
		"coords": [
			{
				"x": -1.6559680338,
				"y": -2.3321901965,
				"z": 1.8848527462,
				"element": "N" 
			},
			{
				"x": -1.0400926932,
				"y": -3.4839450849,
				"z": 1.5929488678,
				"element": "C" 
			},
			{
				"x": -1.0488589534,
				"y": -4.8248142812,
				"z": 2.5798654285,
				"element": "S" 
			},
			{
				"x": -0.3700837594,
				"y": -3.5344875602,
				"z": 0.2135237484,
				"element": "C" 
			},
			{
				"x": 0.2778240567,
				"y": -2.2645872537,
				"z": -0.2745889326,
				"element": "C" 
			},
			{
				"x": -0.2783339678,
				"y": -1.0922436416,
				"z": -0.2425395918,
				"element": "N" 
			},
			{
				"x": 0.5444044376,
				"y": -0.1155095199,
				"z": -0.785137805,
				"element": "C" 
			},
			{
				"x": 1.7922987817,
				"y": -0.5841460515,
				"z": -1.2611973518,
				"element": "C" 
			},
			{
				"x": 1.8994710282,
				"y": -2.3116224053,
				"z": -0.987612335,
				"element": "S" 
			},
			{
				"x": 2.7233401416,
				"y": 0.2832059557,
				"z": -1.8385023829,
				"element": "C" 
			},
			{
				"x": 2.3896389791,
				"y": 1.6314576848,
				"z": -1.9341150334,
				"element": "C" 
			},
			{
				"x": 1.1527985066,
				"y": 2.1081670866,
				"z": -1.464816782,
				"element": "C" 
			},
			{
				"x": 0.2266550089,
				"y": 1.2462427493,
				"z": -0.8909276506,
				"element": "C" 
			},
			{
				"x": -1.5454261353,
				"y": -1.5258508627,
				"z": 1.2726588235,
				"element": "H" 
			},
			{
				"x": -2.118812741,
				"y": -2.2476799414,
				"z": 2.7781667511,
				"element": "H" 
			},
			{
				"x": -1.1542320472,
				"y": -3.8133617022,
				"z": -0.504774744,
				"element": "H" 
			},
			{
				"x": 0.3486504666,
				"y": -4.3532939589,
				"z": 0.2238714602,
				"element": "H" 
			},
			{
				"x": 3.6792825164,
				"y": -0.0798362221,
				"z": -2.2015344981,
				"element": "H" 
			},
			{
				"x": 3.0974370504,
				"y": 2.3244109768,
				"z": -2.3786692196,
				"element": "H" 
			},
			{
				"x": 0.9197219082,
				"y": 3.1647654913,
				"z": -1.5534932581,
				"element": "H" 
			},
			{
				"x": -0.732114551,
				"y": 1.6007187376,
				"z": -0.5269782409,
				"element": "H" 
			}
		],
		 "valence_orbital": [ 
			{
				"type": "occ",
				"energy": -0.29885,
				"method": "rhf"
			},
			{
				"type": "occ",
				"energy": -0.25439,
				"method": "rhf"
			},
			{
				"type": "occ",
				"energy": -0.24976,
				"method": "rhf"
			},
			{
				"type": "occ",
				"energy": -0.22704,
				"method": "rhf"
			},
			{
				"type": "occ",
				"energy": -0.20531,
				"method": "rhf"
			},
			{
				"type": "unocc",
				"energy": -0.05123,
				"method": "rhf"
			},
			{
				"type": "unocc",
				"energy": -0.02784,
				"method": "rhf"
			},
			{
				"type": "unocc",
				"energy": -0.01943,
				"method": "rhf"
			},
			{
				"type": "unocc",
				"energy": -0.00657,
				"method": "rhf"
			},
			{
				"type": "unocc",
				"energy": 0.01575,
				"method": "rhf"
			}
		],
		"cosmo_sigma_profile": { 
			"-0.025": 0.0,
			"-0.024": 0.0,
			"-0.023": 0.0,
			"-0.022": 0.0,
			"-0.021": 0.0,
			"-0.02": 0.0,
			"-0.019": 0.0,
			"-0.018": 0.0,
			"-0.017": 0.0,
			"-0.016": 0.0,
			"-0.015": 0.67849250776,
			"-0.014": 1.14194823855,
			"-0.013": 1.33976584986,
			"-0.012": 0.756890078222,
			"-0.011": 1.8580870051,
			"-0.01": 1.40376534568,
			"-0.009": 2.05843777709,
			"-0.008": 6.63499148997,
			"-0.007": 9.29284613035,
			"-0.006": 12.9594838048,
			"-0.005": 15.1565103854,
			"-0.004": 13.6261300245,
			"-0.003": 12.5383702673,
			"-0.002": 12.8151570129,
			"-0.001": 14.113409222,
			"0.0": 14.5450702371,
			"0.001": 19.1247188137,
			"0.002": 18.7910383368,
			"0.003": 19.0235801382,
			"0.004": 14.3844205363,
			"0.005": 7.5164156738,
			"0.006": 3.99205233759,
			"0.007": 5.15080606461,
			"0.008": 5.06485950945,
			"0.009": 7.3944945062,
			"0.01": 5.109153163,
			"0.011": 4.06243463296,
			"0.012": 2.6656231054,
			"0.013": 0.220432212422,
			"0.014": 0.0,
			"0.015": 0.0,
			"0.016": 0.0,
			"0.017": 0.0,
			"0.018": 0.0,
			"0.019": 0.0,
			"0.02": 0.0,
			"0.021": 0.0,
			"0.022": 0.0,
			"0.023": 0.0,
			"0.024": 0.0,
			"0.025": 0.0
		}
	}
}
