{
	 "smiles": "COC(=O)CC[C@H](C)[C@H]1CCC2C3C(CC[C@]12C)[C@@]1(C)CCCC[C@H]1CC3=O", 
	 "Tm": 366.05, 
	 "num_atms": 68, 
	 "gaussian": { 
		 "optdone": 1, 
		 "sigma_profile": "yes", 
		 "theory": "DFT", 
		 "functional": "B3LYP", 
		 "basiset": "6-31G**", 
		 "properties": { 
			 "R2extent": 12965.1329, 
			 "electric_dipole_moment_norm": 4.46344654947, 
			 "electric_quadrupole_moment_norm": 16.7137818988, 
			 "total_energy": -1202.46523082, 
			 "HOMO_LUMO_gap": 0.21832, 
			 "cosmo_polarized_energy": -11.72, 
			 "cosmo_cavitation_energy": 57.58, 
			 "cosmo_dispersion_energy": -39.06, 
			 "cosmo_repulsion_energy": 2.9, 
			 "cosmo_total_nonelectrostatic_energy": 21.41, 
			 "SMD_solvation_energy": 9.65 
		},
		"coords": [
			{
				"x": 4.1878053587,
				"y": -3.6999625562,
				"z": -3.9266681912,
				"element": "C" 
			},
			{
				"x": 3.1806380338,
				"y": -2.7406215024,
				"z": -3.572959762,
				"element": "O" 
			},
			{
				"x": 3.609571893,
				"y": -1.4576414358,
				"z": -3.4867780484,
				"element": "C" 
			},
			{
				"x": 4.7559386543,
				"y": -1.1270652919,
				"z": -3.7028401626,
				"element": "O" 
			},
			{
				"x": 2.4755508621,
				"y": -0.5366977401,
				"z": -3.0857470255,
				"element": "C" 
			},
			{
				"x": 2.8775122213,
				"y": 0.9405288803,
				"z": -3.0989640089,
				"element": "C" 
			},
			{
				"x": 1.7398077637,
				"y": 1.9205059492,
				"z": -2.7267616887,
				"element": "C" 
			},
			{
				"x": 2.1442737056,
				"y": 3.3380378748,
				"z": -3.1724440145,
				"element": "C" 
			},
			{
				"x": 1.3570944132,
				"y": 1.794571076,
				"z": -1.2254063331,
				"element": "C" 
			},
			{
				"x": 2.1128382436,
				"y": 2.6929397878,
				"z": -0.2272434884,
				"element": "C" 
			},
			{
				"x": 1.3903528466,
				"y": 2.4352180639,
				"z": 1.1108310302,
				"element": "C" 
			},
			{
				"x": -0.0824686425,
				"y": 2.0732971712,
				"z": 0.7425425725,
				"element": "C" 
			},
			{
				"x": -0.6396520563,
				"y": 0.8487939133,
				"z": 1.5039026321,
				"element": "C" 
			},
			{
				"x": -2.1112279038,
				"y": 0.4836323714,
				"z": 1.0743063178,
				"element": "C" 
			},
			{
				"x": -2.3391239242,
				"y": 0.735714891,
				"z": -0.4473580014,
				"element": "C" 
			},
			{
				"x": -1.0403539738,
				"y": 0.8110261798,
				"z": -1.2692954357,
				"element": "C" 
			},
			{
				"x": -0.1425823817,
				"y": 1.9873206442,
				"z": -0.8273231814,
				"element": "C" 
			},
			{
				"x": -0.7264589769,
				"y": 3.305161247,
				"z": -1.3803261801,
				"element": "C" 
			},
			{
				"x": -2.5936561433,
				"y": -0.9354449888,
				"z": 1.5770527613,
				"element": "C" 
			},
			{
				"x": -4.1078283357,
				"y": -0.7970870995,
				"z": 1.8585745055,
				"element": "C" 
			},
			{
				"x": -2.3674839129,
				"y": -2.0748702523,
				"z": 0.5257865959,
				"element": "C" 
			},
			{
				"x": -2.1456686765,
				"y": -3.4918843481,
				"z": 1.1191798111,
				"element": "C" 
			},
			{
				"x": -2.7865665906,
				"y": -3.6970525945,
				"z": 2.4987691805,
				"element": "C" 
			},
			{
				"x": -2.3641379555,
				"y": -2.6158980822,
				"z": 3.5278098674,
				"element": "C" 
			},
			{
				"x": -1.8394131691,
				"y": -1.3044778032,
				"z": 2.8865804707,
				"element": "C" 
			},
			{
				"x": -0.3078571055,
				"y": -1.3825924832,
				"z": 2.6374722312,
				"element": "C" 
			},
			{
				"x": 0.1835045907,
				"y": -0.4266475778,
				"z": 1.5606646283,
				"element": "C" 
			},
			{
				"x": 1.1310803766,
				"y": -0.7068709995,
				"z": 0.8440455741,
				"element": "O" 
			},
			{
				"x": 3.6813236495,
				"y": -4.6651478199,
				"z": -3.9519641287,
				"element": "H" 
			},
			{
				"x": 4.6181097245,
				"y": -3.4680715003,
				"z": -4.9045588307,
				"element": "H" 
			},
			{
				"x": 4.9912605069,
				"y": -3.7094757791,
				"z": -3.1853865849,
				"element": "H" 
			},
			{
				"x": 2.1321262796,
				"y": -0.8607910798,
				"z": -2.095641618,
				"element": "H" 
			},
			{
				"x": 1.6340770484,
				"y": -0.7255423536,
				"z": -3.7647163136,
				"element": "H" 
			},
			{
				"x": 3.7287482808,
				"y": 1.0881369466,
				"z": -2.4233656416,
				"element": "H" 
			},
			{
				"x": 3.2512617847,
				"y": 1.1852690452,
				"z": -4.1001614075,
				"element": "H" 
			},
			{
				"x": 0.8586927642,
				"y": 1.6297251891,
				"z": -3.3194242633,
				"element": "H" 
			},
			{
				"x": 3.0885495071,
				"y": 3.6438831864,
				"z": -2.7085547872,
				"element": "H" 
			},
			{
				"x": 1.3929587258,
				"y": 4.090101451,
				"z": -2.9206845021,
				"element": "H" 
			},
			{
				"x": 2.2911619082,
				"y": 3.3667032123,
				"z": -4.2577494715,
				"element": "H" 
			},
			{
				"x": 1.5841129132,
				"y": 0.7702631339,
				"z": -0.9162998943,
				"element": "H" 
			},
			{
				"x": 2.0358099233,
				"y": 3.7492007743,
				"z": -0.5083054168,
				"element": "H" 
			},
			{
				"x": 3.1808407881,
				"y": 2.4569919182,
				"z": -0.1714966102,
				"element": "H" 
			},
			{
				"x": 1.4399359725,
				"y": 3.2982944038,
				"z": 1.7828417089,
				"element": "H" 
			},
			{
				"x": 1.8695960616,
				"y": 1.5996299612,
				"z": 1.6270699988,
				"element": "H" 
			},
			{
				"x": -0.735124743,
				"y": 2.9004906483,
				"z": 1.0506229955,
				"element": "H" 
			},
			{
				"x": -0.7086865862,
				"y": 1.1497648592,
				"z": 2.5600001353,
				"element": "H" 
			},
			{
				"x": -2.737455971,
				"y": 1.2049164333,
				"z": 1.612496371,
				"element": "H" 
			},
			{
				"x": -2.8872100056,
				"y": 1.676094328,
				"z": -0.5713995676,
				"element": "H" 
			},
			{
				"x": -2.9923129316,
				"y": -0.0346402917,
				"z": -0.8665478381,
				"element": "H" 
			},
			{
				"x": -1.2924014028,
				"y": 0.908766396,
				"z": -2.3328835352,
				"element": "H" 
			},
			{
				"x": -0.4841745594,
				"y": -0.1272139128,
				"z": -1.168898996,
				"element": "H" 
			},
			{
				"x": -0.7477337529,
				"y": 3.3056388083,
				"z": -2.4749769567,
				"element": "H" 
			},
			{
				"x": -1.7547534412,
				"y": 3.4563681753,
				"z": -1.0342661214,
				"element": "H" 
			},
			{
				"x": -0.1508066659,
				"y": 4.1768497816,
				"z": -1.0534054813,
				"element": "H" 
			},
			{
				"x": -4.5809208164,
				"y": -1.7490049883,
				"z": 2.109158629,
				"element": "H" 
			},
			{
				"x": -4.6237410686,
				"y": -0.4033288534,
				"z": 0.97562591,
				"element": "H" 
			},
			{
				"x": -4.2920390545,
				"y": -0.1022304212,
				"z": 2.6863430883,
				"element": "H" 
			},
			{
				"x": -1.5119298882,
				"y": -1.8409063179,
				"z": -0.1148336681,
				"element": "H" 
			},
			{
				"x": -3.2363142839,
				"y": -2.1016301752,
				"z": -0.1410681985,
				"element": "H" 
			},
			{
				"x": -1.0715142614,
				"y": -3.6948826747,
				"z": 1.1901251711,
				"element": "H" 
			},
			{
				"x": -2.5362456837,
				"y": -4.2397605149,
				"z": 0.4197171057,
				"element": "H" 
			},
			{
				"x": -3.8769658595,
				"y": -3.6966732382,
				"z": 2.3877302217,
				"element": "H" 
			},
			{
				"x": -2.5305061639,
				"y": -4.6928709595,
				"z": 2.8774928048,
				"element": "H" 
			},
			{
				"x": -1.5817297445,
				"y": -3.0104464816,
				"z": 4.1871325814,
				"element": "H" 
			},
			{
				"x": -3.214478933,
				"y": -2.3888873474,
				"z": 4.1798081286,
				"element": "H" 
			},
			{
				"x": -2.0189540157,
				"y": -0.4933886337,
				"z": 3.6049002317,
				"element": "H" 
			},
			{
				"x": 0.0259370556,
				"y": -2.3867241026,
				"z": 2.3681438557,
				"element": "H" 
			},
			{
				"x": 0.2220077241,
				"y": -1.1255045009,
				"z": 3.5660782393,
				"element": "H" 
			}
		],
		 "valence_orbital": [ 
			{
				"type": "occ",
				"energy": -0.28205,
				"method": "rhf"
			},
			{
				"type": "occ",
				"energy": -0.27977,
				"method": "rhf"
			},
			{
				"type": "occ",
				"energy": -0.27537,
				"method": "rhf"
			},
			{
				"type": "occ",
				"energy": -0.25942,
				"method": "rhf"
			},
			{
				"type": "occ",
				"energy": -0.23362,
				"method": "rhf"
			},
			{
				"type": "unocc",
				"energy": -0.0153,
				"method": "rhf"
			},
			{
				"type": "unocc",
				"energy": 0.02548,
				"method": "rhf"
			},
			{
				"type": "unocc",
				"energy": 0.06041,
				"method": "rhf"
			},
			{
				"type": "unocc",
				"energy": 0.07706,
				"method": "rhf"
			},
			{
				"type": "unocc",
				"energy": 0.09014,
				"method": "rhf"
			}
		],
		"cosmo_sigma_profile": { 
			"-0.025": 0.0,
			"-0.024": 0.0,
			"-0.023": 0.0,
			"-0.022": 0.0,
			"-0.021": 0.0,
			"-0.02": 0.0,
			"-0.019": 0.0,
			"-0.018": 0.0,
			"-0.017": 0.0,
			"-0.016": 0.0,
			"-0.015": 0.0,
			"-0.014": 0.0,
			"-0.013": 0.0,
			"-0.012": 0.0,
			"-0.011": 0.0,
			"-0.01": 0.0,
			"-0.009": 0.0,
			"-0.008": 0.0,
			"-0.007": 0.215329069227,
			"-0.006": 4.18864595401,
			"-0.005": 14.2245734824,
			"-0.004": 18.4750497435,
			"-0.003": 33.8107229246,
			"-0.002": 79.8943646191,
			"-0.001": 81.7046976744,
			"0.0": 73.4380415151,
			"0.001": 53.0811362317,
			"0.002": 28.252488581,
			"0.003": 8.48026031302,
			"0.004": 6.11426811866,
			"0.005": 4.35554733436,
			"0.006": 5.14027037546,
			"0.007": 3.991713881,
			"0.008": 4.00494240836,
			"0.009": 5.19515206597,
			"0.01": 3.02392932407,
			"0.011": 4.37268106815,
			"0.012": 5.81547493317,
			"0.013": 3.16750173668,
			"0.014": 0.547744391104,
			"0.015": 0.0,
			"0.016": 0.0,
			"0.017": 0.0,
			"0.018": 0.0,
			"0.019": 0.0,
			"0.02": 0.0,
			"0.021": 0.0,
			"0.022": 0.0,
			"0.023": 0.0,
			"0.024": 0.0,
			"0.025": 0.0
		}
	}
}
