{
	 "smiles": "[O-][N+](=O)C1=CC(=C(CBr)C=C1)[N+]([O-])=O", 
	 "Tm": 324.15, 
	 "num_atms": 19, 
	 "gaussian": { 
		 "optdone": 1, 
		 "sigma_profile": "yes", 
		 "theory": "DFT", 
		 "functional": "B3LYP", 
		 "basiset": "6-31G**", 
		 "properties": { 
			 "R2extent": 4593.9189, 
			 "electric_dipole_moment_norm": 4.39773408132, 
			 "electric_quadrupole_moment_norm": 13.1268176818, 
			 "total_energy": -3251.35167908, 
			 "HOMO_LUMO_gap": 0.1673, 
			 "cosmo_polarized_energy": -13.63, 
			 "cosmo_cavitation_energy": 27.41, 
			 "cosmo_dispersion_energy": -20.02, 
			 "cosmo_repulsion_energy": 1.57, 
			 "cosmo_total_nonelectrostatic_energy": 8.96, 
			 "SMD_solvation_energy": 7.93 
		},
		"coords": [
			{
				"x": -4.0720758006,
				"y": -1.7818981679,
				"z": 2.982994958,
				"element": "O" 
			},
			{
				"x": -3.1679933512,
				"y": -2.2530802307,
				"z": 2.2964873466,
				"element": "N" 
			},
			{
				"x": -2.9503743112,
				"y": -3.450205779,
				"z": 2.1309527787,
				"element": "O" 
			},
			{
				"x": -2.271220995,
				"y": -1.2991860393,
				"z": 1.6178899615,
				"element": "C" 
			},
			{
				"x": -1.2442540086,
				"y": -1.7919238479,
				"z": 0.8253695198,
				"element": "C" 
			},
			{
				"x": -0.3927518048,
				"y": -0.8857324351,
				"z": 0.2012998291,
				"element": "C" 
			},
			{
				"x": -0.5507774449,
				"y": 0.5098640408,
				"z": 0.3388545255,
				"element": "C" 
			},
			{
				"x": 0.3024601971,
				"y": 1.5523707773,
				"z": -0.3214291471,
				"element": "C" 
			},
			{
				"x": -0.1976252054,
				"y": 1.7615916521,
				"z": -2.236404456,
				"element": "Br" 
			},
			{
				"x": -1.6193548897,
				"y": 0.9490705717,
				"z": 1.1377792372,
				"element": "C" 
			},
			{
				"x": -2.476562631,
				"y": 0.0666122029,
				"z": 1.7855213868,
				"element": "C" 
			},
			{
				"x": 0.690051149,
				"y": -1.4906606755,
				"z": -0.6083739034,
				"element": "N" 
			},
			{
				"x": 0.5144829903,
				"y": -2.6391857933,
				"z": -1.0024152101,
				"element": "O" 
			},
			{
				"x": 1.7019327068,
				"y": -0.8248738736,
				"z": -0.8177872659,
				"element": "O" 
			},
			{
				"x": -1.10717995,
				"y": -2.8563803855,
				"z": 0.693503959,
				"element": "H" 
			},
			{
				"x": 1.3560258683,
				"y": 1.3011582379,
				"z": -0.3297807292,
				"element": "H" 
			},
			{
				"x": 0.1291074217,
				"y": 2.5292859786,
				"z": 0.1243212993,
				"element": "H" 
			},
			{
				"x": -1.7785962613,
				"y": 2.0171156583,
				"z": 1.2469651831,
				"element": "H" 
			},
			{
				"x": -3.2921936792,
				"y": 0.4142581082,
				"z": 2.4070507271,
				"element": "H" 
			}
		],
		 "valence_orbital": [ 
			{
				"type": "occ",
				"energy": -0.31316,
				"method": "rhf"
			},
			{
				"type": "occ",
				"energy": -0.31238,
				"method": "rhf"
			},
			{
				"type": "occ",
				"energy": -0.30604,
				"method": "rhf"
			},
			{
				"type": "occ",
				"energy": -0.29122,
				"method": "rhf"
			},
			{
				"type": "occ",
				"energy": -0.2895,
				"method": "rhf"
			},
			{
				"type": "unocc",
				"energy": -0.1222,
				"method": "rhf"
			},
			{
				"type": "unocc",
				"energy": -0.10637,
				"method": "rhf"
			},
			{
				"type": "unocc",
				"energy": -0.05045,
				"method": "rhf"
			},
			{
				"type": "unocc",
				"energy": -0.03522,
				"method": "rhf"
			},
			{
				"type": "unocc",
				"energy": 0.00608,
				"method": "rhf"
			}
		],
		"cosmo_sigma_profile": { 
			"-0.025": 0.0,
			"-0.024": 0.0,
			"-0.023": 0.0,
			"-0.022": 0.0,
			"-0.021": 0.0,
			"-0.02": 0.0,
			"-0.019": 0.0,
			"-0.018": 0.0,
			"-0.017": 0.0,
			"-0.016": 0.0,
			"-0.015": 0.0,
			"-0.014": 0.0,
			"-0.013": 0.0,
			"-0.012": 0.0,
			"-0.011": 0.760742617207,
			"-0.01": 2.89348885335,
			"-0.009": 5.80063794109,
			"-0.008": 7.6861420683,
			"-0.007": 9.47968257431,
			"-0.006": 11.1475728111,
			"-0.005": 12.8022304385,
			"-0.004": 14.7711811676,
			"-0.003": 20.3743284002,
			"-0.002": 14.9993785558,
			"-0.001": 12.7867260117,
			"0.0": 10.0458171752,
			"0.001": 7.80498618198,
			"0.002": 8.39584944047,
			"0.003": 10.3171332537,
			"0.004": 11.7608335526,
			"0.005": 17.5641628257,
			"0.006": 14.7318063401,
			"0.007": 14.4686383845,
			"0.008": 8.93252304754,
			"0.009": 5.76653398529,
			"0.01": 0.577915684732,
			"0.011": 0.0,
			"0.012": 0.0,
			"0.013": 0.0,
			"0.014": 0.0,
			"0.015": 0.0,
			"0.016": 0.0,
			"0.017": 0.0,
			"0.018": 0.0,
			"0.019": 0.0,
			"0.02": 0.0,
			"0.021": 0.0,
			"0.022": 0.0,
			"0.023": 0.0,
			"0.024": 0.0,
			"0.025": 0.0
		}
	}
}
