{
	 "smiles": "[O-][N+](=O)C1=CSC=C1", 
	 "Tm": 351.65, 
	 "num_atms": 11, 
	 "gaussian": { 
		 "optdone": 1, 
		 "sigma_profile": "yes", 
		 "theory": "DFT", 
		 "functional": "B3LYP", 
		 "basiset": "6-31G**", 
		 "properties": { 
			 "R2extent": 1758.3523, 
			 "electric_dipole_moment_norm": 4.17224478429, 
			 "electric_quadrupole_moment_norm": 9.44733357832, 
			 "total_energy": -757.49702834, 
			 "HOMO_LUMO_gap": 0.18247, 
			 "cosmo_polarized_energy": -8.06, 
			 "cosmo_cavitation_energy": 17.78, 
			 "cosmo_dispersion_energy": -13.89, 
			 "cosmo_repulsion_energy": 1.1, 
			 "cosmo_total_nonelectrostatic_energy": 4.99, 
			 "SMD_solvation_energy": 5.77 
		},
		"coords": [
			{
				"x": -1.798724588,
				"y": 2.0296071616,
				"z": -2.4250289026,
				"element": "O" 
			},
			{
				"x": -1.2849411707,
				"y": 1.9033807477,
				"z": -1.3130401272,
				"element": "N" 
			},
			{
				"x": -1.7637100349,
				"y": 2.3192185154,
				"z": -0.2569808706,
				"element": "O" 
			},
			{
				"x": -0.0129268587,
				"y": 1.209643097,
				"z": -1.2332526833,
				"element": "C" 
			},
			{
				"x": 0.6131968444,
				"y": 0.704338894,
				"z": -2.3420497853,
				"element": "C" 
			},
			{
				"x": 2.0917698413,
				"y": -0.0514188778,
				"z": -1.8959427516,
				"element": "S" 
			},
			{
				"x": 1.8481809749,
				"y": 0.3235758735,
				"z": -0.2126445867,
				"element": "C" 
			},
			{
				"x": 0.6821811825,
				"y": 0.9994756046,
				"z": -0.0056389579,
				"element": "C" 
			},
			{
				"x": 0.2691677886,
				"y": 0.7492462294,
				"z": -3.3640509924,
				"element": "H" 
			},
			{
				"x": 2.5846935157,
				"y": 0.0194435866,
				"z": 0.517687033,
				"element": "H" 
			},
			{
				"x": 0.3148125049,
				"y": 1.3397891681,
				"z": 0.9525426245,
				"element": "H" 
			}
		],
		 "valence_orbital": [ 
			{
				"type": "occ",
				"energy": -0.31008,
				"method": "rhf"
			},
			{
				"type": "occ",
				"energy": -0.30755,
				"method": "rhf"
			},
			{
				"type": "occ",
				"energy": -0.29203,
				"method": "rhf"
			},
			{
				"type": "occ",
				"energy": -0.28628,
				"method": "rhf"
			},
			{
				"type": "occ",
				"energy": -0.27043,
				"method": "rhf"
			},
			{
				"type": "unocc",
				"energy": -0.08796,
				"method": "rhf"
			},
			{
				"type": "unocc",
				"energy": -0.03093,
				"method": "rhf"
			},
			{
				"type": "unocc",
				"energy": 0.0029,
				"method": "rhf"
			},
			{
				"type": "unocc",
				"energy": 0.06201,
				"method": "rhf"
			},
			{
				"type": "unocc",
				"energy": 0.07129,
				"method": "rhf"
			}
		],
		"cosmo_sigma_profile": { 
			"-0.025": 0.0,
			"-0.024": 0.0,
			"-0.023": 0.0,
			"-0.022": 0.0,
			"-0.021": 0.0,
			"-0.02": 0.0,
			"-0.019": 0.0,
			"-0.018": 0.0,
			"-0.017": 0.0,
			"-0.016": 0.0,
			"-0.015": 0.0,
			"-0.014": 0.0,
			"-0.013": 0.0,
			"-0.012": 0.0,
			"-0.011": 0.556474240485,
			"-0.01": 2.91308204732,
			"-0.009": 4.36624941566,
			"-0.008": 4.47899229878,
			"-0.007": 4.29354059742,
			"-0.006": 6.03793185452,
			"-0.005": 7.16533810007,
			"-0.004": 7.16004272376,
			"-0.003": 6.53020648457,
			"-0.002": 9.66019181147,
			"-0.001": 12.1507168997,
			"0.0": 19.12755041,
			"0.001": 14.1091785486,
			"0.002": 9.1065928994,
			"0.003": 5.15204713211,
			"0.004": 2.72177936909,
			"0.005": 2.00150981677,
			"0.006": 3.85041749507,
			"0.007": 7.16496269177,
			"0.008": 9.35778364498,
			"0.009": 4.43125267955,
			"0.01": 3.16150640722,
			"0.011": 0.327469613672,
			"0.012": 0.0,
			"0.013": 0.0,
			"0.014": 0.0,
			"0.015": 0.0,
			"0.016": 0.0,
			"0.017": 0.0,
			"0.018": 0.0,
			"0.019": 0.0,
			"0.02": 0.0,
			"0.021": 0.0,
			"0.022": 0.0,
			"0.023": 0.0,
			"0.024": 0.0,
			"0.025": 0.0
		}
	}
}
