{
	 "smiles": "COC1=C(C=C(CCl)C=C1)S(C)(=O)=O", 
	 "Tm": 392.15, 
	 "num_atms": 25, 
	 "gaussian": { 
		 "optdone": 1, 
		 "sigma_profile": "yes", 
		 "theory": "DFT", 
		 "functional": "B3LYP", 
		 "basiset": "6-31G**", 
		 "properties": { 
			 "R2extent": 4350.3218, 
			 "electric_dipole_moment_norm": 5.43442421697, 
			 "electric_quadrupole_moment_norm": 11.6979995465, 
			 "total_energy": -1433.56427969, 
			 "HOMO_LUMO_gap": 0.21017, 
			 "cosmo_polarized_energy": -16.61, 
			 "cosmo_cavitation_energy": 31.48, 
			 "cosmo_dispersion_energy": -22.96, 
			 "cosmo_repulsion_energy": 1.78, 
			 "cosmo_total_nonelectrostatic_energy": 10.3, 
			 "SMD_solvation_energy": 5.65 
		},
		"coords": [
			{
				"x": -2.8862720334,
				"y": -0.1756998658,
				"z": -0.5224880268,
				"element": "C" 
			},
			{
				"x": -2.0798646297,
				"y": 0.223118021,
				"z": 0.6017185384,
				"element": "O" 
			},
			{
				"x": -0.7304062746,
				"y": 0.0346237665,
				"z": 0.4591319958,
				"element": "C" 
			},
			{
				"x": 0.1161837382,
				"y": 1.128690372,
				"z": 0.2278798183,
				"element": "C" 
			},
			{
				"x": 1.4988604697,
				"y": 0.9587493782,
				"z": 0.1572363188,
				"element": "C" 
			},
			{
				"x": 2.0634146865,
				"y": -0.3102522411,
				"z": 0.3150083131,
				"element": "C" 
			},
			{
				"x": 3.5498641708,
				"y": -0.496456752,
				"z": 0.2432824322,
				"element": "C" 
			},
			{
				"x": 4.0964422913,
				"y": -1.1207471316,
				"z": -1.3927349273,
				"element": "Cl" 
			},
			{
				"x": 1.2137340031,
				"y": -1.4018541158,
				"z": 0.547262975,
				"element": "C" 
			},
			{
				"x": -0.165614814,
				"y": -1.2350651265,
				"z": 0.6220934942,
				"element": "C" 
			},
			{
				"x": -0.5495762326,
				"y": 2.7812261783,
				"z": -0.0672274865,
				"element": "S" 
			},
			{
				"x": -1.3924048716,
				"y": 3.200294139,
				"z": 1.4717939715,
				"element": "C" 
			},
			{
				"x": -1.5604522202,
				"y": 2.697255253,
				"z": -1.1343626121,
				"element": "O" 
			},
			{
				"x": 0.6039627897,
				"y": 3.6841175929,
				"z": -0.2133074231,
				"element": "O" 
			},
			{
				"x": -3.9231840207,
				"y": -0.0595622217,
				"z": -0.2041997056,
				"element": "H" 
			},
			{
				"x": -2.7002384576,
				"y": -1.2234590434,
				"z": -0.7845416697,
				"element": "H" 
			},
			{
				"x": -2.6831881111,
				"y": 0.474635353,
				"z": -1.3775306699,
				"element": "H" 
			},
			{
				"x": 2.1177193311,
				"y": 1.831251309,
				"z": -0.0285089478,
				"element": "H" 
			},
			{
				"x": 3.904646266,
				"y": -1.2337451285,
				"z": 0.9641790718,
				"element": "H" 
			},
			{
				"x": 4.0830890964,
				"y": 0.4417566717,
				"z": 0.3943006391,
				"element": "H" 
			},
			{
				"x": 1.639795996,
				"y": -2.3933398144,
				"z": 0.6750099743,
				"element": "H" 
			},
			{
				"x": -0.8193516998,
				"y": -2.0773350649,
				"z": 0.8252711133,
				"element": "H" 
			},
			{
				"x": -1.8423268398,
				"y": 4.1823164563,
				"z": 1.3118253413,
				"element": "H" 
			},
			{
				"x": -0.6559204059,
				"y": 3.2450624215,
				"z": 2.2752758698,
				"element": "H" 
			},
			{
				"x": -2.1551122279,
				"y": 2.4460195931,
				"z": 1.663331602,
				"element": "H" 
			}
		],
		 "valence_orbital": [ 
			{
				"type": "occ",
				"energy": -0.29769,
				"method": "rhf"
			},
			{
				"type": "occ",
				"energy": -0.29671,
				"method": "rhf"
			},
			{
				"type": "occ",
				"energy": -0.29039,
				"method": "rhf"
			},
			{
				"type": "occ",
				"energy": -0.27884,
				"method": "rhf"
			},
			{
				"type": "occ",
				"energy": -0.2604,
				"method": "rhf"
			},
			{
				"type": "unocc",
				"energy": -0.05023,
				"method": "rhf"
			},
			{
				"type": "unocc",
				"energy": -0.03697,
				"method": "rhf"
			},
			{
				"type": "unocc",
				"energy": 0.02693,
				"method": "rhf"
			},
			{
				"type": "unocc",
				"energy": 0.05455,
				"method": "rhf"
			},
			{
				"type": "unocc",
				"energy": 0.07175,
				"method": "rhf"
			}
		],
		"cosmo_sigma_profile": { 
			"-0.025": 0.0,
			"-0.024": 0.0,
			"-0.023": 0.0,
			"-0.022": 0.0,
			"-0.021": 0.0,
			"-0.02": 0.0,
			"-0.019": 0.0,
			"-0.018": 0.0,
			"-0.017": 0.0,
			"-0.016": 0.0,
			"-0.015": 0.0,
			"-0.014": 0.0,
			"-0.013": 0.0,
			"-0.012": 0.0,
			"-0.011": 0.0,
			"-0.01": 0.0344969142756,
			"-0.009": 3.09264758626,
			"-0.008": 11.6606262865,
			"-0.007": 13.6662399602,
			"-0.006": 17.0576387587,
			"-0.005": 18.1837606659,
			"-0.004": 20.0405893308,
			"-0.003": 20.5570536614,
			"-0.002": 13.5454123933,
			"-0.001": 12.0616274205,
			"0.0": 13.5819078152,
			"0.001": 16.438345898,
			"0.002": 14.9033682954,
			"0.003": 11.5456642251,
			"0.004": 8.35948129722,
			"0.005": 8.55090312965,
			"0.006": 13.0436472147,
			"0.007": 8.14065361144,
			"0.008": 3.56920455,
			"0.009": 4.56329354432,
			"0.01": 4.34189386072,
			"0.011": 7.23127246865,
			"0.012": 7.76213550408,
			"0.013": 0.811945296657,
			"0.014": 0.0,
			"0.015": 0.0,
			"0.016": 0.0,
			"0.017": 0.0,
			"0.018": 0.0,
			"0.019": 0.0,
			"0.02": 0.0,
			"0.021": 0.0,
			"0.022": 0.0,
			"0.023": 0.0,
			"0.024": 0.0,
			"0.025": 0.0
		}
	}
}
