{
	 "smiles": "CC1=C(C)C2=C(S1)N=C(N=C2Cl)C1=CC=CC=C1", 
	 "Tm": 431.15, 
	 "num_atms": 29, 
	 "gaussian": { 
		 "optdone": 1, 
		 "sigma_profile": "yes", 
		 "theory": "DFT", 
		 "functional": "B3LYP", 
		 "basiset": "6-31G**", 
		 "properties": { 
			 "R2extent": 6671.2072, 
			 "electric_dipole_moment_norm": 2.67615059367, 
			 "electric_quadrupole_moment_norm": 16.3016758654, 
			 "total_energy": -1508.0251344, 
			 "HOMO_LUMO_gap": 0.15779, 
			 "cosmo_polarized_energy": -7.43, 
			 "cosmo_cavitation_energy": 36.02, 
			 "cosmo_dispersion_energy": -27.04, 
			 "cosmo_repulsion_energy": 2.02, 
			 "cosmo_total_nonelectrostatic_energy": 11.0, 
			 "SMD_solvation_energy": 3.06 
		},
		"coords": [
			{
				"x": -0.6654134023,
				"y": 2.1066488133,
				"z": -4.1983277464,
				"element": "C" 
			},
			{
				"x": -0.566388717,
				"y": 1.385661924,
				"z": -2.8819173014,
				"element": "C" 
			},
			{
				"x": 0.5613857365,
				"y": 1.1165014883,
				"z": -2.1529334513,
				"element": "C" 
			},
			{
				"x": 1.9412735031,
				"y": 1.5292301112,
				"z": -2.5933947762,
				"element": "C" 
			},
			{
				"x": 0.2474406117,
				"y": 0.4002246724,
				"z": -0.9350506241,
				"element": "C" 
			},
			{
				"x": -1.1431506638,
				"y": 0.1471853712,
				"z": -0.7834084072,
				"element": "C" 
			},
			{
				"x": -2.0477101406,
				"y": 0.7898022279,
				"z": -2.134538067,
				"element": "S" 
			},
			{
				"x": -1.7165805487,
				"y": -0.4868153205,
				"z": 0.2304950361,
				"element": "N" 
			},
			{
				"x": -0.8849666572,
				"y": -0.9186384776,
				"z": 1.187263615,
				"element": "C" 
			},
			{
				"x": 0.4577721032,
				"y": -0.7419416289,
				"z": 1.1620810967,
				"element": "N" 
			},
			{
				"x": 0.9925264801,
				"y": -0.1110671845,
				"z": 0.1452994683,
				"element": "C" 
			},
			{
				"x": 2.7476622027,
				"y": 0.0689384809,
				"z": 0.2037119791,
				"element": "Cl" 
			},
			{
				"x": -1.458390695,
				"y": -1.6346616813,
				"z": 2.3485451678,
				"element": "C" 
			},
			{
				"x": -0.6256346011,
				"y": -2.1056165895,
				"z": 3.3764951867,
				"element": "C" 
			},
			{
				"x": -1.1701030817,
				"y": -2.7790086493,
				"z": 4.467625576,
				"element": "C" 
			},
			{
				"x": -2.5486459153,
				"y": -2.9907493534,
				"z": 4.5471683934,
				"element": "C" 
			},
			{
				"x": -3.3825273235,
				"y": -2.5244465024,
				"z": 3.5272755382,
				"element": "C" 
			},
			{
				"x": -2.8436487187,
				"y": -1.8506840667,
				"z": 2.4342994506,
				"element": "C" 
			},
			{
				"x": -1.7008363526,
				"y": 2.1726752448,
				"z": -4.5412121757,
				"element": "H" 
			},
			{
				"x": -0.2781495045,
				"y": 3.1286035188,
				"z": -4.1217262424,
				"element": "H" 
			},
			{
				"x": -0.0927741813,
				"y": 1.591623234,
				"z": -4.9774788045,
				"element": "H" 
			},
			{
				"x": 2.4150405457,
				"y": 2.1908961027,
				"z": -1.8618935345,
				"element": "H" 
			},
			{
				"x": 1.9014312832,
				"y": 2.0569964976,
				"z": -3.5485737916,
				"element": "H" 
			},
			{
				"x": 2.6000406314,
				"y": 0.6637911071,
				"z": -2.7134225757,
				"element": "H" 
			},
			{
				"x": 0.4425379777,
				"y": -1.9356232272,
				"z": 3.3041827833,
				"element": "H" 
			},
			{
				"x": -0.5176350881,
				"y": -3.1394628759,
				"z": 5.2577117475,
				"element": "H" 
			},
			{
				"x": -2.9711699076,
				"y": -3.5161773555,
				"z": 5.3990259542,
				"element": "H" 
			},
			{
				"x": -4.4550755869,
				"y": -2.6866180288,
				"z": 3.5845280381,
				"element": "H" 
			},
			{
				"x": -3.4809099894,
				"y": -1.4845678529,
				"z": 1.6373684669,
				"element": "H" 
			}
		],
		 "valence_orbital": [ 
			{
				"type": "occ",
				"energy": -0.27589,
				"method": "rhf"
			},
			{
				"type": "occ",
				"energy": -0.26272,
				"method": "rhf"
			},
			{
				"type": "occ",
				"energy": -0.25309,
				"method": "rhf"
			},
			{
				"type": "occ",
				"energy": -0.24869,
				"method": "rhf"
			},
			{
				"type": "occ",
				"energy": -0.21957,
				"method": "rhf"
			},
			{
				"type": "unocc",
				"energy": -0.06178,
				"method": "rhf"
			},
			{
				"type": "unocc",
				"energy": -0.04076,
				"method": "rhf"
			},
			{
				"type": "unocc",
				"energy": 0.00123,
				"method": "rhf"
			},
			{
				"type": "unocc",
				"energy": 0.002,
				"method": "rhf"
			},
			{
				"type": "unocc",
				"energy": 0.00444,
				"method": "rhf"
			}
		],
		"cosmo_sigma_profile": { 
			"-0.025": 0.0,
			"-0.024": 0.0,
			"-0.023": 0.0,
			"-0.022": 0.0,
			"-0.021": 0.0,
			"-0.02": 0.0,
			"-0.019": 0.0,
			"-0.018": 0.0,
			"-0.017": 0.0,
			"-0.016": 0.0,
			"-0.015": 0.0,
			"-0.014": 0.0,
			"-0.013": 0.0,
			"-0.012": 0.0,
			"-0.011": 0.0,
			"-0.01": 0.0,
			"-0.009": 0.0,
			"-0.008": 0.0,
			"-0.007": 0.518285402786,
			"-0.006": 8.5301458138,
			"-0.005": 17.0082701457,
			"-0.004": 24.2336919001,
			"-0.003": 25.0462724672,
			"-0.002": 30.6177379413,
			"-0.001": 30.7185754609,
			"0.0": 28.9334674571,
			"0.001": 27.9983344336,
			"0.002": 27.7148704345,
			"0.003": 22.9674290895,
			"0.004": 22.564219619,
			"0.005": 14.01582676,
			"0.006": 4.40503089864,
			"0.007": 3.38460537101,
			"0.008": 3.06838637291,
			"0.009": 1.79113925009,
			"0.01": 0.164794538949,
			"0.011": 0.0,
			"0.012": 0.0,
			"0.013": 0.0,
			"0.014": 0.0,
			"0.015": 0.0,
			"0.016": 0.0,
			"0.017": 0.0,
			"0.018": 0.0,
			"0.019": 0.0,
			"0.02": 0.0,
			"0.021": 0.0,
			"0.022": 0.0,
			"0.023": 0.0,
			"0.024": 0.0,
			"0.025": 0.0
		}
	}
}
