{
	 "smiles": "CC(C)C1=NOC(=N1)C1=C(N)C=CC(Cl)=C1", 
	 "Tm": 367.15, 
	 "num_atms": 28, 
	 "gaussian": { 
		 "optdone": 1, 
		 "sigma_profile": "yes", 
		 "theory": "DFT", 
		 "functional": "B3LYP", 
		 "basiset": "6-31G**", 
		 "properties": { 
			 "R2extent": 6397.7286, 
			 "electric_dipole_moment_norm": 4.70578706488, 
			 "electric_quadrupole_moment_norm": 9.29866591345, 
			 "total_energy": -1126.06627451, 
			 "HOMO_LUMO_gap": 0.15134, 
			 "cosmo_polarized_energy": -10.14, 
			 "cosmo_cavitation_energy": 33.74, 
			 "cosmo_dispersion_energy": -24.5, 
			 "cosmo_repulsion_energy": 1.92, 
			 "cosmo_total_nonelectrostatic_energy": 11.17, 
			 "SMD_solvation_energy": 4.36 
		},
		"coords": [
			{
				"x": -3.0179384356,
				"y": 3.2892009389,
				"z": 1.7141770615,
				"element": "C" 
			},
			{
				"x": -1.5387451711,
				"y": 3.2315866384,
				"z": 2.1370301243,
				"element": "C" 
			},
			{
				"x": -1.3285372227,
				"y": 2.2889304321,
				"z": 3.3359653737,
				"element": "C" 
			},
			{
				"x": -0.6729942132,
				"y": 2.817833599,
				"z": 0.9804279506,
				"element": "C" 
			},
			{
				"x": 0.2591291743,
				"y": 3.5975318788,
				"z": 0.4939931663,
				"element": "N" 
			},
			{
				"x": 0.8134048531,
				"y": 2.8320907855,
				"z": -0.5552188055,
				"element": "O" 
			},
			{
				"x": 0.1448664785,
				"y": 1.6633377858,
				"z": -0.5835183767,
				"element": "C" 
			},
			{
				"x": -0.7847812264,
				"y": 1.6007720859,
				"z": 0.3449439285,
				"element": "N" 
			},
			{
				"x": 0.4990447379,
				"y": 0.6689938006,
				"z": -1.5791970069,
				"element": "C" 
			},
			{
				"x": -0.1760881381,
				"y": -0.5864807531,
				"z": -1.6302664369,
				"element": "C" 
			},
			{
				"x": -1.1440435429,
				"y": -0.9234914682,
				"z": -0.7321279354,
				"element": "N" 
			},
			{
				"x": 0.2086895603,
				"y": -1.4967162798,
				"z": -2.6423501261,
				"element": "C" 
			},
			{
				"x": 1.2075570263,
				"y": -1.1941726558,
				"z": -3.5504832036,
				"element": "C" 
			},
			{
				"x": 1.8654120618,
				"y": 0.0417280417,
				"z": -3.479908388,
				"element": "C" 
			},
			{
				"x": 3.1356848914,
				"y": 0.4177821661,
				"z": -4.6364875564,
				"element": "Cl" 
			},
			{
				"x": 1.5168863349,
				"y": 0.9615958046,
				"z": -2.5090693541,
				"element": "C" 
			},
			{
				"x": -3.6390063574,
				"y": 3.6130899377,
				"z": 2.5553003995,
				"element": "H" 
			},
			{
				"x": -3.3679314126,
				"y": 2.3039253854,
				"z": 1.3906653471,
				"element": "H" 
			},
			{
				"x": -3.1687339782,
				"y": 3.9914260727,
				"z": 0.8887655088,
				"element": "H" 
			},
			{
				"x": -1.211864794,
				"y": 4.2390975932,
				"z": 2.4177642427,
				"element": "H" 
			},
			{
				"x": -1.6093965216,
				"y": 1.2631949085,
				"z": 3.0774382393,
				"element": "H" 
			},
			{
				"x": -0.2832589231,
				"y": 2.2836864019,
				"z": 3.6591636221,
				"element": "H" 
			},
			{
				"x": -1.9454069156,
				"y": 2.6096568343,
				"z": 4.1813985937,
				"element": "H" 
			},
			{
				"x": -1.4654074929,
				"y": -0.2220654183,
				"z": -0.07465838,
				"element": "H" 
			},
			{
				"x": -1.687824275,
				"y": -1.7564222719,
				"z": -0.8825449286,
				"element": "H" 
			},
			{
				"x": -0.2944182844,
				"y": -2.4581351134,
				"z": -2.6987261735,
				"element": "H" 
			},
			{
				"x": 1.4839084386,
				"y": -1.9106168772,
				"z": -4.3165747434,
				"element": "H" 
			},
			{
				"x": 2.0207933476,
				"y": 1.9192397464,
				"z": -2.456302143,
				"element": "H" 
			}
		],
		 "valence_orbital": [ 
			{
				"type": "occ",
				"energy": -0.30957,
				"method": "rhf"
			},
			{
				"type": "occ",
				"energy": -0.30094,
				"method": "rhf"
			},
			{
				"type": "occ",
				"energy": -0.29548,
				"method": "rhf"
			},
			{
				"type": "occ",
				"energy": -0.25615,
				"method": "rhf"
			},
			{
				"type": "occ",
				"energy": -0.20891,
				"method": "rhf"
			},
			{
				"type": "unocc",
				"energy": -0.05757,
				"method": "rhf"
			},
			{
				"type": "unocc",
				"energy": -0.00133,
				"method": "rhf"
			},
			{
				"type": "unocc",
				"energy": 0.01603,
				"method": "rhf"
			},
			{
				"type": "unocc",
				"energy": 0.0315,
				"method": "rhf"
			},
			{
				"type": "unocc",
				"energy": 0.05632,
				"method": "rhf"
			}
		],
		"cosmo_sigma_profile": { 
			"-0.025": 0.0,
			"-0.024": 0.0,
			"-0.023": 0.0,
			"-0.022": 0.0,
			"-0.021": 0.0,
			"-0.02": 0.0,
			"-0.019": 0.0,
			"-0.018": 0.0,
			"-0.017": 0.0,
			"-0.016": 0.0,
			"-0.015": 0.0,
			"-0.014": 0.744426305609,
			"-0.013": 1.65076061539,
			"-0.012": 1.19098296038,
			"-0.011": 2.09179956932,
			"-0.01": 1.04823246203,
			"-0.009": 1.55151296343,
			"-0.008": 3.62394850261,
			"-0.007": 5.38529327471,
			"-0.006": 5.41307887382,
			"-0.005": 6.8858838821,
			"-0.004": 13.0007321284,
			"-0.003": 23.328066689,
			"-0.002": 27.5183592296,
			"-0.001": 27.4273373819,
			"0.0": 29.0802006675,
			"0.001": 24.5238082965,
			"0.002": 24.2255740213,
			"0.003": 24.5602472822,
			"0.004": 16.1174501387,
			"0.005": 12.437284516,
			"0.006": 5.22820548651,
			"0.007": 3.85183629097,
			"0.008": 2.13471419107,
			"0.009": 1.96148518748,
			"0.01": 1.23982879344,
			"0.011": 1.36684724379,
			"0.012": 1.38161093971,
			"0.013": 1.287991932,
			"0.014": 0.278727454551,
			"0.015": 0.0,
			"0.016": 0.0,
			"0.017": 0.0,
			"0.018": 0.0,
			"0.019": 0.0,
			"0.02": 0.0,
			"0.021": 0.0,
			"0.022": 0.0,
			"0.023": 0.0,
			"0.024": 0.0,
			"0.025": 0.0
		}
	}
}
