{
	 "smiles": "CC1=CC(C)=C(C#N)C(=O)N1N=CC1=CC=CC=C1", 
	 "Tm": 467.15, 
	 "num_atms": 32, 
	 "gaussian": { 
		 "optdone": 1, 
		 "sigma_profile": "yes", 
		 "theory": "DFT", 
		 "functional": "B3LYP", 
		 "basiset": "6-31G**", 
		 "properties": { 
			 "R2extent": 7016.7419, 
			 "electric_dipole_moment_norm": 7.06932469971, 
			 "electric_quadrupole_moment_norm": 33.3548182289, 
			 "total_energy": -818.87369784, 
			 "HOMO_LUMO_gap": 0.14584, 
			 "cosmo_polarized_energy": -16.46, 
			 "cosmo_cavitation_energy": 37.55, 
			 "cosmo_dispersion_energy": -26.24, 
			 "cosmo_repulsion_energy": 1.98, 
			 "cosmo_total_nonelectrostatic_energy": 13.29, 
			 "SMD_solvation_energy": 8.18 
		},
		"coords": [
			{
				"x": -1.8108564222,
				"y": 1.4177495999,
				"z": -1.0339383627,
				"element": "C" 
			},
			{
				"x": -1.2871343446,
				"y": 0.1300454431,
				"z": -1.5985585851,
				"element": "C" 
			},
			{
				"x": -1.9296839232,
				"y": -0.5186271378,
				"z": -2.6201968751,
				"element": "C" 
			},
			{
				"x": -1.4447025621,
				"y": -1.7356281753,
				"z": -3.1605887119,
				"element": "C" 
			},
			{
				"x": -2.1990303939,
				"y": -2.3962638825,
				"z": -4.282210397,
				"element": "C" 
			},
			{
				"x": -0.2855411137,
				"y": -2.2661990636,
				"z": -2.6247322522,
				"element": "C" 
			},
			{
				"x": 0.2719884247,
				"y": -3.489276493,
				"z": -3.11039752,
				"element": "C" 
			},
			{
				"x": 0.6926160945,
				"y": -4.4879746744,
				"z": -3.5352309358,
				"element": "N" 
			},
			{
				"x": 0.4477145852,
				"y": -1.6260543943,
				"z": -1.5372261805,
				"element": "C" 
			},
			{
				"x": 1.4766284775,
				"y": -2.0862266715,
				"z": -1.0539474361,
				"element": "O" 
			},
			{
				"x": -0.1233694842,
				"y": -0.3995447474,
				"z": -1.0602325142,
				"element": "N" 
			},
			{
				"x": 0.4020454085,
				"y": 0.3726354848,
				"z": -0.0338164655,
				"element": "N" 
			},
			{
				"x": 1.4874027308,
				"y": 0.0639125053,
				"z": 0.5915938319,
				"element": "C" 
			},
			{
				"x": 1.9698386221,
				"y": 0.9407245798,
				"z": 1.6658533097,
				"element": "C" 
			},
			{
				"x": 3.1559888132,
				"y": 0.5826004518,
				"z": 2.327279319,
				"element": "C" 
			},
			{
				"x": 3.6632181483,
				"y": 1.3762748686,
				"z": 3.3553320306,
				"element": "C" 
			},
			{
				"x": 2.9896336706,
				"y": 2.5380743505,
				"z": 3.7344053834,
				"element": "C" 
			},
			{
				"x": 1.8062899569,
				"y": 2.903613292,
				"z": 3.0814127639,
				"element": "C" 
			},
			{
				"x": 1.2986817967,
				"y": 2.1138920706,
				"z": 2.0560769446,
				"element": "C" 
			},
			{
				"x": -2.7241664847,
				"y": 1.6982380954,
				"z": -1.5621121416,
				"element": "H" 
			},
			{
				"x": -2.0276082269,
				"y": 1.321884763,
				"z": 0.033432547,
				"element": "H" 
			},
			{
				"x": -1.0761909853,
				"y": 2.2212873949,
				"z": -1.1340933263,
				"element": "H" 
			},
			{
				"x": -2.8358713749,
				"y": -0.0789657732,
				"z": -3.0196907458,
				"element": "H" 
			},
			{
				"x": -1.7248617904,
				"y": -3.3231833024,
				"z": -4.6064169724,
				"element": "H" 
			},
			{
				"x": -3.2246520216,
				"y": -2.6200960683,
				"z": -3.9677447354,
				"element": "H" 
			},
			{
				"x": -2.2674744688,
				"y": -1.7199233932,
				"z": -5.1417353809,
				"element": "H" 
			},
			{
				"x": 2.070595414,
				"y": -0.8205597688,
				"z": 0.3639674457,
				"element": "H" 
			},
			{
				"x": 3.6782365408,
				"y": -0.3229964314,
				"z": 2.0298422467,
				"element": "H" 
			},
			{
				"x": 4.581311778,
				"y": 1.0883069306,
				"z": 3.8587325798,
				"element": "H" 
			},
			{
				"x": 3.3822121329,
				"y": 3.158331357,
				"z": 4.5350070055,
				"element": "H" 
			},
			{
				"x": 1.2820346414,
				"y": 3.8079631789,
				"z": 3.3768795924,
				"element": "H" 
			},
			{
				"x": 0.3826063605,
				"y": 2.3892856109,
				"z": 1.5450545382,
				"element": "H" 
			}
		],
		 "valence_orbital": [ 
			{
				"type": "occ",
				"energy": -0.29467,
				"method": "rhf"
			},
			{
				"type": "occ",
				"energy": -0.26256,
				"method": "rhf"
			},
			{
				"type": "occ",
				"energy": -0.25619,
				"method": "rhf"
			},
			{
				"type": "occ",
				"energy": -0.25016,
				"method": "rhf"
			},
			{
				"type": "occ",
				"energy": -0.22531,
				"method": "rhf"
			},
			{
				"type": "unocc",
				"energy": -0.07947,
				"method": "rhf"
			},
			{
				"type": "unocc",
				"energy": -0.04295,
				"method": "rhf"
			},
			{
				"type": "unocc",
				"energy": -0.01136,
				"method": "rhf"
			},
			{
				"type": "unocc",
				"energy": -0.00618,
				"method": "rhf"
			},
			{
				"type": "unocc",
				"energy": 0.03789,
				"method": "rhf"
			}
		],
		"cosmo_sigma_profile": { 
			"-0.025": 0.0,
			"-0.024": 0.0,
			"-0.023": 0.0,
			"-0.022": 0.0,
			"-0.021": 0.0,
			"-0.02": 0.0,
			"-0.019": 0.0,
			"-0.018": 0.0,
			"-0.017": 0.0,
			"-0.016": 0.0,
			"-0.015": 0.0,
			"-0.014": 0.0,
			"-0.013": 0.0,
			"-0.012": 0.0,
			"-0.011": 0.0,
			"-0.01": 0.0,
			"-0.009": 0.0,
			"-0.008": 1.51160173357,
			"-0.007": 6.25196635199,
			"-0.006": 17.3309251722,
			"-0.005": 23.171875693,
			"-0.004": 27.4290942223,
			"-0.003": 30.1097391677,
			"-0.002": 33.7639161723,
			"-0.001": 29.1093005805,
			"0.0": 20.0635884288,
			"0.001": 16.6709428527,
			"0.002": 16.2164841445,
			"0.003": 16.6734717356,
			"0.004": 17.2044173579,
			"0.005": 8.80508760043,
			"0.006": 3.57519167701,
			"0.007": 4.19196300148,
			"0.008": 5.04788027368,
			"0.009": 6.01201118673,
			"0.01": 5.11675188292,
			"0.011": 4.84289374778,
			"0.012": 5.59909986085,
			"0.013": 2.86881412933,
			"0.014": 0.319011554658,
			"0.015": 0.0,
			"0.016": 0.0,
			"0.017": 0.0,
			"0.018": 0.0,
			"0.019": 0.0,
			"0.02": 0.0,
			"0.021": 0.0,
			"0.022": 0.0,
			"0.023": 0.0,
			"0.024": 0.0,
			"0.025": 0.0
		}
	}
}
