{
	 "smiles": "COC1=CC(=CC(OC)=C1)N1CCC(Br)C1=O", 
	 "Tm": 352.15, 
	 "num_atms": 31, 
	 "gaussian": { 
		 "optdone": 1, 
		 "sigma_profile": "yes", 
		 "theory": "DFT", 
		 "functional": "B3LYP", 
		 "basiset": "6-31G**", 
		 "properties": { 
			 "R2extent": 7024.1745, 
			 "electric_dipole_moment_norm": 3.07521675008, 
			 "electric_quadrupole_moment_norm": 13.2967112923, 
			 "total_energy": -3317.5372305, 
			 "HOMO_LUMO_gap": 0.16738, 
			 "cosmo_polarized_energy": -14.11, 
			 "cosmo_cavitation_energy": 36.04, 
			 "cosmo_dispersion_energy": -26.45, 
			 "cosmo_repulsion_energy": 2.05, 
			 "cosmo_total_nonelectrostatic_energy": 11.65, 
			 "SMD_solvation_energy": 6.34 
		},
		"coords": [
			{
				"x": 3.2017379631,
				"y": 1.0535332501,
				"z": -3.8073200913,
				"element": "C" 
			},
			{
				"x": 2.7960197714,
				"y": 0.8186553101,
				"z": -2.4681556826,
				"element": "O" 
			},
			{
				"x": 1.4672377626,
				"y": 0.9216669784,
				"z": -2.1712864692,
				"element": "C" 
			},
			{
				"x": 1.1410015916,
				"y": 0.6615409995,
				"z": -0.8308485017,
				"element": "C" 
			},
			{
				"x": -0.1906513786,
				"y": 0.7370688079,
				"z": -0.416561222,
				"element": "C" 
			},
			{
				"x": -1.2060995646,
				"y": 1.0698562706,
				"z": -1.3356035707,
				"element": "C" 
			},
			{
				"x": -0.85311879,
				"y": 1.3183851008,
				"z": -2.660629401,
				"element": "C" 
			},
			{
				"x": -1.7530302625,
				"y": 1.6447404828,
				"z": -3.6319870053,
				"element": "O" 
			},
			{
				"x": -3.1279316283,
				"y": 1.7141208775,
				"z": -3.2796594737,
				"element": "C" 
			},
			{
				"x": 0.4812879427,
				"y": 1.2525416498,
				"z": -3.0949384988,
				"element": "C" 
			},
			{
				"x": -0.5000827424,
				"y": 0.4824153297,
				"z": 0.9442612293,
				"element": "N" 
			},
			{
				"x": 0.5603085469,
				"y": 0.2835874318,
				"z": 1.9419974582,
				"element": "C" 
			},
			{
				"x": -0.1826787253,
				"y": 0.3716604838,
				"z": 3.2826710968,
				"element": "C" 
			},
			{
				"x": -1.5765827631,
				"y": -0.123704748,
				"z": 2.9392303135,
				"element": "C" 
			},
			{
				"x": -1.6888395021,
				"y": -2.1137530592,
				"z": 3.0581232392,
				"element": "Br" 
			},
			{
				"x": -1.7635667629,
				"y": 0.269986794,
				"z": 1.4722713256,
				"element": "C" 
			},
			{
				"x": -2.8401789503,
				"y": 0.378089982,
				"z": 0.9115008767,
				"element": "O" 
			},
			{
				"x": 2.736266647,
				"y": 0.342478942,
				"z": -4.5016546931,
				"element": "H" 
			},
			{
				"x": 4.2840455708,
				"y": 0.9152900078,
				"z": -3.8228814766,
				"element": "H" 
			},
			{
				"x": 2.9633018594,
				"y": 2.0753148437,
				"z": -4.1292682726,
				"element": "H" 
			},
			{
				"x": 1.9474167086,
				"y": 0.3900956902,
				"z": -0.1635018018,
				"element": "H" 
			},
			{
				"x": -2.2280626748,
				"y": 1.1112816362,
				"z": -0.9979225702,
				"element": "H" 
			},
			{
				"x": -3.6592382723,
				"y": 1.9688832232,
				"z": -4.198107311,
				"element": "H" 
			},
			{
				"x": -3.4966836228,
				"y": 0.7537244354,
				"z": -2.8997020132,
				"element": "H" 
			},
			{
				"x": -3.3133084373,
				"y": 2.4898256931,
				"z": -2.5263937806,
				"element": "H" 
			},
			{
				"x": 0.6942002537,
				"y": 1.4581192211,
				"z": -4.1354666074,
				"element": "H" 
			},
			{
				"x": 1.0371683536,
				"y": -0.6950810079,
				"z": 1.8070264489,
				"element": "H" 
			},
			{
				"x": 1.3248072135,
				"y": 1.0578170228,
				"z": 1.8423981646,
				"element": "H" 
			},
			{
				"x": -0.2583228936,
				"y": 1.4202182728,
				"z": 3.5958969373,
				"element": "H" 
			},
			{
				"x": 0.3046618639,
				"y": -0.1906341473,
				"z": 4.0798630581,
				"element": "H" 
			},
			{
				"x": -2.3906850781,
				"y": 0.2366742254,
				"z": 3.5624482948,
				"element": "H" 
			}
		],
		 "valence_orbital": [ 
			{
				"type": "occ",
				"energy": -0.28074,
				"method": "rhf"
			},
			{
				"type": "occ",
				"energy": -0.26456,
				"method": "rhf"
			},
			{
				"type": "occ",
				"energy": -0.2562,
				"method": "rhf"
			},
			{
				"type": "occ",
				"energy": -0.21504,
				"method": "rhf"
			},
			{
				"type": "occ",
				"energy": -0.21046,
				"method": "rhf"
			},
			{
				"type": "unocc",
				"energy": -0.04308,
				"method": "rhf"
			},
			{
				"type": "unocc",
				"energy": 0.01138,
				"method": "rhf"
			},
			{
				"type": "unocc",
				"energy": 0.02056,
				"method": "rhf"
			},
			{
				"type": "unocc",
				"energy": 0.05509,
				"method": "rhf"
			},
			{
				"type": "unocc",
				"energy": 0.08157,
				"method": "rhf"
			}
		],
		"cosmo_sigma_profile": { 
			"-0.025": 0.0,
			"-0.024": 0.0,
			"-0.023": 0.0,
			"-0.022": 0.0,
			"-0.021": 0.0,
			"-0.02": 0.0,
			"-0.019": 0.0,
			"-0.018": 0.0,
			"-0.017": 0.0,
			"-0.016": 0.0,
			"-0.015": 0.0,
			"-0.014": 0.0,
			"-0.013": 0.0,
			"-0.012": 0.0,
			"-0.011": 0.0,
			"-0.01": 0.0,
			"-0.009": 1.30407566484,
			"-0.008": 3.18491731375,
			"-0.007": 7.64039048565,
			"-0.006": 20.4911265206,
			"-0.005": 29.481999425,
			"-0.004": 29.29897378,
			"-0.003": 30.3220698069,
			"-0.002": 16.1933902776,
			"-0.001": 12.8781563141,
			"0.0": 11.7828052333,
			"0.001": 13.4447804628,
			"0.002": 13.2450448498,
			"0.003": 15.3557535008,
			"0.004": 24.6896009185,
			"0.005": 24.9466151362,
			"0.006": 8.4501736595,
			"0.007": 4.64291548992,
			"0.008": 4.13489240316,
			"0.009": 4.46958194193,
			"0.01": 4.93709044832,
			"0.011": 3.0565127407,
			"0.012": 3.02820421842,
			"0.013": 1.75197008493,
			"0.014": 0.09758892733,
			"0.015": 0.0,
			"0.016": 0.0,
			"0.017": 0.0,
			"0.018": 0.0,
			"0.019": 0.0,
			"0.02": 0.0,
			"0.021": 0.0,
			"0.022": 0.0,
			"0.023": 0.0,
			"0.024": 0.0,
			"0.025": 0.0
		}
	}
}
