{
	 "smiles": "COC1=CC=CC2=C1CC(CC2)C(O)=O", 
	 "Tm": 415.15, 
	 "num_atms": 29, 
	 "gaussian": { 
		 "optdone": 1, 
		 "sigma_profile": "yes", 
		 "theory": "DFT", 
		 "functional": "B3LYP", 
		 "basiset": "6-31G**", 
		 "properties": { 
			 "R2extent": 3917.9573, 
			 "electric_dipole_moment_norm": 0.894099619729, 
			 "electric_quadrupole_moment_norm": 10.0013512467, 
			 "total_energy": -691.405431186, 
			 "HOMO_LUMO_gap": 0.21455, 
			 "cosmo_polarized_energy": -12.08, 
			 "cosmo_cavitation_energy": 30.92, 
			 "cosmo_dispersion_energy": -22.5, 
			 "cosmo_repulsion_energy": 1.77, 
			 "cosmo_total_nonelectrostatic_energy": 10.19, 
			 "SMD_solvation_energy": 6.35 
		},
		"coords": [
			{
				"x": -2.7353580352,
				"y": -1.5126488512,
				"z": -1.4040682579,
				"element": "C" 
			},
			{
				"x": -2.1471968554,
				"y": -0.9812298291,
				"z": -0.2294617071,
				"element": "O" 
			},
			{
				"x": -0.7930779498,
				"y": -1.1030637902,
				"z": -0.0651572802,
				"element": "C" 
			},
			{
				"x": 0.0435569068,
				"y": -1.7621110501,
				"z": -0.9670972061,
				"element": "C" 
			},
			{
				"x": 1.4124100212,
				"y": -1.8427645709,
				"z": -0.6926513483,
				"element": "C" 
			},
			{
				"x": 1.9312472443,
				"y": -1.276775001,
				"z": 0.4634517559,
				"element": "C" 
			},
			{
				"x": 1.0925632925,
				"y": -0.6072498762,
				"z": 1.370091356,
				"element": "C" 
			},
			{
				"x": -0.280005344,
				"y": -0.5086243068,
				"z": 1.1098291226,
				"element": "C" 
			},
			{
				"x": -1.2475620542,
				"y": 0.1906353551,
				"z": 2.0462730751,
				"element": "C" 
			},
			{
				"x": -0.5622522672,
				"y": 1.0293248615,
				"z": 3.1340404868,
				"element": "C" 
			},
			{
				"x": 0.6576986538,
				"y": 0.2876158888,
				"z": 3.7126864712,
				"element": "C" 
			},
			{
				"x": 1.6933695994,
				"y": 0.0162163385,
				"z": 2.6174412755,
				"element": "C" 
			},
			{
				"x": -0.2104157975,
				"y": 2.4219609281,
				"z": 2.6215191003,
				"element": "C" 
			},
			{
				"x": 0.5772557609,
				"y": 3.1008674226,
				"z": 3.4967341657,
				"element": "O" 
			},
			{
				"x": -0.5946115766,
				"y": 2.9240637055,
				"z": 1.5884217774,
				"element": "O" 
			},
			{
				"x": -2.3251924809,
				"y": -1.0464799946,
				"z": -2.30919608,
				"element": "H" 
			},
			{
				"x": -3.8012001685,
				"y": -1.2879830168,
				"z": -1.3365666202,
				"element": "H" 
			},
			{
				"x": -2.6001138533,
				"y": -2.6002049679,
				"z": -1.4700348968,
				"element": "H" 
			},
			{
				"x": -0.3524513881,
				"y": -2.2120222895,
				"z": -1.8694912766,
				"element": "H" 
			},
			{
				"x": 2.0665751128,
				"y": -2.3590515085,
				"z": -1.3896475074,
				"element": "H" 
			},
			{
				"x": 2.9946430677,
				"y": -1.3495211176,
				"z": 0.6769536284,
				"element": "H" 
			},
			{
				"x": -1.920151162,
				"y": 0.8236989178,
				"z": 1.4624597991,
				"element": "H" 
			},
			{
				"x": -1.884282479,
				"y": -0.5625852795,
				"z": 2.5292030473,
				"element": "H" 
			},
			{
				"x": -1.2788032128,
				"y": 1.207348973,
				"z": 3.9483798255,
				"element": "H" 
			},
			{
				"x": 0.3059113601,
				"y": -0.662102485,
				"z": 4.1337672132,
				"element": "H" 
			},
			{
				"x": 1.1058273504,
				"y": 0.8609274386,
				"z": 4.5280991152,
				"element": "H" 
			},
			{
				"x": 2.4864779284,
				"y": -0.6342576943,
				"z": 3.00430721,
				"element": "H" 
			},
			{
				"x": 2.1886676444,
				"y": 0.9609511013,
				"z": 2.3496688745,
				"element": "H" 
			},
			{
				"x": 0.7158706818,
				"y": 3.9776646984,
				"z": 3.1008448809,
				"element": "H" 
			}
		],
		 "valence_orbital": [ 
			{
				"type": "occ",
				"energy": -0.30656,
				"method": "rhf"
			},
			{
				"type": "occ",
				"energy": -0.30419,
				"method": "rhf"
			},
			{
				"type": "occ",
				"energy": -0.26845,
				"method": "rhf"
			},
			{
				"type": "occ",
				"energy": -0.22988,
				"method": "rhf"
			},
			{
				"type": "occ",
				"energy": -0.20891,
				"method": "rhf"
			},
			{
				"type": "unocc",
				"energy": 0.00564,
				"method": "rhf"
			},
			{
				"type": "unocc",
				"energy": 0.01271,
				"method": "rhf"
			},
			{
				"type": "unocc",
				"energy": 0.02078,
				"method": "rhf"
			},
			{
				"type": "unocc",
				"energy": 0.07749,
				"method": "rhf"
			},
			{
				"type": "unocc",
				"energy": 0.09916,
				"method": "rhf"
			}
		],
		"cosmo_sigma_profile": { 
			"-0.025": 0.0,
			"-0.024": 0.0,
			"-0.023": 0.0,
			"-0.022": 0.0,
			"-0.021": 0.0,
			"-0.02": 0.0,
			"-0.019": 0.0,
			"-0.018": 0.488016590511,
			"-0.017": 0.910705756974,
			"-0.016": 1.02369411356,
			"-0.015": 0.875067299222,
			"-0.014": 0.431540287732,
			"-0.013": 0.250711235001,
			"-0.012": 0.771514244612,
			"-0.011": 1.12213936931,
			"-0.01": 0.681820848486,
			"-0.009": 0.532776080045,
			"-0.008": 1.05416267946,
			"-0.007": 0.901004722467,
			"-0.006": 7.12807924175,
			"-0.005": 16.4259441952,
			"-0.004": 23.3714085644,
			"-0.003": 31.3009283287,
			"-0.002": 23.9240952536,
			"-0.001": 21.1769517031,
			"0.0": 16.207545912,
			"0.001": 9.27557839501,
			"0.002": 10.3401694656,
			"0.003": 10.7286932766,
			"0.004": 12.2591026304,
			"0.005": 11.4194366971,
			"0.006": 12.1559254859,
			"0.007": 10.563374823,
			"0.008": 4.20024912743,
			"0.009": 2.90122890025,
			"0.01": 2.60313806535,
			"0.011": 3.33104778437,
			"0.012": 4.34328852326,
			"0.013": 0.213490296707,
			"0.014": 0.0,
			"0.015": 0.0,
			"0.016": 0.0,
			"0.017": 0.0,
			"0.018": 0.0,
			"0.019": 0.0,
			"0.02": 0.0,
			"0.021": 0.0,
			"0.022": 0.0,
			"0.023": 0.0,
			"0.024": 0.0,
			"0.025": 0.0
		}
	}
}
