{
	 "smiles": "OCCN1C(=O)C2=CC=CC=C2C1=O", 
	 "Tm": 400.65, 
	 "num_atms": 23, 
	 "gaussian": { 
		 "optdone": 1, 
		 "sigma_profile": "yes", 
		 "theory": "DFT", 
		 "functional": "B3LYP", 
		 "basiset": "6-31G**", 
		 "properties": { 
			 "R2extent": 4735.838, 
			 "electric_dipole_moment_norm": 4.62828714969, 
			 "electric_quadrupole_moment_norm": 17.0421394473, 
			 "total_energy": -666.937639575, 
			 "HOMO_LUMO_gap": 0.16188, 
			 "cosmo_polarized_energy": -12.01, 
			 "cosmo_cavitation_energy": 27.1, 
			 "cosmo_dispersion_energy": -20.06, 
			 "cosmo_repulsion_energy": 1.56, 
			 "cosmo_total_nonelectrostatic_energy": 8.6, 
			 "SMD_solvation_energy": 5.43 
		},
		"coords": [
			{
				"x": -1.1658061496,
				"y": 3.0743489127,
				"z": -4.9657534224,
				"element": "O" 
			},
			{
				"x": -0.4673432745,
				"y": 1.8631921043,
				"z": -5.12755663,
				"element": "C" 
			},
			{
				"x": -0.8362904436,
				"y": 0.7863337413,
				"z": -4.0955285668,
				"element": "C" 
			},
			{
				"x": -0.1211817071,
				"y": 0.8857313404,
				"z": -2.8185900899,
				"element": "N" 
			},
			{
				"x": -0.0700693069,
				"y": 2.0036891525,
				"z": -1.9845033254,
				"element": "C" 
			},
			{
				"x": -0.5532714525,
				"y": 3.1017348605,
				"z": -2.2209934059,
				"element": "O" 
			},
			{
				"x": 0.6979834503,
				"y": 1.5897690323,
				"z": -0.7759409789,
				"element": "C" 
			},
			{
				"x": 1.043461766,
				"y": 2.3139046809,
				"z": 0.3555949957,
				"element": "C" 
			},
			{
				"x": 1.7897839766,
				"y": 1.6507606545,
				"z": 1.3392860181,
				"element": "C" 
			},
			{
				"x": 2.1712817728,
				"y": 0.3123814026,
				"z": 1.1789648954,
				"element": "C" 
			},
			{
				"x": 1.8192203555,
				"y": -0.4085720095,
				"z": 0.0296424458,
				"element": "C" 
			},
			{
				"x": 1.0787425075,
				"y": 0.2566160089,
				"z": -0.9362944653,
				"element": "C" 
			},
			{
				"x": 0.5534253657,
				"y": -0.2193535731,
				"z": -2.2479585028,
				"element": "C" 
			},
			{
				"x": 0.6542880496,
				"y": -1.3143596789,
				"z": -2.7609152907,
				"element": "O" 
			},
			{
				"x": -1.024273972,
				"y": 3.3657707709,
				"z": -4.0483518721,
				"element": "H" 
			},
			{
				"x": -0.7411525848,
				"y": 1.4786135125,
				"z": -6.1165045306,
				"element": "H" 
			},
			{
				"x": 0.6279430901,
				"y": 1.9985818178,
				"z": -5.1255834132,
				"element": "H" 
			},
			{
				"x": -0.5922363553,
				"y": -0.2098984861,
				"z": -4.473493284,
				"element": "H" 
			},
			{
				"x": -1.9159818472,
				"y": 0.8322298483,
				"z": -3.9130326261,
				"element": "H" 
			},
			{
				"x": 0.7436959662,
				"y": 3.3506561118,
				"z": 0.4682039664,
				"element": "H" 
			},
			{
				"x": 2.0785954392,
				"y": 2.1816849833,
				"z": 2.241333882,
				"element": "H" 
			},
			{
				"x": 2.7497668921,
				"y": -0.1726711137,
				"z": 1.9594118747,
				"element": "H" 
			},
			{
				"x": 2.1102184619,
				"y": -1.4451440741,
				"z": -0.1056376741,
				"element": "H" 
			}
		],
		 "valence_orbital": [ 
			{
				"type": "occ",
				"energy": -0.2937,
				"method": "rhf"
			},
			{
				"type": "occ",
				"energy": -0.28552,
				"method": "rhf"
			},
			{
				"type": "occ",
				"energy": -0.27986,
				"method": "rhf"
			},
			{
				"type": "occ",
				"energy": -0.27421,
				"method": "rhf"
			},
			{
				"type": "occ",
				"energy": -0.25385,
				"method": "rhf"
			},
			{
				"type": "unocc",
				"energy": -0.09197,
				"method": "rhf"
			},
			{
				"type": "unocc",
				"energy": -0.04885,
				"method": "rhf"
			},
			{
				"type": "unocc",
				"energy": 0.01912,
				"method": "rhf"
			},
			{
				"type": "unocc",
				"energy": 0.06242,
				"method": "rhf"
			},
			{
				"type": "unocc",
				"energy": 0.08026,
				"method": "rhf"
			}
		],
		"cosmo_sigma_profile": { 
			"-0.025": 0.0,
			"-0.024": 0.0,
			"-0.023": 0.0,
			"-0.022": 0.0,
			"-0.021": 0.0,
			"-0.02": 0.0,
			"-0.019": 0.0,
			"-0.018": 0.0,
			"-0.017": 0.0,
			"-0.016": 0.0,
			"-0.015": 0.0,
			"-0.014": 0.0,
			"-0.013": 0.0,
			"-0.012": 0.0,
			"-0.011": 0.0,
			"-0.01": 0.0,
			"-0.009": 0.0,
			"-0.008": 2.2469389055,
			"-0.007": 8.65216980943,
			"-0.006": 14.9794492493,
			"-0.005": 20.0475191724,
			"-0.004": 24.270285202,
			"-0.003": 17.161561291,
			"-0.002": 15.3854595613,
			"-0.001": 14.7502476103,
			"0.0": 16.9995879949,
			"0.001": 15.928787218,
			"0.002": 14.9909854653,
			"0.003": 6.38467296126,
			"0.004": 4.56065664925,
			"0.005": 3.06378003638,
			"0.006": 4.04585368178,
			"0.007": 4.13696514896,
			"0.008": 4.67660894658,
			"0.009": 4.87560780308,
			"0.01": 5.70292862689,
			"0.011": 6.18364465734,
			"0.012": 2.32158120025,
			"0.013": 1.55696423928,
			"0.014": 1.82542499237,
			"0.015": 1.97522433538,
			"0.016": 0.00903375877776,
			"0.017": 0.0,
			"0.018": 0.0,
			"0.019": 0.0,
			"0.02": 0.0,
			"0.021": 0.0,
			"0.022": 0.0,
			"0.023": 0.0,
			"0.024": 0.0,
			"0.025": 0.0
		}
	}
}
