{
	 "smiles": "CC1=CSC2=NC=C(C(O)=O)C(=O)N12", 
	 "Tm": 523.15, 
	 "num_atms": 20, 
	 "gaussian": { 
		 "optdone": 1, 
		 "sigma_profile": "yes", 
		 "theory": "DFT", 
		 "functional": "B3LYP", 
		 "basiset": "6-31G**", 
		 "properties": { 
			 "R2extent": 3155.2985, 
			 "electric_dipole_moment_norm": 8.20723819381, 
			 "electric_quadrupole_moment_norm": 4.23331457607, 
			 "total_energy": -1041.84949148, 
			 "HOMO_LUMO_gap": 0.16258, 
			 "cosmo_polarized_energy": -16.18, 
			 "cosmo_cavitation_energy": 26.1, 
			 "cosmo_dispersion_energy": -20.37, 
			 "cosmo_repulsion_energy": 1.5, 
			 "cosmo_total_nonelectrostatic_energy": 7.23, 
			 "SMD_solvation_energy": 4.55 
		},
		"coords": [
			{
				"x": 2.2140507871,
				"y": 1.9796115699,
				"z": 1.697913263,
				"element": "C" 
			},
			{
				"x": 0.7706751298,
				"y": 2.1562151598,
				"z": 1.336279483,
				"element": "C" 
			},
			{
				"x": 0.0256514958,
				"y": 3.2512004507,
				"z": 1.603666324,
				"element": "C" 
			},
			{
				"x": -1.6266598114,
				"y": 3.1368602316,
				"z": 1.0463240927,
				"element": "S" 
			},
			{
				"x": -1.3060465913,
				"y": 1.5386675621,
				"z": 0.4215457484,
				"element": "C" 
			},
			{
				"x": -2.2127057873,
				"y": 0.8142991649,
				"z": -0.1834124618,
				"element": "N" 
			},
			{
				"x": -1.7996171475,
				"y": -0.4000289107,
				"z": -0.6061759601,
				"element": "C" 
			},
			{
				"x": -0.5207452928,
				"y": -0.8966132615,
				"z": -0.439552048,
				"element": "C" 
			},
			{
				"x": -0.208402614,
				"y": -2.2696952895,
				"z": -0.9650447553,
				"element": "C" 
			},
			{
				"x": 1.0445170976,
				"y": -2.7053561713,
				"z": -0.779352537,
				"element": "O" 
			},
			{
				"x": -1.0494898154,
				"y": -2.9409062645,
				"z": -1.525399336,
				"element": "O" 
			},
			{
				"x": 0.4799370853,
				"y": -0.1066342021,
				"z": 0.2237228285,
				"element": "C" 
			},
			{
				"x": 1.6550772971,
				"y": -0.4360978037,
				"z": 0.4342178522,
				"element": "O" 
			},
			{
				"x": 0.0076200981,
				"y": 1.1723287946,
				"z": 0.6577532845,
				"element": "N" 
			},
			{
				"x": 2.3622223594,
				"y": 1.1188210161,
				"z": 2.3530712408,
				"element": "H" 
			},
			{
				"x": 2.8331196894,
				"y": 1.8154900134,
				"z": 0.8136235258,
				"element": "H" 
			},
			{
				"x": 2.5537071666,
				"y": 2.8829115233,
				"z": 2.2105806911,
				"element": "H" 
			},
			{
				"x": 0.3699834992,
				"y": 4.1402461259,
				"z": 2.1111500474,
				"element": "H" 
			},
			{
				"x": -2.5325160549,
				"y": -1.0221048219,
				"z": -1.1116867095,
				"element": "H" 
			},
			{
				"x": 1.5604214091,
				"y": -2.0092148871,
				"z": -0.3070245735,
				"element": "H" 
			}
		],
		 "valence_orbital": [ 
			{
				"type": "occ",
				"energy": -0.30414,
				"method": "rhf"
			},
			{
				"type": "occ",
				"energy": -0.29866,
				"method": "rhf"
			},
			{
				"type": "occ",
				"energy": -0.2868,
				"method": "rhf"
			},
			{
				"type": "occ",
				"energy": -0.26336,
				"method": "rhf"
			},
			{
				"type": "occ",
				"energy": -0.24484,
				"method": "rhf"
			},
			{
				"type": "unocc",
				"energy": -0.08226,
				"method": "rhf"
			},
			{
				"type": "unocc",
				"energy": -0.04155,
				"method": "rhf"
			},
			{
				"type": "unocc",
				"energy": -0.02152,
				"method": "rhf"
			},
			{
				"type": "unocc",
				"energy": -0.01451,
				"method": "rhf"
			},
			{
				"type": "unocc",
				"energy": 0.03216,
				"method": "rhf"
			}
		],
		"cosmo_sigma_profile": { 
			"-0.025": 0.0,
			"-0.024": 0.0,
			"-0.023": 0.0,
			"-0.022": 0.0,
			"-0.021": 0.0,
			"-0.02": 0.0,
			"-0.019": 0.0,
			"-0.018": 0.0,
			"-0.017": 0.0,
			"-0.016": 0.0,
			"-0.015": 0.0,
			"-0.014": 0.0,
			"-0.013": 0.0,
			"-0.012": 0.0,
			"-0.011": 1.54754350369,
			"-0.01": 2.66617218375,
			"-0.009": 2.24229501565,
			"-0.008": 3.76819388297,
			"-0.007": 7.16352451113,
			"-0.006": 10.6895649247,
			"-0.005": 16.7790643162,
			"-0.004": 16.3858654165,
			"-0.003": 17.5146523653,
			"-0.002": 22.9312411996,
			"-0.001": 24.134823372,
			"0.0": 13.4642556336,
			"0.001": 11.5965067327,
			"0.002": 6.46545002174,
			"0.003": 4.25859418227,
			"0.004": 4.13254762355,
			"0.005": 5.48142645337,
			"0.006": 5.17927718019,
			"0.007": 4.5016897522,
			"0.008": 5.01867106558,
			"0.009": 5.3065937877,
			"0.01": 5.10409237082,
			"0.011": 6.15300143462,
			"0.012": 6.52077674338,
			"0.013": 3.08447188078,
			"0.014": 0.67863484685,
			"0.015": 0.0,
			"0.016": 0.0,
			"0.017": 0.0,
			"0.018": 0.0,
			"0.019": 0.0,
			"0.02": 0.0,
			"0.021": 0.0,
			"0.022": 0.0,
			"0.023": 0.0,
			"0.024": 0.0,
			"0.025": 0.0
		}
	}
}
