{
	 "smiles": "OC(=O)C1=CC(=CC(=C1)[N+]([O-])=O)C(F)(F)F", 
	 "Tm": 402.65, 
	 "num_atms": 20, 
	 "gaussian": { 
		 "optdone": 1, 
		 "sigma_profile": "yes", 
		 "theory": "DFT", 
		 "functional": "B3LYP", 
		 "basiset": "6-31G**", 
		 "properties": { 
			 "R2extent": 5484.1883, 
			 "electric_dipole_moment_norm": 3.93855418904, 
			 "electric_quadrupole_moment_norm": 15.9759567707, 
			 "total_energy": -962.336050131, 
			 "HOMO_LUMO_gap": 0.18224, 
			 "cosmo_polarized_energy": -17.95, 
			 "cosmo_cavitation_energy": 28.09, 
			 "cosmo_dispersion_energy": -19.72, 
			 "cosmo_repulsion_energy": 1.47, 
			 "cosmo_total_nonelectrostatic_energy": 9.84, 
			 "SMD_solvation_energy": 9.52 
		},
		"coords": [
			{
				"x": -1.2787705675,
				"y": -5.3307564608,
				"z": -0.2144547583,
				"element": "O" 
			},
			{
				"x": -1.5325005316,
				"y": -4.1066846488,
				"z": -0.7386233877,
				"element": "C" 
			},
			{
				"x": -2.3681869877,
				"y": -3.9673961158,
				"z": -1.5970567704,
				"element": "O" 
			},
			{
				"x": -0.7235011613,
				"y": -2.9538239629,
				"z": -0.2054427216,
				"element": "C" 
			},
			{
				"x": 0.5182036948,
				"y": -3.1145136531,
				"z": 0.4194256942,
				"element": "C" 
			},
			{
				"x": 1.2364607035,
				"y": -2.0011671527,
				"z": 0.8643672015,
				"element": "C" 
			},
			{
				"x": 0.7248486831,
				"y": -0.7173511134,
				"z": 0.6907911809,
				"element": "C" 
			},
			{
				"x": -0.5073720515,
				"y": -0.5788114281,
				"z": 0.0568480067,
				"element": "C" 
			},
			{
				"x": -1.2358364193,
				"y": -1.6665671168,
				"z": -0.404118512,
				"element": "C" 
			},
			{
				"x": -1.0506732391,
				"y": 0.782174819,
				"z": -0.1409845836,
				"element": "N" 
			},
			{
				"x": -0.3712193328,
				"y": 1.7223799267,
				"z": 0.2640433209,
				"element": "O" 
			},
			{
				"x": -2.1420948813,
				"y": 0.8783506984,
				"z": -0.693597225,
				"element": "O" 
			},
			{
				"x": 2.5508100823,
				"y": -2.1958452087,
				"z": 1.5814377495,
				"element": "C" 
			},
			{
				"x": 3.1952881433,
				"y": -3.2947543742,
				"z": 1.1346014447,
				"element": "F" 
			},
			{
				"x": 2.3592324269,
				"y": -2.3583323856,
				"z": 2.9082051838,
				"element": "F" 
			},
			{
				"x": 3.3673003175,
				"y": -1.1384231615,
				"z": 1.4183360895,
				"element": "F" 
			},
			{
				"x": -0.7243831742,
				"y": -5.2655146848,
				"z": 0.5752947716,
				"element": "H" 
			},
			{
				"x": 0.9667339833,
				"y": -4.0969130874,
				"z": 0.5311375178,
				"element": "H" 
			},
			{
				"x": 1.2629828016,
				"y": 0.1616715568,
				"z": 1.0214276123,
				"element": "H" 
			},
			{
				"x": -2.1815224899,
				"y": -1.5273224463,
				"z": -0.912737815,
				"element": "H" 
			}
		],
		 "valence_orbital": [ 
			{
				"type": "occ",
				"energy": -0.32939,
				"method": "rhf"
			},
			{
				"type": "occ",
				"energy": -0.32012,
				"method": "rhf"
			},
			{
				"type": "occ",
				"energy": -0.31541,
				"method": "rhf"
			},
			{
				"type": "occ",
				"energy": -0.31372,
				"method": "rhf"
			},
			{
				"type": "occ",
				"energy": -0.29855,
				"method": "rhf"
			},
			{
				"type": "unocc",
				"energy": -0.11631,
				"method": "rhf"
			},
			{
				"type": "unocc",
				"energy": -0.08751,
				"method": "rhf"
			},
			{
				"type": "unocc",
				"energy": -0.04774,
				"method": "rhf"
			},
			{
				"type": "unocc",
				"energy": 0.01977,
				"method": "rhf"
			},
			{
				"type": "unocc",
				"energy": 0.03527,
				"method": "rhf"
			}
		],
		"cosmo_sigma_profile": { 
			"-0.025": 0.0,
			"-0.024": 0.0,
			"-0.023": 0.0,
			"-0.022": 0.0,
			"-0.021": 0.0237643752603,
			"-0.02": 0.739201764482,
			"-0.019": 1.05265226594,
			"-0.018": 1.52343451034,
			"-0.017": 1.3418506438,
			"-0.016": 0.708600269882,
			"-0.015": 0.745129925818,
			"-0.014": 0.917472355575,
			"-0.013": 1.5961945077,
			"-0.012": 1.51938063797,
			"-0.011": 1.03291504412,
			"-0.01": 1.11128079114,
			"-0.009": 1.98847469689,
			"-0.008": 5.36215174846,
			"-0.007": 5.31880594685,
			"-0.006": 7.6857904111,
			"-0.005": 10.5271637485,
			"-0.004": 14.9767816124,
			"-0.003": 20.6848906044,
			"-0.002": 16.8568086955,
			"-0.001": 8.36188706606,
			"0.0": 10.1214216153,
			"0.001": 13.9976636193,
			"0.002": 29.5018086766,
			"0.003": 11.5955848324,
			"0.004": 5.58837834395,
			"0.005": 5.98972736734,
			"0.006": 8.06277910119,
			"0.007": 11.0148413321,
			"0.008": 7.45677971577,
			"0.009": 7.67474927533,
			"0.01": 5.1870382441,
			"0.011": 4.72557866553,
			"0.012": 1.58333178915,
			"0.013": 0.0690589836963,
			"0.014": 0.0,
			"0.015": 0.0,
			"0.016": 0.0,
			"0.017": 0.0,
			"0.018": 0.0,
			"0.019": 0.0,
			"0.02": 0.0,
			"0.021": 0.0,
			"0.022": 0.0,
			"0.023": 0.0,
			"0.024": 0.0,
			"0.025": 0.0
		}
	}
}
