{
	 "smiles": "NC1=C(C#N)C(C2=C(NN=C2C(F)(F)F)O1)C1=CC=C(O)C=C1", 
	 "Tm": 470.15, 
	 "num_atms": 32, 
	 "gaussian": { 
		 "optdone": 1, 
		 "sigma_profile": "yes", 
		 "theory": "DFT", 
		 "functional": "B3LYP", 
		 "basiset": "6-31G**", 
		 "properties": { 
			 "R2extent": 8007.0431, 
			 "electric_dipole_moment_norm": 6.56159126203, 
			 "electric_quadrupole_moment_norm": 27.3874150319, 
			 "total_energy": -1207.82833566, 
			 "HOMO_LUMO_gap": 0.19028, 
			 "cosmo_polarized_energy": -27.37, 
			 "cosmo_cavitation_energy": 39.3, 
			 "cosmo_dispersion_energy": -26.26, 
			 "cosmo_repulsion_energy": 1.97, 
			 "cosmo_total_nonelectrostatic_energy": 15.01, 
			 "SMD_solvation_energy": 8.61 
		},
		"coords": [
			{
				"x": -0.4418257403,
				"y": 3.4965170187,
				"z": -1.4503439066,
				"element": "N" 
			},
			{
				"x": -0.4279205534,
				"y": 2.6450532193,
				"z": -0.3826631497,
				"element": "C" 
			},
			{
				"x": -1.383277457,
				"y": 1.7176998405,
				"z": -0.0687491637,
				"element": "C" 
			},
			{
				"x": -2.4564903766,
				"y": 1.5927329519,
				"z": -0.9902882788,
				"element": "C" 
			},
			{
				"x": -3.3193121608,
				"y": 1.5280754057,
				"z": -1.7733559887,
				"element": "N" 
			},
			{
				"x": -1.378940211,
				"y": 0.8281708075,
				"z": 1.1841998937,
				"element": "C" 
			},
			{
				"x": -0.1646420132,
				"y": 1.2192439506,
				"z": 1.9836771754,
				"element": "C" 
			},
			{
				"x": 0.7285071502,
				"y": 2.1576599308,
				"z": 1.5358040802,
				"element": "C" 
			},
			{
				"x": 1.7128687409,
				"y": 2.3022421404,
				"z": 2.4524215564,
				"element": "N" 
			},
			{
				"x": 1.5141634886,
				"y": 1.4928031296,
				"z": 3.519644515,
				"element": "N" 
			},
			{
				"x": 0.3866545205,
				"y": 0.8447848629,
				"z": 3.2369471825,
				"element": "C" 
			},
			{
				"x": -0.1462085828,
				"y": -0.1840086388,
				"z": 4.1866351929,
				"element": "C" 
			},
			{
				"x": 0.3091430398,
				"y": -0.0027024549,
				"z": 5.4355248099,
				"element": "F" 
			},
			{
				"x": -1.5011462713,
				"y": -0.1279242862,
				"z": 4.2218312011,
				"element": "F" 
			},
			{
				"x": 0.185099733,
				"y": -1.4355753141,
				"z": 3.8059669056,
				"element": "F" 
			},
			{
				"x": 0.6860006193,
				"y": 2.8865772198,
				"z": 0.3911670823,
				"element": "O" 
			},
			{
				"x": -1.4245189515,
				"y": -0.6626528659,
				"z": 0.842659475,
				"element": "C" 
			},
			{
				"x": -2.4491960002,
				"y": -1.473625151,
				"z": 1.3435350154,
				"element": "C" 
			},
			{
				"x": -2.5050879866,
				"y": -2.8333947204,
				"z": 1.0502223369,
				"element": "C" 
			},
			{
				"x": -1.521057415,
				"y": -3.4080594838,
				"z": 0.2404973656,
				"element": "C" 
			},
			{
				"x": -1.618060445,
				"y": -4.7447908121,
				"z": -0.0201017146,
				"element": "O" 
			},
			{
				"x": -0.488459173,
				"y": -2.610909064,
				"z": -0.2685479404,
				"element": "C" 
			},
			{
				"x": -0.4473399683,
				"y": -1.2523637953,
				"z": 0.0336358437,
				"element": "C" 
			},
			{
				"x": -1.1148354779,
				"y": 3.2953290393,
				"z": -2.176665884,
				"element": "H" 
			},
			{
				"x": 0.4546853391,
				"y": 3.8437199737,
				"z": -1.7586199429,
				"element": "H" 
			},
			{
				"x": -2.2804414032,
				"y": 1.049091256,
				"z": 1.7702305935,
				"element": "H" 
			},
			{
				"x": 2.5042692624,
				"y": 2.9268974774,
				"z": 2.4318169412,
				"element": "H" 
			},
			{
				"x": -3.2157049401,
				"y": -1.0368070279,
				"z": 1.9777420689,
				"element": "H" 
			},
			{
				"x": -3.300098695,
				"y": -3.4615200652,
				"z": 1.437723545,
				"element": "H" 
			},
			{
				"x": -0.8828705475,
				"y": -5.011905692,
				"z": -0.586749582,
				"element": "H" 
			},
			{
				"x": 0.2792931226,
				"y": -3.0532209323,
				"z": -0.900336232,
				"element": "H" 
			},
			{
				"x": 0.3571493532,
				"y": -0.6435379201,
				"z": -0.3705609968,
				"element": "H" 
			}
		],
		 "valence_orbital": [ 
			{
				"type": "occ",
				"energy": -0.28522,
				"method": "rhf"
			},
			{
				"type": "occ",
				"energy": -0.25863,
				"method": "rhf"
			},
			{
				"type": "occ",
				"energy": -0.25203,
				"method": "rhf"
			},
			{
				"type": "occ",
				"energy": -0.22995,
				"method": "rhf"
			},
			{
				"type": "occ",
				"energy": -0.21804,
				"method": "rhf"
			},
			{
				"type": "unocc",
				"energy": -0.02776,
				"method": "rhf"
			},
			{
				"type": "unocc",
				"energy": -0.00637,
				"method": "rhf"
			},
			{
				"type": "unocc",
				"energy": -0.00296,
				"method": "rhf"
			},
			{
				"type": "unocc",
				"energy": 0.0117,
				"method": "rhf"
			},
			{
				"type": "unocc",
				"energy": 0.02593,
				"method": "rhf"
			}
		],
		"cosmo_sigma_profile": { 
			"-0.025": 0.0,
			"-0.024": 0.0,
			"-0.023": 0.0,
			"-0.022": 0.0,
			"-0.021": 0.0,
			"-0.02": 0.0,
			"-0.019": 0.142657667465,
			"-0.018": 2.00764772886,
			"-0.017": 2.83373839166,
			"-0.016": 2.45563480118,
			"-0.015": 3.42920951307,
			"-0.014": 3.50785925564,
			"-0.013": 4.44361109337,
			"-0.012": 4.43091641091,
			"-0.011": 3.48004052454,
			"-0.01": 2.82657002959,
			"-0.009": 4.2079297494,
			"-0.008": 4.34126091741,
			"-0.007": 4.40805856005,
			"-0.006": 11.5159100421,
			"-0.005": 12.5892956721,
			"-0.004": 14.0663301957,
			"-0.003": 16.3731334117,
			"-0.002": 15.6119983636,
			"-0.001": 15.6684324337,
			"0.0": 18.7704806908,
			"0.001": 19.9281335951,
			"0.002": 28.9107887562,
			"0.003": 34.8424785083,
			"0.004": 21.0160951349,
			"0.005": 17.4684885103,
			"0.006": 6.85747093309,
			"0.007": 5.49363149188,
			"0.008": 6.35990004969,
			"0.009": 4.99169867118,
			"0.01": 6.0783491924,
			"0.011": 6.72965641507,
			"0.012": 4.37045066996,
			"0.013": 3.48670123251,
			"0.014": 1.7270019252,
			"0.015": 0.0191909195103,
			"0.016": 0.0,
			"0.017": 0.0,
			"0.018": 0.0,
			"0.019": 0.0,
			"0.02": 0.0,
			"0.021": 0.0,
			"0.022": 0.0,
			"0.023": 0.0,
			"0.024": 0.0,
			"0.025": 0.0
		}
	}
}
