{
	 "smiles": "C[C@@H](OCC1=CC=CC=C1)[C@H](NC(=O)OC(C)(C)C)C(O)=O", 
	 "Tm": 388.65, 
	 "num_atms": 45, 
	 "gaussian": { 
		 "optdone": 1, 
		 "sigma_profile": "yes", 
		 "theory": "DFT", 
		 "functional": "B3LYP", 
		 "basiset": "6-31G**", 
		 "properties": { 
			 "R2extent": 9421.5832, 
			 "electric_dipole_moment_norm": 6.73584567, 
			 "electric_quadrupole_moment_norm": 24.7330070016, 
			 "total_energy": -1054.48580848, 
			 "HOMO_LUMO_gap": 0.2356, 
			 "cosmo_polarized_energy": -17.13, 
			 "cosmo_cavitation_energy": 47.39, 
			 "cosmo_dispersion_energy": -30.71, 
			 "cosmo_repulsion_energy": 2.37, 
			 "cosmo_total_nonelectrostatic_energy": 19.05, 
			 "SMD_solvation_energy": 9.95 
		},
		"coords": [
			{
				"x": 0.681913009,
				"y": 1.3404523849,
				"z": 2.577258954,
				"element": "C" 
			},
			{
				"x": 0.4346548209,
				"y": 1.0424751003,
				"z": 1.1007528188,
				"element": "C" 
			},
			{
				"x": -0.774959713,
				"y": 1.6425134127,
				"z": 0.6007969857,
				"element": "O" 
			},
			{
				"x": -2.0008930098,
				"y": 1.133821049,
				"z": 1.1360043603,
				"element": "C" 
			},
			{
				"x": -3.1543026979,
				"y": 1.6500244407,
				"z": 0.3114505521,
				"element": "C" 
			},
			{
				"x": -4.2634312252,
				"y": 2.2359689392,
				"z": 0.9295879003,
				"element": "C" 
			},
			{
				"x": -5.346475159,
				"y": 2.6825869492,
				"z": 0.1692061882,
				"element": "C" 
			},
			{
				"x": -5.3230487911,
				"y": 2.5560775514,
				"z": -1.219707612,
				"element": "C" 
			},
			{
				"x": -4.2143438633,
				"y": 1.9791566097,
				"z": -1.845491009,
				"element": "C" 
			},
			{
				"x": -3.1384306565,
				"y": 1.525677104,
				"z": -1.0845444889,
				"element": "C" 
			},
			{
				"x": 1.5485320662,
				"y": 1.5804859909,
				"z": 0.1649093484,
				"element": "C" 
			},
			{
				"x": 2.8173179576,
				"y": 0.9223538085,
				"z": 0.3843228878,
				"element": "N" 
			},
			{
				"x": 3.2038188947,
				"y": -0.2651537788,
				"z": -0.1874887043,
				"element": "C" 
			},
			{
				"x": 4.3518340005,
				"y": -0.671884376,
				"z": -0.1708234424,
				"element": "O" 
			},
			{
				"x": 2.133977071,
				"y": -0.9039935267,
				"z": -0.7286465795,
				"element": "O" 
			},
			{
				"x": 2.296709035,
				"y": -2.2045339042,
				"z": -1.40262561,
				"element": "C" 
			},
			{
				"x": 3.2299454943,
				"y": -2.0561903343,
				"z": -2.6088349889,
				"element": "C" 
			},
			{
				"x": 2.7993299065,
				"y": -3.2518309121,
				"z": -0.403587491,
				"element": "C" 
			},
			{
				"x": 0.8707001635,
				"y": -2.5261208008,
				"z": -1.8570261594,
				"element": "C" 
			},
			{
				"x": 1.7730792871,
				"y": 3.0991118886,
				"z": 0.3291498031,
				"element": "C" 
			},
			{
				"x": 0.6679576855,
				"y": 3.8523992708,
				"z": 0.2946765805,
				"element": "O" 
			},
			{
				"x": 2.8763515477,
				"y": 3.578903052,
				"z": 0.4636015913,
				"element": "O" 
			},
			{
				"x": -0.053021217,
				"y": 0.8427663031,
				"z": 3.2159273188,
				"element": "H" 
			},
			{
				"x": 0.637518859,
				"y": 2.4165994796,
				"z": 2.7729900678,
				"element": "H" 
			},
			{
				"x": 1.6724628035,
				"y": 0.9746443236,
				"z": 2.8608106787,
				"element": "H" 
			},
			{
				"x": 0.3792383332,
				"y": -0.0413128072,
				"z": 0.93782544,
				"element": "H" 
			},
			{
				"x": -2.1212086672,
				"y": 1.4314216167,
				"z": 2.1854941893,
				"element": "H" 
			},
			{
				"x": -1.9596135071,
				"y": 0.0335972061,
				"z": 1.1047755437,
				"element": "H" 
			},
			{
				"x": -4.2803676354,
				"y": 2.346225934,
				"z": 2.0111293704,
				"element": "H" 
			},
			{
				"x": -6.2016815629,
				"y": 3.1360464559,
				"z": 0.6617654399,
				"element": "H" 
			},
			{
				"x": -6.161744227,
				"y": 2.9077671208,
				"z": -1.8134666185,
				"element": "H" 
			},
			{
				"x": -4.1900787527,
				"y": 1.8817029785,
				"z": -2.927072457,
				"element": "H" 
			},
			{
				"x": -2.2740113971,
				"y": 1.082086644,
				"z": -1.5697086902,
				"element": "H" 
			},
			{
				"x": 1.1926478977,
				"y": 1.4130363245,
				"z": -0.8603297835,
				"element": "H" 
			},
			{
				"x": 3.5814873309,
				"y": 1.5497919803,
				"z": 0.6112391312,
				"element": "H" 
			},
			{
				"x": 2.8633222502,
				"y": -1.2722710629,
				"z": -3.2792649021,
				"element": "H" 
			},
			{
				"x": 4.2419302024,
				"y": -1.8055182977,
				"z": -2.2909106152,
				"element": "H" 
			},
			{
				"x": 3.2567908038,
				"y": -2.9963610945,
				"z": -3.1691692797,
				"element": "H" 
			},
			{
				"x": 2.8120259677,
				"y": -4.2372503104,
				"z": -0.8805165395,
				"element": "H" 
			},
			{
				"x": 2.1314892524,
				"y": -3.3031832491,
				"z": 0.4624545592,
				"element": "H" 
			},
			{
				"x": 3.8057544071,
				"y": -3.0115689915,
				"z": -0.0609008525,
				"element": "H" 
			},
			{
				"x": 0.4943865268,
				"y": -1.7500149101,
				"z": -2.5300653391,
				"element": "H" 
			},
			{
				"x": 0.1960223751,
				"y": -2.5975178306,
				"z": -0.9984891893,
				"element": "H" 
			},
			{
				"x": 0.8531094167,
				"y": -3.4821076963,
				"z": -2.3885146033,
				"element": "H" 
			},
			{
				"x": -0.1226952836,
				"y": 3.267219964,
				"z": 0.2863552458,
				"element": "H" 
			}
		],
		 "valence_orbital": [ 
			{
				"type": "occ",
				"energy": -0.27741,
				"method": "rhf"
			},
			{
				"type": "occ",
				"energy": -0.26632,
				"method": "rhf"
			},
			{
				"type": "occ",
				"energy": -0.26224,
				"method": "rhf"
			},
			{
				"type": "occ",
				"energy": -0.25835,
				"method": "rhf"
			},
			{
				"type": "occ",
				"energy": -0.25589,
				"method": "rhf"
			},
			{
				"type": "unocc",
				"energy": -0.02029,
				"method": "rhf"
			},
			{
				"type": "unocc",
				"energy": -0.01281,
				"method": "rhf"
			},
			{
				"type": "unocc",
				"energy": 0.00596,
				"method": "rhf"
			},
			{
				"type": "unocc",
				"energy": 0.04828,
				"method": "rhf"
			},
			{
				"type": "unocc",
				"energy": 0.06582,
				"method": "rhf"
			}
		],
		"cosmo_sigma_profile": { 
			"-0.025": 0.0,
			"-0.024": 0.0,
			"-0.023": 0.0,
			"-0.022": 0.0,
			"-0.021": 0.0,
			"-0.02": 0.0,
			"-0.019": 0.0,
			"-0.018": 0.0,
			"-0.017": 0.0,
			"-0.016": 0.0,
			"-0.015": 0.0,
			"-0.014": 0.0,
			"-0.013": 0.0,
			"-0.012": 0.0,
			"-0.011": 0.00497818037726,
			"-0.01": 0.413003045196,
			"-0.009": 0.571567729842,
			"-0.008": 2.90318640008,
			"-0.007": 3.20926940593,
			"-0.006": 12.7000387947,
			"-0.005": 24.7036916308,
			"-0.004": 38.1203433756,
			"-0.003": 43.4053716892,
			"-0.002": 36.4338789027,
			"-0.001": 37.7481513942,
			"0.0": 37.5939999682,
			"0.001": 30.2329351174,
			"0.002": 16.374699683,
			"0.003": 16.4564813666,
			"0.004": 12.3973529433,
			"0.005": 13.237943984,
			"0.006": 9.97233117372,
			"0.007": 3.49322486135,
			"0.008": 4.57095429041,
			"0.009": 4.88462809292,
			"0.01": 6.69031271029,
			"0.011": 5.84299776043,
			"0.012": 4.70796659777,
			"0.013": 3.8022791517,
			"0.014": 1.37549714724,
			"0.015": 0.0,
			"0.016": 0.0,
			"0.017": 0.0,
			"0.018": 0.0,
			"0.019": 0.0,
			"0.02": 0.0,
			"0.021": 0.0,
			"0.022": 0.0,
			"0.023": 0.0,
			"0.024": 0.0,
			"0.025": 0.0
		}
	}
}
