{
	 "smiles": "CNC(=O)C1=C(F)C=CC(=C1)[N+]([O-])=O", 
	 "Tm": 416.15, 
	 "num_atms": 21, 
	 "gaussian": { 
		 "optdone": 1, 
		 "sigma_profile": "yes", 
		 "theory": "DFT", 
		 "functional": "B3LYP", 
		 "basiset": "6-31G**", 
		 "properties": { 
			 "R2extent": 3112.6688, 
			 "electric_dipole_moment_norm": 6.01857730199, 
			 "electric_quadrupole_moment_norm": 15.1356444894, 
			 "total_energy": -743.985634831, 
			 "HOMO_LUMO_gap": 0.1656, 
			 "cosmo_polarized_energy": -15.36, 
			 "cosmo_cavitation_energy": 26.81, 
			 "cosmo_dispersion_energy": -19.31, 
			 "cosmo_repulsion_energy": 1.51, 
			 "cosmo_total_nonelectrostatic_energy": 9.01, 
			 "SMD_solvation_energy": 7.73 
		},
		"coords": [
			{
				"x": 2.5311322577,
				"y": -0.2364814355,
				"z": -2.7197967738,
				"element": "C" 
			},
			{
				"x": 2.8522625222,
				"y": -1.0368417467,
				"z": -1.548721004,
				"element": "N" 
			},
			{
				"x": 2.2550165599,
				"y": -1.0579079964,
				"z": -0.3232494651,
				"element": "C" 
			},
			{
				"x": 2.7567930388,
				"y": -1.6392177436,
				"z": 0.6327313175,
				"element": "O" 
			},
			{
				"x": 0.9501715267,
				"y": -0.3169607619,
				"z": -0.1376966203,
				"element": "C" 
			},
			{
				"x": -0.168732828,
				"y": -0.4604618882,
				"z": -0.9639918925,
				"element": "C" 
			},
			{
				"x": -0.0854030609,
				"y": -1.2438034839,
				"z": -2.0556375115,
				"element": "F" 
			},
			{
				"x": -1.3879415998,
				"y": 0.1615575367,
				"z": -0.7014251868,
				"element": "C" 
			},
			{
				"x": -1.5090804068,
				"y": 0.95870092,
				"z": 0.4295944594,
				"element": "C" 
			},
			{
				"x": -0.4044526633,
				"y": 1.0960409093,
				"z": 1.2721769136,
				"element": "C" 
			},
			{
				"x": 0.8045036558,
				"y": 0.4591631218,
				"z": 1.0165698154,
				"element": "C" 
			},
			{
				"x": -0.5298322844,
				"y": 1.9323950742,
				"z": 2.4756473922,
				"element": "N" 
			},
			{
				"x": 0.4611703438,
				"y": 2.0517263419,
				"z": 3.1931578798,
				"element": "O" 
			},
			{
				"x": -1.620322635,
				"y": 2.4631726444,
				"z": 2.6858041452,
				"element": "O" 
			},
			{
				"x": 1.9169910887,
				"y": 0.6193485444,
				"z": -2.4339288062,
				"element": "H" 
			},
			{
				"x": 3.4562576624,
				"y": 0.1503854177,
				"z": -3.1564952832,
				"element": "H" 
			},
			{
				"x": 1.9938149253,
				"y": -0.8100921763,
				"z": -3.4819577995,
				"element": "H" 
			},
			{
				"x": 3.7065466067,
				"y": -1.5787184219,
				"z": -1.5661322442,
				"element": "H" 
			},
			{
				"x": -2.2190779662,
				"y": 0.004366226,
				"z": -1.3795177956,
				"element": "H" 
			},
			{
				"x": -2.4340407816,
				"y": 1.465149432,
				"z": 0.6741401054,
				"element": "H" 
			},
			{
				"x": 1.630024038,
				"y": 0.5562794859,
				"z": 1.710228354,
				"element": "H" 
			}
		],
		 "valence_orbital": [ 
			{
				"type": "occ",
				"energy": -0.29769,
				"method": "rhf"
			},
			{
				"type": "occ",
				"energy": -0.29598,
				"method": "rhf"
			},
			{
				"type": "occ",
				"energy": -0.28499,
				"method": "rhf"
			},
			{
				"type": "occ",
				"energy": -0.2663,
				"method": "rhf"
			},
			{
				"type": "occ",
				"energy": -0.25947,
				"method": "rhf"
			},
			{
				"type": "unocc",
				"energy": -0.09387,
				"method": "rhf"
			},
			{
				"type": "unocc",
				"energy": -0.05528,
				"method": "rhf"
			},
			{
				"type": "unocc",
				"energy": -0.01087,
				"method": "rhf"
			},
			{
				"type": "unocc",
				"energy": 0.03209,
				"method": "rhf"
			},
			{
				"type": "unocc",
				"energy": 0.06996,
				"method": "rhf"
			}
		],
		"cosmo_sigma_profile": { 
			"-0.025": 0.0,
			"-0.024": 0.0,
			"-0.023": 0.0,
			"-0.022": 0.0,
			"-0.021": 0.0,
			"-0.02": 0.0,
			"-0.019": 0.0,
			"-0.018": 0.0,
			"-0.017": 0.0,
			"-0.016": 0.0,
			"-0.015": 0.0386172880634,
			"-0.014": 1.11274954753,
			"-0.013": 0.911674266051,
			"-0.012": 1.0086639892,
			"-0.011": 1.04921614673,
			"-0.01": 1.56335940324,
			"-0.009": 2.82175717674,
			"-0.008": 4.06366702384,
			"-0.007": 7.49266282923,
			"-0.006": 10.7243000499,
			"-0.005": 13.5386618755,
			"-0.004": 15.5964053912,
			"-0.003": 19.6375214391,
			"-0.002": 23.9537267205,
			"-0.001": 17.063479618,
			"0.0": 12.6222822357,
			"0.001": 10.4389971046,
			"0.002": 8.28497289395,
			"0.003": 10.5541940736,
			"0.004": 4.09946324688,
			"0.005": 3.80569526714,
			"0.006": 5.85746667366,
			"0.007": 9.9846422871,
			"0.008": 8.06928320335,
			"0.009": 5.3592716943,
			"0.01": 3.05682814371,
			"0.011": 1.69619564454,
			"0.012": 2.02406814065,
			"0.013": 5.78100381264,
			"0.014": 2.45473539038,
			"0.015": 0.0,
			"0.016": 0.0,
			"0.017": 0.0,
			"0.018": 0.0,
			"0.019": 0.0,
			"0.02": 0.0,
			"0.021": 0.0,
			"0.022": 0.0,
			"0.023": 0.0,
			"0.024": 0.0,
			"0.025": 0.0
		}
	}
}
