{
	 "smiles": "OC(=O)C1=C(SCC(=O)NC2CCCCCCC2)C=CC=C1", 
	 "Tm": 442.15, 
	 "num_atms": 45, 
	 "gaussian": { 
		 "optdone": 1, 
		 "sigma_profile": "yes", 
		 "theory": "DFT", 
		 "functional": "B3LYP", 
		 "basiset": "6-31G**", 
		 "properties": { 
			 "R2extent": 7889.3471, 
			 "electric_dipole_moment_norm": 4.26293505463, 
			 "electric_quadrupole_moment_norm": 12.656105026, 
			 "total_energy": -1340.30995771, 
			 "HOMO_LUMO_gap": 0.16108, 
			 "cosmo_polarized_energy": -15.38, 
			 "cosmo_cavitation_energy": 44.64, 
			 "cosmo_dispersion_energy": -31.1, 
			 "cosmo_repulsion_energy": 2.35, 
			 "cosmo_total_nonelectrostatic_energy": 15.89, 
			 "SMD_solvation_energy": 7.21 
		},
		"coords": [
			{
				"x": -3.8199358371,
				"y": -0.5362861525,
				"z": -1.6655864623,
				"element": "O" 
			},
			{
				"x": -2.8145956138,
				"y": -0.2627011002,
				"z": -0.8014493114,
				"element": "C" 
			},
			{
				"x": -1.7383398677,
				"y": -0.8244533306,
				"z": -0.8886096486,
				"element": "O" 
			},
			{
				"x": -3.182986534,
				"y": 0.8049595964,
				"z": 0.1742270206,
				"element": "C" 
			},
			{
				"x": -2.6458526639,
				"y": 0.8725357993,
				"z": 1.4795295343,
				"element": "C" 
			},
			{
				"x": -1.6826524601,
				"y": -0.4676323496,
				"z": 2.1918027192,
				"element": "S" 
			},
			{
				"x": -0.1624845115,
				"y": 0.3993603544,
				"z": 2.7441652708,
				"element": "C" 
			},
			{
				"x": 0.8869713795,
				"y": 0.8350427384,
				"z": 1.7088470606,
				"element": "C" 
			},
			{
				"x": 1.7009223977,
				"y": 1.6907017752,
				"z": 2.0502393265,
				"element": "O" 
			},
			{
				"x": 0.9085819601,
				"y": 0.2032546603,
				"z": 0.5109332387,
				"element": "N" 
			},
			{
				"x": 1.8852390643,
				"y": 0.6123748885,
				"z": -0.5196072372,
				"element": "C" 
			},
			{
				"x": 3.3574284746,
				"y": 0.236575025,
				"z": -0.1516950111,
				"element": "C" 
			},
			{
				"x": 4.0611893734,
				"y": -0.9718701254,
				"z": -0.8009622674,
				"element": "C" 
			},
			{
				"x": 3.5751348761,
				"y": -2.3919704154,
				"z": -0.4356268938,
				"element": "C" 
			},
			{
				"x": 2.0580157106,
				"y": -2.6249036286,
				"z": -0.3545923307,
				"element": "C" 
			},
			{
				"x": 1.2305594037,
				"y": -2.4331707636,
				"z": -1.6416133232,
				"element": "C" 
			},
			{
				"x": 1.5178553916,
				"y": -1.1945963689,
				"z": -2.5131979189,
				"element": "C" 
			},
			{
				"x": 1.3668325335,
				"y": 0.2331719314,
				"z": -1.9266168734,
				"element": "C" 
			},
			{
				"x": -2.9891756595,
				"y": 1.9624623838,
				"z": 2.2915258765,
				"element": "C" 
			},
			{
				"x": -3.8157861598,
				"y": 2.9809592616,
				"z": 1.8238468956,
				"element": "C" 
			},
			{
				"x": -4.3586614126,
				"y": 2.9057196181,
				"z": 0.5399877433,
				"element": "C" 
			},
			{
				"x": -4.0545912467,
				"y": 1.8162318104,
				"z": -0.268193738,
				"element": "C" 
			},
			{
				"x": -3.4641968864,
				"y": -1.1923791364,
				"z": -2.2885108703,
				"element": "H" 
			},
			{
				"x": 0.3183417339,
				"y": -0.3143234197,
				"z": 3.4221720832,
				"element": "H" 
			},
			{
				"x": -0.4096129193,
				"y": 1.2811123365,
				"z": 3.3373266156,
				"element": "H" 
			},
			{
				"x": 0.0987641178,
				"y": -0.3437460886,
				"z": 0.2347758977,
				"element": "H" 
			},
			{
				"x": 1.8670609946,
				"y": 1.7084793641,
				"z": -0.4862504142,
				"element": "H" 
			},
			{
				"x": 3.9647344816,
				"y": 1.1138365847,
				"z": -0.4067933783,
				"element": "H" 
			},
			{
				"x": 3.4135959045,
				"y": 0.1652374571,
				"z": 0.9385972977,
				"element": "H" 
			},
			{
				"x": 4.0688607247,
				"y": -0.8398730124,
				"z": -1.8864486338,
				"element": "H" 
			},
			{
				"x": 5.1174330476,
				"y": -0.9068961914,
				"z": -0.5067741832,
				"element": "H" 
			},
			{
				"x": 3.9899125832,
				"y": -2.6520506223,
				"z": 0.5477967065,
				"element": "H" 
			},
			{
				"x": 4.0255899718,
				"y": -3.1018619312,
				"z": -1.1438010131,
				"element": "H" 
			},
			{
				"x": 1.6598351969,
				"y": -1.9869626515,
				"z": 0.4378577891,
				"element": "H" 
			},
			{
				"x": 1.8932184709,
				"y": -3.6546288886,
				"z": -0.0099370329,
				"element": "H" 
			},
			{
				"x": 0.1676428842,
				"y": -2.4486689566,
				"z": -1.3728034874,
				"element": "H" 
			},
			{
				"x": 1.3897252297,
				"y": -3.306660056,
				"z": -2.2895601268,
				"element": "H" 
			},
			{
				"x": 0.8336061396,
				"y": -1.2394128786,
				"z": -3.3711430095,
				"element": "H" 
			},
			{
				"x": 2.5148773458,
				"y": -1.3026670961,
				"z": -2.9482735605,
				"element": "H" 
			},
			{
				"x": 0.3055742674,
				"y": 0.5073118045,
				"z": -1.9427400138,
				"element": "H" 
			},
			{
				"x": 1.8560796374,
				"y": 0.9147306768,
				"z": -2.6339567076,
				"element": "H" 
			},
			{
				"x": -2.6154144893,
				"y": 2.000599226,
				"z": 3.309477605,
				"element": "H" 
			},
			{
				"x": -4.0540721694,
				"y": 3.8193371089,
				"z": 2.4717881391,
				"element": "H" 
			},
			{
				"x": -5.0190940165,
				"y": 3.6855822942,
				"z": 0.1742480235,
				"element": "H" 
			},
			{
				"x": -4.4727308492,
				"y": 1.7436384687,
				"z": -1.2655013959,
				"element": "H" 
			}
		],
		 "valence_orbital": [ 
			{
				"type": "occ",
				"energy": -0.27747,
				"method": "rhf"
			},
			{
				"type": "occ",
				"energy": -0.27503,
				"method": "rhf"
			},
			{
				"type": "occ",
				"energy": -0.24912,
				"method": "rhf"
			},
			{
				"type": "occ",
				"energy": -0.23653,
				"method": "rhf"
			},
			{
				"type": "occ",
				"energy": -0.2218,
				"method": "rhf"
			},
			{
				"type": "unocc",
				"energy": -0.06072,
				"method": "rhf"
			},
			{
				"type": "unocc",
				"energy": -0.03219,
				"method": "rhf"
			},
			{
				"type": "unocc",
				"energy": 0.02373,
				"method": "rhf"
			},
			{
				"type": "unocc",
				"energy": 0.02887,
				"method": "rhf"
			},
			{
				"type": "unocc",
				"energy": 0.04316,
				"method": "rhf"
			}
		],
		"cosmo_sigma_profile": { 
			"-0.025": 0.0,
			"-0.024": 0.0,
			"-0.023": 0.0,
			"-0.022": 0.0,
			"-0.021": 0.0,
			"-0.02": 0.0,
			"-0.019": 0.0962941559599,
			"-0.018": 0.841344220307,
			"-0.017": 1.02336872166,
			"-0.016": 0.591715470172,
			"-0.015": 0.896117404273,
			"-0.014": 0.651239073866,
			"-0.013": 1.08064493913,
			"-0.012": 0.584587208872,
			"-0.011": 0.80012047271,
			"-0.01": 0.421794676246,
			"-0.009": 0.365761998847,
			"-0.008": 4.61677871408,
			"-0.007": 10.1784341337,
			"-0.006": 12.7378869855,
			"-0.005": 11.8385105313,
			"-0.004": 11.4506176082,
			"-0.003": 20.8841656288,
			"-0.002": 32.8583452133,
			"-0.001": 43.7125536225,
			"0.0": 51.1695796237,
			"0.001": 45.6509172969,
			"0.002": 28.3774045046,
			"0.003": 18.0695346926,
			"0.004": 8.23074992757,
			"0.005": 8.37839714228,
			"0.006": 7.09237106264,
			"0.007": 6.91692369027,
			"0.008": 5.05919967122,
			"0.009": 2.863053997,
			"0.01": 1.27253684519,
			"0.011": 2.05718022341,
			"0.012": 1.66159092465,
			"0.013": 2.21978266791,
			"0.014": 5.38853194001,
			"0.015": 1.43501374356,
			"0.016": 0.00872569616329,
			"0.017": 0.0,
			"0.018": 0.0,
			"0.019": 0.0,
			"0.02": 0.0,
			"0.021": 0.0,
			"0.022": 0.0,
			"0.023": 0.0,
			"0.024": 0.0,
			"0.025": 0.0
		}
	}
}
