{
	 "smiles": "COCCOC1=C(C=C(Cl)C=C1)S(Cl)(=O)=O", 
	 "Tm": 312.15, 
	 "num_atms": 26, 
	 "gaussian": { 
		 "optdone": 1, 
		 "sigma_profile": "yes", 
		 "theory": "DFT", 
		 "functional": "B3LYP", 
		 "basiset": "6-31G**", 
		 "properties": { 
			 "R2extent": 7959.6725, 
			 "electric_dipole_moment_norm": 5.84567663321, 
			 "electric_quadrupole_moment_norm": 16.702789238, 
			 "total_energy": -1968.34774331, 
			 "HOMO_LUMO_gap": 0.1641, 
			 "cosmo_polarized_energy": -13.73, 
			 "cosmo_cavitation_energy": 35.72, 
			 "cosmo_dispersion_energy": -25.67, 
			 "cosmo_repulsion_energy": 2.0, 
			 "cosmo_total_nonelectrostatic_energy": 12.05, 
			 "SMD_solvation_energy": 5.29 
		},
		"coords": [
			{
				"x": 2.311779276,
				"y": 2.3129403113,
				"z": -2.4917291507,
				"element": "C" 
			},
			{
				"x": 2.5777567042,
				"y": 1.6958295775,
				"z": -1.2442061155,
				"element": "O" 
			},
			{
				"x": 1.984720088,
				"y": 0.4223403004,
				"z": -1.0859571513,
				"element": "C" 
			},
			{
				"x": 0.5680229375,
				"y": 0.5544636311,
				"z": -0.5237771554,
				"element": "C" 
			},
			{
				"x": 0.0559356681,
				"y": -0.7761196864,
				"z": -0.3985370502,
				"element": "O" 
			},
			{
				"x": -1.1696420272,
				"y": -0.9778436153,
				"z": 0.1167530103,
				"element": "C" 
			},
			{
				"x": -1.6202231332,
				"y": -2.3119279617,
				"z": 0.2161307298,
				"element": "C" 
			},
			{
				"x": -2.8855767507,
				"y": -2.6283303536,
				"z": 0.7097065835,
				"element": "C" 
			},
			{
				"x": -3.7205711585,
				"y": -1.5966186918,
				"z": 1.1289570496,
				"element": "C" 
			},
			{
				"x": -5.3110359008,
				"y": -1.9706031189,
				"z": 1.7607795072,
				"element": "Cl" 
			},
			{
				"x": -3.297851072,
				"y": -0.2701702032,
				"z": 1.0488419201,
				"element": "C" 
			},
			{
				"x": -2.035453884,
				"y": 0.0381709785,
				"z": 0.5454191773,
				"element": "C" 
			},
			{
				"x": -0.5695984053,
				"y": -3.6850863851,
				"z": -0.2452496141,
				"element": "S" 
			},
			{
				"x": -0.4500431139,
				"y": -3.4410098661,
				"z": -2.3597875123,
				"element": "Cl" 
			},
			{
				"x": 0.7785301428,
				"y": -3.5080059252,
				"z": 0.273483269,
				"element": "O" 
			},
			{
				"x": -1.3154621793,
				"y": -4.9190112239,
				"z": -0.0268747807,
				"element": "O" 
			},
			{
				"x": 2.6696866889,
				"y": 1.6971470356,
				"z": -3.3299701696,
				"element": "H" 
			},
			{
				"x": 1.2420692304,
				"y": 2.5190392773,
				"z": -2.6463391298,
				"element": "H" 
			},
			{
				"x": 2.8501761262,
				"y": 3.2633522507,
				"z": -2.4959903422,
				"element": "H" 
			},
			{
				"x": 1.9567669559,
				"y": -0.1392356923,
				"z": -2.0305674831,
				"element": "H" 
			},
			{
				"x": 2.5990747092,
				"y": -0.1421524723,
				"z": -0.3782641555,
				"element": "H" 
			},
			{
				"x": -0.0737068434,
				"y": 1.1403519431,
				"z": -1.1940629979,
				"element": "H" 
			},
			{
				"x": 0.598895224,
				"y": 1.0474870371,
				"z": 0.4551241011,
				"element": "H" 
			},
			{
				"x": -3.1976222983,
				"y": -3.663991568,
				"z": 0.763542473,
				"element": "H" 
			},
			{
				"x": -3.9564980327,
				"y": 0.5261706237,
				"z": 1.3776344402,
				"element": "H" 
			},
			{
				"x": -1.7283289522,
				"y": 1.0749137975,
				"z": 0.4869405473,
				"element": "H" 
			}
		],
		 "valence_orbital": [ 
			{
				"type": "occ",
				"energy": -0.32637,
				"method": "rhf"
			},
			{
				"type": "occ",
				"energy": -0.3112,
				"method": "rhf"
			},
			{
				"type": "occ",
				"energy": -0.29839,
				"method": "rhf"
			},
			{
				"type": "occ",
				"energy": -0.27346,
				"method": "rhf"
			},
			{
				"type": "occ",
				"energy": -0.25291,
				"method": "rhf"
			},
			{
				"type": "unocc",
				"energy": -0.08881,
				"method": "rhf"
			},
			{
				"type": "unocc",
				"energy": -0.05268,
				"method": "rhf"
			},
			{
				"type": "unocc",
				"energy": -0.03257,
				"method": "rhf"
			},
			{
				"type": "unocc",
				"energy": 0.01075,
				"method": "rhf"
			},
			{
				"type": "unocc",
				"energy": 0.04449,
				"method": "rhf"
			}
		],
		"cosmo_sigma_profile": { 
			"-0.025": 0.0,
			"-0.024": 0.0,
			"-0.023": 0.0,
			"-0.022": 0.0,
			"-0.021": 0.0,
			"-0.02": 0.0,
			"-0.019": 0.0,
			"-0.018": 0.0,
			"-0.017": 0.0,
			"-0.016": 0.0,
			"-0.015": 0.0,
			"-0.014": 0.0,
			"-0.013": 0.0,
			"-0.012": 0.0,
			"-0.011": 0.0,
			"-0.01": 0.0,
			"-0.009": 3.09946146877,
			"-0.008": 6.83473693968,
			"-0.007": 9.78471629917,
			"-0.006": 12.8525159253,
			"-0.005": 18.2111806732,
			"-0.004": 21.0851339616,
			"-0.003": 20.5603334938,
			"-0.002": 24.9408303717,
			"-0.001": 24.9421438389,
			"0.0": 25.2099081375,
			"0.001": 18.4046830109,
			"0.002": 15.9794667947,
			"0.003": 22.2327758568,
			"0.004": 21.626405753,
			"0.005": 6.66538521891,
			"0.006": 5.52807891879,
			"0.007": 6.95327659155,
			"0.008": 13.593139585,
			"0.009": 5.82494015626,
			"0.01": 1.02063945304,
			"0.011": 1.46064447512,
			"0.012": 1.43378615296,
			"0.013": 1.19783915394,
			"0.014": 0.0308425504389,
			"0.015": 0.0,
			"0.016": 0.0,
			"0.017": 0.0,
			"0.018": 0.0,
			"0.019": 0.0,
			"0.02": 0.0,
			"0.021": 0.0,
			"0.022": 0.0,
			"0.023": 0.0,
			"0.024": 0.0,
			"0.025": 0.0
		}
	}
}
