{
	 "smiles": "COC1=CC(C)=NN1C1=NC(OC)=CC(C)=N1", 
	 "Tm": 364.15, 
	 "num_atms": 31, 
	 "gaussian": { 
		 "optdone": 1, 
		 "sigma_profile": "yes", 
		 "theory": "DFT", 
		 "functional": "B3LYP", 
		 "basiset": "6-31G**", 
		 "properties": { 
			 "R2extent": 5288.2853, 
			 "electric_dipole_moment_norm": 1.82893982678, 
			 "electric_quadrupole_moment_norm": 14.4905664051, 
			 "total_energy": -797.03315619, 
			 "HOMO_LUMO_gap": 0.18572, 
			 "cosmo_polarized_energy": -15.31, 
			 "cosmo_cavitation_energy": 35.52, 
			 "cosmo_dispersion_energy": -25.36, 
			 "cosmo_repulsion_energy": 2.01, 
			 "cosmo_total_nonelectrostatic_energy": 12.17, 
			 "SMD_solvation_energy": 5.86 
		},
		"coords": [
			{
				"x": 0.8316291915,
				"y": -0.7213149545,
				"z": 4.7577990669,
				"element": "C" 
			},
			{
				"x": 0.6722709424,
				"y": -0.044975344,
				"z": 3.5139401064,
				"element": "O" 
			},
			{
				"x": 0.9449874374,
				"y": -0.7853336016,
				"z": 2.430617941,
				"element": "C" 
			},
			{
				"x": 1.355749222,
				"y": -2.0949788171,
				"z": 2.2985034418,
				"element": "C" 
			},
			{
				"x": 1.4744124779,
				"y": -2.2965349038,
				"z": 0.8957062328,
				"element": "C" 
			},
			{
				"x": 1.8919581245,
				"y": -3.5536262698,
				"z": 0.1892540466,
				"element": "C" 
			},
			{
				"x": 1.1661568542,
				"y": -1.2118105058,
				"z": 0.2079838823,
				"element": "N" 
			},
			{
				"x": 0.8345864327,
				"y": -0.2633734894,
				"z": 1.1527018273,
				"element": "N" 
			},
			{
				"x": 0.451071686,
				"y": 1.0288078558,
				"z": 0.7317247989,
				"element": "C" 
			},
			{
				"x": 0.4418121541,
				"y": 1.2269436144,
				"z": -0.5899987213,
				"element": "N" 
			},
			{
				"x": 0.0811625968,
				"y": 2.4425489918,
				"z": -0.9841799885,
				"element": "C" 
			},
			{
				"x": 0.0460737759,
				"y": 2.7230734665,
				"z": -2.2970480032,
				"element": "O" 
			},
			{
				"x": 0.4082749194,
				"y": 1.6676828794,
				"z": -3.2005480425,
				"element": "C" 
			},
			{
				"x": -0.2700659939,
				"y": 3.4633696065,
				"z": -0.0878081888,
				"element": "C" 
			},
			{
				"x": -0.2216631408,
				"y": 3.1356105142,
				"z": 1.2616088704,
				"element": "C" 
			},
			{
				"x": -0.5737939158,
				"y": 4.1377367237,
				"z": 2.3314603536,
				"element": "C" 
			},
			{
				"x": 0.1420576639,
				"y": 1.9070396907,
				"z": 1.6813113139,
				"element": "N" 
			},
			{
				"x": 0.1594463272,
				"y": -1.5852614736,
				"z": 4.8262012272,
				"element": "H" 
			},
			{
				"x": 0.5757861597,
				"y": 0.0052644048,
				"z": 5.5294027575,
				"element": "H" 
			},
			{
				"x": 1.8667860974,
				"y": -1.0568754937,
				"z": 4.8947608088,
				"element": "H" 
			},
			{
				"x": 1.5444183347,
				"y": -2.8063465059,
				"z": 3.0870024105,
				"element": "H" 
			},
			{
				"x": 1.1037639094,
				"y": -3.9052448806,
				"z": -0.4841251402,
				"element": "H" 
			},
			{
				"x": 2.1096989806,
				"y": -4.3492966757,
				"z": 0.9061930258,
				"element": "H" 
			},
			{
				"x": 2.7875982943,
				"y": -3.3837901349,
				"z": -0.4168037174,
				"element": "H" 
			},
			{
				"x": -0.259636932,
				"y": 0.8100882373,
				"z": -3.088124587,
				"element": "H" 
			},
			{
				"x": 0.3137293673,
				"y": 2.1009319535,
				"z": -4.1968825957,
				"element": "H" 
			},
			{
				"x": 1.4331703599,
				"y": 1.3336300078,
				"z": -3.0210793639,
				"element": "H" 
			},
			{
				"x": -0.5594506091,
				"y": 4.4439751412,
				"z": -0.4455753316,
				"element": "H" 
			},
			{
				"x": -0.4698920914,
				"y": 3.6779295089,
				"z": 3.3149552973,
				"element": "H" 
			},
			{
				"x": 0.0807444516,
				"y": 5.0145378388,
				"z": 2.2770454656,
				"element": "H" 
			},
			{
				"x": -1.6030430778,
				"y": 4.4931926151,
				"z": 2.2112008052,
				"element": "H" 
			}
		],
		 "valence_orbital": [ 
			{
				"type": "occ",
				"energy": -0.27004,
				"method": "rhf"
			},
			{
				"type": "occ",
				"energy": -0.26056,
				"method": "rhf"
			},
			{
				"type": "occ",
				"energy": -0.24299,
				"method": "rhf"
			},
			{
				"type": "occ",
				"energy": -0.22465,
				"method": "rhf"
			},
			{
				"type": "occ",
				"energy": -0.21087,
				"method": "rhf"
			},
			{
				"type": "unocc",
				"energy": -0.02515,
				"method": "rhf"
			},
			{
				"type": "unocc",
				"energy": -0.00696,
				"method": "rhf"
			},
			{
				"type": "unocc",
				"energy": 0.05101,
				"method": "rhf"
			},
			{
				"type": "unocc",
				"energy": 0.09111,
				"method": "rhf"
			},
			{
				"type": "unocc",
				"energy": 0.1002,
				"method": "rhf"
			}
		],
		"cosmo_sigma_profile": { 
			"-0.025": 0.0,
			"-0.024": 0.0,
			"-0.023": 0.0,
			"-0.022": 0.0,
			"-0.021": 0.0,
			"-0.02": 0.0,
			"-0.019": 0.0,
			"-0.018": 0.0,
			"-0.017": 0.0,
			"-0.016": 0.0,
			"-0.015": 0.0,
			"-0.014": 0.0,
			"-0.013": 0.0,
			"-0.012": 0.0,
			"-0.011": 0.0,
			"-0.01": 0.0,
			"-0.009": 0.0,
			"-0.008": 0.321940108776,
			"-0.007": 4.25363385231,
			"-0.006": 13.2901277701,
			"-0.005": 25.7757999117,
			"-0.004": 32.5207242569,
			"-0.003": 27.8295727706,
			"-0.002": 24.2165406141,
			"-0.001": 30.3506435289,
			"0.0": 26.6983460103,
			"0.001": 18.7073304273,
			"0.002": 13.1763863086,
			"0.003": 9.43619138699,
			"0.004": 10.3311856803,
			"0.005": 8.6750796245,
			"0.006": 5.27055440945,
			"0.007": 4.66749708191,
			"0.008": 4.54411733563,
			"0.009": 3.50280913722,
			"0.01": 3.47782702625,
			"0.011": 2.52669199217,
			"0.012": 1.70057090656,
			"0.013": 3.07737112367,
			"0.014": 1.88086556228,
			"0.015": 2.03265360099,
			"0.016": 1.19577310604,
			"0.017": 0.943624158202,
			"0.018": 1.33720846139,
			"0.019": 0.498870950211,
			"0.02": 0.0333679955794,
			"0.021": 0.0,
			"0.022": 0.0,
			"0.023": 0.0,
			"0.024": 0.0,
			"0.025": 0.0
		}
	}
}
