{
	 "smiles": "CC=CCCC=CC", 
	 "Tm": 197.15, 
	 "num_atms": 22, 
	 "gaussian": { 
		 "optdone": 1, 
		 "sigma_profile": "yes", 
		 "theory": "DFT", 
		 "functional": "B3LYP", 
		 "basiset": "6-31G**", 
		 "properties": { 
			 "R2extent": 2402.683, 
			 "electric_dipole_moment_norm": 0.0, 
			 "electric_quadrupole_moment_norm": 3.39598171962, 
			 "total_energy": -313.264539854, 
			 "HOMO_LUMO_gap": 0.25935, 
			 "cosmo_polarized_energy": -2.32, 
			 "cosmo_cavitation_energy": 25.18, 
			 "cosmo_dispersion_energy": -17.96, 
			 "cosmo_repulsion_energy": 1.56, 
			 "cosmo_total_nonelectrostatic_energy": 8.77, 
			 "SMD_solvation_energy": 4.67 
		},
		"coords": [
			{
				"x": 2.361696487,
				"y": -0.9538710674,
				"z": 4.6358329424,
				"element": "C" 
			},
			{
				"x": 2.3086227713,
				"y": -0.6306336813,
				"z": 3.1700330416,
				"element": "C" 
			},
			{
				"x": 1.4229943676,
				"y": -1.1263949959,
				"z": 2.3016850137,
				"element": "C" 
			},
			{
				"x": 1.3634970213,
				"y": -0.7957774219,
				"z": 0.8356463693,
				"element": "C" 
			},
			{
				"x": 0.0371051705,
				"y": -0.1097148994,
				"z": 0.4260072155,
				"element": "C" 
			},
			{
				"x": -0.0223925597,
				"y": 0.2209025795,
				"z": -1.0400314071,
				"element": "C" 
			},
			{
				"x": -0.9080235639,
				"y": -0.2748559634,
				"z": -1.9083783559,
				"element": "C" 
			},
			{
				"x": -0.9610986719,
				"y": 0.0483813701,
				"z": -3.3741784959,
				"element": "C" 
			},
			{
				"x": 2.2501899054,
				"y": -0.049582341,
				"z": 5.2480377594,
				"element": "H" 
			},
			{
				"x": 3.3261094589,
				"y": -1.3997036142,
				"z": 4.9116727142,
				"element": "H" 
			},
			{
				"x": 1.5714609487,
				"y": -1.6550052436,
				"z": 4.9217055734,
				"element": "H" 
			},
			{
				"x": 3.0663322441,
				"y": 0.0647200842,
				"z": 2.8036339737,
				"element": "H" 
			},
			{
				"x": 0.6627276304,
				"y": -1.8207644428,
				"z": 2.6668160987,
				"element": "H" 
			},
			{
				"x": 1.471168389,
				"y": -1.7133659793,
				"z": 0.2401143423,
				"element": "H" 
			},
			{
				"x": 2.2081185291,
				"y": -0.1487994304,
				"z": 0.5664222282,
				"element": "H" 
			},
			{
				"x": -0.807516253,
				"y": -0.7566930449,
				"z": 0.6952317211,
				"element": "H" 
			},
			{
				"x": -0.0705658332,
				"y": 0.8078732707,
				"z": 1.021539572,
				"element": "H" 
			},
			{
				"x": 0.7378762533,
				"y": 0.9152695954,
				"z": -1.4051629156,
				"element": "H" 
			},
			{
				"x": -1.665734218,
				"y": -0.9702074009,
				"z": -1.5419770765,
				"element": "H" 
			},
			{
				"x": -1.9255101153,
				"y": 0.4942186795,
				"z": -3.6500157098,
				"element": "H" 
			},
			{
				"x": -0.1708603584,
				"y": 0.7495120112,
				"z": -3.6600517203,
				"element": "H" 
			},
			{
				"x": -0.8495976033,
				"y": -0.8559080639,
				"z": -3.9863828842,
				"element": "H" 
			}
		],
		 "valence_orbital": [ 
			{
				"type": "occ",
				"energy": -0.33856,
				"method": "rhf"
			},
			{
				"type": "occ",
				"energy": -0.33048,
				"method": "rhf"
			},
			{
				"type": "occ",
				"energy": -0.32153,
				"method": "rhf"
			},
			{
				"type": "occ",
				"energy": -0.24271,
				"method": "rhf"
			},
			{
				"type": "occ",
				"energy": -0.23062,
				"method": "rhf"
			},
			{
				"type": "unocc",
				"energy": 0.02873,
				"method": "rhf"
			},
			{
				"type": "unocc",
				"energy": 0.03593,
				"method": "rhf"
			},
			{
				"type": "unocc",
				"energy": 0.11049,
				"method": "rhf"
			},
			{
				"type": "unocc",
				"energy": 0.11957,
				"method": "rhf"
			},
			{
				"type": "unocc",
				"energy": 0.12195,
				"method": "rhf"
			}
		],
		"cosmo_sigma_profile": { 
			"-0.025": 0.0,
			"-0.024": 0.0,
			"-0.023": 0.0,
			"-0.022": 0.0,
			"-0.021": 0.0,
			"-0.02": 0.0,
			"-0.019": 0.0,
			"-0.018": 0.0,
			"-0.017": 0.0,
			"-0.016": 0.0,
			"-0.015": 0.0,
			"-0.014": 0.0,
			"-0.013": 0.0,
			"-0.012": 0.0,
			"-0.011": 0.0,
			"-0.01": 0.0,
			"-0.009": 0.0,
			"-0.008": 0.0,
			"-0.007": 0.0,
			"-0.006": 0.0,
			"-0.005": 0.0,
			"-0.004": 6.54223951654,
			"-0.003": 27.7386250635,
			"-0.002": 31.3887810543,
			"-0.001": 32.2114259626,
			"0.0": 28.570269333,
			"0.001": 24.0969737513,
			"0.002": 12.4796788396,
			"0.003": 8.80455095174,
			"0.004": 7.70285606704,
			"0.005": 6.77422995755,
			"0.006": 5.17525604332,
			"0.007": 4.18171785005,
			"0.008": 0.430699867482,
			"0.009": 0.0,
			"0.01": 0.0,
			"0.011": 0.0,
			"0.012": 0.0,
			"0.013": 0.0,
			"0.014": 0.0,
			"0.015": 0.0,
			"0.016": 0.0,
			"0.017": 0.0,
			"0.018": 0.0,
			"0.019": 0.0,
			"0.02": 0.0,
			"0.021": 0.0,
			"0.022": 0.0,
			"0.023": 0.0,
			"0.024": 0.0,
			"0.025": 0.0
		}
	}
}
