{
	 "smiles": "OCC1=C(F)C=CC(=C1)C#N", 
	 "Tm": 322.15, 
	 "num_atms": 17, 
	 "gaussian": { 
		 "optdone": 1, 
		 "sigma_profile": "yes", 
		 "theory": "DFT", 
		 "functional": "B3LYP", 
		 "basiset": "6-31G**", 
		 "properties": { 
			 "R2extent": 3026.2767, 
			 "electric_dipole_moment_norm": 5.11471272898, 
			 "electric_quadrupole_moment_norm": 22.6377603274, 
			 "total_energy": -538.248812452, 
			 "HOMO_LUMO_gap": 0.20871, 
			 "cosmo_polarized_energy": -12.16, 
			 "cosmo_cavitation_energy": 22.99, 
			 "cosmo_dispersion_energy": -16.32, 
			 "cosmo_repulsion_energy": 1.31, 
			 "cosmo_total_nonelectrostatic_energy": 7.97, 
			 "SMD_solvation_energy": 5.95 
		},
		"coords": [
			{
				"x": -2.2071369325,
				"y": -2.8493478001,
				"z": -2.3027768075,
				"element": "O" 
			},
			{
				"x": -2.6314468555,
				"y": -2.1166948626,
				"z": -1.1688289039,
				"element": "C" 
			},
			{
				"x": -1.4521627678,
				"y": -1.9116227267,
				"z": -0.2478680171,
				"element": "C" 
			},
			{
				"x": -1.6202956728,
				"y": -1.2108827643,
				"z": 0.9480248817,
				"element": "C" 
			},
			{
				"x": -2.8536716966,
				"y": -0.738357681,
				"z": 1.233831838,
				"element": "F" 
			},
			{
				"x": -0.5871037607,
				"y": -0.9808553726,
				"z": 1.8465678234,
				"element": "C" 
			},
			{
				"x": 0.6807062095,
				"y": -1.4704779111,
				"z": 1.545750126,
				"element": "C" 
			},
			{
				"x": 0.8872038061,
				"y": -2.1802138376,
				"z": 0.3513743714,
				"element": "C" 
			},
			{
				"x": -0.1796872784,
				"y": -2.3971092706,
				"z": -0.5389373855,
				"element": "C" 
			},
			{
				"x": 2.1919290757,
				"y": -2.6860104205,
				"z": 0.0383674155,
				"element": "C" 
			},
			{
				"x": 3.2521443722,
				"y": -3.0946054012,
				"z": -0.21158122,
				"element": "N" 
			},
			{
				"x": -2.9665269798,
				"y": -2.9747581641,
				"z": -2.8834915467,
				"element": "H" 
			},
			{
				"x": -3.0413806753,
				"y": -1.1327313277,
				"z": -1.4481541125,
				"element": "H" 
			},
			{
				"x": -3.4276295731,
				"y": -2.6422522407,
				"z": -0.6173507087,
				"element": "H" 
			},
			{
				"x": -0.7851432211,
				"y": -0.4287364958,
				"z": 2.7583679115,
				"element": "H" 
			},
			{
				"x": 1.507988779,
				"y": -1.3070610595,
				"z": 2.2274880325,
				"element": "H" 
			},
			{
				"x": -0.025186829,
				"y": -2.943782664,
				"z": -1.4608836979,
				"element": "H" 
			}
		],
		 "valence_orbital": [ 
			{
				"type": "occ",
				"energy": -0.33949,
				"method": "rhf"
			},
			{
				"type": "occ",
				"energy": -0.32779,
				"method": "rhf"
			},
			{
				"type": "occ",
				"energy": -0.29684,
				"method": "rhf"
			},
			{
				"type": "occ",
				"energy": -0.27451,
				"method": "rhf"
			},
			{
				"type": "occ",
				"energy": -0.25582,
				"method": "rhf"
			},
			{
				"type": "unocc",
				"energy": -0.04711,
				"method": "rhf"
			},
			{
				"type": "unocc",
				"energy": -0.02769,
				"method": "rhf"
			},
			{
				"type": "unocc",
				"energy": 0.03849,
				"method": "rhf"
			},
			{
				"type": "unocc",
				"energy": 0.05819,
				"method": "rhf"
			},
			{
				"type": "unocc",
				"energy": 0.07584,
				"method": "rhf"
			}
		],
		"cosmo_sigma_profile": { 
			"-0.025": 0.0,
			"-0.024": 0.0,
			"-0.023": 0.0,
			"-0.022": 0.0,
			"-0.021": 0.0,
			"-0.02": 0.0,
			"-0.019": 0.0,
			"-0.018": 0.0,
			"-0.017": 0.262910049639,
			"-0.016": 1.10464551583,
			"-0.015": 1.11188780256,
			"-0.014": 1.29821818918,
			"-0.013": 0.639210757069,
			"-0.012": 0.615447538368,
			"-0.011": 1.61385459118,
			"-0.01": 0.453036151792,
			"-0.009": 1.40628528191,
			"-0.008": 5.50162721147,
			"-0.007": 5.83775837879,
			"-0.006": 8.96653230293,
			"-0.005": 12.3141401996,
			"-0.004": 9.70750486233,
			"-0.003": 9.22024424855,
			"-0.002": 11.6260894538,
			"-0.001": 14.5888254938,
			"0.0": 16.1909925745,
			"0.001": 17.8701812177,
			"0.002": 11.9164863014,
			"0.003": 9.48340724985,
			"0.004": 7.79349920078,
			"0.005": 3.58936788912,
			"0.006": 3.4854996863,
			"0.007": 4.74446149166,
			"0.008": 4.94615978907,
			"0.009": 5.26619394843,
			"0.01": 4.77614448653,
			"0.011": 3.6801936361,
			"0.012": 3.19385730979,
			"0.013": 1.6339814081,
			"0.014": 0.0941186818729,
			"0.015": 0.0,
			"0.016": 0.0,
			"0.017": 0.0,
			"0.018": 0.0,
			"0.019": 0.0,
			"0.02": 0.0,
			"0.021": 0.0,
			"0.022": 0.0,
			"0.023": 0.0,
			"0.024": 0.0,
			"0.025": 0.0
		}
	}
}
