{
	 "smiles": "NC(=S)CO", 
	 "Tm": 328.15, 
	 "num_atms": 10, 
	 "gaussian": { 
		 "optdone": 1, 
		 "sigma_profile": "yes", 
		 "theory": "DFT", 
		 "functional": "B3LYP", 
		 "basiset": "6-31G**", 
		 "properties": { 
			 "R2extent": 702.2615, 
			 "electric_dipole_moment_norm": 4.10750139501, 
			 "electric_quadrupole_moment_norm": 11.8425274321, 
			 "total_energy": -607.38528682, 
			 "HOMO_LUMO_gap": 0.17883, 
			 "cosmo_polarized_energy": -16.34, 
			 "cosmo_cavitation_energy": 15.44, 
			 "cosmo_dispersion_energy": -12.18, 
			 "cosmo_repulsion_energy": 1.05, 
			 "cosmo_total_nonelectrostatic_energy": 4.31, 
			 "SMD_solvation_energy": 2.07 
		},
		"coords": [
			{
				"x": -0.8576340773,
				"y": 1.9206719353,
				"z": -0.2743356878,
				"element": "N" 
			},
			{
				"x": -0.1187061052,
				"y": 0.8629936665,
				"z": -0.6295879146,
				"element": "C" 
			},
			{
				"x": 0.2264874737,
				"y": 0.41445732,
				"z": -2.1915826177,
				"element": "S" 
			},
			{
				"x": 0.43950454,
				"y": 0.0905555349,
				"z": 0.5653579655,
				"element": "C" 
			},
			{
				"x": -0.1629529922,
				"y": 0.445303575,
				"z": 1.8067771785,
				"element": "O" 
			},
			{
				"x": -1.238976121,
				"y": 2.5302293492,
				"z": -0.9821832621,
				"element": "H" 
			},
			{
				"x": -0.9784694715,
				"y": 2.1198494348,
				"z": 0.7111611942,
				"element": "H" 
			},
			{
				"x": 0.3679793999,
				"y": -0.9807009733,
				"z": 0.3529186185,
				"element": "H" 
			},
			{
				"x": 1.5032971214,
				"y": 0.3364516105,
				"z": 0.6486658199,
				"element": "H" 
			},
			{
				"x": -0.9698297678,
				"y": -0.0765114529,
				"z": 1.9065087055,
				"element": "H" 
			}
		],
		 "valence_orbital": [ 
			{
				"type": "occ",
				"energy": -0.36871,
				"method": "rhf"
			},
			{
				"type": "occ",
				"energy": -0.34802,
				"method": "rhf"
			},
			{
				"type": "occ",
				"energy": -0.31128,
				"method": "rhf"
			},
			{
				"type": "occ",
				"energy": -0.23112,
				"method": "rhf"
			},
			{
				"type": "occ",
				"energy": -0.2083,
				"method": "rhf"
			},
			{
				"type": "unocc",
				"energy": -0.02947,
				"method": "rhf"
			},
			{
				"type": "unocc",
				"energy": 0.04678,
				"method": "rhf"
			},
			{
				"type": "unocc",
				"energy": 0.09022,
				"method": "rhf"
			},
			{
				"type": "unocc",
				"energy": 0.09961,
				"method": "rhf"
			},
			{
				"type": "unocc",
				"energy": 0.13361,
				"method": "rhf"
			}
		],
		"cosmo_sigma_profile": { 
			"-0.025": 0.0,
			"-0.024": 0.0,
			"-0.023": 0.0,
			"-0.022": 0.0,
			"-0.021": 0.0,
			"-0.02": 0.0,
			"-0.019": 0.0,
			"-0.018": 0.0,
			"-0.017": 0.918393850762,
			"-0.016": 1.18882783125,
			"-0.015": 2.46740993681,
			"-0.014": 2.26263446995,
			"-0.013": 2.89953406163,
			"-0.012": 3.27767692521,
			"-0.011": 3.07077287353,
			"-0.01": 2.89120817457,
			"-0.009": 2.78050095518,
			"-0.008": 3.64199262435,
			"-0.007": 5.78910981128,
			"-0.006": 4.63223928977,
			"-0.005": 4.78746182113,
			"-0.004": 5.12233879958,
			"-0.003": 6.46351000542,
			"-0.002": 4.10992450721,
			"-0.001": 3.71228682241,
			"0.0": 3.8636026742,
			"0.001": 3.6192995801,
			"0.002": 3.79254258292,
			"0.003": 3.65267186669,
			"0.004": 4.10679629398,
			"0.005": 4.35866430608,
			"0.006": 4.13424265539,
			"0.007": 4.9865548083,
			"0.008": 5.42891282524,
			"0.009": 7.49923785848,
			"0.01": 6.4745744418,
			"0.011": 5.5131874469,
			"0.012": 4.80634839782,
			"0.013": 1.85876468475,
			"0.014": 0.0119955922879,
			"0.015": 0.0,
			"0.016": 0.0,
			"0.017": 0.0,
			"0.018": 0.0,
			"0.019": 0.0,
			"0.02": 0.0,
			"0.021": 0.0,
			"0.022": 0.0,
			"0.023": 0.0,
			"0.024": 0.0,
			"0.025": 0.0
		}
	}
}
