{
	 "smiles": "NC1=C(CN2CCCCC2)C(=O)OC2=CC=CC=C12", 
	 "Tm": 463.15, 
	 "num_atms": 37, 
	 "gaussian": { 
		 "optdone": 1, 
		 "sigma_profile": "yes", 
		 "theory": "DFT", 
		 "functional": "B3LYP", 
		 "basiset": "6-31G**", 
		 "properties": { 
			 "R2extent": 7055.5823, 
			 "electric_dipole_moment_norm": 5.47162122501, 
			 "electric_quadrupole_moment_norm": 17.6884310712, 
			 "total_energy": -842.413042404, 
			 "HOMO_LUMO_gap": 0.164, 
			 "cosmo_polarized_energy": -14.86, 
			 "cosmo_cavitation_energy": 37.57, 
			 "cosmo_dispersion_energy": -27.08, 
			 "cosmo_repulsion_energy": 2.05, 
			 "cosmo_total_nonelectrostatic_energy": 12.54, 
			 "SMD_solvation_energy": 6.37 
		},
		"coords": [
			{
				"x": 3.1827499667,
				"y": 0.3263711912,
				"z": 0.3689873784,
				"element": "N" 
			},
			{
				"x": 2.3125663704,
				"y": 0.7472890124,
				"z": -0.5985039858,
				"element": "C" 
			},
			{
				"x": 1.1203765576,
				"y": 1.3532939249,
				"z": -0.250460603,
				"element": "C" 
			},
			{
				"x": 0.7578227353,
				"y": 1.6327140792,
				"z": 1.1918757352,
				"element": "C" 
			},
			{
				"x": 0.9268910241,
				"y": 0.4740785785,
				"z": 2.090675258,
				"element": "N" 
			},
			{
				"x": 0.8481680802,
				"y": 0.9007048375,
				"z": 3.5010714261,
				"element": "C" 
			},
			{
				"x": 0.6743695912,
				"y": -0.3033641755,
				"z": 4.4538416423,
				"element": "C" 
			},
			{
				"x": 1.2190998169,
				"y": -1.5888706598,
				"z": 3.8214828498,
				"element": "C" 
			},
			{
				"x": 0.4476318074,
				"y": -1.9069276506,
				"z": 2.5214078601,
				"element": "C" 
			},
			{
				"x": -0.022213677,
				"y": -0.6145458312,
				"z": 1.8196820515,
				"element": "C" 
			},
			{
				"x": 0.1857233224,
				"y": 1.8082985162,
				"z": -1.2556580937,
				"element": "C" 
			},
			{
				"x": -0.8820961808,
				"y": 2.3527149506,
				"z": -1.0599882666,
				"element": "O" 
			},
			{
				"x": 0.534204081,
				"y": 1.5917664268,
				"z": -2.5978647243,
				"element": "O" 
			},
			{
				"x": 1.7160404293,
				"y": 1.0305021617,
				"z": -2.9587023428,
				"element": "C" 
			},
			{
				"x": 1.9606106079,
				"y": 0.9058881034,
				"z": -4.3307572269,
				"element": "C" 
			},
			{
				"x": 3.1570692284,
				"y": 0.3510863493,
				"z": -4.7658356572,
				"element": "C" 
			},
			{
				"x": 4.1170939895,
				"y": -0.0772011005,
				"z": -3.8380772109,
				"element": "C" 
			},
			{
				"x": 3.865794682,
				"y": 0.0451412515,
				"z": -2.4782061802,
				"element": "C" 
			},
			{
				"x": 2.6564382424,
				"y": 0.5923034501,
				"z": -2.0087687569,
				"element": "C" 
			},
			{
				"x": 2.7278990422,
				"y": 0.1767911227,
				"z": 1.2745039871,
				"element": "H" 
			},
			{
				"x": 3.8841349387,
				"y": -0.3488041504,
				"z": 0.1074195035,
				"element": "H" 
			},
			{
				"x": 1.4157174571,
				"y": 2.423610955,
				"z": 1.5805447783,
				"element": "H" 
			},
			{
				"x": -0.2684461644,
				"y": 2.0262871037,
				"z": 1.222522237,
				"element": "H" 
			},
			{
				"x": 0.0133008909,
				"y": 1.609484264,
				"z": 3.6484963744,
				"element": "H" 
			},
			{
				"x": 1.7714303917,
				"y": 1.4455713116,
				"z": 3.7346738316,
				"element": "H" 
			},
			{
				"x": 1.1690203721,
				"y": -0.09016845,
				"z": 5.4073238327,
				"element": "H" 
			},
			{
				"x": -0.3888380447,
				"y": -0.4442294463,
				"z": 4.6838164073,
				"element": "H" 
			},
			{
				"x": 1.1474403737,
				"y": -2.4255557747,
				"z": 4.5248046235,
				"element": "H" 
			},
			{
				"x": 2.2850762668,
				"y": -1.4577401161,
				"z": 3.6006918412,
				"element": "H" 
			},
			{
				"x": -0.4282333647,
				"y": -2.5284126915,
				"z": 2.74155488,
				"element": "H" 
			},
			{
				"x": 1.0841152015,
				"y": -2.4906510116,
				"z": 1.8469995396,
				"element": "H" 
			},
			{
				"x": -0.0804459857,
				"y": -0.7626955547,
				"z": 0.7382836344,
				"element": "H" 
			},
			{
				"x": -1.0387975344,
				"y": -0.3357216108,
				"z": 2.1522448282,
				"element": "H" 
			},
			{
				"x": 1.2029744518,
				"y": 1.2539394144,
				"z": -5.0243578956,
				"element": "H" 
			},
			{
				"x": 3.3489726001,
				"y": 0.2557267612,
				"z": -5.8303320404,
				"element": "H" 
			},
			{
				"x": 5.056809824,
				"y": -0.4991575963,
				"z": -4.1797404738,
				"element": "H" 
			},
			{
				"x": 4.6295286085,
				"y": -0.2697179458,
				"z": -1.7734510421,
				"element": "H" 
			}
		],
		 "valence_orbital": [ 
			{
				"type": "occ",
				"energy": -0.26638,
				"method": "rhf"
			},
			{
				"type": "occ",
				"energy": -0.25834,
				"method": "rhf"
			},
			{
				"type": "occ",
				"energy": -0.23986,
				"method": "rhf"
			},
			{
				"type": "occ",
				"energy": -0.22253,
				"method": "rhf"
			},
			{
				"type": "occ",
				"energy": -0.21176,
				"method": "rhf"
			},
			{
				"type": "unocc",
				"energy": -0.04776,
				"method": "rhf"
			},
			{
				"type": "unocc",
				"energy": -0.00603,
				"method": "rhf"
			},
			{
				"type": "unocc",
				"energy": 0.02039,
				"method": "rhf"
			},
			{
				"type": "unocc",
				"energy": 0.06131,
				"method": "rhf"
			},
			{
				"type": "unocc",
				"energy": 0.07675,
				"method": "rhf"
			}
		],
		"cosmo_sigma_profile": { 
			"-0.025": 0.0,
			"-0.024": 0.0,
			"-0.023": 0.0,
			"-0.022": 0.0,
			"-0.021": 0.0,
			"-0.02": 0.0,
			"-0.019": 0.0,
			"-0.018": 0.0,
			"-0.017": 0.0,
			"-0.016": 0.0,
			"-0.015": 0.0919132346132,
			"-0.014": 1.06405781529,
			"-0.013": 1.21786128879,
			"-0.012": 1.10071652102,
			"-0.011": 1.38433008862,
			"-0.01": 0.916901924441,
			"-0.009": 1.84151504997,
			"-0.008": 2.2758690473,
			"-0.007": 4.77747782741,
			"-0.006": 7.55215777055,
			"-0.005": 9.37758845247,
			"-0.004": 12.6125750678,
			"-0.003": 20.8305865069,
			"-0.002": 42.4533157684,
			"-0.001": 47.2500774883,
			"0.0": 41.2975356383,
			"0.001": 26.2312128551,
			"0.002": 15.3318655504,
			"0.003": 13.1179649168,
			"0.004": 11.4811706604,
			"0.005": 3.68232984715,
			"0.006": 2.73632724662,
			"0.007": 2.66497442203,
			"0.008": 3.26109083048,
			"0.009": 2.66888480522,
			"0.01": 2.55475692917,
			"0.011": 2.99864755272,
			"0.012": 2.74034908603,
			"0.013": 6.19057962956,
			"0.014": 3.40399801961,
			"0.015": 0.5315409145,
			"0.016": 0.0,
			"0.017": 0.0,
			"0.018": 0.0,
			"0.019": 0.0,
			"0.02": 0.0,
			"0.021": 0.0,
			"0.022": 0.0,
			"0.023": 0.0,
			"0.024": 0.0,
			"0.025": 0.0
		}
	}
}
