{
	 "smiles": "CC1=C(C)C(C)=C(Br)C(C)=C1C", 
	 "Tm": 437.15, 
	 "num_atms": 27, 
	 "gaussian": { 
		 "optdone": 1, 
		 "sigma_profile": "yes", 
		 "theory": "DFT", 
		 "functional": "B3LYP", 
		 "basiset": "6-31G**", 
		 "properties": { 
			 "R2extent": 4827.5494, 
			 "electric_dipole_moment_norm": 2.24810071838, 
			 "electric_quadrupole_moment_norm": 8.29721099045, 
			 "total_energy": -2999.63943444, 
			 "HOMO_LUMO_gap": 0.2221, 
			 "cosmo_polarized_energy": -3.8, 
			 "cosmo_cavitation_energy": 29.17, 
			 "cosmo_dispersion_energy": -22.03, 
			 "cosmo_repulsion_energy": 1.72, 
			 "cosmo_total_nonelectrostatic_energy": 8.85, 
			 "SMD_solvation_energy": 3.93 
		},
		"coords": [
			{
				"x": -1.9665279388,
				"y": 1.0718168142,
				"z": 0.7327769328,
				"element": "C" 
			},
			{
				"x": -1.2932893776,
				"y": -0.1770463122,
				"z": 0.1950285385,
				"element": "C" 
			},
			{
				"x": -1.0819552083,
				"y": -0.3207760636,
				"z": -1.1894708228,
				"element": "C" 
			},
			{
				"x": -1.6192226933,
				"y": 0.7189071214,
				"z": -2.1546701574,
				"element": "C" 
			},
			{
				"x": -0.3794361727,
				"y": -1.4352861302,
				"z": -1.6944596874,
				"element": "C" 
			},
			{
				"x": -0.1149916485,
				"y": -1.5432757712,
				"z": -3.1798465969,
				"element": "C" 
			},
			{
				"x": 0.0578045459,
				"y": -2.4018120289,
				"z": -0.7769104657,
				"element": "C" 
			},
			{
				"x": 0.9779739025,
				"y": -3.9662773414,
				"z": -1.4573577083,
				"element": "Br" 
			},
			{
				"x": -0.1638899521,
				"y": -2.3088927137,
				"z": 0.60492731,
				"element": "C" 
			},
			{
				"x": 0.3314204983,
				"y": -3.3523600573,
				"z": 1.5815484964,
				"element": "C" 
			},
			{
				"x": -0.86905601,
				"y": -1.1841503722,
				"z": 1.0826976282,
				"element": "C" 
			},
			{
				"x": -1.1772520789,
				"y": -1.0742702229,
				"z": 2.5639642298,
				"element": "C" 
			},
			{
				"x": -3.0579770065,
				"y": 0.9613377624,
				"z": 0.7946683595,
				"element": "H" 
			},
			{
				"x": -1.6111427284,
				"y": 1.3204621091,
				"z": 1.7345578917,
				"element": "H" 
			},
			{
				"x": -1.7663889598,
				"y": 1.9399390009,
				"z": 0.1019468215,
				"element": "H" 
			},
			{
				"x": -0.8973361998,
				"y": 1.5280109263,
				"z": -2.332475528,
				"element": "H" 
			},
			{
				"x": -2.5354703117,
				"y": 1.1800426901,
				"z": -1.7807708712,
				"element": "H" 
			},
			{
				"x": -1.8556094814,
				"y": 0.2823534354,
				"z": -3.126502047,
				"element": "H" 
			},
			{
				"x": 0.2076323682,
				"y": -0.5834065584,
				"z": -3.5929070735,
				"element": "H" 
			},
			{
				"x": 0.6573655487,
				"y": -2.2786545918,
				"z": -3.3974889353,
				"element": "H" 
			},
			{
				"x": -1.0172567848,
				"y": -1.8459877163,
				"z": -3.7268371282,
				"element": "H" 
			},
			{
				"x": 1.0838799498,
				"y": -3.9976221042,
				"z": 1.1319074279,
				"element": "H" 
			},
			{
				"x": -0.4863553665,
				"y": -3.9972545198,
				"z": 1.9283835614,
				"element": "H" 
			},
			{
				"x": 0.7731979495,
				"y": -2.8851945475,
				"z": 2.4661857022,
				"element": "H" 
			},
			{
				"x": -1.2810020949,
				"y": -2.0566707224,
				"z": 3.0277383431,
				"element": "H" 
			},
			{
				"x": -0.3866496484,
				"y": -0.5421856746,
				"z": 3.1109705737,
				"element": "H" 
			},
			{
				"x": -2.1108651007,
				"y": -0.5371464111,
				"z": 2.742295205,
				"element": "H" 
			}
		],
		 "valence_orbital": [ 
			{
				"type": "occ",
				"energy": -0.32394,
				"method": "rhf"
			},
			{
				"type": "occ",
				"energy": -0.28964,
				"method": "rhf"
			},
			{
				"type": "occ",
				"energy": -0.27152,
				"method": "rhf"
			},
			{
				"type": "occ",
				"energy": -0.22513,
				"method": "rhf"
			},
			{
				"type": "occ",
				"energy": -0.2211,
				"method": "rhf"
			},
			{
				"type": "unocc",
				"energy": 0.001,
				"method": "rhf"
			},
			{
				"type": "unocc",
				"energy": 0.00235,
				"method": "rhf"
			},
			{
				"type": "unocc",
				"energy": 0.01771,
				"method": "rhf"
			},
			{
				"type": "unocc",
				"energy": 0.08796,
				"method": "rhf"
			},
			{
				"type": "unocc",
				"energy": 0.10848,
				"method": "rhf"
			}
		],
		"cosmo_sigma_profile": { 
			"-0.025": 0.0,
			"-0.024": 0.0,
			"-0.023": 0.0,
			"-0.022": 0.0,
			"-0.021": 0.0,
			"-0.02": 0.0,
			"-0.019": 0.0,
			"-0.018": 0.0,
			"-0.017": 0.0,
			"-0.016": 0.0,
			"-0.015": 0.0,
			"-0.014": 0.0,
			"-0.013": 0.0,
			"-0.012": 0.0,
			"-0.011": 0.0,
			"-0.01": 0.0,
			"-0.009": 0.0,
			"-0.008": 0.0,
			"-0.007": 0.0,
			"-0.006": 0.0,
			"-0.005": 0.503913530272,
			"-0.004": 15.8946260809,
			"-0.003": 33.399091394,
			"-0.002": 34.151027664,
			"-0.001": 27.0898721397,
			"0.0": 32.9692799301,
			"0.001": 25.5469788415,
			"0.002": 14.5227878779,
			"0.003": 14.0330926445,
			"0.004": 13.8615549927,
			"0.005": 13.6618146044,
			"0.006": 6.61103376109,
			"0.007": 0.0,
			"0.008": 0.0,
			"0.009": 0.0,
			"0.01": 0.0,
			"0.011": 0.0,
			"0.012": 0.0,
			"0.013": 0.0,
			"0.014": 0.0,
			"0.015": 0.0,
			"0.016": 0.0,
			"0.017": 0.0,
			"0.018": 0.0,
			"0.019": 0.0,
			"0.02": 0.0,
			"0.021": 0.0,
			"0.022": 0.0,
			"0.023": 0.0,
			"0.024": 0.0,
			"0.025": 0.0
		}
	}
}
