{
	 "smiles": "CCC1=NC2=NC(=NN2C(Cl)=C1)C(=O)OC", 
	 "Tm": 453.15, 
	 "num_atms": 25, 
	 "gaussian": { 
		 "optdone": 1, 
		 "sigma_profile": "yes", 
		 "theory": "DFT", 
		 "functional": "B3LYP", 
		 "basiset": "6-31G**", 
		 "properties": { 
			 "R2extent": 5933.1443, 
			 "electric_dipole_moment_norm": 4.92939403375, 
			 "electric_quadrupole_moment_norm": 14.9995184713, 
			 "total_energy": -1178.00987408, 
			 "HOMO_LUMO_gap": 0.18297, 
			 "cosmo_polarized_energy": -18.38, 
			 "cosmo_cavitation_energy": 32.61, 
			 "cosmo_dispersion_energy": -23.83, 
			 "cosmo_repulsion_energy": 1.89, 
			 "cosmo_total_nonelectrostatic_energy": 10.66, 
			 "SMD_solvation_energy": 3.0 
		},
		"coords": [
			{
				"x": -3.5770099401,
				"y": 1.6791183516,
				"z": -0.0473771464,
				"element": "C" 
			},
			{
				"x": -2.6681980011,
				"y": 2.0841796125,
				"z": -1.222798388,
				"element": "C" 
			},
			{
				"x": -1.4909286137,
				"y": 1.1498438319,
				"z": -1.372021313,
				"element": "C" 
			},
			{
				"x": -0.4612711468,
				"y": 1.3428654898,
				"z": -0.5625125435,
				"element": "N" 
			},
			{
				"x": 0.5718390756,
				"y": 0.4951065512,
				"z": -0.6636580845,
				"element": "C" 
			},
			{
				"x": 1.7142372766,
				"y": 0.4594056315,
				"z": 0.0108714586,
				"element": "N" 
			},
			{
				"x": 2.358252374,
				"y": -0.6030619441,
				"z": -0.52262033,
				"element": "C" 
			},
			{
				"x": 1.7257105313,
				"y": -1.2705123465,
				"z": -1.4997941218,
				"element": "N" 
			},
			{
				"x": 0.5779340925,
				"y": -0.5711321738,
				"z": -1.5947646296,
				"element": "N" 
			},
			{
				"x": -0.4778139168,
				"y": -0.7744785152,
				"z": -2.4291076758,
				"element": "C" 
			},
			{
				"x": -0.3999228209,
				"y": -2.0880313004,
				"z": -3.5385529222,
				"element": "Cl" 
			},
			{
				"x": -1.5373456345,
				"y": 0.0898811062,
				"z": -2.3291032814,
				"element": "C" 
			},
			{
				"x": 3.7142558519,
				"y": -1.0099617659,
				"z": -0.0399639459,
				"element": "C" 
			},
			{
				"x": 4.3142721158,
				"y": -0.4364720203,
				"z": 0.8399397827,
				"element": "O" 
			},
			{
				"x": 4.1704075887,
				"y": -2.0851626851,
				"z": -0.7071300085,
				"element": "O" 
			},
			{
				"x": 5.4713386814,
				"y": -2.5405938768,
				"z": -0.3014459091,
				"element": "C" 
			},
			{
				"x": -4.0018036769,
				"y": 0.6810016211,
				"z": -0.196519359,
				"element": "H" 
			},
			{
				"x": -4.4043444442,
				"y": 2.3872324807,
				"z": 0.0566187294,
				"element": "H" 
			},
			{
				"x": -3.0091099357,
				"y": 1.6723760655,
				"z": 0.8869506908,
				"element": "H" 
			},
			{
				"x": -3.2452737234,
				"y": 2.1051084738,
				"z": -2.1536806941,
				"element": "H" 
			},
			{
				"x": -2.2774736665,
				"y": 3.0913273417,
				"z": -1.0494047316,
				"element": "H" 
			},
			{
				"x": -2.394638898,
				"y": -0.0382235054,
				"z": -2.977039134,
				"element": "H" 
			},
			{
				"x": 5.6872287798,
				"y": -3.4040045143,
				"z": -0.929879106,
				"element": "H" 
			},
			{
				"x": 6.2174901407,
				"y": -1.7565066176,
				"z": -0.4533113344,
				"element": "H" 
			},
			{
				"x": 5.4675679102,
				"y": -2.8230052921,
				"z": 0.7544039972,
				"element": "H" 
			}
		],
		 "valence_orbital": [ 
			{
				"type": "occ",
				"energy": -0.29358,
				"method": "rhf"
			},
			{
				"type": "occ",
				"energy": -0.28857,
				"method": "rhf"
			},
			{
				"type": "occ",
				"energy": -0.28178,
				"method": "rhf"
			},
			{
				"type": "occ",
				"energy": -0.27775,
				"method": "rhf"
			},
			{
				"type": "occ",
				"energy": -0.26281,
				"method": "rhf"
			},
			{
				"type": "unocc",
				"energy": -0.07984,
				"method": "rhf"
			},
			{
				"type": "unocc",
				"energy": -0.04574,
				"method": "rhf"
			},
			{
				"type": "unocc",
				"energy": -0.0097,
				"method": "rhf"
			},
			{
				"type": "unocc",
				"energy": -0.00155,
				"method": "rhf"
			},
			{
				"type": "unocc",
				"energy": 0.08338,
				"method": "rhf"
			}
		],
		"cosmo_sigma_profile": { 
			"-0.025": 0.0,
			"-0.024": 0.0,
			"-0.023": 0.0,
			"-0.022": 0.0,
			"-0.021": 0.0,
			"-0.02": 0.0,
			"-0.019": 0.0,
			"-0.018": 0.0,
			"-0.017": 0.0,
			"-0.016": 0.0,
			"-0.015": 0.0,
			"-0.014": 0.0,
			"-0.013": 0.0,
			"-0.012": 0.0,
			"-0.011": 0.0,
			"-0.01": 1.28177683733,
			"-0.009": 2.6241082821,
			"-0.008": 3.24769933129,
			"-0.007": 7.20408363962,
			"-0.006": 13.7766150536,
			"-0.005": 19.8620104841,
			"-0.004": 28.7139306034,
			"-0.003": 32.0301206939,
			"-0.002": 26.3144496086,
			"-0.001": 19.6140499769,
			"0.0": 18.7038984119,
			"0.001": 15.9710186308,
			"0.002": 8.70180534593,
			"0.003": 6.4807822637,
			"0.004": 5.54003007165,
			"0.005": 5.33619460736,
			"0.006": 4.62921931289,
			"0.007": 5.04251854524,
			"0.008": 4.35187673194,
			"0.009": 5.75511027147,
			"0.01": 7.25454912793,
			"0.011": 7.91909675326,
			"0.012": 5.61661873311,
			"0.013": 3.6013760911,
			"0.014": 2.20264242952,
			"0.015": 1.38263685731,
			"0.016": 0.119799263913,
			"0.017": 0.0,
			"0.018": 0.0,
			"0.019": 0.0,
			"0.02": 0.0,
			"0.021": 0.0,
			"0.022": 0.0,
			"0.023": 0.0,
			"0.024": 0.0,
			"0.025": 0.0
		}
	}
}
