{
	 "smiles": "CCCOC(=O)C1=C(C)NC(=O)NC1C1=CC=CC(OC)=C1OC", 
	 "Tm": 436.15, 
	 "num_atms": 46, 
	 "gaussian": { 
		 "optdone": 1, 
		 "sigma_profile": "yes", 
		 "theory": "DFT", 
		 "functional": "B3LYP", 
		 "basiset": "6-31G**", 
		 "properties": { 
			 "R2extent": 8900.2715, 
			 "electric_dipole_moment_norm": 3.59488075185, 
			 "electric_quadrupole_moment_norm": 25.0609952727, 
			 "total_energy": -1146.70477781, 
			 "HOMO_LUMO_gap": 0.18401, 
			 "cosmo_polarized_energy": -20.52, 
			 "cosmo_cavitation_energy": 48.25, 
			 "cosmo_dispersion_energy": -31.34, 
			 "cosmo_repulsion_energy": 2.44, 
			 "cosmo_total_nonelectrostatic_energy": 19.35, 
			 "SMD_solvation_energy": 10.55 
		},
		"coords": [
			{
				"x": 3.169306872,
				"y": -0.6343202725,
				"z": 1.4708694717,
				"element": "C" 
			},
			{
				"x": 3.489097254,
				"y": 0.4248435035,
				"z": 0.4107971314,
				"element": "C" 
			},
			{
				"x": 2.5828277408,
				"y": 1.6467495587,
				"z": 0.4491885742,
				"element": "C" 
			},
			{
				"x": 1.2301142662,
				"y": 1.2193118284,
				"z": 0.1837758412,
				"element": "O" 
			},
			{
				"x": 0.3259083996,
				"y": 2.2038857972,
				"z": -0.0592889126,
				"element": "C" 
			},
			{
				"x": 0.6472356493,
				"y": 3.3831314512,
				"z": -0.0684405339,
				"element": "O" 
			},
			{
				"x": -1.0161965811,
				"y": 1.637335961,
				"z": -0.2936152907,
				"element": "C" 
			},
			{
				"x": -2.0815665161,
				"y": 2.398123941,
				"z": -0.6739387769,
				"element": "C" 
			},
			{
				"x": -2.1071792083,
				"y": 3.8829821951,
				"z": -0.9095978901,
				"element": "C" 
			},
			{
				"x": -3.3048667111,
				"y": 1.782570131,
				"z": -0.8915732312,
				"element": "N" 
			},
			{
				"x": -3.4904065907,
				"y": 0.4054151105,
				"z": -1.0752587414,
				"element": "C" 
			},
			{
				"x": -4.5607256104,
				"y": -0.0466463565,
				"z": -1.455588904,
				"element": "O" 
			},
			{
				"x": -2.3622026791,
				"y": -0.3256970699,
				"z": -0.847700849,
				"element": "N" 
			},
			{
				"x": -1.2079166159,
				"y": 0.1457189368,
				"z": -0.0622491855,
				"element": "C" 
			},
			{
				"x": -1.3433896891,
				"y": -0.232129824,
				"z": 1.4197909523,
				"element": "C" 
			},
			{
				"x": -1.9605718002,
				"y": 0.6174271055,
				"z": 2.3484215904,
				"element": "C" 
			},
			{
				"x": -2.0930931644,
				"y": 0.2336785044,
				"z": 3.6775274479,
				"element": "C" 
			},
			{
				"x": -1.5920972071,
				"y": -0.9949793261,
				"z": 4.1158338897,
				"element": "C" 
			},
			{
				"x": -0.9570427785,
				"y": -1.8482052033,
				"z": 3.2104318833,
				"element": "C" 
			},
			{
				"x": -0.3948746092,
				"y": -3.0493517944,
				"z": 3.5436135423,
				"element": "O" 
			},
			{
				"x": -0.4327193187,
				"y": -3.4519016578,
				"z": 4.9040988811,
				"element": "C" 
			},
			{
				"x": -0.8577403278,
				"y": -1.4739074958,
				"z": 1.8510435262,
				"element": "C" 
			},
			{
				"x": -0.2062555635,
				"y": -2.2779492745,
				"z": 0.9399425597,
				"element": "O" 
			},
			{
				"x": -0.7760899662,
				"y": -3.5657408351,
				"z": 0.6858407138,
				"element": "C" 
			},
			{
				"x": 3.9022857026,
				"y": -1.4470022319,
				"z": 1.4386498323,
				"element": "H" 
			},
			{
				"x": 3.1955996021,
				"y": -0.203118968,
				"z": 2.4784747032,
				"element": "H" 
			},
			{
				"x": 2.1792753116,
				"y": -1.0699500787,
				"z": 1.3147987043,
				"element": "H" 
			},
			{
				"x": 4.5175685138,
				"y": 0.7869462255,
				"z": 0.5397257092,
				"element": "H" 
			},
			{
				"x": 3.4397713036,
				"y": -0.0189588361,
				"z": -0.5912117932,
				"element": "H" 
			},
			{
				"x": 2.8723863866,
				"y": 2.3909395952,
				"z": -0.2980559706,
				"element": "H" 
			},
			{
				"x": 2.6072188835,
				"y": 2.1363372367,
				"z": 1.4303566863,
				"element": "H" 
			},
			{
				"x": -1.152766532,
				"y": 4.3359848153,
				"z": -0.6577966054,
				"element": "H" 
			},
			{
				"x": -2.8996950798,
				"y": 4.3381443476,
				"z": -0.3028847184,
				"element": "H" 
			},
			{
				"x": -2.3430347625,
				"y": 4.0869536452,
				"z": -1.9613089582,
				"element": "H" 
			},
			{
				"x": -4.0932223525,
				"y": 2.3380548032,
				"z": -1.1916552633,
				"element": "H" 
			},
			{
				"x": -2.5106827656,
				"y": -1.3232671183,
				"z": -0.9023811,
				"element": "H" 
			},
			{
				"x": -0.3379940646,
				"y": -0.3829541031,
				"z": -0.4481725959,
				"element": "H" 
			},
			{
				"x": -2.3280870813,
				"y": 1.5841780549,
				"z": 2.0219858303,
				"element": "H" 
			},
			{
				"x": -2.5789586095,
				"y": 0.8943294903,
				"z": 4.3893399599,
				"element": "H" 
			},
			{
				"x": -1.6861318941,
				"y": -1.2720568909,
				"z": 5.1589825241,
				"element": "H" 
			},
			{
				"x": 0.0855133384,
				"y": -2.7331368122,
				"z": 5.5511752216,
				"element": "H" 
			},
			{
				"x": 0.0839286654,
				"y": -4.4118613937,
				"z": 4.9476139981,
				"element": "H" 
			},
			{
				"x": -1.4625352177,
				"y": -3.5794748726,
				"z": 5.2617745947,
				"element": "H" 
			},
			{
				"x": -0.6947597778,
				"y": -4.2196914754,
				"z": 1.5569848234,
				"element": "H" 
			},
			{
				"x": -1.8325476198,
				"y": -3.4790890114,
				"z": 0.3976543117,
				"element": "H" 
			},
			{
				"x": -0.209687195,
				"y": -3.9870513359,
				"z": -0.1472735839,
				"element": "H" 
			}
		],
		 "valence_orbital": [ 
			{
				"type": "occ",
				"energy": -0.26018,
				"method": "rhf"
			},
			{
				"type": "occ",
				"energy": -0.25072,
				"method": "rhf"
			},
			{
				"type": "occ",
				"energy": -0.23662,
				"method": "rhf"
			},
			{
				"type": "occ",
				"energy": -0.22192,
				"method": "rhf"
			},
			{
				"type": "occ",
				"energy": -0.21712,
				"method": "rhf"
			},
			{
				"type": "unocc",
				"energy": -0.03311,
				"method": "rhf"
			},
			{
				"type": "unocc",
				"energy": -0.0014,
				"method": "rhf"
			},
			{
				"type": "unocc",
				"energy": 0.00651,
				"method": "rhf"
			},
			{
				"type": "unocc",
				"energy": 0.06271,
				"method": "rhf"
			},
			{
				"type": "unocc",
				"energy": 0.06389,
				"method": "rhf"
			}
		],
		"cosmo_sigma_profile": { 
			"-0.025": 0.0,
			"-0.024": 0.0,
			"-0.023": 0.0,
			"-0.022": 0.0,
			"-0.021": 0.0,
			"-0.02": 0.0,
			"-0.019": 0.0,
			"-0.018": 0.0,
			"-0.017": 0.0,
			"-0.016": 0.0200053387238,
			"-0.015": 0.690647539956,
			"-0.014": 0.949147340892,
			"-0.013": 0.798347950555,
			"-0.012": 1.33007406392,
			"-0.011": 1.975444241,
			"-0.01": 2.53070700915,
			"-0.009": 3.82036757795,
			"-0.008": 3.46438684661,
			"-0.007": 4.5774347394,
			"-0.006": 14.5218263715,
			"-0.005": 24.2938600865,
			"-0.004": 32.156830494,
			"-0.003": 42.4281522429,
			"-0.002": 34.3999619739,
			"-0.001": 31.3627097357,
			"0.0": 30.9391607622,
			"0.001": 25.1164796107,
			"0.002": 22.4524894864,
			"0.003": 19.1596570187,
			"0.004": 16.5079559037,
			"0.005": 18.72321986,
			"0.006": 10.4465870503,
			"0.007": 4.56651579027,
			"0.008": 5.33774957378,
			"0.009": 3.90007281311,
			"0.01": 3.43820721436,
			"0.011": 4.14239482364,
			"0.012": 4.45178674657,
			"0.013": 6.49379107335,
			"0.014": 5.05684058739,
			"0.015": 0.305119802941,
			"0.016": 0.0,
			"0.017": 0.0,
			"0.018": 0.0,
			"0.019": 0.0,
			"0.02": 0.0,
			"0.021": 0.0,
			"0.022": 0.0,
			"0.023": 0.0,
			"0.024": 0.0,
			"0.025": 0.0
		}
	}
}
