{
	 "smiles": "ClC1=NC2=C(S1)C=C(C=C2)S(Cl)(=O)=O", 
	 "Tm": 372.15, 
	 "num_atms": 17, 
	 "gaussian": { 
		 "optdone": 1, 
		 "sigma_profile": "yes", 
		 "theory": "DFT", 
		 "functional": "B3LYP", 
		 "basiset": "6-31G**", 
		 "properties": { 
			 "R2extent": 6226.0485, 
			 "electric_dipole_moment_norm": 3.70299475695, 
			 "electric_quadrupole_moment_norm": 9.20212470357, 
			 "total_energy": -2190.43830483, 
			 "HOMO_LUMO_gap": 0.17792, 
			 "cosmo_polarized_energy": -9.62, 
			 "cosmo_cavitation_energy": 29.26, 
			 "cosmo_dispersion_energy": -22.79, 
			 "cosmo_repulsion_energy": 1.7, 
			 "cosmo_total_nonelectrostatic_energy": 8.16, 
			 "SMD_solvation_energy": 1.17 
		},
		"coords": [
			{
				"x": -1.4320364643,
				"y": -2.7772843265,
				"z": -5.264103441,
				"element": "Cl" 
			},
			{
				"x": -1.2044794763,
				"y": -2.1045290533,
				"z": -3.6932645542,
				"element": "C" 
			},
			{
				"x": -2.1420375354,
				"y": -1.536374478,
				"z": -3.022008301,
				"element": "N" 
			},
			{
				"x": -1.6549103756,
				"y": -1.1003536439,
				"z": -1.8009039555,
				"element": "C" 
			},
			{
				"x": -0.2807616134,
				"y": -1.36597653,
				"z": -1.5631546814,
				"element": "C" 
			},
			{
				"x": 0.4000129839,
				"y": -2.195987629,
				"z": -2.9499677985,
				"element": "S" 
			},
			{
				"x": 0.3418792349,
				"y": -0.9818077151,
				"z": -0.3779562987,
				"element": "C" 
			},
			{
				"x": -0.4544983908,
				"y": -0.323996589,
				"z": 0.5567677034,
				"element": "C" 
			},
			{
				"x": -1.8156442895,
				"y": -0.0427409719,
				"z": 0.3539759695,
				"element": "C" 
			},
			{
				"x": -2.4197410203,
				"y": -0.432818764,
				"z": -0.8323375736,
				"element": "C" 
			},
			{
				"x": 0.309180687,
				"y": 0.1996119334,
				"z": 2.084251316,
				"element": "S" 
			},
			{
				"x": -0.1042085166,
				"y": -1.4646500233,
				"z": 3.351930046,
				"element": "Cl" 
			},
			{
				"x": -0.4367621354,
				"y": 1.3232199599,
				"z": 2.6352610913,
				"element": "O" 
			},
			{
				"x": 1.7561775519,
				"y": 0.2291278847,
				"z": 1.9120301472,
				"element": "O" 
			},
			{
				"x": 1.3910584992,
				"y": -1.1672633442,
				"z": -0.1795166222,
				"element": "H" 
			},
			{
				"x": -2.3754054423,
				"y": 0.4837450101,
				"z": 1.1182488566,
				"element": "H" 
			},
			{
				"x": -3.4664236968,
				"y": -0.2291217198,
				"z": -1.0282519039,
				"element": "H" 
			}
		],
		 "valence_orbital": [ 
			{
				"type": "occ",
				"energy": -0.33388,
				"method": "rhf"
			},
			{
				"type": "occ",
				"energy": -0.3227,
				"method": "rhf"
			},
			{
				"type": "occ",
				"energy": -0.31893,
				"method": "rhf"
			},
			{
				"type": "occ",
				"energy": -0.27942,
				"method": "rhf"
			},
			{
				"type": "occ",
				"energy": -0.27877,
				"method": "rhf"
			},
			{
				"type": "unocc",
				"energy": -0.10085,
				"method": "rhf"
			},
			{
				"type": "unocc",
				"energy": -0.07006,
				"method": "rhf"
			},
			{
				"type": "unocc",
				"energy": -0.04971,
				"method": "rhf"
			},
			{
				"type": "unocc",
				"energy": -0.03626,
				"method": "rhf"
			},
			{
				"type": "unocc",
				"energy": -0.01843,
				"method": "rhf"
			}
		],
		"cosmo_sigma_profile": { 
			"-0.025": 0.0,
			"-0.024": 0.0,
			"-0.023": 0.0,
			"-0.022": 0.0,
			"-0.021": 0.0,
			"-0.02": 0.0,
			"-0.019": 0.0,
			"-0.018": 0.0,
			"-0.017": 0.0,
			"-0.016": 0.0,
			"-0.015": 0.0,
			"-0.014": 0.0,
			"-0.013": 0.0,
			"-0.012": 0.00033791699367,
			"-0.011": 1.22172012119,
			"-0.01": 1.61549297737,
			"-0.009": 2.81118757558,
			"-0.008": 5.82118329792,
			"-0.007": 5.93500649921,
			"-0.006": 6.56040911803,
			"-0.005": 7.917764179,
			"-0.004": 17.0656539096,
			"-0.003": 15.5482712312,
			"-0.002": 22.1088838017,
			"-0.001": 29.3608863487,
			"0.0": 25.7925850875,
			"0.001": 22.0435413847,
			"0.002": 19.5462220127,
			"0.003": 17.8622223176,
			"0.004": 8.9691682575,
			"0.005": 4.79682395435,
			"0.006": 4.52934732101,
			"0.007": 7.3031744635,
			"0.008": 10.9010661092,
			"0.009": 4.50128038737,
			"0.01": 0.638608513995,
			"0.011": 0.945859431384,
			"0.012": 0.676187636246,
			"0.013": 0.0179948723286,
			"0.014": 0.0,
			"0.015": 0.0,
			"0.016": 0.0,
			"0.017": 0.0,
			"0.018": 0.0,
			"0.019": 0.0,
			"0.02": 0.0,
			"0.021": 0.0,
			"0.022": 0.0,
			"0.023": 0.0,
			"0.024": 0.0,
			"0.025": 0.0
		}
	}
}
