{
	 "smiles": "COC1=CC=C(C=C1)N1C(=O)C2ON=C(C2C1=O)C(=O)C1=CC=CO1", 
	 "Tm": 410.15, 
	 "num_atms": 37, 
	 "gaussian": { 
		 "optdone": 1, 
		 "sigma_profile": "yes", 
		 "theory": "DFT", 
		 "functional": "B3LYP", 
		 "basiset": "6-31G**", 
		 "properties": { 
			 "R2extent": 11337.7544, 
			 "electric_dipole_moment_norm": 1.64757361292, 
			 "electric_quadrupole_moment_norm": 36.7339489565, 
			 "total_energy": -1215.79316284, 
			 "HOMO_LUMO_gap": 0.13772, 
			 "cosmo_polarized_energy": -22.95, 
			 "cosmo_cavitation_energy": 43.56, 
			 "cosmo_dispersion_energy": -30.94, 
			 "cosmo_repulsion_energy": 2.32, 
			 "cosmo_total_nonelectrostatic_energy": 14.94, 
			 "SMD_solvation_energy": 10.73 
		},
		"coords": [
			{
				"x": -2.2684283968,
				"y": -0.5385251831,
				"z": 7.2706110812,
				"element": "C" 
			},
			{
				"x": -1.6870218302,
				"y": -1.4955565778,
				"z": 6.3974812674,
				"element": "O" 
			},
			{
				"x": -1.6870720385,
				"y": -1.2357807572,
				"z": 5.0609811458,
				"element": "C" 
			},
			{
				"x": -2.2227812723,
				"y": -0.0837636759,
				"z": 4.4726667376,
				"element": "C" 
			},
			{
				"x": -2.1712760793,
				"y": 0.0777316959,
				"z": 3.0874360227,
				"element": "C" 
			},
			{
				"x": -1.5795659662,
				"y": -0.8986874303,
				"z": 2.2866377833,
				"element": "C" 
			},
			{
				"x": -1.0389896264,
				"y": -2.0507754783,
				"z": 2.8742602601,
				"element": "C" 
			},
			{
				"x": -1.0978390862,
				"y": -2.2179284979,
				"z": 4.2495819276,
				"element": "C" 
			},
			{
				"x": -1.5196159987,
				"y": -0.7272725494,
				"z": 0.8644304769,
				"element": "N" 
			},
			{
				"x": -1.8037607663,
				"y": -1.753742005,
				"z": -0.0485521662,
				"element": "C" 
			},
			{
				"x": -2.1585020558,
				"y": -2.8767032206,
				"z": 0.2242634763,
				"element": "O" 
			},
			{
				"x": -1.5654629442,
				"y": -1.2047412285,
				"z": -1.4583618698,
				"element": "C" 
			},
			{
				"x": -0.358973241,
				"y": -1.8224553216,
				"z": -2.0129967093,
				"element": "O" 
			},
			{
				"x": 0.5864719083,
				"y": -0.8477377606,
				"z": -2.2669276766,
				"element": "N" 
			},
			{
				"x": 0.1562895907,
				"y": 0.3086303325,
				"z": -1.9077493595,
				"element": "C" 
			},
			{
				"x": -1.219263712,
				"y": 0.2678609784,
				"z": -1.2816089447,
				"element": "C" 
			},
			{
				"x": -1.1747992982,
				"y": 0.4884656167,
				"z": 0.2430032108,
				"element": "C" 
			},
			{
				"x": -0.8998853682,
				"y": 1.5167673667,
				"z": 0.8119096012,
				"element": "O" 
			},
			{
				"x": 0.8678932691,
				"y": 1.5964338268,
				"z": -2.1780369556,
				"element": "C" 
			},
			{
				"x": 0.2106462247,
				"y": 2.6304897805,
				"z": -2.1558799185,
				"element": "O" 
			},
			{
				"x": 2.2988545701,
				"y": 1.5684282151,
				"z": -2.4676503382,
				"element": "C" 
			},
			{
				"x": 3.2587663103,
				"y": 0.5820396202,
				"z": -2.5107839067,
				"element": "C" 
			},
			{
				"x": 4.4834456207,
				"y": 1.2239645866,
				"z": -2.84123345,
				"element": "C" 
			},
			{
				"x": 4.1850308407,
				"y": 2.5529672572,
				"z": -2.9737447379,
				"element": "C" 
			},
			{
				"x": 2.8743298736,
				"y": 2.7807282198,
				"z": -2.7521446971,
				"element": "O" 
			},
			{
				"x": -1.7517163855,
				"y": 0.4278811307,
				"z": 7.2127595253,
				"element": "H" 
			},
			{
				"x": -2.1588285743,
				"y": -0.9444430681,
				"z": 8.2771842167,
				"element": "H" 
			},
			{
				"x": -3.3342959723,
				"y": -0.3900409928,
				"z": 7.0555354942,
				"element": "H" 
			},
			{
				"x": -2.6813315649,
				"y": 0.6911408072,
				"z": 5.0745113514,
				"element": "H" 
			},
			{
				"x": -2.5792701187,
				"y": 0.9747044297,
				"z": 2.6385142032,
				"element": "H" 
			},
			{
				"x": -0.5880361075,
				"y": -2.8163251781,
				"z": 2.2550590302,
				"element": "H" 
			},
			{
				"x": -0.6889079657,
				"y": -3.1044913918,
				"z": 4.7220047119,
				"element": "H" 
			},
			{
				"x": -2.4005360418,
				"y": -1.4502383639,
				"z": -2.1175249093,
				"element": "H" 
			},
			{
				"x": -1.8928260004,
				"y": 0.9997573589,
				"z": -1.7325908725,
				"element": "H" 
			},
			{
				"x": 3.0874428962,
				"y": -0.4687636014,
				"z": -2.336123036,
				"element": "H" 
			},
			{
				"x": 5.4537182431,
				"y": 0.7652621075,
				"z": -2.9633406737,
				"element": "H" 
			},
			{
				"x": 4.7798970637,
				"y": 3.4218189518,
				"z": -3.2123813019,
				"element": "H" 
			}
		],
		 "valence_orbital": [ 
			{
				"type": "occ",
				"energy": -0.27067,
				"method": "rhf"
			},
			{
				"type": "occ",
				"energy": -0.26117,
				"method": "rhf"
			},
			{
				"type": "occ",
				"energy": -0.26013,
				"method": "rhf"
			},
			{
				"type": "occ",
				"energy": -0.2478,
				"method": "rhf"
			},
			{
				"type": "occ",
				"energy": -0.22382,
				"method": "rhf"
			},
			{
				"type": "unocc",
				"energy": -0.0861,
				"method": "rhf"
			},
			{
				"type": "unocc",
				"energy": -0.045,
				"method": "rhf"
			},
			{
				"type": "unocc",
				"energy": -0.02716,
				"method": "rhf"
			},
			{
				"type": "unocc",
				"energy": -0.01335,
				"method": "rhf"
			},
			{
				"type": "unocc",
				"energy": -0.00927,
				"method": "rhf"
			}
		],
		"cosmo_sigma_profile": { 
			"-0.025": 0.0,
			"-0.024": 0.0,
			"-0.023": 0.0,
			"-0.022": 0.0,
			"-0.021": 0.0,
			"-0.02": 0.0,
			"-0.019": 0.0,
			"-0.018": 0.0,
			"-0.017": 0.0,
			"-0.016": 0.0,
			"-0.015": 0.0,
			"-0.014": 0.0,
			"-0.013": 0.0226505189223,
			"-0.012": 0.606112272169,
			"-0.011": 2.25536012832,
			"-0.01": 10.1911766364,
			"-0.009": 8.60686599826,
			"-0.008": 7.87392228485,
			"-0.007": 12.7932452521,
			"-0.006": 23.0616313547,
			"-0.005": 25.4670171014,
			"-0.004": 23.9161497291,
			"-0.003": 23.1781933918,
			"-0.002": 17.0270373973,
			"-0.001": 16.7434592455,
			"0.0": 19.8469621444,
			"0.001": 19.9356096328,
			"0.002": 19.3237838451,
			"0.003": 21.9225254014,
			"0.004": 18.2957081193,
			"0.005": 10.9180533511,
			"0.006": 10.1134697774,
			"0.007": 11.3520382732,
			"0.008": 10.8685211262,
			"0.009": 10.1421510604,
			"0.01": 13.7610445987,
			"0.011": 10.076405717,
			"0.012": 2.09592381357,
			"0.013": 0.279365824799,
			"0.014": 0.0,
			"0.015": 0.0,
			"0.016": 0.0,
			"0.017": 0.0,
			"0.018": 0.0,
			"0.019": 0.0,
			"0.02": 0.0,
			"0.021": 0.0,
			"0.022": 0.0,
			"0.023": 0.0,
			"0.024": 0.0,
			"0.025": 0.0
		}
	}
}
