{
	 "smiles": "NC1=CC(C(O)=O)=C(C=C1)[N+]([O-])=O", 
	 "Tm": 511.15, 
	 "num_atms": 19, 
	 "gaussian": { 
		 "optdone": 1, 
		 "sigma_profile": "yes", 
		 "theory": "DFT", 
		 "functional": "B3LYP", 
		 "basiset": "6-31G**", 
		 "properties": { 
			 "R2extent": 3006.6238, 
			 "electric_dipole_moment_norm": 6.95838510432, 
			 "electric_quadrupole_moment_norm": 18.6299879104, 
			 "total_energy": -680.670181881, 
			 "HOMO_LUMO_gap": 0.15608, 
			 "cosmo_polarized_energy": -21.36, 
			 "cosmo_cavitation_energy": 24.89, 
			 "cosmo_dispersion_energy": -18.12, 
			 "cosmo_repulsion_energy": 1.45, 
			 "cosmo_total_nonelectrostatic_energy": 8.22, 
			 "SMD_solvation_energy": 7.56 
		},
		"coords": [
			{
				"x": 0.0358768141,
				"y": 0.3338573322,
				"z": -3.0967409868,
				"element": "N" 
			},
			{
				"x": 0.4118527138,
				"y": 0.7789332839,
				"z": -1.8516405415,
				"element": "C" 
			},
			{
				"x": -0.4125624119,
				"y": 0.550827095,
				"z": -0.7305767906,
				"element": "C" 
			},
			{
				"x": -0.0699110972,
				"y": 1.0266280416,
				"z": 0.5293110479,
				"element": "C" 
			},
			{
				"x": -0.9883808611,
				"y": 0.6479746683,
				"z": 1.6589350062,
				"element": "C" 
			},
			{
				"x": -0.3536196824,
				"y": -0.0668544732,
				"z": 2.6090023716,
				"element": "O" 
			},
			{
				"x": -2.1801681086,
				"y": 0.8571734853,
				"z": 1.6569739534,
				"element": "O" 
			},
			{
				"x": 1.1099861077,
				"y": 1.7748356384,
				"z": 0.6729057448,
				"element": "C" 
			},
			{
				"x": 1.9439625141,
				"y": 2.0010663619,
				"z": -0.423973846,
				"element": "C" 
			},
			{
				"x": 1.60662455,
				"y": 1.506472099,
				"z": -1.6724397496,
				"element": "C" 
			},
			{
				"x": 1.4529219964,
				"y": 2.4123529506,
				"z": 1.9376708555,
				"element": "N" 
			},
			{
				"x": 2.6140005238,
				"y": 2.7983681035,
				"z": 2.090546811,
				"element": "O" 
			},
			{
				"x": 0.5541932055,
				"y": 2.5568439258,
				"z": 2.7696338466,
				"element": "O" 
			},
			{
				"x": -0.6878507255,
				"y": -0.3653166522,
				"z": -3.1572093589,
				"element": "H" 
			},
			{
				"x": 0.7367751543,
				"y": 0.2866176499,
				"z": -3.819759497,
				"element": "H" 
			},
			{
				"x": -1.3327862351,
				"y": -0.0144952372,
				"z": -0.841790263,
				"element": "H" 
			},
			{
				"x": -1.011417843,
				"y": -0.2463625005,
				"z": 3.3020187338,
				"element": "H" 
			},
			{
				"x": 2.8460079779,
				"y": 2.581908592,
				"z": -0.2758048564,
				"element": "H" 
			},
			{
				"x": 2.2545954073,
				"y": 1.6967696357,
				"z": -2.5231624808,
				"element": "H" 
			}
		],
		 "valence_orbital": [ 
			{
				"type": "occ",
				"energy": -0.29913,
				"method": "rhf"
			},
			{
				"type": "occ",
				"energy": -0.29195,
				"method": "rhf"
			},
			{
				"type": "occ",
				"energy": -0.28291,
				"method": "rhf"
			},
			{
				"type": "occ",
				"energy": -0.27086,
				"method": "rhf"
			},
			{
				"type": "occ",
				"energy": -0.23565,
				"method": "rhf"
			},
			{
				"type": "unocc",
				"energy": -0.07957,
				"method": "rhf"
			},
			{
				"type": "unocc",
				"energy": -0.03867,
				"method": "rhf"
			},
			{
				"type": "unocc",
				"energy": 0.00121,
				"method": "rhf"
			},
			{
				"type": "unocc",
				"energy": 0.02712,
				"method": "rhf"
			},
			{
				"type": "unocc",
				"energy": 0.05529,
				"method": "rhf"
			}
		],
		"cosmo_sigma_profile": { 
			"-0.025": 0.0,
			"-0.024": 0.0,
			"-0.023": 0.0,
			"-0.022": 0.0,
			"-0.021": 0.0,
			"-0.02": 0.0,
			"-0.019": 0.278891342849,
			"-0.018": 1.1803856348,
			"-0.017": 0.612781378462,
			"-0.016": 0.71130074749,
			"-0.015": 0.99269678989,
			"-0.014": 4.36304106415,
			"-0.013": 3.87433511439,
			"-0.012": 4.2734845456,
			"-0.011": 4.18599763691,
			"-0.01": 3.2640473946,
			"-0.009": 4.13803710076,
			"-0.008": 4.35506281279,
			"-0.007": 6.90329049231,
			"-0.006": 6.39813466965,
			"-0.005": 7.4077526337,
			"-0.004": 5.80399861484,
			"-0.003": 7.95378802033,
			"-0.002": 7.70359862434,
			"-0.001": 8.95636035598,
			"0.0": 12.1502838538,
			"0.001": 17.1590110427,
			"0.002": 13.0733762784,
			"0.003": 8.0888194141,
			"0.004": 5.90533229336,
			"0.005": 6.77039063344,
			"0.006": 6.97922987315,
			"0.007": 8.57122167378,
			"0.008": 12.9357988412,
			"0.009": 7.63906151658,
			"0.01": 7.47383696796,
			"0.011": 6.41191294277,
			"0.012": 1.9505402324,
			"0.013": 0.0353873464634,
			"0.014": 0.0,
			"0.015": 0.0,
			"0.016": 0.0,
			"0.017": 0.0,
			"0.018": 0.0,
			"0.019": 0.0,
			"0.02": 0.0,
			"0.021": 0.0,
			"0.022": 0.0,
			"0.023": 0.0,
			"0.024": 0.0,
			"0.025": 0.0
		}
	}
}
