{
	 "smiles": "CCC1=C(Br)C=C(S1)C(O)=O", 
	 "Tm": 429.15, 
	 "num_atms": 18, 
	 "gaussian": { 
		 "optdone": 1, 
		 "sigma_profile": "yes", 
		 "theory": "DFT", 
		 "functional": "B3LYP", 
		 "basiset": "6-31G**", 
		 "properties": { 
			 "R2extent": 3645.7724, 
			 "electric_dipole_moment_norm": 2.41815094856, 
			 "electric_quadrupole_moment_norm": 5.38963782364, 
			 "total_energy": -3391.01415388, 
			 "HOMO_LUMO_gap": 0.17898, 
			 "cosmo_polarized_energy": -8.75, 
			 "cosmo_cavitation_energy": 26.7, 
			 "cosmo_dispersion_energy": -19.86, 
			 "cosmo_repulsion_energy": 1.57, 
			 "cosmo_total_nonelectrostatic_energy": 8.41, 
			 "SMD_solvation_energy": 4.45 
		},
		"coords": [
			{
				"x": 0.0802400063,
				"y": 2.8404708546,
				"z": -2.6033538247,
				"element": "C" 
			},
			{
				"x": -0.195371985,
				"y": 1.3497380482,
				"z": -2.8770945621,
				"element": "C" 
			},
			{
				"x": -0.3285928797,
				"y": 0.5345905661,
				"z": -1.622547512,
				"element": "C" 
			},
			{
				"x": -1.4406302858,
				"y": 0.3303984756,
				"z": -0.8366417995,
				"element": "C" 
			},
			{
				"x": -3.1498281072,
				"y": 1.0530908004,
				"z": -1.2526829302,
				"element": "Br" 
			},
			{
				"x": -1.219441625,
				"y": -0.4652332286,
				"z": 0.3151537084,
				"element": "C" 
			},
			{
				"x": 0.0879278498,
				"y": -0.874373467,
				"z": 0.4130838238,
				"element": "C" 
			},
			{
				"x": 1.041490429,
				"y": -0.2771953091,
				"z": -0.9202658935,
				"element": "S" 
			},
			{
				"x": 0.6298142954,
				"y": -1.713737739,
				"z": 1.4876908519,
				"element": "C" 
			},
			{
				"x": 1.9536458467,
				"y": -1.9663447309,
				"z": 1.3277516254,
				"element": "O" 
			},
			{
				"x": -0.0177492729,
				"y": -2.1420194117,
				"z": 2.4218425426,
				"element": "O" 
			},
			{
				"x": -0.7294121374,
				"y": 3.2825375225,
				"z": -2.0162057151,
				"element": "H" 
			},
			{
				"x": 0.1602507818,
				"y": 3.3912579714,
				"z": -3.5457667173,
				"element": "H" 
			},
			{
				"x": 1.0144976926,
				"y": 2.9730510604,
				"z": -2.0494023028,
				"element": "H" 
			},
			{
				"x": -1.1261916418,
				"y": 1.2489540888,
				"z": -3.445780936,
				"element": "H" 
			},
			{
				"x": 0.6031642677,
				"y": 0.9339239515,
				"z": -3.5011630655,
				"element": "H" 
			},
			{
				"x": -1.9772231894,
				"y": -0.7314940417,
				"z": 1.040297631,
				"element": "H" 
			},
			{
				"x": 2.2166099546,
				"y": -2.5225154116,
				"z": 2.0791850756,
				"element": "H" 
			}
		],
		 "valence_orbital": [ 
			{
				"type": "occ",
				"energy": -0.32053,
				"method": "rhf"
			},
			{
				"type": "occ",
				"energy": -0.29631,
				"method": "rhf"
			},
			{
				"type": "occ",
				"energy": -0.28449,
				"method": "rhf"
			},
			{
				"type": "occ",
				"energy": -0.26204,
				"method": "rhf"
			},
			{
				"type": "occ",
				"energy": -0.24137,
				"method": "rhf"
			},
			{
				"type": "unocc",
				"energy": -0.06239,
				"method": "rhf"
			},
			{
				"type": "unocc",
				"energy": -0.00787,
				"method": "rhf"
			},
			{
				"type": "unocc",
				"energy": 0.01959,
				"method": "rhf"
			},
			{
				"type": "unocc",
				"energy": 0.02432,
				"method": "rhf"
			},
			{
				"type": "unocc",
				"energy": 0.0747,
				"method": "rhf"
			}
		],
		"cosmo_sigma_profile": { 
			"-0.025": 0.0,
			"-0.024": 0.0,
			"-0.023": 0.0,
			"-0.022": 0.0,
			"-0.021": 0.0,
			"-0.02": 0.0,
			"-0.019": 0.173033656136,
			"-0.018": 1.14688637449,
			"-0.017": 0.77464466313,
			"-0.016": 0.620885152879,
			"-0.015": 1.32989708059,
			"-0.014": 0.3830801698,
			"-0.013": 0.821798918603,
			"-0.012": 0.327655502643,
			"-0.011": 0.899280357034,
			"-0.01": 0.701829166701,
			"-0.009": 0.38537966832,
			"-0.008": 1.61454464144,
			"-0.007": 3.38690885882,
			"-0.006": 4.26960020151,
			"-0.005": 6.0725944221,
			"-0.004": 10.4020549743,
			"-0.003": 17.6224877654,
			"-0.002": 21.0624025112,
			"-0.001": 20.3092300814,
			"0.0": 26.8697729165,
			"0.001": 30.3791558715,
			"0.002": 20.6954523249,
			"0.003": 13.4081933715,
			"0.004": 10.5451146792,
			"0.005": 3.94043047498,
			"0.006": 3.01048363437,
			"0.007": 2.97844282899,
			"0.008": 1.88941415648,
			"0.009": 1.43672354629,
			"0.01": 2.2911681299,
			"0.011": 4.29493853637,
			"0.012": 3.53477612149,
			"0.013": 0.0,
			"0.014": 0.0,
			"0.015": 0.0,
			"0.016": 0.0,
			"0.017": 0.0,
			"0.018": 0.0,
			"0.019": 0.0,
			"0.02": 0.0,
			"0.021": 0.0,
			"0.022": 0.0,
			"0.023": 0.0,
			"0.024": 0.0,
			"0.025": 0.0
		}
	}
}
