{
	 "smiles": "COC1=C(C=CC=C1)C1=C(C=CC=C1)C(O)=O", 
	 "Tm": 423.15, 
	 "num_atms": 29, 
	 "gaussian": { 
		 "optdone": 1, 
		 "sigma_profile": "yes", 
		 "theory": "DFT", 
		 "functional": "B3LYP", 
		 "basiset": "6-31G**", 
		 "properties": { 
			 "R2extent": 4333.1954, 
			 "electric_dipole_moment_norm": 3.18079909142, 
			 "electric_quadrupole_moment_norm": 12.320385875, 
			 "total_energy": -766.396856446, 
			 "HOMO_LUMO_gap": 0.17503, 
			 "cosmo_polarized_energy": -13.11, 
			 "cosmo_cavitation_energy": 33.3, 
			 "cosmo_dispersion_energy": -23.2, 
			 "cosmo_repulsion_energy": 1.83, 
			 "cosmo_total_nonelectrostatic_energy": 11.93, 
			 "SMD_solvation_energy": 7.54 
		},
		"coords": [
			{
				"x": 1.2105743491,
				"y": -2.4420083943,
				"z": -0.827267034,
				"element": "C" 
			},
			{
				"x": 0.8088364655,
				"y": -1.3318891899,
				"z": -0.0426502978,
				"element": "O" 
			},
			{
				"x": -0.0765938889,
				"y": -0.4403569144,
				"z": -0.5794271965,
				"element": "C" 
			},
			{
				"x": -0.4150705433,
				"y": 0.6596117648,
				"z": 0.2380939408,
				"element": "C" 
			},
			{
				"x": -1.31478754,
				"y": 1.6066686275,
				"z": -0.2570851229,
				"element": "C" 
			},
			{
				"x": -1.8750812,
				"y": 1.4867815952,
				"z": -1.5305572233,
				"element": "C" 
			},
			{
				"x": -1.5288274337,
				"y": 0.3983576531,
				"z": -2.3263717875,
				"element": "C" 
			},
			{
				"x": -0.6324388546,
				"y": -0.5655128192,
				"z": -1.8574992828,
				"element": "C" 
			},
			{
				"x": 0.1272694636,
				"y": 0.7843973512,
				"z": 1.6249007639,
				"element": "C" 
			},
			{
				"x": 0.987950972,
				"y": 1.8231091764,
				"z": 2.0465598926,
				"element": "C" 
			},
			{
				"x": 1.3349262817,
				"y": 1.9380981282,
				"z": 3.4032940115,
				"element": "C" 
			},
			{
				"x": 0.8762711002,
				"y": 1.0218299131,
				"z": 4.3414279531,
				"element": "C" 
			},
			{
				"x": 0.0505228235,
				"y": -0.0256994146,
				"z": 3.9275631318,
				"element": "C" 
			},
			{
				"x": -0.3198464518,
				"y": -0.1324945307,
				"z": 2.5896361376,
				"element": "C" 
			},
			{
				"x": 1.6184234541,
				"y": 2.8394137942,
				"z": 1.1504258968,
				"element": "C" 
			},
			{
				"x": 1.712008548,
				"y": 2.4635121296,
				"z": -0.1448397757,
				"element": "O" 
			},
			{
				"x": 2.0643992482,
				"y": 3.9030704659,
				"z": 1.5389738471,
				"element": "O" 
			},
			{
				"x": 1.710025067,
				"y": -2.1252972955,
				"z": -1.751971013,
				"element": "H" 
			},
			{
				"x": 0.3612642923,
				"y": -3.0890111579,
				"z": -1.0833364408,
				"element": "H" 
			},
			{
				"x": 1.9162446725,
				"y": -3.0038091847,
				"z": -0.2132407785,
				"element": "H" 
			},
			{
				"x": -1.5813711901,
				"y": 2.4487772765,
				"z": 0.3756255692,
				"element": "H" 
			},
			{
				"x": -2.5750314254,
				"y": 2.2342246439,
				"z": -1.8907729393,
				"element": "H" 
			},
			{
				"x": -1.9545854352,
				"y": 0.2876577052,
				"z": -3.3196998465,
				"element": "H" 
			},
			{
				"x": -0.3718556966,
				"y": -1.4043787151,
				"z": -2.4917367846,
				"element": "H" 
			},
			{
				"x": 1.980773217,
				"y": 2.7597337662,
				"z": 3.6929377289,
				"element": "H" 
			},
			{
				"x": 1.1612129109,
				"y": 1.1205804993,
				"z": 5.3845330767,
				"element": "H" 
			},
			{
				"x": -0.3154553922,
				"y": -0.7521993537,
				"z": 4.6476999914,
				"element": "H" 
			},
			{
				"x": -0.9819622545,
				"y": -0.9326164088,
				"z": 2.2744498864,
				"element": "H" 
			},
			{
				"x": 2.1458044406,
				"y": 3.2057488885,
				"z": -0.5981663048,
				"element": "H" 
			}
		],
		 "valence_orbital": [ 
			{
				"type": "occ",
				"energy": -0.27199,
				"method": "rhf"
			},
			{
				"type": "occ",
				"energy": -0.25893,
				"method": "rhf"
			},
			{
				"type": "occ",
				"energy": -0.25275,
				"method": "rhf"
			},
			{
				"type": "occ",
				"energy": -0.23956,
				"method": "rhf"
			},
			{
				"type": "occ",
				"energy": -0.21571,
				"method": "rhf"
			},
			{
				"type": "unocc",
				"energy": -0.04068,
				"method": "rhf"
			},
			{
				"type": "unocc",
				"energy": -0.01207,
				"method": "rhf"
			},
			{
				"type": "unocc",
				"energy": 0.00776,
				"method": "rhf"
			},
			{
				"type": "unocc",
				"energy": 0.0151,
				"method": "rhf"
			},
			{
				"type": "unocc",
				"energy": 0.05749,
				"method": "rhf"
			}
		],
		"cosmo_sigma_profile": { 
			"-0.025": 0.0,
			"-0.024": 0.0,
			"-0.023": 0.0,
			"-0.022": 0.0,
			"-0.021": 0.0,
			"-0.02": 0.0,
			"-0.019": 0.0,
			"-0.018": 0.434673702633,
			"-0.017": 1.05285042592,
			"-0.016": 1.06638924054,
			"-0.015": 0.47932858613,
			"-0.014": 0.531132369932,
			"-0.013": 0.716516700382,
			"-0.012": 0.834902771532,
			"-0.011": 0.704149681383,
			"-0.01": 0.888594601635,
			"-0.009": 0.478095449814,
			"-0.008": 0.600912739221,
			"-0.007": 2.1396611447,
			"-0.006": 15.1510836108,
			"-0.005": 25.2100935313,
			"-0.004": 25.5631854403,
			"-0.003": 24.1264632067,
			"-0.002": 17.0348763256,
			"-0.001": 15.7516865917,
			"0.0": 14.431134424,
			"0.001": 14.310476965,
			"0.002": 17.4882237051,
			"0.003": 18.4561032498,
			"0.004": 16.8486688292,
			"0.005": 11.7090454327,
			"0.006": 10.6898922202,
			"0.007": 7.07903037767,
			"0.008": 5.69076068898,
			"0.009": 4.91814422761,
			"0.01": 3.37742361248,
			"0.011": 2.90646931398,
			"0.012": 4.74052733487,
			"0.013": 0.380817711363,
			"0.014": 0.0,
			"0.015": 0.0,
			"0.016": 0.0,
			"0.017": 0.0,
			"0.018": 0.0,
			"0.019": 0.0,
			"0.02": 0.0,
			"0.021": 0.0,
			"0.022": 0.0,
			"0.023": 0.0,
			"0.024": 0.0,
			"0.025": 0.0
		}
	}
}
