{
	 "smiles": "ClC1=CC(Cl)=C(C#N)C(Cl)=C1", 
	 "Tm": 354.15, 
	 "num_atms": 13, 
	 "gaussian": { 
		 "optdone": 1, 
		 "sigma_profile": "yes", 
		 "theory": "DFT", 
		 "functional": "B3LYP", 
		 "basiset": "6-31G**", 
		 "properties": { 
			 "R2extent": 3055.8252, 
			 "electric_dipole_moment_norm": 3.91041217393, 
			 "electric_quadrupole_moment_norm": 12.1416935915, 
			 "total_energy": -1703.25076139, 
			 "HOMO_LUMO_gap": 0.19628, 
			 "cosmo_polarized_energy": -7.98, 
			 "cosmo_cavitation_energy": 24.45, 
			 "cosmo_dispersion_energy": -17.79, 
			 "cosmo_repulsion_energy": 1.44, 
			 "cosmo_total_nonelectrostatic_energy": 8.1, 
			 "SMD_solvation_energy": 4.6 
		},
		"coords": [
			{
				"x": -1.1544065021,
				"y": -0.4784370128,
				"z": 3.7909865758,
				"element": "Cl" 
			},
			{
				"x": -0.9545586982,
				"y": -0.4059859292,
				"z": 2.0586964733,
				"element": "C" 
			},
			{
				"x": -2.0234628302,
				"y": 0.0160708287,
				"z": 1.2691122465,
				"element": "C" 
			},
			{
				"x": -1.8549315359,
				"y": 0.0706340477,
				"z": -0.1108188891,
				"element": "C" 
			},
			{
				"x": -3.1901851884,
				"y": 0.5977336299,
				"z": -1.0950404068,
				"element": "Cl" 
			},
			{
				"x": -0.6340075537,
				"y": -0.2898073861,
				"z": -0.7200782754,
				"element": "C" 
			},
			{
				"x": -0.4704169451,
				"y": -0.2305397649,
				"z": -2.1382265321,
				"element": "C" 
			},
			{
				"x": -0.3372566499,
				"y": -0.1823014409,
				"z": -3.292133346,
				"element": "N" 
			},
			{
				"x": 0.4198535713,
				"y": -0.7107773476,
				"z": 0.1189229005,
				"element": "C" 
			},
			{
				"x": 1.9488178161,
				"y": -1.1676395761,
				"z": -0.5760317472,
				"element": "Cl" 
			},
			{
				"x": 0.2697996156,
				"y": -0.7716858757,
				"z": 1.5007212693,
				"element": "C" 
			},
			{
				"x": -2.9682711013,
				"y": 0.2969396162,
				"z": 1.7164691249,
				"element": "H" 
			},
			{
				"x": 1.0908260016,
				"y": -1.0974037893,
				"z": 2.1264206065,
				"element": "H" 
			}
		],
		 "valence_orbital": [ 
			{
				"type": "occ",
				"energy": -0.34608,
				"method": "rhf"
			},
			{
				"type": "occ",
				"energy": -0.33258,
				"method": "rhf"
			},
			{
				"type": "occ",
				"energy": -0.33216,
				"method": "rhf"
			},
			{
				"type": "occ",
				"energy": -0.28331,
				"method": "rhf"
			},
			{
				"type": "occ",
				"energy": -0.27841,
				"method": "rhf"
			},
			{
				"type": "unocc",
				"energy": -0.08213,
				"method": "rhf"
			},
			{
				"type": "unocc",
				"energy": -0.05787,
				"method": "rhf"
			},
			{
				"type": "unocc",
				"energy": -0.03203,
				"method": "rhf"
			},
			{
				"type": "unocc",
				"energy": 0.01375,
				"method": "rhf"
			},
			{
				"type": "unocc",
				"energy": 0.02448,
				"method": "rhf"
			}
		],
		"cosmo_sigma_profile": { 
			"-0.025": 0.0,
			"-0.024": 0.0,
			"-0.023": 0.0,
			"-0.022": 0.0,
			"-0.021": 0.0,
			"-0.02": 0.0,
			"-0.019": 0.0,
			"-0.018": 0.0,
			"-0.017": 0.0,
			"-0.016": 0.0,
			"-0.015": 0.0,
			"-0.014": 0.0,
			"-0.013": 0.0,
			"-0.012": 0.0,
			"-0.011": 0.00930152395425,
			"-0.01": 1.95513962276,
			"-0.009": 3.02716985965,
			"-0.008": 3.07183104072,
			"-0.007": 3.1732265665,
			"-0.006": 3.91078082923,
			"-0.005": 4.02698196138,
			"-0.004": 14.3275078709,
			"-0.003": 20.9341999931,
			"-0.002": 28.1240313606,
			"-0.001": 18.52296821,
			"0.0": 15.3469592053,
			"0.001": 16.3438626116,
			"0.002": 25.7302188928,
			"0.003": 20.7884780898,
			"0.004": 3.97500678896,
			"0.005": 3.07158452341,
			"0.006": 3.33350694225,
			"0.007": 3.21403859271,
			"0.008": 3.21205173358,
			"0.009": 3.02226163706,
			"0.01": 2.68961355836,
			"0.011": 2.44041127396,
			"0.012": 1.45301377345,
			"0.013": 0.0163089859494,
			"0.014": 0.0,
			"0.015": 0.0,
			"0.016": 0.0,
			"0.017": 0.0,
			"0.018": 0.0,
			"0.019": 0.0,
			"0.02": 0.0,
			"0.021": 0.0,
			"0.022": 0.0,
			"0.023": 0.0,
			"0.024": 0.0,
			"0.025": 0.0
		}
	}
}
