{
	 "smiles": "CCOC(=O)C1=C(N)C=C(S1)C1=C(Cl)C=C(Cl)C=C1", 
	 "Tm": 374.15, 
	 "num_atms": 30, 
	 "gaussian": { 
		 "optdone": 1, 
		 "sigma_profile": "yes", 
		 "theory": "DFT", 
		 "functional": "B3LYP", 
		 "basiset": "6-31G**", 
		 "properties": { 
			 "R2extent": 9885.4619, 
			 "electric_dipole_moment_norm": 0.61862644625, 
			 "electric_quadrupole_moment_norm": 11.6320377179, 
			 "total_energy": -2025.8044061, 
			 "HOMO_LUMO_gap": 0.14416, 
			 "cosmo_polarized_energy": -10.71, 
			 "cosmo_cavitation_energy": 39.81, 
			 "cosmo_dispersion_energy": -29.31, 
			 "cosmo_repulsion_energy": 2.25, 
			 "cosmo_total_nonelectrostatic_energy": 12.76, 
			 "SMD_solvation_energy": 6.58 
		},
		"coords": [
			{
				"x": 1.8956674207,
				"y": 6.0003268124,
				"z": 0.0807612693,
				"element": "C" 
			},
			{
				"x": 1.0173183953,
				"y": 5.2085248814,
				"z": -0.876713598,
				"element": "C" 
			},
			{
				"x": 0.8590894676,
				"y": 3.8401045494,
				"z": -0.4380491191,
				"element": "O" 
			},
			{
				"x": -0.1274916661,
				"y": 3.5970470131,
				"z": 0.459022668,
				"element": "C" 
			},
			{
				"x": -0.8751069195,
				"y": 4.4715283342,
				"z": 0.8944875818,
				"element": "O" 
			},
			{
				"x": -0.2094094982,
				"y": 2.2035113732,
				"z": 0.8352481106,
				"element": "C" 
			},
			{
				"x": -1.1502748078,
				"y": 1.6751303057,
				"z": 1.7222035423,
				"element": "C" 
			},
			{
				"x": -2.0469107136,
				"y": 2.428720602,
				"z": 2.4278303778,
				"element": "N" 
			},
			{
				"x": -1.027878263,
				"y": 0.2555669115,
				"z": 1.8475394107,
				"element": "C" 
			},
			{
				"x": -0.0190059443,
				"y": -0.2786289747,
				"z": 1.0838855594,
				"element": "C" 
			},
			{
				"x": 0.821483698,
				"y": 0.9535148128,
				"z": 0.1707149643,
				"element": "S" 
			},
			{
				"x": 0.4349058465,
				"y": -1.6770531943,
				"z": 0.9976408857,
				"element": "C" 
			},
			{
				"x": -0.4273737634,
				"y": -2.7891045893,
				"z": 0.9003627513,
				"element": "C" 
			},
			{
				"x": -2.1732148099,
				"y": -2.6034185356,
				"z": 0.8279646935,
				"element": "Cl" 
			},
			{
				"x": 0.0588804194,
				"y": -4.0941345492,
				"z": 0.8206590157,
				"element": "C" 
			},
			{
				"x": 1.4340344026,
				"y": -4.3109131543,
				"z": 0.8305178105,
				"element": "C" 
			},
			{
				"x": 2.0428420894,
				"y": -5.9515119831,
				"z": 0.7331842732,
				"element": "Cl" 
			},
			{
				"x": 2.3252609152,
				"y": -3.2429390026,
				"z": 0.9153204742,
				"element": "C" 
			},
			{
				"x": 1.8173776223,
				"y": -1.9519891401,
				"z": 0.9988065803,
				"element": "C" 
			},
			{
				"x": 2.0621548475,
				"y": 7.0081634795,
				"z": -0.3144450593,
				"element": "H" 
			},
			{
				"x": 1.4135863172,
				"y": 6.0897041261,
				"z": 1.0572518079,
				"element": "H" 
			},
			{
				"x": 2.8682513887,
				"y": 5.5159151716,
				"z": 0.2082008591,
				"element": "H" 
			},
			{
				"x": 1.4760890196,
				"y": 5.124579139,
				"z": -1.8648781744,
				"element": "H" 
			},
			{
				"x": 0.0293119902,
				"y": 5.664782878,
				"z": -0.9732281657,
				"element": "H" 
			},
			{
				"x": -2.8792526146,
				"y": 1.9759795956,
				"z": 2.7711208093,
				"element": "H" 
			},
			{
				"x": -2.1237827227,
				"y": 3.3948070803,
				"z": 2.1298578681,
				"element": "H" 
			},
			{
				"x": -1.6528279525,
				"y": -0.3343417789,
				"z": 2.5061300887,
				"element": "H" 
			},
			{
				"x": -0.6306573822,
				"y": -4.9253157149,
				"z": 0.7417554201,
				"element": "H" 
			},
			{
				"x": 3.3945740692,
				"y": -3.419371292,
				"z": 0.9255091175,
				"element": "H" 
			},
			{
				"x": 2.5067591486,
				"y": -1.1187851571,
				"z": 1.0878381774,
				"element": "H" 
			}
		],
		 "valence_orbital": [ 
			{
				"type": "occ",
				"energy": -0.27571,
				"method": "rhf"
			},
			{
				"type": "occ",
				"energy": -0.27201,
				"method": "rhf"
			},
			{
				"type": "occ",
				"energy": -0.26614,
				"method": "rhf"
			},
			{
				"type": "occ",
				"energy": -0.23736,
				"method": "rhf"
			},
			{
				"type": "occ",
				"energy": -0.20636,
				"method": "rhf"
			},
			{
				"type": "unocc",
				"energy": -0.0622,
				"method": "rhf"
			},
			{
				"type": "unocc",
				"energy": -0.03312,
				"method": "rhf"
			},
			{
				"type": "unocc",
				"energy": -0.01505,
				"method": "rhf"
			},
			{
				"type": "unocc",
				"energy": 0.00167,
				"method": "rhf"
			},
			{
				"type": "unocc",
				"energy": 0.02692,
				"method": "rhf"
			}
		],
		"cosmo_sigma_profile": { 
			"-0.025": 0.0,
			"-0.024": 0.0,
			"-0.023": 0.0,
			"-0.022": 0.0,
			"-0.021": 0.0,
			"-0.02": 0.0,
			"-0.019": 0.0,
			"-0.018": 0.0,
			"-0.017": 0.0,
			"-0.016": 0.0,
			"-0.015": 0.0,
			"-0.014": 0.660257851871,
			"-0.013": 1.47692948262,
			"-0.012": 1.6038257732,
			"-0.011": 1.30513095269,
			"-0.01": 1.67376805513,
			"-0.009": 3.02042402262,
			"-0.008": 5.84137287917,
			"-0.007": 7.22205702602,
			"-0.006": 8.70575626276,
			"-0.005": 11.0956616263,
			"-0.004": 17.505375318,
			"-0.003": 22.4745483928,
			"-0.002": 22.4375024107,
			"-0.001": 25.5920101137,
			"0.0": 34.7274644169,
			"0.001": 39.8329577323,
			"0.002": 30.5246843801,
			"0.003": 30.4368303277,
			"0.004": 28.3372884525,
			"0.005": 9.78863853962,
			"0.006": 5.45840394882,
			"0.007": 4.21095674019,
			"0.008": 3.15263090154,
			"0.009": 2.30946568864,
			"0.01": 2.24653437755,
			"0.011": 1.89681531596,
			"0.012": 0.998763253156,
			"0.013": 0.0105698883798,
			"0.014": 0.0,
			"0.015": 0.0,
			"0.016": 0.0,
			"0.017": 0.0,
			"0.018": 0.0,
			"0.019": 0.0,
			"0.02": 0.0,
			"0.021": 0.0,
			"0.022": 0.0,
			"0.023": 0.0,
			"0.024": 0.0,
			"0.025": 0.0
		}
	}
}
