{
	 "smiles": "FC(F)(F)COC(=O)NC1=CC(=CC=C1)N1CCOC1=O", 
	 "Tm": 426.15, 
	 "num_atms": 32, 
	 "gaussian": { 
		 "optdone": 1, 
		 "sigma_profile": "yes", 
		 "theory": "DFT", 
		 "functional": "B3LYP", 
		 "basiset": "6-31G**", 
		 "properties": { 
			 "R2extent": 10652.3705, 
			 "electric_dipole_moment_norm": 5.31623637078, 
			 "electric_quadrupole_moment_norm": 31.4182685793, 
			 "total_energy": -1173.86562428, 
			 "HOMO_LUMO_gap": 0.20615, 
			 "cosmo_polarized_energy": -20.97, 
			 "cosmo_cavitation_energy": 38.4, 
			 "cosmo_dispersion_energy": -27.77, 
			 "cosmo_repulsion_energy": 2.05, 
			 "cosmo_total_nonelectrostatic_energy": 12.69, 
			 "SMD_solvation_energy": 9.36 
		},
		"coords": [
			{
				"x": -5.156359369,
				"y": -0.8730948874,
				"z": 3.7385334488,
				"element": "F" 
			},
			{
				"x": -4.4070790157,
				"y": -0.4557004021,
				"z": 2.6968348605,
				"element": "C" 
			},
			{
				"x": -3.3971543684,
				"y": 0.2941901181,
				"z": 3.1740650632,
				"element": "F" 
			},
			{
				"x": -5.1758639985,
				"y": 0.336404572,
				"z": 1.9241809812,
				"element": "F" 
			},
			{
				"x": -3.8906026049,
				"y": -1.6615833713,
				"z": 1.9302564591,
				"element": "C" 
			},
			{
				"x": -3.08753868,
				"y": -1.2247839586,
				"z": 0.8423036618,
				"element": "O" 
			},
			{
				"x": -1.7262136945,
				"y": -1.3734638951,
				"z": 1.0025865525,
				"element": "C" 
			},
			{
				"x": -1.2070658634,
				"y": -1.9463076402,
				"z": 1.937344422,
				"element": "O" 
			},
			{
				"x": -1.1155772843,
				"y": -0.7888464838,
				"z": -0.0683716172,
				"element": "N" 
			},
			{
				"x": 0.2651516419,
				"y": -0.724927649,
				"z": -0.3573690371,
				"element": "C" 
			},
			{
				"x": 0.6278194669,
				"y": -0.0491917773,
				"z": -1.5315400062,
				"element": "C" 
			},
			{
				"x": 1.9734869816,
				"y": 0.0654878392,
				"z": -1.9050238932,
				"element": "C" 
			},
			{
				"x": 2.9651751498,
				"y": -0.5056794981,
				"z": -1.0889257161,
				"element": "C" 
			},
			{
				"x": 2.5810091825,
				"y": -1.1730706345,
				"z": 0.0696257202,
				"element": "C" 
			},
			{
				"x": 1.2468452337,
				"y": -1.2956346492,
				"z": 0.4586194767,
				"element": "C" 
			},
			{
				"x": 2.2964811698,
				"y": 0.7783098856,
				"z": -3.082898526,
				"element": "N" 
			},
			{
				"x": 1.293198237,
				"y": 1.4540715722,
				"z": -3.8955529701,
				"element": "C" 
			},
			{
				"x": 2.17898124,
				"y": 2.1832897868,
				"z": -4.915059494,
				"element": "C" 
			},
			{
				"x": 3.4191234914,
				"y": 1.4657789987,
				"z": -4.8989422088,
				"element": "O" 
			},
			{
				"x": 3.515243954,
				"y": 0.7223794647,
				"z": -3.7546291432,
				"element": "C" 
			},
			{
				"x": 4.5245821958,
				"y": 0.1389078381,
				"z": -3.4441349297,
				"element": "O" 
			},
			{
				"x": -3.3118563345,
				"y": -2.2939466712,
				"z": 2.6059386559,
				"element": "H" 
			},
			{
				"x": -4.7416380901,
				"y": -2.2122748387,
				"z": 1.5241929931,
				"element": "H" 
			},
			{
				"x": -1.7436580519,
				"y": -0.3509992176,
				"z": -0.7270111139,
				"element": "H" 
			},
			{
				"x": -0.1544774826,
				"y": 0.3785712217,
				"z": -2.1495444189,
				"element": "H" 
			},
			{
				"x": 4.0044888525,
				"y": -0.4320433928,
				"z": -1.3725581104,
				"element": "H" 
			},
			{
				"x": 3.3506254711,
				"y": -1.613030728,
				"z": 0.6971165049,
				"element": "H" 
			},
			{
				"x": 0.9674308483,
				"y": -1.8134292836,
				"z": 1.3646918963,
				"element": "H" 
			},
			{
				"x": 0.6158595101,
				"y": 0.7322367533,
				"z": -4.3728225469,
				"element": "H" 
			},
			{
				"x": 0.6948144235,
				"y": 2.1494232507,
				"z": -3.2994824412,
				"element": "H" 
			},
			{
				"x": 1.7769419676,
				"y": 2.1641292982,
				"z": -5.9295614811,
				"element": "H" 
			},
			{
				"x": 2.3672258202,
				"y": 3.2218283791,
				"z": -4.6207630422,
				"element": "H" 
			}
		],
		 "valence_orbital": [ 
			{
				"type": "occ",
				"energy": -0.29742,
				"method": "rhf"
			},
			{
				"type": "occ",
				"energy": -0.29607,
				"method": "rhf"
			},
			{
				"type": "occ",
				"energy": -0.28264,
				"method": "rhf"
			},
			{
				"type": "occ",
				"energy": -0.24134,
				"method": "rhf"
			},
			{
				"type": "occ",
				"energy": -0.22042,
				"method": "rhf"
			},
			{
				"type": "unocc",
				"energy": -0.01427,
				"method": "rhf"
			},
			{
				"type": "unocc",
				"energy": -0.01072,
				"method": "rhf"
			},
			{
				"type": "unocc",
				"energy": 0.03851,
				"method": "rhf"
			},
			{
				"type": "unocc",
				"energy": 0.05641,
				"method": "rhf"
			},
			{
				"type": "unocc",
				"energy": 0.06252,
				"method": "rhf"
			}
		],
		"cosmo_sigma_profile": { 
			"-0.025": 0.0,
			"-0.024": 0.0,
			"-0.023": 0.0,
			"-0.022": 0.0,
			"-0.021": 0.0,
			"-0.02": 0.0,
			"-0.019": 0.0,
			"-0.018": 0.0,
			"-0.017": 0.0,
			"-0.016": 0.669341284621,
			"-0.015": 1.2053059642,
			"-0.014": 1.13602030791,
			"-0.013": 0.996461686508,
			"-0.012": 1.01556876949,
			"-0.011": 1.28969652306,
			"-0.01": 1.77250606121,
			"-0.009": 3.63017070322,
			"-0.008": 7.65506727782,
			"-0.007": 20.1003040863,
			"-0.006": 22.1202847444,
			"-0.005": 16.6624184326,
			"-0.004": 12.9825951718,
			"-0.003": 12.7344075836,
			"-0.002": 14.0272833693,
			"-0.001": 15.6663244216,
			"0.0": 15.9287404665,
			"0.001": 18.7031939171,
			"0.002": 35.9724177536,
			"0.003": 34.0937549092,
			"0.004": 17.2519047453,
			"0.005": 13.4317440669,
			"0.006": 5.7905856261,
			"0.007": 3.40918133527,
			"0.008": 4.22849564487,
			"0.009": 5.82688149056,
			"0.01": 6.36894338249,
			"0.011": 6.40670598142,
			"0.012": 4.21293467537,
			"0.013": 1.80378627492,
			"0.014": 0.0179395038768,
			"0.015": 0.0,
			"0.016": 0.0,
			"0.017": 0.0,
			"0.018": 0.0,
			"0.019": 0.0,
			"0.02": 0.0,
			"0.021": 0.0,
			"0.022": 0.0,
			"0.023": 0.0,
			"0.024": 0.0,
			"0.025": 0.0
		}
	}
}
