{
	 "smiles": "OC(=O)C1=C(O)C=CC(NC(=O)C2=CC(Cl)=CC(Cl)=C2)=C1", 
	 "Tm": 562.15, 
	 "num_atms": 30, 
	 "gaussian": { 
		 "optdone": 1, 
		 "sigma_profile": "yes", 
		 "theory": "DFT", 
		 "functional": "B3LYP", 
		 "basiset": "6-31G**", 
		 "properties": { 
			 "R2extent": 7802.9374, 
			 "electric_dipole_moment_norm": 2.15438095749, 
			 "electric_quadrupole_moment_norm": 24.5644164132, 
			 "total_energy": -1814.97341054, 
			 "HOMO_LUMO_gap": 0.16273, 
			 "cosmo_polarized_energy": -21.31, 
			 "cosmo_cavitation_energy": 39.5, 
			 "cosmo_dispersion_energy": -27.16, 
			 "cosmo_repulsion_energy": 2.1, 
			 "cosmo_total_nonelectrostatic_energy": 14.44, 
			 "SMD_solvation_energy": 8.08 
		},
		"coords": [
			{
				"x": 0.9170350474,
				"y": -2.9136829632,
				"z": 0.3270697225,
				"element": "O" 
			},
			{
				"x": 1.9266832213,
				"y": -2.5420045259,
				"z": -0.4830267287,
				"element": "C" 
			},
			{
				"x": 2.9741193509,
				"y": -3.1779210463,
				"z": -0.435036208,
				"element": "O" 
			},
			{
				"x": 1.73890626,
				"y": -1.3831005061,
				"z": -1.3849445997,
				"element": "C" 
			},
			{
				"x": 2.875623708,
				"y": -0.886137318,
				"z": -2.0776049902,
				"element": "C" 
			},
			{
				"x": 4.0887661086,
				"y": -1.4357207428,
				"z": -1.9716240108,
				"element": "O" 
			},
			{
				"x": 2.7279641235,
				"y": 0.2373089673,
				"z": -2.9119801656,
				"element": "C" 
			},
			{
				"x": 1.4936904775,
				"y": 0.8427304025,
				"z": -3.0670858757,
				"element": "C" 
			},
			{
				"x": 0.3505298915,
				"y": 0.3351260192,
				"z": -2.4200805108,
				"element": "C" 
			},
			{
				"x": -0.9092515842,
				"y": 0.949080189,
				"z": -2.6613066103,
				"element": "N" 
			},
			{
				"x": -1.9742184059,
				"y": 1.1521758939,
				"z": -1.8039284932,
				"element": "C" 
			},
			{
				"x": -3.1053516157,
				"y": 1.3001849573,
				"z": -2.248119438,
				"element": "O" 
			},
			{
				"x": -1.716974629,
				"y": 1.2482184362,
				"z": -0.3225094893,
				"element": "C" 
			},
			{
				"x": -0.5490187241,
				"y": 1.8045867455,
				"z": 0.2144043914,
				"element": "C" 
			},
			{
				"x": -0.4382908795,
				"y": 1.9391670999,
				"z": 1.5970194732,
				"element": "C" 
			},
			{
				"x": 1.0137335876,
				"y": 2.6494290377,
				"z": 2.27707013,
				"element": "Cl" 
			},
			{
				"x": -1.4533560227,
				"y": 1.5230289933,
				"z": 2.4585369403,
				"element": "C" 
			},
			{
				"x": -2.6101656143,
				"y": 0.979260249,
				"z": 1.8984849039,
				"element": "C" 
			},
			{
				"x": -3.90254276,
				"y": 0.4580567546,
				"z": 2.9618542161,
				"element": "Cl" 
			},
			{
				"x": -2.7616132624,
				"y": 0.8505784997,
				"z": 0.5209437759,
				"element": "C" 
			},
			{
				"x": 0.485385388,
				"y": -0.7830182904,
				"z": -1.6044353333,
				"element": "C" 
			},
			{
				"x": 0.2065043701,
				"y": -2.2579197301,
				"z": 0.3195346,
				"element": "H" 
			},
			{
				"x": 3.9910104461,
				"y": -2.2364226542,
				"z": -1.3956522598,
				"element": "H" 
			},
			{
				"x": 3.6080177991,
				"y": 0.6128796779,
				"z": -3.4222450567,
				"element": "H" 
			},
			{
				"x": 1.3949050097,
				"y": 1.7187990615,
				"z": -3.7017602359,
				"element": "H" 
			},
			{
				"x": -1.2034532163,
				"y": 1.0184607003,
				"z": -3.629421874,
				"element": "H" 
			},
			{
				"x": 0.2559601013,
				"y": 2.1427561468,
				"z": -0.4253865026,
				"element": "H" 
			},
			{
				"x": -1.3494460069,
				"y": 1.6265803256,
				"z": 3.5315506723,
				"element": "H" 
			},
			{
				"x": -3.6768933018,
				"y": 0.4634711033,
				"z": 0.0899263948,
				"element": "H" 
			},
			{
				"x": -0.4131588678,
				"y": -1.2043514835,
				"z": -1.1630468377,
				"element": "H" 
			}
		],
		 "valence_orbital": [ 
			{
				"type": "occ",
				"energy": -0.29221,
				"method": "rhf"
			},
			{
				"type": "occ",
				"energy": -0.28536,
				"method": "rhf"
			},
			{
				"type": "occ",
				"energy": -0.27326,
				"method": "rhf"
			},
			{
				"type": "occ",
				"energy": -0.26631,
				"method": "rhf"
			},
			{
				"type": "occ",
				"energy": -0.23701,
				"method": "rhf"
			},
			{
				"type": "unocc",
				"energy": -0.07428,
				"method": "rhf"
			},
			{
				"type": "unocc",
				"energy": -0.06805,
				"method": "rhf"
			},
			{
				"type": "unocc",
				"energy": -0.03965,
				"method": "rhf"
			},
			{
				"type": "unocc",
				"energy": -0.02538,
				"method": "rhf"
			},
			{
				"type": "unocc",
				"energy": -0.00558,
				"method": "rhf"
			}
		],
		"cosmo_sigma_profile": { 
			"-0.025": 0.0,
			"-0.024": 0.0,
			"-0.023": 0.0,
			"-0.022": 0.0,
			"-0.021": 0.0,
			"-0.02": 0.0,
			"-0.019": 0.0441978107129,
			"-0.018": 0.86183926727,
			"-0.017": 1.38781874652,
			"-0.016": 0.805116847708,
			"-0.015": 1.4524319464,
			"-0.014": 2.8225570186,
			"-0.013": 1.81250592808,
			"-0.012": 2.1268935852,
			"-0.011": 2.56100541542,
			"-0.01": 2.59909982424,
			"-0.009": 3.78929548944,
			"-0.008": 5.46806951949,
			"-0.007": 10.5924021619,
			"-0.006": 11.5348344379,
			"-0.005": 13.7740689741,
			"-0.004": 15.5454350962,
			"-0.003": 18.1758557404,
			"-0.002": 21.0406930302,
			"-0.001": 23.9361343452,
			"0.0": 34.6203403159,
			"0.001": 29.8726640564,
			"0.002": 22.0540191923,
			"0.003": 22.878237578,
			"0.004": 22.0542045116,
			"0.005": 5.81221230457,
			"0.006": 4.74223727589,
			"0.007": 6.08225281759,
			"0.008": 4.58921677902,
			"0.009": 6.59224263861,
			"0.01": 7.35361056422,
			"0.011": 5.61289718331,
			"0.012": 5.83852492793,
			"0.013": 3.784975478,
			"0.014": 0.0725516877122,
			"0.015": 0.0,
			"0.016": 0.0,
			"0.017": 0.0,
			"0.018": 0.0,
			"0.019": 0.0,
			"0.02": 0.0,
			"0.021": 0.0,
			"0.022": 0.0,
			"0.023": 0.0,
			"0.024": 0.0,
			"0.025": 0.0
		}
	}
}
