{
	 "smiles": "CC1=CC(C(O)=O)=C(C)N1C1CC1", 
	 "Tm": 455.15, 
	 "num_atms": 26, 
	 "gaussian": { 
		 "optdone": 1, 
		 "sigma_profile": "yes", 
		 "theory": "DFT", 
		 "functional": "B3LYP", 
		 "basiset": "6-31G**", 
		 "properties": { 
			 "R2extent": 2904.1297, 
			 "electric_dipole_moment_norm": 6.70205420226, 
			 "electric_quadrupole_moment_norm": 20.2873226043, 
			 "total_energy": -594.08122482, 
			 "HOMO_LUMO_gap": 0.2031, 
			 "cosmo_polarized_energy": -15.69, 
			 "cosmo_cavitation_energy": 28.38, 
			 "cosmo_dispersion_energy": -20.49, 
			 "cosmo_repulsion_energy": 1.62, 
			 "cosmo_total_nonelectrostatic_energy": 9.5, 
			 "SMD_solvation_energy": 5.41 
		},
		"coords": [
			{
				"x": -0.7773642291,
				"y": -2.1162181812,
				"z": -2.3245016723,
				"element": "C" 
			},
			{
				"x": -0.5122593496,
				"y": -1.685429858,
				"z": -0.9170777455,
				"element": "C" 
			},
			{
				"x": -0.5637641374,
				"y": -2.4208985125,
				"z": 0.2387505321,
				"element": "C" 
			},
			{
				"x": -0.1916334207,
				"y": -1.5682069105,
				"z": 1.3297928943,
				"element": "C" 
			},
			{
				"x": -0.0875169774,
				"y": -1.9202785921,
				"z": 2.7554418171,
				"element": "C" 
			},
			{
				"x": -0.1447592114,
				"y": -3.2552822513,
				"z": 3.0428045373,
				"element": "O" 
			},
			{
				"x": 0.0422601356,
				"y": -1.1312079224,
				"z": 3.6695981976,
				"element": "O" 
			},
			{
				"x": 0.0840938453,
				"y": -0.3125678327,
				"z": 0.7960548878,
				"element": "C" 
			},
			{
				"x": 0.5794147882,
				"y": 0.9219220919,
				"z": 1.4785663747,
				"element": "C" 
			},
			{
				"x": -0.1308283729,
				"y": -0.3876694771,
				"z": -0.5671486784,
				"element": "N" 
			},
			{
				"x": 0.15465972,
				"y": 0.6650155089,
				"z": -1.5083141849,
				"element": "C" 
			},
			{
				"x": -0.9072498978,
				"y": 1.1145840987,
				"z": -2.4840615573,
				"element": "C" 
			},
			{
				"x": -0.4971661519,
				"y": 2.017198191,
				"z": -1.3539826817,
				"element": "C" 
			},
			{
				"x": -1.6759619893,
				"y": -1.6573000032,
				"z": -2.7524189895,
				"element": "H" 
			},
			{
				"x": 0.056446049,
				"y": -1.8783982033,
				"z": -2.9949892071,
				"element": "H" 
			},
			{
				"x": -0.9197676739,
				"y": -3.1994849616,
				"z": -2.3442763073,
				"element": "H" 
			},
			{
				"x": -0.8814951098,
				"y": -3.4554217323,
				"z": 0.2844176657,
				"element": "H" 
			},
			{
				"x": -0.1314770529,
				"y": -3.7662501635,
				"z": 2.2223123515,
				"element": "H" 
			},
			{
				"x": -0.1922934979,
				"y": 1.6984051325,
				"z": 1.5376432563,
				"element": "H" 
			},
			{
				"x": 0.8608652386,
				"y": 0.6654409483,
				"z": 2.4991863015,
				"element": "H" 
			},
			{
				"x": 1.4391004934,
				"y": 1.3559701203,
				"z": 0.956692301,
				"element": "H" 
			},
			{
				"x": 1.179517983,
				"y": 0.6599357584,
				"z": -1.8764733976,
				"element": "H" 
			},
			{
				"x": -1.8843589787,
				"y": 0.6501626059,
				"z": -2.4109694495,
				"element": "H" 
			},
			{
				"x": -0.5921879146,
				"y": 1.3505927949,
				"z": -3.4954597442,
				"element": "H" 
			},
			{
				"x": -1.2047798598,
				"y": 2.1420656632,
				"z": -0.5422456669,
				"element": "H" 
			},
			{
				"x": 0.1088055722,
				"y": 2.8924216878,
				"z": -1.5648418346,
				"element": "H" 
			}
		],
		 "valence_orbital": [ 
			{
				"type": "occ",
				"energy": -0.31747,
				"method": "rhf"
			},
			{
				"type": "occ",
				"energy": -0.2936,
				"method": "rhf"
			},
			{
				"type": "occ",
				"energy": -0.25255,
				"method": "rhf"
			},
			{
				"type": "occ",
				"energy": -0.24573,
				"method": "rhf"
			},
			{
				"type": "occ",
				"energy": -0.20922,
				"method": "rhf"
			},
			{
				"type": "unocc",
				"energy": -0.00612,
				"method": "rhf"
			},
			{
				"type": "unocc",
				"energy": 0.03101,
				"method": "rhf"
			},
			{
				"type": "unocc",
				"energy": 0.07546,
				"method": "rhf"
			},
			{
				"type": "unocc",
				"energy": 0.08061,
				"method": "rhf"
			},
			{
				"type": "unocc",
				"energy": 0.08328,
				"method": "rhf"
			}
		],
		"cosmo_sigma_profile": { 
			"-0.025": 0.0,
			"-0.024": 0.0,
			"-0.023": 0.0,
			"-0.022": 0.0,
			"-0.021": 0.0,
			"-0.02": 0.0,
			"-0.019": 0.0,
			"-0.018": 0.0507946241849,
			"-0.017": 0.51455081903,
			"-0.016": 0.838409105257,
			"-0.015": 1.12379701573,
			"-0.014": 0.729799188301,
			"-0.013": 0.644109488562,
			"-0.012": 0.953370049279,
			"-0.011": 0.888744939886,
			"-0.01": 1.19970354637,
			"-0.009": 1.31189756665,
			"-0.008": 1.03525749982,
			"-0.007": 1.4029744433,
			"-0.006": 7.79344515416,
			"-0.005": 18.8320574382,
			"-0.004": 20.3188315066,
			"-0.003": 20.2267050816,
			"-0.002": 19.4113229452,
			"-0.001": 23.086043741,
			"0.0": 24.2628485103,
			"0.001": 11.6740456172,
			"0.002": 9.61631325741,
			"0.003": 8.00897389494,
			"0.004": 8.01195973917,
			"0.005": 7.06931373283,
			"0.006": 5.61202861004,
			"0.007": 3.96841340417,
			"0.008": 2.87472963402,
			"0.009": 3.08794156542,
			"0.01": 2.8609509122,
			"0.011": 4.41018815413,
			"0.012": 5.11775443791,
			"0.013": 4.41396001131,
			"0.014": 2.0605221989,
			"0.015": 0.387006632886,
			"0.016": 0.0,
			"0.017": 0.0,
			"0.018": 0.0,
			"0.019": 0.0,
			"0.02": 0.0,
			"0.021": 0.0,
			"0.022": 0.0,
			"0.023": 0.0,
			"0.024": 0.0,
			"0.025": 0.0
		}
	}
}
