{
	 "smiles": "CCOC1=C(OCC)C=C2C(CC(O)=O)NCCC2=C1", 
	 "Tm": 533.15, 
	 "num_atms": 41, 
	 "gaussian": { 
		 "optdone": 1, 
		 "sigma_profile": "yes", 
		 "theory": "DFT", 
		 "functional": "B3LYP", 
		 "basiset": "6-31G**", 
		 "properties": { 
			 "R2extent": 6818.2866, 
			 "electric_dipole_moment_norm": 1.72089421523, 
			 "electric_quadrupole_moment_norm": 11.4178048468, 
			 "total_energy": -939.9047685, 
			 "HOMO_LUMO_gap": 0.20109, 
			 "cosmo_polarized_energy": -14.85, 
			 "cosmo_cavitation_energy": 42.53, 
			 "cosmo_dispersion_energy": -29.4, 
			 "cosmo_repulsion_energy": 2.33, 
			 "cosmo_total_nonelectrostatic_energy": 15.46, 
			 "SMD_solvation_energy": 6.23 
		},
		"coords": [
			{
				"x": 0.8843914186,
				"y": -5.3862665486,
				"z": -0.3529751263,
				"element": "C" 
			},
			{
				"x": 0.6194938285,
				"y": -3.9079779272,
				"z": -0.5755743874,
				"element": "C" 
			},
			{
				"x": -0.0900468189,
				"y": -3.4182290237,
				"z": 0.5739361458,
				"element": "O" 
			},
			{
				"x": -0.4326254518,
				"y": -2.0876294708,
				"z": 0.5528232475,
				"element": "C" 
			},
			{
				"x": 0.5397866317,
				"y": -1.0677126029,
				"z": 0.6714356471,
				"element": "C" 
			},
			{
				"x": 1.8398636456,
				"y": -1.478496637,
				"z": 0.767413464,
				"element": "O" 
			},
			{
				"x": 2.8530618261,
				"y": -0.4887867237,
				"z": 0.9465985935,
				"element": "C" 
			},
			{
				"x": 4.1860569133,
				"y": -1.2099553956,
				"z": 1.044522891,
				"element": "C" 
			},
			{
				"x": 0.12583124,
				"y": 0.2634651917,
				"z": 0.6972341356,
				"element": "C" 
			},
			{
				"x": -1.2353388549,
				"y": 0.6081071782,
				"z": 0.6212447696,
				"element": "C" 
			},
			{
				"x": -1.6434653722,
				"y": 2.0843065877,
				"z": 0.6353661528,
				"element": "C" 
			},
			{
				"x": -1.329990547,
				"y": 2.7952969659,
				"z": -0.7025265538,
				"element": "C" 
			},
			{
				"x": 0.1051979226,
				"y": 3.2415558334,
				"z": -0.8591779797,
				"element": "C" 
			},
			{
				"x": 0.3688395849,
				"y": 3.6099637023,
				"z": -2.13529699,
				"element": "O" 
			},
			{
				"x": 0.9424729951,
				"y": 3.3180577544,
				"z": 0.0173050843,
				"element": "O" 
			},
			{
				"x": -3.0627288437,
				"y": 2.3062403603,
				"z": 0.9579614404,
				"element": "N" 
			},
			{
				"x": -3.954029549,
				"y": 1.3989789142,
				"z": 0.2267087808,
				"element": "C" 
			},
			{
				"x": -3.6848932056,
				"y": -0.0809646934,
				"z": 0.5276882134,
				"element": "C" 
			},
			{
				"x": -2.2018643509,
				"y": -0.4022153369,
				"z": 0.5310386601,
				"element": "C" 
			},
			{
				"x": -1.7748342989,
				"y": -1.7382951746,
				"z": 0.4904919173,
				"element": "C" 
			},
			{
				"x": 1.4151728346,
				"y": -5.8096184033,
				"z": -1.211827607,
				"element": "H" 
			},
			{
				"x": -0.0542096736,
				"y": -5.9324207177,
				"z": -0.220558366,
				"element": "H" 
			},
			{
				"x": 1.496660001,
				"y": -5.5345828204,
				"z": 0.5412034021,
				"element": "H" 
			},
			{
				"x": 1.5567427324,
				"y": -3.3550432592,
				"z": -0.6996811622,
				"element": "H" 
			},
			{
				"x": 0.0052293351,
				"y": -3.7500376209,
				"z": -1.4742405639,
				"element": "H" 
			},
			{
				"x": 2.6513093598,
				"y": 0.0883263729,
				"z": 1.8595382369,
				"element": "H" 
			},
			{
				"x": 2.8467730676,
				"y": 0.2141901953,
				"z": 0.1018795376,
				"element": "H" 
			},
			{
				"x": 4.3912281067,
				"y": -1.7725736748,
				"z": 0.1291208529,
				"element": "H" 
			},
			{
				"x": 4.9936638797,
				"y": -0.4868110409,
				"z": 1.1945255147,
				"element": "H" 
			},
			{
				"x": 4.1848714453,
				"y": -1.9092449692,
				"z": 1.885253573,
				"element": "H" 
			},
			{
				"x": 0.8531106375,
				"y": 1.0597248891,
				"z": 0.795659457,
				"element": "H" 
			},
			{
				"x": -1.0578819772,
				"y": 2.6013129037,
				"z": 1.4031785445,
				"element": "H" 
			},
			{
				"x": -1.5971691647,
				"y": 2.1854829974,
				"z": -1.5707332914,
				"element": "H" 
			},
			{
				"x": -1.9473634242,
				"y": 3.7014708281,
				"z": -0.7540316394,
				"element": "H" 
			},
			{
				"x": 1.2891723123,
				"y": 3.9231010488,
				"z": -2.1408765183,
				"element": "H" 
			},
			{
				"x": -3.1926251769,
				"y": 2.1512939067,
				"z": 1.9558037165,
				"element": "H" 
			},
			{
				"x": -4.990432484,
				"y": 1.659186143,
				"z": 0.4679266713,
				"element": "H" 
			},
			{
				"x": -3.8264738979,
				"y": 1.5917863646,
				"z": -0.8454657556,
				"element": "H" 
			},
			{
				"x": -4.2116247736,
				"y": -0.7194418578,
				"z": -0.193227776,
				"element": "H" 
			},
			{
				"x": -4.108306401,
				"y": -0.3294077114,
				"z": 1.5129281694,
				"element": "H" 
			},
			{
				"x": -2.4995254523,
				"y": -2.5454365276,
				"z": 0.4213068977,
				"element": "H" 
			}
		],
		 "valence_orbital": [ 
			{
				"type": "occ",
				"energy": -0.27976,
				"method": "rhf"
			},
			{
				"type": "occ",
				"energy": -0.26237,
				"method": "rhf"
			},
			{
				"type": "occ",
				"energy": -0.2283,
				"method": "rhf"
			},
			{
				"type": "occ",
				"energy": -0.22345,
				"method": "rhf"
			},
			{
				"type": "occ",
				"energy": -0.2009,
				"method": "rhf"
			},
			{
				"type": "unocc",
				"energy": 0.00019,
				"method": "rhf"
			},
			{
				"type": "unocc",
				"energy": 0.01292,
				"method": "rhf"
			},
			{
				"type": "unocc",
				"energy": 0.0183,
				"method": "rhf"
			},
			{
				"type": "unocc",
				"energy": 0.07493,
				"method": "rhf"
			},
			{
				"type": "unocc",
				"energy": 0.08952,
				"method": "rhf"
			}
		],
		"cosmo_sigma_profile": { 
			"-0.025": 0.0,
			"-0.024": 0.0,
			"-0.023": 0.0,
			"-0.022": 0.0,
			"-0.021": 0.0,
			"-0.02": 0.0,
			"-0.019": 0.0,
			"-0.018": 0.513907188979,
			"-0.017": 1.12673186253,
			"-0.016": 0.838260055183,
			"-0.015": 0.698226357322,
			"-0.014": 0.42128148107,
			"-0.013": 0.755330032338,
			"-0.012": 0.661682278186,
			"-0.011": 1.28160613063,
			"-0.01": 1.53439183402,
			"-0.009": 1.9551723441,
			"-0.008": 1.92293407183,
			"-0.007": 2.35101676999,
			"-0.006": 5.54644825033,
			"-0.005": 11.8352501077,
			"-0.004": 28.3129048356,
			"-0.003": 42.7400762129,
			"-0.002": 42.1662500395,
			"-0.001": 37.2231945992,
			"0.0": 32.4822011606,
			"0.001": 20.6262415989,
			"0.002": 13.378390162,
			"0.003": 13.098695041,
			"0.004": 12.1815050719,
			"0.005": 13.4125303377,
			"0.006": 10.3478299885,
			"0.007": 5.24451977952,
			"0.008": 5.66695880885,
			"0.009": 5.78858705745,
			"0.01": 5.22950267762,
			"0.011": 5.65320824876,
			"0.012": 4.84312966652,
			"0.013": 0.840475456732,
			"0.014": 0.307003166284,
			"0.015": 0.54351982354,
			"0.016": 0.609030534164,
			"0.017": 0.248189534296,
			"0.018": 0.0,
			"0.019": 0.0,
			"0.02": 0.0,
			"0.021": 0.0,
			"0.022": 0.0,
			"0.023": 0.0,
			"0.024": 0.0,
			"0.025": 0.0
		}
	}
}
