{
	 "smiles": "CC(=O)NC(=O)CCl", 
	 "Tm": 387.15, 
	 "num_atms": 14, 
	 "gaussian": { 
		 "optdone": 1, 
		 "sigma_profile": "yes", 
		 "theory": "DFT", 
		 "functional": "B3LYP", 
		 "basiset": "6-31G**", 
		 "properties": { 
			 "R2extent": 2582.0851, 
			 "electric_dipole_moment_norm": 3.44587678247, 
			 "electric_quadrupole_moment_norm": 9.69486707232, 
			 "total_energy": -821.455489517, 
			 "HOMO_LUMO_gap": 0.22174, 
			 "cosmo_polarized_energy": -13.2, 
			 "cosmo_cavitation_energy": 20.3, 
			 "cosmo_dispersion_energy": -14.85, 
			 "cosmo_repulsion_energy": 1.27, 
			 "cosmo_total_nonelectrostatic_energy": 6.72, 
			 "SMD_solvation_energy": 5.01 
		},
		"coords": [
			{
				"x": -0.3117915652,
				"y": -0.7385383752,
				"z": -0.9068567964,
				"element": "C" 
			},
			{
				"x": -0.7598506182,
				"y": -0.390008454,
				"z": 0.4999276537,
				"element": "C" 
			},
			{
				"x": -1.920643265,
				"y": -0.192877419,
				"z": 0.8018859761,
				"element": "O" 
			},
			{
				"x": 0.2980849426,
				"y": -0.3159956743,
				"z": 1.415294723,
				"element": "N" 
			},
			{
				"x": 0.2948795858,
				"y": -0.0531097157,
				"z": 2.790263341,
				"element": "C" 
			},
			{
				"x": 1.3506190638,
				"y": 0.1370758741,
				"z": 3.3621526161,
				"element": "O" 
			},
			{
				"x": -1.0328691596,
				"y": -0.0464383354,
				"z": 3.5291659106,
				"element": "C" 
			},
			{
				"x": -1.5838634716,
				"y": -1.750748481,
				"z": 3.8112609664,
				"element": "Cl" 
			},
			{
				"x": 0.4389467946,
				"y": -0.0284345011,
				"z": -1.2702389995,
				"element": "H" 
			},
			{
				"x": -1.1801184833,
				"y": -0.7160823129,
				"z": -1.5641632084,
				"element": "H" 
			},
			{
				"x": 0.1339810882,
				"y": -1.7388722346,
				"z": -0.9289006953,
				"element": "H" 
			},
			{
				"x": 1.2411857341,
				"y": -0.3945897639,
				"z": 1.0525385031,
				"element": "H" 
			},
			{
				"x": -0.8645472861,
				"y": 0.4063287557,
				"z": 4.5040868565,
				"element": "H" 
			},
			{
				"x": -1.8198133601,
				"y": 0.4462906372,
				"z": 2.9633831529,
				"element": "H" 
			}
		],
		 "valence_orbital": [ 
			{
				"type": "occ",
				"energy": -0.3199,
				"method": "rhf"
			},
			{
				"type": "occ",
				"energy": -0.30302,
				"method": "rhf"
			},
			{
				"type": "occ",
				"energy": -0.29959,
				"method": "rhf"
			},
			{
				"type": "occ",
				"energy": -0.28565,
				"method": "rhf"
			},
			{
				"type": "occ",
				"energy": -0.27506,
				"method": "rhf"
			},
			{
				"type": "unocc",
				"energy": -0.05332,
				"method": "rhf"
			},
			{
				"type": "unocc",
				"energy": 0.00172,
				"method": "rhf"
			},
			{
				"type": "unocc",
				"energy": 0.05846,
				"method": "rhf"
			},
			{
				"type": "unocc",
				"energy": 0.06497,
				"method": "rhf"
			},
			{
				"type": "unocc",
				"energy": 0.11416,
				"method": "rhf"
			}
		],
		"cosmo_sigma_profile": { 
			"-0.025": 0.0,
			"-0.024": 0.0,
			"-0.023": 0.0,
			"-0.022": 0.0,
			"-0.021": 0.0,
			"-0.02": 0.0,
			"-0.019": 0.0,
			"-0.018": 0.0,
			"-0.017": 0.0589073961599,
			"-0.016": 0.558197316636,
			"-0.015": 1.32659049209,
			"-0.014": 0.778844020853,
			"-0.013": 0.970372724578,
			"-0.012": 1.57334506694,
			"-0.011": 1.24788633476,
			"-0.01": 1.35545218784,
			"-0.009": 1.81570439059,
			"-0.008": 4.75453724077,
			"-0.007": 9.58402773685,
			"-0.006": 11.2475249355,
			"-0.005": 9.43614424292,
			"-0.004": 9.52518125625,
			"-0.003": 9.63264144784,
			"-0.002": 11.4125850814,
			"-0.001": 8.38364952988,
			"0.0": 6.94688621578,
			"0.001": 7.63920383869,
			"0.002": 5.57618397528,
			"0.003": 6.37330441476,
			"0.004": 9.15921132181,
			"0.005": 9.86194857249,
			"0.006": 6.34743559827,
			"0.007": 3.38272761791,
			"0.008": 4.16020378028,
			"0.009": 3.71629418471,
			"0.01": 4.70684480344,
			"0.011": 7.26934410616,
			"0.012": 3.85562072661,
			"0.013": 0.508170195967,
			"0.014": 0.0,
			"0.015": 0.0,
			"0.016": 0.0,
			"0.017": 0.0,
			"0.018": 0.0,
			"0.019": 0.0,
			"0.02": 0.0,
			"0.021": 0.0,
			"0.022": 0.0,
			"0.023": 0.0,
			"0.024": 0.0,
			"0.025": 0.0
		}
	}
}
