{
	 "smiles": "CC(C)N(CCC(O)=O)C(=O)OC(C)(C)C", 
	 "Tm": 339.15, 
	 "num_atms": 37, 
	 "gaussian": { 
		 "optdone": 1, 
		 "sigma_profile": "yes", 
		 "theory": "DFT", 
		 "functional": "B3LYP", 
		 "basiset": "6-31G**", 
		 "properties": { 
			 "R2extent": 5271.4926, 
			 "electric_dipole_moment_norm": 3.63583177004, 
			 "electric_quadrupole_moment_norm": 18.7221534432, 
			 "total_energy": -787.53405872, 
			 "HOMO_LUMO_gap": 0.24392, 
			 "cosmo_polarized_energy": -13.92, 
			 "cosmo_cavitation_energy": 38.68, 
			 "cosmo_dispersion_energy": -25.26, 
			 "cosmo_repulsion_energy": 2.0, 
			 "cosmo_total_nonelectrostatic_energy": 15.42, 
			 "SMD_solvation_energy": 8.83 
		},
		"coords": [
			{
				"x": 1.4269583975,
				"y": -1.3761976033,
				"z": 0.5499107286,
				"element": "C" 
			},
			{
				"x": 0.9505798789,
				"y": -1.4293132864,
				"z": -0.9093620379,
				"element": "C" 
			},
			{
				"x": 2.0738322422,
				"y": -1.118274789,
				"z": -1.9093643184,
				"element": "C" 
			},
			{
				"x": -0.2693269698,
				"y": -0.6251909722,
				"z": -1.162524785,
				"element": "N" 
			},
			{
				"x": -1.4715507019,
				"y": -1.3189776243,
				"z": -1.6250494276,
				"element": "C" 
			},
			{
				"x": -2.3582409904,
				"y": -1.8071609714,
				"z": -0.4609041069,
				"element": "C" 
			},
			{
				"x": -3.5849759989,
				"y": -2.5681787193,
				"z": -0.912569847,
				"element": "C" 
			},
			{
				"x": -3.2709937272,
				"y": -3.5461860413,
				"z": -1.804492182,
				"element": "O" 
			},
			{
				"x": -4.7203954784,
				"y": -2.3747819762,
				"z": -0.5418866699,
				"element": "O" 
			},
			{
				"x": -0.392793745,
				"y": 0.7298670553,
				"z": -0.97051635,
				"element": "C" 
			},
			{
				"x": -1.4456086512,
				"y": 1.3345750431,
				"z": -1.1312074252,
				"element": "O" 
			},
			{
				"x": 0.7805522174,
				"y": 1.2986376585,
				"z": -0.5963836163,
				"element": "O" 
			},
			{
				"x": 0.8604452443,
				"y": 2.745787321,
				"z": -0.3287784361,
				"element": "C" 
			},
			{
				"x": -0.0599976791,
				"y": 3.1195806148,
				"z": 0.8381726951,
				"element": "C" 
			},
			{
				"x": 2.329270166,
				"y": 2.9338252791,
				"z": 0.0615749666,
				"element": "C" 
			},
			{
				"x": 0.5361379771,
				"y": 3.5349434948,
				"z": -1.6018914989,
				"element": "C" 
			},
			{
				"x": 2.2281757356,
				"y": -2.1070953811,
				"z": 0.7020818176,
				"element": "H" 
			},
			{
				"x": 1.8090851403,
				"y": -0.3876150831,
				"z": 0.8075815105,
				"element": "H" 
			},
			{
				"x": 0.6100280292,
				"y": -1.6211154262,
				"z": 1.2359238714,
				"element": "H" 
			},
			{
				"x": 0.6265677208,
				"y": -2.4588360719,
				"z": -1.097345104,
				"element": "H" 
			},
			{
				"x": 2.4506977872,
				"y": -0.103532509,
				"z": -1.7696263551,
				"element": "H" 
			},
			{
				"x": 1.7134349178,
				"y": -1.2160549441,
				"z": -2.9381761062,
				"element": "H" 
			},
			{
				"x": 2.9041842795,
				"y": -1.8189443769,
				"z": -1.7713794661,
				"element": "H" 
			},
			{
				"x": -1.1672119864,
				"y": -2.1666323058,
				"z": -2.2437204251,
				"element": "H" 
			},
			{
				"x": -2.0428851786,
				"y": -0.6290710945,
				"z": -2.2480327059,
				"element": "H" 
			},
			{
				"x": -1.7755872696,
				"y": -2.4758485102,
				"z": 0.1857642899,
				"element": "H" 
			},
			{
				"x": -2.6944409621,
				"y": -0.957754797,
				"z": 0.13536784,
				"element": "H" 
			},
			{
				"x": -4.1113489836,
				"y": -3.9788082161,
				"z": -2.0317526469,
				"element": "H" 
			},
			{
				"x": -1.10693073,
				"y": 2.974479593,
				"z": 0.5725365695,
				"element": "H" 
			},
			{
				"x": 0.1726750383,
				"y": 2.5088417281,
				"z": 1.7164894544,
				"element": "H" 
			},
			{
				"x": 0.0962639222,
				"y": 4.1698362639,
				"z": 1.1054171275,
				"element": "H" 
			},
			{
				"x": 2.9907308501,
				"y": 2.6252162757,
				"z": -0.7533536736,
				"element": "H" 
			},
			{
				"x": 2.5248296275,
				"y": 3.9871573928,
				"z": 0.28347101,
				"element": "H" 
			},
			{
				"x": 2.5753339753,
				"y": 2.3440785121,
				"z": 0.9496278608,
				"element": "H" 
			},
			{
				"x": 0.7127260115,
				"y": 4.6012946925,
				"z": -1.4267580293,
				"element": "H" 
			},
			{
				"x": 1.1854892067,
				"y": 3.2144362978,
				"z": -2.4229410235,
				"element": "H" 
			},
			{
				"x": -0.5035093132,
				"y": 3.3916134767,
				"z": -1.8955035052,
				"element": "H" 
			}
		],
		 "valence_orbital": [ 
			{
				"type": "occ",
				"energy": -0.31804,
				"method": "rhf"
			},
			{
				"type": "occ",
				"energy": -0.28644,
				"method": "rhf"
			},
			{
				"type": "occ",
				"energy": -0.27537,
				"method": "rhf"
			},
			{
				"type": "occ",
				"energy": -0.26036,
				"method": "rhf"
			},
			{
				"type": "occ",
				"energy": -0.23669,
				"method": "rhf"
			},
			{
				"type": "unocc",
				"energy": 0.00723,
				"method": "rhf"
			},
			{
				"type": "unocc",
				"energy": 0.05197,
				"method": "rhf"
			},
			{
				"type": "unocc",
				"energy": 0.07036,
				"method": "rhf"
			},
			{
				"type": "unocc",
				"energy": 0.0772,
				"method": "rhf"
			},
			{
				"type": "unocc",
				"energy": 0.08452,
				"method": "rhf"
			}
		],
		"cosmo_sigma_profile": { 
			"-0.025": 0.0,
			"-0.024": 0.0,
			"-0.023": 0.0,
			"-0.022": 0.0,
			"-0.021": 0.0,
			"-0.02": 0.0,
			"-0.019": 0.000985844697332,
			"-0.018": 0.698263567856,
			"-0.017": 0.912688070022,
			"-0.016": 1.10431633528,
			"-0.015": 0.632105209996,
			"-0.014": 0.483414001162,
			"-0.013": 0.646976674769,
			"-0.012": 0.554946268507,
			"-0.011": 0.896112012496,
			"-0.01": 0.801020495779,
			"-0.009": 0.294242666491,
			"-0.008": 0.456344931584,
			"-0.007": 1.95700855278,
			"-0.006": 7.57371056818,
			"-0.005": 9.57220172766,
			"-0.004": 20.2403378683,
			"-0.003": 34.7738892176,
			"-0.002": 32.5263493264,
			"-0.001": 34.103739643,
			"0.0": 40.5567892918,
			"0.001": 39.948137622,
			"0.002": 17.0878853167,
			"0.003": 8.24323309566,
			"0.004": 5.53105831052,
			"0.005": 4.92512819973,
			"0.006": 4.37673710271,
			"0.007": 3.98200898259,
			"0.008": 4.27745023432,
			"0.009": 4.28270419532,
			"0.01": 3.09340836936,
			"0.011": 4.93180240054,
			"0.012": 6.50215454674,
			"0.013": 2.9809003657,
			"0.014": 1.12240133258,
			"0.015": 0.0,
			"0.016": 0.0,
			"0.017": 0.0,
			"0.018": 0.0,
			"0.019": 0.0,
			"0.02": 0.0,
			"0.021": 0.0,
			"0.022": 0.0,
			"0.023": 0.0,
			"0.024": 0.0,
			"0.025": 0.0
		}
	}
}
