{
	 "smiles": "CC1=CC(NS(=O)(=O)C2=CC=C(N)C=C2)=NC(C)=N1", 
	 "Tm": 516.15, 
	 "num_atms": 33, 
	 "gaussian": { 
		 "optdone": 1, 
		 "sigma_profile": "yes", 
		 "theory": "DFT", 
		 "functional": "B3LYP", 
		 "basiset": "6-31G**", 
		 "properties": { 
			 "R2extent": 6575.1564, 
			 "electric_dipole_moment_norm": 6.91887635747, 
			 "electric_quadrupole_moment_norm": 29.1548099388, 
			 "total_energy": -1233.31532046, 
			 "HOMO_LUMO_gap": 0.19152, 
			 "cosmo_polarized_energy": -21.41, 
			 "cosmo_cavitation_energy": 38.8, 
			 "cosmo_dispersion_energy": -27.67, 
			 "cosmo_repulsion_energy": 2.14, 
			 "cosmo_total_nonelectrostatic_energy": 13.26, 
			 "SMD_solvation_energy": 3.26 
		},
		"coords": [
			{
				"x": -1.063422084,
				"y": -2.7970953443,
				"z": 2.125289762,
				"element": "C" 
			},
			{
				"x": 0.0322133587,
				"y": -1.8422307779,
				"z": 1.7329328194,
				"element": "C" 
			},
			{
				"x": -0.1072748418,
				"y": -0.4663702008,
				"z": 1.8874113128,
				"element": "C" 
			},
			{
				"x": 0.9816500063,
				"y": 0.3162146731,
				"z": 1.4781873796,
				"element": "C" 
			},
			{
				"x": 1.0180738069,
				"y": 1.7103142926,
				"z": 1.585814838,
				"element": "N" 
			},
			{
				"x": -0.2941423853,
				"y": 2.788796711,
				"z": 1.4419011773,
				"element": "S" 
			},
			{
				"x": 0.3365777439,
				"y": 4.0970298533,
				"z": 1.6073423915,
				"element": "O" 
			},
			{
				"x": -1.3473610702,
				"y": 2.3019780198,
				"z": 2.3327354663,
				"element": "O" 
			},
			{
				"x": -0.8778552954,
				"y": 2.6501802268,
				"z": -0.2325246541,
				"element": "C" 
			},
			{
				"x": -1.9339960107,
				"y": 1.7856306485,
				"z": -0.5401707575,
				"element": "C" 
			},
			{
				"x": -2.3646007193,
				"y": 1.6633575409,
				"z": -1.8539527862,
				"element": "C" 
			},
			{
				"x": -1.7498013122,
				"y": 2.4035645832,
				"z": -2.8841309935,
				"element": "C" 
			},
			{
				"x": -2.2093384092,
				"y": 2.3172425117,
				"z": -4.1835817043,
				"element": "N" 
			},
			{
				"x": -0.6938803419,
				"y": 3.2787244832,
				"z": -2.5532727781,
				"element": "C" 
			},
			{
				"x": -0.26209658,
				"y": 3.4009105485,
				"z": -1.2412141647,
				"element": "C" 
			},
			{
				"x": 2.1033712069,
				"y": -0.2198607049,
				"z": 0.9861888875,
				"element": "N" 
			},
			{
				"x": 2.1434797655,
				"y": -1.5597377588,
				"z": 0.8995134365,
				"element": "C" 
			},
			{
				"x": 3.4191255112,
				"y": -2.1601817916,
				"z": 0.3711500081,
				"element": "C" 
			},
			{
				"x": 1.1569512228,
				"y": -2.3962841373,
				"z": 1.2354777577,
				"element": "N" 
			},
			{
				"x": -0.6945097893,
				"y": -3.5006961885,
				"z": 2.8784467488,
				"element": "H" 
			},
			{
				"x": -1.3693930415,
				"y": -3.3923481882,
				"z": 1.2586362356,
				"element": "H" 
			},
			{
				"x": -1.9361169722,
				"y": -2.2752083716,
				"z": 2.5247949821,
				"element": "H" 
			},
			{
				"x": -0.9905448047,
				"y": -0.0195246851,
				"z": 2.3234435909,
				"element": "H" 
			},
			{
				"x": 1.8851560673,
				"y": 2.109438212,
				"z": 1.237678709,
				"element": "H" 
			},
			{
				"x": -2.4230939632,
				"y": 1.2295490523,
				"z": 0.2512453783,
				"element": "H" 
			},
			{
				"x": -3.1918457839,
				"y": 1.0001051456,
				"z": -2.0916676202,
				"element": "H" 
			},
			{
				"x": -2.7549626064,
				"y": 1.5048141317,
				"z": -4.4288117129,
				"element": "H" 
			},
			{
				"x": -1.5902964566,
				"y": 2.631680472,
				"z": -4.9155579884,
				"element": "H" 
			},
			{
				"x": -0.2241156391,
				"y": 3.8703119052,
				"z": -3.3343641076,
				"element": "H" 
			},
			{
				"x": 0.5374502924,
				"y": 4.0896844797,
				"z": -0.9898034518,
				"element": "H" 
			},
			{
				"x": 4.2476876194,
				"y": -1.9479059787,
				"z": 1.0555407554,
				"element": "H" 
			},
			{
				"x": 3.6800965426,
				"y": -1.7149101694,
				"z": -0.5938699027,
				"element": "H" 
			},
			{
				"x": 3.3105149629,
				"y": -3.2396731939,
				"z": 0.2628909851,
				"element": "H" 
			}
		],
		 "valence_orbital": [ 
			{
				"type": "occ",
				"energy": -0.27913,
				"method": "rhf"
			},
			{
				"type": "occ",
				"energy": -0.27371,
				"method": "rhf"
			},
			{
				"type": "occ",
				"energy": -0.25197,
				"method": "rhf"
			},
			{
				"type": "occ",
				"energy": -0.24779,
				"method": "rhf"
			},
			{
				"type": "occ",
				"energy": -0.22666,
				"method": "rhf"
			},
			{
				"type": "unocc",
				"energy": -0.03514,
				"method": "rhf"
			},
			{
				"type": "unocc",
				"energy": -0.02618,
				"method": "rhf"
			},
			{
				"type": "unocc",
				"energy": -0.01824,
				"method": "rhf"
			},
			{
				"type": "unocc",
				"energy": -0.01124,
				"method": "rhf"
			},
			{
				"type": "unocc",
				"energy": 0.0545,
				"method": "rhf"
			}
		],
		"cosmo_sigma_profile": { 
			"-0.025": 0.0,
			"-0.024": 0.0,
			"-0.023": 0.0,
			"-0.022": 0.0,
			"-0.021": 0.0,
			"-0.02": 0.0,
			"-0.019": 0.0,
			"-0.018": 0.0,
			"-0.017": 0.0,
			"-0.016": 0.0,
			"-0.015": 0.470800822933,
			"-0.014": 1.36727678226,
			"-0.013": 3.71150620901,
			"-0.012": 3.62646197804,
			"-0.011": 3.75650743737,
			"-0.01": 3.66301065535,
			"-0.009": 5.77262236797,
			"-0.008": 4.71559414314,
			"-0.007": 6.13130931319,
			"-0.006": 12.0988177603,
			"-0.005": 19.4128579958,
			"-0.004": 17.1900058283,
			"-0.003": 18.6410032057,
			"-0.002": 19.2421271352,
			"-0.001": 29.7594155186,
			"0.0": 26.4321922525,
			"0.001": 19.9110354967,
			"0.002": 16.2341020182,
			"0.003": 18.4176617936,
			"0.004": 20.0688376294,
			"0.005": 7.78131090757,
			"0.006": 6.93011726077,
			"0.007": 5.57379150366,
			"0.008": 5.68592564017,
			"0.009": 6.62304253259,
			"0.01": 10.1178601986,
			"0.011": 10.0820682992,
			"0.012": 2.3521034363,
			"0.013": 1.33124010093,
			"0.014": 0.907005695402,
			"0.015": 0.638235069015,
			"0.016": 0.168899606248,
			"0.017": 0.0,
			"0.018": 0.0,
			"0.019": 0.0,
			"0.02": 0.0,
			"0.021": 0.0,
			"0.022": 0.0,
			"0.023": 0.0,
			"0.024": 0.0,
			"0.025": 0.0
		}
	}
}
