{
	 "smiles": "CC1=C(C=C(C(C=CC2=CC=CC=C2N)=C1)[N+]([O-])=O)[N+]([O-])=O", 
	 "Tm": 448.15, 
	 "num_atms": 35, 
	 "gaussian": { 
		 "optdone": 1, 
		 "sigma_profile": "yes", 
		 "theory": "DFT", 
		 "functional": "B3LYP", 
		 "basiset": "6-31G**", 
		 "properties": { 
			 "R2extent": 10057.0765, 
			 "electric_dipole_moment_norm": 5.39039859565, 
			 "electric_quadrupole_moment_norm": 20.8450922711, 
			 "total_energy": -1044.37104927, 
			 "HOMO_LUMO_gap": 0.10025, 
			 "cosmo_polarized_energy": -16.11, 
			 "cosmo_cavitation_energy": 40.35, 
			 "cosmo_dispersion_energy": -28.62, 
			 "cosmo_repulsion_energy": 2.14, 
			 "cosmo_total_nonelectrostatic_energy": 13.87, 
			 "SMD_solvation_energy": 10.68 
		},
		"coords": [
			{
				"x": -5.1404987526,
				"y": -0.9634286321,
				"z": 0.7590938676,
				"element": "C" 
			},
			{
				"x": -4.0914560101,
				"y": 0.0583613071,
				"z": 0.40052203,
				"element": "C" 
			},
			{
				"x": -4.3410966128,
				"y": 1.3203954384,
				"z": -0.1818725177,
				"element": "C" 
			},
			{
				"x": -3.3040188362,
				"y": 2.2078743072,
				"z": -0.4594469295,
				"element": "C" 
			},
			{
				"x": -1.9956903337,
				"y": 1.8649997953,
				"z": -0.1616475042,
				"element": "C" 
			},
			{
				"x": -1.6578116282,
				"y": 0.5965392189,
				"z": 0.3697564882,
				"element": "C" 
			},
			{
				"x": -0.3171985869,
				"y": 0.0722813013,
				"z": 0.6235147573,
				"element": "C" 
			},
			{
				"x": 0.8164486527,
				"y": 0.4296333613,
				"z": -0.0159615794,
				"element": "C" 
			},
			{
				"x": 2.1534348597,
				"y": -0.1052977601,
				"z": 0.2118728005,
				"element": "C" 
			},
			{
				"x": 2.3789920819,
				"y": -1.4269369695,
				"z": 0.6382913743,
				"element": "C" 
			},
			{
				"x": 3.6626242864,
				"y": -1.9321082768,
				"z": 0.7995737904,
				"element": "C" 
			},
			{
				"x": 4.758869884,
				"y": -1.1043455046,
				"z": 0.5277685315,
				"element": "C" 
			},
			{
				"x": 4.5683920468,
				"y": 0.210316259,
				"z": 0.119654284,
				"element": "C" 
			},
			{
				"x": 3.2738165795,
				"y": 0.7373974079,
				"z": -0.0350837778,
				"element": "C" 
			},
			{
				"x": 3.0912807595,
				"y": 2.0507825186,
				"z": -0.4491745971,
				"element": "N" 
			},
			{
				"x": -2.7502469365,
				"y": -0.2479568284,
				"z": 0.6481958883,
				"element": "C" 
			},
			{
				"x": -1.0072197103,
				"y": 2.9396858996,
				"z": -0.3782882807,
				"element": "N" 
			},
			{
				"x": -1.1288294463,
				"y": 3.6158375321,
				"z": -1.3965892394,
				"element": "O" 
			},
			{
				"x": -0.1506566724,
				"y": 3.1214201363,
				"z": 0.4883735271,
				"element": "O" 
			},
			{
				"x": -5.6938366808,
				"y": 1.784590976,
				"z": -0.5203880408,
				"element": "N" 
			},
			{
				"x": -6.6363885745,
				"y": 1.0100160259,
				"z": -0.3475110722,
				"element": "O" 
			},
			{
				"x": -5.8117058867,
				"y": 2.9274134228,
				"z": -0.9633371196,
				"element": "O" 
			},
			{
				"x": -5.6907259404,
				"y": -1.2960302672,
				"z": -0.1244548191,
				"element": "H" 
			},
			{
				"x": -4.6674079283,
				"y": -1.8278559512,
				"z": 1.2311894176,
				"element": "H" 
			},
			{
				"x": -5.8866434789,
				"y": -0.5478912722,
				"z": 1.4403891778,
				"element": "H" 
			},
			{
				"x": -3.5321350348,
				"y": 3.1743372129,
				"z": -0.8878381991,
				"element": "H" 
			},
			{
				"x": -0.2738431082,
				"y": -0.709554584,
				"z": 1.3789124107,
				"element": "H" 
			},
			{
				"x": 0.7644643216,
				"y": 1.1948394692,
				"z": -0.7854197215,
				"element": "H" 
			},
			{
				"x": 1.5212489921,
				"y": -2.0727514283,
				"z": 0.8029342151,
				"element": "H" 
			},
			{
				"x": 3.8124190474,
				"y": -2.960041179,
				"z": 1.1133028735,
				"element": "H" 
			},
			{
				"x": 5.7698619804,
				"y": -1.4856167187,
				"z": 0.6403861153,
				"element": "H" 
			},
			{
				"x": 5.4257819792,
				"y": 0.8510526662,
				"z": -0.0716511255,
				"element": "H" 
			},
			{
				"x": 2.28457537,
				"y": 2.5443744862,
				"z": -0.0907095313,
				"element": "H" 
			},
			{
				"x": 3.9229649628,
				"y": 2.6234400541,
				"z": -0.4558768849,
				"element": "H" 
			},
			{
				"x": -2.5268656452,
				"y": -1.224873424,
				"z": 1.0667193907,
				"element": "H" 
			}
		],
		 "valence_orbital": [ 
			{
				"type": "occ",
				"energy": -0.29365,
				"method": "rhf"
			},
			{
				"type": "occ",
				"energy": -0.28396,
				"method": "rhf"
			},
			{
				"type": "occ",
				"energy": -0.28101,
				"method": "rhf"
			},
			{
				"type": "occ",
				"energy": -0.23923,
				"method": "rhf"
			},
			{
				"type": "occ",
				"energy": -0.20852,
				"method": "rhf"
			},
			{
				"type": "unocc",
				"energy": -0.10827,
				"method": "rhf"
			},
			{
				"type": "unocc",
				"energy": -0.09211,
				"method": "rhf"
			},
			{
				"type": "unocc",
				"energy": -0.04646,
				"method": "rhf"
			},
			{
				"type": "unocc",
				"energy": -0.03035,
				"method": "rhf"
			},
			{
				"type": "unocc",
				"energy": -0.00314,
				"method": "rhf"
			}
		],
		"cosmo_sigma_profile": { 
			"-0.025": 0.0,
			"-0.024": 0.0,
			"-0.023": 0.0,
			"-0.022": 0.0,
			"-0.021": 0.0,
			"-0.02": 0.0,
			"-0.019": 0.0,
			"-0.018": 0.0,
			"-0.017": 0.0,
			"-0.016": 0.0,
			"-0.015": 0.0,
			"-0.014": 0.0,
			"-0.013": 0.760340266177,
			"-0.012": 1.29551687498,
			"-0.011": 1.61684867734,
			"-0.01": 2.30394055103,
			"-0.009": 2.47209785134,
			"-0.008": 7.45777986118,
			"-0.007": 11.6103479243,
			"-0.006": 15.3778799498,
			"-0.005": 20.8896040349,
			"-0.004": 23.3046268644,
			"-0.003": 24.9689725056,
			"-0.002": 27.327047826,
			"-0.001": 27.982518826,
			"0.0": 20.2961487005,
			"0.001": 14.9357711736,
			"0.002": 14.2747916075,
			"0.003": 15.3429632869,
			"0.004": 15.7240705168,
			"0.005": 16.6894997006,
			"0.006": 17.7972464374,
			"0.007": 15.5854106794,
			"0.008": 12.6025938633,
			"0.009": 7.09943616615,
			"0.01": 3.82314991248,
			"0.011": 0.553447878331,
			"0.012": 0.611649649703,
			"0.013": 0.204578612322,
			"0.014": 0.0,
			"0.015": 0.0,
			"0.016": 0.0,
			"0.017": 0.0,
			"0.018": 0.0,
			"0.019": 0.0,
			"0.02": 0.0,
			"0.021": 0.0,
			"0.022": 0.0,
			"0.023": 0.0,
			"0.024": 0.0,
			"0.025": 0.0
		}
	}
}
