{
	 "smiles": "CC1=CC=C(C(=C1)[N+]([O-])=O)[N+]([O-])=O", 
	 "Tm": 330.25, 
	 "num_atms": 19, 
	 "gaussian": { 
		 "optdone": 1, 
		 "sigma_profile": "yes", 
		 "theory": "DFT", 
		 "functional": "B3LYP", 
		 "basiset": "6-31G**", 
		 "properties": { 
			 "R2extent": 2404.2957, 
			 "electric_dipole_moment_norm": 7.28340335283, 
			 "electric_quadrupole_moment_norm": 5.15784343113, 
			 "total_energy": -680.544710049, 
			 "HOMO_LUMO_gap": 0.1767, 
			 "cosmo_polarized_energy": -13.26, 
			 "cosmo_cavitation_energy": 25.04, 
			 "cosmo_dispersion_energy": -17.89, 
			 "cosmo_repulsion_energy": 1.42, 
			 "cosmo_total_nonelectrostatic_energy": 8.57, 
			 "SMD_solvation_energy": 9.08 
		},
		"coords": [
			{
				"x": -2.8400146239,
				"y": -1.2588639154,
				"z": 1.6169549022,
				"element": "C" 
			},
			{
				"x": -1.6617109535,
				"y": -0.8142147928,
				"z": 0.7871614787,
				"element": "C" 
			},
			{
				"x": -1.8260826488,
				"y": -0.3250477354,
				"z": -0.5139583501,
				"element": "C" 
			},
			{
				"x": -0.7332948553,
				"y": 0.0946477142,
				"z": -1.271704028,
				"element": "C" 
			},
			{
				"x": 0.546829111,
				"y": 0.0353104128,
				"z": -0.7338550431,
				"element": "C" 
			},
			{
				"x": 0.7252415435,
				"y": -0.4323532654,
				"z": 0.5725143334,
				"element": "C" 
			},
			{
				"x": -0.3643375758,
				"y": -0.8597417949,
				"z": 1.3187887905,
				"element": "C" 
			},
			{
				"x": 2.0302265768,
				"y": -0.3879307703,
				"z": 1.2597484516,
				"element": "N" 
			},
			{
				"x": 2.7134140664,
				"y": 0.6146825917,
				"z": 1.0899355139,
				"element": "O" 
			},
			{
				"x": 2.2991129595,
				"y": -1.3322343777,
				"z": 1.996860678,
				"element": "O" 
			},
			{
				"x": 1.6745825524,
				"y": 0.3594016966,
				"z": -1.6221614817,
				"element": "N" 
			},
			{
				"x": 1.4928963589,
				"y": 1.2548042169,
				"z": -2.4435100131,
				"element": "O" 
			},
			{
				"x": 2.6873006993,
				"y": -0.3229356162,
				"z": -1.5124078229,
				"element": "O" 
			},
			{
				"x": -3.0764704007,
				"y": -0.5155654921,
				"z": 2.387420415,
				"element": "H" 
			},
			{
				"x": -3.7323188068,
				"y": -1.3949745879,
				"z": 1.0012280992,
				"element": "H" 
			},
			{
				"x": -2.6301999545,
				"y": -2.2022692824,
				"z": 2.1301567997,
				"element": "H" 
			},
			{
				"x": -2.8198375782,
				"y": -0.2811608158,
				"z": -0.9493413599,
				"element": "H" 
			},
			{
				"x": -0.8524773078,
				"y": 0.4542448506,
				"z": -2.2868438664,
				"element": "H" 
			},
			{
				"x": -0.1864591626,
				"y": -1.2175990367,
				"z": 2.3270125029,
				"element": "H" 
			}
		],
		 "valence_orbital": [ 
			{
				"type": "occ",
				"energy": -0.31606,
				"method": "rhf"
			},
			{
				"type": "occ",
				"energy": -0.31443,
				"method": "rhf"
			},
			{
				"type": "occ",
				"energy": -0.31025,
				"method": "rhf"
			},
			{
				"type": "occ",
				"energy": -0.29255,
				"method": "rhf"
			},
			{
				"type": "occ",
				"energy": -0.28374,
				"method": "rhf"
			},
			{
				"type": "unocc",
				"energy": -0.10704,
				"method": "rhf"
			},
			{
				"type": "unocc",
				"energy": -0.08231,
				"method": "rhf"
			},
			{
				"type": "unocc",
				"energy": -0.04168,
				"method": "rhf"
			},
			{
				"type": "unocc",
				"energy": -0.02295,
				"method": "rhf"
			},
			{
				"type": "unocc",
				"energy": 0.05278,
				"method": "rhf"
			}
		],
		"cosmo_sigma_profile": { 
			"-0.025": 0.0,
			"-0.024": 0.0,
			"-0.023": 0.0,
			"-0.022": 0.0,
			"-0.021": 0.0,
			"-0.02": 0.0,
			"-0.019": 0.0,
			"-0.018": 0.0,
			"-0.017": 0.0,
			"-0.016": 0.0,
			"-0.015": 0.0,
			"-0.014": 0.0,
			"-0.013": 0.0,
			"-0.012": 0.0,
			"-0.011": 0.0,
			"-0.01": 0.0638754765452,
			"-0.009": 2.2335054426,
			"-0.008": 8.29798806405,
			"-0.007": 8.92774286463,
			"-0.006": 11.185901002,
			"-0.005": 12.6421280698,
			"-0.004": 11.3047743062,
			"-0.003": 15.5097509434,
			"-0.002": 21.1973125715,
			"-0.001": 19.1861974947,
			"0.0": 13.4513598287,
			"0.001": 6.15399584609,
			"0.002": 4.97434449627,
			"0.003": 4.85467062864,
			"0.004": 6.21134442414,
			"0.005": 6.43550491435,
			"0.006": 15.1860654616,
			"0.007": 18.1579000315,
			"0.008": 9.30620417588,
			"0.009": 5.08781296215,
			"0.01": 0.304560642226,
			"0.011": 0.0,
			"0.012": 0.0,
			"0.013": 0.0,
			"0.014": 0.0,
			"0.015": 0.0,
			"0.016": 0.0,
			"0.017": 0.0,
			"0.018": 0.0,
			"0.019": 0.0,
			"0.02": 0.0,
			"0.021": 0.0,
			"0.022": 0.0,
			"0.023": 0.0,
			"0.024": 0.0,
			"0.025": 0.0
		}
	}
}
