{
	 "smiles": "BrC1=C(NS(=O)(=O)N2CCCC2)C=CC=C1", 
	 "Tm": 343.15, 
	 "num_atms": 29, 
	 "gaussian": { 
		 "optdone": 1, 
		 "sigma_profile": "yes", 
		 "theory": "DFT", 
		 "functional": "B3LYP", 
		 "basiset": "6-31G**", 
		 "properties": { 
			 "R2extent": 6052.2155, 
			 "electric_dipole_moment_norm": 4.53128560676, 
			 "electric_quadrupole_moment_norm": 15.5357196315, 
			 "total_energy": -3618.36879233, 
			 "HOMO_LUMO_gap": 0.21414, 
			 "cosmo_polarized_energy": -12.39, 
			 "cosmo_cavitation_energy": 34.77, 
			 "cosmo_dispersion_energy": -25.55, 
			 "cosmo_repulsion_energy": 1.96, 
			 "cosmo_total_nonelectrostatic_energy": 11.18, 
			 "SMD_solvation_energy": 3.31 
		},
		"coords": [
			{
				"x": 2.7335187661,
				"y": -1.7871170686,
				"z": -2.1081679265,
				"element": "Br" 
			},
			{
				"x": 2.1455142541,
				"y": -0.1609576852,
				"z": -1.2776723933,
				"element": "C" 
			},
			{
				"x": 0.8723521398,
				"y": -0.095440406,
				"z": -0.6851758579,
				"element": "C" 
			},
			{
				"x": 0.0409684799,
				"y": -1.2334852696,
				"z": -0.6585777377,
				"element": "N" 
			},
			{
				"x": -1.6453434432,
				"y": -1.1917310671,
				"z": -0.7856638984,
				"element": "S" 
			},
			{
				"x": -1.9744305066,
				"y": -2.5637946477,
				"z": -1.1804627209,
				"element": "O" 
			},
			{
				"x": -2.1221633998,
				"y": -0.0539121717,
				"z": -1.5652852593,
				"element": "O" 
			},
			{
				"x": -2.0547733468,
				"y": -0.85858092,
				"z": 0.7992327418,
				"element": "N" 
			},
			{
				"x": -1.7481389577,
				"y": -1.896139019,
				"z": 1.8272381503,
				"element": "C" 
			},
			{
				"x": -2.9489355176,
				"y": -1.8362186228,
				"z": 2.7924159119,
				"element": "C" 
			},
			{
				"x": -3.5718433897,
				"y": -0.4535355239,
				"z": 2.5345575157,
				"element": "C" 
			},
			{
				"x": -3.40776579,
				"y": -0.2827807813,
				"z": 1.02311251,
				"element": "C" 
			},
			{
				"x": 0.4914455266,
				"y": 1.1140409205,
				"z": -0.0834951534,
				"element": "C" 
			},
			{
				"x": 1.3467671465,
				"y": 2.2114974451,
				"z": -0.0907837013,
				"element": "C" 
			},
			{
				"x": 2.6083478356,
				"y": 2.1278834747,
				"z": -0.6814765252,
				"element": "C" 
			},
			{
				"x": 3.0089537436,
				"y": 0.9312651515,
				"z": -1.2725924474,
				"element": "C" 
			},
			{
				"x": 0.3932759658,
				"y": -2.0334527124,
				"z": -1.1776323727,
				"element": "H" 
			},
			{
				"x": -0.8054686213,
				"y": -1.6346637322,
				"z": 2.3172447006,
				"element": "H" 
			},
			{
				"x": -1.6387570496,
				"y": -2.8839326063,
				"z": 1.370927662,
				"element": "H" 
			},
			{
				"x": -2.6484966724,
				"y": -1.9859863944,
				"z": 3.8326777356,
				"element": "H" 
			},
			{
				"x": -3.6700348596,
				"y": -2.6202851592,
				"z": 2.5381366472,
				"element": "H" 
			},
			{
				"x": -4.6181030806,
				"y": -0.3879930026,
				"z": 2.8447165789,
				"element": "H" 
			},
			{
				"x": -3.0108724019,
				"y": 0.3263289278,
				"z": 3.0613204616,
				"element": "H" 
			},
			{
				"x": -4.1851256936,
				"y": -0.8411648157,
				"z": 0.4837916648,
				"element": "H" 
			},
			{
				"x": -3.4306103612,
				"y": 0.75410954,
				"z": 0.6845542294,
				"element": "H" 
			},
			{
				"x": -0.479654104,
				"y": 1.1777272604,
				"z": 0.391283375,
				"element": "H" 
			},
			{
				"x": 1.0235752346,
				"y": 3.1369939328,
				"z": 0.3758879458,
				"element": "H" 
			},
			{
				"x": 3.2780057594,
				"y": 2.9817982607,
				"z": -0.684347425,
				"element": "H" 
			},
			{
				"x": 3.9841923437,
				"y": 0.8391266923,
				"z": -1.7368644116,
				"element": "H" 
			}
		],
		 "valence_orbital": [ 
			{
				"type": "occ",
				"energy": -0.3037,
				"method": "rhf"
			},
			{
				"type": "occ",
				"energy": -0.30018,
				"method": "rhf"
			},
			{
				"type": "occ",
				"energy": -0.25647,
				"method": "rhf"
			},
			{
				"type": "occ",
				"energy": -0.25301,
				"method": "rhf"
			},
			{
				"type": "occ",
				"energy": -0.23046,
				"method": "rhf"
			},
			{
				"type": "unocc",
				"energy": -0.01632,
				"method": "rhf"
			},
			{
				"type": "unocc",
				"energy": -0.01139,
				"method": "rhf"
			},
			{
				"type": "unocc",
				"energy": -0.00269,
				"method": "rhf"
			},
			{
				"type": "unocc",
				"energy": 0.05644,
				"method": "rhf"
			},
			{
				"type": "unocc",
				"energy": 0.07376,
				"method": "rhf"
			}
		],
		"cosmo_sigma_profile": { 
			"-0.025": 0.0,
			"-0.024": 0.0,
			"-0.023": 0.0,
			"-0.022": 0.0,
			"-0.021": 0.0,
			"-0.02": 0.0,
			"-0.019": 0.0,
			"-0.018": 0.0,
			"-0.017": 0.0,
			"-0.016": 0.0,
			"-0.015": 0.0,
			"-0.014": 0.0,
			"-0.013": 0.0,
			"-0.012": 0.0,
			"-0.011": 0.0603216076606,
			"-0.01": 0.428450399388,
			"-0.009": 1.36063587188,
			"-0.008": 1.9029962552,
			"-0.007": 4.00547353157,
			"-0.006": 8.3847579125,
			"-0.005": 20.0173084582,
			"-0.004": 32.0515976647,
			"-0.003": 31.5041873912,
			"-0.002": 28.1236656683,
			"-0.001": 20.5396944736,
			"0.0": 18.2716381702,
			"0.001": 15.925021755,
			"0.002": 21.2480244443,
			"0.003": 21.4508257885,
			"0.004": 17.3051336096,
			"0.005": 3.81557246714,
			"0.006": 4.02814325461,
			"0.007": 2.86193054985,
			"0.008": 3.95950860642,
			"0.009": 3.76515022314,
			"0.01": 9.52812998201,
			"0.011": 7.40602674093,
			"0.012": 0.975105528084,
			"0.013": 0.0,
			"0.014": 0.0,
			"0.015": 0.0,
			"0.016": 0.0,
			"0.017": 0.0,
			"0.018": 0.0,
			"0.019": 0.0,
			"0.02": 0.0,
			"0.021": 0.0,
			"0.022": 0.0,
			"0.023": 0.0,
			"0.024": 0.0,
			"0.025": 0.0
		}
	}
}
