{
	 "smiles": "OC(=O)C1=CC(F)=C(O)C(F)=C1", 
	 "Tm": 434.15, 
	 "num_atms": 16, 
	 "gaussian": { 
		 "optdone": 1, 
		 "sigma_profile": "yes", 
		 "theory": "DFT", 
		 "functional": "B3LYP", 
		 "basiset": "6-31G**", 
		 "properties": { 
			 "R2extent": 3237.7575, 
			 "electric_dipole_moment_norm": 0.210012332971, 
			 "electric_quadrupole_moment_norm": 13.2421426707, 
			 "total_energy": -694.50187063, 
			 "HOMO_LUMO_gap": 0.1912, 
			 "cosmo_polarized_energy": -11.25, 
			 "cosmo_cavitation_energy": 22.46, 
			 "cosmo_dispersion_energy": -16.49, 
			 "cosmo_repulsion_energy": 1.27, 
			 "cosmo_total_nonelectrostatic_energy": 7.24, 
			 "SMD_solvation_energy": 6.55 
		},
		"coords": [
			{
				"x": 1.4378230655,
				"y": 1.476032942,
				"z": -1.1175149328,
				"element": "O" 
			},
			{
				"x": 0.52036223,
				"y": 0.5448335683,
				"z": -0.7559972457,
				"element": "C" 
			},
			{
				"x": -0.394927548,
				"y": 0.2176686706,
				"z": -1.485622762,
				"element": "O" 
			},
			{
				"x": 0.7625432795,
				"y": -0.0112612602,
				"z": 0.5976838401,
				"element": "C" 
			},
			{
				"x": 1.8390397039,
				"y": 0.4066182859,
				"z": 1.394407021,
				"element": "C" 
			},
			{
				"x": 2.0141067314,
				"y": -0.1493170124,
				"z": 2.6509395685,
				"element": "C" 
			},
			{
				"x": 3.0393589093,
				"y": 0.2388168986,
				"z": 3.4275810811,
				"element": "F" 
			},
			{
				"x": 1.1409344127,
				"y": -1.1233451675,
				"z": 3.1518072198,
				"element": "C" 
			},
			{
				"x": 1.3332611642,
				"y": -1.6501343104,
				"z": 4.3804686862,
				"element": "O" 
			},
			{
				"x": 0.0797614281,
				"y": -1.5129361113,
				"z": 2.3260824233,
				"element": "C" 
			},
			{
				"x": -0.7493614036,
				"y": -2.459208203,
				"z": 2.8403444039,
				"element": "F" 
			},
			{
				"x": -0.1300614099,
				"y": -0.9845824995,
				"z": 1.0692906357,
				"element": "C" 
			},
			{
				"x": 1.1835205228,
				"y": 1.7658967699,
				"z": -2.0088607659,
				"element": "H" 
			},
			{
				"x": 2.5365034422,
				"y": 1.1570133583,
				"z": 1.0441648534,
				"element": "H" 
			},
			{
				"x": 0.6297130786,
				"y": -2.2981451152,
				"z": 4.5368491915,
				"element": "H" 
			},
			{
				"x": -0.9619776067,
				"y": -1.3087508141,
				"z": 0.4557767819,
				"element": "H" 
			}
		],
		 "valence_orbital": [ 
			{
				"type": "occ",
				"energy": -0.3551,
				"method": "rhf"
			},
			{
				"type": "occ",
				"energy": -0.32379,
				"method": "rhf"
			},
			{
				"type": "occ",
				"energy": -0.28461,
				"method": "rhf"
			},
			{
				"type": "occ",
				"energy": -0.26499,
				"method": "rhf"
			},
			{
				"type": "occ",
				"energy": -0.2456,
				"method": "rhf"
			},
			{
				"type": "unocc",
				"energy": -0.0544,
				"method": "rhf"
			},
			{
				"type": "unocc",
				"energy": -0.01479,
				"method": "rhf"
			},
			{
				"type": "unocc",
				"energy": 0.04218,
				"method": "rhf"
			},
			{
				"type": "unocc",
				"energy": 0.05693,
				"method": "rhf"
			},
			{
				"type": "unocc",
				"energy": 0.07523,
				"method": "rhf"
			}
		],
		"cosmo_sigma_profile": { 
			"-0.025": 0.0,
			"-0.024": 0.0,
			"-0.023": 0.0,
			"-0.022": 0.0,
			"-0.021": 0.0,
			"-0.02": 0.0,
			"-0.019": 0.152171502198,
			"-0.018": 1.02302306742,
			"-0.017": 1.78270803423,
			"-0.016": 1.21145892497,
			"-0.015": 2.0270501065,
			"-0.014": 1.31796379764,
			"-0.013": 1.08026762352,
			"-0.012": 1.87561914107,
			"-0.011": 1.76061351094,
			"-0.01": 1.49271358043,
			"-0.009": 1.08105994437,
			"-0.008": 3.6324064291,
			"-0.007": 4.27377298493,
			"-0.006": 4.97774936204,
			"-0.005": 3.98111301499,
			"-0.004": 4.44080727066,
			"-0.003": 6.38096527021,
			"-0.002": 12.6320335449,
			"-0.001": 19.537026866,
			"0.0": 19.7038588403,
			"0.001": 16.6058508767,
			"0.002": 10.9241001954,
			"0.003": 15.6020481503,
			"0.004": 11.706489456,
			"0.005": 5.82252502528,
			"0.006": 3.56927803181,
			"0.007": 5.26857608807,
			"0.008": 3.04118248765,
			"0.009": 3.92509500635,
			"0.01": 2.73167571819,
			"0.011": 4.02473114269,
			"0.012": 3.07438746104,
			"0.013": 0.0292150020964,
			"0.014": 0.0,
			"0.015": 0.0,
			"0.016": 0.0,
			"0.017": 0.0,
			"0.018": 0.0,
			"0.019": 0.0,
			"0.02": 0.0,
			"0.021": 0.0,
			"0.022": 0.0,
			"0.023": 0.0,
			"0.024": 0.0,
			"0.025": 0.0
		}
	}
}
