{
	 "smiles": "N#CC1=NC2=CC=CC=C2C=C1", 
	 "Tm": 368.15, 
	 "num_atms": 18, 
	 "gaussian": { 
		 "optdone": 1, 
		 "sigma_profile": "yes", 
		 "theory": "DFT", 
		 "functional": "B3LYP", 
		 "basiset": "6-31G**", 
		 "properties": { 
			 "R2extent": 2278.7338, 
			 "electric_dipole_moment_norm": 6.04231801464, 
			 "electric_quadrupole_moment_norm": 8.67381845095, 
			 "total_energy": -494.167947129, 
			 "HOMO_LUMO_gap": 0.1693, 
			 "cosmo_polarized_energy": -10.81, 
			 "cosmo_cavitation_energy": 23.67, 
			 "cosmo_dispersion_energy": -17.14, 
			 "cosmo_repulsion_energy": 1.34, 
			 "cosmo_total_nonelectrostatic_energy": 7.87, 
			 "SMD_solvation_energy": 3.83 
		},
		"coords": [
			{
				"x": -2.7552852013,
				"y": 0.9501809584,
				"z": 2.0293220645,
				"element": "N" 
			},
			{
				"x": -1.9402991346,
				"y": 0.8068248994,
				"z": 1.2132687885,
				"element": "C" 
			},
			{
				"x": -0.945180547,
				"y": 0.6696744575,
				"z": 0.1736669919,
				"element": "C" 
			},
			{
				"x": -0.0915900243,
				"y": -0.3343379449,
				"z": 0.2916876537,
				"element": "N" 
			},
			{
				"x": 0.8519258125,
				"y": -0.4784109133,
				"z": -0.6781259187,
				"element": "C" 
			},
			{
				"x": 1.7753558614,
				"y": -1.5527771252,
				"z": -0.5640343448,
				"element": "C" 
			},
			{
				"x": 2.7460615892,
				"y": -1.7364207781,
				"z": -1.5215878983,
				"element": "C" 
			},
			{
				"x": 2.8393373514,
				"y": -0.8594997351,
				"z": -2.6327456061,
				"element": "C" 
			},
			{
				"x": 1.9593606897,
				"y": 0.1903127803,
				"z": -2.7710428684,
				"element": "C" 
			},
			{
				"x": 0.9462387601,
				"y": 0.4080910722,
				"z": -1.8014461048,
				"element": "C" 
			},
			{
				"x": 0.0071074194,
				"y": 1.4673330917,
				"z": -1.8795406269,
				"element": "C" 
			},
			{
				"x": -0.9426668898,
				"y": 1.6070907467,
				"z": -0.8973356526,
				"element": "C" 
			},
			{
				"x": 1.6818802578,
				"y": -2.2083609315,
				"z": 0.2951829041,
				"element": "H" 
			},
			{
				"x": 3.4496570346,
				"y": -2.558500586,
				"z": -1.4307549537,
				"element": "H" 
			},
			{
				"x": 3.6125629693,
				"y": -1.0213316983,
				"z": -3.3777789424,
				"element": "H" 
			},
			{
				"x": 2.0284986298,
				"y": 0.8636670278,
				"z": -3.6212528872,
				"element": "H" 
			},
			{
				"x": 0.0469897405,
				"y": 2.1596315961,
				"z": -2.7162106265,
				"element": "H" 
			},
			{
				"x": -1.6788543187,
				"y": 2.4027330822,
				"z": -0.9190719721,
				"element": "H" 
			}
		],
		 "valence_orbital": [ 
			{
				"type": "occ",
				"energy": -0.33423,
				"method": "rhf"
			},
			{
				"type": "occ",
				"energy": -0.32637,
				"method": "rhf"
			},
			{
				"type": "occ",
				"energy": -0.28153,
				"method": "rhf"
			},
			{
				"type": "occ",
				"energy": -0.26796,
				"method": "rhf"
			},
			{
				"type": "occ",
				"energy": -0.2511,
				"method": "rhf"
			},
			{
				"type": "unocc",
				"energy": -0.0818,
				"method": "rhf"
			},
			{
				"type": "unocc",
				"energy": -0.04728,
				"method": "rhf"
			},
			{
				"type": "unocc",
				"energy": -0.00093,
				"method": "rhf"
			},
			{
				"type": "unocc",
				"energy": 0.03433,
				"method": "rhf"
			},
			{
				"type": "unocc",
				"energy": 0.04157,
				"method": "rhf"
			}
		],
		"cosmo_sigma_profile": { 
			"-0.025": 0.0,
			"-0.024": 0.0,
			"-0.023": 0.0,
			"-0.022": 0.0,
			"-0.021": 0.0,
			"-0.02": 0.0,
			"-0.019": 0.0,
			"-0.018": 0.0,
			"-0.017": 0.0,
			"-0.016": 0.0,
			"-0.015": 0.0,
			"-0.014": 0.0,
			"-0.013": 0.0,
			"-0.012": 0.0,
			"-0.011": 0.0,
			"-0.01": 0.0,
			"-0.009": 0.824401335285,
			"-0.008": 6.32143149781,
			"-0.007": 10.9058321336,
			"-0.006": 12.7532595115,
			"-0.005": 11.9788846417,
			"-0.004": 10.344526934,
			"-0.003": 10.9111402023,
			"-0.002": 12.8627895822,
			"-0.001": 13.4316473826,
			"0.0": 16.4423423403,
			"0.001": 18.5022191487,
			"0.002": 14.7379523236,
			"0.003": 15.0381284218,
			"0.004": 5.3959897523,
			"0.005": 4.19576643776,
			"0.006": 4.62158905314,
			"0.007": 4.69566024742,
			"0.008": 4.15688669952,
			"0.009": 4.08775403627,
			"0.01": 3.44509649788,
			"0.011": 2.94310547975,
			"0.012": 2.98754526973,
			"0.013": 0.914810393022,
			"0.014": 0.110352610818,
			"0.015": 0.0,
			"0.016": 0.0,
			"0.017": 0.0,
			"0.018": 0.0,
			"0.019": 0.0,
			"0.02": 0.0,
			"0.021": 0.0,
			"0.022": 0.0,
			"0.023": 0.0,
			"0.024": 0.0,
			"0.025": 0.0
		}
	}
}
