{
	 "smiles": "CC1=CC=CN2C(=O)C=C(Cl)N=C12", 
	 "Tm": 398.15, 
	 "num_atms": 20, 
	 "gaussian": { 
		 "optdone": 1, 
		 "sigma_profile": "yes", 
		 "theory": "DFT", 
		 "functional": "B3LYP", 
		 "basiset": "6-31G**", 
		 "properties": { 
			 "R2extent": 3496.9844, 
			 "electric_dipole_moment_norm": 4.67221735582, 
			 "electric_quadrupole_moment_norm": 6.97088312841, 
			 "total_energy": -992.109628156, 
			 "HOMO_LUMO_gap": 0.15914, 
			 "cosmo_polarized_energy": -10.58, 
			 "cosmo_cavitation_energy": 26.01, 
			 "cosmo_dispersion_energy": -19.53, 
			 "cosmo_repulsion_energy": 1.53, 
			 "cosmo_total_nonelectrostatic_energy": 8.01, 
			 "SMD_solvation_energy": 4.22 
		},
		"coords": [
			{
				"x": -2.4004513235,
				"y": 2.1642166781,
				"z": 1.3712566374,
				"element": "C" 
			},
			{
				"x": -1.3339006102,
				"y": 1.6630196175,
				"z": 0.43879408,
				"element": "C" 
			},
			{
				"x": -1.4414350575,
				"y": 1.7358266996,
				"z": -0.9294966099,
				"element": "C" 
			},
			{
				"x": -0.4107833401,
				"y": 1.250719932,
				"z": -1.7748410109,
				"element": "C" 
			},
			{
				"x": 0.7054742171,
				"y": 0.7028690978,
				"z": -1.2192783185,
				"element": "C" 
			},
			{
				"x": 0.8360685554,
				"y": 0.6189218593,
				"z": 0.1466687813,
				"element": "N" 
			},
			{
				"x": 2.0798107958,
				"y": 0.0102401874,
				"z": 0.6499379069,
				"element": "C" 
			},
			{
				"x": 2.9095487974,
				"y": -0.3792236043,
				"z": -0.1583600963,
				"element": "O" 
			},
			{
				"x": 2.1355249298,
				"y": -0.0389895245,
				"z": 2.0730729013,
				"element": "C" 
			},
			{
				"x": 1.0860677364,
				"y": 0.4568543361,
				"z": 2.8124364317,
				"element": "C" 
			},
			{
				"x": 1.1905958025,
				"y": 0.3790322493,
				"z": 4.5669513367,
				"element": "Cl" 
			},
			{
				"x": -0.0301805773,
				"y": 1.0038684462,
				"z": 2.3338753267,
				"element": "N" 
			},
			{
				"x": -0.1502709167,
				"y": 1.0823196512,
				"z": 1.0107762418,
				"element": "C" 
			},
			{
				"x": -3.2413516698,
				"y": 2.5789681924,
				"z": 0.8103461607,
				"element": "H" 
			},
			{
				"x": -2.0029600073,
				"y": 2.9342751677,
				"z": 2.0395497185,
				"element": "H" 
			},
			{
				"x": -2.7644343198,
				"y": 1.3581431135,
				"z": 2.0157401179,
				"element": "H" 
			},
			{
				"x": -2.3328267586,
				"y": 2.1732755544,
				"z": -1.3697832183,
				"element": "H" 
			},
			{
				"x": -0.4987142723,
				"y": 1.3096728862,
				"z": -2.853298549,
				"element": "H" 
			},
			{
				"x": 1.5513101699,
				"y": 0.3024612533,
				"z": -1.7624304546,
				"element": "H" 
			},
			{
				"x": 3.0148078487,
				"y": -0.4712717931,
				"z": 2.5294826167,
				"element": "H" 
			}
		],
		 "valence_orbital": [ 
			{
				"type": "occ",
				"energy": -0.31217,
				"method": "rhf"
			},
			{
				"type": "occ",
				"energy": -0.29292,
				"method": "rhf"
			},
			{
				"type": "occ",
				"energy": -0.27423,
				"method": "rhf"
			},
			{
				"type": "occ",
				"energy": -0.27066,
				"method": "rhf"
			},
			{
				"type": "occ",
				"energy": -0.22677,
				"method": "rhf"
			},
			{
				"type": "unocc",
				"energy": -0.06763,
				"method": "rhf"
			},
			{
				"type": "unocc",
				"energy": -0.05451,
				"method": "rhf"
			},
			{
				"type": "unocc",
				"energy": 0.00589,
				"method": "rhf"
			},
			{
				"type": "unocc",
				"energy": 0.03185,
				"method": "rhf"
			},
			{
				"type": "unocc",
				"energy": 0.07423,
				"method": "rhf"
			}
		],
		"cosmo_sigma_profile": { 
			"-0.025": 0.0,
			"-0.024": 0.0,
			"-0.023": 0.0,
			"-0.022": 0.0,
			"-0.021": 0.0,
			"-0.02": 0.0,
			"-0.019": 0.0,
			"-0.018": 0.0,
			"-0.017": 0.0,
			"-0.016": 0.0,
			"-0.015": 0.0,
			"-0.014": 0.0,
			"-0.013": 0.0,
			"-0.012": 0.0,
			"-0.011": 0.0,
			"-0.01": 0.0,
			"-0.009": 0.630641084477,
			"-0.008": 6.20411227993,
			"-0.007": 8.6770675191,
			"-0.006": 8.80432698723,
			"-0.005": 11.1230738576,
			"-0.004": 13.9632731481,
			"-0.003": 16.3819075342,
			"-0.002": 19.0246919307,
			"-0.001": 21.6531871993,
			"0.0": 24.4535678669,
			"0.001": 18.4825972009,
			"0.002": 9.8434602813,
			"0.003": 9.58016498281,
			"0.004": 11.1257975343,
			"0.005": 5.8083760365,
			"0.006": 3.31005432398,
			"0.007": 3.39132142155,
			"0.008": 2.86537541446,
			"0.009": 3.01620570062,
			"0.01": 2.48787965767,
			"0.011": 2.81720821809,
			"0.012": 4.58517179058,
			"0.013": 2.90973311886,
			"0.014": 0.455730200853,
			"0.015": 0.0,
			"0.016": 0.0,
			"0.017": 0.0,
			"0.018": 0.0,
			"0.019": 0.0,
			"0.02": 0.0,
			"0.021": 0.0,
			"0.022": 0.0,
			"0.023": 0.0,
			"0.024": 0.0,
			"0.025": 0.0
		}
	}
}
