{
	 "smiles": "[O-][N+](=O)C1=C(F)C=C(Cl)C(=C1)S(Cl)(=O)=O", 
	 "Tm": 315.15, 
	 "num_atms": 17, 
	 "gaussian": { 
		 "optdone": 1, 
		 "sigma_profile": "yes", 
		 "theory": "DFT", 
		 "functional": "B3LYP", 
		 "basiset": "6-31G**", 
		 "properties": { 
			 "R2extent": 5079.8819, 
			 "electric_dipole_moment_norm": 3.93050723571, 
			 "electric_quadrupole_moment_norm": 15.1138264616, 
			 "total_energy": -2003.69622616, 
			 "HOMO_LUMO_gap": 0.18785, 
			 "cosmo_polarized_energy": -12.42, 
			 "cosmo_cavitation_energy": 28.56, 
			 "cosmo_dispersion_energy": -21.3, 
			 "cosmo_repulsion_energy": 1.59, 
			 "cosmo_total_nonelectrostatic_energy": 8.85, 
			 "SMD_solvation_energy": 6.14 
		},
		"coords": [
			{
				"x": 0.0552700766,
				"y": -2.6558104205,
				"z": 1.6623176184,
				"element": "O" 
			},
			{
				"x": 1.1452757558,
				"y": -2.0975289548,
				"z": 1.7649871743,
				"element": "N" 
			},
			{
				"x": 2.1701601824,
				"y": -2.6089155127,
				"z": 2.2014215533,
				"element": "O" 
			},
			{
				"x": 1.214828499,
				"y": -0.6940378664,
				"z": 1.323875114,
				"element": "C" 
			},
			{
				"x": 2.3950381832,
				"y": 0.0620225228,
				"z": 1.3793601666,
				"element": "C" 
			},
			{
				"x": 3.5371309042,
				"y": -0.4325061513,
				"z": 1.8340698413,
				"element": "F" 
			},
			{
				"x": 2.3997669686,
				"y": 1.3868721034,
				"z": 0.9507521341,
				"element": "C" 
			},
			{
				"x": 1.2378251266,
				"y": 1.9755581241,
				"z": 0.4584565863,
				"element": "C" 
			},
			{
				"x": 1.3168873861,
				"y": 3.6329012406,
				"z": -0.0373662691,
				"element": "Cl" 
			},
			{
				"x": 0.0544208542,
				"y": 1.2136857173,
				"z": 0.3988968032,
				"element": "C" 
			},
			{
				"x": 0.0518083981,
				"y": -0.1077227125,
				"z": 0.8332643192,
				"element": "C" 
			},
			{
				"x": -1.5077555695,
				"y": 1.8169865494,
				"z": -0.2691200691,
				"element": "S" 
			},
			{
				"x": -2.0920777924,
				"y": 3.191271988,
				"z": 1.2277386614,
				"element": "Cl" 
			},
			{
				"x": -1.2709635418,
				"y": 2.5749690481,
				"z": -1.4867969289,
				"element": "O" 
			},
			{
				"x": -2.4613043725,
				"y": 0.7182224281,
				"z": -0.2146334616,
				"element": "O" 
			},
			{
				"x": 3.323615576,
				"y": 1.9496118696,
				"z": 1.0083278463,
				"element": "H" 
			},
			{
				"x": -0.8543266348,
				"y": -0.6999799734,
				"z": 0.7941489102,
				"element": "H" 
			}
		],
		 "valence_orbital": [ 
			{
				"type": "occ",
				"energy": -0.33302,
				"method": "rhf"
			},
			{
				"type": "occ",
				"energy": -0.33256,
				"method": "rhf"
			},
			{
				"type": "occ",
				"energy": -0.31836,
				"method": "rhf"
			},
			{
				"type": "occ",
				"energy": -0.31758,
				"method": "rhf"
			},
			{
				"type": "occ",
				"energy": -0.31123,
				"method": "rhf"
			},
			{
				"type": "unocc",
				"energy": -0.12338,
				"method": "rhf"
			},
			{
				"type": "unocc",
				"energy": -0.10743,
				"method": "rhf"
			},
			{
				"type": "unocc",
				"energy": -0.07547,
				"method": "rhf"
			},
			{
				"type": "unocc",
				"energy": -0.04969,
				"method": "rhf"
			},
			{
				"type": "unocc",
				"energy": -0.01948,
				"method": "rhf"
			}
		],
		"cosmo_sigma_profile": { 
			"-0.025": 0.0,
			"-0.024": 0.0,
			"-0.023": 0.0,
			"-0.022": 0.0,
			"-0.021": 0.0,
			"-0.02": 0.0,
			"-0.019": 0.0,
			"-0.018": 0.0,
			"-0.017": 0.0,
			"-0.016": 0.0,
			"-0.015": 0.0,
			"-0.014": 0.0,
			"-0.013": 0.0,
			"-0.012": 0.129755925127,
			"-0.011": 1.54593733066,
			"-0.01": 1.85363597571,
			"-0.009": 3.23196767479,
			"-0.008": 4.90096795422,
			"-0.007": 7.40254935643,
			"-0.006": 14.5089388505,
			"-0.005": 17.4482922739,
			"-0.004": 19.1450502206,
			"-0.003": 14.2745491238,
			"-0.002": 10.8923845436,
			"-0.001": 10.8846291407,
			"0.0": 14.1415630608,
			"0.001": 21.5864687276,
			"0.002": 22.8236290047,
			"0.003": 11.5267778515,
			"0.004": 8.66134647329,
			"0.005": 7.34370516581,
			"0.006": 12.2881962048,
			"0.007": 18.5343637729,
			"0.008": 10.6057988307,
			"0.009": 2.3315125034,
			"0.01": 0.0243098537152,
			"0.011": 0.0,
			"0.012": 0.0,
			"0.013": 0.0,
			"0.014": 0.0,
			"0.015": 0.0,
			"0.016": 0.0,
			"0.017": 0.0,
			"0.018": 0.0,
			"0.019": 0.0,
			"0.02": 0.0,
			"0.021": 0.0,
			"0.022": 0.0,
			"0.023": 0.0,
			"0.024": 0.0,
			"0.025": 0.0
		}
	}
}
