{
	 "smiles": "CC(=O)C1=CC2=C(S1)C=CC=C2", 
	 "Tm": 360.15, 
	 "num_atms": 20, 
	 "gaussian": { 
		 "optdone": 1, 
		 "sigma_profile": "yes", 
		 "theory": "DFT", 
		 "functional": "B3LYP", 
		 "basiset": "6-31G**", 
		 "properties": { 
			 "R2extent": 2882.2098, 
			 "electric_dipole_moment_norm": 3.84955470282, 
			 "electric_quadrupole_moment_norm": 12.2442998779, 
			 "total_energy": -859.303270026, 
			 "HOMO_LUMO_gap": 0.1576, 
			 "cosmo_polarized_energy": -10.01, 
			 "cosmo_cavitation_energy": 25.77, 
			 "cosmo_dispersion_energy": -19.46, 
			 "cosmo_repulsion_energy": 1.48, 
			 "cosmo_total_nonelectrostatic_energy": 7.79, 
			 "SMD_solvation_energy": 4.58 
		},
		"coords": [
			{
				"x": -0.5754795214,
				"y": 1.0013350335,
				"z": 3.0862455087,
				"element": "C" 
			},
			{
				"x": -1.2185910031,
				"y": 0.7398607552,
				"z": 1.7348917285,
				"element": "C" 
			},
			{
				"x": -2.4096467315,
				"y": 0.4815648293,
				"z": 1.6301690504,
				"element": "O" 
			},
			{
				"x": -0.3581765062,
				"y": 0.8048536323,
				"z": 0.5371439034,
				"element": "C" 
			},
			{
				"x": 0.9809655425,
				"y": 1.0743037521,
				"z": 0.442108945,
				"element": "C" 
			},
			{
				"x": 1.4708998007,
				"y": 1.0481595836,
				"z": -0.9041318166,
				"element": "C" 
			},
			{
				"x": 0.4374607899,
				"y": 0.7450747009,
				"z": -1.8307541454,
				"element": "C" 
			},
			{
				"x": -1.1015990952,
				"y": 0.501045793,
				"z": -1.0310805308,
				"element": "S" 
			},
			{
				"x": 0.6965916472,
				"y": 0.6683305624,
				"z": -3.2049172042,
				"element": "C" 
			},
			{
				"x": 1.9937798002,
				"y": 0.8960809908,
				"z": -3.6477598484,
				"element": "C" 
			},
			{
				"x": 3.0298990754,
				"y": 1.1977880311,
				"z": -2.7412317102,
				"element": "C" 
			},
			{
				"x": 2.7781377858,
				"y": 1.2747510637,
				"z": -1.380781629,
				"element": "C" 
			},
			{
				"x": -1.3396395581,
				"y": 0.9153327463,
				"z": 3.8592512619,
				"element": "H" 
			},
			{
				"x": -0.1332179906,
				"y": 2.0027939983,
				"z": 3.1199457661,
				"element": "H" 
			},
			{
				"x": 0.2252792394,
				"y": 0.280325115,
				"z": 3.2826883586,
				"element": "H" 
			},
			{
				"x": 1.6089506493,
				"y": 1.2865581131,
				"z": 1.300368496,
				"element": "H" 
			},
			{
				"x": -0.0970585029,
				"y": 0.4363649021,
				"z": -3.9083577287,
				"element": "H" 
			},
			{
				"x": 2.2122502401,
				"y": 0.8405343001,
				"z": -4.7101040542,
				"element": "H" 
			},
			{
				"x": 4.0340035553,
				"y": 1.3709943035,
				"z": -3.1162179594,
				"element": "H" 
			},
			{
				"x": 3.5761907832,
				"y": 1.5072477936,
				"z": -0.6811763918,
				"element": "H" 
			}
		],
		 "valence_orbital": [ 
			{
				"type": "occ",
				"energy": -0.32861,
				"method": "rhf"
			},
			{
				"type": "occ",
				"energy": -0.29264,
				"method": "rhf"
			},
			{
				"type": "occ",
				"energy": -0.25498,
				"method": "rhf"
			},
			{
				"type": "occ",
				"energy": -0.24313,
				"method": "rhf"
			},
			{
				"type": "occ",
				"energy": -0.22777,
				"method": "rhf"
			},
			{
				"type": "unocc",
				"energy": -0.07017,
				"method": "rhf"
			},
			{
				"type": "unocc",
				"energy": -0.01047,
				"method": "rhf"
			},
			{
				"type": "unocc",
				"energy": 0.00893,
				"method": "rhf"
			},
			{
				"type": "unocc",
				"energy": 0.02271,
				"method": "rhf"
			},
			{
				"type": "unocc",
				"energy": 0.07025,
				"method": "rhf"
			}
		],
		"cosmo_sigma_profile": { 
			"-0.025": 0.0,
			"-0.024": 0.0,
			"-0.023": 0.0,
			"-0.022": 0.0,
			"-0.021": 0.0,
			"-0.02": 0.0,
			"-0.019": 0.0,
			"-0.018": 0.0,
			"-0.017": 0.0,
			"-0.016": 0.0,
			"-0.015": 0.0,
			"-0.014": 0.0,
			"-0.013": 0.0,
			"-0.012": 0.0,
			"-0.011": 0.0,
			"-0.01": 0.0,
			"-0.009": 0.0905621899522,
			"-0.008": 2.02896490565,
			"-0.007": 7.87439829422,
			"-0.006": 17.298325185,
			"-0.005": 16.7388146228,
			"-0.004": 16.0539144094,
			"-0.003": 12.7746113369,
			"-0.002": 14.8707268102,
			"-0.001": 13.6859241742,
			"0.0": 10.9195840272,
			"0.001": 12.6069951047,
			"0.002": 21.1654467805,
			"0.003": 17.4562365686,
			"0.004": 18.0582949069,
			"0.005": 8.80833298769,
			"0.006": 1.72343603148,
			"0.007": 2.23518031376,
			"0.008": 1.42093937484,
			"0.009": 1.94403646619,
			"0.01": 2.40439554625,
			"0.011": 3.68623098119,
			"0.012": 3.8100990866,
			"0.013": 1.09546819967,
			"0.014": 0.0795607202271,
			"0.015": 0.0,
			"0.016": 0.0,
			"0.017": 0.0,
			"0.018": 0.0,
			"0.019": 0.0,
			"0.02": 0.0,
			"0.021": 0.0,
			"0.022": 0.0,
			"0.023": 0.0,
			"0.024": 0.0,
			"0.025": 0.0
		}
	}
}
