{
	 "smiles": "CC1(C)CON(CC2=CC=CC=C2Cl)C1=O", 
	 "Tm": 307.05, 
	 "num_atms": 30, 
	 "gaussian": { 
		 "optdone": 1, 
		 "sigma_profile": "yes", 
		 "theory": "DFT", 
		 "functional": "B3LYP", 
		 "basiset": "6-31G**", 
		 "properties": { 
			 "R2extent": 5069.7729, 
			 "electric_dipole_moment_norm": 3.39299927793, 
			 "electric_quadrupole_moment_norm": 13.627790333, 
			 "total_energy": -1131.06578628, 
			 "HOMO_LUMO_gap": 0.21759, 
			 "cosmo_polarized_energy": -10.69, 
			 "cosmo_cavitation_energy": 34.7, 
			 "cosmo_dispersion_energy": -24.36, 
			 "cosmo_repulsion_energy": 1.9, 
			 "cosmo_total_nonelectrostatic_energy": 12.23, 
			 "SMD_solvation_energy": 6.57 
		},
		"coords": [
			{
				"x": 0.5920468706,
				"y": 2.6190290055,
				"z": -3.1119550199,
				"element": "C" 
			},
			{
				"x": 1.138048604,
				"y": 1.3892209139,
				"z": -2.3835611416,
				"element": "C" 
			},
			{
				"x": 2.6799267632,
				"y": 1.4010747511,
				"z": -2.3347064723,
				"element": "C" 
			},
			{
				"x": 0.5987902322,
				"y": 0.0500449477,
				"z": -2.9089680613,
				"element": "C" 
			},
			{
				"x": 0.583916673,
				"y": -0.8199498476,
				"z": -1.7629759062,
				"element": "O" 
			},
			{
				"x": 0.1742541249,
				"y": 0.0543961295,
				"z": -0.7032779846,
				"element": "N" 
			},
			{
				"x": 0.1701442207,
				"y": -0.5823477967,
				"z": 0.5934718205,
				"element": "C" 
			},
			{
				"x": -1.0553377617,
				"y": -1.4350610203,
				"z": 0.8616866948,
				"element": "C" 
			},
			{
				"x": -2.1207386821,
				"y": -1.5079561135,
				"z": -0.0421649551,
				"element": "C" 
			},
			{
				"x": -3.2439878812,
				"y": -2.2908850305,
				"z": 0.2217951347,
				"element": "C" 
			},
			{
				"x": -3.322214117,
				"y": -3.0236900892,
				"z": 1.4058696592,
				"element": "C" 
			},
			{
				"x": -2.2748248078,
				"y": -2.9694252784,
				"z": 2.3249093968,
				"element": "C" 
			},
			{
				"x": -1.1608359451,
				"y": -2.1808078748,
				"z": 2.0433288413,
				"element": "C" 
			},
			{
				"x": 0.1435019023,
				"y": -2.1261167607,
				"z": 3.2319910046,
				"element": "Cl" 
			},
			{
				"x": 0.6353234918,
				"y": 1.3356469636,
				"z": -0.9301196613,
				"element": "C" 
			},
			{
				"x": 0.6234288984,
				"y": 2.2384250095,
				"z": -0.1111551366,
				"element": "O" 
			},
			{
				"x": 0.8739528419,
				"y": 3.5256353455,
				"z": -2.569623144,
				"element": "H" 
			},
			{
				"x": 0.9958370696,
				"y": 2.682606491,
				"z": -4.1280038391,
				"element": "H" 
			},
			{
				"x": -0.5005036015,
				"y": 2.5932248544,
				"z": -3.1774088481,
				"element": "H" 
			},
			{
				"x": 3.0367020797,
				"y": 2.2660788834,
				"z": -1.7688987311,
				"element": "H" 
			},
			{
				"x": 3.0901672619,
				"y": 1.4562971337,
				"z": -3.3487994335,
				"element": "H" 
			},
			{
				"x": 3.0658409983,
				"y": 0.4942772192,
				"z": -1.8582676948,
				"element": "H" 
			},
			{
				"x": 1.231816539,
				"y": -0.4342606867,
				"z": -3.6556955738,
				"element": "H" 
			},
			{
				"x": -0.4216829216,
				"y": 0.1615405036,
				"z": -3.3032041738,
				"element": "H" 
			},
			{
				"x": 0.2379992297,
				"y": 0.2389885619,
				"z": 1.3158823461,
				"element": "H" 
			},
			{
				"x": 1.081067412,
				"y": -1.1861522229,
				"z": 0.6986731612,
				"element": "H" 
			},
			{
				"x": -2.0552405345,
				"y": -0.9371832698,
				"z": -0.9617288695,
				"element": "H" 
			},
			{
				"x": -4.0556265728,
				"y": -2.3282161305,
				"z": -0.4984865904,
				"element": "H" 
			},
			{
				"x": -4.1924387164,
				"y": -3.6369180671,
				"z": 1.6193607675,
				"element": "H" 
			},
			{
				"x": -2.3146336716,
				"y": -3.5285165247,
				"z": 3.2532324103,
				"element": "H" 
			}
		],
		 "valence_orbital": [ 
			{
				"type": "occ",
				"energy": -0.31303,
				"method": "rhf"
			},
			{
				"type": "occ",
				"energy": -0.26234,
				"method": "rhf"
			},
			{
				"type": "occ",
				"energy": -0.25598,
				"method": "rhf"
			},
			{
				"type": "occ",
				"energy": -0.24546,
				"method": "rhf"
			},
			{
				"type": "occ",
				"energy": -0.23033,
				"method": "rhf"
			},
			{
				"type": "unocc",
				"energy": -0.01274,
				"method": "rhf"
			},
			{
				"type": "unocc",
				"energy": -0.01028,
				"method": "rhf"
			},
			{
				"type": "unocc",
				"energy": 0.00813,
				"method": "rhf"
			},
			{
				"type": "unocc",
				"energy": 0.02989,
				"method": "rhf"
			},
			{
				"type": "unocc",
				"energy": 0.06628,
				"method": "rhf"
			}
		],
		"cosmo_sigma_profile": { 
			"-0.025": 0.0,
			"-0.024": 0.0,
			"-0.023": 0.0,
			"-0.022": 0.0,
			"-0.021": 0.0,
			"-0.02": 0.0,
			"-0.019": 0.0,
			"-0.018": 0.0,
			"-0.017": 0.0,
			"-0.016": 0.0,
			"-0.015": 0.0,
			"-0.014": 0.0,
			"-0.013": 0.0,
			"-0.012": 0.0,
			"-0.011": 0.0,
			"-0.01": 0.0,
			"-0.009": 0.0,
			"-0.008": 0.083619453413,
			"-0.007": 3.71870351395,
			"-0.006": 11.451394978,
			"-0.005": 22.0961549309,
			"-0.004": 29.9026108908,
			"-0.003": 24.4324463981,
			"-0.002": 25.1890975574,
			"-0.001": 23.9038170434,
			"0.0": 25.0362046706,
			"0.001": 19.520158292,
			"0.002": 17.8356660368,
			"0.003": 18.6670945142,
			"0.004": 20.9968944333,
			"0.005": 9.5764867925,
			"0.006": 3.10098944946,
			"0.007": 3.08087627391,
			"0.008": 2.4867068054,
			"0.009": 2.91968223148,
			"0.01": 2.42122885491,
			"0.011": 1.90081566066,
			"0.012": 4.02153487778,
			"0.013": 3.71473621578,
			"0.014": 0.168822302165,
			"0.015": 0.0,
			"0.016": 0.0,
			"0.017": 0.0,
			"0.018": 0.0,
			"0.019": 0.0,
			"0.02": 0.0,
			"0.021": 0.0,
			"0.022": 0.0,
			"0.023": 0.0,
			"0.024": 0.0,
			"0.025": 0.0
		}
	}
}
