{
	 "smiles": "FC1=C(NC(=O)CCl)C=CC(Br)=C1", 
	 "Tm": 407.15, 
	 "num_atms": 19, 
	 "gaussian": { 
		 "optdone": 1, 
		 "sigma_profile": "yes", 
		 "theory": "DFT", 
		 "functional": "B3LYP", 
		 "basiset": "6-31G**", 
		 "properties": { 
			 "R2extent": 7492.0909, 
			 "electric_dipole_moment_norm": 2.4116654909, 
			 "electric_quadrupole_moment_norm": 15.4946078285, 
			 "total_energy": -3569.87877209, 
			 "HOMO_LUMO_gap": 0.18982, 
			 "cosmo_polarized_energy": -10.91, 
			 "cosmo_cavitation_energy": 28.2, 
			 "cosmo_dispersion_energy": -20.92, 
			 "cosmo_repulsion_energy": 1.65, 
			 "cosmo_total_nonelectrostatic_energy": 8.93, 
			 "SMD_solvation_energy": 4.53 
		},
		"coords": [
			{
				"x": 0.9104525881,
				"y": 3.8487376813,
				"z": 2.0871912621,
				"element": "F" 
			},
			{
				"x": 0.04758952,
				"y": 2.8128725127,
				"z": 1.9933090915,
				"element": "C" 
			},
			{
				"x": 0.5547244873,
				"y": 1.5779063446,
				"z": 1.5594634392,
				"element": "C" 
			},
			{
				"x": 1.9238105776,
				"y": 1.5153397155,
				"z": 1.2416909502,
				"element": "N" 
			},
			{
				"x": 2.8829335059,
				"y": 0.5377560506,
				"z": 1.4322094404,
				"element": "C" 
			},
			{
				"x": 4.0444603105,
				"y": 0.748332959,
				"z": 1.1282328391,
				"element": "O" 
			},
			{
				"x": 2.4705998171,
				"y": -0.7846351232,
				"z": 2.0700008777,
				"element": "C" 
			},
			{
				"x": 2.0801459423,
				"y": -2.0288058636,
				"z": 0.8083892572,
				"element": "Cl" 
			},
			{
				"x": -0.3558296633,
				"y": 0.522395376,
				"z": 1.4208645181,
				"element": "C" 
			},
			{
				"x": -1.7007274975,
				"y": 0.689550876,
				"z": 1.7558144201,
				"element": "C" 
			},
			{
				"x": -2.1563217587,
				"y": 1.9288158867,
				"z": 2.1989757535,
				"element": "C" 
			},
			{
				"x": -3.9949990313,
				"y": 2.1618391613,
				"z": 2.6432151596,
				"element": "Br" 
			},
			{
				"x": -1.284816171,
				"y": 3.0124608701,
				"z": 2.3114189863,
				"element": "C" 
			},
			{
				"x": 2.3463119406,
				"y": 2.3948913404,
				"z": 0.9667437545,
				"element": "H" 
			},
			{
				"x": 1.6034386516,
				"y": -0.7032162292,
				"z": 2.7248550045,
				"element": "H" 
			},
			{
				"x": 3.3338180598,
				"y": -1.1587256842,
				"z": 2.6169404444,
				"element": "H" 
			},
			{
				"x": -0.0222453385,
				"y": -0.429132217,
				"z": 1.0239582493,
				"element": "H" 
			},
			{
				"x": -2.3908626981,
				"y": -0.1387834257,
				"z": 1.6490666454,
				"element": "H" 
			},
			{
				"x": -1.6179832426,
				"y": 3.9876997689,
				"z": 2.643859907,
				"element": "H" 
			}
		],
		 "valence_orbital": [ 
			{
				"type": "occ",
				"energy": -0.30138,
				"method": "rhf"
			},
			{
				"type": "occ",
				"energy": -0.2979,
				"method": "rhf"
			},
			{
				"type": "occ",
				"energy": -0.27902,
				"method": "rhf"
			},
			{
				"type": "occ",
				"energy": -0.27556,
				"method": "rhf"
			},
			{
				"type": "occ",
				"energy": -0.24021,
				"method": "rhf"
			},
			{
				"type": "unocc",
				"energy": -0.05039,
				"method": "rhf"
			},
			{
				"type": "unocc",
				"energy": -0.03193,
				"method": "rhf"
			},
			{
				"type": "unocc",
				"energy": -0.01922,
				"method": "rhf"
			},
			{
				"type": "unocc",
				"energy": -0.00925,
				"method": "rhf"
			},
			{
				"type": "unocc",
				"energy": 0.04722,
				"method": "rhf"
			}
		],
		"cosmo_sigma_profile": { 
			"-0.025": 0.0,
			"-0.024": 0.0,
			"-0.023": 0.0,
			"-0.022": 0.0,
			"-0.021": 0.0,
			"-0.02": 0.0,
			"-0.019": 0.0,
			"-0.018": 0.0,
			"-0.017": 0.0,
			"-0.016": 0.0,
			"-0.015": 0.0,
			"-0.014": 0.360585246536,
			"-0.013": 0.962227990934,
			"-0.012": 0.92314625786,
			"-0.011": 0.775732980112,
			"-0.01": 0.813532039907,
			"-0.009": 3.95488905248,
			"-0.008": 7.66801115495,
			"-0.007": 11.0247161111,
			"-0.006": 10.5439006268,
			"-0.005": 8.10699104246,
			"-0.004": 9.89258667346,
			"-0.003": 12.2520353151,
			"-0.002": 14.7651449476,
			"-0.001": 16.5483713635,
			"0.0": 20.0374776645,
			"0.001": 22.8818287403,
			"0.002": 21.9142578273,
			"0.003": 20.463672629,
			"0.004": 20.7749418256,
			"0.005": 9.80758882586,
			"0.006": 2.30787940391,
			"0.007": 0.856723181754,
			"0.008": 1.04753490809,
			"0.009": 1.85409809279,
			"0.01": 1.36240664456,
			"0.011": 3.22318492396,
			"0.012": 5.09716694488,
			"0.013": 1.93080019044,
			"0.014": 0.029490252264,
			"0.015": 0.0,
			"0.016": 0.0,
			"0.017": 0.0,
			"0.018": 0.0,
			"0.019": 0.0,
			"0.02": 0.0,
			"0.021": 0.0,
			"0.022": 0.0,
			"0.023": 0.0,
			"0.024": 0.0,
			"0.025": 0.0
		}
	}
}
