{
	 "smiles": "CSC1=NC(=O)N2C=CC(C)=CC2=N1", 
	 "Tm": 445.15, 
	 "num_atms": 23, 
	 "gaussian": { 
		 "optdone": 1, 
		 "sigma_profile": "yes", 
		 "theory": "DFT", 
		 "functional": "B3LYP", 
		 "basiset": "6-31G**", 
		 "properties": { 
			 "R2extent": 3783.0709, 
			 "electric_dipole_moment_norm": 4.91883273247, 
			 "electric_quadrupole_moment_norm": 26.0488211637, 
			 "total_energy": -986.071393868, 
			 "HOMO_LUMO_gap": 0.16107, 
			 "cosmo_polarized_energy": -15.28, 
			 "cosmo_cavitation_energy": 28.92, 
			 "cosmo_dispersion_energy": -22.06, 
			 "cosmo_repulsion_energy": 1.67, 
			 "cosmo_total_nonelectrostatic_energy": 8.53, 
			 "SMD_solvation_energy": 3.74 
		},
		"coords": [
			{
				"x": 1.5502172106,
				"y": 1.1789563526,
				"z": -3.1990808175,
				"element": "C" 
			},
			{
				"x": 1.5572241131,
				"y": 1.8820347858,
				"z": -1.5161735076,
				"element": "S" 
			},
			{
				"x": 0.846191288,
				"y": 0.5627381195,
				"z": -0.5797386223,
				"element": "C" 
			},
			{
				"x": 0.4895804184,
				"y": -0.5468788123,
				"z": -1.2076918958,
				"element": "N" 
			},
			{
				"x": -0.0558247579,
				"y": -1.5614343039,
				"z": -0.4963307149,
				"element": "C" 
			},
			{
				"x": -0.4341681894,
				"y": -2.6381915652,
				"z": -0.9152891596,
				"element": "O" 
			},
			{
				"x": -0.1967467284,
				"y": -1.3053365482,
				"z": 0.9575043342,
				"element": "N" 
			},
			{
				"x": -0.7421339407,
				"y": -2.2914366837,
				"z": 1.7384141227,
				"element": "C" 
			},
			{
				"x": -0.8981272875,
				"y": -2.1167241066,
				"z": 3.0801631118,
				"element": "C" 
			},
			{
				"x": -0.4908415805,
				"y": -0.8917417074,
				"z": 3.693742288,
				"element": "C" 
			},
			{
				"x": -0.665241526,
				"y": -0.703443193,
				"z": 5.1765751014,
				"element": "C" 
			},
			{
				"x": 0.0538068429,
				"y": 0.0857965711,
				"z": 2.8965560176,
				"element": "C" 
			},
			{
				"x": 0.2169894399,
				"y": -0.0965963078,
				"z": 1.4933199033,
				"element": "C" 
			},
			{
				"x": 0.7448873142,
				"y": 0.855520756,
				"z": 0.7314673039,
				"element": "N" 
			},
			{
				"x": 1.9818445247,
				"y": 1.9478631948,
				"z": -3.8437532084,
				"element": "H" 
			},
			{
				"x": 2.1536121057,
				"y": 0.2721164606,
				"z": -3.238919792,
				"element": "H" 
			},
			{
				"x": 0.5325684384,
				"y": 0.9502425014,
				"z": -3.5154961401,
				"element": "H" 
			},
			{
				"x": -1.0197161905,
				"y": -3.1806936275,
				"z": 1.1872448543,
				"element": "H" 
			},
			{
				"x": -1.3324691757,
				"y": -2.9135065459,
				"z": 3.6738379384,
				"element": "H" 
			},
			{
				"x": -1.7202259826,
				"y": -0.7998430937,
				"z": 5.4573744763,
				"element": "H" 
			},
			{
				"x": -0.1148478114,
				"y": -1.471703737,
				"z": 5.7315230817,
				"element": "H" 
			},
			{
				"x": -0.3109862172,
				"y": 0.2764211796,
				"z": 5.5033769639,
				"element": "H" 
			},
			{
				"x": 0.3839076919,
				"y": 1.0381403107,
				"z": 3.2948743607,
				"element": "H" 
			}
		],
		 "valence_orbital": [ 
			{
				"type": "occ",
				"energy": -0.30493,
				"method": "rhf"
			},
			{
				"type": "occ",
				"energy": -0.27477,
				"method": "rhf"
			},
			{
				"type": "occ",
				"energy": -0.26088,
				"method": "rhf"
			},
			{
				"type": "occ",
				"energy": -0.24381,
				"method": "rhf"
			},
			{
				"type": "occ",
				"energy": -0.22892,
				"method": "rhf"
			},
			{
				"type": "unocc",
				"energy": -0.06785,
				"method": "rhf"
			},
			{
				"type": "unocc",
				"energy": -0.04971,
				"method": "rhf"
			},
			{
				"type": "unocc",
				"energy": 0.00881,
				"method": "rhf"
			},
			{
				"type": "unocc",
				"energy": 0.04133,
				"method": "rhf"
			},
			{
				"type": "unocc",
				"energy": 0.06964,
				"method": "rhf"
			}
		],
		"cosmo_sigma_profile": { 
			"-0.025": 0.0,
			"-0.024": 0.0,
			"-0.023": 0.0,
			"-0.022": 0.0,
			"-0.021": 0.0,
			"-0.02": 0.0,
			"-0.019": 0.0,
			"-0.018": 0.0,
			"-0.017": 0.0,
			"-0.016": 0.0,
			"-0.015": 0.0,
			"-0.014": 0.0,
			"-0.013": 0.0,
			"-0.012": 0.0,
			"-0.011": 0.0,
			"-0.01": 0.0,
			"-0.009": 0.838166540733,
			"-0.008": 4.30269593451,
			"-0.007": 9.57976961659,
			"-0.006": 14.6826730566,
			"-0.005": 20.357118484,
			"-0.004": 18.8408323939,
			"-0.003": 20.412960178,
			"-0.002": 24.2812757322,
			"-0.001": 21.747621448,
			"0.0": 15.8605584576,
			"0.001": 12.1167595858,
			"0.002": 6.93099734709,
			"0.003": 6.44655600678,
			"0.004": 8.20462487027,
			"0.005": 7.70895150837,
			"0.006": 7.83170397012,
			"0.007": 6.21554856644,
			"0.008": 4.35548641247,
			"0.009": 3.28538801057,
			"0.01": 3.20546502435,
			"0.011": 4.57106974603,
			"0.012": 5.93299349247,
			"0.013": 4.26027935506,
			"0.014": 1.8128475291,
			"0.015": 0.0,
			"0.016": 0.0,
			"0.017": 0.0,
			"0.018": 0.0,
			"0.019": 0.0,
			"0.02": 0.0,
			"0.021": 0.0,
			"0.022": 0.0,
			"0.023": 0.0,
			"0.024": 0.0,
			"0.025": 0.0
		}
	}
}
