{
	 "smiles": "OC(=O)C1=CC(=CC=C1)N1C=CC=C1", 
	 "Tm": 453.15, 
	 "num_atms": 23, 
	 "gaussian": { 
		 "optdone": 1, 
		 "sigma_profile": "yes", 
		 "theory": "DFT", 
		 "functional": "B3LYP", 
		 "basiset": "6-31G**", 
		 "properties": { 
			 "R2extent": 4116.9019, 
			 "electric_dipole_moment_norm": 2.20974409831, 
			 "electric_quadrupole_moment_norm": 9.82227107903, 
			 "total_energy": -629.795833224, 
			 "HOMO_LUMO_gap": 0.16132, 
			 "cosmo_polarized_energy": -11.35, 
			 "cosmo_cavitation_energy": 27.52, 
			 "cosmo_dispersion_energy": -20.43, 
			 "cosmo_repulsion_energy": 1.56, 
			 "cosmo_total_nonelectrostatic_energy": 8.66, 
			 "SMD_solvation_energy": 6.66 
		},
		"coords": [
			{
				"x": -2.3062023074,
				"y": 0.6733035209,
				"z": -4.9395113252,
				"element": "O" 
			},
			{
				"x": -2.2914718653,
				"y": -0.102109456,
				"z": -3.8278883794,
				"element": "C" 
			},
			{
				"x": -3.1541640852,
				"y": -0.9293396706,
				"z": -3.6064444145,
				"element": "O" 
			},
			{
				"x": -1.1283922153,
				"y": 0.173998741,
				"z": -2.9404604045,
				"element": "C" 
			},
			{
				"x": -1.0309639809,
				"y": -0.5804465442,
				"z": -1.7676041272,
				"element": "C" 
			},
			{
				"x": 0.0321362216,
				"y": -0.3826096848,
				"z": -0.8793867427,
				"element": "C" 
			},
			{
				"x": 0.9958868899,
				"y": 0.5903365647,
				"z": -1.1953540955,
				"element": "C" 
			},
			{
				"x": 0.8919124929,
				"y": 1.3384476314,
				"z": -2.3664252833,
				"element": "C" 
			},
			{
				"x": -0.1659108345,
				"y": 1.1419098275,
				"z": -3.2506634204,
				"element": "C" 
			},
			{
				"x": 0.1323826107,
				"y": -1.1459271075,
				"z": 0.309150241,
				"element": "N" 
			},
			{
				"x": -0.7556876566,
				"y": -2.1306340656,
				"z": 0.7236368619,
				"element": "C" 
			},
			{
				"x": -0.3201810357,
				"y": -2.6390224994,
				"z": 1.9206833675,
				"element": "C" 
			},
			{
				"x": 0.8799746581,
				"y": -1.9490046587,
				"z": 2.2658580387,
				"element": "C" 
			},
			{
				"x": 1.1338828687,
				"y": -1.0441821337,
				"z": 1.2667438043,
				"element": "C" 
			},
			{
				"x": -3.0980976639,
				"y": 0.4087283801,
				"z": -5.435336909,
				"element": "H" 
			},
			{
				"x": -1.8052309464,
				"y": -1.3131399577,
				"z": -1.5828949703,
				"element": "H" 
			},
			{
				"x": 1.8326162052,
				"y": 0.7715574963,
				"z": -0.5324696236,
				"element": "H" 
			},
			{
				"x": 1.6506880212,
				"y": 2.0835119936,
				"z": -2.5855837381,
				"element": "H" 
			},
			{
				"x": -0.2498538793,
				"y": 1.7215762557,
				"z": -4.1617470262,
				"element": "H" 
			},
			{
				"x": -1.6218187999,
				"y": -2.3913054313,
				"z": 0.1392898038,
				"element": "H" 
			},
			{
				"x": -0.809429457,
				"y": -3.4198594121,
				"z": 2.4856571467,
				"element": "H" 
			},
			{
				"x": 1.4884974603,
				"y": -2.0986739035,
				"z": 3.1465939314,
				"element": "H" 
			},
			{
				"x": 1.9440272988,
				"y": -0.3420158861,
				"z": 1.1657572645,
				"element": "H" 
			}
		],
		 "valence_orbital": [ 
			{
				"type": "occ",
				"energy": -0.2902,
				"method": "rhf"
			},
			{
				"type": "occ",
				"energy": -0.28149,
				"method": "rhf"
			},
			{
				"type": "occ",
				"energy": -0.26879,
				"method": "rhf"
			},
			{
				"type": "occ",
				"energy": -0.22199,
				"method": "rhf"
			},
			{
				"type": "occ",
				"energy": -0.21538,
				"method": "rhf"
			},
			{
				"type": "unocc",
				"energy": -0.05406,
				"method": "rhf"
			},
			{
				"type": "unocc",
				"energy": -0.02316,
				"method": "rhf"
			},
			{
				"type": "unocc",
				"energy": 0.03177,
				"method": "rhf"
			},
			{
				"type": "unocc",
				"energy": 0.0722,
				"method": "rhf"
			},
			{
				"type": "unocc",
				"energy": 0.07245,
				"method": "rhf"
			}
		],
		"cosmo_sigma_profile": { 
			"-0.025": 0.0,
			"-0.024": 0.0,
			"-0.023": 0.0,
			"-0.022": 0.0,
			"-0.021": 0.0,
			"-0.02": 0.0,
			"-0.019": 0.030570310076,
			"-0.018": 1.01636000771,
			"-0.017": 0.73729052724,
			"-0.016": 0.921588210968,
			"-0.015": 0.632773141885,
			"-0.014": 0.816670866297,
			"-0.013": 0.957727207123,
			"-0.012": 0.113941702698,
			"-0.011": 1.00623259671,
			"-0.01": 3.06478783801,
			"-0.009": 3.14118998851,
			"-0.008": 4.52530623367,
			"-0.007": 5.63091623517,
			"-0.006": 10.4123549699,
			"-0.005": 11.6494880068,
			"-0.004": 11.152961124,
			"-0.003": 12.435420771,
			"-0.002": 13.0445970157,
			"-0.001": 15.6718730897,
			"0.0": 15.7604079581,
			"0.001": 18.942077731,
			"0.002": 20.0198117914,
			"0.003": 17.7401461022,
			"0.004": 10.048909941,
			"0.005": 8.90551107846,
			"0.006": 8.96195853609,
			"0.007": 9.22286609509,
			"0.008": 3.99473799128,
			"0.009": 1.36355831724,
			"0.01": 2.31513180648,
			"0.011": 4.01707579285,
			"0.012": 3.3346047614,
			"0.013": 0.0499293472813,
			"0.014": 0.0,
			"0.015": 0.0,
			"0.016": 0.0,
			"0.017": 0.0,
			"0.018": 0.0,
			"0.019": 0.0,
			"0.02": 0.0,
			"0.021": 0.0,
			"0.022": 0.0,
			"0.023": 0.0,
			"0.024": 0.0,
			"0.025": 0.0
		}
	}
}
