{
	 "smiles": "[O-][N+](=O)C1=CC(=C(C=C1)C#N)C(F)(F)F", 
	 "Tm": 326.15, 
	 "num_atms": 18, 
	 "gaussian": { 
		 "optdone": 1, 
		 "sigma_profile": "yes", 
		 "theory": "DFT", 
		 "functional": "B3LYP", 
		 "basiset": "6-31G**", 
		 "properties": { 
			 "R2extent": 3803.4911, 
			 "electric_dipole_moment_norm": 1.80678718725, 
			 "electric_quadrupole_moment_norm": 24.2592248312, 
			 "total_energy": -866.008282474, 
			 "HOMO_LUMO_gap": 0.18134, 
			 "cosmo_polarized_energy": -11.9, 
			 "cosmo_cavitation_energy": 26.38, 
			 "cosmo_dispersion_energy": -18.1, 
			 "cosmo_repulsion_energy": 1.35, 
			 "cosmo_total_nonelectrostatic_energy": 9.63, 
			 "SMD_solvation_energy": 9.14 
		},
		"coords": [
			{
				"x": 0.0555221355,
				"y": -2.9736461909,
				"z": 0.8839776304,
				"element": "O" 
			},
			{
				"x": 0.6122199236,
				"y": -2.3122347724,
				"z": 0.0111630681,
				"element": "N" 
			},
			{
				"x": 1.553076689,
				"y": -2.6932506436,
				"z": -0.6802168392,
				"element": "O" 
			},
			{
				"x": 0.1066617572,
				"y": -0.944906464,
				"z": -0.2258815384,
				"element": "C" 
			},
			{
				"x": 0.7159379437,
				"y": -0.1690913017,
				"z": -1.2084186795,
				"element": "C" 
			},
			{
				"x": 0.246631273,
				"y": 1.1188647043,
				"z": -1.4381683269,
				"element": "C" 
			},
			{
				"x": -0.8334741424,
				"y": 1.6169056761,
				"z": -0.6765035185,
				"element": "C" 
			},
			{
				"x": -1.4270266388,
				"y": 0.8095527992,
				"z": 0.3075857185,
				"element": "C" 
			},
			{
				"x": -0.9579938722,
				"y": -0.4796064328,
				"z": 0.5381555978,
				"element": "C" 
			},
			{
				"x": -1.3534717368,
				"y": 2.9392283672,
				"z": -0.8762000182,
				"element": "C" 
			},
			{
				"x": -1.8119579673,
				"y": 4.0002691908,
				"z": -0.9969369451,
				"element": "N" 
			},
			{
				"x": 0.8964194243,
				"y": 1.9783008992,
				"z": -2.5030508488,
				"element": "C" 
			},
			{
				"x": 1.4008923451,
				"y": 3.1075781391,
				"z": -1.9706211489,
				"element": "F" 
			},
			{
				"x": 1.9028194826,
				"y": 1.325357687,
				"z": -3.1146387386,
				"element": "F" 
			},
			{
				"x": 0.0038478039,
				"y": 2.3359738124,
				"z": -3.4457331244,
				"element": "F" 
			},
			{
				"x": 1.5415295439,
				"y": -0.57452252,
				"z": -1.777682638,
				"element": "H" 
			},
			{
				"x": -2.2554491096,
				"y": 1.2026449566,
				"z": 0.8858914231,
				"element": "H" 
			},
			{
				"x": -1.3988848544,
				"y": -1.1209179063,
				"z": 1.2908789267,
				"element": "H" 
			}
		],
		 "valence_orbital": [ 
			{
				"type": "occ",
				"energy": -0.33694,
				"method": "rhf"
			},
			{
				"type": "occ",
				"energy": -0.33389,
				"method": "rhf"
			},
			{
				"type": "occ",
				"energy": -0.31957,
				"method": "rhf"
			},
			{
				"type": "occ",
				"energy": -0.31866,
				"method": "rhf"
			},
			{
				"type": "occ",
				"energy": -0.30905,
				"method": "rhf"
			},
			{
				"type": "unocc",
				"energy": -0.12771,
				"method": "rhf"
			},
			{
				"type": "unocc",
				"energy": -0.07307,
				"method": "rhf"
			},
			{
				"type": "unocc",
				"energy": -0.05778,
				"method": "rhf"
			},
			{
				"type": "unocc",
				"energy": 0.00679,
				"method": "rhf"
			},
			{
				"type": "unocc",
				"energy": 0.05117,
				"method": "rhf"
			}
		],
		"cosmo_sigma_profile": { 
			"-0.025": 0.0,
			"-0.024": 0.0,
			"-0.023": 0.0,
			"-0.022": 0.0,
			"-0.021": 0.0,
			"-0.02": 0.0,
			"-0.019": 0.0,
			"-0.018": 0.0,
			"-0.017": 0.0,
			"-0.016": 0.0,
			"-0.015": 0.0,
			"-0.014": 0.0,
			"-0.013": 0.0,
			"-0.012": 0.0,
			"-0.011": 0.116487780133,
			"-0.01": 3.31464892746,
			"-0.009": 4.7816060485,
			"-0.008": 5.99826900265,
			"-0.007": 6.1312144746,
			"-0.006": 9.29224824956,
			"-0.005": 11.7616705991,
			"-0.004": 19.8877182985,
			"-0.003": 19.0664762495,
			"-0.002": 12.9013093908,
			"-0.001": 7.65100675106,
			"0.0": 9.43609155112,
			"0.001": 17.0224668431,
			"0.002": 28.8799575521,
			"0.003": 7.64657819228,
			"0.004": 5.61330277921,
			"0.005": 6.56967944746,
			"0.006": 9.91019190381,
			"0.007": 10.4520780253,
			"0.008": 7.44689993243,
			"0.009": 5.15181828368,
			"0.01": 2.58551061206,
			"0.011": 2.2676207195,
			"0.012": 0.637723883126,
			"0.013": 0.0,
			"0.014": 0.0,
			"0.015": 0.0,
			"0.016": 0.0,
			"0.017": 0.0,
			"0.018": 0.0,
			"0.019": 0.0,
			"0.02": 0.0,
			"0.021": 0.0,
			"0.022": 0.0,
			"0.023": 0.0,
			"0.024": 0.0,
			"0.025": 0.0
		}
	}
}
