{
	 "smiles": "CC1=CC=C(C=C1)S(=O)(=O)N1C=C(C=CC(O)=O)C2=C1C=CC=C2", 
	 "Tm": 513.15, 
	 "num_atms": 39, 
	 "gaussian": { 
		 "optdone": 1, 
		 "sigma_profile": "yes", 
		 "theory": "DFT", 
		 "functional": "B3LYP", 
		 "basiset": "6-31G**", 
		 "properties": { 
			 "R2extent": 8970.65, 
			 "electric_dipole_moment_norm": 5.58606232421, 
			 "electric_quadrupole_moment_norm": 18.1202303705, 
			 "total_energy": -1448.72849571, 
			 "HOMO_LUMO_gap": 0.14827, 
			 "cosmo_polarized_energy": -17.0, 
			 "cosmo_cavitation_energy": 45.3, 
			 "cosmo_dispersion_energy": -31.48, 
			 "cosmo_repulsion_energy": 2.34, 
			 "cosmo_total_nonelectrostatic_energy": 16.16, 
			 "SMD_solvation_energy": 8.01 
		},
		"coords": [
			{
				"x": 4.7528026633,
				"y": -1.7221172313,
				"z": -2.1068924333,
				"element": "C" 
			},
			{
				"x": 3.7929360827,
				"y": -0.9126564739,
				"z": -1.2697513187,
				"element": "C" 
			},
			{
				"x": 3.2873213846,
				"y": 0.3094032208,
				"z": -1.7345495976,
				"element": "C" 
			},
			{
				"x": 2.3786145454,
				"y": 1.0487777244,
				"z": -0.9797925539,
				"element": "C" 
			},
			{
				"x": 1.974306989,
				"y": 0.5546704277,
				"z": 0.2611764229,
				"element": "C" 
			},
			{
				"x": 2.4690116727,
				"y": -0.6543157894,
				"z": 0.7586151313,
				"element": "C" 
			},
			{
				"x": 3.3741103949,
				"y": -1.3769697299,
				"z": -0.0128398768,
				"element": "C" 
			},
			{
				"x": 0.8047370181,
				"y": 1.4833751596,
				"z": 1.2399920266,
				"element": "S" 
			},
			{
				"x": 1.015363124,
				"y": 1.1715242903,
				"z": 2.6488201765,
				"element": "O" 
			},
			{
				"x": 0.741883737,
				"y": 2.851260913,
				"z": 0.7339870372,
				"element": "O" 
			},
			{
				"x": -0.7172697326,
				"y": 0.7636617334,
				"z": 0.8478020241,
				"element": "N" 
			},
			{
				"x": -1.181700193,
				"y": -0.3666797397,
				"z": 1.4997850901,
				"element": "C" 
			},
			{
				"x": -2.2832333798,
				"y": -0.868180533,
				"z": 0.8368224478,
				"element": "C" 
			},
			{
				"x": -3.1322473133,
				"y": -1.9946432069,
				"z": 1.1488581406,
				"element": "C" 
			},
			{
				"x": -3.1056232136,
				"y": -2.9656513439,
				"z": 2.0974013163,
				"element": "C" 
			},
			{
				"x": -2.1118837864,
				"y": -3.1764864218,
				"z": 3.151507933,
				"element": "C" 
			},
			{
				"x": -2.4297245503,
				"y": -4.2665745908,
				"z": 3.9025255338,
				"element": "O" 
			},
			{
				"x": -1.1069768137,
				"y": -2.5229156971,
				"z": 3.3916038877,
				"element": "O" 
			},
			{
				"x": -2.5012860577,
				"y": 0.0007406381,
				"z": -0.31534892,
				"element": "C" 
			},
			{
				"x": -1.5064891489,
				"y": 1.0064468217,
				"z": -0.2948095874,
				"element": "C" 
			},
			{
				"x": -1.4354629873,
				"y": 2.0136873395,
				"z": -1.2598096069,
				"element": "C" 
			},
			{
				"x": -2.3872538683,
				"y": 1.9888363079,
				"z": -2.2757392056,
				"element": "C" 
			},
			{
				"x": -3.3831803203,
				"y": 0.9976281641,
				"z": -2.3207974377,
				"element": "C" 
			},
			{
				"x": -3.4506568674,
				"y": 0.0069653764,
				"z": -1.3472327777,
				"element": "C" 
			},
			{
				"x": 5.4900944653,
				"y": -2.23724463,
				"z": -1.4841134525,
				"element": "H" 
			},
			{
				"x": 4.2176371289,
				"y": -2.4899119713,
				"z": -2.6792062617,
				"element": "H" 
			},
			{
				"x": 5.2888061545,
				"y": -1.0936486853,
				"z": -2.8232235614,
				"element": "H" 
			},
			{
				"x": 3.6130014868,
				"y": 0.6917983942,
				"z": -2.6979531795,
				"element": "H" 
			},
			{
				"x": 2.0032682132,
				"y": 2.0019725781,
				"z": -1.3339679289,
				"element": "H" 
			},
			{
				"x": 2.1621312119,
				"y": -1.0096768882,
				"z": 1.7362668057,
				"element": "H" 
			},
			{
				"x": 3.7681080492,
				"y": -2.3144109679,
				"z": 0.3700158283,
				"element": "H" 
			},
			{
				"x": -0.7118583182,
				"y": -0.7242983714,
				"z": 2.4009709392,
				"element": "H" 
			},
			{
				"x": -3.9770628447,
				"y": -2.0778341982,
				"z": 0.46628441,
				"element": "H" 
			},
			{
				"x": -3.9050454248,
				"y": -3.6988863951,
				"z": 2.0869336945,
				"element": "H" 
			},
			{
				"x": -1.7304824088,
				"y": -4.3343306518,
				"z": 4.5730508955,
				"element": "H" 
			},
			{
				"x": -0.6859559462,
				"y": 2.7926705585,
				"z": -1.20436844,
				"element": "H" 
			},
			{
				"x": -2.3629416092,
				"y": 2.757889012,
				"z": -3.0418829786,
				"element": "H" 
			},
			{
				"x": -4.1133862487,
				"y": 1.0107015244,
				"z": -3.1244668407,
				"element": "H" 
			},
			{
				"x": -4.2288132884,
				"y": -0.7495766672,
				"z": -1.3913737824,
				"element": "H" 
			}
		],
		 "valence_orbital": [ 
			{
				"type": "occ",
				"energy": -0.2731,
				"method": "rhf"
			},
			{
				"type": "occ",
				"energy": -0.27163,
				"method": "rhf"
			},
			{
				"type": "occ",
				"energy": -0.26427,
				"method": "rhf"
			},
			{
				"type": "occ",
				"energy": -0.23749,
				"method": "rhf"
			},
			{
				"type": "occ",
				"energy": -0.21276,
				"method": "rhf"
			},
			{
				"type": "unocc",
				"energy": -0.06449,
				"method": "rhf"
			},
			{
				"type": "unocc",
				"energy": -0.04517,
				"method": "rhf"
			},
			{
				"type": "unocc",
				"energy": -0.02733,
				"method": "rhf"
			},
			{
				"type": "unocc",
				"energy": -0.01557,
				"method": "rhf"
			},
			{
				"type": "unocc",
				"energy": 0.00749,
				"method": "rhf"
			}
		],
		"cosmo_sigma_profile": { 
			"-0.025": 0.0,
			"-0.024": 0.0,
			"-0.023": 0.0,
			"-0.022": 0.0,
			"-0.021": 0.0,
			"-0.02": 0.0,
			"-0.019": 0.0,
			"-0.018": 0.272355724922,
			"-0.017": 0.890506656443,
			"-0.016": 0.899467094731,
			"-0.015": 0.830409028988,
			"-0.014": 0.886038718044,
			"-0.013": 0.25640680073,
			"-0.012": 0.173476074051,
			"-0.011": 1.30070528193,
			"-0.01": 1.16505856815,
			"-0.009": 0.619259270191,
			"-0.008": 2.9718323561,
			"-0.007": 9.7910562448,
			"-0.006": 18.7776504934,
			"-0.005": 26.9844700155,
			"-0.004": 24.9817643714,
			"-0.003": 23.8705014943,
			"-0.002": 23.1992124336,
			"-0.001": 29.5189153503,
			"0.0": 30.1986450036,
			"0.001": 29.3339074323,
			"0.002": 35.6979400071,
			"0.003": 28.6960134511,
			"0.004": 16.7911506535,
			"0.005": 14.2794173215,
			"0.006": 6.45372875533,
			"0.007": 5.59819204098,
			"0.008": 7.65125994685,
			"0.009": 9.5280538525,
			"0.01": 8.53501475529,
			"0.011": 1.83028917591,
			"0.012": 1.66725245577,
			"0.013": 0.124862637721,
			"0.014": 0.0,
			"0.015": 0.0,
			"0.016": 0.0,
			"0.017": 0.0,
			"0.018": 0.0,
			"0.019": 0.0,
			"0.02": 0.0,
			"0.021": 0.0,
			"0.022": 0.0,
			"0.023": 0.0,
			"0.024": 0.0,
			"0.025": 0.0
		}
	}
}
