{
	 "smiles": "CC(C)(C)OC(=O)NC1CCCC(C1)C(O)=O", 
	 "Tm": 400.15, 
	 "num_atms": 38, 
	 "gaussian": { 
		 "optdone": 1, 
		 "sigma_profile": "yes", 
		 "theory": "DFT", 
		 "functional": "B3LYP", 
		 "basiset": "6-31G**", 
		 "properties": { 
			 "R2extent": 6204.0875, 
			 "electric_dipole_moment_norm": 4.80770604239, 
			 "electric_quadrupole_moment_norm": 20.0489735483, 
			 "total_energy": -825.633661546, 
			 "HOMO_LUMO_gap": 0.25291, 
			 "cosmo_polarized_energy": -20.97, 
			 "cosmo_cavitation_energy": 38.86, 
			 "cosmo_dispersion_energy": -26.6, 
			 "cosmo_repulsion_energy": 2.08, 
			 "cosmo_total_nonelectrostatic_energy": 14.34, 
			 "SMD_solvation_energy": 7.76 
		},
		"coords": [
			{
				"x": -3.7622150779,
				"y": 1.8498647258,
				"z": -1.0717462361,
				"element": "C" 
			},
			{
				"x": -3.626647692,
				"y": 0.6011711497,
				"z": -0.1962647121,
				"element": "C" 
			},
			{
				"x": -4.2235818639,
				"y": 0.8457586627,
				"z": 1.1938058235,
				"element": "C" 
			},
			{
				"x": -4.2467450976,
				"y": -0.6176350117,
				"z": -0.8880894394,
				"element": "C" 
			},
			{
				"x": -2.1678772053,
				"y": 0.4360709451,
				"z": -0.0974169094,
				"element": "O" 
			},
			{
				"x": -1.6326448873,
				"y": -0.5748145966,
				"z": 0.6323060421,
				"element": "C" 
			},
			{
				"x": -2.2532462564,
				"y": -1.4456197856,
				"z": 1.2224300465,
				"element": "O" 
			},
			{
				"x": -0.2661135608,
				"y": -0.4921808472,
				"z": 0.6446723032,
				"element": "N" 
			},
			{
				"x": 0.5628243172,
				"y": 0.4238889573,
				"z": -0.1390983446,
				"element": "C" 
			},
			{
				"x": 0.6900688731,
				"y": -0.023705202,
				"z": -1.6177621653,
				"element": "C" 
			},
			{
				"x": 1.9340916761,
				"y": 0.5907882964,
				"z": -2.2683123396,
				"element": "C" 
			},
			{
				"x": 3.231241473,
				"y": 0.0572957975,
				"z": -1.6140703124,
				"element": "C" 
			},
			{
				"x": 3.0139778599,
				"y": -0.3160390667,
				"z": -0.1153345724,
				"element": "C" 
			},
			{
				"x": 1.9533530699,
				"y": 0.5885030414,
				"z": 0.5252003246,
				"element": "C" 
			},
			{
				"x": 4.3259882659,
				"y": -0.2738031631,
				"z": 0.6644829245,
				"element": "C" 
			},
			{
				"x": 5.3275140441,
				"y": -1.0518114019,
				"z": 0.1669268306,
				"element": "O" 
			},
			{
				"x": 4.5175764991,
				"y": 0.3870893386,
				"z": 1.6544111617,
				"element": "O" 
			},
			{
				"x": -3.2798314782,
				"y": 2.7094063498,
				"z": -0.5971021769,
				"element": "H" 
			},
			{
				"x": -4.8188959003,
				"y": 2.0876657006,
				"z": -1.2260084383,
				"element": "H" 
			},
			{
				"x": -3.2981781437,
				"y": 1.6895448614,
				"z": -2.0495561782,
				"element": "H" 
			},
			{
				"x": -3.7295948724,
				"y": 1.696019757,
				"z": 1.6748488972,
				"element": "H" 
			},
			{
				"x": -4.1100300341,
				"y": -0.0343170016,
				"z": 1.8269388659,
				"element": "H" 
			},
			{
				"x": -5.2888471406,
				"y": 1.0807460757,
				"z": 1.0999202861,
				"element": "H" 
			},
			{
				"x": -5.3137982669,
				"y": -0.4406137104,
				"z": -1.0581909187,
				"element": "H" 
			},
			{
				"x": -3.7717643856,
				"y": -0.7850524583,
				"z": -1.8602470851,
				"element": "H" 
			},
			{
				"x": -4.128761587,
				"y": -1.5126714599,
				"z": -0.2773103663,
				"element": "H" 
			},
			{
				"x": 0.1707820132,
				"y": -1.277650245,
				"z": 1.1051603829,
				"element": "H" 
			},
			{
				"x": 0.0558183419,
				"y": 1.3917240464,
				"z": -0.1160047205,
				"element": "H" 
			},
			{
				"x": 0.7563920121,
				"y": -1.1192164825,
				"z": -1.6548085856,
				"element": "H" 
			},
			{
				"x": -0.2210067165,
				"y": 0.2497928444,
				"z": -2.1576235468,
				"element": "H" 
			},
			{
				"x": 1.951928779,
				"y": 0.3874921104,
				"z": -3.3440397288,
				"element": "H" 
			},
			{
				"x": 1.8909982769,
				"y": 1.682323426,
				"z": -2.1658596685,
				"element": "H" 
			},
			{
				"x": 3.580042233,
				"y": -0.8246219504,
				"z": -2.1676706603,
				"element": "H" 
			},
			{
				"x": 4.0227680106,
				"y": 0.8104964056,
				"z": -1.6980761687,
				"element": "H" 
			},
			{
				"x": 2.6635217958,
				"y": -1.3588543924,
				"z": -0.071582821,
				"element": "H" 
			},
			{
				"x": 2.2859573007,
				"y": 1.6272741203,
				"z": 0.4318388708,
				"element": "H" 
			},
			{
				"x": 1.8840815112,
				"y": 0.3973050761,
				"z": 1.5989309003,
				"element": "H" 
			},
			{
				"x": 5.0284538139,
				"y": -1.5164149124,
				"z": -0.6274975647,
				"element": "H" 
			}
		],
		 "valence_orbital": [ 
			{
				"type": "occ",
				"energy": -0.31808,
				"method": "rhf"
			},
			{
				"type": "occ",
				"energy": -0.28715,
				"method": "rhf"
			},
			{
				"type": "occ",
				"energy": -0.27238,
				"method": "rhf"
			},
			{
				"type": "occ",
				"energy": -0.25906,
				"method": "rhf"
			},
			{
				"type": "occ",
				"energy": -0.2471,
				"method": "rhf"
			},
			{
				"type": "unocc",
				"energy": 0.00581,
				"method": "rhf"
			},
			{
				"type": "unocc",
				"energy": 0.04079,
				"method": "rhf"
			},
			{
				"type": "unocc",
				"energy": 0.0549,
				"method": "rhf"
			},
			{
				"type": "unocc",
				"energy": 0.0666,
				"method": "rhf"
			},
			{
				"type": "unocc",
				"energy": 0.0802,
				"method": "rhf"
			}
		],
		"cosmo_sigma_profile": { 
			"-0.025": 0.0,
			"-0.024": 0.0,
			"-0.023": 0.0,
			"-0.022": 0.0,
			"-0.021": 0.0,
			"-0.02": 0.0,
			"-0.019": 0.0,
			"-0.018": 0.236613264154,
			"-0.017": 1.28832214285,
			"-0.016": 0.663652043472,
			"-0.015": 1.52198978615,
			"-0.014": 0.855633301959,
			"-0.013": 1.93047609852,
			"-0.012": 1.63309000262,
			"-0.011": 2.60873005331,
			"-0.01": 2.29032614918,
			"-0.009": 3.02797283816,
			"-0.008": 3.19484964382,
			"-0.007": 4.23048935415,
			"-0.006": 4.63575482683,
			"-0.005": 6.55256548049,
			"-0.004": 24.661096085,
			"-0.003": 34.4300332271,
			"-0.002": 30.3136803278,
			"-0.001": 31.1834040436,
			"0.0": 38.6108979525,
			"0.001": 28.0627332703,
			"0.002": 9.68673786219,
			"0.003": 8.2431548221,
			"0.004": 7.62175135881,
			"0.005": 7.39109277902,
			"0.006": 4.24589283787,
			"0.007": 3.43147875396,
			"0.008": 4.88263181911,
			"0.009": 4.84330605453,
			"0.01": 5.12877130477,
			"0.011": 6.9443411533,
			"0.012": 7.4797880351,
			"0.013": 4.72365919811,
			"0.014": 3.53496518004,
			"0.015": 0.430080712047,
			"0.016": 0.0,
			"0.017": 0.0,
			"0.018": 0.0,
			"0.019": 0.0,
			"0.02": 0.0,
			"0.021": 0.0,
			"0.022": 0.0,
			"0.023": 0.0,
			"0.024": 0.0,
			"0.025": 0.0
		}
	}
}
