{
	 "smiles": "OCC1OC(OC2=C(C=CC=C2)[N+]([O-])=O)C(O)C(O)C1O", 
	 "Tm": 468.15, 
	 "num_atms": 36, 
	 "gaussian": { 
		 "optdone": 1, 
		 "sigma_profile": "yes", 
		 "theory": "DFT", 
		 "functional": "B3LYP", 
		 "basiset": "6-31G**", 
		 "properties": { 
			 "R2extent": 7700.6849, 
			 "electric_dipole_moment_norm": 5.80647483849, 
			 "electric_quadrupole_moment_norm": 33.9964739944, 
			 "total_energy": -1122.70631281, 
			 "HOMO_LUMO_gap": 0.16224, 
			 "cosmo_polarized_energy": -21.4, 
			 "cosmo_cavitation_energy": 37.65, 
			 "cosmo_dispersion_energy": -27.64, 
			 "cosmo_repulsion_energy": 2.09, 
			 "cosmo_total_nonelectrostatic_energy": 12.1, 
			 "SMD_solvation_energy": 7.84 
		},
		"coords": [
			{
				"x": 0.2475318761,
				"y": -0.3983451389,
				"z": 2.697711579,
				"element": "O" 
			},
			{
				"x": 0.5718377209,
				"y": 0.9598983872,
				"z": 2.3766259576,
				"element": "C" 
			},
			{
				"x": 0.0669742354,
				"y": 1.3376348125,
				"z": 0.9874993859,
				"element": "C" 
			},
			{
				"x": 0.7930364813,
				"y": 0.6146365689,
				"z": -0.0238393909,
				"element": "O" 
			},
			{
				"x": 0.0757709171,
				"y": -0.3016352029,
				"z": -0.8219146622,
				"element": "C" 
			},
			{
				"x": 1.0038628359,
				"y": -1.2636501115,
				"z": -1.3071347731,
				"element": "O" 
			},
			{
				"x": 1.6438398289,
				"y": -1.0372194943,
				"z": -2.4802510835,
				"element": "C" 
			},
			{
				"x": 1.947952914,
				"y": -2.1307975917,
				"z": -3.3152516137,
				"element": "C" 
			},
			{
				"x": 2.6901055958,
				"y": -1.9575469218,
				"z": -4.4864134551,
				"element": "C" 
			},
			{
				"x": 3.1002420053,
				"y": -0.6857696826,
				"z": -4.866863157,
				"element": "C" 
			},
			{
				"x": 2.7880759201,
				"y": 0.4085421065,
				"z": -4.0543526732,
				"element": "C" 
			},
			{
				"x": 2.0809441669,
				"y": 0.2368043305,
				"z": -2.8671871988,
				"element": "C" 
			},
			{
				"x": 1.4919288596,
				"y": -3.4939383295,
				"z": -3.0146620317,
				"element": "N" 
			},
			{
				"x": 2.1763209302,
				"y": -4.418146439,
				"z": -3.4502688441,
				"element": "O" 
			},
			{
				"x": 0.4448567794,
				"y": -3.6563745759,
				"z": -2.3826274414,
				"element": "O" 
			},
			{
				"x": -0.9802395357,
				"y": -1.1197587755,
				"z": -0.0680260539,
				"element": "C" 
			},
			{
				"x": -1.6728624222,
				"y": -1.9441158985,
				"z": -0.9779604664,
				"element": "O" 
			},
			{
				"x": -1.9899751122,
				"y": -0.2074345865,
				"z": 0.6519717044,
				"element": "C" 
			},
			{
				"x": -2.3675152377,
				"y": -0.6887612626,
				"z": 1.9366969701,
				"element": "O" 
			},
			{
				"x": -1.463199996,
				"y": 1.2477503761,
				"z": 0.7678693002,
				"element": "C" 
			},
			{
				"x": -2.1452294105,
				"y": 1.9391632284,
				"z": 1.789501558,
				"element": "O" 
			},
			{
				"x": 0.7229630308,
				"y": -0.6527783511,
				"z": 3.4975251871,
				"element": "H" 
			},
			{
				"x": 1.6603270136,
				"y": 1.0950906912,
				"z": 2.3856703464,
				"element": "H" 
			},
			{
				"x": 0.118776161,
				"y": 1.6524507653,
				"z": 3.0973785561,
				"element": "H" 
			},
			{
				"x": 0.3408998116,
				"y": 2.3948601827,
				"z": 0.869571446,
				"element": "H" 
			},
			{
				"x": -0.3810144734,
				"y": 0.2018647989,
				"z": -1.6873777364,
				"element": "H" 
			},
			{
				"x": 2.9174035326,
				"y": -2.8316062836,
				"z": -5.0842138513,
				"element": "H" 
			},
			{
				"x": 3.6608340718,
				"y": -0.5494583154,
				"z": -5.7853690596,
				"element": "H" 
			},
			{
				"x": 3.1143694664,
				"y": 1.4050680233,
				"z": -4.3367775002,
				"element": "H" 
			},
			{
				"x": 1.8877414525,
				"y": 1.0717796004,
				"z": -2.2034602375,
				"element": "H" 
			},
			{
				"x": -0.4341473067,
				"y": -1.7018549076,
				"z": 0.687008748,
				"element": "H" 
			},
			{
				"x": -1.0229375169,
				"y": -2.5353629255,
				"z": -1.3935829686,
				"element": "H" 
			},
			{
				"x": -2.9094817457,
				"y": -0.1985551746,
				"z": 0.0600287521,
				"element": "H" 
			},
			{
				"x": -1.5345509655,
				"y": -0.8060226945,
				"z": 2.4337589993,
				"element": "H" 
			},
			{
				"x": -1.6637581652,
				"y": 1.7535883877,
				"z": -0.1872520039,
				"element": "H" 
			},
			{
				"x": -2.5517837195,
				"y": 1.232000404,
				"z": 2.3247677123,
				"element": "H" 
			}
		],
		 "valence_orbital": [ 
			{
				"type": "occ",
				"energy": -0.27955,
				"method": "rhf"
			},
			{
				"type": "occ",
				"energy": -0.27856,
				"method": "rhf"
			},
			{
				"type": "occ",
				"energy": -0.26662,
				"method": "rhf"
			},
			{
				"type": "occ",
				"energy": -0.26209,
				"method": "rhf"
			},
			{
				"type": "occ",
				"energy": -0.25186,
				"method": "rhf"
			},
			{
				"type": "unocc",
				"energy": -0.08962,
				"method": "rhf"
			},
			{
				"type": "unocc",
				"energy": -0.024,
				"method": "rhf"
			},
			{
				"type": "unocc",
				"energy": -0.00898,
				"method": "rhf"
			},
			{
				"type": "unocc",
				"energy": 0.04097,
				"method": "rhf"
			},
			{
				"type": "unocc",
				"energy": 0.06808,
				"method": "rhf"
			}
		],
		"cosmo_sigma_profile": { 
			"-0.025": 0.0,
			"-0.024": 0.0,
			"-0.023": 0.0,
			"-0.022": 0.0,
			"-0.021": 0.0,
			"-0.02": 0.0,
			"-0.019": 0.0,
			"-0.018": 0.0597538301988,
			"-0.017": 1.01378980926,
			"-0.016": 1.39079802699,
			"-0.015": 0.623147860388,
			"-0.014": 1.10565368474,
			"-0.013": 1.17567905235,
			"-0.012": 0.611651402523,
			"-0.011": 0.841078487023,
			"-0.01": 0.995425934532,
			"-0.009": 2.04219249839,
			"-0.008": 5.06183013863,
			"-0.007": 10.7289125176,
			"-0.006": 21.0869542175,
			"-0.005": 27.4729984092,
			"-0.004": 22.9458076711,
			"-0.003": 19.98229673,
			"-0.002": 20.3300249888,
			"-0.001": 18.1453781979,
			"0.0": 15.4050083121,
			"0.001": 17.9854097593,
			"0.002": 17.5563812683,
			"0.003": 10.7996612074,
			"0.004": 9.43802881666,
			"0.005": 8.67852911359,
			"0.006": 8.75917438578,
			"0.007": 11.9693123453,
			"0.008": 10.1206894712,
			"0.009": 8.74716327898,
			"0.01": 5.9680680123,
			"0.011": 4.42555741531,
			"0.012": 3.70193627011,
			"0.013": 4.86046451979,
			"0.014": 2.52378493711,
			"0.015": 0.0277506004877,
			"0.016": 0.0,
			"0.017": 0.0,
			"0.018": 0.0,
			"0.019": 0.0,
			"0.02": 0.0,
			"0.021": 0.0,
			"0.022": 0.0,
			"0.023": 0.0,
			"0.024": 0.0,
			"0.025": 0.0
		}
	}
}
