{
	 "smiles": "S(SC1=CC=NC=C1)C1=CC=NC=C1", 
	 "Tm": 349.15, 
	 "num_atms": 22, 
	 "gaussian": { 
		 "optdone": 1, 
		 "sigma_profile": "yes", 
		 "theory": "DFT", 
		 "functional": "B3LYP", 
		 "basiset": "6-31G**", 
		 "properties": { 
			 "R2extent": 4595.5223, 
			 "electric_dipole_moment_norm": 1.20672802652, 
			 "electric_quadrupole_moment_norm": 11.8948946948, 
			 "total_energy": -1291.74581902, 
			 "HOMO_LUMO_gap": 0.19613, 
			 "cosmo_polarized_energy": -10.22, 
			 "cosmo_cavitation_energy": 29.87, 
			 "cosmo_dispersion_energy": -22.47, 
			 "cosmo_repulsion_energy": 1.67, 
			 "cosmo_total_nonelectrostatic_energy": 9.06, 
			 "SMD_solvation_energy": 1.37 
		},
		"coords": [
			{
				"x": -1.0571515596,
				"y": -0.721508767,
				"z": 2.6175721653,
				"element": "S" 
			},
			{
				"x": -2.5656602531,
				"y": 0.2623903609,
				"z": 1.5930072012,
				"element": "S" 
			},
			{
				"x": -2.5389550635,
				"y": -0.3905857931,
				"z": -0.0817077452,
				"element": "C" 
			},
			{
				"x": -1.5264211916,
				"y": -1.1835167461,
				"z": -0.6212788629,
				"element": "C" 
			},
			{
				"x": -1.6479347498,
				"y": -1.5893051096,
				"z": -1.9519077146,
				"element": "C" 
			},
			{
				"x": -2.6709330685,
				"y": -1.2641351249,
				"z": -2.7500034253,
				"element": "N" 
			},
			{
				"x": -3.6315941372,
				"y": -0.5011554145,
				"z": -2.2136421956,
				"element": "C" 
			},
			{
				"x": -3.6214650604,
				"y": -0.0408294294,
				"z": -0.8978136372,
				"element": "C" 
			},
			{
				"x": 0.4318816746,
				"y": 0.255483106,
				"z": 2.372703356,
				"element": "C" 
			},
			{
				"x": 1.5354185226,
				"y": -0.0937821237,
				"z": 3.1603803013,
				"element": "C" 
			},
			{
				"x": 2.7215977154,
				"y": 0.6177428446,
				"z": 2.9869274993,
				"element": "C" 
			},
			{
				"x": 2.8744730654,
				"y": 1.6221425763,
				"z": 2.1148723592,
				"element": "N" 
			},
			{
				"x": 1.8067598124,
				"y": 1.9416719113,
				"z": 1.3751976587,
				"element": "C" 
			},
			{
				"x": 0.5701223655,
				"y": 1.2981694016,
				"z": 1.4568372588,
				"element": "C" 
			},
			{
				"x": -0.669474256,
				"y": -1.4864009344,
				"z": -0.0303982399,
				"element": "H" 
			},
			{
				"x": -0.8711670645,
				"y": -2.2101288434,
				"z": -2.3950894672,
				"element": "H" 
			},
			{
				"x": -4.4630601775,
				"y": -0.2431243274,
				"z": -2.8671274384,
				"element": "H" 
			},
			{
				"x": -4.4395224917,
				"y": 0.5681555022,
				"z": -0.5247861655,
				"element": "H" 
			},
			{
				"x": 1.4787986314,
				"y": -0.8927853352,
				"z": 3.8936097122,
				"element": "H" 
			},
			{
				"x": 3.592993103,
				"y": 0.365034526,
				"z": 3.5883995796,
				"element": "H" 
			},
			{
				"x": 1.938756639,
				"y": 2.7596029847,
				"z": 0.6689623843,
				"element": "H" 
			},
			{
				"x": -0.2549624558,
				"y": 1.6112647352,
				"z": 0.8271854159,
				"element": "H" 
			}
		],
		 "valence_orbital": [ 
			{
				"type": "occ",
				"energy": -0.27404,
				"method": "rhf"
			},
			{
				"type": "occ",
				"energy": -0.2644,
				"method": "rhf"
			},
			{
				"type": "occ",
				"energy": -0.26402,
				"method": "rhf"
			},
			{
				"type": "occ",
				"energy": -0.25611,
				"method": "rhf"
			},
			{
				"type": "occ",
				"energy": -0.2534,
				"method": "rhf"
			},
			{
				"type": "unocc",
				"energy": -0.05727,
				"method": "rhf"
			},
			{
				"type": "unocc",
				"energy": -0.03663,
				"method": "rhf"
			},
			{
				"type": "unocc",
				"energy": -0.03167,
				"method": "rhf"
			},
			{
				"type": "unocc",
				"energy": -0.02677,
				"method": "rhf"
			},
			{
				"type": "unocc",
				"energy": -0.021,
				"method": "rhf"
			}
		],
		"cosmo_sigma_profile": { 
			"-0.025": 0.0,
			"-0.024": 0.0,
			"-0.023": 0.0,
			"-0.022": 0.0,
			"-0.021": 0.0,
			"-0.02": 0.0,
			"-0.019": 0.0,
			"-0.018": 0.0,
			"-0.017": 0.0,
			"-0.016": 0.0,
			"-0.015": 0.0,
			"-0.014": 0.0,
			"-0.013": 0.0,
			"-0.012": 0.0,
			"-0.011": 0.0,
			"-0.01": 0.0,
			"-0.009": 0.139321923881,
			"-0.008": 4.08418669126,
			"-0.007": 12.8251272276,
			"-0.006": 18.1371550335,
			"-0.005": 13.9083137512,
			"-0.004": 13.890749598,
			"-0.003": 12.737200703,
			"-0.002": 14.4203160882,
			"-0.001": 19.4466837764,
			"0.0": 21.4113669689,
			"0.001": 32.2918434686,
			"0.002": 32.8970569443,
			"0.003": 11.4753350187,
			"0.004": 8.79370347026,
			"0.005": 5.28937943536,
			"0.006": 2.12210640612,
			"0.007": 3.63676813615,
			"0.008": 2.8688949735,
			"0.009": 1.48025767284,
			"0.01": 1.67997309306,
			"0.011": 2.16427071608,
			"0.012": 2.00242364507,
			"0.013": 2.06023799794,
			"0.014": 1.71397115039,
			"0.015": 1.402486218,
			"0.016": 2.03114915171,
			"0.017": 0.202203093931,
			"0.018": 0.0,
			"0.019": 0.0,
			"0.02": 0.0,
			"0.021": 0.0,
			"0.022": 0.0,
			"0.023": 0.0,
			"0.024": 0.0,
			"0.025": 0.0
		}
	}
}
