{
	 "smiles": "CC(C)C1OC2(CCCC2)OCC1(C)C", 
	 "Tm": 252.15, 
	 "num_atms": 39, 
	 "gaussian": { 
		 "optdone": 1, 
		 "sigma_profile": "yes", 
		 "theory": "DFT", 
		 "functional": "B3LYP", 
		 "basiset": "6-31G**", 
		 "properties": { 
			 "R2extent": 3607.153, 
			 "electric_dipole_moment_norm": 0.695384929374, 
			 "electric_quadrupole_moment_norm": 3.1541855589, 
			 "total_energy": -660.3054881, 
			 "HOMO_LUMO_gap": 0.31267, 
			 "cosmo_polarized_energy": -4.73, 
			 "cosmo_cavitation_energy": 35.77, 
			 "cosmo_dispersion_energy": -24.9, 
			 "cosmo_repulsion_energy": 1.92, 
			 "cosmo_total_nonelectrostatic_energy": 12.79, 
			 "SMD_solvation_energy": 5.39 
		},
		"coords": [
			{
				"x": 0.8616255642,
				"y": 0.8578691395,
				"z": 2.4942468136,
				"element": "C" 
			},
			{
				"x": 1.519509253,
				"y": 0.9366801885,
				"z": 1.1057150412,
				"element": "C" 
			},
			{
				"x": 1.8936618597,
				"y": 2.3963480778,
				"z": 0.7994015342,
				"element": "C" 
			},
			{
				"x": 0.5963620669,
				"y": 0.3177605397,
				"z": 0.0358497456,
				"element": "C" 
			},
			{
				"x": 0.2402196975,
				"y": -0.9929256997,
				"z": 0.5137330639,
				"element": "O" 
			},
			{
				"x": -0.8947603577,
				"y": -1.5419381453,
				"z": -0.1244549118,
				"element": "C" 
			},
			{
				"x": -2.2540409002,
				"y": -1.10176159,
				"z": 0.4485175871,
				"element": "C" 
			},
			{
				"x": -3.2337203624,
				"y": -2.2224704599,
				"z": 0.0313252359,
				"element": "C" 
			},
			{
				"x": -2.3514038955,
				"y": -3.4781650282,
				"z": -0.2642337586,
				"element": "C" 
			},
			{
				"x": -0.9051551615,
				"y": -3.0658586597,
				"z": 0.0720366505,
				"element": "C" 
			},
			{
				"x": -0.8946772794,
				"y": -1.1940915709,
				"z": -1.5106494167,
				"element": "O" 
			},
			{
				"x": 0.4311140655,
				"y": -1.0820613647,
				"z": -2.0132228638,
				"element": "C" 
			},
			{
				"x": 1.1446094502,
				"y": 0.1694098461,
				"z": -1.4297967285,
				"element": "C" 
			},
			{
				"x": 0.7518487725,
				"y": 1.3955423431,
				"z": -2.2752631224,
				"element": "C" 
			},
			{
				"x": 2.6585307299,
				"y": -0.0902965878,
				"z": -1.5026497444,
				"element": "C" 
			},
			{
				"x": -0.0711878582,
				"y": 1.4354165743,
				"z": 2.5173000448,
				"element": "H" 
			},
			{
				"x": 0.6275375663,
				"y": -0.1724944496,
				"z": 2.7649460757,
				"element": "H" 
			},
			{
				"x": 1.5281103527,
				"y": 1.2768537242,
				"z": 3.2558014037,
				"element": "H" 
			},
			{
				"x": 2.4403732066,
				"y": 0.3401722527,
				"z": 1.1387118541,
				"element": "H" 
			},
			{
				"x": 2.4728938802,
				"y": 2.5079591064,
				"z": -0.120067976,
				"element": "H" 
			},
			{
				"x": 0.9971858998,
				"y": 3.0217915963,
				"z": 0.709980558,
				"element": "H" 
			},
			{
				"x": 2.4969690225,
				"y": 2.8060916134,
				"z": 1.6162606805,
				"element": "H" 
			},
			{
				"x": -0.3150158609,
				"y": 0.9337296549,
				"z": -0.0104803672,
				"element": "H" 
			},
			{
				"x": -2.1514999684,
				"y": -1.051860941,
				"z": 1.5374116658,
				"element": "H" 
			},
			{
				"x": -2.549163348,
				"y": -0.1141119694,
				"z": 0.0859547413,
				"element": "H" 
			},
			{
				"x": -3.9723305798,
				"y": -2.4163231744,
				"z": 0.8149006038,
				"element": "H" 
			},
			{
				"x": -3.7895930172,
				"y": -1.9318732179,
				"z": -0.8643920792,
				"element": "H" 
			},
			{
				"x": -2.6682191393,
				"y": -4.3530833998,
				"z": 0.3107647362,
				"element": "H" 
			},
			{
				"x": -2.4270097082,
				"y": -3.7457160678,
				"z": -1.3219730581,
				"element": "H" 
			},
			{
				"x": -0.1519109283,
				"y": -3.5639081431,
				"z": -0.5449457624,
				"element": "H" 
			},
			{
				"x": -0.6621988152,
				"y": -3.2716537782,
				"z": 1.1203057141,
				"element": "H" 
			},
			{
				"x": 1.0069751365,
				"y": -1.9899520644,
				"z": -1.7859893368,
				"element": "H" 
			},
			{
				"x": 0.3431889712,
				"y": -1.0036101047,
				"z": -3.1012850048,
				"element": "H" 
			},
			{
				"x": 1.1434856694,
				"y": 1.3005936575,
				"z": -3.2946924341,
				"element": "H" 
			},
			{
				"x": -0.3385383413,
				"y": 1.4759204546,
				"z": -2.3416147328,
				"element": "H" 
			},
			{
				"x": 1.1349299389,
				"y": 2.3314816011,
				"z": -1.8603452095,
				"element": "H" 
			},
			{
				"x": 3.2501411406,
				"y": 0.7863452275,
				"z": -1.2253703543,
				"element": "H" 
			},
			{
				"x": 2.9473031234,
				"y": -0.9188754281,
				"z": -0.8475895374,
				"element": "H" 
			},
			{
				"x": 2.9440501537,
				"y": -0.3626337529,
				"z": -2.5259473518,
				"element": "H" 
			}
		],
		 "valence_orbital": [ 
			{
				"type": "occ",
				"energy": -0.31388,
				"method": "rhf"
			},
			{
				"type": "occ",
				"energy": -0.30961,
				"method": "rhf"
			},
			{
				"type": "occ",
				"energy": -0.28062,
				"method": "rhf"
			},
			{
				"type": "occ",
				"energy": -0.26548,
				"method": "rhf"
			},
			{
				"type": "occ",
				"energy": -0.23401,
				"method": "rhf"
			},
			{
				"type": "unocc",
				"energy": 0.07866,
				"method": "rhf"
			},
			{
				"type": "unocc",
				"energy": 0.08734,
				"method": "rhf"
			},
			{
				"type": "unocc",
				"energy": 0.09712,
				"method": "rhf"
			},
			{
				"type": "unocc",
				"energy": 0.10813,
				"method": "rhf"
			},
			{
				"type": "unocc",
				"energy": 0.11481,
				"method": "rhf"
			}
		],
		"cosmo_sigma_profile": { 
			"-0.025": 0.0,
			"-0.024": 0.0,
			"-0.023": 0.0,
			"-0.022": 0.0,
			"-0.021": 0.0,
			"-0.02": 0.0,
			"-0.019": 0.0,
			"-0.018": 0.0,
			"-0.017": 0.0,
			"-0.016": 0.0,
			"-0.015": 0.0,
			"-0.014": 0.0,
			"-0.013": 0.0,
			"-0.012": 0.0,
			"-0.011": 0.0,
			"-0.01": 0.0,
			"-0.009": 0.0,
			"-0.008": 0.0,
			"-0.007": 0.0,
			"-0.006": 0.0,
			"-0.005": 0.230860441424,
			"-0.004": 6.51485595505,
			"-0.003": 31.4283141841,
			"-0.002": 50.5190026512,
			"-0.001": 49.9479286201,
			"0.0": 40.9762459548,
			"0.001": 44.445624822,
			"0.002": 20.8886711558,
			"0.003": 5.1586634452,
			"0.004": 4.58109268615,
			"0.005": 3.88373352326,
			"0.006": 3.19313220661,
			"0.007": 2.476121132,
			"0.008": 2.42570057892,
			"0.009": 2.12484604476,
			"0.01": 1.7898113797,
			"0.011": 1.48445454367,
			"0.012": 1.69657003577,
			"0.013": 0.429776125536,
			"0.014": 0.0,
			"0.015": 0.0,
			"0.016": 0.0,
			"0.017": 0.0,
			"0.018": 0.0,
			"0.019": 0.0,
			"0.02": 0.0,
			"0.021": 0.0,
			"0.022": 0.0,
			"0.023": 0.0,
			"0.024": 0.0,
			"0.025": 0.0
		}
	}
}
