{
	 "smiles": "CC(CO)C1=C(O)C2=C(C(O)=C1O)[C@@]1(C)CC[C@@H](O)C(C)(C)[C@@H]1C(=O)C2=O", 
	 "Tm": 488.15, 
	 "num_atms": 53, 
	 "gaussian": { 
		 "optdone": 1, 
		 "sigma_profile": "yes", 
		 "theory": "DFT", 
		 "functional": "B3LYP", 
		 "basiset": "6-31G**", 
		 "properties": { 
			 "R2extent": 11341.2965, 
			 "electric_dipole_moment_norm": 5.14549241278, 
			 "electric_quadrupole_moment_norm": 26.0583197563, 
			 "total_energy": -1304.35359806, 
			 "HOMO_LUMO_gap": 0.12675, 
			 "cosmo_polarized_energy": -23.06, 
			 "cosmo_cavitation_energy": 48.25, 
			 "cosmo_dispersion_energy": -34.72, 
			 "cosmo_repulsion_energy": 2.55, 
			 "cosmo_total_nonelectrostatic_energy": 16.08, 
			 "SMD_solvation_energy": 9.42 
		},
		"coords": [
			{
				"x": -0.6111407488,
				"y": -2.7887820005,
				"z": -5.2702269462,
				"element": "C" 
			},
			{
				"x": -0.4926463075,
				"y": -3.070717946,
				"z": -3.7580441941,
				"element": "C" 
			},
			{
				"x": -1.6026757728,
				"y": -4.0065901366,
				"z": -3.2485210358,
				"element": "C" 
			},
			{
				"x": -1.5625298919,
				"y": -5.1928749115,
				"z": -4.0276798081,
				"element": "O" 
			},
			{
				"x": -0.3787086887,
				"y": -1.8229240587,
				"z": -2.8914241521,
				"element": "C" 
			},
			{
				"x": 0.7751692174,
				"y": -1.6110421496,
				"z": -2.1094980542,
				"element": "C" 
			},
			{
				"x": 1.7614475053,
				"y": -2.5137117207,
				"z": -2.1881453898,
				"element": "O" 
			},
			{
				"x": 0.9003234857,
				"y": -0.4661664168,
				"z": -1.2671199154,
				"element": "C" 
			},
			{
				"x": -0.1481170628,
				"y": 0.5057348932,
				"z": -1.1654303288,
				"element": "C" 
			},
			{
				"x": -1.2470483812,
				"y": 0.3207570801,
				"z": -1.995994488,
				"element": "C" 
			},
			{
				"x": -2.2579085482,
				"y": 1.2421021258,
				"z": -2.0845703219,
				"element": "O" 
			},
			{
				"x": -1.3539589879,
				"y": -0.8321526399,
				"z": -2.8161953626,
				"element": "C" 
			},
			{
				"x": -2.5251014169,
				"y": -0.8643575094,
				"z": -3.5276048314,
				"element": "O" 
			},
			{
				"x": -0.0207067453,
				"y": 1.7467026367,
				"z": -0.2463854189,
				"element": "C" 
			},
			{
				"x": 0.3765415741,
				"y": 2.9298810043,
				"z": -1.1673394164,
				"element": "C" 
			},
			{
				"x": -1.3614653909,
				"y": 2.0389234481,
				"z": 0.489366001,
				"element": "C" 
			},
			{
				"x": -1.2403303928,
				"y": 3.0826075012,
				"z": 1.6075683503,
				"element": "C" 
			},
			{
				"x": -0.2187478009,
				"y": 2.6872509064,
				"z": 2.6707205017,
				"element": "C" 
			},
			{
				"x": -0.7403769465,
				"y": 1.5080406377,
				"z": 3.2929302447,
				"element": "O" 
			},
			{
				"x": 1.1959675895,
				"y": 2.4576951416,
				"z": 2.0646002424,
				"element": "C" 
			},
			{
				"x": 2.1035281845,
				"y": 1.8171154431,
				"z": 3.1431518435,
				"element": "C" 
			},
			{
				"x": 1.8259203335,
				"y": 3.8216272746,
				"z": 1.7027300845,
				"element": "C" 
			},
			{
				"x": 1.0452106564,
				"y": 1.4428265151,
				"z": 0.8865220836,
				"element": "C" 
			},
			{
				"x": 2.334567788,
				"y": 1.0022541342,
				"z": 0.2388731271,
				"element": "C" 
			},
			{
				"x": 3.4270729703,
				"y": 1.5255320653,
				"z": 0.3366815535,
				"element": "O" 
			},
			{
				"x": 2.1712883432,
				"y": -0.2679317222,
				"z": -0.5997799039,
				"element": "C" 
			},
			{
				"x": 3.1341166272,
				"y": -1.0525249209,
				"z": -0.6748769987,
				"element": "O" 
			},
			{
				"x": 0.2168731849,
				"y": -2.1603572685,
				"z": -5.6088779876,
				"element": "H" 
			},
			{
				"x": -0.587465399,
				"y": -3.7322393786,
				"z": -5.8190808773,
				"element": "H" 
			},
			{
				"x": -1.5410705675,
				"y": -2.2805461964,
				"z": -5.5632155344,
				"element": "H" 
			},
			{
				"x": 0.4407651966,
				"y": -3.621129204,
				"z": -3.6210384352,
				"element": "H" 
			},
			{
				"x": -1.4262107399,
				"y": -4.2135532697,
				"z": -2.1827925671,
				"element": "H" 
			},
			{
				"x": -2.5931157256,
				"y": -3.5230355337,
				"z": -3.3207258127,
				"element": "H" 
			},
			{
				"x": -2.190181283,
				"y": -5.8235510311,
				"z": -3.6546629905,
				"element": "H" 
			},
			{
				"x": 2.5090679741,
				"y": -2.1685169542,
				"z": -1.6171072902,
				"element": "H" 
			},
			{
				"x": -2.8980613908,
				"y": 0.901815767,
				"z": -2.7280407382,
				"element": "H" 
			},
			{
				"x": -2.5094329991,
				"y": -1.5833568409,
				"z": -4.1712995229,
				"element": "H" 
			},
			{
				"x": 0.3609533943,
				"y": 3.8856500484,
				"z": -0.6425710477,
				"element": "H" 
			},
			{
				"x": -0.3327494088,
				"y": 2.9967717998,
				"z": -1.9962223688,
				"element": "H" 
			},
			{
				"x": 1.3789018466,
				"y": 2.7960705026,
				"z": -1.5861912322,
				"element": "H" 
			},
			{
				"x": -2.1096756376,
				"y": 2.369339178,
				"z": -0.2287810819,
				"element": "H" 
			},
			{
				"x": -1.7282328883,
				"y": 1.1038901099,
				"z": 0.9259356023,
				"element": "H" 
			},
			{
				"x": -2.215885953,
				"y": 3.1960571076,
				"z": 2.0923984798,
				"element": "H" 
			},
			{
				"x": -0.9805907322,
				"y": 4.0645431677,
				"z": 1.1985336267,
				"element": "H" 
			},
			{
				"x": -0.1362327321,
				"y": 3.4939487074,
				"z": 3.4180181199,
				"element": "H" 
			},
			{
				"x": -0.1941617075,
				"y": 1.3095256624,
				"z": 4.0629833155,
				"element": "H" 
			},
			{
				"x": 2.0804112794,
				"y": 2.4172603346,
				"z": 4.0616054147,
				"element": "H" 
			},
			{
				"x": 3.1399629102,
				"y": 1.772543713,
				"z": 2.8044668028,
				"element": "H" 
			},
			{
				"x": 1.7921937982,
				"y": 0.7966541679,
				"z": 3.3917998738,
				"element": "H" 
			},
			{
				"x": 2.7761244075,
				"y": 3.680279435,
				"z": 1.1863785017,
				"element": "H" 
			},
			{
				"x": 2.0209044005,
				"y": 4.3838266378,
				"z": 2.6234574709,
				"element": "H" 
			},
			{
				"x": 1.1845989427,
				"y": 4.4454478005,
				"z": 1.0788485401,
				"element": "H" 
			},
			{
				"x": 0.6465186373,
				"y": 0.5328868628,
				"z": 1.3613742726,
				"element": "H" 
			}
		],
		 "valence_orbital": [ 
			{
				"type": "occ",
				"energy": -0.27937,
				"method": "rhf"
			},
			{
				"type": "occ",
				"energy": -0.26652,
				"method": "rhf"
			},
			{
				"type": "occ",
				"energy": -0.24697,
				"method": "rhf"
			},
			{
				"type": "occ",
				"energy": -0.23253,
				"method": "rhf"
			},
			{
				"type": "occ",
				"energy": -0.20839,
				"method": "rhf"
			},
			{
				"type": "unocc",
				"energy": -0.08164,
				"method": "rhf"
			},
			{
				"type": "unocc",
				"energy": -0.02242,
				"method": "rhf"
			},
			{
				"type": "unocc",
				"energy": 0.00791,
				"method": "rhf"
			},
			{
				"type": "unocc",
				"energy": 0.03623,
				"method": "rhf"
			},
			{
				"type": "unocc",
				"energy": 0.05825,
				"method": "rhf"
			}
		],
		"cosmo_sigma_profile": { 
			"-0.025": 0.0,
			"-0.024": 0.0,
			"-0.023": 0.0,
			"-0.022": 0.0,
			"-0.021": 0.0,
			"-0.02": 0.0,
			"-0.019": 0.0,
			"-0.018": 0.0,
			"-0.017": 0.0923935943867,
			"-0.016": 1.1242701834,
			"-0.015": 1.98649574092,
			"-0.014": 2.71088477519,
			"-0.013": 3.58617835819,
			"-0.012": 2.40766050203,
			"-0.011": 2.78870649193,
			"-0.01": 3.73556217239,
			"-0.009": 3.9828012892,
			"-0.008": 3.96541835756,
			"-0.007": 5.34439569698,
			"-0.006": 8.89196054585,
			"-0.005": 12.1020642532,
			"-0.004": 19.3123352315,
			"-0.003": 30.9825867521,
			"-0.002": 37.1337952395,
			"-0.001": 40.5301498267,
			"0.0": 46.6392896186,
			"0.001": 40.9990570507,
			"0.002": 19.0836441573,
			"0.003": 10.6913272376,
			"0.004": 9.89626543709,
			"0.005": 10.8162676666,
			"0.006": 9.36615747078,
			"0.007": 8.41199639273,
			"0.008": 7.15405827739,
			"0.009": 7.48530783292,
			"0.01": 7.11023744296,
			"0.011": 6.29358113519,
			"0.012": 5.64756869984,
			"0.013": 4.11212759536,
			"0.014": 1.73198747372,
			"0.015": 0.028931083215,
			"0.016": 0.0,
			"0.017": 0.0,
			"0.018": 0.0,
			"0.019": 0.0,
			"0.02": 0.0,
			"0.021": 0.0,
			"0.022": 0.0,
			"0.023": 0.0,
			"0.024": 0.0,
			"0.025": 0.0
		}
	}
}
