{
	 "smiles": "CC(=C)C1CCC2(CO)CCC3(C)C(CCC4C5(C)CCC(O)C(C)(C)C5CCC34C)C12", 
	 "Tm": 523.15, 
	 "num_atms": 82, 
	 "gaussian": { 
		 "optdone": 1, 
		 "sigma_profile": "yes", 
		 "theory": "DFT", 
		 "functional": "B3LYP", 
		 "basiset": "6-31G**", 
		 "properties": { 
			 "R2extent": 14296.759, 
			 "electric_dipole_moment_norm": 2.11234597072, 
			 "electric_quadrupole_moment_norm": 8.60326032211, 
			 "total_energy": -1323.7348091, 
			 "HOMO_LUMO_gap": 0.26519, 
			 "cosmo_polarized_energy": -11.64, 
			 "cosmo_cavitation_energy": 62.67, 
			 "cosmo_dispersion_energy": -41.8, 
			 "cosmo_repulsion_energy": 2.99, 
			 "cosmo_total_nonelectrostatic_energy": 23.87, 
			 "SMD_solvation_energy": 9.77 
		},
		"coords": [
			{
				"x": 0.3318291242,
				"y": -4.5963409955,
				"z": -4.4256845632,
				"element": "C" 
			},
			{
				"x": -0.224438063,
				"y": -3.6943271151,
				"z": -3.3456684442,
				"element": "C" 
			},
			{
				"x": -1.4087331098,
				"y": -3.0934624518,
				"z": -3.5133628894,
				"element": "C" 
			},
			{
				"x": 0.6652392252,
				"y": -3.5775622553,
				"z": -2.116151429,
				"element": "C" 
			},
			{
				"x": 0.7668433261,
				"y": -4.9424480957,
				"z": -1.3522340635,
				"element": "C" 
			},
			{
				"x": 0.8984797119,
				"y": -4.5636972683,
				"z": 0.1274744212,
				"element": "C" 
			},
			{
				"x": 0.0336138672,
				"y": -3.2943602634,
				"z": 0.2802995461,
				"element": "C" 
			},
			{
				"x": -1.4625638612,
				"y": -3.6731950273,
				"z": 0.2571292871,
				"element": "C" 
			},
			{
				"x": -1.7306927113,
				"y": -4.5707859942,
				"z": 1.3306581681,
				"element": "O" 
			},
			{
				"x": 0.3083259731,
				"y": -2.4950274406,
				"z": 1.5754367838,
				"element": "C" 
			},
			{
				"x": 0.4678088357,
				"y": -0.988479492,
				"z": 1.3339031999,
				"element": "C" 
			},
			{
				"x": 1.6339056871,
				"y": -0.6186354043,
				"z": 0.3770962503,
				"element": "C" 
			},
			{
				"x": 2.9371951529,
				"y": -1.1788454411,
				"z": 1.0092072388,
				"element": "C" 
			},
			{
				"x": 1.4394975467,
				"y": -1.3914541321,
				"z": -0.9965410085,
				"element": "C" 
			},
			{
				"x": 1.1475726878,
				"y": -0.4454403332,
				"z": -2.1775799546,
				"element": "C" 
			},
			{
				"x": 0.1355878004,
				"y": 0.625407409,
				"z": -1.7718323007,
				"element": "C" 
			},
			{
				"x": 0.8022264012,
				"y": 1.6707435687,
				"z": -0.8579723967,
				"element": "C" 
			},
			{
				"x": -0.1751009509,
				"y": 2.8042330963,
				"z": -0.3136205543,
				"element": "C" 
			},
			{
				"x": 0.6310417861,
				"y": 4.1245453536,
				"z": -0.1872432992,
				"element": "C" 
			},
			{
				"x": -1.305563862,
				"y": 3.0619494532,
				"z": -1.3485033985,
				"element": "C" 
			},
			{
				"x": -2.4398091889,
				"y": 3.9448810026,
				"z": -0.8166146532,
				"element": "C" 
			},
			{
				"x": -3.0849522935,
				"y": 3.3011012019,
				"z": 0.416427499,
				"element": "C" 
			},
			{
				"x": -3.6345749653,
				"y": 2.0200569944,
				"z": 0.0793548692,
				"element": "O" 
			},
			{
				"x": -2.0688471571,
				"y": 3.0949405107,
				"z": 1.5694348096,
				"element": "C" 
			},
			{
				"x": -2.7503254084,
				"y": 2.2501441167,
				"z": 2.6715789593,
				"element": "C" 
			},
			{
				"x": -1.7680199418,
				"y": 4.478299576,
				"z": 2.1925659984,
				"element": "C" 
			},
			{
				"x": -0.8097750574,
				"y": 2.3159604813,
				"z": 1.0271579296,
				"element": "C" 
			},
			{
				"x": 0.2652627385,
				"y": 2.1071216704,
				"z": 2.1152578393,
				"element": "C" 
			},
			{
				"x": 1.6637964299,
				"y": 1.6981777511,
				"z": 1.5966956129,
				"element": "C" 
			},
			{
				"x": 1.7850178016,
				"y": 0.9901923426,
				"z": 0.212069827,
				"element": "C" 
			},
			{
				"x": 3.2299185194,
				"y": 1.3233914401,
				"z": -0.2663567645,
				"element": "C" 
			},
			{
				"x": 0.3226272934,
				"y": -2.4953014416,
				"z": -1.0288147293,
				"element": "C" 
			},
			{
				"x": -0.3316835831,
				"y": -4.6469495528,
				"z": -5.2929760378,
				"element": "H" 
			},
			{
				"x": 0.4843972598,
				"y": -5.6172512382,
				"z": -4.0551194181,
				"element": "H" 
			},
			{
				"x": 1.3127156672,
				"y": -4.2387902608,
				"z": -4.7653058833,
				"element": "H" 
			},
			{
				"x": -1.8480812909,
				"y": -2.4326824331,
				"z": -2.7744506379,
				"element": "H" 
			},
			{
				"x": -1.9868232054,
				"y": -3.2471884552,
				"z": -4.4205761294,
				"element": "H" 
			},
			{
				"x": 1.6701178313,
				"y": -3.3502243547,
				"z": -2.4990834848,
				"element": "H" 
			},
			{
				"x": -0.1420037308,
				"y": -5.5327370444,
				"z": -1.5138114746,
				"element": "H" 
			},
			{
				"x": 1.6043114228,
				"y": -5.5508309879,
				"z": -1.707758165,
				"element": "H" 
			},
			{
				"x": 1.9422972606,
				"y": -4.3201786957,
				"z": 0.3625899035,
				"element": "H" 
			},
			{
				"x": 0.5837565675,
				"y": -5.3607563128,
				"z": 0.8066926771,
				"element": "H" 
			},
			{
				"x": -2.0542381821,
				"y": -2.7480045308,
				"z": 0.3608131034,
				"element": "H" 
			},
			{
				"x": -1.735439379,
				"y": -4.1249942727,
				"z": -0.707125558,
				"element": "H" 
			},
			{
				"x": -2.6755474026,
				"y": -4.7648909196,
				"z": 1.3294043839,
				"element": "H" 
			},
			{
				"x": 1.1965940854,
				"y": -2.8877813698,
				"z": 2.0792997471,
				"element": "H" 
			},
			{
				"x": -0.5119182158,
				"y": -2.6622463054,
				"z": 2.2808272367,
				"element": "H" 
			},
			{
				"x": -0.476581337,
				"y": -0.589665414,
				"z": 0.9464210221,
				"element": "H" 
			},
			{
				"x": 0.6266506116,
				"y": -0.5137768949,
				"z": 2.3050386285,
				"element": "H" 
			},
			{
				"x": 2.8596141649,
				"y": -2.2578715161,
				"z": 1.1548263566,
				"element": "H" 
			},
			{
				"x": 3.1552552577,
				"y": -0.7369413411,
				"z": 1.9875043959,
				"element": "H" 
			},
			{
				"x": 3.8036416547,
				"y": -1.0183696343,
				"z": 0.3653887466,
				"element": "H" 
			},
			{
				"x": 2.3889803183,
				"y": -1.8997440957,
				"z": -1.2022772295,
				"element": "H" 
			},
			{
				"x": 0.7654280755,
				"y": -1.0251639425,
				"z": -3.024670804,
				"element": "H" 
			},
			{
				"x": 2.0627078101,
				"y": 0.0417815331,
				"z": -2.5336637906,
				"element": "H" 
			},
			{
				"x": -0.2449951032,
				"y": 1.1172259524,
				"z": -2.6712094598,
				"element": "H" 
			},
			{
				"x": -0.7321723972,
				"y": 0.1556269328,
				"z": -1.2906898356,
				"element": "H" 
			},
			{
				"x": 1.4677485434,
				"y": 2.2108165065,
				"z": -1.5423660227,
				"element": "H" 
			},
			{
				"x": 1.1711443456,
				"y": 4.317099639,
				"z": -1.1213384219,
				"element": "H" 
			},
			{
				"x": -0.0132708892,
				"y": 4.9887695951,
				"z": -0.0144343874,
				"element": "H" 
			},
			{
				"x": 1.3672807002,
				"y": 4.1112834228,
				"z": 0.6178162089,
				"element": "H" 
			},
			{
				"x": -1.7665591712,
				"y": 2.1156890738,
				"z": -1.6336323151,
				"element": "H" 
			},
			{
				"x": -0.8805083668,
				"y": 3.4986391325,
				"z": -2.2617268652,
				"element": "H" 
			},
			{
				"x": -3.2032774061,
				"y": 4.0717199121,
				"z": -1.597984821,
				"element": "H" 
			},
			{
				"x": -2.0983866156,
				"y": 4.9563142077,
				"z": -0.5725491017,
				"element": "H" 
			},
			{
				"x": -3.8925694404,
				"y": 3.9516178577,
				"z": 0.7922992647,
				"element": "H" 
			},
			{
				"x": -4.2432726938,
				"y": 2.1496687891,
				"z": -0.6591796988,
				"element": "H" 
			},
			{
				"x": -3.6977963345,
				"y": 2.7123331064,
				"z": 2.9724418297,
				"element": "H" 
			},
			{
				"x": -2.1214001817,
				"y": 2.1830815659,
				"z": 3.5642919805,
				"element": "H" 
			},
			{
				"x": -2.9726460491,
				"y": 1.2398269615,
				"z": 2.3225185117,
				"element": "H" 
			},
			{
				"x": -1.3121060271,
				"y": 5.1861562402,
				"z": 1.499110176,
				"element": "H" 
			},
			{
				"x": -2.7000672167,
				"y": 4.9278017188,
				"z": 2.554244269,
				"element": "H" 
			},
			{
				"x": -1.1038724202,
				"y": 4.3912576121,
				"z": 3.0562534778,
				"element": "H" 
			},
			{
				"x": -1.2161938919,
				"y": 1.3281603873,
				"z": 0.7795248299,
				"element": "H" 
			},
			{
				"x": 0.397308156,
				"y": 3.0299221933,
				"z": 2.6899430653,
				"element": "H" 
			},
			{
				"x": -0.1034181964,
				"y": 1.3685017551,
				"z": 2.8315276764,
				"element": "H" 
			},
			{
				"x": 2.2759458005,
				"y": 2.6029799147,
				"z": 1.536848128,
				"element": "H" 
			},
			{
				"x": 2.161136975,
				"y": 1.0883596223,
				"z": 2.3582460526,
				"element": "H" 
			},
			{
				"x": 3.5157943056,
				"y": 0.7746909623,
				"z": -1.1686467865,
				"element": "H" 
			},
			{
				"x": 3.9776032694,
				"y": 1.113303369,
				"z": 0.5030062803,
				"element": "H" 
			},
			{
				"x": 3.3023717323,
				"y": 2.3908460039,
				"z": -0.4964991175,
				"element": "H" 
			},
			{
				"x": -0.6009664254,
				"y": -1.9752172121,
				"z": -1.3001702968,
				"element": "H" 
			}
		],
		 "valence_orbital": [ 
			{
				"type": "occ",
				"energy": -0.26316,
				"method": "rhf"
			},
			{
				"type": "occ",
				"energy": -0.25924,
				"method": "rhf"
			},
			{
				"type": "occ",
				"energy": -0.2569,
				"method": "rhf"
			},
			{
				"type": "occ",
				"energy": -0.25341,
				"method": "rhf"
			},
			{
				"type": "occ",
				"energy": -0.23595,
				"method": "rhf"
			},
			{
				"type": "unocc",
				"energy": 0.02924,
				"method": "rhf"
			},
			{
				"type": "unocc",
				"energy": 0.06384,
				"method": "rhf"
			},
			{
				"type": "unocc",
				"energy": 0.07364,
				"method": "rhf"
			},
			{
				"type": "unocc",
				"energy": 0.07977,
				"method": "rhf"
			},
			{
				"type": "unocc",
				"energy": 0.08629,
				"method": "rhf"
			}
		],
		"cosmo_sigma_profile": { 
			"-0.025": 0.0,
			"-0.024": 0.0,
			"-0.023": 0.0,
			"-0.022": 0.0,
			"-0.021": 0.0,
			"-0.02": 0.0,
			"-0.019": 0.0,
			"-0.018": 0.0,
			"-0.017": 0.0,
			"-0.016": 0.177466178071,
			"-0.015": 1.15511057158,
			"-0.014": 2.10531133287,
			"-0.013": 1.68009400624,
			"-0.012": 1.73869218453,
			"-0.011": 1.95495245356,
			"-0.01": 1.5426638972,
			"-0.009": 1.58666289361,
			"-0.008": 1.66077923898,
			"-0.007": 1.87282344285,
			"-0.006": 2.44735870578,
			"-0.005": 2.44909722384,
			"-0.004": 8.47724508842,
			"-0.003": 29.2399308406,
			"-0.002": 67.1477781528,
			"-0.001": 88.6021929914,
			"0.0": 81.7140830257,
			"0.001": 74.5664357342,
			"0.002": 51.0026705732,
			"0.003": 13.7366519982,
			"0.004": 7.36607657078,
			"0.005": 7.01046607688,
			"0.006": 5.7573771161,
			"0.007": 3.92123408146,
			"0.008": 3.37933436233,
			"0.009": 2.8935314515,
			"0.01": 3.4676766682,
			"0.011": 3.0870451316,
			"0.012": 3.07505299536,
			"0.013": 2.35458824193,
			"0.014": 0.685194131481,
			"0.015": 0.0318892127801,
			"0.016": 0.0,
			"0.017": 0.0,
			"0.018": 0.0,
			"0.019": 0.0,
			"0.02": 0.0,
			"0.021": 0.0,
			"0.022": 0.0,
			"0.023": 0.0,
			"0.024": 0.0,
			"0.025": 0.0
		}
	}
}
