{
	 "smiles": "CC1=NC(=NC(Cl)=C1)C1=NC=CC=C1", 
	 "Tm": 344.15, 
	 "num_atms": 22, 
	 "gaussian": { 
		 "optdone": 1, 
		 "sigma_profile": "yes", 
		 "theory": "DFT", 
		 "functional": "B3LYP", 
		 "basiset": "6-31G**", 
		 "properties": { 
			 "R2extent": 3916.4195, 
			 "electric_dipole_moment_norm": 3.7383837069, 
			 "electric_quadrupole_moment_norm": 14.8509736486, 
			 "total_energy": -1010.33678706, 
			 "HOMO_LUMO_gap": 0.18188, 
			 "cosmo_polarized_energy": -12.59, 
			 "cosmo_cavitation_energy": 28.84, 
			 "cosmo_dispersion_energy": -21.44, 
			 "cosmo_repulsion_energy": 1.7, 
			 "cosmo_total_nonelectrostatic_energy": 9.1, 
			 "SMD_solvation_energy": 1.33 
		},
		"coords": [
			{
				"x": -3.3498237563,
				"y": -0.7451890578,
				"z": 1.1081846991,
				"element": "C" 
			},
			{
				"x": -1.8568296409,
				"y": -0.8950446245,
				"z": 1.2405810825,
				"element": "C" 
			},
			{
				"x": -1.0865010404,
				"y": -0.2349970464,
				"z": 0.3654480344,
				"element": "N" 
			},
			{
				"x": 0.2449172147,
				"y": -0.3664219835,
				"z": 0.4807667324,
				"element": "C" 
			},
			{
				"x": 0.8739017608,
				"y": -1.1088956557,
				"z": 1.4058046039,
				"element": "N" 
			},
			{
				"x": 0.098779526,
				"y": -1.7497408106,
				"z": 2.2565346606,
				"element": "C" 
			},
			{
				"x": 0.8967819526,
				"y": -2.7308246807,
				"z": 3.4801342622,
				"element": "Cl" 
			},
			{
				"x": -1.2916279053,
				"y": -1.6946008806,
				"z": 2.2411846369,
				"element": "C" 
			},
			{
				"x": 1.0845179943,
				"y": 0.3788656911,
				"z": -0.5062158858,
				"element": "C" 
			},
			{
				"x": 2.4163990237,
				"y": 0.2536516053,
				"z": -0.3982948138,
				"element": "N" 
			},
			{
				"x": 3.1763852688,
				"y": 0.9136705293,
				"z": -1.2729412173,
				"element": "C" 
			},
			{
				"x": 2.6646797991,
				"y": 1.7243712853,
				"z": -2.2905307483,
				"element": "C" 
			},
			{
				"x": 1.2807768097,
				"y": 1.8501342844,
				"z": -2.3971459166,
				"element": "C" 
			},
			{
				"x": 0.4723950936,
				"y": 1.167687973,
				"z": -1.4918420306,
				"element": "C" 
			},
			{
				"x": -3.5825559987,
				"y": -0.0844985632,
				"z": 0.2722612406,
				"element": "H" 
			},
			{
				"x": -3.7828891992,
				"y": -0.3278310324,
				"z": 2.0237687978,
				"element": "H" 
			},
			{
				"x": -3.8260259455,
				"y": -1.71691652,
				"z": 0.9378826953,
				"element": "H" 
			},
			{
				"x": -1.8953306183,
				"y": -2.2365778833,
				"z": 2.9586278059,
				"element": "H" 
			},
			{
				"x": 4.2523635455,
				"y": 0.7912402302,
				"z": -1.1584975297,
				"element": "H" 
			},
			{
				"x": 3.3346163944,
				"y": 2.2373445725,
				"z": -2.973444779,
				"element": "H" 
			},
			{
				"x": 0.8367476112,
				"y": 2.4688748945,
				"z": -3.1717116069,
				"element": "H" 
			},
			{
				"x": -0.6080778898,
				"y": 1.2289976731,
				"z": -1.5278547234,
				"element": "H" 
			}
		],
		 "valence_orbital": [ 
			{
				"type": "occ",
				"energy": -0.29046,
				"method": "rhf"
			},
			{
				"type": "occ",
				"energy": -0.28477,
				"method": "rhf"
			},
			{
				"type": "occ",
				"energy": -0.26662,
				"method": "rhf"
			},
			{
				"type": "occ",
				"energy": -0.25046,
				"method": "rhf"
			},
			{
				"type": "occ",
				"energy": -0.24763,
				"method": "rhf"
			},
			{
				"type": "unocc",
				"energy": -0.06575,
				"method": "rhf"
			},
			{
				"type": "unocc",
				"energy": -0.04197,
				"method": "rhf"
			},
			{
				"type": "unocc",
				"energy": -0.01816,
				"method": "rhf"
			},
			{
				"type": "unocc",
				"energy": 0.01485,
				"method": "rhf"
			},
			{
				"type": "unocc",
				"energy": 0.03151,
				"method": "rhf"
			}
		],
		"cosmo_sigma_profile": { 
			"-0.025": 0.0,
			"-0.024": 0.0,
			"-0.023": 0.0,
			"-0.022": 0.0,
			"-0.021": 0.0,
			"-0.02": 0.0,
			"-0.019": 0.0,
			"-0.018": 0.0,
			"-0.017": 0.0,
			"-0.016": 0.0,
			"-0.015": 0.0,
			"-0.014": 0.0,
			"-0.013": 0.0,
			"-0.012": 0.0,
			"-0.011": 0.0,
			"-0.01": 0.0,
			"-0.009": 0.794254541233,
			"-0.008": 2.65896595563,
			"-0.007": 7.39916073644,
			"-0.006": 14.2941185722,
			"-0.005": 16.9225455559,
			"-0.004": 14.8086264376,
			"-0.003": 15.7274926894,
			"-0.002": 23.0074785116,
			"-0.001": 24.1678749014,
			"0.0": 17.2189446555,
			"0.001": 19.7038586295,
			"0.002": 22.3623461905,
			"0.003": 14.1954558631,
			"0.004": 12.1754856461,
			"0.005": 5.37992390254,
			"0.006": 4.15929799592,
			"0.007": 3.80684099188,
			"0.008": 3.66280105214,
			"0.009": 1.32226512021,
			"0.01": 1.3850372103,
			"0.011": 1.40000487559,
			"0.012": 1.07700973233,
			"0.013": 1.39125320598,
			"0.014": 1.10457424992,
			"0.015": 0.811227761974,
			"0.016": 0.634825715731,
			"0.017": 1.1339324274,
			"0.018": 0.939135423557,
			"0.019": 0.711284454393,
			"0.02": 0.353836174098,
			"0.021": 0.0,
			"0.022": 0.0,
			"0.023": 0.0,
			"0.024": 0.0,
			"0.025": 0.0
		}
	}
}
