{
	 "smiles": "[O-][N+](=O)C1=CC(=CC(=C1)C(=O)NCCCCC1=CC=CC=C1)[N+]([O-])=O", 
	 "Tm": 439.15, 
	 "num_atms": 42, 
	 "gaussian": { 
		 "optdone": 1, 
		 "sigma_profile": "yes", 
		 "theory": "DFT", 
		 "functional": "B3LYP", 
		 "basiset": "6-31G**", 
		 "properties": { 
			 "R2extent": 12979.1411, 
			 "electric_dipole_moment_norm": 5.49409428569, 
			 "electric_quadrupole_moment_norm": 16.9133757896, 
			 "total_energy": -1198.24641501, 
			 "HOMO_LUMO_gap": 0.12755, 
			 "cosmo_polarized_energy": -20.71, 
			 "cosmo_cavitation_energy": 48.47, 
			 "cosmo_dispersion_energy": -32.18, 
			 "cosmo_repulsion_energy": 2.45, 
			 "cosmo_total_nonelectrostatic_energy": 18.73, 
			 "SMD_solvation_energy": 12.1 
		},
		"coords": [
			{
				"x": -0.1233549603,
				"y": 4.2336015882,
				"z": 5.0950096437,
				"element": "O" 
			},
			{
				"x": 0.7656063731,
				"y": 4.1885476816,
				"z": 4.2485152812,
				"element": "N" 
			},
			{
				"x": 1.4609689118,
				"y": 5.1364566704,
				"z": 3.8948805699,
				"element": "O" 
			},
			{
				"x": 1.0162806179,
				"y": 2.8841459854,
				"z": 3.5995993563,
				"element": "C" 
			},
			{
				"x": 0.2289092332,
				"y": 1.79825389,
				"z": 3.970335993,
				"element": "C" 
			},
			{
				"x": 0.4961189665,
				"y": 0.5881091547,
				"z": 3.3434597724,
				"element": "C" 
			},
			{
				"x": 1.4919362147,
				"y": 0.4477044077,
				"z": 2.3783077098,
				"element": "C" 
			},
			{
				"x": 2.2575748556,
				"y": 1.5594396496,
				"z": 2.0160702705,
				"element": "C" 
			},
			{
				"x": 2.0298104614,
				"y": 2.7862603338,
				"z": 2.6524649042,
				"element": "C" 
			},
			{
				"x": 3.4226715,
				"y": 1.4877034543,
				"z": 1.0559657827,
				"element": "C" 
			},
			{
				"x": 4.4359905871,
				"y": 2.1350214367,
				"z": 1.2963948752,
				"element": "O" 
			},
			{
				"x": 3.3293476207,
				"y": 0.6702072174,
				"z": -0.0373168224,
				"element": "N" 
			},
			{
				"x": 2.1408891668,
				"y": 0.1531843701,
				"z": -0.71834649,
				"element": "C" 
			},
			{
				"x": 2.1273781894,
				"y": -1.3785500667,
				"z": -0.8169039139,
				"element": "C" 
			},
			{
				"x": 0.9131729959,
				"y": -1.9427845058,
				"z": -1.571079903,
				"element": "C" 
			},
			{
				"x": -0.4451666544,
				"y": -1.6820274952,
				"z": -0.8830650799,
				"element": "C" 
			},
			{
				"x": -1.5930514993,
				"y": -2.3745637239,
				"z": -1.5873183444,
				"element": "C" 
			},
			{
				"x": -2.266749598,
				"y": -1.7518379329,
				"z": -2.6469329456,
				"element": "C" 
			},
			{
				"x": -3.2991138906,
				"y": -2.4036550744,
				"z": -3.3228317403,
				"element": "C" 
			},
			{
				"x": -3.6765563161,
				"y": -3.6941591407,
				"z": -2.9470216113,
				"element": "C" 
			},
			{
				"x": -3.015839613,
				"y": -4.324966122,
				"z": -1.891298331,
				"element": "C" 
			},
			{
				"x": -1.9836646036,
				"y": -3.6691231196,
				"z": -1.2188665347,
				"element": "C" 
			},
			{
				"x": -0.3074349179,
				"y": -0.5949105582,
				"z": 3.7091866655,
				"element": "N" 
			},
			{
				"x": -0.0691507896,
				"y": -1.6456008277,
				"z": 3.1139799764,
				"element": "O" 
			},
			{
				"x": -1.1610026429,
				"y": -0.4524238683,
				"z": 4.5789719801,
				"element": "O" 
			},
			{
				"x": -0.5498895158,
				"y": 1.8923659434,
				"z": 4.714629735,
				"element": "H" 
			},
			{
				"x": 1.6630044989,
				"y": -0.5290633645,
				"z": 1.9465396858,
				"element": "H" 
			},
			{
				"x": 2.6440329445,
				"y": 3.6459726242,
				"z": 2.4159964819,
				"element": "H" 
			},
			{
				"x": 4.1883221298,
				"y": 0.6808059351,
				"z": -0.5750062833,
				"element": "H" 
			},
			{
				"x": 1.2576395546,
				"y": 0.5209289116,
				"z": -0.1939982223,
				"element": "H" 
			},
			{
				"x": 2.1004449169,
				"y": 0.5849407208,
				"z": -1.7276927684,
				"element": "H" 
			},
			{
				"x": 2.1684382213,
				"y": -1.8085520756,
				"z": 0.1923715924,
				"element": "H" 
			},
			{
				"x": 3.0474121657,
				"y": -1.7024569431,
				"z": -1.3202616473,
				"element": "H" 
			},
			{
				"x": 0.8849663475,
				"y": -1.5358841472,
				"z": -2.5909011541,
				"element": "H" 
			},
			{
				"x": 1.0451645098,
				"y": -3.0250947557,
				"z": -1.6830304547,
				"element": "H" 
			},
			{
				"x": -0.3911015133,
				"y": -2.0209905963,
				"z": 0.1594046138,
				"element": "H" 
			},
			{
				"x": -0.6441680113,
				"y": -0.603629702,
				"z": -0.8509093168,
				"element": "H" 
			},
			{
				"x": -1.9832951079,
				"y": -0.7436139767,
				"z": -2.941472342,
				"element": "H" 
			},
			{
				"x": -3.8118988753,
				"y": -1.9019057614,
				"z": -4.1387944092,
				"element": "H" 
			},
			{
				"x": -4.4826899987,
				"y": -4.2017062935,
				"z": -3.4688570224,
				"element": "H" 
			},
			{
				"x": -3.3076293242,
				"y": -5.3261488935,
				"z": -1.5865740284,
				"element": "H" 
			},
			{
				"x": -1.4789231508,
				"y": -4.1638010304,
				"z": -0.3922055244,
				"element": "H" 
			}
		],
		 "valence_orbital": [ 
			{
				"type": "occ",
				"energy": -0.30994,
				"method": "rhf"
			},
			{
				"type": "occ",
				"energy": -0.28031,
				"method": "rhf"
			},
			{
				"type": "occ",
				"energy": -0.26802,
				"method": "rhf"
			},
			{
				"type": "occ",
				"energy": -0.25236,
				"method": "rhf"
			},
			{
				"type": "occ",
				"energy": -0.24497,
				"method": "rhf"
			},
			{
				"type": "unocc",
				"energy": -0.11742,
				"method": "rhf"
			},
			{
				"type": "unocc",
				"energy": -0.10796,
				"method": "rhf"
			},
			{
				"type": "unocc",
				"energy": -0.06138,
				"method": "rhf"
			},
			{
				"type": "unocc",
				"energy": -0.01395,
				"method": "rhf"
			},
			{
				"type": "unocc",
				"energy": -0.00438,
				"method": "rhf"
			}
		],
		"cosmo_sigma_profile": { 
			"-0.025": 0.0,
			"-0.024": 0.0,
			"-0.023": 0.0,
			"-0.022": 0.0,
			"-0.021": 0.0,
			"-0.02": 0.0,
			"-0.019": 0.0,
			"-0.018": 0.0,
			"-0.017": 0.0,
			"-0.016": 0.0,
			"-0.015": 0.0,
			"-0.014": 0.633200974009,
			"-0.013": 1.13647922987,
			"-0.012": 1.27135457571,
			"-0.011": 0.86505464825,
			"-0.01": 1.16046704755,
			"-0.009": 1.00278334655,
			"-0.008": 5.36250365026,
			"-0.007": 7.04837457754,
			"-0.006": 15.4991623699,
			"-0.005": 31.1066216321,
			"-0.004": 41.241267979,
			"-0.003": 45.4831328837,
			"-0.002": 32.9467751825,
			"-0.001": 26.2137142479,
			"0.0": 22.2512315089,
			"0.001": 18.8514948019,
			"0.002": 15.7145758929,
			"0.003": 15.0576717336,
			"0.004": 15.4009227478,
			"0.005": 16.3476524274,
			"0.006": 20.8230306023,
			"0.007": 20.9525381777,
			"0.008": 10.1854694954,
			"0.009": 6.11615604117,
			"0.01": 1.78458979485,
			"0.011": 2.03940577881,
			"0.012": 2.77785764791,
			"0.013": 5.3322102802,
			"0.014": 1.04065394633,
			"0.015": 0.0,
			"0.016": 0.0,
			"0.017": 0.0,
			"0.018": 0.0,
			"0.019": 0.0,
			"0.02": 0.0,
			"0.021": 0.0,
			"0.022": 0.0,
			"0.023": 0.0,
			"0.024": 0.0,
			"0.025": 0.0
		}
	}
}
