{
	 "smiles": "CC(=C/C=C/C1=CC=CC=C1)C(O)=O", 
	 "Tm": 432.15, 
	 "num_atms": 26, 
	 "gaussian": { 
		 "optdone": 1, 
		 "sigma_profile": "yes", 
		 "theory": "DFT", 
		 "functional": "B3LYP", 
		 "basiset": "6-31G**", 
		 "properties": { 
			 "R2extent": 5767.884, 
			 "electric_dipole_moment_norm": 2.36290504676, 
			 "electric_quadrupole_moment_norm": 15.1523580089, 
			 "total_energy": -614.957759727, 
			 "HOMO_LUMO_gap": 0.14086, 
			 "cosmo_polarized_energy": -11.25, 
			 "cosmo_cavitation_energy": 30.97, 
			 "cosmo_dispersion_energy": -22.33, 
			 "cosmo_repulsion_energy": 1.76, 
			 "cosmo_total_nonelectrostatic_energy": 10.39, 
			 "SMD_solvation_energy": 6.68 
		},
		"coords": [
			{
				"x": -3.64027932,
				"y": 1.0944672822,
				"z": -0.5059230689,
				"element": "C" 
			},
			{
				"x": -2.7659156242,
				"y": 2.1859225486,
				"z": -1.0642333008,
				"element": "C" 
			},
			{
				"x": -1.4224265555,
				"y": 2.2952440773,
				"z": -0.9010728704,
				"element": "C" 
			},
			{
				"x": -0.5511495887,
				"y": 1.4090238478,
				"z": -0.1717993314,
				"element": "C" 
			},
			{
				"x": 0.7830538984,
				"y": 1.6275876301,
				"z": -0.0816258785,
				"element": "C" 
			},
			{
				"x": 1.7778557099,
				"y": 0.8182308025,
				"z": 0.619392069,
				"element": "C" 
			},
			{
				"x": 3.1256163795,
				"y": 1.2256396434,
				"z": 0.5861017807,
				"element": "C" 
			},
			{
				"x": 4.1176497248,
				"y": 0.4944108694,
				"z": 1.2355740526,
				"element": "C" 
			},
			{
				"x": 3.7846645932,
				"y": -0.6656558657,
				"z": 1.9363982949,
				"element": "C" 
			},
			{
				"x": 2.451110129,
				"y": -1.0859764642,
				"z": 1.9806951311,
				"element": "C" 
			},
			{
				"x": 1.4606273476,
				"y": -0.3561641921,
				"z": 1.3323510406,
				"element": "C" 
			},
			{
				"x": -3.4077547812,
				"y": 3.2548475505,
				"z": -1.8722265676,
				"element": "C" 
			},
			{
				"x": -4.7520125398,
				"y": 3.076486195,
				"z": -1.9901947779,
				"element": "O" 
			},
			{
				"x": -2.8457568655,
				"y": 4.2028264328,
				"z": -2.391786947,
				"element": "O" 
			},
			{
				"x": -4.4155789353,
				"y": 1.5093337061,
				"z": 0.1472792477,
				"element": "H" 
			},
			{
				"x": -4.1637004944,
				"y": 0.5631762429,
				"z": -1.3081652642,
				"element": "H" 
			},
			{
				"x": -3.0679340787,
				"y": 0.3638062547,
				"z": 0.0681169145,
				"element": "H" 
			},
			{
				"x": -0.9538214584,
				"y": 3.1539124898,
				"z": -1.3785865243,
				"element": "H" 
			},
			{
				"x": -0.98993397,
				"y": 0.5429042207,
				"z": 0.3159995904,
				"element": "H" 
			},
			{
				"x": 1.1805220743,
				"y": 2.5081241105,
				"z": -0.5863923221,
				"element": "H" 
			},
			{
				"x": 3.3898998684,
				"y": 2.1285980269,
				"z": 0.0415329192,
				"element": "H" 
			},
			{
				"x": 5.149839663,
				"y": 0.8300927146,
				"z": 1.1945713412,
				"element": "H" 
			},
			{
				"x": 4.5547933483,
				"y": -1.2387698485,
				"z": 2.4441922202,
				"element": "H" 
			},
			{
				"x": 2.1845927,
				"y": -1.9879029561,
				"z": 2.5243537082,
				"element": "H" 
			},
			{
				"x": 0.4322522959,
				"y": -0.7004882689,
				"z": 1.379901389,
				"element": "H" 
			},
			{
				"x": -5.0644135205,
				"y": 3.8212229497,
				"z": -2.5296528462,
				"element": "H" 
			}
		],
		 "valence_orbital": [ 
			{
				"type": "occ",
				"energy": -0.30962,
				"method": "rhf"
			},
			{
				"type": "occ",
				"energy": -0.27367,
				"method": "rhf"
			},
			{
				"type": "occ",
				"energy": -0.26705,
				"method": "rhf"
			},
			{
				"type": "occ",
				"energy": -0.25819,
				"method": "rhf"
			},
			{
				"type": "occ",
				"energy": -0.21265,
				"method": "rhf"
			},
			{
				"type": "unocc",
				"energy": -0.07179,
				"method": "rhf"
			},
			{
				"type": "unocc",
				"energy": -0.00792,
				"method": "rhf"
			},
			{
				"type": "unocc",
				"energy": 0.00056,
				"method": "rhf"
			},
			{
				"type": "unocc",
				"energy": 0.05992,
				"method": "rhf"
			},
			{
				"type": "unocc",
				"energy": 0.0832,
				"method": "rhf"
			}
		],
		"cosmo_sigma_profile": { 
			"-0.025": 0.0,
			"-0.024": 0.0,
			"-0.023": 0.0,
			"-0.022": 0.0,
			"-0.021": 0.0,
			"-0.02": 0.0,
			"-0.019": 0.0,
			"-0.018": 0.278375310076,
			"-0.017": 0.882133108114,
			"-0.016": 0.698482288522,
			"-0.015": 1.3304238217,
			"-0.014": 0.625800445995,
			"-0.013": 0.330014275876,
			"-0.012": 0.704503636579,
			"-0.011": 0.242716997888,
			"-0.01": 1.41386736135,
			"-0.009": 0.632850355317,
			"-0.008": 1.85141860973,
			"-0.007": 4.55085484065,
			"-0.006": 14.3242414585,
			"-0.005": 17.0321950968,
			"-0.004": 18.1358192172,
			"-0.003": 16.1251477441,
			"-0.002": 17.3742054903,
			"-0.001": 19.4610650469,
			"0.0": 18.9367232972,
			"0.001": 16.1772500509,
			"0.002": 17.0617442159,
			"0.003": 22.2637319076,
			"0.004": 18.9544683401,
			"0.005": 13.5313787681,
			"0.006": 4.46000207446,
			"0.007": 2.85766785638,
			"0.008": 2.43502790025,
			"0.009": 2.90805773697,
			"0.01": 2.20535395785,
			"0.011": 1.71687021048,
			"0.012": 5.09629165115,
			"0.013": 2.33186804715,
			"0.014": 0.0,
			"0.015": 0.0,
			"0.016": 0.0,
			"0.017": 0.0,
			"0.018": 0.0,
			"0.019": 0.0,
			"0.02": 0.0,
			"0.021": 0.0,
			"0.022": 0.0,
			"0.023": 0.0,
			"0.024": 0.0,
			"0.025": 0.0
		}
	}
}
