{
	 "smiles": "FC1=CC2=C(NC=C2C=O)C=C1", 
	 "Tm": 437.15, 
	 "num_atms": 18, 
	 "gaussian": { 
		 "optdone": 1, 
		 "sigma_profile": "yes", 
		 "theory": "DFT", 
		 "functional": "B3LYP", 
		 "basiset": "6-31G**", 
		 "properties": { 
			 "R2extent": 2938.9388, 
			 "electric_dipole_moment_norm": 4.68550636218, 
			 "electric_quadrupole_moment_norm": 9.80367810365, 
			 "total_energy": -576.377815474, 
			 "HOMO_LUMO_gap": 0.17869, 
			 "cosmo_polarized_energy": -14.38, 
			 "cosmo_cavitation_energy": 23.49, 
			 "cosmo_dispersion_energy": -17.14, 
			 "cosmo_repulsion_energy": 1.32, 
			 "cosmo_total_nonelectrostatic_energy": 7.67, 
			 "SMD_solvation_energy": 5.5 
		},
		"coords": [
			{
				"x": 2.6291641063,
				"y": -2.5925084874,
				"z": -3.45600315,
				"element": "F" 
			},
			{
				"x": 1.8474015013,
				"y": -2.3402609152,
				"z": -2.3818892495,
				"element": "C" 
			},
			{
				"x": 2.0025099817,
				"y": -1.1391317138,
				"z": -1.7128735,
				"element": "C" 
			},
			{
				"x": 1.1763716286,
				"y": -0.9047976857,
				"z": -0.6005468607,
				"element": "C" 
			},
			{
				"x": 0.2343505542,
				"y": -1.8978299759,
				"z": -0.2206561399,
				"element": "C" 
			},
			{
				"x": -0.4423134478,
				"y": -1.4164130997,
				"z": 0.8944717915,
				"element": "N" 
			},
			{
				"x": 0.0312288192,
				"y": -0.1810191189,
				"z": 1.2225163044,
				"element": "C" 
			},
			{
				"x": 1.0297933537,
				"y": 0.1873281111,
				"z": 0.337311866,
				"element": "C" 
			},
			{
				"x": 1.7548767662,
				"y": 1.4496241597,
				"z": 0.3957699423,
				"element": "C" 
			},
			{
				"x": 1.5625229496,
				"y": 2.3194249916,
				"z": 1.2324973732,
				"element": "O" 
			},
			{
				"x": 0.0924356092,
				"y": -3.1048730198,
				"z": -0.9089445693,
				"element": "C" 
			},
			{
				"x": 0.9167876708,
				"y": -3.3215113122,
				"z": -2.0067682888,
				"element": "C" 
			},
			{
				"x": 2.7412524035,
				"y": -0.423240462,
				"z": -2.0550891831,
				"element": "H" 
			},
			{
				"x": -1.172896428,
				"y": -1.9063729155,
				"z": 1.3866988355,
				"element": "H" 
			},
			{
				"x": -0.3581124926,
				"y": 0.3764655427,
				"z": 2.0618453652,
				"element": "H" 
			},
			{
				"x": 2.5280004044,
				"y": 1.5853260003,
				"z": -0.3920079828,
				"element": "H" 
			},
			{
				"x": -0.6335055492,
				"y": -3.8525556792,
				"z": -0.6038167335,
				"element": "H" 
			},
			{
				"x": 0.8589321688,
				"y": -4.2363544198,
				"z": -2.5854158205,
				"element": "H" 
			}
		],
		 "valence_orbital": [ 
			{
				"type": "occ",
				"energy": -0.34191,
				"method": "rhf"
			},
			{
				"type": "occ",
				"energy": -0.29312,
				"method": "rhf"
			},
			{
				"type": "occ",
				"energy": -0.24378,
				"method": "rhf"
			},
			{
				"type": "occ",
				"energy": -0.235,
				"method": "rhf"
			},
			{
				"type": "occ",
				"energy": -0.22528,
				"method": "rhf"
			},
			{
				"type": "unocc",
				"energy": -0.04659,
				"method": "rhf"
			},
			{
				"type": "unocc",
				"energy": -0.01881,
				"method": "rhf"
			},
			{
				"type": "unocc",
				"energy": 0.01596,
				"method": "rhf"
			},
			{
				"type": "unocc",
				"energy": 0.06037,
				"method": "rhf"
			},
			{
				"type": "unocc",
				"energy": 0.08741,
				"method": "rhf"
			}
		],
		"cosmo_sigma_profile": { 
			"-0.025": 0.0,
			"-0.024": 0.0,
			"-0.023": 0.0,
			"-0.022": 0.0,
			"-0.021": 0.0,
			"-0.02": 0.0,
			"-0.019": 0.0,
			"-0.018": 0.0,
			"-0.017": 1.00482930701,
			"-0.016": 2.1784207269,
			"-0.015": 1.47132893421,
			"-0.014": 0.967163546403,
			"-0.013": 1.4715445512,
			"-0.012": 1.58942643968,
			"-0.011": 1.07679669413,
			"-0.01": 2.11358497793,
			"-0.009": 3.2763944586,
			"-0.008": 2.89952030991,
			"-0.007": 8.32370038908,
			"-0.006": 9.25856307431,
			"-0.005": 9.59608660407,
			"-0.004": 8.18279037068,
			"-0.003": 7.74971768566,
			"-0.002": 7.67066114688,
			"-0.001": 7.93258210703,
			"0.0": 9.85817691752,
			"0.001": 12.8325615542,
			"0.002": 20.9708760389,
			"0.003": 20.0404602295,
			"0.004": 18.7175128326,
			"0.005": 10.617562472,
			"0.006": 1.4248032489,
			"0.007": 1.29572201326,
			"0.008": 1.45242585365,
			"0.009": 1.73134260111,
			"0.01": 2.10097125329,
			"0.011": 2.32532004026,
			"0.012": 4.24200817367,
			"0.013": 3.63364891825,
			"0.014": 1.2524548715,
			"0.015": 0.0632245937049,
			"0.016": 0.0,
			"0.017": 0.0,
			"0.018": 0.0,
			"0.019": 0.0,
			"0.02": 0.0,
			"0.021": 0.0,
			"0.022": 0.0,
			"0.023": 0.0,
			"0.024": 0.0,
			"0.025": 0.0
		}
	}
}
