{
	 "smiles": "CC(C)C(Br)C(N)=O", 
	 "Tm": 405.15, 
	 "num_atms": 18, 
	 "gaussian": { 
		 "optdone": 1, 
		 "sigma_profile": "yes", 
		 "theory": "DFT", 
		 "functional": "B3LYP", 
		 "basiset": "6-31G**", 
		 "properties": { 
			 "R2extent": 2396.0386, 
			 "electric_dipole_moment_norm": 1.76165847144, 
			 "electric_quadrupole_moment_norm": 12.3474072776, 
			 "total_energy": -2897.9693243, 
			 "HOMO_LUMO_gap": 0.23634, 
			 "cosmo_polarized_energy": -9.56, 
			 "cosmo_cavitation_energy": 22.34, 
			 "cosmo_dispersion_energy": -16.59, 
			 "cosmo_repulsion_energy": 1.38, 
			 "cosmo_total_nonelectrostatic_energy": 7.14, 
			 "SMD_solvation_energy": 3.61 
		},
		"coords": [
			{
				"x": -0.6793495836,
				"y": 1.2026994795,
				"z": -2.3502461305,
				"element": "C" 
			},
			{
				"x": -0.6635778371,
				"y": 0.5084536604,
				"z": -0.9758251367,
				"element": "C" 
			},
			{
				"x": 0.7638526195,
				"y": 0.3695270646,
				"z": -0.4313526568,
				"element": "C" 
			},
			{
				"x": -1.6224714518,
				"y": 1.2266675906,
				"z": 0.0042195922,
				"element": "C" 
			},
			{
				"x": -2.0347766154,
				"y": 0.0211669675,
				"z": 1.5626444068,
				"element": "Br" 
			},
			{
				"x": -1.1411040853,
				"y": 2.6187316024,
				"z": 0.4346795474,
				"element": "C" 
			},
			{
				"x": -0.5738593903,
				"y": 2.7610443317,
				"z": 1.6577802567,
				"element": "N" 
			},
			{
				"x": -1.2371503693,
				"y": 3.5316312611,
				"z": -0.3767904451,
				"element": "O" 
			},
			{
				"x": -0.3031281529,
				"y": 2.2258090753,
				"z": -2.2852441269,
				"element": "H" 
			},
			{
				"x": -1.6919941655,
				"y": 1.2463428113,
				"z": -2.764170223,
				"element": "H" 
			},
			{
				"x": -0.0527064275,
				"y": 0.6403507811,
				"z": -3.0502937967,
				"element": "H" 
			},
			{
				"x": -1.0802375736,
				"y": -0.4973540238,
				"z": -1.1055715913,
				"element": "H" 
			},
			{
				"x": 1.3721378433,
				"y": -0.2199087573,
				"z": -1.1241946626,
				"element": "H" 
			},
			{
				"x": 0.7752325371,
				"y": -0.1349446447,
				"z": 0.5390948774,
				"element": "H" 
			},
			{
				"x": 1.2439152598,
				"y": 1.3470759753,
				"z": -0.3165578906,
				"element": "H" 
			},
			{
				"x": -2.5972548676,
				"y": 1.3642663715,
				"z": -0.462053926,
				"element": "H" 
			},
			{
				"x": -0.6324715054,
				"y": 2.0295347645,
				"z": 2.3492683681,
				"element": "H" 
			},
			{
				"x": -0.2951562344,
				"y": 3.690705689,
				"z": 1.9332135376,
				"element": "H" 
			}
		],
		 "valence_orbital": [ 
			{
				"type": "occ",
				"energy": -0.33932,
				"method": "rhf"
			},
			{
				"type": "occ",
				"energy": -0.2945,
				"method": "rhf"
			},
			{
				"type": "occ",
				"energy": -0.28545,
				"method": "rhf"
			},
			{
				"type": "occ",
				"energy": -0.27376,
				"method": "rhf"
			},
			{
				"type": "occ",
				"energy": -0.25505,
				"method": "rhf"
			},
			{
				"type": "unocc",
				"energy": -0.01871,
				"method": "rhf"
			},
			{
				"type": "unocc",
				"energy": 0.02164,
				"method": "rhf"
			},
			{
				"type": "unocc",
				"energy": 0.07956,
				"method": "rhf"
			},
			{
				"type": "unocc",
				"energy": 0.10047,
				"method": "rhf"
			},
			{
				"type": "unocc",
				"energy": 0.12759,
				"method": "rhf"
			}
		],
		"cosmo_sigma_profile": { 
			"-0.025": 0.0,
			"-0.024": 0.0,
			"-0.023": 0.0,
			"-0.022": 0.0,
			"-0.021": 0.0,
			"-0.02": 0.0,
			"-0.019": 0.0,
			"-0.018": 0.0,
			"-0.017": 0.0,
			"-0.016": 0.0,
			"-0.015": 0.345115408463,
			"-0.014": 1.31466137805,
			"-0.013": 1.08219788834,
			"-0.012": 2.16962220338,
			"-0.011": 1.70297378229,
			"-0.01": 2.34574573593,
			"-0.009": 1.62532141518,
			"-0.008": 2.2373752251,
			"-0.007": 3.07426931453,
			"-0.006": 4.50678766178,
			"-0.005": 3.55682742792,
			"-0.004": 7.66269144259,
			"-0.003": 16.5192030778,
			"-0.002": 18.261417697,
			"-0.001": 17.5885496505,
			"0.0": 20.0396024204,
			"0.001": 19.5821264785,
			"0.002": 10.8431446722,
			"0.003": 6.72254083949,
			"0.004": 7.67888306049,
			"0.005": 8.36191223406,
			"0.006": 3.81207281185,
			"0.007": 1.33510253673,
			"0.008": 1.2479757649,
			"0.009": 1.62444707515,
			"0.01": 1.07863634988,
			"0.011": 1.70164060054,
			"0.012": 2.26441986672,
			"0.013": 4.78775971815,
			"0.014": 2.09967046014,
			"0.015": 0.00601108392383,
			"0.016": 0.0,
			"0.017": 0.0,
			"0.018": 0.0,
			"0.019": 0.0,
			"0.02": 0.0,
			"0.021": 0.0,
			"0.022": 0.0,
			"0.023": 0.0,
			"0.024": 0.0,
			"0.025": 0.0
		}
	}
}
