{
	 "smiles": "CC1=NN=NN1C(CC1=CC=C(F)C=C1)C(O)=O", 
	 "Tm": 426.15, 
	 "num_atms": 29, 
	 "gaussian": { 
		 "optdone": 1, 
		 "sigma_profile": "yes", 
		 "theory": "DFT", 
		 "functional": "B3LYP", 
		 "basiset": "6-31G**", 
		 "properties": { 
			 "R2extent": 5648.9677, 
			 "electric_dipole_moment_norm": 5.09319882785, 
			 "electric_quadrupole_moment_norm": 27.3357419954, 
			 "total_energy": -895.053096238, 
			 "HOMO_LUMO_gap": 0.21571, 
			 "cosmo_polarized_energy": -21.46, 
			 "cosmo_cavitation_energy": 34.8, 
			 "cosmo_dispersion_energy": -23.7, 
			 "cosmo_repulsion_energy": 1.81, 
			 "cosmo_total_nonelectrostatic_energy": 12.91, 
			 "SMD_solvation_energy": 5.55 
		},
		"coords": [
			{
				"x": -2.6192515568,
				"y": 2.6750376741,
				"z": 1.8187378853,
				"element": "C" 
			},
			{
				"x": -2.7631882114,
				"y": 1.1922205654,
				"z": 1.8174662093,
				"element": "C" 
			},
			{
				"x": -3.7217689012,
				"y": 0.5002238555,
				"z": 2.4061230455,
				"element": "N" 
			},
			{
				"x": -3.4510990184,
				"y": -0.8119974881,
				"z": 2.1658117881,
				"element": "N" 
			},
			{
				"x": -2.3774464506,
				"y": -0.9462872052,
				"z": 1.4625993544,
				"element": "N" 
			},
			{
				"x": -1.922642135,
				"y": 0.3113704123,
				"z": 1.2180023033,
				"element": "N" 
			},
			{
				"x": -0.6846083392,
				"y": 0.5310699867,
				"z": 0.4682490573,
				"element": "C" 
			},
			{
				"x": -0.6241172203,
				"y": -0.3283160532,
				"z": -0.8090007726,
				"element": "C" 
			},
			{
				"x": 0.4139397578,
				"y": 0.1661887723,
				"z": -1.7976840828,
				"element": "C" 
			},
			{
				"x": 0.0863125289,
				"y": 1.1725235206,
				"z": -2.7183733731,
				"element": "C" 
			},
			{
				"x": 1.0234367219,
				"y": 1.6519524736,
				"z": -3.6329987943,
				"element": "C" 
			},
			{
				"x": 2.3024879869,
				"y": 1.1072021492,
				"z": -3.6194821981,
				"element": "C" 
			},
			{
				"x": 3.2161039616,
				"y": 1.5610911356,
				"z": -4.5021105432,
				"element": "F" 
			},
			{
				"x": 2.6641309511,
				"y": 0.1061981735,
				"z": -2.7255670455,
				"element": "C" 
			},
			{
				"x": 1.7139445049,
				"y": -0.3587648265,
				"z": -1.8163017888,
				"element": "C" 
			},
			{
				"x": 0.5019959528,
				"y": 0.2719121278,
				"z": 1.4118772997,
				"element": "C" 
			},
			{
				"x": 0.5474102888,
				"y": 1.2102808343,
				"z": 2.3826153034,
				"element": "O" 
			},
			{
				"x": 1.2845404298,
				"y": -0.6426897912,
				"z": 1.3278175751,
				"element": "O" 
			},
			{
				"x": -2.6568456565,
				"y": 3.0863077174,
				"z": 0.8039743524,
				"element": "H" 
			},
			{
				"x": -1.6710876793,
				"y": 2.9764417785,
				"z": 2.2744627721,
				"element": "H" 
			},
			{
				"x": -3.4417590206,
				"y": 3.1009949162,
				"z": 2.3942701909,
				"element": "H" 
			},
			{
				"x": -0.6691668799,
				"y": 1.592966033,
				"z": 0.2062210019,
				"element": "H" 
			},
			{
				"x": -0.4317297156,
				"y": -1.36329294,
				"z": -0.5198087134,
				"element": "H" 
			},
			{
				"x": -1.6175476593,
				"y": -0.2986457346,
				"z": -1.2667688749,
				"element": "H" 
			},
			{
				"x": -0.9213827314,
				"y": 1.581639559,
				"z": -2.7324368841,
				"element": "H" 
			},
			{
				"x": 0.7761019673,
				"y": 2.4248644048,
				"z": -4.3525685916,
				"element": "H" 
			},
			{
				"x": 3.6710518805,
				"y": -0.2962680205,
				"z": -2.7503895821,
				"element": "H" 
			},
			{
				"x": 1.9847493528,
				"y": -1.1317315947,
				"z": -1.1049740105,
				"element": "H" 
			},
			{
				"x": 1.2798348903,
				"y": 0.9711075643,
				"z": 2.9761371163,
				"element": "H" 
			}
		],
		 "valence_orbital": [ 
			{
				"type": "occ",
				"energy": -0.29392,
				"method": "rhf"
			},
			{
				"type": "occ",
				"energy": -0.29264,
				"method": "rhf"
			},
			{
				"type": "occ",
				"energy": -0.28098,
				"method": "rhf"
			},
			{
				"type": "occ",
				"energy": -0.26914,
				"method": "rhf"
			},
			{
				"type": "occ",
				"energy": -0.24943,
				"method": "rhf"
			},
			{
				"type": "unocc",
				"energy": -0.03372,
				"method": "rhf"
			},
			{
				"type": "unocc",
				"energy": -0.0219,
				"method": "rhf"
			},
			{
				"type": "unocc",
				"energy": -0.01876,
				"method": "rhf"
			},
			{
				"type": "unocc",
				"energy": -0.00497,
				"method": "rhf"
			},
			{
				"type": "unocc",
				"energy": 0.02641,
				"method": "rhf"
			}
		],
		"cosmo_sigma_profile": { 
			"-0.025": 0.0,
			"-0.024": 0.0,
			"-0.023": 0.0,
			"-0.022": 0.0,
			"-0.021": 0.0,
			"-0.02": 0.0,
			"-0.019": 1.03178638151,
			"-0.018": 0.744054593331,
			"-0.017": 1.04751241106,
			"-0.016": 0.920513400917,
			"-0.015": 0.832360202449,
			"-0.014": 0.63880753675,
			"-0.013": 0.477089488718,
			"-0.012": 1.0503739891,
			"-0.011": 1.01412624541,
			"-0.01": 2.05178621055,
			"-0.009": 3.71925597269,
			"-0.008": 5.17235015065,
			"-0.007": 11.1201094779,
			"-0.006": 16.1336090837,
			"-0.005": 16.798340369,
			"-0.004": 22.3496351825,
			"-0.003": 19.414101789,
			"-0.002": 15.6801271455,
			"-0.001": 12.5324981442,
			"0.0": 14.9983416159,
			"0.001": 18.4292237229,
			"0.002": 16.3384030379,
			"0.003": 19.1290625898,
			"0.004": 22.5517969361,
			"0.005": 9.38374147476,
			"0.006": 4.76385284974,
			"0.007": 5.55444970458,
			"0.008": 6.66986124838,
			"0.009": 6.46746599853,
			"0.01": 7.83499007455,
			"0.011": 4.34803860396,
			"0.012": 3.04776404602,
			"0.013": 2.71745917801,
			"0.014": 1.70149843036,
			"0.015": 0.843921559903,
			"0.016": 0.116343362513,
			"0.017": 0.0,
			"0.018": 0.0,
			"0.019": 0.0,
			"0.02": 0.0,
			"0.021": 0.0,
			"0.022": 0.0,
			"0.023": 0.0,
			"0.024": 0.0,
			"0.025": 0.0
		}
	}
}
