{
	 "smiles": "CNS(=O)(=O)C1=CC=C(Cl)S1", 
	 "Tm": 319.15, 
	 "num_atms": 17, 
	 "gaussian": { 
		 "optdone": 1, 
		 "sigma_profile": "yes", 
		 "theory": "DFT", 
		 "functional": "B3LYP", 
		 "basiset": "6-31G**", 
		 "properties": { 
			 "R2extent": 2969.0274, 
			 "electric_dipole_moment_norm": 3.77641477198, 
			 "electric_quadrupole_moment_norm": 14.9679669461, 
			 "total_energy": -1655.81205373, 
			 "HOMO_LUMO_gap": 0.19332, 
			 "cosmo_polarized_energy": -12.5, 
			 "cosmo_cavitation_energy": 26.25, 
			 "cosmo_dispersion_energy": -20.12, 
			 "cosmo_repulsion_energy": 1.54, 
			 "cosmo_total_nonelectrostatic_energy": 7.66, 
			 "SMD_solvation_energy": 2.95 
		},
		"coords": [
			{
				"x": 0.3691395399,
				"y": 2.9413320787,
				"z": 0.5780464177,
				"element": "C" 
			},
			{
				"x": 0.0866585609,
				"y": 2.5242317753,
				"z": -0.8012108531,
				"element": "N" 
			},
			{
				"x": 0.9246005485,
				"y": 1.1880580702,
				"z": -1.4016505919,
				"element": "S" 
			},
			{
				"x": 0.8553226272,
				"y": 1.3280345207,
				"z": -2.8570048432,
				"element": "O" 
			},
			{
				"x": 2.1962466286,
				"y": 1.0116069099,
				"z": -0.6917811427,
				"element": "O" 
			},
			{
				"x": -0.0955548832,
				"y": -0.1783595145,
				"z": -0.9194656229,
				"element": "C" 
			},
			{
				"x": -1.2279408989,
				"y": -0.612434136,
				"z": -1.5577015781,
				"element": "C" 
			},
			{
				"x": -1.8096953808,
				"y": -1.7477974679,
				"z": -0.9294468551,
				"element": "C" 
			},
			{
				"x": -1.0938032522,
				"y": -2.1427981292,
				"z": 0.1713710442,
				"element": "C" 
			},
			{
				"x": -1.4550988256,
				"y": -3.47699183,
				"z": 1.2092693188,
				"element": "Cl" 
			},
			{
				"x": 0.3095413806,
				"y": -1.1578961065,
				"z": 0.4646313756,
				"element": "S" 
			},
			{
				"x": 0.0558147866,
				"y": 2.1509404018,
				"z": 1.2649667091,
				"element": "H" 
			},
			{
				"x": -0.2379194989,
				"y": 3.825253576,
				"z": 0.7866158982,
				"element": "H" 
			},
			{
				"x": 1.4254644495,
				"y": 3.1675976129,
				"z": 0.7579788483,
				"element": "H" 
			},
			{
				"x": 0.1808149811,
				"y": 3.2637129844,
				"z": -1.4934408149,
				"element": "H" 
			},
			{
				"x": -1.6184622583,
				"y": -0.1368027141,
				"z": -2.4492064621,
				"element": "H" 
			},
			{
				"x": -2.704128505,
				"y": -2.2524880317,
				"z": -1.2721708478,
				"element": "H" 
			}
		],
		 "valence_orbital": [ 
			{
				"type": "occ",
				"energy": -0.32118,
				"method": "rhf"
			},
			{
				"type": "occ",
				"energy": -0.31028,
				"method": "rhf"
			},
			{
				"type": "occ",
				"energy": -0.28452,
				"method": "rhf"
			},
			{
				"type": "occ",
				"energy": -0.28231,
				"method": "rhf"
			},
			{
				"type": "occ",
				"energy": -0.25103,
				"method": "rhf"
			},
			{
				"type": "unocc",
				"energy": -0.05771,
				"method": "rhf"
			},
			{
				"type": "unocc",
				"energy": -0.00463,
				"method": "rhf"
			},
			{
				"type": "unocc",
				"energy": 0.00435,
				"method": "rhf"
			},
			{
				"type": "unocc",
				"energy": 0.02436,
				"method": "rhf"
			},
			{
				"type": "unocc",
				"energy": 0.05911,
				"method": "rhf"
			}
		],
		"cosmo_sigma_profile": { 
			"-0.025": 0.0,
			"-0.024": 0.0,
			"-0.023": 0.0,
			"-0.022": 0.0,
			"-0.021": 0.0,
			"-0.02": 0.0,
			"-0.019": 0.0,
			"-0.018": 0.0,
			"-0.017": 0.0,
			"-0.016": 0.0,
			"-0.015": 0.485119364793,
			"-0.014": 1.21658413127,
			"-0.013": 1.11755186074,
			"-0.012": 1.21386659182,
			"-0.011": 1.14950412865,
			"-0.01": 0.898039707498,
			"-0.009": 4.39480535383,
			"-0.008": 4.53943537669,
			"-0.007": 5.3517003239,
			"-0.006": 8.05918207414,
			"-0.005": 8.886648229,
			"-0.004": 13.8020326807,
			"-0.003": 17.2767967435,
			"-0.002": 15.9407907032,
			"-0.001": 16.5645906101,
			"0.0": 21.5360902676,
			"0.001": 21.24877822,
			"0.002": 17.2010500335,
			"0.003": 11.6955699326,
			"0.004": 4.47259895072,
			"0.005": 4.09508117024,
			"0.006": 2.98663342491,
			"0.007": 3.55139651719,
			"0.008": 4.27800176507,
			"0.009": 4.381678157,
			"0.01": 9.95497966511,
			"0.011": 7.32580304849,
			"0.012": 0.757562164689,
			"0.013": 0.0,
			"0.014": 0.0,
			"0.015": 0.0,
			"0.016": 0.0,
			"0.017": 0.0,
			"0.018": 0.0,
			"0.019": 0.0,
			"0.02": 0.0,
			"0.021": 0.0,
			"0.022": 0.0,
			"0.023": 0.0,
			"0.024": 0.0,
			"0.025": 0.0
		}
	}
}
