{
	 "smiles": "CN1C=C(Br)C=C1C(=O)NC1CC1", 
	 "Tm": 386.15, 
	 "num_atms": 24, 
	 "gaussian": { 
		 "optdone": 1, 
		 "sigma_profile": "yes", 
		 "theory": "DFT", 
		 "functional": "B3LYP", 
		 "basiset": "6-31G**", 
		 "properties": { 
			 "R2extent": 7016.4917, 
			 "electric_dipole_moment_norm": 1.53965830625, 
			 "electric_quadrupole_moment_norm": 13.4881740855, 
			 "total_energy": -3105.68553813, 
			 "HOMO_LUMO_gap": 0.19687, 
			 "cosmo_polarized_energy": -10.71, 
			 "cosmo_cavitation_energy": 29.66, 
			 "cosmo_dispersion_energy": -21.83, 
			 "cosmo_repulsion_energy": 1.74, 
			 "cosmo_total_nonelectrostatic_energy": 9.57, 
			 "SMD_solvation_energy": 3.9 
		},
		"coords": [
			{
				"x": 2.1464768409,
				"y": 2.1972628036,
				"z": 2.8215551613,
				"element": "C" 
			},
			{
				"x": 1.1553578668,
				"y": 1.1381307425,
				"z": 3.0125699615,
				"element": "N" 
			},
			{
				"x": 0.5240548558,
				"y": 0.920180355,
				"z": 4.2018886236,
				"element": "C" 
			},
			{
				"x": -0.3395511873,
				"y": -0.1475191343,
				"z": 4.0450631522,
				"element": "C" 
			},
			{
				"x": -1.4515575558,
				"y": -0.8617311901,
				"z": 5.3955644837,
				"element": "Br" 
			},
			{
				"x": -0.2423310593,
				"y": -0.5962768254,
				"z": 2.7169560942,
				"element": "C" 
			},
			{
				"x": 0.6961664188,
				"y": 0.2152711326,
				"z": 2.0782730574,
				"element": "C" 
			},
			{
				"x": 1.244761594,
				"y": 0.208548377,
				"z": 0.7100062992,
				"element": "C" 
			},
			{
				"x": 2.2300079479,
				"y": 0.8886887834,
				"z": 0.4066690849,
				"element": "O" 
			},
			{
				"x": 0.6565324318,
				"y": -0.578847047,
				"z": -0.2572818805,
				"element": "N" 
			},
			{
				"x": -0.631751268,
				"y": -1.213689347,
				"z": -0.2704461419,
				"element": "C" 
			},
			{
				"x": -0.7542094321,
				"y": -2.6886875811,
				"z": 0.0541874157,
				"element": "C" 
			},
			{
				"x": -0.8821547202,
				"y": -2.2091863515,
				"z": -1.3698267432,
				"element": "C" 
			},
			{
				"x": 2.1906149521,
				"y": 2.7777703142,
				"z": 3.745280914,
				"element": "H" 
			},
			{
				"x": 3.1252700063,
				"y": 1.7745383463,
				"z": 2.5957464081,
				"element": "H" 
			},
			{
				"x": 1.862465077,
				"y": 2.8449084936,
				"z": 1.9920153,
				"element": "H" 
			},
			{
				"x": 0.7256319518,
				"y": 1.5313560854,
				"z": 5.0681176819,
				"element": "H" 
			},
			{
				"x": -0.7741441433,
				"y": -1.4255494601,
				"z": 2.2840294202,
				"element": "H" 
			},
			{
				"x": 1.0903076128,
				"y": -0.4074933716,
				"z": -1.1560009451,
				"element": "H" 
			},
			{
				"x": -1.4658906124,
				"y": -0.5758847515,
				"z": 0.0182133638,
				"element": "H" 
			},
			{
				"x": -1.6484592111,
				"y": -3.0290717171,
				"z": 0.568541991,
				"element": "H" 
			},
			{
				"x": 0.1590455106,
				"y": -3.205665405,
				"z": 0.3300078696,
				"element": "H" 
			},
			{
				"x": -1.8604191749,
				"y": -2.2125149469,
				"z": -1.8394430302,
				"element": "H" 
			},
			{
				"x": -0.0595247021,
				"y": -2.4245383051,
				"z": -2.0461875415,
				"element": "H" 
			}
		],
		 "valence_orbital": [ 
			{
				"type": "occ",
				"energy": -0.28295,
				"method": "rhf"
			},
			{
				"type": "occ",
				"energy": -0.25235,
				"method": "rhf"
			},
			{
				"type": "occ",
				"energy": -0.24452,
				"method": "rhf"
			},
			{
				"type": "occ",
				"energy": -0.24068,
				"method": "rhf"
			},
			{
				"type": "occ",
				"energy": -0.21805,
				"method": "rhf"
			},
			{
				"type": "unocc",
				"energy": -0.02118,
				"method": "rhf"
			},
			{
				"type": "unocc",
				"energy": 0.02161,
				"method": "rhf"
			},
			{
				"type": "unocc",
				"energy": 0.05292,
				"method": "rhf"
			},
			{
				"type": "unocc",
				"energy": 0.08088,
				"method": "rhf"
			},
			{
				"type": "unocc",
				"energy": 0.08838,
				"method": "rhf"
			}
		],
		"cosmo_sigma_profile": { 
			"-0.025": 0.0,
			"-0.024": 0.0,
			"-0.023": 0.0,
			"-0.022": 0.0,
			"-0.021": 0.0,
			"-0.02": 0.0,
			"-0.019": 0.0,
			"-0.018": 0.0,
			"-0.017": 0.0,
			"-0.016": 0.0,
			"-0.015": 0.0,
			"-0.014": 0.0,
			"-0.013": 0.236492034536,
			"-0.012": 0.904112899965,
			"-0.011": 0.589256743684,
			"-0.01": 1.12203976354,
			"-0.009": 4.01451503141,
			"-0.008": 3.237737797,
			"-0.007": 3.89031305964,
			"-0.006": 7.35997000753,
			"-0.005": 17.9714549093,
			"-0.004": 20.3892138233,
			"-0.003": 19.4144337405,
			"-0.002": 21.0651465761,
			"-0.001": 17.205929564,
			"0.0": 16.1837587122,
			"0.001": 16.1386652684,
			"0.002": 16.7788590794,
			"0.003": 16.6282346819,
			"0.004": 22.1802179981,
			"0.005": 16.6235943309,
			"0.006": 1.99072459627,
			"0.007": 1.49569188053,
			"0.008": 1.5315153261,
			"0.009": 0.988301053757,
			"0.01": 1.26058542441,
			"0.011": 1.40555445177,
			"0.012": 1.98805991537,
			"0.013": 2.09775122228,
			"0.014": 3.34585423045,
			"0.015": 0.80110232577,
			"0.016": 0.0,
			"0.017": 0.0,
			"0.018": 0.0,
			"0.019": 0.0,
			"0.02": 0.0,
			"0.021": 0.0,
			"0.022": 0.0,
			"0.023": 0.0,
			"0.024": 0.0,
			"0.025": 0.0
		}
	}
}
