{
	 "smiles": "CC1=CC=CC=C1NN=C1C(=O)NC(=O)NC1=O", 
	 "Tm": 538.15, 
	 "num_atms": 28, 
	 "gaussian": { 
		 "optdone": 1, 
		 "sigma_profile": "yes", 
		 "theory": "DFT", 
		 "functional": "B3LYP", 
		 "basiset": "6-31G**", 
		 "properties": { 
			 "R2extent": 6338.6885, 
			 "electric_dipole_moment_norm": 4.03892166178, 
			 "electric_quadrupole_moment_norm": 4.9770886269, 
			 "total_energy": -869.91063127, 
			 "HOMO_LUMO_gap": 0.13364, 
			 "cosmo_polarized_energy": -18.44, 
			 "cosmo_cavitation_energy": 33.59, 
			 "cosmo_dispersion_energy": -24.45, 
			 "cosmo_repulsion_energy": 1.86, 
			 "cosmo_total_nonelectrostatic_energy": 11.0, 
			 "SMD_solvation_energy": 7.33 
		},
		"coords": [
			{
				"x": 0.8951331758,
				"y": -3.6866591913,
				"z": 1.390340403,
				"element": "C" 
			},
			{
				"x": -0.4007408752,
				"y": -3.1305107442,
				"z": 0.8476051456,
				"element": "C" 
			},
			{
				"x": -1.5358289389,
				"y": -3.9390812346,
				"z": 0.7272783395,
				"element": "C" 
			},
			{
				"x": -2.7400067346,
				"y": -3.4426655412,
				"z": 0.2286438098,
				"element": "C" 
			},
			{
				"x": -2.8280668807,
				"y": -2.1049727852,
				"z": -0.1643915385,
				"element": "C" 
			},
			{
				"x": -1.7197964255,
				"y": -1.2716359843,
				"z": -0.0589048858,
				"element": "C" 
			},
			{
				"x": -0.517453365,
				"y": -1.7845172595,
				"z": 0.4437726715,
				"element": "C" 
			},
			{
				"x": 0.6210355792,
				"y": -0.9597256452,
				"z": 0.5610005508,
				"element": "N" 
			},
			{
				"x": 0.5874937662,
				"y": 0.2896248561,
				"z": 0.2094403401,
				"element": "N" 
			},
			{
				"x": 1.6628472093,
				"y": 1.0498422742,
				"z": 0.3254388982,
				"element": "C" 
			},
			{
				"x": 2.942877449,
				"y": 0.5660737341,
				"z": 0.8430872078,
				"element": "C" 
			},
			{
				"x": 3.1411232997,
				"y": -0.5973027937,
				"z": 1.2206592617,
				"element": "O" 
			},
			{
				"x": 3.9663569842,
				"y": 1.4970975744,
				"z": 0.8970635824,
				"element": "N" 
			},
			{
				"x": 3.9066537114,
				"y": 2.8377175152,
				"z": 0.5124053422,
				"element": "C" 
			},
			{
				"x": 4.8637133869,
				"y": 3.5815747867,
				"z": 0.5971554038,
				"element": "O" 
			},
			{
				"x": 2.6687795415,
				"y": 3.2283332299,
				"z": 0.0327910758,
				"element": "N" 
			},
			{
				"x": 1.5026641514,
				"y": 2.4559682706,
				"z": -0.1071362973,
				"element": "C" 
			},
			{
				"x": 0.4856939491,
				"y": 2.9551048882,
				"z": -0.5497647947,
				"element": "O" 
			},
			{
				"x": 1.2205483742,
				"y": -3.1646213965,
				"z": 2.2987022473,
				"element": "H" 
			},
			{
				"x": 0.7813724333,
				"y": -4.7430229444,
				"z": 1.6438594649,
				"element": "H" 
			},
			{
				"x": 1.7140385016,
				"y": -3.6100857711,
				"z": 0.6643549482,
				"element": "H" 
			},
			{
				"x": -1.4669375472,
				"y": -4.9796012629,
				"z": 1.0330405719,
				"element": "H" 
			},
			{
				"x": -3.6032943087,
				"y": -4.0959807256,
				"z": 0.1476133695,
				"element": "H" 
			},
			{
				"x": -3.7605129258,
				"y": -1.7081205159,
				"z": -0.5539659583,
				"element": "H" 
			},
			{
				"x": -1.7630956096,
				"y": -0.230746056,
				"z": -0.3571155719,
				"element": "H" 
			},
			{
				"x": 1.5095663948,
				"y": -1.3237654432,
				"z": 0.9278948551,
				"element": "H" 
			},
			{
				"x": 4.859883422,
				"y": 1.1797681092,
				"z": 1.252743716,
				"element": "H" 
			},
			{
				"x": 2.5959522815,
				"y": 4.1967100564,
				"z": -0.2538121583,
				"element": "H" 
			}
		],
		 "valence_orbital": [ 
			{
				"type": "occ",
				"energy": -0.29094,
				"method": "rhf"
			},
			{
				"type": "occ",
				"energy": -0.28926,
				"method": "rhf"
			},
			{
				"type": "occ",
				"energy": -0.26298,
				"method": "rhf"
			},
			{
				"type": "occ",
				"energy": -0.25947,
				"method": "rhf"
			},
			{
				"type": "occ",
				"energy": -0.22858,
				"method": "rhf"
			},
			{
				"type": "unocc",
				"energy": -0.09494,
				"method": "rhf"
			},
			{
				"type": "unocc",
				"energy": -0.01274,
				"method": "rhf"
			},
			{
				"type": "unocc",
				"energy": -0.00807,
				"method": "rhf"
			},
			{
				"type": "unocc",
				"energy": 0.00132,
				"method": "rhf"
			},
			{
				"type": "unocc",
				"energy": 0.02184,
				"method": "rhf"
			}
		],
		"cosmo_sigma_profile": { 
			"-0.025": 0.0,
			"-0.024": 0.0,
			"-0.023": 0.0,
			"-0.022": 0.0,
			"-0.021": 0.0,
			"-0.02": 0.0,
			"-0.019": 0.0,
			"-0.018": 0.0,
			"-0.017": 0.50344353822,
			"-0.016": 1.66943989817,
			"-0.015": 1.98531805443,
			"-0.014": 1.8524213714,
			"-0.013": 0.501523355961,
			"-0.012": 1.72813264581,
			"-0.011": 2.17284707469,
			"-0.01": 1.32479481625,
			"-0.009": 1.70022893863,
			"-0.008": 3.74951923742,
			"-0.007": 5.65382902579,
			"-0.006": 14.476945735,
			"-0.005": 21.257930922,
			"-0.004": 22.5482031994,
			"-0.003": 22.6961311209,
			"-0.002": 21.0862884407,
			"-0.001": 20.6704805598,
			"0.0": 15.898184257,
			"0.001": 11.7412393126,
			"0.002": 14.2461536204,
			"0.003": 11.7046581764,
			"0.004": 13.1447105908,
			"0.005": 10.1660123438,
			"0.006": 4.5824057996,
			"0.007": 3.01083773778,
			"0.008": 3.89755503054,
			"0.009": 4.43630158952,
			"0.01": 5.81431338323,
			"0.011": 9.14866927427,
			"0.012": 11.4457765989,
			"0.013": 3.42938390527,
			"0.014": 1.01743716134,
			"0.015": 0.0,
			"0.016": 0.0,
			"0.017": 0.0,
			"0.018": 0.0,
			"0.019": 0.0,
			"0.02": 0.0,
			"0.021": 0.0,
			"0.022": 0.0,
			"0.023": 0.0,
			"0.024": 0.0,
			"0.025": 0.0
		}
	}
}
