{
	 "smiles": "ClC1=C2N=CC=CC2=C(C=C1)S(Cl)(=O)=O", 
	 "Tm": 385.15, 
	 "num_atms": 20, 
	 "gaussian": { 
		 "optdone": 1, 
		 "sigma_profile": "yes", 
		 "theory": "DFT", 
		 "functional": "B3LYP", 
		 "basiset": "6-31G**", 
		 "properties": { 
			 "R2extent": 4886.8183, 
			 "electric_dipole_moment_norm": 2.43827693464, 
			 "electric_quadrupole_moment_norm": 17.8667360704, 
			 "total_energy": -1869.67091132, 
			 "HOMO_LUMO_gap": 0.15875, 
			 "cosmo_polarized_energy": -10.38, 
			 "cosmo_cavitation_energy": 29.47, 
			 "cosmo_dispersion_energy": -22.46, 
			 "cosmo_repulsion_energy": 1.7, 
			 "cosmo_total_nonelectrostatic_energy": 8.71, 
			 "SMD_solvation_energy": 2.26 
		},
		"coords": [
			{
				"x": 2.3798380341,
				"y": -1.4861561702,
				"z": 4.1512350662,
				"element": "Cl" 
			},
			{
				"x": 1.668538621,
				"y": -1.3583807914,
				"z": 2.572002761,
				"element": "C" 
			},
			{
				"x": 0.6331931773,
				"y": -0.3945479012,
				"z": 2.3431670682,
				"element": "C" 
			},
			{
				"x": 0.2373083169,
				"y": 0.3897377029,
				"z": 3.3764844702,
				"element": "N" 
			},
			{
				"x": -0.7166951011,
				"y": 1.2715447007,
				"z": 3.1624211682,
				"element": "C" 
			},
			{
				"x": -1.3506414272,
				"y": 1.4511473311,
				"z": 1.9112956374,
				"element": "C" 
			},
			{
				"x": -0.9638301211,
				"y": 0.6722629967,
				"z": 0.847234927,
				"element": "C" 
			},
			{
				"x": 0.0582593574,
				"y": -0.2983210764,
				"z": 1.0302644066,
				"element": "C" 
			},
			{
				"x": 0.5520603392,
				"y": -1.181009222,
				"z": 0.0218013766,
				"element": "C" 
			},
			{
				"x": 1.5428539066,
				"y": -2.1043364586,
				"z": 0.2806727969,
				"element": "C" 
			},
			{
				"x": 2.1120488202,
				"y": -2.1882798394,
				"z": 1.5660924586,
				"element": "C" 
			},
			{
				"x": -0.0713991152,
				"y": -1.1651749937,
				"z": -1.6582460134,
				"element": "S" 
			},
			{
				"x": -1.9966162543,
				"y": -2.0565522946,
				"z": -1.4048909599,
				"element": "Cl" 
			},
			{
				"x": 0.706926903,
				"y": -2.0962820636,
				"z": -2.4645650993,
				"element": "O" 
			},
			{
				"x": -0.319914839,
				"y": 0.2031895292,
				"z": -2.0994095727,
				"element": "O" 
			},
			{
				"x": -1.0102375131,
				"y": 1.8822493919,
				"z": 4.0146664782,
				"element": "H" 
			},
			{
				"x": -2.1285594094,
				"y": 2.1990115115,
				"z": 1.7988281874,
				"element": "H" 
			},
			{
				"x": -1.4222535573,
				"y": 0.8016690171,
				"z": -0.1243749771,
				"element": "H" 
			},
			{
				"x": 1.8862769288,
				"y": -2.7626234979,
				"z": -0.5085289811,
				"element": "H" 
			},
			{
				"x": 2.8970429334,
				"y": -2.9087478722,
				"z": 1.7635488007,
				"element": "H" 
			}
		],
		 "valence_orbital": [ 
			{
				"type": "occ",
				"energy": -0.32235,
				"method": "rhf"
			},
			{
				"type": "occ",
				"energy": -0.31805,
				"method": "rhf"
			},
			{
				"type": "occ",
				"energy": -0.28997,
				"method": "rhf"
			},
			{
				"type": "occ",
				"energy": -0.28143,
				"method": "rhf"
			},
			{
				"type": "occ",
				"energy": -0.2659,
				"method": "rhf"
			},
			{
				"type": "unocc",
				"energy": -0.10715,
				"method": "rhf"
			},
			{
				"type": "unocc",
				"energy": -0.0788,
				"method": "rhf"
			},
			{
				"type": "unocc",
				"energy": -0.05368,
				"method": "rhf"
			},
			{
				"type": "unocc",
				"energy": -0.02519,
				"method": "rhf"
			},
			{
				"type": "unocc",
				"energy": 0.01671,
				"method": "rhf"
			}
		],
		"cosmo_sigma_profile": { 
			"-0.025": 0.0,
			"-0.024": 0.0,
			"-0.023": 0.0,
			"-0.022": 0.0,
			"-0.021": 0.0,
			"-0.02": 0.0,
			"-0.019": 0.0,
			"-0.018": 0.0,
			"-0.017": 0.0,
			"-0.016": 0.0,
			"-0.015": 0.0,
			"-0.014": 0.0,
			"-0.013": 0.0,
			"-0.012": 0.0,
			"-0.011": 0.0,
			"-0.01": 0.42677908905,
			"-0.009": 3.62882513861,
			"-0.008": 8.17673119625,
			"-0.007": 11.0506990012,
			"-0.006": 8.40519362952,
			"-0.005": 8.78402608633,
			"-0.004": 9.43897857033,
			"-0.003": 15.0236929728,
			"-0.002": 24.1699585381,
			"-0.001": 29.0294523678,
			"0.0": 24.2653863875,
			"0.001": 15.2765659284,
			"0.002": 16.9197523234,
			"0.003": 21.4925714528,
			"0.004": 10.9822108542,
			"0.005": 5.56125553382,
			"0.006": 5.57098532663,
			"0.007": 7.66313584265,
			"0.008": 9.98339493345,
			"0.009": 3.00708359659,
			"0.01": 1.09282037083,
			"0.011": 1.12410662335,
			"0.012": 1.11030642992,
			"0.013": 0.891580662939,
			"0.014": 0.477812677604,
			"0.015": 0.0,
			"0.016": 0.0,
			"0.017": 0.0,
			"0.018": 0.0,
			"0.019": 0.0,
			"0.02": 0.0,
			"0.021": 0.0,
			"0.022": 0.0,
			"0.023": 0.0,
			"0.024": 0.0,
			"0.025": 0.0
		}
	}
}
