{
	 "smiles": "S=C=NC1=CC2=C(OCO2)C=C1", 
	 "Tm": 331.15, 
	 "num_atms": 17, 
	 "gaussian": { 
		 "optdone": 1, 
		 "sigma_profile": "yes", 
		 "theory": "DFT", 
		 "functional": "B3LYP", 
		 "basiset": "6-31G**", 
		 "properties": { 
			 "R2extent": 3317.4512, 
			 "electric_dipole_moment_norm": 4.75647995265, 
			 "electric_quadrupole_moment_norm": 5.75943455558, 
			 "total_energy": -911.215570458, 
			 "HOMO_LUMO_gap": 0.17106, 
			 "cosmo_polarized_energy": -7.8, 
			 "cosmo_cavitation_energy": 24.79, 
			 "cosmo_dispersion_energy": -19.14, 
			 "cosmo_repulsion_energy": 1.49, 
			 "cosmo_total_nonelectrostatic_energy": 7.14, 
			 "SMD_solvation_energy": 5.6 
		},
		"coords": [
			{
				"x": -2.976944992,
				"y": -3.1343484606,
				"z": -1.3272125245,
				"element": "S" 
			},
			{
				"x": -1.8190321691,
				"y": -2.1487061387,
				"z": -0.8429929703,
				"element": "C" 
			},
			{
				"x": -0.9581999915,
				"y": -1.4163791826,
				"z": -0.4823135351,
				"element": "N" 
			},
			{
				"x": 0.0374513467,
				"y": -0.5675700613,
				"z": -0.0666466202,
				"element": "C" 
			},
			{
				"x": -0.317426269,
				"y": 0.6253304872,
				"z": 0.6111925878,
				"element": "C" 
			},
			{
				"x": 0.7233295148,
				"y": 1.4371889705,
				"z": 1.0043892194,
				"element": "C" 
			},
			{
				"x": 2.0577857185,
				"y": 1.1139962964,
				"z": 0.7549739297,
				"element": "C" 
			},
			{
				"x": 2.8727440737,
				"y": 2.0962717276,
				"z": 1.2530532453,
				"element": "O" 
			},
			{
				"x": 2.0065722752,
				"y": 3.0727660451,
				"z": 1.8468372436,
				"element": "C" 
			},
			{
				"x": 0.653001924,
				"y": 2.6336263235,
				"z": 1.6677738418,
				"element": "O" 
			},
			{
				"x": 2.4154565749,
				"y": -0.0457321781,
				"z": 0.095111392,
				"element": "C" 
			},
			{
				"x": 1.3778642734,
				"y": -0.8950482687,
				"z": -0.3188544795,
				"element": "C" 
			},
			{
				"x": -1.3531314199,
				"y": 0.8751019816,
				"z": 0.8038857663,
				"element": "H" 
			},
			{
				"x": 2.2260330145,
				"y": 3.1528977058,
				"z": 2.9182228966,
				"element": "H" 
			},
			{
				"x": 2.1466179101,
				"y": 4.0380537107,
				"z": 1.3463230443,
				"element": "H" 
			},
			{
				"x": 3.4541956715,
				"y": -0.2892081698,
				"z": -0.0948732211,
				"element": "H" 
			},
			{
				"x": 1.6031825443,
				"y": -1.8178407886,
				"z": -0.8405698161,
				"element": "H" 
			}
		],
		 "valence_orbital": [ 
			{
				"type": "occ",
				"energy": -0.33392,
				"method": "rhf"
			},
			{
				"type": "occ",
				"energy": -0.27699,
				"method": "rhf"
			},
			{
				"type": "occ",
				"energy": -0.25112,
				"method": "rhf"
			},
			{
				"type": "occ",
				"energy": -0.24872,
				"method": "rhf"
			},
			{
				"type": "occ",
				"energy": -0.21216,
				"method": "rhf"
			},
			{
				"type": "unocc",
				"energy": -0.0411,
				"method": "rhf"
			},
			{
				"type": "unocc",
				"energy": -0.01676,
				"method": "rhf"
			},
			{
				"type": "unocc",
				"energy": 0.00744,
				"method": "rhf"
			},
			{
				"type": "unocc",
				"energy": 0.05514,
				"method": "rhf"
			},
			{
				"type": "unocc",
				"energy": 0.07738,
				"method": "rhf"
			}
		],
		"cosmo_sigma_profile": { 
			"-0.025": 0.0,
			"-0.024": 0.0,
			"-0.023": 0.0,
			"-0.022": 0.0,
			"-0.021": 0.0,
			"-0.02": 0.0,
			"-0.019": 0.0,
			"-0.018": 0.0,
			"-0.017": 0.0,
			"-0.016": 0.0,
			"-0.015": 0.0,
			"-0.014": 0.0,
			"-0.013": 0.0,
			"-0.012": 0.0,
			"-0.011": 0.0,
			"-0.01": 0.0,
			"-0.009": 0.508907603921,
			"-0.008": 8.70726829643,
			"-0.007": 12.6049299641,
			"-0.006": 11.8048298071,
			"-0.005": 10.1179229767,
			"-0.004": 6.69911172913,
			"-0.003": 8.12370061048,
			"-0.002": 10.5320803462,
			"-0.001": 18.8553005081,
			"0.0": 17.4506353829,
			"0.001": 19.5702756099,
			"0.002": 20.0856930179,
			"0.003": 13.2555431546,
			"0.004": 8.23839219301,
			"0.005": 8.5849403265,
			"0.006": 14.992904086,
			"0.007": 8.01242650209,
			"0.008": 3.14962658925,
			"0.009": 2.55462494448,
			"0.01": 0.289267135233,
			"0.011": 0.0,
			"0.012": 0.0,
			"0.013": 0.0,
			"0.014": 0.0,
			"0.015": 0.0,
			"0.016": 0.0,
			"0.017": 0.0,
			"0.018": 0.0,
			"0.019": 0.0,
			"0.02": 0.0,
			"0.021": 0.0,
			"0.022": 0.0,
			"0.023": 0.0,
			"0.024": 0.0,
			"0.025": 0.0
		}
	}
}
