{
	 "smiles": "OCC1=C(C=CC(Cl)=C1)[N+]([O-])=O", 
	 "Tm": 352.65, 
	 "num_atms": 18, 
	 "gaussian": { 
		 "optdone": 1, 
		 "sigma_profile": "yes", 
		 "theory": "DFT", 
		 "functional": "B3LYP", 
		 "basiset": "6-31G**", 
		 "properties": { 
			 "R2extent": 2636.5544, 
			 "electric_dipole_moment_norm": 1.83078250756, 
			 "electric_quadrupole_moment_norm": 15.3841207789, 
			 "total_energy": -1010.86248496, 
			 "HOMO_LUMO_gap": 0.17409, 
			 "cosmo_polarized_energy": -9.97, 
			 "cosmo_cavitation_energy": 24.46, 
			 "cosmo_dispersion_energy": -18.52, 
			 "cosmo_repulsion_energy": 1.48, 
			 "cosmo_total_nonelectrostatic_energy": 7.43, 
			 "SMD_solvation_energy": 6.06 
		},
		"coords": [
			{
				"x": 1.5049186325,
				"y": 2.7728933003,
				"z": -1.300287943,
				"element": "O" 
			},
			{
				"x": 1.9255071643,
				"y": 1.5750488613,
				"z": -0.6669548341,
				"element": "C" 
			},
			{
				"x": 0.7041460799,
				"y": 0.7284746457,
				"z": -0.3644684916,
				"element": "C" 
			},
			{
				"x": 0.7336385772,
				"y": -0.5333863369,
				"z": 0.2646717437,
				"element": "C" 
			},
			{
				"x": -0.4322189121,
				"y": -1.2625182984,
				"z": 0.5144411981,
				"element": "C" 
			},
			{
				"x": -1.6686213015,
				"y": -0.7547624348,
				"z": 0.1433279767,
				"element": "C" 
			},
			{
				"x": -1.7108543949,
				"y": 0.4930784473,
				"z": -0.4801190966,
				"element": "C" 
			},
			{
				"x": -3.2579974001,
				"y": 1.1576965674,
				"z": -0.9589594205,
				"element": "Cl" 
			},
			{
				"x": -0.5523726647,
				"y": 1.2241046729,
				"z": -0.7313386291,
				"element": "C" 
			},
			{
				"x": 1.9924389722,
				"y": -1.1551496533,
				"z": 0.6942781424,
				"element": "N" 
			},
			{
				"x": 1.9383482681,
				"y": -2.2573532109,
				"z": 1.2382964628,
				"element": "O" 
			},
			{
				"x": 3.0432864679,
				"y": -0.5405881231,
				"z": 0.4880759494,
				"element": "O" 
			},
			{
				"x": 2.2922422337,
				"y": 3.2974481001,
				"z": -1.4854448726,
				"element": "H" 
			},
			{
				"x": 2.6145797909,
				"y": 1.0001929594,
				"z": -1.2998884793,
				"element": "H" 
			},
			{
				"x": 2.4648705268,
				"y": 1.7766429549,
				"z": 0.2680628213,
				"element": "H" 
			},
			{
				"x": -0.3441756611,
				"y": -2.2253116486,
				"z": 1.0009124674,
				"element": "H" 
			},
			{
				"x": -2.5792762057,
				"y": -1.3109205272,
				"z": 0.3316269061,
				"element": "H" 
			},
			{
				"x": -0.6062601735,
				"y": 2.1895097239,
				"z": -1.2154319011,
				"element": "H" 
			}
		],
		 "valence_orbital": [ 
			{
				"type": "occ",
				"energy": -0.31173,
				"method": "rhf"
			},
			{
				"type": "occ",
				"energy": -0.2948,
				"method": "rhf"
			},
			{
				"type": "occ",
				"energy": -0.29438,
				"method": "rhf"
			},
			{
				"type": "occ",
				"energy": -0.2777,
				"method": "rhf"
			},
			{
				"type": "occ",
				"energy": -0.26906,
				"method": "rhf"
			},
			{
				"type": "unocc",
				"energy": -0.09497,
				"method": "rhf"
			},
			{
				"type": "unocc",
				"energy": -0.03276,
				"method": "rhf"
			},
			{
				"type": "unocc",
				"energy": -0.00922,
				"method": "rhf"
			},
			{
				"type": "unocc",
				"energy": 0.01744,
				"method": "rhf"
			},
			{
				"type": "unocc",
				"energy": 0.0609,
				"method": "rhf"
			}
		],
		"cosmo_sigma_profile": { 
			"-0.025": 0.0,
			"-0.024": 0.0,
			"-0.023": 0.0,
			"-0.022": 0.0,
			"-0.021": 0.0,
			"-0.02": 0.0,
			"-0.019": 0.0,
			"-0.018": 0.0,
			"-0.017": 0.287656721458,
			"-0.016": 1.05119174443,
			"-0.015": 1.44574969177,
			"-0.014": 0.726857925211,
			"-0.013": 1.02295864455,
			"-0.012": 0.80278793437,
			"-0.011": 0.85828900173,
			"-0.01": 1.30184805192,
			"-0.009": 0.763271060077,
			"-0.008": 4.3634959242,
			"-0.007": 4.87408403535,
			"-0.006": 8.11006591977,
			"-0.005": 12.3637210459,
			"-0.004": 9.1083669744,
			"-0.003": 11.6505845552,
			"-0.002": 12.2646867611,
			"-0.001": 16.3506095613,
			"0.0": 23.1094342763,
			"0.001": 17.1663212975,
			"0.002": 10.2991525613,
			"0.003": 12.6786601735,
			"0.004": 11.3494186996,
			"0.005": 4.45418905165,
			"0.006": 5.60369377976,
			"0.007": 6.63608259119,
			"0.008": 7.9385929246,
			"0.009": 5.61090764837,
			"0.01": 4.44310191185,
			"0.011": 1.11078993242,
			"0.012": 0.138445055171,
			"0.013": 0.0,
			"0.014": 0.0,
			"0.015": 0.0,
			"0.016": 0.0,
			"0.017": 0.0,
			"0.018": 0.0,
			"0.019": 0.0,
			"0.02": 0.0,
			"0.021": 0.0,
			"0.022": 0.0,
			"0.023": 0.0,
			"0.024": 0.0,
			"0.025": 0.0
		}
	}
}
