{
	 "smiles": "BrC(=C)C1=CC=CC=C1", 
	 "Tm": 229.15, 
	 "num_atms": 16, 
	 "gaussian": { 
		 "optdone": 1, 
		 "sigma_profile": "yes", 
		 "theory": "DFT", 
		 "functional": "B3LYP", 
		 "basiset": "6-31G**", 
		 "properties": { 
			 "R2extent": 3490.1159, 
			 "electric_dipole_moment_norm": 1.78983567402, 
			 "electric_quadrupole_moment_norm": 7.20464584695, 
			 "total_energy": -2880.4543635, 
			 "HOMO_LUMO_gap": 0.19408, 
			 "cosmo_polarized_energy": -4.33, 
			 "cosmo_cavitation_energy": 22.13, 
			 "cosmo_dispersion_energy": -16.61, 
			 "cosmo_repulsion_energy": 1.34, 
			 "cosmo_total_nonelectrostatic_energy": 6.87, 
			 "SMD_solvation_energy": 3.34 
		},
		"coords": [
			{
				"x": -1.814463267,
				"y": -3.7498612194,
				"z": 0.3792686543,
				"element": "Br" 
			},
			{
				"x": -0.5766357391,
				"y": -2.2713151084,
				"z": 0.2360697623,
				"element": "C" 
			},
			{
				"x": 0.72865851,
				"y": -2.5505003304,
				"z": 0.2687319206,
				"element": "C" 
			},
			{
				"x": -1.1737933402,
				"y": -0.9262598759,
				"z": 0.0988413763,
				"element": "C" 
			},
			{
				"x": -0.5079826748,
				"y": 0.1820693698,
				"z": 0.6533790799,
				"element": "C" 
			},
			{
				"x": -1.0161627191,
				"y": 1.4695431408,
				"z": 0.4948297879,
				"element": "C" 
			},
			{
				"x": -2.2027046321,
				"y": 1.6747333287,
				"z": -0.2119067909,
				"element": "C" 
			},
			{
				"x": -2.8792953273,
				"y": 0.5802801257,
				"z": -0.7536035766,
				"element": "C" 
			},
			{
				"x": -2.3745538169,
				"y": -0.7089196821,
				"z": -0.5956433604,
				"element": "C" 
			},
			{
				"x": 1.1018028528,
				"y": -3.5579788582,
				"z": 0.4017914269,
				"element": "H" 
			},
			{
				"x": 1.4559213498,
				"y": -1.7545261185,
				"z": 0.1423868514,
				"element": "H" 
			},
			{
				"x": 0.3982383998,
				"y": 0.0269008826,
				"z": 1.2300959114,
				"element": "H" 
			},
			{
				"x": -0.4910016622,
				"y": 2.3115717557,
				"z": 0.9364068631,
				"element": "H" 
			},
			{
				"x": -2.602353791,
				"y": 2.6776864874,
				"z": -0.3298790511,
				"element": "H" 
			},
			{
				"x": -3.8060254598,
				"y": 0.7290885729,
				"z": -1.3001199345,
				"element": "H" 
			},
			{
				"x": -2.9075486831,
				"y": -1.5554124706,
				"z": -1.0145489207,
				"element": "H" 
			}
		],
		 "valence_orbital": [ 
			{
				"type": "occ",
				"energy": -0.33398,
				"method": "rhf"
			},
			{
				"type": "occ",
				"energy": -0.28509,
				"method": "rhf"
			},
			{
				"type": "occ",
				"energy": -0.2679,
				"method": "rhf"
			},
			{
				"type": "occ",
				"energy": -0.25707,
				"method": "rhf"
			},
			{
				"type": "occ",
				"energy": -0.2347,
				"method": "rhf"
			},
			{
				"type": "unocc",
				"energy": -0.04062,
				"method": "rhf"
			},
			{
				"type": "unocc",
				"energy": -0.00917,
				"method": "rhf"
			},
			{
				"type": "unocc",
				"energy": 0.00726,
				"method": "rhf"
			},
			{
				"type": "unocc",
				"energy": 0.03999,
				"method": "rhf"
			},
			{
				"type": "unocc",
				"energy": 0.0917,
				"method": "rhf"
			}
		],
		"cosmo_sigma_profile": { 
			"-0.025": 0.0,
			"-0.024": 0.0,
			"-0.023": 0.0,
			"-0.022": 0.0,
			"-0.021": 0.0,
			"-0.02": 0.0,
			"-0.019": 0.0,
			"-0.018": 0.0,
			"-0.017": 0.0,
			"-0.016": 0.0,
			"-0.015": 0.0,
			"-0.014": 0.0,
			"-0.013": 0.0,
			"-0.012": 0.0,
			"-0.011": 0.0,
			"-0.01": 0.0,
			"-0.009": 0.0,
			"-0.008": 0.0681905691172,
			"-0.007": 3.00875443595,
			"-0.006": 10.9920715924,
			"-0.005": 12.7114465516,
			"-0.004": 15.0931598709,
			"-0.003": 12.7155207696,
			"-0.002": 11.78553956,
			"-0.001": 12.5881228896,
			"0.0": 11.4054855083,
			"0.001": 13.4908536861,
			"0.002": 17.8145744004,
			"0.003": 20.3092464521,
			"0.004": 21.2770145875,
			"0.005": 17.0305039769,
			"0.006": 0.631839982588,
			"0.007": 0.0,
			"0.008": 0.0,
			"0.009": 0.0,
			"0.01": 0.0,
			"0.011": 0.0,
			"0.012": 0.0,
			"0.013": 0.0,
			"0.014": 0.0,
			"0.015": 0.0,
			"0.016": 0.0,
			"0.017": 0.0,
			"0.018": 0.0,
			"0.019": 0.0,
			"0.02": 0.0,
			"0.021": 0.0,
			"0.022": 0.0,
			"0.023": 0.0,
			"0.024": 0.0,
			"0.025": 0.0
		}
	}
}
