{
	 "smiles": "CN1C=CN=C1C(=O)C1=CC(=C(Cl)C=C1)[N+]([O-])=O", 
	 "Tm": 419.15, 
	 "num_atms": 26, 
	 "gaussian": { 
		 "optdone": 1, 
		 "sigma_profile": "yes", 
		 "theory": "DFT", 
		 "functional": "B3LYP", 
		 "basiset": "6-31G**", 
		 "properties": { 
			 "R2extent": 6530.8355, 
			 "electric_dipole_moment_norm": 7.66076765148, 
			 "electric_quadrupole_moment_norm": 13.7678845249, 
			 "total_energy": -1273.99579861, 
			 "HOMO_LUMO_gap": 0.16044, 
			 "cosmo_polarized_energy": -13.18, 
			 "cosmo_cavitation_energy": 33.51, 
			 "cosmo_dispersion_energy": -24.56, 
			 "cosmo_repulsion_energy": 1.86, 
			 "cosmo_total_nonelectrostatic_energy": 10.81, 
			 "SMD_solvation_energy": 7.79 
		},
		"coords": [
			{
				"x": -3.0508392856,
				"y": 2.829237549,
				"z": -1.7012924713,
				"element": "C" 
			},
			{
				"x": -3.2000049062,
				"y": 2.0347963818,
				"z": -0.4809830372,
				"element": "N" 
			},
			{
				"x": -4.2251017753,
				"y": 2.1740606375,
				"z": 0.409461059,
				"element": "C" 
			},
			{
				"x": -4.0042624299,
				"y": 1.2500263588,
				"z": 1.413193498,
				"element": "C" 
			},
			{
				"x": -2.8706906894,
				"y": 0.5499383954,
				"z": 1.158283108,
				"element": "N" 
			},
			{
				"x": -2.3866780806,
				"y": 1.0280046785,
				"z": 0.0107521216,
				"element": "C" 
			},
			{
				"x": -1.1671749859,
				"y": 0.5964761742,
				"z": -0.6945990886,
				"element": "C" 
			},
			{
				"x": -0.8578022459,
				"y": 1.1456217635,
				"z": -1.7534914436,
				"element": "O" 
			},
			{
				"x": -0.2918010488,
				"y": -0.5002804259,
				"z": -0.1523980544,
				"element": "C" 
			},
			{
				"x": 0.8195881378,
				"y": -0.8324792429,
				"z": -0.9351788158,
				"element": "C" 
			},
			{
				"x": 1.7144676431,
				"y": -1.8146543747,
				"z": -0.527453131,
				"element": "C" 
			},
			{
				"x": 1.5031406087,
				"y": -2.5188685033,
				"z": 0.6703028739,
				"element": "C" 
			},
			{
				"x": 2.5207966953,
				"y": -3.8199242354,
				"z": 1.216358858,
				"element": "Cl" 
			},
			{
				"x": 0.3820346965,
				"y": -2.2012156364,
				"z": 1.4406436547,
				"element": "C" 
			},
			{
				"x": -0.5012255063,
				"y": -1.1998986775,
				"z": 1.0471908574,
				"element": "C" 
			},
			{
				"x": 2.8742973963,
				"y": -2.0507223236,
				"z": -1.4071151854,
				"element": "N" 
			},
			{
				"x": 3.941002514,
				"y": -2.3564992155,
				"z": -0.8842379569,
				"element": "O" 
			},
			{
				"x": 2.6937737188,
				"y": -1.8916424733,
				"z": -2.6135776909,
				"element": "O" 
			},
			{
				"x": -2.1105378282,
				"y": 3.3803682505,
				"z": -1.6852810389,
				"element": "H" 
			},
			{
				"x": -3.8901245096,
				"y": 3.5250348235,
				"z": -1.752174117,
				"element": "H" 
			},
			{
				"x": -3.0486800191,
				"y": 2.1832607157,
				"z": -2.579261107,
				"element": "H" 
			},
			{
				"x": -5.0089715674,
				"y": 2.9012750933,
				"z": 0.2597027661,
				"element": "H" 
			},
			{
				"x": -4.6059938192,
				"y": 1.0655626329,
				"z": 2.2921189816,
				"element": "H" 
			},
			{
				"x": 0.9890004487,
				"y": -0.3137359324,
				"z": -1.8703798872,
				"element": "H" 
			},
			{
				"x": 0.2072924687,
				"y": -2.7538989228,
				"z": 2.356817057,
				"element": "H" 
			},
			{
				"x": -1.3612056306,
				"y": -0.9591434908,
				"z": 1.65939819,
				"element": "H" 
			}
		],
		 "valence_orbital": [ 
			{
				"type": "occ",
				"energy": -0.29622,
				"method": "rhf"
			},
			{
				"type": "occ",
				"energy": -0.27804,
				"method": "rhf"
			},
			{
				"type": "occ",
				"energy": -0.27187,
				"method": "rhf"
			},
			{
				"type": "occ",
				"energy": -0.26895,
				"method": "rhf"
			},
			{
				"type": "occ",
				"energy": -0.25245,
				"method": "rhf"
			},
			{
				"type": "unocc",
				"energy": -0.09201,
				"method": "rhf"
			},
			{
				"type": "unocc",
				"energy": -0.08186,
				"method": "rhf"
			},
			{
				"type": "unocc",
				"energy": -0.02332,
				"method": "rhf"
			},
			{
				"type": "unocc",
				"energy": -0.01139,
				"method": "rhf"
			},
			{
				"type": "unocc",
				"energy": 0.01481,
				"method": "rhf"
			}
		],
		"cosmo_sigma_profile": { 
			"-0.025": 0.0,
			"-0.024": 0.0,
			"-0.023": 0.0,
			"-0.022": 0.0,
			"-0.021": 0.0,
			"-0.02": 0.0,
			"-0.019": 0.0,
			"-0.018": 0.0,
			"-0.017": 0.0,
			"-0.016": 0.0,
			"-0.015": 0.0,
			"-0.014": 0.0,
			"-0.013": 0.0,
			"-0.012": 0.0,
			"-0.011": 0.0,
			"-0.01": 1.79233251202,
			"-0.009": 3.91027148977,
			"-0.008": 5.61233926263,
			"-0.007": 9.60615231483,
			"-0.006": 11.9232848976,
			"-0.005": 13.4260577534,
			"-0.004": 17.7278510534,
			"-0.003": 24.0220375383,
			"-0.002": 22.3406596372,
			"-0.001": 27.6771088133,
			"0.0": 23.9815499429,
			"0.001": 16.374093378,
			"0.002": 16.3883990379,
			"0.003": 16.1146179424,
			"0.004": 7.71411561508,
			"0.005": 8.7612371178,
			"0.006": 8.56685958166,
			"0.007": 15.0305433346,
			"0.008": 9.58178622778,
			"0.009": 7.23060798073,
			"0.01": 2.7257342691,
			"0.011": 1.73166481308,
			"0.012": 0.27066920969,
			"0.013": 0.0,
			"0.014": 0.0,
			"0.015": 0.0,
			"0.016": 0.0,
			"0.017": 0.0,
			"0.018": 0.0,
			"0.019": 0.0,
			"0.02": 0.0,
			"0.021": 0.0,
			"0.022": 0.0,
			"0.023": 0.0,
			"0.024": 0.0,
			"0.025": 0.0
		}
	}
}
