{
	 "smiles": "O=C1CC[C@H]2[C@@H]3CCC(=O)[C@@H]3[C@@H]12", 
	 "Tm": 340.15, 
	 "num_atms": 24, 
	 "gaussian": { 
		 "optdone": 1, 
		 "sigma_profile": "yes", 
		 "theory": "DFT", 
		 "functional": "B3LYP", 
		 "basiset": "6-31G**", 
		 "properties": { 
			 "R2extent": 2656.3412, 
			 "electric_dipole_moment_norm": 5.19104315336, 
			 "electric_quadrupole_moment_norm": 16.1457019999, 
			 "total_energy": -538.713378116, 
			 "HOMO_LUMO_gap": 0.19938, 
			 "cosmo_polarized_energy": -12.98, 
			 "cosmo_cavitation_energy": 25.59, 
			 "cosmo_dispersion_energy": -18.81, 
			 "cosmo_repulsion_energy": 1.52, 
			 "cosmo_total_nonelectrostatic_energy": 8.3, 
			 "SMD_solvation_energy": 4.61 
		},
		"coords": [
			{
				"x": 0.5302938095,
				"y": -0.4558216643,
				"z": -4.4605090268,
				"element": "O" 
			},
			{
				"x": 0.2218250786,
				"y": 0.179558274,
				"z": -3.4772985864,
				"element": "C" 
			},
			{
				"x": -0.5477522305,
				"y": 1.5067224577,
				"z": -3.4699235896,
				"element": "C" 
			},
			{
				"x": -0.1998837907,
				"y": 2.1650693719,
				"z": -2.1233759425,
				"element": "C" 
			},
			{
				"x": 0.0976916355,
				"y": 0.9966320435,
				"z": -1.1589233558,
				"element": "C" 
			},
			{
				"x": -1.1317846716,
				"y": 0.1794341066,
				"z": -0.6501011145,
				"element": "C" 
			},
			{
				"x": -1.1622826419,
				"y": -0.1571852427,
				"z": 0.8564357142,
				"element": "C" 
			},
			{
				"x": -0.1146961973,
				"y": -1.2675135912,
				"z": 1.049389135,
				"element": "C" 
			},
			{
				"x": -0.0679905517,
				"y": -2.0108958321,
				"z": -0.2918087173,
				"element": "C" 
			},
			{
				"x": 0.3212878194,
				"y": -3.1446420756,
				"z": -0.4610697058,
				"element": "O" 
			},
			{
				"x": -0.5971303847,
				"y": -1.0835958452,
				"z": -1.3898836241,
				"element": "C" 
			},
			{
				"x": 0.5405845638,
				"y": -0.2155193032,
				"z": -2.0323101324,
				"element": "C" 
			},
			{
				"x": -1.6180961328,
				"y": 1.2676078441,
				"z": -3.5390290878,
				"element": "H" 
			},
			{
				"x": -0.2982651752,
				"y": 2.1011670922,
				"z": -4.3519259256,
				"element": "H" 
			},
			{
				"x": -0.9931460082,
				"y": 2.8184480256,
				"z": -1.7453282315,
				"element": "H" 
			},
			{
				"x": 0.6997618524,
				"y": 2.781315277,
				"z": -2.2370389745,
				"element": "H" 
			},
			{
				"x": 0.783267114,
				"y": 1.2903415197,
				"z": -0.3581892052,
				"element": "H" 
			},
			{
				"x": -2.0896662337,
				"y": 0.5749566264,
				"z": -1.0014415414,
				"element": "H" 
			},
			{
				"x": -2.1549626682,
				"y": -0.5377734491,
				"z": 1.124366066,
				"element": "H" 
			},
			{
				"x": -0.9756792198,
				"y": 0.7243812084,
				"z": 1.4786186985,
				"element": "H" 
			},
			{
				"x": 0.8863210311,
				"y": -0.8520570701,
				"z": 1.2309438314,
				"element": "H" 
			},
			{
				"x": -0.323141362,
				"y": -1.9613245434,
				"z": 1.867122024,
				"element": "H" 
			},
			{
				"x": -1.2305300583,
				"y": -1.6376311462,
				"z": -2.0879308129,
				"element": "H" 
			},
			{
				"x": 1.5531744226,
				"y": -0.6215740842,
				"z": -1.959987895,
				"element": "H" 
			}
		],
		 "valence_orbital": [ 
			{
				"type": "occ",
				"energy": -0.32767,
				"method": "rhf"
			},
			{
				"type": "occ",
				"energy": -0.31949,
				"method": "rhf"
			},
			{
				"type": "occ",
				"energy": -0.30815,
				"method": "rhf"
			},
			{
				"type": "occ",
				"energy": -0.24698,
				"method": "rhf"
			},
			{
				"type": "occ",
				"energy": -0.23692,
				"method": "rhf"
			},
			{
				"type": "unocc",
				"energy": -0.03754,
				"method": "rhf"
			},
			{
				"type": "unocc",
				"energy": -0.01172,
				"method": "rhf"
			},
			{
				"type": "unocc",
				"energy": 0.07058,
				"method": "rhf"
			},
			{
				"type": "unocc",
				"energy": 0.07899,
				"method": "rhf"
			},
			{
				"type": "unocc",
				"energy": 0.09799,
				"method": "rhf"
			}
		],
		"cosmo_sigma_profile": { 
			"-0.025": 0.0,
			"-0.024": 0.0,
			"-0.023": 0.0,
			"-0.022": 0.0,
			"-0.021": 0.0,
			"-0.02": 0.0,
			"-0.019": 0.0,
			"-0.018": 0.0,
			"-0.017": 0.0,
			"-0.016": 0.0,
			"-0.015": 0.0,
			"-0.014": 0.0,
			"-0.013": 0.0,
			"-0.012": 0.0,
			"-0.011": 0.0,
			"-0.01": 0.0,
			"-0.009": 0.0,
			"-0.008": 0.0,
			"-0.007": 0.350770501453,
			"-0.006": 10.4102848557,
			"-0.005": 18.6253355164,
			"-0.004": 27.7555535264,
			"-0.003": 30.2595139099,
			"-0.002": 25.5006380632,
			"-0.001": 19.3259715945,
			"0.0": 14.2110102426,
			"0.001": 3.67314451858,
			"0.002": 3.64243291063,
			"0.003": 3.03665823458,
			"0.004": 2.38542885466,
			"0.005": 3.19660769429,
			"0.006": 2.44249880525,
			"0.007": 3.32429226957,
			"0.008": 2.55670698579,
			"0.009": 3.77696825051,
			"0.01": 4.86888418036,
			"0.011": 7.37139156395,
			"0.012": 8.98972360426,
			"0.013": 4.09102161759,
			"0.014": 0.096237297811,
			"0.015": 0.0,
			"0.016": 0.0,
			"0.017": 0.0,
			"0.018": 0.0,
			"0.019": 0.0,
			"0.02": 0.0,
			"0.021": 0.0,
			"0.022": 0.0,
			"0.023": 0.0,
			"0.024": 0.0,
			"0.025": 0.0
		}
	}
}
