{
	 "smiles": "NC1=CC=C(C=C1)N1C=CC=N1", 
	 "Tm": 327.65, 
	 "num_atms": 21, 
	 "gaussian": { 
		 "optdone": 1, 
		 "sigma_profile": "yes", 
		 "theory": "DFT", 
		 "functional": "B3LYP", 
		 "basiset": "6-31G**", 
		 "properties": { 
			 "R2extent": 2942.3152, 
			 "electric_dipole_moment_norm": 2.84858882431, 
			 "electric_quadrupole_moment_norm": 17.042009219, 
			 "total_energy": -512.613614114, 
			 "HOMO_LUMO_gap": 0.18742, 
			 "cosmo_polarized_energy": -12.52, 
			 "cosmo_cavitation_energy": 25.1, 
			 "cosmo_dispersion_energy": -18.79, 
			 "cosmo_repulsion_energy": 1.47, 
			 "cosmo_total_nonelectrostatic_energy": 7.78, 
			 "SMD_solvation_energy": 4.09 
		},
		"coords": [
			{
				"x": 3.6924669413,
				"y": 3.6321317155,
				"z": -0.2785152265,
				"element": "N" 
			},
			{
				"x": 2.8312198892,
				"y": 2.5659879786,
				"z": -0.0101198042,
				"element": "C" 
			},
			{
				"x": 1.786684157,
				"y": 2.2416923336,
				"z": -0.8914545705,
				"element": "C" 
			},
			{
				"x": 0.8981120524,
				"y": 1.2114380513,
				"z": -0.5979208071,
				"element": "C" 
			},
			{
				"x": 1.0200439308,
				"y": 0.4928809226,
				"z": 0.5947891287,
				"element": "C" 
			},
			{
				"x": 2.0578844003,
				"y": 0.8031121697,
				"z": 1.4796538912,
				"element": "C" 
			},
			{
				"x": 2.9527830665,
				"y": 1.821877354,
				"z": 1.1770414843,
				"element": "C" 
			},
			{
				"x": 0.1070198959,
				"y": -0.5483768711,
				"z": 0.9145638092,
				"element": "N" 
			},
			{
				"x": -1.1866266201,
				"y": -0.6885249303,
				"z": 0.4983470768,
				"element": "C" 
			},
			{
				"x": -1.6721997046,
				"y": -1.8445503549,
				"z": 1.0744845653,
				"element": "C" 
			},
			{
				"x": -0.5901791279,
				"y": -2.3372878927,
				"z": 1.8371757198,
				"element": "C" 
			},
			{
				"x": 0.4835878382,
				"y": -1.5566213825,
				"z": 1.7414746464,
				"element": "N" 
			},
			{
				"x": 3.7807037395,
				"y": 3.8768139784,
				"z": -1.2552970311,
				"element": "H" 
			},
			{
				"x": 4.5936311859,
				"y": 3.5789137371,
				"z": 0.1762692056,
				"element": "H" 
			},
			{
				"x": 1.6773404232,
				"y": 2.7934851403,
				"z": -1.821576607,
				"element": "H" 
			},
			{
				"x": 0.1239275923,
				"y": 0.9563734456,
				"z": -1.3142707059,
				"element": "H" 
			},
			{
				"x": 2.1544738802,
				"y": 0.2313939793,
				"z": 2.3947691548,
				"element": "H" 
			},
			{
				"x": 3.752920821,
				"y": 2.0550379166,
				"z": 1.875066692,
				"element": "H" 
			},
			{
				"x": -1.6596743704,
				"y": 0.0443121389,
				"z": -0.1368524132,
				"element": "H" 
			},
			{
				"x": -2.662314298,
				"y": -2.2615720311,
				"z": 0.9673718767,
				"element": "H" 
			},
			{
				"x": -0.5467056926,
				"y": -3.2287173988,
				"z": 2.4488999147,
				"element": "H" 
			}
		],
		 "valence_orbital": [ 
			{
				"type": "occ",
				"energy": -0.28003,
				"method": "rhf"
			},
			{
				"type": "occ",
				"energy": -0.25705,
				"method": "rhf"
			},
			{
				"type": "occ",
				"energy": -0.25289,
				"method": "rhf"
			},
			{
				"type": "occ",
				"energy": -0.24006,
				"method": "rhf"
			},
			{
				"type": "occ",
				"energy": -0.19415,
				"method": "rhf"
			},
			{
				"type": "unocc",
				"energy": -0.00673,
				"method": "rhf"
			},
			{
				"type": "unocc",
				"energy": -0.00307,
				"method": "rhf"
			},
			{
				"type": "unocc",
				"energy": 0.0496,
				"method": "rhf"
			},
			{
				"type": "unocc",
				"energy": 0.07714,
				"method": "rhf"
			},
			{
				"type": "unocc",
				"energy": 0.07837,
				"method": "rhf"
			}
		],
		"cosmo_sigma_profile": { 
			"-0.025": 0.0,
			"-0.024": 0.0,
			"-0.023": 0.0,
			"-0.022": 0.0,
			"-0.021": 0.0,
			"-0.02": 0.0,
			"-0.019": 0.0,
			"-0.018": 0.0,
			"-0.017": 0.0,
			"-0.016": 0.0,
			"-0.015": 0.0,
			"-0.014": 0.0,
			"-0.013": 0.512100671473,
			"-0.012": 2.56792617283,
			"-0.011": 2.80543263966,
			"-0.01": 3.41408181623,
			"-0.009": 4.58274983015,
			"-0.008": 5.35549316471,
			"-0.007": 8.83023220402,
			"-0.006": 10.9219899503,
			"-0.005": 11.077729233,
			"-0.004": 12.4178491734,
			"-0.003": 10.9787383611,
			"-0.002": 10.1030930069,
			"-0.001": 9.13027840375,
			"0.0": 9.16666393885,
			"0.001": 9.56468811989,
			"0.002": 13.4169591176,
			"0.003": 12.5518469996,
			"0.004": 14.3039075536,
			"0.005": 20.8019285912,
			"0.006": 10.1754109396,
			"0.007": 3.65448079078,
			"0.008": 3.0270758689,
			"0.009": 2.01894807692,
			"0.01": 2.75493094695,
			"0.011": 1.53796818259,
			"0.012": 1.38262568726,
			"0.013": 1.70533872974,
			"0.014": 1.71643100019,
			"0.015": 0.451320934547,
			"0.016": 0.0,
			"0.017": 0.0,
			"0.018": 0.0,
			"0.019": 0.0,
			"0.02": 0.0,
			"0.021": 0.0,
			"0.022": 0.0,
			"0.023": 0.0,
			"0.024": 0.0,
			"0.025": 0.0
		}
	}
}
