{
	 "smiles": "OC1=CC=C(C(O)=C1C#N)[N+]([O-])=O", 
	 "Tm": 513.15, 
	 "num_atms": 17, 
	 "gaussian": { 
		 "optdone": 1, 
		 "sigma_profile": "yes", 
		 "theory": "DFT", 
		 "functional": "B3LYP", 
		 "basiset": "6-31G**", 
		 "properties": { 
			 "R2extent": 2629.2257, 
			 "electric_dipole_moment_norm": 3.96670866588, 
			 "electric_quadrupole_moment_norm": 11.5931522728, 
			 "total_energy": -679.421233143, 
			 "HOMO_LUMO_gap": 0.17595, 
			 "cosmo_polarized_energy": -17.62, 
			 "cosmo_cavitation_energy": 23.62, 
			 "cosmo_dispersion_energy": -17.22, 
			 "cosmo_repulsion_energy": 1.35, 
			 "cosmo_total_nonelectrostatic_energy": 7.74, 
			 "SMD_solvation_energy": 8.21 
		},
		"coords": [
			{
				"x": 0.6262216012,
				"y": -2.1013709615,
				"z": -1.8862120138,
				"element": "O" 
			},
			{
				"x": 0.1764876011,
				"y": -1.3032944107,
				"z": -0.9022853863,
				"element": "C" 
			},
			{
				"x": 1.0554653117,
				"y": -0.9748622818,
				"z": 0.1356950823,
				"element": "C" 
			},
			{
				"x": 0.611308229,
				"y": -0.1551979725,
				"z": 1.1568186573,
				"element": "C" 
			},
			{
				"x": -0.6917325348,
				"y": 0.3603663399,
				"z": 1.1899759681,
				"element": "C" 
			},
			{
				"x": -1.6010068343,
				"y": 0.0485989491,
				"z": 0.1600894639,
				"element": "C" 
			},
			{
				"x": -2.8530875978,
				"y": 0.5203640656,
				"z": 0.1552001353,
				"element": "O" 
			},
			{
				"x": -1.1410355614,
				"y": -0.7938001009,
				"z": -0.8872027062,
				"element": "C" 
			},
			{
				"x": -2.0308120881,
				"y": -1.1313423785,
				"z": -1.945958557,
				"element": "C" 
			},
			{
				"x": -2.7532246774,
				"y": -1.4128996915,
				"z": -2.8174000122,
				"element": "N" 
			},
			{
				"x": -1.0447346509,
				"y": 1.2174412062,
				"z": 2.3239249589,
				"element": "N" 
			},
			{
				"x": -2.1792031414,
				"y": 1.6827849807,
				"z": 2.3766823036,
				"element": "O" 
			},
			{
				"x": -0.1653827069,
				"y": 1.4197749921,
				"z": 3.1663262674,
				"element": "O" 
			},
			{
				"x": -0.0655281556,
				"y": -2.2607030631,
				"z": -2.5475448458,
				"element": "H" 
			},
			{
				"x": 2.0643548639,
				"y": -1.3684235862,
				"z": 0.1187784635,
				"element": "H" 
			},
			{
				"x": 1.2665039557,
				"y": 0.1176101605,
				"z": 1.9745648116,
				"element": "H" 
			},
			{
				"x": -3.325893614,
				"y": 0.1989537525,
				"z": -0.6299525908,
				"element": "H" 
			}
		],
		 "valence_orbital": [ 
			{
				"type": "occ",
				"energy": -0.3088,
				"method": "rhf"
			},
			{
				"type": "occ",
				"energy": -0.30851,
				"method": "rhf"
			},
			{
				"type": "occ",
				"energy": -0.28921,
				"method": "rhf"
			},
			{
				"type": "occ",
				"energy": -0.28461,
				"method": "rhf"
			},
			{
				"type": "occ",
				"energy": -0.26806,
				"method": "rhf"
			},
			{
				"type": "unocc",
				"energy": -0.09211,
				"method": "rhf"
			},
			{
				"type": "unocc",
				"energy": -0.06861,
				"method": "rhf"
			},
			{
				"type": "unocc",
				"energy": -0.02416,
				"method": "rhf"
			},
			{
				"type": "unocc",
				"energy": -0.01127,
				"method": "rhf"
			},
			{
				"type": "unocc",
				"energy": 0.03806,
				"method": "rhf"
			}
		],
		"cosmo_sigma_profile": { 
			"-0.025": 0.0,
			"-0.024": 0.0,
			"-0.023": 0.0,
			"-0.022": 0.0,
			"-0.021": 0.0,
			"-0.02": 0.0,
			"-0.019": 0.0373753019079,
			"-0.018": 0.723227603273,
			"-0.017": 1.5474714211,
			"-0.016": 1.27183261525,
			"-0.015": 1.25067716576,
			"-0.014": 2.43508230317,
			"-0.013": 2.97287804733,
			"-0.012": 2.16868416893,
			"-0.011": 1.76726784762,
			"-0.01": 2.26931828508,
			"-0.009": 3.15463390949,
			"-0.008": 5.4588369227,
			"-0.007": 5.91577122388,
			"-0.006": 7.7721228768,
			"-0.005": 7.10638150967,
			"-0.004": 10.0047488172,
			"-0.003": 16.1651668699,
			"-0.002": 12.432902939,
			"-0.001": 11.8782999185,
			"0.0": 10.5293518521,
			"0.001": 8.4248923398,
			"0.002": 5.93159377634,
			"0.003": 4.39474469386,
			"0.004": 6.39695259848,
			"0.005": 6.14820511122,
			"0.006": 7.06237999373,
			"0.007": 8.73432458925,
			"0.008": 13.8018935111,
			"0.009": 10.0402519806,
			"0.01": 7.49752918389,
			"0.011": 4.29028776186,
			"0.012": 1.69378055444,
			"0.013": 0.0218233327879,
			"0.014": 0.0,
			"0.015": 0.0,
			"0.016": 0.0,
			"0.017": 0.0,
			"0.018": 0.0,
			"0.019": 0.0,
			"0.02": 0.0,
			"0.021": 0.0,
			"0.022": 0.0,
			"0.023": 0.0,
			"0.024": 0.0,
			"0.025": 0.0
		}
	}
}
