{
	 "smiles": "CC1=C(O)C2=C(C=C1O)C(=O)C1=C(C=CC=C1)C2=O", 
	 "Tm": 563.15, 
	 "num_atms": 29, 
	 "gaussian": { 
		 "optdone": 1, 
		 "sigma_profile": "yes", 
		 "theory": "DFT", 
		 "functional": "B3LYP", 
		 "basiset": "6-31G**", 
		 "properties": { 
			 "R2extent": 5522.0936, 
			 "electric_dipole_moment_norm": 2.2792342508, 
			 "electric_quadrupole_moment_norm": 19.0598670538, 
			 "total_energy": -878.531713206, 
			 "HOMO_LUMO_gap": 0.13972, 
			 "cosmo_polarized_energy": -19.98, 
			 "cosmo_cavitation_energy": 33.01, 
			 "cosmo_dispersion_energy": -24.77, 
			 "cosmo_repulsion_energy": 1.83, 
			 "cosmo_total_nonelectrostatic_energy": 10.07, 
			 "SMD_solvation_energy": 6.79 
		},
		"coords": [
			{
				"x": -4.2513491618,
				"y": 1.6274204826,
				"z": 1.2013343751,
				"element": "C" 
			},
			{
				"x": -3.0324741701,
				"y": 0.7696268014,
				"z": 0.9633393183,
				"element": "C" 
			},
			{
				"x": -2.3993298934,
				"y": 0.762385727,
				"z": -0.2960026908,
				"element": "C" 
			},
			{
				"x": -2.8916985804,
				"y": 1.5311998294,
				"z": -1.2935895498,
				"element": "O" 
			},
			{
				"x": -1.2523911412,
				"y": -0.0331331498,
				"z": -0.5503540795,
				"element": "C" 
			},
			{
				"x": -0.761466481,
				"y": -0.826247589,
				"z": 0.5134302062,
				"element": "C" 
			},
			{
				"x": -1.3764890269,
				"y": -0.8280771253,
				"z": 1.759634492,
				"element": "C" 
			},
			{
				"x": -2.5035077456,
				"y": -0.0355861953,
				"z": 1.9815235856,
				"element": "C" 
			},
			{
				"x": -3.1324977726,
				"y": -0.0121968654,
				"z": 3.1904342974,
				"element": "O" 
			},
			{
				"x": 0.4413931884,
				"y": -1.7033266657,
				"z": 0.3577244473,
				"element": "C" 
			},
			{
				"x": 0.8495821682,
				"y": -2.3834410386,
				"z": 1.295007781,
				"element": "O" 
			},
			{
				"x": 1.1156218021,
				"y": -1.7184071582,
				"z": -0.9632038226,
				"element": "C" 
			},
			{
				"x": 0.628973177,
				"y": -0.9310535527,
				"z": -2.0208639015,
				"element": "C" 
			},
			{
				"x": 1.2824915516,
				"y": -0.9622765997,
				"z": -3.25811193,
				"element": "C" 
			},
			{
				"x": 2.4048267916,
				"y": -1.7667858799,
				"z": -3.4381394699,
				"element": "C" 
			},
			{
				"x": 2.8880060919,
				"y": -2.5505743931,
				"z": -2.382818679,
				"element": "C" 
			},
			{
				"x": 2.2451865473,
				"y": -2.5262977059,
				"z": -1.1491976906,
				"element": "C" 
			},
			{
				"x": -0.5782617196,
				"y": -0.048373256,
				"z": -1.8724203134,
				"element": "C" 
			},
			{
				"x": -0.9564260066,
				"y": 0.6157209364,
				"z": -2.8314122666,
				"element": "O" 
			},
			{
				"x": -5.079191647,
				"y": 1.3534654426,
				"z": 0.5330993026,
				"element": "H" 
			},
			{
				"x": -4.6083096886,
				"y": 1.511298832,
				"z": 2.2240943527,
				"element": "H" 
			},
			{
				"x": -4.0351115263,
				"y": 2.6938169204,
				"z": 1.0497696189,
				"element": "H" 
			},
			{
				"x": -3.666329847,
				"y": 2.010655863,
				"z": -0.9711795519,
				"element": "H" 
			},
			{
				"x": -0.9572158899,
				"y": -1.4561061501,
				"z": 2.5402653584,
				"element": "H" 
			},
			{
				"x": -2.6702993077,
				"y": -0.6062504808,
				"z": 3.7963852174,
				"element": "H" 
			},
			{
				"x": 0.8885427815,
				"y": -0.3462745236,
				"z": -4.0591077357,
				"element": "H" 
			},
			{
				"x": 2.906932712,
				"y": -1.7859021999,
				"z": -4.4012319077,
				"element": "H" 
			},
			{
				"x": 3.763600302,
				"y": -3.1768224561,
				"z": -2.5269369963,
				"element": "H" 
			},
			{
				"x": 2.5947924919,
				"y": -3.1216578499,
				"z": -0.3124717676,
				"element": "H" 
			}
		],
		 "valence_orbital": [ 
			{
				"type": "occ",
				"energy": -0.2605,
				"method": "rhf"
			},
			{
				"type": "occ",
				"energy": -0.25915,
				"method": "rhf"
			},
			{
				"type": "occ",
				"energy": -0.24437,
				"method": "rhf"
			},
			{
				"type": "occ",
				"energy": -0.24097,
				"method": "rhf"
			},
			{
				"type": "occ",
				"energy": -0.2325,
				"method": "rhf"
			},
			{
				"type": "unocc",
				"energy": -0.09278,
				"method": "rhf"
			},
			{
				"type": "unocc",
				"energy": -0.04436,
				"method": "rhf"
			},
			{
				"type": "unocc",
				"energy": -0.01348,
				"method": "rhf"
			},
			{
				"type": "unocc",
				"energy": 0.00145,
				"method": "rhf"
			},
			{
				"type": "unocc",
				"energy": 0.05312,
				"method": "rhf"
			}
		],
		"cosmo_sigma_profile": { 
			"-0.025": 0.0,
			"-0.024": 0.0,
			"-0.023": 0.0,
			"-0.022": 0.0,
			"-0.021": 0.0,
			"-0.02": 0.0,
			"-0.019": 0.331879527107,
			"-0.018": 1.24261027293,
			"-0.017": 1.31977827607,
			"-0.016": 1.88402379873,
			"-0.015": 1.9662900592,
			"-0.014": 1.52386209117,
			"-0.013": 1.50967420483,
			"-0.012": 2.6461852897,
			"-0.011": 2.67692532864,
			"-0.01": 2.26386319196,
			"-0.009": 2.20325281161,
			"-0.008": 2.47205028593,
			"-0.007": 6.17962463177,
			"-0.006": 11.6809283477,
			"-0.005": 13.9384660217,
			"-0.004": 13.3929852849,
			"-0.003": 15.5949363062,
			"-0.002": 15.5613481534,
			"-0.001": 18.7300874928,
			"0.0": 19.0228373955,
			"0.001": 31.8179010198,
			"0.002": 25.1835607611,
			"0.003": 17.3583750642,
			"0.004": 5.54518994172,
			"0.005": 6.45628184128,
			"0.006": 5.05826704137,
			"0.007": 4.40712119932,
			"0.008": 6.02227944796,
			"0.009": 4.53700586694,
			"0.01": 4.40267874206,
			"0.011": 6.2614497587,
			"0.012": 5.23014423436,
			"0.013": 2.59032789259,
			"0.014": 1.32541033386,
			"0.015": 1.31475207864,
			"0.016": 1.31139702371,
			"0.017": 0.0883670484481,
			"0.018": 0.0,
			"0.019": 0.0,
			"0.02": 0.0,
			"0.021": 0.0,
			"0.022": 0.0,
			"0.023": 0.0,
			"0.024": 0.0,
			"0.025": 0.0
		}
	}
}
