{
	 "smiles": "BrC1=C(N=CC=C1)C#N", 
	 "Tm": 371.15, 
	 "num_atms": 12, 
	 "gaussian": { 
		 "optdone": 1, 
		 "sigma_profile": "yes", 
		 "theory": "DFT", 
		 "functional": "B3LYP", 
		 "basiset": "6-31G**", 
		 "properties": { 
			 "R2extent": 2482.3257, 
			 "electric_dipole_moment_norm": 5.79718921547, 
			 "electric_quadrupole_moment_norm": 12.648850751, 
			 "total_energy": -2911.31823786, 
			 "HOMO_LUMO_gap": 0.19632, 
			 "cosmo_polarized_energy": -10.56, 
			 "cosmo_cavitation_energy": 20.17, 
			 "cosmo_dispersion_energy": -14.83, 
			 "cosmo_repulsion_energy": 1.21, 
			 "cosmo_total_nonelectrostatic_energy": 6.55, 
			 "SMD_solvation_energy": 2.44 
		},
		"coords": [
			{
				"x": -1.0300073625,
				"y": 0.5206798975,
				"z": -3.0945974766,
				"element": "Br" 
			},
			{
				"x": -0.1918249212,
				"y": 0.4521543628,
				"z": -1.3954663181,
				"element": "C" 
			},
			{
				"x": -0.4394165838,
				"y": 1.4337733437,
				"z": -0.4193830688,
				"element": "C" 
			},
			{
				"x": 0.141330473,
				"y": 1.4083224459,
				"z": 0.7917207514,
				"element": "N" 
			},
			{
				"x": 0.9813762823,
				"y": 0.4115938881,
				"z": 1.0678853081,
				"element": "C" 
			},
			{
				"x": 1.2875031351,
				"y": -0.6071977601,
				"z": 0.160735944,
				"element": "C" 
			},
			{
				"x": 0.6888381114,
				"y": -0.585795349,
				"z": -1.0951900797,
				"element": "C" 
			},
			{
				"x": -1.339563908,
				"y": 2.5324692151,
				"z": -0.6681242912,
				"element": "C" 
			},
			{
				"x": -2.0619054111,
				"y": 3.4232128608,
				"z": -0.8538533811,
				"element": "N" 
			},
			{
				"x": 1.4305063534,
				"y": 0.4267372655,
				"z": 2.0580640785,
				"element": "H" 
			},
			{
				"x": 1.9786326692,
				"y": -1.3985953999,
				"z": 0.4320172316,
				"element": "H" 
			},
			{
				"x": 0.8945311622,
				"y": -1.3534547705,
				"z": -1.8325086979,
				"element": "H" 
			}
		],
		 "valence_orbital": [ 
			{
				"type": "occ",
				"energy": -0.3455,
				"method": "rhf"
			},
			{
				"type": "occ",
				"energy": -0.31303,
				"method": "rhf"
			},
			{
				"type": "occ",
				"energy": -0.3069,
				"method": "rhf"
			},
			{
				"type": "occ",
				"energy": -0.29105,
				"method": "rhf"
			},
			{
				"type": "occ",
				"energy": -0.27391,
				"method": "rhf"
			},
			{
				"type": "unocc",
				"energy": -0.07759,
				"method": "rhf"
			},
			{
				"type": "unocc",
				"energy": -0.05582,
				"method": "rhf"
			},
			{
				"type": "unocc",
				"energy": -0.01657,
				"method": "rhf"
			},
			{
				"type": "unocc",
				"energy": 0.02559,
				"method": "rhf"
			},
			{
				"type": "unocc",
				"energy": 0.0587,
				"method": "rhf"
			}
		],
		"cosmo_sigma_profile": { 
			"-0.025": 0.0,
			"-0.024": 0.0,
			"-0.023": 0.0,
			"-0.022": 0.0,
			"-0.021": 0.0,
			"-0.02": 0.0,
			"-0.019": 0.0,
			"-0.018": 0.0,
			"-0.017": 0.0,
			"-0.016": 0.0,
			"-0.015": 0.0,
			"-0.014": 0.0,
			"-0.013": 0.0,
			"-0.012": 0.0,
			"-0.011": 0.0,
			"-0.01": 0.422357531813,
			"-0.009": 4.20286244427,
			"-0.008": 8.26992112425,
			"-0.007": 6.76910596681,
			"-0.006": 5.67963350049,
			"-0.005": 6.70395913659,
			"-0.004": 9.51589217373,
			"-0.003": 12.8939937278,
			"-0.002": 15.4981035864,
			"-0.001": 16.9365851865,
			"0.0": 10.8197096854,
			"0.001": 8.36010751684,
			"0.002": 12.8545847851,
			"0.003": 12.3729154523,
			"0.004": 5.63014356673,
			"0.005": 4.4062462916,
			"0.006": 4.35385042032,
			"0.007": 4.38965882273,
			"0.008": 4.0576379768,
			"0.009": 3.90563439233,
			"0.01": 3.76296967283,
			"0.011": 3.01165407384,
			"0.012": 2.36764092826,
			"0.013": 0.499637862809,
			"0.014": 0.0395208255435,
			"0.015": 0.0,
			"0.016": 0.0,
			"0.017": 0.0,
			"0.018": 0.0,
			"0.019": 0.0,
			"0.02": 0.0,
			"0.021": 0.0,
			"0.022": 0.0,
			"0.023": 0.0,
			"0.024": 0.0,
			"0.025": 0.0
		}
	}
}
