{
	 "smiles": "BrC1=CC=CC=C1CC#N", 
	 "Tm": 292.15, 
	 "num_atms": 16, 
	 "gaussian": { 
		 "optdone": 1, 
		 "sigma_profile": "yes", 
		 "theory": "DFT", 
		 "functional": "B3LYP", 
		 "basiset": "6-31G**", 
		 "properties": { 
			 "R2extent": 3008.396, 
			 "electric_dipole_moment_norm": 4.63403306958, 
			 "electric_quadrupole_moment_norm": 7.65511741321, 
			 "total_energy": -2934.60396899, 
			 "HOMO_LUMO_gap": 0.22412, 
			 "cosmo_polarized_energy": -10.64, 
			 "cosmo_cavitation_energy": 23.3, 
			 "cosmo_dispersion_energy": -16.76, 
			 "cosmo_repulsion_energy": 1.36, 
			 "cosmo_total_nonelectrostatic_energy": 7.91, 
			 "SMD_solvation_energy": 4.35 
		},
		"coords": [
			{
				"x": -3.2820676118,
				"y": 0.3967272781,
				"z": 0.0897557238,
				"element": "Br" 
			},
			{
				"x": -1.7683032742,
				"y": -0.2721128369,
				"z": -0.8718410356,
				"element": "C" 
			},
			{
				"x": -1.6625759464,
				"y": -1.6517082995,
				"z": -1.0451120642,
				"element": "C" 
			},
			{
				"x": -0.5734049238,
				"y": -2.1774584032,
				"z": -1.7388313352,
				"element": "C" 
			},
			{
				"x": 0.4013136458,
				"y": -1.3242459094,
				"z": -2.2561843582,
				"element": "C" 
			},
			{
				"x": 0.2797792142,
				"y": 0.0523746267,
				"z": -2.0769354735,
				"element": "C" 
			},
			{
				"x": -0.8040031467,
				"y": 0.6066434766,
				"z": -1.3838875441,
				"element": "C" 
			},
			{
				"x": -0.8957836224,
				"y": 2.1146043106,
				"z": -1.2131271236,
				"element": "C" 
			},
			{
				"x": -0.3934442488,
				"y": 2.5757540574,
				"z": 0.0886092308,
				"element": "C" 
			},
			{
				"x": 0.0178274524,
				"y": 2.9412387908,
				"z": 1.1102653046,
				"element": "N" 
			},
			{
				"x": -2.4277570676,
				"y": -2.3029013394,
				"z": -0.6385751477,
				"element": "H" 
			},
			{
				"x": -0.4923011438,
				"y": -3.2518542079,
				"z": -1.8723815124,
				"element": "H" 
			},
			{
				"x": 1.2516536886,
				"y": -1.7263587879,
				"z": -2.7977599467,
				"element": "H" 
			},
			{
				"x": 1.0386888726,
				"y": 0.7183863172,
				"z": -2.4786959173,
				"element": "H" 
			},
			{
				"x": -0.3106868765,
				"y": 2.6092832713,
				"z": -1.9956524045,
				"element": "H" 
			},
			{
				"x": -1.9320350116,
				"y": 2.4524276555,
				"z": -1.3172463963,
				"element": "H" 
			}
		],
		 "valence_orbital": [ 
			{
				"type": "occ",
				"energy": -0.32531,
				"method": "rhf"
			},
			{
				"type": "occ",
				"energy": -0.31902,
				"method": "rhf"
			},
			{
				"type": "occ",
				"energy": -0.29788,
				"method": "rhf"
			},
			{
				"type": "occ",
				"energy": -0.27344,
				"method": "rhf"
			},
			{
				"type": "occ",
				"energy": -0.25511,
				"method": "rhf"
			},
			{
				"type": "unocc",
				"energy": -0.03099,
				"method": "rhf"
			},
			{
				"type": "unocc",
				"energy": -0.02785,
				"method": "rhf"
			},
			{
				"type": "unocc",
				"energy": -0.00563,
				"method": "rhf"
			},
			{
				"type": "unocc",
				"energy": 0.04018,
				"method": "rhf"
			},
			{
				"type": "unocc",
				"energy": 0.04413,
				"method": "rhf"
			}
		],
		"cosmo_sigma_profile": { 
			"-0.025": 0.0,
			"-0.024": 0.0,
			"-0.023": 0.0,
			"-0.022": 0.0,
			"-0.021": 0.0,
			"-0.02": 0.0,
			"-0.019": 0.0,
			"-0.018": 0.0,
			"-0.017": 0.0,
			"-0.016": 0.0,
			"-0.015": 0.0,
			"-0.014": 0.0,
			"-0.013": 0.0,
			"-0.012": 0.0,
			"-0.011": 0.0,
			"-0.01": 0.586343806242,
			"-0.009": 3.98959756809,
			"-0.008": 5.21596436458,
			"-0.007": 10.5968243681,
			"-0.006": 12.4611946968,
			"-0.005": 13.5952997617,
			"-0.004": 10.4754709323,
			"-0.003": 10.1746920608,
			"-0.002": 8.7000391432,
			"-0.001": 9.10354057225,
			"0.0": 13.1326103628,
			"0.001": 15.8350135795,
			"0.002": 16.8978551091,
			"0.003": 19.3837019104,
			"0.004": 14.7990558598,
			"0.005": 3.07076380587,
			"0.006": 2.7990721387,
			"0.007": 2.74391259473,
			"0.008": 3.50843291356,
			"0.009": 3.514460596,
			"0.01": 3.42979797946,
			"0.011": 2.48222063202,
			"0.012": 2.75048707886,
			"0.013": 1.7001819887,
			"0.014": 0.16243036537,
			"0.015": 0.0,
			"0.016": 0.0,
			"0.017": 0.0,
			"0.018": 0.0,
			"0.019": 0.0,
			"0.02": 0.0,
			"0.021": 0.0,
			"0.022": 0.0,
			"0.023": 0.0,
			"0.024": 0.0,
			"0.025": 0.0
		}
	}
}
