{
	 "smiles": "O=C1CC(=NN1)C1=CC=CC=C1", 
	 "Tm": 520.15, 
	 "num_atms": 20, 
	 "gaussian": { 
		 "optdone": 1, 
		 "sigma_profile": "yes", 
		 "theory": "DFT", 
		 "functional": "B3LYP", 
		 "basiset": "6-31G**", 
		 "properties": { 
			 "R2extent": 2483.927, 
			 "electric_dipole_moment_norm": 2.81882581583, 
			 "electric_quadrupole_moment_norm": 13.7911037278, 
			 "total_energy": -532.490426958, 
			 "HOMO_LUMO_gap": 0.16673, 
			 "cosmo_polarized_energy": -12.56, 
			 "cosmo_cavitation_energy": 24.41, 
			 "cosmo_dispersion_energy": -18.33, 
			 "cosmo_repulsion_energy": 1.46, 
			 "cosmo_total_nonelectrostatic_energy": 7.54, 
			 "SMD_solvation_energy": 4.07 
		},
		"coords": [
			{
				"x": -4.141064377,
				"y": -1.2242924492,
				"z": -0.394106336,
				"element": "O" 
			},
			{
				"x": -2.9467024595,
				"y": -1.00419303,
				"z": -0.3566120977,
				"element": "C" 
			},
			{
				"x": -2.1513929514,
				"y": -0.0287106268,
				"z": 0.5191658455,
				"element": "C" 
			},
			{
				"x": -0.7361034642,
				"y": -0.2688525306,
				"z": 0.0496881026,
				"element": "C" 
			},
			{
				"x": -0.6810411787,
				"y": -1.1697249234,
				"z": -0.8835320258,
				"element": "N" 
			},
			{
				"x": -1.9691407847,
				"y": -1.6040536539,
				"z": -1.126306222,
				"element": "N" 
			},
			{
				"x": 0.4647036169,
				"y": 0.4049608903,
				"z": 0.5521146623,
				"element": "C" 
			},
			{
				"x": 1.7346267859,
				"y": 0.0925482629,
				"z": 0.0309463815,
				"element": "C" 
			},
			{
				"x": 2.8699134401,
				"y": 0.734900108,
				"z": 0.5115162937,
				"element": "C" 
			},
			{
				"x": 2.7637496197,
				"y": 1.699933361,
				"z": 1.5192970601,
				"element": "C" 
			},
			{
				"x": 1.5101284361,
				"y": 2.0168446529,
				"z": 2.0425085769,
				"element": "C" 
			},
			{
				"x": 0.3683293549,
				"y": 1.3747445879,
				"z": 1.563233261,
				"element": "C" 
			},
			{
				"x": -2.3038117598,
				"y": -0.258362423,
				"z": 1.579141751,
				"element": "H" 
			},
			{
				"x": -2.4966573453,
				"y": 0.9976497486,
				"z": 0.3551568409,
				"element": "H" 
			},
			{
				"x": -2.1256245519,
				"y": -2.3117020854,
				"z": -1.8277035913,
				"element": "H" 
			},
			{
				"x": 1.8098005261,
				"y": -0.6564592274,
				"z": -0.7501030167,
				"element": "H" 
			},
			{
				"x": 3.843655327,
				"y": 0.4842279958,
				"z": 0.1004912398,
				"element": "H" 
			},
			{
				"x": 3.6530078842,
				"y": 2.19962473,
				"z": 1.8921689647,
				"element": "H" 
			},
			{
				"x": 1.4183400717,
				"y": 2.7645622634,
				"z": 2.8248706271,
				"element": "H" 
			},
			{
				"x": -0.60201619,
				"y": 1.6302543488,
				"z": 1.9787636824,
				"element": "H" 
			}
		],
		 "valence_orbital": [ 
			{
				"type": "occ",
				"energy": -0.31496,
				"method": "rhf"
			},
			{
				"type": "occ",
				"energy": -0.28221,
				"method": "rhf"
			},
			{
				"type": "occ",
				"energy": -0.25988,
				"method": "rhf"
			},
			{
				"type": "occ",
				"energy": -0.25513,
				"method": "rhf"
			},
			{
				"type": "occ",
				"energy": -0.22195,
				"method": "rhf"
			},
			{
				"type": "unocc",
				"energy": -0.05522,
				"method": "rhf"
			},
			{
				"type": "unocc",
				"energy": -0.00938,
				"method": "rhf"
			},
			{
				"type": "unocc",
				"energy": 0.01145,
				"method": "rhf"
			},
			{
				"type": "unocc",
				"energy": 0.05825,
				"method": "rhf"
			},
			{
				"type": "unocc",
				"energy": 0.08394,
				"method": "rhf"
			}
		],
		"cosmo_sigma_profile": { 
			"-0.025": 0.0,
			"-0.024": 0.0,
			"-0.023": 0.0,
			"-0.022": 0.0,
			"-0.021": 0.0,
			"-0.02": 0.0,
			"-0.019": 0.0,
			"-0.018": 0.0,
			"-0.017": 0.0,
			"-0.016": 1.04573780538,
			"-0.015": 1.32303283817,
			"-0.014": 0.992007975434,
			"-0.013": 1.30050385264,
			"-0.012": 0.732371282038,
			"-0.011": 0.366504185262,
			"-0.01": 1.01567227661,
			"-0.009": 1.87401023269,
			"-0.008": 5.0923363232,
			"-0.007": 7.90247565144,
			"-0.006": 13.2177850262,
			"-0.005": 14.4416917938,
			"-0.004": 15.4531544054,
			"-0.003": 11.2868145261,
			"-0.002": 9.74569738972,
			"-0.001": 8.65598595275,
			"0.0": 11.0228392487,
			"0.001": 10.7953410284,
			"0.002": 12.1215514589,
			"0.003": 13.2906669481,
			"0.004": 14.1979408335,
			"0.005": 12.0797217367,
			"0.006": 2.76213067864,
			"0.007": 2.90057588867,
			"0.008": 1.66785936286,
			"0.009": 2.62592312965,
			"0.01": 2.7892984725,
			"0.011": 3.22701203036,
			"0.012": 4.58410645134,
			"0.013": 5.60308629671,
			"0.014": 1.44373528507,
			"0.015": 0.0,
			"0.016": 0.0,
			"0.017": 0.0,
			"0.018": 0.0,
			"0.019": 0.0,
			"0.02": 0.0,
			"0.021": 0.0,
			"0.022": 0.0,
			"0.023": 0.0,
			"0.024": 0.0,
			"0.025": 0.0
		}
	}
}
