{
	 "smiles": "C1=CC=C(C=C1)N=NC1=CC=CC=C1N=NC1=CC=CC=C1", 
	 "Tm": 384.15, 
	 "num_atms": 36, 
	 "gaussian": { 
		 "optdone": 1, 
		 "sigma_profile": "yes", 
		 "theory": "DFT", 
		 "functional": "B3LYP", 
		 "basiset": "6-31G**", 
		 "properties": { 
			 "R2extent": 10066.5947, 
			 "electric_dipole_moment_norm": 0.556804256449, 
			 "electric_quadrupole_moment_norm": 18.5586064377, 
			 "total_energy": -913.270097654, 
			 "HOMO_LUMO_gap": 0.12366, 
			 "cosmo_polarized_energy": -10.6, 
			 "cosmo_cavitation_energy": 42.39, 
			 "cosmo_dispersion_energy": -29.98, 
			 "cosmo_repulsion_energy": 2.28, 
			 "cosmo_total_nonelectrostatic_energy": 14.68, 
			 "SMD_solvation_energy": 4.86 
		},
		"coords": [
			{
				"x": 5.0606648793,
				"y": 1.5549163408,
				"z": -2.2655133585,
				"element": "C" 
			},
			{
				"x": 4.1614476993,
				"y": 0.8282320716,
				"z": -1.4736041183,
				"element": "C" 
			},
			{
				"x": 2.8041237036,
				"y": 1.1256970106,
				"z": -1.4963220776,
				"element": "C" 
			},
			{
				"x": 2.3354982878,
				"y": 2.1633514402,
				"z": -2.321388536,
				"element": "C" 
			},
			{
				"x": 3.2361652798,
				"y": 2.889056707,
				"z": -3.1128672506,
				"element": "C" 
			},
			{
				"x": 4.5962925368,
				"y": 2.5853557892,
				"z": -3.0850095854,
				"element": "C" 
			},
			{
				"x": 0.9779152164,
				"y": 2.5576220999,
				"z": -2.4279591625,
				"element": "N" 
			},
			{
				"x": 0.1764670853,
				"y": 1.8799407457,
				"z": -1.7283738001,
				"element": "N" 
			},
			{
				"x": -1.1690666352,
				"y": 2.3124392702,
				"z": -1.80062128,
				"element": "C" 
			},
			{
				"x": -1.5443420439,
				"y": 3.5678970554,
				"z": -2.3112771644,
				"element": "C" 
			},
			{
				"x": -2.8778161891,
				"y": 3.9502635242,
				"z": -2.3309103433,
				"element": "C" 
			},
			{
				"x": -3.8667047909,
				"y": 3.0824375516,
				"z": -1.8417051949,
				"element": "C" 
			},
			{
				"x": -3.5141164244,
				"y": 1.839256691,
				"z": -1.3367799212,
				"element": "C" 
			},
			{
				"x": -2.1669675224,
				"y": 1.4367438277,
				"z": -1.3068986669,
				"element": "C" 
			},
			{
				"x": -1.7449954312,
				"y": 0.1941794928,
				"z": -0.7770171667,
				"element": "N" 
			},
			{
				"x": -2.6726936007,
				"y": -0.6465216243,
				"z": -0.6234376166,
				"element": "N" 
			},
			{
				"x": -2.2676289464,
				"y": -1.8755593986,
				"z": -0.0443723116,
				"element": "C" 
			},
			{
				"x": -3.2811846914,
				"y": -2.8315844477,
				"z": 0.1072401854,
				"element": "C" 
			},
			{
				"x": -2.9936131929,
				"y": -4.0754960889,
				"z": 0.6666390306,
				"element": "C" 
			},
			{
				"x": -1.691499709,
				"y": -4.3677777261,
				"z": 1.0766420582,
				"element": "C" 
			},
			{
				"x": -0.6768950498,
				"y": -3.4130079533,
				"z": 0.9257845966,
				"element": "C" 
			},
			{
				"x": -0.9564899122,
				"y": -2.1707956139,
				"z": 0.3689249003,
				"element": "C" 
			},
			{
				"x": 6.1199455942,
				"y": 1.3155063675,
				"z": -2.2407256758,
				"element": "H" 
			},
			{
				"x": 4.5277217312,
				"y": 0.0273926231,
				"z": -0.8373381643,
				"element": "H" 
			},
			{
				"x": 2.0891285667,
				"y": 0.5777323012,
				"z": -0.89345192,
				"element": "H" 
			},
			{
				"x": 2.8435200281,
				"y": 3.6836426057,
				"z": -3.7394774254,
				"element": "H" 
			},
			{
				"x": 5.2913084793,
				"y": 3.1496262056,
				"z": -3.699708907,
				"element": "H" 
			},
			{
				"x": -0.7625908994,
				"y": 4.2211946774,
				"z": -2.6804220625,
				"element": "H" 
			},
			{
				"x": -3.1549851299,
				"y": 4.9265949524,
				"z": -2.7180223665,
				"element": "H" 
			},
			{
				"x": -4.9093240527,
				"y": 3.3870299473,
				"z": -1.8500998336,
				"element": "H" 
			},
			{
				"x": -4.2586740859,
				"y": 1.1531476536,
				"z": -0.9506533746,
				"element": "H" 
			},
			{
				"x": -4.2829002214,
				"y": -2.5737538273,
				"z": -0.221808338,
				"element": "H" 
			},
			{
				"x": -3.781379632,
				"y": -4.8139496471,
				"z": 0.7824350207,
				"element": "H" 
			},
			{
				"x": -1.4635157549,
				"y": -5.3358640491,
				"z": 1.5134944598,
				"element": "H" 
			},
			{
				"x": 0.33477693,
				"y": -3.645090935,
				"z": 1.2467113921,
				"element": "H" 
			},
			{
				"x": -0.188892102,
				"y": -1.4161556403,
				"z": 0.2414939785,
				"element": "H" 
			}
		],
		 "valence_orbital": [ 
			{
				"type": "occ",
				"energy": -0.2558,
				"method": "rhf"
			},
			{
				"type": "occ",
				"energy": -0.23809,
				"method": "rhf"
			},
			{
				"type": "occ",
				"energy": -0.2368,
				"method": "rhf"
			},
			{
				"type": "occ",
				"energy": -0.22073,
				"method": "rhf"
			},
			{
				"type": "occ",
				"energy": -0.2139,
				"method": "rhf"
			},
			{
				"type": "unocc",
				"energy": -0.09024,
				"method": "rhf"
			},
			{
				"type": "unocc",
				"energy": -0.07054,
				"method": "rhf"
			},
			{
				"type": "unocc",
				"energy": -0.00452,
				"method": "rhf"
			},
			{
				"type": "unocc",
				"energy": -0.0044,
				"method": "rhf"
			},
			{
				"type": "unocc",
				"energy": 0.00275,
				"method": "rhf"
			}
		],
		"cosmo_sigma_profile": { 
			"-0.025": 0.0,
			"-0.024": 0.0,
			"-0.023": 0.0,
			"-0.022": 0.0,
			"-0.021": 0.0,
			"-0.02": 0.0,
			"-0.019": 0.0,
			"-0.018": 0.0,
			"-0.017": 0.0,
			"-0.016": 0.0,
			"-0.015": 0.0,
			"-0.014": 0.0,
			"-0.013": 0.0,
			"-0.012": 0.0,
			"-0.011": 0.0,
			"-0.01": 0.0,
			"-0.009": 0.0,
			"-0.008": 0.0,
			"-0.007": 5.00050848442,
			"-0.006": 22.6289001077,
			"-0.005": 28.2613928694,
			"-0.004": 29.5123962756,
			"-0.003": 18.141828654,
			"-0.002": 18.7265370857,
			"-0.001": 17.0423322264,
			"0.0": 24.7439600524,
			"0.001": 37.333951625,
			"0.002": 44.5980979411,
			"0.003": 40.8276962783,
			"0.004": 30.7571859837,
			"0.005": 8.68851956844,
			"0.006": 4.52557879807,
			"0.007": 3.05338987055,
			"0.008": 2.84983500103,
			"0.009": 2.10986162987,
			"0.01": 1.0660266587,
			"0.011": 1.15503004341,
			"0.012": 0.724224093453,
			"0.013": 0.376304426974,
			"0.014": 0.099693340801,
			"0.015": 0.0,
			"0.016": 0.0,
			"0.017": 0.0,
			"0.018": 0.0,
			"0.019": 0.0,
			"0.02": 0.0,
			"0.021": 0.0,
			"0.022": 0.0,
			"0.023": 0.0,
			"0.024": 0.0,
			"0.025": 0.0
		}
	}
}
