{
	 "smiles": "CC(=O)C1=CC=C2C(CC3=C2C=CC=C3)=C1", 
	 "Tm": 402.65, 
	 "num_atms": 28, 
	 "gaussian": { 
		 "optdone": 1, 
		 "sigma_profile": "yes", 
		 "theory": "DFT", 
		 "functional": "B3LYP", 
		 "basiset": "6-31G**", 
		 "properties": { 
			 "R2extent": 4632.1967, 
			 "electric_dipole_moment_norm": 3.77621978836, 
			 "electric_quadrupole_moment_norm": 16.6950016975, 
			 "total_energy": -654.075850649, 
			 "HOMO_LUMO_gap": 0.16206, 
			 "cosmo_polarized_energy": -10.17, 
			 "cosmo_cavitation_energy": 31.62, 
			 "cosmo_dispersion_energy": -23.14, 
			 "cosmo_repulsion_energy": 1.76, 
			 "cosmo_total_nonelectrostatic_energy": 10.24, 
			 "SMD_solvation_energy": 5.29 
		},
		"coords": [
			{
				"x": 0.4841595856,
				"y": 2.7978953923,
				"z": -4.2620658659,
				"element": "C" 
			},
			{
				"x": 1.399306493,
				"y": 2.8708542159,
				"z": -3.0493372425,
				"element": "C" 
			},
			{
				"x": 2.3982231829,
				"y": 3.5761949861,
				"z": -3.0727148496,
				"element": "O" 
			},
			{
				"x": 1.0558140367,
				"y": 2.0669792625,
				"z": -1.834362992,
				"element": "C" 
			},
			{
				"x": 1.9175169322,
				"y": 2.1501916577,
				"z": -0.7243867766,
				"element": "C" 
			},
			{
				"x": 1.6649986776,
				"y": 1.433157676,
				"z": 0.439621652,
				"element": "C" 
			},
			{
				"x": 0.5301986828,
				"y": 0.616283953,
				"z": 0.4985552632,
				"element": "C" 
			},
			{
				"x": -0.3404323976,
				"y": 0.5255509609,
				"z": -0.6086008469,
				"element": "C" 
			},
			{
				"x": -1.4844003585,
				"y": -0.4172474954,
				"z": -0.2928159057,
				"element": "C" 
			},
			{
				"x": -1.1722362429,
				"y": -0.858623385,
				"z": 1.1227205832,
				"element": "C" 
			},
			{
				"x": 0.01495095,
				"y": -0.2413171253,
				"z": 1.571484022,
				"element": "C" 
			},
			{
				"x": 0.5067396468,
				"y": -0.4961286117,
				"z": 2.8545772142,
				"element": "C" 
			},
			{
				"x": -0.1973742191,
				"y": -1.3715220141,
				"z": 3.6827567744,
				"element": "C" 
			},
			{
				"x": -1.3749966369,
				"y": -1.9836315084,
				"z": 3.2369721402,
				"element": "C" 
			},
			{
				"x": -1.8692498407,
				"y": -1.7298944637,
				"z": 1.9526212953,
				"element": "C" 
			},
			{
				"x": -0.0835404414,
				"y": 1.2435175728,
				"z": -1.7680409479,
				"element": "C" 
			},
			{
				"x": -0.5304775719,
				"y": 3.1264217579,
				"z": -4.0110224675,
				"element": "H" 
			},
			{
				"x": 0.8899527879,
				"y": 3.4425240856,
				"z": -5.0421258075,
				"element": "H" 
			},
			{
				"x": 0.4112205071,
				"y": 1.7721753408,
				"z": -4.6402509813,
				"element": "H" 
			},
			{
				"x": 2.7863849513,
				"y": 2.7941047305,
				"z": -0.8093065657,
				"element": "H" 
			},
			{
				"x": 2.340923265,
				"y": 1.5094032909,
				"z": 1.2867118788,
				"element": "H" 
			},
			{
				"x": -2.459861589,
				"y": 0.0827554076,
				"z": -0.3612270183,
				"element": "H" 
			},
			{
				"x": -1.5214696778,
				"y": -1.266085527,
				"z": -0.9887346964,
				"element": "H" 
			},
			{
				"x": 1.4200867378,
				"y": -0.0237052964,
				"z": 3.2051813497,
				"element": "H" 
			},
			{
				"x": 0.1712241284,
				"y": -1.5804213916,
				"z": 4.6828980456,
				"element": "H" 
			},
			{
				"x": -1.9101307767,
				"y": -2.6622535501,
				"z": 3.8949422468,
				"element": "H" 
			},
			{
				"x": -2.7842702575,
				"y": -2.2091474275,
				"z": 1.614074585,
				"element": "H" 
			},
			{
				"x": -0.7585605551,
				"y": 1.1679675058,
				"z": -2.6154240866,
				"element": "H" 
			}
		],
		 "valence_orbital": [ 
			{
				"type": "occ",
				"energy": -0.28529,
				"method": "rhf"
			},
			{
				"type": "occ",
				"energy": -0.25732,
				"method": "rhf"
			},
			{
				"type": "occ",
				"energy": -0.24899,
				"method": "rhf"
			},
			{
				"type": "occ",
				"energy": -0.24305,
				"method": "rhf"
			},
			{
				"type": "occ",
				"energy": -0.22224,
				"method": "rhf"
			},
			{
				"type": "unocc",
				"energy": -0.06018,
				"method": "rhf"
			},
			{
				"type": "unocc",
				"energy": -0.01764,
				"method": "rhf"
			},
			{
				"type": "unocc",
				"energy": -0.00197,
				"method": "rhf"
			},
			{
				"type": "unocc",
				"energy": 0.00416,
				"method": "rhf"
			},
			{
				"type": "unocc",
				"energy": 0.05975,
				"method": "rhf"
			}
		],
		"cosmo_sigma_profile": { 
			"-0.025": 0.0,
			"-0.024": 0.0,
			"-0.023": 0.0,
			"-0.022": 0.0,
			"-0.021": 0.0,
			"-0.02": 0.0,
			"-0.019": 0.0,
			"-0.018": 0.0,
			"-0.017": 0.0,
			"-0.016": 0.0,
			"-0.015": 0.0,
			"-0.014": 0.0,
			"-0.013": 0.0,
			"-0.012": 0.0,
			"-0.011": 0.0,
			"-0.01": 0.0,
			"-0.009": 0.0,
			"-0.008": 0.0,
			"-0.007": 0.770449548199,
			"-0.006": 16.7185837989,
			"-0.005": 24.9533168479,
			"-0.004": 24.9589162202,
			"-0.003": 24.2479581304,
			"-0.002": 20.8778891892,
			"-0.001": 17.9767248869,
			"0.0": 15.4429126813,
			"0.001": 14.3883371329,
			"0.002": 17.1634514535,
			"0.003": 19.8718482232,
			"0.004": 21.3246383737,
			"0.005": 12.1197827881,
			"0.006": 5.83244413472,
			"0.007": 1.58167768462,
			"0.008": 1.66146911004,
			"0.009": 1.65956476452,
			"0.01": 1.95915122863,
			"0.011": 2.53562393447,
			"0.012": 4.16801965993,
			"0.013": 2.36473522555,
			"0.014": 0.364491992107,
			"0.015": 0.0,
			"0.016": 0.0,
			"0.017": 0.0,
			"0.018": 0.0,
			"0.019": 0.0,
			"0.02": 0.0,
			"0.021": 0.0,
			"0.022": 0.0,
			"0.023": 0.0,
			"0.024": 0.0,
			"0.025": 0.0
		}
	}
}
