{
	 "smiles": "COC1=C(OCC(N)=O)C=C(N)C=C1", 
	 "Tm": 435.15, 
	 "num_atms": 26, 
	 "gaussian": { 
		 "optdone": 1, 
		 "sigma_profile": "yes", 
		 "theory": "DFT", 
		 "functional": "B3LYP", 
		 "basiset": "6-31G**", 
		 "properties": { 
			 "R2extent": 4026.2314, 
			 "electric_dipole_moment_norm": 5.71853493213, 
			 "electric_quadrupole_moment_norm": 21.6577585304, 
			 "total_energy": -685.350798043, 
			 "HOMO_LUMO_gap": 0.19924, 
			 "cosmo_polarized_energy": -18.04, 
			 "cosmo_cavitation_energy": 30.25, 
			 "cosmo_dispersion_energy": -21.5, 
			 "cosmo_repulsion_energy": 1.75, 
			 "cosmo_total_nonelectrostatic_energy": 10.5, 
			 "SMD_solvation_energy": 6.93 
		},
		"coords": [
			{
				"x": 0.9643327269,
				"y": -0.13532885,
				"z": -2.7911212155,
				"element": "C" 
			},
			{
				"x": 1.9632250388,
				"y": 0.1550198827,
				"z": -1.809322193,
				"element": "O" 
			},
			{
				"x": 1.5853669054,
				"y": -0.1133926054,
				"z": -0.5074161061,
				"element": "C" 
			},
			{
				"x": 0.6849287924,
				"y": 0.7145414944,
				"z": 0.1846634204,
				"element": "C" 
			},
			{
				"x": 0.084579066,
				"y": 1.7967984782,
				"z": -0.4315328248,
				"element": "O" 
			},
			{
				"x": 0.9641146702,
				"y": 2.8699701145,
				"z": -0.8011245282,
				"element": "C" 
			},
			{
				"x": 0.1921271542,
				"y": 3.9659695132,
				"z": -1.5297699416,
				"element": "C" 
			},
			{
				"x": -1.1224490788,
				"y": 3.7007849519,
				"z": -1.7504346608,
				"element": "N" 
			},
			{
				"x": 0.7625505364,
				"y": 4.9867448157,
				"z": -1.8856014295,
				"element": "O" 
			},
			{
				"x": 0.3357638535,
				"y": 0.434587985,
				"z": 1.5034849619,
				"element": "C" 
			},
			{
				"x": 0.881436112,
				"y": -0.6735596678,
				"z": 2.1724416347,
				"element": "C" 
			},
			{
				"x": 0.5724100677,
				"y": -0.9154743658,
				"z": 3.5139116696,
				"element": "N" 
			},
			{
				"x": 1.7978231761,
				"y": -1.4866236236,
				"z": 1.4846294148,
				"element": "C" 
			},
			{
				"x": 2.1363642509,
				"y": -1.2051174516,
				"z": 0.1631302467,
				"element": "C" 
			},
			{
				"x": 1.411074469,
				"y": 0.0893157686,
				"z": -3.7620775647,
				"element": "H" 
			},
			{
				"x": 0.071448631,
				"y": 0.4835036709,
				"z": -2.6487441162,
				"element": "H" 
			},
			{
				"x": 0.6794883865,
				"y": -1.1947563283,
				"z": -2.7586854632,
				"element": "H" 
			},
			{
				"x": 1.7616229543,
				"y": 2.5114295461,
				"z": -1.4591407415,
				"element": "H" 
			},
			{
				"x": 1.423040194,
				"y": 3.3123212845,
				"z": 0.0915741662,
				"element": "H" 
			},
			{
				"x": -1.5443307425,
				"y": 2.8724410642,
				"z": -1.3612788374,
				"element": "H" 
			},
			{
				"x": -1.6882887579,
				"y": 4.4123125281,
				"z": -2.18584587,
				"element": "H" 
			},
			{
				"x": -0.3626479457,
				"y": 1.0995830949,
				"z": 2.003308054,
				"element": "H" 
			},
			{
				"x": -0.3175695277,
				"y": -0.5482430678,
				"z": 3.821430142,
				"element": "H" 
			},
			{
				"x": 0.7066621368,
				"y": -1.8706074064,
				"z": 3.8160570263,
				"element": "H" 
			},
			{
				"x": 2.2433750816,
				"y": -2.3407821224,
				"z": 1.9875225376,
				"element": "H" 
			},
			{
				"x": 2.839251849,
				"y": -1.834338704,
				"z": -0.3741577815,
				"element": "H" 
			}
		],
		 "valence_orbital": [ 
			{
				"type": "occ",
				"energy": -0.2672,
				"method": "rhf"
			},
			{
				"type": "occ",
				"energy": -0.25963,
				"method": "rhf"
			},
			{
				"type": "occ",
				"energy": -0.2455,
				"method": "rhf"
			},
			{
				"type": "occ",
				"energy": -0.24035,
				"method": "rhf"
			},
			{
				"type": "occ",
				"energy": -0.20081,
				"method": "rhf"
			},
			{
				"type": "unocc",
				"energy": -0.00157,
				"method": "rhf"
			},
			{
				"type": "unocc",
				"energy": 0.01506,
				"method": "rhf"
			},
			{
				"type": "unocc",
				"energy": 0.03764,
				"method": "rhf"
			},
			{
				"type": "unocc",
				"energy": 0.07269,
				"method": "rhf"
			},
			{
				"type": "unocc",
				"energy": 0.0803,
				"method": "rhf"
			}
		],
		"cosmo_sigma_profile": { 
			"-0.025": 0.0,
			"-0.024": 0.0,
			"-0.023": 0.0,
			"-0.022": 0.0,
			"-0.021": 0.0,
			"-0.02": 0.0,
			"-0.019": 0.0,
			"-0.018": 0.0,
			"-0.017": 0.0,
			"-0.016": 0.0,
			"-0.015": 0.0625372448687,
			"-0.014": 0.931065593343,
			"-0.013": 1.7731582498,
			"-0.012": 4.32080243772,
			"-0.011": 4.15494408339,
			"-0.01": 5.42977657756,
			"-0.009": 4.95471875741,
			"-0.008": 5.23377396832,
			"-0.007": 4.45266664585,
			"-0.006": 9.69159679425,
			"-0.005": 12.3961034684,
			"-0.004": 15.017757069,
			"-0.003": 19.790476995,
			"-0.002": 19.2737712293,
			"-0.001": 15.4448324872,
			"0.0": 13.9426073222,
			"0.001": 10.7401994818,
			"0.002": 11.9049870357,
			"0.003": 12.2984493951,
			"0.004": 13.6315184218,
			"0.005": 13.6424181606,
			"0.006": 8.5804775358,
			"0.007": 3.0118486542,
			"0.008": 3.07096355456,
			"0.009": 2.5437616412,
			"0.01": 2.96002375171,
			"0.011": 3.75265961383,
			"0.012": 3.00268688765,
			"0.013": 4.87271978766,
			"0.014": 5.96321585578,
			"0.015": 1.97365400702,
			"0.016": 0.0,
			"0.017": 0.0,
			"0.018": 0.0,
			"0.019": 0.0,
			"0.02": 0.0,
			"0.021": 0.0,
			"0.022": 0.0,
			"0.023": 0.0,
			"0.024": 0.0,
			"0.025": 0.0
		}
	}
}
