{
	 "smiles": "CC1=CC=C(C2=C1C=CC=C2)N(=O)=O", 
	 "Tm": 344.65, 
	 "num_atms": 23, 
	 "gaussian": { 
		 "optdone": 1, 
		 "sigma_profile": "yes", 
		 "theory": "DFT", 
		 "functional": "B3LYP", 
		 "basiset": "6-31G**", 
		 "properties": { 
			 "R2extent": 2843.66, 
			 "electric_dipole_moment_norm": 5.17186579196, 
			 "electric_quadrupole_moment_norm": 14.9122474765, 
			 "total_energy": -629.706613919, 
			 "HOMO_LUMO_gap": 0.14586, 
			 "cosmo_polarized_energy": -8.95, 
			 "cosmo_cavitation_energy": 26.79, 
			 "cosmo_dispersion_energy": -19.98, 
			 "cosmo_repulsion_energy": 1.53, 
			 "cosmo_total_nonelectrostatic_energy": 8.34, 
			 "SMD_solvation_energy": 6.49 
		},
		"coords": [
			{
				"x": -1.8845914525,
				"y": -0.8514464121,
				"z": 2.5215671411,
				"element": "C" 
			},
			{
				"x": -0.6346501926,
				"y": -0.8774082861,
				"z": 1.6773001766,
				"element": "C" 
			},
			{
				"x": 0.4578792082,
				"y": -1.6148774874,
				"z": 2.0898649399,
				"element": "C" 
			},
			{
				"x": 1.6368461355,
				"y": -1.6634182997,
				"z": 1.3273529378,
				"element": "C" 
			},
			{
				"x": 1.719999496,
				"y": -0.9858992915,
				"z": 0.1310247745,
				"element": "C" 
			},
			{
				"x": 0.635919643,
				"y": -0.1883448884,
				"z": -0.3622870967,
				"element": "C" 
			},
			{
				"x": -0.5557115313,
				"y": -0.1416666896,
				"z": 0.4482265091,
				"element": "C" 
			},
			{
				"x": -1.6481932837,
				"y": 0.6542137749,
				"z": 0.0069280303,
				"element": "C" 
			},
			{
				"x": -1.582321328,
				"y": 1.3817097928,
				"z": -1.1589716339,
				"element": "C" 
			},
			{
				"x": -0.4085032464,
				"y": 1.346865298,
				"z": -1.940354754,
				"element": "C" 
			},
			{
				"x": 0.6713627028,
				"y": 0.5817685372,
				"z": -1.5578171595,
				"element": "C" 
			},
			{
				"x": 2.9882180022,
				"y": -1.149383417,
				"z": -0.599127287,
				"element": "N" 
			},
			{
				"x": 3.9833126133,
				"y": -1.462414739,
				"z": 0.056716769,
				"element": "O" 
			},
			{
				"x": 2.9953639297,
				"y": -0.9961926478,
				"z": -1.8226488024,
				"element": "O" 
			},
			{
				"x": -2.753467609,
				"y": -1.2249015783,
				"z": 1.967969003,
				"element": "H" 
			},
			{
				"x": -2.126078045,
				"y": 0.1646683596,
				"z": 2.8538425165,
				"element": "H" 
			},
			{
				"x": -1.7620285278,
				"y": -1.4733554711,
				"z": 3.4111704395,
				"element": "H" 
			},
			{
				"x": 0.4106639457,
				"y": -2.1734721661,
				"z": 3.019815054,
				"element": "H" 
			},
			{
				"x": 2.49109889,
				"y": -2.2386273066,
				"z": 1.6611103819,
				"element": "H" 
			},
			{
				"x": -2.5492473201,
				"y": 0.6913611378,
				"z": 0.6083395902,
				"element": "H" 
			},
			{
				"x": -2.4286740598,
				"y": 1.9845814149,
				"z": -1.4743636368,
				"element": "H" 
			},
			{
				"x": -0.3520606304,
				"y": 1.9273025347,
				"z": -2.8564912215,
				"element": "H" 
			},
			{
				"x": 1.5593626603,
				"y": 0.5562378308,
				"z": -2.1711666717,
				"element": "H" 
			}
		],
		 "valence_orbital": [ 
			{
				"type": "occ",
				"energy": -0.29915,
				"method": "rhf"
			},
			{
				"type": "occ",
				"energy": -0.29815,
				"method": "rhf"
			},
			{
				"type": "occ",
				"energy": -0.27876,
				"method": "rhf"
			},
			{
				"type": "occ",
				"energy": -0.26184,
				"method": "rhf"
			},
			{
				"type": "occ",
				"energy": -0.23378,
				"method": "rhf"
			},
			{
				"type": "unocc",
				"energy": -0.08792,
				"method": "rhf"
			},
			{
				"type": "unocc",
				"energy": -0.03763,
				"method": "rhf"
			},
			{
				"type": "unocc",
				"energy": -0.02669,
				"method": "rhf"
			},
			{
				"type": "unocc",
				"energy": 0.02745,
				"method": "rhf"
			},
			{
				"type": "unocc",
				"energy": 0.08166,
				"method": "rhf"
			}
		],
		"cosmo_sigma_profile": { 
			"-0.025": 0.0,
			"-0.024": 0.0,
			"-0.023": 0.0,
			"-0.022": 0.0,
			"-0.021": 0.0,
			"-0.02": 0.0,
			"-0.019": 0.0,
			"-0.018": 0.0,
			"-0.017": 0.0,
			"-0.016": 0.0,
			"-0.015": 0.0,
			"-0.014": 0.0,
			"-0.013": 0.0,
			"-0.012": 0.0,
			"-0.011": 0.0,
			"-0.01": 0.0,
			"-0.009": 0.0,
			"-0.008": 0.241188613569,
			"-0.007": 4.03609321326,
			"-0.006": 14.2392865042,
			"-0.005": 19.5517786301,
			"-0.004": 17.8162616321,
			"-0.003": 16.9995423628,
			"-0.002": 15.1636042246,
			"-0.001": 16.5122633975,
			"0.0": 15.8631178103,
			"0.001": 19.0761140461,
			"0.002": 18.4856023053,
			"0.003": 14.5961229748,
			"0.004": 11.9626368519,
			"0.005": 3.8818660527,
			"0.006": 3.63730226102,
			"0.007": 5.33995506004,
			"0.008": 8.56682444894,
			"0.009": 4.55626387952,
			"0.01": 3.66423362879,
			"0.011": 0.776107114435,
			"0.012": 0.0,
			"0.013": 0.0,
			"0.014": 0.0,
			"0.015": 0.0,
			"0.016": 0.0,
			"0.017": 0.0,
			"0.018": 0.0,
			"0.019": 0.0,
			"0.02": 0.0,
			"0.021": 0.0,
			"0.022": 0.0,
			"0.023": 0.0,
			"0.024": 0.0,
			"0.025": 0.0
		}
	}
}
