{
	 "smiles": "CC(=O)NC1=CC=C2C(C=CC(O)=C2NC(C)=O)=C1", 
	 "Tm": 508.15, 
	 "num_atms": 33, 
	 "gaussian": { 
		 "optdone": 1, 
		 "sigma_profile": "yes", 
		 "theory": "DFT", 
		 "functional": "B3LYP", 
		 "basiset": "6-31G**", 
		 "properties": { 
			 "R2extent": 7083.6777, 
			 "electric_dipole_moment_norm": 3.25449494392, 
			 "electric_quadrupole_moment_norm": 27.2745402863, 
			 "total_energy": -877.159526389, 
			 "HOMO_LUMO_gap": 0.15115, 
			 "cosmo_polarized_energy": -22.26, 
			 "cosmo_cavitation_energy": 36.73, 
			 "cosmo_dispersion_energy": -27.11, 
			 "cosmo_repulsion_energy": 2.05, 
			 "cosmo_total_nonelectrostatic_energy": 11.67, 
			 "SMD_solvation_energy": 7.7 
		},
		"coords": [
			{
				"x": -6.1808994022,
				"y": 1.3572699518,
				"z": -1.2865153788,
				"element": "C" 
			},
			{
				"x": -4.8513308418,
				"y": 0.6292971547,
				"z": -1.4323671113,
				"element": "C" 
			},
			{
				"x": -4.6779652939,
				"y": -0.2097272849,
				"z": -2.3054600835,
				"element": "O" 
			},
			{
				"x": -3.8967370631,
				"y": 0.9974192356,
				"z": -0.5088957362,
				"element": "N" 
			},
			{
				"x": -2.5740120864,
				"y": 0.5275709901,
				"z": -0.3584156134,
				"element": "C" 
			},
			{
				"x": -2.0200613571,
				"y": -0.485182243,
				"z": -1.1842346932,
				"element": "C" 
			},
			{
				"x": -0.7196270795,
				"y": -0.8965407204,
				"z": -0.9875901966,
				"element": "C" 
			},
			{
				"x": 0.1133877074,
				"y": -0.3381509109,
				"z": 0.0188295785,
				"element": "C" 
			},
			{
				"x": -0.4627164838,
				"y": 0.6618786694,
				"z": 0.8666139412,
				"element": "C" 
			},
			{
				"x": 0.3273240013,
				"y": 1.2102756259,
				"z": 1.914790819,
				"element": "C" 
			},
			{
				"x": 1.6121241956,
				"y": 0.7835995341,
				"z": 2.1169184939,
				"element": "C" 
			},
			{
				"x": 2.2200782356,
				"y": -0.1826200436,
				"z": 1.267163188,
				"element": "C" 
			},
			{
				"x": 3.5075347941,
				"y": -0.4832496375,
				"z": 1.5245977469,
				"element": "O" 
			},
			{
				"x": 1.4813217078,
				"y": -0.7203511841,
				"z": 0.2138039061,
				"element": "C" 
			},
			{
				"x": 2.0515144781,
				"y": -1.5957740516,
				"z": -0.7587006425,
				"element": "N" 
			},
			{
				"x": 2.9585752942,
				"y": -2.5958216739,
				"z": -0.5926635909,
				"element": "C" 
			},
			{
				"x": 3.3046511186,
				"y": -3.3881033895,
				"z": -1.8381627368,
				"element": "C" 
			},
			{
				"x": 3.4949961584,
				"y": -2.8593915056,
				"z": 0.4914295366,
				"element": "O" 
			},
			{
				"x": -1.7975141772,
				"y": 1.0730406026,
				"z": 0.6504428422,
				"element": "C" 
			},
			{
				"x": -6.4174572737,
				"y": 1.8418858942,
				"z": -2.2374252401,
				"element": "H" 
			},
			{
				"x": -6.2011285176,
				"y": 2.1073681246,
				"z": -0.4909664028,
				"element": "H" 
			},
			{
				"x": -6.9637354583,
				"y": 0.6180023582,
				"z": -1.0952190971,
				"element": "H" 
			},
			{
				"x": -4.1710061676,
				"y": 1.7052838101,
				"z": 0.1563756641,
				"element": "H" 
			},
			{
				"x": -2.6365139626,
				"y": -0.9282918668,
				"z": -1.9531431316,
				"element": "H" 
			},
			{
				"x": -0.3489974617,
				"y": -1.7052965435,
				"z": -1.6097725735,
				"element": "H" 
			},
			{
				"x": -0.1076457836,
				"y": 1.9654328511,
				"z": 2.5638713634,
				"element": "H" 
			},
			{
				"x": 2.2249269493,
				"y": 1.1805797641,
				"z": 2.9194514614,
				"element": "H" 
			},
			{
				"x": 3.6701042854,
				"y": -1.4205570457,
				"z": 1.2364598954,
				"element": "H" 
			},
			{
				"x": 1.6982215697,
				"y": -1.4697200838,
				"z": -1.6965349264,
				"element": "H" 
			},
			{
				"x": 4.3555705102,
				"y": -3.2144959866,
				"z": -2.0878327787,
				"element": "H" 
			},
			{
				"x": 3.1964005725,
				"y": -4.4512721744,
				"z": -1.6099118847,
				"element": "H" 
			},
			{
				"x": 2.6881096362,
				"y": -3.1426366012,
				"z": -2.7066092525,
				"element": "H" 
			},
			{
				"x": -2.2124928044,
				"y": 1.8377783805,
				"z": 1.3046726341,
				"element": "H" 
			}
		],
		 "valence_orbital": [ 
			{
				"type": "occ",
				"energy": -0.27362,
				"method": "rhf"
			},
			{
				"type": "occ",
				"energy": -0.25552,
				"method": "rhf"
			},
			{
				"type": "occ",
				"energy": -0.25042,
				"method": "rhf"
			},
			{
				"type": "occ",
				"energy": -0.22899,
				"method": "rhf"
			},
			{
				"type": "occ",
				"energy": -0.19461,
				"method": "rhf"
			},
			{
				"type": "unocc",
				"energy": -0.04346,
				"method": "rhf"
			},
			{
				"type": "unocc",
				"energy": -0.01486,
				"method": "rhf"
			},
			{
				"type": "unocc",
				"energy": 0.00167,
				"method": "rhf"
			},
			{
				"type": "unocc",
				"energy": 0.03469,
				"method": "rhf"
			},
			{
				"type": "unocc",
				"energy": 0.04061,
				"method": "rhf"
			}
		],
		"cosmo_sigma_profile": { 
			"-0.025": 0.0,
			"-0.024": 0.0,
			"-0.023": 0.0,
			"-0.022": 0.0,
			"-0.021": 0.0,
			"-0.02": 0.0,
			"-0.019": 0.0,
			"-0.018": 0.0,
			"-0.017": 0.0,
			"-0.016": 0.123972254017,
			"-0.015": 1.48857678886,
			"-0.014": 2.50790987188,
			"-0.013": 3.29180612296,
			"-0.012": 2.98966622036,
			"-0.011": 3.45026803052,
			"-0.01": 2.95161141501,
			"-0.009": 3.45435337571,
			"-0.008": 3.8296977526,
			"-0.007": 6.28789996935,
			"-0.006": 16.2663944618,
			"-0.005": 15.7350262112,
			"-0.004": 20.6015728119,
			"-0.003": 22.0000531141,
			"-0.002": 23.5851918994,
			"-0.001": 17.2304322968,
			"0.0": 12.1498695247,
			"0.001": 13.1163505181,
			"0.002": 18.7624843998,
			"0.003": 26.4244097879,
			"0.004": 26.2570714238,
			"0.005": 9.8519779799,
			"0.006": 3.72688318217,
			"0.007": 5.5192369635,
			"0.008": 4.0681314647,
			"0.009": 3.18825526031,
			"0.01": 4.76679701468,
			"0.011": 5.5879959711,
			"0.012": 5.80176383722,
			"0.013": 5.3777436185,
			"0.014": 2.37192387539,
			"0.015": 0.291092408712,
			"0.016": 0.0,
			"0.017": 0.0,
			"0.018": 0.0,
			"0.019": 0.0,
			"0.02": 0.0,
			"0.021": 0.0,
			"0.022": 0.0,
			"0.023": 0.0,
			"0.024": 0.0,
			"0.025": 0.0
		}
	}
}
