{
	 "smiles": "COC(=O)C1=C(C)NC(=O)NC1C1=CC2=C(OCO2)C=C1", 
	 "Tm": 513.15, 
	 "num_atms": 35, 
	 "gaussian": { 
		 "optdone": 1, 
		 "sigma_profile": "yes", 
		 "theory": "DFT", 
		 "functional": "B3LYP", 
		 "basiset": "6-31G**", 
		 "properties": { 
			 "R2extent": 7550.1239, 
			 "electric_dipole_moment_norm": 2.40786214306, 
			 "electric_quadrupole_moment_norm": 24.0064147702, 
			 "total_energy": -1027.55356442, 
			 "HOMO_LUMO_gap": 0.16852, 
			 "cosmo_polarized_energy": -19.38, 
			 "cosmo_cavitation_energy": 38.84, 
			 "cosmo_dispersion_energy": -27.43, 
			 "cosmo_repulsion_energy": 2.13, 
			 "cosmo_total_nonelectrostatic_energy": 13.54, 
			 "SMD_solvation_energy": 8.95 
		},
		"coords": [
			{
				"x": -0.1089330032,
				"y": 1.8426182589,
				"z": 3.899007981,
				"element": "C" 
			},
			{
				"x": -0.7911322899,
				"y": 1.2663494347,
				"z": 2.7775947327,
				"element": "O" 
			},
			{
				"x": -0.4562058473,
				"y": -0.0224824282,
				"z": 2.4939878563,
				"element": "C" 
			},
			{
				"x": 0.3560366908,
				"y": -0.6301576286,
				"z": 3.17444594,
				"element": "O" 
			},
			{
				"x": -1.1962066025,
				"y": -0.5086580795,
				"z": 1.3160518393,
				"element": "C" 
			},
			{
				"x": -1.1012655337,
				"y": -1.794459302,
				"z": 0.8717037573,
				"element": "C" 
			},
			{
				"x": -0.2576510952,
				"y": -2.8988244644,
				"z": 1.4461532383,
				"element": "C" 
			},
			{
				"x": -1.8441836181,
				"y": -2.1874848068,
				"z": -0.2287429558,
				"element": "N" 
			},
			{
				"x": -2.9012142381,
				"y": -1.4608332408,
				"z": -0.7906988265,
				"element": "C" 
			},
			{
				"x": -3.6048285485,
				"y": -1.9397270425,
				"z": -1.6675220341,
				"element": "O" 
			},
			{
				"x": -3.0754505235,
				"y": -0.2288166171,
				"z": -0.2308017834,
				"element": "N" 
			},
			{
				"x": -2.071316833,
				"y": 0.4927280578,
				"z": 0.56936864,
				"element": "C" 
			},
			{
				"x": -1.2770000478,
				"y": 1.4890077666,
				"z": -0.2826239022,
				"element": "C" 
			},
			{
				"x": -1.5627359538,
				"y": 2.8652322917,
				"z": -0.164614088,
				"element": "C" 
			},
			{
				"x": -0.8675504518,
				"y": 3.7334396072,
				"z": -0.9824547625,
				"element": "C" 
			},
			{
				"x": 0.0838816771,
				"y": 3.2848103592,
				"z": -1.8941458416,
				"element": "C" 
			},
			{
				"x": 0.635862309,
				"y": 4.3567329195,
				"z": -2.5537700075,
				"element": "O" 
			},
			{
				"x": -0.1203768289,
				"y": 5.4992343549,
				"z": -2.1358195491,
				"element": "C" 
			},
			{
				"x": -0.9478007834,
				"y": 5.1054112236,
				"z": -1.0346268159,
				"element": "O" 
			},
			{
				"x": 0.3854403871,
				"y": 1.9429138146,
				"z": -2.0264993554,
				"element": "C" 
			},
			{
				"x": -0.3165604178,
				"y": 1.0492845843,
				"z": -1.1998762237,
				"element": "C" 
			},
			{
				"x": -0.333393839,
				"y": 1.2902040739,
				"z": 4.8151520084,
				"element": "H" 
			},
			{
				"x": 0.9723304026,
				"y": 1.8323590949,
				"z": 3.7407574193,
				"element": "H" 
			},
			{
				"x": -0.4751814689,
				"y": 2.8670210429,
				"z": 3.9701880389,
				"element": "H" 
			},
			{
				"x": 0.3597954764,
				"y": -2.5383782846,
				"z": 2.2633651631,
				"element": "H" 
			},
			{
				"x": 0.3823191947,
				"y": -3.3181053834,
				"z": 0.660173282,
				"element": "H" 
			},
			{
				"x": -0.9047522203,
				"y": -3.7074996816,
				"z": 1.8074572712,
				"element": "H" 
			},
			{
				"x": -1.7936676848,
				"y": -3.1439313997,
				"z": -0.5491312648,
				"element": "H" 
			},
			{
				"x": -3.7637701944,
				"y": 0.3307754864,
				"z": -0.7154013155,
				"element": "H" 
			},
			{
				"x": -2.6251033545,
				"y": 1.0758514983,
				"z": 1.3101946399,
				"element": "H" 
			},
			{
				"x": -2.2920620229,
				"y": 3.2312540533,
				"z": 0.5506106939,
				"element": "H" 
			},
			{
				"x": -0.753482149,
				"y": 5.8441431267,
				"z": -2.9660810102,
				"element": "H" 
			},
			{
				"x": 0.5631603946,
				"y": 6.2909060862,
				"z": -1.8135589323,
				"element": "H" 
			},
			{
				"x": 1.1319134709,
				"y": 1.5998434024,
				"z": -2.7338978118,
				"element": "H" 
			},
			{
				"x": -0.1022144531,
				"y": -0.0117621787,
				"z": -1.2787460211,
				"element": "H" 
			}
		],
		 "valence_orbital": [ 
			{
				"type": "occ",
				"energy": -0.26615,
				"method": "rhf"
			},
			{
				"type": "occ",
				"energy": -0.25623,
				"method": "rhf"
			},
			{
				"type": "occ",
				"energy": -0.2491,
				"method": "rhf"
			},
			{
				"type": "occ",
				"energy": -0.22825,
				"method": "rhf"
			},
			{
				"type": "occ",
				"energy": -0.20744,
				"method": "rhf"
			},
			{
				"type": "unocc",
				"energy": -0.03892,
				"method": "rhf"
			},
			{
				"type": "unocc",
				"energy": -0.00253,
				"method": "rhf"
			},
			{
				"type": "unocc",
				"energy": 0.00276,
				"method": "rhf"
			},
			{
				"type": "unocc",
				"energy": 0.05999,
				"method": "rhf"
			},
			{
				"type": "unocc",
				"energy": 0.07349,
				"method": "rhf"
			}
		],
		"cosmo_sigma_profile": { 
			"-0.025": 0.0,
			"-0.024": 0.0,
			"-0.023": 0.0,
			"-0.022": 0.0,
			"-0.021": 0.0,
			"-0.02": 0.0,
			"-0.019": 0.0,
			"-0.018": 0.0,
			"-0.017": 0.0,
			"-0.016": 0.0916095968528,
			"-0.015": 0.682522146446,
			"-0.014": 1.86046693465,
			"-0.013": 1.92411227371,
			"-0.012": 1.46960971192,
			"-0.011": 2.09894216701,
			"-0.01": 2.2696588068,
			"-0.009": 2.54733558132,
			"-0.008": 5.04914352075,
			"-0.007": 13.1554685106,
			"-0.006": 20.4037590565,
			"-0.005": 20.1890750934,
			"-0.004": 19.3773035016,
			"-0.003": 23.2329950933,
			"-0.002": 20.2434819164,
			"-0.001": 21.7051774505,
			"0.0": 20.6186463826,
			"0.001": 17.9985617292,
			"0.002": 19.0398806468,
			"0.003": 18.2181233313,
			"0.004": 16.426540889,
			"0.005": 11.3195095342,
			"0.006": 6.81270907092,
			"0.007": 6.49056948697,
			"0.008": 4.90417568642,
			"0.009": 6.58091066147,
			"0.01": 3.7825508798,
			"0.011": 4.06008329839,
			"0.012": 4.98830995413,
			"0.013": 6.3584477787,
			"0.014": 4.6577131576,
			"0.015": 0.293557166725,
			"0.016": 0.0,
			"0.017": 0.0,
			"0.018": 0.0,
			"0.019": 0.0,
			"0.02": 0.0,
			"0.021": 0.0,
			"0.022": 0.0,
			"0.023": 0.0,
			"0.024": 0.0,
			"0.025": 0.0
		}
	}
}
