{
	 "smiles": "CSC1=NC2=C(N1C)C(=O)NC(=S)N2", 
	 "Tm": 563.15, 
	 "num_atms": 22, 
	 "gaussian": { 
		 "optdone": 1, 
		 "sigma_profile": "yes", 
		 "theory": "DFT", 
		 "functional": "B3LYP", 
		 "basiset": "6-31G**", 
		 "properties": { 
			 "R2extent": 5483.553, 
			 "electric_dipole_moment_norm": 6.26755933837, 
			 "electric_quadrupole_moment_norm": 19.6423496736, 
			 "total_energy": -1362.21306809, 
			 "HOMO_LUMO_gap": 0.17007, 
			 "cosmo_polarized_energy": -17.67, 
			 "cosmo_cavitation_energy": 29.74, 
			 "cosmo_dispersion_energy": -23.03, 
			 "cosmo_repulsion_energy": 1.71, 
			 "cosmo_total_nonelectrostatic_energy": 8.43, 
			 "SMD_solvation_energy": 3.35 
		},
		"coords": [
			{
				"x": 0.8810177714,
				"y": 1.9438731554,
				"z": 1.5729194194,
				"element": "C" 
			},
			{
				"x": 1.4999781792,
				"y": 0.318795911,
				"z": 1.0127446213,
				"element": "S" 
			},
			{
				"x": 0.2486287407,
				"y": -0.0754916752,
				"z": -0.156288135,
				"element": "C" 
			},
			{
				"x": -0.8049890111,
				"y": 0.6911770896,
				"z": -0.4523205028,
				"element": "N" 
			},
			{
				"x": -1.4669199428,
				"y": -0.0287540073,
				"z": -1.3910784188,
				"element": "C" 
			},
			{
				"x": -0.8385663225,
				"y": -1.2247360944,
				"z": -1.6773773884,
				"element": "C" 
			},
			{
				"x": 0.2859558851,
				"y": -1.2434128269,
				"z": -0.8604863788,
				"element": "N" 
			},
			{
				"x": 1.2870772041,
				"y": -2.3041275882,
				"z": -0.7876417036,
				"element": "C" 
			},
			{
				"x": -1.3492555987,
				"y": -2.1576612803,
				"z": -2.6383986173,
				"element": "C" 
			},
			{
				"x": -0.8896282976,
				"y": -3.2413176231,
				"z": -2.9787852064,
				"element": "O" 
			},
			{
				"x": -2.5492320074,
				"y": -1.6597457589,
				"z": -3.2107470983,
				"element": "N" 
			},
			{
				"x": -3.2223113599,
				"y": -0.4793571577,
				"z": -2.9668700707,
				"element": "C" 
			},
			{
				"x": -4.6379091329,
				"y": -0.0656537581,
				"z": -3.7503628978,
				"element": "S" 
			},
			{
				"x": -2.633168036,
				"y": 0.32906058,
				"z": -2.0263472602,
				"element": "N" 
			},
			{
				"x": 1.59942815,
				"y": 2.2886636721,
				"z": 2.3186280356,
				"element": "H" 
			},
			{
				"x": 0.8392825813,
				"y": 2.6413873583,
				"z": 0.736806795,
				"element": "H" 
			},
			{
				"x": -0.107203514,
				"y": 1.8385777764,
				"z": 2.0197613685,
				"element": "H" 
			},
			{
				"x": 2.2724279345,
				"y": -1.9133816664,
				"z": -1.0576100926,
				"element": "H" 
			},
			{
				"x": 1.3277075064,
				"y": -2.7170697876,
				"z": 0.2244386206,
				"element": "H" 
			},
			{
				"x": 0.9936471427,
				"y": -3.0824306052,
				"z": -1.491633312,
				"element": "H" 
			},
			{
				"x": -2.9763593573,
				"y": -2.2632364429,
				"z": -3.9036211513,
				"element": "H" 
			},
			{
				"x": -3.0923085152,
				"y": 1.2046407295,
				"z": -1.8154306266,
				"element": "H" 
			}
		],
		 "valence_orbital": [ 
			{
				"type": "occ",
				"energy": -0.28235,
				"method": "rhf"
			},
			{
				"type": "occ",
				"energy": -0.28081,
				"method": "rhf"
			},
			{
				"type": "occ",
				"energy": -0.24715,
				"method": "rhf"
			},
			{
				"type": "occ",
				"energy": -0.22049,
				"method": "rhf"
			},
			{
				"type": "occ",
				"energy": -0.21275,
				"method": "rhf"
			},
			{
				"type": "unocc",
				"energy": -0.04268,
				"method": "rhf"
			},
			{
				"type": "unocc",
				"energy": -0.03006,
				"method": "rhf"
			},
			{
				"type": "unocc",
				"energy": 0.0012,
				"method": "rhf"
			},
			{
				"type": "unocc",
				"energy": 0.02184,
				"method": "rhf"
			},
			{
				"type": "unocc",
				"energy": 0.05289,
				"method": "rhf"
			}
		],
		"cosmo_sigma_profile": { 
			"-0.025": 0.0,
			"-0.024": 0.0,
			"-0.023": 0.0,
			"-0.022": 0.0,
			"-0.021": 0.0,
			"-0.02": 0.0,
			"-0.019": 0.0,
			"-0.018": 0.0,
			"-0.017": 0.388461182619,
			"-0.016": 1.53185210821,
			"-0.015": 1.37940057496,
			"-0.014": 1.81230634608,
			"-0.013": 0.900772205321,
			"-0.012": 1.7458755316,
			"-0.011": 1.45512092414,
			"-0.01": 1.68619127617,
			"-0.009": 1.86152144642,
			"-0.008": 3.24070624282,
			"-0.007": 7.47497270206,
			"-0.006": 12.8331434341,
			"-0.005": 15.8857629436,
			"-0.004": 21.3141944682,
			"-0.003": 22.5941877094,
			"-0.002": 25.2475043611,
			"-0.001": 13.8422069109,
			"0.0": 10.5766482706,
			"0.001": 8.93570403541,
			"0.002": 9.27639669556,
			"0.003": 8.59458314123,
			"0.004": 8.6900373343,
			"0.005": 9.23751772197,
			"0.006": 6.924397913,
			"0.007": 6.28486741899,
			"0.008": 6.38125734625,
			"0.009": 9.85928352698,
			"0.01": 9.81516263694,
			"0.011": 6.48118562126,
			"0.012": 4.96728479962,
			"0.013": 1.42048687918,
			"0.014": 0.0,
			"0.015": 0.0,
			"0.016": 0.0,
			"0.017": 0.0,
			"0.018": 0.0,
			"0.019": 0.0,
			"0.02": 0.0,
			"0.021": 0.0,
			"0.022": 0.0,
			"0.023": 0.0,
			"0.024": 0.0,
			"0.025": 0.0
		}
	}
}
