{
	 "smiles": "OC(=O)C1=C(OC=N1)C1=CC=CC=C1", 
	 "Tm": 454.15, 
	 "num_atms": 21, 
	 "gaussian": { 
		 "optdone": 1, 
		 "sigma_profile": "yes", 
		 "theory": "DFT", 
		 "functional": "B3LYP", 
		 "basiset": "6-31G**", 
		 "properties": { 
			 "R2extent": 2944.5283, 
			 "electric_dipole_moment_norm": 4.65115115751, 
			 "electric_quadrupole_moment_norm": 13.7397695206, 
			 "total_energy": -665.708968545, 
			 "HOMO_LUMO_gap": 0.1699, 
			 "cosmo_polarized_energy": -11.28, 
			 "cosmo_cavitation_energy": 25.86, 
			 "cosmo_dispersion_energy": -19.57, 
			 "cosmo_repulsion_energy": 1.5, 
			 "cosmo_total_nonelectrostatic_energy": 7.79, 
			 "SMD_solvation_energy": 5.59 
		},
		"coords": [
			{
				"x": 2.6383663868,
				"y": -0.799770366,
				"z": -2.1530404797,
				"element": "O" 
			},
			{
				"x": 1.3950504011,
				"y": -0.6041280429,
				"z": -1.6748582622,
				"element": "C" 
			},
			{
				"x": 0.4467436078,
				"y": -1.2220632287,
				"z": -2.1127278812,
				"element": "O" 
			},
			{
				"x": 1.3428059616,
				"y": 0.4154389087,
				"z": -0.5962475949,
				"element": "C" 
			},
			{
				"x": 0.3215998391,
				"y": 0.9382525201,
				"z": 0.1756435226,
				"element": "C" 
			},
			{
				"x": 0.9198886842,
				"y": 1.8595890891,
				"z": 1.0085059404,
				"element": "O" 
			},
			{
				"x": 2.2376961713,
				"y": 1.8467462565,
				"z": 0.7050246132,
				"element": "C" 
			},
			{
				"x": 2.5479695483,
				"y": 1.0173597001,
				"z": -0.2320113157,
				"element": "N" 
			},
			{
				"x": -1.1215341201,
				"y": 0.7853883901,
				"z": 0.3329869875,
				"element": "C" 
			},
			{
				"x": -1.7962702654,
				"y": 1.5641240291,
				"z": 1.2953697051,
				"element": "C" 
			},
			{
				"x": -3.1709185125,
				"y": 1.4370017023,
				"z": 1.4643950893,
				"element": "C" 
			},
			{
				"x": -3.8958204795,
				"y": 0.5353135796,
				"z": 0.6808619678,
				"element": "C" 
			},
			{
				"x": -3.2331773897,
				"y": -0.2382744273,
				"z": -0.2734622052,
				"element": "C" 
			},
			{
				"x": -1.8566060996,
				"y": -0.1211309373,
				"z": -0.4533582364,
				"element": "C" 
			},
			{
				"x": 3.2424836901,
				"y": -0.2074443209,
				"z": -1.665749817,
				"element": "H" 
			},
			{
				"x": 2.8789887647,
				"y": 2.5135902225,
				"z": 1.2617387237,
				"element": "H" 
			},
			{
				"x": -1.239668381,
				"y": 2.2653733459,
				"z": 1.906281577,
				"element": "H" 
			},
			{
				"x": -3.6774375347,
				"y": 2.0432252398,
				"z": 2.2095829643,
				"element": "H" 
			},
			{
				"x": -4.9692798385,
				"y": 0.4377094447,
				"z": 0.8145545429,
				"element": "H" 
			},
			{
				"x": -3.7898173503,
				"y": -0.9411398261,
				"z": -0.8861790008,
				"element": "H" 
			},
			{
				"x": -1.3414630836,
				"y": -0.7213612794,
				"z": -1.1940108407,
				"element": "H" 
			}
		],
		 "valence_orbital": [ 
			{
				"type": "occ",
				"energy": -0.31486,
				"method": "rhf"
			},
			{
				"type": "occ",
				"energy": -0.30176,
				"method": "rhf"
			},
			{
				"type": "occ",
				"energy": -0.27549,
				"method": "rhf"
			},
			{
				"type": "occ",
				"energy": -0.26069,
				"method": "rhf"
			},
			{
				"type": "occ",
				"energy": -0.23788,
				"method": "rhf"
			},
			{
				"type": "unocc",
				"energy": -0.06798,
				"method": "rhf"
			},
			{
				"type": "unocc",
				"energy": -0.01551,
				"method": "rhf"
			},
			{
				"type": "unocc",
				"energy": -0.00834,
				"method": "rhf"
			},
			{
				"type": "unocc",
				"energy": 0.01651,
				"method": "rhf"
			},
			{
				"type": "unocc",
				"energy": 0.09232,
				"method": "rhf"
			}
		],
		"cosmo_sigma_profile": { 
			"-0.025": 0.0,
			"-0.024": 0.0,
			"-0.023": 0.0,
			"-0.022": 0.0,
			"-0.021": 0.0,
			"-0.02": 0.0,
			"-0.019": 0.0,
			"-0.018": 0.0,
			"-0.017": 0.0,
			"-0.016": 0.0,
			"-0.015": 0.0,
			"-0.014": 0.0,
			"-0.013": 0.250111394795,
			"-0.012": 2.37286861433,
			"-0.011": 3.57369838952,
			"-0.01": 2.2746392066,
			"-0.009": 1.84564595782,
			"-0.008": 1.66725204158,
			"-0.007": 2.82669379997,
			"-0.006": 10.5572230082,
			"-0.005": 11.9618461848,
			"-0.004": 16.005488315,
			"-0.003": 15.0144382112,
			"-0.002": 15.9447073871,
			"-0.001": 17.1151992305,
			"0.0": 13.8362073502,
			"0.001": 16.2253843198,
			"0.002": 14.9763940126,
			"0.003": 14.7965742055,
			"0.004": 15.4544139192,
			"0.005": 6.33393948131,
			"0.006": 3.67569447858,
			"0.007": 3.91957889254,
			"0.008": 3.12196103085,
			"0.009": 3.64417365132,
			"0.01": 5.38772082354,
			"0.011": 3.22621489891,
			"0.012": 2.43037295555,
			"0.013": 1.09600521852,
			"0.014": 0.0,
			"0.015": 0.0,
			"0.016": 0.0,
			"0.017": 0.0,
			"0.018": 0.0,
			"0.019": 0.0,
			"0.02": 0.0,
			"0.021": 0.0,
			"0.022": 0.0,
			"0.023": 0.0,
			"0.024": 0.0,
			"0.025": 0.0
		}
	}
}
