{
	 "smiles": "COC1=CC(O)=C(C=C1)[N+]([O-])=O", 
	 "Tm": 365.15, 
	 "num_atms": 19, 
	 "gaussian": { 
		 "optdone": 1, 
		 "sigma_profile": "yes", 
		 "theory": "DFT", 
		 "functional": "B3LYP", 
		 "basiset": "6-31G**", 
		 "properties": { 
			 "R2extent": 2475.8458, 
			 "electric_dipole_moment_norm": 5.03114321601, 
			 "electric_quadrupole_moment_norm": 8.38337129084, 
			 "total_energy": -626.506870473, 
			 "HOMO_LUMO_gap": 0.154, 
			 "cosmo_polarized_energy": -9.55, 
			 "cosmo_cavitation_energy": 23.6, 
			 "cosmo_dispersion_energy": -17.98, 
			 "cosmo_repulsion_energy": 1.41, 
			 "cosmo_total_nonelectrostatic_energy": 7.03, 
			 "SMD_solvation_energy": 7.39 
		},
		"coords": [
			{
				"x": 3.2033247204,
				"y": 2.4851685799,
				"z": 0.2418118913,
				"element": "C" 
			},
			{
				"x": 2.7516577833,
				"y": 1.1713563358,
				"z": -0.0747346982,
				"element": "O" 
			},
			{
				"x": 1.4349525649,
				"y": 0.890743431,
				"z": 0.0368957675,
				"element": "C" 
			},
			{
				"x": 0.4700882546,
				"y": 1.8085926567,
				"z": 0.446006572,
				"element": "C" 
			},
			{
				"x": -0.8783808557,
				"y": 1.427699422,
				"z": 0.5332247619,
				"element": "C" 
			},
			{
				"x": -1.7614750244,
				"y": 2.3453821823,
				"z": 0.930261933,
				"element": "O" 
			},
			{
				"x": -1.2307707489,
				"y": 0.0949117215,
				"z": 0.1968422642,
				"element": "C" 
			},
			{
				"x": -0.2435968398,
				"y": -0.8211682275,
				"z": -0.2150808837,
				"element": "C" 
			},
			{
				"x": 1.0734342294,
				"y": -0.4378475847,
				"z": -0.2969803172,
				"element": "C" 
			},
			{
				"x": -2.5921643632,
				"y": -0.3473178695,
				"z": 0.2680262852,
				"element": "N" 
			},
			{
				"x": -2.8690633855,
				"y": -1.5059737153,
				"z": -0.0287876805,
				"element": "O" 
			},
			{
				"x": -3.4685768323,
				"y": 0.4776819558,
				"z": 0.6371471789,
				"element": "O" 
			},
			{
				"x": 2.7426698797,
				"y": 3.2331654108,
				"z": -0.413849014,
				"element": "H" 
			},
			{
				"x": 2.9923927563,
				"y": 2.7373614016,
				"z": 1.2875179604,
				"element": "H" 
			},
			{
				"x": 4.2815339507,
				"y": 2.4755172309,
				"z": 0.0807330794,
				"element": "H" 
			},
			{
				"x": 0.7113593558,
				"y": 2.8301096077,
				"z": 0.7081298772,
				"element": "H" 
			},
			{
				"x": -2.6421677831,
				"y": 1.8893832493,
				"z": 0.9269301448,
				"element": "H" 
			},
			{
				"x": -0.5552299284,
				"y": -1.828212123,
				"z": -0.4626312905,
				"element": "H" 
			},
			{
				"x": 1.8493122662,
				"y": -1.1257536656,
				"z": -0.6113638318,
				"element": "H" 
			}
		],
		 "valence_orbital": [ 
			{
				"type": "occ",
				"energy": -0.31265,
				"method": "rhf"
			},
			{
				"type": "occ",
				"energy": -0.31204,
				"method": "rhf"
			},
			{
				"type": "occ",
				"energy": -0.29665,
				"method": "rhf"
			},
			{
				"type": "occ",
				"energy": -0.25983,
				"method": "rhf"
			},
			{
				"type": "occ",
				"energy": -0.24305,
				"method": "rhf"
			},
			{
				"type": "unocc",
				"energy": -0.08905,
				"method": "rhf"
			},
			{
				"type": "unocc",
				"energy": -0.01464,
				"method": "rhf"
			},
			{
				"type": "unocc",
				"energy": 0.01128,
				"method": "rhf"
			},
			{
				"type": "unocc",
				"energy": 0.0791,
				"method": "rhf"
			},
			{
				"type": "unocc",
				"energy": 0.09155,
				"method": "rhf"
			}
		],
		"cosmo_sigma_profile": { 
			"-0.025": 0.0,
			"-0.024": 0.0,
			"-0.023": 0.0,
			"-0.022": 0.0,
			"-0.021": 0.0,
			"-0.02": 0.0,
			"-0.019": 0.0,
			"-0.018": 0.0,
			"-0.017": 0.0,
			"-0.016": 0.0,
			"-0.015": 0.0,
			"-0.014": 0.0,
			"-0.013": 0.0,
			"-0.012": 0.0,
			"-0.011": 0.0,
			"-0.01": 0.0,
			"-0.009": 0.45696276329,
			"-0.008": 2.61173176846,
			"-0.007": 8.79985338106,
			"-0.006": 15.9313793622,
			"-0.005": 16.3802264691,
			"-0.004": 14.9663457786,
			"-0.003": 13.1216526727,
			"-0.002": 9.31149834732,
			"-0.001": 11.4266498622,
			"0.0": 14.3247572112,
			"0.001": 16.0200795589,
			"0.002": 12.7314970738,
			"0.003": 7.21621097936,
			"0.004": 5.99649371227,
			"0.005": 5.07341456601,
			"0.006": 5.42645062225,
			"0.007": 7.65213020509,
			"0.008": 9.26324411437,
			"0.009": 6.26921156567,
			"0.01": 5.15741284693,
			"0.011": 0.824035693108,
			"0.012": 0.0,
			"0.013": 0.0,
			"0.014": 0.0,
			"0.015": 0.0,
			"0.016": 0.0,
			"0.017": 0.0,
			"0.018": 0.0,
			"0.019": 0.0,
			"0.02": 0.0,
			"0.021": 0.0,
			"0.022": 0.0,
			"0.023": 0.0,
			"0.024": 0.0,
			"0.025": 0.0
		}
	}
}
