{
	 "smiles": "NC1=CC2=C(C=C1)C(=CN2)C(O)=O", 
	 "Tm": 467.15, 
	 "num_atms": 21, 
	 "gaussian": { 
		 "optdone": 1, 
		 "sigma_profile": "yes", 
		 "theory": "DFT", 
		 "functional": "B3LYP", 
		 "basiset": "6-31G**", 
		 "properties": { 
			 "R2extent": 3055.2389, 
			 "electric_dipole_moment_norm": 6.82210465326, 
			 "electric_quadrupole_moment_norm": 20.4102974655, 
			 "total_energy": -607.7454968, 
			 "HOMO_LUMO_gap": 0.1646, 
			 "cosmo_polarized_energy": -25.54, 
			 "cosmo_cavitation_energy": 25.49, 
			 "cosmo_dispersion_energy": -19.19, 
			 "cosmo_repulsion_energy": 1.51, 
			 "cosmo_total_nonelectrostatic_energy": 7.8, 
			 "SMD_solvation_energy": 5.2 
		},
		"coords": [
			{
				"x": 0.8241544202,
				"y": 3.749252822,
				"z": 2.0023650001,
				"element": "N" 
			},
			{
				"x": 0.32812371,
				"y": 2.7454750679,
				"z": 1.1638575797,
				"element": "C" 
			},
			{
				"x": -0.3682805825,
				"y": 1.6542146738,
				"z": 1.6917589041,
				"element": "C" 
			},
			{
				"x": -0.8880805121,
				"y": 0.7217660453,
				"z": 0.7896537241,
				"element": "C" 
			},
			{
				"x": -0.7369926538,
				"y": 0.8355837452,
				"z": -0.6127826431,
				"element": "C" 
			},
			{
				"x": -0.0321871532,
				"y": 1.9378308355,
				"z": -1.1240790765,
				"element": "C" 
			},
			{
				"x": 0.4866620718,
				"y": 2.8709023142,
				"z": -0.2425503912,
				"element": "C" 
			},
			{
				"x": -1.407052853,
				"y": -0.299714094,
				"z": -1.2055091098,
				"element": "C" 
			},
			{
				"x": -1.912405314,
				"y": -1.0510182138,
				"z": -0.1624712285,
				"element": "C" 
			},
			{
				"x": -1.6061896305,
				"y": -0.4392869878,
				"z": 1.0298758555,
				"element": "N" 
			},
			{
				"x": -1.4760554849,
				"y": -0.5877341765,
				"z": -2.6459008916,
				"element": "C" 
			},
			{
				"x": -2.3815958272,
				"y": -1.5361806699,
				"z": -3.0391783071,
				"element": "O" 
			},
			{
				"x": -0.7849980379,
				"y": -0.0446336897,
				"z": -3.4799579549,
				"element": "O" 
			},
			{
				"x": 1.0064501106,
				"y": 3.4608334493,
				"z": 2.9539675132,
				"element": "H" 
			},
			{
				"x": 1.5987814012,
				"y": 4.2740525502,
				"z": 1.6196847775,
				"element": "H" 
			},
			{
				"x": -0.5021046083,
				"y": 1.5447614611,
				"z": 2.7647625525,
				"element": "H" 
			},
			{
				"x": 0.1061159998,
				"y": 2.037195617,
				"z": -2.1944571654,
				"element": "H" 
			},
			{
				"x": 1.0308858137,
				"y": 3.7294647541,
				"z": -0.6279146456,
				"element": "H" 
			},
			{
				"x": -2.4328893481,
				"y": -1.9991578116,
				"z": -0.1661756003,
				"element": "H" 
			},
			{
				"x": -1.8437518135,
				"y": -0.799039346,
				"z": 1.9402937216,
				"element": "H" 
			},
			{
				"x": -2.9850897081,
				"y": -1.7320683463,
				"z": -2.3097426142,
				"element": "H" 
			}
		],
		 "valence_orbital": [ 
			{
				"type": "occ",
				"energy": -0.29583,
				"method": "rhf"
			},
			{
				"type": "occ",
				"energy": -0.26904,
				"method": "rhf"
			},
			{
				"type": "occ",
				"energy": -0.25765,
				"method": "rhf"
			},
			{
				"type": "occ",
				"energy": -0.22373,
				"method": "rhf"
			},
			{
				"type": "occ",
				"energy": -0.19238,
				"method": "rhf"
			},
			{
				"type": "unocc",
				"energy": -0.02778,
				"method": "rhf"
			},
			{
				"type": "unocc",
				"energy": 0.01302,
				"method": "rhf"
			},
			{
				"type": "unocc",
				"energy": 0.02753,
				"method": "rhf"
			},
			{
				"type": "unocc",
				"energy": 0.06499,
				"method": "rhf"
			},
			{
				"type": "unocc",
				"energy": 0.06802,
				"method": "rhf"
			}
		],
		"cosmo_sigma_profile": { 
			"-0.025": 0.0,
			"-0.024": 0.0,
			"-0.023": 0.0,
			"-0.022": 0.0,
			"-0.021": 0.0,
			"-0.02": 0.0,
			"-0.019": 0.0,
			"-0.018": 0.585506454962,
			"-0.017": 1.42709737969,
			"-0.016": 2.28130343912,
			"-0.015": 2.66969924599,
			"-0.014": 2.80434694727,
			"-0.013": 2.32799589887,
			"-0.012": 4.83769219016,
			"-0.011": 4.88833629652,
			"-0.01": 7.23375014898,
			"-0.009": 5.93356415512,
			"-0.008": 5.90369221704,
			"-0.007": 6.24183288659,
			"-0.006": 6.98960085327,
			"-0.005": 6.79415679935,
			"-0.004": 6.82719015636,
			"-0.003": 6.36303749416,
			"-0.002": 6.50977098676,
			"-0.001": 7.98247587651,
			"0.0": 7.60121894912,
			"0.001": 8.35944170797,
			"0.002": 9.61590532774,
			"0.003": 12.1170811146,
			"0.004": 12.4141486578,
			"0.005": 12.5518170339,
			"0.006": 14.4665628108,
			"0.007": 6.73484396536,
			"0.008": 4.53719509937,
			"0.009": 3.60577293316,
			"0.01": 4.31989849933,
			"0.011": 5.3511312913,
			"0.012": 6.31887898506,
			"0.013": 4.09734432998,
			"0.014": 2.10338194615,
			"0.015": 0.450126283132,
			"0.016": 0.0441688716394,
			"0.017": 0.0,
			"0.018": 0.0,
			"0.019": 0.0,
			"0.02": 0.0,
			"0.021": 0.0,
			"0.022": 0.0,
			"0.023": 0.0,
			"0.024": 0.0,
			"0.025": 0.0
		}
	}
}
