{
	 "smiles": "NC1=C(SC2=NC=CN=C12)C(O)=O", 
	 "Tm": 523.15, 
	 "num_atms": 18, 
	 "gaussian": { 
		 "optdone": 1, 
		 "sigma_profile": "yes", 
		 "theory": "DFT", 
		 "functional": "B3LYP", 
		 "basiset": "6-31G**", 
		 "properties": { 
			 "R2extent": 2579.4213, 
			 "electric_dipole_moment_norm": 6.52433529794, 
			 "electric_quadrupole_moment_norm": 10.5602760669, 
			 "total_energy": -982.647296764, 
			 "HOMO_LUMO_gap": 0.16039, 
			 "cosmo_polarized_energy": -17.35, 
			 "cosmo_cavitation_energy": 24.53, 
			 "cosmo_dispersion_energy": -19.18, 
			 "cosmo_repulsion_energy": 1.45, 
			 "cosmo_total_nonelectrostatic_energy": 6.81, 
			 "SMD_solvation_energy": 2.37 
		},
		"coords": [
			{
				"x": -2.1226276163,
				"y": 0.7107481151,
				"z": 1.0369199272,
				"element": "N" 
			},
			{
				"x": -0.8695441297,
				"y": 0.2440203128,
				"z": 0.5496794992,
				"element": "C" 
			},
			{
				"x": 0.0575433688,
				"y": -0.3907779314,
				"z": 1.3361266293,
				"element": "C" 
			},
			{
				"x": 1.5256269238,
				"y": -0.846874313,
				"z": 0.4797294618,
				"element": "S" 
			},
			{
				"x": 0.8549546272,
				"y": -0.208310571,
				"z": -1.0090377962,
				"element": "C" 
			},
			{
				"x": 1.4681630071,
				"y": -0.2259439677,
				"z": -2.1907463031,
				"element": "N" 
			},
			{
				"x": 0.7642449345,
				"y": 0.3141679576,
				"z": -3.1890701313,
				"element": "C" 
			},
			{
				"x": -0.5224295594,
				"y": 0.8618345678,
				"z": -3.0103576286,
				"element": "C" 
			},
			{
				"x": -1.134084659,
				"y": 0.8891817009,
				"z": -1.8266732912,
				"element": "N" 
			},
			{
				"x": -0.4346239026,
				"y": 0.3490642062,
				"z": -0.8156389613,
				"element": "C" 
			},
			{
				"x": -0.0652014221,
				"y": -0.7768544763,
				"z": 2.7692485547,
				"element": "C" 
			},
			{
				"x": -1.2758048105,
				"y": -0.5830327271,
				"z": 3.3201058534,
				"element": "O" 
			},
			{
				"x": 0.8624401289,
				"y": -1.2527947093,
				"z": 3.3867347101,
				"element": "O" 
			},
			{
				"x": -2.7874452118,
				"y": 0.7771477266,
				"z": 0.2688328461,
				"element": "H" 
			},
			{
				"x": -2.036867649,
				"y": 1.6418186107,
				"z": 1.4419971076,
				"element": "H" 
			},
			{
				"x": 1.2290612169,
				"y": 0.3169367414,
				"z": -4.1719756635,
				"element": "H" 
			},
			{
				"x": -1.0572005756,
				"y": 1.28663878,
				"z": -3.8564739612,
				"element": "H" 
			},
			{
				"x": -1.9029046712,
				"y": -0.2425700234,
				"z": 2.6386991469,
				"element": "H" 
			}
		],
		 "valence_orbital": [ 
			{
				"type": "occ",
				"energy": -0.31089,
				"method": "rhf"
			},
			{
				"type": "occ",
				"energy": -0.27744,
				"method": "rhf"
			},
			{
				"type": "occ",
				"energy": -0.27256,
				"method": "rhf"
			},
			{
				"type": "occ",
				"energy": -0.27138,
				"method": "rhf"
			},
			{
				"type": "occ",
				"energy": -0.25194,
				"method": "rhf"
			},
			{
				"type": "unocc",
				"energy": -0.09155,
				"method": "rhf"
			},
			{
				"type": "unocc",
				"energy": -0.05141,
				"method": "rhf"
			},
			{
				"type": "unocc",
				"energy": -0.00875,
				"method": "rhf"
			},
			{
				"type": "unocc",
				"energy": 0.00769,
				"method": "rhf"
			},
			{
				"type": "unocc",
				"energy": 0.05349,
				"method": "rhf"
			}
		],
		"cosmo_sigma_profile": { 
			"-0.025": 0.0,
			"-0.024": 0.0,
			"-0.023": 0.0,
			"-0.022": 0.0,
			"-0.021": 0.0,
			"-0.02": 0.0,
			"-0.019": 0.0,
			"-0.018": 0.0,
			"-0.017": 0.0,
			"-0.016": 0.0,
			"-0.015": 0.194701383453,
			"-0.014": 1.94474863596,
			"-0.013": 2.34980477584,
			"-0.012": 3.03289909205,
			"-0.011": 3.20154917982,
			"-0.01": 2.46126177933,
			"-0.009": 2.59366180913,
			"-0.008": 7.68029177981,
			"-0.007": 8.27957258462,
			"-0.006": 6.62685340681,
			"-0.005": 6.68323086211,
			"-0.004": 8.14196042965,
			"-0.003": 14.478818902,
			"-0.002": 15.5419380747,
			"-0.001": 17.4755404608,
			"0.0": 13.4143199218,
			"0.001": 12.5571178347,
			"0.002": 12.2889041359,
			"0.003": 10.0738345963,
			"0.004": 5.86210956624,
			"0.005": 5.50658151906,
			"0.006": 4.94259819679,
			"0.007": 3.77287852068,
			"0.008": 3.8926406969,
			"0.009": 5.61991340553,
			"0.01": 6.42354983493,
			"0.011": 7.98222366087,
			"0.012": 4.63257340321,
			"0.013": 2.29395346329,
			"0.014": 0.103718591646,
			"0.015": 0.0,
			"0.016": 0.0,
			"0.017": 0.0,
			"0.018": 0.0,
			"0.019": 0.0,
			"0.02": 0.0,
			"0.021": 0.0,
			"0.022": 0.0,
			"0.023": 0.0,
			"0.024": 0.0,
			"0.025": 0.0
		}
	}
}
