{
	 "smiles": "COC1C(O)C(C)OC(OC2CCC3(C=O)C(CCC4C3CCC3(C)C(CCC43O)C3=CC(=O)OC3)C2)C1O", 
	 "Tm": 435.15, 
	 "num_atms": 83, 
	 "gaussian": { 
		 "optdone": 1, 
		 "sigma_profile": "yes", 
		 "theory": "DFT", 
		 "functional": "B3LYP", 
		 "basiset": "6-31G**", 
		 "properties": { 
			 "R2extent": 36094.066, 
			 "electric_dipole_moment_norm": 4.38086422182, 
			 "electric_quadrupole_moment_norm": 75.9844912624, 
			 "total_energy": -1846.66379317, 
			 "HOMO_LUMO_gap": 0.20193, 
			 "cosmo_polarized_energy": -34.44, 
			 "cosmo_cavitation_energy": 72.41, 
			 "cosmo_dispersion_energy": -48.73, 
			 "cosmo_repulsion_energy": 3.53, 
			 "cosmo_total_nonelectrostatic_energy": 27.21, 
			 "SMD_solvation_energy": 12.03 
		},
		"coords": [
			{
				"x": -6.8617274174,
				"y": 5.4221261235,
				"z": -4.2480557366,
				"element": "C" 
			},
			{
				"x": -5.6203520393,
				"y": 5.0567190571,
				"z": -3.6540931605,
				"element": "O" 
			},
			{
				"x": -5.0113476513,
				"y": 3.8834799612,
				"z": -4.1922989748,
				"element": "C" 
			},
			{
				"x": -5.4382398752,
				"y": 2.6251580777,
				"z": -3.4447435018,
				"element": "C" 
			},
			{
				"x": -6.8100759443,
				"y": 2.3630594561,
				"z": -3.7282179326,
				"element": "O" 
			},
			{
				"x": -5.2075503417,
				"y": 2.8296496447,
				"z": -1.9354081571,
				"element": "C" 
			},
			{
				"x": -5.3345522019,
				"y": 1.5350128852,
				"z": -1.1351481586,
				"element": "C" 
			},
			{
				"x": -3.9430981089,
				"y": 3.4631626325,
				"z": -1.6579448504,
				"element": "O" 
			},
			{
				"x": -2.9705220121,
				"y": 3.4698986225,
				"z": -2.6783305435,
				"element": "C" 
			},
			{
				"x": -2.4423120883,
				"y": 2.1747921568,
				"z": -2.9270462394,
				"element": "O" 
			},
			{
				"x": -1.2364692483,
				"y": 1.8406029468,
				"z": -2.2282979581,
				"element": "C" 
			},
			{
				"x": -0.6362684216,
				"y": 0.6202472919,
				"z": -2.9184572176,
				"element": "C" 
			},
			{
				"x": 0.7747600094,
				"y": 0.3080064087,
				"z": -2.3792944816,
				"element": "C" 
			},
			{
				"x": 0.9333204074,
				"y": 0.5575690752,
				"z": -0.8359103074,
				"element": "C" 
			},
			{
				"x": 1.6374724856,
				"y": 1.9114744171,
				"z": -0.7109459939,
				"element": "C" 
			},
			{
				"x": 1.2164938321,
				"y": 2.9153815905,
				"z": -0.1809149281,
				"element": "O" 
			},
			{
				"x": -0.4506990882,
				"y": 0.5373243434,
				"z": -0.1361548299,
				"element": "C" 
			},
			{
				"x": -0.3343133366,
				"y": 0.6806565211,
				"z": 1.3903036921,
				"element": "C" 
			},
			{
				"x": 0.6318780907,
				"y": -0.3359390907,
				"z": 2.0173524014,
				"element": "C" 
			},
			{
				"x": 2.0212118618,
				"y": -0.2590443698,
				"z": 1.3488182005,
				"element": "C" 
			},
			{
				"x": 1.9091565795,
				"y": -0.48435847,
				"z": -0.1830695732,
				"element": "C" 
			},
			{
				"x": 1.5791478893,
				"y": -1.965801624,
				"z": -0.5238346219,
				"element": "C" 
			},
			{
				"x": 2.0056873013,
				"y": -2.9619229719,
				"z": 0.5750602299,
				"element": "C" 
			},
			{
				"x": 3.3171831133,
				"y": -2.5801416326,
				"z": 1.2879074378,
				"element": "C" 
			},
			{
				"x": 4.4855105346,
				"y": -2.6491366097,
				"z": 0.2861172055,
				"element": "C" 
			},
			{
				"x": 3.5507782988,
				"y": -3.5442621949,
				"z": 2.5324128477,
				"element": "C" 
			},
			{
				"x": 3.9894648335,
				"y": -2.6100208031,
				"z": 3.6770158719,
				"element": "C" 
			},
			{
				"x": 3.0767255738,
				"y": -1.401677088,
				"z": 3.4635599863,
				"element": "C" 
			},
			{
				"x": 3.1720179394,
				"y": -1.1329605375,
				"z": 1.9504018741,
				"element": "C" 
			},
			{
				"x": 4.4025867961,
				"y": -0.3959068822,
				"z": 1.8257950207,
				"element": "O" 
			},
			{
				"x": 4.4216339126,
				"y": -4.7449548555,
				"z": 2.3035956632,
				"element": "C" 
			},
			{
				"x": 4.0558126949,
				"y": -5.972526922,
				"z": 1.9028857528,
				"element": "C" 
			},
			{
				"x": 5.2431565671,
				"y": -6.8482121912,
				"z": 1.8185792464,
				"element": "C" 
			},
			{
				"x": 5.3372828012,
				"y": -8.0044856848,
				"z": 1.4909587985,
				"element": "O" 
			},
			{
				"x": 6.3373486318,
				"y": -6.0966848897,
				"z": 2.202239392,
				"element": "O" 
			},
			{
				"x": 5.9159213592,
				"y": -4.7738939328,
				"z": 2.5332779433,
				"element": "C" 
			},
			{
				"x": -1.4564482901,
				"y": 1.559567613,
				"z": -0.7273177909,
				"element": "C" 
			},
			{
				"x": -3.4788873161,
				"y": 4.0526511345,
				"z": -4.0298606771,
				"element": "C" 
			},
			{
				"x": -3.1120248224,
				"y": 5.4056164257,
				"z": -4.1761793266,
				"element": "O" 
			},
			{
				"x": -7.1576805821,
				"y": 6.3705115765,
				"z": -3.793022973,
				"element": "H" 
			},
			{
				"x": -7.6300889862,
				"y": 4.6662622313,
				"z": -4.0616314155,
				"element": "H" 
			},
			{
				"x": -6.7543167705,
				"y": 5.5647123696,
				"z": -5.3331496221,
				"element": "H" 
			},
			{
				"x": -5.2701679273,
				"y": 3.7944098017,
				"z": -5.2561098094,
				"element": "H" 
			},
			{
				"x": -4.8054007133,
				"y": 1.7980303552,
				"z": -3.8024563792,
				"element": "H" 
			},
			{
				"x": -7.0339514521,
				"y": 1.4963008453,
				"z": -3.3672148693,
				"element": "H" 
			},
			{
				"x": -5.9701054172,
				"y": 3.541059802,
				"z": -1.6013773292,
				"element": "H" 
			},
			{
				"x": -4.6341933375,
				"y": 0.7779206073,
				"z": -1.5006254703,
				"element": "H" 
			},
			{
				"x": -5.1211391211,
				"y": 1.725031591,
				"z": -0.0797614758,
				"element": "H" 
			},
			{
				"x": -6.3537062532,
				"y": 1.1345858847,
				"z": -1.1976805197,
				"element": "H" 
			},
			{
				"x": -2.1821245573,
				"y": 4.1357500685,
				"z": -2.3104805562,
				"element": "H" 
			},
			{
				"x": -0.5386810407,
				"y": 2.6846697756,
				"z": -2.3396335491,
				"element": "H" 
			},
			{
				"x": -0.5950728067,
				"y": 0.7928773371,
				"z": -3.9984106421,
				"element": "H" 
			},
			{
				"x": -1.3050609285,
				"y": -0.2353090989,
				"z": -2.7621817025,
				"element": "H" 
			},
			{
				"x": 1.0227494065,
				"y": -0.7276292942,
				"z": -2.6210088539,
				"element": "H" 
			},
			{
				"x": 1.5114095999,
				"y": 0.9186986466,
				"z": -2.9195754668,
				"element": "H" 
			},
			{
				"x": 2.6464538544,
				"y": 1.916959125,
				"z": -1.1934994537,
				"element": "H" 
			},
			{
				"x": -0.8594447583,
				"y": -0.4639719777,
				"z": -0.3340968885,
				"element": "H" 
			},
			{
				"x": -1.3299312947,
				"y": 0.5661873254,
				"z": 1.8367950331,
				"element": "H" 
			},
			{
				"x": -0.000550869,
				"y": 1.6963548047,
				"z": 1.6260849356,
				"element": "H" 
			},
			{
				"x": 0.7210436161,
				"y": -0.1218195893,
				"z": 3.0870388388,
				"element": "H" 
			},
			{
				"x": 0.2056462886,
				"y": -1.3431485705,
				"z": 1.9372442894,
				"element": "H" 
			},
			{
				"x": 2.371197706,
				"y": 0.7688099373,
				"z": 1.5132739607,
				"element": "H" 
			},
			{
				"x": 2.9015222244,
				"y": -0.2747200098,
				"z": -0.6130197619,
				"element": "H" 
			},
			{
				"x": 0.5060492285,
				"y": -2.0931756849,
				"z": -0.7017425721,
				"element": "H" 
			},
			{
				"x": 2.0699907335,
				"y": -2.2344089711,
				"z": -1.4645554677,
				"element": "H" 
			},
			{
				"x": 1.2108524749,
				"y": -3.039461778,
				"z": 1.324455602,
				"element": "H" 
			},
			{
				"x": 2.1029126344,
				"y": -3.9644673981,
				"z": 0.1397782537,
				"element": "H" 
			},
			{
				"x": 5.4338635594,
				"y": -2.3680110431,
				"z": 0.7479510766,
				"element": "H" 
			},
			{
				"x": 4.3299420301,
				"y": -1.9852359068,
				"z": -0.5705052181,
				"element": "H" 
			},
			{
				"x": 4.5802978475,
				"y": -3.6624418217,
				"z": -0.1151862769,
				"element": "H" 
			},
			{
				"x": 2.5600776634,
				"y": -3.9330446907,
				"z": 2.8007017505,
				"element": "H" 
			},
			{
				"x": 3.8756139462,
				"y": -3.0739896052,
				"z": 4.6619483573,
				"element": "H" 
			},
			{
				"x": 5.0355235669,
				"y": -2.3068551864,
				"z": 3.56163261,
				"element": "H" 
			},
			{
				"x": 3.367757533,
				"y": -0.5142644972,
				"z": 4.031519151,
				"element": "H" 
			},
			{
				"x": 2.054542821,
				"y": -1.6696303554,
				"z": 3.7469413621,
				"element": "H" 
			},
			{
				"x": 4.5543935797,
				"y": -0.2026610227,
				"z": 0.8917219688,
				"element": "H" 
			},
			{
				"x": 3.061575138,
				"y": -6.3310909353,
				"z": 1.6707698825,
				"element": "H" 
			},
			{
				"x": 6.4610161049,
				"y": -4.0582977839,
				"z": 1.9067864853,
				"element": "H" 
			},
			{
				"x": 6.1735646777,
				"y": -4.5675765021,
				"z": 3.5799401283,
				"element": "H" 
			},
			{
				"x": -1.413822975,
				"y": 2.49678177,
				"z": -0.1669234201,
				"element": "H" 
			},
			{
				"x": -2.4671270312,
				"y": 1.1604918326,
				"z": -0.6051224394,
				"element": "H" 
			},
			{
				"x": -2.9752199017,
				"y": 3.4823776096,
				"z": -4.8170405084,
				"element": "H" 
			},
			{
				"x": -3.8748728213,
				"y": 5.9067027913,
				"z": -3.8409276475,
				"element": "H" 
			}
		],
		 "valence_orbital": [ 
			{
				"type": "occ",
				"energy": -0.26553,
				"method": "rhf"
			},
			{
				"type": "occ",
				"energy": -0.26183,
				"method": "rhf"
			},
			{
				"type": "occ",
				"energy": -0.25454,
				"method": "rhf"
			},
			{
				"type": "occ",
				"energy": -0.25216,
				"method": "rhf"
			},
			{
				"type": "occ",
				"energy": -0.2437,
				"method": "rhf"
			},
			{
				"type": "unocc",
				"energy": -0.04177,
				"method": "rhf"
			},
			{
				"type": "unocc",
				"energy": -0.03405,
				"method": "rhf"
			},
			{
				"type": "unocc",
				"energy": 0.03953,
				"method": "rhf"
			},
			{
				"type": "unocc",
				"energy": 0.05197,
				"method": "rhf"
			},
			{
				"type": "unocc",
				"energy": 0.05979,
				"method": "rhf"
			}
		],
		"cosmo_sigma_profile": { 
			"-0.025": 0.0,
			"-0.024": 0.0,
			"-0.023": 0.0,
			"-0.022": 0.0,
			"-0.021": 0.0,
			"-0.02": 0.0,
			"-0.019": 0.0,
			"-0.018": 0.0,
			"-0.017": 0.0,
			"-0.016": 0.182837796419,
			"-0.015": 0.706042195831,
			"-0.014": 0.950972133947,
			"-0.013": 2.74206357715,
			"-0.012": 1.97869898291,
			"-0.011": 2.00949803987,
			"-0.01": 2.48140554867,
			"-0.009": 3.15404446783,
			"-0.008": 3.63706995972,
			"-0.007": 9.27400830512,
			"-0.006": 17.2304598012,
			"-0.005": 33.3393745583,
			"-0.004": 43.7198753102,
			"-0.003": 65.3413264868,
			"-0.002": 73.4328517161,
			"-0.001": 65.1568438732,
			"0.0": 52.0503061343,
			"0.001": 33.8309598969,
			"0.002": 16.5949164579,
			"0.003": 13.8272293365,
			"0.004": 13.006142462,
			"0.005": 11.6920135021,
			"0.006": 10.0012309992,
			"0.007": 11.5520407728,
			"0.008": 11.3618136299,
			"0.009": 11.5019100825,
			"0.01": 10.8394911807,
			"0.011": 11.632428796,
			"0.012": 12.4681982313,
			"0.013": 8.78189388861,
			"0.014": 3.58731885753,
			"0.015": 0.350918813508,
			"0.016": 0.0,
			"0.017": 0.0,
			"0.018": 0.0,
			"0.019": 0.0,
			"0.02": 0.0,
			"0.021": 0.0,
			"0.022": 0.0,
			"0.023": 0.0,
			"0.024": 0.0,
			"0.025": 0.0
		}
	}
}
