{
	 "smiles": "C=CS(=O)(=O)C1=CC=CC=C1", 
	 "Tm": 341.65, 
	 "num_atms": 19, 
	 "gaussian": { 
		 "optdone": 1, 
		 "sigma_profile": "yes", 
		 "theory": "DFT", 
		 "functional": "B3LYP", 
		 "basiset": "6-31G**", 
		 "properties": { 
			 "R2extent": 1989.341, 
			 "electric_dipole_moment_norm": 5.07553566927, 
			 "electric_quadrupole_moment_norm": 14.3381254908, 
			 "total_energy": -858.210212128, 
			 "HOMO_LUMO_gap": 0.21893, 
			 "cosmo_polarized_energy": -13.25, 
			 "cosmo_cavitation_energy": 24.77, 
			 "cosmo_dispersion_energy": -18.26, 
			 "cosmo_repulsion_energy": 1.41, 
			 "cosmo_total_nonelectrostatic_energy": 7.93, 
			 "SMD_solvation_energy": 4.67 
		},
		"coords": [
			{
				"x": -2.7980774522,
				"y": 0.0455363214,
				"z": -1.0712051314,
				"element": "C" 
			},
			{
				"x": -1.9807197795,
				"y": 0.2786665537,
				"z": -0.0497417928,
				"element": "C" 
			},
			{
				"x": -0.811338585,
				"y": -0.9702156354,
				"z": 0.4815496087,
				"element": "S" 
			},
			{
				"x": -0.9761275384,
				"y": -1.1202568132,
				"z": 1.9363844063,
				"element": "O" 
			},
			{
				"x": -0.9303370942,
				"y": -2.1195520824,
				"z": -0.4303831738,
				"element": "O" 
			},
			{
				"x": 0.7868080342,
				"y": -0.1962586547,
				"z": 0.1929568068,
				"element": "C" 
			},
			{
				"x": 1.3841304296,
				"y": 0.531719123,
				"z": 1.2239506809,
				"element": "C" 
			},
			{
				"x": 2.6212967416,
				"y": 1.1351298325,
				"z": 0.9944959042,
				"element": "C" 
			},
			{
				"x": 3.2443487262,
				"y": 1.0039089906,
				"z": -0.2488135822,
				"element": "C" 
			},
			{
				"x": 2.6393345261,
				"y": 0.2635452525,
				"z": -1.26831834,
				"element": "C" 
			},
			{
				"x": 1.4027301288,
				"y": -0.3436161783,
				"z": -1.0520322744,
				"element": "C" 
			},
			{
				"x": -3.5448292551,
				"y": 0.7754895014,
				"z": -1.3692127661,
				"element": "H" 
			},
			{
				"x": -2.7415646257,
				"y": -0.8878111031,
				"z": -1.6232504842,
				"element": "H" 
			},
			{
				"x": -1.984573501,
				"y": 1.176727827,
				"z": 0.5605892145,
				"element": "H" 
			},
			{
				"x": 0.8929567492,
				"y": 0.5993562297,
				"z": 2.1887772529,
				"element": "H" 
			},
			{
				"x": 3.1010411307,
				"y": 1.700267895,
				"z": 1.7878747006,
				"element": "H" 
			},
			{
				"x": 4.208186508,
				"y": 1.4736408144,
				"z": -0.4220336638,
				"element": "H" 
			},
			{
				"x": 3.1337237856,
				"y": 0.1534636078,
				"z": -2.2287598879,
				"element": "H" 
			},
			{
				"x": 0.924411071,
				"y": -0.9391414817,
				"z": -1.8222274785,
				"element": "H" 
			}
		],
		 "valence_orbital": [ 
			{
				"type": "occ",
				"energy": -0.30788,
				"method": "rhf"
			},
			{
				"type": "occ",
				"energy": -0.29409,
				"method": "rhf"
			},
			{
				"type": "occ",
				"energy": -0.28899,
				"method": "rhf"
			},
			{
				"type": "occ",
				"energy": -0.27218,
				"method": "rhf"
			},
			{
				"type": "occ",
				"energy": -0.27118,
				"method": "rhf"
			},
			{
				"type": "unocc",
				"energy": -0.05225,
				"method": "rhf"
			},
			{
				"type": "unocc",
				"energy": -0.02273,
				"method": "rhf"
			},
			{
				"type": "unocc",
				"energy": -0.01519,
				"method": "rhf"
			},
			{
				"type": "unocc",
				"energy": 0.06323,
				"method": "rhf"
			},
			{
				"type": "unocc",
				"energy": 0.08014,
				"method": "rhf"
			}
		],
		"cosmo_sigma_profile": { 
			"-0.025": 0.0,
			"-0.024": 0.0,
			"-0.023": 0.0,
			"-0.022": 0.0,
			"-0.021": 0.0,
			"-0.02": 0.0,
			"-0.019": 0.0,
			"-0.018": 0.0,
			"-0.017": 0.0,
			"-0.016": 0.0,
			"-0.015": 0.0,
			"-0.014": 0.0,
			"-0.013": 0.0,
			"-0.012": 0.0,
			"-0.011": 0.0,
			"-0.01": 0.485804167583,
			"-0.009": 2.53354570142,
			"-0.008": 4.3742815822,
			"-0.007": 11.4903580563,
			"-0.006": 16.0109679639,
			"-0.005": 16.7084909354,
			"-0.004": 13.3170820135,
			"-0.003": 10.8316326308,
			"-0.002": 11.6561328595,
			"-0.001": 11.750089432,
			"0.0": 13.4140514225,
			"0.001": 14.6064073687,
			"0.002": 16.604123383,
			"0.003": 15.57777713,
			"0.004": 5.4499599158,
			"0.005": 2.23969258553,
			"0.006": 2.48436977758,
			"0.007": 2.20693588291,
			"0.008": 3.01733027008,
			"0.009": 4.20542059651,
			"0.01": 4.98119272719,
			"0.011": 8.04903031763,
			"0.012": 7.00152446904,
			"0.013": 0.133096052925,
			"0.014": 0.0,
			"0.015": 0.0,
			"0.016": 0.0,
			"0.017": 0.0,
			"0.018": 0.0,
			"0.019": 0.0,
			"0.02": 0.0,
			"0.021": 0.0,
			"0.022": 0.0,
			"0.023": 0.0,
			"0.024": 0.0,
			"0.025": 0.0
		}
	}
}
