{
	 "smiles": "CCC(C)C1=CC(=CC(=C1OC(=O)OC(C)C)[N+]([O-])=O)[N+]([O-])=O", 
	 "Tm": 334.65, 
	 "num_atms": 41, 
	 "gaussian": { 
		 "optdone": 1, 
		 "sigma_profile": "yes", 
		 "theory": "DFT", 
		 "functional": "B3LYP", 
		 "basiset": "6-31G**", 
		 "properties": { 
			 "R2extent": 9044.4287, 
			 "electric_dipole_moment_norm": 5.81603137371, 
			 "electric_quadrupole_moment_norm": 14.6517041313, 
			 "total_energy": -1180.23461359, 
			 "HOMO_LUMO_gap": 0.17915, 
			 "cosmo_polarized_energy": -14.23, 
			 "cosmo_cavitation_energy": 45.76, 
			 "cosmo_dispersion_energy": -30.05, 
			 "cosmo_repulsion_energy": 2.35, 
			 "cosmo_total_nonelectrostatic_energy": 18.07, 
			 "SMD_solvation_energy": 13.11 
		},
		"coords": [
			{
				"x": 2.2696540702,
				"y": 3.0571458429,
				"z": -1.0538516625,
				"element": "C" 
			},
			{
				"x": 2.400374397,
				"y": 1.6209660344,
				"z": -1.5703856815,
				"element": "C" 
			},
			{
				"x": 1.32342147,
				"y": 0.6516432131,
				"z": -1.0365137491,
				"element": "C" 
			},
			{
				"x": 1.4295379485,
				"y": -0.7358703787,
				"z": -1.7038455218,
				"element": "C" 
			},
			{
				"x": 1.3559790406,
				"y": 0.4994167301,
				"z": 0.4791143869,
				"element": "C" 
			},
			{
				"x": 2.5505119773,
				"y": 0.211688954,
				"z": 1.1456692005,
				"element": "C" 
			},
			{
				"x": 2.5696521366,
				"y": 0.0524675526,
				"z": 2.5273178088,
				"element": "C" 
			},
			{
				"x": 1.4245564376,
				"y": 0.1705605541,
				"z": 3.3001861517,
				"element": "C" 
			},
			{
				"x": 0.2281280789,
				"y": 0.4328343861,
				"z": 2.644262747,
				"element": "C" 
			},
			{
				"x": 0.1814392557,
				"y": 0.5963087032,
				"z": 1.2469000075,
				"element": "C" 
			},
			{
				"x": -0.9919154704,
				"y": 0.9633835281,
				"z": 0.6271470077,
				"element": "O" 
			},
			{
				"x": -1.8475064865,
				"y": -0.0556276282,
				"z": 0.273760296,
				"element": "C" 
			},
			{
				"x": -1.5586374384,
				"y": -1.2268197086,
				"z": 0.3036676693,
				"element": "O" 
			},
			{
				"x": -2.9707311119,
				"y": 0.5111243744,
				"z": -0.1339679437,
				"element": "O" 
			},
			{
				"x": -4.0488610035,
				"y": -0.4000089831,
				"z": -0.5395962206,
				"element": "C" 
			},
			{
				"x": -4.8996384549,
				"y": 0.3884343641,
				"z": -1.5226675448,
				"element": "C" 
			},
			{
				"x": -4.8016555578,
				"y": -0.8591561858,
				"z": 0.7022990786,
				"element": "C" 
			},
			{
				"x": -0.9756285484,
				"y": 0.5405315177,
				"z": 3.489307987,
				"element": "N" 
			},
			{
				"x": -0.7976165924,
				"y": 0.8332800279,
				"z": 4.6692596059,
				"element": "O" 
			},
			{
				"x": -2.0717187149,
				"y": 0.3188953523,
				"z": 2.9793125115,
				"element": "O" 
			},
			{
				"x": 3.848861002,
				"y": -0.245069287,
				"z": 3.19682971,
				"element": "N" 
			},
			{
				"x": 3.8293912718,
				"y": -0.3878014858,
				"z": 4.4168755269,
				"element": "O" 
			},
			{
				"x": 4.8508579038,
				"y": -0.3304222769,
				"z": 2.4891676119,
				"element": "O" 
			},
			{
				"x": 3.0315950588,
				"y": 3.7034319043,
				"z": -1.5001619862,
				"element": "H" 
			},
			{
				"x": 1.2887735634,
				"y": 3.4781150317,
				"z": -1.3010146007,
				"element": "H" 
			},
			{
				"x": 2.3879166096,
				"y": 3.1096664423,
				"z": 0.0333645812,
				"element": "H" 
			},
			{
				"x": 3.4013397984,
				"y": 1.2307915482,
				"z": -1.3438909068,
				"element": "H" 
			},
			{
				"x": 2.3248357544,
				"y": 1.6194357822,
				"z": -2.6647290377,
				"element": "H" 
			},
			{
				"x": 0.3495227678,
				"y": 1.0771740247,
				"z": -1.2975960958,
				"element": "H" 
			},
			{
				"x": 0.6411052585,
				"y": -1.403610354,
				"z": -1.346412184,
				"element": "H" 
			},
			{
				"x": 2.3963826485,
				"y": -1.2045118875,
				"z": -1.4886954805,
				"element": "H" 
			},
			{
				"x": 1.3381120126,
				"y": -0.6409332966,
				"z": -2.7908039762,
				"element": "H" 
			},
			{
				"x": 3.4813984161,
				"y": 0.1095009975,
				"z": 0.6017860841,
				"element": "H" 
			},
			{
				"x": 1.4553253033,
				"y": 0.0639102203,
				"z": 4.3755378637,
				"element": "H" 
			},
			{
				"x": -3.5767525633,
				"y": -1.2556105472,
				"z": -1.0307976094,
				"element": "H" 
			},
			{
				"x": -4.3055353411,
				"y": 0.7165370724,
				"z": -2.3799375818,
				"element": "H" 
			},
			{
				"x": -5.7176835341,
				"y": -0.2389559741,
				"z": -1.8889589965,
				"element": "H" 
			},
			{
				"x": -5.3311778991,
				"y": 1.2709441165,
				"z": -1.0408047809,
				"element": "H" 
			},
			{
				"x": -5.611949032,
				"y": -1.5366437212,
				"z": 0.4146091728,
				"element": "H" 
			},
			{
				"x": -4.1350346517,
				"y": -1.3908357245,
				"z": 1.3848020877,
				"element": "H" 
			},
			{
				"x": -5.2344297811,
				"y": -0.0031108361,
				"z": 1.228554464,
				"element": "H" 
			}
		],
		 "valence_orbital": [ 
			{
				"type": "occ",
				"energy": -0.31276,
				"method": "rhf"
			},
			{
				"type": "occ",
				"energy": -0.30774,
				"method": "rhf"
			},
			{
				"type": "occ",
				"energy": -0.30497,
				"method": "rhf"
			},
			{
				"type": "occ",
				"energy": -0.2949,
				"method": "rhf"
			},
			{
				"type": "occ",
				"energy": -0.28725,
				"method": "rhf"
			},
			{
				"type": "unocc",
				"energy": -0.1081,
				"method": "rhf"
			},
			{
				"type": "unocc",
				"energy": -0.09879,
				"method": "rhf"
			},
			{
				"type": "unocc",
				"energy": -0.03473,
				"method": "rhf"
			},
			{
				"type": "unocc",
				"energy": -0.01022,
				"method": "rhf"
			},
			{
				"type": "unocc",
				"energy": 0.02161,
				"method": "rhf"
			}
		],
		"cosmo_sigma_profile": { 
			"-0.025": 0.0,
			"-0.024": 0.0,
			"-0.023": 0.0,
			"-0.022": 0.0,
			"-0.021": 0.0,
			"-0.02": 0.0,
			"-0.019": 0.0,
			"-0.018": 0.0,
			"-0.017": 0.0,
			"-0.016": 0.0,
			"-0.015": 0.0,
			"-0.014": 0.0,
			"-0.013": 0.0,
			"-0.012": 0.0,
			"-0.011": 0.0,
			"-0.01": 0.0,
			"-0.009": 0.568441905918,
			"-0.008": 4.80141468028,
			"-0.007": 6.41664648533,
			"-0.006": 8.22381730675,
			"-0.005": 18.4020729456,
			"-0.004": 32.6987535135,
			"-0.003": 46.2422399203,
			"-0.002": 40.9405924431,
			"-0.001": 37.8716840878,
			"0.0": 38.5394608263,
			"0.001": 22.2248554384,
			"0.002": 11.5581623803,
			"0.003": 11.3689780892,
			"0.004": 11.717008025,
			"0.005": 9.67174186035,
			"0.006": 16.2509475896,
			"0.007": 18.7432949787,
			"0.008": 12.374753053,
			"0.009": 7.13292716902,
			"0.01": 3.32445615926,
			"0.011": 1.83775646732,
			"0.012": 0.0,
			"0.013": 0.0,
			"0.014": 0.0,
			"0.015": 0.0,
			"0.016": 0.0,
			"0.017": 0.0,
			"0.018": 0.0,
			"0.019": 0.0,
			"0.02": 0.0,
			"0.021": 0.0,
			"0.022": 0.0,
			"0.023": 0.0,
			"0.024": 0.0,
			"0.025": 0.0
		}
	}
}
