{
	 "smiles": "OC(=O)C1=CNC(=O)C(Br)=C1", 
	 "Tm": 581.15, 
	 "num_atms": 15, 
	 "gaussian": { 
		 "optdone": 1, 
		 "sigma_profile": "yes", 
		 "theory": "DFT", 
		 "functional": "B3LYP", 
		 "basiset": "6-31G**", 
		 "properties": { 
			 "R2extent": 3989.5643, 
			 "electric_dipole_moment_norm": 4.70818455989, 
			 "electric_quadrupole_moment_norm": 30.4003509567, 
			 "total_energy": -3082.87997163, 
			 "HOMO_LUMO_gap": 0.1687, 
			 "cosmo_polarized_energy": -25.7, 
			 "cosmo_cavitation_energy": 22.9, 
			 "cosmo_dispersion_energy": -17.43, 
			 "cosmo_repulsion_energy": 1.4, 
			 "cosmo_total_nonelectrostatic_energy": 6.87, 
			 "SMD_solvation_energy": 4.99 
		},
		"coords": [
			{
				"x": -0.8959733958,
				"y": 1.4014493091,
				"z": 2.3375643524,
				"element": "O" 
			},
			{
				"x": -0.3484542295,
				"y": 0.9361319232,
				"z": 1.1791333893,
				"element": "C" 
			},
			{
				"x": 0.203455393,
				"y": 1.6961378607,
				"z": 0.4200646116,
				"element": "O" 
			},
			{
				"x": -0.4548015752,
				"y": -0.5268602937,
				"z": 0.9217545542,
				"element": "C" 
			},
			{
				"x": -0.6530290007,
				"y": -1.4571427903,
				"z": 1.9085789114,
				"element": "C" 
			},
			{
				"x": -0.6883170542,
				"y": -2.7795338015,
				"z": 1.6051629459,
				"element": "N" 
			},
			{
				"x": -0.5354978164,
				"y": -3.347177022,
				"z": 0.3165464824,
				"element": "C" 
			},
			{
				"x": -0.5996436157,
				"y": -4.5556789807,
				"z": 0.1729372845,
				"element": "O" 
			},
			{
				"x": -0.2991796226,
				"y": -2.3285667817,
				"z": -0.7094773062,
				"element": "C" 
			},
			{
				"x": -0.0521421892,
				"y": -2.9649240504,
				"z": -2.472032493,
				"element": "Br" 
			},
			{
				"x": -0.2488835849,
				"y": -1.0008953447,
				"z": -0.4157954775,
				"element": "C" 
			},
			{
				"x": -1.5188610432,
				"y": 0.7573977641,
				"z": 2.7009776881,
				"element": "H" 
			},
			{
				"x": -0.7513139779,
				"y": -1.2106040736,
				"z": 2.9607027651,
				"element": "H" 
			},
			{
				"x": -0.8192824874,
				"y": -3.470332869,
				"z": 2.3349239087,
				"element": "H" 
			},
			{
				"x": -0.0518758003,
				"y": -0.2643008496,
				"z": -1.1867416167,
				"element": "H" 
			}
		],
		 "valence_orbital": [ 
			{
				"type": "occ",
				"energy": -0.29968,
				"method": "rhf"
			},
			{
				"type": "occ",
				"energy": -0.29582,
				"method": "rhf"
			},
			{
				"type": "occ",
				"energy": -0.28987,
				"method": "rhf"
			},
			{
				"type": "occ",
				"energy": -0.28131,
				"method": "rhf"
			},
			{
				"type": "occ",
				"energy": -0.24394,
				"method": "rhf"
			},
			{
				"type": "unocc",
				"energy": -0.07524,
				"method": "rhf"
			},
			{
				"type": "unocc",
				"energy": -0.05136,
				"method": "rhf"
			},
			{
				"type": "unocc",
				"energy": -0.00205,
				"method": "rhf"
			},
			{
				"type": "unocc",
				"energy": 0.03265,
				"method": "rhf"
			},
			{
				"type": "unocc",
				"energy": 0.03772,
				"method": "rhf"
			}
		],
		"cosmo_sigma_profile": { 
			"-0.025": 0.0,
			"-0.024": 0.0,
			"-0.023": 0.0,
			"-0.022": 0.0,
			"-0.021": 0.0,
			"-0.02": 0.447399611915,
			"-0.019": 1.33001549689,
			"-0.018": 1.89543540395,
			"-0.017": 2.97083909855,
			"-0.016": 2.5286613094,
			"-0.015": 2.73980374392,
			"-0.014": 2.24140421376,
			"-0.013": 3.13885544824,
			"-0.012": 3.52284338857,
			"-0.011": 2.37476667494,
			"-0.01": 1.96479028349,
			"-0.009": 1.64198401665,
			"-0.008": 2.681552611,
			"-0.007": 4.43126813901,
			"-0.006": 3.58737607205,
			"-0.005": 6.25806626462,
			"-0.004": 10.1395798278,
			"-0.003": 12.4283878363,
			"-0.002": 11.1409898095,
			"-0.001": 10.5927048211,
			"0.0": 11.2902922931,
			"0.001": 7.85054921175,
			"0.002": 7.42793948051,
			"0.003": 9.89575095202,
			"0.004": 10.8191948187,
			"0.005": 4.90116380103,
			"0.006": 4.42339886115,
			"0.007": 4.13786428073,
			"0.008": 4.79939029173,
			"0.009": 5.2407938018,
			"0.01": 6.39398767025,
			"0.011": 7.79067910015,
			"0.012": 9.07993083047,
			"0.013": 4.79173899594,
			"0.014": 0.406117154859,
			"0.015": 0.0,
			"0.016": 0.0,
			"0.017": 0.0,
			"0.018": 0.0,
			"0.019": 0.0,
			"0.02": 0.0,
			"0.021": 0.0,
			"0.022": 0.0,
			"0.023": 0.0,
			"0.024": 0.0,
			"0.025": 0.0
		}
	}
}
