{
	 "smiles": "OC(=O)C1=CC(=C(Cl)C=C1)S(=O)(=O)N(CC1=CC=CC=C1)C1=CC(=CC=C1)C(F)(F)F", 
	 "Tm": 475.15, 
	 "num_atms": 46, 
	 "gaussian": { 
		 "optdone": 1, 
		 "sigma_profile": "yes", 
		 "theory": "DFT", 
		 "functional": "B3LYP", 
		 "basiset": "6-31G**", 
		 "properties": { 
			 "R2extent": 15356.1866, 
			 "electric_dipole_moment_norm": 5.33454626937, 
			 "electric_quadrupole_moment_norm": 49.6213941745, 
			 "total_energy": -2322.74972903, 
			 "HOMO_LUMO_gap": 0.17255, 
			 "cosmo_polarized_energy": -27.56, 
			 "cosmo_cavitation_energy": 55.94, 
			 "cosmo_dispersion_energy": -35.17, 
			 "cosmo_repulsion_energy": 2.56, 
			 "cosmo_total_nonelectrostatic_energy": 23.33, 
			 "SMD_solvation_energy": 10.54 
		},
		"coords": [
			{
				"x": -1.4494593355,
				"y": -3.674546014,
				"z": 5.8476857558,
				"element": "O" 
			},
			{
				"x": -1.1902386482,
				"y": -4.0440571153,
				"z": 4.5662543371,
				"element": "C" 
			},
			{
				"x": -0.6691074796,
				"y": -5.1070285686,
				"z": 4.332778411,
				"element": "O" 
			},
			{
				"x": -1.5845884917,
				"y": -3.0750134824,
				"z": 3.4882568653,
				"element": "C" 
			},
			{
				"x": -0.9866323596,
				"y": -3.2296667213,
				"z": 2.2326475931,
				"element": "C" 
			},
			{
				"x": -1.2980453481,
				"y": -2.3713262969,
				"z": 1.1794076405,
				"element": "C" 
			},
			{
				"x": -2.253196392,
				"y": -1.3561245975,
				"z": 1.3703932014,
				"element": "C" 
			},
			{
				"x": -2.7169744097,
				"y": -0.246047387,
				"z": 0.1121532445,
				"element": "Cl" 
			},
			{
				"x": -2.8723402603,
				"y": -1.2153594942,
				"z": 2.6145120153,
				"element": "C" 
			},
			{
				"x": -2.539429984,
				"y": -2.0669345634,
				"z": 3.664331609,
				"element": "C" 
			},
			{
				"x": -0.4886737993,
				"y": -2.7159308796,
				"z": -0.4072977824,
				"element": "S" 
			},
			{
				"x": 0.3874467374,
				"y": -3.8711621799,
				"z": -0.1722780643,
				"element": "O" 
			},
			{
				"x": -1.4924982949,
				"y": -2.7495782747,
				"z": -1.4660916965,
				"element": "O" 
			},
			{
				"x": 0.4442614926,
				"y": -1.3012116301,
				"z": -0.6263854441,
				"element": "N" 
			},
			{
				"x": 1.6619771601,
				"y": -1.2364485576,
				"z": 0.2276942489,
				"element": "C" 
			},
			{
				"x": 2.1529999825,
				"y": 0.1858685436,
				"z": 0.3920876985,
				"element": "C" 
			},
			{
				"x": 1.3473367128,
				"y": 1.152362473,
				"z": 1.0103284972,
				"element": "C" 
			},
			{
				"x": 1.8106680044,
				"y": 2.455339686,
				"z": 1.1824354676,
				"element": "C" 
			},
			{
				"x": 3.0889649044,
				"y": 2.8094188616,
				"z": 0.7409760434,
				"element": "C" 
			},
			{
				"x": 3.8972776007,
				"y": 1.8541927601,
				"z": 0.1257307524,
				"element": "C" 
			},
			{
				"x": 3.4286285326,
				"y": 0.5498256284,
				"z": -0.0494963642,
				"element": "C" 
			},
			{
				"x": 0.6313549625,
				"y": -0.9191114989,
				"z": -2.0098149628,
				"element": "C" 
			},
			{
				"x": 0.1381489381,
				"y": 0.3154477339,
				"z": -2.4302131636,
				"element": "C" 
			},
			{
				"x": 0.3343033643,
				"y": 0.7227433314,
				"z": -3.7507215446,
				"element": "C" 
			},
			{
				"x": 1.0109343314,
				"y": -0.1020683985,
				"z": -4.6530970835,
				"element": "C" 
			},
			{
				"x": 1.4969205865,
				"y": -1.3378841923,
				"z": -4.2283251337,
				"element": "C" 
			},
			{
				"x": 1.315464527,
				"y": -1.7467025732,
				"z": -2.907564517,
				"element": "C" 
			},
			{
				"x": -0.1418411885,
				"y": 2.0813045454,
				"z": -4.1916969249,
				"element": "C" 
			},
			{
				"x": 0.8240954989,
				"y": 3.0182117253,
				"z": -4.0449609865,
				"element": "F" 
			},
			{
				"x": -0.4981230028,
				"y": 2.0886345928,
				"z": -5.495173456,
				"element": "F" 
			},
			{
				"x": -1.2073019386,
				"y": 2.5003350621,
				"z": -3.4747739016,
				"element": "F" 
			},
			{
				"x": -1.697192381,
				"y": -2.7410704814,
				"z": 5.8934890326,
				"element": "H" 
			},
			{
				"x": -0.2736928301,
				"y": -4.0315752111,
				"z": 2.0769533653,
				"element": "H" 
			},
			{
				"x": -3.6206017623,
				"y": -0.4421689684,
				"z": 2.7468644236,
				"element": "H" 
			},
			{
				"x": -3.0666250914,
				"y": -1.9516621204,
				"z": 4.6078369124,
				"element": "H" 
			},
			{
				"x": 1.3910736844,
				"y": -1.6487943947,
				"z": 1.2048442503,
				"element": "H" 
			},
			{
				"x": 2.4569144832,
				"y": -1.8728919921,
				"z": -0.179117111,
				"element": "H" 
			},
			{
				"x": 0.3516301937,
				"y": 0.8800294712,
				"z": 1.3496417032,
				"element": "H" 
			},
			{
				"x": 1.1766325847,
				"y": 3.1956663449,
				"z": 1.6619609986,
				"element": "H" 
			},
			{
				"x": 3.4497565915,
				"y": 3.8249669818,
				"z": 0.8752832808,
				"element": "H" 
			},
			{
				"x": 4.8903364514,
				"y": 2.1222234788,
				"z": -0.2229684483,
				"element": "H" 
			},
			{
				"x": 4.0592702488,
				"y": -0.1910647503,
				"z": -0.5341601022,
				"element": "H" 
			},
			{
				"x": -0.3960147871,
				"y": 0.942581536,
				"z": -1.7279777694,
				"element": "H" 
			},
			{
				"x": 1.1444751339,
				"y": 0.2183595211,
				"z": -5.6806199886,
				"element": "H" 
			},
			{
				"x": 2.0136611216,
				"y": -1.9865715107,
				"z": -4.9285512283,
				"element": "H" 
			},
			{
				"x": 1.6865439555,
				"y": -2.7113104229,
				"z": -2.5742616746,
				"element": "H" 
			}
		],
		 "valence_orbital": [ 
			{
				"type": "occ",
				"energy": -0.27458,
				"method": "rhf"
			},
			{
				"type": "occ",
				"energy": -0.27397,
				"method": "rhf"
			},
			{
				"type": "occ",
				"energy": -0.27025,
				"method": "rhf"
			},
			{
				"type": "occ",
				"energy": -0.26114,
				"method": "rhf"
			},
			{
				"type": "occ",
				"energy": -0.25523,
				"method": "rhf"
			},
			{
				"type": "unocc",
				"energy": -0.08268,
				"method": "rhf"
			},
			{
				"type": "unocc",
				"energy": -0.0614,
				"method": "rhf"
			},
			{
				"type": "unocc",
				"energy": -0.03786,
				"method": "rhf"
			},
			{
				"type": "unocc",
				"energy": -0.02688,
				"method": "rhf"
			},
			{
				"type": "unocc",
				"energy": -0.01957,
				"method": "rhf"
			}
		],
		"cosmo_sigma_profile": { 
			"-0.025": 0.0,
			"-0.024": 0.0,
			"-0.023": 0.0,
			"-0.022": 0.0,
			"-0.021": 0.0,
			"-0.02": 0.169561147459,
			"-0.019": 1.14739632278,
			"-0.018": 1.20435609722,
			"-0.017": 0.752904713063,
			"-0.016": 1.04662434985,
			"-0.015": 1.51088886794,
			"-0.014": 1.00074582977,
			"-0.013": 0.965235264085,
			"-0.012": 1.17266005138,
			"-0.011": 1.39648592161,
			"-0.01": 2.03383709977,
			"-0.009": 4.30482510893,
			"-0.008": 5.20395512982,
			"-0.007": 10.2773952444,
			"-0.006": 22.616110233,
			"-0.005": 25.8348292577,
			"-0.004": 31.636676655,
			"-0.003": 31.895643412,
			"-0.002": 33.1560900225,
			"-0.001": 32.9479512894,
			"0.0": 32.6406122568,
			"0.001": 29.1464286337,
			"0.002": 43.2970555833,
			"0.003": 47.8070826577,
			"0.004": 15.7831544503,
			"0.005": 13.6935489256,
			"0.006": 8.45118977705,
			"0.007": 7.40312871688,
			"0.008": 7.02671623679,
			"0.009": 10.3565788041,
			"0.01": 14.521196746,
			"0.011": 8.02431513072,
			"0.012": 2.3809458156,
			"0.013": 0.310981722919,
			"0.014": 0.0,
			"0.015": 0.0,
			"0.016": 0.0,
			"0.017": 0.0,
			"0.018": 0.0,
			"0.019": 0.0,
			"0.02": 0.0,
			"0.021": 0.0,
			"0.022": 0.0,
			"0.023": 0.0,
			"0.024": 0.0,
			"0.025": 0.0
		}
	}
}
