{
	 "smiles": "CNCC(OC)OC", 
	 "Tm": 200.15, 
	 "num_atms": 21, 
	 "gaussian": { 
		 "optdone": 1, 
		 "sigma_profile": "yes", 
		 "theory": "DFT", 
		 "functional": "B3LYP", 
		 "basiset": "6-31G**", 
		 "properties": { 
			 "R2extent": 1206.7455, 
			 "electric_dipole_moment_norm": 0.82625686684, 
			 "electric_quadrupole_moment_norm": 6.03303583944, 
			 "total_energy": -403.52775217, 
			 "HOMO_LUMO_gap": 0.28949, 
			 "cosmo_polarized_energy": -6.42, 
			 "cosmo_cavitation_energy": 22.59, 
			 "cosmo_dispersion_energy": -16.4, 
			 "cosmo_repulsion_energy": 1.39, 
			 "cosmo_total_nonelectrostatic_energy": 7.58, 
			 "SMD_solvation_energy": 4.54 
		},
		"coords": [
			{
				"x": 2.588111946,
				"y": -0.4544568294,
				"z": -0.6339838734,
				"element": "C" 
			},
			{
				"x": 2.2070002533,
				"y": 0.2953067991,
				"z": 0.5618319022,
				"element": "N" 
			},
			{
				"x": 1.0599322963,
				"y": -0.2469532887,
				"z": 1.285738212,
				"element": "C" 
			},
			{
				"x": -0.3186687004,
				"y": 0.2250306389,
				"z": 0.7999411909,
				"element": "C" 
			},
			{
				"x": -0.6244997012,
				"y": 1.5755462838,
				"z": 1.0661558109,
				"element": "O" 
			},
			{
				"x": 0.1329414135,
				"y": 2.5679278513,
				"z": 0.3716276825,
				"element": "C" 
			},
			{
				"x": -0.4554320451,
				"y": -0.1101554916,
				"z": -0.5628042677,
				"element": "O" 
			},
			{
				"x": -1.7829455279,
				"y": 0.0193457325,
				"z": -1.0517403834,
				"element": "C" 
			},
			{
				"x": 3.5074870303,
				"y": -0.028246865,
				"z": -1.0478136319,
				"element": "H" 
			},
			{
				"x": 1.7998551025,
				"y": -0.3707031624,
				"z": -1.3835064347,
				"element": "H" 
			},
			{
				"x": 2.7601073902,
				"y": -1.5306193422,
				"z": -0.4464839255,
				"element": "H" 
			},
			{
				"x": 2.9987094581,
				"y": 0.3316202363,
				"z": 1.195860526,
				"element": "H" 
			},
			{
				"x": 1.0402144198,
				"y": -1.353329927,
				"z": 1.2790893858,
				"element": "H" 
			},
			{
				"x": 1.1298296199,
				"y": 0.0687991816,
				"z": 2.3322388637,
				"element": "H" 
			},
			{
				"x": -1.0750652403,
				"y": -0.3192309656,
				"z": 1.3903767296,
				"element": "H" 
			},
			{
				"x": -0.4128329025,
				"y": 3.5065152672,
				"z": 0.5032705562,
				"element": "H" 
			},
			{
				"x": 0.2089183193,
				"y": 2.3390021899,
				"z": -0.6965188168,
				"element": "H" 
			},
			{
				"x": 1.1452177322,
				"y": 2.6648366186,
				"z": 0.7730254935,
				"element": "H" 
			},
			{
				"x": -2.4747117937,
				"y": -0.6327873931,
				"z": -0.497510654,
				"element": "H" 
			},
			{
				"x": -2.1452408503,
				"y": 1.0510167552,
				"z": -0.978551567,
				"element": "H" 
			},
			{
				"x": -1.7672282199,
				"y": -0.2879642894,
				"z": -2.0997427989,
				"element": "H" 
			}
		],
		 "valence_orbital": [ 
			{
				"type": "occ",
				"energy": -0.33835,
				"method": "rhf"
			},
			{
				"type": "occ",
				"energy": -0.28938,
				"method": "rhf"
			},
			{
				"type": "occ",
				"energy": -0.26838,
				"method": "rhf"
			},
			{
				"type": "occ",
				"energy": -0.25846,
				"method": "rhf"
			},
			{
				"type": "occ",
				"energy": -0.21236,
				"method": "rhf"
			},
			{
				"type": "unocc",
				"energy": 0.07713,
				"method": "rhf"
			},
			{
				"type": "unocc",
				"energy": 0.11082,
				"method": "rhf"
			},
			{
				"type": "unocc",
				"energy": 0.13176,
				"method": "rhf"
			},
			{
				"type": "unocc",
				"energy": 0.13909,
				"method": "rhf"
			},
			{
				"type": "unocc",
				"energy": 0.14169,
				"method": "rhf"
			}
		],
		"cosmo_sigma_profile": { 
			"-0.025": 0.0,
			"-0.024": 0.0,
			"-0.023": 0.0,
			"-0.022": 0.0,
			"-0.021": 0.0,
			"-0.02": 0.0,
			"-0.019": 0.0,
			"-0.018": 0.0,
			"-0.017": 0.0,
			"-0.016": 0.0,
			"-0.015": 0.0,
			"-0.014": 0.0,
			"-0.013": 0.0,
			"-0.012": 0.0,
			"-0.011": 0.0,
			"-0.01": 1.18038636055,
			"-0.009": 1.01108003787,
			"-0.008": 1.82291394951,
			"-0.007": 1.49790079919,
			"-0.006": 1.26876047648,
			"-0.005": 5.58626230911,
			"-0.004": 16.5552016035,
			"-0.003": 20.0042946519,
			"-0.002": 25.0835308549,
			"-0.001": 27.0825159104,
			"0.0": 18.5833651477,
			"0.001": 9.90682521906,
			"0.002": 6.83838171833,
			"0.003": 5.97984532645,
			"0.004": 4.35803903006,
			"0.005": 4.33895257179,
			"0.006": 4.77335381867,
			"0.007": 3.94828692859,
			"0.008": 3.57310413605,
			"0.009": 3.05223064573,
			"0.01": 2.54113476996,
			"0.011": 2.39043127016,
			"0.012": 1.32836692919,
			"0.013": 1.70456798568,
			"0.014": 0.29562030017,
			"0.015": 0.0,
			"0.016": 0.0,
			"0.017": 0.0,
			"0.018": 0.0,
			"0.019": 0.0,
			"0.02": 0.0,
			"0.021": 0.0,
			"0.022": 0.0,
			"0.023": 0.0,
			"0.024": 0.0,
			"0.025": 0.0
		}
	}
}
