{
	 "smiles": "NNC(=O)COC1=C(F)C=CC=C1", 
	 "Tm": 383.15, 
	 "num_atms": 22, 
	 "gaussian": { 
		 "optdone": 1, 
		 "sigma_profile": "yes", 
		 "theory": "DFT", 
		 "functional": "B3LYP", 
		 "basiset": "6-31G**", 
		 "properties": { 
			 "R2extent": 3431.3381, 
			 "electric_dipole_moment_norm": 2.3000665686, 
			 "electric_quadrupole_moment_norm": 8.05760886926, 
			 "total_energy": -670.023994012, 
			 "HOMO_LUMO_gap": 0.22156, 
			 "cosmo_polarized_energy": -12.95, 
			 "cosmo_cavitation_energy": 27.41, 
			 "cosmo_dispersion_energy": -19.82, 
			 "cosmo_repulsion_energy": 1.57, 
			 "cosmo_total_nonelectrostatic_energy": 9.16, 
			 "SMD_solvation_energy": 6.63 
		},
		"coords": [
			{
				"x": 3.7471532749,
				"y": 1.5992539291,
				"z": -1.8850378404,
				"element": "N" 
			},
			{
				"x": 2.7946192016,
				"y": 0.7699868989,
				"z": -1.2651586432,
				"element": "N" 
			},
			{
				"x": 3.1491296008,
				"y": -0.1929058922,
				"z": -0.3786272766,
				"element": "C" 
			},
			{
				"x": 4.3045434059,
				"y": -0.4238070802,
				"z": -0.0438072043,
				"element": "O" 
			},
			{
				"x": 1.999062533,
				"y": -1.0090643887,
				"z": 0.2067090327,
				"element": "C" 
			},
			{
				"x": 0.7629362132,
				"y": -0.5595122039,
				"z": -0.3292194157,
				"element": "O" 
			},
			{
				"x": -0.391756931,
				"y": -1.1664778562,
				"z": 0.0712065424,
				"element": "C" 
			},
			{
				"x": -1.5707681358,
				"y": -0.665783747,
				"z": -0.5041212099,
				"element": "C" 
			},
			{
				"x": -1.464051012,
				"y": 0.3504120638,
				"z": -1.384663991,
				"element": "F" 
			},
			{
				"x": -2.8129133183,
				"y": -1.1865044587,
				"z": -0.1893855826,
				"element": "C" 
			},
			{
				"x": -2.9010585963,
				"y": -2.2410582082,
				"z": 0.7269375186,
				"element": "C" 
			},
			{
				"x": -1.7425100755,
				"y": -2.7499237358,
				"z": 1.3070738376,
				"element": "C" 
			},
			{
				"x": -0.4878309583,
				"y": -2.2183577384,
				"z": 0.9842215701,
				"element": "C" 
			},
			{
				"x": 4.2780819273,
				"y": 2.0594875334,
				"z": -1.1454726181,
				"element": "H" 
			},
			{
				"x": 4.4178238507,
				"y": 0.9929869652,
				"z": -2.3575564087,
				"element": "H" 
			},
			{
				"x": 1.8265334575,
				"y": 0.920650294,
				"z": -1.5080402642,
				"element": "H" 
			},
			{
				"x": 2.1776810427,
				"y": -2.0653935634,
				"z": -0.0320710902,
				"element": "H" 
			},
			{
				"x": 2.0257660462,
				"y": -0.8972712549,
				"z": 1.298294442,
				"element": "H" 
			},
			{
				"x": -3.6919217567,
				"y": -0.7624266143,
				"z": -0.6629915904,
				"element": "H" 
			},
			{
				"x": -3.8715457474,
				"y": -2.6554019618,
				"z": 0.9794522706,
				"element": "H" 
			},
			{
				"x": -1.8019815646,
				"y": -3.5675559858,
				"z": 2.0185795622,
				"element": "H" 
			},
			{
				"x": 0.4045075419,
				"y": -2.6259329948,
				"z": 1.4448783592,
				"element": "H" 
			}
		],
		 "valence_orbital": [ 
			{
				"type": "occ",
				"energy": -0.27966,
				"method": "rhf"
			},
			{
				"type": "occ",
				"energy": -0.26462,
				"method": "rhf"
			},
			{
				"type": "occ",
				"energy": -0.25893,
				"method": "rhf"
			},
			{
				"type": "occ",
				"energy": -0.25869,
				"method": "rhf"
			},
			{
				"type": "occ",
				"energy": -0.23199,
				"method": "rhf"
			},
			{
				"type": "unocc",
				"energy": -0.01043,
				"method": "rhf"
			},
			{
				"type": "unocc",
				"energy": -0.00243,
				"method": "rhf"
			},
			{
				"type": "unocc",
				"energy": 0.0234,
				"method": "rhf"
			},
			{
				"type": "unocc",
				"energy": 0.06575,
				"method": "rhf"
			},
			{
				"type": "unocc",
				"energy": 0.0853,
				"method": "rhf"
			}
		],
		"cosmo_sigma_profile": { 
			"-0.025": 0.0,
			"-0.024": 0.0,
			"-0.023": 0.0,
			"-0.022": 0.0,
			"-0.021": 0.0,
			"-0.02": 0.0,
			"-0.019": 0.0,
			"-0.018": 0.0,
			"-0.017": 0.0,
			"-0.016": 0.0,
			"-0.015": 0.0,
			"-0.014": 0.0,
			"-0.013": 0.0,
			"-0.012": 0.683458284593,
			"-0.011": 3.14392772376,
			"-0.01": 2.8746366502,
			"-0.009": 3.15291010717,
			"-0.008": 6.39371023626,
			"-0.007": 12.9716363765,
			"-0.006": 13.5743815362,
			"-0.005": 12.5763545093,
			"-0.004": 13.8892569983,
			"-0.003": 11.3324388686,
			"-0.002": 10.4821145224,
			"-0.001": 12.1978746354,
			"0.0": 12.4035949026,
			"0.001": 16.7784196304,
			"0.002": 14.4643164388,
			"0.003": 14.5988945902,
			"0.004": 20.1009604718,
			"0.005": 10.9013422446,
			"0.006": 2.52005478242,
			"0.007": 2.10596714753,
			"0.008": 1.95077004028,
			"0.009": 1.20469231073,
			"0.01": 1.69681126281,
			"0.011": 2.0945393741,
			"0.012": 2.8691207321,
			"0.013": 5.1545709664,
			"0.014": 4.16572056054,
			"0.015": 0.872398474578,
			"0.016": 0.787832152333,
			"0.017": 0.0,
			"0.018": 0.0,
			"0.019": 0.0,
			"0.02": 0.0,
			"0.021": 0.0,
			"0.022": 0.0,
			"0.023": 0.0,
			"0.024": 0.0,
			"0.025": 0.0
		}
	}
}
