{
	 "smiles": "CC1=C(C)C=C(C=C1)S(=O)(=O)NCC(O)=O", 
	 "Tm": 397.15, 
	 "num_atms": 29, 
	 "gaussian": { 
		 "optdone": 1, 
		 "sigma_profile": "yes", 
		 "theory": "DFT", 
		 "functional": "B3LYP", 
		 "basiset": "6-31G**", 
		 "properties": { 
			 "R2extent": 5332.8473, 
			 "electric_dipole_moment_norm": 7.92053560058, 
			 "electric_quadrupole_moment_norm": 14.6375287843, 
			 "total_energy": -1142.6875624, 
			 "HOMO_LUMO_gap": 0.20444, 
			 "cosmo_polarized_energy": -19.58, 
			 "cosmo_cavitation_energy": 34.04, 
			 "cosmo_dispersion_energy": -24.63, 
			 "cosmo_repulsion_energy": 1.88, 
			 "cosmo_total_nonelectrostatic_energy": 11.29, 
			 "SMD_solvation_energy": 5.94 
		},
		"coords": [
			{
				"x": 1.2792200826,
				"y": 2.0217306367,
				"z": -4.0544774308,
				"element": "C" 
			},
			{
				"x": 0.881528378,
				"y": 1.8414251674,
				"z": -2.6105657261,
				"element": "C" 
			},
			{
				"x": 1.1646148941,
				"y": 0.6360852841,
				"z": -1.9308837396,
				"element": "C" 
			},
			{
				"x": 1.8755950482,
				"y": -0.5001007109,
				"z": -2.6254504947,
				"element": "C" 
			},
			{
				"x": 0.7818646165,
				"y": 0.5048214355,
				"z": -0.5918152233,
				"element": "C" 
			},
			{
				"x": 0.1272746275,
				"y": 1.5512166154,
				"z": 0.0587202751,
				"element": "C" 
			},
			{
				"x": -0.1512990624,
				"y": 2.7509212505,
				"z": -0.5959712715,
				"element": "C" 
			},
			{
				"x": 0.2301797946,
				"y": 2.8786903559,
				"z": -1.9278571736,
				"element": "C" 
			},
			{
				"x": -0.3472446758,
				"y": 1.3693470301,
				"z": 1.76932953,
				"element": "S" 
			},
			{
				"x": -0.1293432975,
				"y": 2.6243804708,
				"z": 2.4880998091,
				"element": "O" 
			},
			{
				"x": 0.2627397541,
				"y": 0.1039833539,
				"z": 2.2432935838,
				"element": "O" 
			},
			{
				"x": -2.0131804715,
				"y": 1.1765523688,
				"z": 1.7191496855,
				"element": "N" 
			},
			{
				"x": -2.6209258516,
				"y": -0.1367302145,
				"z": 1.4850849152,
				"element": "C" 
			},
			{
				"x": -2.8255843251,
				"y": -1.0352680803,
				"z": 2.7231160768,
				"element": "C" 
			},
			{
				"x": -1.7740546221,
				"y": -1.2156709064,
				"z": 3.5316510246,
				"element": "O" 
			},
			{
				"x": -3.8958993815,
				"y": -1.5563896729,
				"z": 2.9340095241,
				"element": "O" 
			},
			{
				"x": 0.8107999519,
				"y": 1.2666655368,
				"z": -4.6968301197,
				"element": "H" 
			},
			{
				"x": 0.9872620091,
				"y": 3.0066383154,
				"z": -4.4262700705,
				"element": "H" 
			},
			{
				"x": 2.3627332623,
				"y": 1.9194250504,
				"z": -4.1873441083,
				"element": "H" 
			},
			{
				"x": 1.314608507,
				"y": -0.8523796014,
				"z": -3.4991724744,
				"element": "H" 
			},
			{
				"x": 2.8644942793,
				"y": -0.1942938198,
				"z": -2.9867396404,
				"element": "H" 
			},
			{
				"x": 2.0142953005,
				"y": -1.3491428183,
				"z": -1.9520814259,
				"element": "H" 
			},
			{
				"x": 1.0056308359,
				"y": -0.4044144687,
				"z": -0.0442360277,
				"element": "H" 
			},
			{
				"x": -0.6434607205,
				"y": 3.5644877467,
				"z": -0.0745590332,
				"element": "H" 
			},
			{
				"x": 0.0225720477,
				"y": 3.8072163713,
				"z": -2.4523176898,
				"element": "H" 
			},
			{
				"x": -2.4450545584,
				"y": 1.7622318125,
				"z": 2.428053128,
				"element": "H" 
			},
			{
				"x": -3.6070691033,
				"y": 0.0121699257,
				"z": 1.0417266844,
				"element": "H" 
			},
			{
				"x": -2.0079234626,
				"y": -0.6694544192,
				"z": 0.7497970652,
				"element": "H" 
			},
			{
				"x": -0.9609738569,
				"y": -0.7936440151,
				"z": 3.1739403477,
				"element": "H" 
			}
		],
		 "valence_orbital": [ 
			{
				"type": "occ",
				"energy": -0.30526,
				"method": "rhf"
			},
			{
				"type": "occ",
				"energy": -0.30316,
				"method": "rhf"
			},
			{
				"type": "occ",
				"energy": -0.27724,
				"method": "rhf"
			},
			{
				"type": "occ",
				"energy": -0.26894,
				"method": "rhf"
			},
			{
				"type": "occ",
				"energy": -0.25577,
				"method": "rhf"
			},
			{
				"type": "unocc",
				"energy": -0.05133,
				"method": "rhf"
			},
			{
				"type": "unocc",
				"energy": -0.02792,
				"method": "rhf"
			},
			{
				"type": "unocc",
				"energy": 0.0049,
				"method": "rhf"
			},
			{
				"type": "unocc",
				"energy": 0.048,
				"method": "rhf"
			},
			{
				"type": "unocc",
				"energy": 0.06652,
				"method": "rhf"
			}
		],
		"cosmo_sigma_profile": { 
			"-0.025": 0.0,
			"-0.024": 0.0,
			"-0.023": 0.0,
			"-0.022": 0.0,
			"-0.021": 0.0,
			"-0.02": 0.0,
			"-0.019": 0.0,
			"-0.018": 0.0,
			"-0.017": 0.0,
			"-0.016": 0.740370278319,
			"-0.015": 1.56899261386,
			"-0.014": 0.981524154133,
			"-0.013": 1.52810998486,
			"-0.012": 1.06047272204,
			"-0.011": 1.19769067137,
			"-0.01": 1.48303691315,
			"-0.009": 3.09630721007,
			"-0.008": 4.87917478509,
			"-0.007": 9.06728137998,
			"-0.006": 12.2280090742,
			"-0.005": 21.3798464101,
			"-0.004": 22.5887479177,
			"-0.003": 18.6072295988,
			"-0.002": 20.7955131611,
			"-0.001": 21.1218347398,
			"0.0": 21.5873495988,
			"0.001": 13.3060403793,
			"0.002": 13.3485201028,
			"0.003": 15.3362741993,
			"0.004": 7.57177152775,
			"0.005": 4.42260383534,
			"0.006": 5.27432615404,
			"0.007": 6.25978774788,
			"0.008": 5.32795784972,
			"0.009": 6.5618042463,
			"0.01": 11.7338107313,
			"0.011": 8.82567578517,
			"0.012": 5.56391017213,
			"0.013": 2.1851063132,
			"0.014": 0.105298681475,
			"0.015": 0.0,
			"0.016": 0.0,
			"0.017": 0.0,
			"0.018": 0.0,
			"0.019": 0.0,
			"0.02": 0.0,
			"0.021": 0.0,
			"0.022": 0.0,
			"0.023": 0.0,
			"0.024": 0.0,
			"0.025": 0.0
		}
	}
}
