{
	 "smiles": "CN1CC[C@]23C4OC5=C(O)C=CC(CC1[C@@H]2C=C[C@@H]4O)=C35", 
	 "Tm": 528.15, 
	 "num_atms": 40, 
	 "gaussian": { 
		 "optdone": 1, 
		 "sigma_profile": "yes", 
		 "theory": "DFT", 
		 "functional": "B3LYP", 
		 "basiset": "6-31G**", 
		 "properties": { 
			 "R2extent": 6035.0823, 
			 "electric_dipole_moment_norm": 2.78449191775, 
			 "electric_quadrupole_moment_norm": 19.7560469842, 
			 "total_energy": -939.630816334, 
			 "HOMO_LUMO_gap": 0.20307, 
			 "cosmo_polarized_energy": -15.39, 
			 "cosmo_cavitation_energy": 37.48, 
			 "cosmo_dispersion_energy": -27.27, 
			 "cosmo_repulsion_energy": 2.03, 
			 "cosmo_total_nonelectrostatic_energy": 12.24, 
			 "SMD_solvation_energy": 3.73 
		},
		"coords": [
			{
				"x": 2.1125638422,
				"y": -1.8797988016,
				"z": 0.7283410817,
				"element": "C" 
			},
			{
				"x": 1.652239525,
				"y": -0.9822049618,
				"z": -0.3236185089,
				"element": "N" 
			},
			{
				"x": 2.1876586459,
				"y": 0.3807806239,
				"z": -0.2153557911,
				"element": "C" 
			},
			{
				"x": 1.4467757228,
				"y": 1.2755508899,
				"z": 0.7961869875,
				"element": "C" 
			},
			{
				"x": -0.0850323207,
				"y": 1.2276645499,
				"z": 0.5677927746,
				"element": "C" 
			},
			{
				"x": -0.8419926361,
				"y": 2.2337425678,
				"z": 1.4791553416,
				"element": "C" 
			},
			{
				"x": -1.1398309265,
				"y": 3.4072381582,
				"z": 0.6449413551,
				"element": "O" 
			},
			{
				"x": -1.0239415052,
				"y": 3.0109896644,
				"z": -0.6673969301,
				"element": "C" 
			},
			{
				"x": -1.4698477752,
				"y": 3.7143553132,
				"z": -1.7858661934,
				"element": "C" 
			},
			{
				"x": -1.997597799,
				"y": 4.9647992009,
				"z": -1.6203980936,
				"element": "O" 
			},
			{
				"x": -1.3731751362,
				"y": 3.0536751401,
				"z": -3.0217984838,
				"element": "C" 
			},
			{
				"x": -0.9131212666,
				"y": 1.7356545781,
				"z": -3.1238225226,
				"element": "C" 
			},
			{
				"x": -0.468609973,
				"y": 1.0420552752,
				"z": -1.9879454652,
				"element": "C" 
			},
			{
				"x": -0.1578799474,
				"y": -0.4421264228,
				"z": -1.943536017,
				"element": "C" 
			},
			{
				"x": 0.1919456567,
				"y": -0.9937525751,
				"z": -0.5294226634,
				"element": "C" 
			},
			{
				"x": -0.5539322444,
				"y": -0.248918379,
				"z": 0.6261721017,
				"element": "C" 
			},
			{
				"x": -2.0611312421,
				"y": -0.3222942231,
				"z": 0.5855759076,
				"element": "C" 
			},
			{
				"x": -2.80017774,
				"y": 0.5980384773,
				"z": 1.2122244334,
				"element": "C" 
			},
			{
				"x": -2.1765413199,
				"y": 1.688063978,
				"z": 2.0620524333,
				"element": "C" 
			},
			{
				"x": -3.0696612439,
				"y": 2.7491647361,
				"z": 2.3413543418,
				"element": "O" 
			},
			{
				"x": -0.4763571067,
				"y": 1.7489753423,
				"z": -0.7941178316,
				"element": "C" 
			},
			{
				"x": 1.8116046228,
				"y": -1.6075416765,
				"z": 1.7562517736,
				"element": "H" 
			},
			{
				"x": 3.2066933049,
				"y": -1.923130304,
				"z": 0.7087360558,
				"element": "H" 
			},
			{
				"x": 1.7370167283,
				"y": -2.8899536762,
				"z": 0.5328174482,
				"element": "H" 
			},
			{
				"x": 3.2501557191,
				"y": 0.3143505898,
				"z": 0.0414299213,
				"element": "H" 
			},
			{
				"x": 2.1350507555,
				"y": 0.8508820359,
				"z": -1.2041637343,
				"element": "H" 
			},
			{
				"x": 1.8067780915,
				"y": 2.307958422,
				"z": 0.7099341035,
				"element": "H" 
			},
			{
				"x": 1.654672462,
				"y": 0.9482588587,
				"z": 1.8238857924,
				"element": "H" 
			},
			{
				"x": -0.2207168739,
				"y": 2.6148364464,
				"z": 2.2932005742,
				"element": "H" 
			},
			{
				"x": -2.297352927,
				"y": 5.2909399858,
				"z": -2.4786895126,
				"element": "H" 
			},
			{
				"x": -1.7151961052,
				"y": 3.5712605672,
				"z": -3.916338405,
				"element": "H" 
			},
			{
				"x": -0.9279819654,
				"y": 1.2457928863,
				"z": -4.0939454001,
				"element": "H" 
			},
			{
				"x": -1.0393927709,
				"y": -0.9789706204,
				"z": -2.3171710354,
				"element": "H" 
			},
			{
				"x": 0.6681138767,
				"y": -0.7131283301,
				"z": -2.6112596157,
				"element": "H" 
			},
			{
				"x": -0.1121352508,
				"y": -2.0472155472,
				"z": -0.5092050059,
				"element": "H" 
			},
			{
				"x": -0.2083706374,
				"y": -0.6998597448,
				"z": 1.5690321417,
				"element": "H" 
			},
			{
				"x": -2.5330923819,
				"y": -1.1355267601,
				"z": 0.0362427961,
				"element": "H" 
			},
			{
				"x": -3.8869435178,
				"y": 0.5660656609,
				"z": 1.2081491296,
				"element": "H" 
			},
			{
				"x": -1.9266535852,
				"y": 1.2398442262,
				"z": 3.0364542802,
				"element": "H" 
			},
			{
				"x": -2.9435027549,
				"y": 3.3936838482,
				"z": 1.6269204347,
				"element": "H" 
			}
		],
		 "valence_orbital": [ 
			{
				"type": "occ",
				"energy": -0.2597,
				"method": "rhf"
			},
			{
				"type": "occ",
				"energy": -0.24875,
				"method": "rhf"
			},
			{
				"type": "occ",
				"energy": -0.22418,
				"method": "rhf"
			},
			{
				"type": "occ",
				"energy": -0.20529,
				"method": "rhf"
			},
			{
				"type": "occ",
				"energy": -0.20152,
				"method": "rhf"
			},
			{
				"type": "unocc",
				"energy": 0.00155,
				"method": "rhf"
			},
			{
				"type": "unocc",
				"energy": 0.00796,
				"method": "rhf"
			},
			{
				"type": "unocc",
				"energy": 0.02331,
				"method": "rhf"
			},
			{
				"type": "unocc",
				"energy": 0.06786,
				"method": "rhf"
			},
			{
				"type": "unocc",
				"energy": 0.07269,
				"method": "rhf"
			}
		],
		"cosmo_sigma_profile": { 
			"-0.025": 0.0,
			"-0.024": 0.0,
			"-0.023": 0.0,
			"-0.022": 0.0,
			"-0.021": 0.0,
			"-0.02": 0.0,
			"-0.019": 0.0,
			"-0.018": 0.163548415003,
			"-0.017": 1.48211351882,
			"-0.016": 0.469071991098,
			"-0.015": 1.48080188731,
			"-0.014": 1.0477287532,
			"-0.013": 1.15354168616,
			"-0.012": 0.871978679894,
			"-0.011": 0.540519505584,
			"-0.01": 1.43549548323,
			"-0.009": 1.88846414906,
			"-0.008": 2.11982942852,
			"-0.007": 1.6620558375,
			"-0.006": 6.17796746459,
			"-0.005": 13.8954884135,
			"-0.004": 30.3007873761,
			"-0.003": 33.2235079384,
			"-0.002": 32.9966635049,
			"-0.001": 30.181394626,
			"0.0": 23.9393611566,
			"0.001": 13.6525659264,
			"0.002": 12.600331926,
			"0.003": 13.0770696785,
			"0.004": 11.4912322556,
			"0.005": 12.3950308985,
			"0.006": 9.2225579345,
			"0.007": 8.57689596651,
			"0.008": 3.77088633885,
			"0.009": 4.01766926333,
			"0.01": 5.00698218467,
			"0.011": 5.15882650029,
			"0.012": 3.13316246419,
			"0.013": 2.01953479483,
			"0.014": 2.53538309413,
			"0.015": 0.684239563607,
			"0.016": 0.0742830124542,
			"0.017": 0.0,
			"0.018": 0.0,
			"0.019": 0.0,
			"0.02": 0.0,
			"0.021": 0.0,
			"0.022": 0.0,
			"0.023": 0.0,
			"0.024": 0.0,
			"0.025": 0.0
		}
	}
}
