{
	 "smiles": "CCCOC(=O)CC", 
	 "Tm": 197.15, 
	 "num_atms": 20, 
	 "gaussian": { 
		 "optdone": 1, 
		 "sigma_profile": "yes", 
		 "theory": "DFT", 
		 "functional": "B3LYP", 
		 "basiset": "6-31G**", 
		 "properties": { 
			 "R2extent": 2131.0339, 
			 "electric_dipole_moment_norm": 2.06009435949, 
			 "electric_quadrupole_moment_norm": 13.7570244552, 
			 "total_energy": -386.343970096, 
			 "HOMO_LUMO_gap": 0.27825, 
			 "cosmo_polarized_energy": -6.19, 
			 "cosmo_cavitation_energy": 23.03, 
			 "cosmo_dispersion_energy": -16.36, 
			 "cosmo_repulsion_energy": 1.42, 
			 "cosmo_total_nonelectrostatic_energy": 8.08, 
			 "SMD_solvation_energy": 5.14 
		},
		"coords": [
			{
				"x": -0.5954662399,
				"y": 2.4482851367,
				"z": -0.9362623645,
				"element": "C" 
			},
			{
				"x": 0.6426961624,
				"y": 2.2260908823,
				"z": -1.8104831772,
				"element": "C" 
			},
			{
				"x": 0.5553500437,
				"y": 0.9903972897,
				"z": -2.6935298125,
				"element": "C" 
			},
			{
				"x": 0.4985099722,
				"y": -0.1715173191,
				"z": -1.8340206219,
				"element": "O" 
			},
			{
				"x": 0.385071303,
				"y": -1.3658019502,
				"z": -2.4606505148,
				"element": "C" 
			},
			{
				"x": 0.3311599761,
				"y": -1.4830753003,
				"z": -3.666287885,
				"element": "O" 
			},
			{
				"x": 0.3526293452,
				"y": -2.5119021676,
				"z": -1.4672658054,
				"element": "C" 
			},
			{
				"x": -0.7356215081,
				"y": -2.3710950617,
				"z": -0.3927819366,
				"element": "C" 
			},
			{
				"x": -0.758360874,
				"y": 1.5993844517,
				"z": -0.2663938749,
				"element": "H" 
			},
			{
				"x": -0.4874475373,
				"y": 3.3479989725,
				"z": -0.3226949903,
				"element": "H" 
			},
			{
				"x": -1.4954951034,
				"y": 2.5682417044,
				"z": -1.5500780295,
				"element": "H" 
			},
			{
				"x": 1.5391537402,
				"y": 2.1496273189,
				"z": -1.183218851,
				"element": "H" 
			},
			{
				"x": 0.7964841366,
				"y": 3.0894263508,
				"z": -2.4703556795,
				"element": "H" 
			},
			{
				"x": -0.3376085846,
				"y": 1.0046479026,
				"z": -3.3280499615,
				"element": "H" 
			},
			{
				"x": 1.4254956383,
				"y": 0.8983964723,
				"z": -3.3515843876,
				"element": "H" 
			},
			{
				"x": 1.3378249615,
				"y": -2.5626562177,
				"z": -0.9866683652,
				"element": "H" 
			},
			{
				"x": 0.2209115338,
				"y": -3.4271483893,
				"z": -2.0488454779,
				"element": "H" 
			},
			{
				"x": -0.7168839309,
				"y": -3.2319228411,
				"z": 0.282116859,
				"element": "H" 
			},
			{
				"x": -1.7318412576,
				"y": -2.3206360049,
				"z": -0.8434911887,
				"element": "H" 
			},
			{
				"x": -0.584961777,
				"y": -1.46624123,
				"z": 0.2006460649,
				"element": "H" 
			}
		],
		 "valence_orbital": [ 
			{
				"type": "occ",
				"energy": -0.34679,
				"method": "rhf"
			},
			{
				"type": "occ",
				"energy": -0.34109,
				"method": "rhf"
			},
			{
				"type": "occ",
				"energy": -0.3349,
				"method": "rhf"
			},
			{
				"type": "occ",
				"energy": -0.29466,
				"method": "rhf"
			},
			{
				"type": "occ",
				"energy": -0.26237,
				"method": "rhf"
			},
			{
				"type": "unocc",
				"energy": 0.01588,
				"method": "rhf"
			},
			{
				"type": "unocc",
				"energy": 0.08732,
				"method": "rhf"
			},
			{
				"type": "unocc",
				"energy": 0.10508,
				"method": "rhf"
			},
			{
				"type": "unocc",
				"energy": 0.12621,
				"method": "rhf"
			},
			{
				"type": "unocc",
				"energy": 0.13604,
				"method": "rhf"
			}
		],
		"cosmo_sigma_profile": { 
			"-0.025": 0.0,
			"-0.024": 0.0,
			"-0.023": 0.0,
			"-0.022": 0.0,
			"-0.021": 0.0,
			"-0.02": 0.0,
			"-0.019": 0.0,
			"-0.018": 0.0,
			"-0.017": 0.0,
			"-0.016": 0.0,
			"-0.015": 0.0,
			"-0.014": 0.0,
			"-0.013": 0.0,
			"-0.012": 0.0,
			"-0.011": 0.0,
			"-0.01": 0.0,
			"-0.009": 0.0,
			"-0.008": 0.0,
			"-0.007": 0.0,
			"-0.006": 1.263767988,
			"-0.005": 6.23611361063,
			"-0.004": 17.0295521236,
			"-0.003": 27.4057705781,
			"-0.002": 28.5306531342,
			"-0.001": 22.6346402934,
			"0.0": 21.7689567768,
			"0.001": 16.3855235207,
			"0.002": 6.86069799609,
			"0.003": 4.72764779183,
			"0.004": 3.62031987106,
			"0.005": 2.51986928356,
			"0.006": 2.78712716567,
			"0.007": 2.39571012497,
			"0.008": 1.46978033723,
			"0.009": 1.66067000164,
			"0.01": 1.41691562871,
			"0.011": 2.72737832728,
			"0.012": 4.82587450562,
			"0.013": 2.48745780639,
			"0.014": 0.22543150342,
			"0.015": 0.0,
			"0.016": 0.0,
			"0.017": 0.0,
			"0.018": 0.0,
			"0.019": 0.0,
			"0.02": 0.0,
			"0.021": 0.0,
			"0.022": 0.0,
			"0.023": 0.0,
			"0.024": 0.0,
			"0.025": 0.0
		}
	}
}
