{
	 "smiles": "COC1=C(OC)C=C(C(N)=O)C(N)=C1", 
	 "Tm": 416.15, 
	 "num_atms": 26, 
	 "gaussian": { 
		 "optdone": 1, 
		 "sigma_profile": "yes", 
		 "theory": "DFT", 
		 "functional": "B3LYP", 
		 "basiset": "6-31G**", 
		 "properties": { 
			 "R2extent": 3486.9091, 
			 "electric_dipole_moment_norm": 3.84762756384, 
			 "electric_quadrupole_moment_norm": 15.8783136006, 
			 "total_energy": -685.353642029, 
			 "HOMO_LUMO_gap": 0.18165, 
			 "cosmo_polarized_energy": -17.0, 
			 "cosmo_cavitation_energy": 29.41, 
			 "cosmo_dispersion_energy": -21.5, 
			 "cosmo_repulsion_energy": 1.71, 
			 "cosmo_total_nonelectrostatic_energy": 9.63, 
			 "SMD_solvation_energy": 7.39 
		},
		"coords": [
			{
				"x": -2.2959971252,
				"y": -1.0030159413,
				"z": -2.7608943968,
				"element": "C" 
			},
			{
				"x": -1.9106913828,
				"y": -1.9482469738,
				"z": -1.7529035338,
				"element": "O" 
			},
			{
				"x": -0.9798118018,
				"y": -1.5054422703,
				"z": -0.8472303165,
				"element": "C" 
			},
			{
				"x": -1.2392348125,
				"y": -0.4408651354,
				"z": 0.0403338597,
				"element": "C" 
			},
			{
				"x": -2.4362455544,
				"y": 0.2474371909,
				"z": 0.006370598,
				"element": "O" 
			},
			{
				"x": -3.5362256524,
				"y": -0.4660496521,
				"z": 0.5798109752,
				"element": "C" 
			},
			{
				"x": -0.2550482145,
				"y": -0.0726797504,
				"z": 0.9442213287,
				"element": "C" 
			},
			{
				"x": 0.977362273,
				"y": -0.7398911592,
				"z": 1.0283879331,
				"element": "C" 
			},
			{
				"x": 1.9032879998,
				"y": -0.2465987704,
				"z": 2.0995865344,
				"element": "C" 
			},
			{
				"x": 2.9384622348,
				"y": -1.0844326563,
				"z": 2.4758782122,
				"element": "N" 
			},
			{
				"x": 1.7631778515,
				"y": 0.8524307336,
				"z": 2.6238308062,
				"element": "O" 
			},
			{
				"x": 1.2374732216,
				"y": -1.8068230315,
				"z": 0.1334883912,
				"element": "C" 
			},
			{
				"x": 2.4405211964,
				"y": -2.5330841744,
				"z": 0.1548170687,
				"element": "N" 
			},
			{
				"x": 0.2444913236,
				"y": -2.1650005882,
				"z": -0.7920772321,
				"element": "C" 
			},
			{
				"x": -3.0478770497,
				"y": -1.5047778766,
				"z": -3.3730064262,
				"element": "H" 
			},
			{
				"x": -1.4354462581,
				"y": -0.7399961413,
				"z": -3.3887012673,
				"element": "H" 
			},
			{
				"x": -2.7163623397,
				"y": -0.0959592935,
				"z": -2.3192192812,
				"element": "H" 
			},
			{
				"x": -4.4081219853,
				"y": 0.185605009,
				"z": 0.4900532702,
				"element": "H" 
			},
			{
				"x": -3.3521791444,
				"y": -0.6805762735,
				"z": 1.6401329403,
				"element": "H" 
			},
			{
				"x": -3.7235193822,
				"y": -1.4056254511,
				"z": 0.0478752731,
				"element": "H" 
			},
			{
				"x": -0.4354379351,
				"y": 0.7528826163,
				"z": 1.6238230523,
				"element": "H" 
			},
			{
				"x": 3.4080835413,
				"y": -0.7871865724,
				"z": 3.3208536185,
				"element": "H" 
			},
			{
				"x": 2.8298515142,
				"y": -2.0822011865,
				"z": 2.3437192654,
				"element": "H" 
			},
			{
				"x": 3.2631457554,
				"y": -1.9679579943,
				"z": 0.3314477237,
				"element": "H" 
			},
			{
				"x": 2.566166884,
				"y": -3.11687815,
				"z": -0.6623711495,
				"element": "H" 
			},
			{
				"x": 0.4193748424,
				"y": -2.9685665074,
				"z": -1.5020272476,
				"element": "H" 
			}
		],
		 "valence_orbital": [ 
			{
				"type": "occ",
				"energy": -0.26865,
				"method": "rhf"
			},
			{
				"type": "occ",
				"energy": -0.2627,
				"method": "rhf"
			},
			{
				"type": "occ",
				"energy": -0.2473,
				"method": "rhf"
			},
			{
				"type": "occ",
				"energy": -0.23811,
				"method": "rhf"
			},
			{
				"type": "occ",
				"energy": -0.2086,
				"method": "rhf"
			},
			{
				"type": "unocc",
				"energy": -0.02695,
				"method": "rhf"
			},
			{
				"type": "unocc",
				"energy": 0.00844,
				"method": "rhf"
			},
			{
				"type": "unocc",
				"energy": 0.0629,
				"method": "rhf"
			},
			{
				"type": "unocc",
				"energy": 0.07728,
				"method": "rhf"
			},
			{
				"type": "unocc",
				"energy": 0.09082,
				"method": "rhf"
			}
		],
		"cosmo_sigma_profile": { 
			"-0.025": 0.0,
			"-0.024": 0.0,
			"-0.023": 0.0,
			"-0.022": 0.0,
			"-0.021": 0.0,
			"-0.02": 0.0,
			"-0.019": 0.0,
			"-0.018": 0.0,
			"-0.017": 0.0,
			"-0.016": 0.0,
			"-0.015": 0.0,
			"-0.014": 0.145628283933,
			"-0.013": 1.81603951064,
			"-0.012": 2.83867455763,
			"-0.011": 3.86379720135,
			"-0.01": 5.29331380914,
			"-0.009": 5.0838230742,
			"-0.008": 4.69583094491,
			"-0.007": 4.12294582315,
			"-0.006": 6.3177232324,
			"-0.005": 12.2114044194,
			"-0.004": 15.4287937677,
			"-0.003": 21.4416412487,
			"-0.002": 20.9042616239,
			"-0.001": 15.1084299334,
			"0.0": 15.063906681,
			"0.001": 12.2100004064,
			"0.002": 10.6069949322,
			"0.003": 15.7669140703,
			"0.004": 15.8112224462,
			"0.005": 5.63574120035,
			"0.006": 4.96071144612,
			"0.007": 4.89850413438,
			"0.008": 4.29334348738,
			"0.009": 4.34151795944,
			"0.01": 3.22468740798,
			"0.011": 3.81435979488,
			"0.012": 3.45919575603,
			"0.013": 3.74022333139,
			"0.014": 4.78128067698,
			"0.015": 0.485032248463,
			"0.016": 0.0,
			"0.017": 0.0,
			"0.018": 0.0,
			"0.019": 0.0,
			"0.02": 0.0,
			"0.021": 0.0,
			"0.022": 0.0,
			"0.023": 0.0,
			"0.024": 0.0,
			"0.025": 0.0
		}
	}
}
