{
	 "smiles": "COC1=CC(OC)=C(C=C1OC)C(O)=O", 
	 "Tm": 417.15, 
	 "num_atms": 27, 
	 "gaussian": { 
		 "optdone": 1, 
		 "sigma_profile": "yes", 
		 "theory": "DFT", 
		 "functional": "B3LYP", 
		 "basiset": "6-31G**", 
		 "properties": { 
			 "R2extent": 3615.6888, 
			 "electric_dipole_moment_norm": 3.48648294274, 
			 "electric_quadrupole_moment_norm": 9.57132170706, 
			 "total_energy": -764.381404986, 
			 "HOMO_LUMO_gap": 0.1805, 
			 "cosmo_polarized_energy": -13.85, 
			 "cosmo_cavitation_energy": 31.1, 
			 "cosmo_dispersion_energy": -22.34, 
			 "cosmo_repulsion_energy": 1.78, 
			 "cosmo_total_nonelectrostatic_energy": 10.54, 
			 "SMD_solvation_energy": 8.92 
		},
		"coords": [
			{
				"x": 0.3769556206,
				"y": -1.2579011709,
				"z": 3.697802727,
				"element": "C" 
			},
			{
				"x": -0.4251141833,
				"y": -0.3250220634,
				"z": 2.9579040206,
				"element": "O" 
			},
			{
				"x": -0.2777331049,
				"y": -0.3579701037,
				"z": 1.5957888248,
				"element": "C" 
			},
			{
				"x": 0.1648814866,
				"y": 0.8051030907,
				"z": 0.9646448633,
				"element": "C" 
			},
			{
				"x": 0.3072591872,
				"y": 0.8699042412,
				"z": -0.4284295246,
				"element": "C" 
			},
			{
				"x": 0.7342634329,
				"y": 1.9874113466,
				"z": -1.0653096812,
				"element": "O" 
			},
			{
				"x": 1.0299975722,
				"y": 3.145096363,
				"z": -0.2988786681,
				"element": "C" 
			},
			{
				"x": 0.0078871669,
				"y": -0.2774808109,
				"z": -1.206707048,
				"element": "C" 
			},
			{
				"x": -0.4495392901,
				"y": -1.4295907535,
				"z": -0.5485223678,
				"element": "C" 
			},
			{
				"x": -0.6057813161,
				"y": -1.4912462835,
				"z": 0.828130841,
				"element": "C" 
			},
			{
				"x": -1.0522251047,
				"y": -2.6573145867,
				"z": 1.4165875756,
				"element": "O" 
			},
			{
				"x": -2.4104275489,
				"y": -2.6015870908,
				"z": 1.8665182415,
				"element": "C" 
			},
			{
				"x": 0.1125140791,
				"y": -0.394343853,
				"z": -2.6859440117,
				"element": "C" 
			},
			{
				"x": 0.55682468,
				"y": 0.7084181304,
				"z": -3.3294720245,
				"element": "O" 
			},
			{
				"x": -0.1765659628,
				"y": -1.4076982349,
				"z": -3.3001247013,
				"element": "O" 
			},
			{
				"x": 0.1178747242,
				"y": -1.1097552409,
				"z": 4.7477058519,
				"element": "H" 
			},
			{
				"x": 1.4429721988,
				"y": -1.042914379,
				"z": 3.5541516322,
				"element": "H" 
			},
			{
				"x": 0.1684317107,
				"y": -2.2886356625,
				"z": 3.4010548116,
				"element": "H" 
			},
			{
				"x": 0.3970346354,
				"y": 1.6508182246,
				"z": 1.5983545124,
				"element": "H" 
			},
			{
				"x": 1.3343986488,
				"y": 3.905153618,
				"z": -1.0194954893,
				"element": "H" 
			},
			{
				"x": 0.1515451695,
				"y": 3.5007603169,
				"z": 0.2539421773,
				"element": "H" 
			},
			{
				"x": 1.8514193997,
				"y": 2.9657785167,
				"z": 0.4062314237,
				"element": "H" 
			},
			{
				"x": -0.6903665319,
				"y": -2.2987824966,
				"z": -1.1499246995,
				"element": "H" 
			},
			{
				"x": -3.0921639707,
				"y": -2.4183914862,
				"z": 1.026636077,
				"element": "H" 
			},
			{
				"x": -2.6308507501,
				"y": -3.5775991272,
				"z": 2.3039779379,
				"element": "H" 
			},
			{
				"x": -2.5485117675,
				"y": -1.8202495207,
				"z": 2.6222383201,
				"element": "H" 
			},
			{
				"x": 0.5622198185,
				"y": 0.4557390164,
				"z": -4.2682616219,
				"element": "H" 
			}
		],
		 "valence_orbital": [ 
			{
				"type": "occ",
				"energy": -0.29126,
				"method": "rhf"
			},
			{
				"type": "occ",
				"energy": -0.26812,
				"method": "rhf"
			},
			{
				"type": "occ",
				"energy": -0.2659,
				"method": "rhf"
			},
			{
				"type": "occ",
				"energy": -0.24655,
				"method": "rhf"
			},
			{
				"type": "occ",
				"energy": -0.21865,
				"method": "rhf"
			},
			{
				"type": "unocc",
				"energy": -0.03815,
				"method": "rhf"
			},
			{
				"type": "unocc",
				"energy": 0.0063,
				"method": "rhf"
			},
			{
				"type": "unocc",
				"energy": 0.06302,
				"method": "rhf"
			},
			{
				"type": "unocc",
				"energy": 0.08301,
				"method": "rhf"
			},
			{
				"type": "unocc",
				"energy": 0.09388,
				"method": "rhf"
			}
		],
		"cosmo_sigma_profile": { 
			"-0.025": 0.0,
			"-0.024": 0.0,
			"-0.023": 0.0,
			"-0.022": 0.0,
			"-0.021": 0.0,
			"-0.02": 0.0,
			"-0.019": 0.0,
			"-0.018": 0.394785844537,
			"-0.017": 0.80840202048,
			"-0.016": 0.897032500773,
			"-0.015": 0.453550277041,
			"-0.014": 0.921671367619,
			"-0.013": 0.641291995844,
			"-0.012": 0.827213859122,
			"-0.011": 0.636891147034,
			"-0.01": 0.864254016847,
			"-0.009": 0.476664425925,
			"-0.008": 0.530296089298,
			"-0.007": 3.34400418351,
			"-0.006": 11.93664368,
			"-0.005": 18.1342927987,
			"-0.004": 23.3463138432,
			"-0.003": 28.0239817169,
			"-0.002": 21.2737436066,
			"-0.001": 18.6214535158,
			"0.0": 15.4082101206,
			"0.001": 14.7238165739,
			"0.002": 20.3354929487,
			"0.003": 11.085540144,
			"0.004": 6.97787325287,
			"0.005": 6.42787587658,
			"0.006": 4.74241148673,
			"0.007": 5.1834490303,
			"0.008": 3.9673849351,
			"0.009": 5.05415501387,
			"0.01": 4.81888552576,
			"0.011": 6.24880159987,
			"0.012": 6.9309288705,
			"0.013": 2.22321255194,
			"0.014": 0.265764609108,
			"0.015": 0.0,
			"0.016": 0.0,
			"0.017": 0.0,
			"0.018": 0.0,
			"0.019": 0.0,
			"0.02": 0.0,
			"0.021": 0.0,
			"0.022": 0.0,
			"0.023": 0.0,
			"0.024": 0.0,
			"0.025": 0.0
		}
	}
}
