{
	 "smiles": "COC(=O)C1=COC(OC2OC(CO)C(O)C(O)C2O)C(=C/C)C1CC(=O)OCCC1=CC(O)=C(O)C=C1", 
	 "Tm": 361.15, 
	 "num_atms": 70, 
	 "gaussian": { 
		 "optdone": 1, 
		 "sigma_profile": "yes", 
		 "theory": "DFT", 
		 "functional": "B3LYP", 
		 "basiset": "6-31G**", 
		 "properties": { 
			 "R2extent": 23376.7927, 
			 "electric_dipole_moment_norm": 4.87330321445, 
			 "electric_quadrupole_moment_norm": 35.4834224374, 
			 "total_energy": -1949.7852221, 
			 "HOMO_LUMO_gap": 0.174, 
			 "cosmo_polarized_energy": -41.43, 
			 "cosmo_cavitation_energy": 69.83, 
			 "cosmo_dispersion_energy": -43.89, 
			 "cosmo_repulsion_energy": 3.27, 
			 "cosmo_total_nonelectrostatic_energy": 29.22, 
			 "SMD_solvation_energy": 13.43 
		},
		"coords": [
			{
				"x": -2.5751572647,
				"y": -3.0185150199,
				"z": 3.9695370795,
				"element": "C" 
			},
			{
				"x": -2.3599960481,
				"y": -2.6343093383,
				"z": 2.6007047518,
				"element": "O" 
			},
			{
				"x": -2.2320068671,
				"y": -1.3003462595,
				"z": 2.3830416076,
				"element": "C" 
			},
			{
				"x": -2.3145208009,
				"y": -0.4750820457,
				"z": 3.2767867048,
				"element": "O" 
			},
			{
				"x": -2.0029239527,
				"y": -1.0024274446,
				"z": 0.9545136758,
				"element": "C" 
			},
			{
				"x": -2.0918970412,
				"y": 0.2909004522,
				"z": 0.592374864,
				"element": "C" 
			},
			{
				"x": -1.9178269503,
				"y": 0.7792221144,
				"z": -0.6573984728,
				"element": "O" 
			},
			{
				"x": -1.3797851567,
				"y": -0.1209471502,
				"z": -1.6567172809,
				"element": "C" 
			},
			{
				"x": 0.025237663,
				"y": -0.1856089013,
				"z": -1.5520128677,
				"element": "O" 
			},
			{
				"x": 0.7988353886,
				"y": 0.8614403623,
				"z": -2.0972418847,
				"element": "C" 
			},
			{
				"x": 0.3472279993,
				"y": 1.1434613706,
				"z": -3.4071882989,
				"element": "O" 
			},
			{
				"x": 1.2084969734,
				"y": 2.042654351,
				"z": -4.1075202365,
				"element": "C" 
			},
			{
				"x": 0.6636349683,
				"y": 2.2235238387,
				"z": -5.5133896278,
				"element": "C" 
			},
			{
				"x": 0.8828121696,
				"y": 1.0246526885,
				"z": -6.2378747165,
				"element": "O" 
			},
			{
				"x": 1.2946694742,
				"y": 3.3738505718,
				"z": -3.3400418335,
				"element": "C" 
			},
			{
				"x": 2.1824885134,
				"y": 4.3096327557,
				"z": -3.954308912,
				"element": "O" 
			},
			{
				"x": 1.6899412955,
				"y": 3.166172526,
				"z": -1.869330176,
				"element": "C" 
			},
			{
				"x": 1.6070484764,
				"y": 4.3873429926,
				"z": -1.166226571,
				"element": "O" 
			},
			{
				"x": 0.7812526658,
				"y": 2.1278218485,
				"z": -1.2222050815,
				"element": "C" 
			},
			{
				"x": 1.2559033388,
				"y": 1.8237775725,
				"z": 0.0742310392,
				"element": "O" 
			},
			{
				"x": -1.9037818101,
				"y": -1.5184767584,
				"z": -1.470656215,
				"element": "C" 
			},
			{
				"x": -2.4774909588,
				"y": -2.2140368299,
				"z": -2.460903325,
				"element": "C" 
			},
			{
				"x": -2.6552409986,
				"y": -1.8237824421,
				"z": -3.9007900343,
				"element": "C" 
			},
			{
				"x": -1.7514668928,
				"y": -2.0900604352,
				"z": -0.0682908384,
				"element": "C" 
			},
			{
				"x": -0.438056253,
				"y": -2.9120891522,
				"z": 0.1487502009,
				"element": "C" 
			},
			{
				"x": 0.9133191327,
				"y": -2.2291116453,
				"z": 0.2621021431,
				"element": "C" 
			},
			{
				"x": 1.8853137958,
				"y": -2.5396134239,
				"z": -0.3918123359,
				"element": "O" 
			},
			{
				"x": 0.948428097,
				"y": -1.3179030463,
				"z": 1.2701539739,
				"element": "O" 
			},
			{
				"x": 2.2579974387,
				"y": -0.8107888116,
				"z": 1.6401338768,
				"element": "C" 
			},
			{
				"x": 2.9313500442,
				"y": -1.7021431555,
				"z": 2.6773099149,
				"element": "C" 
			},
			{
				"x": 2.3022435615,
				"y": -1.7463289666,
				"z": 4.0610600599,
				"element": "C" 
			},
			{
				"x": 3.0002342748,
				"y": -2.4013810652,
				"z": 5.0912803723,
				"element": "C" 
			},
			{
				"x": 2.4779652339,
				"y": -2.4728488944,
				"z": 6.37570112,
				"element": "C" 
			},
			{
				"x": 3.0997068426,
				"y": -3.0948957453,
				"z": 7.43741618,
				"element": "O" 
			},
			{
				"x": 1.2358159501,
				"y": -1.886246298,
				"z": 6.676504605,
				"element": "C" 
			},
			{
				"x": 0.7254675697,
				"y": -1.9560697758,
				"z": 7.9400527796,
				"element": "O" 
			},
			{
				"x": 0.5392282949,
				"y": -1.2358004783,
				"z": 5.6644158824,
				"element": "C" 
			},
			{
				"x": 1.0667905661,
				"y": -1.1693515517,
				"z": 4.3690136869,
				"element": "C" 
			},
			{
				"x": -2.7403771257,
				"y": -4.0959594649,
				"z": 3.9482108337,
				"element": "H" 
			},
			{
				"x": -3.4463054676,
				"y": -2.503316519,
				"z": 4.3805124544,
				"element": "H" 
			},
			{
				"x": -1.6984746671,
				"y": -2.7777242705,
				"z": 4.5754081651,
				"element": "H" 
			},
			{
				"x": -2.3349111888,
				"y": 1.0689652126,
				"z": 1.3082019981,
				"element": "H" 
			},
			{
				"x": -1.6720255017,
				"y": 0.3366917922,
				"z": -2.5982551634,
				"element": "H" 
			},
			{
				"x": 1.8186747956,
				"y": 0.4493119554,
				"z": -2.1191693476,
				"element": "H" 
			},
			{
				"x": 2.2165192587,
				"y": 1.5969088225,
				"z": -4.1839352242,
				"element": "H" 
			},
			{
				"x": -0.4071436351,
				"y": 2.4709315684,
				"z": -5.4384575969,
				"element": "H" 
			},
			{
				"x": 1.1815447867,
				"y": 3.0818180932,
				"z": -5.9651164836,
				"element": "H" 
			},
			{
				"x": 0.5258682099,
				"y": 1.1423538691,
				"z": -7.1265021902,
				"element": "H" 
			},
			{
				"x": 0.3119890469,
				"y": 3.8588404837,
				"z": -3.3604698696,
				"element": "H" 
			},
			{
				"x": 3.0653057208,
				"y": 3.9111721435,
				"z": -3.9755475079,
				"element": "H" 
			},
			{
				"x": 2.7240288172,
				"y": 2.7686606339,
				"z": -1.8420062691,
				"element": "H" 
			},
			{
				"x": 2.0166509248,
				"y": 5.0520278931,
				"z": -1.7399599647,
				"element": "H" 
			},
			{
				"x": -0.2411245666,
				"y": 2.528049348,
				"z": -1.1934585196,
				"element": "H" 
			},
			{
				"x": 0.6914622372,
				"y": 1.1155209466,
				"z": 0.4172182895,
				"element": "H" 
			},
			{
				"x": -2.854051006,
				"y": -3.2069085074,
				"z": -2.2093967735,
				"element": "H" 
			},
			{
				"x": -2.1411695791,
				"y": -0.8992910096,
				"z": -4.1706204804,
				"element": "H" 
			},
			{
				"x": -2.2638562108,
				"y": -2.615336666,
				"z": -4.5507124561,
				"element": "H" 
			},
			{
				"x": -3.7191219863,
				"y": -1.7146102826,
				"z": -4.1477218593,
				"element": "H" 
			},
			{
				"x": -2.5423754851,
				"y": -2.8388293247,
				"z": 0.0555804825,
				"element": "H" 
			},
			{
				"x": -0.5701807773,
				"y": -3.4683557081,
				"z": 1.0834619117,
				"element": "H" 
			},
			{
				"x": -0.3460179206,
				"y": -3.6332701875,
				"z": -0.6657694488,
				"element": "H" 
			},
			{
				"x": 2.872642598,
				"y": -0.7430261786,
				"z": 0.742158916,
				"element": "H" 
			},
			{
				"x": 2.0793238365,
				"y": 0.193103929,
				"z": 2.029090444,
				"element": "H" 
			},
			{
				"x": 3.0034467531,
				"y": -2.7150273377,
				"z": 2.2597239842,
				"element": "H" 
			},
			{
				"x": 3.9685449747,
				"y": -1.3503326791,
				"z": 2.7688375146,
				"element": "H" 
			},
			{
				"x": 3.9668296354,
				"y": -2.8601590965,
				"z": 4.8846767511,
				"element": "H" 
			},
			{
				"x": 3.9493226553,
				"y": -3.4525576794,
				"z": 7.1526927577,
				"element": "H" 
			},
			{
				"x": 1.3677731536,
				"y": -2.4349723788,
				"z": 8.4845371932,
				"element": "H" 
			},
			{
				"x": -0.4183999957,
				"y": -0.7790244378,
				"z": 5.8919504363,
				"element": "H" 
			},
			{
				"x": 0.4856489758,
				"y": -0.6654437725,
				"z": 3.606861213,
				"element": "H" 
			}
		],
		 "valence_orbital": [ 
			{
				"type": "occ",
				"energy": -0.25402,
				"method": "rhf"
			},
			{
				"type": "occ",
				"energy": -0.25127,
				"method": "rhf"
			},
			{
				"type": "occ",
				"energy": -0.23261,
				"method": "rhf"
			},
			{
				"type": "occ",
				"energy": -0.22948,
				"method": "rhf"
			},
			{
				"type": "occ",
				"energy": -0.19879,
				"method": "rhf"
			},
			{
				"type": "unocc",
				"energy": -0.02479,
				"method": "rhf"
			},
			{
				"type": "unocc",
				"energy": -0.00115,
				"method": "rhf"
			},
			{
				"type": "unocc",
				"energy": 0.0088,
				"method": "rhf"
			},
			{
				"type": "unocc",
				"energy": 0.01873,
				"method": "rhf"
			},
			{
				"type": "unocc",
				"energy": 0.02687,
				"method": "rhf"
			}
		],
		"cosmo_sigma_profile": { 
			"-0.025": 0.0,
			"-0.024": 0.0,
			"-0.023": 0.0,
			"-0.022": 0.0,
			"-0.021": 0.0,
			"-0.02": 0.0,
			"-0.019": 0.0159426186381,
			"-0.018": 0.766654579904,
			"-0.017": 1.2139680696,
			"-0.016": 2.66828968074,
			"-0.015": 3.83785646952,
			"-0.014": 3.9949233267,
			"-0.013": 4.34794604925,
			"-0.012": 3.51826574757,
			"-0.011": 4.07833807724,
			"-0.01": 3.45403816637,
			"-0.009": 6.0239729499,
			"-0.008": 8.58732616438,
			"-0.007": 11.4760692592,
			"-0.006": 19.7298599045,
			"-0.005": 36.7885979856,
			"-0.004": 45.5077464984,
			"-0.003": 45.969624895,
			"-0.002": 42.9820143509,
			"-0.001": 38.7413067175,
			"0.0": 34.5414471889,
			"0.001": 30.0058324013,
			"0.002": 27.2155729121,
			"0.003": 25.6904946926,
			"0.004": 23.5857661312,
			"0.005": 22.9117903439,
			"0.006": 18.5434064857,
			"0.007": 11.4876756892,
			"0.008": 9.68413102282,
			"0.009": 8.88094589225,
			"0.01": 9.4121949226,
			"0.011": 11.0478790217,
			"0.012": 14.1459863158,
			"0.013": 8.19613787489,
			"0.014": 5.62983010802,
			"0.015": 1.71719512705,
			"0.016": 0.0,
			"0.017": 0.0,
			"0.018": 0.0,
			"0.019": 0.0,
			"0.02": 0.0,
			"0.021": 0.0,
			"0.022": 0.0,
			"0.023": 0.0,
			"0.024": 0.0,
			"0.025": 0.0
		}
	}
}
