{
	 "smiles": "[O-][N+](=O)C1=CN=C2C=CC=CN12", 
	 "Tm": 478.15, 
	 "num_atms": 17, 
	 "gaussian": { 
		 "optdone": 1, 
		 "sigma_profile": "yes", 
		 "theory": "DFT", 
		 "functional": "B3LYP", 
		 "basiset": "6-31G**", 
		 "properties": { 
			 "R2extent": 2129.5791, 
			 "electric_dipole_moment_norm": 5.01328661259, 
			 "electric_quadrupole_moment_norm": 10.0250191696, 
			 "total_energy": -584.347450847, 
			 "HOMO_LUMO_gap": 0.15675, 
			 "cosmo_polarized_energy": -11.67, 
			 "cosmo_cavitation_energy": 22.14, 
			 "cosmo_dispersion_energy": -16.72, 
			 "cosmo_repulsion_energy": 1.29, 
			 "cosmo_total_nonelectrostatic_energy": 6.72, 
			 "SMD_solvation_energy": 4.67 
		},
		"coords": [
			{
				"x": 0.7655079433,
				"y": 2.7305102533,
				"z": -0.7038429222,
				"element": "O" 
			},
			{
				"x": 0.4806736861,
				"y": 1.8980241393,
				"z": 0.1627447783,
				"element": "N" 
			},
			{
				"x": 1.0126610532,
				"y": 1.8337973504,
				"z": 1.2848724685,
				"element": "O" 
			},
			{
				"x": -0.5209292876,
				"y": 0.9606027348,
				"z": -0.1597842633,
				"element": "C" 
			},
			{
				"x": -1.2485295509,
				"y": 0.8367283309,
				"z": -1.3418661578,
				"element": "C" 
			},
			{
				"x": -2.117775216,
				"y": -0.1829076927,
				"z": -1.2791038033,
				"element": "N" 
			},
			{
				"x": -1.9560688302,
				"y": -0.7219103405,
				"z": -0.056383534,
				"element": "C" 
			},
			{
				"x": -2.6159133528,
				"y": -1.8155493843,
				"z": 0.5340621564,
				"element": "C" 
			},
			{
				"x": -2.2807989946,
				"y": -2.1932406672,
				"z": 1.8152217581,
				"element": "C" 
			},
			{
				"x": -1.2812269222,
				"y": -1.4858457189,
				"z": 2.5296085626,
				"element": "C" 
			},
			{
				"x": -0.6334687477,
				"y": -0.4199926172,
				"z": 1.9627216102,
				"element": "C" 
			},
			{
				"x": -0.9721762894,
				"y": -0.0483341107,
				"z": 0.6839924184,
				"element": "N" 
			},
			{
				"x": -1.1447734915,
				"y": 1.4686253377,
				"z": -2.2125981912,
				"element": "H" 
			},
			{
				"x": -3.3727904906,
				"y": -2.3259117702,
				"z": -0.0493859599,
				"element": "H" 
			},
			{
				"x": -2.7809792424,
				"y": -3.0344757748,
				"z": 2.283309533,
				"element": "H" 
			},
			{
				"x": -1.0124417916,
				"y": -1.7773407925,
				"z": 3.5381808181,
				"element": "H" 
			},
			{
				"x": 0.1362295246,
				"y": 0.1697207224,
				"z": 2.4365507281,
				"element": "H" 
			}
		],
		 "valence_orbital": [ 
			{
				"type": "occ",
				"energy": -0.30646,
				"method": "rhf"
			},
			{
				"type": "occ",
				"energy": -0.2981,
				"method": "rhf"
			},
			{
				"type": "occ",
				"energy": -0.28862,
				"method": "rhf"
			},
			{
				"type": "occ",
				"energy": -0.27712,
				"method": "rhf"
			},
			{
				"type": "occ",
				"energy": -0.24438,
				"method": "rhf"
			},
			{
				"type": "unocc",
				"energy": -0.08763,
				"method": "rhf"
			},
			{
				"type": "unocc",
				"energy": -0.05739,
				"method": "rhf"
			},
			{
				"type": "unocc",
				"energy": -0.0099,
				"method": "rhf"
			},
			{
				"type": "unocc",
				"energy": 0.06265,
				"method": "rhf"
			},
			{
				"type": "unocc",
				"energy": 0.07454,
				"method": "rhf"
			}
		],
		"cosmo_sigma_profile": { 
			"-0.025": 0.0,
			"-0.024": 0.0,
			"-0.023": 0.0,
			"-0.022": 0.0,
			"-0.021": 0.0,
			"-0.02": 0.0,
			"-0.019": 0.0,
			"-0.018": 0.0,
			"-0.017": 0.0,
			"-0.016": 0.0,
			"-0.015": 0.0,
			"-0.014": 0.0,
			"-0.013": 0.0,
			"-0.012": 0.0,
			"-0.011": 0.0,
			"-0.01": 0.18785699986,
			"-0.009": 2.20341728242,
			"-0.008": 9.39485171441,
			"-0.007": 9.93916752921,
			"-0.006": 9.75354502848,
			"-0.005": 10.2723548773,
			"-0.004": 13.8568463004,
			"-0.003": 13.2255047582,
			"-0.002": 13.9208604078,
			"-0.001": 12.9098157804,
			"0.0": 14.0138228438,
			"0.001": 14.9895036912,
			"0.002": 5.614909157,
			"0.003": 3.8649116888,
			"0.004": 3.59726867179,
			"0.005": 3.83763755404,
			"0.006": 4.1972522746,
			"0.007": 5.44487881404,
			"0.008": 8.96966740367,
			"0.009": 7.00519300083,
			"0.01": 4.90657747142,
			"0.011": 3.31435867128,
			"0.012": 0.809544413651,
			"0.013": 0.733390723476,
			"0.014": 1.30098330689,
			"0.015": 0.680762892667,
			"0.016": 0.498203327397,
			"0.017": 0.0,
			"0.018": 0.0,
			"0.019": 0.0,
			"0.02": 0.0,
			"0.021": 0.0,
			"0.022": 0.0,
			"0.023": 0.0,
			"0.024": 0.0,
			"0.025": 0.0
		}
	}
}
