{
	 "smiles": "CN(C)C(=S)NN", 
	 "Tm": 424.15, 
	 "num_atms": 16, 
	 "gaussian": { 
		 "optdone": 1, 
		 "sigma_profile": "yes", 
		 "theory": "DFT", 
		 "functional": "B3LYP", 
		 "basiset": "6-31G**", 
		 "properties": { 
			 "R2extent": 1540.6345, 
			 "electric_dipole_moment_norm": 4.60439113564, 
			 "electric_quadrupole_moment_norm": 7.64734710798, 
			 "total_energy": -682.15742725, 
			 "HOMO_LUMO_gap": 0.20518, 
			 "cosmo_polarized_energy": -14.46, 
			 "cosmo_cavitation_energy": 20.17, 
			 "cosmo_dispersion_energy": -15.61, 
			 "cosmo_repulsion_energy": 1.27, 
			 "cosmo_total_nonelectrostatic_energy": 5.84, 
			 "SMD_solvation_energy": 3.28 
		},
		"coords": [
			{
				"x": 0.6598159553,
				"y": -0.017686096,
				"z": -1.1372526864,
				"element": "C" 
			},
			{
				"x": 0.2676314211,
				"y": 0.0089704069,
				"z": 0.2673803924,
				"element": "N" 
			},
			{
				"x": -0.7390151138,
				"y": 0.9990419824,
				"z": 0.6324625319,
				"element": "C" 
			},
			{
				"x": 0.7897074251,
				"y": -0.8645842353,
				"z": 1.1774630673,
				"element": "C" 
			},
			{
				"x": 0.5139419256,
				"y": -0.8001341704,
				"z": 2.8438273767,
				"element": "S" 
			},
			{
				"x": 1.610188194,
				"y": -1.8289120606,
				"z": 0.6357038783,
				"element": "N" 
			},
			{
				"x": 2.1629176674,
				"y": -2.8756871711,
				"z": 1.4008575665,
				"element": "N" 
			},
			{
				"x": 0.1407787695,
				"y": -0.8027213255,
				"z": -1.7077740781,
				"element": "H" 
			},
			{
				"x": 0.4055566643,
				"y": 0.9427051753,
				"z": -1.5895279885,
				"element": "H" 
			},
			{
				"x": 1.7397860068,
				"y": -0.1620585668,
				"z": -1.2355419377,
				"element": "H" 
			},
			{
				"x": -1.6450651649,
				"y": 0.8549630882,
				"z": 0.0313472609,
				"element": "H" 
			},
			{
				"x": -0.3578998833,
				"y": 2.0121394204,
				"z": 0.4566257006,
				"element": "H" 
			},
			{
				"x": -0.9794200802,
				"y": 0.8859891031,
				"z": 1.6876480805,
				"element": "H" 
			},
			{
				"x": 1.460026251,
				"y": -2.1048368282,
				"z": -0.3238074185,
				"element": "H" 
			},
			{
				"x": 1.4797460408,
				"y": -3.1099643286,
				"z": 2.1259596201,
				"element": "H" 
			},
			{
				"x": 2.9554039213,
				"y": -2.4856243938,
				"z": 1.9102286339,
				"element": "H" 
			}
		],
		 "valence_orbital": [ 
			{
				"type": "occ",
				"energy": -0.35461,
				"method": "rhf"
			},
			{
				"type": "occ",
				"energy": -0.27974,
				"method": "rhf"
			},
			{
				"type": "occ",
				"energy": -0.25317,
				"method": "rhf"
			},
			{
				"type": "occ",
				"energy": -0.21261,
				"method": "rhf"
			},
			{
				"type": "occ",
				"energy": -0.20328,
				"method": "rhf"
			},
			{
				"type": "unocc",
				"energy": 0.0019,
				"method": "rhf"
			},
			{
				"type": "unocc",
				"energy": 0.06655,
				"method": "rhf"
			},
			{
				"type": "unocc",
				"energy": 0.0936,
				"method": "rhf"
			},
			{
				"type": "unocc",
				"energy": 0.0985,
				"method": "rhf"
			},
			{
				"type": "unocc",
				"energy": 0.11478,
				"method": "rhf"
			}
		],
		"cosmo_sigma_profile": { 
			"-0.025": 0.0,
			"-0.024": 0.0,
			"-0.023": 0.0,
			"-0.022": 0.0,
			"-0.021": 0.0,
			"-0.02": 0.0,
			"-0.019": 0.0,
			"-0.018": 0.0,
			"-0.017": 0.0,
			"-0.016": 0.0,
			"-0.015": 0.00117510330652,
			"-0.014": 0.585580105962,
			"-0.013": 1.22745385795,
			"-0.012": 1.04893196932,
			"-0.011": 2.42521575291,
			"-0.01": 2.84501483161,
			"-0.009": 2.03048395497,
			"-0.008": 2.82928816739,
			"-0.007": 4.90677456615,
			"-0.006": 9.53273191314,
			"-0.005": 14.241418482,
			"-0.004": 14.6519914247,
			"-0.003": 16.5988495695,
			"-0.002": 12.5064746166,
			"-0.001": 6.7825139867,
			"0.0": 4.96179804131,
			"0.001": 5.48287718187,
			"0.002": 5.78980328912,
			"0.003": 5.05101189689,
			"0.004": 4.55097750943,
			"0.005": 3.70748337275,
			"0.006": 5.20198773171,
			"0.007": 4.36605159515,
			"0.008": 4.97332948792,
			"0.009": 5.06291666113,
			"0.01": 6.91249664628,
			"0.011": 6.01354748807,
			"0.012": 3.6754215072,
			"0.013": 0.797493857321,
			"0.014": 0.565903261665,
			"0.015": 0.62038429294,
			"0.016": 0.48542242435,
			"0.017": 0.16355403965,
			"0.018": 0.0,
			"0.019": 0.0,
			"0.02": 0.0,
			"0.021": 0.0,
			"0.022": 0.0,
			"0.023": 0.0,
			"0.024": 0.0,
			"0.025": 0.0
		}
	}
}
