{
	 "smiles": "O=C(NC1=CC=CC=C1)C1=CC(=CC=C1)S(=O)(=O)NC1=CC=CC=C1", 
	 "Tm": 487.15, 
	 "num_atms": 41, 
	 "gaussian": { 
		 "optdone": 1, 
		 "sigma_profile": "yes", 
		 "theory": "DFT", 
		 "functional": "B3LYP", 
		 "basiset": "6-31G**", 
		 "properties": { 
			 "R2extent": 9004.1481, 
			 "electric_dipole_moment_norm": 4.94830018693, 
			 "electric_quadrupole_moment_norm": 24.3704488143, 
			 "total_energy": -1466.96836367, 
			 "HOMO_LUMO_gap": 0.17109, 
			 "cosmo_polarized_energy": -21.95, 
			 "cosmo_cavitation_energy": 47.32, 
			 "cosmo_dispersion_energy": -30.99, 
			 "cosmo_repulsion_energy": 2.33, 
			 "cosmo_total_nonelectrostatic_energy": 18.66, 
			 "SMD_solvation_energy": 7.66 
		},
		"coords": [
			{
				"x": -0.80953687,
				"y": 4.6880099217,
				"z": -2.2374584037,
				"element": "O" 
			},
			{
				"x": -0.7616300983,
				"y": 3.722643186,
				"z": -1.4835696843,
				"element": "C" 
			},
			{
				"x": -1.2320436262,
				"y": 3.8332210634,
				"z": -0.1890022809,
				"element": "N" 
			},
			{
				"x": -1.6788828564,
				"y": 2.8465236284,
				"z": 0.7298969378,
				"element": "C" 
			},
			{
				"x": -2.3496333476,
				"y": 1.6891391604,
				"z": 0.311219745,
				"element": "C" 
			},
			{
				"x": -2.7845246034,
				"y": 0.7585076669,
				"z": 1.2540814287,
				"element": "C" 
			},
			{
				"x": -2.5897513263,
				"y": 0.9851107254,
				"z": 2.6180136772,
				"element": "C" 
			},
			{
				"x": -1.945671388,
				"y": 2.1512236563,
				"z": 3.0361214296,
				"element": "C" 
			},
			{
				"x": -1.4825860663,
				"y": 3.0738230188,
				"z": 2.0990205159,
				"element": "C" 
			},
			{
				"x": -0.1230023051,
				"y": 2.4377728917,
				"z": -1.9346046563,
				"element": "C" 
			},
			{
				"x": 0.5849955641,
				"y": 1.5910777134,
				"z": -1.0762558931,
				"element": "C" 
			},
			{
				"x": 1.2189721548,
				"y": 0.465633513,
				"z": -1.6038302377,
				"element": "C" 
			},
			{
				"x": 1.1795326696,
				"y": 0.1709636389,
				"z": -2.9665632053,
				"element": "C" 
			},
			{
				"x": 0.4832212742,
				"y": 1.0300372628,
				"z": -3.8203532078,
				"element": "C" 
			},
			{
				"x": -0.1539329387,
				"y": 2.1577257438,
				"z": -3.3097903654,
				"element": "C" 
			},
			{
				"x": 2.1523933446,
				"y": -0.6020988978,
				"z": -0.5032647416,
				"element": "S" 
			},
			{
				"x": 2.9232550457,
				"y": 0.242568324,
				"z": 0.4136065286,
				"element": "O" 
			},
			{
				"x": 2.7787391088,
				"y": -1.6377352779,
				"z": -1.3247657015,
				"element": "O" 
			},
			{
				"x": 0.9530930461,
				"y": -1.2752420341,
				"z": 0.5036214311,
				"element": "N" 
			},
			{
				"x": 0.3595320858,
				"y": -2.5466260837,
				"z": 0.2868931723,
				"element": "C" 
			},
			{
				"x": -0.1692637776,
				"y": -2.9004654923,
				"z": -0.9609560631,
				"element": "C" 
			},
			{
				"x": -0.7872301048,
				"y": -4.1386994869,
				"z": -1.1252770303,
				"element": "C" 
			},
			{
				"x": -0.9081865543,
				"y": -5.0248369195,
				"z": -0.0530660719,
				"element": "C" 
			},
			{
				"x": -0.393062364,
				"y": -4.6639896041,
				"z": 1.1926783246,
				"element": "C" 
			},
			{
				"x": 0.2477255249,
				"y": -3.4377217252,
				"z": 1.3623375318,
				"element": "C" 
			},
			{
				"x": -1.4821025205,
				"y": 4.7917030053,
				"z": 0.0254338182,
				"element": "H" 
			},
			{
				"x": -2.5336695324,
				"y": 1.5235796323,
				"z": -0.7445243947,
				"element": "H" 
			},
			{
				"x": -3.2942378107,
				"y": -0.1396712548,
				"z": 0.9184959409,
				"element": "H" 
			},
			{
				"x": -2.9421876125,
				"y": 0.2626791723,
				"z": 3.3477555146,
				"element": "H" 
			},
			{
				"x": -1.7915196691,
				"y": 2.3410918099,
				"z": 4.0942989829,
				"element": "H" 
			},
			{
				"x": -0.9603690287,
				"y": 3.9707364102,
				"z": 2.4201173535,
				"element": "H" 
			},
			{
				"x": 0.6599711396,
				"y": 1.805070209,
				"z": -0.0171031294,
				"element": "H" 
			},
			{
				"x": 1.6987009456,
				"y": -0.7048935455,
				"z": -3.3398854733,
				"element": "H" 
			},
			{
				"x": 0.4513260811,
				"y": 0.8229184817,
				"z": -4.8854399073,
				"element": "H" 
			},
			{
				"x": -0.673352883,
				"y": 2.8504877239,
				"z": -3.9629982264,
				"element": "H" 
			},
			{
				"x": 1.2257210595,
				"y": -1.0865184066,
				"z": 1.4633313046,
				"element": "H" 
			},
			{
				"x": -0.1035874894,
				"y": -2.2112474131,
				"z": -1.794903914,
				"element": "H" 
			},
			{
				"x": -1.1865145224,
				"y": -4.4062543143,
				"z": -2.0993135337,
				"element": "H" 
			},
			{
				"x": -1.3973623446,
				"y": -5.9845561026,
				"z": -0.187202181,
				"element": "H" 
			},
			{
				"x": -0.4765364382,
				"y": -5.3424904937,
				"z": 2.0366822281,
				"element": "H" 
			},
			{
				"x": 0.6647990343,
				"y": -3.1687005074,
				"z": 2.3296224374,
				"element": "H" 
			}
		],
		 "valence_orbital": [ 
			{
				"type": "occ",
				"energy": -0.26453,
				"method": "rhf"
			},
			{
				"type": "occ",
				"energy": -0.26159,
				"method": "rhf"
			},
			{
				"type": "occ",
				"energy": -0.25837,
				"method": "rhf"
			},
			{
				"type": "occ",
				"energy": -0.23724,
				"method": "rhf"
			},
			{
				"type": "occ",
				"energy": -0.22979,
				"method": "rhf"
			},
			{
				"type": "unocc",
				"energy": -0.0587,
				"method": "rhf"
			},
			{
				"type": "unocc",
				"energy": -0.04416,
				"method": "rhf"
			},
			{
				"type": "unocc",
				"energy": -0.01547,
				"method": "rhf"
			},
			{
				"type": "unocc",
				"energy": -0.01528,
				"method": "rhf"
			},
			{
				"type": "unocc",
				"energy": -0.00945,
				"method": "rhf"
			}
		],
		"cosmo_sigma_profile": { 
			"-0.025": 0.0,
			"-0.024": 0.0,
			"-0.023": 0.0,
			"-0.022": 0.0,
			"-0.021": 0.0,
			"-0.02": 0.0,
			"-0.019": 0.0,
			"-0.018": 0.0,
			"-0.017": 0.0,
			"-0.016": 0.0550673625124,
			"-0.015": 0.825049820138,
			"-0.014": 2.3617970343,
			"-0.013": 1.6798145553,
			"-0.012": 1.8224356293,
			"-0.011": 2.54929966768,
			"-0.01": 1.53537975296,
			"-0.009": 3.17149859771,
			"-0.008": 3.78092567192,
			"-0.007": 10.1897729868,
			"-0.006": 23.8626046517,
			"-0.005": 30.5351175762,
			"-0.004": 30.0189262596,
			"-0.003": 26.9753706334,
			"-0.002": 24.4524621299,
			"-0.001": 21.99976234,
			"0.0": 25.4528329558,
			"0.001": 25.2240648689,
			"0.002": 24.4749992828,
			"0.003": 20.3103557869,
			"0.004": 21.983381447,
			"0.005": 23.0981117796,
			"0.006": 9.49457504629,
			"0.007": 5.0066663289,
			"0.008": 4.25457921968,
			"0.009": 6.56597884468,
			"0.01": 11.6601216072,
			"0.011": 7.65469843621,
			"0.012": 3.97422543761,
			"0.013": 4.25595023691,
			"0.014": 0.435004565311,
			"0.015": 0.0,
			"0.016": 0.0,
			"0.017": 0.0,
			"0.018": 0.0,
			"0.019": 0.0,
			"0.02": 0.0,
			"0.021": 0.0,
			"0.022": 0.0,
			"0.023": 0.0,
			"0.024": 0.0,
			"0.025": 0.0
		}
	}
}
