{
	 "smiles": "FC1=CC=C(C=C1)C(=O)CCSC1=NC=CC=C1", 
	 "Tm": 334.15, 
	 "num_atms": 30, 
	 "gaussian": { 
		 "optdone": 1, 
		 "sigma_profile": "yes", 
		 "theory": "DFT", 
		 "functional": "B3LYP", 
		 "basiset": "6-31G**", 
		 "properties": { 
			 "R2extent": 7663.6215, 
			 "electric_dipole_moment_norm": 3.24166354361, 
			 "electric_quadrupole_moment_norm": 13.4199904057, 
			 "total_energy": -1168.72131934, 
			 "HOMO_LUMO_gap": 0.16023, 
			 "cosmo_polarized_energy": -11.92, 
			 "cosmo_cavitation_energy": 36.75, 
			 "cosmo_dispersion_energy": -26.49, 
			 "cosmo_repulsion_energy": 1.98, 
			 "cosmo_total_nonelectrostatic_energy": 12.24, 
			 "SMD_solvation_energy": 6.13 
		},
		"coords": [
			{
				"x": 2.3693721904,
				"y": 0.3466745367,
				"z": -5.2048224265,
				"element": "F" 
			},
			{
				"x": 2.1587265019,
				"y": 0.0905332326,
				"z": -3.900342538,
				"element": "C" 
			},
			{
				"x": 3.2558535741,
				"y": -0.1401611463,
				"z": -3.0734400661,
				"element": "C" 
			},
			{
				"x": 3.0280710228,
				"y": -0.4045156787,
				"z": -1.7285306612,
				"element": "C" 
			},
			{
				"x": 1.7227715417,
				"y": -0.4363004305,
				"z": -1.2084607596,
				"element": "C" 
			},
			{
				"x": 0.6411776618,
				"y": -0.1984560234,
				"z": -2.0715683952,
				"element": "C" 
			},
			{
				"x": 0.852326841,
				"y": 0.0651082882,
				"z": -3.4233580673,
				"element": "C" 
			},
			{
				"x": 1.5562688472,
				"y": -0.7338448558,
				"z": 0.2495132466,
				"element": "C" 
			},
			{
				"x": 2.5312370119,
				"y": -0.9660087899,
				"z": 0.95040684,
				"element": "O" 
			},
			{
				"x": 0.1480585814,
				"y": -0.7761339664,
				"z": 0.836761595,
				"element": "C" 
			},
			{
				"x": 0.1355201325,
				"y": -0.9014238656,
				"z": 2.357526052,
				"element": "C" 
			},
			{
				"x": 0.6486096688,
				"y": 0.6256998035,
				"z": 3.2347698668,
				"element": "S" 
			},
			{
				"x": -0.8697462861,
				"y": 1.5633242728,
				"z": 3.2460908991,
				"element": "C" 
			},
			{
				"x": -1.9505072969,
				"y": 1.0758248996,
				"z": 2.631766202,
				"element": "N" 
			},
			{
				"x": -3.0758685599,
				"y": 1.8072372325,
				"z": 2.6652395593,
				"element": "C" 
			},
			{
				"x": -3.1767662976,
				"y": 3.0416467558,
				"z": 3.2967136988,
				"element": "C" 
			},
			{
				"x": -2.0363272345,
				"y": 3.545693198,
				"z": 3.9330587158,
				"element": "C" 
			},
			{
				"x": -0.8642558337,
				"y": 2.8037105406,
				"z": 3.9123470421,
				"element": "C" 
			},
			{
				"x": 4.2564545528,
				"y": -0.1096370574,
				"z": -3.4908888907,
				"element": "H" 
			},
			{
				"x": 3.8525910772,
				"y": -0.5916611634,
				"z": -1.049153956,
				"element": "H" 
			},
			{
				"x": -0.3766092843,
				"y": -0.2181586005,
				"z": -1.6972158101,
				"element": "H" 
			},
			{
				"x": 0.029628362,
				"y": 0.2504978529,
				"z": -4.1050912849,
				"element": "H" 
			},
			{
				"x": -0.3655480181,
				"y": -1.6461421754,
				"z": 0.3993245506,
				"element": "H" 
			},
			{
				"x": -0.4311562044,
				"y": 0.0990218417,
				"z": 0.5277072497,
				"element": "H" 
			},
			{
				"x": -0.8641221676,
				"y": -1.1569462352,
				"z": 2.709786994,
				"element": "H" 
			},
			{
				"x": 0.8505943451,
				"y": -1.6574745723,
				"z": 2.6862411533,
				"element": "H" 
			},
			{
				"x": -3.9350030783,
				"y": 1.3743460509,
				"z": 2.1556424211,
				"element": "H" 
			},
			{
				"x": -4.112463347,
				"y": 3.5904382147,
				"z": 3.2905021703,
				"element": "H" 
			},
			{
				"x": -2.0646596327,
				"y": 4.505625568,
				"z": 4.4409336702,
				"element": "H" 
			},
			{
				"x": 0.0379713285,
				"y": 3.1608822723,
				"z": 4.3986409288,
				"element": "H" 
			}
		],
		 "valence_orbital": [ 
			{
				"type": "occ",
				"energy": -0.27119,
				"method": "rhf"
			},
			{
				"type": "occ",
				"energy": -0.26399,
				"method": "rhf"
			},
			{
				"type": "occ",
				"energy": -0.25462,
				"method": "rhf"
			},
			{
				"type": "occ",
				"energy": -0.25166,
				"method": "rhf"
			},
			{
				"type": "occ",
				"energy": -0.21575,
				"method": "rhf"
			},
			{
				"type": "unocc",
				"energy": -0.05552,
				"method": "rhf"
			},
			{
				"type": "unocc",
				"energy": -0.02648,
				"method": "rhf"
			},
			{
				"type": "unocc",
				"energy": -0.01987,
				"method": "rhf"
			},
			{
				"type": "unocc",
				"energy": -0.0125,
				"method": "rhf"
			},
			{
				"type": "unocc",
				"energy": 0.03931,
				"method": "rhf"
			}
		],
		"cosmo_sigma_profile": { 
			"-0.025": 0.0,
			"-0.024": 0.0,
			"-0.023": 0.0,
			"-0.022": 0.0,
			"-0.021": 0.0,
			"-0.02": 0.0,
			"-0.019": 0.0,
			"-0.018": 0.0,
			"-0.017": 0.0,
			"-0.016": 0.0,
			"-0.015": 0.0,
			"-0.014": 0.0,
			"-0.013": 0.0,
			"-0.012": 0.0,
			"-0.011": 0.0,
			"-0.01": 0.0,
			"-0.009": 0.0,
			"-0.008": 2.90230546216,
			"-0.007": 14.3476836435,
			"-0.006": 20.7595681817,
			"-0.005": 23.194492917,
			"-0.004": 18.4435240308,
			"-0.003": 18.1900621512,
			"-0.002": 15.7521973806,
			"-0.001": 17.1797366959,
			"0.0": 22.8062359358,
			"0.001": 23.4876839375,
			"0.002": 33.0371582089,
			"0.003": 30.8193042279,
			"0.004": 17.3141023855,
			"0.005": 8.90500305792,
			"0.006": 6.29372740739,
			"0.007": 5.07485482749,
			"0.008": 6.14486792256,
			"0.009": 3.50630647134,
			"0.01": 2.85735642194,
			"0.011": 3.13306008075,
			"0.012": 2.35242886118,
			"0.013": 0.0,
			"0.014": 0.0,
			"0.015": 0.0,
			"0.016": 0.0,
			"0.017": 0.0,
			"0.018": 0.0,
			"0.019": 0.0,
			"0.02": 0.0,
			"0.021": 0.0,
			"0.022": 0.0,
			"0.023": 0.0,
			"0.024": 0.0,
			"0.025": 0.0
		}
	}
}
