{
	 "smiles": "COC1=C(OC)C=C(C=C1)C1=NOC(CCl)=N1", 
	 "Tm": 375.15, 
	 "num_atms": 28, 
	 "gaussian": { 
		 "optdone": 1, 
		 "sigma_profile": "yes", 
		 "theory": "DFT", 
		 "functional": "B3LYP", 
		 "basiset": "6-31G**", 
		 "properties": { 
			 "R2extent": 7816.8547, 
			 "electric_dipole_moment_norm": 1.25439579878, 
			 "electric_quadrupole_moment_norm": 18.160993426, 
			 "total_energy": -1221.09978615, 
			 "HOMO_LUMO_gap": 0.162, 
			 "cosmo_polarized_energy": -11.96, 
			 "cosmo_cavitation_energy": 34.96, 
			 "cosmo_dispersion_energy": -25.46, 
			 "cosmo_repulsion_energy": 2.0, 
			 "cosmo_total_nonelectrostatic_energy": 11.5, 
			 "SMD_solvation_energy": 5.68 
		},
		"coords": [
			{
				"x": 2.1712643766,
				"y": 3.4621215964,
				"z": 0.5585358212,
				"element": "C" 
			},
			{
				"x": 1.3883487879,
				"y": 3.2225771503,
				"z": -0.6159502721,
				"element": "O" 
			},
			{
				"x": 0.592706468,
				"y": 2.109464227,
				"z": -0.6122307358,
				"element": "C" 
			},
			{
				"x": 1.1313954429,
				"y": 0.7980580687,
				"z": -0.5670972863,
				"element": "C" 
			},
			{
				"x": 2.4905303184,
				"y": 0.7095768755,
				"z": -0.4877250704,
				"element": "O" 
			},
			{
				"x": 3.0786758348,
				"y": -0.5840245708,
				"z": -0.4808953422,
				"element": "C" 
			},
			{
				"x": 0.2734632236,
				"y": -0.2971746968,
				"z": -0.6209865451,
				"element": "C" 
			},
			{
				"x": -1.1160025989,
				"y": -0.1086919415,
				"z": -0.7370985553,
				"element": "C" 
			},
			{
				"x": -1.6439697452,
				"y": 1.1830934885,
				"z": -0.8009353552,
				"element": "C" 
			},
			{
				"x": -0.7843061625,
				"y": 2.2791333006,
				"z": -0.7329930152,
				"element": "C" 
			},
			{
				"x": -2.0090808752,
				"y": -1.2693046093,
				"z": -0.7968848097,
				"element": "C" 
			},
			{
				"x": -1.5775061098,
				"y": -2.5133223966,
				"z": -0.7382220489,
				"element": "N" 
			},
			{
				"x": -2.750067797,
				"y": -3.275355223,
				"z": -0.834128991,
				"element": "O" 
			},
			{
				"x": -3.7626403694,
				"y": -2.3999151629,
				"z": -0.9359570003,
				"element": "C" 
			},
			{
				"x": -5.1472222839,
				"y": -2.9271122174,
				"z": -1.0549420256,
				"element": "C" 
			},
			{
				"x": -5.8076715948,
				"y": -3.4540215596,
				"z": 0.5536774444,
				"element": "Cl" 
			},
			{
				"x": -3.3836529306,
				"y": -1.1587858757,
				"z": -0.9222778794,
				"element": "N" 
			},
			{
				"x": 2.9109977084,
				"y": 2.6737838908,
				"z": 0.7181068781,
				"element": "H" 
			},
			{
				"x": 2.6784634871,
				"y": 4.4141022764,
				"z": 0.3905477029,
				"element": "H" 
			},
			{
				"x": 1.5273888278,
				"y": 3.5479633511,
				"z": 1.4431523362,
				"element": "H" 
			},
			{
				"x": 2.8358128553,
				"y": -1.139836319,
				"z": -1.3948563079,
				"element": "H" 
			},
			{
				"x": 4.1563494764,
				"y": -0.4222690267,
				"z": -0.4326007441,
				"element": "H" 
			},
			{
				"x": 2.75986051,
				"y": -1.1691454539,
				"z": 0.390829458,
				"element": "H" 
			},
			{
				"x": 0.6601394312,
				"y": -1.3077064245,
				"z": -0.5862223679,
				"element": "H" 
			},
			{
				"x": -2.7148922109,
				"y": 1.3213346901,
				"z": -0.8930978834,
				"element": "H" 
			},
			{
				"x": -1.1647447712,
				"y": 3.2942946995,
				"z": -0.778193,
				"element": "H" 
			},
			{
				"x": -5.1791852917,
				"y": -3.7998859056,
				"z": -1.706924603,
				"element": "H" 
			},
			{
				"x": -5.7987540073,
				"y": -2.1413522316,
				"z": -1.4320298022,
				"element": "H" 
			}
		],
		 "valence_orbital": [ 
			{
				"type": "occ",
				"energy": -0.30387,
				"method": "rhf"
			},
			{
				"type": "occ",
				"energy": -0.29724,
				"method": "rhf"
			},
			{
				"type": "occ",
				"energy": -0.27936,
				"method": "rhf"
			},
			{
				"type": "occ",
				"energy": -0.24427,
				"method": "rhf"
			},
			{
				"type": "occ",
				"energy": -0.2196,
				"method": "rhf"
			},
			{
				"type": "unocc",
				"energy": -0.0576,
				"method": "rhf"
			},
			{
				"type": "unocc",
				"energy": -0.03048,
				"method": "rhf"
			},
			{
				"type": "unocc",
				"energy": 0.00257,
				"method": "rhf"
			},
			{
				"type": "unocc",
				"energy": 0.03659,
				"method": "rhf"
			},
			{
				"type": "unocc",
				"energy": 0.06841,
				"method": "rhf"
			}
		],
		"cosmo_sigma_profile": { 
			"-0.025": 0.0,
			"-0.024": 0.0,
			"-0.023": 0.0,
			"-0.022": 0.0,
			"-0.021": 0.0,
			"-0.02": 0.0,
			"-0.019": 0.0,
			"-0.018": 0.0,
			"-0.017": 0.0,
			"-0.016": 0.0,
			"-0.015": 0.0,
			"-0.014": 0.0,
			"-0.013": 0.0,
			"-0.012": 0.0,
			"-0.011": 0.183904512751,
			"-0.01": 3.95860470447,
			"-0.009": 4.58080152747,
			"-0.008": 3.97587464047,
			"-0.007": 6.30247671897,
			"-0.006": 14.3889155909,
			"-0.005": 19.1217598586,
			"-0.004": 21.6430939909,
			"-0.003": 22.1155629913,
			"-0.002": 19.2823528854,
			"-0.001": 17.1499648164,
			"0.0": 17.2152459567,
			"0.001": 20.4882257213,
			"0.002": 23.3636505326,
			"0.003": 23.0371181828,
			"0.004": 17.5054726178,
			"0.005": 15.9327345246,
			"0.006": 8.9003849749,
			"0.007": 4.55042940852,
			"0.008": 4.78757603778,
			"0.009": 4.33301470435,
			"0.01": 4.75029035495,
			"0.011": 3.27408953117,
			"0.012": 1.09022664982,
			"0.013": 0.0,
			"0.014": 0.0,
			"0.015": 0.0,
			"0.016": 0.0,
			"0.017": 0.0,
			"0.018": 0.0,
			"0.019": 0.0,
			"0.02": 0.0,
			"0.021": 0.0,
			"0.022": 0.0,
			"0.023": 0.0,
			"0.024": 0.0,
			"0.025": 0.0
		}
	}
}
