{
	 "smiles": "OC(=O)C1=CSC(=N1)C1=C2C=CC=CC2=CC=C1", 
	 "Tm": 418.15, 
	 "num_atms": 27, 
	 "gaussian": { 
		 "optdone": 1, 
		 "sigma_profile": "yes", 
		 "theory": "DFT", 
		 "functional": "B3LYP", 
		 "basiset": "6-31G**", 
		 "properties": { 
			 "R2extent": 5712.3575, 
			 "electric_dipole_moment_norm": 5.99360526395, 
			 "electric_quadrupole_moment_norm": 23.1284214602, 
			 "total_energy": -1142.32075995, 
			 "HOMO_LUMO_gap": 0.15087, 
			 "cosmo_polarized_energy": -13.08, 
			 "cosmo_cavitation_energy": 33.39, 
			 "cosmo_dispersion_energy": -24.81, 
			 "cosmo_repulsion_energy": 1.83, 
			 "cosmo_total_nonelectrostatic_energy": 10.42, 
			 "SMD_solvation_energy": 5.94 
		},
		"coords": [
			{
				"x": -2.853297899,
				"y": 3.2827047602,
				"z": 2.0401706399,
				"element": "O" 
			},
			{
				"x": -2.0596997974,
				"y": 4.0296298039,
				"z": 1.2455480029,
				"element": "C" 
			},
			{
				"x": -2.1768206608,
				"y": 5.2291263764,
				"z": 1.1468741504,
				"element": "O" 
			},
			{
				"x": -1.0316021707,
				"y": 3.2380251204,
				"z": 0.5085111115,
				"element": "C" 
			},
			{
				"x": -0.0841895841,
				"y": 3.7683764688,
				"z": -0.3225659497,
				"element": "C" 
			},
			{
				"x": 0.9013963625,
				"y": 2.507159684,
				"z": -0.9571206991,
				"element": "S" 
			},
			{
				"x": -0.0331416837,
				"y": 1.3197354127,
				"z": -0.0247128045,
				"element": "C" 
			},
			{
				"x": -0.9970479367,
				"y": 1.8711495808,
				"z": 0.6661093602,
				"element": "N" 
			},
			{
				"x": 0.316503315,
				"y": -0.1097517315,
				"z": -0.0704922156,
				"element": "C" 
			},
			{
				"x": -0.6852478195,
				"y": -1.1457529384,
				"z": -0.0589382134,
				"element": "C" 
			},
			{
				"x": -2.0843664065,
				"y": -0.8937430225,
				"z": -0.0464974328,
				"element": "C" 
			},
			{
				"x": -2.9927468993,
				"y": -1.9298630873,
				"z": -0.048034723,
				"element": "C" 
			},
			{
				"x": -2.5572020454,
				"y": -3.2750207301,
				"z": -0.0611785185,
				"element": "C" 
			},
			{
				"x": -1.2113449648,
				"y": -3.5559494501,
				"z": -0.0863173428,
				"element": "C" 
			},
			{
				"x": -0.2458541068,
				"y": -2.513102493,
				"z": -0.093307092,
				"element": "C" 
			},
			{
				"x": 1.1417048692,
				"y": -2.8097183465,
				"z": -0.1445763918,
				"element": "C" 
			},
			{
				"x": 2.0766576857,
				"y": -1.8019232535,
				"z": -0.1687888467,
				"element": "C" 
			},
			{
				"x": 1.6598510247,
				"y": -0.4559082464,
				"z": -0.1300047262,
				"element": "C" 
			},
			{
				"x": -2.5589399141,
				"y": 2.3557870637,
				"z": 1.964106313,
				"element": "H" 
			},
			{
				"x": 0.0582507179,
				"y": 4.809645482,
				"z": -0.5720518991,
				"element": "H" 
			},
			{
				"x": -2.4349242477,
				"y": 0.1294300807,
				"z": -0.0295971524,
				"element": "H" 
			},
			{
				"x": -4.0563141866,
				"y": -1.7099325172,
				"z": -0.0403585519,
				"element": "H" 
			},
			{
				"x": -3.2855870805,
				"y": -4.0804270072,
				"z": -0.0576006485,
				"element": "H" 
			},
			{
				"x": -0.8618203243,
				"y": -4.5848004177,
				"z": -0.1070516713,
				"element": "H" 
			},
			{
				"x": 1.4516619457,
				"y": -3.8511158338,
				"z": -0.1653509852,
				"element": "H" 
			},
			{
				"x": 3.1368053188,
				"y": -2.0321888673,
				"z": -0.204359804,
				"element": "H" 
			},
			{
				"x": 2.4124164885,
				"y": 0.3267281088,
				"z": -0.1154139093,
				"element": "H" 
			}
		],
		 "valence_orbital": [ 
			{
				"type": "occ",
				"energy": -0.30179,
				"method": "rhf"
			},
			{
				"type": "occ",
				"energy": -0.27094,
				"method": "rhf"
			},
			{
				"type": "occ",
				"energy": -0.26572,
				"method": "rhf"
			},
			{
				"type": "occ",
				"energy": -0.25945,
				"method": "rhf"
			},
			{
				"type": "occ",
				"energy": -0.22639,
				"method": "rhf"
			},
			{
				"type": "unocc",
				"energy": -0.07552,
				"method": "rhf"
			},
			{
				"type": "unocc",
				"energy": -0.04658,
				"method": "rhf"
			},
			{
				"type": "unocc",
				"energy": -0.02711,
				"method": "rhf"
			},
			{
				"type": "unocc",
				"energy": -0.01923,
				"method": "rhf"
			},
			{
				"type": "unocc",
				"energy": 0.00177,
				"method": "rhf"
			}
		],
		"cosmo_sigma_profile": { 
			"-0.025": 0.0,
			"-0.024": 0.0,
			"-0.023": 0.0,
			"-0.022": 0.0,
			"-0.021": 0.0,
			"-0.02": 0.0,
			"-0.019": 0.0,
			"-0.018": 0.0,
			"-0.017": 0.0,
			"-0.016": 0.0,
			"-0.015": 0.0,
			"-0.014": 0.0960403920414,
			"-0.013": 0.325348606889,
			"-0.012": 0.669289137663,
			"-0.011": 1.27125288289,
			"-0.01": 2.60752035765,
			"-0.009": 2.19228784055,
			"-0.008": 2.09807734223,
			"-0.007": 6.10621722124,
			"-0.006": 16.8440748017,
			"-0.005": 18.0945048791,
			"-0.004": 19.829607208,
			"-0.003": 16.3187314118,
			"-0.002": 22.7872047755,
			"-0.001": 23.5486927576,
			"0.0": 22.0984309453,
			"0.001": 19.4917123567,
			"0.002": 17.3115376054,
			"0.003": 24.7030064557,
			"0.004": 18.0658915549,
			"0.005": 8.94296049717,
			"0.006": 2.94315994209,
			"0.007": 2.87698147309,
			"0.008": 2.86080511095,
			"0.009": 3.73947854929,
			"0.01": 5.06931725605,
			"0.011": 4.73168147605,
			"0.012": 4.87449005141,
			"0.013": 1.44033908256,
			"0.014": 0.0119033364066,
			"0.015": 0.0,
			"0.016": 0.0,
			"0.017": 0.0,
			"0.018": 0.0,
			"0.019": 0.0,
			"0.02": 0.0,
			"0.021": 0.0,
			"0.022": 0.0,
			"0.023": 0.0,
			"0.024": 0.0,
			"0.025": 0.0
		}
	}
}
