{
	 "smiles": "CC1=C(C=C(C=C1Cl)S(N)(=O)=O)[N+]([O-])=O", 
	 "Tm": 455.15, 
	 "num_atms": 22, 
	 "gaussian": { 
		 "optdone": 1, 
		 "sigma_profile": "yes", 
		 "theory": "DFT", 
		 "functional": "B3LYP", 
		 "basiset": "6-31G**", 
		 "properties": { 
			 "R2extent": 4598.202, 
			 "electric_dipole_moment_norm": 3.75041852731, 
			 "electric_quadrupole_moment_norm": 18.6715550555, 
			 "total_energy": -1539.56789474, 
			 "HOMO_LUMO_gap": 0.17643, 
			 "cosmo_polarized_energy": -16.77, 
			 "cosmo_cavitation_energy": 30.21, 
			 "cosmo_dispersion_energy": -22.6, 
			 "cosmo_repulsion_energy": 1.73, 
			 "cosmo_total_nonelectrostatic_energy": 9.35, 
			 "SMD_solvation_energy": 6.74 
		},
		"coords": [
			{
				"x": 1.1565094,
				"y": -2.954380909,
				"z": 2.5947782633,
				"element": "C" 
			},
			{
				"x": 0.5589294413,
				"y": -2.036830709,
				"z": 1.5592659144,
				"element": "C" 
			},
			{
				"x": -0.3697192579,
				"y": -1.0171313839,
				"z": 1.8524602665,
				"element": "C" 
			},
			{
				"x": -0.8773150367,
				"y": -0.1346625314,
				"z": 0.9023853978,
				"element": "C" 
			},
			{
				"x": -0.4703254784,
				"y": -0.280419463,
				"z": -0.4161759797,
				"element": "C" 
			},
			{
				"x": 0.419968304,
				"y": -1.2847360287,
				"z": -0.78408679,
				"element": "C" 
			},
			{
				"x": 0.9216982031,
				"y": -2.1344019795,
				"z": 0.1997476154,
				"element": "C" 
			},
			{
				"x": 2.0416724198,
				"y": -3.37899765,
				"z": -0.3287276523,
				"element": "Cl" 
			},
			{
				"x": -1.1200707597,
				"y": 0.8278827471,
				"z": -1.6737786797,
				"element": "S" 
			},
			{
				"x": -0.0308394648,
				"y": 2.1176717112,
				"z": -1.6436061912,
				"element": "N" 
			},
			{
				"x": -0.9586627804,
				"y": 0.1563585417,
				"z": -2.9647487139,
				"element": "O" 
			},
			{
				"x": -2.4089725792,
				"y": 1.3212311474,
				"z": -1.1867423431,
				"element": "O" 
			},
			{
				"x": -0.8911911208,
				"y": -0.8308088635,
				"z": 3.2238447315,
				"element": "N" 
			},
			{
				"x": -1.2382120869,
				"y": 0.3050620976,
				"z": 3.5397468744,
				"element": "O" 
			},
			{
				"x": -0.9714200083,
				"y": -1.819110259,
				"z": 3.9507500555,
				"element": "O" 
			},
			{
				"x": 0.5179581881,
				"y": -3.8314285845,
				"z": 2.7432024217,
				"element": "H" 
			},
			{
				"x": 1.2477463212,
				"y": -2.4646933422,
				"z": 3.5631030495,
				"element": "H" 
			},
			{
				"x": 2.137452725,
				"y": -3.3002332653,
				"z": 2.2690578863,
				"element": "H" 
			},
			{
				"x": -1.5868401565,
				"y": 0.6277667025,
				"z": 1.1967520627,
				"element": "H" 
			},
			{
				"x": 0.7071750335,
				"y": -1.41117667,
				"z": -1.8210777604,
				"element": "H" 
			},
			{
				"x": 0.3964206785,
				"y": 2.2273742426,
				"z": -2.5593612191,
				"element": "H" 
			},
			{
				"x": -0.502761985,
				"y": 2.9655644487,
				"z": -1.3407892097,
				"element": "H" 
			}
		],
		 "valence_orbital": [ 
			{
				"type": "occ",
				"energy": -0.3238,
				"method": "rhf"
			},
			{
				"type": "occ",
				"energy": -0.3187,
				"method": "rhf"
			},
			{
				"type": "occ",
				"energy": -0.30858,
				"method": "rhf"
			},
			{
				"type": "occ",
				"energy": -0.29039,
				"method": "rhf"
			},
			{
				"type": "occ",
				"energy": -0.2797,
				"method": "rhf"
			},
			{
				"type": "unocc",
				"energy": -0.10327,
				"method": "rhf"
			},
			{
				"type": "unocc",
				"energy": -0.06295,
				"method": "rhf"
			},
			{
				"type": "unocc",
				"energy": -0.03309,
				"method": "rhf"
			},
			{
				"type": "unocc",
				"energy": -0.00215,
				"method": "rhf"
			},
			{
				"type": "unocc",
				"energy": 0.04489,
				"method": "rhf"
			}
		],
		"cosmo_sigma_profile": { 
			"-0.025": 0.0,
			"-0.024": 0.0,
			"-0.023": 0.0,
			"-0.022": 0.0,
			"-0.021": 0.0,
			"-0.02": 0.0,
			"-0.019": 0.0,
			"-0.018": 0.0,
			"-0.017": 0.0,
			"-0.016": 0.155141172415,
			"-0.015": 2.09262883018,
			"-0.014": 2.5359618325,
			"-0.013": 2.63366278697,
			"-0.012": 2.52617187049,
			"-0.011": 1.82817999468,
			"-0.01": 2.35666022206,
			"-0.009": 3.15685810107,
			"-0.008": 5.01682057555,
			"-0.007": 6.90506595552,
			"-0.006": 8.68038256094,
			"-0.005": 11.8025905854,
			"-0.004": 12.2789760872,
			"-0.003": 19.8807296937,
			"-0.002": 27.1591636665,
			"-0.001": 18.4926047186,
			"0.0": 12.3980594991,
			"0.001": 12.3069291266,
			"0.002": 10.343525862,
			"0.003": 12.9181295833,
			"0.004": 8.15043669191,
			"0.005": 6.38026627582,
			"0.006": 8.34620937965,
			"0.007": 12.5244110085,
			"0.008": 8.46430324941,
			"0.009": 8.23297443366,
			"0.01": 9.67557680871,
			"0.011": 6.65481414899,
			"0.012": 0.0285228305152,
			"0.013": 0.0,
			"0.014": 0.0,
			"0.015": 0.0,
			"0.016": 0.0,
			"0.017": 0.0,
			"0.018": 0.0,
			"0.019": 0.0,
			"0.02": 0.0,
			"0.021": 0.0,
			"0.022": 0.0,
			"0.023": 0.0,
			"0.024": 0.0,
			"0.025": 0.0
		}
	}
}
