{
	 "smiles": "NC1=C(OC2=CC=C(Br)C=C2)C=CC(=C1)C(F)(F)F", 
	 "Tm": 293.15, 
	 "num_atms": 28, 
	 "gaussian": { 
		 "optdone": 1, 
		 "sigma_profile": "yes", 
		 "theory": "DFT", 
		 "functional": "B3LYP", 
		 "basiset": "6-31G**", 
		 "properties": { 
			 "R2extent": 12736.773, 
			 "electric_dipole_moment_norm": 2.74404217351, 
			 "electric_quadrupole_moment_norm": 13.9831728138, 
			 "total_energy": -3501.71098277, 
			 "HOMO_LUMO_gap": 0.18856, 
			 "cosmo_polarized_energy": -9.67, 
			 "cosmo_cavitation_energy": 36.88, 
			 "cosmo_dispersion_energy": -26.26, 
			 "cosmo_repulsion_energy": 1.98, 
			 "cosmo_total_nonelectrostatic_energy": 12.59, 
			 "SMD_solvation_energy": 6.3 
		},
		"coords": [
			{
				"x": -1.4606730147,
				"y": 1.2031792181,
				"z": -1.2598876377,
				"element": "N" 
			},
			{
				"x": -0.2431196122,
				"y": 0.6792507911,
				"z": -0.8549234279,
				"element": "C" 
			},
			{
				"x": -0.16908632,
				"y": -0.1061097127,
				"z": 0.314042515,
				"element": "C" 
			},
			{
				"x": -1.3777027121,
				"y": -0.4246723185,
				"z": 0.9190455087,
				"element": "O" 
			},
			{
				"x": -1.5987587218,
				"y": -0.1094112404,
				"z": 2.2460928275,
				"element": "C" 
			},
			{
				"x": -0.9163194238,
				"y": 0.9055509858,
				"z": 2.9213517436,
				"element": "C" 
			},
			{
				"x": -1.239013579,
				"y": 1.1846435973,
				"z": 4.2499788047,
				"element": "C" 
			},
			{
				"x": -2.239335628,
				"y": 0.4545995389,
				"z": 4.8883267844,
				"element": "C" 
			},
			{
				"x": -2.6757020805,
				"y": 0.8405821813,
				"z": 6.7089626765,
				"element": "Br" 
			},
			{
				"x": -2.9258950579,
				"y": -0.5555856913,
				"z": 4.2147815487,
				"element": "C" 
			},
			{
				"x": -2.6014344437,
				"y": -0.8390478423,
				"z": 2.890340132,
				"element": "C" 
			},
			{
				"x": 1.0406187846,
				"y": -0.61800575,
				"z": 0.7718642922,
				"element": "C" 
			},
			{
				"x": 2.2215546361,
				"y": -0.3443364503,
				"z": 0.0837259134,
				"element": "C" 
			},
			{
				"x": 2.1652162706,
				"y": 0.4332458429,
				"z": -1.0758276086,
				"element": "C" 
			},
			{
				"x": 0.9514779452,
				"y": 0.9368813546,
				"z": -1.5434031258,
				"element": "C" 
			},
			{
				"x": 3.4357258761,
				"y": 0.7861430038,
				"z": -1.799739366,
				"element": "C" 
			},
			{
				"x": 4.3736568577,
				"y": -0.1784741567,
				"z": -1.6723964116,
				"element": "F" 
			},
			{
				"x": 3.983403508,
				"y": 1.928796132,
				"z": -1.3214619291,
				"element": "F" 
			},
			{
				"x": 3.2290299736,
				"y": 0.9788044766,
				"z": -3.1228342547,
				"element": "F" 
			},
			{
				"x": -1.5393403286,
				"y": 1.4365983986,
				"z": -2.2387968609,
				"element": "H" 
			},
			{
				"x": -2.2704895651,
				"y": 0.7284285702,
				"z": -0.8867646563,
				"element": "H" 
			},
			{
				"x": -0.1434846002,
				"y": 1.4754433973,
				"z": 2.4185397338,
				"element": "H" 
			},
			{
				"x": -0.7155292907,
				"y": 1.9715688636,
				"z": 4.780908432,
				"element": "H" 
			},
			{
				"x": -3.7020319881,
				"y": -1.1190869547,
				"z": 4.7198240647,
				"element": "H" 
			},
			{
				"x": -3.1169080599,
				"y": -1.6226092466,
				"z": 2.3450347122,
				"element": "H" 
			},
			{
				"x": 1.04732908,
				"y": -1.2352967288,
				"z": 1.6642687596,
				"element": "H" 
			},
			{
				"x": 3.1668017627,
				"y": -0.7441972069,
				"z": 0.4307391728,
				"element": "H" 
			},
			{
				"x": 0.9276097318,
				"y": 1.534616947,
				"z": -2.4488923431,
				"element": "H" 
			}
		],
		 "valence_orbital": [ 
			{
				"type": "occ",
				"energy": -0.28858,
				"method": "rhf"
			},
			{
				"type": "occ",
				"energy": -0.27165,
				"method": "rhf"
			},
			{
				"type": "occ",
				"energy": -0.26358,
				"method": "rhf"
			},
			{
				"type": "occ",
				"energy": -0.23269,
				"method": "rhf"
			},
			{
				"type": "occ",
				"energy": -0.2166,
				"method": "rhf"
			},
			{
				"type": "unocc",
				"energy": -0.02804,
				"method": "rhf"
			},
			{
				"type": "unocc",
				"energy": -0.02188,
				"method": "rhf"
			},
			{
				"type": "unocc",
				"energy": -0.00937,
				"method": "rhf"
			},
			{
				"type": "unocc",
				"energy": -0.00321,
				"method": "rhf"
			},
			{
				"type": "unocc",
				"energy": 0.00609,
				"method": "rhf"
			}
		],
		"cosmo_sigma_profile": { 
			"-0.025": 0.0,
			"-0.024": 0.0,
			"-0.023": 0.0,
			"-0.022": 0.0,
			"-0.021": 0.0,
			"-0.02": 0.0,
			"-0.019": 0.0,
			"-0.018": 0.0,
			"-0.017": 0.0,
			"-0.016": 0.0,
			"-0.015": 0.0,
			"-0.014": 0.173347114507,
			"-0.013": 1.2118295455,
			"-0.012": 1.96087626142,
			"-0.011": 2.45910185682,
			"-0.01": 1.93625622911,
			"-0.009": 3.04580668612,
			"-0.008": 3.42420451851,
			"-0.007": 10.716150732,
			"-0.006": 12.5762456534,
			"-0.005": 13.1500936573,
			"-0.004": 14.7679565641,
			"-0.003": 12.6878767694,
			"-0.002": 15.727520675,
			"-0.001": 15.6317144094,
			"0.0": 22.148317086,
			"0.001": 25.3371736888,
			"0.002": 38.8777004274,
			"0.003": 61.0935437138,
			"0.004": 25.1968811519,
			"0.005": 9.84431640408,
			"0.006": 1.86153704848,
			"0.007": 1.63182092131,
			"0.008": 1.04366838422,
			"0.009": 0.407344964172,
			"0.01": 0.691509010651,
			"0.011": 0.781408914967,
			"0.012": 0.478476257228,
			"0.013": 0.408671753301,
			"0.014": 0.0596808082777,
			"0.015": 0.0,
			"0.016": 0.0,
			"0.017": 0.0,
			"0.018": 0.0,
			"0.019": 0.0,
			"0.02": 0.0,
			"0.021": 0.0,
			"0.022": 0.0,
			"0.023": 0.0,
			"0.024": 0.0,
			"0.025": 0.0
		}
	}
}
