{
	 "smiles": "CC(C)C#C", 
	 "Tm": 183.35, 
	 "num_atms": 13, 
	 "gaussian": { 
		 "optdone": 1, 
		 "sigma_profile": "yes", 
		 "theory": "DFT", 
		 "functional": "B3LYP", 
		 "basiset": "6-31G**", 
		 "properties": { 
			 "R2extent": 1015.6466, 
			 "electric_dipole_moment_norm": 0.656598332316, 
			 "electric_quadrupole_moment_norm": 2.42880227273, 
			 "total_energy": -195.288800783, 
			 "HOMO_LUMO_gap": 0.31473, 
			 "cosmo_polarized_energy": -3.42, 
			 "cosmo_cavitation_energy": 16.6, 
			 "cosmo_dispersion_energy": -11.51, 
			 "cosmo_repulsion_energy": 1.02, 
			 "cosmo_total_nonelectrostatic_energy": 6.11, 
			 "SMD_solvation_energy": 4.61 
		},
		"coords": [
			{
				"x": 1.3313872802,
				"y": -1.2017725279,
				"z": 0.1551568863,
				"element": "C" 
			},
			{
				"x": 0.382793673,
				"y": -1.8580249275,
				"z": -0.8689751682,
				"element": "C" 
			},
			{
				"x": -0.3986772479,
				"y": -0.7993016804,
				"z": -1.6738812238,
				"element": "C" 
			},
			{
				"x": -0.5317871971,
				"y": -2.8008238628,
				"z": -0.2121973079,
				"element": "C" 
			},
			{
				"x": -1.2898319979,
				"y": -3.5669683522,
				"z": 0.334446963,
				"element": "C" 
			},
			{
				"x": 1.9031688579,
				"y": -1.9556447725,
				"z": 0.7030575586,
				"element": "H" 
			},
			{
				"x": 0.7645448956,
				"y": -0.6113270061,
				"z": 0.8819182971,
				"element": "H" 
			},
			{
				"x": 2.0354323254,
				"y": -0.5356433419,
				"z": -0.3542864126,
				"element": "H" 
			},
			{
				"x": 0.9976410016,
				"y": -2.4326492832,
				"z": -1.5769479833,
				"element": "H" 
			},
			{
				"x": -1.0237919585,
				"y": -0.1945447126,
				"z": -1.0093381588,
				"element": "H" 
			},
			{
				"x": 0.2956021393,
				"y": -0.1314510257,
				"z": -2.1943691138,
				"element": "H" 
			},
			{
				"x": -1.0492988268,
				"y": -1.2690079003,
				"z": -2.4165845799,
				"element": "H" 
			},
			{
				"x": -1.957882945,
				"y": -4.2454406069,
				"z": 0.8120002433,
				"element": "H" 
			}
		],
		 "valence_orbital": [ 
			{
				"type": "occ",
				"energy": -0.36871,
				"method": "rhf"
			},
			{
				"type": "occ",
				"energy": -0.35137,
				"method": "rhf"
			},
			{
				"type": "occ",
				"energy": -0.35048,
				"method": "rhf"
			},
			{
				"type": "occ",
				"energy": -0.25783,
				"method": "rhf"
			},
			{
				"type": "occ",
				"energy": -0.25736,
				"method": "rhf"
			},
			{
				"type": "unocc",
				"energy": 0.05737,
				"method": "rhf"
			},
			{
				"type": "unocc",
				"energy": 0.06194,
				"method": "rhf"
			},
			{
				"type": "unocc",
				"energy": 0.10163,
				"method": "rhf"
			},
			{
				"type": "unocc",
				"energy": 0.13174,
				"method": "rhf"
			},
			{
				"type": "unocc",
				"energy": 0.14141,
				"method": "rhf"
			}
		],
		"cosmo_sigma_profile": { 
			"-0.025": 0.0,
			"-0.024": 0.0,
			"-0.023": 0.0,
			"-0.022": 0.0,
			"-0.021": 0.0,
			"-0.02": 0.0,
			"-0.019": 0.0,
			"-0.018": 0.0,
			"-0.017": 0.0,
			"-0.016": 0.0,
			"-0.015": 0.0,
			"-0.014": 0.0,
			"-0.013": 0.0,
			"-0.012": 0.0,
			"-0.011": 0.646457466759,
			"-0.01": 1.32011023181,
			"-0.009": 1.42003540955,
			"-0.008": 0.651951937854,
			"-0.007": 1.27940461059,
			"-0.006": 0.774922680618,
			"-0.005": 1.98956371287,
			"-0.004": 8.46312445364,
			"-0.003": 17.2265210323,
			"-0.002": 17.7623068718,
			"-0.001": 14.4896290354,
			"0.0": 16.231778969,
			"0.001": 14.0280846668,
			"0.002": 5.07970039191,
			"0.003": 3.6308500431,
			"0.004": 3.71525372099,
			"0.005": 4.11841981262,
			"0.006": 4.95408166489,
			"0.007": 8.78026013153,
			"0.008": 4.39741399009,
			"0.009": 0.0,
			"0.01": 0.0,
			"0.011": 0.0,
			"0.012": 0.0,
			"0.013": 0.0,
			"0.014": 0.0,
			"0.015": 0.0,
			"0.016": 0.0,
			"0.017": 0.0,
			"0.018": 0.0,
			"0.019": 0.0,
			"0.02": 0.0,
			"0.021": 0.0,
			"0.022": 0.0,
			"0.023": 0.0,
			"0.024": 0.0,
			"0.025": 0.0
		}
	}
}
