{
	 "smiles": "ClC(C(=O)NC1=CC=CC=C1)C1=CC=CC=C1", 
	 "Tm": 424.15, 
	 "num_atms": 29, 
	 "gaussian": { 
		 "optdone": 1, 
		 "sigma_profile": "yes", 
		 "theory": "DFT", 
		 "functional": "B3LYP", 
		 "basiset": "6-31G**", 
		 "properties": { 
			 "R2extent": 6737.142, 
			 "electric_dipole_moment_norm": 1.76661807134, 
			 "electric_quadrupole_moment_norm": 15.5018482117, 
			 "total_energy": -1130.91093856, 
			 "HOMO_LUMO_gap": 0.18694, 
			 "cosmo_polarized_energy": -12.13, 
			 "cosmo_cavitation_energy": 35.06, 
			 "cosmo_dispersion_energy": -24.88, 
			 "cosmo_repulsion_energy": 1.93, 
			 "cosmo_total_nonelectrostatic_energy": 12.12, 
			 "SMD_solvation_energy": 5.99 
		},
		"coords": [
			{
				"x": -1.6921966694,
				"y": 3.835066109,
				"z": -0.0859895323,
				"element": "Cl" 
			},
			{
				"x": -0.3038288429,
				"y": 3.0066954928,
				"z": 0.832457797,
				"element": "C" 
			},
			{
				"x": 0.6691953288,
				"y": 2.2371823086,
				"z": -0.0857425772,
				"element": "C" 
			},
			{
				"x": 1.7691171213,
				"y": 1.9714787978,
				"z": 0.3782854498,
				"element": "O" 
			},
			{
				"x": 0.2103231323,
				"y": 1.8834932465,
				"z": -1.3190364545,
				"element": "N" 
			},
			{
				"x": 0.881749898,
				"y": 1.1648497722,
				"z": -2.3352768857,
				"element": "C" 
			},
			{
				"x": 0.2017172018,
				"y": 0.9943769279,
				"z": -3.5511730429,
				"element": "C" 
			},
			{
				"x": 0.7959572384,
				"y": 0.2924035067,
				"z": -4.5960773393,
				"element": "C" 
			},
			{
				"x": 2.0742583143,
				"y": -0.2481721086,
				"z": -4.4428149149,
				"element": "C" 
			},
			{
				"x": 2.746666157,
				"y": -0.0763816806,
				"z": -3.2322775736,
				"element": "C" 
			},
			{
				"x": 2.1660486458,
				"y": 0.6239982058,
				"z": -2.174278267,
				"element": "C" 
			},
			{
				"x": -0.8516667552,
				"y": 2.1473052869,
				"z": 1.944215855,
				"element": "C" 
			},
			{
				"x": -0.7968974912,
				"y": 2.6086399991,
				"z": 3.2641739184,
				"element": "C" 
			},
			{
				"x": -1.2997111624,
				"y": 1.8298095119,
				"z": 4.3068883419,
				"element": "C" 
			},
			{
				"x": -1.863626158,
				"y": 0.5824901387,
				"z": 4.0370170879,
				"element": "C" 
			},
			{
				"x": -1.9215118041,
				"y": 0.1157543788,
				"z": 2.7211600767,
				"element": "C" 
			},
			{
				"x": -1.4189008819,
				"y": 0.8930088574,
				"z": 1.6801665172,
				"element": "C" 
			},
			{
				"x": 0.2695549584,
				"y": 3.8360310586,
				"z": 1.2445711603,
				"element": "H" 
			},
			{
				"x": -0.7027230961,
				"y": 2.2453601287,
				"z": -1.5639073859,
				"element": "H" 
			},
			{
				"x": -0.7941209265,
				"y": 1.4138923372,
				"z": -3.6753324654,
				"element": "H" 
			},
			{
				"x": 0.2569226024,
				"y": 0.16948811,
				"z": -5.5309248655,
				"element": "H" 
			},
			{
				"x": 2.5392132586,
				"y": -0.7954932753,
				"z": -5.2570417609,
				"element": "H" 
			},
			{
				"x": 3.7417691147,
				"y": -0.4920078104,
				"z": -3.1015687589,
				"element": "H" 
			},
			{
				"x": 2.6875556923,
				"y": 0.759568504,
				"z": -1.2375054632,
				"element": "H" 
			},
			{
				"x": -0.3568222723,
				"y": 3.579434051,
				"z": 3.4756216278,
				"element": "H" 
			},
			{
				"x": -1.2487762374,
				"y": 2.1970848212,
				"z": 5.3275778939,
				"element": "H" 
			},
			{
				"x": -2.2546987101,
				"y": -0.0254785579,
				"z": 4.847557485,
				"element": "H" 
			},
			{
				"x": -2.3563501146,
				"y": -0.8559326723,
				"z": 2.5065215564,
				"element": "H" 
			},
			{
				"x": -1.4651175419,
				"y": 0.5243545543,
				"z": 0.65953252,
				"element": "H" 
			}
		],
		 "valence_orbital": [ 
			{
				"type": "occ",
				"energy": -0.26324,
				"method": "rhf"
			},
			{
				"type": "occ",
				"energy": -0.26091,
				"method": "rhf"
			},
			{
				"type": "occ",
				"energy": -0.256,
				"method": "rhf"
			},
			{
				"type": "occ",
				"energy": -0.25348,
				"method": "rhf"
			},
			{
				"type": "occ",
				"energy": -0.22592,
				"method": "rhf"
			},
			{
				"type": "unocc",
				"energy": -0.03898,
				"method": "rhf"
			},
			{
				"type": "unocc",
				"energy": -0.01939,
				"method": "rhf"
			},
			{
				"type": "unocc",
				"energy": -0.01023,
				"method": "rhf"
			},
			{
				"type": "unocc",
				"energy": -0.0038,
				"method": "rhf"
			},
			{
				"type": "unocc",
				"energy": 0.02845,
				"method": "rhf"
			}
		],
		"cosmo_sigma_profile": { 
			"-0.025": 0.0,
			"-0.024": 0.0,
			"-0.023": 0.0,
			"-0.022": 0.0,
			"-0.021": 0.0,
			"-0.02": 0.0,
			"-0.019": 0.0,
			"-0.018": 0.0,
			"-0.017": 0.0,
			"-0.016": 0.0,
			"-0.015": 0.0,
			"-0.014": 0.0,
			"-0.013": 0.337658066134,
			"-0.012": 1.18052951725,
			"-0.011": 1.19889519417,
			"-0.01": 1.16196977212,
			"-0.009": 3.97717162785,
			"-0.008": 4.0032070664,
			"-0.007": 6.71875937028,
			"-0.006": 17.5495625033,
			"-0.005": 20.2736395235,
			"-0.004": 23.4661958756,
			"-0.003": 18.4139215021,
			"-0.002": 15.9028201301,
			"-0.001": 16.9217557883,
			"0.0": 14.4483393191,
			"0.001": 18.9734198049,
			"0.002": 19.9737168966,
			"0.003": 22.1566558218,
			"0.004": 27.3210343941,
			"0.005": 26.7264116679,
			"0.006": 8.97004352507,
			"0.007": 1.56599984059,
			"0.008": 1.59920164116,
			"0.009": 1.86703972308,
			"0.01": 1.63319919036,
			"0.011": 2.65951020676,
			"0.012": 2.91126250293,
			"0.013": 1.32185243017,
			"0.014": 0.00515275347458,
			"0.015": 0.0,
			"0.016": 0.0,
			"0.017": 0.0,
			"0.018": 0.0,
			"0.019": 0.0,
			"0.02": 0.0,
			"0.021": 0.0,
			"0.022": 0.0,
			"0.023": 0.0,
			"0.024": 0.0,
			"0.025": 0.0
		}
	}
}
