{
	 "smiles": "COC(=O)C1CCN(CC1)C1=CC(=NC=C1)C#N", 
	 "Tm": 378.15, 
	 "num_atms": 33, 
	 "gaussian": { 
		 "optdone": 1, 
		 "sigma_profile": "yes", 
		 "theory": "DFT", 
		 "functional": "B3LYP", 
		 "basiset": "6-31G**", 
		 "properties": { 
			 "R2extent": 7367.6382, 
			 "electric_dipole_moment_norm": 9.54624309349, 
			 "electric_quadrupole_moment_norm": 38.9044444754, 
			 "total_energy": -819.110477168, 
			 "HOMO_LUMO_gap": 0.17759, 
			 "cosmo_polarized_energy": -18.83, 
			 "cosmo_cavitation_energy": 36.76, 
			 "cosmo_dispersion_energy": -25.92, 
			 "cosmo_repulsion_energy": 2.0, 
			 "cosmo_total_nonelectrostatic_energy": 12.84, 
			 "SMD_solvation_energy": 6.36 
		},
		"coords": [
			{
				"x": 0.1112663124,
				"y": 1.5015324392,
				"z": 4.7524589387,
				"element": "C" 
			},
			{
				"x": -0.6195756032,
				"y": 1.1837492423,
				"z": 3.5538355861,
				"element": "O" 
			},
			{
				"x": -0.0620468237,
				"y": 0.239597615,
				"z": 2.767034905,
				"element": "C" 
			},
			{
				"x": 0.9782430954,
				"y": -0.3254480412,
				"z": 3.0348044003,
				"element": "O" 
			},
			{
				"x": -0.8771644219,
				"y": 0.0384801583,
				"z": 1.4962090466,
				"element": "C" 
			},
			{
				"x": -0.7139846232,
				"y": -1.4010642366,
				"z": 0.9617656272,
				"element": "C" 
			},
			{
				"x": -0.7564963151,
				"y": -1.4778369681,
				"z": -0.567398195,
				"element": "C" 
			},
			{
				"x": 0.3141322494,
				"y": -0.6679570388,
				"z": -1.1573292253,
				"element": "N" 
			},
			{
				"x": 0.7422877195,
				"y": 0.5260039882,
				"z": -0.420416224,
				"element": "C" 
			},
			{
				"x": -0.4126199304,
				"y": 1.0664902017,
				"z": 0.4255532647,
				"element": "C" 
			},
			{
				"x": 0.8811042852,
				"y": -0.9981938659,
				"z": -2.3617742773,
				"element": "C" 
			},
			{
				"x": 0.3086926184,
				"y": -1.9663731161,
				"z": -3.2205211052,
				"element": "C" 
			},
			{
				"x": 0.9367307361,
				"y": -2.2564931037,
				"z": -4.4319028164,
				"element": "C" 
			},
			{
				"x": 2.0669247667,
				"y": -1.6825031444,
				"z": -4.8797015513,
				"element": "N" 
			},
			{
				"x": 2.5976336682,
				"y": -0.766885643,
				"z": -4.0613711213,
				"element": "C" 
			},
			{
				"x": 2.0726611812,
				"y": -0.393753404,
				"z": -2.829322685,
				"element": "C" 
			},
			{
				"x": 0.3313661559,
				"y": -3.2462862609,
				"z": -5.2961287889,
				"element": "C" 
			},
			{
				"x": -0.1807499675,
				"y": -4.0457579804,
				"z": -5.9664271686,
				"element": "N" 
			},
			{
				"x": -0.4756593579,
				"y": 2.2663862876,
				"z": 5.2602636966,
				"element": "H" 
			},
			{
				"x": 0.2165475216,
				"y": 0.6154400687,
				"z": 5.3828388183,
				"element": "H" 
			},
			{
				"x": 1.1067130302,
				"y": 1.8798461687,
				"z": 4.5072461993,
				"element": "H" 
			},
			{
				"x": -1.9213297997,
				"y": 0.252622867,
				"z": 1.7414786911,
				"element": "H" 
			},
			{
				"x": -1.4924689985,
				"y": -2.0518988336,
				"z": 1.3723027013,
				"element": "H" 
			},
			{
				"x": 0.2478318537,
				"y": -1.7923198685,
				"z": 1.3063804559,
				"element": "H" 
			},
			{
				"x": -1.7445893384,
				"y": -1.1716365086,
				"z": -0.9466938238,
				"element": "H" 
			},
			{
				"x": -0.6102723116,
				"y": -2.5200319234,
				"z": -0.8637288504,
				"element": "H" 
			},
			{
				"x": 1.0425835104,
				"y": 1.2933479169,
				"z": -1.1400931975,
				"element": "H" 
			},
			{
				"x": 1.6122117388,
				"y": 0.3137092066,
				"z": 0.2188735587,
				"element": "H" 
			},
			{
				"x": -0.1154153289,
				"y": 2.0082772541,
				"z": 0.8971731458,
				"element": "H" 
			},
			{
				"x": -1.2544531053,
				"y": 1.299375714,
				"z": -0.2351716425,
				"element": "H" 
			},
			{
				"x": -0.6179501206,
				"y": -2.4691257475,
				"z": -2.9773321778,
				"element": "H" 
			},
			{
				"x": 3.5174826465,
				"y": -0.2997668988,
				"z": -4.4086827243,
				"element": "H" 
			},
			{
				"x": 2.6051629561,
				"y": 0.3358734553,
				"z": -2.232223461,
				"element": "H" 
			}
		],
		 "valence_orbital": [ 
			{
				"type": "occ",
				"energy": -0.31563,
				"method": "rhf"
			},
			{
				"type": "occ",
				"energy": -0.28693,
				"method": "rhf"
			},
			{
				"type": "occ",
				"energy": -0.26637,
				"method": "rhf"
			},
			{
				"type": "occ",
				"energy": -0.2638,
				"method": "rhf"
			},
			{
				"type": "occ",
				"energy": -0.22273,
				"method": "rhf"
			},
			{
				"type": "unocc",
				"energy": -0.04514,
				"method": "rhf"
			},
			{
				"type": "unocc",
				"energy": -0.01472,
				"method": "rhf"
			},
			{
				"type": "unocc",
				"energy": -0.00738,
				"method": "rhf"
			},
			{
				"type": "unocc",
				"energy": 0.04651,
				"method": "rhf"
			},
			{
				"type": "unocc",
				"energy": 0.06019,
				"method": "rhf"
			}
		],
		"cosmo_sigma_profile": { 
			"-0.025": 0.0,
			"-0.024": 0.0,
			"-0.023": 0.0,
			"-0.022": 0.0,
			"-0.021": 0.0,
			"-0.02": 0.0,
			"-0.019": 0.0,
			"-0.018": 0.0,
			"-0.017": 0.0,
			"-0.016": 0.0,
			"-0.015": 0.0,
			"-0.014": 0.0,
			"-0.013": 0.0,
			"-0.012": 0.0,
			"-0.011": 0.0,
			"-0.01": 0.0,
			"-0.009": 0.277092091637,
			"-0.008": 2.28261654709,
			"-0.007": 6.74675199467,
			"-0.006": 15.5936489558,
			"-0.005": 30.5212203319,
			"-0.004": 39.0981189643,
			"-0.003": 31.3366758762,
			"-0.002": 20.642021761,
			"-0.001": 18.8939018585,
			"0.0": 15.2311719295,
			"0.001": 19.397360004,
			"0.002": 15.5657001398,
			"0.003": 9.90784367746,
			"0.004": 8.41096553145,
			"0.005": 7.07927360558,
			"0.006": 6.4907296101,
			"0.007": 7.27032405064,
			"0.008": 7.47844825997,
			"0.009": 6.22251754966,
			"0.01": 6.05830712407,
			"0.011": 5.97598924329,
			"0.012": 7.38412016478,
			"0.013": 1.65496663737,
			"0.014": 1.29844816309,
			"0.015": 0.58654332292,
			"0.016": 0.318889834272,
			"0.017": 0.0,
			"0.018": 0.0,
			"0.019": 0.0,
			"0.02": 0.0,
			"0.021": 0.0,
			"0.022": 0.0,
			"0.023": 0.0,
			"0.024": 0.0,
			"0.025": 0.0
		}
	}
}
