{
	 "smiles": "CNC(C1=CC=C(Cl)C=C1)C1=CN=CC=C1", 
	 "Tm": 318.15, 
	 "num_atms": 29, 
	 "gaussian": { 
		 "optdone": 1, 
		 "sigma_profile": "yes", 
		 "theory": "DFT", 
		 "functional": "B3LYP", 
		 "basiset": "6-31G**", 
		 "properties": { 
			 "R2extent": 5157.3749, 
			 "electric_dipole_moment_norm": 3.21503271834, 
			 "electric_quadrupole_moment_norm": 11.4123069044, 
			 "total_energy": -1072.90236645, 
			 "HOMO_LUMO_gap": 0.20531, 
			 "cosmo_polarized_energy": -10.64, 
			 "cosmo_cavitation_energy": 34.36, 
			 "cosmo_dispersion_energy": -24.15, 
			 "cosmo_repulsion_energy": 1.9, 
			 "cosmo_total_nonelectrostatic_energy": 12.11, 
			 "SMD_solvation_energy": 3.3 
		},
		"coords": [
			{
				"x": -1.2512862247,
				"y": 2.8956550093,
				"z": -1.0258273699,
				"element": "C" 
			},
			{
				"x": -1.0921723501,
				"y": 1.8883710504,
				"z": 0.0206769706,
				"element": "N" 
			},
			{
				"x": -0.5794101696,
				"y": 0.6023118099,
				"z": -0.4600419385,
				"element": "C" 
			},
			{
				"x": -0.8236093972,
				"y": -0.4723195624,
				"z": 0.5964233736,
				"element": "C" 
			},
			{
				"x": -1.4030264093,
				"y": -1.6963106351,
				"z": 0.2465475571,
				"element": "C" 
			},
			{
				"x": -1.6221962773,
				"y": -2.692297229,
				"z": 1.1997703976,
				"element": "C" 
			},
			{
				"x": -1.2600028234,
				"y": -2.4516645694,
				"z": 2.5230942824,
				"element": "C" 
			},
			{
				"x": -1.5345750175,
				"y": -3.6950125455,
				"z": 3.7362185514,
				"element": "Cl" 
			},
			{
				"x": -0.6858980122,
				"y": -1.2374618922,
				"z": 2.901660673,
				"element": "C" 
			},
			{
				"x": -0.469068131,
				"y": -0.256936338,
				"z": 1.9355481409,
				"element": "C" 
			},
			{
				"x": 0.9060048543,
				"y": 0.6975207898,
				"z": -0.8129649147,
				"element": "C" 
			},
			{
				"x": 1.7700469401,
				"y": 1.5817417952,
				"z": -0.1531421207,
				"element": "C" 
			},
			{
				"x": 3.084106575,
				"y": 1.6709405959,
				"z": -0.3957369324,
				"element": "N" 
			},
			{
				"x": 3.5956152783,
				"y": 0.8602129339,
				"z": -1.3294798454,
				"element": "C" 
			},
			{
				"x": 2.8291967764,
				"y": -0.0522533036,
				"z": -2.0562864921,
				"element": "C" 
			},
			{
				"x": 1.4639347212,
				"y": -0.1291461042,
				"z": -1.7921252531,
				"element": "C" 
			},
			{
				"x": -0.2712892399,
				"y": 3.1796642153,
				"z": -1.4202439678,
				"element": "H" 
			},
			{
				"x": -1.8708642334,
				"y": 2.5616223203,
				"z": -1.8771563093,
				"element": "H" 
			},
			{
				"x": -1.7100429954,
				"y": 3.7907451128,
				"z": -0.5965375292,
				"element": "H" 
			},
			{
				"x": -1.9846872702,
				"y": 1.7266180284,
				"z": 0.478148513,
				"element": "H" 
			},
			{
				"x": -1.1024127182,
				"y": 0.275216132,
				"z": -1.3795280052,
				"element": "H" 
			},
			{
				"x": -1.6940525653,
				"y": -1.879212151,
				"z": -0.7847288615,
				"element": "H" 
			},
			{
				"x": -2.073198059,
				"y": -3.6383065721,
				"z": 0.9212090687,
				"element": "H" 
			},
			{
				"x": -0.4110202487,
				"y": -1.0660932842,
				"z": 3.9366470203,
				"element": "H" 
			},
			{
				"x": -0.0242742114,
				"y": 0.6899088522,
				"z": 2.2238312395,
				"element": "H" 
			},
			{
				"x": 1.3668744282,
				"y": 2.2566641875,
				"z": 0.5979178067,
				"element": "H" 
			},
			{
				"x": 4.666101059,
				"y": 0.9470206891,
				"z": -1.5083788072,
				"element": "H" 
			},
			{
				"x": 3.2914113153,
				"y": -0.6811463767,
				"z": -2.8110151308,
				"element": "H" 
			},
			{
				"x": 0.8346944062,
				"y": -0.8263529589,
				"z": -2.3411001171,
				"element": "H" 
			}
		],
		 "valence_orbital": [ 
			{
				"type": "occ",
				"energy": -0.26662,
				"method": "rhf"
			},
			{
				"type": "occ",
				"energy": -0.2587,
				"method": "rhf"
			},
			{
				"type": "occ",
				"energy": -0.25353,
				"method": "rhf"
			},
			{
				"type": "occ",
				"energy": -0.24095,
				"method": "rhf"
			},
			{
				"type": "occ",
				"energy": -0.23316,
				"method": "rhf"
			},
			{
				"type": "unocc",
				"energy": -0.02785,
				"method": "rhf"
			},
			{
				"type": "unocc",
				"energy": -0.02405,
				"method": "rhf"
			},
			{
				"type": "unocc",
				"energy": -0.01304,
				"method": "rhf"
			},
			{
				"type": "unocc",
				"energy": -0.00053,
				"method": "rhf"
			},
			{
				"type": "unocc",
				"energy": 0.02902,
				"method": "rhf"
			}
		],
		"cosmo_sigma_profile": { 
			"-0.025": 0.0,
			"-0.024": 0.0,
			"-0.023": 0.0,
			"-0.022": 0.0,
			"-0.021": 0.0,
			"-0.02": 0.0,
			"-0.019": 0.0,
			"-0.018": 0.0,
			"-0.017": 0.0,
			"-0.016": 0.0,
			"-0.015": 0.0,
			"-0.014": 0.0,
			"-0.013": 0.0,
			"-0.012": 0.0,
			"-0.011": 0.179038519098,
			"-0.01": 0.734544104501,
			"-0.009": 1.20453282929,
			"-0.008": 1.09020379817,
			"-0.007": 6.98345305408,
			"-0.006": 16.7585098756,
			"-0.005": 18.0016965479,
			"-0.004": 19.9039263242,
			"-0.003": 21.0696273878,
			"-0.002": 22.6343100731,
			"-0.001": 20.3626156529,
			"0.0": 23.3629622088,
			"0.001": 19.5098584577,
			"0.002": 24.7227078309,
			"0.003": 29.7621367457,
			"0.004": 21.1344441263,
			"0.005": 11.2365206947,
			"0.006": 2.40830913148,
			"0.007": 2.10369356175,
			"0.008": 1.94326115128,
			"0.009": 2.41733898102,
			"0.01": 1.07458877767,
			"0.011": 1.1155612482,
			"0.012": 1.81965813631,
			"0.013": 0.853403297682,
			"0.014": 0.809730135311,
			"0.015": 1.26892756358,
			"0.016": 0.669228381707,
			"0.017": 0.653852855648,
			"0.018": 0.0273918517412,
			"0.019": 0.0,
			"0.02": 0.0,
			"0.021": 0.0,
			"0.022": 0.0,
			"0.023": 0.0,
			"0.024": 0.0,
			"0.025": 0.0
		}
	}
}
