{
	 "smiles": "FC1=CC(Br)=C(C=C1)C#N", 
	 "Tm": 349.15, 
	 "num_atms": 13, 
	 "gaussian": { 
		 "optdone": 1, 
		 "sigma_profile": "yes", 
		 "theory": "DFT", 
		 "functional": "B3LYP", 
		 "basiset": "6-31G**", 
		 "properties": { 
			 "R2extent": 4642.3924, 
			 "electric_dipole_moment_norm": 3.76213869362, 
			 "electric_quadrupole_moment_norm": 19.3559336489, 
			 "total_energy": -2994.51916781, 
			 "HOMO_LUMO_gap": 0.20387, 
			 "cosmo_polarized_energy": -8.6, 
			 "cosmo_cavitation_energy": 21.66, 
			 "cosmo_dispersion_energy": -15.64, 
			 "cosmo_repulsion_energy": 1.24, 
			 "cosmo_total_nonelectrostatic_energy": 7.26, 
			 "SMD_solvation_energy": 4.5 
		},
		"coords": [
			{
				"x": -0.3030829611,
				"y": -0.1171045811,
				"z": -3.8716932898,
				"element": "F" 
			},
			{
				"x": -0.4468526597,
				"y": 0.7326448128,
				"z": -2.8436622452,
				"element": "C" 
			},
			{
				"x": 0.6474428696,
				"y": 1.5017978826,
				"z": -2.4617665375,
				"element": "C" 
			},
			{
				"x": 0.5012682896,
				"y": 2.3840507241,
				"z": -1.3958147786,
				"element": "C" 
			},
			{
				"x": 1.9890032991,
				"y": 3.4362087787,
				"z": -0.8696562098,
				"element": "Br" 
			},
			{
				"x": -0.7281750686,
				"y": 2.4966729925,
				"z": -0.7171549458,
				"element": "C" 
			},
			{
				"x": -1.8092650088,
				"y": 1.698984132,
				"z": -1.137374763,
				"element": "C" 
			},
			{
				"x": -1.6781504776,
				"y": 0.813898253,
				"z": -2.1998546968,
				"element": "C" 
			},
			{
				"x": -0.9114685466,
				"y": 3.3938582424,
				"z": 0.382533568,
				"element": "C" 
			},
			{
				"x": -1.1055942391,
				"y": 4.108071124,
				"z": 1.2796337912,
				"element": "N" 
			},
			{
				"x": 1.58769736,
				"y": 1.4073772461,
				"z": -2.9901642304,
				"element": "H" 
			},
			{
				"x": -2.7553964843,
				"y": 1.7861576312,
				"z": -0.6145992611,
				"element": "H" 
			},
			{
				"x": -2.5035263725,
				"y": 0.1950827618,
				"z": -2.5318264011,
				"element": "H" 
			}
		],
		 "valence_orbital": [ 
			{
				"type": "occ",
				"energy": -0.34161,
				"method": "rhf"
			},
			{
				"type": "occ",
				"energy": -0.33729,
				"method": "rhf"
			},
			{
				"type": "occ",
				"energy": -0.30648,
				"method": "rhf"
			},
			{
				"type": "occ",
				"energy": -0.28187,
				"method": "rhf"
			},
			{
				"type": "occ",
				"energy": -0.26687,
				"method": "rhf"
			},
			{
				"type": "unocc",
				"energy": -0.063,
				"method": "rhf"
			},
			{
				"type": "unocc",
				"energy": -0.04731,
				"method": "rhf"
			},
			{
				"type": "unocc",
				"energy": -0.01722,
				"method": "rhf"
			},
			{
				"type": "unocc",
				"energy": 0.02649,
				"method": "rhf"
			},
			{
				"type": "unocc",
				"energy": 0.06707,
				"method": "rhf"
			}
		],
		"cosmo_sigma_profile": { 
			"-0.025": 0.0,
			"-0.024": 0.0,
			"-0.023": 0.0,
			"-0.022": 0.0,
			"-0.021": 0.0,
			"-0.02": 0.0,
			"-0.019": 0.0,
			"-0.018": 0.0,
			"-0.017": 0.0,
			"-0.016": 0.0,
			"-0.015": 0.0,
			"-0.014": 0.0,
			"-0.013": 0.0,
			"-0.012": 0.0,
			"-0.011": 0.0,
			"-0.01": 0.408060992187,
			"-0.009": 5.53298954038,
			"-0.008": 5.6455567528,
			"-0.007": 6.27969114144,
			"-0.006": 5.59366332904,
			"-0.005": 6.09909818508,
			"-0.004": 6.76472974387,
			"-0.003": 9.81888084933,
			"-0.002": 19.8181405161,
			"-0.001": 23.6782297569,
			"0.0": 16.9400681508,
			"0.001": 10.5428540008,
			"0.002": 11.6931738999,
			"0.003": 21.0243965362,
			"0.004": 5.42257123509,
			"0.005": 3.37736686258,
			"0.006": 2.42540636323,
			"0.007": 3.23025401499,
			"0.008": 3.29033048599,
			"0.009": 3.33093949128,
			"0.01": 3.12754024679,
			"0.011": 2.49991354782,
			"0.012": 2.32773904283,
			"0.013": 0.688763878614,
			"0.014": 0.0,
			"0.015": 0.0,
			"0.016": 0.0,
			"0.017": 0.0,
			"0.018": 0.0,
			"0.019": 0.0,
			"0.02": 0.0,
			"0.021": 0.0,
			"0.022": 0.0,
			"0.023": 0.0,
			"0.024": 0.0,
			"0.025": 0.0
		}
	}
}
