{
	 "smiles": "C[C@]12CCC3C(CC[C@H]4C[C@H](CC[C@]34C)OCC3=CC=CC=C3)C1CC[C@@H]2O", 
	 "Tm": 498.15, 
	 "num_atms": 66, 
	 "gaussian": { 
		 "optdone": 1, 
		 "sigma_profile": "yes", 
		 "theory": "DFT", 
		 "functional": "B3LYP", 
		 "basiset": "6-31G**", 
		 "properties": { 
			 "R2extent": 16560.7881, 
			 "electric_dipole_moment_norm": 2.19279344672, 
			 "electric_quadrupole_moment_norm": 13.5342945908, 
			 "total_energy": -1164.1170816, 
			 "HOMO_LUMO_gap": 0.23921, 
			 "cosmo_polarized_energy": -10.96, 
			 "cosmo_cavitation_energy": 56.85, 
			 "cosmo_dispersion_energy": -39.15, 
			 "cosmo_repulsion_energy": 2.88, 
			 "cosmo_total_nonelectrostatic_energy": 20.58, 
			 "SMD_solvation_energy": 7.41 
		},
		"coords": [
			{
				"x": -2.23407732,
				"y": 5.0972733433,
				"z": 0.0740614527,
				"element": "C" 
			},
			{
				"x": -0.9135015818,
				"y": 4.662064449,
				"z": -0.5853546396,
				"element": "C" 
			},
			{
				"x": -1.1953753554,
				"y": 3.6375549407,
				"z": -1.7337425138,
				"element": "C" 
			},
			{
				"x": -0.8670820232,
				"y": 2.1626304492,
				"z": -1.4011429356,
				"element": "C" 
			},
			{
				"x": -1.1053561283,
				"y": 1.8497248341,
				"z": 0.0824634601,
				"element": "C" 
			},
			{
				"x": -0.1472791241,
				"y": 2.6711546462,
				"z": 0.9738946361,
				"element": "C" 
			},
			{
				"x": -0.676006658,
				"y": 2.6568107754,
				"z": 2.4279991041,
				"element": "C" 
			},
			{
				"x": -1.2029451368,
				"y": 1.2565251434,
				"z": 2.8558879034,
				"element": "C" 
			},
			{
				"x": -0.618939314,
				"y": 0.1697748066,
				"z": 1.9436542768,
				"element": "C" 
			},
			{
				"x": -0.7378786299,
				"y": -1.2771751763,
				"z": 2.443864466,
				"element": "C" 
			},
			{
				"x": 0.1584237788,
				"y": -2.1789465697,
				"z": 1.5739696568,
				"element": "C" 
			},
			{
				"x": -0.1407603473,
				"y": -2.0323312605,
				"z": 0.0720632393,
				"element": "C" 
			},
			{
				"x": -0.1769666811,
				"y": -0.5588061154,
				"z": -0.3910782281,
				"element": "C" 
			},
			{
				"x": -1.1200570302,
				"y": 0.3200912043,
				"z": 0.4699018546,
				"element": "C" 
			},
			{
				"x": -2.5792230353,
				"y": -0.1605628687,
				"z": 0.2910771523,
				"element": "C" 
			},
			{
				"x": 0.1875145429,
				"y": -3.5369887217,
				"z": 2.0347161706,
				"element": "O" 
			},
			{
				"x": -0.9715003932,
				"y": -4.3331275447,
				"z": 1.8409290247,
				"element": "C" 
			},
			{
				"x": -0.8962824905,
				"y": -5.2414996796,
				"z": 0.6242069843,
				"element": "C" 
			},
			{
				"x": -2.0689503189,
				"y": -5.6967911577,
				"z": 0.0098479061,
				"element": "C" 
			},
			{
				"x": -2.0111898479,
				"y": -6.5790025306,
				"z": -1.070478482,
				"element": "C" 
			},
			{
				"x": -0.7752203211,
				"y": -7.0136948986,
				"z": -1.5527760409,
				"element": "C" 
			},
			{
				"x": 0.3989438341,
				"y": -6.5615221965,
				"z": -0.9465532971,
				"element": "C" 
			},
			{
				"x": 0.3387701319,
				"y": -5.6834936544,
				"z": 0.1364869146,
				"element": "C" 
			},
			{
				"x": 0.1219101522,
				"y": 4.1035176687,
				"z": 0.4349000087,
				"element": "C" 
			},
			{
				"x": 1.4870561758,
				"y": 4.2633360704,
				"z": -0.288621629,
				"element": "C" 
			},
			{
				"x": 1.3103358448,
				"y": 5.421977425,
				"z": -1.303788169,
				"element": "C" 
			},
			{
				"x": -0.1506414132,
				"y": 5.8883753377,
				"z": -1.1703799195,
				"element": "C" 
			},
			{
				"x": -0.1380761795,
				"y": 7.0075114217,
				"z": -0.2807529794,
				"element": "O" 
			},
			{
				"x": -2.8034748735,
				"y": 4.2429953993,
				"z": 0.449777343,
				"element": "H" 
			},
			{
				"x": -2.0550548473,
				"y": 5.7676701608,
				"z": 0.9206840136,
				"element": "H" 
			},
			{
				"x": -2.8799920459,
				"y": 5.615477669,
				"z": -0.6477017379,
				"element": "H" 
			},
			{
				"x": -2.25607001,
				"y": 3.7108260502,
				"z": -2.0029648713,
				"element": "H" 
			},
			{
				"x": -0.6455541651,
				"y": 3.9227207714,
				"z": -2.6389167291,
				"element": "H" 
			},
			{
				"x": 0.1755166553,
				"y": 1.9407665539,
				"z": -1.6582797206,
				"element": "H" 
			},
			{
				"x": -1.4779611459,
				"y": 1.5144285331,
				"z": -2.0404936879,
				"element": "H" 
			},
			{
				"x": -2.1184178868,
				"y": 2.210491872,
				"z": 0.3113134756,
				"element": "H" 
			},
			{
				"x": 0.8245025952,
				"y": 2.1594512633,
				"z": 0.9705264588,
				"element": "H" 
			},
			{
				"x": -1.4744821855,
				"y": 3.4015120952,
				"z": 2.5308945274,
				"element": "H" 
			},
			{
				"x": 0.1282768834,
				"y": 2.9799352903,
				"z": 3.1005490927,
				"element": "H" 
			},
			{
				"x": -0.9345496642,
				"y": 1.0538561839,
				"z": 3.8992405462,
				"element": "H" 
			},
			{
				"x": -2.2989978919,
				"y": 1.2299777371,
				"z": 2.8183345511,
				"element": "H" 
			},
			{
				"x": 0.4637914656,
				"y": 0.3618663329,
				"z": 1.9138901161,
				"element": "H" 
			},
			{
				"x": -1.7796986713,
				"y": -1.6181787526,
				"z": 2.4295532869,
				"element": "H" 
			},
			{
				"x": -0.3975691953,
				"y": -1.3499208609,
				"z": 3.4837547099,
				"element": "H" 
			},
			{
				"x": 1.1925370722,
				"y": -1.8487727006,
				"z": 1.7400912989,
				"element": "H" 
			},
			{
				"x": 0.6172138435,
				"y": -2.5817553151,
				"z": -0.4965705289,
				"element": "H" 
			},
			{
				"x": -1.0962012015,
				"y": -2.5131300833,
				"z": -0.1629437394,
				"element": "H" 
			},
			{
				"x": 0.8390904536,
				"y": -0.1427470761,
				"z": -0.34561937,
				"element": "H" 
			},
			{
				"x": -0.47329774,
				"y": -0.5328659796,
				"z": -1.4456228066,
				"element": "H" 
			},
			{
				"x": -3.2538505466,
				"y": 0.344054201,
				"z": 0.9907838221,
				"element": "H" 
			},
			{
				"x": -2.7068452056,
				"y": -1.2357651077,
				"z": 0.4323629666,
				"element": "H" 
			},
			{
				"x": -2.9269520958,
				"y": 0.0734805752,
				"z": -0.721636599,
				"element": "H" 
			},
			{
				"x": -1.0600545454,
				"y": -4.9537958968,
				"z": 2.7433866734,
				"element": "H" 
			},
			{
				"x": -1.8850716984,
				"y": -3.7253695115,
				"z": 1.7933812817,
				"element": "H" 
			},
			{
				"x": -3.0355953044,
				"y": -5.3571787175,
				"z": 0.376761843,
				"element": "H" 
			},
			{
				"x": -2.9301032091,
				"y": -6.9202102603,
				"z": -1.5394129116,
				"element": "H" 
			},
			{
				"x": -0.7275373907,
				"y": -7.6966432214,
				"z": -2.3962403943,
				"element": "H" 
			},
			{
				"x": 1.3646074385,
				"y": -6.8942478849,
				"z": -1.3177220609,
				"element": "H" 
			},
			{
				"x": 1.2462486988,
				"y": -5.3230407647,
				"z": 0.6099740701,
				"element": "H" 
			},
			{
				"x": 0.1275055865,
				"y": 4.7998526901,
				"z": 1.2823299038,
				"element": "H" 
			},
			{
				"x": 2.2895289516,
				"y": 4.4584172525,
				"z": 0.4299828449,
				"element": "H" 
			},
			{
				"x": 1.7573266916,
				"y": 3.3373121344,
				"z": -0.8071104851,
				"element": "H" 
			},
			{
				"x": 1.5159770674,
				"y": 5.0869262165,
				"z": -2.3250321196,
				"element": "H" 
			},
			{
				"x": 1.9686485661,
				"y": 6.2711244439,
				"z": -1.104439748,
				"element": "H" 
			},
			{
				"x": -0.5812158799,
				"y": 6.1895332766,
				"z": -2.1389701453,
				"element": "H" 
			},
			{
				"x": -1.0386697001,
				"y": 7.349765289,
				"z": -0.2188505476,
				"element": "H" 
			}
		],
		 "valence_orbital": [ 
			{
				"type": "occ",
				"energy": -0.26937,
				"method": "rhf"
			},
			{
				"type": "occ",
				"energy": -0.25314,
				"method": "rhf"
			},
			{
				"type": "occ",
				"energy": -0.24709,
				"method": "rhf"
			},
			{
				"type": "occ",
				"energy": -0.24235,
				"method": "rhf"
			},
			{
				"type": "occ",
				"energy": -0.23656,
				"method": "rhf"
			},
			{
				"type": "unocc",
				"energy": 0.00265,
				"method": "rhf"
			},
			{
				"type": "unocc",
				"energy": 0.00362,
				"method": "rhf"
			},
			{
				"type": "unocc",
				"energy": 0.06485,
				"method": "rhf"
			},
			{
				"type": "unocc",
				"energy": 0.07438,
				"method": "rhf"
			},
			{
				"type": "unocc",
				"energy": 0.07809,
				"method": "rhf"
			}
		],
		"cosmo_sigma_profile": { 
			"-0.025": 0.0,
			"-0.024": 0.0,
			"-0.023": 0.0,
			"-0.022": 0.0,
			"-0.021": 0.0,
			"-0.02": 0.0,
			"-0.019": 0.0,
			"-0.018": 0.0,
			"-0.017": 0.0,
			"-0.016": 0.0,
			"-0.015": 0.0,
			"-0.014": 0.353529285578,
			"-0.013": 0.695998987846,
			"-0.012": 1.26592367306,
			"-0.011": 0.827844659673,
			"-0.01": 0.710252167405,
			"-0.009": 0.853249904208,
			"-0.008": 1.21873949596,
			"-0.007": 1.00100247529,
			"-0.006": 3.15584442901,
			"-0.005": 15.3142355782,
			"-0.004": 18.8112769882,
			"-0.003": 33.3218345881,
			"-0.002": 65.9154359597,
			"-0.001": 72.4551382813,
			"0.0": 67.8854209567,
			"0.001": 52.6323630415,
			"0.002": 33.2060639382,
			"0.003": 12.4976754626,
			"0.004": 11.5367141497,
			"0.005": 10.7911646979,
			"0.006": 10.5448385649,
			"0.007": 5.40979758509,
			"0.008": 3.12664340541,
			"0.009": 2.04844362322,
			"0.01": 2.26554519516,
			"0.011": 1.98701727224,
			"0.012": 2.25332584458,
			"0.013": 2.48048116645,
			"0.014": 2.33672902775,
			"0.015": 0.532378670916,
			"0.016": 0.0,
			"0.017": 0.0,
			"0.018": 0.0,
			"0.019": 0.0,
			"0.02": 0.0,
			"0.021": 0.0,
			"0.022": 0.0,
			"0.023": 0.0,
			"0.024": 0.0,
			"0.025": 0.0
		}
	}
}
