{
	 "smiles": "CN1C2=CC=CC=C2C(=O)C2=C1C=CC=C2", 
	 "Tm": 479.15, 
	 "num_atms": 27, 
	 "gaussian": { 
		 "optdone": 1, 
		 "sigma_profile": "yes", 
		 "theory": "DFT", 
		 "functional": "B3LYP", 
		 "basiset": "6-31G**", 
		 "properties": { 
			 "R2extent": 3370.1083, 
			 "electric_dipole_moment_norm": 5.10318965158, 
			 "electric_quadrupole_moment_norm": 11.09320198, 
			 "total_energy": -670.117257964, 
			 "HOMO_LUMO_gap": 0.14908, 
			 "cosmo_polarized_energy": -12.98, 
			 "cosmo_cavitation_energy": 29.53, 
			 "cosmo_dispersion_energy": -22.31, 
			 "cosmo_repulsion_energy": 1.66, 
			 "cosmo_total_nonelectrostatic_energy": 8.88, 
			 "SMD_solvation_energy": 4.98 
		},
		"coords": [
			{
				"x": 0.492960671,
				"y": 2.6211570704,
				"z": 0.6383163197,
				"element": "C" 
			},
			{
				"x": 0.0959671619,
				"y": 1.2757242774,
				"z": 0.2321291749,
				"element": "N" 
			},
			{
				"x": 1.0375296637,
				"y": 0.4268761293,
				"z": -0.3540195593,
				"element": "C" 
			},
			{
				"x": 2.3017759509,
				"y": 0.9039109995,
				"z": -0.768735219,
				"element": "C" 
			},
			{
				"x": 3.2342228444,
				"y": 0.0386297927,
				"z": -1.3241041164,
				"element": "C" 
			},
			{
				"x": 2.9491644949,
				"y": -1.3235363319,
				"z": -1.4945080422,
				"element": "C" 
			},
			{
				"x": 1.7051494652,
				"y": -1.7968889947,
				"z": -1.1137654614,
				"element": "C" 
			},
			{
				"x": 0.7406597965,
				"y": -0.9438421862,
				"z": -0.5529621668,
				"element": "C" 
			},
			{
				"x": -0.575946977,
				"y": -1.4996626228,
				"z": -0.1934221934,
				"element": "C" 
			},
			{
				"x": -0.8403479583,
				"y": -2.6991274861,
				"z": -0.3043854571,
				"element": "O" 
			},
			{
				"x": -1.5663476275,
				"y": -0.5113812365,
				"z": 0.2692651875,
				"element": "C" 
			},
			{
				"x": -1.216204411,
				"y": 0.8493629065,
				"z": 0.4491538132,
				"element": "C" 
			},
			{
				"x": -2.2281951944,
				"y": 1.7530782943,
				"z": 0.845432099,
				"element": "C" 
			},
			{
				"x": -3.5201802827,
				"y": 1.3047536471,
				"z": 1.082884711,
				"element": "C" 
			},
			{
				"x": -3.8585359858,
				"y": -0.0474500672,
				"z": 0.9316922639,
				"element": "C" 
			},
			{
				"x": -2.8808164117,
				"y": -0.9372523384,
				"z": 0.5207165959,
				"element": "C" 
			},
			{
				"x": 0.3478520383,
				"y": 3.3620823092,
				"z": -0.1580232681,
				"element": "H" 
			},
			{
				"x": -0.0840652512,
				"y": 2.9237152287,
				"z": 1.5117654807,
				"element": "H" 
			},
			{
				"x": 1.5423946473,
				"y": 2.6188762322,
				"z": 0.931753386,
				"element": "H" 
			},
			{
				"x": 2.5511719906,
				"y": 1.9542252751,
				"z": -0.6877896711,
				"element": "H" 
			},
			{
				"x": 4.19543416,
				"y": 0.4359878966,
				"z": -1.6382710266,
				"element": "H" 
			},
			{
				"x": 3.6877535657,
				"y": -1.9901312738,
				"z": -1.9280388066,
				"element": "H" 
			},
			{
				"x": 1.423529781,
				"y": -2.8379523293,
				"z": -1.2344752606,
				"element": "H" 
			},
			{
				"x": -2.0195812093,
				"y": 2.8110599467,
				"z": 0.9406142969,
				"element": "H" 
			},
			{
				"x": -4.277708932,
				"y": 2.024291622,
				"z": 1.3811055643,
				"element": "H" 
			},
			{
				"x": -4.8719353225,
				"y": -0.3856514918,
				"z": 1.1226195286,
				"element": "H" 
			},
			{
				"x": -3.087600668,
				"y": -1.9923552689,
				"z": 0.3734518268,
				"element": "H" 
			}
		],
		 "valence_orbital": [ 
			{
				"type": "occ",
				"energy": -0.26115,
				"method": "rhf"
			},
			{
				"type": "occ",
				"energy": -0.2535,
				"method": "rhf"
			},
			{
				"type": "occ",
				"energy": -0.25271,
				"method": "rhf"
			},
			{
				"type": "occ",
				"energy": -0.23386,
				"method": "rhf"
			},
			{
				"type": "occ",
				"energy": -0.20488,
				"method": "rhf"
			},
			{
				"type": "unocc",
				"energy": -0.0558,
				"method": "rhf"
			},
			{
				"type": "unocc",
				"energy": -0.01577,
				"method": "rhf"
			},
			{
				"type": "unocc",
				"energy": -0.00201,
				"method": "rhf"
			},
			{
				"type": "unocc",
				"energy": 0.01911,
				"method": "rhf"
			},
			{
				"type": "unocc",
				"energy": 0.07005,
				"method": "rhf"
			}
		],
		"cosmo_sigma_profile": { 
			"-0.025": 0.0,
			"-0.024": 0.0,
			"-0.023": 0.0,
			"-0.022": 0.0,
			"-0.021": 0.0,
			"-0.02": 0.0,
			"-0.019": 0.0,
			"-0.018": 0.0,
			"-0.017": 0.0,
			"-0.016": 0.0,
			"-0.015": 0.0,
			"-0.014": 0.0,
			"-0.013": 0.0,
			"-0.012": 0.0,
			"-0.011": 0.0,
			"-0.01": 0.0,
			"-0.009": 0.0,
			"-0.008": 2.02147839167,
			"-0.007": 7.01647348942,
			"-0.006": 15.9751031646,
			"-0.005": 23.1738196535,
			"-0.004": 21.2277079702,
			"-0.003": 18.636848743,
			"-0.002": 13.6983301283,
			"-0.001": 13.4336321245,
			"0.0": 16.9362690254,
			"0.001": 14.7086866568,
			"0.002": 18.489933932,
			"0.003": 21.7025384447,
			"0.004": 21.2568198584,
			"0.005": 9.36503987874,
			"0.006": 2.15642017939,
			"0.007": 1.56548328872,
			"0.008": 2.31138693227,
			"0.009": 1.0781997132,
			"0.01": 1.60583083774,
			"0.011": 1.73095515457,
			"0.012": 1.81355447181,
			"0.013": 4.04113369515,
			"0.014": 3.49116683897,
			"0.015": 0.0,
			"0.016": 0.0,
			"0.017": 0.0,
			"0.018": 0.0,
			"0.019": 0.0,
			"0.02": 0.0,
			"0.021": 0.0,
			"0.022": 0.0,
			"0.023": 0.0,
			"0.024": 0.0,
			"0.025": 0.0
		}
	}
}
