{
	 "smiles": "O=CC1=C2C=CC=NC2=CC=C1", 
	 "Tm": 369.15, 
	 "num_atms": 19, 
	 "gaussian": { 
		 "optdone": 1, 
		 "sigma_profile": "yes", 
		 "theory": "DFT", 
		 "functional": "B3LYP", 
		 "basiset": "6-31G**", 
		 "properties": { 
			 "R2extent": 2186.6175, 
			 "electric_dipole_moment_norm": 2.0734887774, 
			 "electric_quadrupole_moment_norm": 15.7900986406, 
			 "total_energy": -515.249965988, 
			 "HOMO_LUMO_gap": 0.16322, 
			 "cosmo_polarized_energy": -9.88, 
			 "cosmo_cavitation_energy": 23.36, 
			 "cosmo_dispersion_energy": -17.47, 
			 "cosmo_repulsion_energy": 1.35, 
			 "cosmo_total_nonelectrostatic_energy": 7.23, 
			 "SMD_solvation_energy": 3.5 
		},
		"coords": [
			{
				"x": -2.9256679897,
				"y": 3.2682564731,
				"z": 0.7565135707,
				"element": "O" 
			},
			{
				"x": -1.8826446237,
				"y": 2.9095482002,
				"z": 0.2388706235,
				"element": "C" 
			},
			{
				"x": -1.3463061557,
				"y": 1.5292839034,
				"z": 0.3310501009,
				"element": "C" 
			},
			{
				"x": -0.1138676451,
				"y": 1.1335194254,
				"z": -0.2886698295,
				"element": "C" 
			},
			{
				"x": 0.7285634999,
				"y": 1.9890494791,
				"z": -1.0495817227,
				"element": "C" 
			},
			{
				"x": 1.8881330835,
				"y": 1.4900551228,
				"z": -1.5948311465,
				"element": "C" 
			},
			{
				"x": 2.2180629425,
				"y": 0.1289646298,
				"z": -1.3848418529,
				"element": "C" 
			},
			{
				"x": 1.4744259273,
				"y": -0.7055327629,
				"z": -0.6893334149,
				"element": "N" 
			},
			{
				"x": 0.3195093996,
				"y": -0.226323493,
				"z": -0.1409566786,
				"element": "C" 
			},
			{
				"x": -0.4732153543,
				"y": -1.1370077104,
				"z": 0.6067050111,
				"element": "C" 
			},
			{
				"x": -1.6528800355,
				"y": -0.7304717775,
				"z": 1.1915696521,
				"element": "C" 
			},
			{
				"x": -2.0851753586,
				"y": 0.6024086506,
				"z": 1.0512802115,
				"element": "C" 
			},
			{
				"x": -1.2802709087,
				"y": 3.6371240895,
				"z": -0.3402306006,
				"element": "H" 
			},
			{
				"x": 0.4679334298,
				"y": 3.0298116819,
				"z": -1.2051268194,
				"element": "H" 
			},
			{
				"x": 2.5482668263,
				"y": 2.1226481278,
				"z": -2.1797748302,
				"element": "H" 
			},
			{
				"x": 3.134335655,
				"y": -0.276661485,
				"z": -1.8123260351,
				"element": "H" 
			},
			{
				"x": -0.1088809732,
				"y": -2.1554708368,
				"z": 0.6935153084,
				"element": "H" 
			},
			{
				"x": -2.2526283031,
				"y": -1.4336185132,
				"z": 1.7614469771,
				"element": "H" 
			},
			{
				"x": -3.0116934163,
				"y": 0.9392167951,
				"z": 1.5054214753,
				"element": "H" 
			}
		],
		 "valence_orbital": [ 
			{
				"type": "occ",
				"energy": -0.31714,
				"method": "rhf"
			},
			{
				"type": "occ",
				"energy": -0.27313,
				"method": "rhf"
			},
			{
				"type": "occ",
				"energy": -0.26517,
				"method": "rhf"
			},
			{
				"type": "occ",
				"energy": -0.25276,
				"method": "rhf"
			},
			{
				"type": "occ",
				"energy": -0.2466,
				"method": "rhf"
			},
			{
				"type": "unocc",
				"energy": -0.08338,
				"method": "rhf"
			},
			{
				"type": "unocc",
				"energy": -0.03575,
				"method": "rhf"
			},
			{
				"type": "unocc",
				"energy": -0.02828,
				"method": "rhf"
			},
			{
				"type": "unocc",
				"energy": 0.04304,
				"method": "rhf"
			},
			{
				"type": "unocc",
				"energy": 0.08264,
				"method": "rhf"
			}
		],
		"cosmo_sigma_profile": { 
			"-0.025": 0.0,
			"-0.024": 0.0,
			"-0.023": 0.0,
			"-0.022": 0.0,
			"-0.021": 0.0,
			"-0.02": 0.0,
			"-0.019": 0.0,
			"-0.018": 0.0,
			"-0.017": 0.0,
			"-0.016": 0.0,
			"-0.015": 0.0,
			"-0.014": 0.0,
			"-0.013": 0.0,
			"-0.012": 0.0,
			"-0.011": 0.0,
			"-0.01": 0.854445650223,
			"-0.009": 2.47458014348,
			"-0.008": 3.00450360112,
			"-0.007": 9.31828549946,
			"-0.006": 15.2021960056,
			"-0.005": 13.36418028,
			"-0.004": 11.2834336175,
			"-0.003": 10.5974857776,
			"-0.002": 8.40574873728,
			"-0.001": 11.9200098503,
			"0.0": 17.3442411059,
			"0.001": 24.3248217047,
			"0.002": 18.7193781619,
			"0.003": 7.85829957491,
			"0.004": 4.24531291996,
			"0.005": 3.15872378003,
			"0.006": 2.47763151677,
			"0.007": 3.42340524309,
			"0.008": 2.85892611468,
			"0.009": 2.72588547799,
			"0.01": 3.2956339454,
			"0.011": 5.38135894175,
			"0.012": 3.6997235005,
			"0.013": 1.31125311418,
			"0.014": 0.515122403609,
			"0.015": 1.05069622932,
			"0.016": 0.135820396655,
			"0.017": 0.0,
			"0.018": 0.0,
			"0.019": 0.0,
			"0.02": 0.0,
			"0.021": 0.0,
			"0.022": 0.0,
			"0.023": 0.0,
			"0.024": 0.0,
			"0.025": 0.0
		}
	}
}
