{
	 "smiles": "ClC1=CC=C(NC(=O)NC2=CC=C(Cl)C=C2)C=C1", 
	 "Tm": 543.15, 
	 "num_atms": 28, 
	 "gaussian": { 
		 "optdone": 1, 
		 "sigma_profile": "yes", 
		 "theory": "DFT", 
		 "functional": "B3LYP", 
		 "basiset": "6-31G**", 
		 "properties": { 
			 "R2extent": 9938.1561, 
			 "electric_dipole_moment_norm": 3.58302162009, 
			 "electric_quadrupole_moment_norm": 12.6503371121, 
			 "total_energy": -1606.55159466, 
			 "HOMO_LUMO_gap": 0.18311, 
			 "cosmo_polarized_energy": -15.14, 
			 "cosmo_cavitation_energy": 36.79, 
			 "cosmo_dispersion_energy": -26.89, 
			 "cosmo_repulsion_energy": 2.07, 
			 "cosmo_total_nonelectrostatic_energy": 11.97, 
			 "SMD_solvation_energy": 6.25 
		},
		"coords": [
			{
				"x": 0.6891530609,
				"y": 1.9808682812,
				"z": 5.8368880863,
				"element": "Cl" 
			},
			{
				"x": 0.6016092173,
				"y": 1.8863095659,
				"z": 4.0863661634,
				"element": "C" 
			},
			{
				"x": 1.7630935962,
				"y": 2.0363967268,
				"z": 3.3275863155,
				"element": "C" 
			},
			{
				"x": 1.6923655988,
				"y": 1.9426857375,
				"z": 1.9406108847,
				"element": "C" 
			},
			{
				"x": 0.4647834277,
				"y": 1.7223118755,
				"z": 1.2960593778,
				"element": "C" 
			},
			{
				"x": 0.4271434388,
				"y": 1.6792733947,
				"z": -0.1129571639,
				"element": "N" 
			},
			{
				"x": -0.2545728428,
				"y": 0.8306527212,
				"z": -0.9873679008,
				"element": "C" 
			},
			{
				"x": -0.2128842716,
				"y": 1.0376103691,
				"z": -2.1925837828,
				"element": "O" 
			},
			{
				"x": -0.9194570094,
				"y": -0.2173107246,
				"z": -0.3848695874,
				"element": "N" 
			},
			{
				"x": -1.6973939835,
				"y": -1.2146300591,
				"z": -1.0063824126,
				"element": "C" 
			},
			{
				"x": -2.1973027054,
				"y": -2.2395523409,
				"z": -0.1871411871,
				"element": "C" 
			},
			{
				"x": -2.9870101799,
				"y": -3.256354221,
				"z": -0.7147645064,
				"element": "C" 
			},
			{
				"x": -3.2837765899,
				"y": -3.2518127944,
				"z": -2.0765748872,
				"element": "C" 
			},
			{
				"x": -4.2813460597,
				"y": -4.5327379717,
				"z": -2.7540106662,
				"element": "Cl" 
			},
			{
				"x": -2.7948116043,
				"y": -2.2424189336,
				"z": -2.9030399388,
				"element": "C" 
			},
			{
				"x": -2.0025542752,
				"y": -1.2232685823,
				"z": -2.3763071482,
				"element": "C" 
			},
			{
				"x": -0.6981331038,
				"y": 1.6055675533,
				"z": 2.0755261467,
				"element": "C" 
			},
			{
				"x": -0.6278970883,
				"y": 1.6697365706,
				"z": 3.4668982814,
				"element": "C" 
			},
			{
				"x": 2.7145738005,
				"y": 2.2087807191,
				"z": 3.8182495886,
				"element": "H" 
			},
			{
				"x": 2.5978286087,
				"y": 2.0336919677,
				"z": 1.3476568258,
				"element": "H" 
			},
			{
				"x": 1.0521272979,
				"y": 2.291209038,
				"z": -0.6190028165,
				"element": "H" 
			},
			{
				"x": -0.7610653515,
				"y": -0.3475168568,
				"z": 0.6042077099,
				"element": "H" 
			},
			{
				"x": -1.9662195044,
				"y": -2.2448347502,
				"z": 0.8756011903,
				"element": "H" 
			},
			{
				"x": -3.3673206745,
				"y": -4.0439919526,
				"z": -0.0739775821,
				"element": "H" 
			},
			{
				"x": -3.0293517244,
				"y": -2.2487596473,
				"z": -3.9618813102,
				"element": "H" 
			},
			{
				"x": -1.6132060911,
				"y": -0.442159105,
				"z": -3.0133106547,
				"element": "H" 
			},
			{
				"x": -1.6642213158,
				"y": 1.4973215309,
				"z": 1.5938742423,
				"element": "H" 
			},
			{
				"x": -1.5286536714,
				"y": 1.5785318879,
				"z": 4.0637467324,
				"element": "H" 
			}
		],
		 "valence_orbital": [ 
			{
				"type": "occ",
				"energy": -0.28452,
				"method": "rhf"
			},
			{
				"type": "occ",
				"energy": -0.27593,
				"method": "rhf"
			},
			{
				"type": "occ",
				"energy": -0.26347,
				"method": "rhf"
			},
			{
				"type": "occ",
				"energy": -0.24149,
				"method": "rhf"
			},
			{
				"type": "occ",
				"energy": -0.21978,
				"method": "rhf"
			},
			{
				"type": "unocc",
				"energy": -0.03667,
				"method": "rhf"
			},
			{
				"type": "unocc",
				"energy": -0.03522,
				"method": "rhf"
			},
			{
				"type": "unocc",
				"energy": -0.01371,
				"method": "rhf"
			},
			{
				"type": "unocc",
				"energy": -0.00896,
				"method": "rhf"
			},
			{
				"type": "unocc",
				"energy": 0.01707,
				"method": "rhf"
			}
		],
		"cosmo_sigma_profile": { 
			"-0.025": 0.0,
			"-0.024": 0.0,
			"-0.023": 0.0,
			"-0.022": 0.0,
			"-0.021": 0.0,
			"-0.02": 0.0,
			"-0.019": 0.0,
			"-0.018": 0.0,
			"-0.017": 0.0,
			"-0.016": 0.0,
			"-0.015": 0.231747529436,
			"-0.014": 1.45638049814,
			"-0.013": 2.33800741518,
			"-0.012": 2.11577780816,
			"-0.011": 2.15103101817,
			"-0.01": 2.38438452128,
			"-0.009": 3.05583487443,
			"-0.008": 5.13669591732,
			"-0.007": 14.5821953738,
			"-0.006": 15.3522961409,
			"-0.005": 13.6288668223,
			"-0.004": 12.2067510292,
			"-0.003": 12.6935597093,
			"-0.002": 15.4250497135,
			"-0.001": 16.277349161,
			"0.0": 20.4719519325,
			"0.001": 25.5443988988,
			"0.002": 33.2798153966,
			"0.003": 36.4568284563,
			"0.004": 30.6418443116,
			"0.005": 18.286749305,
			"0.006": 2.08841796537,
			"0.007": 1.66113691842,
			"0.008": 1.27737254106,
			"0.009": 0.801271874143,
			"0.01": 2.1826004621,
			"0.011": 1.50419318938,
			"0.012": 2.64443199611,
			"0.013": 3.36563249027,
			"0.014": 1.10693854729,
			"0.015": 0.0,
			"0.016": 0.0,
			"0.017": 0.0,
			"0.018": 0.0,
			"0.019": 0.0,
			"0.02": 0.0,
			"0.021": 0.0,
			"0.022": 0.0,
			"0.023": 0.0,
			"0.024": 0.0,
			"0.025": 0.0
		}
	}
}
