{
	 "smiles": "OC(=O)C1(CCCCC1)C1=CC=C(Cl)C=C1", 
	 "Tm": 425.15, 
	 "num_atms": 31, 
	 "gaussian": { 
		 "optdone": 1, 
		 "sigma_profile": "yes", 
		 "theory": "DFT", 
		 "functional": "B3LYP", 
		 "basiset": "6-31G**", 
		 "properties": { 
			 "R2extent": 5093.4193, 
			 "electric_dipole_moment_norm": 2.14927690864, 
			 "electric_quadrupole_moment_norm": 8.59338197568, 
			 "total_energy": -1115.08410617, 
			 "HOMO_LUMO_gap": 0.21995, 
			 "cosmo_polarized_energy": -9.81, 
			 "cosmo_cavitation_energy": 33.45, 
			 "cosmo_dispersion_energy": -24.06, 
			 "cosmo_repulsion_energy": 1.88, 
			 "cosmo_total_nonelectrostatic_energy": 11.27, 
			 "SMD_solvation_energy": 5.71 
		},
		"coords": [
			{
				"x": -3.2295490408,
				"y": -1.7826389129,
				"z": 1.4937839298,
				"element": "O" 
			},
			{
				"x": -2.8857229303,
				"y": -0.6266295745,
				"z": 0.8770234123,
				"element": "C" 
			},
			{
				"x": -3.695481555,
				"y": 0.046723237,
				"z": 0.275544793,
				"element": "O" 
			},
			{
				"x": -1.3892169005,
				"y": -0.3196398168,
				"z": 1.0163076914,
				"element": "C" 
			},
			{
				"x": -1.140712514,
				"y": 1.1556950173,
				"z": 0.6131487931,
				"element": "C" 
			},
			{
				"x": 0.3544293767,
				"y": 1.5312091322,
				"z": 0.6568269517,
				"element": "C" 
			},
			{
				"x": 1.1066748523,
				"y": 0.8652144832,
				"z": 1.8353727724,
				"element": "C" 
			},
			{
				"x": 0.1427480456,
				"y": 0.4865797672,
				"z": 2.9669396922,
				"element": "C" 
			},
			{
				"x": -0.9743783506,
				"y": -0.4876191575,
				"z": 2.5143732467,
				"element": "C" 
			},
			{
				"x": -0.6822358884,
				"y": -1.27472218,
				"z": 0.0239693983,
				"element": "C" 
			},
			{
				"x": 0.2985446538,
				"y": -2.2031090015,
				"z": 0.392360336,
				"element": "C" 
			},
			{
				"x": 0.9056232262,
				"y": -3.0370220555,
				"z": -0.5494664014,
				"element": "C" 
			},
			{
				"x": 0.5239581507,
				"y": -2.9511251922,
				"z": -1.8848495943,
				"element": "C" 
			},
			{
				"x": 1.281819962,
				"y": -3.9975697139,
				"z": -3.0770921172,
				"element": "Cl" 
			},
			{
				"x": -0.4567836962,
				"y": -2.0449787345,
				"z": -2.2856493433,
				"element": "C" 
			},
			{
				"x": -1.0474705979,
				"y": -1.218937989,
				"z": -1.3323642091,
				"element": "C" 
			},
			{
				"x": -4.1795802365,
				"y": -1.9036058226,
				"z": 1.3275246465,
				"element": "H" 
			},
			{
				"x": -1.7085345886,
				"y": 1.7847972661,
				"z": 1.3086370405,
				"element": "H" 
			},
			{
				"x": -1.5599530187,
				"y": 1.357417218,
				"z": -0.3747492493,
				"element": "H" 
			},
			{
				"x": 0.8333729561,
				"y": 1.251919905,
				"z": -0.2876037327,
				"element": "H" 
			},
			{
				"x": 0.429585819,
				"y": 2.6222802163,
				"z": 0.7284790351,
				"element": "H" 
			},
			{
				"x": 1.6234442571,
				"y": -0.0342009082,
				"z": 1.4837739826,
				"element": "H" 
			},
			{
				"x": 1.8860308889,
				"y": 1.5345014507,
				"z": 2.2160248465,
				"element": "H" 
			},
			{
				"x": -0.3156960196,
				"y": 1.4036207762,
				"z": 3.3578408217,
				"element": "H" 
			},
			{
				"x": 0.6905102972,
				"y": 0.0437279885,
				"z": 3.8064162831,
				"element": "H" 
			},
			{
				"x": -1.8581322113,
				"y": -0.3090995341,
				"z": 3.1349085839,
				"element": "H" 
			},
			{
				"x": -0.6977108043,
				"y": -1.5253176547,
				"z": 2.7133623687,
				"element": "H" 
			},
			{
				"x": 0.6137222442,
				"y": -2.2929943614,
				"z": 1.4250258168,
				"element": "H" 
			},
			{
				"x": 1.6667498264,
				"y": -3.7469979293,
				"z": -0.2449444044,
				"element": "H" 
			},
			{
				"x": -0.7548744087,
				"y": -1.9884645135,
				"z": -3.3268210478,
				"element": "H" 
			},
			{
				"x": -1.8213817948,
				"y": -0.5275134057,
				"z": -1.6518043428,
				"element": "H" 
			}
		],
		 "valence_orbital": [ 
			{
				"type": "occ",
				"energy": -0.30795,
				"method": "rhf"
			},
			{
				"type": "occ",
				"energy": -0.30445,
				"method": "rhf"
			},
			{
				"type": "occ",
				"energy": -0.2764,
				"method": "rhf"
			},
			{
				"type": "occ",
				"energy": -0.2642,
				"method": "rhf"
			},
			{
				"type": "occ",
				"energy": -0.24138,
				"method": "rhf"
			},
			{
				"type": "unocc",
				"energy": -0.02143,
				"method": "rhf"
			},
			{
				"type": "unocc",
				"energy": -0.01809,
				"method": "rhf"
			},
			{
				"type": "unocc",
				"energy": 0.01654,
				"method": "rhf"
			},
			{
				"type": "unocc",
				"energy": 0.02994,
				"method": "rhf"
			},
			{
				"type": "unocc",
				"energy": 0.06947,
				"method": "rhf"
			}
		],
		"cosmo_sigma_profile": { 
			"-0.025": 0.0,
			"-0.024": 0.0,
			"-0.023": 0.0,
			"-0.022": 0.0,
			"-0.021": 0.0,
			"-0.02": 0.0,
			"-0.019": 0.0,
			"-0.018": 0.58376983638,
			"-0.017": 0.911573589976,
			"-0.016": 0.821399714162,
			"-0.015": 1.06092246902,
			"-0.014": 0.779972554545,
			"-0.013": 0.645491450305,
			"-0.012": 0.499355851818,
			"-0.011": 0.638249777257,
			"-0.01": 1.0990579964,
			"-0.009": 0.484143146764,
			"-0.008": 0.397138352829,
			"-0.007": 5.32708671953,
			"-0.006": 8.13185272552,
			"-0.005": 10.7135585829,
			"-0.004": 12.2156824429,
			"-0.003": 18.6146325525,
			"-0.002": 26.8070943626,
			"-0.001": 29.8134546213,
			"0.0": 32.0308086844,
			"0.001": 27.7714272916,
			"0.002": 17.4573990218,
			"0.003": 17.4523632353,
			"0.004": 19.1422457321,
			"0.005": 11.3125677372,
			"0.006": 2.17312791608,
			"0.007": 2.82854168177,
			"0.008": 3.21857423446,
			"0.009": 2.61859728447,
			"0.01": 2.06319568574,
			"0.011": 3.26601418058,
			"0.012": 3.77888902106,
			"0.013": 0.135790995747,
			"0.014": 0.0,
			"0.015": 0.0,
			"0.016": 0.0,
			"0.017": 0.0,
			"0.018": 0.0,
			"0.019": 0.0,
			"0.02": 0.0,
			"0.021": 0.0,
			"0.022": 0.0,
			"0.023": 0.0,
			"0.024": 0.0,
			"0.025": 0.0
		}
	}
}
