{
	 "smiles": "COC1=CC(=CC(OC)=C1)C(=O)NC1=CC(O)=C(C=C1)C(O)=O", 
	 "Tm": 493.15, 
	 "num_atms": 38, 
	 "gaussian": { 
		 "optdone": 1, 
		 "sigma_profile": "yes", 
		 "theory": "DFT", 
		 "functional": "B3LYP", 
		 "basiset": "6-31G**", 
		 "properties": { 
			 "R2extent": 9144.7194, 
			 "electric_dipole_moment_norm": 3.78660080019, 
			 "electric_quadrupole_moment_norm": 27.4980022149, 
			 "total_energy": -1124.85605928, 
			 "HOMO_LUMO_gap": 0.1575, 
			 "cosmo_polarized_energy": -20.51, 
			 "cosmo_cavitation_energy": 43.09, 
			 "cosmo_dispersion_energy": -29.91, 
			 "cosmo_repulsion_energy": 2.29, 
			 "cosmo_total_nonelectrostatic_energy": 15.47, 
			 "SMD_solvation_energy": 10.86 
		},
		"coords": [
			{
				"x": -1.3828829118,
				"y": 3.7581420287,
				"z": 1.3078563625,
				"element": "C" 
			},
			{
				"x": -2.535015808,
				"y": 2.9437660757,
				"z": 1.4684375575,
				"element": "O" 
			},
			{
				"x": -2.3563121922,
				"y": 1.6059782372,
				"z": 1.6626854459,
				"element": "C" 
			},
			{
				"x": -1.1132042314,
				"y": 0.9812323818,
				"z": 1.7595952645,
				"element": "C" 
			},
			{
				"x": -1.0701203018,
				"y": -0.4091067635,
				"z": 1.9720752564,
				"element": "C" 
			},
			{
				"x": -2.237532353,
				"y": -1.1540999433,
				"z": 2.0993617484,
				"element": "C" 
			},
			{
				"x": -3.4819400515,
				"y": -0.5142540536,
				"z": 1.9810116841,
				"element": "C" 
			},
			{
				"x": -4.5716704039,
				"y": -1.3227681508,
				"z": 2.0965071087,
				"element": "O" 
			},
			{
				"x": -5.85999075,
				"y": -0.7351914157,
				"z": 1.9964752829,
				"element": "C" 
			},
			{
				"x": -3.5441906934,
				"y": 0.8615307136,
				"z": 1.7647023153,
				"element": "C" 
			},
			{
				"x": 0.2272139235,
				"y": -1.1268005849,
				"z": 2.1809125507,
				"element": "C" 
			},
			{
				"x": 0.341218793,
				"y": -2.0231578033,
				"z": 3.0052155124,
				"element": "O" 
			},
			{
				"x": 1.3664457955,
				"y": -0.7079263923,
				"z": 1.4880470949,
				"element": "N" 
			},
			{
				"x": 1.5518918585,
				"y": -0.1429149318,
				"z": 0.2161962791,
				"element": "C" 
			},
			{
				"x": 0.5568009183,
				"y": -0.1139725107,
				"z": -0.7613838024,
				"element": "C" 
			},
			{
				"x": 0.818288923,
				"y": 0.4493338986,
				"z": -2.01733497,
				"element": "C" 
			},
			{
				"x": -0.1768079869,
				"y": 0.4538549561,
				"z": -2.9151748881,
				"element": "O" 
			},
			{
				"x": 2.1072910909,
				"y": 0.9731670703,
				"z": -2.3090984905,
				"element": "C" 
			},
			{
				"x": 3.1019111364,
				"y": 0.9134986939,
				"z": -1.3135222676,
				"element": "C" 
			},
			{
				"x": 2.8385752018,
				"y": 0.3725784397,
				"z": -0.0718192393,
				"element": "C" 
			},
			{
				"x": 2.3546214213,
				"y": 1.5418057766,
				"z": -3.6287319174,
				"element": "C" 
			},
			{
				"x": 3.6025790368,
				"y": 2.0175926816,
				"z": -3.8210264359,
				"element": "O" 
			},
			{
				"x": 1.5143802168,
				"y": 1.604271766,
				"z": -4.5319060682,
				"element": "O" 
			},
			{
				"x": -0.7535316954,
				"y": 3.7500409364,
				"z": 2.2070158783,
				"element": "H" 
			},
			{
				"x": -0.7827938289,
				"y": 3.4414256349,
				"z": 0.4457204822,
				"element": "H" 
			},
			{
				"x": -1.752072035,
				"y": 4.7706466223,
				"z": 1.1382257979,
				"element": "H" 
			},
			{
				"x": -0.1930231066,
				"y": 1.5442930135,
				"z": 1.6871737516,
				"element": "H" 
			},
			{
				"x": -2.1952892519,
				"y": -2.2182860547,
				"z": 2.2966079028,
				"element": "H" 
			},
			{
				"x": -6.0264782628,
				"y": 0.0102985252,
				"z": 2.7845047509,
				"element": "H" 
			},
			{
				"x": -6.5728456058,
				"y": -1.5519745544,
				"z": 2.1179408378,
				"element": "H" 
			},
			{
				"x": -6.0140432565,
				"y": -0.2632881435,
				"z": 1.0176762207,
				"element": "H" 
			},
			{
				"x": -4.4822237133,
				"y": 1.3937251493,
				"z": 1.6727058724,
				"element": "H" 
			},
			{
				"x": 2.1939268088,
				"y": -1.1312190556,
				"z": 1.8925147316,
				"element": "H" 
			},
			{
				"x": -0.4260412018,
				"y": -0.5302209488,
				"z": -0.5870769261,
				"element": "H" 
			},
			{
				"x": 0.1790336943,
				"y": 0.8676344712,
				"z": -3.7389965764,
				"element": "H" 
			},
			{
				"x": 4.0862287129,
				"y": 1.3099049128,
				"z": -1.5361079238,
				"element": "H" 
			},
			{
				"x": 3.6083097089,
				"y": 0.3483897078,
				"z": 0.6934226151,
				"element": "H" 
			},
			{
				"x": 3.621892401,
				"y": 2.3566696136,
				"z": -4.7311087989,
				"element": "H" 
			}
		],
		 "valence_orbital": [ 
			{
				"type": "occ",
				"energy": -0.26404,
				"method": "rhf"
			},
			{
				"type": "occ",
				"energy": -0.24332,
				"method": "rhf"
			},
			{
				"type": "occ",
				"energy": -0.23574,
				"method": "rhf"
			},
			{
				"type": "occ",
				"energy": -0.22962,
				"method": "rhf"
			},
			{
				"type": "occ",
				"energy": -0.21673,
				"method": "rhf"
			},
			{
				"type": "unocc",
				"energy": -0.05923,
				"method": "rhf"
			},
			{
				"type": "unocc",
				"energy": -0.03129,
				"method": "rhf"
			},
			{
				"type": "unocc",
				"energy": -0.00487,
				"method": "rhf"
			},
			{
				"type": "unocc",
				"energy": 0.01549,
				"method": "rhf"
			},
			{
				"type": "unocc",
				"energy": 0.03715,
				"method": "rhf"
			}
		],
		"cosmo_sigma_profile": { 
			"-0.025": 0.0,
			"-0.024": 0.0,
			"-0.023": 0.0,
			"-0.022": 0.0,
			"-0.021": 0.0,
			"-0.02": 0.0,
			"-0.019": 0.145399615184,
			"-0.018": 1.00839161864,
			"-0.017": 1.02327199408,
			"-0.016": 0.685577187552,
			"-0.015": 1.15895850677,
			"-0.014": 1.53939332951,
			"-0.013": 1.60329451892,
			"-0.012": 2.07661743441,
			"-0.011": 2.28679253605,
			"-0.01": 1.97815613528,
			"-0.009": 1.20193905458,
			"-0.008": 2.41841803525,
			"-0.007": 6.25053010026,
			"-0.006": 18.273225927,
			"-0.005": 26.785195302,
			"-0.004": 25.213087574,
			"-0.003": 30.6356990693,
			"-0.002": 24.6714068472,
			"-0.001": 18.9171876901,
			"0.0": 20.2046865243,
			"0.001": 23.5110107908,
			"0.002": 25.8193882508,
			"0.003": 26.6227775325,
			"0.004": 15.3418384785,
			"0.005": 10.3644698599,
			"0.006": 8.92232965257,
			"0.007": 8.50838413622,
			"0.008": 6.42015854484,
			"0.009": 7.74431126898,
			"0.01": 7.54501807659,
			"0.011": 6.13972951954,
			"0.012": 5.41489645469,
			"0.013": 2.885054442,
			"0.014": 0.142246539829,
			"0.015": 0.0,
			"0.016": 0.0,
			"0.017": 0.0,
			"0.018": 0.0,
			"0.019": 0.0,
			"0.02": 0.0,
			"0.021": 0.0,
			"0.022": 0.0,
			"0.023": 0.0,
			"0.024": 0.0,
			"0.025": 0.0
		}
	}
}
