{
	 "smiles": "CCCC1=CC=C(C=C1)C1=CSC(N)=N1", 
	 "Tm": 389.15, 
	 "num_atms": 29, 
	 "gaussian": { 
		 "optdone": 1, 
		 "sigma_profile": "yes", 
		 "theory": "DFT", 
		 "functional": "B3LYP", 
		 "basiset": "6-31G**", 
		 "properties": { 
			 "R2extent": 6226.1453, 
			 "electric_dipole_moment_norm": 1.45929529568, 
			 "electric_quadrupole_moment_norm": 18.0221969024, 
			 "total_energy": -973.42220016, 
			 "HOMO_LUMO_gap": 0.17076, 
			 "cosmo_polarized_energy": -11.46, 
			 "cosmo_cavitation_energy": 34.16, 
			 "cosmo_dispersion_energy": -25.4, 
			 "cosmo_repulsion_energy": 1.96, 
			 "cosmo_total_nonelectrostatic_energy": 10.72, 
			 "SMD_solvation_energy": 4.15 
		},
		"coords": [
			{
				"x": -5.1721515693,
				"y": 1.2294496679,
				"z": 1.5867164736,
				"element": "C" 
			},
			{
				"x": -3.7104973744,
				"y": 0.8103896544,
				"z": 1.4046238267,
				"element": "C" 
			},
			{
				"x": -3.2697624718,
				"y": 0.7971828838,
				"z": -0.0736361378,
				"element": "C" 
			},
			{
				"x": -1.8268708841,
				"y": 0.3843037697,
				"z": -0.2608250431,
				"element": "C" 
			},
			{
				"x": -0.7920236863,
				"y": 1.3304876872,
				"z": -0.220540966,
				"element": "C" 
			},
			{
				"x": 0.5398016558,
				"y": 0.9512425481,
				"z": -0.3529544829,
				"element": "C" 
			},
			{
				"x": 0.8915288838,
				"y": -0.397259726,
				"z": -0.5325110553,
				"element": "C" 
			},
			{
				"x": -0.1419383069,
				"y": -1.3468214734,
				"z": -0.5751020232,
				"element": "C" 
			},
			{
				"x": -1.4729710218,
				"y": -0.9588106135,
				"z": -0.4417138066,
				"element": "C" 
			},
			{
				"x": 2.2945664561,
				"y": -0.8294081286,
				"z": -0.6790491626,
				"element": "C" 
			},
			{
				"x": 3.4002363463,
				"y": -0.0222013427,
				"z": -0.6607478598,
				"element": "C" 
			},
			{
				"x": 4.8550744155,
				"y": -0.9643000124,
				"z": -0.8618285512,
				"element": "S" 
			},
			{
				"x": 3.8339159454,
				"y": -2.4054501352,
				"z": -0.9773713702,
				"element": "C" 
			},
			{
				"x": 4.3893821841,
				"y": -3.6604683017,
				"z": -1.0985486474,
				"element": "N" 
			},
			{
				"x": 2.5605173766,
				"y": -2.1812134777,
				"z": -0.8655375645,
				"element": "N" 
			},
			{
				"x": -5.3484233054,
				"y": 2.2375310725,
				"z": 1.1939717845,
				"element": "H" 
			},
			{
				"x": -5.8494540294,
				"y": 0.5476762949,
				"z": 1.0595206477,
				"element": "H" 
			},
			{
				"x": -5.4577077264,
				"y": 1.2299665812,
				"z": 2.6437141525,
				"element": "H" 
			},
			{
				"x": -3.0549940047,
				"y": 1.4882316464,
				"z": 1.9660057921,
				"element": "H" 
			},
			{
				"x": -3.5518278657,
				"y": -0.1876448193,
				"z": 1.8322749399,
				"element": "H" 
			},
			{
				"x": -3.4263978204,
				"y": 1.7968861656,
				"z": -0.4994186439,
				"element": "H" 
			},
			{
				"x": -3.9236546987,
				"y": 0.1156671069,
				"z": -0.6328999574,
				"element": "H" 
			},
			{
				"x": -1.0355684103,
				"y": 2.3822117948,
				"z": -0.0875060585,
				"element": "H" 
			},
			{
				"x": 1.3102043381,
				"y": 1.7160372759,
				"z": -0.3197606915,
				"element": "H" 
			},
			{
				"x": 0.1172737284,
				"y": -2.3896794513,
				"z": -0.7178763058,
				"element": "H" 
			},
			{
				"x": -2.2541073602,
				"y": -1.7148037897,
				"z": -0.483097986,
				"element": "H" 
			},
			{
				"x": 3.462861497,
				"y": 1.0493752604,
				"z": -0.5493732114,
				"element": "H" 
			},
			{
				"x": 3.7070889135,
				"y": -4.3666414964,
				"z": -1.3429191593,
				"element": "H" 
			},
			{
				"x": 5.2495987953,
				"y": -3.7274366419,
				"z": -1.6238089326,
				"element": "H" 
			}
		],
		 "valence_orbital": [ 
			{
				"type": "occ",
				"energy": -0.27897,
				"method": "rhf"
			},
			{
				"type": "occ",
				"energy": -0.27043,
				"method": "rhf"
			},
			{
				"type": "occ",
				"energy": -0.24323,
				"method": "rhf"
			},
			{
				"type": "occ",
				"energy": -0.23861,
				"method": "rhf"
			},
			{
				"type": "occ",
				"energy": -0.1957,
				"method": "rhf"
			},
			{
				"type": "unocc",
				"energy": -0.02494,
				"method": "rhf"
			},
			{
				"type": "unocc",
				"energy": 0.00604,
				"method": "rhf"
			},
			{
				"type": "unocc",
				"energy": 0.01185,
				"method": "rhf"
			},
			{
				"type": "unocc",
				"energy": 0.02097,
				"method": "rhf"
			},
			{
				"type": "unocc",
				"energy": 0.07135,
				"method": "rhf"
			}
		],
		"cosmo_sigma_profile": { 
			"-0.025": 0.0,
			"-0.024": 0.0,
			"-0.023": 0.0,
			"-0.022": 0.0,
			"-0.021": 0.0,
			"-0.02": 0.0,
			"-0.019": 0.0,
			"-0.018": 0.0,
			"-0.017": 0.0,
			"-0.016": 0.0,
			"-0.015": 0.293252918445,
			"-0.014": 1.61565463684,
			"-0.013": 2.99433873069,
			"-0.012": 2.22783312044,
			"-0.011": 2.84053448472,
			"-0.01": 2.2473622713,
			"-0.009": 3.01040597971,
			"-0.008": 4.20529756267,
			"-0.007": 4.08569278335,
			"-0.006": 5.03976143016,
			"-0.005": 7.40472002005,
			"-0.004": 10.6646062816,
			"-0.003": 19.5952885838,
			"-0.002": 26.6492646504,
			"-0.001": 25.9706460897,
			"0.0": 25.2517161369,
			"0.001": 27.3412356211,
			"0.002": 19.643390039,
			"0.003": 16.9669215485,
			"0.004": 22.1463268702,
			"0.005": 17.0380848614,
			"0.006": 12.7876694298,
			"0.007": 3.20498611019,
			"0.008": 2.36773485892,
			"0.009": 1.98363521085,
			"0.01": 2.04076701329,
			"0.011": 2.28653231073,
			"0.012": 0.614845094403,
			"0.013": 0.0,
			"0.014": 0.0,
			"0.015": 0.0,
			"0.016": 0.0,
			"0.017": 0.0,
			"0.018": 0.0,
			"0.019": 0.0,
			"0.02": 0.0,
			"0.021": 0.0,
			"0.022": 0.0,
			"0.023": 0.0,
			"0.024": 0.0,
			"0.025": 0.0
		}
	}
}
