{
	 "smiles": "CS(=O)(=O)C1=NC2=C(N1)C=CC=C2", 
	 "Tm": 463.15, 
	 "num_atms": 21, 
	 "gaussian": { 
		 "optdone": 1, 
		 "sigma_profile": "yes", 
		 "theory": "DFT", 
		 "functional": "B3LYP", 
		 "basiset": "6-31G**", 
		 "properties": { 
			 "R2extent": 3098.1488, 
			 "electric_dipole_moment_norm": 2.85667232633, 
			 "electric_quadrupole_moment_norm": 19.0257114227, 
			 "total_energy": -967.74752521, 
			 "HOMO_LUMO_gap": 0.20141, 
			 "cosmo_polarized_energy": -17.26, 
			 "cosmo_cavitation_energy": 26.92, 
			 "cosmo_dispersion_energy": -20.45, 
			 "cosmo_repulsion_energy": 1.56, 
			 "cosmo_total_nonelectrostatic_energy": 8.03, 
			 "SMD_solvation_energy": 2.41 
		},
		"coords": [
			{
				"x": 0.0959370225,
				"y": 1.2832928823,
				"z": 3.0371178463,
				"element": "C" 
			},
			{
				"x": -1.001536383,
				"y": 1.5070513828,
				"z": 1.6311115803,
				"element": "S" 
			},
			{
				"x": -1.1413374519,
				"y": 2.9420995817,
				"z": 1.3435979257,
				"element": "O" 
			},
			{
				"x": -2.206310293,
				"y": 0.6848132133,
				"z": 1.8155330473,
				"element": "O" 
			},
			{
				"x": -0.0501828626,
				"y": 0.778375225,
				"z": 0.2925902202,
				"element": "C" 
			},
			{
				"x": 1.1346594354,
				"y": 0.2466385289,
				"z": 0.4234281055,
				"element": "N" 
			},
			{
				"x": 1.4615063104,
				"y": -0.1758068022,
				"z": -0.8604197558,
				"element": "C" 
			},
			{
				"x": 0.4114332209,
				"y": 0.1315319011,
				"z": -1.7609907321,
				"element": "C" 
			},
			{
				"x": -0.5530356023,
				"y": 0.7493014887,
				"z": -0.9823036287,
				"element": "N" 
			},
			{
				"x": 0.4735075751,
				"y": -0.1818869416,
				"z": -3.1211603706,
				"element": "C" 
			},
			{
				"x": 1.629881008,
				"y": -0.8190089401,
				"z": -3.5592378601,
				"element": "C" 
			},
			{
				"x": 2.6853511904,
				"y": -1.1325474483,
				"z": -2.6761664226,
				"element": "C" 
			},
			{
				"x": 2.6173670945,
				"y": -0.8181523532,
				"z": -1.3246540844,
				"element": "C" 
			},
			{
				"x": 1.0288294018,
				"y": 1.8141560696,
				"z": 2.8511149151,
				"element": "H" 
			},
			{
				"x": 0.2763207661,
				"y": 0.219163827,
				"z": 3.1847278897,
				"element": "H" 
			},
			{
				"x": -0.4407376632,
				"y": 1.7138307583,
				"z": 3.8849363702,
				"element": "H" 
			},
			{
				"x": -1.4482635723,
				"y": 1.1099695449,
				"z": -1.2778567179,
				"element": "H" 
			},
			{
				"x": -0.3355404876,
				"y": 0.0572241418,
				"z": -3.8039598435,
				"element": "H" 
			},
			{
				"x": 1.7229784847,
				"y": -1.0821135109,
				"z": -4.6085207435,
				"element": "H" 
			},
			{
				"x": 3.5675920958,
				"y": -1.6303757644,
				"z": -3.0666417779,
				"element": "H" 
			},
			{
				"x": 3.4242807103,
				"y": -1.0557567846,
				"z": -0.6395459633,
				"element": "H" 
			}
		],
		 "valence_orbital": [ 
			{
				"type": "occ",
				"energy": -0.31187,
				"method": "rhf"
			},
			{
				"type": "occ",
				"energy": -0.30405,
				"method": "rhf"
			},
			{
				"type": "occ",
				"energy": -0.29357,
				"method": "rhf"
			},
			{
				"type": "occ",
				"energy": -0.24528,
				"method": "rhf"
			},
			{
				"type": "occ",
				"energy": -0.24376,
				"method": "rhf"
			},
			{
				"type": "unocc",
				"energy": -0.04235,
				"method": "rhf"
			},
			{
				"type": "unocc",
				"energy": 0.00436,
				"method": "rhf"
			},
			{
				"type": "unocc",
				"energy": 0.02297,
				"method": "rhf"
			},
			{
				"type": "unocc",
				"energy": 0.0433,
				"method": "rhf"
			},
			{
				"type": "unocc",
				"energy": 0.0677,
				"method": "rhf"
			}
		],
		"cosmo_sigma_profile": { 
			"-0.025": 0.0,
			"-0.024": 0.0,
			"-0.023": 0.0,
			"-0.022": 0.0,
			"-0.021": 0.0,
			"-0.02": 0.0,
			"-0.019": 0.0,
			"-0.018": 0.933533608375,
			"-0.017": 1.28797597596,
			"-0.016": 1.08841302835,
			"-0.015": 1.17968327555,
			"-0.014": 1.39926252854,
			"-0.013": 1.28453243649,
			"-0.012": 0.710900706256,
			"-0.011": 1.27857891165,
			"-0.01": 2.30741155688,
			"-0.009": 5.70437063484,
			"-0.008": 6.2173641808,
			"-0.007": 9.30430819486,
			"-0.006": 11.7512561518,
			"-0.005": 12.777382169,
			"-0.004": 16.0821252848,
			"-0.003": 10.2382602544,
			"-0.002": 9.52128561789,
			"-0.001": 10.4696444843,
			"0.0": 12.704263122,
			"0.001": 10.5603786524,
			"0.002": 11.2035907008,
			"0.003": 12.3545213531,
			"0.004": 13.3624553143,
			"0.005": 9.87720420914,
			"0.006": 4.60778045916,
			"0.007": 3.36444669857,
			"0.008": 3.32249492316,
			"0.009": 3.78139818994,
			"0.01": 9.73195879477,
			"0.011": 13.347311432,
			"0.012": 3.73872236538,
			"0.013": 0.270545765219,
			"0.014": 0.0247506962155,
			"0.015": 0.0,
			"0.016": 0.0,
			"0.017": 0.0,
			"0.018": 0.0,
			"0.019": 0.0,
			"0.02": 0.0,
			"0.021": 0.0,
			"0.022": 0.0,
			"0.023": 0.0,
			"0.024": 0.0,
			"0.025": 0.0
		}
	}
}
