{
	 "smiles": "NC1=C(C=CC=C1)S(=O)(=O)N1CCOCC1", 
	 "Tm": 388.15, 
	 "num_atms": 30, 
	 "gaussian": { 
		 "optdone": 1, 
		 "sigma_profile": "yes", 
		 "theory": "DFT", 
		 "functional": "B3LYP", 
		 "basiset": "6-31G**", 
		 "properties": { 
			 "R2extent": 4008.4224, 
			 "electric_dipole_moment_norm": 4.00171958038, 
			 "electric_quadrupole_moment_norm": 20.710062891, 
			 "total_energy": -1122.77468076, 
			 "HOMO_LUMO_gap": 0.18744, 
			 "cosmo_polarized_energy": -15.84, 
			 "cosmo_cavitation_energy": 32.25, 
			 "cosmo_dispersion_energy": -24.03, 
			 "cosmo_repulsion_energy": 1.82, 
			 "cosmo_total_nonelectrostatic_energy": 10.04, 
			 "SMD_solvation_energy": 3.5 
		},
		"coords": [
			{
				"x": -1.8517321391,
				"y": -2.2968803482,
				"z": -1.3679904665,
				"element": "N" 
			},
			{
				"x": -1.8145741869,
				"y": -1.0344515022,
				"z": -1.9369620978,
				"element": "C" 
			},
			{
				"x": -0.6108752079,
				"y": -0.3070318601,
				"z": -2.1250315783,
				"element": "C" 
			},
			{
				"x": -0.626251316,
				"y": 0.9723585362,
				"z": -2.6972477265,
				"element": "C" 
			},
			{
				"x": -1.8239630863,
				"y": 1.5746710986,
				"z": -3.0659341346,
				"element": "C" 
			},
			{
				"x": -3.019475368,
				"y": 0.8776150493,
				"z": -2.8646172634,
				"element": "C" 
			},
			{
				"x": -3.0143127907,
				"y": -0.3992879903,
				"z": -2.3192873492,
				"element": "C" 
			},
			{
				"x": 0.9912446561,
				"y": -0.9500305356,
				"z": -1.6228871414,
				"element": "S" 
			},
			{
				"x": 0.917258787,
				"y": -2.4205516389,
				"z": -1.6545999325,
				"element": "O" 
			},
			{
				"x": 2.0099408585,
				"y": -0.2233804507,
				"z": -2.3822065977,
				"element": "O" 
			},
			{
				"x": 1.2414194703,
				"y": -0.5318455705,
				"z": -0.0199814505,
				"element": "N" 
			},
			{
				"x": 1.5458733337,
				"y": 0.8839372642,
				"z": 0.2629088658,
				"element": "C" 
			},
			{
				"x": 1.7542050102,
				"y": 1.0358653086,
				"z": 1.7662513892,
				"element": "C" 
			},
			{
				"x": 0.5927825817,
				"y": 0.7108388472,
				"z": 2.5245322108,
				"element": "O" 
			},
			{
				"x": -0.2485023085,
				"y": -0.2758106832,
				"z": 1.9299419279,
				"element": "C" 
			},
			{
				"x": 0.5217858251,
				"y": -1.257055218,
				"z": 1.0511836168,
				"element": "C" 
			},
			{
				"x": -2.7095081661,
				"y": -2.8073561558,
				"z": -1.5229328041,
				"element": "H" 
			},
			{
				"x": -1.0070687138,
				"y": -2.8460833039,
				"z": -1.4906158803,
				"element": "H" 
			},
			{
				"x": 0.3212989238,
				"y": 1.4714052274,
				"z": -2.8669208072,
				"element": "H" 
			},
			{
				"x": -1.8252820472,
				"y": 2.564252978,
				"z": -3.5101359956,
				"element": "H" 
			},
			{
				"x": -3.9665167501,
				"y": 1.3279530961,
				"z": -3.1483355379,
				"element": "H" 
			},
			{
				"x": -3.9496874995,
				"y": -0.9373531036,
				"z": -2.1863376435,
				"element": "H" 
			},
			{
				"x": 2.4530393243,
				"y": 1.1657743545,
				"z": -0.2757158149,
				"element": "H" 
			},
			{
				"x": 0.7310397868,
				"y": 1.5491313944,
				"z": -0.0613023,
				"element": "H" 
			},
			{
				"x": 2.0029755129,
				"y": 2.0767656251,
				"z": 1.9964498717,
				"element": "H" 
			},
			{
				"x": 2.6037239709,
				"y": 0.4096074941,
				"z": 2.0784998674,
				"element": "H" 
			},
			{
				"x": -1.0373845289,
				"y": 0.2073995542,
				"z": 1.3337538289,
				"element": "H" 
			},
			{
				"x": -0.7340301803,
				"y": -0.8151335175,
				"z": 2.7502739245,
				"element": "H" 
			},
			{
				"x": 1.251056912,
				"y": -1.8111652573,
				"z": 1.654130821,
				"element": "H" 
			},
			{
				"x": -0.1670806637,
				"y": -1.983158692,
				"z": 0.6174161979,
				"element": "H" 
			}
		],
		 "valence_orbital": [ 
			{
				"type": "occ",
				"energy": -0.29825,
				"method": "rhf"
			},
			{
				"type": "occ",
				"energy": -0.27483,
				"method": "rhf"
			},
			{
				"type": "occ",
				"energy": -0.25801,
				"method": "rhf"
			},
			{
				"type": "occ",
				"energy": -0.24861,
				"method": "rhf"
			},
			{
				"type": "occ",
				"energy": -0.21959,
				"method": "rhf"
			},
			{
				"type": "unocc",
				"energy": -0.03215,
				"method": "rhf"
			},
			{
				"type": "unocc",
				"energy": -0.00457,
				"method": "rhf"
			},
			{
				"type": "unocc",
				"energy": 0.06143,
				"method": "rhf"
			},
			{
				"type": "unocc",
				"energy": 0.07296,
				"method": "rhf"
			},
			{
				"type": "unocc",
				"energy": 0.08458,
				"method": "rhf"
			}
		],
		"cosmo_sigma_profile": { 
			"-0.025": 0.0,
			"-0.024": 0.0,
			"-0.023": 0.0,
			"-0.022": 0.0,
			"-0.021": 0.0,
			"-0.02": 0.0,
			"-0.019": 0.0,
			"-0.018": 0.0,
			"-0.017": 0.0,
			"-0.016": 0.0,
			"-0.015": 0.0,
			"-0.014": 0.109901856583,
			"-0.013": 1.26305155854,
			"-0.012": 1.46936085205,
			"-0.011": 1.47520201536,
			"-0.01": 1.86456862316,
			"-0.009": 2.31046810173,
			"-0.008": 2.4889453,
			"-0.007": 3.55245330221,
			"-0.006": 13.6852582895,
			"-0.005": 25.1609654985,
			"-0.004": 30.5977763047,
			"-0.003": 23.5695384025,
			"-0.002": 17.5192843723,
			"-0.001": 13.2280344353,
			"0.0": 11.6338224484,
			"0.001": 11.4301330892,
			"0.002": 11.520958316,
			"0.003": 13.8432466771,
			"0.004": 14.5148306419,
			"0.005": 9.92131208934,
			"0.006": 6.47596230338,
			"0.007": 5.34640299069,
			"0.008": 5.70531189042,
			"0.009": 4.49921532572,
			"0.01": 6.95271178652,
			"0.011": 7.8662094409,
			"0.012": 4.933094211,
			"0.013": 1.6217434775,
			"0.014": 0.163283016576,
			"0.015": 0.0,
			"0.016": 0.0,
			"0.017": 0.0,
			"0.018": 0.0,
			"0.019": 0.0,
			"0.02": 0.0,
			"0.021": 0.0,
			"0.022": 0.0,
			"0.023": 0.0,
			"0.024": 0.0,
			"0.025": 0.0
		}
	}
}
