{
	 "smiles": "NC1=C(NC2=CC3=C(C=C2)C(=O)NC3=O)N=CC=C1", 
	 "Tm": 543.15, 
	 "num_atms": 29, 
	 "gaussian": { 
		 "optdone": 1, 
		 "sigma_profile": "yes", 
		 "theory": "DFT", 
		 "functional": "B3LYP", 
		 "basiset": "6-31G**", 
		 "properties": { 
			 "R2extent": 6964.5056, 
			 "electric_dipole_moment_norm": 7.07646994553, 
			 "electric_quadrupole_moment_norm": 13.0515359544, 
			 "total_energy": -870.90403292, 
			 "HOMO_LUMO_gap": 0.13704, 
			 "cosmo_polarized_energy": -20.71, 
			 "cosmo_cavitation_energy": 34.52, 
			 "cosmo_dispersion_energy": -25.46, 
			 "cosmo_repulsion_energy": 1.93, 
			 "cosmo_total_nonelectrostatic_energy": 11.0, 
			 "SMD_solvation_energy": 6.47 
		},
		"coords": [
			{
				"x": -0.9655187931,
				"y": 2.3307871039,
				"z": -2.9812249387,
				"element": "N" 
			},
			{
				"x": 0.3314579726,
				"y": 2.3209205266,
				"z": -2.4116788242,
				"element": "C" 
			},
			{
				"x": 0.6376966901,
				"y": 1.3257655135,
				"z": -1.4379816469,
				"element": "C" 
			},
			{
				"x": -0.3935672325,
				"y": 0.4521213527,
				"z": -1.1065600013,
				"element": "N" 
			},
			{
				"x": -0.4302687144,
				"y": -0.6537895697,
				"z": -0.2615340451,
				"element": "C" 
			},
			{
				"x": -1.7075148662,
				"y": -1.203889847,
				"z": 0.0039715567,
				"element": "C" 
			},
			{
				"x": -1.7838521867,
				"y": -2.3218607618,
				"z": 0.807580935,
				"element": "C" 
			},
			{
				"x": -0.6459463049,
				"y": -2.9181889418,
				"z": 1.3608431601,
				"element": "C" 
			},
			{
				"x": 0.6126092258,
				"y": -2.3872475586,
				"z": 1.1094628294,
				"element": "C" 
			},
			{
				"x": 0.7204890968,
				"y": -1.2551717728,
				"z": 0.2992166796,
				"element": "C" 
			},
			{
				"x": -1.0694545158,
				"y": -4.0902649264,
				"z": 2.1688535438,
				"element": "C" 
			},
			{
				"x": -0.4048709608,
				"y": -4.8776137308,
				"z": 2.811360143,
				"element": "O" 
			},
			{
				"x": -2.47440856,
				"y": -4.1232567294,
				"z": 2.0437626609,
				"element": "N" 
			},
			{
				"x": -2.9871943549,
				"y": -3.0974778791,
				"z": 1.2429976991,
				"element": "C" 
			},
			{
				"x": -4.1579898783,
				"y": -2.909117795,
				"z": 0.9797038415,
				"element": "O" 
			},
			{
				"x": 1.8324419628,
				"y": 1.2262432165,
				"z": -0.8600889783,
				"element": "N" 
			},
			{
				"x": 2.7722443658,
				"y": 2.1321261626,
				"z": -1.1751503509,
				"element": "C" 
			},
			{
				"x": 2.5597498871,
				"y": 3.1760155093,
				"z": -2.0642469801,
				"element": "C" 
			},
			{
				"x": 1.3145970046,
				"y": 3.256873768,
				"z": -2.700489636,
				"element": "C" 
			},
			{
				"x": -1.1549446781,
				"y": 1.4949457849,
				"z": -3.5296474939,
				"element": "H" 
			},
			{
				"x": -1.125163488,
				"y": 3.1451926296,
				"z": -3.5638050959,
				"element": "H" 
			},
			{
				"x": -1.2984290624,
				"y": 0.800829496,
				"z": -1.3993720257,
				"element": "H" 
			},
			{
				"x": -2.6084881302,
				"y": -0.7607454239,
				"z": -0.4122567843,
				"element": "H" 
			},
			{
				"x": 1.5010500331,
				"y": -2.8418368128,
				"z": 1.5365969682,
				"element": "H" 
			},
			{
				"x": 1.6831959179,
				"y": -0.8073485291,
				"z": 0.1000901132,
				"element": "H" 
			},
			{
				"x": -3.0522111136,
				"y": -4.82080296,
				"z": 2.4905495665,
				"element": "H" 
			},
			{
				"x": 3.7310366635,
				"y": 2.0113677939,
				"z": -0.6761659084,
				"element": "H" 
			},
			{
				"x": 3.3438831019,
				"y": 3.8949082301,
				"z": -2.2754266001,
				"element": "H" 
			},
			{
				"x": 1.114270918,
				"y": 4.0378161506,
				"z": -3.4303603871,
				"element": "H" 
			}
		],
		 "valence_orbital": [ 
			{
				"type": "occ",
				"energy": -0.26979,
				"method": "rhf"
			},
			{
				"type": "occ",
				"energy": -0.26598,
				"method": "rhf"
			},
			{
				"type": "occ",
				"energy": -0.25554,
				"method": "rhf"
			},
			{
				"type": "occ",
				"energy": -0.25138,
				"method": "rhf"
			},
			{
				"type": "occ",
				"energy": -0.20594,
				"method": "rhf"
			},
			{
				"type": "unocc",
				"energy": -0.0689,
				"method": "rhf"
			},
			{
				"type": "unocc",
				"energy": -0.03423,
				"method": "rhf"
			},
			{
				"type": "unocc",
				"energy": -0.01923,
				"method": "rhf"
			},
			{
				"type": "unocc",
				"energy": -0.00402,
				"method": "rhf"
			},
			{
				"type": "unocc",
				"energy": 0.05385,
				"method": "rhf"
			}
		],
		"cosmo_sigma_profile": { 
			"-0.025": 0.0,
			"-0.024": 0.0,
			"-0.023": 0.0,
			"-0.022": 0.0,
			"-0.021": 0.0,
			"-0.02": 0.0,
			"-0.019": 0.0,
			"-0.018": 0.0,
			"-0.017": 0.0537937315073,
			"-0.016": 1.03664184229,
			"-0.015": 1.28460780319,
			"-0.014": 1.23013601457,
			"-0.013": 2.43183377943,
			"-0.012": 4.94654647253,
			"-0.011": 5.2465357992,
			"-0.01": 5.88778595191,
			"-0.009": 5.17873870251,
			"-0.008": 6.12857536519,
			"-0.007": 7.88285614511,
			"-0.006": 9.33747073883,
			"-0.005": 12.2664433585,
			"-0.004": 14.1054764088,
			"-0.003": 14.3732482284,
			"-0.002": 14.7586249577,
			"-0.001": 16.615076382,
			"0.0": 16.9132850395,
			"0.001": 22.1302234812,
			"0.002": 26.6544016737,
			"0.003": 20.9571717666,
			"0.004": 14.7548926562,
			"0.005": 7.32742508682,
			"0.006": 5.24172147966,
			"0.007": 5.68704724961,
			"0.008": 4.27476791971,
			"0.009": 4.54986392981,
			"0.01": 6.6920025597,
			"0.011": 9.68867704449,
			"0.012": 8.47595123338,
			"0.013": 1.31929054894,
			"0.014": 0.0,
			"0.015": 0.0,
			"0.016": 0.0,
			"0.017": 0.0,
			"0.018": 0.0,
			"0.019": 0.0,
			"0.02": 0.0,
			"0.021": 0.0,
			"0.022": 0.0,
			"0.023": 0.0,
			"0.024": 0.0,
			"0.025": 0.0
		}
	}
}
