{
	 "smiles": "NC1=CC=C(C=C1)S(=O)(=O)NCCO", 
	 "Tm": 371.15, 
	 "num_atms": 26, 
	 "gaussian": { 
		 "optdone": 1, 
		 "sigma_profile": "yes", 
		 "theory": "DFT", 
		 "functional": "B3LYP", 
		 "basiset": "6-31G**", 
		 "properties": { 
			 "R2extent": 3657.9663, 
			 "electric_dipole_moment_norm": 9.07554110453, 
			 "electric_quadrupole_moment_norm": 8.89859619828, 
			 "total_energy": -1045.36804798, 
			 "HOMO_LUMO_gap": 0.20103, 
			 "cosmo_polarized_energy": -24.66, 
			 "cosmo_cavitation_energy": 30.76, 
			 "cosmo_dispersion_energy": -22.3, 
			 "cosmo_repulsion_energy": 1.75, 
			 "cosmo_total_nonelectrostatic_energy": 10.21, 
			 "SMD_solvation_energy": 3.91 
		},
		"coords": [
			{
				"x": 1.9721978736,
				"y": -0.1830766034,
				"z": -3.5657106912,
				"element": "N" 
			},
			{
				"x": 1.0792738549,
				"y": -0.1673159301,
				"z": -2.5081711571,
				"element": "C" 
			},
			{
				"x": 1.3543395817,
				"y": 0.5843823865,
				"z": -1.3474730883,
				"element": "C" 
			},
			{
				"x": 0.4348766494,
				"y": 0.6448797073,
				"z": -0.3090337951,
				"element": "C" 
			},
			{
				"x": -0.7761914004,
				"y": -0.0493641865,
				"z": -0.40474888,
				"element": "C" 
			},
			{
				"x": -1.0689271652,
				"y": -0.7900800967,
				"z": -1.5542231383,
				"element": "C" 
			},
			{
				"x": -0.1493927506,
				"y": -0.8517413673,
				"z": -2.5944364138,
				"element": "C" 
			},
			{
				"x": -1.9465332598,
				"y": 0.0074020501,
				"z": 0.9495173612,
				"element": "S" 
			},
			{
				"x": -1.7669717326,
				"y": 1.2985686341,
				"z": 1.6159363981,
				"element": "O" 
			},
			{
				"x": -3.2356465737,
				"y": -0.4419563733,
				"z": 0.4153572798,
				"element": "O" 
			},
			{
				"x": -1.5073777615,
				"y": -1.1288845809,
				"z": 2.1012721156,
				"element": "N" 
			},
			{
				"x": -1.6386908756,
				"y": -2.5648562093,
				"z": 1.8554832597,
				"element": "C" 
			},
			{
				"x": -0.3519567098,
				"y": -3.2168573655,
				"z": 1.3590786078,
				"element": "C" 
			},
			{
				"x": 0.6497148602,
				"y": -2.9332184959,
				"z": 2.333349893,
				"element": "O" 
			},
			{
				"x": 2.9285076559,
				"y": 0.067153451,
				"z": -3.3637608762,
				"element": "H" 
			},
			{
				"x": 1.8800483475,
				"y": -0.9332867691,
				"z": -4.2340087658,
				"element": "H" 
			},
			{
				"x": 2.2882778229,
				"y": 1.1358932703,
				"z": -1.2762507861,
				"element": "H" 
			},
			{
				"x": 0.6413529987,
				"y": 1.2478940114,
				"z": 0.5691482245,
				"element": "H" 
			},
			{
				"x": -2.025637229,
				"y": -1.2950130556,
				"z": -1.6337364006,
				"element": "H" 
			},
			{
				"x": -0.3857250474,
				"y": -1.4159769238,
				"z": -3.492932385,
				"element": "H" 
			},
			{
				"x": -0.6535989288,
				"y": -0.8721000288,
				"z": 2.5883588004,
				"element": "H" 
			},
			{
				"x": -2.4576185255,
				"y": -2.7194872934,
				"z": 1.1487843633,
				"element": "H" 
			},
			{
				"x": -1.9301095546,
				"y": -3.0348752526,
				"z": 2.801991918,
				"element": "H" 
			},
			{
				"x": -0.0767433668,
				"y": -2.8135608564,
				"z": 0.3747285727,
				"element": "H" 
			},
			{
				"x": -0.5147866834,
				"y": -4.3009487764,
				"z": 1.2511063031,
				"element": "H" 
			},
			{
				"x": 1.5071179199,
				"y": -3.1958733459,
				"z": 1.9785732803,
				"element": "H" 
			}
		],
		 "valence_orbital": [ 
			{
				"type": "occ",
				"energy": -0.28764,
				"method": "rhf"
			},
			{
				"type": "occ",
				"energy": -0.28378,
				"method": "rhf"
			},
			{
				"type": "occ",
				"energy": -0.26745,
				"method": "rhf"
			},
			{
				"type": "occ",
				"energy": -0.26588,
				"method": "rhf"
			},
			{
				"type": "occ",
				"energy": -0.21945,
				"method": "rhf"
			},
			{
				"type": "unocc",
				"energy": -0.01842,
				"method": "rhf"
			},
			{
				"type": "unocc",
				"energy": -0.01708,
				"method": "rhf"
			},
			{
				"type": "unocc",
				"energy": 0.05768,
				"method": "rhf"
			},
			{
				"type": "unocc",
				"energy": 0.06105,
				"method": "rhf"
			},
			{
				"type": "unocc",
				"energy": 0.07845,
				"method": "rhf"
			}
		],
		"cosmo_sigma_profile": { 
			"-0.025": 0.0,
			"-0.024": 0.0,
			"-0.023": 0.0,
			"-0.022": 0.0,
			"-0.021": 0.0,
			"-0.02": 0.0,
			"-0.019": 0.0,
			"-0.018": 0.0,
			"-0.017": 0.0,
			"-0.016": 0.814650636899,
			"-0.015": 1.0718608492,
			"-0.014": 0.97716670072,
			"-0.013": 3.98306325533,
			"-0.012": 4.06457629852,
			"-0.011": 4.51162418933,
			"-0.01": 5.47702768662,
			"-0.009": 4.36034501355,
			"-0.008": 4.92103629399,
			"-0.007": 6.98165586406,
			"-0.006": 10.5156535044,
			"-0.005": 15.9669870366,
			"-0.004": 18.8935481708,
			"-0.003": 16.2339438989,
			"-0.002": 12.933593654,
			"-0.001": 10.5299612019,
			"0.0": 9.91507990196,
			"0.001": 10.1302565517,
			"0.002": 11.5639537923,
			"0.003": 13.7067257854,
			"0.004": 14.8419693166,
			"0.005": 7.20534680088,
			"0.006": 5.40084451453,
			"0.007": 6.62707853085,
			"0.008": 5.79758639668,
			"0.009": 5.91788830412,
			"0.01": 7.37444404697,
			"0.011": 9.8493494798,
			"0.012": 9.65778732299,
			"0.013": 1.95750240475,
			"0.014": 0.444155620606,
			"0.015": 0.0,
			"0.016": 0.0,
			"0.017": 0.0,
			"0.018": 0.0,
			"0.019": 0.0,
			"0.02": 0.0,
			"0.021": 0.0,
			"0.022": 0.0,
			"0.023": 0.0,
			"0.024": 0.0,
			"0.025": 0.0
		}
	}
}
