{
	 "smiles": "CCN1N=C(C)C(Br)=C1C(O)=O", 
	 "Tm": 433.15, 
	 "num_atms": 21, 
	 "gaussian": { 
		 "optdone": 1, 
		 "sigma_profile": "yes", 
		 "theory": "DFT", 
		 "functional": "B3LYP", 
		 "basiset": "6-31G**", 
		 "properties": { 
			 "R2extent": 6709.8227, 
			 "electric_dipole_moment_norm": 0.498457159644, 
			 "electric_quadrupole_moment_norm": 3.27013634731, 
			 "total_energy": -3103.52886126, 
			 "HOMO_LUMO_gap": 0.18939, 
			 "cosmo_polarized_energy": -9.15, 
			 "cosmo_cavitation_energy": 27.21, 
			 "cosmo_dispersion_energy": -20.06, 
			 "cosmo_repulsion_energy": 1.62, 
			 "cosmo_total_nonelectrostatic_energy": 8.77, 
			 "SMD_solvation_energy": 3.98 
		},
		"coords": [
			{
				"x": -1.2406913803,
				"y": 4.4222097897,
				"z": 2.7615821874,
				"element": "C" 
			},
			{
				"x": -0.6671736225,
				"y": 3.8649246066,
				"z": 1.4593964003,
				"element": "C" 
			},
			{
				"x": 0.5297040615,
				"y": 3.042744758,
				"z": 1.6789734082,
				"element": "N" 
			},
			{
				"x": 1.7262002249,
				"y": 3.6373786807,
				"z": 1.5825922542,
				"element": "N" 
			},
			{
				"x": 2.6466752593,
				"y": 2.7070294805,
				"z": 1.8663582442,
				"element": "C" 
			},
			{
				"x": 4.1069085642,
				"y": 3.0245463235,
				"z": 1.8452282503,
				"element": "C" 
			},
			{
				"x": 2.0121490736,
				"y": 1.4852439369,
				"z": 2.1547687445,
				"element": "C" 
			},
			{
				"x": 2.9185275938,
				"y": -0.0996640167,
				"z": 2.6017021215,
				"element": "Br" 
			},
			{
				"x": 0.6388555473,
				"y": 1.7201311553,
				"z": 2.0339768686,
				"element": "C" 
			},
			{
				"x": -0.5374061276,
				"y": 0.8603551171,
				"z": 2.21051924,
				"element": "C" 
			},
			{
				"x": -0.2114427245,
				"y": -0.4178549828,
				"z": 2.4904744668,
				"element": "O" 
			},
			{
				"x": -1.6959123447,
				"y": 1.2321059247,
				"z": 2.1217829372,
				"element": "O" 
			},
			{
				"x": -2.0874754192,
				"y": 5.078725171,
				"z": 2.5377863654,
				"element": "H" 
			},
			{
				"x": -0.4860345899,
				"y": 5.0027534251,
				"z": 3.2998827668,
				"element": "H" 
			},
			{
				"x": -1.5983655582,
				"y": 3.6129675035,
				"z": 3.4023756828,
				"element": "H" 
			},
			{
				"x": -0.3346228109,
				"y": 4.6693168773,
				"z": 0.8004312127,
				"element": "H" 
			},
			{
				"x": -1.4067374351,
				"y": 3.2540611873,
				"z": 0.943093826,
				"element": "H" 
			},
			{
				"x": 4.5652489522,
				"y": 2.8478836002,
				"z": 2.8240081147,
				"element": "H" 
			},
			{
				"x": 4.6387178059,
				"y": 2.3985831721,
				"z": 1.1209645543,
				"element": "H" 
			},
			{
				"x": 4.2495180647,
				"y": 4.0725881241,
				"z": 1.5750054278,
				"element": "H" 
			},
			{
				"x": -1.0556431343,
				"y": -0.8886298341,
				"z": 2.5924969263,
				"element": "H" 
			}
		],
		 "valence_orbital": [ 
			{
				"type": "occ",
				"energy": -0.30866,
				"method": "rhf"
			},
			{
				"type": "occ",
				"energy": -0.29039,
				"method": "rhf"
			},
			{
				"type": "occ",
				"energy": -0.2814,
				"method": "rhf"
			},
			{
				"type": "occ",
				"energy": -0.26005,
				"method": "rhf"
			},
			{
				"type": "occ",
				"energy": -0.23935,
				"method": "rhf"
			},
			{
				"type": "unocc",
				"energy": -0.04996,
				"method": "rhf"
			},
			{
				"type": "unocc",
				"energy": 0.0146,
				"method": "rhf"
			},
			{
				"type": "unocc",
				"energy": 0.03729,
				"method": "rhf"
			},
			{
				"type": "unocc",
				"energy": 0.07315,
				"method": "rhf"
			},
			{
				"type": "unocc",
				"energy": 0.09182,
				"method": "rhf"
			}
		],
		"cosmo_sigma_profile": { 
			"-0.025": 0.0,
			"-0.024": 0.0,
			"-0.023": 0.0,
			"-0.022": 0.0,
			"-0.021": 0.0,
			"-0.02": 0.0,
			"-0.019": 0.33234484079,
			"-0.018": 1.30788622615,
			"-0.017": 0.558758468819,
			"-0.016": 0.840746234676,
			"-0.015": 0.981340094686,
			"-0.014": 0.497018710884,
			"-0.013": 0.100777161892,
			"-0.012": 1.16285922717,
			"-0.011": 0.964303997546,
			"-0.01": 0.293547187011,
			"-0.009": 0.497368792229,
			"-0.008": 1.03437027376,
			"-0.007": 0.940724424863,
			"-0.006": 2.04915986131,
			"-0.005": 8.96374412125,
			"-0.004": 18.4812996583,
			"-0.003": 23.5547348351,
			"-0.002": 21.9622653849,
			"-0.001": 22.4709449315,
			"0.0": 23.3963483122,
			"0.001": 18.3641526096,
			"0.002": 12.8918177501,
			"0.003": 13.0145932853,
			"0.004": 11.3573954811,
			"0.005": 5.51480246298,
			"0.006": 5.33128190316,
			"0.007": 4.67385692374,
			"0.008": 4.65940183085,
			"0.009": 3.59083792885,
			"0.01": 2.5172202737,
			"0.011": 3.87233541014,
			"0.012": 1.49555983059,
			"0.013": 0.656227062874,
			"0.014": 0.53142228991,
			"0.015": 0.0,
			"0.016": 0.0,
			"0.017": 0.0,
			"0.018": 0.0,
			"0.019": 0.0,
			"0.02": 0.0,
			"0.021": 0.0,
			"0.022": 0.0,
			"0.023": 0.0,
			"0.024": 0.0,
			"0.025": 0.0
		}
	}
}
