{
	 "smiles": "CC1=CC(CN)=CC(C)=C1O", 
	 "Tm": 373.15, 
	 "num_atms": 24, 
	 "gaussian": { 
		 "optdone": 1, 
		 "sigma_profile": "yes", 
		 "theory": "DFT", 
		 "functional": "B3LYP", 
		 "basiset": "6-31G**", 
		 "properties": { 
			 "R2extent": 2340.2762, 
			 "electric_dipole_moment_norm": 2.34764142705, 
			 "electric_quadrupole_moment_norm": 7.5821585416, 
			 "total_energy": -480.77521463, 
			 "HOMO_LUMO_gap": 0.2153, 
			 "cosmo_polarized_energy": -10.57, 
			 "cosmo_cavitation_energy": 26.44, 
			 "cosmo_dispersion_energy": -19.5, 
			 "cosmo_repulsion_energy": 1.6, 
			 "cosmo_total_nonelectrostatic_energy": 8.54, 
			 "SMD_solvation_energy": 3.83 
		},
		"coords": [
			{
				"x": 1.3187986261,
				"y": 1.8406510745,
				"z": -1.7513051635,
				"element": "C" 
			},
			{
				"x": 0.9998495798,
				"y": 1.0825737532,
				"z": -0.4875864968,
				"element": "C" 
			},
			{
				"x": -0.1601823189,
				"y": 0.318727718,
				"z": -0.3558211612,
				"element": "C" 
			},
			{
				"x": -0.4547150626,
				"y": -0.3826254518,
				"z": 0.8205677344,
				"element": "C" 
			},
			{
				"x": -1.7043452559,
				"y": -1.2351111641,
				"z": 0.926048071,
				"element": "C" 
			},
			{
				"x": -2.8558345834,
				"y": -0.589296847,
				"z": 0.2846109291,
				"element": "N" 
			},
			{
				"x": 0.4452211863,
				"y": -0.298531063,
				"z": 1.8841700818,
				"element": "C" 
			},
			{
				"x": 1.6244438682,
				"y": 0.4506842619,
				"z": 1.7975189774,
				"element": "C" 
			},
			{
				"x": 2.5913913155,
				"y": 0.5357324049,
				"z": 2.9558161263,
				"element": "C" 
			},
			{
				"x": 1.8870504805,
				"y": 1.135761416,
				"z": 0.6013466877,
				"element": "C" 
			},
			{
				"x": 3.0167315986,
				"y": 1.898659992,
				"z": 0.432222404,
				"element": "O" 
			},
			{
				"x": 2.2713541035,
				"y": 1.51307424,
				"z": -2.1828993238,
				"element": "H" 
			},
			{
				"x": 0.5342447699,
				"y": 1.6978822339,
				"z": -2.4988473395,
				"element": "H" 
			},
			{
				"x": 1.4202069797,
				"y": 2.9144729151,
				"z": -1.5573653824,
				"element": "H" 
			},
			{
				"x": -0.8663800213,
				"y": 0.2718075069,
				"z": -1.1796781913,
				"element": "H" 
			},
			{
				"x": -1.8631092157,
				"y": -1.4930383292,
				"z": 1.9881500624,
				"element": "H" 
			},
			{
				"x": -1.5432524221,
				"y": -2.189426325,
				"z": 0.4044708903,
				"element": "H" 
			},
			{
				"x": -3.6679746812,
				"y": -1.1992889898,
				"z": 0.3326034222,
				"element": "H" 
			},
			{
				"x": -3.0951999074,
				"y": 0.2618777381,
				"z": 0.7879785075,
				"element": "H" 
			},
			{
				"x": 0.2304389214,
				"y": -0.827304068,
				"z": 2.811116504,
				"element": "H" 
			},
			{
				"x": 2.2309788595,
				"y": -0.0473593489,
				"z": 3.8066744311,
				"element": "H" 
			},
			{
				"x": 2.7274964022,
				"y": 1.5675975622,
				"z": 3.3091575645,
				"element": "H" 
			},
			{
				"x": 3.585013786,
				"y": 0.143188307,
				"z": 2.6973182264,
				"element": "H" 
			},
			{
				"x": 3.5515729913,
				"y": 1.8590904632,
				"z": 1.2343324383,
				"element": "H" 
			}
		],
		 "valence_orbital": [ 
			{
				"type": "occ",
				"energy": -0.32114,
				"method": "rhf"
			},
			{
				"type": "occ",
				"energy": -0.3122,
				"method": "rhf"
			},
			{
				"type": "occ",
				"energy": -0.23361,
				"method": "rhf"
			},
			{
				"type": "occ",
				"energy": -0.22703,
				"method": "rhf"
			},
			{
				"type": "occ",
				"energy": -0.20212,
				"method": "rhf"
			},
			{
				"type": "unocc",
				"energy": 0.01318,
				"method": "rhf"
			},
			{
				"type": "unocc",
				"energy": 0.01958,
				"method": "rhf"
			},
			{
				"type": "unocc",
				"energy": 0.06846,
				"method": "rhf"
			},
			{
				"type": "unocc",
				"energy": 0.09326,
				"method": "rhf"
			},
			{
				"type": "unocc",
				"energy": 0.11861,
				"method": "rhf"
			}
		],
		"cosmo_sigma_profile": { 
			"-0.025": 0.0,
			"-0.024": 0.0,
			"-0.023": 0.0,
			"-0.022": 0.0,
			"-0.021": 0.0,
			"-0.02": 0.0,
			"-0.019": 0.0,
			"-0.018": 0.0,
			"-0.017": 0.0,
			"-0.016": 0.150561168561,
			"-0.015": 0.813734995682,
			"-0.014": 0.557826021558,
			"-0.013": 1.29439580702,
			"-0.012": 0.622015019676,
			"-0.011": 1.17145031127,
			"-0.01": 1.62451516412,
			"-0.009": 4.18412622619,
			"-0.008": 3.90848353798,
			"-0.007": 3.67769992664,
			"-0.006": 4.59572721683,
			"-0.005": 7.81228728198,
			"-0.004": 14.0492506382,
			"-0.003": 19.8002192751,
			"-0.002": 18.3184361187,
			"-0.001": 20.7589700249,
			"0.0": 19.8785551406,
			"0.001": 15.0195279816,
			"0.002": 8.23718456775,
			"0.003": 9.07316638462,
			"0.004": 9.92978481297,
			"0.005": 10.5307032267,
			"0.006": 9.17474273948,
			"0.007": 7.942066281,
			"0.008": 2.57111730214,
			"0.009": 2.19896869256,
			"0.01": 2.91001799296,
			"0.011": 1.73365922434,
			"0.012": 0.898147154603,
			"0.013": 0.696936292783,
			"0.014": 0.526566224272,
			"0.015": 0.813392060217,
			"0.016": 0.173801925864,
			"0.017": 0.746841248723,
			"0.018": 0.186113092436,
			"0.019": 0.0,
			"0.02": 0.0,
			"0.021": 0.0,
			"0.022": 0.0,
			"0.023": 0.0,
			"0.024": 0.0,
			"0.025": 0.0
		}
	}
}
