{
	 "smiles": "CC1=NC2=NC(S)=NN2C(C)=C1", 
	 "Tm": 533.15, 
	 "num_atms": 20, 
	 "gaussian": { 
		 "optdone": 1, 
		 "sigma_profile": "yes", 
		 "theory": "DFT", 
		 "functional": "B3LYP", 
		 "basiset": "6-31G**", 
		 "properties": { 
			 "R2extent": 4284.5587, 
			 "electric_dipole_moment_norm": 4.4147726408, 
			 "electric_quadrupole_moment_norm": 14.6413963115, 
			 "total_energy": -888.755745228, 
			 "HOMO_LUMO_gap": 0.17657, 
			 "cosmo_polarized_energy": -13.45, 
			 "cosmo_cavitation_energy": 26.08, 
			 "cosmo_dispersion_energy": -20.02, 
			 "cosmo_repulsion_energy": 1.55, 
			 "cosmo_total_nonelectrostatic_energy": 7.6, 
			 "SMD_solvation_energy": -0.17 
		},
		"coords": [
			{
				"x": -2.3276183872,
				"y": 1.6888448406,
				"z": -0.4172984688,
				"element": "C" 
			},
			{
				"x": -0.8263853371,
				"y": 1.7884105047,
				"z": -0.3296976177,
				"element": "C" 
			},
			{
				"x": -0.2230619937,
				"y": 0.9560869943,
				"z": 0.5133212872,
				"element": "N" 
			},
			{
				"x": 1.1100920059,
				"y": 1.0386658549,
				"z": 0.5965225052,
				"element": "C" 
			},
			{
				"x": 1.9600064021,
				"y": 0.3353182163,
				"z": 1.3494943762,
				"element": "N" 
			},
			{
				"x": 3.1604760366,
				"y": 0.8556086953,
				"z": 1.0113952056,
				"element": "C" 
			},
			{
				"x": 4.6840562924,
				"y": 0.3008921584,
				"z": 1.7071826726,
				"element": "S" 
			},
			{
				"x": 3.1729381882,
				"y": 1.8390499105,
				"z": 0.1023213379,
				"element": "N" 
			},
			{
				"x": 1.8447779439,
				"y": 1.9571531251,
				"z": -0.1660604342,
				"element": "N" 
			},
			{
				"x": 1.2581793643,
				"y": 2.8219915428,
				"z": -1.0370377233,
				"element": "C" 
			},
			{
				"x": 2.1385698159,
				"y": 3.7579282834,
				"z": -1.7980608331,
				"element": "C" 
			},
			{
				"x": -0.1162847924,
				"y": 2.7331646696,
				"z": -1.1194284107,
				"element": "C" 
			},
			{
				"x": -2.7731963204,
				"y": 1.8688892412,
				"z": 0.566040577,
				"element": "H" 
			},
			{
				"x": -2.744524786,
				"y": 2.4044561175,
				"z": -1.1296349411,
				"element": "H" 
			},
			{
				"x": -2.6192032517,
				"y": 0.6783096944,
				"z": -0.7201387345,
				"element": "H" 
			},
			{
				"x": 4.0910215291,
				"y": -0.6199545788,
				"z": 2.4895289679,
				"element": "H" 
			},
			{
				"x": 2.8672543994,
				"y": 3.1975078926,
				"z": -2.392822508,
				"element": "H" 
			},
			{
				"x": 2.7140977742,
				"y": 4.385071491,
				"z": -1.1094058056,
				"element": "H" 
			},
			{
				"x": 1.5436975848,
				"y": 4.39278371,
				"z": -2.4565147528,
				"element": "H" 
			},
			{
				"x": -0.6479924682,
				"y": 3.3932216362,
				"z": -1.7942066996,
				"element": "H" 
			}
		],
		 "valence_orbital": [ 
			{
				"type": "occ",
				"energy": -0.29662,
				"method": "rhf"
			},
			{
				"type": "occ",
				"energy": -0.28492,
				"method": "rhf"
			},
			{
				"type": "occ",
				"energy": -0.27445,
				"method": "rhf"
			},
			{
				"type": "occ",
				"energy": -0.24982,
				"method": "rhf"
			},
			{
				"type": "occ",
				"energy": -0.23298,
				"method": "rhf"
			},
			{
				"type": "unocc",
				"energy": -0.05641,
				"method": "rhf"
			},
			{
				"type": "unocc",
				"energy": -0.01629,
				"method": "rhf"
			},
			{
				"type": "unocc",
				"energy": 0.02163,
				"method": "rhf"
			},
			{
				"type": "unocc",
				"energy": 0.05041,
				"method": "rhf"
			},
			{
				"type": "unocc",
				"energy": 0.07468,
				"method": "rhf"
			}
		],
		"cosmo_sigma_profile": { 
			"-0.025": 0.0,
			"-0.024": 0.0,
			"-0.023": 0.0,
			"-0.022": 0.0,
			"-0.021": 0.0,
			"-0.02": 0.0,
			"-0.019": 0.0,
			"-0.018": 0.0,
			"-0.017": 0.0,
			"-0.016": 0.0,
			"-0.015": 0.0,
			"-0.014": 0.0,
			"-0.013": 0.0,
			"-0.012": 0.628693491944,
			"-0.011": 1.3019361828,
			"-0.01": 1.55762201572,
			"-0.009": 1.1224155552,
			"-0.008": 4.19746231117,
			"-0.007": 6.22905156614,
			"-0.006": 10.0415945153,
			"-0.005": 16.4139110119,
			"-0.004": 17.0438148947,
			"-0.003": 19.3191672704,
			"-0.002": 23.3392908743,
			"-0.001": 18.527492413,
			"0.0": 11.8289026816,
			"0.001": 10.3553982553,
			"0.002": 10.5528487668,
			"0.003": 9.68742569597,
			"0.004": 6.98362630927,
			"0.005": 7.09222378251,
			"0.006": 6.73243969598,
			"0.007": 5.06727635577,
			"0.008": 4.12239977905,
			"0.009": 3.24845816132,
			"0.01": 3.13118949919,
			"0.011": 2.81351245548,
			"0.012": 3.2591417886,
			"0.013": 2.45728823758,
			"0.014": 2.28895004094,
			"0.015": 1.7207094336,
			"0.016": 0.0695048873665,
			"0.017": 0.0,
			"0.018": 0.0,
			"0.019": 0.0,
			"0.02": 0.0,
			"0.021": 0.0,
			"0.022": 0.0,
			"0.023": 0.0,
			"0.024": 0.0,
			"0.025": 0.0
		}
	}
}
