{
	 "smiles": "[O-][N+](=O)C1=CC=C(C=C1)C1=CSC(CCl)=N1", 
	 "Tm": 429.15, 
	 "num_atms": 23, 
	 "gaussian": { 
		 "optdone": 1, 
		 "sigma_profile": "yes", 
		 "theory": "DFT", 
		 "functional": "B3LYP", 
		 "basiset": "6-31G**", 
		 "properties": { 
			 "R2extent": 8756.0517, 
			 "electric_dipole_moment_norm": 5.26145301319, 
			 "electric_quadrupole_moment_norm": 25.8116789913, 
			 "total_energy": -1503.51331449, 
			 "HOMO_LUMO_gap": 0.15273, 
			 "cosmo_polarized_energy": -13.22, 
			 "cosmo_cavitation_energy": 32.34, 
			 "cosmo_dispersion_energy": -24.2, 
			 "cosmo_repulsion_energy": 1.83, 
			 "cosmo_total_nonelectrostatic_energy": 9.97, 
			 "SMD_solvation_energy": 5.96 
		},
		"coords": [
			{
				"x": 4.0086785337,
				"y": 2.4042749202,
				"z": -2.1476736222,
				"element": "O" 
			},
			{
				"x": 3.9137264552,
				"y": 1.196417227,
				"z": -2.3655099839,
				"element": "N" 
			},
			{
				"x": 4.8457101007,
				"y": 0.4717880413,
				"z": -2.7160971881,
				"element": "O" 
			},
			{
				"x": 2.594236058,
				"y": 0.5745085493,
				"z": -2.1947797812,
				"element": "C" 
			},
			{
				"x": 2.4541465717,
				"y": -0.7926166833,
				"z": -2.4320256541,
				"element": "C" 
			},
			{
				"x": 1.2047897731,
				"y": -1.3759335255,
				"z": -2.2678625377,
				"element": "C" 
			},
			{
				"x": 0.0940511998,
				"y": -0.6085579479,
				"z": -1.8707289066,
				"element": "C" 
			},
			{
				"x": 0.2705232108,
				"y": 0.7677510593,
				"z": -1.6391728938,
				"element": "C" 
			},
			{
				"x": 1.5159056592,
				"y": 1.3635972985,
				"z": -1.7994104393,
				"element": "C" 
			},
			{
				"x": -1.2402281195,
				"y": -1.209852777,
				"z": -1.6931715555,
				"element": "C" 
			},
			{
				"x": -1.5909562133,
				"y": -2.520684389,
				"z": -1.9250203494,
				"element": "C" 
			},
			{
				"x": -3.2602152409,
				"y": -2.7792913342,
				"z": -1.5837278816,
				"element": "S" 
			},
			{
				"x": -3.3921043977,
				"y": -1.0824036028,
				"z": -1.1412646614,
				"element": "C" 
			},
			{
				"x": -4.6698616914,
				"y": -0.4698058463,
				"z": -0.6741694344,
				"element": "C" 
			},
			{
				"x": -5.8524951036,
				"y": -0.1990236524,
				"z": -2.0370579242,
				"element": "Cl" 
			},
			{
				"x": -2.2818095359,
				"y": -0.415982726,
				"z": -1.2512851945,
				"element": "N" 
			},
			{
				"x": 3.3172670333,
				"y": -1.3709353874,
				"z": -2.736472371,
				"element": "H" 
			},
			{
				"x": 1.0990195938,
				"y": -2.4404366889,
				"z": -2.4488394634,
				"element": "H" 
			},
			{
				"x": -0.5841073094,
				"y": 1.3591062993,
				"z": -1.3333193151,
				"element": "H" 
			},
			{
				"x": 1.6661946532,
				"y": 2.4217172341,
				"z": -1.6255628566,
				"element": "H" 
			},
			{
				"x": -0.9738644962,
				"y": -3.3341446885,
				"z": -2.2771313008,
				"element": "H" 
			},
			{
				"x": -5.1887982309,
				"y": -1.0949178403,
				"z": 0.052818477,
				"element": "H" 
			},
			{
				"x": -4.4512085038,
				"y": 0.5062264607,
				"z": -0.2436351623,
				"element": "H" 
			}
		],
		 "valence_orbital": [ 
			{
				"type": "occ",
				"energy": -0.30372,
				"method": "rhf"
			},
			{
				"type": "occ",
				"energy": -0.29998,
				"method": "rhf"
			},
			{
				"type": "occ",
				"energy": -0.28942,
				"method": "rhf"
			},
			{
				"type": "occ",
				"energy": -0.28013,
				"method": "rhf"
			},
			{
				"type": "occ",
				"energy": -0.24753,
				"method": "rhf"
			},
			{
				"type": "unocc",
				"energy": -0.0948,
				"method": "rhf"
			},
			{
				"type": "unocc",
				"energy": -0.06557,
				"method": "rhf"
			},
			{
				"type": "unocc",
				"energy": -0.02715,
				"method": "rhf"
			},
			{
				"type": "unocc",
				"energy": -0.02474,
				"method": "rhf"
			},
			{
				"type": "unocc",
				"energy": -0.00721,
				"method": "rhf"
			}
		],
		"cosmo_sigma_profile": { 
			"-0.025": 0.0,
			"-0.024": 0.0,
			"-0.023": 0.0,
			"-0.022": 0.0,
			"-0.021": 0.0,
			"-0.02": 0.0,
			"-0.019": 0.0,
			"-0.018": 0.0,
			"-0.017": 0.0,
			"-0.016": 0.0,
			"-0.015": 0.0,
			"-0.014": 0.0,
			"-0.013": 0.0,
			"-0.012": 0.00193608742787,
			"-0.011": 1.72053671886,
			"-0.01": 3.30132267489,
			"-0.009": 6.64149219473,
			"-0.008": 7.58918652953,
			"-0.007": 9.86083090014,
			"-0.006": 12.6335076965,
			"-0.005": 11.6365433706,
			"-0.004": 11.6531758847,
			"-0.003": 11.4063711891,
			"-0.002": 13.1151314132,
			"-0.001": 21.3633541339,
			"0.0": 27.5202324832,
			"0.001": 33.7998018232,
			"0.002": 21.9954984481,
			"0.003": 9.62974862742,
			"0.004": 10.0845116174,
			"0.005": 12.9005052121,
			"0.006": 11.4716470538,
			"0.007": 8.0705512074,
			"0.008": 9.90362863541,
			"0.009": 5.38213810857,
			"0.01": 3.16422532874,
			"0.011": 0.400263604166,
			"0.012": 0.0,
			"0.013": 0.0,
			"0.014": 0.0,
			"0.015": 0.0,
			"0.016": 0.0,
			"0.017": 0.0,
			"0.018": 0.0,
			"0.019": 0.0,
			"0.02": 0.0,
			"0.021": 0.0,
			"0.022": 0.0,
			"0.023": 0.0,
			"0.024": 0.0,
			"0.025": 0.0
		}
	}
}
