{
	 "smiles": "CCCCCCCCCCC(Br)C(O)=O", 
	 "Tm": 305.15, 
	 "num_atms": 38, 
	 "gaussian": { 
		 "optdone": 1, 
		 "sigma_profile": "yes", 
		 "theory": "DFT", 
		 "functional": "B3LYP", 
		 "basiset": "6-31G**", 
		 "properties": { 
			 "R2extent": 9277.3153, 
			 "electric_dipole_moment_norm": 1.7128756785, 
			 "electric_quadrupole_moment_norm": 14.5812539447, 
			 "total_energy": -3193.02721725, 
			 "HOMO_LUMO_gap": 0.22869, 
			 "cosmo_polarized_energy": -9.51, 
			 "cosmo_cavitation_energy": 40.46, 
			 "cosmo_dispersion_energy": -27.44, 
			 "cosmo_repulsion_energy": 2.21, 
			 "cosmo_total_nonelectrostatic_energy": 15.24, 
			 "SMD_solvation_energy": 5.81 
		},
		"coords": [
			{
				"x": -0.8589750948,
				"y": -2.8014577372,
				"z": -2.631478375,
				"element": "C" 
			},
			{
				"x": -0.925265844,
				"y": -1.345874769,
				"z": -3.1133135545,
				"element": "C" 
			},
			{
				"x": 0.3193718487,
				"y": -0.49065908,
				"z": -2.7880113357,
				"element": "C" 
			},
			{
				"x": 0.3394020989,
				"y": 0.2707575225,
				"z": -1.4472104559,
				"element": "C" 
			},
			{
				"x": 0.3352883936,
				"y": -0.5635204707,
				"z": -0.1451339106,
				"element": "C" 
			},
			{
				"x": -1.0633575073,
				"y": -0.8089859426,
				"z": 0.4491800394,
				"element": "C" 
			},
			{
				"x": -1.0952914944,
				"y": -1.6807697704,
				"z": 1.7259366806,
				"element": "C" 
			},
			{
				"x": -1.0600931066,
				"y": -0.9188808114,
				"z": 3.0655907713,
				"element": "C" 
			},
			{
				"x": 0.206130173,
				"y": -0.1054596753,
				"z": 3.3836256292,
				"element": "C" 
			},
			{
				"x": 1.4660436953,
				"y": -0.9639689677,
				"z": 3.5399159289,
				"element": "C" 
			},
			{
				"x": 2.6976598735,
				"y": -0.198247287,
				"z": 3.9983405634,
				"element": "C" 
			},
			{
				"x": 3.2757552918,
				"y": 1.1554150323,
				"z": 2.6381965291,
				"element": "Br" 
			},
			{
				"x": 3.9018993864,
				"y": -1.0997075451,
				"z": 4.2166917085,
				"element": "C" 
			},
			{
				"x": 4.7820483157,
				"y": -0.5516907854,
				"z": 5.081002756,
				"element": "O" 
			},
			{
				"x": 4.057002063,
				"y": -2.1839053158,
				"z": 3.7028157047,
				"element": "O" 
			},
			{
				"x": -1.7605726038,
				"y": -3.3534675694,
				"z": -2.9190562807,
				"element": "H" 
			},
			{
				"x": -0.7580892368,
				"y": -2.878557135,
				"z": -1.5452372035,
				"element": "H" 
			},
			{
				"x": -0.0001622995,
				"y": -3.3169530463,
				"z": -3.0765777617,
				"element": "H" 
			},
			{
				"x": -1.0609802166,
				"y": -1.3603212751,
				"z": -4.2023150662,
				"element": "H" 
			},
			{
				"x": -1.8227632481,
				"y": -0.8568229827,
				"z": -2.7112999427,
				"element": "H" 
			},
			{
				"x": 1.2149426243,
				"y": -1.1251894223,
				"z": -2.8531918145,
				"element": "H" 
			},
			{
				"x": 0.4345278295,
				"y": 0.2621051048,
				"z": -3.5786768825,
				"element": "H" 
			},
			{
				"x": 1.2409639848,
				"y": 0.8961547427,
				"z": -1.4537241129,
				"element": "H" 
			},
			{
				"x": -0.5048611509,
				"y": 0.9749187064,
				"z": -1.4243896817,
				"element": "H" 
			},
			{
				"x": 0.8305317397,
				"y": -1.5277974165,
				"z": -0.3239786299,
				"element": "H" 
			},
			{
				"x": 0.9553130197,
				"y": -0.0498294565,
				"z": 0.5977463481,
				"element": "H" 
			},
			{
				"x": -1.5379216988,
				"y": 0.1606685621,
				"z": 0.6580845236,
				"element": "H" 
			},
			{
				"x": -1.6922754839,
				"y": -1.2822436116,
				"z": -0.3130268854,
				"element": "H" 
			},
			{
				"x": -0.2822364214,
				"y": -2.418092331,
				"z": 1.6871142967,
				"element": "H" 
			},
			{
				"x": -2.0206666333,
				"y": -2.2700969378,
				"z": 1.7251518156,
				"element": "H" 
			},
			{
				"x": -1.918977255,
				"y": -0.2351727665,
				"z": 3.0936165088,
				"element": "H" 
			},
			{
				"x": -1.2251115,
				"y": -1.6404755906,
				"z": 3.878047862,
				"element": "H" 
			},
			{
				"x": 0.3720025586,
				"y": 0.6552284238,
				"z": 2.6138855933,
				"element": "H" 
			},
			{
				"x": 0.0349197328,
				"y": 0.445196571,
				"z": 4.3190464381,
				"element": "H" 
			},
			{
				"x": 1.2852978291,
				"y": -1.7387459361,
				"z": 4.2997341422,
				"element": "H" 
			},
			{
				"x": 1.7109519403,
				"y": -1.4978963689,
				"z": 2.6180452338,
				"element": "H" 
			},
			{
				"x": 2.5167259032,
				"y": 0.4018272118,
				"z": 4.8905660603,
				"element": "H" 
			},
			{
				"x": 5.5279224931,
				"y": -1.1718818735,
				"z": 5.1445867599,
				"element": "H" 
			}
		],
		 "valence_orbital": [ 
			{
				"type": "occ",
				"energy": -0.30006,
				"method": "rhf"
			},
			{
				"type": "occ",
				"energy": -0.29498,
				"method": "rhf"
			},
			{
				"type": "occ",
				"energy": -0.29382,
				"method": "rhf"
			},
			{
				"type": "occ",
				"energy": -0.28053,
				"method": "rhf"
			},
			{
				"type": "occ",
				"energy": -0.27458,
				"method": "rhf"
			},
			{
				"type": "unocc",
				"energy": -0.04589,
				"method": "rhf"
			},
			{
				"type": "unocc",
				"energy": 0.03635,
				"method": "rhf"
			},
			{
				"type": "unocc",
				"energy": 0.07095,
				"method": "rhf"
			},
			{
				"type": "unocc",
				"energy": 0.0767,
				"method": "rhf"
			},
			{
				"type": "unocc",
				"energy": 0.09321,
				"method": "rhf"
			}
		],
		"cosmo_sigma_profile": { 
			"-0.025": 0.0,
			"-0.024": 0.0,
			"-0.023": 0.0,
			"-0.022": 0.0,
			"-0.021": 0.0,
			"-0.02": 0.0,
			"-0.019": 0.502820867768,
			"-0.018": 0.817710891152,
			"-0.017": 1.20388781821,
			"-0.016": 0.536853455327,
			"-0.015": 0.765494611899,
			"-0.014": 0.512243148522,
			"-0.013": 0.822247533806,
			"-0.012": 0.96643413341,
			"-0.011": 0.846187167916,
			"-0.01": 0.605666406261,
			"-0.009": 0.6670498572,
			"-0.008": 3.62339374763,
			"-0.007": 4.39534166531,
			"-0.006": 4.10145112147,
			"-0.005": 4.50836461002,
			"-0.004": 5.40733293462,
			"-0.003": 11.4526521066,
			"-0.002": 32.4993497655,
			"-0.001": 60.3858985787,
			"0.0": 57.9077257902,
			"0.001": 46.2928234955,
			"0.002": 25.5685191133,
			"0.003": 10.047175848,
			"0.004": 8.5564081494,
			"0.005": 10.3671049948,
			"0.006": 4.47279682299,
			"0.007": 2.7236846392,
			"0.008": 3.64072407844,
			"0.009": 2.56127912796,
			"0.01": 2.64566938362,
			"0.011": 4.87875674224,
			"0.012": 1.00331333889,
			"0.013": 0.0,
			"0.014": 0.0,
			"0.015": 0.0,
			"0.016": 0.0,
			"0.017": 0.0,
			"0.018": 0.0,
			"0.019": 0.0,
			"0.02": 0.0,
			"0.021": 0.0,
			"0.022": 0.0,
			"0.023": 0.0,
			"0.024": 0.0,
			"0.025": 0.0
		}
	}
}
