{
	 "smiles": "OC(=O)C1=C(C#N)C(=S)NC(=C1)C1CC1", 
	 "Tm": 532.15, 
	 "num_atms": 23, 
	 "gaussian": { 
		 "optdone": 1, 
		 "sigma_profile": "yes", 
		 "theory": "DFT", 
		 "functional": "B3LYP", 
		 "basiset": "6-31G**", 
		 "properties": { 
			 "R2extent": 5035.0474, 
			 "electric_dipole_moment_norm": 8.61508686201, 
			 "electric_quadrupole_moment_norm": 27.981504021, 
			 "total_energy": -1043.98626345, 
			 "HOMO_LUMO_gap": 0.11176, 
			 "cosmo_polarized_energy": -29.03, 
			 "cosmo_cavitation_energy": 30.51, 
			 "cosmo_dispersion_energy": -21.91, 
			 "cosmo_repulsion_energy": 1.67, 
			 "cosmo_total_nonelectrostatic_energy": 10.28, 
			 "SMD_solvation_energy": 6.1 
		},
		"coords": [
			{
				"x": 0.681833256,
				"y": -4.6453258631,
				"z": 0.7277342588,
				"element": "O" 
			},
			{
				"x": 0.2588810147,
				"y": -3.45571878,
				"z": 1.1712566476,
				"element": "C" 
			},
			{
				"x": -0.4689191469,
				"y": -3.3253350232,
				"z": 2.1353685438,
				"element": "O" 
			},
			{
				"x": 0.7586422928,
				"y": -2.2795664194,
				"z": 0.3712697971,
				"element": "C" 
			},
			{
				"x": 1.6187585425,
				"y": -2.3571473276,
				"z": -0.7265792277,
				"element": "C" 
			},
			{
				"x": 2.1482518254,
				"y": -3.5819140385,
				"z": -1.2414148142,
				"element": "C" 
			},
			{
				"x": 2.5950072428,
				"y": -4.5618027622,
				"z": -1.6801047407,
				"element": "N" 
			},
			{
				"x": 2.0288622397,
				"y": -1.1440611795,
				"z": -1.4151869151,
				"element": "C" 
			},
			{
				"x": 3.0430389814,
				"y": -1.0393889391,
				"z": -2.7365654719,
				"element": "S" 
			},
			{
				"x": 1.4925132463,
				"y": 0.020749745,
				"z": -0.8776712051,
				"element": "N" 
			},
			{
				"x": 0.6547227755,
				"y": 0.1280469557,
				"z": 0.1896360471,
				"element": "C" 
			},
			{
				"x": 0.2779371146,
				"y": -1.0323359668,
				"z": 0.8285581224,
				"element": "C" 
			},
			{
				"x": 0.2272095342,
				"y": 1.4938544339,
				"z": 0.5624774279,
				"element": "C" 
			},
			{
				"x": 0.0087611546,
				"y": 1.8656469087,
				"z": 2.0228868273,
				"element": "C" 
			},
			{
				"x": -1.1698962378,
				"y": 1.7454634659,
				"z": 1.1131495523,
				"element": "C" 
			},
			{
				"x": 0.3014085373,
				"y": -5.3195995377,
				"z": 1.3156303758,
				"element": "H" 
			},
			{
				"x": 1.7866588403,
				"y": 0.8595751676,
				"z": -1.3677032813,
				"element": "H" 
			},
			{
				"x": -0.3838672979,
				"y": -1.0203537163,
				"z": 1.683228051,
				"element": "H" 
			},
			{
				"x": 0.6370752742,
				"y": 2.2756544715,
				"z": -0.0718313849,
				"element": "H" 
			},
			{
				"x": 0.3356844168,
				"y": 2.8540368791,
				"z": 2.3295310243,
				"element": "H" 
			},
			{
				"x": 0.1768903871,
				"y": 1.0867268284,
				"z": 2.7597751247,
				"element": "H" 
			},
			{
				"x": -1.8205978302,
				"y": 0.8831775717,
				"z": 1.2182959219,
				"element": "H" 
			},
			{
				"x": -1.6702561634,
				"y": 2.6495171258,
				"z": 0.7812593186,
				"element": "H" 
			}
		],
		 "valence_orbital": [ 
			{
				"type": "occ",
				"energy": -0.31992,
				"method": "rhf"
			},
			{
				"type": "occ",
				"energy": -0.3058,
				"method": "rhf"
			},
			{
				"type": "occ",
				"energy": -0.29067,
				"method": "rhf"
			},
			{
				"type": "occ",
				"energy": -0.21706,
				"method": "rhf"
			},
			{
				"type": "occ",
				"energy": -0.21698,
				"method": "rhf"
			},
			{
				"type": "unocc",
				"energy": -0.10522,
				"method": "rhf"
			},
			{
				"type": "unocc",
				"energy": -0.05393,
				"method": "rhf"
			},
			{
				"type": "unocc",
				"energy": 0.0052,
				"method": "rhf"
			},
			{
				"type": "unocc",
				"energy": 0.03479,
				"method": "rhf"
			},
			{
				"type": "unocc",
				"energy": 0.04064,
				"method": "rhf"
			}
		],
		"cosmo_sigma_profile": { 
			"-0.025": 0.0,
			"-0.024": 0.0,
			"-0.023": 0.0,
			"-0.022": 0.0,
			"-0.021": 0.0,
			"-0.02": 0.200741816434,
			"-0.019": 1.24323207414,
			"-0.018": 0.873046084586,
			"-0.017": 1.66505876225,
			"-0.016": 1.77397737573,
			"-0.015": 2.08026075836,
			"-0.014": 2.21460212874,
			"-0.013": 1.53212450006,
			"-0.012": 2.38334648448,
			"-0.011": 1.43949862262,
			"-0.01": 1.70554708128,
			"-0.009": 3.46717251902,
			"-0.008": 5.53552586583,
			"-0.007": 8.13361970659,
			"-0.006": 15.3365428591,
			"-0.005": 14.9056231986,
			"-0.004": 19.2319941456,
			"-0.003": 17.3725243217,
			"-0.002": 18.4161390224,
			"-0.001": 13.1796094496,
			"0.0": 10.2949105134,
			"0.001": 9.54121160022,
			"0.002": 5.87638963681,
			"0.003": 7.82585023123,
			"0.004": 6.18875267133,
			"0.005": 6.00149862848,
			"0.006": 6.92744076623,
			"0.007": 9.1309085051,
			"0.008": 11.1408653194,
			"0.009": 15.0939963993,
			"0.01": 14.6333753475,
			"0.011": 8.21246845787,
			"0.012": 3.02124686147,
			"0.013": 1.21125781148,
			"0.014": 0.0,
			"0.015": 0.0,
			"0.016": 0.0,
			"0.017": 0.0,
			"0.018": 0.0,
			"0.019": 0.0,
			"0.02": 0.0,
			"0.021": 0.0,
			"0.022": 0.0,
			"0.023": 0.0,
			"0.024": 0.0,
			"0.025": 0.0
		}
	}
}
