{
	 "smiles": "CNC(SC)=NC1=C(C)C=CC=N1", 
	 "Tm": 299.15, 
	 "num_atms": 26, 
	 "gaussian": { 
		 "optdone": 1, 
		 "sigma_profile": "yes", 
		 "theory": "DFT", 
		 "functional": "B3LYP", 
		 "basiset": "6-31G**", 
		 "properties": { 
			 "R2extent": 4243.5845, 
			 "electric_dipole_moment_norm": 2.35163063426, 
			 "electric_quadrupole_moment_norm": 11.8785734425, 
			 "total_energy": -913.230997686, 
			 "HOMO_LUMO_gap": 0.18027, 
			 "cosmo_polarized_energy": -11.19, 
			 "cosmo_cavitation_energy": 30.46, 
			 "cosmo_dispersion_energy": -22.38, 
			 "cosmo_repulsion_energy": 1.76, 
			 "cosmo_total_nonelectrostatic_energy": 9.85, 
			 "SMD_solvation_energy": 3.65 
		},
		"coords": [
			{
				"x": 3.697169122,
				"y": -0.3329467025,
				"z": -2.0148081483,
				"element": "C" 
			},
			{
				"x": 2.3401362093,
				"y": -0.5944476865,
				"z": -1.5336056644,
				"element": "N" 
			},
			{
				"x": 1.9628636305,
				"y": -0.4209838235,
				"z": -0.2114665476,
				"element": "C" 
			},
			{
				"x": 2.3442523021,
				"y": 1.1732292192,
				"z": 0.5419574113,
				"element": "S" 
			},
			{
				"x": 2.2068309884,
				"y": 2.2977300786,
				"z": -0.9083721358,
				"element": "C" 
			},
			{
				"x": 1.2896948207,
				"y": -1.3658356806,
				"z": 0.3475183295,
				"element": "N" 
			},
			{
				"x": 0.8227587593,
				"y": -1.3196808589,
				"z": 1.6540301371,
				"element": "C" 
			},
			{
				"x": -0.3624786745,
				"y": -2.0372110698,
				"z": 1.9618483901,
				"element": "C" 
			},
			{
				"x": -1.1266105401,
				"y": -2.7599899742,
				"z": 0.8847577593,
				"element": "C" 
			},
			{
				"x": -0.7775266035,
				"y": -2.02947153,
				"z": 3.2903572913,
				"element": "C" 
			},
			{
				"x": -0.0388613223,
				"y": -1.3418368775,
				"z": 4.2581187046,
				"element": "C" 
			},
			{
				"x": 1.1119891674,
				"y": -0.6768644763,
				"z": 3.8485032511,
				"element": "C" 
			},
			{
				"x": 1.541768068,
				"y": -0.6669713973,
				"z": 2.5815142718,
				"element": "N" 
			},
			{
				"x": 4.191474446,
				"y": 0.3827366538,
				"z": -1.3583325818,
				"element": "H" 
			},
			{
				"x": 4.30209575,
				"y": -1.2488744564,
				"z": -2.0197622028,
				"element": "H" 
			},
			{
				"x": 3.6747376702,
				"y": 0.0754887158,
				"z": -3.0303907381,
				"element": "H" 
			},
			{
				"x": 1.9578396508,
				"y": -1.4747633349,
				"z": -1.8634264644,
				"element": "H" 
			},
			{
				"x": 1.3358977051,
				"y": 2.0425724014,
				"z": -1.5129146444,
				"element": "H" 
			},
			{
				"x": 3.0999077921,
				"y": 2.3056121014,
				"z": -1.5352624966,
				"element": "H" 
			},
			{
				"x": 2.0678186776,
				"y": 3.2938334612,
				"z": -0.481479946,
				"element": "H" 
			},
			{
				"x": -1.9410402548,
				"y": -3.352814517,
				"z": 1.3113939687,
				"element": "H" 
			},
			{
				"x": -0.4663333948,
				"y": -3.4221704942,
				"z": 0.315949048,
				"element": "H" 
			},
			{
				"x": -1.5592257631,
				"y": -2.0583537061,
				"z": 0.1623099349,
				"element": "H" 
			},
			{
				"x": -1.6814878231,
				"y": -2.565558825,
				"z": 3.5700624666,
				"element": "H" 
			},
			{
				"x": -0.3443435055,
				"y": -1.3312037693,
				"z": 5.2994303958,
				"element": "H" 
			},
			{
				"x": 1.7260731222,
				"y": -0.1334234515,
				"z": 4.5646702104,
				"element": "H" 
			}
		],
		 "valence_orbital": [ 
			{
				"type": "occ",
				"energy": -0.26044,
				"method": "rhf"
			},
			{
				"type": "occ",
				"energy": -0.25364,
				"method": "rhf"
			},
			{
				"type": "occ",
				"energy": -0.24529,
				"method": "rhf"
			},
			{
				"type": "occ",
				"energy": -0.23491,
				"method": "rhf"
			},
			{
				"type": "occ",
				"energy": -0.20311,
				"method": "rhf"
			},
			{
				"type": "unocc",
				"energy": -0.02284,
				"method": "rhf"
			},
			{
				"type": "unocc",
				"energy": -0.00132,
				"method": "rhf"
			},
			{
				"type": "unocc",
				"energy": 0.0422,
				"method": "rhf"
			},
			{
				"type": "unocc",
				"energy": 0.04975,
				"method": "rhf"
			},
			{
				"type": "unocc",
				"energy": 0.08592,
				"method": "rhf"
			}
		],
		"cosmo_sigma_profile": { 
			"-0.025": 0.0,
			"-0.024": 0.0,
			"-0.023": 0.0,
			"-0.022": 0.0,
			"-0.021": 0.0,
			"-0.02": 0.0,
			"-0.019": 0.0,
			"-0.018": 0.0,
			"-0.017": 0.0,
			"-0.016": 0.0,
			"-0.015": 0.0,
			"-0.014": 0.0,
			"-0.013": 0.267840508265,
			"-0.012": 0.947554159152,
			"-0.011": 0.923302266415,
			"-0.01": 1.17335058793,
			"-0.009": 0.657701877572,
			"-0.008": 0.762606343809,
			"-0.007": 1.98754789024,
			"-0.006": 9.55397460103,
			"-0.005": 18.5757703048,
			"-0.004": 24.3089734157,
			"-0.003": 23.09299998,
			"-0.002": 25.7726166778,
			"-0.001": 19.4951920545,
			"0.0": 17.6731607428,
			"0.001": 14.2651175556,
			"0.002": 12.1104260239,
			"0.003": 15.8041135809,
			"0.004": 15.4890789968,
			"0.005": 8.81704472889,
			"0.006": 5.53759395999,
			"0.007": 7.14147749937,
			"0.008": 6.16812353824,
			"0.009": 4.49551526806,
			"0.01": 3.07145781895,
			"0.011": 1.78455989035,
			"0.012": 1.44913955484,
			"0.013": 1.09894654794,
			"0.014": 0.408936625277,
			"0.015": 0.0,
			"0.016": 0.0,
			"0.017": 0.0,
			"0.018": 0.0,
			"0.019": 0.0,
			"0.02": 0.0,
			"0.021": 0.0,
			"0.022": 0.0,
			"0.023": 0.0,
			"0.024": 0.0,
			"0.025": 0.0
		}
	}
}
