{
	 "smiles": "CC1CC2=C(O1)C(Cl)=CC(=C2)S(N)(=O)=O", 
	 "Tm": 448.15, 
	 "num_atms": 25, 
	 "gaussian": { 
		 "optdone": 1, 
		 "sigma_profile": "yes", 
		 "theory": "DFT", 
		 "functional": "B3LYP", 
		 "basiset": "6-31G**", 
		 "properties": { 
			 "R2extent": 5159.6842, 
			 "electric_dipole_moment_norm": 5.12210342242, 
			 "electric_quadrupole_moment_norm": 21.4520325757, 
			 "total_energy": -1487.72079988, 
			 "HOMO_LUMO_gap": 0.20361, 
			 "cosmo_polarized_energy": -17.35, 
			 "cosmo_cavitation_energy": 31.9, 
			 "cosmo_dispersion_energy": -24.05, 
			 "cosmo_repulsion_energy": 1.87, 
			 "cosmo_total_nonelectrostatic_energy": 9.73, 
			 "SMD_solvation_energy": 4.71 
		},
		"coords": [
			{
				"x": 0.7429023454,
				"y": 3.4179416893,
				"z": -2.1586688794,
				"element": "C" 
			},
			{
				"x": 0.4601584445,
				"y": 1.9384881258,
				"z": -1.982040595,
				"element": "C" 
			},
			{
				"x": 1.242314573,
				"y": 1.2337110245,
				"z": -0.8429692996,
				"element": "C" 
			},
			{
				"x": 0.167763743,
				"y": 0.3985691356,
				"z": -0.1856166904,
				"element": "C" 
			},
			{
				"x": -1.0645580754,
				"y": 0.8113043703,
				"z": -0.7133769117,
				"element": "C" 
			},
			{
				"x": -0.9613552759,
				"y": 1.7706317295,
				"z": -1.6563917082,
				"element": "O" 
			},
			{
				"x": -2.2629803762,
				"y": 0.2482697784,
				"z": -0.2737761001,
				"element": "C" 
			},
			{
				"x": -3.7853457001,
				"y": 0.7663990031,
				"z": -0.9540002859,
				"element": "Cl" 
			},
			{
				"x": -2.2175956043,
				"y": -0.742963744,
				"z": 0.7083343446,
				"element": "C" 
			},
			{
				"x": -0.9851629926,
				"y": -1.1408637804,
				"z": 1.228044944,
				"element": "C" 
			},
			{
				"x": 0.2243310623,
				"y": -0.5802297479,
				"z": 0.7905461355,
				"element": "C" 
			},
			{
				"x": -0.9487994499,
				"y": -2.4153953149,
				"z": 2.4790809455,
				"element": "S" 
			},
			{
				"x": -0.7381129797,
				"y": -1.5370209918,
				"z": 3.9177833076,
				"element": "N" 
			},
			{
				"x": 0.2867989638,
				"y": -3.1875612508,
				"z": 2.317328237,
				"element": "O" 
			},
			{
				"x": -2.2688777474,
				"y": -3.0547434106,
				"z": 2.4990078952,
				"element": "O" 
			},
			{
				"x": 1.785321245,
				"y": 3.5671823097,
				"z": -2.4581546761,
				"element": "H" 
			},
			{
				"x": 0.5689095751,
				"y": 3.9573895697,
				"z": -1.2226128241,
				"element": "H" 
			},
			{
				"x": 0.0984745041,
				"y": 3.8457707668,
				"z": -2.9311452919,
				"element": "H" 
			},
			{
				"x": 0.6133666162,
				"y": 1.4054474086,
				"z": -2.9286338133,
				"element": "H" 
			},
			{
				"x": 1.6582483943,
				"y": 1.964780575,
				"z": -0.1373012047,
				"element": "H" 
			},
			{
				"x": 2.0754659351,
				"y": 0.6406925508,
				"z": -1.2311043186,
				"element": "H" 
			},
			{
				"x": -3.1300759908,
				"y": -1.2164688015,
				"z": 1.0508160808,
				"element": "H" 
			},
			{
				"x": 1.1663031824,
				"y": -0.9236387453,
				"z": 1.2040406382,
				"element": "H" 
			},
			{
				"x": -1.6256355998,
				"y": -1.4561145332,
				"z": 4.4084144164,
				"element": "H" 
			},
			{
				"x": -0.0533587919,
				"y": -2.0290777166,
				"z": 4.4871956542,
				"element": "H" 
			}
		],
		 "valence_orbital": [ 
			{
				"type": "occ",
				"energy": -0.31149,
				"method": "rhf"
			},
			{
				"type": "occ",
				"energy": -0.30403,
				"method": "rhf"
			},
			{
				"type": "occ",
				"energy": -0.28981,
				"method": "rhf"
			},
			{
				"type": "occ",
				"energy": -0.26111,
				"method": "rhf"
			},
			{
				"type": "occ",
				"energy": -0.23492,
				"method": "rhf"
			},
			{
				"type": "unocc",
				"energy": -0.03131,
				"method": "rhf"
			},
			{
				"type": "unocc",
				"energy": -0.02836,
				"method": "rhf"
			},
			{
				"type": "unocc",
				"energy": 0.02186,
				"method": "rhf"
			},
			{
				"type": "unocc",
				"energy": 0.06067,
				"method": "rhf"
			},
			{
				"type": "unocc",
				"energy": 0.07847,
				"method": "rhf"
			}
		],
		"cosmo_sigma_profile": { 
			"-0.025": 0.0,
			"-0.024": 0.0,
			"-0.023": 0.0,
			"-0.022": 0.0,
			"-0.021": 0.0,
			"-0.02": 0.0,
			"-0.019": 0.0,
			"-0.018": 0.0,
			"-0.017": 0.0,
			"-0.016": 0.0,
			"-0.015": 0.84501008214,
			"-0.014": 2.56711117071,
			"-0.013": 2.76885196293,
			"-0.012": 2.80883376831,
			"-0.011": 1.8934083754,
			"-0.01": 1.8781029297,
			"-0.009": 1.96438148752,
			"-0.008": 2.4405679106,
			"-0.007": 4.43947275131,
			"-0.006": 11.4400947681,
			"-0.005": 19.2768851693,
			"-0.004": 20.8038350009,
			"-0.003": 18.2886620679,
			"-0.002": 17.3982287643,
			"-0.001": 16.5094873544,
			"0.0": 20.4382771066,
			"0.001": 19.153446394,
			"0.002": 13.9498647809,
			"0.003": 11.3167115406,
			"0.004": 14.112017215,
			"0.005": 7.36361440914,
			"0.006": 4.73567009692,
			"0.007": 5.93501721101,
			"0.008": 5.54627900887,
			"0.009": 5.0372250815,
			"0.01": 8.82297585451,
			"0.011": 9.86866921459,
			"0.012": 4.02549156552,
			"0.013": 0.0244782663226,
			"0.014": 0.0,
			"0.015": 0.0,
			"0.016": 0.0,
			"0.017": 0.0,
			"0.018": 0.0,
			"0.019": 0.0,
			"0.02": 0.0,
			"0.021": 0.0,
			"0.022": 0.0,
			"0.023": 0.0,
			"0.024": 0.0,
			"0.025": 0.0
		}
	}
}
