{
	 "smiles": "CN1N=CN=C1C1=CC=C(C=C1)C(O)=O", 
	 "Tm": 514.15, 
	 "num_atms": 24, 
	 "gaussian": { 
		 "optdone": 1, 
		 "sigma_profile": "yes", 
		 "theory": "DFT", 
		 "functional": "B3LYP", 
		 "basiset": "6-31G**", 
		 "properties": { 
			 "R2extent": 4247.5288, 
			 "electric_dipole_moment_norm": 1.56146267967, 
			 "electric_quadrupole_moment_norm": 12.9712593656, 
			 "total_energy": -701.200775935, 
			 "HOMO_LUMO_gap": 0.1752, 
			 "cosmo_polarized_energy": -15.17, 
			 "cosmo_cavitation_energy": 29.02, 
			 "cosmo_dispersion_energy": -21.36, 
			 "cosmo_repulsion_energy": 1.64, 
			 "cosmo_total_nonelectrostatic_energy": 9.3, 
			 "SMD_solvation_energy": 4.05 
		},
		"coords": [
			{
				"x": -0.9235740539,
				"y": 3.5183920829,
				"z": -0.1655333363,
				"element": "C" 
			},
			{
				"x": 0.5184290917,
				"y": 3.362042517,
				"z": -0.0534913814,
				"element": "N" 
			},
			{
				"x": 1.2833208433,
				"y": 4.473567922,
				"z": 0.1029089507,
				"element": "N" 
			},
			{
				"x": 2.5005755085,
				"y": 3.9675241816,
				"z": 0.2453303983,
				"element": "C" 
			},
			{
				"x": 2.5730681409,
				"y": 2.6162958674,
				"z": 0.1970100301,
				"element": "N" 
			},
			{
				"x": 1.3067453417,
				"y": 2.2483329272,
				"z": -0.0004296367,
				"element": "C" 
			},
			{
				"x": 0.8698933271,
				"y": 0.8497474371,
				"z": -0.1134831154,
				"element": "C" 
			},
			{
				"x": -0.2584865306,
				"y": 0.4498351887,
				"z": -0.8511204569,
				"element": "C" 
			},
			{
				"x": -0.6110577492,
				"y": -0.8933294114,
				"z": -0.9256279945,
				"element": "C" 
			},
			{
				"x": 0.1583375391,
				"y": -1.8641622837,
				"z": -0.2736179253,
				"element": "C" 
			},
			{
				"x": 1.2976158505,
				"y": -1.4750849881,
				"z": 0.4467016458,
				"element": "C" 
			},
			{
				"x": 1.6493990777,
				"y": -0.1334854213,
				"z": 0.5230517281,
				"element": "C" 
			},
			{
				"x": -0.2692268763,
				"y": -3.2836187572,
				"z": -0.3857568289,
				"element": "C" 
			},
			{
				"x": 0.5498660844,
				"y": -4.1385637869,
				"z": 0.2754299076,
				"element": "O" 
			},
			{
				"x": -1.2463799124,
				"y": -3.6673773989,
				"z": -0.9983627513,
				"element": "O" 
			},
			{
				"x": -1.1854179743,
				"y": 4.4607062643,
				"z": 0.3148657684,
				"element": "H" 
			},
			{
				"x": -1.2401880261,
				"y": 3.5528810173,
				"z": -1.2128590441,
				"element": "H" 
			},
			{
				"x": -1.4283851505,
				"y": 2.693892778,
				"z": 0.3401297224,
				"element": "H" 
			},
			{
				"x": 3.3630162762,
				"y": 4.6036070817,
				"z": 0.3906353537,
				"element": "H" 
			},
			{
				"x": -0.846456325,
				"y": 1.1789346884,
				"z": -1.3964780934,
				"element": "H" 
			},
			{
				"x": -1.4768462455,
				"y": -1.2128990923,
				"z": -1.4954710807,
				"element": "H" 
			},
			{
				"x": 1.8997355687,
				"y": -2.2263976426,
				"z": 0.9446041545,
				"element": "H" 
			},
			{
				"x": 2.5311810088,
				"y": 0.1792486949,
				"z": 1.0706725331,
				"element": "H" 
			},
			{
				"x": 0.178135185,
				"y": -5.024489866,
				"z": 0.1329914521,
				"element": "H" 
			}
		],
		 "valence_orbital": [ 
			{
				"type": "occ",
				"energy": -0.28472,
				"method": "rhf"
			},
			{
				"type": "occ",
				"energy": -0.28258,
				"method": "rhf"
			},
			{
				"type": "occ",
				"energy": -0.27667,
				"method": "rhf"
			},
			{
				"type": "occ",
				"energy": -0.27028,
				"method": "rhf"
			},
			{
				"type": "occ",
				"energy": -0.24349,
				"method": "rhf"
			},
			{
				"type": "unocc",
				"energy": -0.06829,
				"method": "rhf"
			},
			{
				"type": "unocc",
				"energy": -0.01971,
				"method": "rhf"
			},
			{
				"type": "unocc",
				"energy": 0.00671,
				"method": "rhf"
			},
			{
				"type": "unocc",
				"energy": 0.04209,
				"method": "rhf"
			},
			{
				"type": "unocc",
				"energy": 0.06916,
				"method": "rhf"
			}
		],
		"cosmo_sigma_profile": { 
			"-0.025": 0.0,
			"-0.024": 0.0,
			"-0.023": 0.0,
			"-0.022": 0.0,
			"-0.021": 0.0,
			"-0.02": 0.0,
			"-0.019": 0.168148215614,
			"-0.018": 0.966529394142,
			"-0.017": 0.712441832065,
			"-0.016": 1.04593263904,
			"-0.015": 0.472226751494,
			"-0.014": 0.328603701641,
			"-0.013": 0.457384835675,
			"-0.012": 1.5504146314,
			"-0.011": 0.751614419802,
			"-0.01": 0.657405963966,
			"-0.009": 1.5917462593,
			"-0.008": 5.17951958478,
			"-0.007": 10.779775322,
			"-0.006": 16.263548286,
			"-0.005": 15.0581919519,
			"-0.004": 13.830216488,
			"-0.003": 14.4822751162,
			"-0.002": 12.3913159861,
			"-0.001": 14.3667568957,
			"0.0": 16.2800438855,
			"0.001": 18.0727730447,
			"0.002": 22.3234472214,
			"0.003": 11.4144551031,
			"0.004": 6.64940643036,
			"0.005": 7.51588853458,
			"0.006": 4.88921749075,
			"0.007": 6.2928399859,
			"0.008": 5.35536312305,
			"0.009": 3.15331007984,
			"0.01": 3.49313292728,
			"0.011": 6.47148384406,
			"0.012": 5.21864920896,
			"0.013": 2.16670137491,
			"0.014": 1.81270383724,
			"0.015": 0.598566245497,
			"0.016": 0.269649633007,
			"0.017": 0.0,
			"0.018": 0.0,
			"0.019": 0.0,
			"0.02": 0.0,
			"0.021": 0.0,
			"0.022": 0.0,
			"0.023": 0.0,
			"0.024": 0.0,
			"0.025": 0.0
		}
	}
}
