{
	 "smiles": "C(OC1=CC=C2C=CNC2=C1)C1=CC=CC=C1", 
	 "Tm": 388.15, 
	 "num_atms": 30, 
	 "gaussian": { 
		 "optdone": 1, 
		 "sigma_profile": "yes", 
		 "theory": "DFT", 
		 "functional": "B3LYP", 
		 "basiset": "6-31G**", 
		 "properties": { 
			 "R2extent": 4985.2434, 
			 "electric_dipole_moment_norm": 2.88345567332, 
			 "electric_quadrupole_moment_norm": 8.01022071856, 
			 "total_energy": -709.398149146, 
			 "HOMO_LUMO_gap": 0.182, 
			 "cosmo_polarized_energy": -11.91, 
			 "cosmo_cavitation_energy": 33.7, 
			 "cosmo_dispersion_energy": -24.35, 
			 "cosmo_repulsion_energy": 1.89, 
			 "cosmo_total_nonelectrostatic_energy": 11.24, 
			 "SMD_solvation_energy": 5.7 
		},
		"coords": [
			{
				"x": -0.59910538,
				"y": -1.4430016925,
				"z": 1.2605480532,
				"element": "C" 
			},
			{
				"x": 0.4946894635,
				"y": -1.3310112913,
				"z": 0.3601813002,
				"element": "O" 
			},
			{
				"x": 1.1752499813,
				"y": -0.1376927809,
				"z": 0.2806268968,
				"element": "C" 
			},
			{
				"x": 2.3671362634,
				"y": -0.1946791544,
				"z": -0.4809699469,
				"element": "C" 
			},
			{
				"x": 3.1629930758,
				"y": 0.9253580142,
				"z": -0.6474662558,
				"element": "C" 
			},
			{
				"x": 2.7833296908,
				"y": 2.1410958569,
				"z": -0.0485182301,
				"element": "C" 
			},
			{
				"x": 3.3365578551,
				"y": 3.467637705,
				"z": -0.0066425884,
				"element": "C" 
			},
			{
				"x": 2.4868132612,
				"y": 4.2351187222,
				"z": 0.7436186115,
				"element": "C" 
			},
			{
				"x": 1.4258542956,
				"y": 3.455078369,
				"z": 1.1783888644,
				"element": "N" 
			},
			{
				"x": 1.5813992983,
				"y": 2.168642387,
				"z": 0.7077063283,
				"element": "C" 
			},
			{
				"x": 0.7598196314,
				"y": 1.0455883203,
				"z": 0.8850189694,
				"element": "C" 
			},
			{
				"x": -1.8996715407,
				"y": -0.849872652,
				"z": 0.748225154,
				"element": "C" 
			},
			{
				"x": -2.1647355799,
				"y": -0.7765789022,
				"z": -0.62377523,
				"element": "C" 
			},
			{
				"x": -3.3861946439,
				"y": -0.2804490772,
				"z": -1.0804916343,
				"element": "C" 
			},
			{
				"x": -4.3598811986,
				"y": 0.1405318433,
				"z": -0.1720160273,
				"element": "C" 
			},
			{
				"x": -4.1028670073,
				"y": 0.0678535996,
				"z": 1.1982037356,
				"element": "C" 
			},
			{
				"x": -2.8772584356,
				"y": -0.4208833126,
				"z": 1.6539778447,
				"element": "C" 
			},
			{
				"x": -0.7194417492,
				"y": -2.5230409857,
				"z": 1.4047172212,
				"element": "H" 
			},
			{
				"x": -0.338934057,
				"y": -1.010401384,
				"z": 2.2366704362,
				"element": "H" 
			},
			{
				"x": 2.6372085307,
				"y": -1.147686897,
				"z": -0.9234944714,
				"element": "H" 
			},
			{
				"x": 4.0750932939,
				"y": 0.861066628,
				"z": -1.2342997301,
				"element": "H" 
			},
			{
				"x": 4.2497213499,
				"y": 3.8055489674,
				"z": -0.4757264348,
				"element": "H" 
			},
			{
				"x": 2.5426386609,
				"y": 5.2804106996,
				"z": 1.0113947814,
				"element": "H" 
			},
			{
				"x": 0.6551590307,
				"y": 3.7814451947,
				"z": 1.7374647011,
				"element": "H" 
			},
			{
				"x": -0.1673569071,
				"y": 1.1128822323,
				"z": 1.4409947221,
				"element": "H" 
			},
			{
				"x": -1.40401723,
				"y": -1.1008801776,
				"z": -1.3267059582,
				"element": "H" 
			},
			{
				"x": -3.5781128864,
				"y": -0.2227035223,
				"z": -2.1483042133,
				"element": "H" 
			},
			{
				"x": -5.3106154364,
				"y": 0.5256521349,
				"z": -0.5293638684,
				"element": "H" 
			},
			{
				"x": -4.8524966945,
				"y": 0.3974843912,
				"z": 1.9122642137,
				"element": "H" 
			},
			{
				"x": -2.6795749356,
				"y": -0.4696132357,
				"z": 2.7229727552,
				"element": "H" 
			}
		],
		 "valence_orbital": [ 
			{
				"type": "occ",
				"energy": -0.26106,
				"method": "rhf"
			},
			{
				"type": "occ",
				"energy": -0.2507,
				"method": "rhf"
			},
			{
				"type": "occ",
				"energy": -0.24435,
				"method": "rhf"
			},
			{
				"type": "occ",
				"energy": -0.20893,
				"method": "rhf"
			},
			{
				"type": "occ",
				"energy": -0.18676,
				"method": "rhf"
			},
			{
				"type": "unocc",
				"energy": -0.00476,
				"method": "rhf"
			},
			{
				"type": "unocc",
				"energy": -0.00283,
				"method": "rhf"
			},
			{
				"type": "unocc",
				"energy": 0.00332,
				"method": "rhf"
			},
			{
				"type": "unocc",
				"energy": 0.03868,
				"method": "rhf"
			},
			{
				"type": "unocc",
				"energy": 0.08012,
				"method": "rhf"
			}
		],
		"cosmo_sigma_profile": { 
			"-0.025": 0.0,
			"-0.024": 0.0,
			"-0.023": 0.0,
			"-0.022": 0.0,
			"-0.021": 0.0,
			"-0.02": 0.0,
			"-0.019": 0.0,
			"-0.018": 0.0,
			"-0.017": 0.0,
			"-0.016": 0.138884935779,
			"-0.015": 1.54172723888,
			"-0.014": 1.49483881947,
			"-0.013": 0.890984042683,
			"-0.012": 1.59018412156,
			"-0.011": 0.981555982688,
			"-0.01": 1.32813331286,
			"-0.009": 1.29825651639,
			"-0.008": 1.93097004325,
			"-0.007": 4.010831231,
			"-0.006": 12.168854242,
			"-0.005": 22.7200176959,
			"-0.004": 22.8161272913,
			"-0.003": 22.2805222402,
			"-0.002": 17.2134482327,
			"-0.001": 16.0288441484,
			"0.0": 13.7752061846,
			"0.001": 13.6584554843,
			"0.002": 15.3456796195,
			"0.003": 15.5487188921,
			"0.004": 19.3034249239,
			"0.005": 24.2301659609,
			"0.006": 24.2560901475,
			"0.007": 10.1014395869,
			"0.008": 2.44212887864,
			"0.009": 0.997947023613,
			"0.01": 0.996403001599,
			"0.011": 0.55313119942,
			"0.012": 0.0,
			"0.013": 0.0,
			"0.014": 0.0,
			"0.015": 0.0,
			"0.016": 0.0,
			"0.017": 0.0,
			"0.018": 0.0,
			"0.019": 0.0,
			"0.02": 0.0,
			"0.021": 0.0,
			"0.022": 0.0,
			"0.023": 0.0,
			"0.024": 0.0,
			"0.025": 0.0
		}
	}
}
