{
	 "smiles": "NC1=CC(=CC=C1)N1CCOC1=O", 
	 "Tm": 426.15, 
	 "num_atms": 23, 
	 "gaussian": { 
		 "optdone": 1, 
		 "sigma_profile": "yes", 
		 "theory": "DFT", 
		 "functional": "B3LYP", 
		 "basiset": "6-31G**", 
		 "properties": { 
			 "R2extent": 3067.1407, 
			 "electric_dipole_moment_norm": 6.02399324867, 
			 "electric_quadrupole_moment_norm": 17.4320989815, 
			 "total_energy": -608.949744003, 
			 "HOMO_LUMO_gap": 0.19988, 
			 "cosmo_polarized_energy": -18.0, 
			 "cosmo_cavitation_energy": 26.25, 
			 "cosmo_dispersion_energy": -19.98, 
			 "cosmo_repulsion_energy": 1.57, 
			 "cosmo_total_nonelectrostatic_energy": 7.85, 
			 "SMD_solvation_energy": 5.2 
		},
		"coords": [
			{
				"x": 2.0986243233,
				"y": -2.3321427095,
				"z": 1.6063046925,
				"element": "N" 
			},
			{
				"x": 0.8952173803,
				"y": -2.2851469719,
				"z": 0.8955772443,
				"element": "C" 
			},
			{
				"x": 0.4256478981,
				"y": -1.0626630592,
				"z": 0.3891394909,
				"element": "C" 
			},
			{
				"x": -0.8077995758,
				"y": -0.9841966183,
				"z": -0.2737483946,
				"element": "C" 
			},
			{
				"x": -1.5870572248,
				"y": -2.1418729274,
				"z": -0.4393967223,
				"element": "C" 
			},
			{
				"x": -1.1095279931,
				"y": -3.3466895341,
				"z": 0.0708675676,
				"element": "C" 
			},
			{
				"x": 0.1134992389,
				"y": -3.4377094571,
				"z": 0.7301840013,
				"element": "C" 
			},
			{
				"x": -1.2239335725,
				"y": 0.2699507251,
				"z": -0.7856218875,
				"element": "N" 
			},
			{
				"x": -0.4053920796,
				"y": 1.470712531,
				"z": -0.6786519053,
				"element": "C" 
			},
			{
				"x": -1.2255361888,
				"y": 2.4668582082,
				"z": -1.5090814282,
				"element": "C" 
			},
			{
				"x": -2.5490707928,
				"y": 1.9204892991,
				"z": -1.5308294693,
				"element": "O" 
			},
			{
				"x": -2.5116682931,
				"y": 0.5909692481,
				"z": -1.2016820818,
				"element": "C" 
			},
			{
				"x": -3.4836156799,
				"y": -0.1196233356,
				"z": -1.286099065,
				"element": "O" 
			},
			{
				"x": 2.7675962413,
				"y": -1.6134094781,
				"z": 1.3659149454,
				"element": "H" 
			},
			{
				"x": 2.5316829809,
				"y": -3.2448062658,
				"z": 1.6426882028,
				"element": "H" 
			},
			{
				"x": 1.0331819115,
				"y": -0.1766427609,
				"z": 0.5383155561,
				"element": "H" 
			},
			{
				"x": -2.5405395768,
				"y": -2.086068163,
				"z": -0.9422647857,
				"element": "H" 
			},
			{
				"x": -1.710810104,
				"y": -4.2426809355,
				"z": -0.0562261522,
				"element": "H" 
			},
			{
				"x": 0.4627376504,
				"y": -4.3900156509,
				"z": 1.1201645389,
				"element": "H" 
			},
			{
				"x": -0.298918397,
				"y": 1.7865294896,
				"z": 0.3683392836,
				"element": "H" 
			},
			{
				"x": 0.5940018908,
				"y": 1.3139877601,
				"z": -1.0949482413,
				"element": "H" 
			},
			{
				"x": -1.2657772177,
				"y": 3.4657405833,
				"z": -1.0704930417,
				"element": "H" 
			},
			{
				"x": -0.8555428196,
				"y": 2.5402300228,
				"z": -2.5381523488,
				"element": "H" 
			}
		],
		 "valence_orbital": [ 
			{
				"type": "occ",
				"energy": -0.29491,
				"method": "rhf"
			},
			{
				"type": "occ",
				"energy": -0.28145,
				"method": "rhf"
			},
			{
				"type": "occ",
				"energy": -0.2733,
				"method": "rhf"
			},
			{
				"type": "occ",
				"energy": -0.22452,
				"method": "rhf"
			},
			{
				"type": "occ",
				"energy": -0.19882,
				"method": "rhf"
			},
			{
				"type": "unocc",
				"energy": 0.00106,
				"method": "rhf"
			},
			{
				"type": "unocc",
				"energy": 0.01608,
				"method": "rhf"
			},
			{
				"type": "unocc",
				"energy": 0.05795,
				"method": "rhf"
			},
			{
				"type": "unocc",
				"energy": 0.07412,
				"method": "rhf"
			},
			{
				"type": "unocc",
				"energy": 0.08059,
				"method": "rhf"
			}
		],
		"cosmo_sigma_profile": { 
			"-0.025": 0.0,
			"-0.024": 0.0,
			"-0.023": 0.0,
			"-0.022": 0.0,
			"-0.021": 0.0,
			"-0.02": 0.0,
			"-0.019": 0.0,
			"-0.018": 0.0,
			"-0.017": 0.0,
			"-0.016": 0.0,
			"-0.015": 0.0,
			"-0.014": 0.0,
			"-0.013": 0.266691576076,
			"-0.012": 2.33944759084,
			"-0.011": 2.90218123502,
			"-0.01": 2.72490419533,
			"-0.009": 3.34776533984,
			"-0.008": 3.5107111265,
			"-0.007": 14.9298185697,
			"-0.006": 20.8749081324,
			"-0.005": 16.830358176,
			"-0.004": 12.290328894,
			"-0.003": 9.52733451426,
			"-0.002": 9.60343645355,
			"-0.001": 7.64379000067,
			"0.0": 8.14140158085,
			"0.001": 8.2371111957,
			"0.002": 8.6151921792,
			"0.003": 8.25673662479,
			"0.004": 9.02138539684,
			"0.005": 10.0372059485,
			"0.006": 13.759633586,
			"0.007": 9.08153976846,
			"0.008": 3.90975514293,
			"0.009": 4.20365044107,
			"0.01": 5.13080603159,
			"0.011": 3.99291930025,
			"0.012": 5.42500222276,
			"0.013": 3.02754820121,
			"0.014": 0.674802374774,
			"0.015": 0.251396225848,
			"0.016": 0.0,
			"0.017": 0.0,
			"0.018": 0.0,
			"0.019": 0.0,
			"0.02": 0.0,
			"0.021": 0.0,
			"0.022": 0.0,
			"0.023": 0.0,
			"0.024": 0.0,
			"0.025": 0.0
		}
	}
}
