{
	 "smiles": "CS(=O)(=O)C1=CC=C(CN)C=C1", 
	 "Tm": 546.15, 
	 "num_atms": 23, 
	 "gaussian": { 
		 "optdone": 1, 
		 "sigma_profile": "yes", 
		 "theory": "DFT", 
		 "functional": "B3LYP", 
		 "basiset": "6-31G**", 
		 "properties": { 
			 "R2extent": 4007.4555, 
			 "electric_dipole_moment_norm": 6.64919563481, 
			 "electric_quadrupole_moment_norm": 19.7838343101, 
			 "total_energy": -914.80106512, 
			 "HOMO_LUMO_gap": 0.21357, 
			 "cosmo_polarized_energy": -17.54, 
			 "cosmo_cavitation_energy": 27.88, 
			 "cosmo_dispersion_energy": -20.8, 
			 "cosmo_repulsion_energy": 1.63, 
			 "cosmo_total_nonelectrostatic_energy": 8.71, 
			 "SMD_solvation_energy": 3.7 
		},
		"coords": [
			{
				"x": 1.9574932358,
				"y": -2.6383498519,
				"z": 3.4401225484,
				"element": "C" 
			},
			{
				"x": 1.789905093,
				"y": -3.029649016,
				"z": 1.6808058102,
				"element": "S" 
			},
			{
				"x": 3.1429405261,
				"y": -3.2755841835,
				"z": 1.1571627702,
				"element": "O" 
			},
			{
				"x": 0.7295841684,
				"y": -4.0428929791,
				"z": 1.557139886,
				"element": "O" 
			},
			{
				"x": 1.1823323197,
				"y": -1.4982813244,
				"z": 0.9610641592,
				"element": "C" 
			},
			{
				"x": 2.093504379,
				"y": -0.537232492,
				"z": 0.5178747269,
				"element": "C" 
			},
			{
				"x": 1.6159969817,
				"y": 0.6518051022,
				"z": -0.0303889972,
				"element": "C" 
			},
			{
				"x": 0.2382407836,
				"y": 0.8841887636,
				"z": -0.1424662507,
				"element": "C" 
			},
			{
				"x": -0.2843465276,
				"y": 2.1595526907,
				"z": -0.7793897867,
				"element": "C" 
			},
			{
				"x": 0.6204263804,
				"y": 3.2903249546,
				"z": -0.5667010031,
				"element": "N" 
			},
			{
				"x": -0.6563989932,
				"y": -0.0969790728,
				"z": 0.3055279038,
				"element": "C" 
			},
			{
				"x": -0.1939860255,
				"y": -1.2924683849,
				"z": 0.8527706344,
				"element": "C" 
			},
			{
				"x": 2.3283242525,
				"y": -3.5459901513,
				"z": 3.9208881866,
				"element": "H" 
			},
			{
				"x": 2.6738732563,
				"y": -1.8246299755,
				"z": 3.5607576591,
				"element": "H" 
			},
			{
				"x": 0.9806406092,
				"y": -2.3669069657,
				"z": 3.8425991079,
				"element": "H" 
			},
			{
				"x": 3.1586010514,
				"y": -0.7341316209,
				"z": 0.5843907895,
				"element": "H" 
			},
			{
				"x": 2.3021249632,
				"y": 1.4164080406,
				"z": -0.3787233255,
				"element": "H" 
			},
			{
				"x": -0.356367661,
				"y": 2.0002820567,
				"z": -1.8641190076,
				"element": "H" 
			},
			{
				"x": -1.3173768146,
				"y": 2.3281296453,
				"z": -0.4293579886,
				"element": "H" 
			},
			{
				"x": 0.5943348469,
				"y": 3.581922161,
				"z": 0.4073475197,
				"element": "H" 
			},
			{
				"x": 0.3212123565,
				"y": 4.0865406147,
				"z": -1.1220849961,
				"element": "H" 
			},
			{
				"x": -1.7268915193,
				"y": 0.0736073803,
				"z": 0.2205691343,
				"element": "H" 
			},
			{
				"x": -0.8822676626,
				"y": -2.0645653913,
				"z": 1.1802105196,
				"element": "H" 
			}
		],
		 "valence_orbital": [ 
			{
				"type": "occ",
				"energy": -0.28932,
				"method": "rhf"
			},
			{
				"type": "occ",
				"energy": -0.28269,
				"method": "rhf"
			},
			{
				"type": "occ",
				"energy": -0.26688,
				"method": "rhf"
			},
			{
				"type": "occ",
				"energy": -0.26644,
				"method": "rhf"
			},
			{
				"type": "occ",
				"energy": -0.24937,
				"method": "rhf"
			},
			{
				"type": "unocc",
				"energy": -0.0358,
				"method": "rhf"
			},
			{
				"type": "unocc",
				"energy": -0.01827,
				"method": "rhf"
			},
			{
				"type": "unocc",
				"energy": 0.06969,
				"method": "rhf"
			},
			{
				"type": "unocc",
				"energy": 0.07393,
				"method": "rhf"
			},
			{
				"type": "unocc",
				"energy": 0.08351,
				"method": "rhf"
			}
		],
		"cosmo_sigma_profile": { 
			"-0.025": 0.0,
			"-0.024": 0.0,
			"-0.023": 0.0,
			"-0.022": 0.0,
			"-0.021": 0.0,
			"-0.02": 0.0,
			"-0.019": 0.0,
			"-0.018": 0.0,
			"-0.017": 0.0,
			"-0.016": 0.0,
			"-0.015": 0.0,
			"-0.014": 0.0,
			"-0.013": 0.0,
			"-0.012": 0.0,
			"-0.011": 0.189560569929,
			"-0.01": 2.41886477424,
			"-0.009": 3.57445020802,
			"-0.008": 8.13548068598,
			"-0.007": 11.6599200271,
			"-0.006": 14.4566355618,
			"-0.005": 18.3498886633,
			"-0.004": 19.9826826289,
			"-0.003": 17.2915897161,
			"-0.002": 15.7042638588,
			"-0.001": 10.2277052972,
			"0.0": 8.19237702828,
			"0.001": 10.0333537986,
			"0.002": 12.3283917318,
			"0.003": 14.9906851952,
			"0.004": 8.05683662009,
			"0.005": 3.72300248802,
			"0.006": 2.63067274386,
			"0.007": 2.48182466235,
			"0.008": 3.92674810188,
			"0.009": 3.98854736332,
			"0.01": 4.81031462579,
			"0.011": 8.88688764493,
			"0.012": 10.0667125272,
			"0.013": 2.76709668619,
			"0.014": 0.728077781199,
			"0.015": 0.465185128066,
			"0.016": 0.340898359706,
			"0.017": 0.0348577309568,
			"0.018": 0.0,
			"0.019": 0.0,
			"0.02": 0.0,
			"0.021": 0.0,
			"0.022": 0.0,
			"0.023": 0.0,
			"0.024": 0.0,
			"0.025": 0.0
		}
	}
}
