{
	 "smiles": "CCOP(=O)(C#N)N(C)C", 
	 "Tm": 223.15, 
	 "num_atms": 21, 
	 "gaussian": { 
		 "optdone": 1, 
		 "sigma_profile": "yes", 
		 "theory": "DFT", 
		 "functional": "B3LYP", 
		 "basiset": "6-31G**", 
		 "properties": { 
			 "R2extent": 2180.9691, 
			 "electric_dipole_moment_norm": 5.34463309873, 
			 "electric_quadrupole_moment_norm": 15.1747003117, 
			 "total_energy": -798.485456168, 
			 "HOMO_LUMO_gap": 0.25236, 
			 "cosmo_polarized_energy": -12.46, 
			 "cosmo_cavitation_energy": 26.71, 
			 "cosmo_dispersion_energy": -18.14, 
			 "cosmo_repulsion_energy": 1.47, 
			 "cosmo_total_nonelectrostatic_energy": 10.05, 
			 "SMD_solvation_energy": 8.49 
		},
		"coords": [
			{
				"x": -2.722950217,
				"y": -2.5107024571,
				"z": 1.5455882879,
				"element": "C" 
			},
			{
				"x": -1.2571764302,
				"y": -2.2144799153,
				"z": 1.2817340125,
				"element": "C" 
			},
			{
				"x": -1.0169462428,
				"y": -1.9920858692,
				"z": -0.1409712454,
				"element": "O" 
			},
			{
				"x": -1.1450703056,
				"y": -0.5079161935,
				"z": -0.7413901807,
				"element": "P" 
			},
			{
				"x": -2.3713217261,
				"y": 0.279952986,
				"z": -0.4767917498,
				"element": "O" 
			},
			{
				"x": -0.9669303665,
				"y": -0.9695625174,
				"z": -2.4748092044,
				"element": "C" 
			},
			{
				"x": -0.8164494916,
				"y": -1.1812199695,
				"z": -3.6077821886,
				"element": "N" 
			},
			{
				"x": 0.2611794787,
				"y": 0.2681153587,
				"z": -0.3059681973,
				"element": "N" 
			},
			{
				"x": 0.288295828,
				"y": 1.7340619801,
				"z": -0.2733914127,
				"element": "C" 
			},
			{
				"x": 1.5646240789,
				"y": -0.3719483843,
				"z": -0.497403689,
				"element": "C" 
			},
			{
				"x": -2.866525716,
				"y": -2.7380318856,
				"z": 2.6074379416,
				"element": "H" 
			},
			{
				"x": -3.342939756,
				"y": -1.65056748,
				"z": 1.2825444566,
				"element": "H" 
			},
			{
				"x": -3.0514815988,
				"y": -3.3738596706,
				"z": 0.9601903566,
				"element": "H" 
			},
			{
				"x": -0.9100119958,
				"y": -1.3439571163,
				"z": 1.8483696564,
				"element": "H" 
			},
			{
				"x": -0.6198614378,
				"y": -3.0643318581,
				"z": 1.5379589836,
				"element": "H" 
			},
			{
				"x": -0.7240023667,
				"y": 2.1130828941,
				"z": -0.1339227581,
				"element": "H" 
			},
			{
				"x": 0.7063310465,
				"y": 2.15175895,
				"z": -1.19970543,
				"element": "H" 
			},
			{
				"x": 0.9093733971,
				"y": 2.0643099306,
				"z": 0.5666885597,
				"element": "H" 
			},
			{
				"x": 2.24184961,
				"y": -0.0607298478,
				"z": 0.3054416116,
				"element": "H" 
			},
			{
				"x": 2.0164667231,
				"y": -0.0955983526,
				"z": -1.4600461882,
				"element": "H" 
			},
			{
				"x": 1.4608474886,
				"y": -1.4572905822,
				"z": -0.4575716223,
				"element": "H" 
			}
		],
		 "valence_orbital": [ 
			{
				"type": "occ",
				"energy": -0.35226,
				"method": "rhf"
			},
			{
				"type": "occ",
				"energy": -0.33218,
				"method": "rhf"
			},
			{
				"type": "occ",
				"energy": -0.30623,
				"method": "rhf"
			},
			{
				"type": "occ",
				"energy": -0.30267,
				"method": "rhf"
			},
			{
				"type": "occ",
				"energy": -0.26477,
				"method": "rhf"
			},
			{
				"type": "unocc",
				"energy": -0.01241,
				"method": "rhf"
			},
			{
				"type": "unocc",
				"energy": -0.00731,
				"method": "rhf"
			},
			{
				"type": "unocc",
				"energy": 0.06053,
				"method": "rhf"
			},
			{
				"type": "unocc",
				"energy": 0.07686,
				"method": "rhf"
			},
			{
				"type": "unocc",
				"energy": 0.09436,
				"method": "rhf"
			}
		],
		"cosmo_sigma_profile": { 
			"-0.025": 0.0,
			"-0.024": 0.0,
			"-0.023": 0.0,
			"-0.022": 0.0,
			"-0.021": 0.0,
			"-0.02": 0.0,
			"-0.019": 0.0,
			"-0.018": 0.0,
			"-0.017": 0.0,
			"-0.016": 0.0,
			"-0.015": 0.0,
			"-0.014": 0.0,
			"-0.013": 0.0,
			"-0.012": 0.0,
			"-0.011": 0.0,
			"-0.01": 0.0,
			"-0.009": 0.0,
			"-0.008": 0.0276511467305,
			"-0.007": 1.43562980787,
			"-0.006": 7.50074357192,
			"-0.005": 22.1597177226,
			"-0.004": 27.4958090821,
			"-0.003": 26.5877865172,
			"-0.002": 25.9545437125,
			"-0.001": 15.1591908557,
			"0.0": 12.3248379549,
			"0.001": 8.72901688483,
			"0.002": 7.64544524169,
			"0.003": 7.94787693506,
			"0.004": 6.74872646673,
			"0.005": 4.63062906514,
			"0.006": 5.88918842267,
			"0.007": 5.18038293016,
			"0.008": 4.783568828,
			"0.009": 3.63441999382,
			"0.01": 3.91206974028,
			"0.011": 3.11779342626,
			"0.012": 2.15001881435,
			"0.013": 4.80002341301,
			"0.014": 1.48320728244,
			"0.015": 0.0,
			"0.016": 0.0,
			"0.017": 0.0,
			"0.018": 0.0,
			"0.019": 0.0,
			"0.02": 0.0,
			"0.021": 0.0,
			"0.022": 0.0,
			"0.023": 0.0,
			"0.024": 0.0,
			"0.025": 0.0
		}
	}
}
