{
	 "smiles": "CCCCCCCCCCCCCCCCCN", 
	 "Tm": 322.15, 
	 "num_atms": 55, 
	 "gaussian": { 
		 "optdone": 1, 
		 "sigma_profile": "yes", 
		 "theory": "DFT", 
		 "functional": "B3LYP", 
		 "basiset": "6-31G**", 
		 "properties": { 
			 "R2extent": 11310.6677, 
			 "electric_dipole_moment_norm": 1.44958212944, 
			 "electric_quadrupole_moment_norm": 14.7900722456, 
			 "total_energy": -724.896575759, 
			 "HOMO_LUMO_gap": 0.29844, 
			 "cosmo_polarized_energy": -5.56, 
			 "cosmo_cavitation_energy": 52.13, 
			 "cosmo_dispersion_energy": -34.31, 
			 "cosmo_repulsion_energy": 2.8, 
			 "cosmo_total_nonelectrostatic_energy": 20.63, 
			 "SMD_solvation_energy": 5.37 
		},
		"coords": [
			{
				"x": 1.2040101308,
				"y": -4.4207910609,
				"z": 1.154284373,
				"element": "C" 
			},
			{
				"x": 0.563637237,
				"y": -4.1991134425,
				"z": 2.5284973184,
				"element": "C" 
			},
			{
				"x": 1.5187662741,
				"y": -3.5356166426,
				"z": 3.5329513778,
				"element": "C" 
			},
			{
				"x": 0.9355417115,
				"y": -3.2990082067,
				"z": 4.9436785336,
				"element": "C" 
			},
			{
				"x": 0.2377431083,
				"y": -1.9504217517,
				"z": 5.2135720769,
				"element": "C" 
			},
			{
				"x": -1.0617273634,
				"y": -1.6553546206,
				"z": 4.428831232,
				"element": "C" 
			},
			{
				"x": -0.8893056346,
				"y": -0.8734810796,
				"z": 3.1116955243,
				"element": "C" 
			},
			{
				"x": -0.5421181065,
				"y": 0.6101272161,
				"z": 3.3131080474,
				"element": "C" 
			},
			{
				"x": -0.4383605772,
				"y": 1.4243853194,
				"z": 2.0120351762,
				"element": "C" 
			},
			{
				"x": 0.7429276883,
				"y": 1.0360765318,
				"z": 1.1094673785,
				"element": "C" 
			},
			{
				"x": 0.9454061039,
				"y": 1.9624469927,
				"z": -0.1032546743,
				"element": "C" 
			},
			{
				"x": -0.2009813592,
				"y": 1.9969865345,
				"z": -1.1316630702,
				"element": "C" 
			},
			{
				"x": -0.4470232305,
				"y": 0.6613877986,
				"z": -1.8477789957,
				"element": "C" 
			},
			{
				"x": -1.5908487107,
				"y": 0.6621864395,
				"z": -2.8789057282,
				"element": "C" 
			},
			{
				"x": -1.3835413094,
				"y": 1.5943647905,
				"z": -4.0973392867,
				"element": "C" 
			},
			{
				"x": -2.0592735126,
				"y": 2.9758207221,
				"z": -4.0025704595,
				"element": "C" 
			},
			{
				"x": -3.5874159071,
				"y": 2.9356502121,
				"z": -4.178851115,
				"element": "C" 
			},
			{
				"x": -4.2778613449,
				"y": 4.2261174777,
				"z": -4.0922837795,
				"element": "N" 
			},
			{
				"x": 2.1022387165,
				"y": -5.0445182087,
				"z": 1.2314263383,
				"element": "H" 
			},
			{
				"x": 1.5035309853,
				"y": -3.4699657641,
				"z": 0.6980916312,
				"element": "H" 
			},
			{
				"x": 0.5132952639,
				"y": -4.916562344,
				"z": 0.4641679853,
				"element": "H" 
			},
			{
				"x": -0.345674693,
				"y": -3.5986794145,
				"z": 2.4116791729,
				"element": "H" 
			},
			{
				"x": 0.2365537433,
				"y": -5.1640548494,
				"z": 2.9393670633,
				"element": "H" 
			},
			{
				"x": 2.4034948059,
				"y": -4.1806210857,
				"z": 3.6226158129,
				"element": "H" 
			},
			{
				"x": 1.8889844727,
				"y": -2.5858407455,
				"z": 3.1216139213,
				"element": "H" 
			},
			{
				"x": 0.241440266,
				"y": -4.1168222658,
				"z": 5.1857526782,
				"element": "H" 
			},
			{
				"x": 1.7525912536,
				"y": -3.3826932214,
				"z": 5.6717645946,
				"element": "H" 
			},
			{
				"x": 0.9601498647,
				"y": -1.1391753476,
				"z": 5.0505990401,
				"element": "H" 
			},
			{
				"x": 0.0076630207,
				"y": -1.9224812972,
				"z": 6.286241567,
				"element": "H" 
			},
			{
				"x": -1.5805119769,
				"y": -2.6015449729,
				"z": 4.2280535808,
				"element": "H" 
			},
			{
				"x": -1.7412814921,
				"y": -1.0790112123,
				"z": 5.0711605922,
				"element": "H" 
			},
			{
				"x": -0.1243570621,
				"y": -1.3528915803,
				"z": 2.4906020088,
				"element": "H" 
			},
			{
				"x": -1.8259717186,
				"y": -0.9337527518,
				"z": 2.5397304855,
				"element": "H" 
			},
			{
				"x": 0.40192171,
				"y": 0.703053017,
				"z": 3.8674376511,
				"element": "H" 
			},
			{
				"x": -1.3127248396,
				"y": 1.0630148587,
				"z": 3.9521332824,
				"element": "H" 
			},
			{
				"x": -0.3456481118,
				"y": 2.4887208983,
				"z": 2.2697941231,
				"element": "H" 
			},
			{
				"x": -1.381581467,
				"y": 1.3293089227,
				"z": 1.4569847362,
				"element": "H" 
			},
			{
				"x": 0.6300116443,
				"y": -0.0001760675,
				"z": 0.7683876652,
				"element": "H" 
			},
			{
				"x": 1.6627721026,
				"y": 1.0528078749,
				"z": 1.7106271558,
				"element": "H" 
			},
			{
				"x": 1.8695652493,
				"y": 1.6682152583,
				"z": -0.6196713245,
				"element": "H" 
			},
			{
				"x": 1.1168325217,
				"y": 2.9841560955,
				"z": 0.2628209751,
				"element": "H" 
			},
			{
				"x": 0.0380881881,
				"y": 2.7679094816,
				"z": -1.87462818,
				"element": "H" 
			},
			{
				"x": -1.1296669788,
				"y": 2.3258926042,
				"z": -0.6455813662,
				"element": "H" 
			},
			{
				"x": -0.662240852,
				"y": -0.1159143085,
				"z": -1.1034801894,
				"element": "H" 
			},
			{
				"x": 0.4817096421,
				"y": 0.3500236166,
				"z": -2.3484310261,
				"element": "H" 
			},
			{
				"x": -2.5324209749,
				"y": 0.9127264443,
				"z": -2.3716604379,
				"element": "H" 
			},
			{
				"x": -1.7151872646,
				"y": -0.3677301249,
				"z": -3.2351033095,
				"element": "H" 
			},
			{
				"x": -1.7599918939,
				"y": 1.0970440746,
				"z": -5.0013382663,
				"element": "H" 
			},
			{
				"x": -0.3064941388,
				"y": 1.7276534772,
				"z": -4.2640467747,
				"element": "H" 
			},
			{
				"x": -1.6422030212,
				"y": 3.6344646477,
				"z": -4.777825694,
				"element": "H" 
			},
			{
				"x": -1.8238018265,
				"y": 3.449370096,
				"z": -3.0402128367,
				"element": "H" 
			},
			{
				"x": -4.0355496899,
				"y": 2.2707149943,
				"z": -3.4303298029,
				"element": "H" 
			},
			{
				"x": -3.8245360348,
				"y": 2.4928252847,
				"z": -5.155457061,
				"element": "H" 
			},
			{
				"x": -3.8853485335,
				"y": 4.8691182697,
				"z": -4.7775526805,
				"element": "H" 
			},
			{
				"x": -4.0992260784,
				"y": 4.6481524155,
				"z": -3.1830070407,
				"element": "H" 
			}
		],
		 "valence_orbital": [ 
			{
				"type": "occ",
				"energy": -0.30058,
				"method": "rhf"
			},
			{
				"type": "occ",
				"energy": -0.30018,
				"method": "rhf"
			},
			{
				"type": "occ",
				"energy": -0.29771,
				"method": "rhf"
			},
			{
				"type": "occ",
				"energy": -0.29479,
				"method": "rhf"
			},
			{
				"type": "occ",
				"energy": -0.22646,
				"method": "rhf"
			},
			{
				"type": "unocc",
				"energy": 0.07198,
				"method": "rhf"
			},
			{
				"type": "unocc",
				"energy": 0.08304,
				"method": "rhf"
			},
			{
				"type": "unocc",
				"energy": 0.08866,
				"method": "rhf"
			},
			{
				"type": "unocc",
				"energy": 0.09438,
				"method": "rhf"
			},
			{
				"type": "unocc",
				"energy": 0.09948,
				"method": "rhf"
			}
		],
		"cosmo_sigma_profile": { 
			"-0.025": 0.0,
			"-0.024": 0.0,
			"-0.023": 0.0,
			"-0.022": 0.0,
			"-0.021": 0.0,
			"-0.02": 0.0,
			"-0.019": 0.0,
			"-0.018": 0.0,
			"-0.017": 0.0,
			"-0.016": 0.0,
			"-0.015": 0.0,
			"-0.014": 0.0,
			"-0.013": 0.0,
			"-0.012": 0.0,
			"-0.011": 0.0,
			"-0.01": 0.0285285705212,
			"-0.009": 1.51761088631,
			"-0.008": 2.9199776,
			"-0.007": 2.94509405661,
			"-0.006": 2.39002551918,
			"-0.005": 2.57205059653,
			"-0.004": 3.1533887411,
			"-0.003": 6.73371633641,
			"-0.002": 45.077034246,
			"-0.001": 96.760412704,
			"0.0": 101.4491987,
			"0.001": 80.2783811282,
			"0.002": 36.6229616332,
			"0.003": 1.77749130381,
			"0.004": 1.26051230526,
			"0.005": 1.17196212341,
			"0.006": 0.409826811073,
			"0.007": 0.693173253105,
			"0.008": 1.20629339856,
			"0.009": 0.785966671283,
			"0.01": 0.575016723325,
			"0.011": 0.894777343104,
			"0.012": 0.568276136434,
			"0.013": 0.500192519797,
			"0.014": 1.01359583238,
			"0.015": 0.659535773518,
			"0.016": 0.541847386055,
			"0.017": 0.73050063604,
			"0.018": 0.497973366582,
			"0.019": 0.76989427448,
			"0.02": 0.584405206129,
			"0.021": 0.0720277670644,
			"0.022": 0.0,
			"0.023": 0.0,
			"0.024": 0.0,
			"0.025": 0.0
		}
	}
}
