{
	 "smiles": "CCOC(=O)[C@H](CSC(=O)C(C)(C)Br)NC(C)=O", 
	 "Tm": 293.15, 
	 "num_atms": 36, 
	 "gaussian": { 
		 "optdone": 1, 
		 "sigma_profile": "yes", 
		 "theory": "DFT", 
		 "functional": "B3LYP", 
		 "basiset": "6-31G**", 
		 "properties": { 
			 "R2extent": 7376.0343, 
			 "electric_dipole_moment_norm": 2.25023647202, 
			 "electric_quadrupole_moment_norm": 15.0380423979, 
			 "total_energy": -3755.3113884, 
			 "HOMO_LUMO_gap": 0.1871, 
			 "cosmo_polarized_energy": -15.71, 
			 "cosmo_cavitation_energy": 42.78, 
			 "cosmo_dispersion_energy": -28.35, 
			 "cosmo_repulsion_energy": 2.19, 
			 "cosmo_total_nonelectrostatic_energy": 16.61, 
			 "SMD_solvation_energy": 7.86 
		},
		"coords": [
			{
				"x": -3.7120286746,
				"y": 1.1307900129,
				"z": -2.5179364777,
				"element": "C" 
			},
			{
				"x": -2.6099814996,
				"y": 2.0177607696,
				"z": -1.9741605045,
				"element": "C" 
			},
			{
				"x": -1.3462592027,
				"y": 1.3773620851,
				"z": -2.3004411562,
				"element": "O" 
			},
			{
				"x": -0.2433865528,
				"y": 1.9381592756,
				"z": -1.8017518018,
				"element": "C" 
			},
			{
				"x": -0.2112704043,
				"y": 2.9737671954,
				"z": -1.1673657065,
				"element": "O" 
			},
			{
				"x": 0.9938320199,
				"y": 1.1024904324,
				"z": -2.1311383973,
				"element": "C" 
			},
			{
				"x": 0.8512083415,
				"y": -0.3687798145,
				"z": -1.6943038028,
				"element": "C" 
			},
			{
				"x": 0.5872614699,
				"y": -0.561849571,
				"z": 0.1109637584,
				"element": "S" 
			},
			{
				"x": -1.0843216119,
				"y": -1.2395995281,
				"z": 0.1136575073,
				"element": "C" 
			},
			{
				"x": -1.6852368043,
				"y": -1.5307530431,
				"z": -0.8968670772,
				"element": "O" 
			},
			{
				"x": -1.7110661005,
				"y": -1.4515857495,
				"z": 1.5110407264,
				"element": "C" 
			},
			{
				"x": -0.7155893231,
				"y": -1.6697224898,
				"z": 2.645191999,
				"element": "C" 
			},
			{
				"x": -2.7748449198,
				"y": -2.5419118847,
				"z": 1.4469103717,
				"element": "C" 
			},
			{
				"x": -2.6579547665,
				"y": 0.3081556407,
				"z": 1.8655936776,
				"element": "Br" 
			},
			{
				"x": 2.140475833,
				"y": 1.7654463296,
				"z": -1.545516008,
				"element": "N" 
			},
			{
				"x": 3.4069493425,
				"y": 1.5169844772,
				"z": -1.9951170233,
				"element": "C" 
			},
			{
				"x": 4.5017083548,
				"y": 2.3790152101,
				"z": -1.3891531356,
				"element": "C" 
			},
			{
				"x": 3.6413433242,
				"y": 0.6460270207,
				"z": -2.8275850614,
				"element": "O" 
			},
			{
				"x": -3.6533849342,
				"y": 0.1353347003,
				"z": -2.0704456845,
				"element": "H" 
			},
			{
				"x": -4.6868770954,
				"y": 1.5669090304,
				"z": -2.2785790239,
				"element": "H" 
			},
			{
				"x": -3.6368895253,
				"y": 1.0303281501,
				"z": -3.6045733335,
				"element": "H" 
			},
			{
				"x": -2.6159293396,
				"y": 3.0181386678,
				"z": -2.418019136,
				"element": "H" 
			},
			{
				"x": -2.6668837378,
				"y": 2.1246880264,
				"z": -0.8876430853,
				"element": "H" 
			},
			{
				"x": 1.1114604723,
				"y": 1.0764797877,
				"z": -3.2240543324,
				"element": "H" 
			},
			{
				"x": 1.7720518589,
				"y": -0.8911361911,
				"z": -1.9550418933,
				"element": "H" 
			},
			{
				"x": -0.000569414,
				"y": -0.8415490638,
				"z": -2.1873286049,
				"element": "H" 
			},
			{
				"x": -1.2522724994,
				"y": -1.7698945646,
				"z": 3.5915627469,
				"element": "H" 
			},
			{
				"x": -0.1552197034,
				"y": -2.5944624508,
				"z": 2.4656227809,
				"element": "H" 
			},
			{
				"x": -0.006314779,
				"y": -0.8464025087,
				"z": 2.7423663881,
				"element": "H" 
			},
			{
				"x": -2.2871084786,
				"y": -3.5062549723,
				"z": 1.2610239611,
				"element": "H" 
			},
			{
				"x": -3.3123658932,
				"y": -2.6008668094,
				"z": 2.395653418,
				"element": "H" 
			},
			{
				"x": -3.4802349307,
				"y": -2.3560413102,
				"z": 0.6379227126,
				"element": "H" 
			},
			{
				"x": 1.9296870249,
				"y": 2.5677482046,
				"z": -0.9655273562,
				"element": "H" 
			},
			{
				"x": 5.2580473096,
				"y": 1.725893066,
				"z": -0.9460984801,
				"element": "H" 
			},
			{
				"x": 4.1405292556,
				"y": 3.0760380753,
				"z": -0.6286508896,
				"element": "H" 
			},
			{
				"x": 4.9879355835,
				"y": 2.9431937934,
				"z": -2.1901120761,
				"element": "H" 
			}
		],
		 "valence_orbital": [ 
			{
				"type": "occ",
				"energy": -0.28431,
				"method": "rhf"
			},
			{
				"type": "occ",
				"energy": -0.27245,
				"method": "rhf"
			},
			{
				"type": "occ",
				"energy": -0.26356,
				"method": "rhf"
			},
			{
				"type": "occ",
				"energy": -0.25418,
				"method": "rhf"
			},
			{
				"type": "occ",
				"energy": -0.24866,
				"method": "rhf"
			},
			{
				"type": "unocc",
				"energy": -0.06156,
				"method": "rhf"
			},
			{
				"type": "unocc",
				"energy": -0.00269,
				"method": "rhf"
			},
			{
				"type": "unocc",
				"energy": 0.01313,
				"method": "rhf"
			},
			{
				"type": "unocc",
				"energy": 0.02144,
				"method": "rhf"
			},
			{
				"type": "unocc",
				"energy": 0.03255,
				"method": "rhf"
			}
		],
		"cosmo_sigma_profile": { 
			"-0.025": 0.0,
			"-0.024": 0.0,
			"-0.023": 0.0,
			"-0.022": 0.0,
			"-0.021": 0.0,
			"-0.02": 0.0,
			"-0.019": 0.0,
			"-0.018": 0.0,
			"-0.017": 0.0,
			"-0.016": 0.0,
			"-0.015": 0.0,
			"-0.014": 0.0,
			"-0.013": 0.0,
			"-0.012": 0.388979760607,
			"-0.011": 0.985754763758,
			"-0.01": 1.60658167781,
			"-0.009": 0.744367726138,
			"-0.008": 3.76269333265,
			"-0.007": 5.19418048987,
			"-0.006": 13.2957322633,
			"-0.005": 24.3578837403,
			"-0.004": 29.6647008599,
			"-0.003": 34.2191201657,
			"-0.002": 37.059436553,
			"-0.001": 36.6720358642,
			"0.0": 27.0746726874,
			"0.001": 19.1489892695,
			"0.002": 17.5048032692,
			"0.003": 14.9509049521,
			"0.004": 15.5529426229,
			"0.005": 16.049656799,
			"0.006": 7.69528803687,
			"0.007": 5.92654354181,
			"0.008": 4.67062500019,
			"0.009": 4.86647689646,
			"0.01": 4.73374617637,
			"0.011": 4.0982707369,
			"0.012": 2.76596163509,
			"0.013": 2.74652948053,
			"0.014": 3.4769827406,
			"0.015": 1.24072022092,
			"0.016": 0.0,
			"0.017": 0.0,
			"0.018": 0.0,
			"0.019": 0.0,
			"0.02": 0.0,
			"0.021": 0.0,
			"0.022": 0.0,
			"0.023": 0.0,
			"0.024": 0.0,
			"0.025": 0.0
		}
	}
}
