{
	 "smiles": "O=C1C2=C(C=C3C=CC=CC3=C2)C(=O)C2=C1C=C1C=CC=CC1=C2", 
	 "Tm": 665.15, 
	 "num_atms": 36, 
	 "gaussian": { 
		 "optdone": 1, 
		 "sigma_profile": "yes", 
		 "theory": "DFT", 
		 "functional": "B3LYP", 
		 "basiset": "6-31G**", 
		 "properties": { 
			 "R2extent": 9937.8785, 
			 "electric_dipole_moment_norm": 0.000173205080757, 
			 "electric_quadrupole_moment_norm": 30.4339180836, 
			 "total_energy": -996.066623649, 
			 "HOMO_LUMO_gap": 0.13857, 
			 "cosmo_polarized_energy": -12.52, 
			 "cosmo_cavitation_energy": 40.38, 
			 "cosmo_dispersion_energy": -29.82, 
			 "cosmo_repulsion_energy": 2.12, 
			 "cosmo_total_nonelectrostatic_energy": 12.68, 
			 "SMD_solvation_energy": 6.67 
		},
		"coords": [
			{
				"x": 1.4148321206,
				"y": -1.8038534547,
				"z": -1.8897028809,
				"element": "O" 
			},
			{
				"x": 0.8729720038,
				"y": -0.9205201055,
				"z": -1.2308162144,
				"element": "C" 
			},
			{
				"x": -0.1944295666,
				"y": -0.0598836789,
				"z": -1.815946741,
				"element": "C" 
			},
			{
				"x": -0.8259067994,
				"y": 0.9683260138,
				"z": -1.0484895171,
				"element": "C" 
			},
			{
				"x": -1.8114175204,
				"y": 1.7468184928,
				"z": -1.6235563776,
				"element": "C" 
			},
			{
				"x": -2.2158346277,
				"y": 1.5504653894,
				"z": -2.9662938151,
				"element": "C" 
			},
			{
				"x": -3.2275509702,
				"y": 2.3408608199,
				"z": -3.575342719,
				"element": "C" 
			},
			{
				"x": -3.5955159115,
				"y": 2.1217099847,
				"z": -4.883933185,
				"element": "C" 
			},
			{
				"x": -2.9694457788,
				"y": 1.1024045963,
				"z": -5.6447902575,
				"element": "C" 
			},
			{
				"x": -1.9855690832,
				"y": 0.3186997727,
				"z": -5.0847663522,
				"element": "C" 
			},
			{
				"x": -1.5816640749,
				"y": 0.5178814908,
				"z": -3.7370174223,
				"element": "C" 
			},
			{
				"x": -0.5738720068,
				"y": -0.2682960951,
				"z": -3.1276526344,
				"element": "C" 
			},
			{
				"x": -0.4440172572,
				"y": 1.2236563591,
				"z": 0.3697372182,
				"element": "C" 
			},
			{
				"x": -0.9864076713,
				"y": 2.1064897755,
				"z": 1.0288578041,
				"element": "O" 
			},
			{
				"x": 0.623069559,
				"y": 0.3627241873,
				"z": 0.9550056413,
				"element": "C" 
			},
			{
				"x": 1.2545467085,
				"y": -0.6654856115,
				"z": 0.1875482511,
				"element": "C" 
			},
			{
				"x": 2.2397861127,
				"y": -1.4442333427,
				"z": 0.7627341905,
				"element": "C" 
			},
			{
				"x": 2.6439287974,
				"y": -1.2481388549,
				"z": 2.1055919407,
				"element": "C" 
			},
			{
				"x": 3.6553674034,
				"y": -2.0387956989,
				"z": 2.7147628703,
				"element": "C" 
			},
			{
				"x": 4.0230668112,
				"y": -1.8198950376,
				"z": 4.0234697778,
				"element": "C" 
			},
			{
				"x": 3.3969965564,
				"y": -0.8005895292,
				"z": 4.7843267711,
				"element": "C" 
			},
			{
				"x": 2.4133854598,
				"y": -0.0166345558,
				"z": 4.2241863771,
				"element": "C" 
			},
			{
				"x": 2.0097579694,
				"y": -0.2155551987,
				"z": 2.8763159021,
				"element": "C" 
			},
			{
				"x": 1.0022402366,
				"y": 0.5708808391,
				"z": 2.2668304687,
				"element": "C" 
			},
			{
				"x": -2.2748290702,
				"y": 2.5206997736,
				"z": -1.018915643,
				"element": "H" 
			},
			{
				"x": -3.7053779634,
				"y": 3.1212261677,
				"z": -2.9894697953,
				"element": "H" 
			},
			{
				"x": -4.3698702537,
				"y": 2.7311304817,
				"z": -5.3404110583,
				"element": "H" 
			},
			{
				"x": -3.2711295251,
				"y": 0.9423350911,
				"z": -6.6756909953,
				"element": "H" 
			},
			{
				"x": -1.503779553,
				"y": -0.4633101314,
				"z": -5.6651712064,
				"element": "H" 
			},
			{
				"x": -0.078603833,
				"y": -1.0554893962,
				"z": -3.6882504572,
				"element": "H" 
			},
			{
				"x": 2.7032112139,
				"y": -2.218101939,
				"z": 0.1580875089,
				"element": "H" 
			},
			{
				"x": 4.133196432,
				"y": -2.81915928,
				"z": 2.1288891525,
				"element": "H" 
			},
			{
				"x": 4.7972107654,
				"y": -2.4295132591,
				"z": 4.4800405767,
				"element": "H" 
			},
			{
				"x": 3.6984696446,
				"y": -0.6407181493,
				"z": 5.8153199429,
				"element": "H" 
			},
			{
				"x": 1.9315976262,
				"y": 0.7653769953,
				"z": 4.8045903845,
				"element": "H" 
			},
			{
				"x": 0.5069860457,
				"y": 1.3580870877,
				"z": 2.8274224935,
				"element": "H" 
			}
		],
		 "valence_orbital": [ 
			{
				"type": "occ",
				"energy": -0.26075,
				"method": "rhf"
			},
			{
				"type": "occ",
				"energy": -0.25464,
				"method": "rhf"
			},
			{
				"type": "occ",
				"energy": -0.25061,
				"method": "rhf"
			},
			{
				"type": "occ",
				"energy": -0.22951,
				"method": "rhf"
			},
			{
				"type": "occ",
				"energy": -0.22914,
				"method": "rhf"
			},
			{
				"type": "unocc",
				"energy": -0.09057,
				"method": "rhf"
			},
			{
				"type": "unocc",
				"energy": -0.08082,
				"method": "rhf"
			},
			{
				"type": "unocc",
				"energy": -0.04769,
				"method": "rhf"
			},
			{
				"type": "unocc",
				"energy": -0.02415,
				"method": "rhf"
			},
			{
				"type": "unocc",
				"energy": 0.00433,
				"method": "rhf"
			}
		],
		"cosmo_sigma_profile": { 
			"-0.025": 0.0,
			"-0.024": 0.0,
			"-0.023": 0.0,
			"-0.022": 0.0,
			"-0.021": 0.0,
			"-0.02": 0.0,
			"-0.019": 0.0,
			"-0.018": 0.0,
			"-0.017": 0.0,
			"-0.016": 0.0,
			"-0.015": 0.0,
			"-0.014": 0.0,
			"-0.013": 0.0,
			"-0.012": 0.0,
			"-0.011": 0.0,
			"-0.01": 0.0,
			"-0.009": 0.0,
			"-0.008": 0.379536776402,
			"-0.007": 14.7246732426,
			"-0.006": 25.2421433875,
			"-0.005": 22.2253913861,
			"-0.004": 23.49039498,
			"-0.003": 16.1389734083,
			"-0.002": 18.6155613957,
			"-0.001": 19.7555136229,
			"0.0": 22.5308993299,
			"0.001": 48.3543683795,
			"0.002": 42.4743080123,
			"0.003": 27.5311294022,
			"0.004": 10.8481646937,
			"0.005": 4.57190379069,
			"0.006": 3.77139904024,
			"0.007": 2.96470247527,
			"0.008": 2.23348603589,
			"0.009": 3.70354128367,
			"0.01": 4.70181880288,
			"0.011": 5.88315897906,
			"0.012": 6.64882299279,
			"0.013": 0.0411565944658,
			"0.014": 0.0,
			"0.015": 0.0,
			"0.016": 0.0,
			"0.017": 0.0,
			"0.018": 0.0,
			"0.019": 0.0,
			"0.02": 0.0,
			"0.021": 0.0,
			"0.022": 0.0,
			"0.023": 0.0,
			"0.024": 0.0,
			"0.025": 0.0
		}
	}
}
