{
	 "smiles": "OCC1=CC2=C(NN=N2)C=C1", 
	 "Tm": 420.15, 
	 "num_atms": 18, 
	 "gaussian": { 
		 "optdone": 1, 
		 "sigma_profile": "yes", 
		 "theory": "DFT", 
		 "functional": "B3LYP", 
		 "basiset": "6-31G**", 
		 "properties": { 
			 "R2extent": 2013.8868, 
			 "electric_dipole_moment_norm": 3.05219798014, 
			 "electric_quadrupole_moment_norm": 16.7638369045, 
			 "total_energy": -510.394105279, 
			 "HOMO_LUMO_gap": 0.19512, 
			 "cosmo_polarized_energy": -16.5, 
			 "cosmo_cavitation_energy": 22.34, 
			 "cosmo_dispersion_energy": -16.92, 
			 "cosmo_repulsion_energy": 1.36, 
			 "cosmo_total_nonelectrostatic_energy": 6.78, 
			 "SMD_solvation_energy": 2.2 
		},
		"coords": [
			{
				"x": 0.1989676228,
				"y": -4.2136788043,
				"z": 0.4448380983,
				"element": "O" 
			},
			{
				"x": -0.2532718597,
				"y": -3.0169828863,
				"z": 1.0662968758,
				"element": "C" 
			},
			{
				"x": 0.0031902489,
				"y": -1.7726982291,
				"z": 0.2370294179,
				"element": "C" 
			},
			{
				"x": -0.9386978741,
				"y": -0.7555594713,
				"z": 0.1686599245,
				"element": "C" 
			},
			{
				"x": -0.6263004225,
				"y": 0.3854439638,
				"z": -0.5881493647,
				"element": "C" 
			},
			{
				"x": 0.6061158627,
				"y": 0.4832074231,
				"z": -1.2647688161,
				"element": "C" 
			},
			{
				"x": 0.5252822363,
				"y": 1.7021161246,
				"z": -1.8735004253,
				"element": "N" 
			},
			{
				"x": -0.6652579098,
				"y": 2.3096745653,
				"z": -1.5944574533,
				"element": "N" 
			},
			{
				"x": -1.3578628412,
				"y": 1.5318712744,
				"z": -0.8308066714,
				"element": "N" 
			},
			{
				"x": 1.5649450623,
				"y": -0.5406273525,
				"z": -1.2143747136,
				"element": "C" 
			},
			{
				"x": 1.238806859,
				"y": -1.6540223498,
				"z": -0.4576526167,
				"element": "C" 
			},
			{
				"x": -0.2583324465,
				"y": -4.2908285065,
				"z": -0.4033180578,
				"element": "H" 
			},
			{
				"x": 0.3023363541,
				"y": -2.9628535288,
				"z": 2.0100382449,
				"element": "H" 
			},
			{
				"x": -1.3212863043,
				"y": -3.0716873665,
				"z": 1.3272829457,
				"element": "H" 
			},
			{
				"x": -1.8937248027,
				"y": -0.828131823,
				"z": 0.6805930319,
				"element": "H" 
			},
			{
				"x": 1.1904964706,
				"y": 2.1793318454,
				"z": -2.4624929583,
				"element": "H" 
			},
			{
				"x": 2.5128946018,
				"y": -0.4713525551,
				"z": -1.7382025869,
				"element": "H" 
			},
			{
				"x": 1.9366991422,
				"y": -2.4829223234,
				"z": -0.391714875,
				"element": "H" 
			}
		],
		 "valence_orbital": [ 
			{
				"type": "occ",
				"energy": -0.32535,
				"method": "rhf"
			},
			{
				"type": "occ",
				"energy": -0.2829,
				"method": "rhf"
			},
			{
				"type": "occ",
				"energy": -0.27037,
				"method": "rhf"
			},
			{
				"type": "occ",
				"energy": -0.25273,
				"method": "rhf"
			},
			{
				"type": "occ",
				"energy": -0.24152,
				"method": "rhf"
			},
			{
				"type": "unocc",
				"energy": -0.0464,
				"method": "rhf"
			},
			{
				"type": "unocc",
				"energy": 0.00033,
				"method": "rhf"
			},
			{
				"type": "unocc",
				"energy": 0.03085,
				"method": "rhf"
			},
			{
				"type": "unocc",
				"energy": 0.07259,
				"method": "rhf"
			},
			{
				"type": "unocc",
				"energy": 0.08413,
				"method": "rhf"
			}
		],
		"cosmo_sigma_profile": { 
			"-0.025": 0.0,
			"-0.024": 0.0,
			"-0.023": 0.0,
			"-0.022": 0.0,
			"-0.021": 0.0,
			"-0.02": 0.0,
			"-0.019": 0.0,
			"-0.018": 0.43264291163,
			"-0.017": 2.0383251343,
			"-0.016": 1.56111653655,
			"-0.015": 2.5802574268,
			"-0.014": 2.01685033578,
			"-0.013": 1.39742412433,
			"-0.012": 1.54671373369,
			"-0.011": 2.04674315339,
			"-0.01": 1.60849962426,
			"-0.009": 2.23951253346,
			"-0.008": 2.95216091083,
			"-0.007": 4.9679245193,
			"-0.006": 7.26421023992,
			"-0.005": 10.9800578807,
			"-0.004": 11.3794154767,
			"-0.003": 9.36864695736,
			"-0.002": 8.67903948396,
			"-0.001": 11.2327696857,
			"0.0": 11.0867822864,
			"0.001": 11.1824585311,
			"0.002": 11.7382012584,
			"0.003": 13.7722477077,
			"0.004": 7.43919559407,
			"0.005": 3.95989821012,
			"0.006": 3.04793242068,
			"0.007": 3.47751116885,
			"0.008": 2.65461722209,
			"0.009": 3.76613654158,
			"0.01": 4.56515536289,
			"0.011": 5.13135222078,
			"0.012": 3.22466828126,
			"0.013": 4.36944810651,
			"0.014": 3.00639855149,
			"0.015": 1.14416655455,
			"0.016": 0.407691174033,
			"0.017": 0.0,
			"0.018": 0.0,
			"0.019": 0.0,
			"0.02": 0.0,
			"0.021": 0.0,
			"0.022": 0.0,
			"0.023": 0.0,
			"0.024": 0.0,
			"0.025": 0.0
		}
	}
}
