{
	 "smiles": "OC(=O)C1=CC(=C(O)C=C1)S(Cl)(=O)=O", 
	 "Tm": 463.15, 
	 "num_atms": 19, 
	 "gaussian": { 
		 "optdone": 1, 
		 "sigma_profile": "yes", 
		 "theory": "DFT", 
		 "functional": "B3LYP", 
		 "basiset": "6-31G**", 
		 "properties": { 
			 "R2extent": 4529.4843, 
			 "electric_dipole_moment_norm": 2.00389212784, 
			 "electric_quadrupole_moment_norm": 13.1961775522, 
			 "total_energy": -1504.2078605, 
			 "HOMO_LUMO_gap": 0.16401, 
			 "cosmo_polarized_energy": -12.67, 
			 "cosmo_cavitation_energy": 27.69, 
			 "cosmo_dispersion_energy": -20.92, 
			 "cosmo_repulsion_energy": 1.6, 
			 "cosmo_total_nonelectrostatic_energy": 8.36, 
			 "SMD_solvation_energy": 5.15 
		},
		"coords": [
			{
				"x": 3.198886081,
				"y": -0.1294899143,
				"z": 1.8965230423,
				"element": "O" 
			},
			{
				"x": 2.9319619042,
				"y": -0.2787521444,
				"z": 0.5774589861,
				"element": "C" 
			},
			{
				"x": 3.677528993,
				"y": -0.8647107882,
				"z": -0.1813609321,
				"element": "O" 
			},
			{
				"x": 1.6458569229,
				"y": 0.3442248905,
				"z": 0.1749807676,
				"element": "C" 
			},
			{
				"x": 0.8211903883,
				"y": 1.0015930308,
				"z": 1.0821960936,
				"element": "C" 
			},
			{
				"x": -0.3746292184,
				"y": 1.5756982372,
				"z": 0.6383468219,
				"element": "C" 
			},
			{
				"x": -0.7756206647,
				"y": 1.5100523007,
				"z": -0.7200948689,
				"element": "C" 
			},
			{
				"x": -1.8928994058,
				"y": 2.0447406602,
				"z": -1.2217610021,
				"element": "O" 
			},
			{
				"x": 0.0751798134,
				"y": 0.8326672986,
				"z": -1.6148489178,
				"element": "C" 
			},
			{
				"x": 1.2546086141,
				"y": 0.2624574284,
				"z": -1.1760222362,
				"element": "C" 
			},
			{
				"x": -1.3972065584,
				"y": 2.3659391083,
				"z": 1.8472208142,
				"element": "S" 
			},
			{
				"x": -2.5763847128,
				"y": 0.7631336831,
				"z": 2.5904548132,
				"element": "Cl" 
			},
			{
				"x": -0.6044788122,
				"y": 2.8441855569,
				"z": 2.9682027689,
				"element": "O" 
			},
			{
				"x": -2.3407628551,
				"y": 3.2491450443,
				"z": 1.1437556939,
				"element": "O" 
			},
			{
				"x": 4.0513580511,
				"y": -0.5679691179,
				"z": 2.0525026232,
				"element": "H" 
			},
			{
				"x": 1.1010993335,
				"y": 1.0784844668,
				"z": 2.1262438903,
				"element": "H" 
			},
			{
				"x": -2.3453623576,
				"y": 2.5824553139,
				"z": -0.5395474807,
				"element": "H" 
			},
			{
				"x": -0.2278382056,
				"y": 0.7840912292,
				"z": -2.6549433795,
				"element": "H" 
			},
			{
				"x": 1.9092126891,
				"y": -0.2565462843,
				"z": -1.8681074981,
				"element": "H" 
			}
		],
		 "valence_orbital": [ 
			{
				"type": "occ",
				"energy": -0.33458,
				"method": "rhf"
			},
			{
				"type": "occ",
				"energy": -0.33002,
				"method": "rhf"
			},
			{
				"type": "occ",
				"energy": -0.30139,
				"method": "rhf"
			},
			{
				"type": "occ",
				"energy": -0.29492,
				"method": "rhf"
			},
			{
				"type": "occ",
				"energy": -0.26801,
				"method": "rhf"
			},
			{
				"type": "unocc",
				"energy": -0.104,
				"method": "rhf"
			},
			{
				"type": "unocc",
				"energy": -0.06708,
				"method": "rhf"
			},
			{
				"type": "unocc",
				"energy": -0.05259,
				"method": "rhf"
			},
			{
				"type": "unocc",
				"energy": 0.02148,
				"method": "rhf"
			},
			{
				"type": "unocc",
				"energy": 0.03969,
				"method": "rhf"
			}
		],
		"cosmo_sigma_profile": { 
			"-0.025": 0.0,
			"-0.024": 0.0,
			"-0.023": 0.0,
			"-0.022": 0.0,
			"-0.021": 0.0,
			"-0.02": 0.0,
			"-0.019": 0.205626059757,
			"-0.018": 1.14384634753,
			"-0.017": 0.709223811061,
			"-0.016": 0.99287608396,
			"-0.015": 0.750677234093,
			"-0.014": 0.433404012809,
			"-0.013": 0.393667632498,
			"-0.012": 1.60224462452,
			"-0.011": 1.834285775,
			"-0.01": 1.27700751313,
			"-0.009": 2.23817352412,
			"-0.008": 6.52787257856,
			"-0.007": 8.21114359505,
			"-0.006": 8.23705568135,
			"-0.005": 6.76584172228,
			"-0.004": 9.04191604125,
			"-0.003": 12.0910121241,
			"-0.002": 20.3642511678,
			"-0.001": 23.8497509539,
			"0.0": 18.5426558966,
			"0.001": 14.9012404399,
			"0.002": 15.8508999976,
			"0.003": 16.6127893244,
			"0.004": 7.11452156689,
			"0.005": 6.8591154417,
			"0.006": 7.76789584051,
			"0.007": 10.9495878033,
			"0.008": 7.98746822139,
			"0.009": 3.20570480322,
			"0.01": 2.41916496349,
			"0.011": 4.55800693041,
			"0.012": 1.96525440977,
			"0.013": 0.0,
			"0.014": 0.0,
			"0.015": 0.0,
			"0.016": 0.0,
			"0.017": 0.0,
			"0.018": 0.0,
			"0.019": 0.0,
			"0.02": 0.0,
			"0.021": 0.0,
			"0.022": 0.0,
			"0.023": 0.0,
			"0.024": 0.0,
			"0.025": 0.0
		}
	}
}
