{
	 "smiles": "CN1C(=C(/O)NC2=NC=CC=C2)C(=O)C2=C(C=CC=C2)S1(=O)=O", 
	 "Tm": 471.15, 
	 "num_atms": 36, 
	 "gaussian": { 
		 "optdone": 1, 
		 "sigma_profile": "yes", 
		 "theory": "DFT", 
		 "functional": "B3LYP", 
		 "basiset": "6-31G**", 
		 "properties": { 
			 "R2extent": 9030.7803, 
			 "electric_dipole_moment_norm": 7.67699745018, 
			 "electric_quadrupole_moment_norm": 35.7697794441, 
			 "total_energy": -1442.70870458, 
			 "HOMO_LUMO_gap": 0.14035, 
			 "cosmo_polarized_energy": -20.66, 
			 "cosmo_cavitation_energy": 40.91, 
			 "cosmo_dispersion_energy": -30.13, 
			 "cosmo_repulsion_energy": 2.19, 
			 "cosmo_total_nonelectrostatic_energy": 12.97, 
			 "SMD_solvation_energy": 6.13 
		},
		"coords": [
			{
				"x": 1.0947367271,
				"y": -2.6691041138,
				"z": -1.3541940956,
				"element": "C" 
			},
			{
				"x": -0.0206385803,
				"y": -1.7079323411,
				"z": -1.401841916,
				"element": "N" 
			},
			{
				"x": 0.1546159362,
				"y": -0.4680394038,
				"z": -0.7033180197,
				"element": "C" 
			},
			{
				"x": 0.8796932739,
				"y": 0.5325137877,
				"z": -1.3618697618,
				"element": "C" 
			},
			{
				"x": 1.3626541164,
				"y": 0.329158017,
				"z": -2.57081194,
				"element": "O" 
			},
			{
				"x": 1.1169297673,
				"y": 1.7225690112,
				"z": -0.7264032738,
				"element": "N" 
			},
			{
				"x": 1.808699146,
				"y": 2.8086427,
				"z": -1.2307956035,
				"element": "C" 
			},
			{
				"x": 2.3321418342,
				"y": 2.7024992772,
				"z": -2.4663364181,
				"element": "N" 
			},
			{
				"x": 3.0055892369,
				"y": 3.7458703902,
				"z": -2.9751177057,
				"element": "C" 
			},
			{
				"x": 3.1917029396,
				"y": 4.9355896903,
				"z": -2.2856567077,
				"element": "C" 
			},
			{
				"x": 2.6458397784,
				"y": 5.0423201008,
				"z": -0.9988300023,
				"element": "C" 
			},
			{
				"x": 1.9462725493,
				"y": 3.9766613998,
				"z": -0.4564150117,
				"element": "C" 
			},
			{
				"x": -0.3717266092,
				"y": -0.2620952527,
				"z": 0.6205191295,
				"element": "C" 
			},
			{
				"x": -0.186973004,
				"y": 0.7903097263,
				"z": 1.2861652495,
				"element": "O" 
			},
			{
				"x": -1.1952767845,
				"y": -1.3511818996,
				"z": 1.2377776893,
				"element": "C" 
			},
			{
				"x": -1.7802865071,
				"y": -2.3820136441,
				"z": 0.4818763444,
				"element": "C" 
			},
			{
				"x": -2.527072243,
				"y": -3.3956496341,
				"z": 1.077571407,
				"element": "C" 
			},
			{
				"x": -2.7104178357,
				"y": -3.37844942,
				"z": 2.4606180122,
				"element": "C" 
			},
			{
				"x": -2.1531516423,
				"y": -2.3513509884,
				"z": 3.2288758521,
				"element": "C" 
			},
			{
				"x": -1.4019316839,
				"y": -1.3465165257,
				"z": 2.6234095061,
				"element": "C" 
			},
			{
				"x": -1.5825397365,
				"y": -2.3279404145,
				"z": -1.2965543426,
				"element": "S" 
			},
			{
				"x": -1.5664545984,
				"y": -3.6995644797,
				"z": -1.8111675802,
				"element": "O" 
			},
			{
				"x": -2.505638509,
				"y": -1.3313557399,
				"z": -1.8350495399,
				"element": "O" 
			},
			{
				"x": 0.8335417497,
				"y": -3.5443554433,
				"z": -1.9479032161,
				"element": "H" 
			},
			{
				"x": 1.336580771,
				"y": -2.9780497129,
				"z": -0.3279881507,
				"element": "H" 
			},
			{
				"x": 1.9654357289,
				"y": -2.1841243069,
				"z": -1.800482807,
				"element": "H" 
			},
			{
				"x": 1.8471603709,
				"y": 1.1709415017,
				"z": -2.8471579106,
				"element": "H" 
			},
			{
				"x": 0.6880310383,
				"y": 1.7289108677,
				"z": 0.2234667585,
				"element": "H" 
			},
			{
				"x": 3.4049449355,
				"y": 3.6064150134,
				"z": -3.9761289579,
				"element": "H" 
			},
			{
				"x": 3.7427098572,
				"y": 5.7524426964,
				"z": -2.73720662,
				"element": "H" 
			},
			{
				"x": 2.7670642877,
				"y": 5.9561170537,
				"z": -0.4249320204,
				"element": "H" 
			},
			{
				"x": 1.5086577631,
				"y": 4.0258966314,
				"z": 0.5348887306,
				"element": "H" 
			},
			{
				"x": -2.9467311442,
				"y": -4.183570706,
				"z": 0.46114527,
				"element": "H" 
			},
			{
				"x": -3.2883521402,
				"y": -4.1643716745,
				"z": 2.9375382516,
				"element": "H" 
			},
			{
				"x": -2.3030773981,
				"y": -2.3380673795,
				"z": 4.3043757012,
				"element": "H" 
			},
			{
				"x": -0.9630333911,
				"y": -0.5403247846,
				"z": 3.2009336993,
				"element": "H" 
			}
		],
		 "valence_orbital": [ 
			{
				"type": "occ",
				"energy": -0.27029,
				"method": "rhf"
			},
			{
				"type": "occ",
				"energy": -0.26601,
				"method": "rhf"
			},
			{
				"type": "occ",
				"energy": -0.26197,
				"method": "rhf"
			},
			{
				"type": "occ",
				"energy": -0.24592,
				"method": "rhf"
			},
			{
				"type": "occ",
				"energy": -0.21199,
				"method": "rhf"
			},
			{
				"type": "unocc",
				"energy": -0.07164,
				"method": "rhf"
			},
			{
				"type": "unocc",
				"energy": -0.05261,
				"method": "rhf"
			},
			{
				"type": "unocc",
				"energy": -0.03186,
				"method": "rhf"
			},
			{
				"type": "unocc",
				"energy": -0.0226,
				"method": "rhf"
			},
			{
				"type": "unocc",
				"energy": 0.01602,
				"method": "rhf"
			}
		],
		"cosmo_sigma_profile": { 
			"-0.025": 0.0,
			"-0.024": 0.0,
			"-0.023": 0.0,
			"-0.022": 0.0,
			"-0.021": 0.0,
			"-0.02": 0.0,
			"-0.019": 0.0,
			"-0.018": 0.0,
			"-0.017": 0.0,
			"-0.016": 0.0,
			"-0.015": 0.0,
			"-0.014": 0.0,
			"-0.013": 0.0,
			"-0.012": 0.0,
			"-0.011": 0.209314756946,
			"-0.01": 0.902709822101,
			"-0.009": 1.90454955139,
			"-0.008": 6.89236125195,
			"-0.007": 16.3427682401,
			"-0.006": 20.1980341706,
			"-0.005": 21.4609282382,
			"-0.004": 23.3545411776,
			"-0.003": 24.6968863503,
			"-0.002": 26.4496913667,
			"-0.001": 25.7424070598,
			"0.0": 24.8577532504,
			"0.001": 29.0029215147,
			"0.002": 30.1972165922,
			"0.003": 12.0044881388,
			"0.004": 6.18290009443,
			"0.005": 5.65394786421,
			"0.006": 4.61849731454,
			"0.007": 7.07931128933,
			"0.008": 6.70619938672,
			"0.009": 6.64137758668,
			"0.01": 12.6554127472,
			"0.011": 11.7991279549,
			"0.012": 3.12271357633,
			"0.013": 0.645561090799,
			"0.014": 0.0,
			"0.015": 0.0,
			"0.016": 0.0,
			"0.017": 0.0,
			"0.018": 0.0,
			"0.019": 0.0,
			"0.02": 0.0,
			"0.021": 0.0,
			"0.022": 0.0,
			"0.023": 0.0,
			"0.024": 0.0,
			"0.025": 0.0
		}
	}
}
