{
	 "smiles": "ClC1=CC(Br)=CC(Cl)=C1", 
	 "Tm": 356.15, 
	 "num_atms": 12, 
	 "gaussian": { 
		 "optdone": 1, 
		 "sigma_profile": "yes", 
		 "theory": "DFT", 
		 "functional": "B3LYP", 
		 "basiset": "6-31G**", 
		 "properties": { 
			 "R2extent": 3750.755, 
			 "electric_dipole_moment_norm": 0.162692777959, 
			 "electric_quadrupole_moment_norm": 1.70809237748, 
			 "total_energy": -3722.23313496, 
			 "HOMO_LUMO_gap": 0.22243, 
			 "cosmo_polarized_energy": -3.31, 
			 "cosmo_cavitation_energy": 22.59, 
			 "cosmo_dispersion_energy": -17.45, 
			 "cosmo_repulsion_energy": 1.44, 
			 "cosmo_total_nonelectrostatic_energy": 6.57, 
			 "SMD_solvation_energy": 2.18 
		},
		"coords": [
			{
				"x": -0.0233856479,
				"y": -0.4387248928,
				"z": -3.5381318864,
				"element": "Cl" 
			},
			{
				"x": 0.0769562457,
				"y": 0.4389892252,
				"z": -2.0251816202,
				"element": "C" 
			},
			{
				"x": -1.097505196,
				"y": 0.9018503912,
				"z": -1.4316607354,
				"element": "C" 
			},
			{
				"x": -0.9922044224,
				"y": 1.5972339025,
				"z": -0.2288626275,
				"element": "C" 
			},
			{
				"x": -2.5802793593,
				"y": 2.2424157196,
				"z": 0.6065041243,
				"element": "Br" 
			},
			{
				"x": 0.2366230136,
				"y": 1.8361697208,
				"z": 0.3829240704,
				"element": "C" 
			},
			{
				"x": 1.3852979162,
				"y": 1.3552337572,
				"z": -0.2456542375,
				"element": "C" 
			},
			{
				"x": 2.9451441246,
				"y": 1.6400498227,
				"z": 0.4994918307,
				"element": "Cl" 
			},
			{
				"x": 1.3287687352,
				"y": 0.6543353201,
				"z": -1.4498137016,
				"element": "C" 
			},
			{
				"x": -2.059939092,
				"y": 0.7248941626,
				"z": -1.8934781715,
				"element": "H" 
			},
			{
				"x": 0.3007026263,
				"y": 2.378057384,
				"z": 1.3173373777,
				"element": "H" 
			},
			{
				"x": 2.2303210562,
				"y": 0.2880954868,
				"z": -1.9240744228,
				"element": "H" 
			}
		],
		 "valence_orbital": [ 
			{
				"type": "occ",
				"energy": -0.32761,
				"method": "rhf"
			},
			{
				"type": "occ",
				"energy": -0.30922,
				"method": "rhf"
			},
			{
				"type": "occ",
				"energy": -0.30282,
				"method": "rhf"
			},
			{
				"type": "occ",
				"energy": -0.26574,
				"method": "rhf"
			},
			{
				"type": "occ",
				"energy": -0.26194,
				"method": "rhf"
			},
			{
				"type": "unocc",
				"energy": -0.03951,
				"method": "rhf"
			},
			{
				"type": "unocc",
				"energy": -0.03879,
				"method": "rhf"
			},
			{
				"type": "unocc",
				"energy": -0.02877,
				"method": "rhf"
			},
			{
				"type": "unocc",
				"energy": 0.02506,
				"method": "rhf"
			},
			{
				"type": "unocc",
				"energy": 0.03937,
				"method": "rhf"
			}
		],
		"cosmo_sigma_profile": { 
			"-0.025": 0.0,
			"-0.024": 0.0,
			"-0.023": 0.0,
			"-0.022": 0.0,
			"-0.021": 0.0,
			"-0.02": 0.0,
			"-0.019": 0.0,
			"-0.018": 0.0,
			"-0.017": 0.0,
			"-0.016": 0.0,
			"-0.015": 0.0,
			"-0.014": 0.0,
			"-0.013": 0.0,
			"-0.012": 0.0,
			"-0.011": 0.0,
			"-0.01": 0.0,
			"-0.009": 2.08840621543,
			"-0.008": 4.04168233006,
			"-0.007": 4.07271796393,
			"-0.006": 4.82128910576,
			"-0.005": 6.20090610827,
			"-0.004": 6.84074206886,
			"-0.003": 9.33901019754,
			"-0.002": 11.8973407496,
			"-0.001": 16.9150013715,
			"0.0": 32.2224018327,
			"0.001": 26.5724228062,
			"0.002": 16.0643014298,
			"0.003": 24.3903887695,
			"0.004": 23.9206607966,
			"0.005": 0.825893468186,
			"0.006": 0.0,
			"0.007": 0.0,
			"0.008": 0.0,
			"0.009": 0.0,
			"0.01": 0.0,
			"0.011": 0.0,
			"0.012": 0.0,
			"0.013": 0.0,
			"0.014": 0.0,
			"0.015": 0.0,
			"0.016": 0.0,
			"0.017": 0.0,
			"0.018": 0.0,
			"0.019": 0.0,
			"0.02": 0.0,
			"0.021": 0.0,
			"0.022": 0.0,
			"0.023": 0.0,
			"0.024": 0.0,
			"0.025": 0.0
		}
	}
}
