{
	 "smiles": "CNC(=S)NCO", 
	 "Tm": 361.15, 
	 "num_atms": 15, 
	 "gaussian": { 
		 "optdone": 1, 
		 "sigma_profile": "yes", 
		 "theory": "DFT", 
		 "functional": "B3LYP", 
		 "basiset": "6-31G**", 
		 "properties": { 
			 "R2extent": 1086.1056, 
			 "electric_dipole_moment_norm": 4.96745291774, 
			 "electric_quadrupole_moment_norm": 6.98075124467, 
			 "total_energy": -702.061146891, 
			 "HOMO_LUMO_gap": 0.20392, 
			 "cosmo_polarized_energy": -17.2, 
			 "cosmo_cavitation_energy": 19.71, 
			 "cosmo_dispersion_energy": -15.36, 
			 "cosmo_repulsion_energy": 1.27, 
			 "cosmo_total_nonelectrostatic_energy": 5.61, 
			 "SMD_solvation_energy": 1.74 
		},
		"coords": [
			{
				"x": 0.1321674726,
				"y": -0.1774575486,
				"z": 3.0714107731,
				"element": "C" 
			},
			{
				"x": -0.4007551747,
				"y": 0.4554275999,
				"z": 1.8747950709,
				"element": "N" 
			},
			{
				"x": 0.0649491524,
				"y": 0.2190227226,
				"z": 0.6214370327,
				"element": "C" 
			},
			{
				"x": 1.2995888173,
				"y": -0.8863534815,
				"z": 0.2999894265,
				"element": "S" 
			},
			{
				"x": -0.5546512733,
				"y": 0.956526062,
				"z": -0.3564504003,
				"element": "N" 
			},
			{
				"x": -0.2491827325,
				"y": 0.7581350226,
				"z": -1.7726908153,
				"element": "C" 
			},
			{
				"x": -0.6864160284,
				"y": -0.4678567594,
				"z": -2.2899476446,
				"element": "O" 
			},
			{
				"x": -0.523495523,
				"y": 0.0717628569,
				"z": 3.9090044318,
				"element": "H" 
			},
			{
				"x": 1.1512396471,
				"y": 0.1585788586,
				"z": 3.2936654259,
				"element": "H" 
			},
			{
				"x": 0.1560423963,
				"y": -1.2607447593,
				"z": 2.9388477335,
				"element": "H" 
			},
			{
				"x": -0.9655130467,
				"y": 1.28325335,
				"z": 2.0090098662,
				"element": "H" 
			},
			{
				"x": -1.5051057276,
				"y": 1.2454811358,
				"z": -0.1567564116,
				"element": "H" 
			},
			{
				"x": 0.8314611497,
				"y": 0.8915067167,
				"z": -1.8855033865,
				"element": "H" 
			},
			{
				"x": -0.7719767007,
				"y": 1.5448653327,
				"z": -2.3219907475,
				"element": "H" 
			},
			{
				"x": -0.1086524283,
				"y": -1.1386471088,
				"z": -1.8873203547,
				"element": "H" 
			}
		],
		 "valence_orbital": [ 
			{
				"type": "occ",
				"energy": -0.33938,
				"method": "rhf"
			},
			{
				"type": "occ",
				"energy": -0.28367,
				"method": "rhf"
			},
			{
				"type": "occ",
				"energy": -0.26175,
				"method": "rhf"
			},
			{
				"type": "occ",
				"energy": -0.22558,
				"method": "rhf"
			},
			{
				"type": "occ",
				"energy": -0.21333,
				"method": "rhf"
			},
			{
				"type": "unocc",
				"energy": -0.00941,
				"method": "rhf"
			},
			{
				"type": "unocc",
				"energy": 0.04937,
				"method": "rhf"
			},
			{
				"type": "unocc",
				"energy": 0.09025,
				"method": "rhf"
			},
			{
				"type": "unocc",
				"energy": 0.10301,
				"method": "rhf"
			},
			{
				"type": "unocc",
				"energy": 0.11598,
				"method": "rhf"
			}
		],
		"cosmo_sigma_profile": { 
			"-0.025": 0.0,
			"-0.024": 0.0,
			"-0.023": 0.0,
			"-0.022": 0.0,
			"-0.021": 0.0,
			"-0.02": 0.0,
			"-0.019": 0.0,
			"-0.018": 0.0,
			"-0.017": 0.381588267801,
			"-0.016": 1.72583792211,
			"-0.015": 3.26123537111,
			"-0.014": 2.73757740404,
			"-0.013": 1.90113490109,
			"-0.012": 1.54040296206,
			"-0.011": 1.71331771712,
			"-0.01": 2.6268574373,
			"-0.009": 2.25275900427,
			"-0.008": 2.68563134005,
			"-0.007": 4.61027536985,
			"-0.006": 6.00765256573,
			"-0.005": 6.62626430474,
			"-0.004": 9.65196442246,
			"-0.003": 10.7609948112,
			"-0.002": 14.4351350815,
			"-0.001": 6.58483415014,
			"0.0": 5.98894041934,
			"0.001": 6.77175369879,
			"0.002": 5.75080255138,
			"0.003": 6.99764102648,
			"0.004": 6.92961642879,
			"0.005": 4.63239902067,
			"0.006": 6.52573154984,
			"0.007": 5.84618457416,
			"0.008": 5.40668832695,
			"0.009": 4.77289628241,
			"0.01": 6.29482049259,
			"0.011": 5.41244493632,
			"0.012": 2.05664116147,
			"0.013": 2.07601557588,
			"0.014": 1.82469287146,
			"0.015": 0.0,
			"0.016": 0.0,
			"0.017": 0.0,
			"0.018": 0.0,
			"0.019": 0.0,
			"0.02": 0.0,
			"0.021": 0.0,
			"0.022": 0.0,
			"0.023": 0.0,
			"0.024": 0.0,
			"0.025": 0.0
		}
	}
}
