{
	 "smiles": "CNS(=O)(=O)C1=C(C)C=C(N)C=C1", 
	 "Tm": 391.15, 
	 "num_atms": 25, 
	 "gaussian": { 
		 "optdone": 1, 
		 "sigma_profile": "yes", 
		 "theory": "DFT", 
		 "functional": "B3LYP", 
		 "basiset": "6-31G**", 
		 "properties": { 
			 "R2extent": 2906.3415, 
			 "electric_dipole_moment_norm": 6.20540135769, 
			 "electric_quadrupole_moment_norm": 11.0634459026, 
			 "total_energy": -970.163196802, 
			 "HOMO_LUMO_gap": 0.20056, 
			 "cosmo_polarized_energy": -18.55, 
			 "cosmo_cavitation_energy": 29.06, 
			 "cosmo_dispersion_energy": -21.57, 
			 "cosmo_repulsion_energy": 1.67, 
			 "cosmo_total_nonelectrostatic_energy": 9.16, 
			 "SMD_solvation_energy": 4.5 
		},
		"coords": [
			{
				"x": -2.4103112355,
				"y": 1.9421669255,
				"z": 1.2419815756,
				"element": "C" 
			},
			{
				"x": -2.0020630901,
				"y": 0.6583796934,
				"z": 1.8262822177,
				"element": "N" 
			},
			{
				"x": -0.3314965182,
				"y": 0.3353584516,
				"z": 1.8561118086,
				"element": "S" 
			},
			{
				"x": -0.1846192201,
				"y": -0.7086568582,
				"z": 2.8783697563,
				"element": "O" 
			},
			{
				"x": 0.4268966962,
				"y": 1.5899309474,
				"z": 1.9711233533,
				"element": "O" 
			},
			{
				"x": -0.0297093547,
				"y": -0.3228103788,
				"z": 0.2247110955,
				"element": "C" 
			},
			{
				"x": -0.5793913739,
				"y": -1.5507444075,
				"z": -0.2104601582,
				"element": "C" 
			},
			{
				"x": -1.4939593691,
				"y": -2.3947098476,
				"z": 0.643031745,
				"element": "C" 
			},
			{
				"x": -0.2497675944,
				"y": -1.9819516,
				"z": -1.4940146212,
				"element": "C" 
			},
			{
				"x": 0.6022701508,
				"y": -1.2499203522,
				"z": -2.3435013649,
				"element": "C" 
			},
			{
				"x": 0.9423944253,
				"y": -1.7451234749,
				"z": -3.5904031432,
				"element": "N" 
			},
			{
				"x": 1.138114529,
				"y": -0.0364170619,
				"z": -1.8785115498,
				"element": "C" 
			},
			{
				"x": 0.8222619559,
				"y": 0.4142982545,
				"z": -0.6050967954,
				"element": "C" 
			},
			{
				"x": -1.9650919126,
				"y": 2.8106424038,
				"z": 1.739947411,
				"element": "H" 
			},
			{
				"x": -2.1255974603,
				"y": 1.959008018,
				"z": 0.1867123603,
				"element": "H" 
			},
			{
				"x": -3.5000256735,
				"y": 2.0050177372,
				"z": 1.29721898,
				"element": "H" 
			},
			{
				"x": -2.3300717648,
				"y": 0.5247637393,
				"z": 2.781014282,
				"element": "H" 
			},
			{
				"x": -0.9934784165,
				"y": -2.7015276925,
				"z": 1.5650819977,
				"element": "H" 
			},
			{
				"x": -2.3806402698,
				"y": -1.8262611468,
				"z": 0.9398237094,
				"element": "H" 
			},
			{
				"x": -1.8132991203,
				"y": -3.2861763324,
				"z": 0.0977296855,
				"element": "H" 
			},
			{
				"x": -0.6597466578,
				"y": -2.9248614028,
				"z": -1.8485245645,
				"element": "H" 
			},
			{
				"x": 1.2985931914,
				"y": -1.0816744192,
				"z": -4.2622943157,
				"element": "H" 
			},
			{
				"x": 0.3252035526,
				"y": -2.4353899647,
				"z": -3.9917480472,
				"element": "H" 
			},
			{
				"x": 1.8038158155,
				"y": 0.542571912,
				"z": -2.5126374133,
				"element": "H" 
			},
			{
				"x": 1.2352187147,
				"y": 1.3451868568,
				"z": -0.2333480044,
				"element": "H" 
			}
		],
		 "valence_orbital": [ 
			{
				"type": "occ",
				"energy": -0.29543,
				"method": "rhf"
			},
			{
				"type": "occ",
				"energy": -0.2883,
				"method": "rhf"
			},
			{
				"type": "occ",
				"energy": -0.26436,
				"method": "rhf"
			},
			{
				"type": "occ",
				"energy": -0.2528,
				"method": "rhf"
			},
			{
				"type": "occ",
				"energy": -0.21758,
				"method": "rhf"
			},
			{
				"type": "unocc",
				"energy": -0.01702,
				"method": "rhf"
			},
			{
				"type": "unocc",
				"energy": -0.00631,
				"method": "rhf"
			},
			{
				"type": "unocc",
				"energy": 0.06378,
				"method": "rhf"
			},
			{
				"type": "unocc",
				"energy": 0.07789,
				"method": "rhf"
			},
			{
				"type": "unocc",
				"energy": 0.09058,
				"method": "rhf"
			}
		],
		"cosmo_sigma_profile": { 
			"-0.025": 0.0,
			"-0.024": 0.0,
			"-0.023": 0.0,
			"-0.022": 0.0,
			"-0.021": 0.0,
			"-0.02": 0.0,
			"-0.019": 0.0,
			"-0.018": 0.0,
			"-0.017": 0.0,
			"-0.016": 0.0,
			"-0.015": 0.101864312547,
			"-0.014": 0.942532107053,
			"-0.013": 3.34499692678,
			"-0.012": 4.26782267486,
			"-0.011": 3.35535293571,
			"-0.01": 4.54430738362,
			"-0.009": 4.12489700087,
			"-0.008": 3.62668060521,
			"-0.007": 5.39012512999,
			"-0.006": 9.99775510271,
			"-0.005": 10.4819917156,
			"-0.004": 14.3993658741,
			"-0.003": 14.1405448593,
			"-0.002": 19.6346849922,
			"-0.001": 13.8555304958,
			"0.0": 15.3774360996,
			"0.001": 13.087013639,
			"0.002": 11.4071193859,
			"0.003": 12.9410096111,
			"0.004": 16.606298104,
			"0.005": 9.00924703026,
			"0.006": 4.013094597,
			"0.007": 4.03533634616,
			"0.008": 4.19670941931,
			"0.009": 4.32907985746,
			"0.01": 5.39047758366,
			"0.011": 7.99619929718,
			"0.012": 7.54835954628,
			"0.013": 1.27294292762,
			"0.014": 0.0,
			"0.015": 0.0,
			"0.016": 0.0,
			"0.017": 0.0,
			"0.018": 0.0,
			"0.019": 0.0,
			"0.02": 0.0,
			"0.021": 0.0,
			"0.022": 0.0,
			"0.023": 0.0,
			"0.024": 0.0,
			"0.025": 0.0
		}
	}
}
