{
	 "smiles": "C1CC(CC=C1)C1=NC2=C(N1)C=CC=C2", 
	 "Tm": 483.15, 
	 "num_atms": 29, 
	 "gaussian": { 
		 "optdone": 1, 
		 "sigma_profile": "yes", 
		 "theory": "DFT", 
		 "functional": "B3LYP", 
		 "basiset": "6-31G**", 
		 "properties": { 
			 "R2extent": 3487.0874, 
			 "electric_dipole_moment_norm": 3.6137949596, 
			 "electric_quadrupole_moment_norm": 2.65255416156, 
			 "total_energy": -613.333359852, 
			 "HOMO_LUMO_gap": 0.20544, 
			 "cosmo_polarized_energy": -10.85, 
			 "cosmo_cavitation_energy": 30.51, 
			 "cosmo_dispersion_energy": -22.66, 
			 "cosmo_repulsion_energy": 1.77, 
			 "cosmo_total_nonelectrostatic_energy": 9.62, 
			 "SMD_solvation_energy": 2.18 
		},
		"coords": [
			{
				"x": 0.6222781109,
				"y": -1.3215371656,
				"z": -2.6421555004,
				"element": "C" 
			},
			{
				"x": 0.2660799177,
				"y": 0.1724907178,
				"z": -2.5914773731,
				"element": "C" 
			},
			{
				"x": 0.7867212555,
				"y": 0.864674361,
				"z": -1.3063854911,
				"element": "C" 
			},
			{
				"x": 2.3233749323,
				"y": 0.71188988,
				"z": -1.220876046,
				"element": "C" 
			},
			{
				"x": 2.8004431752,
				"y": -0.6773569867,
				"z": -1.5758598489,
				"element": "C" 
			},
			{
				"x": 2.0416052262,
				"y": -1.5857448005,
				"z": -2.2031121698,
				"element": "C" 
			},
			{
				"x": 0.0771354567,
				"y": 0.378522753,
				"z": -0.0705862837,
				"element": "C" 
			},
			{
				"x": -0.9496796515,
				"y": 0.986224854,
				"z": 0.4796835417,
				"element": "N" 
			},
			{
				"x": -1.3008222771,
				"y": 0.1986117163,
				"z": 1.5681365273,
				"element": "C" 
			},
			{
				"x": -0.4390102108,
				"y": -0.9217962868,
				"z": 1.6644410713,
				"element": "C" 
			},
			{
				"x": 0.432392424,
				"y": -0.7779703871,
				"z": 0.5989168557,
				"element": "N" 
			},
			{
				"x": -0.5618754092,
				"y": -1.8802960572,
				"z": 2.6719779442,
				"element": "C" 
			},
			{
				"x": -1.5860883483,
				"y": -1.6895973706,
				"z": 3.597409659,
				"element": "C" 
			},
			{
				"x": -2.4527801056,
				"y": -0.5811693164,
				"z": 3.5180145947,
				"element": "C" 
			},
			{
				"x": -2.3222395314,
				"y": 0.3706456432,
				"z": 2.5109206053,
				"element": "C" 
			},
			{
				"x": -0.0700046475,
				"y": -1.9016920658,
				"z": -2.0143950576,
				"element": "H" 
			},
			{
				"x": 0.4775932996,
				"y": -1.7033757989,
				"z": -3.6609362354,
				"element": "H" 
			},
			{
				"x": -0.8162487131,
				"y": 0.3118380764,
				"z": -2.6727143224,
				"element": "H" 
			},
			{
				"x": 0.722858834,
				"y": 0.679346535,
				"z": -3.4506852955,
				"element": "H" 
			},
			{
				"x": 0.5352975218,
				"y": 1.9273500569,
				"z": -1.368482744,
				"element": "H" 
			},
			{
				"x": 2.6745398185,
				"y": 0.9843141769,
				"z": -0.2176893224,
				"element": "H" 
			},
			{
				"x": 2.7932688933,
				"y": 1.4361742068,
				"z": -1.9017388904,
				"element": "H" 
			},
			{
				"x": 3.8269995165,
				"y": -0.9267323643,
				"z": -1.3113993256,
				"element": "H" 
			},
			{
				"x": 2.4555418953,
				"y": -2.5689656849,
				"z": -2.4221198397,
				"element": "H" 
			},
			{
				"x": 1.1877035142,
				"y": -1.3915575316,
				"z": 0.3286865031,
				"element": "H" 
			},
			{
				"x": 0.104886496,
				"y": -2.7352024454,
				"z": 2.7367352833,
				"element": "H" 
			},
			{
				"x": -1.7185743669,
				"y": -2.4115986191,
				"z": 4.3979351945,
				"element": "H" 
			},
			{
				"x": -3.2377044884,
				"y": -0.4709952399,
				"z": 4.2606077504,
				"element": "H" 
			},
			{
				"x": -2.9864925378,
				"y": 1.2265051435,
				"z": 2.4456482156,
				"element": "H" 
			}
		],
		 "valence_orbital": [ 
			{
				"type": "occ",
				"energy": -0.29304,
				"method": "rhf"
			},
			{
				"type": "occ",
				"energy": -0.26017,
				"method": "rhf"
			},
			{
				"type": "occ",
				"energy": -0.2567,
				"method": "rhf"
			},
			{
				"type": "occ",
				"energy": -0.21853,
				"method": "rhf"
			},
			{
				"type": "occ",
				"energy": -0.21254,
				"method": "rhf"
			},
			{
				"type": "unocc",
				"energy": -0.0071,
				"method": "rhf"
			},
			{
				"type": "unocc",
				"energy": 0.01064,
				"method": "rhf"
			},
			{
				"type": "unocc",
				"energy": 0.03112,
				"method": "rhf"
			},
			{
				"type": "unocc",
				"energy": 0.06324,
				"method": "rhf"
			},
			{
				"type": "unocc",
				"energy": 0.07807,
				"method": "rhf"
			}
		],
		"cosmo_sigma_profile": { 
			"-0.025": 0.0,
			"-0.024": 0.0,
			"-0.023": 0.0,
			"-0.022": 0.0,
			"-0.021": 0.0,
			"-0.02": 0.0,
			"-0.019": 0.0,
			"-0.018": 0.0,
			"-0.017": 0.0,
			"-0.016": 0.0,
			"-0.015": 0.0,
			"-0.014": 0.0,
			"-0.013": 0.471140631229,
			"-0.012": 0.927821859282,
			"-0.011": 0.847422333756,
			"-0.01": 0.801652325297,
			"-0.009": 0.975608204037,
			"-0.008": 0.905003588423,
			"-0.007": 2.10188581296,
			"-0.006": 4.28996472779,
			"-0.005": 11.2703290128,
			"-0.004": 21.7224535407,
			"-0.003": 33.3514395504,
			"-0.002": 32.2337297489,
			"-0.001": 26.8121381146,
			"0.0": 18.8267917221,
			"0.001": 12.1477318594,
			"0.002": 10.9225762578,
			"0.003": 10.013413665,
			"0.004": 11.2803512461,
			"0.005": 12.7732479156,
			"0.006": 11.597551872,
			"0.007": 5.68826392692,
			"0.008": 1.26422449679,
			"0.009": 1.15433264515,
			"0.01": 0.942454829884,
			"0.011": 1.35189203717,
			"0.012": 0.969730103991,
			"0.013": 1.36229469262,
			"0.014": 0.627615866632,
			"0.015": 0.955504987289,
			"0.016": 1.02990646817,
			"0.017": 0.828307244456,
			"0.018": 0.744981617895,
			"0.019": 0.0683331379105,
			"0.02": 0.0,
			"0.021": 0.0,
			"0.022": 0.0,
			"0.023": 0.0,
			"0.024": 0.0,
			"0.025": 0.0
		}
	}
}
