{
	 "smiles": "NC(=O)C1=CC=C(C=C)C=C1", 
	 "Tm": 443.15, 
	 "num_atms": 20, 
	 "gaussian": { 
		 "optdone": 1, 
		 "sigma_profile": "yes", 
		 "theory": "DFT", 
		 "functional": "B3LYP", 
		 "basiset": "6-31G**", 
		 "properties": { 
			 "R2extent": 2560.9371, 
			 "electric_dipole_moment_norm": 3.50563278739, 
			 "electric_quadrupole_moment_norm": 21.3709895351, 
			 "total_energy": -478.358756439, 
			 "HOMO_LUMO_gap": 0.17644, 
			 "cosmo_polarized_energy": -13.41, 
			 "cosmo_cavitation_energy": 24.44, 
			 "cosmo_dispersion_energy": -17.85, 
			 "cosmo_repulsion_energy": 1.42, 
			 "cosmo_total_nonelectrostatic_energy": 8.01, 
			 "SMD_solvation_energy": 5.62 
		},
		"coords": [
			{
				"x": -2.0687443942,
				"y": -2.2488735526,
				"z": -3.3995099098,
				"element": "N" 
			},
			{
				"x": -2.3435400863,
				"y": -2.0477360991,
				"z": -2.065843261,
				"element": "C" 
			},
			{
				"x": -3.3386986875,
				"y": -2.5266672594,
				"z": -1.5352071557,
				"element": "O" 
			},
			{
				"x": -1.3732278759,
				"y": -1.1896270943,
				"z": -1.3080343167,
				"element": "C" 
			},
			{
				"x": -1.4193698867,
				"y": -1.2407562369,
				"z": 0.0935873404,
				"element": "C" 
			},
			{
				"x": -0.5508489703,
				"y": -0.4785810999,
				"z": 0.8613206605,
				"element": "C" 
			},
			{
				"x": 0.3914843145,
				"y": 0.376247327,
				"z": 0.2564038324,
				"element": "C" 
			},
			{
				"x": 1.3363252304,
				"y": 1.2062228614,
				"z": 1.0199145966,
				"element": "C" 
			},
			{
				"x": 1.4792889691,
				"y": 1.2600360301,
				"z": 2.3501247196,
				"element": "C" 
			},
			{
				"x": 0.4156605617,
				"y": 0.4368600631,
				"z": -1.1475966116,
				"element": "C" 
			},
			{
				"x": -0.4504471735,
				"y": -0.3322278084,
				"z": -1.920538974,
				"element": "C" 
			},
			{
				"x": -2.6594217048,
				"y": -2.9264456121,
				"z": -3.8600382713,
				"element": "H" 
			},
			{
				"x": -1.1245066764,
				"y": -2.1635615657,
				"z": -3.7419646715,
				"element": "H" 
			},
			{
				"x": -2.1540509117,
				"y": -1.8909165711,
				"z": 0.5565039742,
				"element": "H" 
			},
			{
				"x": -0.6065385154,
				"y": -0.5425012653,
				"z": 1.9434604104,
				"element": "H" 
			},
			{
				"x": 1.9817368133,
				"y": 1.8363604464,
				"z": 0.4087636839,
				"element": "H" 
			},
			{
				"x": 2.2154896169,
				"y": 1.9150362434,
				"z": 2.8041787082,
				"element": "H" 
			},
			{
				"x": 0.8803957407,
				"y": 0.6639566936,
				"z": 3.0321642411,
				"element": "H" 
			},
			{
				"x": 1.1210253186,
				"y": 1.1037846852,
				"z": -1.6367271481,
				"element": "H" 
			},
			{
				"x": -0.4247116827,
				"y": -0.2317101855,
				"z": -3.0017618475,
				"element": "H" 
			}
		],
		 "valence_orbital": [ 
			{
				"type": "occ",
				"energy": -0.30358,
				"method": "rhf"
			},
			{
				"type": "occ",
				"energy": -0.27197,
				"method": "rhf"
			},
			{
				"type": "occ",
				"energy": -0.2599,
				"method": "rhf"
			},
			{
				"type": "occ",
				"energy": -0.24925,
				"method": "rhf"
			},
			{
				"type": "occ",
				"energy": -0.23102,
				"method": "rhf"
			},
			{
				"type": "unocc",
				"energy": -0.05458,
				"method": "rhf"
			},
			{
				"type": "unocc",
				"energy": -0.00868,
				"method": "rhf"
			},
			{
				"type": "unocc",
				"energy": 0.01917,
				"method": "rhf"
			},
			{
				"type": "unocc",
				"energy": 0.0725,
				"method": "rhf"
			},
			{
				"type": "unocc",
				"energy": 0.08905,
				"method": "rhf"
			}
		],
		"cosmo_sigma_profile": { 
			"-0.025": 0.0,
			"-0.024": 0.0,
			"-0.023": 0.0,
			"-0.022": 0.0,
			"-0.021": 0.0,
			"-0.02": 0.0,
			"-0.019": 0.0,
			"-0.018": 0.0,
			"-0.017": 0.0,
			"-0.016": 0.0,
			"-0.015": 0.0820324120419,
			"-0.014": 1.07085044933,
			"-0.013": 2.49797068704,
			"-0.012": 2.52622326968,
			"-0.011": 2.24179381543,
			"-0.01": 2.73787990664,
			"-0.009": 2.54752793651,
			"-0.008": 2.90085279032,
			"-0.007": 5.01004849426,
			"-0.006": 10.105405103,
			"-0.005": 13.6591575685,
			"-0.004": 11.94550969,
			"-0.003": 10.8124123602,
			"-0.002": 10.8209377313,
			"-0.001": 10.7275997456,
			"0.0": 12.8633408063,
			"0.001": 12.6192152834,
			"0.002": 12.2482776294,
			"0.003": 17.1860698169,
			"0.004": 19.3871986846,
			"0.005": 6.73912599782,
			"0.006": 4.89195054174,
			"0.007": 1.78503259854,
			"0.008": 2.32865960072,
			"0.009": 1.64887900755,
			"0.01": 1.65354468158,
			"0.011": 1.26625715526,
			"0.012": 1.77202308073,
			"0.013": 4.45572242422,
			"0.014": 4.30523271238,
			"0.015": 0.331726806911,
			"0.016": 0.0,
			"0.017": 0.0,
			"0.018": 0.0,
			"0.019": 0.0,
			"0.02": 0.0,
			"0.021": 0.0,
			"0.022": 0.0,
			"0.023": 0.0,
			"0.024": 0.0,
			"0.025": 0.0
		}
	}
}
