{
	 "smiles": "FC(F)(F)COC(=O)NC1=CC(=CC=C1)S(=O)(=O)C1CCCC1", 
	 "Tm": 378.15, 
	 "num_atms": 39, 
	 "gaussian": { 
		 "optdone": 1, 
		 "sigma_profile": "yes", 
		 "theory": "DFT", 
		 "functional": "B3LYP", 
		 "basiset": "6-31G**", 
		 "properties": { 
			 "R2extent": 12173.5931, 
			 "electric_dipole_moment_norm": 4.86252416858, 
			 "electric_quadrupole_moment_norm": 29.6218697197, 
			 "total_energy": -1596.45974609, 
			 "HOMO_LUMO_gap": 0.20304, 
			 "cosmo_polarized_energy": -21.42, 
			 "cosmo_cavitation_energy": 44.75, 
			 "cosmo_dispersion_energy": -31.11, 
			 "cosmo_repulsion_energy": 2.28, 
			 "cosmo_total_nonelectrostatic_energy": 15.93, 
			 "SMD_solvation_energy": 8.27 
		},
		"coords": [
			{
				"x": 1.7194384843,
				"y": -2.6918727208,
				"z": -4.7189849248,
				"element": "F" 
			},
			{
				"x": 1.8909794063,
				"y": -1.9450414989,
				"z": -5.8253433099,
				"element": "C" 
			},
			{
				"x": 3.1662207136,
				"y": -2.099659779,
				"z": -6.2301335327,
				"element": "F" 
			},
			{
				"x": 1.085137244,
				"y": -2.4266784823,
				"z": -6.7935424217,
				"element": "F" 
			},
			{
				"x": 1.5546376667,
				"y": -0.4856983253,
				"z": -5.5675809905,
				"element": "C" 
			},
			{
				"x": 2.3898840785,
				"y": 0.0185279089,
				"z": -4.5321063407,
				"element": "O" 
			},
			{
				"x": 1.7977014842,
				"y": 0.1623093647,
				"z": -3.300614669,
				"element": "C" 
			},
			{
				"x": 0.6174544668,
				"y": -0.0052794699,
				"z": -3.0793823633,
				"element": "O" 
			},
			{
				"x": 2.7660108491,
				"y": 0.5385766655,
				"z": -2.410696138,
				"element": "N" 
			},
			{
				"x": 2.6119282573,
				"y": 0.8001999454,
				"z": -1.035926282,
				"element": "C" 
			},
			{
				"x": 1.3578362775,
				"y": 0.9356885136,
				"z": -0.4235319116,
				"element": "C" 
			},
			{
				"x": 1.312578335,
				"y": 1.1970104084,
				"z": 0.9450386912,
				"element": "C" 
			},
			{
				"x": 2.4614449839,
				"y": 1.3537929271,
				"z": 1.720335228,
				"element": "C" 
			},
			{
				"x": 3.7012158951,
				"y": 1.2278556358,
				"z": 1.0932245254,
				"element": "C" 
			},
			{
				"x": 3.7780186961,
				"y": 0.9478611096,
				"z": -0.2686163272,
				"element": "C" 
			},
			{
				"x": -0.3039256284,
				"y": 1.3637273288,
				"z": 1.7392617086,
				"element": "S" 
			},
			{
				"x": -1.2793236376,
				"y": 1.7306145892,
				"z": 0.6950341512,
				"element": "O" 
			},
			{
				"x": -0.116605209,
				"y": 2.2177763292,
				"z": 2.9275088832,
				"element": "O" 
			},
			{
				"x": -0.6755400552,
				"y": -0.3342502312,
				"z": 2.3452138698,
				"element": "C" 
			},
			{
				"x": -1.056664748,
				"y": -1.3075255453,
				"z": 1.215042856,
				"element": "C" 
			},
			{
				"x": -2.5927417487,
				"y": -1.1732587615,
				"z": 1.0349894319,
				"element": "C" 
			},
			{
				"x": -3.1184506532,
				"y": -0.4108823595,
				"z": 2.2847047457,
				"element": "C" 
			},
			{
				"x": -1.9204132845,
				"y": -0.3024592216,
				"z": 3.2518471671,
				"element": "C" 
			},
			{
				"x": 0.5029291614,
				"y": -0.4042731878,
				"z": -5.2877765893,
				"element": "H" 
			},
			{
				"x": 1.7575217897,
				"y": 0.0896296442,
				"z": -6.4728855413,
				"element": "H" 
			},
			{
				"x": 3.7036154342,
				"y": 0.5747957911,
				"z": -2.7851433833,
				"element": "H" 
			},
			{
				"x": 0.446868188,
				"y": 0.857218426,
				"z": -1.0003274585,
				"element": "H" 
			},
			{
				"x": 2.3786677056,
				"y": 1.5936694942,
				"z": 2.7742876075,
				"element": "H" 
			},
			{
				"x": 4.6153974058,
				"y": 1.3516929355,
				"z": 1.6655013675,
				"element": "H" 
			},
			{
				"x": 4.7500053907,
				"y": 0.846166823,
				"z": -0.7451767564,
				"element": "H" 
			},
			{
				"x": 0.234895602,
				"y": -0.6181678191,
				"z": 2.8816150915,
				"element": "H" 
			},
			{
				"x": -0.7955094946,
				"y": -2.3158169149,
				"z": 1.5564305014,
				"element": "H" 
			},
			{
				"x": -0.5011494936,
				"y": -1.137964788,
				"z": 0.2891248089,
				"element": "H" 
			},
			{
				"x": -3.0529377818,
				"y": -2.161034274,
				"z": 0.9359623654,
				"element": "H" 
			},
			{
				"x": -2.8229478525,
				"y": -0.6141821516,
				"z": 0.1258907625,
				"element": "H" 
			},
			{
				"x": -3.9680766957,
				"y": -0.9142519629,
				"z": 2.7554864358,
				"element": "H" 
			},
			{
				"x": -3.4504373849,
				"y": 0.5892380462,
				"z": 1.9954709407,
				"element": "H" 
			},
			{
				"x": -1.9491300163,
				"y": 0.5792884077,
				"z": 3.8969741334,
				"element": "H" 
			},
			{
				"x": -1.865833832,
				"y": -1.1829428004,
				"z": 3.9034236674,
				"element": "H" 
			}
		],
		 "valence_orbital": [ 
			{
				"type": "occ",
				"energy": -0.30075,
				"method": "rhf"
			},
			{
				"type": "occ",
				"energy": -0.28773,
				"method": "rhf"
			},
			{
				"type": "occ",
				"energy": -0.27957,
				"method": "rhf"
			},
			{
				"type": "occ",
				"energy": -0.26984,
				"method": "rhf"
			},
			{
				"type": "occ",
				"energy": -0.24497,
				"method": "rhf"
			},
			{
				"type": "unocc",
				"energy": -0.04193,
				"method": "rhf"
			},
			{
				"type": "unocc",
				"energy": -0.02838,
				"method": "rhf"
			},
			{
				"type": "unocc",
				"energy": 0.03402,
				"method": "rhf"
			},
			{
				"type": "unocc",
				"energy": 0.05845,
				"method": "rhf"
			},
			{
				"type": "unocc",
				"energy": 0.06213,
				"method": "rhf"
			}
		],
		"cosmo_sigma_profile": { 
			"-0.025": 0.0,
			"-0.024": 0.0,
			"-0.023": 0.0,
			"-0.022": 0.0,
			"-0.021": 0.0,
			"-0.02": 0.0,
			"-0.019": 0.0,
			"-0.018": 0.0,
			"-0.017": 0.0771897181082,
			"-0.016": 1.1791761285,
			"-0.015": 0.961518244676,
			"-0.014": 1.0179558071,
			"-0.013": 1.19364244415,
			"-0.012": 1.36955307279,
			"-0.011": 1.15095304422,
			"-0.01": 1.89218067648,
			"-0.009": 4.45485059652,
			"-0.008": 5.86110030618,
			"-0.007": 12.1249955134,
			"-0.006": 13.5604999955,
			"-0.005": 15.2733383627,
			"-0.004": 17.0699053109,
			"-0.003": 22.6072904917,
			"-0.002": 33.2067607931,
			"-0.001": 34.0185074574,
			"0.0": 29.4268860813,
			"0.001": 28.9169530545,
			"0.002": 40.4693986042,
			"0.003": 32.1110869385,
			"0.004": 7.37510117303,
			"0.005": 6.17889550486,
			"0.006": 5.17158214854,
			"0.007": 5.49849095857,
			"0.008": 3.27008914816,
			"0.009": 5.14550558745,
			"0.01": 6.94427493006,
			"0.011": 8.95765701599,
			"0.012": 6.39991839557,
			"0.013": 1.70280401479,
			"0.014": 0.0,
			"0.015": 0.0,
			"0.016": 0.0,
			"0.017": 0.0,
			"0.018": 0.0,
			"0.019": 0.0,
			"0.02": 0.0,
			"0.021": 0.0,
			"0.022": 0.0,
			"0.023": 0.0,
			"0.024": 0.0,
			"0.025": 0.0
		}
	}
}
