{
	 "smiles": "NC(=O)C1=CC=C(Cl)C=C1", 
	 "Tm": 449.15, 
	 "num_atms": 16, 
	 "gaussian": { 
		 "optdone": 1, 
		 "sigma_profile": "yes", 
		 "theory": "DFT", 
		 "functional": "B3LYP", 
		 "basiset": "6-31G**", 
		 "properties": { 
			 "R2extent": 2326.1792, 
			 "electric_dipole_moment_norm": 3.21642083223, 
			 "electric_quadrupole_moment_norm": 14.794760996, 
			 "total_energy": -860.548240485, 
			 "HOMO_LUMO_gap": 0.20455, 
			 "cosmo_polarized_energy": -12.66, 
			 "cosmo_cavitation_energy": 22.36, 
			 "cosmo_dispersion_energy": -16.82, 
			 "cosmo_repulsion_energy": 1.37, 
			 "cosmo_total_nonelectrostatic_energy": 6.91, 
			 "SMD_solvation_energy": 4.38 
		},
		"coords": [
			{
				"x": -4.0007243078,
				"y": 0.823725185,
				"z": 0.6968109648,
				"element": "N" 
			},
			{
				"x": -3.3231121952,
				"y": 0.6156527041,
				"z": -0.4814950422,
				"element": "C" 
			},
			{
				"x": -3.9014869142,
				"y": 0.5688224473,
				"z": -1.5599029301,
				"element": "O" 
			},
			{
				"x": -1.8306006659,
				"y": 0.4761709514,
				"z": -0.3770347389,
				"element": "C" 
			},
			{
				"x": -1.1583563417,
				"y": -0.0763669374,
				"z": -1.4748377348,
				"element": "C" 
			},
			{
				"x": 0.2231162409,
				"y": -0.2420752523,
				"z": -1.4563553091,
				"element": "C" 
			},
			{
				"x": 0.939119123,
				"y": 0.1641099657,
				"z": -0.3287169328,
				"element": "C" 
			},
			{
				"x": 2.6825058764,
				"y": -0.0385041658,
				"z": -0.2945748582,
				"element": "Cl" 
			},
			{
				"x": 0.296299548,
				"y": 0.735989323,
				"z": 0.7691479854,
				"element": "C" 
			},
			{
				"x": -1.0890584032,
				"y": 0.8889030921,
				"z": 0.738191317,
				"element": "C" 
			},
			{
				"x": -3.6031207223,
				"y": 0.5268466947,
				"z": 1.5742530521,
				"element": "H" 
			},
			{
				"x": -5.0077006782,
				"y": 0.7971485499,
				"z": 0.6224172783,
				"element": "H" 
			},
			{
				"x": -1.742719416,
				"y": -0.3698160839,
				"z": -2.3402098211,
				"element": "H" 
			},
			{
				"x": 0.7433920351,
				"y": -0.6768560692,
				"z": -2.3025161779,
				"element": "H" 
			},
			{
				"x": 0.8725587557,
				"y": 1.0628021452,
				"z": 1.6274354922,
				"element": "H" 
			},
			{
				"x": -1.5798119348,
				"y": 1.3667474503,
				"z": 1.5807874553,
				"element": "H" 
			}
		],
		 "valence_orbital": [ 
			{
				"type": "occ",
				"energy": -0.31938,
				"method": "rhf"
			},
			{
				"type": "occ",
				"energy": -0.27972,
				"method": "rhf"
			},
			{
				"type": "occ",
				"energy": -0.27273,
				"method": "rhf"
			},
			{
				"type": "occ",
				"energy": -0.25991,
				"method": "rhf"
			},
			{
				"type": "occ",
				"energy": -0.25223,
				"method": "rhf"
			},
			{
				"type": "unocc",
				"energy": -0.04768,
				"method": "rhf"
			},
			{
				"type": "unocc",
				"energy": -0.02309,
				"method": "rhf"
			},
			{
				"type": "unocc",
				"energy": 0.02304,
				"method": "rhf"
			},
			{
				"type": "unocc",
				"energy": 0.04854,
				"method": "rhf"
			},
			{
				"type": "unocc",
				"energy": 0.07595,
				"method": "rhf"
			}
		],
		"cosmo_sigma_profile": { 
			"-0.025": 0.0,
			"-0.024": 0.0,
			"-0.023": 0.0,
			"-0.022": 0.0,
			"-0.021": 0.0,
			"-0.02": 0.0,
			"-0.019": 0.0,
			"-0.018": 0.0,
			"-0.017": 0.0,
			"-0.016": 0.0,
			"-0.015": 0.13189170746,
			"-0.014": 1.77660046471,
			"-0.013": 2.39289111298,
			"-0.012": 2.54540638281,
			"-0.011": 2.82368065658,
			"-0.01": 2.50238374056,
			"-0.009": 2.4349474455,
			"-0.008": 4.9632994648,
			"-0.007": 5.98968780622,
			"-0.006": 8.2451626066,
			"-0.005": 7.81994535628,
			"-0.004": 6.21618518496,
			"-0.003": 7.59540856997,
			"-0.002": 8.22468513757,
			"-0.001": 10.4182150512,
			"0.0": 13.6930033636,
			"0.001": 16.954171969,
			"0.002": 19.8216150935,
			"0.003": 17.6979773795,
			"0.004": 12.924480598,
			"0.005": 5.28785950794,
			"0.006": 2.12753941999,
			"0.007": 2.09934998512,
			"0.008": 2.10443995372,
			"0.009": 1.30077007319,
			"0.01": 0.890862767508,
			"0.011": 2.0778393275,
			"0.012": 2.25251068364,
			"0.013": 5.08335177639,
			"0.014": 2.69694248283,
			"0.015": 0.148041842324,
			"0.016": 0.0,
			"0.017": 0.0,
			"0.018": 0.0,
			"0.019": 0.0,
			"0.02": 0.0,
			"0.021": 0.0,
			"0.022": 0.0,
			"0.023": 0.0,
			"0.024": 0.0,
			"0.025": 0.0
		}
	}
}
