{
	 "smiles": "C1CCCCCCCCCCCCCC1", 
	 "Tm": 334.75, 
	 "num_atms": 45, 
	 "gaussian": { 
		 "optdone": 1, 
		 "sigma_profile": "yes", 
		 "theory": "DFT", 
		 "functional": "B3LYP", 
		 "basiset": "6-31G**", 
		 "properties": { 
			 "R2extent": 4680.0702, 
			 "electric_dipole_moment_norm": 0.0631030902571, 
			 "electric_quadrupole_moment_norm": 0.512828265602, 
			 "total_energy": -589.714758971, 
			 "HOMO_LUMO_gap": 0.36976, 
			 "cosmo_polarized_energy": -0.92, 
			 "cosmo_cavitation_energy": 39.71, 
			 "cosmo_dispersion_energy": -27.49, 
			 "cosmo_repulsion_energy": 2.15, 
			 "cosmo_total_nonelectrostatic_energy": 14.37, 
			 "SMD_solvation_energy": 4.36 
		},
		"coords": [
			{
				"x": -0.7954679771,
				"y": 0.6100760957,
				"z": 3.6161500891,
				"element": "C" 
			},
			{
				"x": 0.5526126948,
				"y": 0.151466843,
				"z": 4.2214967014,
				"element": "C" 
			},
			{
				"x": 1.740339695,
				"y": 0.1500635669,
				"z": 3.2364971374,
				"element": "C" 
			},
			{
				"x": 1.723976919,
				"y": -0.9440242239,
				"z": 2.1558581874,
				"element": "C" 
			},
			{
				"x": 2.8389998733,
				"y": -0.7896223408,
				"z": 1.0998306405,
				"element": "C" 
			},
			{
				"x": 2.5377132578,
				"y": 0.2506322766,
				"z": 0.0015127463,
				"element": "C" 
			},
			{
				"x": 1.5089253361,
				"y": -0.228605756,
				"z": -1.0362781313,
				"element": "C" 
			},
			{
				"x": 1.035961832,
				"y": 0.8759283151,
				"z": -1.9933352674,
				"element": "C" 
			},
			{
				"x": -0.0352974005,
				"y": 0.4375463949,
				"z": -3.0124589025,
				"element": "C" 
			},
			{
				"x": -1.377903527,
				"y": -0.0216664929,
				"z": -2.4087389429,
				"element": "C" 
			},
			{
				"x": -2.1916248198,
				"y": 1.0959843635,
				"z": -1.7132238021,
				"element": "C" 
			},
			{
				"x": -2.9751813772,
				"y": 0.6431700565,
				"z": -0.465367982,
				"element": "C" 
			},
			{
				"x": -2.0471081989,
				"y": 0.2485978614,
				"z": 0.6917673425,
				"element": "C" 
			},
			{
				"x": -2.728047602,
				"y": -0.0665023391,
				"z": 2.0307028474,
				"element": "C" 
			},
			{
				"x": -1.718629141,
				"y": -0.5171058388,
				"z": 3.1048791109,
				"element": "C" 
			},
			{
				"x": -0.5806198651,
				"y": 1.3159360269,
				"z": 2.804072142,
				"element": "H" 
			},
			{
				"x": -1.3519424169,
				"y": 1.1897732685,
				"z": 4.3634965375,
				"element": "H" 
			},
			{
				"x": 0.8136114777,
				"y": 0.8246863636,
				"z": 5.0473936167,
				"element": "H" 
			},
			{
				"x": 0.4411037785,
				"y": -0.8442808078,
				"z": 4.6737370429,
				"element": "H" 
			},
			{
				"x": 2.6731363379,
				"y": 0.0494214972,
				"z": 3.8086417326,
				"element": "H" 
			},
			{
				"x": 1.7895110408,
				"y": 1.1392821989,
				"z": 2.7599620673,
				"element": "H" 
			},
			{
				"x": 0.752763819,
				"y": -0.9582393317,
				"z": 1.6500118119,
				"element": "H" 
			},
			{
				"x": 1.8188986113,
				"y": -1.9211133181,
				"z": 2.6482294076,
				"element": "H" 
			},
			{
				"x": 3.0230669581,
				"y": -1.7602222908,
				"z": 0.6199843647,
				"element": "H" 
			},
			{
				"x": 3.775322135,
				"y": -0.5239787718,
				"z": 1.6089539572,
				"element": "H" 
			},
			{
				"x": 2.1783065149,
				"y": 1.1796922286,
				"z": 0.4657250133,
				"element": "H" 
			},
			{
				"x": 3.4697689859,
				"y": 0.5169535492,
				"z": -0.5142586647,
				"element": "H" 
			},
			{
				"x": 0.6432302858,
				"y": -0.6471821886,
				"z": -0.5118895677,
				"element": "H" 
			},
			{
				"x": 1.9395598965,
				"y": -1.0580990187,
				"z": -1.6156989992,
				"element": "H" 
			},
			{
				"x": 0.6585381219,
				"y": 1.7199866215,
				"z": -1.4001633549,
				"element": "H" 
			},
			{
				"x": 1.9013556896,
				"y": 1.2679863502,
				"z": -2.5448940793,
				"element": "H" 
			},
			{
				"x": -0.2206164875,
				"y": 1.2686458162,
				"z": -3.7067772014,
				"element": "H" 
			},
			{
				"x": 0.3730687349,
				"y": -0.3795849074,
				"z": -3.6228056598,
				"element": "H" 
			},
			{
				"x": -1.1863565118,
				"y": -0.8394128817,
				"z": -1.7054784606,
				"element": "H" 
			},
			{
				"x": -1.9876115526,
				"y": -0.4647933783,
				"z": -3.2059865245,
				"element": "H" 
			},
			{
				"x": -2.8830937086,
				"y": 1.5419948952,
				"z": -2.4388041072,
				"element": "H" 
			},
			{
				"x": -1.5205682364,
				"y": 1.9093265428,
				"z": -1.4073697452,
				"element": "H" 
			},
			{
				"x": -3.6311201891,
				"y": 1.4620265974,
				"z": -0.1400611924,
				"element": "H" 
			},
			{
				"x": -3.6371366946,
				"y": -0.1971238534,
				"z": -0.7186766005,
				"element": "H" 
			},
			{
				"x": -1.3204426902,
				"y": 1.0589950162,
				"z": 0.834873281,
				"element": "H" 
			},
			{
				"x": -1.4593020532,
				"y": -0.6308341365,
				"z": 0.3999150497,
				"element": "H" 
			},
			{
				"x": -3.2849166734,
				"y": 0.8128529143,
				"z": 2.3850150821,
				"element": "H" 
			},
			{
				"x": -3.4729246614,
				"y": -0.8593555557,
				"z": 1.8799161883,
				"element": "H" 
			},
			{
				"x": -2.2557224894,
				"y": -0.9479002328,
				"z": 3.9597062157,
				"element": "H" 
			},
			{
				"x": -1.1179377221,
				"y": -1.3365779955,
				"z": 2.6910388721,
				"element": "H" 
			}
		],
		 "valence_orbital": [ 
			{
				"type": "occ",
				"energy": -0.30222,
				"method": "rhf"
			},
			{
				"type": "occ",
				"energy": -0.30075,
				"method": "rhf"
			},
			{
				"type": "occ",
				"energy": -0.29627,
				"method": "rhf"
			},
			{
				"type": "occ",
				"energy": -0.29324,
				"method": "rhf"
			},
			{
				"type": "occ",
				"energy": -0.29295,
				"method": "rhf"
			},
			{
				"type": "unocc",
				"energy": 0.07681,
				"method": "rhf"
			},
			{
				"type": "unocc",
				"energy": 0.0877,
				"method": "rhf"
			},
			{
				"type": "unocc",
				"energy": 0.09514,
				"method": "rhf"
			},
			{
				"type": "unocc",
				"energy": 0.1012,
				"method": "rhf"
			},
			{
				"type": "unocc",
				"energy": 0.10592,
				"method": "rhf"
			}
		],
		"cosmo_sigma_profile": { 
			"-0.025": 0.0,
			"-0.024": 0.0,
			"-0.023": 0.0,
			"-0.022": 0.0,
			"-0.021": 0.0,
			"-0.02": 0.0,
			"-0.019": 0.0,
			"-0.018": 0.0,
			"-0.017": 0.0,
			"-0.016": 0.0,
			"-0.015": 0.0,
			"-0.014": 0.0,
			"-0.013": 0.0,
			"-0.012": 0.0,
			"-0.011": 0.0,
			"-0.01": 0.0,
			"-0.009": 0.0,
			"-0.008": 0.0,
			"-0.007": 0.0,
			"-0.006": 0.0,
			"-0.005": 0.0,
			"-0.004": 0.346121337817,
			"-0.003": 3.53752434607,
			"-0.002": 32.2923707381,
			"-0.001": 67.4590752139,
			"0.0": 87.3355348341,
			"0.001": 77.3235716575,
			"0.002": 33.7231797771,
			"0.003": 0.472864120397,
			"0.004": 0.0,
			"0.005": 0.0,
			"0.006": 0.0,
			"0.007": 0.0,
			"0.008": 0.0,
			"0.009": 0.0,
			"0.01": 0.0,
			"0.011": 0.0,
			"0.012": 0.0,
			"0.013": 0.0,
			"0.014": 0.0,
			"0.015": 0.0,
			"0.016": 0.0,
			"0.017": 0.0,
			"0.018": 0.0,
			"0.019": 0.0,
			"0.02": 0.0,
			"0.021": 0.0,
			"0.022": 0.0,
			"0.023": 0.0,
			"0.024": 0.0,
			"0.025": 0.0
		}
	}
}
