{
	 "smiles": "CC1=CN(N=C1)C1=C(N)C=C(C=C1)C(N)=O", 
	 "Tm": 438.15, 
	 "num_atms": 28, 
	 "gaussian": { 
		 "optdone": 1, 
		 "sigma_profile": "yes", 
		 "theory": "DFT", 
		 "functional": "B3LYP", 
		 "basiset": "6-31G**", 
		 "properties": { 
			 "R2extent": 5119.8362, 
			 "electric_dipole_moment_norm": 2.20204963841, 
			 "electric_quadrupole_moment_norm": 21.7011741095, 
			 "total_energy": -720.637393157, 
			 "HOMO_LUMO_gap": 0.17143, 
			 "cosmo_polarized_energy": -19.19, 
			 "cosmo_cavitation_energy": 32.26, 
			 "cosmo_dispersion_energy": -23.66, 
			 "cosmo_repulsion_energy": 1.85, 
			 "cosmo_total_nonelectrostatic_energy": 10.45, 
			 "SMD_solvation_energy": 6.03 
		},
		"coords": [
			{
				"x": 1.1786614654,
				"y": -2.78362775,
				"z": -4.4534869794,
				"element": "C" 
			},
			{
				"x": 1.1665860366,
				"y": -1.694404284,
				"z": -3.4221174049,
				"element": "C" 
			},
			{
				"x": 0.9219081277,
				"y": -1.809445978,
				"z": -2.068586331,
				"element": "C" 
			},
			{
				"x": 1.0073938344,
				"y": -0.5504958307,
				"z": -1.5261263012,
				"element": "N" 
			},
			{
				"x": 1.3164819866,
				"y": 0.3791521388,
				"z": -2.4683964527,
				"element": "N" 
			},
			{
				"x": 1.4045157753,
				"y": -0.3068829005,
				"z": -3.6028443621,
				"element": "C" 
			},
			{
				"x": 0.9486441257,
				"y": -0.1751667507,
				"z": -0.155806754,
				"element": "C" 
			},
			{
				"x": -0.0253610348,
				"y": -0.727932142,
				"z": 0.7077097496,
				"element": "C" 
			},
			{
				"x": -0.9482421777,
				"y": -1.6792728507,
				"z": 0.2631162227,
				"element": "N" 
			},
			{
				"x": -0.0147486079,
				"y": -0.3243497331,
				"z": 2.0486965441,
				"element": "C" 
			},
			{
				"x": 0.8957665174,
				"y": 0.6183000867,
				"z": 2.5271404715,
				"element": "C" 
			},
			{
				"x": 1.8414101809,
				"y": 1.1711692355,
				"z": 1.6514964572,
				"element": "C" 
			},
			{
				"x": 1.8627525091,
				"y": 0.7672053292,
				"z": 0.3214349226,
				"element": "C" 
			},
			{
				"x": 0.7929437909,
				"y": 0.9821704349,
				"z": 3.9811320946,
				"element": "C" 
			},
			{
				"x": 1.4484015723,
				"y": 2.1264888656,
				"z": 4.3693988264,
				"element": "N" 
			},
			{
				"x": 0.1751144816,
				"y": 0.2913207781,
				"z": 4.7833569387,
				"element": "O" 
			},
			{
				"x": 0.3989663382,
				"y": -2.6347822603,
				"z": -5.2096391936,
				"element": "H" 
			},
			{
				"x": 2.1371853748,
				"y": -2.8257664335,
				"z": -4.9827822141,
				"element": "H" 
			},
			{
				"x": 1.0113646502,
				"y": -3.7627092509,
				"z": -3.9957983139,
				"element": "H" 
			},
			{
				"x": 0.7171983935,
				"y": -2.671324598,
				"z": -1.4512702747,
				"element": "H" 
			},
			{
				"x": 1.6303549617,
				"y": 0.2165133922,
				"z": -4.5236176936,
				"element": "H" 
			},
			{
				"x": -1.2345492777,
				"y": -1.5723972782,
				"z": -0.7023230795,
				"element": "H" 
			},
			{
				"x": -1.7441788694,
				"y": -1.7868640526,
				"z": 0.8780381803,
				"element": "H" 
			},
			{
				"x": -0.7363652764,
				"y": -0.7358001089,
				"z": 2.7480506393,
				"element": "H" 
			},
			{
				"x": 2.5904471513,
				"y": 1.8723536714,
				"z": 2.0041952386,
				"element": "H" 
			},
			{
				"x": 2.5873828173,
				"y": 1.1703885053,
				"z": -0.3760431388,
				"element": "H" 
			},
			{
				"x": 1.2698896609,
				"y": 2.4249440016,
				"z": 5.3173357434,
				"element": "H" 
			},
			{
				"x": 1.6639754918,
				"y": 2.8448157628,
				"z": 3.6962364645,
				"element": "H" 
			}
		],
		 "valence_orbital": [ 
			{
				"type": "occ",
				"energy": -0.26963,
				"method": "rhf"
			},
			{
				"type": "occ",
				"energy": -0.24964,
				"method": "rhf"
			},
			{
				"type": "occ",
				"energy": -0.24523,
				"method": "rhf"
			},
			{
				"type": "occ",
				"energy": -0.2335,
				"method": "rhf"
			},
			{
				"type": "occ",
				"energy": -0.21067,
				"method": "rhf"
			},
			{
				"type": "unocc",
				"energy": -0.03924,
				"method": "rhf"
			},
			{
				"type": "unocc",
				"energy": 0.00032,
				"method": "rhf"
			},
			{
				"type": "unocc",
				"energy": 0.01842,
				"method": "rhf"
			},
			{
				"type": "unocc",
				"energy": 0.06039,
				"method": "rhf"
			},
			{
				"type": "unocc",
				"energy": 0.0673,
				"method": "rhf"
			}
		],
		"cosmo_sigma_profile": { 
			"-0.025": 0.0,
			"-0.024": 0.0,
			"-0.023": 0.0,
			"-0.022": 0.0,
			"-0.021": 0.0,
			"-0.02": 0.0,
			"-0.019": 0.0,
			"-0.018": 0.0,
			"-0.017": 0.0,
			"-0.016": 0.0,
			"-0.015": 0.0316243911885,
			"-0.014": 1.20979924775,
			"-0.013": 3.4941348827,
			"-0.012": 4.1972551387,
			"-0.011": 5.75147571955,
			"-0.01": 5.59812896673,
			"-0.009": 4.97602387076,
			"-0.008": 4.45433237194,
			"-0.007": 7.47810779041,
			"-0.006": 8.9381116819,
			"-0.005": 11.2890987721,
			"-0.004": 14.4901233581,
			"-0.003": 13.7358434438,
			"-0.002": 17.6189716012,
			"-0.001": 16.8317824939,
			"0.0": 19.4045867217,
			"0.001": 16.7499065996,
			"0.002": 14.544886135,
			"0.003": 15.9942205408,
			"0.004": 20.5048746877,
			"0.005": 9.71214460247,
			"0.006": 5.42445759291,
			"0.007": 4.59863846038,
			"0.008": 4.71227588313,
			"0.009": 3.87975731833,
			"0.01": 3.22214747185,
			"0.011": 3.04451661688,
			"0.012": 3.27559027925,
			"0.013": 5.50692592097,
			"0.014": 5.12664147829,
			"0.015": 0.889631188856,
			"0.016": 0.0263910822492,
			"0.017": 0.0,
			"0.018": 0.0,
			"0.019": 0.0,
			"0.02": 0.0,
			"0.021": 0.0,
			"0.022": 0.0,
			"0.023": 0.0,
			"0.024": 0.0,
			"0.025": 0.0
		}
	}
}
