{
	 "smiles": "CC(C)(C)OC(=O)N1CCC2=C(C1)C=C(O)C=C2", 
	 "Tm": 408.15, 
	 "num_atms": 37, 
	 "gaussian": { 
		 "optdone": 1, 
		 "sigma_profile": "yes", 
		 "theory": "DFT", 
		 "functional": "B3LYP", 
		 "basiset": "6-31G**", 
		 "properties": { 
			 "R2extent": 6829.5808, 
			 "electric_dipole_moment_norm": 3.27379083022, 
			 "electric_quadrupole_moment_norm": 16.1293410947, 
			 "total_energy": -825.40528987, 
			 "HOMO_LUMO_gap": 0.21005, 
			 "cosmo_polarized_energy": -13.27, 
			 "cosmo_cavitation_energy": 38.22, 
			 "cosmo_dispersion_energy": -27.08, 
			 "cosmo_repulsion_energy": 2.09, 
			 "cosmo_total_nonelectrostatic_energy": 13.24, 
			 "SMD_solvation_energy": 6.85 
		},
		"coords": [
			{
				"x": -2.6022604195,
				"y": -0.2219937954,
				"z": 3.5758598137,
				"element": "C" 
			},
			{
				"x": -1.7340531337,
				"y": 0.9701036958,
				"z": 3.1585267122,
				"element": "C" 
			},
			{
				"x": -2.5863970951,
				"y": 2.2333926112,
				"z": 3.0074523542,
				"element": "C" 
			},
			{
				"x": -0.5739402631,
				"y": 1.212811856,
				"z": 4.1301677617,
				"element": "C" 
			},
			{
				"x": -1.2204177067,
				"y": 0.7688114282,
				"z": 1.7955281564,
				"element": "O" 
			},
			{
				"x": -0.3948824442,
				"y": -0.270101052,
				"z": 1.5109929458,
				"element": "C" 
			},
			{
				"x": -0.0232205574,
				"y": -1.1174214314,
				"z": 2.312672002,
				"element": "O" 
			},
			{
				"x": -0.0167526502,
				"y": -0.2564519543,
				"z": 0.1935787513,
				"element": "N" 
			},
			{
				"x": -0.4531444802,
				"y": 0.7185995291,
				"z": -0.800555449,
				"element": "C" 
			},
			{
				"x": -1.3057076377,
				"y": 0.020717463,
				"z": -1.8648411925,
				"element": "C" 
			},
			{
				"x": -0.6122571943,
				"y": -1.2160158382,
				"z": -2.4015997676,
				"element": "C" 
			},
			{
				"x": 0.3896674783,
				"y": -1.8579493238,
				"z": -1.6527217308,
				"element": "C" 
			},
			{
				"x": 0.8384563213,
				"y": -1.3266537099,
				"z": -0.3013770043,
				"element": "C" 
			},
			{
				"x": 1.021816078,
				"y": -2.9974210021,
				"z": -2.1579418453,
				"element": "C" 
			},
			{
				"x": 0.6639288014,
				"y": -3.516878054,
				"z": -3.4021547832,
				"element": "C" 
			},
			{
				"x": 1.3205357279,
				"y": -4.6368109596,
				"z": -3.8323175541,
				"element": "O" 
			},
			{
				"x": -0.3342491693,
				"y": -2.8878174247,
				"z": -4.1550422722,
				"element": "C" 
			},
			{
				"x": -0.9560010639,
				"y": -1.749636251,
				"z": -3.6493466515,
				"element": "C" 
			},
			{
				"x": -3.0745699002,
				"y": -0.0127280246,
				"z": 4.5413405366,
				"element": "H" 
			},
			{
				"x": -2.0029348385,
				"y": -1.1281457479,
				"z": 3.6632758116,
				"element": "H" 
			},
			{
				"x": -3.3950073194,
				"y": -0.3896928276,
				"z": 2.8396758427,
				"element": "H" 
			},
			{
				"x": -3.3875350986,
				"y": 2.0743456481,
				"z": 2.2795547818,
				"element": "H" 
			},
			{
				"x": -3.0390772747,
				"y": 2.4986386376,
				"z": 3.9675060531,
				"element": "H" 
			},
			{
				"x": -1.974346991,
				"y": 3.0748973193,
				"z": 2.6694299944,
				"element": "H" 
			},
			{
				"x": 0.0465656494,
				"y": 2.0440021528,
				"z": 3.7799548771,
				"element": "H" 
			},
			{
				"x": 0.0474184907,
				"y": 0.322396362,
				"z": 4.2252592706,
				"element": "H" 
			},
			{
				"x": -0.9700462678,
				"y": 1.4771523021,
				"z": 5.1161483144,
				"element": "H" 
			},
			{
				"x": -1.0057975374,
				"y": 1.5117675143,
				"z": -0.3024462509,
				"element": "H" 
			},
			{
				"x": 0.4367571172,
				"y": 1.1642337892,
				"z": -1.2681904617,
				"element": "H" 
			},
			{
				"x": -2.2712801812,
				"y": -0.2496299716,
				"z": -1.4153832244,
				"element": "H" 
			},
			{
				"x": -1.5239762918,
				"y": 0.7182669856,
				"z": -2.6828383429,
				"element": "H" 
			},
			{
				"x": 0.8381976736,
				"y": -2.1195728824,
				"z": 0.4487996042,
				"element": "H" 
			},
			{
				"x": 1.8772288783,
				"y": -0.9671856505,
				"z": -0.3842273351,
				"element": "H" 
			},
			{
				"x": 1.7987571063,
				"y": -3.5001833862,
				"z": -1.5887690404,
				"element": "H" 
			},
			{
				"x": 0.9714431474,
				"y": -4.8944629969,
				"z": -4.6951619022,
				"element": "H" 
			},
			{
				"x": -0.6172635075,
				"y": -3.2821868562,
				"z": -5.1288554892,
				"element": "H" 
			},
			{
				"x": -1.7268534463,
				"y": -1.2606981539,
				"z": -4.2406532865,
				"element": "H" 
			}
		],
		 "valence_orbital": [ 
			{
				"type": "occ",
				"energy": -0.28283,
				"method": "rhf"
			},
			{
				"type": "occ",
				"energy": -0.25625,
				"method": "rhf"
			},
			{
				"type": "occ",
				"energy": -0.24592,
				"method": "rhf"
			},
			{
				"type": "occ",
				"energy": -0.23069,
				"method": "rhf"
			},
			{
				"type": "occ",
				"energy": -0.21469,
				"method": "rhf"
			},
			{
				"type": "unocc",
				"energy": -0.00464,
				"method": "rhf"
			},
			{
				"type": "unocc",
				"energy": 0.01513,
				"method": "rhf"
			},
			{
				"type": "unocc",
				"energy": 0.05999,
				"method": "rhf"
			},
			{
				"type": "unocc",
				"energy": 0.07169,
				"method": "rhf"
			},
			{
				"type": "unocc",
				"energy": 0.08584,
				"method": "rhf"
			}
		],
		"cosmo_sigma_profile": { 
			"-0.025": 0.0,
			"-0.024": 0.0,
			"-0.023": 0.0,
			"-0.022": 0.0,
			"-0.021": 0.0,
			"-0.02": 0.0,
			"-0.019": 0.0,
			"-0.018": 0.16530612461,
			"-0.017": 1.39637255988,
			"-0.016": 0.54840253896,
			"-0.015": 1.29474720124,
			"-0.014": 1.38413725156,
			"-0.013": 0.520180245055,
			"-0.012": 0.425108771478,
			"-0.011": 1.00600575113,
			"-0.01": 1.3257470076,
			"-0.009": 1.41562793327,
			"-0.008": 0.967085176052,
			"-0.007": 1.19893982494,
			"-0.006": 3.09580087156,
			"-0.005": 10.1594566282,
			"-0.004": 29.9875721323,
			"-0.003": 33.6099927062,
			"-0.002": 30.4173516616,
			"-0.001": 29.4272054794,
			"0.0": 31.371791812,
			"0.001": 31.2907800421,
			"0.002": 14.3067590663,
			"0.003": 11.2978008697,
			"0.004": 14.7794113738,
			"0.005": 14.5438189799,
			"0.006": 10.779500527,
			"0.007": 2.9945681448,
			"0.008": 2.95908683603,
			"0.009": 3.27810787429,
			"0.01": 2.82109005596,
			"0.011": 3.52230541431,
			"0.012": 3.17448590719,
			"0.013": 2.55192108547,
			"0.014": 1.27100718718,
			"0.015": 0.0,
			"0.016": 0.0,
			"0.017": 0.0,
			"0.018": 0.0,
			"0.019": 0.0,
			"0.02": 0.0,
			"0.021": 0.0,
			"0.022": 0.0,
			"0.023": 0.0,
			"0.024": 0.0,
			"0.025": 0.0
		}
	}
}
