{
	 "smiles": "COC1=C(C=C(F)C=C1)C(=O)CBr", 
	 "Tm": 348.15, 
	 "num_atms": 21, 
	 "gaussian": { 
		 "optdone": 1, 
		 "sigma_profile": "yes", 
		 "theory": "DFT", 
		 "functional": "B3LYP", 
		 "basiset": "6-31G**", 
		 "properties": { 
			 "R2extent": 3551.887, 
			 "electric_dipole_moment_norm": 4.96571780713, 
			 "electric_quadrupole_moment_norm": 6.08156391399, 
			 "total_energy": -3169.44580924, 
			 "HOMO_LUMO_gap": 0.16094, 
			 "cosmo_polarized_energy": -9.8, 
			 "cosmo_cavitation_energy": 27.89, 
			 "cosmo_dispersion_energy": -20.05, 
			 "cosmo_repulsion_energy": 1.56, 
			 "cosmo_total_nonelectrostatic_energy": 9.4, 
			 "SMD_solvation_energy": 5.58 
		},
		"coords": [
			{
				"x": -1.9525125576,
				"y": 0.2068376752,
				"z": 2.006527221,
				"element": "C" 
			},
			{
				"x": -1.4503026403,
				"y": 0.3606718042,
				"z": 0.6850280454,
				"element": "O" 
			},
			{
				"x": -0.8424086093,
				"y": -0.695360448,
				"z": 0.0782517229,
				"element": "C" 
			},
			{
				"x": -0.2258611559,
				"y": -0.4685693075,
				"z": -1.1775510744,
				"element": "C" 
			},
			{
				"x": 0.3576064735,
				"y": -1.5555477485,
				"z": -1.8474384009,
				"element": "C" 
			},
			{
				"x": 0.3558664003,
				"y": -2.8149393861,
				"z": -1.2771044455,
				"element": "C" 
			},
			{
				"x": 0.9345916943,
				"y": -3.8434829731,
				"z": -1.9320327047,
				"element": "F" 
			},
			{
				"x": -0.2290555356,
				"y": -3.0438377993,
				"z": -0.0375699989,
				"element": "C" 
			},
			{
				"x": -0.8309886683,
				"y": -1.9825368848,
				"z": 0.6349826839,
				"element": "C" 
			},
			{
				"x": -0.1444451782,
				"y": 0.8441568651,
				"z": -1.8992739119,
				"element": "C" 
			},
			{
				"x": 0.1810882999,
				"y": 0.8777925197,
				"z": -3.0766887838,
				"element": "O" 
			},
			{
				"x": -0.4355588591,
				"y": 2.169452547,
				"z": -1.2098763376,
				"element": "C" 
			},
			{
				"x": 0.9702604246,
				"y": 2.5734456868,
				"z": 0.1263720577,
				"element": "Br" 
			},
			{
				"x": -2.7841342678,
				"y": -0.5074904967,
				"z": 2.0404242171,
				"element": "H" 
			},
			{
				"x": -1.1645905784,
				"y": -0.1143930668,
				"z": 2.6975076023,
				"element": "H" 
			},
			{
				"x": -2.3125524451,
				"y": 1.1923158749,
				"z": 2.3034944841,
				"element": "H" 
			},
			{
				"x": 0.8147731713,
				"y": -1.3853830224,
				"z": -2.8150082582,
				"element": "H" 
			},
			{
				"x": -0.2149117029,
				"y": -4.0407245939,
				"z": 0.3898508393,
				"element": "H" 
			},
			{
				"x": -1.2967155392,
				"y": -2.1683598475,
				"z": 1.594345465,
				"element": "H" 
			},
			{
				"x": -1.3726019419,
				"y": 2.1737411334,
				"z": -0.6610375989,
				"element": "H" 
			},
			{
				"x": -0.3818467843,
				"y": 2.9594114683,
				"z": -1.9546028241,
				"element": "H" 
			}
		],
		 "valence_orbital": [ 
			{
				"type": "occ",
				"energy": -0.28829,
				"method": "rhf"
			},
			{
				"type": "occ",
				"energy": -0.27742,
				"method": "rhf"
			},
			{
				"type": "occ",
				"energy": -0.27184,
				"method": "rhf"
			},
			{
				"type": "occ",
				"energy": -0.25705,
				"method": "rhf"
			},
			{
				"type": "occ",
				"energy": -0.23372,
				"method": "rhf"
			},
			{
				"type": "unocc",
				"energy": -0.07278,
				"method": "rhf"
			},
			{
				"type": "unocc",
				"energy": -0.01435,
				"method": "rhf"
			},
			{
				"type": "unocc",
				"energy": -0.00053,
				"method": "rhf"
			},
			{
				"type": "unocc",
				"energy": 0.04922,
				"method": "rhf"
			},
			{
				"type": "unocc",
				"energy": 0.07607,
				"method": "rhf"
			}
		],
		"cosmo_sigma_profile": { 
			"-0.025": 0.0,
			"-0.024": 0.0,
			"-0.023": 0.0,
			"-0.022": 0.0,
			"-0.021": 0.0,
			"-0.02": 0.0,
			"-0.019": 0.0,
			"-0.018": 0.0,
			"-0.017": 0.0,
			"-0.016": 0.0,
			"-0.015": 0.0,
			"-0.014": 0.0,
			"-0.013": 0.0,
			"-0.012": 0.0,
			"-0.011": 0.0,
			"-0.01": 0.0,
			"-0.009": 0.0884307749376,
			"-0.008": 3.66602782835,
			"-0.007": 9.84797421822,
			"-0.006": 16.2365689448,
			"-0.005": 16.3903649434,
			"-0.004": 16.2502743299,
			"-0.003": 13.5822428901,
			"-0.002": 10.0415269016,
			"-0.001": 11.7824182717,
			"0.0": 17.3353096768,
			"0.001": 23.2505576366,
			"0.002": 20.4058482879,
			"0.003": 14.0292721336,
			"0.004": 20.693647721,
			"0.005": 15.7111662858,
			"0.006": 4.3136638498,
			"0.007": 1.73837718659,
			"0.008": 1.29901935709,
			"0.009": 2.14725723321,
			"0.01": 2.80449132183,
			"0.011": 3.5817495098,
			"0.012": 1.12577591998,
			"0.013": 0.0242830890944,
			"0.014": 0.0,
			"0.015": 0.0,
			"0.016": 0.0,
			"0.017": 0.0,
			"0.018": 0.0,
			"0.019": 0.0,
			"0.02": 0.0,
			"0.021": 0.0,
			"0.022": 0.0,
			"0.023": 0.0,
			"0.024": 0.0,
			"0.025": 0.0
		}
	}
}
