{
	 "smiles": "OC(=O)CCN1N=CC(=O)C2=C1C=CC=C2", 
	 "Tm": 404.15, 
	 "num_atms": 26, 
	 "gaussian": { 
		 "optdone": 1, 
		 "sigma_profile": "yes", 
		 "theory": "DFT", 
		 "functional": "B3LYP", 
		 "basiset": "6-31G**", 
		 "properties": { 
			 "R2extent": 4097.1605, 
			 "electric_dipole_moment_norm": 5.5799689802, 
			 "electric_quadrupole_moment_norm": 18.3425594708, 
			 "total_energy": -760.363188825, 
			 "HOMO_LUMO_gap": 0.16046, 
			 "cosmo_polarized_energy": -20.38, 
			 "cosmo_cavitation_energy": 30.66, 
			 "cosmo_dispersion_energy": -21.87, 
			 "cosmo_repulsion_energy": 1.7, 
			 "cosmo_total_nonelectrostatic_energy": 10.5, 
			 "SMD_solvation_energy": 6.1 
		},
		"coords": [
			{
				"x": -0.157990803,
				"y": -3.469798366,
				"z": 0.9375054395,
				"element": "O" 
			},
			{
				"x": 0.9004444492,
				"y": -2.6341722979,
				"z": 1.027726974,
				"element": "C" 
			},
			{
				"x": 2.0445222371,
				"y": -2.9942876965,
				"z": 0.8688583378,
				"element": "O" 
			},
			{
				"x": 0.4775688646,
				"y": -1.2215578346,
				"z": 1.3921478053,
				"element": "C" 
			},
			{
				"x": 1.2861900533,
				"y": -0.1615775472,
				"z": 0.6275773612,
				"element": "C" 
			},
			{
				"x": 0.8325649529,
				"y": 0.0319861485,
				"z": -0.7530170612,
				"element": "N" 
			},
			{
				"x": 1.5792585506,
				"y": -0.6081498247,
				"z": -1.6720476817,
				"element": "N" 
			},
			{
				"x": 1.2528867937,
				"y": -0.5380924247,
				"z": -2.9292889034,
				"element": "C" 
			},
			{
				"x": 0.1074746477,
				"y": 0.1948397961,
				"z": -3.4710013946,
				"element": "C" 
			},
			{
				"x": -0.1579718149,
				"y": 0.2261787803,
				"z": -4.6739537307,
				"element": "O" 
			},
			{
				"x": -0.6788875418,
				"y": 0.8826076064,
				"z": -2.4349348926,
				"element": "C" 
			},
			{
				"x": -0.2942685512,
				"y": 0.7808312811,
				"z": -1.0766705554,
				"element": "C" 
			},
			{
				"x": -1.0622892636,
				"y": 1.446971372,
				"z": -0.0939016324,
				"element": "C" 
			},
			{
				"x": -2.1701375814,
				"y": 2.1891037771,
				"z": -0.4719953214,
				"element": "C" 
			},
			{
				"x": -2.5527002985,
				"y": 2.292634798,
				"z": -1.8208013978,
				"element": "C" 
			},
			{
				"x": -1.8074423547,
				"y": 1.6412607308,
				"z": -2.7875658755,
				"element": "C" 
			},
			{
				"x": 0.2040264225,
				"y": -4.3488930831,
				"z": 0.7316746314,
				"element": "H" 
			},
			{
				"x": 0.676731131,
				"y": -1.1060981591,
				"z": 2.4652506236,
				"element": "H" 
			},
			{
				"x": -0.5976296396,
				"y": -1.0996470117,
				"z": 1.2458829057,
				"element": "H" 
			},
			{
				"x": 1.2491949512,
				"y": 0.7979401464,
				"z": 1.1494879645,
				"element": "H" 
			},
			{
				"x": 2.3266036163,
				"y": -0.4801286305,
				"z": 0.5615025027,
				"element": "H" 
			},
			{
				"x": 1.899521677,
				"y": -1.0725159826,
				"z": -3.6196147851,
				"element": "H" 
			},
			{
				"x": -0.7970403054,
				"y": 1.3859490363,
				"z": 0.9542957442,
				"element": "H" 
			},
			{
				"x": -2.7493107522,
				"y": 2.6966899415,
				"z": 0.2940213768,
				"element": "H" 
			},
			{
				"x": -3.4244141491,
				"y": 2.8779059178,
				"z": -2.0956616062,
				"element": "H" 
			},
			{
				"x": -2.0597052915,
				"y": 1.6893195265,
				"z": -3.8419768286,
				"element": "H" 
			}
		],
		 "valence_orbital": [ 
			{
				"type": "occ",
				"energy": -0.29281,
				"method": "rhf"
			},
			{
				"type": "occ",
				"energy": -0.2866,
				"method": "rhf"
			},
			{
				"type": "occ",
				"energy": -0.26729,
				"method": "rhf"
			},
			{
				"type": "occ",
				"energy": -0.23336,
				"method": "rhf"
			},
			{
				"type": "occ",
				"energy": -0.22415,
				"method": "rhf"
			},
			{
				"type": "unocc",
				"energy": -0.06369,
				"method": "rhf"
			},
			{
				"type": "unocc",
				"energy": -0.02971,
				"method": "rhf"
			},
			{
				"type": "unocc",
				"energy": -0.00514,
				"method": "rhf"
			},
			{
				"type": "unocc",
				"energy": 0.0036,
				"method": "rhf"
			},
			{
				"type": "unocc",
				"energy": 0.07009,
				"method": "rhf"
			}
		],
		"cosmo_sigma_profile": { 
			"-0.025": 0.0,
			"-0.024": 0.0,
			"-0.023": 0.0,
			"-0.022": 0.0,
			"-0.021": 0.0,
			"-0.02": 0.0,
			"-0.019": 0.178202232719,
			"-0.018": 0.81479723219,
			"-0.017": 0.8680486992,
			"-0.016": 0.772638164938,
			"-0.015": 1.00032801466,
			"-0.014": 0.72898904337,
			"-0.013": 0.210395002177,
			"-0.012": 0.905494583276,
			"-0.011": 1.17492591277,
			"-0.01": 0.855021411357,
			"-0.009": 2.48762844395,
			"-0.008": 7.13867943299,
			"-0.007": 13.306302494,
			"-0.006": 16.3045251098,
			"-0.005": 18.2861566407,
			"-0.004": 16.9256661006,
			"-0.003": 14.5078983198,
			"-0.002": 14.1163829565,
			"-0.001": 14.641750505,
			"0.0": 14.3254437545,
			"0.001": 13.6617978763,
			"0.002": 17.0053513841,
			"0.003": 14.801201115,
			"0.004": 7.37025608834,
			"0.005": 5.26022210304,
			"0.006": 4.70853752388,
			"0.007": 4.30478381613,
			"0.008": 5.72238033608,
			"0.009": 6.03806418275,
			"0.01": 5.31959225982,
			"0.011": 6.83058487754,
			"0.012": 5.64153714326,
			"0.013": 4.67576574775,
			"0.014": 3.45777321293,
			"0.015": 0.632757730592,
			"0.016": 0.0,
			"0.017": 0.0,
			"0.018": 0.0,
			"0.019": 0.0,
			"0.02": 0.0,
			"0.021": 0.0,
			"0.022": 0.0,
			"0.023": 0.0,
			"0.024": 0.0,
			"0.025": 0.0
		}
	}
}
