{
	 "smiles": "CCCC1=CC(O)=NC(S)=N1", 
	 "Tm": 493.15, 
	 "num_atms": 21, 
	 "gaussian": { 
		 "optdone": 1, 
		 "sigma_profile": "yes", 
		 "theory": "DFT", 
		 "functional": "B3LYP", 
		 "basiset": "6-31G**", 
		 "properties": { 
			 "R2extent": 2653.71, 
			 "electric_dipole_moment_norm": 4.52464277816, 
			 "electric_quadrupole_moment_norm": 15.1825510314, 
			 "total_energy": -855.69807838, 
			 "HOMO_LUMO_gap": 0.20524, 
			 "cosmo_polarized_energy": -14.63, 
			 "cosmo_cavitation_energy": 26.53, 
			 "cosmo_dispersion_energy": -19.62, 
			 "cosmo_repulsion_energy": 1.57, 
			 "cosmo_total_nonelectrostatic_energy": 8.48, 
			 "SMD_solvation_energy": 1.83 
		},
		"coords": [
			{
				"x": 0.2933950552,
				"y": -0.5332002292,
				"z": 2.6247913971,
				"element": "C" 
			},
			{
				"x": 0.7170300469,
				"y": 0.79378459,
				"z": 1.9884709458,
				"element": "C" 
			},
			{
				"x": 1.344560412,
				"y": 0.6519061175,
				"z": 0.581349953,
				"element": "C" 
			},
			{
				"x": 0.3713685327,
				"y": 0.1640444852,
				"z": -0.4638905195,
				"element": "C" 
			},
			{
				"x": -0.4539099376,
				"y": 1.048285364,
				"z": -1.1577357597,
				"element": "C" 
			},
			{
				"x": -1.3420112759,
				"y": 0.4883205483,
				"z": -2.0877069324,
				"element": "C" 
			},
			{
				"x": -2.1920364423,
				"y": 1.2315562731,
				"z": -2.8260948959,
				"element": "O" 
			},
			{
				"x": -1.4087354724,
				"y": -0.819710792,
				"z": -2.312842849,
				"element": "N" 
			},
			{
				"x": -0.5731381214,
				"y": -1.5713093113,
				"z": -1.5926745433,
				"element": "C" 
			},
			{
				"x": -0.6934105171,
				"y": -3.3153277443,
				"z": -1.924506132,
				"element": "S" 
			},
			{
				"x": 0.3156802274,
				"y": -1.1647087134,
				"z": -0.681319786,
				"element": "N" 
			},
			{
				"x": -0.1315725434,
				"y": -0.367165296,
				"z": 3.6200518227,
				"element": "H" 
			},
			{
				"x": -0.4551048255,
				"y": -1.0518233945,
				"z": 2.0192184394,
				"element": "H" 
			},
			{
				"x": 1.1495426073,
				"y": -1.2078630862,
				"z": 2.7329755813,
				"element": "H" 
			},
			{
				"x": -0.145227232,
				"y": 1.470588805,
				"z": 1.9284125692,
				"element": "H" 
			},
			{
				"x": 1.4521657564,
				"y": 1.2905399478,
				"z": 2.6335446535,
				"element": "H" 
			},
			{
				"x": 1.7431488038,
				"y": 1.6250776054,
				"z": 0.2717258433,
				"element": "H" 
			},
			{
				"x": 2.1803464954,
				"y": -0.0537965798,
				"z": 0.6237576967,
				"element": "H" 
			},
			{
				"x": -0.4028844568,
				"y": 2.1192305864,
				"z": -0.9857868382,
				"element": "H" 
			},
			{
				"x": -2.077819989,
				"y": 2.1648382955,
				"z": -2.6012385446,
				"element": "H" 
			},
			{
				"x": 0.263112876,
				"y": -3.6610674715,
				"z": -1.0419021014,
				"element": "H" 
			}
		],
		 "valence_orbital": [ 
			{
				"type": "occ",
				"energy": -0.30421,
				"method": "rhf"
			},
			{
				"type": "occ",
				"energy": -0.30156,
				"method": "rhf"
			},
			{
				"type": "occ",
				"energy": -0.27934,
				"method": "rhf"
			},
			{
				"type": "occ",
				"energy": -0.25973,
				"method": "rhf"
			},
			{
				"type": "occ",
				"energy": -0.23657,
				"method": "rhf"
			},
			{
				"type": "unocc",
				"energy": -0.03133,
				"method": "rhf"
			},
			{
				"type": "unocc",
				"energy": -0.0176,
				"method": "rhf"
			},
			{
				"type": "unocc",
				"energy": 0.02644,
				"method": "rhf"
			},
			{
				"type": "unocc",
				"energy": 0.05471,
				"method": "rhf"
			},
			{
				"type": "unocc",
				"energy": 0.08953,
				"method": "rhf"
			}
		],
		"cosmo_sigma_profile": { 
			"-0.025": 0.0,
			"-0.024": 0.0,
			"-0.023": 0.0,
			"-0.022": 0.0,
			"-0.021": 0.0,
			"-0.02": 0.214755507287,
			"-0.019": 1.05958055865,
			"-0.018": 0.844196560423,
			"-0.017": 1.28450803964,
			"-0.016": 0.922324833387,
			"-0.015": 1.19475949451,
			"-0.014": 0.643559404601,
			"-0.013": 0.943423232342,
			"-0.012": 1.37496813957,
			"-0.011": 1.91056570693,
			"-0.01": 2.47464801347,
			"-0.009": 2.1094515149,
			"-0.008": 2.82826717435,
			"-0.007": 3.47251272542,
			"-0.006": 4.20452166638,
			"-0.005": 4.72191111542,
			"-0.004": 6.71963784569,
			"-0.003": 14.1728055772,
			"-0.002": 21.3475193827,
			"-0.001": 27.3312688139,
			"0.0": 23.3460644295,
			"0.001": 17.4990218714,
			"0.002": 11.8800066033,
			"0.003": 10.4977894197,
			"0.004": 8.04470062036,
			"0.005": 7.96136854764,
			"0.006": 6.62903338265,
			"0.007": 6.6848168264,
			"0.008": 4.37039488596,
			"0.009": 3.92234273591,
			"0.01": 3.28429214547,
			"0.011": 3.70733296808,
			"0.012": 2.28206314839,
			"0.013": 1.21953550452,
			"0.014": 0.691086343445,
			"0.015": 0.148225964625,
			"0.016": 0.0,
			"0.017": 0.0,
			"0.018": 0.0,
			"0.019": 0.0,
			"0.02": 0.0,
			"0.021": 0.0,
			"0.022": 0.0,
			"0.023": 0.0,
			"0.024": 0.0,
			"0.025": 0.0
		}
	}
}
