{
	 "smiles": "ClS(=O)(=O)C1=CC(=CC=C1)C1=NN=CO1", 
	 "Tm": 361.15, 
	 "num_atms": 20, 
	 "gaussian": { 
		 "optdone": 1, 
		 "sigma_profile": "yes", 
		 "theory": "DFT", 
		 "functional": "B3LYP", 
		 "basiset": "6-31G**", 
		 "properties": { 
			 "R2extent": 5693.6612, 
			 "electric_dipole_moment_norm": 7.19883567391, 
			 "electric_quadrupole_moment_norm": 10.9211520409, 
			 "total_energy": -1501.31165691, 
			 "HOMO_LUMO_gap": 0.17701, 
			 "cosmo_polarized_energy": -16.01, 
			 "cosmo_cavitation_energy": 29.43, 
			 "cosmo_dispersion_energy": -21.98, 
			 "cosmo_repulsion_energy": 1.65, 
			 "cosmo_total_nonelectrostatic_energy": 9.1, 
			 "SMD_solvation_energy": 3.02 
		},
		"coords": [
			{
				"x": 3.2121315756,
				"y": -2.4510457959,
				"z": 2.4338660031,
				"element": "Cl" 
			},
			{
				"x": 2.7800189172,
				"y": -2.8849599261,
				"z": 0.3929781328,
				"element": "S" 
			},
			{
				"x": 3.8943917222,
				"y": -2.3612023966,
				"z": -0.3842972414,
				"element": "O" 
			},
			{
				"x": 2.3839526833,
				"y": -4.2867236641,
				"z": 0.3491585995,
				"element": "O" 
			},
			{
				"x": 1.3337321472,
				"y": -1.8625600641,
				"z": 0.1234757416,
				"element": "C" 
			},
			{
				"x": 1.5133658854,
				"y": -0.5662526525,
				"z": -0.3445165363,
				"element": "C" 
			},
			{
				"x": 0.3747862514,
				"y": 0.2222214911,
				"z": -0.5680240263,
				"element": "C" 
			},
			{
				"x": -0.9015767964,
				"y": -0.3058493793,
				"z": -0.3199462667,
				"element": "C" 
			},
			{
				"x": -1.0476803083,
				"y": -1.6123144561,
				"z": 0.1452698117,
				"element": "C" 
			},
			{
				"x": 0.0728702501,
				"y": -2.4093303953,
				"z": 0.3737382916,
				"element": "C" 
			},
			{
				"x": 0.5489568647,
				"y": 1.5842253977,
				"z": -1.0622070672,
				"element": "C" 
			},
			{
				"x": 1.6573537875,
				"y": 2.2074097603,
				"z": -1.332461883,
				"element": "N" 
			},
			{
				"x": 1.3005786642,
				"y": 3.4813563377,
				"z": -1.7713664667,
				"element": "N" 
			},
			{
				"x": 0.0101669768,
				"y": 3.522498538,
				"z": -1.7297389522,
				"element": "C" 
			},
			{
				"x": -0.54991204,
				"y": 2.3635339434,
				"z": -1.292118318,
				"element": "O" 
			},
			{
				"x": 2.5025748451,
				"y": -0.1690879021,
				"z": -0.5419417556,
				"element": "H" 
			},
			{
				"x": -1.7769722628,
				"y": 0.3098358906,
				"z": -0.4954156852,
				"element": "H" 
			},
			{
				"x": -2.0395047575,
				"y": -2.0127153376,
				"z": 0.3275720927,
				"element": "H" 
			},
			{
				"x": -0.0197302858,
				"y": -3.4301329424,
				"z": 0.7263480815,
				"element": "H" 
			},
			{
				"x": -0.6478041201,
				"y": 4.3366935532,
				"z": -1.991272556,
				"element": "H" 
			}
		],
		 "valence_orbital": [ 
			{
				"type": "occ",
				"energy": -0.33181,
				"method": "rhf"
			},
			{
				"type": "occ",
				"energy": -0.31799,
				"method": "rhf"
			},
			{
				"type": "occ",
				"energy": -0.30195,
				"method": "rhf"
			},
			{
				"type": "occ",
				"energy": -0.29841,
				"method": "rhf"
			},
			{
				"type": "occ",
				"energy": -0.27399,
				"method": "rhf"
			},
			{
				"type": "unocc",
				"energy": -0.09698,
				"method": "rhf"
			},
			{
				"type": "unocc",
				"energy": -0.0801,
				"method": "rhf"
			},
			{
				"type": "unocc",
				"energy": -0.0529,
				"method": "rhf"
			},
			{
				"type": "unocc",
				"energy": -0.01262,
				"method": "rhf"
			},
			{
				"type": "unocc",
				"energy": 0.02208,
				"method": "rhf"
			}
		],
		"cosmo_sigma_profile": { 
			"-0.025": 0.0,
			"-0.024": 0.0,
			"-0.023": 0.0,
			"-0.022": 0.0,
			"-0.021": 0.0,
			"-0.02": 0.0,
			"-0.019": 0.0,
			"-0.018": 0.0,
			"-0.017": 0.0,
			"-0.016": 0.0,
			"-0.015": 0.0,
			"-0.014": 0.0,
			"-0.013": 1.26408330642,
			"-0.012": 2.13903084156,
			"-0.011": 1.67072420604,
			"-0.01": 1.74659933639,
			"-0.009": 3.23795874546,
			"-0.008": 8.10534676424,
			"-0.007": 8.76648901899,
			"-0.006": 10.6994951667,
			"-0.005": 10.3156136679,
			"-0.004": 17.1525010526,
			"-0.003": 15.3776907902,
			"-0.002": 18.783675777,
			"-0.001": 24.2576789896,
			"0.0": 18.1270023442,
			"0.001": 12.7358068475,
			"0.002": 13.3697570715,
			"0.003": 17.1568747018,
			"0.004": 9.46118951024,
			"0.005": 3.77366965548,
			"0.006": 5.33058525048,
			"0.007": 8.23661076528,
			"0.008": 12.4194426399,
			"0.009": 5.21680150247,
			"0.01": 3.28404220674,
			"0.011": 2.80992885692,
			"0.012": 2.56924746661,
			"0.013": 2.02613207578,
			"0.014": 1.16024727993,
			"0.015": 0.133003154017,
			"0.016": 0.0,
			"0.017": 0.0,
			"0.018": 0.0,
			"0.019": 0.0,
			"0.02": 0.0,
			"0.021": 0.0,
			"0.022": 0.0,
			"0.023": 0.0,
			"0.024": 0.0,
			"0.025": 0.0
		}
	}
}
