{
	 "smiles": "CS(=O)(=O)NC1=C(C=CC=C1)C#N", 
	 "Tm": 373.15, 
	 "num_atms": 21, 
	 "gaussian": { 
		 "optdone": 1, 
		 "sigma_profile": "yes", 
		 "theory": "DFT", 
		 "functional": "B3LYP", 
		 "basiset": "6-31G**", 
		 "properties": { 
			 "R2extent": 3495.3335, 
			 "electric_dipole_moment_norm": 5.35680570676, 
			 "electric_quadrupole_moment_norm": 16.8031886129, 
			 "total_energy": -967.729305308, 
			 "HOMO_LUMO_gap": 0.18974, 
			 "cosmo_polarized_energy": -17.52, 
			 "cosmo_cavitation_energy": 27.58, 
			 "cosmo_dispersion_energy": -19.72, 
			 "cosmo_repulsion_energy": 1.51, 
			 "cosmo_total_nonelectrostatic_energy": 9.37, 
			 "SMD_solvation_energy": 5.61 
		},
		"coords": [
			{
				"x": 3.3173269783,
				"y": 0.1990860555,
				"z": -1.8308515666,
				"element": "C" 
			},
			{
				"x": 3.0472047229,
				"y": 0.6586953233,
				"z": -0.1070360674,
				"element": "S" 
			},
			{
				"x": 2.3744500873,
				"y": 1.9557966911,
				"z": -0.0975688421,
				"element": "O" 
			},
			{
				"x": 4.2740324794,
				"y": 0.4140001307,
				"z": 0.6439062412,
				"element": "O" 
			},
			{
				"x": 1.9633986169,
				"y": -0.5094740576,
				"z": 0.4810315014,
				"element": "N" 
			},
			{
				"x": 0.6564994279,
				"y": -0.729939184,
				"z": 0.0090815375,
				"element": "C" 
			},
			{
				"x": 0.1706693742,
				"y": -2.0594992594,
				"z": -0.0774789635,
				"element": "C" 
			},
			{
				"x": -1.1480678592,
				"y": -2.3081076633,
				"z": -0.4934303771,
				"element": "C" 
			},
			{
				"x": -1.9792255678,
				"y": -1.2539327177,
				"z": -0.8503761968,
				"element": "C" 
			},
			{
				"x": -1.4947695572,
				"y": 0.0556760883,
				"z": -0.7754831428,
				"element": "C" 
			},
			{
				"x": -0.1992674569,
				"y": 0.3248556981,
				"z": -0.3403132389,
				"element": "C" 
			},
			{
				"x": 1.0391773597,
				"y": -3.1443910684,
				"z": 0.2609193395,
				"element": "C" 
			},
			{
				"x": 1.7866235449,
				"y": -3.9934694824,
				"z": 0.5380980271,
				"element": "N" 
			},
			{
				"x": 3.9754218009,
				"y": 0.9567732062,
				"z": -2.2598633291,
				"element": "H" 
			},
			{
				"x": 2.3578620801,
				"y": 0.1946256364,
				"z": -2.3502669776,
				"element": "H" 
			},
			{
				"x": 3.7909917745,
				"y": -0.7827094503,
				"z": -1.8639855458,
				"element": "H" 
			},
			{
				"x": 2.4645479477,
				"y": -1.3219301017,
				"z": 0.8303102028,
				"element": "H" 
			},
			{
				"x": -1.4973484531,
				"y": -3.3341524372,
				"z": -0.5389360818,
				"element": "H" 
			},
			{
				"x": -2.9950738274,
				"y": -1.4482718763,
				"z": -1.177481502,
				"element": "H" 
			},
			{
				"x": -2.1410272215,
				"y": 0.8867041713,
				"z": -1.0418561683,
				"element": "H" 
			},
			{
				"x": 0.1562737482,
				"y": 1.3437642973,
				"z": -0.2527188498,
				"element": "H" 
			}
		],
		 "valence_orbital": [ 
			{
				"type": "occ",
				"energy": -0.3325,
				"method": "rhf"
			},
			{
				"type": "occ",
				"energy": -0.32183,
				"method": "rhf"
			},
			{
				"type": "occ",
				"energy": -0.31713,
				"method": "rhf"
			},
			{
				"type": "occ",
				"energy": -0.27959,
				"method": "rhf"
			},
			{
				"type": "occ",
				"energy": -0.25269,
				"method": "rhf"
			},
			{
				"type": "unocc",
				"energy": -0.06295,
				"method": "rhf"
			},
			{
				"type": "unocc",
				"energy": -0.03277,
				"method": "rhf"
			},
			{
				"type": "unocc",
				"energy": 0.01413,
				"method": "rhf"
			},
			{
				"type": "unocc",
				"energy": 0.05184,
				"method": "rhf"
			},
			{
				"type": "unocc",
				"energy": 0.05818,
				"method": "rhf"
			}
		],
		"cosmo_sigma_profile": { 
			"-0.025": 0.0,
			"-0.024": 0.0,
			"-0.023": 0.0,
			"-0.022": 0.0,
			"-0.021": 0.0,
			"-0.02": 0.0,
			"-0.019": 0.0,
			"-0.018": 0.0,
			"-0.017": 0.0,
			"-0.016": 0.0,
			"-0.015": 0.0,
			"-0.014": 0.0,
			"-0.013": 0.425998514243,
			"-0.012": 1.69514120931,
			"-0.011": 1.8142445429,
			"-0.01": 2.07822789614,
			"-0.009": 5.3765402373,
			"-0.008": 9.56969842848,
			"-0.007": 13.5340977758,
			"-0.006": 16.4412043004,
			"-0.005": 16.2026779755,
			"-0.004": 14.3849036489,
			"-0.003": 9.33706353422,
			"-0.002": 9.82989682854,
			"-0.001": 11.2816050181,
			"0.0": 11.210950858,
			"0.001": 12.9896125016,
			"0.002": 14.593298751,
			"0.003": 12.8041989921,
			"0.004": 4.52036600599,
			"0.005": 5.04807949075,
			"0.006": 4.44412628495,
			"0.007": 6.10060464144,
			"0.008": 6.30977463885,
			"0.009": 6.37262889707,
			"0.01": 12.7845028936,
			"0.011": 9.80770567768,
			"0.012": 2.46309150732,
			"0.013": 0.765577826843,
			"0.014": 0.0,
			"0.015": 0.0,
			"0.016": 0.0,
			"0.017": 0.0,
			"0.018": 0.0,
			"0.019": 0.0,
			"0.02": 0.0,
			"0.021": 0.0,
			"0.022": 0.0,
			"0.023": 0.0,
			"0.024": 0.0,
			"0.025": 0.0
		}
	}
}
