{
	 "smiles": "N#CC1CC2CC1C=C2", 
	 "Tm": 286.15, 
	 "num_atms": 18, 
	 "gaussian": { 
		 "optdone": 1, 
		 "sigma_profile": "yes", 
		 "theory": "DFT", 
		 "functional": "B3LYP", 
		 "basiset": "6-31G**", 
		 "properties": { 
			 "R2extent": 1203.5877, 
			 "electric_dipole_moment_norm": 4.15712514365, 
			 "electric_quadrupole_moment_norm": 17.116151358, 
			 "total_energy": -364.973467911, 
			 "HOMO_LUMO_gap": 0.25397, 
			 "cosmo_polarized_energy": -8.1, 
			 "cosmo_cavitation_energy": 20.62, 
			 "cosmo_dispersion_energy": -15.13, 
			 "cosmo_repulsion_energy": 1.25, 
			 "cosmo_total_nonelectrostatic_energy": 6.74, 
			 "SMD_solvation_energy": 4.26 
		},
		"coords": [
			{
				"x": 0.5981501005,
				"y": 3.5915397478,
				"z": -0.9814062199,
				"element": "N" 
			},
			{
				"x": 0.3130616334,
				"y": 2.4667714388,
				"z": -1.0417981503,
				"element": "C" 
			},
			{
				"x": -0.0419294124,
				"y": 1.0480922607,
				"z": -1.0957713231,
				"element": "C" 
			},
			{
				"x": 1.0655803916,
				"y": 0.1717719408,
				"z": -1.7894278185,
				"element": "C" 
			},
			{
				"x": 1.4290772482,
				"y": -0.8657274773,
				"z": -0.6744265426,
				"element": "C" 
			},
			{
				"x": 1.3509699163,
				"y": 0.0316469596,
				"z": 0.5834125627,
				"element": "C" 
			},
			{
				"x": -0.1312106264,
				"y": 0.4009449962,
				"z": 0.3510562935,
				"element": "C" 
			},
			{
				"x": -0.7343280108,
				"y": -0.9787768828,
				"z": 0.1358896168,
				"element": "C" 
			},
			{
				"x": 0.1932372103,
				"y": -1.7319407623,
				"z": -0.4712043758,
				"element": "C" 
			},
			{
				"x": -1.0034473725,
				"y": 0.9664622881,
				"z": -1.6108423389,
				"element": "H" 
			},
			{
				"x": 0.6936250224,
				"y": -0.301132171,
				"z": -2.7008356626,
				"element": "H" 
			},
			{
				"x": 1.9345881673,
				"y": 0.7802189455,
				"z": -2.0535727698,
				"element": "H" 
			},
			{
				"x": 2.367400621,
				"y": -1.393492995,
				"z": -0.8554938211,
				"element": "H" 
			},
			{
				"x": 2.0270168034,
				"y": 0.8929840596,
				"z": 0.5535719658,
				"element": "H" 
			},
			{
				"x": 1.500847986,
				"y": -0.5239375558,
				"z": 1.5124014784,
				"element": "H" 
			},
			{
				"x": -0.6177635492,
				"y": 1.0440461667,
				"z": 1.0853615757,
				"element": "H" 
			},
			{
				"x": -1.765713039,
				"y": -1.2403736512,
				"z": 0.3458175627,
				"element": "H" 
			},
			{
				"x": 0.0731369097,
				"y": -2.7390973085,
				"z": -0.8559320329,
				"element": "H" 
			}
		],
		 "valence_orbital": [ 
			{
				"type": "occ",
				"energy": -0.348,
				"method": "rhf"
			},
			{
				"type": "occ",
				"energy": -0.32751,
				"method": "rhf"
			},
			{
				"type": "occ",
				"energy": -0.31289,
				"method": "rhf"
			},
			{
				"type": "occ",
				"energy": -0.31228,
				"method": "rhf"
			},
			{
				"type": "occ",
				"energy": -0.2538,
				"method": "rhf"
			},
			{
				"type": "unocc",
				"energy": 0.00017,
				"method": "rhf"
			},
			{
				"type": "unocc",
				"energy": 0.03704,
				"method": "rhf"
			},
			{
				"type": "unocc",
				"energy": 0.04299,
				"method": "rhf"
			},
			{
				"type": "unocc",
				"energy": 0.08747,
				"method": "rhf"
			},
			{
				"type": "unocc",
				"energy": 0.10986,
				"method": "rhf"
			}
		],
		"cosmo_sigma_profile": { 
			"-0.025": 0.0,
			"-0.024": 0.0,
			"-0.023": 0.0,
			"-0.022": 0.0,
			"-0.021": 0.0,
			"-0.02": 0.0,
			"-0.019": 0.0,
			"-0.018": 0.0,
			"-0.017": 0.0,
			"-0.016": 0.0,
			"-0.015": 0.0,
			"-0.014": 0.0,
			"-0.013": 0.0,
			"-0.012": 0.0,
			"-0.011": 0.0,
			"-0.01": 0.0,
			"-0.009": 0.0,
			"-0.008": 0.278332121077,
			"-0.007": 2.44739047768,
			"-0.006": 4.81340184299,
			"-0.005": 10.1808909687,
			"-0.004": 19.7239233119,
			"-0.003": 20.5173091489,
			"-0.002": 22.5768427942,
			"-0.001": 20.7134935685,
			"0.0": 12.8158488016,
			"0.001": 7.2563970604,
			"0.002": 5.82456581354,
			"0.003": 3.40511733009,
			"0.004": 4.74446368775,
			"0.005": 2.4937757333,
			"0.006": 3.65896318599,
			"0.007": 3.04460563202,
			"0.008": 2.15296506572,
			"0.009": 3.58680564998,
			"0.01": 3.44222527753,
			"0.011": 3.46036394407,
			"0.012": 2.60030979702,
			"0.013": 2.56070012911,
			"0.014": 0.996455660036,
			"0.015": 0.0,
			"0.016": 0.0,
			"0.017": 0.0,
			"0.018": 0.0,
			"0.019": 0.0,
			"0.02": 0.0,
			"0.021": 0.0,
			"0.022": 0.0,
			"0.023": 0.0,
			"0.024": 0.0,
			"0.025": 0.0
		}
	}
}
