{
	 "smiles": "[O-][N+](=O)C1=C(F)C=C(Br)C(=C1)S(Cl)(=O)=O", 
	 "Tm": 354.15, 
	 "num_atms": 17, 
	 "gaussian": { 
		 "optdone": 1, 
		 "sigma_profile": "yes", 
		 "theory": "DFT", 
		 "functional": "B3LYP", 
		 "basiset": "6-31G**", 
		 "properties": { 
			 "R2extent": 5894.8294, 
			 "electric_dipole_moment_norm": 3.35030537563, 
			 "electric_quadrupole_moment_norm": 17.7857958793, 
			 "total_energy": -4114.90174896, 
			 "HOMO_LUMO_gap": 0.17922, 
			 "cosmo_polarized_energy": -12.71, 
			 "cosmo_cavitation_energy": 29.03, 
			 "cosmo_dispersion_energy": -21.81, 
			 "cosmo_repulsion_energy": 1.62, 
			 "cosmo_total_nonelectrostatic_energy": 8.84, 
			 "SMD_solvation_energy": 5.46 
		},
		"coords": [
			{
				"x": -0.4125853738,
				"y": 4.1434548841,
				"z": 0.5997304859,
				"element": "O" 
			},
			{
				"x": -0.9588920524,
				"y": 3.1057410084,
				"z": 0.9557878993,
				"element": "N" 
			},
			{
				"x": -1.6194615349,
				"y": 2.9625528043,
				"z": 1.9829228593,
				"element": "O" 
			},
			{
				"x": -0.8183001854,
				"y": 1.925371845,
				"z": 0.0868021224,
				"element": "C" 
			},
			{
				"x": -0.0934300426,
				"y": 1.9475641611,
				"z": -1.1115623495,
				"element": "C" 
			},
			{
				"x": 0.5223961608,
				"y": 3.0340257724,
				"z": -1.5556312524,
				"element": "F" 
			},
			{
				"x": 0.0004731468,
				"y": 0.7955398283,
				"z": -1.8877241335,
				"element": "C" 
			},
			{
				"x": -0.6202484595,
				"y": -0.3824504009,
				"z": -1.4847164854,
				"element": "C" 
			},
			{
				"x": -0.4353500702,
				"y": -1.8929344232,
				"z": -2.6060996079,
				"element": "Br" 
			},
			{
				"x": -1.3497062501,
				"y": -0.4045151556,
				"z": -0.2783324271,
				"element": "C" 
			},
			{
				"x": -1.4407315379,
				"y": 0.746131086,
				"z": 0.4922806275,
				"element": "C" 
			},
			{
				"x": -2.1515161885,
				"y": -1.9562152888,
				"z": 0.2257580623,
				"element": "S" 
			},
			{
				"x": -3.0797233377,
				"y": -1.4287997151,
				"z": 2.0624751656,
				"element": "Cl" 
			},
			{
				"x": -1.1211488276,
				"y": -2.9280923264,
				"z": 0.5564414458,
				"element": "O" 
			},
			{
				"x": -3.2305285643,
				"y": -2.2477424802,
				"z": -0.7049939956,
				"element": "O" 
			},
			{
				"x": 0.5661212066,
				"y": 0.8362494493,
				"z": -2.8103036283,
				"element": "H" 
			},
			{
				"x": -1.9913680894,
				"y": 0.7669189513,
				"z": 1.4230652117,
				"element": "H" 
			}
		],
		 "valence_orbital": [ 
			{
				"type": "occ",
				"energy": -0.33351,
				"method": "rhf"
			},
			{
				"type": "occ",
				"energy": -0.32546,
				"method": "rhf"
			},
			{
				"type": "occ",
				"energy": -0.31758,
				"method": "rhf"
			},
			{
				"type": "occ",
				"energy": -0.31494,
				"method": "rhf"
			},
			{
				"type": "occ",
				"energy": -0.30197,
				"method": "rhf"
			},
			{
				"type": "unocc",
				"energy": -0.12275,
				"method": "rhf"
			},
			{
				"type": "unocc",
				"energy": -0.10499,
				"method": "rhf"
			},
			{
				"type": "unocc",
				"energy": -0.08002,
				"method": "rhf"
			},
			{
				"type": "unocc",
				"energy": -0.04913,
				"method": "rhf"
			},
			{
				"type": "unocc",
				"energy": -0.0455,
				"method": "rhf"
			}
		],
		"cosmo_sigma_profile": { 
			"-0.025": 0.0,
			"-0.024": 0.0,
			"-0.023": 0.0,
			"-0.022": 0.0,
			"-0.021": 0.0,
			"-0.02": 0.0,
			"-0.019": 0.0,
			"-0.018": 0.0,
			"-0.017": 0.0,
			"-0.016": 0.0,
			"-0.015": 0.0,
			"-0.014": 0.0,
			"-0.013": 0.0,
			"-0.012": 0.0146316566856,
			"-0.011": 1.37684934816,
			"-0.01": 1.5111712632,
			"-0.009": 4.28739313118,
			"-0.008": 5.01237926074,
			"-0.007": 8.1900186665,
			"-0.006": 13.7359170566,
			"-0.005": 18.7613929658,
			"-0.004": 17.4908522785,
			"-0.003": 16.6151164383,
			"-0.002": 12.2005359114,
			"-0.001": 13.2480705169,
			"0.0": 13.1381431698,
			"0.001": 18.7530253936,
			"0.002": 23.7060039908,
			"0.003": 10.6789655575,
			"0.004": 8.01112949302,
			"0.005": 6.62945492425,
			"0.006": 13.7768358025,
			"0.007": 19.3211232025,
			"0.008": 11.9122736141,
			"0.009": 2.41926990078,
			"0.01": 0.0530795951773,
			"0.011": 0.0,
			"0.012": 0.0,
			"0.013": 0.0,
			"0.014": 0.0,
			"0.015": 0.0,
			"0.016": 0.0,
			"0.017": 0.0,
			"0.018": 0.0,
			"0.019": 0.0,
			"0.02": 0.0,
			"0.021": 0.0,
			"0.022": 0.0,
			"0.023": 0.0,
			"0.024": 0.0,
			"0.025": 0.0
		}
	}
}
