{
	 "smiles": "CC1=C(C=CC=C1C(F)(F)F)S(N)(=O)=O", 
	 "Tm": 423.15, 
	 "num_atms": 23, 
	 "gaussian": { 
		 "optdone": 1, 
		 "sigma_profile": "yes", 
		 "theory": "DFT", 
		 "functional": "B3LYP", 
		 "basiset": "6-31G**", 
		 "properties": { 
			 "R2extent": 4658.7724, 
			 "electric_dipole_moment_norm": 4.28850702459, 
			 "electric_quadrupole_moment_norm": 20.4691361955, 
			 "total_energy": -1212.51838435, 
			 "HOMO_LUMO_gap": 0.22567, 
			 "cosmo_polarized_energy": -16.98, 
			 "cosmo_cavitation_energy": 28.65, 
			 "cosmo_dispersion_energy": -21.28, 
			 "cosmo_repulsion_energy": 1.53, 
			 "cosmo_total_nonelectrostatic_energy": 8.9, 
			 "SMD_solvation_energy": 5.54 
		},
		"coords": [
			{
				"x": -2.63391211,
				"y": -0.1654722149,
				"z": 0.7606854076,
				"element": "C" 
			},
			{
				"x": -1.5395265654,
				"y": 0.6469451864,
				"z": 0.0996562436,
				"element": "C" 
			},
			{
				"x": -0.8531575565,
				"y": 0.1966635942,
				"z": -1.0460943701,
				"element": "C" 
			},
			{
				"x": 0.1553184215,
				"y": 0.9492510893,
				"z": -1.6549940671,
				"element": "C" 
			},
			{
				"x": 0.5017523222,
				"y": 2.1919781098,
				"z": -1.135887671,
				"element": "C" 
			},
			{
				"x": -0.1698026015,
				"y": 2.6769726446,
				"z": -0.0180271336,
				"element": "C" 
			},
			{
				"x": -1.1765878054,
				"y": 1.921075582,
				"z": 0.5881215818,
				"element": "C" 
			},
			{
				"x": -1.8746342139,
				"y": 2.5063337982,
				"z": 1.796052519,
				"element": "C" 
			},
			{
				"x": -1.4723950232,
				"y": 3.7683504878,
				"z": 2.0511371306,
				"element": "F" 
			},
			{
				"x": -1.6395531096,
				"y": 1.786120721,
				"z": 2.9193768483,
				"element": "F" 
			},
			{
				"x": -3.2174966644,
				"y": 2.5464627354,
				"z": 1.6304803474,
				"element": "F" 
			},
			{
				"x": -1.1986666702,
				"y": -1.4070438186,
				"z": -1.8286793395,
				"element": "S" 
			},
			{
				"x": -2.7869576468,
				"y": -1.358621723,
				"z": -2.3626094705,
				"element": "N" 
			},
			{
				"x": -0.380883899,
				"y": -1.4646111278,
				"z": -3.0385385245,
				"element": "O" 
			},
			{
				"x": -1.1443294425,
				"y": -2.4525526357,
				"z": -0.8074813985,
				"element": "O" 
			},
			{
				"x": -2.6729474745,
				"y": 0.0242003626,
				"z": 1.8321910545,
				"element": "H" 
			},
			{
				"x": -3.6161717855,
				"y": 0.1078118895,
				"z": 0.3552875043,
				"element": "H" 
			},
			{
				"x": -2.4703513448,
				"y": -1.2336108406,
				"z": 0.6189572214,
				"element": "H" 
			},
			{
				"x": 0.6541801473,
				"y": 0.5449755911,
				"z": -2.5280040765,
				"element": "H" 
			},
			{
				"x": 1.2868905219,
				"y": 2.7791118332,
				"z": -1.6007994319,
				"element": "H" 
			},
			{
				"x": 0.0817140658,
				"y": 3.647482972,
				"z": 0.3921592017,
				"element": "H" 
			},
			{
				"x": -2.9423397688,
				"y": -0.6721498031,
				"z": -3.0934784703,
				"element": "H" 
			},
			{
				"x": -3.4734417968,
				"y": -1.3285744336,
				"z": -1.6168111065,
				"element": "H" 
			}
		],
		 "valence_orbital": [ 
			{
				"type": "occ",
				"energy": -0.32307,
				"method": "rhf"
			},
			{
				"type": "occ",
				"energy": -0.31317,
				"method": "rhf"
			},
			{
				"type": "occ",
				"energy": -0.30806,
				"method": "rhf"
			},
			{
				"type": "occ",
				"energy": -0.28454,
				"method": "rhf"
			},
			{
				"type": "occ",
				"energy": -0.27704,
				"method": "rhf"
			},
			{
				"type": "unocc",
				"energy": -0.05137,
				"method": "rhf"
			},
			{
				"type": "unocc",
				"energy": -0.0462,
				"method": "rhf"
			},
			{
				"type": "unocc",
				"energy": 0.04477,
				"method": "rhf"
			},
			{
				"type": "unocc",
				"energy": 0.05951,
				"method": "rhf"
			},
			{
				"type": "unocc",
				"energy": 0.07402,
				"method": "rhf"
			}
		],
		"cosmo_sigma_profile": { 
			"-0.025": 0.0,
			"-0.024": 0.0,
			"-0.023": 0.0,
			"-0.022": 0.0,
			"-0.021": 0.0,
			"-0.02": 0.0,
			"-0.019": 0.0,
			"-0.018": 0.0,
			"-0.017": 0.0,
			"-0.016": 0.41704530415,
			"-0.015": 1.67417129485,
			"-0.014": 2.25226070461,
			"-0.013": 2.5228756631,
			"-0.012": 3.51098655507,
			"-0.011": 2.77313675352,
			"-0.01": 2.59029564872,
			"-0.009": 2.30681955814,
			"-0.008": 2.90039657855,
			"-0.007": 8.14617666887,
			"-0.006": 8.8316860496,
			"-0.005": 7.96086041815,
			"-0.004": 8.46964429967,
			"-0.003": 11.9276239039,
			"-0.002": 16.0385531562,
			"-0.001": 16.9743800789,
			"0.0": 18.9430763434,
			"0.001": 20.7084559424,
			"0.002": 28.2232402818,
			"0.003": 19.1239921776,
			"0.004": 2.84330575445,
			"0.005": 2.94774558855,
			"0.006": 3.14525457957,
			"0.007": 3.5395042892,
			"0.008": 6.00629612784,
			"0.009": 4.89070118625,
			"0.01": 7.67133778795,
			"0.011": 9.40128441924,
			"0.012": 2.38171928076,
			"0.013": 0.0,
			"0.014": 0.0,
			"0.015": 0.0,
			"0.016": 0.0,
			"0.017": 0.0,
			"0.018": 0.0,
			"0.019": 0.0,
			"0.02": 0.0,
			"0.021": 0.0,
			"0.022": 0.0,
			"0.023": 0.0,
			"0.024": 0.0,
			"0.025": 0.0
		}
	}
}
