{
	 "smiles": "COC1=C(CC(O)=O)C=C(Br)C=N1", 
	 "Tm": 403.15, 
	 "num_atms": 21, 
	 "gaussian": { 
		 "optdone": 1, 
		 "sigma_profile": "yes", 
		 "theory": "DFT", 
		 "functional": "B3LYP", 
		 "basiset": "6-31G**", 
		 "properties": { 
			 "R2extent": 4275.6093, 
			 "electric_dipole_moment_norm": 2.4786672669, 
			 "electric_quadrupole_moment_norm": 8.30425982072, 
			 "total_energy": -3161.5087676, 
			 "HOMO_LUMO_gap": 0.19741, 
			 "cosmo_polarized_energy": -12.49, 
			 "cosmo_cavitation_energy": 28.54, 
			 "cosmo_dispersion_energy": -20.71, 
			 "cosmo_repulsion_energy": 1.69, 
			 "cosmo_total_nonelectrostatic_energy": 9.52, 
			 "SMD_solvation_energy": 4.81 
		},
		"coords": [
			{
				"x": -3.1586811606,
				"y": 0.7197351064,
				"z": -0.4584090883,
				"element": "C" 
			},
			{
				"x": -1.8830761237,
				"y": 1.0386208415,
				"z": 0.1083183054,
				"element": "O" 
			},
			{
				"x": -0.8675357643,
				"y": 0.1814176531,
				"z": -0.1327236129,
				"element": "C" 
			},
			{
				"x": 0.3903791227,
				"y": 0.535728399,
				"z": 0.4106668716,
				"element": "C" 
			},
			{
				"x": 0.5505442275,
				"y": 1.8082324597,
				"z": 1.1948295877,
				"element": "C" 
			},
			{
				"x": 0.4830060071,
				"y": 3.0589999318,
				"z": 0.3287522717,
				"element": "C" 
			},
			{
				"x": 0.3925073872,
				"y": 4.1683737402,
				"z": 1.1016277893,
				"element": "O" 
			},
			{
				"x": 0.5270517202,
				"y": 3.0998441724,
				"z": -0.8781057183,
				"element": "O" 
			},
			{
				"x": 1.4366549373,
				"y": -0.3445871564,
				"z": 0.1811837706,
				"element": "C" 
			},
			{
				"x": 1.2058490751,
				"y": -1.5091384387,
				"z": -0.5602616611,
				"element": "C" 
			},
			{
				"x": 2.622673317,
				"y": -2.7417605909,
				"z": -0.8914693255,
				"element": "Br" 
			},
			{
				"x": -0.0669599287,
				"y": -1.7583754448,
				"z": -1.0511835946,
				"element": "C" 
			},
			{
				"x": -1.0918849008,
				"y": -0.9196801342,
				"z": -0.8355521696,
				"element": "N" 
			},
			{
				"x": -3.098115961,
				"y": 0.6651894818,
				"z": -1.5486401718,
				"element": "H" 
			},
			{
				"x": -3.5282514022,
				"y": -0.2372275424,
				"z": -0.0797592654,
				"element": "H" 
			},
			{
				"x": -3.8202392544,
				"y": 1.5315100097,
				"z": -0.1539643049,
				"element": "H" 
			},
			{
				"x": 1.5154037184,
				"y": 1.8240347392,
				"z": 1.7148560347,
				"element": "H" 
			},
			{
				"x": -0.2217981691,
				"y": 1.89828329,
				"z": 1.9655696828,
				"element": "H" 
			},
			{
				"x": 0.3783524033,
				"y": 4.9229697228,
				"z": 0.4891783439,
				"element": "H" 
			},
			{
				"x": 2.4273083347,
				"y": -0.132493954,
				"z": 0.5700595469,
				"element": "H" 
			},
			{
				"x": -0.2764875856,
				"y": -2.6528762863,
				"z": -1.6310732922,
				"element": "H" 
			}
		],
		 "valence_orbital": [ 
			{
				"type": "occ",
				"energy": -0.29474,
				"method": "rhf"
			},
			{
				"type": "occ",
				"energy": -0.28686,
				"method": "rhf"
			},
			{
				"type": "occ",
				"energy": -0.2778,
				"method": "rhf"
			},
			{
				"type": "occ",
				"energy": -0.27336,
				"method": "rhf"
			},
			{
				"type": "occ",
				"energy": -0.22957,
				"method": "rhf"
			},
			{
				"type": "unocc",
				"energy": -0.03216,
				"method": "rhf"
			},
			{
				"type": "unocc",
				"energy": -0.01044,
				"method": "rhf"
			},
			{
				"type": "unocc",
				"energy": 0.004,
				"method": "rhf"
			},
			{
				"type": "unocc",
				"energy": 0.00946,
				"method": "rhf"
			},
			{
				"type": "unocc",
				"energy": 0.07572,
				"method": "rhf"
			}
		],
		"cosmo_sigma_profile": { 
			"-0.025": 0.0,
			"-0.024": 0.0,
			"-0.023": 0.0,
			"-0.022": 0.0,
			"-0.021": 0.0,
			"-0.02": 0.0,
			"-0.019": 0.171344827183,
			"-0.018": 0.601807890365,
			"-0.017": 1.19132645169,
			"-0.016": 1.08666614065,
			"-0.015": 0.253881517094,
			"-0.014": 0.326549172464,
			"-0.013": 0.782592280457,
			"-0.012": 0.935584653197,
			"-0.011": 0.998025843227,
			"-0.01": 0.712599888644,
			"-0.009": 2.07587471678,
			"-0.008": 5.81719476275,
			"-0.007": 7.19581366522,
			"-0.006": 8.94967588074,
			"-0.005": 12.795854222,
			"-0.004": 16.0860304298,
			"-0.003": 17.4145336225,
			"-0.002": 14.1852878057,
			"-0.001": 14.2955013919,
			"0.0": 15.8655414206,
			"0.001": 21.5987030901,
			"0.002": 14.9198870541,
			"0.003": 13.3677079067,
			"0.004": 17.3086097746,
			"0.005": 10.4781991223,
			"0.006": 4.03186800452,
			"0.007": 5.30590228863,
			"0.008": 5.01106927551,
			"0.009": 4.5991006334,
			"0.01": 3.06221055889,
			"0.011": 5.02193493564,
			"0.012": 4.04673260885,
			"0.013": 0.104518747891,
			"0.014": 0.0,
			"0.015": 0.0,
			"0.016": 0.0,
			"0.017": 0.0,
			"0.018": 0.0,
			"0.019": 0.0,
			"0.02": 0.0,
			"0.021": 0.0,
			"0.022": 0.0,
			"0.023": 0.0,
			"0.024": 0.0,
			"0.025": 0.0
		}
	}
}
