{
	 "smiles": "CC(N1C(S)=NN=C1C1=CC=CS1)C(O)=O", 
	 "Tm": 290.15, 
	 "num_atms": 25, 
	 "gaussian": { 
		 "optdone": 1, 
		 "sigma_profile": "yes", 
		 "theory": "DFT", 
		 "functional": "B3LYP", 
		 "basiset": "6-31G**", 
		 "properties": { 
			 "R2extent": 4292.8984, 
			 "electric_dipole_moment_norm": 6.62351786742, 
			 "electric_quadrupole_moment_norm": 16.8894065713, 
			 "total_energy": -1459.41208393, 
			 "HOMO_LUMO_gap": 0.18362, 
			 "cosmo_polarized_energy": -27.82, 
			 "cosmo_cavitation_energy": 32.21, 
			 "cosmo_dispersion_energy": -23.52, 
			 "cosmo_repulsion_energy": 1.75, 
			 "cosmo_total_nonelectrostatic_energy": 10.44, 
			 "SMD_solvation_energy": 4.51 
		},
		"coords": [
			{
				"x": -0.8952145001,
				"y": 0.9003724998,
				"z": -1.230628616,
				"element": "C" 
			},
			{
				"x": -0.0725411284,
				"y": 1.078417377,
				"z": 0.0600633796,
				"element": "C" 
			},
			{
				"x": -0.258682592,
				"y": -0.0155737719,
				"z": 1.006287156,
				"element": "N" 
			},
			{
				"x": -0.6540096939,
				"y": 0.1312291837,
				"z": 2.3161323943,
				"element": "C" 
			},
			{
				"x": -0.8673926146,
				"y": 1.7068788293,
				"z": 3.0942655629,
				"element": "S" 
			},
			{
				"x": -0.8426582661,
				"y": -1.0282623504,
				"z": 2.8939593738,
				"element": "N" 
			},
			{
				"x": -0.5533378173,
				"y": -1.9941466055,
				"z": 1.9569759907,
				"element": "N" 
			},
			{
				"x": -0.1968397856,
				"y": -1.3977493804,
				"z": 0.8377352033,
				"element": "C" 
			},
			{
				"x": 0.1281018217,
				"y": -2.1474680102,
				"z": -0.3724855571,
				"element": "C" 
			},
			{
				"x": -0.5908172489,
				"y": -3.2342884109,
				"z": -0.8159465095,
				"element": "C" 
			},
			{
				"x": -0.0123651324,
				"y": -3.8721769318,
				"z": -1.9491109137,
				"element": "C" 
			},
			{
				"x": 1.1476618576,
				"y": -3.2697546154,
				"z": -2.3535084263,
				"element": "C" 
			},
			{
				"x": 1.5710409593,
				"y": -1.925945589,
				"z": -1.3467392888,
				"element": "S" 
			},
			{
				"x": 1.4280607773,
				"y": 1.3358584807,
				"z": -0.1909401561,
				"element": "C" 
			},
			{
				"x": 1.7017643496,
				"y": 2.4336905106,
				"z": -0.9362611057,
				"element": "O" 
			},
			{
				"x": 2.3129509655,
				"y": 0.6461610333,
				"z": 0.2400120812,
				"element": "O" 
			},
			{
				"x": -0.5452766091,
				"y": 0.0535374964,
				"z": -1.820847022,
				"element": "H" 
			},
			{
				"x": -0.8381237728,
				"y": 1.7981900642,
				"z": -1.8539788944,
				"element": "H" 
			},
			{
				"x": -1.9448284458,
				"y": 0.7415619828,
				"z": -0.9730549737,
				"element": "H" 
			},
			{
				"x": -0.4547030466,
				"y": 1.9737078261,
				"z": 0.5660306398,
				"element": "H" 
			},
			{
				"x": -1.4595486785,
				"y": 1.1629652519,
				"z": 4.1735519326,
				"element": "H" 
			},
			{
				"x": -1.5025881728,
				"y": -3.5549450444,
				"z": -0.3268529985,
				"element": "H" 
			},
			{
				"x": -0.443714209,
				"y": -4.7353503015,
				"z": -2.4426381112,
				"element": "H" 
			},
			{
				"x": 1.786264633,
				"y": -3.535217734,
				"z": -3.1851149876,
				"element": "H" 
			},
			{
				"x": 0.8930963499,
				"y": 2.9011082095,
				"z": -1.1894061534,
				"element": "H" 
			}
		],
		 "valence_orbital": [ 
			{
				"type": "occ",
				"energy": -0.29209,
				"method": "rhf"
			},
			{
				"type": "occ",
				"energy": -0.26123,
				"method": "rhf"
			},
			{
				"type": "occ",
				"energy": -0.25864,
				"method": "rhf"
			},
			{
				"type": "occ",
				"energy": -0.2549,
				"method": "rhf"
			},
			{
				"type": "occ",
				"energy": -0.22178,
				"method": "rhf"
			},
			{
				"type": "unocc",
				"energy": -0.03816,
				"method": "rhf"
			},
			{
				"type": "unocc",
				"energy": -0.01754,
				"method": "rhf"
			},
			{
				"type": "unocc",
				"energy": -0.00468,
				"method": "rhf"
			},
			{
				"type": "unocc",
				"energy": 0.01108,
				"method": "rhf"
			},
			{
				"type": "unocc",
				"energy": 0.02139,
				"method": "rhf"
			}
		],
		"cosmo_sigma_profile": { 
			"-0.025": 0.0,
			"-0.024": 0.0,
			"-0.023": 0.0,
			"-0.022": 0.0,
			"-0.021": 0.0206334777698,
			"-0.02": 1.09791310752,
			"-0.019": 1.46889768789,
			"-0.018": 1.13723188102,
			"-0.017": 1.07951831655,
			"-0.016": 1.69569369829,
			"-0.015": 0.944552133743,
			"-0.014": 0.817747437085,
			"-0.013": 1.57268560226,
			"-0.012": 3.2754950144,
			"-0.011": 2.53248560779,
			"-0.01": 3.38437140095,
			"-0.009": 4.76965918906,
			"-0.008": 6.08017699459,
			"-0.007": 9.45440966239,
			"-0.006": 12.5338230124,
			"-0.005": 12.2792786597,
			"-0.004": 15.3698350142,
			"-0.003": 17.2427431114,
			"-0.002": 14.9239675483,
			"-0.001": 12.4917240654,
			"0.0": 14.9201977248,
			"0.001": 14.2683766716,
			"0.002": 16.8855126552,
			"0.003": 16.1923124349,
			"0.004": 15.5053609215,
			"0.005": 8.86567895957,
			"0.006": 6.2768971389,
			"0.007": 6.68210154122,
			"0.008": 5.44822431461,
			"0.009": 7.35392838392,
			"0.01": 6.70481655054,
			"0.011": 5.33976922043,
			"0.012": 3.82768978481,
			"0.013": 3.20244494568,
			"0.014": 2.83099079559,
			"0.015": 2.32639658366,
			"0.016": 1.3694284616,
			"0.017": 0.0163041307703,
			"0.018": 0.0,
			"0.019": 0.0,
			"0.02": 0.0,
			"0.021": 0.0,
			"0.022": 0.0,
			"0.023": 0.0,
			"0.024": 0.0,
			"0.025": 0.0
		}
	}
}
