{
	 "smiles": "CN1CCC2=C(C1)C(C1=CC=CC=C21)C1=CC=CC=C1", 
	 "Tm": 364.15, 
	 "num_atms": 39, 
	 "gaussian": { 
		 "optdone": 1, 
		 "sigma_profile": "yes", 
		 "theory": "DFT", 
		 "functional": "B3LYP", 
		 "basiset": "6-31G**", 
		 "properties": { 
			 "R2extent": 5701.8942, 
			 "electric_dipole_moment_norm": 0.233131507952, 
			 "electric_quadrupole_moment_norm": 7.37643461911, 
			 "total_energy": -790.216363139, 
			 "HOMO_LUMO_gap": 0.18546, 
			 "cosmo_polarized_energy": -7.64, 
			 "cosmo_cavitation_energy": 40.11, 
			 "cosmo_dispersion_energy": -27.6, 
			 "cosmo_repulsion_energy": 2.12, 
			 "cosmo_total_nonelectrostatic_energy": 14.63, 
			 "SMD_solvation_energy": 2.99 
		},
		"coords": [
			{
				"x": -2.2720885553,
				"y": -0.8475788718,
				"z": -3.1848598973,
				"element": "C" 
			},
			{
				"x": -1.0919621459,
				"y": 0.0116505633,
				"z": -3.1999946091,
				"element": "N" 
			},
			{
				"x": 0.1289689213,
				"y": -0.6968817392,
				"z": -3.5946103178,
				"element": "C" 
			},
			{
				"x": 0.5995211432,
				"y": -1.7701121619,
				"z": -2.5826233687,
				"element": "C" 
			},
			{
				"x": 0.4953354562,
				"y": -1.2225795593,
				"z": -1.1880531599,
				"element": "C" 
			},
			{
				"x": -0.1854171379,
				"y": -0.0926926063,
				"z": -0.8923755829,
				"element": "C" 
			},
			{
				"x": -0.8958639269,
				"y": 0.7321744823,
				"z": -1.9340623106,
				"element": "C" 
			},
			{
				"x": -0.1144773225,
				"y": 0.2201174604,
				"z": 0.5960082949,
				"element": "C" 
			},
			{
				"x": 0.7425041982,
				"y": -0.9291832814,
				"z": 1.1150794748,
				"element": "C" 
			},
			{
				"x": 1.1772771739,
				"y": -1.2063071236,
				"z": 2.4027984549,
				"element": "C" 
			},
			{
				"x": 1.9510097456,
				"y": -2.3555112418,
				"z": 2.6222409111,
				"element": "C" 
			},
			{
				"x": 2.2782538449,
				"y": -3.2047679631,
				"z": 1.5615750398,
				"element": "C" 
			},
			{
				"x": 1.8452310422,
				"y": -2.9253291715,
				"z": 0.2602089222,
				"element": "C" 
			},
			{
				"x": 1.0778506723,
				"y": -1.7806974259,
				"z": 0.0408733885,
				"element": "C" 
			},
			{
				"x": 0.4080340486,
				"y": 1.6123327107,
				"z": 0.9291168997,
				"element": "C" 
			},
			{
				"x": 1.6755429521,
				"y": 2.0233608469,
				"z": 0.4893670621,
				"element": "C" 
			},
			{
				"x": 2.1542491566,
				"y": 3.2967765649,
				"z": 0.7900745879,
				"element": "C" 
			},
			{
				"x": 1.3740830637,
				"y": 4.1842603084,
				"z": 1.5375949394,
				"element": "C" 
			},
			{
				"x": 0.1133960712,
				"y": 3.7861907889,
				"z": 1.980130631,
				"element": "C" 
			},
			{
				"x": -0.3644753316,
				"y": 2.5085021251,
				"z": 1.6758560307,
				"element": "C" 
			},
			{
				"x": -2.3732644127,
				"y": -1.3371727396,
				"z": -4.1593109435,
				"element": "H" 
			},
			{
				"x": -3.1655140675,
				"y": -0.2341214715,
				"z": -3.0271636837,
				"element": "H" 
			},
			{
				"x": -2.2630623984,
				"y": -1.632767358,
				"z": -2.4083454562,
				"element": "H" 
			},
			{
				"x": -0.0319951249,
				"y": -1.1462375214,
				"z": -4.5808688277,
				"element": "H" 
			},
			{
				"x": 0.9216013824,
				"y": 0.053573714,
				"z": -3.7078850588,
				"element": "H" 
			},
			{
				"x": -0.0020540016,
				"y": -2.6858180664,
				"z": -2.6760142074,
				"element": "H" 
			},
			{
				"x": 1.6323169515,
				"y": -2.0671853281,
				"z": -2.8092402498,
				"element": "H" 
			},
			{
				"x": -1.8744191444,
				"y": 1.0684954707,
				"z": -1.568683194,
				"element": "H" 
			},
			{
				"x": -0.3214093688,
				"y": 1.6503317466,
				"z": -2.1331123986,
				"element": "H" 
			},
			{
				"x": -1.1251763367,
				"y": 0.1353133835,
				"z": 1.0242478621,
				"element": "H" 
			},
			{
				"x": 0.9307044756,
				"y": -0.5434969236,
				"z": 3.2282529448,
				"element": "H" 
			},
			{
				"x": 2.2998832044,
				"y": -2.5862031955,
				"z": 3.624773168,
				"element": "H" 
			},
			{
				"x": 2.877883974,
				"y": -4.0912547819,
				"z": 1.7492235691,
				"element": "H" 
			},
			{
				"x": 2.1054082223,
				"y": -3.5889431542,
				"z": -0.5601196329,
				"element": "H" 
			},
			{
				"x": 2.286172119,
				"y": 1.3350106125,
				"z": -0.0886925063,
				"element": "H" 
			},
			{
				"x": 3.1384205039,
				"y": 3.5984744167,
				"z": 0.4422552929,
				"element": "H" 
			},
			{
				"x": 1.7481635995,
				"y": 5.176792737,
				"z": 1.7717532291,
				"element": "H" 
			},
			{
				"x": -0.5015776817,
				"y": 4.4673916402,
				"z": 2.5617416665,
				"element": "H" 
			},
			{
				"x": -1.3491549657,
				"y": 2.2045921137,
				"z": 2.0233430357,
				"element": "H" 
			}
		],
		 "valence_orbital": [ 
			{
				"type": "occ",
				"energy": -0.24917,
				"method": "rhf"
			},
			{
				"type": "occ",
				"energy": -0.24678,
				"method": "rhf"
			},
			{
				"type": "occ",
				"energy": -0.23499,
				"method": "rhf"
			},
			{
				"type": "occ",
				"energy": -0.20495,
				"method": "rhf"
			},
			{
				"type": "occ",
				"energy": -0.20221,
				"method": "rhf"
			},
			{
				"type": "unocc",
				"energy": -0.01675,
				"method": "rhf"
			},
			{
				"type": "unocc",
				"energy": -0.00227,
				"method": "rhf"
			},
			{
				"type": "unocc",
				"energy": -0.00134,
				"method": "rhf"
			},
			{
				"type": "unocc",
				"energy": 0.00798,
				"method": "rhf"
			},
			{
				"type": "unocc",
				"energy": 0.05706,
				"method": "rhf"
			}
		],
		"cosmo_sigma_profile": { 
			"-0.025": 0.0,
			"-0.024": 0.0,
			"-0.023": 0.0,
			"-0.022": 0.0,
			"-0.021": 0.0,
			"-0.02": 0.0,
			"-0.019": 0.0,
			"-0.018": 0.0,
			"-0.017": 0.0,
			"-0.016": 0.0,
			"-0.015": 0.0,
			"-0.014": 0.0,
			"-0.013": 0.0,
			"-0.012": 0.0,
			"-0.011": 0.0,
			"-0.01": 0.0,
			"-0.009": 0.0,
			"-0.008": 0.0,
			"-0.007": 0.0,
			"-0.006": 4.33790823839,
			"-0.005": 18.4773867988,
			"-0.004": 29.4518135713,
			"-0.003": 41.9036821608,
			"-0.002": 37.5061447103,
			"-0.001": 34.663757041,
			"0.0": 31.2068426797,
			"0.001": 22.0462151291,
			"0.002": 17.0847847254,
			"0.003": 16.971503026,
			"0.004": 18.6429201461,
			"0.005": 16.9002130007,
			"0.006": 16.6803493601,
			"0.007": 5.60111016327,
			"0.008": 0.321931148689,
			"0.009": 1.02378593244,
			"0.01": 0.757049721157,
			"0.011": 0.231298022335,
			"0.012": 0.67895253797,
			"0.013": 0.861092269923,
			"0.014": 0.470195625956,
			"0.015": 0.384252897448,
			"0.016": 0.410214500743,
			"0.017": 0.305918112155,
			"0.018": 0.0201508823249,
			"0.019": 0.0,
			"0.02": 0.0,
			"0.021": 0.0,
			"0.022": 0.0,
			"0.023": 0.0,
			"0.024": 0.0,
			"0.025": 0.0
		}
	}
}
