{
	 "smiles": "COC1=CC2=C(C=C1OC)C(N(CC2)C(C)=O)C1=CC=C(F)C=C1", 
	 "Tm": 436.15, 
	 "num_atms": 44, 
	 "gaussian": { 
		 "optdone": 1, 
		 "sigma_profile": "yes", 
		 "theory": "DFT", 
		 "functional": "B3LYP", 
		 "basiset": "6-31G**", 
		 "properties": { 
			 "R2extent": 9202.7843, 
			 "electric_dipole_moment_norm": 4.18827840288, 
			 "electric_quadrupole_moment_norm": 18.8430902996, 
			 "total_energy": -1116.32251885, 
			 "HOMO_LUMO_gap": 0.19491, 
			 "cosmo_polarized_energy": -16.59, 
			 "cosmo_cavitation_energy": 46.49, 
			 "cosmo_dispersion_energy": -31.14, 
			 "cosmo_repulsion_energy": 2.36, 
			 "cosmo_total_nonelectrostatic_energy": 17.71, 
			 "SMD_solvation_energy": 10.07 
		},
		"coords": [
			{
				"x": -1.6862969441,
				"y": 2.3417991328,
				"z": 3.8536419819,
				"element": "C" 
			},
			{
				"x": -0.389511883,
				"y": 2.026814228,
				"z": 3.3398695875,
				"element": "O" 
			},
			{
				"x": -0.3578028915,
				"y": 1.1824549566,
				"z": 2.2584421836,
				"element": "C" 
			},
			{
				"x": 0.2246191183,
				"y": -0.0693763182,
				"z": 2.4019053523,
				"element": "C" 
			},
			{
				"x": 0.3596321872,
				"y": -0.9602704591,
				"z": 1.3253419398,
				"element": "C" 
			},
			{
				"x": -0.1257243082,
				"y": -0.5654236714,
				"z": 0.0735725222,
				"element": "C" 
			},
			{
				"x": -0.7206177777,
				"y": 0.698065652,
				"z": -0.0836754436,
				"element": "C" 
			},
			{
				"x": -0.8377278551,
				"y": 1.5811974854,
				"z": 0.9879065158,
				"element": "C" 
			},
			{
				"x": -1.3807562692,
				"y": 2.8324423833,
				"z": 0.912234404,
				"element": "O" 
			},
			{
				"x": -1.8271077285,
				"y": 3.2928466987,
				"z": -0.3534778655,
				"element": "C" 
			},
			{
				"x": -0.0209619921,
				"y": -1.4849547037,
				"z": -1.1421301175,
				"element": "C" 
			},
			{
				"x": 0.1906610933,
				"y": -2.8730943081,
				"z": -0.7135439548,
				"element": "N" 
			},
			{
				"x": 1.3067911424,
				"y": -3.0295338222,
				"z": 0.2205304557,
				"element": "C" 
			},
			{
				"x": 0.9713271626,
				"y": -2.3324455375,
				"z": 1.5430652513,
				"element": "C" 
			},
			{
				"x": -0.7452715241,
				"y": -3.8836385398,
				"z": -0.7942597509,
				"element": "C" 
			},
			{
				"x": -1.9942820413,
				"y": -3.6413187422,
				"z": -1.6348765609,
				"element": "C" 
			},
			{
				"x": -0.5795271847,
				"y": -4.9562596944,
				"z": -0.2220684002,
				"element": "O" 
			},
			{
				"x": 1.0573014754,
				"y": -1.0673465702,
				"z": -2.1590381801,
				"element": "C" 
			},
			{
				"x": 1.1198655205,
				"y": -1.7444746857,
				"z": -3.3868041821,
				"element": "C" 
			},
			{
				"x": 2.0726286253,
				"y": -1.4179327734,
				"z": -4.3479429039,
				"element": "C" 
			},
			{
				"x": 2.9783785374,
				"y": -0.3988730201,
				"z": -4.0677180988,
				"element": "C" 
			},
			{
				"x": 3.9048169877,
				"y": -0.0742635598,
				"z": -4.9935410743,
				"element": "F" 
			},
			{
				"x": 2.952873015,
				"y": 0.2897626163,
				"z": -2.8632672893,
				"element": "C" 
			},
			{
				"x": 1.9866139209,
				"y": -0.0508093195,
				"z": -1.9127707891,
				"element": "C" 
			},
			{
				"x": -1.5197797291,
				"y": 2.9761866789,
				"z": 4.7266493066,
				"element": "H" 
			},
			{
				"x": -2.2147106834,
				"y": 1.4313955292,
				"z": 4.1655753806,
				"element": "H" 
			},
			{
				"x": -2.2904972616,
				"y": 2.8818599218,
				"z": 3.119132785,
				"element": "H" 
			},
			{
				"x": 0.5889200147,
				"y": -0.3411595998,
				"z": 3.3888562034,
				"element": "H" 
			},
			{
				"x": -1.077921641,
				"y": 0.9870805351,
				"z": -1.0663863475,
				"element": "H" 
			},
			{
				"x": -2.1931261926,
				"y": 4.3078869608,
				"z": -0.1924862022,
				"element": "H" 
			},
			{
				"x": -2.6434000329,
				"y": 2.6730248411,
				"z": -0.7468839679,
				"element": "H" 
			},
			{
				"x": -1.0096310898,
				"y": 3.3150441582,
				"z": -1.085285886,
				"element": "H" 
			},
			{
				"x": -0.9788684383,
				"y": -1.4466061708,
				"z": -1.6653290008,
				"element": "H" 
			},
			{
				"x": 2.1973012868,
				"y": -2.5852372194,
				"z": -0.2371789691,
				"element": "H" 
			},
			{
				"x": 1.4770719552,
				"y": -4.0953386771,
				"z": 0.3653792656,
				"element": "H" 
			},
			{
				"x": 0.2648221074,
				"y": -2.9612554368,
				"z": 2.1010740534,
				"element": "H" 
			},
			{
				"x": 1.87194825,
				"y": -2.2507199064,
				"z": 2.1637300936,
				"element": "H" 
			},
			{
				"x": -1.7678685158,
				"y": -3.2959297626,
				"z": -2.648153536,
				"element": "H" 
			},
			{
				"x": -2.5274244013,
				"y": -4.589855825,
				"z": -1.6927175031,
				"element": "H" 
			},
			{
				"x": -2.651108901,
				"y": -2.9000728665,
				"z": -1.1663894275,
				"element": "H" 
			},
			{
				"x": 0.4204354413,
				"y": -2.5502973517,
				"z": -3.591161036,
				"element": "H" 
			},
			{
				"x": 2.1248953129,
				"y": -1.9362071337,
				"z": -5.2993814173,
				"element": "H" 
			},
			{
				"x": 3.6782285889,
				"y": 1.0747306623,
				"z": -2.6780700299,
				"element": "H" 
			},
			{
				"x": 1.9590935433,
				"y": 0.4872032344,
				"z": -0.9716693478,
				"element": "H" 
			}
		],
		 "valence_orbital": [ 
			{
				"type": "occ",
				"energy": -0.25236,
				"method": "rhf"
			},
			{
				"type": "occ",
				"energy": -0.2452,
				"method": "rhf"
			},
			{
				"type": "occ",
				"energy": -0.23942,
				"method": "rhf"
			},
			{
				"type": "occ",
				"energy": -0.23212,
				"method": "rhf"
			},
			{
				"type": "occ",
				"energy": -0.21463,
				"method": "rhf"
			},
			{
				"type": "unocc",
				"energy": -0.01972,
				"method": "rhf"
			},
			{
				"type": "unocc",
				"energy": -0.00828,
				"method": "rhf"
			},
			{
				"type": "unocc",
				"energy": -0.00378,
				"method": "rhf"
			},
			{
				"type": "unocc",
				"energy": 0.0069,
				"method": "rhf"
			},
			{
				"type": "unocc",
				"energy": 0.02973,
				"method": "rhf"
			}
		],
		"cosmo_sigma_profile": { 
			"-0.025": 0.0,
			"-0.024": 0.0,
			"-0.023": 0.0,
			"-0.022": 0.0,
			"-0.021": 0.0,
			"-0.02": 0.0,
			"-0.019": 0.0,
			"-0.018": 0.0,
			"-0.017": 0.0,
			"-0.016": 0.0,
			"-0.015": 0.0,
			"-0.014": 0.0,
			"-0.013": 0.0,
			"-0.012": 0.0,
			"-0.011": 0.0,
			"-0.01": 0.0,
			"-0.009": 0.103042764577,
			"-0.008": 1.1048954902,
			"-0.007": 8.377415979,
			"-0.006": 19.8855096131,
			"-0.005": 26.5664662881,
			"-0.004": 35.7825387324,
			"-0.003": 37.5719831296,
			"-0.002": 35.7688405165,
			"-0.001": 31.5330231325,
			"0.0": 24.3409363672,
			"0.001": 23.0674027338,
			"0.002": 23.4181463475,
			"0.003": 24.3240434605,
			"0.004": 29.0640568967,
			"0.005": 13.002019308,
			"0.006": 4.11176534801,
			"0.007": 2.94872876485,
			"0.008": 3.4953705572,
			"0.009": 4.26461228506,
			"0.01": 3.48169695165,
			"0.011": 3.5515249922,
			"0.012": 3.09574356517,
			"0.013": 2.9695850255,
			"0.014": 4.8313240368,
			"0.015": 1.57777403336,
			"0.016": 0.102214281683,
			"0.017": 0.0,
			"0.018": 0.0,
			"0.019": 0.0,
			"0.02": 0.0,
			"0.021": 0.0,
			"0.022": 0.0,
			"0.023": 0.0,
			"0.024": 0.0,
			"0.025": 0.0
		}
	}
}
