{
	 "smiles": "CCCC(O)C(O)=O", 
	 "Tm": 307.15, 
	 "num_atms": 18, 
	 "gaussian": { 
		 "optdone": 1, 
		 "sigma_profile": "yes", 
		 "theory": "DFT", 
		 "functional": "B3LYP", 
		 "basiset": "6-31G**", 
		 "properties": { 
			 "R2extent": 2075.4599, 
			 "electric_dipole_moment_norm": 3.38004553372, 
			 "electric_quadrupole_moment_norm": 12.3495337855, 
			 "total_energy": -422.237932099, 
			 "HOMO_LUMO_gap": 0.2664, 
			 "cosmo_polarized_energy": -13.53, 
			 "cosmo_cavitation_energy": 20.56, 
			 "cosmo_dispersion_energy": -15.05, 
			 "cosmo_repulsion_energy": 1.27, 
			 "cosmo_total_nonelectrostatic_energy": 6.78, 
			 "SMD_solvation_energy": 4.47 
		},
		"coords": [
			{
				"x": 0.4232401654,
				"y": 1.3406550355,
				"z": 1.6874807831,
				"element": "C" 
			},
			{
				"x": 0.2492656211,
				"y": -0.019181407,
				"z": 1.0006967667,
				"element": "C" 
			},
			{
				"x": 0.9383784788,
				"y": -0.1591499061,
				"z": -0.3680089131,
				"element": "C" 
			},
			{
				"x": 2.4809152246,
				"y": -0.0839818743,
				"z": -0.3833892519,
				"element": "C" 
			},
			{
				"x": 2.9300065433,
				"y": 1.2318346965,
				"z": -0.1790377817,
				"element": "O" 
			},
			{
				"x": 3.1329823689,
				"y": -1.0010541968,
				"z": 0.6586228237,
				"element": "C" 
			},
			{
				"x": 2.820179595,
				"y": -2.3125916346,
				"z": 0.6121661688,
				"element": "O" 
			},
			{
				"x": 3.9128827069,
				"y": -0.5777170518,
				"z": 1.4810088143,
				"element": "O" 
			},
			{
				"x": 1.4683532949,
				"y": 1.5379016642,
				"z": 1.932437416,
				"element": "H" 
			},
			{
				"x": 0.0805047554,
				"y": 2.1549230818,
				"z": 1.0402682107,
				"element": "H" 
			},
			{
				"x": -0.1591790164,
				"y": 1.3774689904,
				"z": 2.6139149978,
				"element": "H" 
			},
			{
				"x": 0.6001798348,
				"y": -0.8173172262,
				"z": 1.669043334,
				"element": "H" 
			},
			{
				"x": -0.8207614885,
				"y": -0.2102589816,
				"z": 0.8496014652,
				"element": "H" 
			},
			{
				"x": 0.630024141,
				"y": -1.1095372312,
				"z": -0.8301462005,
				"element": "H" 
			},
			{
				"x": 0.5870893313,
				"y": 0.625421579,
				"z": -1.0480298801,
				"element": "H" 
			},
			{
				"x": 2.8226939319,
				"y": -0.4446548267,
				"z": -1.3717889332,
				"element": "H" 
			},
			{
				"x": 3.6020186013,
				"y": 1.1746875511,
				"z": 0.5229151913,
				"element": "H" 
			},
			{
				"x": 2.1808259102,
				"y": -2.4793482622,
				"z": -0.0959550111,
				"element": "H" 
			}
		],
		 "valence_orbital": [ 
			{
				"type": "occ",
				"energy": -0.3443,
				"method": "rhf"
			},
			{
				"type": "occ",
				"energy": -0.34027,
				"method": "rhf"
			},
			{
				"type": "occ",
				"energy": -0.33233,
				"method": "rhf"
			},
			{
				"type": "occ",
				"energy": -0.29217,
				"method": "rhf"
			},
			{
				"type": "occ",
				"energy": -0.2723,
				"method": "rhf"
			},
			{
				"type": "unocc",
				"energy": -0.0059,
				"method": "rhf"
			},
			{
				"type": "unocc",
				"energy": 0.03361,
				"method": "rhf"
			},
			{
				"type": "unocc",
				"energy": 0.09618,
				"method": "rhf"
			},
			{
				"type": "unocc",
				"energy": 0.11999,
				"method": "rhf"
			},
			{
				"type": "unocc",
				"energy": 0.12248,
				"method": "rhf"
			}
		],
		"cosmo_sigma_profile": { 
			"-0.025": 0.0,
			"-0.024": 0.0,
			"-0.023": 0.0,
			"-0.022": 0.0,
			"-0.021": 0.0,
			"-0.02": 0.0,
			"-0.019": 0.403483927996,
			"-0.018": 1.5155952054,
			"-0.017": 1.08701875274,
			"-0.016": 1.06547852616,
			"-0.015": 1.0488042469,
			"-0.014": 1.04104830187,
			"-0.013": 0.713888803584,
			"-0.012": 1.22515549012,
			"-0.011": 1.88706073827,
			"-0.01": 1.73626014294,
			"-0.009": 1.07296960225,
			"-0.008": 2.7542439158,
			"-0.007": 3.78650720444,
			"-0.006": 3.81013723167,
			"-0.005": 3.76270127203,
			"-0.004": 6.46962632861,
			"-0.003": 13.1771451182,
			"-0.002": 18.6180525777,
			"-0.001": 17.427143014,
			"0.0": 15.2092790484,
			"0.001": 11.3058138957,
			"0.002": 7.65161789233,
			"0.003": 2.92709470672,
			"0.004": 3.5825424296,
			"0.005": 2.63551687307,
			"0.006": 3.89841749826,
			"0.007": 3.15666101875,
			"0.008": 4.28137786221,
			"0.009": 6.20916612678,
			"0.01": 5.64486771227,
			"0.011": 4.73194423055,
			"0.012": 2.68818301505,
			"0.013": 1.89832692688,
			"0.014": 1.18748212668,
			"0.015": 0.0,
			"0.016": 0.0,
			"0.017": 0.0,
			"0.018": 0.0,
			"0.019": 0.0,
			"0.02": 0.0,
			"0.021": 0.0,
			"0.022": 0.0,
			"0.023": 0.0,
			"0.024": 0.0,
			"0.025": 0.0
		}
	}
}
