{
	 "smiles": "COC1=C(OCC=C)C=CC(=C1)C(O)=O", 
	 "Tm": 447.15, 
	 "num_atms": 27, 
	 "gaussian": { 
		 "optdone": 1, 
		 "sigma_profile": "yes", 
		 "theory": "DFT", 
		 "functional": "B3LYP", 
		 "basiset": "6-31G**", 
		 "properties": { 
			 "R2extent": 4635.2752, 
			 "electric_dipole_moment_norm": 3.67939083817, 
			 "electric_quadrupole_moment_norm": 22.4124833901, 
			 "total_energy": -727.252777669, 
			 "HOMO_LUMO_gap": 0.18675, 
			 "cosmo_polarized_energy": -16.26, 
			 "cosmo_cavitation_energy": 31.95, 
			 "cosmo_dispersion_energy": -22.63, 
			 "cosmo_repulsion_energy": 1.79, 
			 "cosmo_total_nonelectrostatic_energy": 11.11, 
			 "SMD_solvation_energy": 8.36 
		},
		"coords": [
			{
				"x": -1.2700452925,
				"y": -1.8350862594,
				"z": 0.1744516546,
				"element": "C" 
			},
			{
				"x": -0.0480403313,
				"y": -1.1059043104,
				"z": 0.1641238931,
				"element": "O" 
			},
			{
				"x": -0.0627390555,
				"y": 0.1639242459,
				"z": -0.3294784518,
				"element": "C" 
			},
			{
				"x": 1.1823441442,
				"y": 0.8437886024,
				"z": -0.3411899062,
				"element": "C" 
			},
			{
				"x": 2.3385624062,
				"y": 0.2463515259,
				"z": 0.0765227385,
				"element": "O" 
			},
			{
				"x": 2.4338978907,
				"y": -0.0823474787,
				"z": 1.4811728171,
				"element": "C" 
			},
			{
				"x": 3.7048971159,
				"y": -0.8458753918,
				"z": 1.6883115845,
				"element": "C" 
			},
			{
				"x": 4.6272397737,
				"y": -0.5290535298,
				"z": 2.5956278746,
				"element": "C" 
			},
			{
				"x": 1.2516036013,
				"y": 2.1357228208,
				"z": -0.857206264,
				"element": "C" 
			},
			{
				"x": 0.117645929,
				"y": 2.7679947909,
				"z": -1.3682919932,
				"element": "C" 
			},
			{
				"x": -1.1120189664,
				"y": 2.1029783654,
				"z": -1.3540517913,
				"element": "C" 
			},
			{
				"x": -1.1957768973,
				"y": 0.8068127929,
				"z": -0.8208692196,
				"element": "C" 
			},
			{
				"x": -2.3836698051,
				"y": 2.7085273312,
				"z": -1.8604438589,
				"element": "C" 
			},
			{
				"x": -2.2642364421,
				"y": 3.7731061261,
				"z": -2.6992791033,
				"element": "O" 
			},
			{
				"x": -3.4824253426,
				"y": 2.2975975023,
				"z": -1.5638353261,
				"element": "O" 
			},
			{
				"x": -2.0254172642,
				"y": -1.3472425436,
				"z": 0.8022958804,
				"element": "H" 
			},
			{
				"x": -1.029343205,
				"y": -2.8138480397,
				"z": 0.5910126036,
				"element": "H" 
			},
			{
				"x": -1.669512607,
				"y": -1.9591545355,
				"z": -0.839180534,
				"element": "H" 
			},
			{
				"x": 2.4274455114,
				"y": 0.8414808581,
				"z": 2.0752074493,
				"element": "H" 
			},
			{
				"x": 1.5690494905,
				"y": -0.690324561,
				"z": 1.7696786148,
				"element": "H" 
			},
			{
				"x": 3.8299050741,
				"y": -1.7224653364,
				"z": 1.0546399923,
				"element": "H" 
			},
			{
				"x": 4.5248533083,
				"y": 0.3466437373,
				"z": 3.232375617,
				"element": "H" 
			},
			{
				"x": 5.5158664822,
				"y": -1.1355752426,
				"z": 2.7417607205,
				"element": "H" 
			},
			{
				"x": 2.21658235,
				"y": 2.6314893067,
				"z": -0.8476485065,
				"element": "H" 
			},
			{
				"x": 0.2039373083,
				"y": 3.791920825,
				"z": -1.7224078962,
				"element": "H" 
			},
			{
				"x": -2.1675060066,
				"y": 0.3297153228,
				"z": -0.8171073954,
				"element": "H" 
			},
			{
				"x": -1.3422991704,
				"y": 3.8772230751,
				"z": -2.9721911941,
				"element": "H" 
			}
		],
		 "valence_orbital": [ 
			{
				"type": "occ",
				"energy": -0.29364,
				"method": "rhf"
			},
			{
				"type": "occ",
				"energy": -0.27158,
				"method": "rhf"
			},
			{
				"type": "occ",
				"energy": -0.26705,
				"method": "rhf"
			},
			{
				"type": "occ",
				"energy": -0.25448,
				"method": "rhf"
			},
			{
				"type": "occ",
				"energy": -0.23156,
				"method": "rhf"
			},
			{
				"type": "unocc",
				"energy": -0.04481,
				"method": "rhf"
			},
			{
				"type": "unocc",
				"energy": -0.00971,
				"method": "rhf"
			},
			{
				"type": "unocc",
				"energy": 0.00451,
				"method": "rhf"
			},
			{
				"type": "unocc",
				"energy": 0.05541,
				"method": "rhf"
			},
			{
				"type": "unocc",
				"energy": 0.06471,
				"method": "rhf"
			}
		],
		"cosmo_sigma_profile": { 
			"-0.025": 0.0,
			"-0.024": 0.0,
			"-0.023": 0.0,
			"-0.022": 0.0,
			"-0.021": 0.0,
			"-0.02": 0.0,
			"-0.019": 0.0,
			"-0.018": 0.730315108397,
			"-0.017": 0.978173317815,
			"-0.016": 1.05462169123,
			"-0.015": 1.37588284993,
			"-0.014": 0.613452369454,
			"-0.013": 0.750708860132,
			"-0.012": 0.932734320019,
			"-0.011": 1.73782918008,
			"-0.01": 0.812429951917,
			"-0.009": 1.45318550996,
			"-0.008": 1.87040214422,
			"-0.007": 3.71544570046,
			"-0.006": 13.1084733832,
			"-0.005": 22.6815127713,
			"-0.004": 21.4608548668,
			"-0.003": 22.3107487512,
			"-0.002": 17.611936499,
			"-0.001": 16.735461844,
			"0.0": 15.4338191717,
			"0.001": 13.716544563,
			"0.002": 18.3245149295,
			"0.003": 16.8756294182,
			"0.004": 8.9435617087,
			"0.005": 7.74156016419,
			"0.006": 7.09439079317,
			"0.007": 5.8092878055,
			"0.008": 5.15407501781,
			"0.009": 5.15598800692,
			"0.01": 6.83975624639,
			"0.011": 5.80107256931,
			"0.012": 5.31477067291,
			"0.013": 2.06777460755,
			"0.014": 0.164811520122,
			"0.015": 0.0,
			"0.016": 0.0,
			"0.017": 0.0,
			"0.018": 0.0,
			"0.019": 0.0,
			"0.02": 0.0,
			"0.021": 0.0,
			"0.022": 0.0,
			"0.023": 0.0,
			"0.024": 0.0,
			"0.025": 0.0
		}
	}
}
