{
	 "smiles": "NC1=C(Cl)C=C(C=C1Br)C(F)(F)F", 
	 "Tm": 304.15, 
	 "num_atms": 17, 
	 "gaussian": { 
		 "optdone": 1, 
		 "sigma_profile": "yes", 
		 "theory": "DFT", 
		 "functional": "B3LYP", 
		 "basiset": "6-31G**", 
		 "properties": { 
			 "R2extent": 4770.0649, 
			 "electric_dipole_moment_norm": 3.04067949478, 
			 "electric_quadrupole_moment_norm": 5.11167036398, 
			 "total_energy": -3655.03786065, 
			 "HOMO_LUMO_gap": 0.19742, 
			 "cosmo_polarized_energy": -6.15, 
			 "cosmo_cavitation_energy": 26.72, 
			 "cosmo_dispersion_energy": -19.93, 
			 "cosmo_repulsion_energy": 1.52, 
			 "cosmo_total_nonelectrostatic_energy": 8.31, 
			 "SMD_solvation_energy": 4.28 
		},
		"coords": [
			{
				"x": 2.4340735267,
				"y": 0.3305969256,
				"z": 0.7224247205,
				"element": "N" 
			},
			{
				"x": 1.1153463807,
				"y": 0.0141840414,
				"z": 0.8876226654,
				"element": "C" 
			},
			{
				"x": 0.6195231567,
				"y": -1.2850618918,
				"z": 0.6244849393,
				"element": "C" 
			},
			{
				"x": 1.760423922,
				"y": -2.5322026031,
				"z": 0.1339455165,
				"element": "Cl" 
			},
			{
				"x": -0.7219280738,
				"y": -1.6118551773,
				"z": 0.7459646002,
				"element": "C" 
			},
			{
				"x": -1.6382340168,
				"y": -0.6375947201,
				"z": 1.1465527206,
				"element": "C" 
			},
			{
				"x": -1.1935209036,
				"y": 0.6561688882,
				"z": 1.4241540884,
				"element": "C" 
			},
			{
				"x": 0.1520727394,
				"y": 0.9645582656,
				"z": 1.2979194562,
				"element": "C" 
			},
			{
				"x": 0.7315835097,
				"y": 2.7426642443,
				"z": 1.7043188043,
				"element": "Br" 
			},
			{
				"x": -3.1015840168,
				"y": -0.9639168177,
				"z": 1.2199290886,
				"element": "C" 
			},
			{
				"x": -3.7301481692,
				"y": -0.7445834273,
				"z": 0.0408102028,
				"element": "F" 
			},
			{
				"x": -3.7363104852,
				"y": -0.2097579447,
				"z": 2.1449892043,
				"element": "F" 
			},
			{
				"x": -3.3087607627,
				"y": -2.2621234359,
				"z": 1.5352421222,
				"element": "F" 
			},
			{
				"x": 2.7609469099,
				"y": 1.1942808932,
				"z": 1.1276367702,
				"element": "H" 
			},
			{
				"x": 3.095750394,
				"y": -0.4267907623,
				"z": 0.655791929,
				"element": "H" 
			},
			{
				"x": -1.0483068282,
				"y": -2.623828255,
				"z": 0.5391485202,
				"element": "H" 
			},
			{
				"x": -1.8919272826,
				"y": 1.4175617768,
				"z": 1.7484646512,
				"element": "H" 
			}
		],
		 "valence_orbital": [ 
			{
				"type": "occ",
				"energy": -0.33483,
				"method": "rhf"
			},
			{
				"type": "occ",
				"energy": -0.32066,
				"method": "rhf"
			},
			{
				"type": "occ",
				"energy": -0.30896,
				"method": "rhf"
			},
			{
				"type": "occ",
				"energy": -0.26066,
				"method": "rhf"
			},
			{
				"type": "occ",
				"energy": -0.23029,
				"method": "rhf"
			},
			{
				"type": "unocc",
				"energy": -0.03287,
				"method": "rhf"
			},
			{
				"type": "unocc",
				"energy": -0.02587,
				"method": "rhf"
			},
			{
				"type": "unocc",
				"energy": -0.01854,
				"method": "rhf"
			},
			{
				"type": "unocc",
				"energy": 0.02878,
				"method": "rhf"
			},
			{
				"type": "unocc",
				"energy": 0.0804,
				"method": "rhf"
			}
		],
		"cosmo_sigma_profile": { 
			"-0.025": 0.0,
			"-0.024": 0.0,
			"-0.023": 0.0,
			"-0.022": 0.0,
			"-0.021": 0.0,
			"-0.02": 0.0,
			"-0.019": 0.0,
			"-0.018": 0.0,
			"-0.017": 0.0,
			"-0.016": 0.0,
			"-0.015": 0.0,
			"-0.014": 0.00286148086652,
			"-0.013": 0.995602928916,
			"-0.012": 2.02299468948,
			"-0.011": 2.00652573912,
			"-0.01": 2.30839380704,
			"-0.009": 1.33491789606,
			"-0.008": 3.67005459452,
			"-0.007": 4.55631771609,
			"-0.006": 5.00223532772,
			"-0.005": 7.20502667038,
			"-0.004": 7.2664070979,
			"-0.003": 8.60915257808,
			"-0.002": 11.6429422495,
			"-0.001": 14.3893730165,
			"0.0": 22.929099069,
			"0.001": 32.8321944687,
			"0.002": 34.4701112358,
			"0.003": 39.8361155783,
			"0.004": 14.5972240088,
			"0.005": 2.14047828861,
			"0.006": 0.646703141196,
			"0.007": 0.580013468538,
			"0.008": 0.511375888246,
			"0.009": 0.703217834103,
			"0.01": 0.0119068226537,
			"0.011": 0.0,
			"0.012": 0.0,
			"0.013": 0.0,
			"0.014": 0.0,
			"0.015": 0.0,
			"0.016": 0.0,
			"0.017": 0.0,
			"0.018": 0.0,
			"0.019": 0.0,
			"0.02": 0.0,
			"0.021": 0.0,
			"0.022": 0.0,
			"0.023": 0.0,
			"0.024": 0.0,
			"0.025": 0.0
		}
	}
}
