{
	 "smiles": "COC(=O)C1=NC2=C(C=C(Br)C=C2)C(Cl)=C1", 
	 "Tm": 437.15, 
	 "num_atms": 23, 
	 "gaussian": { 
		 "optdone": 1, 
		 "sigma_profile": "yes", 
		 "theory": "DFT", 
		 "functional": "B3LYP", 
		 "basiset": "6-31G**", 
		 "properties": { 
			 "R2extent": 8204.1133, 
			 "electric_dipole_moment_norm": 1.74754832837, 
			 "electric_quadrupole_moment_norm": 8.84672252928, 
			 "total_energy": -3660.19735585, 
			 "HOMO_LUMO_gap": 0.16134, 
			 "cosmo_polarized_energy": -9.15, 
			 "cosmo_cavitation_energy": 32.56, 
			 "cosmo_dispersion_energy": -24.42, 
			 "cosmo_repulsion_energy": 1.9, 
			 "cosmo_total_nonelectrostatic_energy": 10.04, 
			 "SMD_solvation_energy": 4.32 
		},
		"coords": [
			{
				"x": -4.6577297652,
				"y": -0.6764007905,
				"z": 2.1142359803,
				"element": "C" 
			},
			{
				"x": -3.3893739646,
				"y": -0.8200569828,
				"z": 1.4533169263,
				"element": "O" 
			},
			{
				"x": -2.3192632669,
				"y": -0.6190077413,
				"z": 2.2321035202,
				"element": "C" 
			},
			{
				"x": -2.3743120372,
				"y": -0.3354188092,
				"z": 3.4139049323,
				"element": "O" 
			},
			{
				"x": -1.01512284,
				"y": -0.7813945775,
				"z": 1.4955965395,
				"element": "C" 
			},
			{
				"x": -1.032190892,
				"y": -1.0899896589,
				"z": 0.2140669376,
				"element": "N" 
			},
			{
				"x": 0.1613507109,
				"y": -1.2288073712,
				"z": -0.419452639,
				"element": "C" 
			},
			{
				"x": 1.4283267857,
				"y": -1.0571119719,
				"z": 0.2342823258,
				"element": "C" 
			},
			{
				"x": 2.6243111226,
				"y": -1.2221016963,
				"z": -0.5076330889,
				"element": "C" 
			},
			{
				"x": 2.5526033652,
				"y": -1.5442421652,
				"z": -1.8430248661,
				"element": "C" 
			},
			{
				"x": 4.1588172923,
				"y": -1.7676754384,
				"z": -2.8462240107,
				"element": "Br" 
			},
			{
				"x": 1.314026765,
				"y": -1.7178130413,
				"z": -2.5061337419,
				"element": "C" 
			},
			{
				"x": 0.145092594,
				"y": -1.5615005627,
				"z": -1.8013769736,
				"element": "C" 
			},
			{
				"x": 1.3764971675,
				"y": -0.7246785934,
				"z": 1.6180479977,
				"element": "C" 
			},
			{
				"x": 2.8562524604,
				"y": -0.489946133,
				"z": 2.5237900865,
				"element": "Cl" 
			},
			{
				"x": 0.1688954975,
				"y": -0.5854687792,
				"z": 2.2534654819,
				"element": "C" 
			},
			{
				"x": -5.4081790724,
				"y": -0.8704870492,
				"z": 1.3487415859,
				"element": "H" 
			},
			{
				"x": -4.769015953,
				"y": 0.3335956533,
				"z": 2.5167730146,
				"element": "H" 
			},
			{
				"x": -4.7474619779,
				"y": -1.3940192783,
				"z": 2.9336765806,
				"element": "H" 
			},
			{
				"x": 3.5823249944,
				"y": -1.0940238528,
				"z": -0.0202836675,
				"element": "H" 
			},
			{
				"x": 1.3016230992,
				"y": -1.971491639,
				"z": -3.5597502395,
				"element": "H" 
			},
			{
				"x": -0.823682167,
				"y": -1.6860253328,
				"z": -2.2731670555,
				"element": "H" 
			},
			{
				"x": 0.0914100817,
				"y": -0.3336341885,
				"z": 3.3032443734,
				"element": "H" 
			}
		],
		 "valence_orbital": [ 
			{
				"type": "occ",
				"energy": -0.29999,
				"method": "rhf"
			},
			{
				"type": "occ",
				"energy": -0.29696,
				"method": "rhf"
			},
			{
				"type": "occ",
				"energy": -0.27028,
				"method": "rhf"
			},
			{
				"type": "occ",
				"energy": -0.26722,
				"method": "rhf"
			},
			{
				"type": "occ",
				"energy": -0.24733,
				"method": "rhf"
			},
			{
				"type": "unocc",
				"energy": -0.08599,
				"method": "rhf"
			},
			{
				"type": "unocc",
				"energy": -0.0542,
				"method": "rhf"
			},
			{
				"type": "unocc",
				"energy": -0.00673,
				"method": "rhf"
			},
			{
				"type": "unocc",
				"energy": -0.00485,
				"method": "rhf"
			},
			{
				"type": "unocc",
				"energy": 0.01646,
				"method": "rhf"
			}
		],
		"cosmo_sigma_profile": { 
			"-0.025": 0.0,
			"-0.024": 0.0,
			"-0.023": 0.0,
			"-0.022": 0.0,
			"-0.021": 0.0,
			"-0.02": 0.0,
			"-0.019": 0.0,
			"-0.018": 0.0,
			"-0.017": 0.0,
			"-0.016": 0.0,
			"-0.015": 0.0,
			"-0.014": 0.0,
			"-0.013": 0.0,
			"-0.012": 0.0,
			"-0.011": 0.0,
			"-0.01": 0.0,
			"-0.009": 0.0379319927083,
			"-0.008": 2.36198872513,
			"-0.007": 6.88577826501,
			"-0.006": 11.7373275146,
			"-0.005": 15.9094286141,
			"-0.004": 19.4164440726,
			"-0.003": 21.1846778346,
			"-0.002": 24.6744771104,
			"-0.001": 31.7081871245,
			"0.0": 27.6418187577,
			"0.001": 25.8007037513,
			"0.002": 18.1704481445,
			"0.003": 19.0807558719,
			"0.004": 15.0111812751,
			"0.005": 3.33249041722,
			"0.006": 3.38198515186,
			"0.007": 2.17974055634,
			"0.008": 3.10505606414,
			"0.009": 2.7841753853,
			"0.01": 3.87154644868,
			"0.011": 4.97497385603,
			"0.012": 1.76056697307,
			"0.013": 0.789412646567,
			"0.014": 1.13246224922,
			"0.015": 0.855749364111,
			"0.016": 0.27277503939,
			"0.017": 0.0,
			"0.018": 0.0,
			"0.019": 0.0,
			"0.02": 0.0,
			"0.021": 0.0,
			"0.022": 0.0,
			"0.023": 0.0,
			"0.024": 0.0,
			"0.025": 0.0
		}
	}
}
