{
	 "smiles": "OC(=O)C1=CSC(=N1)C1=CN=CC=C1", 
	 "Tm": 557.15, 
	 "num_atms": 20, 
	 "gaussian": { 
		 "optdone": 1, 
		 "sigma_profile": "yes", 
		 "theory": "DFT", 
		 "functional": "B3LYP", 
		 "basiset": "6-31G**", 
		 "properties": { 
			 "R2extent": 4522.4913, 
			 "electric_dipole_moment_norm": 2.81029204354, 
			 "electric_quadrupole_moment_norm": 16.8871555115, 
			 "total_energy": -1004.7128196, 
			 "HOMO_LUMO_gap": 0.16924, 
			 "cosmo_polarized_energy": -14.89, 
			 "cosmo_cavitation_energy": 27.48, 
			 "cosmo_dispersion_energy": -20.79, 
			 "cosmo_repulsion_energy": 1.57, 
			 "cosmo_total_nonelectrostatic_energy": 8.26, 
			 "SMD_solvation_energy": 3.46 
		},
		"coords": [
			{
				"x": -2.7062699957,
				"y": 1.32576315,
				"z": -2.0551078523,
				"element": "O" 
			},
			{
				"x": -1.5793693886,
				"y": 1.4921160788,
				"z": -2.7747937021,
				"element": "C" 
			},
			{
				"x": -1.5688667128,
				"y": 1.5956709325,
				"z": -3.9859704817,
				"element": "O" 
			},
			{
				"x": -0.3550723088,
				"y": 1.5352405163,
				"z": -1.9377915451,
				"element": "C" 
			},
			{
				"x": 0.88784473,
				"y": 1.6986011632,
				"z": -2.4965561285,
				"element": "C" 
			},
			{
				"x": 2.0903224807,
				"y": 1.706290619,
				"z": -1.2676794076,
				"element": "S" 
			},
			{
				"x": 0.8075955839,
				"y": 1.483815478,
				"z": -0.05384448,
				"element": "C" 
			},
			{
				"x": -0.3870472516,
				"y": 1.4162779533,
				"z": -0.571060032,
				"element": "N" 
			},
			{
				"x": 1.0908323627,
				"y": 1.3884326327,
				"z": 1.3815082872,
				"element": "C" 
			},
			{
				"x": 0.0246118797,
				"y": 1.2122502962,
				"z": 2.2857774301,
				"element": "C" 
			},
			{
				"x": 0.1805099518,
				"y": 1.1146825248,
				"z": 3.606733376,
				"element": "N" 
			},
			{
				"x": 1.426965663,
				"y": 1.1896545932,
				"z": 4.0931867909,
				"element": "C" 
			},
			{
				"x": 2.5558371051,
				"y": 1.3630033232,
				"z": 3.291137179,
				"element": "C" 
			},
			{
				"x": 2.3845519646,
				"y": 1.463860644,
				"z": 1.9143637551,
				"element": "C" 
			},
			{
				"x": -3.4315798527,
				"y": 1.3128829534,
				"z": -2.7020395724,
				"element": "H" 
			},
			{
				"x": 1.1228166068,
				"y": 1.8095188484,
				"z": -3.5449218434,
				"element": "H" 
			},
			{
				"x": -0.9893665777,
				"y": 1.1504062397,
				"z": 1.9000725073,
				"element": "H" 
			},
			{
				"x": 1.5264440429,
				"y": 1.1072324281,
				"z": 5.173774238,
				"element": "H" 
			},
			{
				"x": 3.5439339407,
				"y": 1.4173755998,
				"z": 3.7364315311,
				"element": "H" 
			},
			{
				"x": 3.2468057762,
				"y": 1.5992240256,
				"z": 1.2666799505,
				"element": "H" 
			}
		],
		 "valence_orbital": [ 
			{
				"type": "occ",
				"energy": -0.29759,
				"method": "rhf"
			},
			{
				"type": "occ",
				"energy": -0.28662,
				"method": "rhf"
			},
			{
				"type": "occ",
				"energy": -0.2815,
				"method": "rhf"
			},
			{
				"type": "occ",
				"energy": -0.26095,
				"method": "rhf"
			},
			{
				"type": "occ",
				"energy": -0.24271,
				"method": "rhf"
			},
			{
				"type": "unocc",
				"energy": -0.07347,
				"method": "rhf"
			},
			{
				"type": "unocc",
				"energy": -0.04264,
				"method": "rhf"
			},
			{
				"type": "unocc",
				"energy": -0.03158,
				"method": "rhf"
			},
			{
				"type": "unocc",
				"energy": 0.00149,
				"method": "rhf"
			},
			{
				"type": "unocc",
				"energy": 0.02424,
				"method": "rhf"
			}
		],
		"cosmo_sigma_profile": { 
			"-0.025": 0.0,
			"-0.024": 0.0,
			"-0.023": 0.0,
			"-0.022": 0.0,
			"-0.021": 0.0,
			"-0.02": 0.0,
			"-0.019": 0.350387063948,
			"-0.018": 0.8809356225,
			"-0.017": 1.15550942387,
			"-0.016": 0.78138133909,
			"-0.015": 0.57289489926,
			"-0.014": 0.429999046843,
			"-0.013": 0.515931649157,
			"-0.012": 1.10313665424,
			"-0.011": 1.33043281651,
			"-0.01": 1.97471274098,
			"-0.009": 2.12378108144,
			"-0.008": 5.79768918572,
			"-0.007": 9.74868119188,
			"-0.006": 9.59630810079,
			"-0.005": 9.11253152167,
			"-0.004": 10.8056514901,
			"-0.003": 13.0304707654,
			"-0.002": 15.1433299145,
			"-0.001": 20.2731839114,
			"0.0": 28.0452204404,
			"0.001": 22.945484012,
			"0.002": 13.0581623557,
			"0.003": 5.94651037633,
			"0.004": 6.2523413057,
			"0.005": 4.89940130524,
			"0.006": 3.40463458816,
			"0.007": 5.22897000777,
			"0.008": 4.35206419207,
			"0.009": 4.29735367829,
			"0.01": 4.31703052523,
			"0.011": 6.743715905,
			"0.012": 5.56683003598,
			"0.013": 1.97933862183,
			"0.014": 0.849473847159,
			"0.015": 0.945118494155,
			"0.016": 0.598666462171,
			"0.017": 0.0148653465181,
			"0.018": 0.0,
			"0.019": 0.0,
			"0.02": 0.0,
			"0.021": 0.0,
			"0.022": 0.0,
			"0.023": 0.0,
			"0.024": 0.0,
			"0.025": 0.0
		}
	}
}
