{
	 "smiles": "CCS(=O)(=O)OC1=CC2=C(OCC2(C)C)C=C1", 
	 "Tm": 303.15, 
	 "num_atms": 33, 
	 "gaussian": { 
		 "optdone": 1, 
		 "sigma_profile": "yes", 
		 "theory": "DFT", 
		 "functional": "B3LYP", 
		 "basiset": "6-31G**", 
		 "properties": { 
			 "R2extent": 5855.024, 
			 "electric_dipole_moment_norm": 5.93650472416, 
			 "electric_quadrupole_moment_norm": 17.7430273944, 
			 "total_energy": -1165.93981012, 
			 "HOMO_LUMO_gap": 0.20179, 
			 "cosmo_polarized_energy": -16.41, 
			 "cosmo_cavitation_energy": 36.95, 
			 "cosmo_dispersion_energy": -26.06, 
			 "cosmo_repulsion_energy": 1.99, 
			 "cosmo_total_nonelectrostatic_energy": 12.88, 
			 "SMD_solvation_energy": 5.6 
		},
		"coords": [
			{
				"x": 2.4323526721,
				"y": 0.2644255975,
				"z": -3.8986015952,
				"element": "C" 
			},
			{
				"x": 1.1069847068,
				"y": 0.3790959532,
				"z": -3.1474417671,
				"element": "C" 
			},
			{
				"x": 0.0485024462,
				"y": -1.0521998165,
				"z": -3.4807324611,
				"element": "S" 
			},
			{
				"x": -0.471637237,
				"y": -0.9745421891,
				"z": -4.8383065223,
				"element": "O" 
			},
			{
				"x": 0.7117896786,
				"y": -2.2566524337,
				"z": -2.9865272146,
				"element": "O" 
			},
			{
				"x": -1.2741920207,
				"y": -0.7070317641,
				"z": -2.5266674327,
				"element": "O" 
			},
			{
				"x": -1.2058131068,
				"y": -0.9054462908,
				"z": -1.1380033771,
				"element": "C" 
			},
			{
				"x": -1.2624838949,
				"y": 0.2300396268,
				"z": -0.3204111386,
				"element": "C" 
			},
			{
				"x": -1.2958536785,
				"y": 0.0483777067,
				"z": 1.0559261501,
				"element": "C" 
			},
			{
				"x": -1.2572189291,
				"y": -1.2436518611,
				"z": 1.5873273598,
				"element": "C" 
			},
			{
				"x": -1.2874128182,
				"y": -1.2628670832,
				"z": 2.952051414,
				"element": "O" 
			},
			{
				"x": -1.6307252449,
				"y": 0.0767963708,
				"z": 3.3811044515,
				"element": "C" 
			},
			{
				"x": -1.2951246883,
				"y": 1.0448389461,
				"z": 2.2077013997,
				"element": "C" 
			},
			{
				"x": 0.1127093932,
				"y": 1.6551065552,
				"z": 2.383441939,
				"element": "C" 
			},
			{
				"x": -2.3477974462,
				"y": 2.1547495081,
				"z": 2.0711864535,
				"element": "C" 
			},
			{
				"x": -1.1934330594,
				"y": -2.3772723048,
				"z": 0.7829837617,
				"element": "C" 
			},
			{
				"x": -1.1741866871,
				"y": -2.1949448897,
				"z": -0.6026409159,
				"element": "C" 
			},
			{
				"x": 2.9783222924,
				"y": -0.6301783312,
				"z": -3.5903791352,
				"element": "H" 
			},
			{
				"x": 2.2666256661,
				"y": 0.2198728628,
				"z": -4.9778816261,
				"element": "H" 
			},
			{
				"x": 3.04934378,
				"y": 1.1407549134,
				"z": -3.6805650306,
				"element": "H" 
			},
			{
				"x": 1.2464103286,
				"y": 0.404632213,
				"z": -2.0633405219,
				"element": "H" 
			},
			{
				"x": 0.5258995823,
				"y": 1.2516503311,
				"z": -3.4556725183,
				"element": "H" 
			},
			{
				"x": -1.3015325834,
				"y": 1.2157869063,
				"z": -0.7742700102,
				"element": "H" 
			},
			{
				"x": -2.7041322096,
				"y": 0.0945581622,
				"z": 3.610977329,
				"element": "H" 
			},
			{
				"x": -1.0682020693,
				"y": 0.2884006564,
				"z": 4.2937996289,
				"element": "H" 
			},
			{
				"x": 0.1388085579,
				"y": 2.3277101245,
				"z": 3.2485816964,
				"element": "H" 
			},
			{
				"x": 0.8629345568,
				"y": 0.8727936992,
				"z": 2.5344285996,
				"element": "H" 
			},
			{
				"x": 0.3995412102,
				"y": 2.2320166654,
				"z": 1.498154781,
				"element": "H" 
			},
			{
				"x": -3.346924439,
				"y": 1.7377021513,
				"z": 1.9131801441,
				"element": "H" 
			},
			{
				"x": -2.118274698,
				"y": 2.8106119924,
				"z": 1.2248192984,
				"element": "H" 
			},
			{
				"x": -2.3745539881,
				"y": 2.7795483355,
				"z": 2.9712521136,
				"element": "H" 
			},
			{
				"x": -1.1723777373,
				"y": -3.3690431433,
				"z": 1.2206448641,
				"element": "H" 
			},
			{
				"x": -1.1329483353,
				"y": -3.0449391706,
				"z": -1.2724201173,
				"element": "H" 
			}
		],
		 "valence_orbital": [ 
			{
				"type": "occ",
				"energy": -0.31666,
				"method": "rhf"
			},
			{
				"type": "occ",
				"energy": -0.30551,
				"method": "rhf"
			},
			{
				"type": "occ",
				"energy": -0.30312,
				"method": "rhf"
			},
			{
				"type": "occ",
				"energy": -0.25984,
				"method": "rhf"
			},
			{
				"type": "occ",
				"energy": -0.21843,
				"method": "rhf"
			},
			{
				"type": "unocc",
				"energy": -0.01664,
				"method": "rhf"
			},
			{
				"type": "unocc",
				"energy": -0.00451,
				"method": "rhf"
			},
			{
				"type": "unocc",
				"energy": 0.04472,
				"method": "rhf"
			},
			{
				"type": "unocc",
				"energy": 0.05785,
				"method": "rhf"
			},
			{
				"type": "unocc",
				"energy": 0.07104,
				"method": "rhf"
			}
		],
		"cosmo_sigma_profile": { 
			"-0.025": 0.0,
			"-0.024": 0.0,
			"-0.023": 0.0,
			"-0.022": 0.0,
			"-0.021": 0.0,
			"-0.02": 0.0,
			"-0.019": 0.0,
			"-0.018": 0.0,
			"-0.017": 0.0,
			"-0.016": 0.0,
			"-0.015": 0.0,
			"-0.014": 0.0,
			"-0.013": 0.0,
			"-0.012": 0.00175775544451,
			"-0.011": 0.450871069801,
			"-0.01": 0.518492485256,
			"-0.009": 1.56314501117,
			"-0.008": 3.56422613321,
			"-0.007": 5.3479335602,
			"-0.006": 10.8166927743,
			"-0.005": 21.3649350864,
			"-0.004": 30.7598119965,
			"-0.003": 33.262737475,
			"-0.002": 26.7897399959,
			"-0.001": 24.7668289156,
			"0.0": 23.5911287459,
			"0.001": 17.5960814749,
			"0.002": 11.4758712946,
			"0.003": 14.6337231627,
			"0.004": 11.1170159937,
			"0.005": 6.95934863074,
			"0.006": 5.85396958074,
			"0.007": 5.23964063295,
			"0.008": 6.47673959204,
			"0.009": 8.06138243247,
			"0.01": 13.3447341082,
			"0.011": 6.94538469366,
			"0.012": 0.352459337666,
			"0.013": 0.0,
			"0.014": 0.0,
			"0.015": 0.0,
			"0.016": 0.0,
			"0.017": 0.0,
			"0.018": 0.0,
			"0.019": 0.0,
			"0.02": 0.0,
			"0.021": 0.0,
			"0.022": 0.0,
			"0.023": 0.0,
			"0.024": 0.0,
			"0.025": 0.0
		}
	}
}
