{
	 "smiles": "O=CC1=NOC(=C1)C1=CC=CO1", 
	 "Tm": 333.65, 
	 "num_atms": 17, 
	 "gaussian": { 
		 "optdone": 1, 
		 "sigma_profile": "yes", 
		 "theory": "DFT", 
		 "functional": "B3LYP", 
		 "basiset": "6-31G**", 
		 "properties": { 
			 "R2extent": 2605.9405, 
			 "electric_dipole_moment_norm": 6.45193687585, 
			 "electric_quadrupole_moment_norm": 11.5259268551, 
			 "total_energy": -588.181467439, 
			 "HOMO_LUMO_gap": 0.15542, 
			 "cosmo_polarized_energy": -14.54, 
			 "cosmo_cavitation_energy": 23.6, 
			 "cosmo_dispersion_energy": -17.2, 
			 "cosmo_repulsion_energy": 1.35, 
			 "cosmo_total_nonelectrostatic_energy": 7.76, 
			 "SMD_solvation_energy": 6.17 
		},
		"coords": [
			{
				"x": 4.3005334676,
				"y": -1.6599130983,
				"z": -1.65927273,
				"element": "O" 
			},
			{
				"x": 3.7139190735,
				"y": -1.139628988,
				"z": -0.737029298,
				"element": "C" 
			},
			{
				"x": 2.2419184093,
				"y": -0.9483865664,
				"z": -0.6624986919,
				"element": "C" 
			},
			{
				"x": 1.4423467932,
				"y": -1.348353922,
				"z": -1.6371407939,
				"element": "N" 
			},
			{
				"x": 0.1659758329,
				"y": -1.0084510263,
				"z": -1.221515053,
				"element": "O" 
			},
			{
				"x": 0.2183192777,
				"y": -0.4096928894,
				"z": -0.0048710031,
				"element": "C" 
			},
			{
				"x": 1.5241955743,
				"y": -0.3430676129,
				"z": 0.4048596856,
				"element": "C" 
			},
			{
				"x": -1.0203675156,
				"y": 0.0173835262,
				"z": 0.5937440071,
				"element": "C" 
			},
			{
				"x": -1.3064753831,
				"y": 0.6383682154,
				"z": 1.7840898007,
				"element": "C" 
			},
			{
				"x": -2.7229371403,
				"y": 0.8042279602,
				"z": 1.818724984,
				"element": "C" 
			},
			{
				"x": -3.1949604848,
				"y": 0.2748501593,
				"z": 0.6531271346,
				"element": "C" 
			},
			{
				"x": -2.1747598013,
				"y": -0.2075758327,
				"z": -0.1031235247,
				"element": "O" 
			},
			{
				"x": 4.2547989916,
				"y": -0.7545380753,
				"z": 0.1545855057,
				"element": "H" 
			},
			{
				"x": 1.9175039407,
				"y": 0.0705017204,
				"z": 1.3206833342,
				"element": "H" 
			},
			{
				"x": -0.5939323446,
				"y": 0.9383649594,
				"z": 2.5387614918,
				"element": "H" 
			},
			{
				"x": -3.3088820737,
				"y": 1.2563468502,
				"z": 2.6053895043,
				"element": "H" 
			},
			{
				"x": -4.1815966173,
				"y": 0.16816462,
				"z": 0.2299856466,
				"element": "H" 
			}
		],
		 "valence_orbital": [ 
			{
				"type": "occ",
				"energy": -0.31536,
				"method": "rhf"
			},
			{
				"type": "occ",
				"energy": -0.31175,
				"method": "rhf"
			},
			{
				"type": "occ",
				"energy": -0.29796,
				"method": "rhf"
			},
			{
				"type": "occ",
				"energy": -0.26847,
				"method": "rhf"
			},
			{
				"type": "occ",
				"energy": -0.23224,
				"method": "rhf"
			},
			{
				"type": "unocc",
				"energy": -0.07682,
				"method": "rhf"
			},
			{
				"type": "unocc",
				"energy": -0.04759,
				"method": "rhf"
			},
			{
				"type": "unocc",
				"energy": 0.0284,
				"method": "rhf"
			},
			{
				"type": "unocc",
				"energy": 0.07262,
				"method": "rhf"
			},
			{
				"type": "unocc",
				"energy": 0.07684,
				"method": "rhf"
			}
		],
		"cosmo_sigma_profile": { 
			"-0.025": 0.0,
			"-0.024": 0.0,
			"-0.023": 0.0,
			"-0.022": 0.0,
			"-0.021": 0.0,
			"-0.02": 0.0,
			"-0.019": 0.0,
			"-0.018": 0.0,
			"-0.017": 0.0,
			"-0.016": 0.0,
			"-0.015": 0.0,
			"-0.014": 0.0,
			"-0.013": 0.0,
			"-0.012": 0.0,
			"-0.011": 0.0,
			"-0.01": 2.73324011156,
			"-0.009": 7.64913104177,
			"-0.008": 10.8750149863,
			"-0.007": 10.1158317862,
			"-0.006": 9.12498136701,
			"-0.005": 9.4911635893,
			"-0.004": 9.0889786442,
			"-0.003": 7.98065505035,
			"-0.002": 12.1401447487,
			"-0.001": 13.2221974196,
			"0.0": 14.0515138161,
			"0.001": 14.3301496744,
			"0.002": 9.60919564429,
			"0.003": 10.1318683127,
			"0.004": 7.74345200585,
			"0.005": 4.95520425454,
			"0.006": 6.52489621492,
			"0.007": 7.36338876694,
			"0.008": 5.20096612184,
			"0.009": 4.83475404648,
			"0.01": 5.85667333211,
			"0.011": 5.38781030246,
			"0.012": 2.3182829231,
			"0.013": 0.83475444289,
			"0.014": 0.025631955281,
			"0.015": 0.0,
			"0.016": 0.0,
			"0.017": 0.0,
			"0.018": 0.0,
			"0.019": 0.0,
			"0.02": 0.0,
			"0.021": 0.0,
			"0.022": 0.0,
			"0.023": 0.0,
			"0.024": 0.0,
			"0.025": 0.0
		}
	}
}
