{
	 "smiles": "CCNC(=O)OCC(F)(F)F", 
	 "Tm": 301.15, 
	 "num_atms": 19, 
	 "gaussian": { 
		 "optdone": 1, 
		 "sigma_profile": "yes", 
		 "theory": "DFT", 
		 "functional": "B3LYP", 
		 "basiset": "6-31G**", 
		 "properties": { 
			 "R2extent": 1973.8234, 
			 "electric_dipole_moment_norm": 2.7144601397, 
			 "electric_quadrupole_moment_norm": 11.7163326775, 
			 "total_energy": -700.103225772, 
			 "HOMO_LUMO_gap": 0.30496, 
			 "cosmo_polarized_energy": -9.28, 
			 "cosmo_cavitation_energy": 24.63, 
			 "cosmo_dispersion_energy": -16.8, 
			 "cosmo_repulsion_energy": 1.33, 
			 "cosmo_total_nonelectrostatic_energy": 9.17, 
			 "SMD_solvation_energy": 5.97 
		},
		"coords": [
			{
				"x": -1.3118065984,
				"y": 2.4967930912,
				"z": -0.903216608,
				"element": "C" 
			},
			{
				"x": -2.4461697266,
				"y": 1.8678847215,
				"z": -0.0885770809,
				"element": "C" 
			},
			{
				"x": -2.0171896894,
				"y": 1.3363396144,
				"z": 1.2060368729,
				"element": "N" 
			},
			{
				"x": -1.3048284768,
				"y": 0.1943559259,
				"z": 1.3944676993,
				"element": "C" 
			},
			{
				"x": -0.7684388952,
				"y": -0.1410672147,
				"z": 2.4325420283,
				"element": "O" 
			},
			{
				"x": -1.3063344219,
				"y": -0.5667028606,
				"z": 0.245115151,
				"element": "O" 
			},
			{
				"x": -0.4344986202,
				"y": -1.685996434,
				"z": 0.2471308151,
				"element": "C" 
			},
			{
				"x": 0.7686451373,
				"y": -1.372987913,
				"z": -0.62563172,
				"element": "C" 
			},
			{
				"x": 1.4281359538,
				"y": -0.2846325422,
				"z": -0.181102718,
				"element": "F" 
			},
			{
				"x": 0.411618559,
				"y": -1.1329949001,
				"z": -1.9037034123,
				"element": "F" 
			},
			{
				"x": 1.6223896907,
				"y": -2.4171423075,
				"z": -0.6219750216,
				"element": "F" 
			},
			{
				"x": -1.6947767748,
				"y": 2.8827753035,
				"z": -1.8538620762,
				"element": "H" 
			},
			{
				"x": -0.8486993818,
				"y": 3.3274945508,
				"z": -0.3606691989,
				"element": "H" 
			},
			{
				"x": -0.5392725593,
				"y": 1.7546347857,
				"z": -1.1216127239,
				"element": "H" 
			},
			{
				"x": -2.9119631707,
				"y": 1.0558945841,
				"z": -0.6513369221,
				"element": "H" 
			},
			{
				"x": -3.2282965078,
				"y": 2.6058187967,
				"z": 0.1163567147,
				"element": "H" 
			},
			{
				"x": -1.974266294,
				"y": 1.9614703019,
				"z": 1.9973782116,
				"element": "H" 
			},
			{
				"x": -0.966579277,
				"y": -2.5397630558,
				"z": -0.1782854043,
				"element": "H" 
			},
			{
				"x": -0.0978689469,
				"y": -1.9102744479,
				"z": 1.2611453931,
				"element": "H" 
			}
		],
		 "valence_orbital": [ 
			{
				"type": "occ",
				"energy": -0.36637,
				"method": "rhf"
			},
			{
				"type": "occ",
				"energy": -0.35802,
				"method": "rhf"
			},
			{
				"type": "occ",
				"energy": -0.30854,
				"method": "rhf"
			},
			{
				"type": "occ",
				"energy": -0.28311,
				"method": "rhf"
			},
			{
				"type": "occ",
				"energy": -0.26207,
				"method": "rhf"
			},
			{
				"type": "unocc",
				"energy": 0.04289,
				"method": "rhf"
			},
			{
				"type": "unocc",
				"energy": 0.07074,
				"method": "rhf"
			},
			{
				"type": "unocc",
				"energy": 0.10242,
				"method": "rhf"
			},
			{
				"type": "unocc",
				"energy": 0.11492,
				"method": "rhf"
			},
			{
				"type": "unocc",
				"energy": 0.11963,
				"method": "rhf"
			}
		],
		"cosmo_sigma_profile": { 
			"-0.025": 0.0,
			"-0.024": 0.0,
			"-0.023": 0.0,
			"-0.022": 0.0,
			"-0.021": 0.0,
			"-0.02": 0.0,
			"-0.019": 0.0,
			"-0.018": 0.0,
			"-0.017": 0.0,
			"-0.016": 0.0,
			"-0.015": 0.124567297548,
			"-0.014": 1.28034922444,
			"-0.013": 0.914602223712,
			"-0.012": 1.25631717263,
			"-0.011": 0.882483285463,
			"-0.01": 1.21109017704,
			"-0.009": 3.28726471389,
			"-0.008": 3.84600929754,
			"-0.007": 4.68246741889,
			"-0.006": 6.23597266026,
			"-0.005": 7.31797031661,
			"-0.004": 10.1959866583,
			"-0.003": 12.2009938711,
			"-0.002": 13.0438527568,
			"-0.001": 16.1999354433,
			"0.0": 19.6667773467,
			"0.001": 16.1696388734,
			"0.002": 25.6972206636,
			"0.003": 25.0045036554,
			"0.004": 4.77093519978,
			"0.005": 3.59308800649,
			"0.006": 1.77889231422,
			"0.007": 1.3556412847,
			"0.008": 1.24943610644,
			"0.009": 1.62090956359,
			"0.01": 1.43601238464,
			"0.011": 1.31263952108,
			"0.012": 4.23812288728,
			"0.013": 3.53929719562,
			"0.014": 0.171684063477,
			"0.015": 0.0,
			"0.016": 0.0,
			"0.017": 0.0,
			"0.018": 0.0,
			"0.019": 0.0,
			"0.02": 0.0,
			"0.021": 0.0,
			"0.022": 0.0,
			"0.023": 0.0,
			"0.024": 0.0,
			"0.025": 0.0
		}
	}
}
