{
	 "smiles": "NCCCCNCCCN", 
	 "Tm": 296.95, 
	 "num_atms": 29, 
	 "gaussian": { 
		 "optdone": 1, 
		 "sigma_profile": "yes", 
		 "theory": "DFT", 
		 "functional": "B3LYP", 
		 "basiset": "6-31G**", 
		 "properties": { 
			 "R2extent": 3092.9927, 
			 "electric_dipole_moment_norm": 0.49527225846, 
			 "electric_quadrupole_moment_norm": 13.5139165163, 
			 "total_energy": -442.43671236, 
			 "HOMO_LUMO_gap": 0.27587, 
			 "cosmo_polarized_energy": -12.0, 
			 "cosmo_cavitation_energy": 29.62, 
			 "cosmo_dispersion_energy": -21.26, 
			 "cosmo_repulsion_energy": 1.8, 
			 "cosmo_total_nonelectrostatic_energy": 10.15, 
			 "SMD_solvation_energy": 0.52 
		},
		"coords": [
			{
				"x": -0.4125878318,
				"y": 4.198563213,
				"z": -2.7686642911,
				"element": "N" 
			},
			{
				"x": -1.228533636,
				"y": 4.1105977086,
				"z": -1.5495840883,
				"element": "C" 
			},
			{
				"x": -0.8367512005,
				"y": 2.9019206243,
				"z": -0.6930545288,
				"element": "C" 
			},
			{
				"x": -1.0917438942,
				"y": 1.5501687395,
				"z": -1.3713764589,
				"element": "C" 
			},
			{
				"x": -0.7492650098,
				"y": 0.3369399131,
				"z": -0.4963007186,
				"element": "C" 
			},
			{
				"x": 0.6653136835,
				"y": 0.3266489517,
				"z": -0.1352842637,
				"element": "N" 
			},
			{
				"x": 1.1224186493,
				"y": -0.6771635428,
				"z": 0.824372864,
				"element": "C" 
			},
			{
				"x": 1.5826323459,
				"y": -2.0378862986,
				"z": 0.2638230146,
				"element": "C" 
			},
			{
				"x": 0.511293328,
				"y": -2.898613219,
				"z": -0.4322585059,
				"element": "C" 
			},
			{
				"x": -0.6530358617,
				"y": -3.2851640829,
				"z": 0.3686524253,
				"element": "N" 
			},
			{
				"x": -0.5812012954,
				"y": 5.0885299056,
				"z": -3.2309083052,
				"element": "H" 
			},
			{
				"x": -0.7022619019,
				"y": 3.4840304567,
				"z": -3.4318879186,
				"element": "H" 
			},
			{
				"x": -2.3168899126,
				"y": 4.0771688175,
				"z": -1.7463181596,
				"element": "H" 
			},
			{
				"x": -1.0483825205,
				"y": 5.0228885102,
				"z": -0.9686138372,
				"element": "H" 
			},
			{
				"x": 0.2212932767,
				"y": 2.9764922835,
				"z": -0.4257995402,
				"element": "H" 
			},
			{
				"x": -1.4076595673,
				"y": 2.9419296946,
				"z": 0.2451724854,
				"element": "H" 
			},
			{
				"x": -0.5065160925,
				"y": 1.4851234366,
				"z": -2.3000582004,
				"element": "H" 
			},
			{
				"x": -2.1475285576,
				"y": 1.4716012482,
				"z": -1.6671026938,
				"element": "H" 
			},
			{
				"x": -1.3266706617,
				"y": 0.3964785381,
				"z": 0.437105215,
				"element": "H" 
			},
			{
				"x": -1.0936663707,
				"y": -0.5755335218,
				"z": -1.0176405378,
				"element": "H" 
			},
			{
				"x": 1.246729299,
				"y": 0.3208081027,
				"z": -0.9692981843,
				"element": "H" 
			},
			{
				"x": 0.3178328407,
				"y": -0.8293691303,
				"z": 1.5551547834,
				"element": "H" 
			},
			{
				"x": 1.9632269568,
				"y": -0.2550308605,
				"z": 1.3926805312,
				"element": "H" 
			},
			{
				"x": 2.4088692579,
				"y": -1.8655436642,
				"z": -0.4422321993,
				"element": "H" 
			},
			{
				"x": 2.0166243345,
				"y": -2.6149921633,
				"z": 1.0946012496,
				"element": "H" 
			},
			{
				"x": 0.9860469466,
				"y": -3.8194938209,
				"z": -0.7936981235,
				"element": "H" 
			},
			{
				"x": 0.1439070011,
				"y": -2.382404063,
				"z": -1.3266245813,
				"element": "H" 
			},
			{
				"x": -1.1730157787,
				"y": -2.4601779111,
				"z": 0.6567872297,
				"element": "H" 
			},
			{
				"x": -0.3494778273,
				"y": -3.7455178655,
				"z": 1.2244553385,
				"element": "H" 
			}
		],
		 "valence_orbital": [ 
			{
				"type": "occ",
				"energy": -0.32181,
				"method": "rhf"
			},
			{
				"type": "occ",
				"energy": -0.31575,
				"method": "rhf"
			},
			{
				"type": "occ",
				"energy": -0.22992,
				"method": "rhf"
			},
			{
				"type": "occ",
				"energy": -0.22797,
				"method": "rhf"
			},
			{
				"type": "occ",
				"energy": -0.20677,
				"method": "rhf"
			},
			{
				"type": "unocc",
				"energy": 0.0691,
				"method": "rhf"
			},
			{
				"type": "unocc",
				"energy": 0.08064,
				"method": "rhf"
			},
			{
				"type": "unocc",
				"energy": 0.09623,
				"method": "rhf"
			},
			{
				"type": "unocc",
				"energy": 0.10818,
				"method": "rhf"
			},
			{
				"type": "unocc",
				"energy": 0.12237,
				"method": "rhf"
			}
		],
		"cosmo_sigma_profile": { 
			"-0.025": 0.0,
			"-0.024": 0.0,
			"-0.023": 0.0,
			"-0.022": 0.0,
			"-0.021": 0.0,
			"-0.02": 0.0,
			"-0.019": 0.0,
			"-0.018": 0.0,
			"-0.017": 0.0,
			"-0.016": 0.0,
			"-0.015": 0.0,
			"-0.014": 0.0,
			"-0.013": 0.0,
			"-0.012": 0.0,
			"-0.011": 0.0,
			"-0.01": 0.30268424161,
			"-0.009": 3.354922936,
			"-0.008": 5.43625895987,
			"-0.007": 6.65583423792,
			"-0.006": 8.05580491854,
			"-0.005": 8.21712979536,
			"-0.004": 10.6796900168,
			"-0.003": 19.010637318,
			"-0.002": 31.8920445665,
			"-0.001": 37.9238690639,
			"0.0": 31.5024402528,
			"0.001": 15.7275689187,
			"0.002": 6.44829765522,
			"0.003": 5.25387048903,
			"0.004": 4.30374154584,
			"0.005": 2.35106356625,
			"0.006": 2.55749916406,
			"0.007": 2.8654106515,
			"0.008": 2.90389316042,
			"0.009": 2.48155755236,
			"0.01": 1.95843170947,
			"0.011": 2.20514053709,
			"0.012": 2.46615739942,
			"0.013": 1.51577356421,
			"0.014": 1.8622750762,
			"0.015": 2.03947226067,
			"0.016": 1.23888372011,
			"0.017": 0.893767546374,
			"0.018": 1.3352502924,
			"0.019": 1.28255528101,
			"0.02": 1.07594213506,
			"0.021": 0.194008001375,
			"0.022": 0.0,
			"0.023": 0.0,
			"0.024": 0.0,
			"0.025": 0.0
		}
	}
}
