{
	 "smiles": "[O-][N+](=O)C1=CC=C(Br)C2=C1C(C=NC1=CC=CC=C1)=CC=C2", 
	 "Tm": 505.15, 
	 "num_atms": 33, 
	 "gaussian": { 
		 "optdone": 1, 
		 "sigma_profile": "yes", 
		 "theory": "DFT", 
		 "functional": "B3LYP", 
		 "basiset": "6-31G**", 
		 "properties": { 
			 "R2extent": 8318.1117, 
			 "electric_dipole_moment_norm": 4.56022207025, 
			 "electric_quadrupole_moment_norm": 13.1355022462, 
			 "total_energy": -3485.66468262, 
			 "HOMO_LUMO_gap": 0.11781, 
			 "cosmo_polarized_energy": -13.14, 
			 "cosmo_cavitation_energy": 39.43, 
			 "cosmo_dispersion_energy": -27.03, 
			 "cosmo_repulsion_energy": 2.05, 
			 "cosmo_total_nonelectrostatic_energy": 14.46, 
			 "SMD_solvation_energy": 5.64 
		},
		"coords": [
			{
				"x": -1.6696766954,
				"y": -1.7983477157,
				"z": -2.8468457129,
				"element": "O" 
			},
			{
				"x": -1.2326930805,
				"y": -1.9090269549,
				"z": -1.7021466127,
				"element": "N" 
			},
			{
				"x": -0.4281424522,
				"y": -2.7670167073,
				"z": -1.3386768862,
				"element": "O" 
			},
			{
				"x": -1.7708391101,
				"y": -1.0084745946,
				"z": -0.670683118,
				"element": "C" 
			},
			{
				"x": -3.112988043,
				"y": -0.7290076478,
				"z": -0.7892522513,
				"element": "C" 
			},
			{
				"x": -3.7962243266,
				"y": -0.0800699959,
				"z": 0.253222336,
				"element": "C" 
			},
			{
				"x": -3.1183901597,
				"y": 0.23764613,
				"z": 1.4063871118,
				"element": "C" 
			},
			{
				"x": -4.1273609545,
				"y": 1.028516606,
				"z": 2.8218452756,
				"element": "Br" 
			},
			{
				"x": -1.7182243593,
				"y": -0.0016413311,
				"z": 1.5579659044,
				"element": "C" 
			},
			{
				"x": -0.9954290048,
				"y": -0.5885097656,
				"z": 0.4547528844,
				"element": "C" 
			},
			{
				"x": 0.4312613461,
				"y": -0.6816011083,
				"z": 0.5531096713,
				"element": "C" 
			},
			{
				"x": 1.3483087717,
				"y": -0.9858475634,
				"z": -0.5962292838,
				"element": "C" 
			},
			{
				"x": 1.5427472751,
				"y": -0.2904676446,
				"z": -1.6460345534,
				"element": "N" 
			},
			{
				"x": 0.8871562816,
				"y": 0.9333866806,
				"z": -1.9096874848,
				"element": "C" 
			},
			{
				"x": 1.0490584842,
				"y": 2.0552598742,
				"z": -1.0805742401,
				"element": "C" 
			},
			{
				"x": 0.4709809723,
				"y": 3.2753560854,
				"z": -1.431584044,
				"element": "C" 
			},
			{
				"x": -0.2808647715,
				"y": 3.3927135249,
				"z": -2.6015262584,
				"element": "C" 
			},
			{
				"x": -0.4362676972,
				"y": 2.2790208687,
				"z": -3.4313126061,
				"element": "C" 
			},
			{
				"x": 0.1566319816,
				"y": 1.0621186117,
				"z": -3.1023288773,
				"element": "C" 
			},
			{
				"x": 1.0509248127,
				"y": -0.3901806334,
				"z": 1.7552980838,
				"element": "C" 
			},
			{
				"x": 0.3277884442,
				"y": 0.0941097781,
				"z": 2.8630785676,
				"element": "C" 
			},
			{
				"x": -1.022291717,
				"y": 0.3212305237,
				"z": 2.7519491318,
				"element": "C" 
			},
			{
				"x": -3.6411270508,
				"y": -1.0567704382,
				"z": -1.6762066475,
				"element": "H" 
			},
			{
				"x": -4.8554982964,
				"y": 0.1264449335,
				"z": 0.1627082464,
				"element": "H" 
			},
			{
				"x": 1.9671101571,
				"y": -1.8789804442,
				"z": -0.4792955474,
				"element": "H" 
			},
			{
				"x": 1.6425709904,
				"y": 1.9698615761,
				"z": -0.1762373337,
				"element": "H" 
			},
			{
				"x": 0.6098752803,
				"y": 4.137028832,
				"z": -0.7843127266,
				"element": "H" 
			},
			{
				"x": -0.7324760986,
				"y": 4.3432246422,
				"z": -2.869429023,
				"element": "H" 
			},
			{
				"x": -1.0132408632,
				"y": 2.3596542592,
				"z": -4.3483152605,
				"element": "H" 
			},
			{
				"x": 0.0498311102,
				"y": 0.1971937935,
				"z": -3.7483344265,
				"element": "H" 
			},
			{
				"x": 2.130463158,
				"y": -0.4943965095,
				"z": 1.8265577548,
				"element": "H" 
			},
			{
				"x": 0.8465454792,
				"y": 0.3242315872,
				"z": 3.7883319264,
				"element": "H" 
			},
			{
				"x": -1.577619864,
				"y": 0.7477407477,
				"z": 3.5779059996,
				"element": "H" 
			}
		],
		 "valence_orbital": [ 
			{
				"type": "occ",
				"energy": -0.28003,
				"method": "rhf"
			},
			{
				"type": "occ",
				"energy": -0.27836,
				"method": "rhf"
			},
			{
				"type": "occ",
				"energy": -0.24927,
				"method": "rhf"
			},
			{
				"type": "occ",
				"energy": -0.24181,
				"method": "rhf"
			},
			{
				"type": "occ",
				"energy": -0.21685,
				"method": "rhf"
			},
			{
				"type": "unocc",
				"energy": -0.09904,
				"method": "rhf"
			},
			{
				"type": "unocc",
				"energy": -0.06471,
				"method": "rhf"
			},
			{
				"type": "unocc",
				"energy": -0.04555,
				"method": "rhf"
			},
			{
				"type": "unocc",
				"energy": -0.02209,
				"method": "rhf"
			},
			{
				"type": "unocc",
				"energy": -0.01166,
				"method": "rhf"
			}
		],
		"cosmo_sigma_profile": { 
			"-0.025": 0.0,
			"-0.024": 0.0,
			"-0.023": 0.0,
			"-0.022": 0.0,
			"-0.021": 0.0,
			"-0.02": 0.0,
			"-0.019": 0.0,
			"-0.018": 0.0,
			"-0.017": 0.0,
			"-0.016": 0.0,
			"-0.015": 0.0,
			"-0.014": 0.0,
			"-0.013": 0.0,
			"-0.012": 0.0,
			"-0.011": 0.0,
			"-0.01": 0.0,
			"-0.009": 1.66316908587,
			"-0.008": 6.35230326115,
			"-0.007": 12.7059059827,
			"-0.006": 15.4085922823,
			"-0.005": 21.8730161472,
			"-0.004": 21.2396859746,
			"-0.003": 21.0335403846,
			"-0.002": 20.2938044444,
			"-0.001": 27.3711198878,
			"0.0": 30.352636734,
			"0.001": 26.9786833555,
			"0.002": 24.9206486071,
			"0.003": 22.3961632063,
			"0.004": 17.0409217429,
			"0.005": 14.685618412,
			"0.006": 11.061431231,
			"0.007": 9.08758333225,
			"0.008": 6.038030265,
			"0.009": 4.12072580757,
			"0.01": 2.38045830758,
			"0.011": 1.1294634647,
			"0.012": 0.773630206758,
			"0.013": 0.678275884056,
			"0.014": 0.891857869731,
			"0.015": 0.308212479915,
			"0.016": 0.0,
			"0.017": 0.0,
			"0.018": 0.0,
			"0.019": 0.0,
			"0.02": 0.0,
			"0.021": 0.0,
			"0.022": 0.0,
			"0.023": 0.0,
			"0.024": 0.0,
			"0.025": 0.0
		}
	}
}
