{
	 "smiles": "CCNC1=NC(=CS1)C(=O)OCC", 
	 "Tm": 366.15, 
	 "num_atms": 25, 
	 "gaussian": { 
		 "optdone": 1, 
		 "sigma_profile": "yes", 
		 "theory": "DFT", 
		 "functional": "B3LYP", 
		 "basiset": "6-31G**", 
		 "properties": { 
			 "R2extent": 4120.5995, 
			 "electric_dipole_moment_norm": 3.03952953761, 
			 "electric_quadrupole_moment_norm": 17.5430750412, 
			 "total_energy": -970.231772058, 
			 "HOMO_LUMO_gap": 0.17613, 
			 "cosmo_polarized_energy": -14.15, 
			 "cosmo_cavitation_energy": 30.71, 
			 "cosmo_dispersion_energy": -22.76, 
			 "cosmo_repulsion_energy": 1.81, 
			 "cosmo_total_nonelectrostatic_energy": 9.75, 
			 "SMD_solvation_energy": 4.2 
		},
		"coords": [
			{
				"x": 3.7792965524,
				"y": -1.6206775925,
				"z": -2.6294677277,
				"element": "C" 
			},
			{
				"x": 2.6290692892,
				"y": -2.6241578435,
				"z": -2.482994136,
				"element": "C" 
			},
			{
				"x": 1.3108162898,
				"y": -2.0195630354,
				"z": -2.3315646836,
				"element": "N" 
			},
			{
				"x": 0.8655113819,
				"y": -1.4386139768,
				"z": -1.1772306072,
				"element": "C" 
			},
			{
				"x": -0.1208961974,
				"y": -0.5901885416,
				"z": -1.1295362508,
				"element": "N" 
			},
			{
				"x": -0.3977246847,
				"y": -0.2379083643,
				"z": 0.1751411442,
				"element": "C" 
			},
			{
				"x": 0.3838315708,
				"y": -0.8055410792,
				"z": 1.1419970156,
				"element": "C" 
			},
			{
				"x": 1.5541482312,
				"y": -1.8666314472,
				"z": 0.4129281937,
				"element": "S" 
			},
			{
				"x": -1.4984361396,
				"y": 0.7252587155,
				"z": 0.4402683493,
				"element": "C" 
			},
			{
				"x": -2.1896374472,
				"y": 1.2406614027,
				"z": -0.4116630348,
				"element": "O" 
			},
			{
				"x": -1.6282178911,
				"y": 0.9597263837,
				"z": 1.771796949,
				"element": "O" 
			},
			{
				"x": -2.672747032,
				"y": 1.8810748402,
				"z": 2.1576578391,
				"element": "C" 
			},
			{
				"x": -4.0151762719,
				"y": 1.1765271323,
				"z": 2.2895954861,
				"element": "C" 
			},
			{
				"x": 4.7335546855,
				"y": -2.146759944,
				"z": -2.7386568942,
				"element": "H" 
			},
			{
				"x": 3.6370945557,
				"y": -0.9896269013,
				"z": -3.5127935486,
				"element": "H" 
			},
			{
				"x": 3.847230561,
				"y": -0.9691880783,
				"z": -1.7533345219,
				"element": "H" 
			},
			{
				"x": 2.8015784249,
				"y": -3.2809108154,
				"z": -1.6225421745,
				"element": "H" 
			},
			{
				"x": 2.5840382927,
				"y": -3.2797871571,
				"z": -3.358633371,
				"element": "H" 
			},
			{
				"x": 0.9031297357,
				"y": -1.5902741069,
				"z": -3.1529437867,
				"element": "H" 
			},
			{
				"x": 0.3441982514,
				"y": -0.6553989187,
				"z": 2.2094494075,
				"element": "H" 
			},
			{
				"x": -2.3379874134,
				"y": 2.2867845621,
				"z": 3.1157298241,
				"element": "H" 
			},
			{
				"x": -2.7233931184,
				"y": 2.6861725845,
				"z": 1.420575899,
				"element": "H" 
			},
			{
				"x": -4.3432003767,
				"y": 0.7942548873,
				"z": 1.3200475022,
				"element": "H" 
			},
			{
				"x": -3.9507383397,
				"y": 0.3435677898,
				"z": 2.9960585688,
				"element": "H" 
			},
			{
				"x": -4.7705429099,
				"y": 1.8802995042,
				"z": 2.6553145584,
				"element": "H" 
			}
		],
		 "valence_orbital": [ 
			{
				"type": "occ",
				"energy": -0.29019,
				"method": "rhf"
			},
			{
				"type": "occ",
				"energy": -0.27605,
				"method": "rhf"
			},
			{
				"type": "occ",
				"energy": -0.27369,
				"method": "rhf"
			},
			{
				"type": "occ",
				"energy": -0.26252,
				"method": "rhf"
			},
			{
				"type": "occ",
				"energy": -0.20879,
				"method": "rhf"
			},
			{
				"type": "unocc",
				"energy": -0.03266,
				"method": "rhf"
			},
			{
				"type": "unocc",
				"energy": 0.01167,
				"method": "rhf"
			},
			{
				"type": "unocc",
				"energy": 0.0224,
				"method": "rhf"
			},
			{
				"type": "unocc",
				"energy": 0.06377,
				"method": "rhf"
			},
			{
				"type": "unocc",
				"energy": 0.10565,
				"method": "rhf"
			}
		],
		"cosmo_sigma_profile": { 
			"-0.025": 0.0,
			"-0.024": 0.0,
			"-0.023": 0.0,
			"-0.022": 0.0,
			"-0.021": 0.0,
			"-0.02": 0.0,
			"-0.019": 0.0,
			"-0.018": 0.0,
			"-0.017": 0.0,
			"-0.016": 0.0,
			"-0.015": 0.0,
			"-0.014": 0.531068890157,
			"-0.013": 1.10410032492,
			"-0.012": 1.33792246023,
			"-0.011": 0.918872136179,
			"-0.01": 1.34480166704,
			"-0.009": 2.16949792391,
			"-0.008": 1.96634183296,
			"-0.007": 2.95285869866,
			"-0.006": 6.66297396094,
			"-0.005": 11.7515003526,
			"-0.004": 20.4753642604,
			"-0.003": 27.5338192737,
			"-0.002": 25.9911303581,
			"-0.001": 23.5788077616,
			"0.0": 26.0475144309,
			"0.001": 20.0224877561,
			"0.002": 16.2783898519,
			"0.003": 11.9359736249,
			"0.004": 6.33957713684,
			"0.005": 6.20900851765,
			"0.006": 3.70975071299,
			"0.007": 3.36672662893,
			"0.008": 1.89359083852,
			"0.009": 2.85374993769,
			"0.01": 2.16651568127,
			"0.011": 3.45514919414,
			"0.012": 4.76459805992,
			"0.013": 2.20779937151,
			"0.014": 1.55782529638,
			"0.015": 1.65001278003,
			"0.016": 1.58994827404,
			"0.017": 0.346620076967,
			"0.018": 0.0,
			"0.019": 0.0,
			"0.02": 0.0,
			"0.021": 0.0,
			"0.022": 0.0,
			"0.023": 0.0,
			"0.024": 0.0,
			"0.025": 0.0
		}
	}
}
