{
	 "smiles": "OC(=O)C1=CC=C(S1)C1=CC=C(C=C1)C1=CC=CC=C1", 
	 "Tm": 546.15, 
	 "num_atms": 32, 
	 "gaussian": { 
		 "optdone": 1, 
		 "sigma_profile": "yes", 
		 "theory": "DFT", 
		 "functional": "B3LYP", 
		 "basiset": "6-31G**", 
		 "properties": { 
			 "R2extent": 10774.5151, 
			 "electric_dipole_moment_norm": 6.14743073324, 
			 "electric_quadrupole_moment_norm": 27.3724307713, 
			 "total_energy": -1203.68601088, 
			 "HOMO_LUMO_gap": 0.14691, 
			 "cosmo_polarized_energy": -15.81, 
			 "cosmo_cavitation_energy": 38.61, 
			 "cosmo_dispersion_energy": -28.61, 
			 "cosmo_repulsion_energy": 2.1, 
			 "cosmo_total_nonelectrostatic_energy": 12.1, 
			 "SMD_solvation_energy": 7.08 
		},
		"coords": [
			{
				"x": -3.7931699594,
				"y": -5.3430168669,
				"z": -1.5034173902,
				"element": "O" 
			},
			{
				"x": -4.2130909798,
				"y": -4.0987664112,
				"z": -1.8614567135,
				"element": "C" 
			},
			{
				"x": -5.2066291411,
				"y": -3.967170968,
				"z": -2.538695361,
				"element": "O" 
			},
			{
				"x": -3.4125343612,
				"y": -2.9453438349,
				"z": -1.3961838166,
				"element": "C" 
			},
			{
				"x": -3.7922547401,
				"y": -1.630124485,
				"z": -1.5297120349,
				"element": "C" 
			},
			{
				"x": -2.8553069851,
				"y": -0.7169329816,
				"z": -0.9906619116,
				"element": "C" 
			},
			{
				"x": -1.7406582256,
				"y": -1.3194088061,
				"z": -0.4394051735,
				"element": "C" 
			},
			{
				"x": -1.8519500355,
				"y": -3.0578577178,
				"z": -0.6127037926,
				"element": "S" 
			},
			{
				"x": -0.5787896218,
				"y": -0.6884432872,
				"z": 0.1931313596,
				"element": "C" 
			},
			{
				"x": 0.1989261678,
				"y": -1.3594659025,
				"z": 1.1534505159,
				"element": "C" 
			},
			{
				"x": 1.2938552318,
				"y": -0.7424179595,
				"z": 1.7471724729,
				"element": "C" 
			},
			{
				"x": 1.6577714301,
				"y": 0.5743129678,
				"z": 1.4163814607,
				"element": "C" 
			},
			{
				"x": 0.877443892,
				"y": 1.2434936982,
				"z": 0.4568494139,
				"element": "C" 
			},
			{
				"x": -0.2118071693,
				"y": 0.6269393413,
				"z": -0.1466337888,
				"element": "C" 
			},
			{
				"x": 2.8239149899,
				"y": 1.2330455047,
				"z": 2.0542667771,
				"element": "C" 
			},
			{
				"x": 3.6568023061,
				"y": 2.0954400348,
				"z": 1.3202634613,
				"element": "C" 
			},
			{
				"x": 4.752633408,
				"y": 2.7140753187,
				"z": 1.9198150914,
				"element": "C" 
			},
			{
				"x": 5.0402125812,
				"y": 2.4843446242,
				"z": 3.2666536951,
				"element": "C" 
			},
			{
				"x": 4.2219390308,
				"y": 1.6302872317,
				"z": 4.0085765097,
				"element": "C" 
			},
			{
				"x": 3.1260721157,
				"y": 1.0115414205,
				"z": 3.4091932846,
				"element": "C" 
			},
			{
				"x": -3.0620119818,
				"y": -5.3038341244,
				"z": -0.87029858,
				"element": "H" 
			},
			{
				"x": -4.7321425721,
				"y": -1.3567128572,
				"z": -1.9935939905,
				"element": "H" 
			},
			{
				"x": -3.0040464442,
				"y": 0.3563583493,
				"z": -0.9777381247,
				"element": "H" 
			},
			{
				"x": -0.0633626828,
				"y": -2.371940873,
				"z": 1.4472088186,
				"element": "H" 
			},
			{
				"x": 1.887606991,
				"y": -1.2959744177,
				"z": 2.4680153841,
				"element": "H" 
			},
			{
				"x": 1.1208184114,
				"y": 2.2674537048,
				"z": 0.1903959049,
				"element": "H" 
			},
			{
				"x": -0.7789280792,
				"y": 1.1647015681,
				"z": -0.8998695694,
				"element": "H" 
			},
			{
				"x": 3.4593011147,
				"y": 2.2596082072,
				"z": 0.2650626535,
				"element": "H" 
			},
			{
				"x": 5.3881064814,
				"y": 3.3696927208,
				"z": 1.3312788543,
				"element": "H" 
			},
			{
				"x": 5.8940252721,
				"y": 2.966369764,
				"z": 3.7336904757,
				"element": "H" 
			},
			{
				"x": 4.4316198028,
				"y": 1.451720655,
				"z": 5.059381142,
				"element": "H" 
			},
			{
				"x": 2.480533752,
				"y": 0.371226382,
				"z": 4.0030829719,
				"element": "H" 
			}
		],
		 "valence_orbital": [ 
			{
				"type": "occ",
				"energy": -0.27311,
				"method": "rhf"
			},
			{
				"type": "occ",
				"energy": -0.26741,
				"method": "rhf"
			},
			{
				"type": "occ",
				"energy": -0.25908,
				"method": "rhf"
			},
			{
				"type": "occ",
				"energy": -0.25727,
				"method": "rhf"
			},
			{
				"type": "occ",
				"energy": -0.2216,
				"method": "rhf"
			},
			{
				"type": "unocc",
				"energy": -0.07469,
				"method": "rhf"
			},
			{
				"type": "unocc",
				"energy": -0.03056,
				"method": "rhf"
			},
			{
				"type": "unocc",
				"energy": -0.02125,
				"method": "rhf"
			},
			{
				"type": "unocc",
				"energy": -0.01009,
				"method": "rhf"
			},
			{
				"type": "unocc",
				"energy": -0.00325,
				"method": "rhf"
			}
		],
		"cosmo_sigma_profile": { 
			"-0.025": 0.0,
			"-0.024": 0.0,
			"-0.023": 0.0,
			"-0.022": 0.0,
			"-0.021": 0.0,
			"-0.02": 0.0,
			"-0.019": 0.0,
			"-0.018": 0.216333596159,
			"-0.017": 1.14246384194,
			"-0.016": 0.632071985378,
			"-0.015": 0.979772527054,
			"-0.014": 0.794847573974,
			"-0.013": 0.867837741844,
			"-0.012": 1.19024930286,
			"-0.011": 1.6503747226,
			"-0.01": 0.178250775451,
			"-0.009": 0.668025537056,
			"-0.008": 3.22359282018,
			"-0.007": 6.7575952737,
			"-0.006": 17.6641485891,
			"-0.005": 25.2722917641,
			"-0.004": 23.2292203566,
			"-0.003": 20.1417152645,
			"-0.002": 17.9281935091,
			"-0.001": 18.2777913878,
			"0.0": 21.8074152364,
			"0.001": 25.2781140017,
			"0.002": 31.1613629758,
			"0.003": 27.2614296366,
			"0.004": 21.5828212664,
			"0.005": 12.7399069468,
			"0.006": 7.29140757264,
			"0.007": 2.37479290995,
			"0.008": 2.18316835542,
			"0.009": 3.6772025981,
			"0.01": 4.67824029021,
			"0.011": 5.06708285954,
			"0.012": 5.25435646786,
			"0.013": 1.59447354101,
			"0.014": 0.0224365021578,
			"0.015": 0.0,
			"0.016": 0.0,
			"0.017": 0.0,
			"0.018": 0.0,
			"0.019": 0.0,
			"0.02": 0.0,
			"0.021": 0.0,
			"0.022": 0.0,
			"0.023": 0.0,
			"0.024": 0.0,
			"0.025": 0.0
		}
	}
}
