{
	 "smiles": "O=C1NC2CCCCCCC12", 
	 "Tm": 338.15, 
	 "num_atms": 26, 
	 "gaussian": { 
		 "optdone": 1, 
		 "sigma_profile": "yes", 
		 "theory": "DFT", 
		 "functional": "B3LYP", 
		 "basiset": "6-31G**", 
		 "properties": { 
			 "R2extent": 2402.4913, 
			 "electric_dipole_moment_norm": 4.02010402229, 
			 "electric_quadrupole_moment_norm": 18.5305485062, 
			 "total_energy": -481.968168665, 
			 "HOMO_LUMO_gap": 0.2741, 
			 "cosmo_polarized_energy": -10.23, 
			 "cosmo_cavitation_energy": 25.81, 
			 "cosmo_dispersion_energy": -19.35, 
			 "cosmo_repulsion_energy": 1.57, 
			 "cosmo_total_nonelectrostatic_energy": 8.02, 
			 "SMD_solvation_energy": 3.13 
		},
		"coords": [
			{
				"x": -3.8979926945,
				"y": -2.6632807558,
				"z": 0.0519887735,
				"element": "O" 
			},
			{
				"x": -3.1366344217,
				"y": -1.7568726855,
				"z": 0.3028079185,
				"element": "C" 
			},
			{
				"x": -3.2919450223,
				"y": -0.5629264891,
				"z": 0.9742572598,
				"element": "N" 
			},
			{
				"x": -1.9656217402,
				"y": -0.0271550045,
				"z": 0.6040948062,
				"element": "C" 
			},
			{
				"x": -1.0684515096,
				"y": 0.4472930841,
				"z": 1.7472692721,
				"element": "C" 
			},
			{
				"x": 0.4420497266,
				"y": 0.2522834808,
				"z": 1.500249159,
				"element": "C" 
			},
			{
				"x": 1.0277977635,
				"y": 0.7607138441,
				"z": 0.162463187,
				"element": "C" 
			},
			{
				"x": 1.0744064031,
				"y": -0.2233602856,
				"z": -1.0341845655,
				"element": "C" 
			},
			{
				"x": -0.1970519519,
				"y": -0.39096991,
				"z": -1.8963427517,
				"element": "C" 
			},
			{
				"x": -1.2104916925,
				"y": -1.4772054104,
				"z": -1.4817760314,
				"element": "C" 
			},
			{
				"x": -1.6579626912,
				"y": -1.4227853367,
				"z": -0.0179367306,
				"element": "C" 
			},
			{
				"x": -4.1405231559,
				"y": -0.0929884914,
				"z": 1.2651565017,
				"element": "H" 
			},
			{
				"x": -2.0465325199,
				"y": 0.7461516398,
				"z": -0.1693039057,
				"element": "H" 
			},
			{
				"x": -1.2712413584,
				"y": 1.5067364931,
				"z": 1.9533856749,
				"element": "H" 
			},
			{
				"x": -1.3454106068,
				"y": -0.1049236043,
				"z": 2.6535671121,
				"element": "H" 
			},
			{
				"x": 0.6929969856,
				"y": -0.8108631413,
				"z": 1.6077970989,
				"element": "H" 
			},
			{
				"x": 0.9653390495,
				"y": 0.7576763023,
				"z": 2.3208583945,
				"element": "H" 
			},
			{
				"x": 2.0664498425,
				"y": 1.0512792594,
				"z": 0.3614062049,
				"element": "H" 
			},
			{
				"x": 0.5221260177,
				"y": 1.6868141208,
				"z": -0.1463858271,
				"element": "H" 
			},
			{
				"x": 1.4226869069,
				"y": -1.2049708202,
				"z": -0.682456562,
				"element": "H" 
			},
			{
				"x": 1.8638723755,
				"y": 0.1426200023,
				"z": -1.7019327163,
				"element": "H" 
			},
			{
				"x": 0.1122753227,
				"y": -0.6240808375,
				"z": -2.9226805844,
				"element": "H" 
			},
			{
				"x": -0.7052350428,
				"y": 0.580307406,
				"z": -1.9630345329,
				"element": "H" 
			},
			{
				"x": -2.0877872786,
				"y": -1.3916529921,
				"z": -2.1351045625,
				"element": "H" 
			},
			{
				"x": -0.7864318416,
				"y": -2.4682428255,
				"z": -1.6816412275,
				"element": "H" 
			},
			{
				"x": -0.9839868657,
				"y": -2.001397043,
				"z": 0.6217786346,
				"element": "H" 
			}
		],
		 "valence_orbital": [ 
			{
				"type": "occ",
				"energy": -0.3141,
				"method": "rhf"
			},
			{
				"type": "occ",
				"energy": -0.31159,
				"method": "rhf"
			},
			{
				"type": "occ",
				"energy": -0.30799,
				"method": "rhf"
			},
			{
				"type": "occ",
				"energy": -0.25267,
				"method": "rhf"
			},
			{
				"type": "occ",
				"energy": -0.23944,
				"method": "rhf"
			},
			{
				"type": "unocc",
				"energy": 0.03466,
				"method": "rhf"
			},
			{
				"type": "unocc",
				"energy": 0.07266,
				"method": "rhf"
			},
			{
				"type": "unocc",
				"energy": 0.08491,
				"method": "rhf"
			},
			{
				"type": "unocc",
				"energy": 0.08987,
				"method": "rhf"
			},
			{
				"type": "unocc",
				"energy": 0.10254,
				"method": "rhf"
			}
		],
		"cosmo_sigma_profile": { 
			"-0.025": 0.0,
			"-0.024": 0.0,
			"-0.023": 0.0,
			"-0.022": 0.0,
			"-0.021": 0.0,
			"-0.02": 0.0,
			"-0.019": 0.0,
			"-0.018": 0.0,
			"-0.017": 0.0,
			"-0.016": 0.0,
			"-0.015": 0.0,
			"-0.014": 0.357079364818,
			"-0.013": 1.64673227233,
			"-0.012": 1.07658413086,
			"-0.011": 0.877804812444,
			"-0.01": 1.35451416635,
			"-0.009": 1.03358491566,
			"-0.008": 1.01109271662,
			"-0.007": 0.908487427167,
			"-0.006": 0.792272843495,
			"-0.005": 2.84589652695,
			"-0.004": 10.3175094198,
			"-0.003": 22.9550071165,
			"-0.002": 35.6657335351,
			"-0.001": 33.9200127594,
			"0.0": 28.8796028614,
			"0.001": 20.1955748752,
			"0.002": 4.57148511149,
			"0.003": 2.14283636425,
			"0.004": 2.55571393901,
			"0.005": 2.97105073168,
			"0.006": 1.51930522817,
			"0.007": 1.42176858779,
			"0.008": 1.57845863289,
			"0.009": 1.32669577556,
			"0.01": 1.16694458618,
			"0.011": 1.92565078397,
			"0.012": 2.0989424419,
			"0.013": 5.77323211986,
			"0.014": 5.11161808782,
			"0.015": 0.827289450302,
			"0.016": 0.0,
			"0.017": 0.0,
			"0.018": 0.0,
			"0.019": 0.0,
			"0.02": 0.0,
			"0.021": 0.0,
			"0.022": 0.0,
			"0.023": 0.0,
			"0.024": 0.0,
			"0.025": 0.0
		}
	}
}
