{
	 "smiles": "CNC(=O)C1CNCCO1", 
	 "Tm": 367.15, 
	 "num_atms": 22, 
	 "gaussian": { 
		 "optdone": 1, 
		 "sigma_profile": "yes", 
		 "theory": "DFT", 
		 "functional": "B3LYP", 
		 "basiset": "6-31G**", 
		 "properties": { 
			 "R2extent": 1958.1035, 
			 "electric_dipole_moment_norm": 3.30005970401, 
			 "electric_quadrupole_moment_norm": 13.4550056644, 
			 "total_energy": -495.808473597, 
			 "HOMO_LUMO_gap": 0.25596, 
			 "cosmo_polarized_energy": -13.03, 
			 "cosmo_cavitation_energy": 23.9, 
			 "cosmo_dispersion_energy": -18.05, 
			 "cosmo_repulsion_energy": 1.5, 
			 "cosmo_total_nonelectrostatic_energy": 7.35, 
			 "SMD_solvation_energy": 2.02 
		},
		"coords": [
			{
				"x": 2.1248418326,
				"y": 3.2925186072,
				"z": -0.8983812556,
				"element": "C" 
			},
			{
				"x": 1.7044788046,
				"y": 2.1072889962,
				"z": -0.1782063048,
				"element": "N" 
			},
			{
				"x": 2.0275348116,
				"y": 0.8514718373,
				"z": -0.5787456225,
				"element": "C" 
			},
			{
				"x": 2.6700344603,
				"y": 0.5776860148,
				"z": -1.5890585688,
				"element": "O" 
			},
			{
				"x": 1.5374190539,
				"y": -0.2638576237,
				"z": 0.3567633376,
				"element": "C" 
			},
			{
				"x": 0.8957350049,
				"y": -1.4067954425,
				"z": -0.446976485,
				"element": "C" 
			},
			{
				"x": 0.2232514061,
				"y": -2.2868594237,
				"z": 0.5009886744,
				"element": "N" 
			},
			{
				"x": -0.8960697998,
				"y": -1.636994341,
				"z": 1.2005382127,
				"element": "C" 
			},
			{
				"x": -0.7021540142,
				"y": -0.1142279379,
				"z": 1.1879352388,
				"element": "C" 
			},
			{
				"x": 0.6657048836,
				"y": 0.2326245851,
				"z": 1.3879527737,
				"element": "O" 
			},
			{
				"x": 1.2644214314,
				"y": 3.8963881692,
				"z": -1.2083272671,
				"element": "H" 
			},
			{
				"x": 2.6663537186,
				"y": 2.9610581065,
				"z": -1.7857107378,
				"element": "H" 
			},
			{
				"x": 2.7882723511,
				"y": 3.9168968897,
				"z": -0.2887074839,
				"element": "H" 
			},
			{
				"x": 1.1955897087,
				"y": 2.1759766558,
				"z": 0.6923475418,
				"element": "H" 
			},
			{
				"x": 2.4157727452,
				"y": -0.6623209224,
				"z": 0.8787685201,
				"element": "H" 
			},
			{
				"x": 1.6906970395,
				"y": -1.950446276,
				"z": -0.9607639289,
				"element": "H" 
			},
			{
				"x": 0.2402257733,
				"y": -0.9934418987,
				"z": -1.2345648104,
				"element": "H" 
			},
			{
				"x": -0.0772832014,
				"y": -3.1439654738,
				"z": 0.0511597904,
				"element": "H" 
			},
			{
				"x": -1.8794584981,
				"y": -1.8551223722,
				"z": 0.7499139028,
				"element": "H" 
			},
			{
				"x": -0.926474224,
				"y": -1.9980630864,
				"z": 2.2363657976,
				"element": "H" 
			},
			{
				"x": -1.2600497934,
				"y": 0.3502124216,
				"z": 2.0054042933,
				"element": "H" 
			},
			{
				"x": -1.0729434945,
				"y": 0.3170725146,
				"z": 0.2465043818,
				"element": "H" 
			}
		],
		 "valence_orbital": [ 
			{
				"type": "occ",
				"energy": -0.31177,
				"method": "rhf"
			},
			{
				"type": "occ",
				"energy": -0.2835,
				"method": "rhf"
			},
			{
				"type": "occ",
				"energy": -0.24539,
				"method": "rhf"
			},
			{
				"type": "occ",
				"energy": -0.23065,
				"method": "rhf"
			},
			{
				"type": "occ",
				"energy": -0.21976,
				"method": "rhf"
			},
			{
				"type": "unocc",
				"energy": 0.0362,
				"method": "rhf"
			},
			{
				"type": "unocc",
				"energy": 0.07186,
				"method": "rhf"
			},
			{
				"type": "unocc",
				"energy": 0.10397,
				"method": "rhf"
			},
			{
				"type": "unocc",
				"energy": 0.1102,
				"method": "rhf"
			},
			{
				"type": "unocc",
				"energy": 0.12069,
				"method": "rhf"
			}
		],
		"cosmo_sigma_profile": { 
			"-0.025": 0.0,
			"-0.024": 0.0,
			"-0.023": 0.0,
			"-0.022": 0.0,
			"-0.021": 0.0,
			"-0.02": 0.0,
			"-0.019": 0.0,
			"-0.018": 0.0,
			"-0.017": 0.0,
			"-0.016": 0.0,
			"-0.015": 0.0,
			"-0.014": 0.0,
			"-0.013": 0.0,
			"-0.012": 0.190064667296,
			"-0.011": 1.18998059727,
			"-0.01": 2.5258369304,
			"-0.009": 1.97059394311,
			"-0.008": 1.28190912464,
			"-0.007": 2.87663362113,
			"-0.006": 4.56354676659,
			"-0.005": 13.8264038104,
			"-0.004": 23.475659149,
			"-0.003": 28.2072334752,
			"-0.002": 24.6850055744,
			"-0.001": 15.7225856807,
			"0.0": 7.81778617793,
			"0.001": 6.58819583214,
			"0.002": 6.21674485009,
			"0.003": 4.55312676982,
			"0.004": 2.49585172056,
			"0.005": 4.00112770499,
			"0.006": 3.43675191952,
			"0.007": 2.65717155263,
			"0.008": 2.7356026813,
			"0.009": 3.20858576644,
			"0.01": 3.25935978499,
			"0.011": 2.96871806433,
			"0.012": 3.52659815574,
			"0.013": 3.29458293748,
			"0.014": 5.70094909664,
			"0.015": 1.56264803412,
			"0.016": 0.798845087316,
			"0.017": 0.554527169783,
			"0.018": 0.0,
			"0.019": 0.0,
			"0.02": 0.0,
			"0.021": 0.0,
			"0.022": 0.0,
			"0.023": 0.0,
			"0.024": 0.0,
			"0.025": 0.0
		}
	}
}
