{
	 "smiles": "COC1=CC(C=CC(O)=O)=CC(OC)=C1", 
	 "Tm": 447.15, 
	 "num_atms": 27, 
	 "gaussian": { 
		 "optdone": 1, 
		 "sigma_profile": "yes", 
		 "theory": "DFT", 
		 "functional": "B3LYP", 
		 "basiset": "6-31G**", 
		 "properties": { 
			 "R2extent": 5232.2067, 
			 "electric_dipole_moment_norm": 2.82419251114, 
			 "electric_quadrupole_moment_norm": 6.85527969232, 
			 "total_energy": -727.278157636, 
			 "HOMO_LUMO_gap": 0.15516, 
			 "cosmo_polarized_energy": -13.7, 
			 "cosmo_cavitation_energy": 32.17, 
			 "cosmo_dispersion_energy": -23.32, 
			 "cosmo_repulsion_energy": 1.83, 
			 "cosmo_total_nonelectrostatic_energy": 10.69, 
			 "SMD_solvation_energy": 8.4 
		},
		"coords": [
			{
				"x": 1.0932204185,
				"y": 2.7897486663,
				"z": -2.2690535767,
				"element": "C" 
			},
			{
				"x": -0.1142223323,
				"y": 2.0429422162,
				"z": -2.2839980788,
				"element": "O" 
			},
			{
				"x": -0.1507378892,
				"y": 0.8603554656,
				"z": -1.6052679438,
				"element": "C" 
			},
			{
				"x": 0.9197003925,
				"y": 0.3246396993,
				"z": -0.890093667,
				"element": "C" 
			},
			{
				"x": 0.7680768289,
				"y": -0.9103597706,
				"z": -0.2236154068,
				"element": "C" 
			},
			{
				"x": 1.9215365473,
				"y": -1.4302618122,
				"z": 0.5136752883,
				"element": "C" 
			},
			{
				"x": 2.0043913319,
				"y": -2.5748423503,
				"z": 1.2163310454,
				"element": "C" 
			},
			{
				"x": 3.2633434171,
				"y": -2.9290672602,
				"z": 1.8959114569,
				"element": "C" 
			},
			{
				"x": 3.1580259801,
				"y": -4.1152296506,
				"z": 2.5521286399,
				"element": "O" 
			},
			{
				"x": 4.2916263352,
				"y": -2.2770853456,
				"z": 1.8989008186,
				"element": "O" 
			},
			{
				"x": -0.4534451058,
				"y": -1.5870857181,
				"z": -0.285430701,
				"element": "C" 
			},
			{
				"x": -1.5222324611,
				"y": -1.0395398836,
				"z": -1.0069422045,
				"element": "C" 
			},
			{
				"x": -2.6694441804,
				"y": -1.7762111686,
				"z": -1.0055189037,
				"element": "O" 
			},
			{
				"x": -3.7914415437,
				"y": -1.2786439856,
				"z": -1.7184165502,
				"element": "C" 
			},
			{
				"x": -1.3781212893,
				"y": 0.1815004983,
				"z": -1.6680675492,
				"element": "C" 
			},
			{
				"x": 1.9219636458,
				"y": 2.2277803364,
				"z": -2.7180243521,
				"element": "H" 
			},
			{
				"x": 1.3718109046,
				"y": 3.0878937843,
				"z": -1.2503728105,
				"element": "H" 
			},
			{
				"x": 0.900990844,
				"y": 3.6833150052,
				"z": -2.8647734706,
				"element": "H" 
			},
			{
				"x": 1.8712943564,
				"y": 0.8385550029,
				"z": -0.8339996236,
				"element": "H" 
			},
			{
				"x": 2.8207984141,
				"y": -0.8165030584,
				"z": 0.4905873317,
				"element": "H" 
			},
			{
				"x": 1.1800795177,
				"y": -3.2725627828,
				"z": 1.3168161613,
				"element": "H" 
			},
			{
				"x": 4.0244985296,
				"y": -4.2652269562,
				"z": 2.9648082054,
				"element": "H" 
			},
			{
				"x": -0.606884056,
				"y": -2.5366841131,
				"z": 0.2133922402,
				"element": "H" 
			},
			{
				"x": -4.1267264313,
				"y": -0.3118212672,
				"z": -1.3218243689,
				"element": "H" 
			},
			{
				"x": -4.5839899384,
				"y": -2.0161992909,
				"z": -1.5837623826,
				"element": "H" 
			},
			{
				"x": -3.5757859161,
				"y": -1.1717249876,
				"z": -2.7891650118,
				"element": "H" 
			},
			{
				"x": -2.1807263202,
				"y": 0.6353187274,
				"z": -2.2348245858,
				"element": "H" 
			}
		],
		 "valence_orbital": [ 
			{
				"type": "occ",
				"energy": -0.3086,
				"method": "rhf"
			},
			{
				"type": "occ",
				"energy": -0.2716,
				"method": "rhf"
			},
			{
				"type": "occ",
				"energy": -0.26845,
				"method": "rhf"
			},
			{
				"type": "occ",
				"energy": -0.22768,
				"method": "rhf"
			},
			{
				"type": "occ",
				"energy": -0.21848,
				"method": "rhf"
			},
			{
				"type": "unocc",
				"energy": -0.06332,
				"method": "rhf"
			},
			{
				"type": "unocc",
				"energy": 0.01319,
				"method": "rhf"
			},
			{
				"type": "unocc",
				"energy": 0.02864,
				"method": "rhf"
			},
			{
				"type": "unocc",
				"energy": 0.08799,
				"method": "rhf"
			},
			{
				"type": "unocc",
				"energy": 0.09184,
				"method": "rhf"
			}
		],
		"cosmo_sigma_profile": { 
			"-0.025": 0.0,
			"-0.024": 0.0,
			"-0.023": 0.0,
			"-0.022": 0.0,
			"-0.021": 0.0,
			"-0.02": 0.0,
			"-0.019": 0.0,
			"-0.018": 0.44725565989,
			"-0.017": 0.909205192476,
			"-0.016": 0.947092732251,
			"-0.015": 0.920552522186,
			"-0.014": 0.62321789983,
			"-0.013": 0.308125624367,
			"-0.012": 0.30773080787,
			"-0.011": 1.32427983933,
			"-0.01": 0.987966178282,
			"-0.009": 0.678349455733,
			"-0.008": 2.22508380256,
			"-0.007": 7.18760013089,
			"-0.006": 16.6095381193,
			"-0.005": 21.7334568769,
			"-0.004": 21.4629675575,
			"-0.003": 21.3416889834,
			"-0.002": 13.6106636631,
			"-0.001": 14.6968070279,
			"0.0": 13.2398525397,
			"0.001": 13.1806920805,
			"0.002": 16.8467778592,
			"0.003": 22.1509818856,
			"0.004": 18.8008916866,
			"0.005": 8.25192771765,
			"0.006": 6.63845577413,
			"0.007": 3.9889471643,
			"0.008": 4.66786570173,
			"0.009": 6.51563150893,
			"0.01": 5.51819636133,
			"0.011": 2.85395294308,
			"0.012": 5.26037405833,
			"0.013": 1.4801080591,
			"0.014": 0.0,
			"0.015": 0.0,
			"0.016": 0.0,
			"0.017": 0.0,
			"0.018": 0.0,
			"0.019": 0.0,
			"0.02": 0.0,
			"0.021": 0.0,
			"0.022": 0.0,
			"0.023": 0.0,
			"0.024": 0.0,
			"0.025": 0.0
		}
	}
}
