{
	 "smiles": "OC1=C(C=O)C=C(Cl)C=C1Br", 
	 "Tm": 359.15, 
	 "num_atms": 15, 
	 "gaussian": { 
		 "optdone": 1, 
		 "sigma_profile": "yes", 
		 "theory": "DFT", 
		 "functional": "B3LYP", 
		 "basiset": "6-31G**", 
		 "properties": { 
			 "R2extent": 3252.5808, 
			 "electric_dipole_moment_norm": 3.60587823006, 
			 "electric_quadrupole_moment_norm": 10.6962936174, 
			 "total_energy": -3451.18563555, 
			 "HOMO_LUMO_gap": 0.16754, 
			 "cosmo_polarized_energy": -8.62, 
			 "cosmo_cavitation_energy": 24.14, 
			 "cosmo_dispersion_energy": -18.42, 
			 "cosmo_repulsion_energy": 1.47, 
			 "cosmo_total_nonelectrostatic_energy": 7.19, 
			 "SMD_solvation_energy": 4.22 
		},
		"coords": [
			{
				"x": 1.929641498,
				"y": 1.2762233239,
				"z": -1.4421836778,
				"element": "O" 
			},
			{
				"x": 0.8042212261,
				"y": 0.9347379039,
				"z": -0.7794749499,
				"element": "C" 
			},
			{
				"x": 0.1295114333,
				"y": 1.9215658598,
				"z": -0.0323092459,
				"element": "C" 
			},
			{
				"x": 0.64096583,
				"y": 3.3156124983,
				"z": 0.0303554394,
				"element": "C" 
			},
			{
				"x": 0.0884400921,
				"y": 4.1964306811,
				"z": 0.6631122143,
				"element": "O" 
			},
			{
				"x": -1.0410151639,
				"y": 1.5994641864,
				"z": 0.6666680406,
				"element": "C" 
			},
			{
				"x": -1.5433246421,
				"y": 0.3071970026,
				"z": 0.6278495392,
				"element": "C" 
			},
			{
				"x": -3.0085954245,
				"y": -0.0996930892,
				"z": 1.5018412784,
				"element": "Cl" 
			},
			{
				"x": -0.8917978886,
				"y": -0.688414944,
				"z": -0.1061855538,
				"element": "C" 
			},
			{
				"x": 0.2684769984,
				"y": -0.3642667684,
				"z": -0.797682615,
				"element": "C" 
			},
			{
				"x": 1.1810609529,
				"y": -1.7083003955,
				"z": -1.8112739356,
				"element": "Br" 
			},
			{
				"x": 2.2728390296,
				"y": 0.4933754215,
				"z": -1.9046644775,
				"element": "H" 
			},
			{
				"x": 1.5669855325,
				"y": 3.5108706293,
				"z": -0.5400002802,
				"element": "H" 
			},
			{
				"x": -1.5306499876,
				"y": 2.3862343676,
				"z": 1.2295790474,
				"element": "H" 
			},
			{
				"x": -1.2836594862,
				"y": -1.6976366774,
				"z": -0.1368308235,
				"element": "H" 
			}
		],
		 "valence_orbital": [ 
			{
				"type": "occ",
				"energy": -0.32415,
				"method": "rhf"
			},
			{
				"type": "occ",
				"energy": -0.32062,
				"method": "rhf"
			},
			{
				"type": "occ",
				"energy": -0.27692,
				"method": "rhf"
			},
			{
				"type": "occ",
				"energy": -0.2638,
				"method": "rhf"
			},
			{
				"type": "occ",
				"energy": -0.24725,
				"method": "rhf"
			},
			{
				"type": "unocc",
				"energy": -0.07971,
				"method": "rhf"
			},
			{
				"type": "unocc",
				"energy": -0.03031,
				"method": "rhf"
			},
			{
				"type": "unocc",
				"energy": -0.02705,
				"method": "rhf"
			},
			{
				"type": "unocc",
				"energy": 0.0178,
				"method": "rhf"
			},
			{
				"type": "unocc",
				"energy": 0.02874,
				"method": "rhf"
			}
		],
		"cosmo_sigma_profile": { 
			"-0.025": 0.0,
			"-0.024": 0.0,
			"-0.023": 0.0,
			"-0.022": 0.0,
			"-0.021": 0.0,
			"-0.02": 0.0,
			"-0.019": 0.0,
			"-0.018": 0.0,
			"-0.017": 0.0,
			"-0.016": 0.128796065238,
			"-0.015": 0.651712180774,
			"-0.014": 0.544627861123,
			"-0.013": 0.866666723647,
			"-0.012": 0.587103113312,
			"-0.011": 0.888297538229,
			"-0.01": 1.34287327169,
			"-0.009": 1.94155727091,
			"-0.008": 2.65360557573,
			"-0.007": 5.1100562684,
			"-0.006": 6.29111681335,
			"-0.005": 8.93176823174,
			"-0.004": 9.57655746439,
			"-0.003": 11.5935701488,
			"-0.002": 16.0402603983,
			"-0.001": 22.0137740653,
			"0.0": 25.2648797405,
			"0.001": 19.4184259881,
			"0.002": 14.319680871,
			"0.003": 14.659542818,
			"0.004": 13.6576820463,
			"0.005": 4.54151607499,
			"0.006": 3.20005062337,
			"0.007": 2.90650392418,
			"0.008": 2.01303127674,
			"0.009": 2.18335810147,
			"0.01": 2.9988665777,
			"0.011": 4.066556587,
			"0.012": 1.59786023481,
			"0.013": 0.248546283859,
			"0.014": 0.0,
			"0.015": 0.0,
			"0.016": 0.0,
			"0.017": 0.0,
			"0.018": 0.0,
			"0.019": 0.0,
			"0.02": 0.0,
			"0.021": 0.0,
			"0.022": 0.0,
			"0.023": 0.0,
			"0.024": 0.0,
			"0.025": 0.0
		}
	}
}
