{
	 "smiles": "CC(C)=C1C2C=CC1C1=CC=CC=C21", 
	 "Tm": 365.15, 
	 "num_atms": 28, 
	 "gaussian": { 
		 "optdone": 1, 
		 "sigma_profile": "yes", 
		 "theory": "DFT", 
		 "functional": "B3LYP", 
		 "basiset": "6-31G**", 
		 "properties": { 
			 "R2extent": 3617.7239, 
			 "electric_dipole_moment_norm": 0.569890006931, 
			 "electric_quadrupole_moment_norm": 4.89373507558, 
			 "total_energy": -541.866563046, 
			 "HOMO_LUMO_gap": 0.20181, 
			 "cosmo_polarized_energy": -5.06, 
			 "cosmo_cavitation_energy": 29.96, 
			 "cosmo_dispersion_energy": -21.45, 
			 "cosmo_repulsion_energy": 1.72, 
			 "cosmo_total_nonelectrostatic_energy": 10.23, 
			 "SMD_solvation_energy": 4.84 
		},
		"coords": [
			{
				"x": 0.9244273089,
				"y": -1.9148464833,
				"z": 1.7761458707,
				"element": "C" 
			},
			{
				"x": 0.2008735737,
				"y": -1.5900827628,
				"z": 0.4909048092,
				"element": "C" 
			},
			{
				"x": 0.9839662442,
				"y": -1.8811730864,
				"z": -0.7672248946,
				"element": "C" 
			},
			{
				"x": -1.0355467159,
				"y": -1.0870836306,
				"z": 0.4686321567,
				"element": "C" 
			},
			{
				"x": -2.0243788565,
				"y": -0.7043495112,
				"z": 1.5866865205,
				"element": "C" 
			},
			{
				"x": -3.2431581221,
				"y": -1.4994213897,
				"z": 1.0808995671,
				"element": "C" 
			},
			{
				"x": -3.211913076,
				"y": -1.4816386124,
				"z": -0.256792973,
				"element": "C" 
			},
			{
				"x": -1.9713049862,
				"y": -0.6742293467,
				"z": -0.6838513786,
				"element": "C" 
			},
			{
				"x": -2.2191908366,
				"y": 0.7756495325,
				"z": -0.2390134275,
				"element": "C" 
			},
			{
				"x": -2.3846444774,
				"y": 1.9584596954,
				"z": -0.9395301828,
				"element": "C" 
			},
			{
				"x": -2.5910778904,
				"y": 3.1425505238,
				"z": -0.2089544171,
				"element": "C" 
			},
			{
				"x": -2.6236496615,
				"y": 3.124067589,
				"z": 1.1846599406,
				"element": "C" 
			},
			{
				"x": -2.4508482743,
				"y": 1.9209064448,
				"z": 1.8924532186,
				"element": "C" 
			},
			{
				"x": -2.2521317904,
				"y": 0.7569623314,
				"z": 1.1693456252,
				"element": "C" 
			},
			{
				"x": 1.8640018122,
				"y": -1.3508363029,
				"z": 1.8471993865,
				"element": "H" 
			},
			{
				"x": 1.1959754686,
				"y": -2.9783739036,
				"z": 1.8130494999,
				"element": "H" 
			},
			{
				"x": 0.3309647039,
				"y": -1.6898445845,
				"z": 2.6646276419,
				"element": "H" 
			},
			{
				"x": 1.9253057958,
				"y": -1.3157696441,
				"z": -0.7794576246,
				"element": "H" 
			},
			{
				"x": 0.4324473902,
				"y": -1.6327328769,
				"z": -1.6762529653,
				"element": "H" 
			},
			{
				"x": 1.2579243729,
				"y": -2.9434450319,
				"z": -0.81930976,
				"element": "H" 
			},
			{
				"x": -1.7363850608,
				"y": -0.8670307929,
				"z": 2.624910755,
				"element": "H" 
			},
			{
				"x": -4.0042785215,
				"y": -1.9267247875,
				"z": 1.7233545113,
				"element": "H" 
			},
			{
				"x": -3.9419492281,
				"y": -1.8912356468,
				"z": -0.9452096771,
				"element": "H" 
			},
			{
				"x": -1.6350785523,
				"y": -0.8095412811,
				"z": -1.7114481166,
				"element": "H" 
			},
			{
				"x": -2.3527251589,
				"y": 1.9807647391,
				"z": -2.0258981063,
				"element": "H" 
			},
			{
				"x": -2.724092651,
				"y": 4.0823219585,
				"z": -0.737774745,
				"element": "H" 
			},
			{
				"x": -2.7817997819,
				"y": 4.0495756027,
				"z": 1.7314130918,
				"element": "H" 
			},
			{
				"x": -2.4697330287,
				"y": 1.9144012579,
				"z": 2.9793356737,
				"element": "H" 
			}
		],
		 "valence_orbital": [ 
			{
				"type": "occ",
				"energy": -0.31286,
				"method": "rhf"
			},
			{
				"type": "occ",
				"energy": -0.24823,
				"method": "rhf"
			},
			{
				"type": "occ",
				"energy": -0.23926,
				"method": "rhf"
			},
			{
				"type": "occ",
				"energy": -0.23918,
				"method": "rhf"
			},
			{
				"type": "occ",
				"energy": -0.20652,
				"method": "rhf"
			},
			{
				"type": "unocc",
				"energy": -0.00471,
				"method": "rhf"
			},
			{
				"type": "unocc",
				"energy": 0.00384,
				"method": "rhf"
			},
			{
				"type": "unocc",
				"energy": 0.035,
				"method": "rhf"
			},
			{
				"type": "unocc",
				"energy": 0.0544,
				"method": "rhf"
			},
			{
				"type": "unocc",
				"energy": 0.09333,
				"method": "rhf"
			}
		],
		"cosmo_sigma_profile": { 
			"-0.025": 0.0,
			"-0.024": 0.0,
			"-0.023": 0.0,
			"-0.022": 0.0,
			"-0.021": 0.0,
			"-0.02": 0.0,
			"-0.019": 0.0,
			"-0.018": 0.0,
			"-0.017": 0.0,
			"-0.016": 0.0,
			"-0.015": 0.0,
			"-0.014": 0.0,
			"-0.013": 0.0,
			"-0.012": 0.0,
			"-0.011": 0.0,
			"-0.01": 0.0,
			"-0.009": 0.0,
			"-0.008": 0.0,
			"-0.007": 0.0979564296189,
			"-0.006": 4.10605701039,
			"-0.005": 15.7837150183,
			"-0.004": 16.779538991,
			"-0.003": 30.7104056439,
			"-0.002": 26.1045570692,
			"-0.001": 25.0159773596,
			"0.0": 24.5942140048,
			"0.001": 22.6463431365,
			"0.002": 14.105922938,
			"0.003": 11.4339066169,
			"0.004": 11.1971276639,
			"0.005": 11.2638604135,
			"0.006": 13.9492939229,
			"0.007": 8.87966466913,
			"0.008": 0.957508164186,
			"0.009": 0.0,
			"0.01": 0.0,
			"0.011": 0.0,
			"0.012": 0.0,
			"0.013": 0.0,
			"0.014": 0.0,
			"0.015": 0.0,
			"0.016": 0.0,
			"0.017": 0.0,
			"0.018": 0.0,
			"0.019": 0.0,
			"0.02": 0.0,
			"0.021": 0.0,
			"0.022": 0.0,
			"0.023": 0.0,
			"0.024": 0.0,
			"0.025": 0.0
		}
	}
}
