{
	 "smiles": "CC1=CC=C(OCC2=NC(=CS2)C(=O)NC2=NCCS2)C=C1", 
	 "Tm": 474.15, 
	 "num_atms": 37, 
	 "gaussian": { 
		 "optdone": 1, 
		 "sigma_profile": "yes", 
		 "theory": "DFT", 
		 "functional": "B3LYP", 
		 "basiset": "6-31G**", 
		 "properties": { 
			 "R2extent": 12611.0057, 
			 "electric_dipole_moment_norm": 2.39417571619, 
			 "electric_quadrupole_moment_norm": 14.839726237, 
			 "total_energy": -1691.71627285, 
			 "HOMO_LUMO_gap": 0.1593, 
			 "cosmo_polarized_energy": -15.72, 
			 "cosmo_cavitation_energy": 44.86, 
			 "cosmo_dispersion_energy": -33.23, 
			 "cosmo_repulsion_energy": 2.48, 
			 "cosmo_total_nonelectrostatic_energy": 14.12, 
			 "SMD_solvation_energy": 3.24 
		},
		"coords": [
			{
				"x": -1.8336862875,
				"y": -2.3011032302,
				"z": -6.7246879478,
				"element": "C" 
			},
			{
				"x": -0.8719161692,
				"y": -2.505010751,
				"z": -5.5775353811,
				"element": "C" 
			},
			{
				"x": -0.5727936407,
				"y": -1.4763339912,
				"z": -4.6824703608,
				"element": "C" 
			},
			{
				"x": 0.3173352718,
				"y": -1.6560258992,
				"z": -3.6170113187,
				"element": "C" 
			},
			{
				"x": 0.929876811,
				"y": -2.8979011821,
				"z": -3.4428824325,
				"element": "C" 
			},
			{
				"x": 1.8303497476,
				"y": -3.2025392829,
				"z": -2.4414580162,
				"element": "O" 
			},
			{
				"x": 2.2697117664,
				"y": -2.1667016001,
				"z": -1.5816979505,
				"element": "C" 
			},
			{
				"x": 1.2700425976,
				"y": -1.8262441975,
				"z": -0.5050193779,
				"element": "C" 
			},
			{
				"x": 1.1105278046,
				"y": -0.6365304276,
				"z": -0.0051286696,
				"element": "N" 
			},
			{
				"x": 0.1711746077,
				"y": -0.6424082506,
				"z": 1.0068555831,
				"element": "C" 
			},
			{
				"x": -0.3982779537,
				"y": -1.8568816591,
				"z": 1.276549462,
				"element": "C" 
			},
			{
				"x": 0.2582797934,
				"y": -3.0627917294,
				"z": 0.2339612501,
				"element": "S" 
			},
			{
				"x": -0.1872860126,
				"y": 0.6101548802,
				"z": 1.7281313032,
				"element": "C" 
			},
			{
				"x": -1.0285079431,
				"y": 0.6385641926,
				"z": 2.6162550401,
				"element": "O" 
			},
			{
				"x": 0.5167531677,
				"y": 1.7084816927,
				"z": 1.2871350679,
				"element": "N" 
			},
			{
				"x": 0.4173888608,
				"y": 3.0127346546,
				"z": 1.7512365067,
				"element": "C" 
			},
			{
				"x": 1.0896896405,
				"y": 3.9427306802,
				"z": 1.1923394284,
				"element": "N" 
			},
			{
				"x": 0.7735494881,
				"y": 5.2491703738,
				"z": 1.758164554,
				"element": "C" 
			},
			{
				"x": 0.1051632787,
				"y": 5.088411112,
				"z": 3.1446781579,
				"element": "C" 
			},
			{
				"x": -0.6540519991,
				"y": 3.4067495733,
				"z": 3.1361407031,
				"element": "S" 
			},
			{
				"x": 0.6433301822,
				"y": -3.9464586581,
				"z": -4.3259961319,
				"element": "C" 
			},
			{
				"x": -0.2452214941,
				"y": -3.7461655733,
				"z": -5.3745549626,
				"element": "C" 
			},
			{
				"x": -1.3427569506,
				"y": -2.4561265552,
				"z": -7.6927393446,
				"element": "H" 
			},
			{
				"x": -2.2479211909,
				"y": -1.2890759604,
				"z": -6.7218828503,
				"element": "H" 
			},
			{
				"x": -2.6732459104,
				"y": -3.0042036419,
				"z": -6.6748542706,
				"element": "H" 
			},
			{
				"x": -1.0451442903,
				"y": -0.5052750679,
				"z": -4.8075274111,
				"element": "H" 
			},
			{
				"x": 0.5037742042,
				"y": -0.8319394334,
				"z": -2.9384361435,
				"element": "H" 
			},
			{
				"x": 2.5208245768,
				"y": -1.2488864928,
				"z": -2.1261351196,
				"element": "H" 
			},
			{
				"x": 3.1873538406,
				"y": -2.5496197937,
				"z": -1.1226138829,
				"element": "H" 
			},
			{
				"x": -1.1611261371,
				"y": -2.0691055918,
				"z": 2.0112042829,
				"element": "H" 
			},
			{
				"x": 1.1589809191,
				"y": 1.5695481271,
				"z": 0.5139696255,
				"element": "H" 
			},
			{
				"x": 0.0999432134,
				"y": 5.7717436354,
				"z": 1.0636264426,
				"element": "H" 
			},
			{
				"x": 1.6844313543,
				"y": 5.8524089477,
				"z": 1.8339969531,
				"element": "H" 
			},
			{
				"x": -0.6691788367,
				"y": 5.8358934655,
				"z": 3.3269694538,
				"element": "H" 
			},
			{
				"x": 0.8372408646,
				"y": 5.1341604493,
				"z": 3.9556079996,
				"element": "H" 
			},
			{
				"x": 1.1301543669,
				"y": -4.9042217015,
				"z": -4.1730737577,
				"element": "H" 
			},
			{
				"x": -0.4559615419,
				"y": -4.5698011137,
				"z": -6.0526164841,
				"element": "H" 
			}
		],
		 "valence_orbital": [ 
			{
				"type": "occ",
				"energy": -0.26307,
				"method": "rhf"
			},
			{
				"type": "occ",
				"energy": -0.26099,
				"method": "rhf"
			},
			{
				"type": "occ",
				"energy": -0.2533,
				"method": "rhf"
			},
			{
				"type": "occ",
				"energy": -0.22257,
				"method": "rhf"
			},
			{
				"type": "occ",
				"energy": -0.21874,
				"method": "rhf"
			},
			{
				"type": "unocc",
				"energy": -0.05944,
				"method": "rhf"
			},
			{
				"type": "unocc",
				"energy": -0.02983,
				"method": "rhf"
			},
			{
				"type": "unocc",
				"energy": -0.00539,
				"method": "rhf"
			},
			{
				"type": "unocc",
				"energy": 0.0039,
				"method": "rhf"
			},
			{
				"type": "unocc",
				"energy": 0.00947,
				"method": "rhf"
			}
		],
		"cosmo_sigma_profile": { 
			"-0.025": 0.0,
			"-0.024": 0.0,
			"-0.023": 0.0,
			"-0.022": 0.0,
			"-0.021": 0.0,
			"-0.02": 0.0,
			"-0.019": 0.0,
			"-0.018": 0.0,
			"-0.017": 0.0,
			"-0.016": 0.0,
			"-0.015": 0.0,
			"-0.014": 0.0,
			"-0.013": 0.0,
			"-0.012": 0.0,
			"-0.011": 0.353287809884,
			"-0.01": 2.05726778812,
			"-0.009": 2.6015766458,
			"-0.008": 5.54396012313,
			"-0.007": 7.01509590208,
			"-0.006": 13.6357003561,
			"-0.005": 24.4475103157,
			"-0.004": 31.4565489782,
			"-0.003": 33.2080170526,
			"-0.002": 31.2931341211,
			"-0.001": 33.1396016877,
			"0.0": 34.9511665232,
			"0.001": 26.6870689578,
			"0.002": 21.5780381755,
			"0.003": 15.9188331369,
			"0.004": 15.3245274642,
			"0.005": 15.3539577424,
			"0.006": 14.3057215743,
			"0.007": 6.00126098506,
			"0.008": 6.02396563682,
			"0.009": 5.19748971659,
			"0.01": 3.56138628858,
			"0.011": 4.30341726162,
			"0.012": 5.02750652215,
			"0.013": 1.37087366948,
			"0.014": 1.05839801818,
			"0.015": 0.697374366054,
			"0.016": 0.012485678699,
			"0.017": 0.0,
			"0.018": 0.0,
			"0.019": 0.0,
			"0.02": 0.0,
			"0.021": 0.0,
			"0.022": 0.0,
			"0.023": 0.0,
			"0.024": 0.0,
			"0.025": 0.0
		}
	}
}
