{
	 "smiles": "CCOC1=CC=CC=C1OCCBr", 
	 "Tm": 315.15, 
	 "num_atms": 26, 
	 "gaussian": { 
		 "optdone": 1, 
		 "sigma_profile": "yes", 
		 "theory": "DFT", 
		 "functional": "B3LYP", 
		 "basiset": "6-31G**", 
		 "properties": { 
			 "R2extent": 4627.398, 
			 "electric_dipole_moment_norm": 2.24024276586, 
			 "electric_quadrupole_moment_norm": 7.90115004287, 
			 "total_energy": -3110.73265224, 
			 "HOMO_LUMO_gap": 0.23087, 
			 "cosmo_polarized_energy": -8.65, 
			 "cosmo_cavitation_energy": 31.77, 
			 "cosmo_dispersion_energy": -22.37, 
			 "cosmo_repulsion_energy": 1.82, 
			 "cosmo_total_nonelectrostatic_energy": 11.23, 
			 "SMD_solvation_energy": 4.63 
		},
		"coords": [
			{
				"x": -3.4647268665,
				"y": 2.0937232485,
				"z": -0.2522480068,
				"element": "C" 
			},
			{
				"x": -2.7254097301,
				"y": 1.0578058932,
				"z": 0.5748135031,
				"element": "C" 
			},
			{
				"x": -2.8188989405,
				"y": -0.2049401035,
				"z": -0.1138813049,
				"element": "O" 
			},
			{
				"x": -2.2171564186,
				"y": -1.2621852813,
				"z": 0.5349028983,
				"element": "C" 
			},
			{
				"x": -3.0104158851,
				"y": -2.2318484311,
				"z": 1.1504483868,
				"element": "C" 
			},
			{
				"x": -2.4215377722,
				"y": -3.3252115123,
				"z": 1.7884926856,
				"element": "C" 
			},
			{
				"x": -1.0314061193,
				"y": -3.4481181349,
				"z": 1.8211593171,
				"element": "C" 
			},
			{
				"x": -0.2320445828,
				"y": -2.4883853851,
				"z": 1.1974159158,
				"element": "C" 
			},
			{
				"x": -0.8173076106,
				"y": -1.3995388007,
				"z": 0.5511583811,
				"element": "C" 
			},
			{
				"x": -0.0017923162,
				"y": -0.4497107947,
				"z": -0.0310199853,
				"element": "O" 
			},
			{
				"x": -0.0195417821,
				"y": -0.4338935451,
				"z": -1.4594051857,
				"element": "C" 
			},
			{
				"x": 1.0292825883,
				"y": 0.5393440125,
				"z": -1.9450773214,
				"element": "C" 
			},
			{
				"x": 2.8693748079,
				"y": -0.0732120869,
				"z": -1.5575179745,
				"element": "Br" 
			},
			{
				"x": -3.0107732124,
				"y": 2.1993820281,
				"z": -1.2422043373,
				"element": "H" 
			},
			{
				"x": -4.5117097487,
				"y": 1.806559984,
				"z": -0.3852521208,
				"element": "H" 
			},
			{
				"x": -3.432002935,
				"y": 3.0671604337,
				"z": 0.2471257488,
				"element": "H" 
			},
			{
				"x": -1.6709714267,
				"y": 1.3283787035,
				"z": 0.7058115002,
				"element": "H" 
			},
			{
				"x": -3.1775039064,
				"y": 0.9563663008,
				"z": 1.5711356418,
				"element": "H" 
			},
			{
				"x": -4.0886451572,
				"y": -2.1101757944,
				"z": 1.1152085198,
				"element": "H" 
			},
			{
				"x": -3.0483852884,
				"y": -4.0733044444,
				"z": 2.2644938391,
				"element": "H" 
			},
			{
				"x": -0.5679968661,
				"y": -4.2930481579,
				"z": 2.3214842822,
				"element": "H" 
			},
			{
				"x": 0.8509124825,
				"y": -2.561393285,
				"z": 1.1973411649,
				"element": "H" 
			},
			{
				"x": -1.0024649784,
				"y": -0.100154438,
				"z": -1.8210328971,
				"element": "H" 
			},
			{
				"x": 0.1716105013,
				"y": -1.4400930625,
				"z": -1.8526982738,
				"element": "H" 
			},
			{
				"x": 0.9307100229,
				"y": 1.5080672008,
				"z": -1.4562878643,
				"element": "H" 
			},
			{
				"x": 0.9762011403,
				"y": 0.6578254529,
				"z": -3.0269665127,
				"element": "H" 
			}
		],
		 "valence_orbital": [ 
			{
				"type": "occ",
				"energy": -0.27189,
				"method": "rhf"
			},
			{
				"type": "occ",
				"energy": -0.26984,
				"method": "rhf"
			},
			{
				"type": "occ",
				"energy": -0.26324,
				"method": "rhf"
			},
			{
				"type": "occ",
				"energy": -0.2465,
				"method": "rhf"
			},
			{
				"type": "occ",
				"energy": -0.23276,
				"method": "rhf"
			},
			{
				"type": "unocc",
				"energy": -0.00189,
				"method": "rhf"
			},
			{
				"type": "unocc",
				"energy": -0.00065,
				"method": "rhf"
			},
			{
				"type": "unocc",
				"energy": 0.0056,
				"method": "rhf"
			},
			{
				"type": "unocc",
				"energy": 0.07682,
				"method": "rhf"
			},
			{
				"type": "unocc",
				"energy": 0.09306,
				"method": "rhf"
			}
		],
		"cosmo_sigma_profile": { 
			"-0.025": 0.0,
			"-0.024": 0.0,
			"-0.023": 0.0,
			"-0.022": 0.0,
			"-0.021": 0.0,
			"-0.02": 0.0,
			"-0.019": 0.0,
			"-0.018": 0.0,
			"-0.017": 0.0,
			"-0.016": 0.0,
			"-0.015": 0.0,
			"-0.014": 0.0,
			"-0.013": 0.0,
			"-0.012": 0.0,
			"-0.011": 0.0,
			"-0.01": 0.0,
			"-0.009": 0.10446530392,
			"-0.008": 2.50592829274,
			"-0.007": 4.91824744845,
			"-0.006": 12.2647213949,
			"-0.005": 16.6303314264,
			"-0.004": 21.5994389628,
			"-0.003": 25.3829997872,
			"-0.002": 23.5273283945,
			"-0.001": 21.7659796341,
			"0.0": 20.1795234568,
			"0.001": 16.2559565765,
			"0.002": 12.5786284197,
			"0.003": 15.0176995606,
			"0.004": 16.0388044574,
			"0.005": 17.0267476125,
			"0.006": 13.8529253667,
			"0.007": 5.2084201053,
			"0.008": 3.17172971919,
			"0.009": 1.91969353583,
			"0.01": 2.265854587,
			"0.011": 1.66302246764,
			"0.012": 0.47027892477,
			"0.013": 0.0,
			"0.014": 0.0,
			"0.015": 0.0,
			"0.016": 0.0,
			"0.017": 0.0,
			"0.018": 0.0,
			"0.019": 0.0,
			"0.02": 0.0,
			"0.021": 0.0,
			"0.022": 0.0,
			"0.023": 0.0,
			"0.024": 0.0,
			"0.025": 0.0
		}
	}
}
