{
	 "smiles": "OC(=O)CCC1=NC2=C(NC1=O)C=CC=C2", 
	 "Tm": 537.15, 
	 "num_atms": 26, 
	 "gaussian": { 
		 "optdone": 1, 
		 "sigma_profile": "yes", 
		 "theory": "DFT", 
		 "functional": "B3LYP", 
		 "basiset": "6-31G**", 
		 "properties": { 
			 "R2extent": 4923.785, 
			 "electric_dipole_moment_norm": 3.45433941297, 
			 "electric_quadrupole_moment_norm": 18.8083416162, 
			 "total_energy": -760.414725791, 
			 "HOMO_LUMO_gap": 0.16401, 
			 "cosmo_polarized_energy": -18.84, 
			 "cosmo_cavitation_energy": 30.99, 
			 "cosmo_dispersion_energy": -22.18, 
			 "cosmo_repulsion_energy": 1.74, 
			 "cosmo_total_nonelectrostatic_energy": 10.55, 
			 "SMD_solvation_energy": 5.79 
		},
		"coords": [
			{
				"x": -2.3999916632,
				"y": -2.7289751858,
				"z": -3.3428693761,
				"element": "O" 
			},
			{
				"x": -1.0523102175,
				"y": -2.594755994,
				"z": -3.3068852509,
				"element": "C" 
			},
			{
				"x": -0.4206789292,
				"y": -2.1265158765,
				"z": -4.2286115633,
				"element": "O" 
			},
			{
				"x": -0.4708449989,
				"y": -3.1447687882,
				"z": -2.021247111,
				"element": "C" 
			},
			{
				"x": 0.9474902701,
				"y": -2.6476424843,
				"z": -1.761812666,
				"element": "C" 
			},
			{
				"x": 1.021342965,
				"y": -1.1925013918,
				"z": -1.3821837313,
				"element": "C" 
			},
			{
				"x": -0.0528867873,
				"y": -0.476624417,
				"z": -1.2874869159,
				"element": "N" 
			},
			{
				"x": 0.0374271712,
				"y": 0.8647661926,
				"z": -0.9446303184,
				"element": "C" 
			},
			{
				"x": 1.2856467114,
				"y": 1.4803191357,
				"z": -0.6924151191,
				"element": "C" 
			},
			{
				"x": 2.4117949396,
				"y": 0.682914397,
				"z": -0.7963228707,
				"element": "N" 
			},
			{
				"x": 2.3917117314,
				"y": -0.6608133601,
				"z": -1.1286367728,
				"element": "C" 
			},
			{
				"x": 3.4147842733,
				"y": -1.3320253495,
				"z": -1.1973624897,
				"element": "O" 
			},
			{
				"x": 1.3529977741,
				"y": 2.8386369332,
				"z": -0.3513123402,
				"element": "C" 
			},
			{
				"x": 0.1797695627,
				"y": 3.5775328018,
				"z": -0.2619300057,
				"element": "C" 
			},
			{
				"x": -1.0668110852,
				"y": 2.9798066486,
				"z": -0.5087968153,
				"element": "C" 
			},
			{
				"x": -1.1334532212,
				"y": 1.6358421337,
				"z": -0.8470145853,
				"element": "C" 
			},
			{
				"x": -2.678380595,
				"y": -2.3849947709,
				"z": -4.2082571061,
				"element": "H" 
			},
			{
				"x": -0.4703148486,
				"y": -4.2382970186,
				"z": -2.1129131896,
				"element": "H" 
			},
			{
				"x": -1.1458397843,
				"y": -2.8942885172,
				"z": -1.1994310579,
				"element": "H" 
			},
			{
				"x": 1.5713471978,
				"y": -2.7982731942,
				"z": -2.6501513018,
				"element": "H" 
			},
			{
				"x": 1.4246811385,
				"y": -3.2358704008,
				"z": -0.9685971876,
				"element": "H" 
			},
			{
				"x": 3.3305503479,
				"y": 1.0738614505,
				"z": -0.6230876377,
				"element": "H" 
			},
			{
				"x": 2.3179790328,
				"y": 3.3006937884,
				"z": -0.1604774161,
				"element": "H" 
			},
			{
				"x": 0.2327041659,
				"y": 4.629446729,
				"z": 0.0020990426,
				"element": "H" 
			},
			{
				"x": -1.9748197346,
				"y": 3.5695549769,
				"z": -0.4356460134,
				"element": "H" 
			},
			{
				"x": -2.0788954168,
				"y": 1.1419715617,
				"z": -1.0461202006,
				"element": "H" 
			}
		],
		 "valence_orbital": [ 
			{
				"type": "occ",
				"energy": -0.30003,
				"method": "rhf"
			},
			{
				"type": "occ",
				"energy": -0.26971,
				"method": "rhf"
			},
			{
				"type": "occ",
				"energy": -0.25398,
				"method": "rhf"
			},
			{
				"type": "occ",
				"energy": -0.24782,
				"method": "rhf"
			},
			{
				"type": "occ",
				"energy": -0.22894,
				"method": "rhf"
			},
			{
				"type": "unocc",
				"energy": -0.06493,
				"method": "rhf"
			},
			{
				"type": "unocc",
				"energy": -0.01301,
				"method": "rhf"
			},
			{
				"type": "unocc",
				"energy": -0.00048,
				"method": "rhf"
			},
			{
				"type": "unocc",
				"energy": 0.01927,
				"method": "rhf"
			},
			{
				"type": "unocc",
				"energy": 0.07548,
				"method": "rhf"
			}
		],
		"cosmo_sigma_profile": { 
			"-0.025": 0.0,
			"-0.024": 0.0,
			"-0.023": 0.0,
			"-0.022": 0.0,
			"-0.021": 0.0,
			"-0.02": 0.0,
			"-0.019": 0.0,
			"-0.018": 0.455577359795,
			"-0.017": 0.950409295023,
			"-0.016": 2.14527450488,
			"-0.015": 1.93453829686,
			"-0.014": 1.99325202074,
			"-0.013": 2.02973638136,
			"-0.012": 2.12583806654,
			"-0.011": 1.01132032791,
			"-0.01": 1.96058337665,
			"-0.009": 1.72157492625,
			"-0.008": 3.07164955053,
			"-0.007": 6.54211644623,
			"-0.006": 11.5416784874,
			"-0.005": 16.8825252892,
			"-0.004": 21.1434456132,
			"-0.003": 17.7337243346,
			"-0.002": 17.5302432669,
			"-0.001": 14.2658153121,
			"0.0": 12.3835403079,
			"0.001": 12.3297250527,
			"0.002": 14.3493115046,
			"0.003": 14.6935253323,
			"0.004": 14.2091195024,
			"0.005": 6.25398757842,
			"0.006": 7.88209617669,
			"0.007": 6.35451881997,
			"0.008": 4.35399283013,
			"0.009": 5.05894633865,
			"0.01": 4.29017454115,
			"0.011": 4.91303438495,
			"0.012": 7.16887462038,
			"0.013": 6.19108709772,
			"0.014": 1.19309650483,
			"0.015": 0.0,
			"0.016": 0.0,
			"0.017": 0.0,
			"0.018": 0.0,
			"0.019": 0.0,
			"0.02": 0.0,
			"0.021": 0.0,
			"0.022": 0.0,
			"0.023": 0.0,
			"0.024": 0.0,
			"0.025": 0.0
		}
	}
}
