{
	 "smiles": "O=C(C(=O)C1=CC=CO1)C1=CC=CO1", 
	 "Tm": 437.15, 
	 "num_atms": 20, 
	 "gaussian": { 
		 "optdone": 1, 
		 "sigma_profile": "yes", 
		 "theory": "DFT", 
		 "functional": "B3LYP", 
		 "basiset": "6-31G**", 
		 "properties": { 
			 "R2extent": 3631.0998, 
			 "electric_dipole_moment_norm": 3.06110057006, 
			 "electric_quadrupole_moment_norm": 23.2330080123, 
			 "total_energy": -685.499268629, 
			 "HOMO_LUMO_gap": 0.1563, 
			 "cosmo_polarized_energy": -13.84, 
			 "cosmo_cavitation_energy": 27.01, 
			 "cosmo_dispersion_energy": -19.18, 
			 "cosmo_repulsion_energy": 1.51, 
			 "cosmo_total_nonelectrostatic_energy": 9.34, 
			 "SMD_solvation_energy": 7.9 
		},
		"coords": [
			{
				"x": -1.5454107537,
				"y": 1.3061008664,
				"z": 0.0457387986,
				"element": "O" 
			},
			{
				"x": -1.7410235068,
				"y": 0.1426756465,
				"z": -0.2788748023,
				"element": "C" 
			},
			{
				"x": -0.6570646552,
				"y": -0.6141871171,
				"z": -1.0681031316,
				"element": "C" 
			},
			{
				"x": -0.9311666463,
				"y": -1.0867718174,
				"z": -2.1629683784,
				"element": "O" 
			},
			{
				"x": 0.6947866973,
				"y": -0.6528735745,
				"z": -0.523213319,
				"element": "C" 
			},
			{
				"x": 1.8648174313,
				"y": -1.1315351276,
				"z": -1.0628749796,
				"element": "C" 
			},
			{
				"x": 2.8692844843,
				"y": -0.9483229218,
				"z": -0.074222203,
				"element": "C" 
			},
			{
				"x": 2.2399357482,
				"y": -0.3781312553,
				"z": 1.000132504,
				"element": "C" 
			},
			{
				"x": 0.92614835,
				"y": -0.1921625615,
				"z": 0.7483577751,
				"element": "O" 
			},
			{
				"x": -3.0123591195,
				"y": -0.5276346849,
				"z": -0.0332991217,
				"element": "C" 
			},
			{
				"x": -4.1814890617,
				"y": -0.0576315183,
				"z": 0.5158440468,
				"element": "C" 
			},
			{
				"x": -5.081929138,
				"y": -1.156770148,
				"z": 0.5484124042,
				"element": "C" 
			},
			{
				"x": -4.3964843741,
				"y": -2.2201058796,
				"z": 0.0240946928,
				"element": "C" 
			},
			{
				"x": -3.1446579348,
				"y": -1.8601100393,
				"z": -0.332766478,
				"element": "O" 
			},
			{
				"x": 1.9672900759,
				"y": -1.5563172529,
				"z": -2.0504063023,
				"element": "H" 
			},
			{
				"x": 3.9169169909,
				"y": -1.2025084669,
				"z": -0.1434573404,
				"element": "H" 
			},
			{
				"x": 2.5831138608,
				"y": -0.0597669639,
				"z": 1.9728935151,
				"element": "H" 
			},
			{
				"x": -4.3509328254,
				"y": 0.956402617,
				"z": 0.8462709861,
				"element": "H" 
			},
			{
				"x": -6.0998192602,
				"y": -1.1649349424,
				"z": 0.9100357967,
				"element": "H" 
			},
			{
				"x": -4.6585563631,
				"y": -3.2523148584,
				"z": -0.1526944631,
				"element": "H" 
			}
		],
		 "valence_orbital": [ 
			{
				"type": "occ",
				"energy": -0.29584,
				"method": "rhf"
			},
			{
				"type": "occ",
				"energy": -0.29509,
				"method": "rhf"
			},
			{
				"type": "occ",
				"energy": -0.24872,
				"method": "rhf"
			},
			{
				"type": "occ",
				"energy": -0.24461,
				"method": "rhf"
			},
			{
				"type": "occ",
				"energy": -0.23507,
				"method": "rhf"
			},
			{
				"type": "unocc",
				"energy": -0.07877,
				"method": "rhf"
			},
			{
				"type": "unocc",
				"energy": -0.04869,
				"method": "rhf"
			},
			{
				"type": "unocc",
				"energy": 0.02149,
				"method": "rhf"
			},
			{
				"type": "unocc",
				"energy": 0.03728,
				"method": "rhf"
			},
			{
				"type": "unocc",
				"energy": 0.07963,
				"method": "rhf"
			}
		],
		"cosmo_sigma_profile": { 
			"-0.025": 0.0,
			"-0.024": 0.0,
			"-0.023": 0.0,
			"-0.022": 0.0,
			"-0.021": 0.0,
			"-0.02": 0.0,
			"-0.019": 0.0,
			"-0.018": 0.0,
			"-0.017": 0.0,
			"-0.016": 0.0,
			"-0.015": 0.0,
			"-0.014": 0.0,
			"-0.013": 0.0,
			"-0.012": 0.0,
			"-0.011": 0.902920400222,
			"-0.01": 3.68796546165,
			"-0.009": 5.60926101602,
			"-0.008": 10.0265401847,
			"-0.007": 9.19187873115,
			"-0.006": 11.0959639142,
			"-0.005": 10.3358151269,
			"-0.004": 11.6270043504,
			"-0.003": 10.3516163259,
			"-0.002": 11.6442436769,
			"-0.001": 14.2196720868,
			"0.0": 22.220148983,
			"0.001": 22.0938454156,
			"0.002": 18.4259831013,
			"0.003": 10.3122659739,
			"0.004": 5.03386893365,
			"0.005": 4.57039501286,
			"0.006": 4.56732538198,
			"0.007": 4.71322866172,
			"0.008": 4.52085321973,
			"0.009": 5.12666428196,
			"0.01": 7.55460154395,
			"0.011": 9.45848963734,
			"0.012": 1.80465028316,
			"0.013": 0.0,
			"0.014": 0.0,
			"0.015": 0.0,
			"0.016": 0.0,
			"0.017": 0.0,
			"0.018": 0.0,
			"0.019": 0.0,
			"0.02": 0.0,
			"0.021": 0.0,
			"0.022": 0.0,
			"0.023": 0.0,
			"0.024": 0.0,
			"0.025": 0.0
		}
	}
}
