{
	 "smiles": "CC(=O)C1=CC=C(F)C(=C1)[N+]([O-])=O", 
	 "Tm": 321.15, 
	 "num_atms": 19, 
	 "gaussian": { 
		 "optdone": 1, 
		 "sigma_profile": "yes", 
		 "theory": "DFT", 
		 "functional": "B3LYP", 
		 "basiset": "6-31G**", 
		 "properties": { 
			 "R2extent": 2929.6846, 
			 "electric_dipole_moment_norm": 6.24472450874, 
			 "electric_quadrupole_moment_norm": 8.19184042325, 
			 "total_energy": -688.614636194, 
			 "HOMO_LUMO_gap": 0.17165, 
			 "cosmo_polarized_energy": -13.51, 
			 "cosmo_cavitation_energy": 25.14, 
			 "cosmo_dispersion_energy": -18.11, 
			 "cosmo_repulsion_energy": 1.4, 
			 "cosmo_total_nonelectrostatic_energy": 8.43, 
			 "SMD_solvation_energy": 7.79 
		},
		"coords": [
			{
				"x": 2.6499334324,
				"y": 0.1313465757,
				"z": -1.847170998,
				"element": "C" 
			},
			{
				"x": 1.4956274059,
				"y": -0.8005325651,
				"z": -1.5280223424,
				"element": "C" 
			},
			{
				"x": 1.4739237822,
				"y": -1.9448161595,
				"z": -1.9493452405,
				"element": "O" 
			},
			{
				"x": 0.3671885462,
				"y": -0.2887031015,
				"z": -0.6764215357,
				"element": "C" 
			},
			{
				"x": 0.3272165357,
				"y": 1.0120704539,
				"z": -0.1500766514,
				"element": "C" 
			},
			{
				"x": -0.744823627,
				"y": 1.4306339226,
				"z": 0.6315539345,
				"element": "C" 
			},
			{
				"x": -1.7881086403,
				"y": 0.5507463897,
				"z": 0.906933877,
				"element": "C" 
			},
			{
				"x": -2.8026723584,
				"y": 0.9967570874,
				"z": 1.6433639393,
				"element": "F" 
			},
			{
				"x": -1.760038392,
				"y": -0.7544221255,
				"z": 0.388142079,
				"element": "C" 
			},
			{
				"x": -0.6908754498,
				"y": -1.1608937171,
				"z": -0.4022193073,
				"element": "C" 
			},
			{
				"x": -2.8330455697,
				"y": -1.7246785962,
				"z": 0.6607438716,
				"element": "N" 
			},
			{
				"x": -3.5982436068,
				"y": -1.4860804635,
				"z": 1.590351187,
				"element": "O" 
			},
			{
				"x": -2.8793792953,
				"y": -2.7202134573,
				"z": -0.0595449279,
				"element": "O" 
			},
			{
				"x": 3.1482531736,
				"y": 0.4687229259,
				"z": -0.9313759788,
				"element": "H" 
			},
			{
				"x": 2.3006693935,
				"y": 1.023592606,
				"z": -2.3788237812,
				"element": "H" 
			},
			{
				"x": 3.3663341879,
				"y": -0.4029883977,
				"z": -2.4712131454,
				"element": "H" 
			},
			{
				"x": 1.132642711,
				"y": 1.7107621132,
				"z": -0.3493209545,
				"element": "H" 
			},
			{
				"x": -0.7982525967,
				"y": 2.4341377607,
				"z": 1.0387720709,
				"element": "H" 
			},
			{
				"x": -0.6774496323,
				"y": -2.1648412518,
				"z": -0.8089260961,
				"element": "H" 
			}
		],
		 "valence_orbital": [ 
			{
				"type": "occ",
				"energy": -0.3136,
				"method": "rhf"
			},
			{
				"type": "occ",
				"energy": -0.30676,
				"method": "rhf"
			},
			{
				"type": "occ",
				"energy": -0.29341,
				"method": "rhf"
			},
			{
				"type": "occ",
				"energy": -0.28238,
				"method": "rhf"
			},
			{
				"type": "occ",
				"energy": -0.26911,
				"method": "rhf"
			},
			{
				"type": "unocc",
				"energy": -0.09746,
				"method": "rhf"
			},
			{
				"type": "unocc",
				"energy": -0.07612,
				"method": "rhf"
			},
			{
				"type": "unocc",
				"energy": -0.02591,
				"method": "rhf"
			},
			{
				"type": "unocc",
				"energy": 0.0228,
				"method": "rhf"
			},
			{
				"type": "unocc",
				"energy": 0.05526,
				"method": "rhf"
			}
		],
		"cosmo_sigma_profile": { 
			"-0.025": 0.0,
			"-0.024": 0.0,
			"-0.023": 0.0,
			"-0.022": 0.0,
			"-0.021": 0.0,
			"-0.02": 0.0,
			"-0.019": 0.0,
			"-0.018": 0.0,
			"-0.017": 0.0,
			"-0.016": 0.0,
			"-0.015": 0.0,
			"-0.014": 0.0,
			"-0.013": 0.0,
			"-0.012": 0.0,
			"-0.011": 0.0,
			"-0.01": 0.0712372328049,
			"-0.009": 2.77102062016,
			"-0.008": 7.74469014618,
			"-0.007": 11.0694346769,
			"-0.006": 9.32453192199,
			"-0.005": 12.370522798,
			"-0.004": 13.2298572421,
			"-0.003": 16.2742422632,
			"-0.002": 20.3575166168,
			"-0.001": 19.9386931218,
			"0.0": 12.0152638236,
			"0.001": 7.21529488414,
			"0.002": 8.89489484302,
			"0.003": 7.73659440416,
			"0.004": 5.42524113374,
			"0.005": 5.29214857093,
			"0.006": 5.89890756904,
			"0.007": 12.0005080846,
			"0.008": 8.99660532767,
			"0.009": 5.6884845327,
			"0.01": 3.51450247874,
			"0.011": 3.4940587325,
			"0.012": 2.22232132381,
			"0.013": 0.470709239325,
			"0.014": 0.0,
			"0.015": 0.0,
			"0.016": 0.0,
			"0.017": 0.0,
			"0.018": 0.0,
			"0.019": 0.0,
			"0.02": 0.0,
			"0.021": 0.0,
			"0.022": 0.0,
			"0.023": 0.0,
			"0.024": 0.0,
			"0.025": 0.0
		}
	}
}
