{
	 "smiles": "CCC1=CC=C(O)C(O)=C1", 
	 "Tm": 312.15, 
	 "num_atms": 20, 
	 "gaussian": { 
		 "optdone": 1, 
		 "sigma_profile": "yes", 
		 "theory": "DFT", 
		 "functional": "B3LYP", 
		 "basiset": "6-31G**", 
		 "properties": { 
			 "R2extent": 1799.3585, 
			 "electric_dipole_moment_norm": 2.56066589191, 
			 "electric_quadrupole_moment_norm": 9.60271513636, 
			 "total_energy": -461.32734956, 
			 "HOMO_LUMO_gap": 0.20958, 
			 "cosmo_polarized_energy": -9.78, 
			 "cosmo_cavitation_energy": 23.37, 
			 "cosmo_dispersion_energy": -17.3, 
			 "cosmo_repulsion_energy": 1.42, 
			 "cosmo_total_nonelectrostatic_energy": 7.49, 
			 "SMD_solvation_energy": 4.57 
		},
		"coords": [
			{
				"x": 2.320080567,
				"y": 1.9010303732,
				"z": -0.8485966179,
				"element": "C" 
			},
			{
				"x": 0.8177664283,
				"y": 1.7021316014,
				"z": -1.1188646617,
				"element": "C" 
			},
			{
				"x": 0.2519075474,
				"y": 0.463461681,
				"z": -0.456091181,
				"element": "C" 
			},
			{
				"x": -0.3236886738,
				"y": 0.5188788986,
				"z": 0.8173462516,
				"element": "C" 
			},
			{
				"x": -0.8092530543,
				"y": -0.631132318,
				"z": 1.4458535464,
				"element": "C" 
			},
			{
				"x": -0.7278329857,
				"y": -1.8646265604,
				"z": 0.807152613,
				"element": "C" 
			},
			{
				"x": -1.204266187,
				"y": -2.9904239767,
				"z": 1.4129878816,
				"element": "O" 
			},
			{
				"x": -0.1534392597,
				"y": -1.9318649028,
				"z": -0.4737370093,
				"element": "C" 
			},
			{
				"x": -0.1224435803,
				"y": -3.1921555241,
				"z": -1.0310230292,
				"element": "O" 
			},
			{
				"x": 0.3280468557,
				"y": -0.7851224455,
				"z": -1.0943171586,
				"element": "C" 
			},
			{
				"x": 2.9018429202,
				"y": 1.0492738898,
				"z": -1.2164624251,
				"element": "H" 
			},
			{
				"x": 2.6932811787,
				"y": 2.8050032185,
				"z": -1.3420762587,
				"element": "H" 
			},
			{
				"x": 2.5146664665,
				"y": 1.9939847266,
				"z": 0.2247090691,
				"element": "H" 
			},
			{
				"x": 0.2694733077,
				"y": 2.5837635646,
				"z": -0.7663439495,
				"element": "H" 
			},
			{
				"x": 0.6514377471,
				"y": 1.6494444068,
				"z": -2.2021846652,
				"element": "H" 
			},
			{
				"x": -0.398961735,
				"y": 1.4747259448,
				"z": 1.3290814057,
				"element": "H" 
			},
			{
				"x": -1.2599540013,
				"y": -0.5871222642,
				"z": 2.4320854413,
				"element": "H" 
			},
			{
				"x": -1.0559774962,
				"y": -3.730142315,
				"z": 0.8053669984,
				"element": "H" 
			},
			{
				"x": 0.283129892,
				"y": -3.1515154321,
				"z": -1.9054755404,
				"element": "H" 
			},
			{
				"x": 0.7655840626,
				"y": -0.8601925667,
				"z": -2.0892107104,
				"element": "H" 
			}
		],
		 "valence_orbital": [ 
			{
				"type": "occ",
				"energy": -0.33495,
				"method": "rhf"
			},
			{
				"type": "occ",
				"energy": -0.32964,
				"method": "rhf"
			},
			{
				"type": "occ",
				"energy": -0.31068,
				"method": "rhf"
			},
			{
				"type": "occ",
				"energy": -0.23354,
				"method": "rhf"
			},
			{
				"type": "occ",
				"energy": -0.20111,
				"method": "rhf"
			},
			{
				"type": "unocc",
				"energy": 0.00847,
				"method": "rhf"
			},
			{
				"type": "unocc",
				"energy": 0.02181,
				"method": "rhf"
			},
			{
				"type": "unocc",
				"energy": 0.05594,
				"method": "rhf"
			},
			{
				"type": "unocc",
				"energy": 0.09188,
				"method": "rhf"
			},
			{
				"type": "unocc",
				"energy": 0.11762,
				"method": "rhf"
			}
		],
		"cosmo_sigma_profile": { 
			"-0.025": 0.0,
			"-0.024": 0.0,
			"-0.023": 0.0,
			"-0.022": 0.0,
			"-0.021": 0.0,
			"-0.02": 0.0,
			"-0.019": 0.0390229039365,
			"-0.018": 0.631691869243,
			"-0.017": 0.971508712648,
			"-0.016": 1.5093489476,
			"-0.015": 0.744525551477,
			"-0.014": 1.01563747368,
			"-0.013": 1.69488990248,
			"-0.012": 1.35415909685,
			"-0.011": 1.10497309285,
			"-0.01": 2.31195772354,
			"-0.009": 1.45566179415,
			"-0.008": 2.38436722192,
			"-0.007": 1.46482003356,
			"-0.006": 2.37918886809,
			"-0.005": 5.60413287358,
			"-0.004": 7.50194161986,
			"-0.003": 15.4043116313,
			"-0.002": 16.0666994462,
			"-0.001": 17.8457330853,
			"0.0": 18.1782924859,
			"0.001": 15.5996638716,
			"0.002": 11.1405281806,
			"0.003": 10.0682449699,
			"0.004": 10.9684428758,
			"0.005": 10.7102428763,
			"0.006": 11.506556237,
			"0.007": 5.28599462708,
			"0.008": 2.57019118342,
			"0.009": 0.99587182827,
			"0.01": 1.92835248146,
			"0.011": 1.74713890366,
			"0.012": 1.66286743655,
			"0.013": 0.0266480873661,
			"0.014": 0.0,
			"0.015": 0.0,
			"0.016": 0.0,
			"0.017": 0.0,
			"0.018": 0.0,
			"0.019": 0.0,
			"0.02": 0.0,
			"0.021": 0.0,
			"0.022": 0.0,
			"0.023": 0.0,
			"0.024": 0.0,
			"0.025": 0.0
		}
	}
}
