{
	 "smiles": "COC(=O)C1=NC=CC(Cl)=C1", 
	 "Tm": 329.15, 
	 "num_atms": 17, 
	 "gaussian": { 
		 "optdone": 1, 
		 "sigma_profile": "yes", 
		 "theory": "DFT", 
		 "functional": "B3LYP", 
		 "basiset": "6-31G**", 
		 "properties": { 
			 "R2extent": 3900.5314, 
			 "electric_dipole_moment_norm": 2.13470811354, 
			 "electric_quadrupole_moment_norm": 18.2564381866, 
			 "total_energy": -935.749219732, 
			 "HOMO_LUMO_gap": 0.20781, 
			 "cosmo_polarized_energy": -11.1, 
			 "cosmo_cavitation_energy": 24.06, 
			 "cosmo_dispersion_energy": -17.88, 
			 "cosmo_repulsion_energy": 1.45, 
			 "cosmo_total_nonelectrostatic_energy": 7.63, 
			 "SMD_solvation_energy": 4.4 
		},
		"coords": [
			{
				"x": -5.1075721358,
				"y": -0.1285918216,
				"z": 0.6284263209,
				"element": "C" 
			},
			{
				"x": -3.9632849603,
				"y": 0.1085855572,
				"z": -0.2076430831,
				"element": "O" 
			},
			{
				"x": -2.766051193,
				"y": -0.1173893037,
				"z": 0.3831997596,
				"element": "C" 
			},
			{
				"x": -2.6389568097,
				"y": -0.4913823485,
				"z": 1.525215446,
				"element": "O" 
			},
			{
				"x": -1.6274861773,
				"y": 0.1562261307,
				"z": -0.5682731927,
				"element": "C" 
			},
			{
				"x": -0.4008009215,
				"y": -0.0422899458,
				"z": -0.0678632021,
				"element": "N" 
			},
			{
				"x": 0.6356037918,
				"y": 0.1876554684,
				"z": -0.874359827,
				"element": "C" 
			},
			{
				"x": 0.5174315975,
				"y": 0.6196734884,
				"z": -2.1988661509,
				"element": "C" 
			},
			{
				"x": -0.7673868348,
				"y": 0.818476082,
				"z": -2.694953271,
				"element": "C" 
			},
			{
				"x": -0.9996109227,
				"y": 1.3587698121,
				"z": -4.3435625677,
				"element": "Cl" 
			},
			{
				"x": -1.8709018921,
				"y": 0.587197515,
				"z": -1.8782792525,
				"element": "C" 
			},
			{
				"x": -5.9760147425,
				"y": 0.096804746,
				"z": 0.0099935583,
				"element": "H" 
			},
			{
				"x": -5.1303000598,
				"y": -1.1695059786,
				"z": 0.9604133274,
				"element": "H" 
			},
			{
				"x": -5.0810616798,
				"y": 0.5204714272,
				"z": 1.5072063057,
				"element": "H" 
			},
			{
				"x": 1.6232493013,
				"y": 0.0205632629,
				"z": -0.4490060253,
				"element": "H" 
			},
			{
				"x": 1.3926222454,
				"y": 0.7926640508,
				"z": -2.8143102173,
				"element": "H" 
			},
			{
				"x": -2.8809786068,
				"y": 0.7331718576,
				"z": -2.2365379284,
				"element": "H" 
			}
		],
		 "valence_orbital": [ 
			{
				"type": "occ",
				"energy": -0.30861,
				"method": "rhf"
			},
			{
				"type": "occ",
				"energy": -0.28439,
				"method": "rhf"
			},
			{
				"type": "occ",
				"energy": -0.28413,
				"method": "rhf"
			},
			{
				"type": "occ",
				"energy": -0.27877,
				"method": "rhf"
			},
			{
				"type": "occ",
				"energy": -0.27387,
				"method": "rhf"
			},
			{
				"type": "unocc",
				"energy": -0.06606,
				"method": "rhf"
			},
			{
				"type": "unocc",
				"energy": -0.03962,
				"method": "rhf"
			},
			{
				"type": "unocc",
				"energy": 0.01392,
				"method": "rhf"
			},
			{
				"type": "unocc",
				"energy": 0.0421,
				"method": "rhf"
			},
			{
				"type": "unocc",
				"energy": 0.10694,
				"method": "rhf"
			}
		],
		"cosmo_sigma_profile": { 
			"-0.025": 0.0,
			"-0.024": 0.0,
			"-0.023": 0.0,
			"-0.022": 0.0,
			"-0.021": 0.0,
			"-0.02": 0.0,
			"-0.019": 0.0,
			"-0.018": 0.0,
			"-0.017": 0.0,
			"-0.016": 0.0,
			"-0.015": 0.0,
			"-0.014": 0.0,
			"-0.013": 0.0,
			"-0.012": 0.0,
			"-0.011": 0.0,
			"-0.01": 0.0426046407923,
			"-0.009": 1.42976724406,
			"-0.008": 4.27643513767,
			"-0.007": 7.05587124848,
			"-0.006": 10.4589176491,
			"-0.005": 12.1306628965,
			"-0.004": 15.6564105619,
			"-0.003": 16.3481374257,
			"-0.002": 16.158146006,
			"-0.001": 24.4672686281,
			"0.0": 17.3566046315,
			"0.001": 9.78535468923,
			"0.002": 10.582763443,
			"0.003": 13.6324177339,
			"0.004": 8.34549729041,
			"0.005": 2.959671974,
			"0.006": 2.12381256516,
			"0.007": 1.94209356718,
			"0.008": 1.94896862685,
			"0.009": 2.05450721249,
			"0.01": 2.69785104642,
			"0.011": 4.9109338184,
			"0.012": 3.3101985495,
			"0.013": 1.52963561192,
			"0.014": 1.12379214623,
			"0.015": 1.53941467471,
			"0.016": 0.998748064164,
			"0.017": 0.775204135083,
			"0.018": 0.00186435368081,
			"0.019": 0.0,
			"0.02": 0.0,
			"0.021": 0.0,
			"0.022": 0.0,
			"0.023": 0.0,
			"0.024": 0.0,
			"0.025": 0.0
		}
	}
}
