{
	 "smiles": "COC1=CC(C)=CC=C1S(Cl)(=O)=O", 
	 "Tm": 360.15, 
	 "num_atms": 22, 
	 "gaussian": { 
		 "optdone": 1, 
		 "sigma_profile": "yes", 
		 "theory": "DFT", 
		 "functional": "B3LYP", 
		 "basiset": "6-31G**", 
		 "properties": { 
			 "R2extent": 4332.5174, 
			 "electric_dipole_moment_norm": 7.18062745587, 
			 "electric_quadrupole_moment_norm": 19.0812122566, 
			 "total_energy": -1394.25031841, 
			 "HOMO_LUMO_gap": 0.17254, 
			 "cosmo_polarized_energy": -12.67, 
			 "cosmo_cavitation_energy": 29.13, 
			 "cosmo_dispersion_energy": -21.44, 
			 "cosmo_repulsion_energy": 1.67, 
			 "cosmo_total_nonelectrostatic_energy": 9.35, 
			 "SMD_solvation_energy": 4.65 
		},
		"coords": [
			{
				"x": -1.2381748036,
				"y": -3.0317481662,
				"z": -2.127935296,
				"element": "C" 
			},
			{
				"x": -1.4678308653,
				"y": -1.6329398941,
				"z": -1.9954927229,
				"element": "O" 
			},
			{
				"x": -0.9025125806,
				"y": -0.9658192971,
				"z": -0.9708536243,
				"element": "C" 
			},
			{
				"x": -0.0923321801,
				"y": -1.549375457,
				"z": 0.0103924208,
				"element": "C" 
			},
			{
				"x": 0.4425309944,
				"y": -0.7895307876,
				"z": 1.0588602882,
				"element": "C" 
			},
			{
				"x": 1.2848418485,
				"y": -1.4544780707,
				"z": 2.1202613072,
				"element": "C" 
			},
			{
				"x": 0.1621829088,
				"y": 0.5814339379,
				"z": 1.1249663021,
				"element": "C" 
			},
			{
				"x": -0.6417577251,
				"y": 1.1824519987,
				"z": 0.1619444852,
				"element": "C" 
			},
			{
				"x": -1.1632859036,
				"y": 0.4191581617,
				"z": -0.8830580319,
				"element": "C" 
			},
			{
				"x": -2.1240258318,
				"y": 1.2691032791,
				"z": -2.1198404463,
				"element": "S" 
			},
			{
				"x": -4.0777968199,
				"y": 0.4659155283,
				"z": -1.7903227697,
				"element": "Cl" 
			},
			{
				"x": -1.7345846681,
				"y": 0.8682448967,
				"z": -3.464364426,
				"element": "O" 
			},
			{
				"x": -2.2085566682,
				"y": 2.676689407,
				"z": -1.7434133652,
				"element": "O" 
			},
			{
				"x": -0.1728237934,
				"y": -3.2482080163,
				"z": -2.2683758119,
				"element": "H" 
			},
			{
				"x": -1.6145765148,
				"y": -3.581686541,
				"z": -1.2574923006,
				"element": "H" 
			},
			{
				"x": -1.7907253474,
				"y": -3.3348365798,
				"z": -3.0169180631,
				"element": "H" 
			},
			{
				"x": 0.1268917534,
				"y": -2.6097089701,
				"z": -0.0363089943,
				"element": "H" 
			},
			{
				"x": 1.830099362,
				"y": -2.3146903686,
				"z": 1.721745172,
				"element": "H" 
			},
			{
				"x": 2.0099388169,
				"y": -0.7565999325,
				"z": 2.5476801819,
				"element": "H" 
			},
			{
				"x": 0.6559202936,
				"y": -1.8171725336,
				"z": 2.942633821,
				"element": "H" 
			},
			{
				"x": 0.5742671499,
				"y": 1.1812421626,
				"z": 1.9303870883,
				"element": "H" 
			},
			{
				"x": -0.8671894254,
				"y": 2.2417552425,
				"z": 0.2004047855,
				"element": "H" 
			}
		],
		 "valence_orbital": [ 
			{
				"type": "occ",
				"energy": -0.32023,
				"method": "rhf"
			},
			{
				"type": "occ",
				"energy": -0.31861,
				"method": "rhf"
			},
			{
				"type": "occ",
				"energy": -0.29954,
				"method": "rhf"
			},
			{
				"type": "occ",
				"energy": -0.27628,
				"method": "rhf"
			},
			{
				"type": "occ",
				"energy": -0.24907,
				"method": "rhf"
			},
			{
				"type": "unocc",
				"energy": -0.07653,
				"method": "rhf"
			},
			{
				"type": "unocc",
				"energy": -0.03649,
				"method": "rhf"
			},
			{
				"type": "unocc",
				"energy": -0.01799,
				"method": "rhf"
			},
			{
				"type": "unocc",
				"energy": 0.05178,
				"method": "rhf"
			},
			{
				"type": "unocc",
				"energy": 0.08054,
				"method": "rhf"
			}
		],
		"cosmo_sigma_profile": { 
			"-0.025": 0.0,
			"-0.024": 0.0,
			"-0.023": 0.0,
			"-0.022": 0.0,
			"-0.021": 0.0,
			"-0.02": 0.0,
			"-0.019": 0.0,
			"-0.018": 0.0,
			"-0.017": 0.0,
			"-0.016": 0.0,
			"-0.015": 0.0,
			"-0.014": 0.0,
			"-0.013": 0.0,
			"-0.012": 0.0,
			"-0.011": 0.0,
			"-0.01": 0.0,
			"-0.009": 0.0,
			"-0.008": 1.09130122469,
			"-0.007": 8.99360586197,
			"-0.006": 16.2339887199,
			"-0.005": 19.6947271497,
			"-0.004": 18.9026270644,
			"-0.003": 16.8996778707,
			"-0.002": 15.7414304598,
			"-0.001": 19.3855437877,
			"0.0": 16.4819529287,
			"0.001": 16.1730925911,
			"0.002": 16.4949113376,
			"0.003": 15.4611002185,
			"0.004": 14.1366893801,
			"0.005": 5.8902080549,
			"0.006": 6.06490685168,
			"0.007": 5.46306390636,
			"0.008": 9.40360621096,
			"0.009": 9.51643986462,
			"0.01": 2.23525021709,
			"0.011": 0.486743425499,
			"0.012": 0.0,
			"0.013": 0.0,
			"0.014": 0.0,
			"0.015": 0.0,
			"0.016": 0.0,
			"0.017": 0.0,
			"0.018": 0.0,
			"0.019": 0.0,
			"0.02": 0.0,
			"0.021": 0.0,
			"0.022": 0.0,
			"0.023": 0.0,
			"0.024": 0.0,
			"0.025": 0.0
		}
	}
}
