{
	 "smiles": "IC1=CC2=C(NC=C2)C=C1", 
	 "Tm": 372.15, 
	 "num_atms": 16, 
	 "gaussian": { 
		 "optdone": 1, 
		 "sigma_profile": "no", 
		 "theory": "DFT", 
		 "functional": "B3LYP", 
		 "basiset": "6-31G**", 
		 "properties": { 
			 "R2extent": 1696.8849, 
			 "electric_dipole_moment_norm": 4.38555146475, 
			 "electric_quadrupole_moment_norm": 10.1837072729, 
			 "total_energy": -374.605880468, 
			 "HOMO_LUMO_gap": 0.18355, 
			 "cosmo_polarized_energy": -100547.37, 
			 "cosmo_cavitation_energy": 23.06, 
			 "cosmo_dispersion_energy": -18.89, 
			 "cosmo_repulsion_energy": 1.48, 
			 "cosmo_total_nonelectrostatic_energy": 5.65, 
			 "SMD_solvation_energy": 3.0 
		},
		"coords": [
			{
				"x": -4.6269019838,
				"y": -0.3249721762,
				"z": 0.4887235384,
				"element": "I" 
			},
			{
				"x": -2.5821383358,
				"y": -0.6505744432,
				"z": 0.0015042287,
				"element": "C" 
			},
			{
				"x": -1.6699407028,
				"y": 0.3770310164,
				"z": 0.195785355,
				"element": "C" 
			},
			{
				"x": -0.3232455839,
				"y": 0.1400145096,
				"z": -0.1332981528,
				"element": "C" 
			},
			{
				"x": 0.0512187629,
				"y": -1.1329968911,
				"z": -0.6486765867,
				"element": "C" 
			},
			{
				"x": 1.4098171732,
				"y": -1.0938152319,
				"z": -0.8830242153,
				"element": "N" 
			},
			{
				"x": 1.8967236279,
				"y": 0.1527510594,
				"z": -0.5342325844,
				"element": "C" 
			},
			{
				"x": 0.8717425287,
				"y": 0.9352012086,
				"z": -0.0722915198,
				"element": "C" 
			},
			{
				"x": -0.8775091628,
				"y": -2.1604024461,
				"z": -0.8398019731,
				"element": "C" 
			},
			{
				"x": -2.2041770994,
				"y": -1.9094550606,
				"z": -0.5094612208,
				"element": "C" 
			},
			{
				"x": -1.9819710878,
				"y": 1.3377337047,
				"z": 0.5900603858,
				"element": "H" 
			},
			{
				"x": 1.9610795464,
				"y": -1.8521114259,
				"z": -1.2499722177,
				"element": "H" 
			},
			{
				"x": 2.9471734671,
				"y": 0.3803646763,
				"z": -0.6461603758,
				"element": "H" 
			},
			{
				"x": 0.9565302882,
				"y": 1.9561531253,
				"z": 0.2707244061,
				"element": "H" 
			},
			{
				"x": -0.5827088799,
				"y": -3.1288299923,
				"z": -1.2336563295,
				"element": "H" 
			},
			{
				"x": -2.9490925583,
				"y": -2.6846916331,
				"z": -0.6456227381,
				"element": "H" 
			}
		],
		 "valence_orbital": [ 
			{
				"type": "occ",
				"energy": -0.28653,
				"method": "rhf"
			},
			{
				"type": "occ",
				"energy": -0.27127,
				"method": "rhf"
			},
			{
				"type": "occ",
				"energy": -0.258,
				"method": "rhf"
			},
			{
				"type": "occ",
				"energy": -0.21921,
				"method": "rhf"
			},
			{
				"type": "occ",
				"energy": -0.21203,
				"method": "rhf"
			},
			{
				"type": "unocc",
				"energy": -0.02848,
				"method": "rhf"
			},
			{
				"type": "unocc",
				"energy": -0.0193,
				"method": "rhf"
			},
			{
				"type": "unocc",
				"energy": 0.01267,
				"method": "rhf"
			},
			{
				"type": "unocc",
				"energy": 0.04915,
				"method": "rhf"
			},
			{
				"type": "unocc",
				"energy": 0.05815,
				"method": "rhf"
			}
		],
		"cosmo_sigma_profile": { 
			"0.0": 0.0,
			"0.0": 0.0,
			"0.0": 0.0,
			"0.0": 0.0,
			"0.0": 0.0,
			"0.0": 0.0,
			"0.0": 0.0,
			"0.0": 0.0,
			"0.0": 0.0,
			"0.0": 0.0,
			"0.0": 0.0,
			"0.0": 0.0,
			"0.0": 0.0,
			"0.0": 0.0,
			"0.0": 0.0,
			"0.0": 0.0,
			"0.0": 0.0,
			"0.0": 0.0,
			"0.0": 0.0,
			"0.0": 0.0,
			"0.0": 0.0,
			"0.0": 0.0,
			"0.0": 0.0,
			"0.0": 0.0,
			"0.0": 0.0,
			"0.0": 0.0,
			"0.0": 0.0,
			"0.0": 0.0,
			"0.0": 0.0,
			"0.0": 0.0,
			"0.0": 0.0,
			"0.0": 0.0,
			"0.0": 0.0,
			"0.0": 0.0,
			"0.0": 0.0,
			"0.0": 0.0,
			"0.0": 0.0,
			"0.0": 0.0,
			"0.0": 0.0,
			"0.0": 0.0,
			"0.0": 0.0,
			"0.0": 0.0,
			"0.0": 0.0,
			"0.0": 0.0,
			"0.0": 0.0,
			"0.0": 0.0,
			"0.0": 0.0,
			"0.0": 0.0,
			"0.0": 0.0,
			"0.0": 0.0,
			"0.0": 0.0
		}
	}
}
