{
	 "smiles": "ClC(=O)C1=CC=C(C=C1)C1=CSC=C1", 
	 "Tm": 419.15, 
	 "num_atms": 21, 
	 "gaussian": { 
		 "optdone": 1, 
		 "sigma_profile": "yes", 
		 "theory": "DFT", 
		 "functional": "B3LYP", 
		 "basiset": "6-31G**", 
		 "properties": { 
			 "R2extent": 5430.4942, 
			 "electric_dipole_moment_norm": 4.76754536528, 
			 "electric_quadrupole_moment_norm": 12.924937736, 
			 "total_energy": -1356.99282078, 
			 "HOMO_LUMO_gap": 0.15758, 
			 "cosmo_polarized_energy": -8.21, 
			 "cosmo_cavitation_energy": 29.38, 
			 "cosmo_dispersion_energy": -22.28, 
			 "cosmo_repulsion_energy": 1.67, 
			 "cosmo_total_nonelectrostatic_energy": 8.78, 
			 "SMD_solvation_energy": 5.58 
		},
		"coords": [
			{
				"x": 1.136233424,
				"y": 0.7584222306,
				"z": -4.1646225341,
				"element": "Cl" 
			},
			{
				"x": 0.6793650111,
				"y": -0.6452649668,
				"z": -3.0714411494,
				"element": "C" 
			},
			{
				"x": 0.8400820201,
				"y": -1.7579284686,
				"z": -3.4759973352,
				"element": "O" 
			},
			{
				"x": 0.1376586429,
				"y": -0.2629466921,
				"z": -1.7507995291,
				"element": "C" 
			},
			{
				"x": -0.2197384849,
				"y": -1.3177154673,
				"z": -0.8901517166,
				"element": "C" 
			},
			{
				"x": -0.7317764943,
				"y": -1.0516221729,
				"z": 0.3702163936,
				"element": "C" 
			},
			{
				"x": -0.9144050958,
				"y": 0.2727545616,
				"z": 0.8146831613,
				"element": "C" 
			},
			{
				"x": -0.5523179359,
				"y": 1.3182604563,
				"z": -0.0546136828,
				"element": "C" 
			},
			{
				"x": -0.0330378465,
				"y": 1.0593666996,
				"z": -1.3174066003,
				"element": "C" 
			},
			{
				"x": -1.470923842,
				"y": 0.5594478767,
				"z": 2.1492085979,
				"element": "C" 
			},
			{
				"x": -2.3443543381,
				"y": -0.2685131063,
				"z": 2.8206497692,
				"element": "C" 
			},
			{
				"x": -2.8114552178,
				"y": 0.3743388316,
				"z": 4.3534981184,
				"element": "S" 
			},
			{
				"x": -1.8208116615,
				"y": 1.7787350578,
				"z": 4.1174714261,
				"element": "C" 
			},
			{
				"x": -1.1790706985,
				"y": 1.7428001838,
				"z": 2.9143316039,
				"element": "C" 
			},
			{
				"x": -0.0764361141,
				"y": -2.3388622672,
				"z": -1.2258894704,
				"element": "H" 
			},
			{
				"x": -0.9713631447,
				"y": -1.8766065365,
				"z": 1.0335177559,
				"element": "H" 
			},
			{
				"x": -0.7016297073,
				"y": 2.3477644722,
				"z": 0.2538577098,
				"element": "H" 
			},
			{
				"x": 0.2333116105,
				"y": 1.8800899517,
				"z": -1.9721775561,
				"element": "H" 
			},
			{
				"x": -2.7697459682,
				"y": -1.2009875034,
				"z": 2.4774662048,
				"element": "H" 
			},
			{
				"x": -1.7611545356,
				"y": 2.5368150491,
				"z": 4.8857414338,
				"element": "H" 
			},
			{
				"x": -0.4911296235,
				"y": 2.5139518102,
				"z": 2.5883573996,
				"element": "H" 
			}
		],
		 "valence_orbital": [ 
			{
				"type": "occ",
				"energy": -0.29845,
				"method": "rhf"
			},
			{
				"type": "occ",
				"energy": -0.29025,
				"method": "rhf"
			},
			{
				"type": "occ",
				"energy": -0.27556,
				"method": "rhf"
			},
			{
				"type": "occ",
				"energy": -0.25933,
				"method": "rhf"
			},
			{
				"type": "occ",
				"energy": -0.23869,
				"method": "rhf"
			},
			{
				"type": "unocc",
				"energy": -0.08111,
				"method": "rhf"
			},
			{
				"type": "unocc",
				"energy": -0.02872,
				"method": "rhf"
			},
			{
				"type": "unocc",
				"energy": -0.02129,
				"method": "rhf"
			},
			{
				"type": "unocc",
				"energy": 0.01418,
				"method": "rhf"
			},
			{
				"type": "unocc",
				"energy": 0.01928,
				"method": "rhf"
			}
		],
		"cosmo_sigma_profile": { 
			"-0.025": 0.0,
			"-0.024": 0.0,
			"-0.023": 0.0,
			"-0.022": 0.0,
			"-0.021": 0.0,
			"-0.02": 0.0,
			"-0.019": 0.0,
			"-0.018": 0.0,
			"-0.017": 0.0,
			"-0.016": 0.0,
			"-0.015": 0.0,
			"-0.014": 0.0,
			"-0.013": 0.0,
			"-0.012": 0.0,
			"-0.011": 0.0,
			"-0.01": 0.0,
			"-0.009": 1.85776144009,
			"-0.008": 5.82936040277,
			"-0.007": 11.5182259734,
			"-0.006": 12.1416750855,
			"-0.005": 11.6264308964,
			"-0.004": 11.2104864871,
			"-0.003": 13.3991173543,
			"-0.002": 13.8879192725,
			"-0.001": 17.3310190918,
			"0.0": 19.66481894,
			"0.001": 23.0276625271,
			"0.002": 29.9297168948,
			"0.003": 26.0032229412,
			"0.004": 19.8035979256,
			"0.005": 9.98639075789,
			"0.006": 3.67189549315,
			"0.007": 2.79810376047,
			"0.008": 3.79255550087,
			"0.009": 3.66468446905,
			"0.01": 0.76955944615,
			"0.011": 0.0,
			"0.012": 0.0,
			"0.013": 0.0,
			"0.014": 0.0,
			"0.015": 0.0,
			"0.016": 0.0,
			"0.017": 0.0,
			"0.018": 0.0,
			"0.019": 0.0,
			"0.02": 0.0,
			"0.021": 0.0,
			"0.022": 0.0,
			"0.023": 0.0,
			"0.024": 0.0,
			"0.025": 0.0
		}
	}
}
