{
	 "smiles": "CC(Cl)C(=O)NC(=O)NCC=C", 
	 "Tm": 342.15, 
	 "num_atms": 23, 
	 "gaussian": { 
		 "optdone": 1, 
		 "sigma_profile": "yes", 
		 "theory": "DFT", 
		 "functional": "B3LYP", 
		 "basiset": "6-31G**", 
		 "properties": { 
			 "R2extent": 3205.8911, 
			 "electric_dipole_moment_norm": 3.81545957651, 
			 "electric_quadrupole_moment_norm": 14.802024525, 
			 "total_energy": -993.523691757, 
			 "HOMO_LUMO_gap": 0.23428, 
			 "cosmo_polarized_energy": -15.22, 
			 "cosmo_cavitation_energy": 29.01, 
			 "cosmo_dispersion_energy": -20.33, 
			 "cosmo_repulsion_energy": 1.66, 
			 "cosmo_total_nonelectrostatic_energy": 10.34, 
			 "SMD_solvation_energy": 6.3 
		},
		"coords": [
			{
				"x": 0.837604023,
				"y": 1.0700628453,
				"z": -2.7502807068,
				"element": "C" 
			},
			{
				"x": -0.3167633577,
				"y": 0.1112206929,
				"z": -2.4693521596,
				"element": "C" 
			},
			{
				"x": -1.7579247574,
				"y": 0.9791703052,
				"z": -1.7553892877,
				"element": "Cl" 
			},
			{
				"x": 0.0758962552,
				"y": -1.12875905,
				"z": -1.6592198139,
				"element": "C" 
			},
			{
				"x": 0.3082781637,
				"y": -2.1660305495,
				"z": -2.2570447466,
				"element": "O" 
			},
			{
				"x": 0.1199560674,
				"y": -1.1308882287,
				"z": -0.268678714,
				"element": "N" 
			},
			{
				"x": 0.289291374,
				"y": -0.0620909796,
				"z": 0.6422735867,
				"element": "C" 
			},
			{
				"x": 0.7188562668,
				"y": 1.0351496245,
				"z": 0.3282710404,
				"element": "O" 
			},
			{
				"x": -0.0151312287,
				"y": -0.3955557594,
				"z": 1.936267717,
				"element": "N" 
			},
			{
				"x": -0.8680572462,
				"y": -1.4825976656,
				"z": 2.4224289459,
				"element": "C" 
			},
			{
				"x": -1.9187318831,
				"y": -0.963310485,
				"z": 3.3688321714,
				"element": "C" 
			},
			{
				"x": -2.0303133851,
				"y": -1.347562303,
				"z": 4.6398159787,
				"element": "C" 
			},
			{
				"x": 0.5071259206,
				"y": 1.8476905149,
				"z": -3.4430345082,
				"element": "H" 
			},
			{
				"x": 1.1969615214,
				"y": 1.5226983837,
				"z": -1.8275337351,
				"element": "H" 
			},
			{
				"x": 1.6502530098,
				"y": 0.507801135,
				"z": -3.2240887715,
				"element": "H" 
			},
			{
				"x": -0.6888732415,
				"y": -0.3088286627,
				"z": -3.4033464244,
				"element": "H" 
			},
			{
				"x": 0.2896620659,
				"y": -2.0670975521,
				"z": 0.0799257684,
				"element": "H" 
			},
			{
				"x": 0.1783583865,
				"y": 0.3589660998,
				"z": 2.5810571265,
				"element": "H" 
			},
			{
				"x": -0.2694855932,
				"y": -2.258128917,
				"z": 2.919698346,
				"element": "H" 
			},
			{
				"x": -1.3539073727,
				"y": -1.9426777193,
				"z": 1.5553914639,
				"element": "H" 
			},
			{
				"x": -2.6043405477,
				"y": -0.2263046632,
				"z": 2.952662557,
				"element": "H" 
			},
			{
				"x": -2.8072985952,
				"y": -0.9544242552,
				"z": 5.2880969275,
				"element": "H" 
			},
			{
				"x": -1.3524158457,
				"y": -2.0773028114,
				"z": 5.0767472385,
				"element": "H" 
			}
		],
		 "valence_orbital": [ 
			{
				"type": "occ",
				"energy": -0.2905,
				"method": "rhf"
			},
			{
				"type": "occ",
				"energy": -0.28877,
				"method": "rhf"
			},
			{
				"type": "occ",
				"energy": -0.27492,
				"method": "rhf"
			},
			{
				"type": "occ",
				"energy": -0.26686,
				"method": "rhf"
			},
			{
				"type": "occ",
				"energy": -0.2638,
				"method": "rhf"
			},
			{
				"type": "unocc",
				"energy": -0.02952,
				"method": "rhf"
			},
			{
				"type": "unocc",
				"energy": -0.00976,
				"method": "rhf"
			},
			{
				"type": "unocc",
				"energy": 0.02808,
				"method": "rhf"
			},
			{
				"type": "unocc",
				"energy": 0.05776,
				"method": "rhf"
			},
			{
				"type": "unocc",
				"energy": 0.07979,
				"method": "rhf"
			}
		],
		"cosmo_sigma_profile": { 
			"-0.025": 0.0,
			"-0.024": 0.0,
			"-0.023": 0.0,
			"-0.022": 0.0,
			"-0.021": 0.0,
			"-0.02": 0.0,
			"-0.019": 0.0,
			"-0.018": 0.0,
			"-0.017": 0.0,
			"-0.016": 0.056550295994,
			"-0.015": 0.953098351956,
			"-0.014": 1.09236745728,
			"-0.013": 1.99694950671,
			"-0.012": 2.36488325109,
			"-0.011": 1.65071347967,
			"-0.01": 1.48355635343,
			"-0.009": 1.80746451567,
			"-0.008": 3.71367712113,
			"-0.007": 4.71015329814,
			"-0.006": 8.8912617225,
			"-0.005": 20.2083209631,
			"-0.004": 18.7799186607,
			"-0.003": 17.9742461795,
			"-0.002": 18.3065842295,
			"-0.001": 17.1555823384,
			"0.0": 14.1465006941,
			"0.001": 12.6891653905,
			"0.002": 10.8943170034,
			"0.003": 11.1592419,
			"0.004": 10.1227061726,
			"0.005": 10.6372422936,
			"0.006": 10.3401202019,
			"0.007": 3.92163268138,
			"0.008": 2.16857355393,
			"0.009": 3.51831423535,
			"0.01": 4.96275447595,
			"0.011": 6.06358626904,
			"0.012": 6.09443143825,
			"0.013": 2.59857533864,
			"0.014": 0.570585720656,
			"0.015": 0.0,
			"0.016": 0.0,
			"0.017": 0.0,
			"0.018": 0.0,
			"0.019": 0.0,
			"0.02": 0.0,
			"0.021": 0.0,
			"0.022": 0.0,
			"0.023": 0.0,
			"0.024": 0.0,
			"0.025": 0.0
		}
	}
}
