{
	 "smiles": "NC1=C(N)C=C(C=C1)S(N)(=O)=O", 
	 "Tm": 423.15, 
	 "num_atms": 21, 
	 "gaussian": { 
		 "optdone": 1, 
		 "sigma_profile": "yes", 
		 "theory": "DFT", 
		 "functional": "B3LYP", 
		 "basiset": "6-31G**", 
		 "properties": { 
			 "R2extent": 3295.3443, 
			 "electric_dipole_moment_norm": 5.31518238445, 
			 "electric_quadrupole_moment_norm": 14.7504276385, 
			 "total_energy": -946.892475622, 
			 "HOMO_LUMO_gap": 0.19069, 
			 "cosmo_polarized_energy": -22.35, 
			 "cosmo_cavitation_energy": 26.27, 
			 "cosmo_dispersion_energy": -20.14, 
			 "cosmo_repulsion_energy": 1.58, 
			 "cosmo_total_nonelectrostatic_energy": 7.7, 
			 "SMD_solvation_energy": 4.1 
		},
		"coords": [
			{
				"x": 1.6986958591,
				"y": 3.2154183048,
				"z": -2.8664402999,
				"element": "N" 
			},
			{
				"x": 1.4561179987,
				"y": 2.1985952149,
				"z": -1.9408784596,
				"element": "C" 
			},
			{
				"x": 2.5741288505,
				"y": 1.6396174765,
				"z": -1.2661954553,
				"element": "C" 
			},
			{
				"x": 3.841353702,
				"y": 2.1899690535,
				"z": -1.5414767096,
				"element": "N" 
			},
			{
				"x": 2.3742042949,
				"y": 0.6187800893,
				"z": -0.3429696045,
				"element": "C" 
			},
			{
				"x": 1.0809048601,
				"y": 0.1431750544,
				"z": -0.0974291152,
				"element": "C" 
			},
			{
				"x": -0.0191325723,
				"y": 0.6513179331,
				"z": -0.7835056431,
				"element": "C" 
			},
			{
				"x": 0.1785157961,
				"y": 1.6829972079,
				"z": -1.7009219487,
				"element": "C" 
			},
			{
				"x": 0.8519216454,
				"y": -1.1607384832,
				"z": 1.092866363,
				"element": "S" 
			},
			{
				"x": 0.8981002882,
				"y": -0.3420121751,
				"z": 2.5851918781,
				"element": "N" 
			},
			{
				"x": 2.0445513919,
				"y": -2.0157240816,
				"z": 1.098770944,
				"element": "O" 
			},
			{
				"x": -0.4927517964,
				"y": -1.7164101647,
				"z": 0.8957797048,
				"element": "O" 
			},
			{
				"x": 2.4266711164,
				"y": 3.8571287059,
				"z": -2.5698418374,
				"element": "H" 
			},
			{
				"x": 0.8701517861,
				"y": 3.7070394884,
				"z": -3.174897795,
				"element": "H" 
			},
			{
				"x": 4.0219646722,
				"y": 2.2605074603,
				"z": -2.5391780709,
				"element": "H" 
			},
			{
				"x": 4.5971662612,
				"y": 1.689659452,
				"z": -1.0893264106,
				"element": "H" 
			},
			{
				"x": 3.219978304,
				"y": 0.1712573181,
				"z": 0.1697929938,
				"element": "H" 
			},
			{
				"x": -1.0071612228,
				"y": 0.2447133977,
				"z": -0.6026150413,
				"element": "H" 
			},
			{
				"x": -0.6708562647,
				"y": 2.1021256216,
				"z": -2.2343729888,
				"element": "H" 
			},
			{
				"x": -0.0496563026,
				"y": -0.1911453713,
				"z": 2.9231350254,
				"element": "H" 
			},
			{
				"x": 1.4211313321,
				"y": -0.9228715024,
				"z": 3.2369124707,
				"element": "H" 
			}
		],
		 "valence_orbital": [ 
			{
				"type": "occ",
				"energy": -0.3034,
				"method": "rhf"
			},
			{
				"type": "occ",
				"energy": -0.29213,
				"method": "rhf"
			},
			{
				"type": "occ",
				"energy": -0.27751,
				"method": "rhf"
			},
			{
				"type": "occ",
				"energy": -0.2388,
				"method": "rhf"
			},
			{
				"type": "occ",
				"energy": -0.20724,
				"method": "rhf"
			},
			{
				"type": "unocc",
				"energy": -0.01655,
				"method": "rhf"
			},
			{
				"type": "unocc",
				"energy": 0.00108,
				"method": "rhf"
			},
			{
				"type": "unocc",
				"energy": 0.06165,
				"method": "rhf"
			},
			{
				"type": "unocc",
				"energy": 0.06629,
				"method": "rhf"
			},
			{
				"type": "unocc",
				"energy": 0.09351,
				"method": "rhf"
			}
		],
		"cosmo_sigma_profile": { 
			"-0.025": 0.0,
			"-0.024": 0.0,
			"-0.023": 0.0,
			"-0.022": 0.0,
			"-0.021": 0.0,
			"-0.02": 0.0,
			"-0.019": 0.0,
			"-0.018": 0.0,
			"-0.017": 0.0,
			"-0.016": 0.0,
			"-0.015": 0.227893736622,
			"-0.014": 2.47892750583,
			"-0.013": 3.61448917983,
			"-0.012": 6.3325412987,
			"-0.011": 7.54626831807,
			"-0.01": 8.06101296777,
			"-0.009": 7.55076323501,
			"-0.008": 6.72320360963,
			"-0.007": 7.41042141283,
			"-0.006": 8.14698008661,
			"-0.005": 8.03896912126,
			"-0.004": 7.69012090071,
			"-0.003": 7.74414616083,
			"-0.002": 6.25852161759,
			"-0.001": 7.99175348434,
			"0.0": 7.19175304876,
			"0.001": 8.58456912348,
			"0.002": 10.3392073631,
			"0.003": 10.3201094885,
			"0.004": 14.0424241094,
			"0.005": 10.4734064948,
			"0.006": 5.53939435473,
			"0.007": 5.98718162192,
			"0.008": 5.01974308543,
			"0.009": 5.54865228983,
			"0.01": 5.89639265304,
			"0.011": 12.0075134895,
			"0.012": 8.91487316075,
			"0.013": 1.66311626378,
			"0.014": 0.311406615354,
			"0.015": 0.0,
			"0.016": 0.0,
			"0.017": 0.0,
			"0.018": 0.0,
			"0.019": 0.0,
			"0.02": 0.0,
			"0.021": 0.0,
			"0.022": 0.0,
			"0.023": 0.0,
			"0.024": 0.0,
			"0.025": 0.0
		}
	}
}
