{
	 "smiles": "COC(=O)C1=CC=C(C=C1)C(=O)OC", 
	 "Tm": 415.15, 
	 "num_atms": 24, 
	 "gaussian": { 
		 "optdone": 1, 
		 "sigma_profile": "yes", 
		 "theory": "DFT", 
		 "functional": "B3LYP", 
		 "basiset": "6-31G**", 
		 "properties": { 
			 "R2extent": 4326.9432, 
			 "electric_dipole_moment_norm": 3.32551871593, 
			 "electric_quadrupole_moment_norm": 7.89474895674, 
			 "total_energy": -688.009009586, 
			 "HOMO_LUMO_gap": 0.19558, 
			 "cosmo_polarized_energy": -10.17, 
			 "cosmo_cavitation_energy": 29.32, 
			 "cosmo_dispersion_energy": -21.4, 
			 "cosmo_repulsion_energy": 1.68, 
			 "cosmo_total_nonelectrostatic_energy": 9.6, 
			 "SMD_solvation_energy": 8.29 
		},
		"coords": [
			{
				"x": 2.6299225707,
				"y": -4.4209247189,
				"z": 2.0502057817,
				"element": "C" 
			},
			{
				"x": 1.7677934601,
				"y": -3.5018760261,
				"z": 1.3611139342,
				"element": "O" 
			},
			{
				"x": 2.2863586342,
				"y": -2.2702823608,
				"z": 1.1563813117,
				"element": "C" 
			},
			{
				"x": 3.3994269837,
				"y": -1.9477528002,
				"z": 1.5227567,
				"element": "O" 
			},
			{
				"x": 1.3413093742,
				"y": -1.3657120608,
				"z": 0.4372626789,
				"element": "C" 
			},
			{
				"x": 0.0645448639,
				"y": -1.7816518351,
				"z": 0.0341319871,
				"element": "C" 
			},
			{
				"x": -0.7773278672,
				"y": -0.8969712713,
				"z": -0.6339430017,
				"element": "C" 
			},
			{
				"x": -0.3488323602,
				"y": 0.4103647681,
				"z": -0.9039618635,
				"element": "C" 
			},
			{
				"x": 0.928193016,
				"y": 0.825027184,
				"z": -0.5001618221,
				"element": "C" 
			},
			{
				"x": 1.7685043288,
				"y": -0.0580118687,
				"z": 0.1666686595,
				"element": "C" 
			},
			{
				"x": -1.2079602707,
				"y": 1.4016338693,
				"z": -1.6165506363,
				"element": "C" 
			},
			{
				"x": -0.8739338455,
				"y": 2.5427901264,
				"z": -1.8682729239,
				"element": "O" 
			},
			{
				"x": -2.4127244075,
				"y": 0.8911111853,
				"z": -1.9565456614,
				"element": "O" 
			},
			{
				"x": -3.2877459392,
				"y": 1.7975591008,
				"z": -2.6460694474,
				"element": "C" 
			},
			{
				"x": 2.8849777081,
				"y": -4.0388083807,
				"z": 3.0418552079,
				"element": "H" 
			},
			{
				"x": 3.553081182,
				"y": -4.5780753541,
				"z": 1.4867261462,
				"element": "H" 
			},
			{
				"x": 2.0659815648,
				"y": -5.3500142707,
				"z": 2.1301152353,
				"element": "H" 
			},
			{
				"x": -0.2598784372,
				"y": -2.7936140349,
				"z": 0.2462729209,
				"element": "H" 
			},
			{
				"x": -1.76549541,
				"y": -1.2113971276,
				"z": -0.9485461661,
				"element": "H" 
			},
			{
				"x": 1.2378485362,
				"y": 1.8409266101,
				"z": -0.7199217924,
				"element": "H" 
			},
			{
				"x": 2.7601530993,
				"y": 0.2411901586,
				"z": 0.4881304736,
				"element": "H" 
			},
			{
				"x": -4.1996284004,
				"y": 1.2341382608,
				"z": -2.8426644883,
				"element": "H" 
			},
			{
				"x": -2.8334148379,
				"y": 2.1334827495,
				"z": -3.581571134,
				"element": "H" 
			},
			{
				"x": -3.5014535461,
				"y": 2.6718680969,
				"z": -2.0261120997,
				"element": "H" 
			}
		],
		 "valence_orbital": [ 
			{
				"type": "occ",
				"energy": -0.30644,
				"method": "rhf"
			},
			{
				"type": "occ",
				"energy": -0.27973,
				"method": "rhf"
			},
			{
				"type": "occ",
				"energy": -0.27777,
				"method": "rhf"
			},
			{
				"type": "occ",
				"energy": -0.26681,
				"method": "rhf"
			},
			{
				"type": "occ",
				"energy": -0.26576,
				"method": "rhf"
			},
			{
				"type": "unocc",
				"energy": -0.07018,
				"method": "rhf"
			},
			{
				"type": "unocc",
				"energy": -0.01403,
				"method": "rhf"
			},
			{
				"type": "unocc",
				"energy": 0.011,
				"method": "rhf"
			},
			{
				"type": "unocc",
				"energy": 0.08315,
				"method": "rhf"
			},
			{
				"type": "unocc",
				"energy": 0.09526,
				"method": "rhf"
			}
		],
		"cosmo_sigma_profile": { 
			"-0.025": 0.0,
			"-0.024": 0.0,
			"-0.023": 0.0,
			"-0.022": 0.0,
			"-0.021": 0.0,
			"-0.02": 0.0,
			"-0.019": 0.0,
			"-0.018": 0.0,
			"-0.017": 0.0,
			"-0.016": 0.0,
			"-0.015": 0.0,
			"-0.014": 0.0,
			"-0.013": 0.0,
			"-0.012": 0.0,
			"-0.011": 0.0,
			"-0.01": 0.0,
			"-0.009": 0.0,
			"-0.008": 0.0,
			"-0.007": 3.7384678882,
			"-0.006": 16.4226328202,
			"-0.005": 19.7932657529,
			"-0.004": 22.0032877435,
			"-0.003": 25.2418393417,
			"-0.002": 16.7859139766,
			"-0.001": 15.7572805675,
			"0.0": 19.2050299261,
			"0.001": 19.8350682161,
			"0.002": 22.5369504656,
			"0.003": 8.72135932736,
			"0.004": 6.93548802927,
			"0.005": 7.11436024693,
			"0.006": 3.97875217537,
			"0.007": 2.75908562486,
			"0.008": 2.82541354233,
			"0.009": 3.2774866964,
			"0.01": 4.33651671899,
			"0.011": 7.33202613113,
			"0.012": 5.55067188422,
			"0.013": 0.0169598826897,
			"0.014": 0.0,
			"0.015": 0.0,
			"0.016": 0.0,
			"0.017": 0.0,
			"0.018": 0.0,
			"0.019": 0.0,
			"0.02": 0.0,
			"0.021": 0.0,
			"0.022": 0.0,
			"0.023": 0.0,
			"0.024": 0.0,
			"0.025": 0.0
		}
	}
}
