{
	 "smiles": "OC(=O)C1=C(C=CC(OCC(F)(F)F)=C1)[N+]([O-])=O", 
	 "Tm": 430.15, 
	 "num_atms": 24, 
	 "gaussian": { 
		 "optdone": 1, 
		 "sigma_profile": "yes", 
		 "theory": "DFT", 
		 "functional": "B3LYP", 
		 "basiset": "6-31G**", 
		 "properties": { 
			 "R2extent": 6453.8198, 
			 "electric_dipole_moment_norm": 3.88130163991, 
			 "electric_quadrupole_moment_norm": 21.6734945452, 
			 "total_energy": -1076.86091993, 
			 "HOMO_LUMO_gap": 0.17283, 
			 "cosmo_polarized_energy": -18.21, 
			 "cosmo_cavitation_energy": 32.36, 
			 "cosmo_dispersion_energy": -22.55, 
			 "cosmo_repulsion_energy": 1.69, 
			 "cosmo_total_nonelectrostatic_energy": 11.5, 
			 "SMD_solvation_energy": 10.24 
		},
		"coords": [
			{
				"x": -3.161748763,
				"y": 1.58907671,
				"z": 2.5552386298,
				"element": "O" 
			},
			{
				"x": -2.1344138479,
				"y": 0.7614890217,
				"z": 2.8274643276,
				"element": "C" 
			},
			{
				"x": -1.6931758245,
				"y": 0.5693760858,
				"z": 3.9365202542,
				"element": "O" 
			},
			{
				"x": -1.5110051352,
				"y": 0.2078913254,
				"z": 1.5744063951,
				"element": "C" 
			},
			{
				"x": -2.2047591534,
				"y": -0.4930985634,
				"z": 0.5723240209,
				"element": "C" 
			},
			{
				"x": -1.5646067054,
				"y": -0.8999246531,
				"z": -0.5929577271,
				"element": "C" 
			},
			{
				"x": -0.2101552467,
				"y": -0.6349043896,
				"z": -0.7800130282,
				"element": "C" 
			},
			{
				"x": 0.499224762,
				"y": 0.0373949569,
				"z": 0.22256838,
				"element": "C" 
			},
			{
				"x": 1.8220369366,
				"y": 0.3417294053,
				"z": 0.1605805526,
				"element": "O" 
			},
			{
				"x": 2.5542005746,
				"y": -0.0383919607,
				"z": -0.9876420229,
				"element": "C" 
			},
			{
				"x": 3.9852851263,
				"y": 0.4324627403,
				"z": -0.7874561227,
				"element": "C" 
			},
			{
				"x": 4.053703893,
				"y": 1.7661490711,
				"z": -0.6493695338,
				"element": "F" 
			},
			{
				"x": 4.7086010134,
				"y": 0.0819593277,
				"z": -1.8719140651,
				"element": "F" 
			},
			{
				"x": 4.5469826069,
				"y": -0.1312786298,
				"z": 0.293297763,
				"element": "F" 
			},
			{
				"x": -0.1557645849,
				"y": 0.4523482355,
				"z": 1.3926269333,
				"element": "C" 
			},
			{
				"x": -3.5990811416,
				"y": -0.9029562334,
				"z": 0.7602498053,
				"element": "N" 
			},
			{
				"x": -4.0172053458,
				"y": -0.9802630435,
				"z": 1.9150078666,
				"element": "O" 
			},
			{
				"x": -4.2526002862,
				"y": -1.1776820891,
				"z": -0.2460422293,
				"element": "O" 
			},
			{
				"x": -3.5141500293,
				"y": 1.8846118947,
				"z": 3.4119118569,
				"element": "H" 
			},
			{
				"x": -2.1360696528,
				"y": -1.4379330437,
				"z": -1.3392858045,
				"element": "H" 
			},
			{
				"x": 0.2728225015,
				"y": -0.9666603451,
				"z": -1.6908308092,
				"element": "H" 
			},
			{
				"x": 2.1609817381,
				"y": 0.4340063081,
				"z": -1.8956072253,
				"element": "H" 
			},
			{
				"x": 2.5653563421,
				"y": -1.1266211146,
				"z": -1.120986294,
				"element": "H" 
			},
			{
				"x": 0.4093402224,
				"y": 0.9800189834,
				"z": 2.1523080768,
				"element": "H" 
			}
		],
		 "valence_orbital": [ 
			{
				"type": "occ",
				"energy": -0.31309,
				"method": "rhf"
			},
			{
				"type": "occ",
				"energy": -0.30479,
				"method": "rhf"
			},
			{
				"type": "occ",
				"energy": -0.29991,
				"method": "rhf"
			},
			{
				"type": "occ",
				"energy": -0.28233,
				"method": "rhf"
			},
			{
				"type": "occ",
				"energy": -0.2669,
				"method": "rhf"
			},
			{
				"type": "unocc",
				"energy": -0.09407,
				"method": "rhf"
			},
			{
				"type": "unocc",
				"energy": -0.05446,
				"method": "rhf"
			},
			{
				"type": "unocc",
				"energy": -0.01589,
				"method": "rhf"
			},
			{
				"type": "unocc",
				"energy": 0.01619,
				"method": "rhf"
			},
			{
				"type": "unocc",
				"energy": 0.05957,
				"method": "rhf"
			}
		],
		"cosmo_sigma_profile": { 
			"-0.025": 0.0,
			"-0.024": 0.0,
			"-0.023": 0.0,
			"-0.022": 0.0,
			"-0.021": 0.0,
			"-0.02": 0.0,
			"-0.019": 0.748220290569,
			"-0.018": 0.870142686079,
			"-0.017": 1.19676866074,
			"-0.016": 0.781041655614,
			"-0.015": 0.24895336661,
			"-0.014": 0.58198887943,
			"-0.013": 0.636529758574,
			"-0.012": 0.617121247961,
			"-0.011": 1.29906593548,
			"-0.01": 6.04229735133,
			"-0.009": 10.1079404472,
			"-0.008": 9.94238453705,
			"-0.007": 8.44171680819,
			"-0.006": 8.12403096615,
			"-0.005": 8.42375532061,
			"-0.004": 8.44082785473,
			"-0.003": 9.98719818105,
			"-0.002": 11.3310380366,
			"-0.001": 19.7415737151,
			"0.0": 18.880362166,
			"0.001": 15.7567353655,
			"0.002": 32.9503026656,
			"0.003": 22.2166499576,
			"0.004": 9.13542844119,
			"0.005": 9.12051453171,
			"0.006": 7.52221290747,
			"0.007": 10.2183168422,
			"0.008": 9.41828253116,
			"0.009": 5.61032078169,
			"0.01": 5.52094594216,
			"0.011": 4.55428401702,
			"0.012": 0.802587997577,
			"0.013": 0.0,
			"0.014": 0.0,
			"0.015": 0.0,
			"0.016": 0.0,
			"0.017": 0.0,
			"0.018": 0.0,
			"0.019": 0.0,
			"0.02": 0.0,
			"0.021": 0.0,
			"0.022": 0.0,
			"0.023": 0.0,
			"0.024": 0.0,
			"0.025": 0.0
		}
	}
}
