{
	 "smiles": "CC1(C)C2CCC1(C)C(=O)C2CO", 
	 "Tm": 411.15, 
	 "num_atms": 31, 
	 "gaussian": { 
		 "optdone": 1, 
		 "sigma_profile": "yes", 
		 "theory": "DFT", 
		 "functional": "B3LYP", 
		 "basiset": "6-31G**", 
		 "properties": { 
			 "R2extent": 2231.7058, 
			 "electric_dipole_moment_norm": 4.05647552193, 
			 "electric_quadrupole_moment_norm": 9.26946224762, 
			 "total_energy": -580.462620106, 
			 "HOMO_LUMO_gap": 0.2192, 
			 "cosmo_polarized_energy": -8.73, 
			 "cosmo_cavitation_energy": 29.08, 
			 "cosmo_dispersion_energy": -21.08, 
			 "cosmo_repulsion_energy": 1.63, 
			 "cosmo_total_nonelectrostatic_energy": 9.62, 
			 "SMD_solvation_energy": 5.0 
		},
		"coords": [
			{
				"x": 1.047971277,
				"y": 1.7189875659,
				"z": 1.1899308486,
				"element": "C" 
			},
			{
				"x": 0.725613353,
				"y": 0.219279929,
				"z": 1.0510077557,
				"element": "C" 
			},
			{
				"x": 1.1665602581,
				"y": -0.4577182463,
				"z": 2.3607037567,
				"element": "C" 
			},
			{
				"x": 1.3005449643,
				"y": -0.4704953124,
				"z": -0.2379045113,
				"element": "C" 
			},
			{
				"x": 0.6893535873,
				"y": -1.8901031166,
				"z": -0.1424798366,
				"element": "C" 
			},
			{
				"x": -0.7544161893,
				"y": -1.5989255205,
				"z": 0.3750636476,
				"element": "C" 
			},
			{
				"x": -0.7737200289,
				"y": -0.0564234532,
				"z": 0.6515433141,
				"element": "C" 
			},
			{
				"x": -1.8904246508,
				"y": 0.4257912569,
				"z": 1.5607694398,
				"element": "C" 
			},
			{
				"x": -0.7728488188,
				"y": 0.5875511364,
				"z": -0.7373283856,
				"element": "C" 
			},
			{
				"x": -1.6369439312,
				"y": 1.3043844982,
				"z": -1.214054644,
				"element": "O" 
			},
			{
				"x": 0.5541032912,
				"y": 0.2184017221,
				"z": -1.4125539776,
				"element": "C" 
			},
			{
				"x": 1.2037807098,
				"y": 1.3959043995,
				"z": -2.1654224199,
				"element": "C" 
			},
			{
				"x": 0.3756031211,
				"y": 1.8262836465,
				"z": -3.2276797115,
				"element": "O" 
			},
			{
				"x": 2.131216894,
				"y": 1.8822535584,
				"z": 1.2085255235,
				"element": "H" 
			},
			{
				"x": 0.6305579365,
				"y": 2.3354755489,
				"z": 0.3910604092,
				"element": "H" 
			},
			{
				"x": 0.6445000407,
				"y": 2.106603598,
				"z": 2.1312490733,
				"element": "H" 
			},
			{
				"x": 0.6860179639,
				"y": 0.0219144332,
				"z": 3.219815959,
				"element": "H" 
			},
			{
				"x": 0.9365043675,
				"y": -1.5232007294,
				"z": 2.4101147525,
				"element": "H" 
			},
			{
				"x": 2.2494424701,
				"y": -0.3475779044,
				"z": 2.4915828531,
				"element": "H" 
			},
			{
				"x": 2.3915353966,
				"y": -0.4514273549,
				"z": -0.3258055816,
				"element": "H" 
			},
			{
				"x": 0.6929400093,
				"y": -2.3974574344,
				"z": -1.1114180504,
				"element": "H" 
			},
			{
				"x": 1.2440567999,
				"y": -2.5269851619,
				"z": 0.5512574875,
				"element": "H" 
			},
			{
				"x": -1.5290353344,
				"y": -1.8869107988,
				"z": -0.3428921029,
				"element": "H" 
			},
			{
				"x": -0.9724649214,
				"y": -2.1362372253,
				"z": 1.30292866,
				"element": "H" 
			},
			{
				"x": -2.8668063107,
				"y": 0.2090583732,
				"z": 1.1163933197,
				"element": "H" 
			},
			{
				"x": -1.8411588094,
				"y": 1.507853616,
				"z": 1.7144521642,
				"element": "H" 
			},
			{
				"x": -1.8446507639,
				"y": -0.0650551811,
				"z": 2.5382461966,
				"element": "H" 
			},
			{
				"x": 0.3235504799,
				"y": -0.512994851,
				"z": -2.198899509,
				"element": "H" 
			},
			{
				"x": 2.1476224105,
				"y": 1.0593489843,
				"z": -2.609589616,
				"element": "H" 
			},
			{
				"x": 1.4480587341,
				"y": 2.2224445651,
				"z": -1.4827158745,
				"element": "H" 
			},
			{
				"x": -0.5047643059,
				"y": 1.9720754586,
				"z": -2.8431009402,
				"element": "H" 
			}
		],
		 "valence_orbital": [ 
			{
				"type": "occ",
				"energy": -0.32491,
				"method": "rhf"
			},
			{
				"type": "occ",
				"energy": -0.30893,
				"method": "rhf"
			},
			{
				"type": "occ",
				"energy": -0.30114,
				"method": "rhf"
			},
			{
				"type": "occ",
				"energy": -0.25508,
				"method": "rhf"
			},
			{
				"type": "occ",
				"energy": -0.24137,
				"method": "rhf"
			},
			{
				"type": "unocc",
				"energy": -0.02217,
				"method": "rhf"
			},
			{
				"type": "unocc",
				"energy": 0.06629,
				"method": "rhf"
			},
			{
				"type": "unocc",
				"energy": 0.09428,
				"method": "rhf"
			},
			{
				"type": "unocc",
				"energy": 0.09717,
				"method": "rhf"
			},
			{
				"type": "unocc",
				"energy": 0.10723,
				"method": "rhf"
			}
		],
		"cosmo_sigma_profile": { 
			"-0.025": 0.0,
			"-0.024": 0.0,
			"-0.023": 0.0,
			"-0.022": 0.0,
			"-0.021": 0.0,
			"-0.02": 0.0,
			"-0.019": 0.0,
			"-0.018": 0.0,
			"-0.017": 0.0,
			"-0.016": 0.0,
			"-0.015": 0.0,
			"-0.014": 0.0,
			"-0.013": 0.0,
			"-0.012": 0.0,
			"-0.011": 0.0,
			"-0.01": 0.0,
			"-0.009": 0.0,
			"-0.008": 0.0848797208525,
			"-0.007": 0.22399994953,
			"-0.006": 1.50769826657,
			"-0.005": 6.34265756242,
			"-0.004": 17.0397144042,
			"-0.003": 36.2788964728,
			"-0.002": 41.4291845899,
			"-0.001": 31.4641291524,
			"0.0": 27.1679426106,
			"0.001": 22.0961809813,
			"0.002": 6.08845187596,
			"0.003": 3.02163369531,
			"0.004": 2.17361127237,
			"0.005": 2.6759820248,
			"0.006": 2.48209847904,
			"0.007": 2.54369537443,
			"0.008": 3.14161611672,
			"0.009": 2.89640494143,
			"0.01": 3.32206508993,
			"0.011": 3.68825573772,
			"0.012": 2.61564451579,
			"0.013": 1.8644842811,
			"0.014": 2.33461514232,
			"0.015": 1.52841353555,
			"0.016": 0.0,
			"0.017": 0.0,
			"0.018": 0.0,
			"0.019": 0.0,
			"0.02": 0.0,
			"0.021": 0.0,
			"0.022": 0.0,
			"0.023": 0.0,
			"0.024": 0.0,
			"0.025": 0.0
		}
	}
}
