{
	 "smiles": "CC(C)OC1=C(CBr)C=C(C=C1)[N+]([O-])=O", 
	 "Tm": 343.15, 
	 "num_atms": 27, 
	 "gaussian": { 
		 "optdone": 1, 
		 "sigma_profile": "yes", 
		 "theory": "DFT", 
		 "functional": "B3LYP", 
		 "basiset": "6-31G**", 
		 "properties": { 
			 "R2extent": 5449.1955, 
			 "electric_dipole_moment_norm": 6.39656339686, 
			 "electric_quadrupole_moment_norm": 14.8604359004, 
			 "total_energy": -3240.03601113, 
			 "HOMO_LUMO_gap": 0.16568, 
			 "cosmo_polarized_energy": -12.74, 
			 "cosmo_cavitation_energy": 33.49, 
			 "cosmo_dispersion_energy": -23.47, 
			 "cosmo_repulsion_energy": 1.86, 
			 "cosmo_total_nonelectrostatic_energy": 11.88, 
			 "SMD_solvation_energy": 7.14 
		},
		"coords": [
			{
				"x": 2.6273801842,
				"y": -0.6565292317,
				"z": -2.4904680435,
				"element": "C" 
			},
			{
				"x": 1.7529117758,
				"y": -1.6030211488,
				"z": -1.6705604045,
				"element": "C" 
			},
			{
				"x": 2.3897445915,
				"y": -2.9708880179,
				"z": -1.4604073244,
				"element": "C" 
			},
			{
				"x": 1.5461958053,
				"y": -1.0653737696,
				"z": -0.3406271162,
				"element": "O" 
			},
			{
				"x": 0.5916685029,
				"y": -0.1473217294,
				"z": -0.0852935498,
				"element": "C" 
			},
			{
				"x": 0.4680109539,
				"y": 0.2276350267,
				"z": 1.2788402089,
				"element": "C" 
			},
			{
				"x": 1.3613000713,
				"y": -0.3800802091,
				"z": 2.3058359854,
				"element": "C" 
			},
			{
				"x": 0.7194533188,
				"y": -2.1902732119,
				"z": 2.8879632005,
				"element": "Br" 
			},
			{
				"x": -0.4952505276,
				"y": 1.1644080559,
				"z": 1.6371729813,
				"element": "C" 
			},
			{
				"x": -1.320853953,
				"y": 1.7256283467,
				"z": 0.6631418277,
				"element": "C" 
			},
			{
				"x": -1.2077007535,
				"y": 1.364053911,
				"z": -0.6766044039,
				"element": "C" 
			},
			{
				"x": -0.2488454849,
				"y": 0.4295269844,
				"z": -1.0518239411,
				"element": "C" 
			},
			{
				"x": -2.3216795426,
				"y": 2.7159646103,
				"z": 1.0569651944,
				"element": "N" 
			},
			{
				"x": -3.0415499346,
				"y": 3.1857526832,
				"z": 0.1737129798,
				"element": "O" 
			},
			{
				"x": -2.3857728622,
				"y": 3.0238544501,
				"z": 2.2484328814,
				"element": "O" 
			},
			{
				"x": 3.6029275639,
				"y": -0.5356393367,
				"z": -2.0096509126,
				"element": "H" 
			},
			{
				"x": 2.1725555318,
				"y": 0.3322037744,
				"z": -2.5941091038,
				"element": "H" 
			},
			{
				"x": 2.7863403543,
				"y": -1.0648822175,
				"z": -3.493421872,
				"element": "H" 
			},
			{
				"x": 0.7732507723,
				"y": -1.7317376651,
				"z": -2.1468574674,
				"element": "H" 
			},
			{
				"x": 3.357254173,
				"y": -2.8695992181,
				"z": -0.959382439,
				"element": "H" 
			},
			{
				"x": 2.5487027275,
				"y": -3.4640360534,
				"z": -2.4240026958,
				"element": "H" 
			},
			{
				"x": 1.7467689212,
				"y": -3.60290166,
				"z": -0.8431465214,
				"element": "H" 
			},
			{
				"x": 1.3909403466,
				"y": 0.2059934911,
				"z": 3.2215116759,
				"element": "H" 
			},
			{
				"x": 2.3644480124,
				"y": -0.5665260753,
				"z": 1.9317588838,
				"element": "H" 
			},
			{
				"x": -0.619621159,
				"y": 1.4664897535,
				"z": 2.6703923376,
				"element": "H" 
			},
			{
				"x": -1.864169036,
				"y": 1.8203724522,
				"z": -1.4069323939,
				"element": "H" 
			},
			{
				"x": -0.1596103535,
				"y": 0.1591260049,
				"z": -2.0959399674,
				"element": "H" 
			}
		],
		 "valence_orbital": [ 
			{
				"type": "occ",
				"energy": -0.28547,
				"method": "rhf"
			},
			{
				"type": "occ",
				"energy": -0.28275,
				"method": "rhf"
			},
			{
				"type": "occ",
				"energy": -0.27232,
				"method": "rhf"
			},
			{
				"type": "occ",
				"energy": -0.27121,
				"method": "rhf"
			},
			{
				"type": "occ",
				"energy": -0.24825,
				"method": "rhf"
			},
			{
				"type": "unocc",
				"energy": -0.08257,
				"method": "rhf"
			},
			{
				"type": "unocc",
				"energy": -0.04987,
				"method": "rhf"
			},
			{
				"type": "unocc",
				"energy": -0.00301,
				"method": "rhf"
			},
			{
				"type": "unocc",
				"energy": 0.02672,
				"method": "rhf"
			},
			{
				"type": "unocc",
				"energy": 0.06978,
				"method": "rhf"
			}
		],
		"cosmo_sigma_profile": { 
			"-0.025": 0.0,
			"-0.024": 0.0,
			"-0.023": 0.0,
			"-0.022": 0.0,
			"-0.021": 0.0,
			"-0.02": 0.0,
			"-0.019": 0.0,
			"-0.018": 0.0,
			"-0.017": 0.0,
			"-0.016": 0.0,
			"-0.015": 0.0,
			"-0.014": 0.0,
			"-0.013": 0.0,
			"-0.012": 0.0,
			"-0.011": 0.0,
			"-0.01": 0.101537631278,
			"-0.009": 2.37735177878,
			"-0.008": 6.54712467586,
			"-0.007": 8.04895758391,
			"-0.006": 9.80722001613,
			"-0.005": 14.4892713496,
			"-0.004": 24.1975144221,
			"-0.003": 20.8225444587,
			"-0.002": 21.2125275456,
			"-0.001": 26.2786199765,
			"0.0": 29.9004069968,
			"0.001": 19.1350248827,
			"0.002": 12.6117963368,
			"0.003": 8.95655240474,
			"0.004": 9.11844201126,
			"0.005": 10.9181241507,
			"0.006": 16.1337667644,
			"0.007": 8.33325915994,
			"0.008": 10.0305544425,
			"0.009": 4.92779930651,
			"0.01": 3.89720667704,
			"0.011": 0.958788010023,
			"0.012": 0.0,
			"0.013": 0.0,
			"0.014": 0.0,
			"0.015": 0.0,
			"0.016": 0.0,
			"0.017": 0.0,
			"0.018": 0.0,
			"0.019": 0.0,
			"0.02": 0.0,
			"0.021": 0.0,
			"0.022": 0.0,
			"0.023": 0.0,
			"0.024": 0.0,
			"0.025": 0.0
		}
	}
}
