{
	 "smiles": "CCCCCCCC(=O)NO", 
	 "Tm": 351.95, 
	 "num_atms": 28, 
	 "gaussian": { 
		 "optdone": 1, 
		 "sigma_profile": "yes", 
		 "theory": "DFT", 
		 "functional": "B3LYP", 
		 "basiset": "6-31G**", 
		 "properties": { 
			 "R2extent": 3241.7155, 
			 "electric_dipole_moment_norm": 2.95076737138, 
			 "electric_quadrupole_moment_norm": 9.59274193336, 
			 "total_energy": -520.265444834, 
			 "HOMO_LUMO_gap": 0.24639, 
			 "cosmo_polarized_energy": -11.21, 
			 "cosmo_cavitation_energy": 29.48, 
			 "cosmo_dispersion_energy": -20.71, 
			 "cosmo_repulsion_energy": 1.71, 
			 "cosmo_total_nonelectrostatic_energy": 10.48, 
			 "SMD_solvation_energy": 5.96 
		},
		"coords": [
			{
				"x": -1.4113839796,
				"y": -1.7898413757,
				"z": -1.2229693228,
				"element": "C" 
			},
			{
				"x": -1.0498208454,
				"y": -0.5082455464,
				"z": -1.9840828757,
				"element": "C" 
			},
			{
				"x": -2.2541939377,
				"y": 0.4163185636,
				"z": -2.2543804072,
				"element": "C" 
			},
			{
				"x": -2.8775666919,
				"y": 1.1148572964,
				"z": -1.0230807293,
				"element": "C" 
			},
			{
				"x": -2.3446007593,
				"y": 2.5304248215,
				"z": -0.725563062,
				"element": "C" 
			},
			{
				"x": -0.8464865397,
				"y": 2.6499793765,
				"z": -0.4065391919,
				"element": "C" 
			},
			{
				"x": -0.4289240795,
				"y": 1.9567454368,
				"z": 0.9036097797,
				"element": "C" 
			},
			{
				"x": 1.0758220476,
				"y": 1.8594305513,
				"z": 1.0249679494,
				"element": "C" 
			},
			{
				"x": 1.8071814347,
				"y": 1.3696778815,
				"z": 0.1605761038,
				"element": "O" 
			},
			{
				"x": 1.6351262714,
				"y": 2.4088859979,
				"z": 2.1432370333,
				"element": "N" 
			},
			{
				"x": 2.9977336511,
				"y": 2.1370035587,
				"z": 2.3354534024,
				"element": "O" 
			},
			{
				"x": -0.5300287727,
				"y": -2.4231260997,
				"z": -1.0785980312,
				"element": "H" 
			},
			{
				"x": -1.8256457953,
				"y": -1.578139248,
				"z": -0.2306568126,
				"element": "H" 
			},
			{
				"x": -2.1586878566,
				"y": -2.3768519758,
				"z": -1.7699196755,
				"element": "H" 
			},
			{
				"x": -0.2585433892,
				"y": 0.0252153878,
				"z": -1.444694979,
				"element": "H" 
			},
			{
				"x": -0.6115971299,
				"y": -0.7887891565,
				"z": -2.9505574954,
				"element": "H" 
			},
			{
				"x": -1.963595871,
				"y": 1.1826799439,
				"z": -2.9859000525,
				"element": "H" 
			},
			{
				"x": -3.0289337839,
				"y": -0.1844316287,
				"z": -2.7493425734,
				"element": "H" 
			},
			{
				"x": -3.9592986348,
				"y": 1.2089057275,
				"z": -1.1789044415,
				"element": "H" 
			},
			{
				"x": -2.7728932775,
				"y": 0.4760640794,
				"z": -0.1365558207,
				"element": "H" 
			},
			{
				"x": -2.5550802291,
				"y": 3.1664586487,
				"z": -1.5956722764,
				"element": "H" 
			},
			{
				"x": -2.924578132,
				"y": 2.95750877,
				"z": 0.10478627,
				"element": "H" 
			},
			{
				"x": -0.5780779482,
				"y": 3.7115401745,
				"z": -0.3387062406,
				"element": "H" 
			},
			{
				"x": -0.2477278021,
				"y": 2.2359384299,
				"z": -1.2228896974,
				"element": "H" 
			},
			{
				"x": -0.8606178279,
				"y": 2.4761804763,
				"z": 1.7680747504,
				"element": "H" 
			},
			{
				"x": -0.8082668445,
				"y": 0.9282351537,
				"z": 0.9209974582,
				"element": "H" 
			},
			{
				"x": 1.1414363809,
				"y": 2.4164108053,
				"z": 3.0261285064,
				"element": "H" 
			},
			{
				"x": 3.2057503421,
				"y": 1.6806639497,
				"z": 1.4895824315,
				"element": "H" 
			}
		],
		 "valence_orbital": [ 
			{
				"type": "occ",
				"energy": -0.31348,
				"method": "rhf"
			},
			{
				"type": "occ",
				"energy": -0.31006,
				"method": "rhf"
			},
			{
				"type": "occ",
				"energy": -0.3057,
				"method": "rhf"
			},
			{
				"type": "occ",
				"energy": -0.2741,
				"method": "rhf"
			},
			{
				"type": "occ",
				"energy": -0.23739,
				"method": "rhf"
			},
			{
				"type": "unocc",
				"energy": 0.009,
				"method": "rhf"
			},
			{
				"type": "unocc",
				"energy": 0.06888,
				"method": "rhf"
			},
			{
				"type": "unocc",
				"energy": 0.08076,
				"method": "rhf"
			},
			{
				"type": "unocc",
				"energy": 0.09239,
				"method": "rhf"
			},
			{
				"type": "unocc",
				"energy": 0.09763,
				"method": "rhf"
			}
		],
		"cosmo_sigma_profile": { 
			"-0.025": 0.0,
			"-0.024": 0.0,
			"-0.023": 0.0,
			"-0.022": 0.0,
			"-0.021": 0.0,
			"-0.02": 0.0,
			"-0.019": 0.0,
			"-0.018": 0.0,
			"-0.017": 0.117227609764,
			"-0.016": 1.00598235955,
			"-0.015": 1.67932443902,
			"-0.014": 0.948816332768,
			"-0.013": 1.1448289873,
			"-0.012": 1.6916566749,
			"-0.011": 1.65421882533,
			"-0.01": 1.42450324516,
			"-0.009": 2.3214186233,
			"-0.008": 1.84188327365,
			"-0.007": 1.91644769816,
			"-0.006": 2.17140257097,
			"-0.005": 3.76529943009,
			"-0.004": 9.08311935884,
			"-0.003": 14.8294685567,
			"-0.002": 28.2967753186,
			"-0.001": 34.7354235756,
			"0.0": 34.0546245421,
			"0.001": 29.7498615231,
			"0.002": 14.9721139517,
			"0.003": 4.01986189554,
			"0.004": 3.93518934035,
			"0.005": 2.9744152041,
			"0.006": 3.98787262566,
			"0.007": 4.12518755579,
			"0.008": 3.87996983315,
			"0.009": 3.24487660224,
			"0.01": 3.68595062308,
			"0.011": 4.48192382441,
			"0.012": 3.78639522058,
			"0.013": 2.0496553099,
			"0.014": 0.0298050105987,
			"0.015": 0.0,
			"0.016": 0.0,
			"0.017": 0.0,
			"0.018": 0.0,
			"0.019": 0.0,
			"0.02": 0.0,
			"0.021": 0.0,
			"0.022": 0.0,
			"0.023": 0.0,
			"0.024": 0.0,
			"0.025": 0.0
		}
	}
}
