{
	 "smiles": "NC(=O)C1=NOC=N1", 
	 "Tm": 430.15, 
	 "num_atms": 11, 
	 "gaussian": { 
		 "optdone": 1, 
		 "sigma_profile": "yes", 
		 "theory": "DFT", 
		 "functional": "B3LYP", 
		 "basiset": "6-31G**", 
		 "properties": { 
			 "R2extent": 1174.7818, 
			 "electric_dipole_moment_norm": 4.87024116549, 
			 "electric_quadrupole_moment_norm": 16.6150253936, 
			 "total_energy": -430.786046026, 
			 "HOMO_LUMO_gap": 0.20826, 
			 "cosmo_polarized_energy": -15.78, 
			 "cosmo_cavitation_energy": 16.53, 
			 "cosmo_dispersion_energy": -12.55, 
			 "cosmo_repulsion_energy": 1.06, 
			 "cosmo_total_nonelectrostatic_energy": 5.04, 
			 "SMD_solvation_energy": 3.36 
		},
		"coords": [
			{
				"x": -1.0809485712,
				"y": 1.4242586022,
				"z": 2.3883311979,
				"element": "N" 
			},
			{
				"x": -1.9085097213,
				"y": 0.9473880653,
				"z": 1.4200196455,
				"element": "C" 
			},
			{
				"x": -3.1239673608,
				"y": 1.0328569869,
				"z": 1.4276901821,
				"element": "O" 
			},
			{
				"x": -1.1518360953,
				"y": 0.2814854613,
				"z": 0.2999521003,
				"element": "C" 
			},
			{
				"x": -1.7553188075,
				"y": -0.2470327802,
				"z": -0.735658394,
				"element": "N" 
			},
			{
				"x": -0.6927340881,
				"y": -0.7398352826,
				"z": -1.5021870273,
				"element": "O" 
			},
			{
				"x": 0.429937335,
				"y": -0.4471480655,
				"z": -0.8345149892,
				"element": "C" 
			},
			{
				"x": 0.2277592667,
				"y": 0.1795012689,
				"z": 0.2816384849,
				"element": "N" 
			},
			{
				"x": -0.0807051191,
				"y": 1.3173154851,
				"z": 2.3152089094,
				"element": "H" 
			},
			{
				"x": -1.4913989397,
				"y": 1.8885597233,
				"z": 3.18317187,
				"element": "H" 
			},
			{
				"x": 1.3670221013,
				"y": -0.7537494648,
				"z": -1.2784519797,
				"element": "H" 
			}
		],
		 "valence_orbital": [ 
			{
				"type": "occ",
				"energy": -0.35164,
				"method": "rhf"
			},
			{
				"type": "occ",
				"energy": -0.32478,
				"method": "rhf"
			},
			{
				"type": "occ",
				"energy": -0.31416,
				"method": "rhf"
			},
			{
				"type": "occ",
				"energy": -0.27941,
				"method": "rhf"
			},
			{
				"type": "occ",
				"energy": -0.26745,
				"method": "rhf"
			},
			{
				"type": "unocc",
				"energy": -0.05919,
				"method": "rhf"
			},
			{
				"type": "unocc",
				"energy": -0.01804,
				"method": "rhf"
			},
			{
				"type": "unocc",
				"energy": 0.06951,
				"method": "rhf"
			},
			{
				"type": "unocc",
				"energy": 0.08538,
				"method": "rhf"
			},
			{
				"type": "unocc",
				"energy": 0.09859,
				"method": "rhf"
			}
		],
		"cosmo_sigma_profile": { 
			"-0.025": 0.0,
			"-0.024": 0.0,
			"-0.023": 0.0,
			"-0.022": 0.0,
			"-0.021": 0.0,
			"-0.02": 0.0,
			"-0.019": 0.0,
			"-0.018": 0.0,
			"-0.017": 0.0,
			"-0.016": 0.0527568419957,
			"-0.015": 1.2100913246,
			"-0.014": 2.1378908797,
			"-0.013": 4.46375952796,
			"-0.012": 3.79909871285,
			"-0.011": 3.16240031199,
			"-0.01": 3.52900523919,
			"-0.009": 3.54522330761,
			"-0.008": 2.23805013341,
			"-0.007": 2.54177608332,
			"-0.006": 4.340006253,
			"-0.005": 7.06104339352,
			"-0.004": 7.75367471563,
			"-0.003": 6.81774246874,
			"-0.002": 7.42368175011,
			"-0.001": 5.04989334893,
			"0.0": 6.46318889501,
			"0.001": 5.01018089765,
			"0.002": 6.30122128953,
			"0.003": 5.26397384468,
			"0.004": 5.16131724619,
			"0.005": 5.78811309695,
			"0.006": 4.19303826488,
			"0.007": 3.59410275368,
			"0.008": 3.70015960174,
			"0.009": 3.49981796329,
			"0.01": 3.3678554051,
			"0.011": 3.89851020517,
			"0.012": 6.27943532382,
			"0.013": 5.1029602873,
			"0.014": 0.583305466461,
			"0.015": 0.0,
			"0.016": 0.0,
			"0.017": 0.0,
			"0.018": 0.0,
			"0.019": 0.0,
			"0.02": 0.0,
			"0.021": 0.0,
			"0.022": 0.0,
			"0.023": 0.0,
			"0.024": 0.0,
			"0.025": 0.0
		}
	}
}
