{
	 "smiles": "OC(=O)CCCNC(=O)NC1CCCCC1", 
	 "Tm": 427.15, 
	 "num_atms": 36, 
	 "gaussian": { 
		 "optdone": 1, 
		 "sigma_profile": "yes", 
		 "theory": "DFT", 
		 "functional": "B3LYP", 
		 "basiset": "6-31G**", 
		 "properties": { 
			 "R2extent": 6457.7366, 
			 "electric_dipole_moment_norm": 4.26467192173, 
			 "electric_quadrupole_moment_norm": 20.5678848288, 
			 "total_energy": -766.44680815, 
			 "HOMO_LUMO_gap": 0.25027, 
			 "cosmo_polarized_energy": -23.04, 
			 "cosmo_cavitation_energy": 36.99, 
			 "cosmo_dispersion_energy": -26.42, 
			 "cosmo_repulsion_energy": 2.12, 
			 "cosmo_total_nonelectrostatic_energy": 12.68, 
			 "SMD_solvation_energy": 5.89 
		},
		"coords": [
			{
				"x": 5.0617339459,
				"y": 1.5267310265,
				"z": -0.5574047249,
				"element": "O" 
			},
			{
				"x": 3.8087157505,
				"y": 2.0401111421,
				"z": -0.7099704099,
				"element": "C" 
			},
			{
				"x": 3.6035989877,
				"y": 3.1992236495,
				"z": -0.4438996296,
				"element": "O" 
			},
			{
				"x": 2.7632732106,
				"y": 1.0542611623,
				"z": -1.214282668,
				"element": "C" 
			},
			{
				"x": 1.3680912454,
				"y": 1.6582929532,
				"z": -1.3887394616,
				"element": "C" 
			},
			{
				"x": 0.6802089829,
				"y": 2.0393510755,
				"z": -0.0703330039,
				"element": "C" 
			},
			{
				"x": 0.5291425873,
				"y": 0.902941832,
				"z": 0.8446778478,
				"element": "N" 
			},
			{
				"x": -0.5246778484,
				"y": 0.0176490031,
				"z": 0.6444623334,
				"element": "C" 
			},
			{
				"x": -1.2014942304,
				"y": 0.0277488139,
				"z": -0.3816426723,
				"element": "O" 
			},
			{
				"x": -0.7291343631,
				"y": -0.8586508777,
				"z": 1.6915727058,
				"element": "N" 
			},
			{
				"x": -1.6640135684,
				"y": -1.9913788282,
				"z": 1.6070968316,
				"element": "C" 
			},
			{
				"x": -3.1275941719,
				"y": -1.5458740434,
				"z": 1.4632671813,
				"element": "C" 
			},
			{
				"x": -4.0838165635,
				"y": -2.7416329451,
				"z": 1.6901049033,
				"element": "C" 
			},
			{
				"x": -3.4791186907,
				"y": -4.0870972401,
				"z": 1.2164825099,
				"element": "C" 
			},
			{
				"x": -2.4930903257,
				"y": -3.8730085922,
				"z": 0.0605316662,
				"element": "C" 
			},
			{
				"x": -1.2851252105,
				"y": -3.0135209678,
				"z": 0.5018565208,
				"element": "C" 
			},
			{
				"x": 5.0708612596,
				"y": 0.5948719129,
				"z": -0.8188467488,
				"element": "H" 
			},
			{
				"x": 2.7185793752,
				"y": 0.212464154,
				"z": -0.5096964043,
				"element": "H" 
			},
			{
				"x": 3.1218199162,
				"y": 0.6407400001,
				"z": -2.1669765669,
				"element": "H" 
			},
			{
				"x": 1.4366409254,
				"y": 2.5586197478,
				"z": -2.0086823843,
				"element": "H" 
			},
			{
				"x": 0.7316642654,
				"y": 0.9409026868,
				"z": -1.9136789803,
				"element": "H" 
			},
			{
				"x": 1.2754124004,
				"y": 2.7973017129,
				"z": 0.4427071913,
				"element": "H" 
			},
			{
				"x": -0.3023995238,
				"y": 2.4663812757,
				"z": -0.3007684271,
				"element": "H" 
			},
			{
				"x": 0.7734263265,
				"y": 1.0874530678,
				"z": 1.8077698857,
				"element": "H" 
			},
			{
				"x": 0.045365831,
				"y": -0.9786759689,
				"z": 2.3286945073,
				"element": "H" 
			},
			{
				"x": -1.5736954759,
				"y": -2.4839965736,
				"z": 2.5837349772,
				"element": "H" 
			},
			{
				"x": -3.2623752917,
				"y": -1.1200870096,
				"z": 0.4659484109,
				"element": "H" 
			},
			{
				"x": -3.3383792519,
				"y": -0.744494363,
				"z": 2.1792900092,
				"element": "H" 
			},
			{
				"x": -5.0217887744,
				"y": -2.5486471194,
				"z": 1.1569461268,
				"element": "H" 
			},
			{
				"x": -4.3462938975,
				"y": -2.8161688185,
				"z": 2.7525273839,
				"element": "H" 
			},
			{
				"x": -4.2781847372,
				"y": -4.7764239352,
				"z": 0.9215989459,
				"element": "H" 
			},
			{
				"x": -2.9515422413,
				"y": -4.5743936577,
				"z": 2.0477847222,
				"element": "H" 
			},
			{
				"x": -2.1445177056,
				"y": -4.8335149399,
				"z": -0.3355011638,
				"element": "H" 
			},
			{
				"x": -3.0159052923,
				"y": -3.3729429037,
				"z": -0.764305339,
				"element": "H" 
			},
			{
				"x": -0.894748441,
				"y": -2.4641951512,
				"z": -0.3582400259,
				"element": "H" 
			},
			{
				"x": -0.4778394047,
				"y": -3.6565412807,
				"z": 0.8755139503,
				"element": "H" 
			}
		],
		 "valence_orbital": [ 
			{
				"type": "occ",
				"energy": -0.2984,
				"method": "rhf"
			},
			{
				"type": "occ",
				"energy": -0.27136,
				"method": "rhf"
			},
			{
				"type": "occ",
				"energy": -0.25924,
				"method": "rhf"
			},
			{
				"type": "occ",
				"energy": -0.24821,
				"method": "rhf"
			},
			{
				"type": "occ",
				"energy": -0.24009,
				"method": "rhf"
			},
			{
				"type": "unocc",
				"energy": 0.01018,
				"method": "rhf"
			},
			{
				"type": "unocc",
				"energy": 0.05096,
				"method": "rhf"
			},
			{
				"type": "unocc",
				"energy": 0.05469,
				"method": "rhf"
			},
			{
				"type": "unocc",
				"energy": 0.06057,
				"method": "rhf"
			},
			{
				"type": "unocc",
				"energy": 0.08158,
				"method": "rhf"
			}
		],
		"cosmo_sigma_profile": { 
			"-0.025": 0.0,
			"-0.024": 0.0,
			"-0.023": 0.0,
			"-0.022": 0.0,
			"-0.021": 0.0,
			"-0.02": 0.000882762017487,
			"-0.019": 0.50450373081,
			"-0.018": 0.807786922567,
			"-0.017": 1.10417470002,
			"-0.016": 1.15225756082,
			"-0.015": 0.778758397776,
			"-0.014": 3.08210003337,
			"-0.013": 4.43233798129,
			"-0.012": 3.29855641609,
			"-0.011": 3.31924443291,
			"-0.01": 2.91393244798,
			"-0.009": 2.68442473163,
			"-0.008": 3.68492505111,
			"-0.007": 4.33757475479,
			"-0.006": 6.26260744097,
			"-0.005": 6.24815434134,
			"-0.004": 8.0209471908,
			"-0.003": 16.5041802614,
			"-0.002": 32.5094150454,
			"-0.001": 36.7933635574,
			"0.0": 36.0881789643,
			"0.001": 27.9921026224,
			"0.002": 15.5524543116,
			"0.003": 7.43924331841,
			"0.004": 7.85145976289,
			"0.005": 4.73967628067,
			"0.006": 4.88517796714,
			"0.007": 4.77290411833,
			"0.008": 5.45082591045,
			"0.009": 5.06845572384,
			"0.01": 6.44579623687,
			"0.011": 6.70459122462,
			"0.012": 5.76672357783,
			"0.013": 4.03269575418,
			"0.014": 2.42241018627,
			"0.015": 2.22508912772,
			"0.016": 0.0387556559496,
			"0.017": 0.0,
			"0.018": 0.0,
			"0.019": 0.0,
			"0.02": 0.0,
			"0.021": 0.0,
			"0.022": 0.0,
			"0.023": 0.0,
			"0.024": 0.0,
			"0.025": 0.0
		}
	}
}
