{
	 "smiles": "OC1=C(C=O)C(F)=C(F)C=C1", 
	 "Tm": 328.15, 
	 "num_atms": 15, 
	 "gaussian": { 
		 "optdone": 1, 
		 "sigma_profile": "yes", 
		 "theory": "DFT", 
		 "functional": "B3LYP", 
		 "basiset": "6-31G**", 
		 "properties": { 
			 "R2extent": 3000.5506, 
			 "electric_dipole_moment_norm": 1.46391390799, 
			 "electric_quadrupole_moment_norm": 6.11752579234, 
			 "total_energy": -619.260004101, 
			 "HOMO_LUMO_gap": 0.15419, 
			 "cosmo_polarized_energy": -6.09, 
			 "cosmo_cavitation_energy": 20.64, 
			 "cosmo_dispersion_energy": -15.33, 
			 "cosmo_repulsion_energy": 1.17, 
			 "cosmo_total_nonelectrostatic_energy": 6.48, 
			 "SMD_solvation_energy": 5.85 
		},
		"coords": [
			{
				"x": 0.7962424527,
				"y": 1.3979049156,
				"z": -1.5889938705,
				"element": "O" 
			},
			{
				"x": 0.8364076558,
				"y": 0.118584406,
				"z": -1.2011242269,
				"element": "C" 
			},
			{
				"x": 1.2510665988,
				"y": -0.9104121899,
				"z": -2.0938247957,
				"element": "C" 
			},
			{
				"x": 1.6426068017,
				"y": -0.5865834293,
				"z": -3.4578154937,
				"element": "C" 
			},
			{
				"x": 1.6377190451,
				"y": 0.5636284424,
				"z": -3.9069625096,
				"element": "O" 
			},
			{
				"x": 1.2727082635,
				"y": -2.2381460657,
				"z": -1.6280333745,
				"element": "C" 
			},
			{
				"x": 1.6612877291,
				"y": -3.2210511291,
				"z": -2.4568479318,
				"element": "F" 
			},
			{
				"x": 0.9013476011,
				"y": -2.550238461,
				"z": -0.3326336638,
				"element": "C" 
			},
			{
				"x": 0.9331885939,
				"y": -3.830028655,
				"z": 0.0814811716,
				"element": "F" 
			},
			{
				"x": 0.4966755193,
				"y": -1.5326536495,
				"z": 0.5332304325,
				"element": "C" 
			},
			{
				"x": 0.4617853389,
				"y": -0.2093915296,
				"z": 0.1111192932,
				"element": "C" 
			},
			{
				"x": 1.0925688321,
				"y": 1.4252421601,
				"z": -2.5338221514,
				"element": "H" 
			},
			{
				"x": 1.9529442976,
				"y": -1.4268674795,
				"z": -4.0997566056,
				"element": "H" 
			},
			{
				"x": 0.2103175004,
				"y": -1.8032112143,
				"z": 1.5443014869,
				"element": "H" 
			},
			{
				"x": 0.1487337699,
				"y": 0.585423879,
				"z": 0.7779822394,
				"element": "H" 
			}
		],
		 "valence_orbital": [ 
			{
				"type": "occ",
				"energy": -0.37749,
				"method": "rhf"
			},
			{
				"type": "occ",
				"energy": -0.34208,
				"method": "rhf"
			},
			{
				"type": "occ",
				"energy": -0.28259,
				"method": "rhf"
			},
			{
				"type": "occ",
				"energy": -0.28181,
				"method": "rhf"
			},
			{
				"type": "occ",
				"energy": -0.23816,
				"method": "rhf"
			},
			{
				"type": "unocc",
				"energy": -0.08397,
				"method": "rhf"
			},
			{
				"type": "unocc",
				"energy": -0.00813,
				"method": "rhf"
			},
			{
				"type": "unocc",
				"energy": 0.02087,
				"method": "rhf"
			},
			{
				"type": "unocc",
				"energy": 0.05656,
				"method": "rhf"
			},
			{
				"type": "unocc",
				"energy": 0.11373,
				"method": "rhf"
			}
		],
		"cosmo_sigma_profile": { 
			"-0.025": 0.0,
			"-0.024": 0.0,
			"-0.023": 0.0,
			"-0.022": 0.0,
			"-0.021": 0.0,
			"-0.02": 0.0,
			"-0.019": 0.0,
			"-0.018": 0.0,
			"-0.017": 0.0,
			"-0.016": 0.0,
			"-0.015": 0.0,
			"-0.014": 0.0,
			"-0.013": 0.0,
			"-0.012": 0.0,
			"-0.011": 0.0,
			"-0.01": 0.00727881195497,
			"-0.009": 1.50621296592,
			"-0.008": 4.86309933375,
			"-0.007": 6.32029350157,
			"-0.006": 7.26841563069,
			"-0.005": 8.61751707737,
			"-0.004": 10.1552169904,
			"-0.003": 11.1016554556,
			"-0.002": 13.3527940234,
			"-0.001": 17.2280341116,
			"0.0": 13.2533051042,
			"0.001": 12.4360298745,
			"0.002": 13.4957659812,
			"0.003": 16.6519985175,
			"0.004": 9.85781230865,
			"0.005": 2.98703585905,
			"0.006": 2.79101643618,
			"0.007": 3.18331847692,
			"0.008": 2.13592147409,
			"0.009": 3.41312810758,
			"0.01": 3.64638873166,
			"0.011": 2.05728339712,
			"0.012": 0.771968253237,
			"0.013": 0.0,
			"0.014": 0.0,
			"0.015": 0.0,
			"0.016": 0.0,
			"0.017": 0.0,
			"0.018": 0.0,
			"0.019": 0.0,
			"0.02": 0.0,
			"0.021": 0.0,
			"0.022": 0.0,
			"0.023": 0.0,
			"0.024": 0.0,
			"0.025": 0.0
		}
	}
}
