{
	 "smiles": "ClCC(=O)NCC1(CCCCC1)C1=CC=CC=C1", 
	 "Tm": 328.15, 
	 "num_atms": 38, 
	 "gaussian": { 
		 "optdone": 1, 
		 "sigma_profile": "yes", 
		 "theory": "DFT", 
		 "functional": "B3LYP", 
		 "basiset": "6-31G**", 
		 "properties": { 
			 "R2extent": 5802.1327, 
			 "electric_dipole_moment_norm": 1.84090784397, 
			 "electric_quadrupole_moment_norm": 6.39226773845, 
			 "total_energy": -1173.85530966, 
			 "HOMO_LUMO_gap": 0.23806, 
			 "cosmo_polarized_energy": -10.47, 
			 "cosmo_cavitation_energy": 39.06, 
			 "cosmo_dispersion_energy": -27.08, 
			 "cosmo_repulsion_energy": 2.12, 
			 "cosmo_total_nonelectrostatic_energy": 14.1, 
			 "SMD_solvation_energy": 5.69 
		},
		"coords": [
			{
				"x": 2.2654656394,
				"y": -3.5160408477,
				"z": -1.8776825259,
				"element": "Cl" 
			},
			{
				"x": 1.0687603105,
				"y": -2.9798857232,
				"z": -3.1357401906,
				"element": "C" 
			},
			{
				"x": 0.0096671213,
				"y": -1.9630792977,
				"z": -2.7011041103,
				"element": "C" 
			},
			{
				"x": -0.7846138122,
				"y": -1.5976856091,
				"z": -3.562964458,
				"element": "O" 
			},
			{
				"x": 0.0120119022,
				"y": -1.5472519076,
				"z": -1.4150420304,
				"element": "N" 
			},
			{
				"x": -0.9554246718,
				"y": -0.5872655485,
				"z": -0.9049633565,
				"element": "C" 
			},
			{
				"x": -0.3195042701,
				"y": 0.7553377493,
				"z": -0.4336619445,
				"element": "C" 
			},
			{
				"x": -1.4535670294,
				"y": 1.6886492862,
				"z": 0.0885464004,
				"element": "C" 
			},
			{
				"x": -2.4104159695,
				"y": 2.1943602532,
				"z": -1.0050160195,
				"element": "C" 
			},
			{
				"x": -1.6534306003,
				"y": 2.875874899,
				"z": -2.1521646581,
				"element": "C" 
			},
			{
				"x": -0.5664923771,
				"y": 1.9529891113,
				"z": -2.7182075343,
				"element": "C" 
			},
			{
				"x": 0.3881759492,
				"y": 1.4650643206,
				"z": -1.6158576987,
				"element": "C" 
			},
			{
				"x": 0.6563130238,
				"y": 0.4389851319,
				"z": 0.719262238,
				"element": "C" 
			},
			{
				"x": 2.0430297082,
				"y": 0.6273358806,
				"z": 0.6162240592,
				"element": "C" 
			},
			{
				"x": 2.9012399463,
				"y": 0.3136342723,
				"z": 1.6742507368,
				"element": "C" 
			},
			{
				"x": 2.3950368165,
				"y": -0.2015317378,
				"z": 2.8654404309,
				"element": "C" 
			},
			{
				"x": 1.0188618898,
				"y": -0.403864361,
				"z": 2.986555343,
				"element": "C" 
			},
			{
				"x": 0.1673980318,
				"y": -0.090086112,
				"z": 1.9285324486,
				"element": "C" 
			},
			{
				"x": 0.5574273847,
				"y": -3.8738085154,
				"z": -3.4933932753,
				"element": "H" 
			},
			{
				"x": 1.6393250373,
				"y": -2.548889903,
				"z": -3.9584181024,
				"element": "H" 
			},
			{
				"x": 0.7321126182,
				"y": -1.8921863333,
				"z": -0.7946495467,
				"element": "H" 
			},
			{
				"x": -1.4975578518,
				"y": -1.0405606793,
				"z": -0.0668860307,
				"element": "H" 
			},
			{
				"x": -1.6717379028,
				"y": -0.4246494644,
				"z": -1.7100207904,
				"element": "H" 
			},
			{
				"x": -2.0294178258,
				"y": 1.1811274611,
				"z": 0.8707720566,
				"element": "H" 
			},
			{
				"x": -0.9767352947,
				"y": 2.5507822892,
				"z": 0.5726042343,
				"element": "H" 
			},
			{
				"x": -3.1290711547,
				"y": 2.8897518651,
				"z": -0.554700543,
				"element": "H" 
			},
			{
				"x": -3.0045791097,
				"y": 1.361877156,
				"z": -1.4038382504,
				"element": "H" 
			},
			{
				"x": -2.3505716777,
				"y": 3.177903245,
				"z": -2.9425748063,
				"element": "H" 
			},
			{
				"x": -1.1863146785,
				"y": 3.7979314582,
				"z": -1.7767598726,
				"element": "H" 
			},
			{
				"x": 0.0172355605,
				"y": 2.4819641292,
				"z": -3.4811644241,
				"element": "H" 
			},
			{
				"x": -1.0232458598,
				"y": 1.0955614083,
				"z": -3.2266560464,
				"element": "H" 
			},
			{
				"x": 0.9296086718,
				"y": 2.3330053509,
				"z": -1.2171519187,
				"element": "H" 
			},
			{
				"x": 1.1416652713,
				"y": 0.8003922598,
				"z": -2.0525892476,
				"element": "H" 
			},
			{
				"x": 2.4730028947,
				"y": 1.0250816409,
				"z": -0.295307522,
				"element": "H" 
			},
			{
				"x": 3.9697687401,
				"y": 0.4736179323,
				"z": 1.5595545313,
				"element": "H" 
			},
			{
				"x": 3.0613821844,
				"y": -0.4449338303,
				"z": 3.6878459391,
				"element": "H" 
			},
			{
				"x": 0.6052991512,
				"y": -0.8071356885,
				"z": 3.9068394964,
				"element": "H" 
			},
			{
				"x": -0.8980077675,
				"y": -0.2599715417,
				"z": 2.0536869889,
				"element": "H" 
			}
		],
		 "valence_orbital": [ 
			{
				"type": "occ",
				"energy": -0.29477,
				"method": "rhf"
			},
			{
				"type": "occ",
				"energy": -0.25822,
				"method": "rhf"
			},
			{
				"type": "occ",
				"energy": -0.25739,
				"method": "rhf"
			},
			{
				"type": "occ",
				"energy": -0.25219,
				"method": "rhf"
			},
			{
				"type": "occ",
				"energy": -0.24458,
				"method": "rhf"
			},
			{
				"type": "unocc",
				"energy": -0.00652,
				"method": "rhf"
			},
			{
				"type": "unocc",
				"energy": -0.00305,
				"method": "rhf"
			},
			{
				"type": "unocc",
				"energy": 0.01641,
				"method": "rhf"
			},
			{
				"type": "unocc",
				"energy": 0.02012,
				"method": "rhf"
			},
			{
				"type": "unocc",
				"energy": 0.07886,
				"method": "rhf"
			}
		],
		"cosmo_sigma_profile": { 
			"-0.025": 0.0,
			"-0.024": 0.0,
			"-0.023": 0.0,
			"-0.022": 0.0,
			"-0.021": 0.0,
			"-0.02": 0.0,
			"-0.019": 0.0,
			"-0.018": 0.0,
			"-0.017": 0.0,
			"-0.016": 0.0,
			"-0.015": 0.0,
			"-0.014": 0.0,
			"-0.013": 0.0,
			"-0.012": 0.0,
			"-0.011": 0.0,
			"-0.01": 0.0,
			"-0.009": 2.41086778282,
			"-0.008": 4.57530380208,
			"-0.007": 4.70696976698,
			"-0.006": 8.602558913,
			"-0.005": 16.0448199624,
			"-0.004": 19.5111786988,
			"-0.003": 29.0152123566,
			"-0.002": 34.1631274996,
			"-0.001": 36.2896560138,
			"0.0": 35.9775900829,
			"0.001": 28.6241407073,
			"0.002": 16.1482629942,
			"0.003": 13.9695736616,
			"0.004": 13.6796885094,
			"0.005": 15.287488094,
			"0.006": 12.4348991663,
			"0.007": 3.01370756012,
			"0.008": 1.27576640905,
			"0.009": 1.79710492739,
			"0.01": 0.922499285209,
			"0.011": 1.34473046359,
			"0.012": 2.30474552613,
			"0.013": 3.71591482553,
			"0.014": 2.35197300171,
			"0.015": 0.0944579052755,
			"0.016": 0.0,
			"0.017": 0.0,
			"0.018": 0.0,
			"0.019": 0.0,
			"0.02": 0.0,
			"0.021": 0.0,
			"0.022": 0.0,
			"0.023": 0.0,
			"0.024": 0.0,
			"0.025": 0.0
		}
	}
}
