{
	 "smiles": "CCCCC1=CC=C(C=C1)N=NC1=CC=C(OCCC)C=C1", 
	 "Tm": 340.15, 
	 "num_atms": 46, 
	 "gaussian": { 
		 "optdone": 1, 
		 "sigma_profile": "yes", 
		 "theory": "DFT", 
		 "functional": "B3LYP", 
		 "basiset": "6-31G**", 
		 "properties": { 
			 "R2extent": 10289.6469, 
			 "electric_dipole_moment_norm": 4.76825707151, 
			 "electric_quadrupole_moment_norm": 18.8437354131, 
			 "total_energy": -923.168890183, 
			 "HOMO_LUMO_gap": 0.13261, 
			 "cosmo_polarized_energy": -11.39, 
			 "cosmo_cavitation_energy": 48.84, 
			 "cosmo_dispersion_energy": -32.71, 
			 "cosmo_repulsion_energy": 2.59, 
			 "cosmo_total_nonelectrostatic_energy": 18.73, 
			 "SMD_solvation_energy": 6.0 
		},
		"coords": [
			{
				"x": -4.0972399126,
				"y": 2.3177714247,
				"z": 0.9620494835,
				"element": "C" 
			},
			{
				"x": -2.8238212854,
				"y": 3.1300441187,
				"z": 0.7053578325,
				"element": "C" 
			},
			{
				"x": -2.6562753231,
				"y": 3.5291301319,
				"z": -0.7656152079,
				"element": "C" 
			},
			{
				"x": -1.3824735761,
				"y": 4.3524113405,
				"z": -1.0603560359,
				"element": "C" 
			},
			{
				"x": -0.0902155016,
				"y": 3.5912154249,
				"z": -0.8503434635,
				"element": "C" 
			},
			{
				"x": 0.3353230376,
				"y": 2.6341898038,
				"z": -1.786112474,
				"element": "C" 
			},
			{
				"x": 1.5030357379,
				"y": 1.9017109134,
				"z": -1.5988656282,
				"element": "C" 
			},
			{
				"x": 2.2944138162,
				"y": 2.1275501203,
				"z": -0.4613708885,
				"element": "C" 
			},
			{
				"x": 1.9121063315,
				"y": 3.1163411149,
				"z": 0.4530438021,
				"element": "C" 
			},
			{
				"x": 0.7202700916,
				"y": 3.8155095195,
				"z": 0.271045621,
				"element": "C" 
			},
			{
				"x": 3.5929406469,
				"y": 1.5441937684,
				"z": -0.291091557,
				"element": "N" 
			},
			{
				"x": 3.8354013703,
				"y": 0.3210478142,
				"z": -0.4016319386,
				"element": "N" 
			},
			{
				"x": 2.8356437982,
				"y": -0.697828245,
				"z": -0.4994359002,
				"element": "C" 
			},
			{
				"x": 1.6700367827,
				"y": -0.7500766393,
				"z": 0.2765978882,
				"element": "C" 
			},
			{
				"x": 0.8338762709,
				"y": -1.8647797154,
				"z": 0.2292897628,
				"element": "C" 
			},
			{
				"x": 1.1443029864,
				"y": -2.938292133,
				"z": -0.618655928,
				"element": "C" 
			},
			{
				"x": 0.387567887,
				"y": -4.060619357,
				"z": -0.754853951,
				"element": "O" 
			},
			{
				"x": -0.811145521,
				"y": -4.1889710307,
				"z": 0.0124903454,
				"element": "C" 
			},
			{
				"x": -1.4395065286,
				"y": -5.5361222513,
				"z": -0.3203574257,
				"element": "C" 
			},
			{
				"x": -0.5666765738,
				"y": -6.7311305368,
				"z": 0.0742560906,
				"element": "C" 
			},
			{
				"x": 2.3204392943,
				"y": -2.897123826,
				"z": -1.3863869895,
				"element": "C" 
			},
			{
				"x": 3.1678215129,
				"y": -1.8044062454,
				"z": -1.3004317339,
				"element": "C" 
			},
			{
				"x": -4.9933163724,
				"y": 2.8816853529,
				"z": 0.6782734574,
				"element": "H" 
			},
			{
				"x": -4.1948918891,
				"y": 2.0499399162,
				"z": 2.0192794798,
				"element": "H" 
			},
			{
				"x": -4.0970343378,
				"y": 1.3875770623,
				"z": 0.3821178039,
				"element": "H" 
			},
			{
				"x": -2.8370295928,
				"y": 4.037443439,
				"z": 1.3251175245,
				"element": "H" 
			},
			{
				"x": -1.9483871448,
				"y": 2.5537005688,
				"z": 1.0290015213,
				"element": "H" 
			},
			{
				"x": -2.6518597866,
				"y": 2.6251032222,
				"z": -1.389869822,
				"element": "H" 
			},
			{
				"x": -3.5295009256,
				"y": 4.1155341056,
				"z": -1.0821080758,
				"element": "H" 
			},
			{
				"x": -1.3833016472,
				"y": 5.2508999272,
				"z": -0.4308807805,
				"element": "H" 
			},
			{
				"x": -1.4283512999,
				"y": 4.7026845936,
				"z": -2.0991678828,
				"element": "H" 
			},
			{
				"x": -0.2587008777,
				"y": 2.462935328,
				"z": -2.6810215246,
				"element": "H" 
			},
			{
				"x": 1.8150320046,
				"y": 1.1700595106,
				"z": -2.3366364975,
				"element": "H" 
			},
			{
				"x": 2.5571361298,
				"y": 3.3234546482,
				"z": 1.3015792257,
				"element": "H" 
			},
			{
				"x": 0.4266088222,
				"y": 4.5669069086,
				"z": 0.9997551305,
				"element": "H" 
			},
			{
				"x": 1.4202761169,
				"y": 0.0720895076,
				"z": 0.9373173689,
				"element": "H" 
			},
			{
				"x": -0.0517050136,
				"y": -1.8863976198,
				"z": 0.8528263649,
				"element": "H" 
			},
			{
				"x": -0.5745183756,
				"y": -4.1259790492,
				"z": 1.0848923863,
				"element": "H" 
			},
			{
				"x": -1.4986761351,
				"y": -3.3674793628,
				"z": -0.2330236077,
				"element": "H" 
			},
			{
				"x": -2.406929207,
				"y": -5.5857727905,
				"z": 0.1950757,
				"element": "H" 
			},
			{
				"x": -1.6539142723,
				"y": -5.5629328395,
				"z": -1.3953313252,
				"element": "H" 
			},
			{
				"x": -0.3771614464,
				"y": -6.742701815,
				"z": 1.1537546364,
				"element": "H" 
			},
			{
				"x": -1.0524683829,
				"y": -7.6755170949,
				"z": -0.1894770022,
				"element": "H" 
			},
			{
				"x": 0.399689458,
				"y": -6.6911442759,
				"z": -0.4351795495,
				"element": "H" 
			},
			{
				"x": 2.5553526482,
				"y": -3.7458457629,
				"z": -2.0201224603,
				"element": "H" 
			},
			{
				"x": 4.0997261851,
				"y": -1.7799089956,
				"z": -1.8566937756,
				"element": "H" 
			}
		],
		 "valence_orbital": [ 
			{
				"type": "occ",
				"energy": -0.26088,
				"method": "rhf"
			},
			{
				"type": "occ",
				"energy": -0.25327,
				"method": "rhf"
			},
			{
				"type": "occ",
				"energy": -0.24468,
				"method": "rhf"
			},
			{
				"type": "occ",
				"energy": -0.23195,
				"method": "rhf"
			},
			{
				"type": "occ",
				"energy": -0.19629,
				"method": "rhf"
			},
			{
				"type": "unocc",
				"energy": -0.06368,
				"method": "rhf"
			},
			{
				"type": "unocc",
				"energy": -0.01203,
				"method": "rhf"
			},
			{
				"type": "unocc",
				"energy": -0.00108,
				"method": "rhf"
			},
			{
				"type": "unocc",
				"energy": 0.00815,
				"method": "rhf"
			},
			{
				"type": "unocc",
				"energy": 0.03346,
				"method": "rhf"
			}
		],
		"cosmo_sigma_profile": { 
			"-0.025": 0.0,
			"-0.024": 0.0,
			"-0.023": 0.0,
			"-0.022": 0.0,
			"-0.021": 0.0,
			"-0.02": 0.0,
			"-0.019": 0.0,
			"-0.018": 0.0,
			"-0.017": 0.0,
			"-0.016": 0.0,
			"-0.015": 0.0,
			"-0.014": 0.0,
			"-0.013": 0.0,
			"-0.012": 0.0,
			"-0.011": 0.0,
			"-0.01": 0.0,
			"-0.009": 0.0,
			"-0.008": 0.0,
			"-0.007": 1.55945440232,
			"-0.006": 11.102977972,
			"-0.005": 21.8620566471,
			"-0.004": 27.9878049771,
			"-0.003": 37.7982750467,
			"-0.002": 43.9713580145,
			"-0.001": 44.3629118892,
			"0.0": 44.6439462753,
			"0.001": 42.1828848476,
			"0.002": 26.482241778,
			"0.003": 22.8169528777,
			"0.004": 25.1899096535,
			"0.005": 10.4799873,
			"0.006": 3.95675432383,
			"0.007": 3.43180653766,
			"0.008": 2.43524599703,
			"0.009": 2.47945801721,
			"0.01": 1.99454814027,
			"0.011": 1.82481989681,
			"0.012": 2.66950261013,
			"0.013": 2.65390181573,
			"0.014": 1.82395617104,
			"0.015": 0.464164682253,
			"0.016": 0.0,
			"0.017": 0.0,
			"0.018": 0.0,
			"0.019": 0.0,
			"0.02": 0.0,
			"0.021": 0.0,
			"0.022": 0.0,
			"0.023": 0.0,
			"0.024": 0.0,
			"0.025": 0.0
		}
	}
}
