{
	 "smiles": "ClC(C(=O)NC1=NC(=CS1)C1=CC(Cl)=C(Cl)C=C1)C1=CC=CC=C1", 
	 "Tm": 402.15, 
	 "num_atms": 35, 
	 "gaussian": { 
		 "optdone": 1, 
		 "sigma_profile": "yes", 
		 "theory": "DFT", 
		 "functional": "B3LYP", 
		 "basiset": "6-31G**", 
		 "properties": { 
			 "R2extent": 13324.8291, 
			 "electric_dipole_moment_norm": 4.46159032185, 
			 "electric_quadrupole_moment_norm": 28.8268462462, 
			 "total_energy": -2617.9357925, 
			 "HOMO_LUMO_gap": 0.16517, 
			 "cosmo_polarized_energy": -16.45, 
			 "cosmo_cavitation_energy": 47.71, 
			 "cosmo_dispersion_energy": -33.07, 
			 "cosmo_repulsion_energy": 2.47, 
			 "cosmo_total_nonelectrostatic_energy": 17.11, 
			 "SMD_solvation_energy": 6.89 
		},
		"coords": [
			{
				"x": 0.8173129371,
				"y": -1.0057224395,
				"z": -2.210554303,
				"element": "Cl" 
			},
			{
				"x": 1.568180314,
				"y": -0.7728975967,
				"z": -0.53577496,
				"element": "C" 
			},
			{
				"x": 2.6401741468,
				"y": 0.3026624377,
				"z": -0.7273495592,
				"element": "C" 
			},
			{
				"x": 3.8068419173,
				"y": 0.0606133911,
				"z": -0.9693106905,
				"element": "O" 
			},
			{
				"x": 2.2553281292,
				"y": 1.6454418632,
				"z": -0.6265364335,
				"element": "N" 
			},
			{
				"x": 1.0445638991,
				"y": 2.26164081,
				"z": -0.3566414617,
				"element": "C" 
			},
			{
				"x": -0.0812479443,
				"y": 1.6787802915,
				"z": -0.0841182064,
				"element": "N" 
			},
			{
				"x": -1.0884037696,
				"y": 2.6021352071,
				"z": 0.1540618388,
				"element": "C" 
			},
			{
				"x": -0.7039887195,
				"y": 3.9126062481,
				"z": 0.0548523732,
				"element": "C" 
			},
			{
				"x": 0.9822342544,
				"y": 4.0295822768,
				"z": -0.3483961358,
				"element": "S" 
			},
			{
				"x": -2.4454716943,
				"y": 2.1166467812,
				"z": 0.4635970919,
				"element": "C" 
			},
			{
				"x": -2.7997245931,
				"y": 0.7988754698,
				"z": 0.1446657069,
				"element": "C" 
			},
			{
				"x": -4.0802508989,
				"y": 0.3183621417,
				"z": 0.4154329355,
				"element": "C" 
			},
			{
				"x": -4.4605232085,
				"y": -1.3323856782,
				"z": -0.0094152026,
				"element": "Cl" 
			},
			{
				"x": -5.0323370052,
				"y": 1.1547571686,
				"z": 1.0136975521,
				"element": "C" 
			},
			{
				"x": -6.6463855142,
				"y": 0.5985358823,
				"z": 1.3743160352,
				"element": "Cl" 
			},
			{
				"x": -4.6820541578,
				"y": 2.4684874806,
				"z": 1.3378979682,
				"element": "C" 
			},
			{
				"x": -3.4043959574,
				"y": 2.9433269092,
				"z": 1.0704615584,
				"element": "C" 
			},
			{
				"x": 2.0786643691,
				"y": -2.0648059303,
				"z": 0.0371526798,
				"element": "C" 
			},
			{
				"x": 1.4949773532,
				"y": -2.5422526815,
				"z": 1.2175885806,
				"element": "C" 
			},
			{
				"x": 1.9366968342,
				"y": -3.7325717624,
				"z": 1.7974022701,
				"element": "C" 
			},
			{
				"x": 2.9635699736,
				"y": -4.4589412992,
				"z": 1.1953251091,
				"element": "C" 
			},
			{
				"x": 3.5457097393,
				"y": -3.9912419404,
				"z": 0.0133951968,
				"element": "C" 
			},
			{
				"x": 3.1085720597,
				"y": -2.8023657482,
				"z": -0.5653668915,
				"element": "C" 
			},
			{
				"x": 0.7489991518,
				"y": -0.3753042604,
				"z": 0.0586300943,
				"element": "H" 
			},
			{
				"x": 3.0453056372,
				"y": 2.2539097775,
				"z": -0.8059087373,
				"element": "H" 
			},
			{
				"x": -1.3024058729,
				"y": 4.8054475695,
				"z": 0.1547939671,
				"element": "H" 
			},
			{
				"x": -2.0755307922,
				"y": 0.14787615,
				"z": -0.329679715,
				"element": "H" 
			},
			{
				"x": -5.4194222016,
				"y": 3.1071539304,
				"z": 1.8112266844,
				"element": "H" 
			},
			{
				"x": -3.1497190525,
				"y": 3.9584144354,
				"z": 1.3570893226,
				"element": "H" 
			},
			{
				"x": 0.6899032406,
				"y": -1.9807119339,
				"z": 1.684697566,
				"element": "H" 
			},
			{
				"x": 1.4751857178,
				"y": -4.0912798559,
				"z": 2.7126702806,
				"element": "H" 
			},
			{
				"x": 3.30775044,
				"y": -5.3878431035,
				"z": 1.6410350569,
				"element": "H" 
			},
			{
				"x": 4.3435742678,
				"y": -4.5564070746,
				"z": -0.4594436547,
				"element": "H" 
			},
			{
				"x": 3.5625169999,
				"y": -2.439024917,
				"z": -1.4791939172,
				"element": "H" 
			}
		],
		 "valence_orbital": [ 
			{
				"type": "occ",
				"energy": -0.26968,
				"method": "rhf"
			},
			{
				"type": "occ",
				"energy": -0.2613,
				"method": "rhf"
			},
			{
				"type": "occ",
				"energy": -0.25386,
				"method": "rhf"
			},
			{
				"type": "occ",
				"energy": -0.25048,
				"method": "rhf"
			},
			{
				"type": "occ",
				"energy": -0.22888,
				"method": "rhf"
			},
			{
				"type": "unocc",
				"energy": -0.06371,
				"method": "rhf"
			},
			{
				"type": "unocc",
				"energy": -0.05159,
				"method": "rhf"
			},
			{
				"type": "unocc",
				"energy": -0.02938,
				"method": "rhf"
			},
			{
				"type": "unocc",
				"energy": -0.02165,
				"method": "rhf"
			},
			{
				"type": "unocc",
				"energy": -0.02012,
				"method": "rhf"
			}
		],
		"cosmo_sigma_profile": { 
			"-0.025": 0.0,
			"-0.024": 0.0,
			"-0.023": 0.0,
			"-0.022": 0.0,
			"-0.021": 0.0,
			"-0.02": 0.0,
			"-0.019": 0.0,
			"-0.018": 0.0,
			"-0.017": 0.6523201808,
			"-0.016": 1.30419798378,
			"-0.015": 0.973195202421,
			"-0.014": 1.14384400312,
			"-0.013": 1.17587678913,
			"-0.012": 0.79391242111,
			"-0.011": 0.77529107772,
			"-0.01": 3.04636680642,
			"-0.009": 4.18342462408,
			"-0.008": 5.90125400219,
			"-0.007": 10.448846894,
			"-0.006": 15.8252118616,
			"-0.005": 16.7734643765,
			"-0.004": 19.9120869644,
			"-0.003": 20.3848135229,
			"-0.002": 22.2238896957,
			"-0.001": 27.3840511874,
			"0.0": 37.4609477975,
			"0.001": 43.5049607889,
			"0.002": 44.1280597519,
			"0.003": 34.0164929244,
			"0.004": 35.9794360067,
			"0.005": 25.7405867302,
			"0.006": 5.99663586568,
			"0.007": 2.33780818081,
			"0.008": 1.7377778041,
			"0.009": 1.72532755223,
			"0.01": 3.15371666754,
			"0.011": 3.80213572424,
			"0.012": 0.721518926423,
			"0.013": 0.0,
			"0.014": 0.0,
			"0.015": 0.0,
			"0.016": 0.0,
			"0.017": 0.0,
			"0.018": 0.0,
			"0.019": 0.0,
			"0.02": 0.0,
			"0.021": 0.0,
			"0.022": 0.0,
			"0.023": 0.0,
			"0.024": 0.0,
			"0.025": 0.0
		}
	}
}
