{
	 "smiles": "CCOC=NC1=C(SC2=C1C(N=COCC)=C(S2)C(=O)OCC)C(=O)OCC", 
	 "Tm": 540.15, 
	 "num_atms": 50, 
	 "gaussian": { 
		 "optdone": 1, 
		 "sigma_profile": "yes", 
		 "theory": "DFT", 
		 "functional": "B3LYP", 
		 "basiset": "6-31G**", 
		 "properties": { 
			 "R2extent": 15679.7036, 
			 "electric_dipole_moment_norm": 1.27034341026, 
			 "electric_quadrupole_moment_norm": 8.98931987361, 
			 "total_energy": -2056.39401256, 
			 "HOMO_LUMO_gap": 0.15758, 
			 "cosmo_polarized_energy": -15.86, 
			 "cosmo_cavitation_energy": 58.69, 
			 "cosmo_dispersion_energy": -39.28, 
			 "cosmo_repulsion_energy": 3.02, 
			 "cosmo_total_nonelectrostatic_energy": 22.42, 
			 "SMD_solvation_energy": 11.23 
		},
		"coords": [
			{
				"x": -3.0894875518,
				"y": 0.2582791356,
				"z": -5.3567228161,
				"element": "C" 
			},
			{
				"x": -2.1509307107,
				"y": 0.224012065,
				"z": -4.1659319297,
				"element": "C" 
			},
			{
				"x": -2.4371038423,
				"y": 1.3888282073,
				"z": -3.3574369251,
				"element": "O" 
			},
			{
				"x": -1.6949124791,
				"y": 1.5638335539,
				"z": -2.2671500225,
				"element": "C" 
			},
			{
				"x": -0.8381537117,
				"y": 0.7120664511,
				"z": -1.8623788937,
				"element": "N" 
			},
			{
				"x": -0.0227058631,
				"y": 0.9815583927,
				"z": -0.7764219847,
				"element": "C" 
			},
			{
				"x": 0.8692555606,
				"y": 2.042277631,
				"z": -0.6450038966,
				"element": "C" 
			},
			{
				"x": 1.8733803795,
				"y": 1.9147074501,
				"z": 0.8147886896,
				"element": "S" 
			},
			{
				"x": 1.0576353134,
				"y": 0.4558035686,
				"z": 1.2482328879,
				"element": "C" 
			},
			{
				"x": 0.0880331511,
				"y": 0.0672244339,
				"z": 0.3316781161,
				"element": "C" 
			},
			{
				"x": -0.5713661282,
				"y": -1.1565395368,
				"z": 0.7107237934,
				"element": "C" 
			},
			{
				"x": -1.6544788745,
				"y": -1.6489944945,
				"z": 0.0024878625,
				"element": "N" 
			},
			{
				"x": -1.6677954171,
				"y": -2.8483889958,
				"z": -0.4264904211,
				"element": "C" 
			},
			{
				"x": -2.7193981414,
				"y": -3.3946242083,
				"z": -1.0315230224,
				"element": "O" 
			},
			{
				"x": -3.9306500564,
				"y": -2.6052906957,
				"z": -1.0810513986,
				"element": "C" 
			},
			{
				"x": -4.9882813654,
				"y": -3.4428804965,
				"z": -1.7737882008,
				"element": "C" 
			},
			{
				"x": -0.0601271737,
				"y": -1.6547342022,
				"z": 1.9057286085,
				"element": "C" 
			},
			{
				"x": 1.2067187917,
				"y": -0.6166054825,
				"z": 2.5933179694,
				"element": "S" 
			},
			{
				"x": -0.5114372084,
				"y": -2.822801227,
				"z": 2.6620674562,
				"element": "C" 
			},
			{
				"x": -1.3402720368,
				"y": -3.6395731641,
				"z": 2.2946656922,
				"element": "O" 
			},
			{
				"x": 0.1213945154,
				"y": -2.8917803647,
				"z": 3.8637254386,
				"element": "O" 
			},
			{
				"x": -0.2077798447,
				"y": -4.0178778652,
				"z": 4.7084373235,
				"element": "C" 
			},
			{
				"x": 0.6335622053,
				"y": -5.2370795611,
				"z": 4.3608576864,
				"element": "C" 
			},
			{
				"x": 1.1243092468,
				"y": 3.1278737992,
				"z": -1.5915093546,
				"element": "C" 
			},
			{
				"x": 0.4869488557,
				"y": 3.3605991904,
				"z": -2.6060232939,
				"element": "O" 
			},
			{
				"x": 2.1866951578,
				"y": 3.8760739789,
				"z": -1.1914479527,
				"element": "O" 
			},
			{
				"x": 2.544045797,
				"y": 4.9978162866,
				"z": -2.030263943,
				"element": "C" 
			},
			{
				"x": 3.4729207613,
				"y": 4.5725869287,
				"z": -3.157671446,
				"element": "C" 
			},
			{
				"x": -2.9362931945,
				"y": 1.1655384796,
				"z": -5.9477235044,
				"element": "H" 
			},
			{
				"x": -2.9037127663,
				"y": -0.6078176584,
				"z": -5.9994515755,
				"element": "H" 
			},
			{
				"x": -4.1342246388,
				"y": 0.2299015967,
				"z": -5.0337111564,
				"element": "H" 
			},
			{
				"x": -1.0986659894,
				"y": 0.2596942756,
				"z": -4.4654646029,
				"element": "H" 
			},
			{
				"x": -2.2877130317,
				"y": -0.673007659,
				"z": -3.5532977997,
				"element": "H" 
			},
			{
				"x": -1.9415044859,
				"y": 2.5032340869,
				"z": -1.7706530914,
				"element": "H" 
			},
			{
				"x": -0.8340132268,
				"y": -3.5502555244,
				"z": -0.3784999844,
				"element": "H" 
			},
			{
				"x": -4.214587328,
				"y": -2.3414113591,
				"z": -0.0573682604,
				"element": "H" 
			},
			{
				"x": -3.7223284429,
				"y": -1.6724628434,
				"z": -1.6150284658,
				"element": "H" 
			},
			{
				"x": -5.1731372483,
				"y": -4.3698224217,
				"z": -1.22381909,
				"element": "H" 
			},
			{
				"x": -4.6799368054,
				"y": -3.7014205979,
				"z": -2.7909982032,
				"element": "H" 
			},
			{
				"x": -5.9263398271,
				"y": -2.8819747435,
				"z": -1.8299669169,
				"element": "H" 
			},
			{
				"x": -0.0027216931,
				"y": -3.6649672151,
				"z": 5.721927949,
				"element": "H" 
			},
			{
				"x": -1.2740917779,
				"y": -4.2326917823,
				"z": 4.6075351026,
				"element": "H" 
			},
			{
				"x": 0.402205915,
				"y": -5.587679833,
				"z": 3.3520783342,
				"element": "H" 
			},
			{
				"x": 1.7007872067,
				"y": -5.0039628041,
				"z": 4.4195945407,
				"element": "H" 
			},
			{
				"x": 0.4193606591,
				"y": -6.0491275749,
				"z": 5.0638664957,
				"element": "H" 
			},
			{
				"x": 3.0333434566,
				"y": 5.6996368653,
				"z": -1.3505428012,
				"element": "H" 
			},
			{
				"x": 1.6295162699,
				"y": 5.4488714153,
				"z": -2.422824124,
				"element": "H" 
			},
			{
				"x": 3.7889016719,
				"y": 5.4511759684,
				"z": -3.7302573158,
				"element": "H" 
			},
			{
				"x": 2.9610975678,
				"y": 3.8859924792,
				"z": -3.8362579487,
				"element": "H" 
			},
			{
				"x": 4.3660383786,
				"y": 4.0803860709,
				"z": -2.7617336043,
				"element": "H" 
			}
		],
		 "valence_orbital": [ 
			{
				"type": "occ",
				"energy": -0.26901,
				"method": "rhf"
			},
			{
				"type": "occ",
				"energy": -0.25691,
				"method": "rhf"
			},
			{
				"type": "occ",
				"energy": -0.24302,
				"method": "rhf"
			},
			{
				"type": "occ",
				"energy": -0.2278,
				"method": "rhf"
			},
			{
				"type": "occ",
				"energy": -0.20612,
				"method": "rhf"
			},
			{
				"type": "unocc",
				"energy": -0.04854,
				"method": "rhf"
			},
			{
				"type": "unocc",
				"energy": -0.04567,
				"method": "rhf"
			},
			{
				"type": "unocc",
				"energy": 0.00805,
				"method": "rhf"
			},
			{
				"type": "unocc",
				"energy": 0.01221,
				"method": "rhf"
			},
			{
				"type": "unocc",
				"energy": 0.02202,
				"method": "rhf"
			}
		],
		"cosmo_sigma_profile": { 
			"-0.025": 0.0,
			"-0.024": 0.0,
			"-0.023": 0.0,
			"-0.022": 0.0,
			"-0.021": 0.0,
			"-0.02": 0.0,
			"-0.019": 0.0,
			"-0.018": 0.0,
			"-0.017": 0.0,
			"-0.016": 0.0,
			"-0.015": 0.0,
			"-0.014": 0.0,
			"-0.013": 0.0,
			"-0.012": 0.0,
			"-0.011": 0.0,
			"-0.01": 0.00194580695609,
			"-0.009": 2.50924318988,
			"-0.008": 3.5716222899,
			"-0.007": 4.23048971896,
			"-0.006": 7.42835437391,
			"-0.005": 23.7551462718,
			"-0.004": 50.173313355,
			"-0.003": 49.6973515503,
			"-0.002": 48.2034269885,
			"-0.001": 46.9580715076,
			"0.0": 56.085538948,
			"0.001": 40.6344231631,
			"0.002": 25.9145145588,
			"0.003": 24.7527404638,
			"0.004": 18.0352970057,
			"0.005": 14.9303818376,
			"0.006": 13.6747554132,
			"0.007": 10.0913839313,
			"0.008": 8.5399910911,
			"0.009": 6.72524039307,
			"0.01": 5.35319507864,
			"0.011": 4.574401226,
			"0.012": 2.97255445563,
			"0.013": 0.0475696290045,
			"0.014": 0.0,
			"0.015": 0.0,
			"0.016": 0.0,
			"0.017": 0.0,
			"0.018": 0.0,
			"0.019": 0.0,
			"0.02": 0.0,
			"0.021": 0.0,
			"0.022": 0.0,
			"0.023": 0.0,
			"0.024": 0.0,
			"0.025": 0.0
		}
	}
}
