{
	 "smiles": "CC(NCC1=CC=C(F)C=C1)C(O)=O", 
	 "Tm": 557.15, 
	 "num_atms": 26, 
	 "gaussian": { 
		 "optdone": 1, 
		 "sigma_profile": "yes", 
		 "theory": "DFT", 
		 "functional": "B3LYP", 
		 "basiset": "6-31G**", 
		 "properties": { 
			 "R2extent": 3053.6799, 
			 "electric_dipole_moment_norm": 1.82332496555, 
			 "electric_quadrupole_moment_norm": 6.78051199099, 
			 "total_energy": -693.339527106, 
			 "HOMO_LUMO_gap": 0.20836, 
			 "cosmo_polarized_energy": -11.89, 
			 "cosmo_cavitation_energy": 30.24, 
			 "cosmo_dispersion_energy": -20.45, 
			 "cosmo_repulsion_energy": 1.6, 
			 "cosmo_total_nonelectrostatic_energy": 11.4, 
			 "SMD_solvation_energy": 4.63 
		},
		"coords": [
			{
				"x": 0.0277614019,
				"y": 0.975739005,
				"z": 3.9004608397,
				"element": "C" 
			},
			{
				"x": 0.4182153947,
				"y": 0.7950430436,
				"z": 2.4231087808,
				"element": "C" 
			},
			{
				"x": 0.6899326237,
				"y": -0.6131254115,
				"z": 2.1576334193,
				"element": "N" 
			},
			{
				"x": 1.4123567408,
				"y": -0.9361501891,
				"z": 0.9193642062,
				"element": "C" 
			},
			{
				"x": 0.6761853542,
				"y": -0.7454323989,
				"z": -0.4000597548,
				"element": "C" 
			},
			{
				"x": 0.8600273954,
				"y": 0.4025069757,
				"z": -1.1820488815,
				"element": "C" 
			},
			{
				"x": 0.1662487964,
				"y": 0.5827494213,
				"z": -2.3799958074,
				"element": "C" 
			},
			{
				"x": -0.7166804161,
				"y": -0.4070785694,
				"z": -2.7925697981,
				"element": "C" 
			},
			{
				"x": -1.3915021975,
				"y": -0.2450830707,
				"z": -3.9509748276,
				"element": "F" 
			},
			{
				"x": -0.923336999,
				"y": -1.5647088016,
				"z": -2.0489214359,
				"element": "C" 
			},
			{
				"x": -0.2202872164,
				"y": -1.7234679088,
				"z": -0.8560802957,
				"element": "C" 
			},
			{
				"x": -0.6598298479,
				"y": 1.4493761355,
				"z": 1.5508865249,
				"element": "C" 
			},
			{
				"x": -1.7671784618,
				"y": 0.6713427011,
				"z": 1.4527696511,
				"element": "O" 
			},
			{
				"x": -0.5818652627,
				"y": 2.5439064913,
				"z": 1.0382565554,
				"element": "O" 
			},
			{
				"x": -0.8930295841,
				"y": 0.4277367321,
				"z": 4.1245367839,
				"element": "H" 
			},
			{
				"x": -0.1364283275,
				"y": 2.0314798735,
				"z": 4.1366907427,
				"element": "H" 
			},
			{
				"x": 0.8265809149,
				"y": 0.5853278955,
				"z": 4.5351348653,
				"element": "H" 
			},
			{
				"x": 1.3339082685,
				"y": 1.361707638,
				"z": 2.2248466774,
				"element": "H" 
			},
			{
				"x": -0.1745245225,
				"y": -1.1459519525,
				"z": 2.2143173556,
				"element": "H" 
			},
			{
				"x": 1.7229872275,
				"y": -1.9845067055,
				"z": 1.0030037208,
				"element": "H" 
			},
			{
				"x": 2.3311846503,
				"y": -0.3382724305,
				"z": 0.9143634706,
				"element": "H" 
			},
			{
				"x": 1.5506118823,
				"y": 1.1736274192,
				"z": -0.8518869256,
				"element": "H" 
			},
			{
				"x": 0.3019339318,
				"y": 1.4698636729,
				"z": -2.9890432956,
				"element": "H" 
			},
			{
				"x": -1.6139277571,
				"y": -2.3186939456,
				"z": -2.4114060737,
				"element": "H" 
			},
			{
				"x": -0.3677745231,
				"y": -2.6294140089,
				"z": -0.2723349016,
				"element": "H" 
			},
			{
				"x": -2.3928694666,
				"y": 1.1567783881,
				"z": 0.8895484038,
				"element": "H" 
			}
		],
		 "valence_orbital": [ 
			{
				"type": "occ",
				"energy": -0.31771,
				"method": "rhf"
			},
			{
				"type": "occ",
				"energy": -0.28646,
				"method": "rhf"
			},
			{
				"type": "occ",
				"energy": -0.26043,
				"method": "rhf"
			},
			{
				"type": "occ",
				"energy": -0.24408,
				"method": "rhf"
			},
			{
				"type": "occ",
				"energy": -0.22285,
				"method": "rhf"
			},
			{
				"type": "unocc",
				"energy": -0.01449,
				"method": "rhf"
			},
			{
				"type": "unocc",
				"energy": -0.00448,
				"method": "rhf"
			},
			{
				"type": "unocc",
				"energy": 0.01391,
				"method": "rhf"
			},
			{
				"type": "unocc",
				"energy": 0.06955,
				"method": "rhf"
			},
			{
				"type": "unocc",
				"energy": 0.08393,
				"method": "rhf"
			}
		],
		"cosmo_sigma_profile": { 
			"-0.025": 0.0,
			"-0.024": 0.0,
			"-0.023": 0.0,
			"-0.022": 0.0,
			"-0.021": 0.0,
			"-0.02": 0.0,
			"-0.019": 0.0261203002163,
			"-0.018": 0.593694541154,
			"-0.017": 1.23369890603,
			"-0.016": 0.541197890918,
			"-0.015": 0.398033999425,
			"-0.014": 0.740006101742,
			"-0.013": 0.650212691134,
			"-0.012": 0.490189714239,
			"-0.011": 0.718751288893,
			"-0.01": 0.97732727712,
			"-0.009": 1.231556948,
			"-0.008": 1.71754143607,
			"-0.007": 5.07819544207,
			"-0.006": 12.9360911584,
			"-0.005": 16.6509500667,
			"-0.004": 19.1432333456,
			"-0.003": 17.1123334274,
			"-0.002": 18.6364611166,
			"-0.001": 16.9260810867,
			"0.0": 16.1819197375,
			"0.001": 17.206388477,
			"0.002": 15.2683902509,
			"0.003": 13.4734447391,
			"0.004": 20.13628223,
			"0.005": 12.8021974095,
			"0.006": 4.38713417431,
			"0.007": 3.45683314114,
			"0.008": 3.21934889274,
			"0.009": 1.83037476236,
			"0.01": 2.80109725283,
			"0.011": 2.95550723999,
			"0.012": 5.55000097288,
			"0.013": 1.46381837978,
			"0.014": 0.910087364708,
			"0.015": 0.475759096406,
			"0.016": 0.161524581414,
			"0.017": 0.0,
			"0.018": 0.0,
			"0.019": 0.0,
			"0.02": 0.0,
			"0.021": 0.0,
			"0.022": 0.0,
			"0.023": 0.0,
			"0.024": 0.0,
			"0.025": 0.0
		}
	}
}
