{
	 "smiles": "[O-][N+](=O)C1=CC=C(CBr)C=C1", 
	 "Tm": 372.15, 
	 "num_atms": 17, 
	 "gaussian": { 
		 "optdone": 1, 
		 "sigma_profile": "yes", 
		 "theory": "DFT", 
		 "functional": "B3LYP", 
		 "basiset": "6-31G**", 
		 "properties": { 
			 "R2extent": 4227.2271, 
			 "electric_dipole_moment_norm": 3.88165088719, 
			 "electric_quadrupole_moment_norm": 19.2858528512, 
			 "total_energy": -3046.86858647, 
			 "HOMO_LUMO_gap": 0.1779, 
			 "cosmo_polarized_energy": -10.51, 
			 "cosmo_cavitation_energy": 24.52, 
			 "cosmo_dispersion_energy": -18.18, 
			 "cosmo_repulsion_energy": 1.47, 
			 "cosmo_total_nonelectrostatic_energy": 7.81, 
			 "SMD_solvation_energy": 5.26 
		},
		"coords": [
			{
				"x": 4.0869559065,
				"y": -1.1759147529,
				"z": 0.5456083446,
				"element": "O" 
			},
			{
				"x": 3.2666857785,
				"y": -1.5897604075,
				"z": 1.3638137677,
				"element": "N" 
			},
			{
				"x": 3.5430646376,
				"y": -2.2525725096,
				"z": 2.3627480453,
				"element": "O" 
			},
			{
				"x": 1.8491279617,
				"y": -1.2672857559,
				"z": 1.1305881535,
				"element": "C" 
			},
			{
				"x": 0.8957934907,
				"y": -1.7204319969,
				"z": 2.0403764409,
				"element": "C" 
			},
			{
				"x": -0.4404908393,
				"y": -1.406993755,
				"z": 1.8149730287,
				"element": "C" 
			},
			{
				"x": -0.8219157302,
				"y": -0.6493347459,
				"z": 0.6972533836,
				"element": "C" 
			},
			{
				"x": -2.2598973698,
				"y": -0.3046655926,
				"z": 0.4711103401,
				"element": "C" 
			},
			{
				"x": -3.1854737325,
				"y": -1.6907843192,
				"z": -0.6325482146,
				"element": "Br" 
			},
			{
				"x": 0.1632133205,
				"y": -0.210985378,
				"z": -0.2006553195,
				"element": "C" 
			},
			{
				"x": 1.5041054199,
				"y": -0.5153567396,
				"z": 0.0092019738,
				"element": "C" 
			},
			{
				"x": 1.2111352869,
				"y": -2.3005452626,
				"z": 2.8983917052,
				"element": "H" 
			},
			{
				"x": -1.1974902658,
				"y": -1.7553878157,
				"z": 2.5114646205,
				"element": "H" 
			},
			{
				"x": -2.3858152232,
				"y": 0.6209809074,
				"z": -0.0873975311,
				"element": "H" 
			},
			{
				"x": -2.8310870737,
				"y": -0.2630974274,
				"z": 1.3966487917,
				"element": "H" 
			},
			{
				"x": -0.1242945928,
				"y": 0.3706655889,
				"z": -1.0716078727,
				"element": "H" 
			},
			{
				"x": 2.2796830248,
				"y": -0.1838300376,
				"z": -0.6695696578,
				"element": "H" 
			}
		],
		 "valence_orbital": [ 
			{
				"type": "occ",
				"energy": -0.2958,
				"method": "rhf"
			},
			{
				"type": "occ",
				"energy": -0.29402,
				"method": "rhf"
			},
			{
				"type": "occ",
				"energy": -0.28995,
				"method": "rhf"
			},
			{
				"type": "occ",
				"energy": -0.28234,
				"method": "rhf"
			},
			{
				"type": "occ",
				"energy": -0.27677,
				"method": "rhf"
			},
			{
				"type": "unocc",
				"energy": -0.09887,
				"method": "rhf"
			},
			{
				"type": "unocc",
				"energy": -0.0364,
				"method": "rhf"
			},
			{
				"type": "unocc",
				"energy": -0.03637,
				"method": "rhf"
			},
			{
				"type": "unocc",
				"energy": 0.0189,
				"method": "rhf"
			},
			{
				"type": "unocc",
				"energy": 0.06811,
				"method": "rhf"
			}
		],
		"cosmo_sigma_profile": { 
			"-0.025": 0.0,
			"-0.024": 0.0,
			"-0.023": 0.0,
			"-0.022": 0.0,
			"-0.021": 0.0,
			"-0.02": 0.0,
			"-0.019": 0.0,
			"-0.018": 0.0,
			"-0.017": 0.0,
			"-0.016": 0.0,
			"-0.015": 0.0,
			"-0.014": 0.0,
			"-0.013": 0.0,
			"-0.012": 0.0,
			"-0.011": 0.0,
			"-0.01": 0.0,
			"-0.009": 2.06829645089,
			"-0.008": 10.6256020573,
			"-0.007": 11.8665934974,
			"-0.006": 11.9775975791,
			"-0.005": 11.2311930192,
			"-0.004": 9.65993718105,
			"-0.003": 9.72164119803,
			"-0.002": 12.0070209112,
			"-0.001": 14.3093711927,
			"0.0": 13.6979926217,
			"0.001": 16.3114712827,
			"0.002": 12.7397872272,
			"0.003": 7.91618918454,
			"0.004": 8.31096660039,
			"0.005": 10.9946157382,
			"0.006": 13.6625592308,
			"0.007": 8.51410714712,
			"0.008": 7.36285473275,
			"0.009": 4.32663265912,
			"0.01": 2.49570572419,
			"0.011": 0.0527410254707,
			"0.012": 0.0,
			"0.013": 0.0,
			"0.014": 0.0,
			"0.015": 0.0,
			"0.016": 0.0,
			"0.017": 0.0,
			"0.018": 0.0,
			"0.019": 0.0,
			"0.02": 0.0,
			"0.021": 0.0,
			"0.022": 0.0,
			"0.023": 0.0,
			"0.024": 0.0,
			"0.025": 0.0
		}
	}
}
