{
	 "smiles": "CC(C)CC(CC#N)NC(=O)OC(C)(C)C", 
	 "Tm": 349.15, 
	 "num_atms": 38, 
	 "gaussian": { 
		 "optdone": 1, 
		 "sigma_profile": "yes", 
		 "theory": "DFT", 
		 "functional": "B3LYP", 
		 "basiset": "6-31G**", 
		 "properties": { 
			 "R2extent": 5884.3214, 
			 "electric_dipole_moment_norm": 5.49851288805, 
			 "electric_quadrupole_moment_norm": 18.492656741, 
			 "total_energy": -730.529486392, 
			 "HOMO_LUMO_gap": 0.29351, 
			 "cosmo_polarized_energy": -14.43, 
			 "cosmo_cavitation_energy": 40.1, 
			 "cosmo_dispersion_energy": -26.23, 
			 "cosmo_repulsion_energy": 2.11, 
			 "cosmo_total_nonelectrostatic_energy": 15.99, 
			 "SMD_solvation_energy": 8.92 
		},
		"coords": [
			{
				"x": 2.2709078845,
				"y": 2.8635628467,
				"z": -0.5350611199,
				"element": "C" 
			},
			{
				"x": 1.0127113985,
				"y": 1.9859855397,
				"z": -0.451481946,
				"element": "C" 
			},
			{
				"x": -0.0828578349,
				"y": 2.5156449699,
				"z": -1.3889314635,
				"element": "C" 
			},
			{
				"x": 0.5364399747,
				"y": 1.8932966411,
				"z": 1.0130912503,
				"element": "C" 
			},
			{
				"x": -0.6292003677,
				"y": 0.9320021,
				"z": 1.2797382562,
				"element": "C" 
			},
			{
				"x": -1.1248006367,
				"y": 0.9977043116,
				"z": 2.7542693,
				"element": "C" 
			},
			{
				"x": -1.6247343441,
				"y": 2.3197863829,
				"z": 3.1333189344,
				"element": "C" 
			},
			{
				"x": -2.0113579611,
				"y": 3.3783363612,
				"z": 3.4129592969,
				"element": "N" 
			},
			{
				"x": -0.2410655196,
				"y": -0.4323805675,
				"z": 0.9553770466,
				"element": "N" 
			},
			{
				"x": -1.1674201419,
				"y": -1.4177286171,
				"z": 0.7484797793,
				"element": "C" 
			},
			{
				"x": -2.3747570808,
				"y": -1.2312655384,
				"z": 0.7960370224,
				"element": "O" 
			},
			{
				"x": -0.5363608134,
				"y": -2.5862167893,
				"z": 0.4902867001,
				"element": "O" 
			},
			{
				"x": -1.3009643788,
				"y": -3.818327491,
				"z": 0.2277892925,
				"element": "C" 
			},
			{
				"x": -2.154524569,
				"y": -3.6448475065,
				"z": -1.0327070161,
				"element": "C" 
			},
			{
				"x": -2.1432358544,
				"y": -4.183714089,
				"z": 1.4545423416,
				"element": "C" 
			},
			{
				"x": -0.1951290248,
				"y": -4.8516714186,
				"z": -0.0009461915,
				"element": "C" 
			},
			{
				"x": 2.0556429375,
				"y": 3.8891561446,
				"z": -0.2119460237,
				"element": "H" 
			},
			{
				"x": 3.0752149082,
				"y": 2.4768914588,
				"z": 0.1007316198,
				"element": "H" 
			},
			{
				"x": 2.6493056896,
				"y": 2.9120016901,
				"z": -1.5613896544,
				"element": "H" 
			},
			{
				"x": 1.284173803,
				"y": 0.9757541532,
				"z": -0.7893822034,
				"element": "H" 
			},
			{
				"x": -0.4201161135,
				"y": 3.5105931686,
				"z": -1.0740799195,
				"element": "H" 
			},
			{
				"x": -0.9573956509,
				"y": 1.8585742032,
				"z": -1.4179301396,
				"element": "H" 
			},
			{
				"x": 0.2942566958,
				"y": 2.6017057846,
				"z": -2.4133557268,
				"element": "H" 
			},
			{
				"x": 0.2364349218,
				"y": 2.8915203515,
				"z": 1.3541449145,
				"element": "H" 
			},
			{
				"x": 1.3831930322,
				"y": 1.596889352,
				"z": 1.6508917354,
				"element": "H" 
			},
			{
				"x": -1.4833092448,
				"y": 1.1864789013,
				"z": 0.6458226732,
				"element": "H" 
			},
			{
				"x": -1.931379965,
				"y": 0.2674837986,
				"z": 2.873663892,
				"element": "H" 
			},
			{
				"x": -0.3113903733,
				"y": 0.7179678809,
				"z": 3.4345467392,
				"element": "H" 
			},
			{
				"x": 0.7329446545,
				"y": -0.695815346,
				"z": 0.9657774493,
				"element": "H" 
			},
			{
				"x": -2.6319461022,
				"y": -4.5968080187,
				"z": -1.2865780142,
				"element": "H" 
			},
			{
				"x": -1.527356639,
				"y": -3.3439334291,
				"z": -1.8778767942,
				"element": "H" 
			},
			{
				"x": -2.9286676646,
				"y": -2.8924280902,
				"z": -0.8801996247,
				"element": "H" 
			},
			{
				"x": -2.919675802,
				"y": -3.4392097408,
				"z": 1.6320721496,
				"element": "H" 
			},
			{
				"x": -2.6177504277,
				"y": -5.1575844084,
				"z": 1.2967521973,
				"element": "H" 
			},
			{
				"x": -1.5087895619,
				"y": -4.2564424886,
				"z": 2.3437313675,
				"element": "H" 
			},
			{
				"x": -0.6347111432,
				"y": -5.8309336453,
				"z": -0.2119303839,
				"element": "H" 
			},
			{
				"x": 0.4403078518,
				"y": -4.9411100736,
				"z": 0.885028539,
				"element": "H" 
			},
			{
				"x": 0.4331634632,
				"y": -4.5641187822,
				"z": -0.8489562757,
				"element": "H" 
			}
		],
		 "valence_orbital": [ 
			{
				"type": "occ",
				"energy": -0.32201,
				"method": "rhf"
			},
			{
				"type": "occ",
				"energy": -0.31694,
				"method": "rhf"
			},
			{
				"type": "occ",
				"energy": -0.29508,
				"method": "rhf"
			},
			{
				"type": "occ",
				"energy": -0.2735,
				"method": "rhf"
			},
			{
				"type": "occ",
				"energy": -0.2624,
				"method": "rhf"
			},
			{
				"type": "unocc",
				"energy": 0.03111,
				"method": "rhf"
			},
			{
				"type": "unocc",
				"energy": 0.04068,
				"method": "rhf"
			},
			{
				"type": "unocc",
				"energy": 0.04911,
				"method": "rhf"
			},
			{
				"type": "unocc",
				"energy": 0.06788,
				"method": "rhf"
			},
			{
				"type": "unocc",
				"energy": 0.08389,
				"method": "rhf"
			}
		],
		"cosmo_sigma_profile": { 
			"-0.025": 0.0,
			"-0.024": 0.0,
			"-0.023": 0.0,
			"-0.022": 0.0,
			"-0.021": 0.0,
			"-0.02": 0.0,
			"-0.019": 0.0,
			"-0.018": 0.0,
			"-0.017": 0.0,
			"-0.016": 0.0,
			"-0.015": 0.0,
			"-0.014": 0.245809607706,
			"-0.013": 0.958959272434,
			"-0.012": 0.552043260673,
			"-0.011": 1.11784637518,
			"-0.01": 1.19831485233,
			"-0.009": 1.3486132788,
			"-0.008": 3.7058215029,
			"-0.007": 6.11389587297,
			"-0.006": 5.13948528522,
			"-0.005": 8.76322816391,
			"-0.004": 21.8034487525,
			"-0.003": 32.4705391542,
			"-0.002": 40.479704127,
			"-0.001": 35.5384673283,
			"0.0": 43.3854451174,
			"0.001": 37.1939014637,
			"0.002": 14.8107201488,
			"0.003": 5.49290073921,
			"0.004": 5.72357483788,
			"0.005": 6.15662116638,
			"0.006": 5.82671901293,
			"0.007": 5.62174822196,
			"0.008": 5.10437145246,
			"0.009": 4.73103584825,
			"0.01": 4.38029168241,
			"0.011": 4.22404095515,
			"0.012": 4.40129753221,
			"0.013": 4.53163690171,
			"0.014": 0.741441115511,
			"0.015": 0.0,
			"0.016": 0.0,
			"0.017": 0.0,
			"0.018": 0.0,
			"0.019": 0.0,
			"0.02": 0.0,
			"0.021": 0.0,
			"0.022": 0.0,
			"0.023": 0.0,
			"0.024": 0.0,
			"0.025": 0.0
		}
	}
}
