{
	 "smiles": "CC(C)(N1C=C(C=N1)[N+]([O-])=O)C(O)=O", 
	 "Tm": 395.15, 
	 "num_atms": 23, 
	 "gaussian": { 
		 "optdone": 1, 
		 "sigma_profile": "yes", 
		 "theory": "DFT", 
		 "functional": "B3LYP", 
		 "basiset": "6-31G**", 
		 "properties": { 
			 "R2extent": 3352.3256, 
			 "electric_dipole_moment_norm": 6.92494305031, 
			 "electric_quadrupole_moment_norm": 15.1272642335, 
			 "total_energy": -737.207141201, 
			 "HOMO_LUMO_gap": 0.20243, 
			 "cosmo_polarized_energy": -15.25, 
			 "cosmo_cavitation_energy": 28.02, 
			 "cosmo_dispersion_energy": -19.77, 
			 "cosmo_repulsion_energy": 1.56, 
			 "cosmo_total_nonelectrostatic_energy": 9.81, 
			 "SMD_solvation_energy": 8.39 
		},
		"coords": [
			{
				"x": -1.0961972562,
				"y": -0.7039644063,
				"z": -2.2595299123,
				"element": "C" 
			},
			{
				"x": 0.2048298389,
				"y": -1.1207692451,
				"z": -1.5388429597,
				"element": "C" 
			},
			{
				"x": 0.1944057983,
				"y": -2.6275883979,
				"z": -1.2066950761,
				"element": "C" 
			},
			{
				"x": 0.3200884253,
				"y": -0.3610717741,
				"z": -0.2725324582,
				"element": "N" 
			},
			{
				"x": 1.417689077,
				"y": 0.0923846467,
				"z": 0.3752744119,
				"element": "C" 
			},
			{
				"x": 0.961578023,
				"y": 0.5515356115,
				"z": 1.5993311371,
				"element": "C" 
			},
			{
				"x": -0.4295248147,
				"y": 0.3217482106,
				"z": 1.6159663406,
				"element": "C" 
			},
			{
				"x": -0.8143084931,
				"y": -0.2429657732,
				"z": 0.4825511892,
				"element": "N" 
			},
			{
				"x": 1.759438194,
				"y": 1.1447467031,
				"z": 2.6267101615,
				"element": "N" 
			},
			{
				"x": 1.1777632435,
				"y": 1.5032862772,
				"z": 3.6539721573,
				"element": "O" 
			},
			{
				"x": 2.9710224818,
				"y": 1.2531917799,
				"z": 2.4189596843,
				"element": "O" 
			},
			{
				"x": 1.3757364327,
				"y": -0.7747212846,
				"z": -2.4710810426,
				"element": "C" 
			},
			{
				"x": 1.3811403096,
				"y": -1.5994528213,
				"z": -3.5401804017,
				"element": "O" 
			},
			{
				"x": 2.1815330645,
				"y": 0.1176161769,
				"z": -2.3348145023,
				"element": "O" 
			},
			{
				"x": -1.1845423745,
				"y": -1.2610045455,
				"z": -3.1939006753,
				"element": "H" 
			},
			{
				"x": -1.9520173826,
				"y": -0.919198745,
				"z": -1.6202501296,
				"element": "H" 
			},
			{
				"x": -1.0895722786,
				"y": 0.3668041863,
				"z": -2.480361938,
				"element": "H" 
			},
			{
				"x": 0.06568963,
				"y": -3.2184588827,
				"z": -2.1147183939,
				"element": "H" 
			},
			{
				"x": 1.1274177691,
				"y": -2.9285461422,
				"z": -0.721206735,
				"element": "H" 
			},
			{
				"x": -0.6336590168,
				"y": -2.8294583004,
				"z": -0.5234602158,
				"element": "H" 
			},
			{
				"x": 2.4037979222,
				"y": 0.1019862534,
				"z": -0.0534650276,
				"element": "H" 
			},
			{
				"x": -1.1367364623,
				"y": 0.5489954859,
				"z": 2.3997537487,
				"element": "H" 
			},
			{
				"x": 2.1160278691,
				"y": -1.3078950133,
				"z": -4.1062793625,
				"element": "H" 
			}
		],
		 "valence_orbital": [ 
			{
				"type": "occ",
				"energy": -0.29918,
				"method": "rhf"
			},
			{
				"type": "occ",
				"energy": -0.29442,
				"method": "rhf"
			},
			{
				"type": "occ",
				"energy": -0.28259,
				"method": "rhf"
			},
			{
				"type": "occ",
				"energy": -0.27984,
				"method": "rhf"
			},
			{
				"type": "occ",
				"energy": -0.2746,
				"method": "rhf"
			},
			{
				"type": "unocc",
				"energy": -0.07217,
				"method": "rhf"
			},
			{
				"type": "unocc",
				"energy": -0.02554,
				"method": "rhf"
			},
			{
				"type": "unocc",
				"energy": -0.00748,
				"method": "rhf"
			},
			{
				"type": "unocc",
				"energy": 0.04861,
				"method": "rhf"
			},
			{
				"type": "unocc",
				"energy": 0.0757,
				"method": "rhf"
			}
		],
		"cosmo_sigma_profile": { 
			"-0.025": 0.0,
			"-0.024": 0.0,
			"-0.023": 0.0,
			"-0.022": 0.0,
			"-0.021": 0.0,
			"-0.02": 0.0,
			"-0.019": 0.705658025944,
			"-0.018": 0.959686554612,
			"-0.017": 0.765945129719,
			"-0.016": 1.03190119561,
			"-0.015": 0.598297729056,
			"-0.014": 1.17458157083,
			"-0.013": 0.412924672013,
			"-0.012": 0.680107432124,
			"-0.011": 0.891909971625,
			"-0.01": 0.844612598356,
			"-0.009": 2.85911649568,
			"-0.008": 3.90762626636,
			"-0.007": 4.30430574511,
			"-0.006": 6.65509813731,
			"-0.005": 13.4468299209,
			"-0.004": 16.7600665365,
			"-0.003": 19.6769827022,
			"-0.002": 21.2553007551,
			"-0.001": 25.0077322872,
			"0.0": 13.854154044,
			"0.001": 9.52144438876,
			"0.002": 8.39764780742,
			"0.003": 5.40018152098,
			"0.004": 7.54948824836,
			"0.005": 7.21570124112,
			"0.006": 6.8533562865,
			"0.007": 8.50529785409,
			"0.008": 14.3582198333,
			"0.009": 8.00940829467,
			"0.01": 8.18091058931,
			"0.011": 2.48281768841,
			"0.012": 0.00947656977243,
			"0.013": 0.0,
			"0.014": 0.0,
			"0.015": 0.0,
			"0.016": 0.0,
			"0.017": 0.0,
			"0.018": 0.0,
			"0.019": 0.0,
			"0.02": 0.0,
			"0.021": 0.0,
			"0.022": 0.0,
			"0.023": 0.0,
			"0.024": 0.0,
			"0.025": 0.0
		}
	}
}
