{
	 "smiles": "NS(=O)(=O)C1=NN=CN1", 
	 "Tm": 498.15, 
	 "num_atms": 13, 
	 "gaussian": { 
		 "optdone": 1, 
		 "sigma_profile": "yes", 
		 "theory": "DFT", 
		 "functional": "B3LYP", 
		 "basiset": "6-31G**", 
		 "properties": { 
			 "R2extent": 1722.22, 
			 "electric_dipole_moment_norm": 2.69964504704, 
			 "electric_quadrupole_moment_norm": 19.5904857824, 
			 "total_energy": -846.153460126, 
			 "HOMO_LUMO_gap": 0.25861, 
			 "cosmo_polarized_energy": -24.75, 
			 "cosmo_cavitation_energy": 19.61, 
			 "cosmo_dispersion_energy": -15.24, 
			 "cosmo_repulsion_energy": 1.21, 
			 "cosmo_total_nonelectrostatic_energy": 5.57, 
			 "SMD_solvation_energy": 1.65 
		},
		"coords": [
			{
				"x": -0.2894267519,
				"y": 0.4035625287,
				"z": 2.4700358629,
				"element": "N" 
			},
			{
				"x": -0.047504683,
				"y": -0.0233621917,
				"z": 0.8843999316,
				"element": "S" 
			},
			{
				"x": 0.8294899809,
				"y": -1.1893541977,
				"z": 0.8584027607,
				"element": "O" 
			},
			{
				"x": 0.2587885846,
				"y": 1.1883103412,
				"z": 0.1311507303,
				"element": "O" 
			},
			{
				"x": -1.6641063098,
				"y": -0.57692736,
				"z": 0.3430955342,
				"element": "C" 
			},
			{
				"x": -2.7377495586,
				"y": -0.6057704043,
				"z": 1.0926896258,
				"element": "N" 
			},
			{
				"x": -3.7657307514,
				"y": -1.0916878423,
				"z": 0.3095500015,
				"element": "N" 
			},
			{
				"x": -3.2663413142,
				"y": -1.3351345248,
				"z": -0.8795797944,
				"element": "C" 
			},
			{
				"x": -1.9350240065,
				"y": -1.0266935856,
				"z": -0.9161353211,
				"element": "N" 
			},
			{
				"x": -0.5688653013,
				"y": -0.3918907233,
				"z": 3.0385762479,
				"element": "H" 
			},
			{
				"x": -0.9450854368,
				"y": 1.175737479,
				"z": 2.5590947883,
				"element": "H" 
			},
			{
				"x": -3.8121437005,
				"y": -1.724893787,
				"z": -1.726547814,
				"element": "H" 
			},
			{
				"x": -1.2914007515,
				"y": -1.1087957322,
				"z": -1.6907325537,
				"element": "H" 
			}
		],
		 "valence_orbital": [ 
			{
				"type": "occ",
				"energy": -0.33148,
				"method": "rhf"
			},
			{
				"type": "occ",
				"energy": -0.32588,
				"method": "rhf"
			},
			{
				"type": "occ",
				"energy": -0.32266,
				"method": "rhf"
			},
			{
				"type": "occ",
				"energy": -0.28929,
				"method": "rhf"
			},
			{
				"type": "occ",
				"energy": -0.28696,
				"method": "rhf"
			},
			{
				"type": "unocc",
				"energy": -0.02835,
				"method": "rhf"
			},
			{
				"type": "unocc",
				"energy": 0.00786,
				"method": "rhf"
			},
			{
				"type": "unocc",
				"energy": 0.03763,
				"method": "rhf"
			},
			{
				"type": "unocc",
				"energy": 0.04376,
				"method": "rhf"
			},
			{
				"type": "unocc",
				"energy": 0.06142,
				"method": "rhf"
			}
		],
		"cosmo_sigma_profile": { 
			"-0.025": 0.0,
			"-0.024": 0.0,
			"-0.023": 0.0,
			"-0.022": 0.0,
			"-0.021": 0.0,
			"-0.02": 0.160701714849,
			"-0.019": 2.05109867664,
			"-0.018": 1.40550324891,
			"-0.017": 1.85764696939,
			"-0.016": 2.96892468067,
			"-0.015": 3.57348824183,
			"-0.014": 3.37914046371,
			"-0.013": 3.66657132108,
			"-0.012": 3.93494560374,
			"-0.011": 5.72929111771,
			"-0.01": 3.5937744415,
			"-0.009": 3.94914595522,
			"-0.008": 3.48439757103,
			"-0.007": 4.22553320756,
			"-0.006": 3.35533632662,
			"-0.005": 2.39593811243,
			"-0.004": 4.22865751959,
			"-0.003": 7.06226563842,
			"-0.002": 7.33602698692,
			"-0.001": 5.7869462249,
			"0.0": 3.72807896561,
			"0.001": 3.80363885819,
			"0.002": 4.09793680824,
			"0.003": 3.49107755655,
			"0.004": 4.28170128091,
			"0.005": 5.15625466753,
			"0.006": 6.36940351912,
			"0.007": 5.64869626904,
			"0.008": 5.86693185812,
			"0.009": 8.56127341494,
			"0.01": 16.3824442213,
			"0.011": 6.86093041295,
			"0.012": 3.23757167034,
			"0.013": 2.45236685665,
			"0.014": 1.57848210718,
			"0.015": 1.18124892402,
			"0.016": 0.214971387564,
			"0.017": 0.0,
			"0.018": 0.0,
			"0.019": 0.0,
			"0.02": 0.0,
			"0.021": 0.0,
			"0.022": 0.0,
			"0.023": 0.0,
			"0.024": 0.0,
			"0.025": 0.0
		}
	}
}
