{
	 "smiles": "COC(=O)C1=C(N)C=C(S1)C1=CC(Cl)=CC=C1", 
	 "Tm": 374.15, 
	 "num_atms": 27, 
	 "gaussian": { 
		 "optdone": 1, 
		 "sigma_profile": "yes", 
		 "theory": "DFT", 
		 "functional": "B3LYP", 
		 "basiset": "6-31G**", 
		 "properties": { 
			 "R2extent": 7099.5149, 
			 "electric_dipole_moment_norm": 5.61377069892, 
			 "electric_quadrupole_moment_norm": 13.7441771856, 
			 "total_energy": -1526.89426991, 
			 "HOMO_LUMO_gap": 0.14658, 
			 "cosmo_polarized_energy": -14.89, 
			 "cosmo_cavitation_energy": 35.14, 
			 "cosmo_dispersion_energy": -26.26, 
			 "cosmo_repulsion_energy": 1.99, 
			 "cosmo_total_nonelectrostatic_energy": 10.88, 
			 "SMD_solvation_energy": 6.66 
		},
		"coords": [
			{
				"x": -1.2561466865,
				"y": -1.2882917559,
				"z": 5.1752524305,
				"element": "C" 
			},
			{
				"x": -1.1741120908,
				"y": -1.4422730777,
				"z": 3.7494258814,
				"element": "O" 
			},
			{
				"x": -0.5915264958,
				"y": -0.3895118793,
				"z": 3.0907641306,
				"element": "C" 
			},
			{
				"x": -0.1737911029,
				"y": 0.5944466297,
				"z": 3.6758487954,
				"element": "O" 
			},
			{
				"x": -0.5333241853,
				"y": -0.5996217024,
				"z": 1.6565911007,
				"element": "C" 
			},
			{
				"x": -0.9649162137,
				"y": -1.6716789708,
				"z": 0.8738500538,
				"element": "C" 
			},
			{
				"x": -1.6514451067,
				"y": -2.7717863937,
				"z": 1.3295322901,
				"element": "N" 
			},
			{
				"x": -0.6676186977,
				"y": -1.4684914159,
				"z": -0.5094785136,
				"element": "C" 
			},
			{
				"x": -0.0351847953,
				"y": -0.2756033962,
				"z": -0.772768704,
				"element": "C" 
			},
			{
				"x": 0.2252580081,
				"y": 0.6450352679,
				"z": 0.6836185609,
				"element": "S" 
			},
			{
				"x": 0.3966919777,
				"y": 0.2283140371,
				"z": -2.0842151116,
				"element": "C" 
			},
			{
				"x": 0.4689896421,
				"y": 1.6090197823,
				"z": -2.339172189,
				"element": "C" 
			},
			{
				"x": 0.8773314336,
				"y": 2.0607783696,
				"z": -3.5904782858,
				"element": "C" 
			},
			{
				"x": 0.9567722945,
				"y": 3.7910631054,
				"z": -3.8898787974,
				"element": "Cl" 
			},
			{
				"x": 1.2138486778,
				"y": 1.1753704858,
				"z": -4.6139205134,
				"element": "C" 
			},
			{
				"x": 1.1411760981,
				"y": -0.1951081761,
				"z": -4.3590212809,
				"element": "C" 
			},
			{
				"x": 0.7436938108,
				"y": -0.667868969,
				"z": -3.1112934186,
				"element": "C" 
			},
			{
				"x": -0.2588789545,
				"y": -1.1918098908,
				"z": 5.6115398877,
				"element": "H" 
			},
			{
				"x": -1.7482945164,
				"y": -2.1897721468,
				"z": 5.5413353553,
				"element": "H" 
			},
			{
				"x": -1.8398703987,
				"y": -0.4016303739,
				"z": 5.4335563795,
				"element": "H" 
			},
			{
				"x": -1.6496458695,
				"y": -2.9061133096,
				"z": 2.3306632475,
				"element": "H" 
			},
			{
				"x": -1.5932108021,
				"y": -3.6093271163,
				"z": 0.7710172136,
				"element": "H" 
			},
			{
				"x": -0.9620772611,
				"y": -2.169957556,
				"z": -1.2824184769,
				"element": "H" 
			},
			{
				"x": 0.1887561545,
				"y": 2.3249976773,
				"z": -1.5745594181,
				"element": "H" 
			},
			{
				"x": 1.5266535782,
				"y": 1.5516553487,
				"z": -5.581221227,
				"element": "H" 
			},
			{
				"x": 1.409390758,
				"y": -0.8984021872,
				"z": -5.1417348728,
				"element": "H" 
			},
			{
				"x": 0.7236807435,
				"y": -1.7354323862,
				"z": -2.919434518,
				"element": "H" 
			}
		],
		 "valence_orbital": [ 
			{
				"type": "occ",
				"energy": -0.27683,
				"method": "rhf"
			},
			{
				"type": "occ",
				"energy": -0.27098,
				"method": "rhf"
			},
			{
				"type": "occ",
				"energy": -0.25556,
				"method": "rhf"
			},
			{
				"type": "occ",
				"energy": -0.23572,
				"method": "rhf"
			},
			{
				"type": "occ",
				"energy": -0.20757,
				"method": "rhf"
			},
			{
				"type": "unocc",
				"energy": -0.06099,
				"method": "rhf"
			},
			{
				"type": "unocc",
				"energy": -0.02063,
				"method": "rhf"
			},
			{
				"type": "unocc",
				"energy": -0.00452,
				"method": "rhf"
			},
			{
				"type": "unocc",
				"energy": 0.02317,
				"method": "rhf"
			},
			{
				"type": "unocc",
				"energy": 0.03287,
				"method": "rhf"
			}
		],
		"cosmo_sigma_profile": { 
			"-0.025": 0.0,
			"-0.024": 0.0,
			"-0.023": 0.0,
			"-0.022": 0.0,
			"-0.021": 0.0,
			"-0.02": 0.0,
			"-0.019": 0.0,
			"-0.018": 0.0,
			"-0.017": 0.0,
			"-0.016": 0.0,
			"-0.015": 0.0,
			"-0.014": 0.655929208288,
			"-0.013": 1.56936318388,
			"-0.012": 1.43593469252,
			"-0.011": 1.83840941133,
			"-0.01": 1.96845790476,
			"-0.009": 3.2515769826,
			"-0.008": 3.56645458412,
			"-0.007": 10.6269218045,
			"-0.006": 13.7164997927,
			"-0.005": 17.1121789642,
			"-0.004": 16.8720756286,
			"-0.003": 16.9990774014,
			"-0.002": 16.0447484948,
			"-0.001": 15.8874531811,
			"0.0": 18.6561611186,
			"0.001": 24.7585928449,
			"0.002": 32.6480849741,
			"0.003": 33.0731960788,
			"0.004": 22.4824166451,
			"0.005": 10.4222477249,
			"0.006": 2.62453353844,
			"0.007": 2.46969051595,
			"0.008": 2.18341052143,
			"0.009": 2.55631860409,
			"0.01": 2.34874543457,
			"0.011": 2.81278261538,
			"0.012": 4.43745325728,
			"0.013": 2.80769638959,
			"0.014": 0.0,
			"0.015": 0.0,
			"0.016": 0.0,
			"0.017": 0.0,
			"0.018": 0.0,
			"0.019": 0.0,
			"0.02": 0.0,
			"0.021": 0.0,
			"0.022": 0.0,
			"0.023": 0.0,
			"0.024": 0.0,
			"0.025": 0.0
		}
	}
}
