{
	 "smiles": "CC(=O)OC[C@H]1O[C@@H](OCC2=CC=CC=C2)[C@H](OC(C)=O)[C@@H](OC(C)=O)[C@@H]1OC(C)=O", 
	 "Tm": 371.15, 
	 "num_atms": 57, 
	 "gaussian": { 
		 "optdone": 1, 
		 "sigma_profile": "yes", 
		 "theory": "DFT", 
		 "functional": "B3LYP", 
		 "basiset": "6-31G**", 
		 "properties": { 
			 "R2extent": 14149.6667, 
			 "electric_dipole_moment_norm": 4.84054535047, 
			 "electric_quadrupole_moment_norm": 12.121654432, 
			 "total_energy": -1568.17684807, 
			 "HOMO_LUMO_gap": 0.2367, 
			 "cosmo_polarized_energy": -24.12, 
			 "cosmo_cavitation_energy": 60.38, 
			 "cosmo_dispersion_energy": -37.49, 
			 "cosmo_repulsion_energy": 2.92, 
			 "cosmo_total_nonelectrostatic_energy": 25.82, 
			 "SMD_solvation_energy": 13.76 
		},
		"coords": [
			{
				"x": -2.5352262457,
				"y": -0.368372739,
				"z": 4.345541269,
				"element": "C" 
			},
			{
				"x": -1.4495010908,
				"y": 0.1152357273,
				"z": 3.4147402424,
				"element": "C" 
			},
			{
				"x": -1.327755476,
				"y": 1.255077066,
				"z": 3.0207253055,
				"element": "O" 
			},
			{
				"x": -0.6249928719,
				"y": -0.9066957592,
				"z": 3.0835835278,
				"element": "O" 
			},
			{
				"x": 0.4224705332,
				"y": -0.6624349506,
				"z": 2.1246313925,
				"element": "C" 
			},
			{
				"x": 0.0892444047,
				"y": -1.393694631,
				"z": 0.8264599621,
				"element": "C" 
			},
			{
				"x": -1.0379526611,
				"y": -0.8002756564,
				"z": 0.1715388683,
				"element": "O" 
			},
			{
				"x": -0.7754547146,
				"y": -0.0421002558,
				"z": -0.9972830074,
				"element": "C" 
			},
			{
				"x": 0.0557134836,
				"y": 1.0624284483,
				"z": -0.7576714766,
				"element": "O" 
			},
			{
				"x": -0.5929725325,
				"y": 2.1861745844,
				"z": -0.1311152512,
				"element": "C" 
			},
			{
				"x": -1.560157675,
				"y": 2.8974695335,
				"z": -1.0539001005,
				"element": "C" 
			},
			{
				"x": -2.8234184566,
				"y": 3.2851566004,
				"z": -0.5930911519,
				"element": "C" 
			},
			{
				"x": -3.7029464776,
				"y": 3.9785028143,
				"z": -1.4282893451,
				"element": "C" 
			},
			{
				"x": -3.3301674797,
				"y": 4.2800023572,
				"z": -2.7385035707,
				"element": "C" 
			},
			{
				"x": -2.0734668151,
				"y": 3.8884183009,
				"z": -3.2095647128,
				"element": "C" 
			},
			{
				"x": -1.193405894,
				"y": 3.2043973003,
				"z": -2.3722370163,
				"element": "C" 
			},
			{
				"x": -0.0902208579,
				"y": -0.8776139842,
				"z": -2.091827676,
				"element": "C" 
			},
			{
				"x": -1.1387740456,
				"y": -1.566697754,
				"z": -2.8120716082,
				"element": "O" 
			},
			{
				"x": -0.9604555058,
				"y": -1.7306871931,
				"z": -4.1507548693,
				"element": "C" 
			},
			{
				"x": -2.1541460629,
				"y": -2.4283811761,
				"z": -4.7565571955,
				"element": "C" 
			},
			{
				"x": 0.0208703376,
				"y": -1.3620308479,
				"z": -4.7553916525,
				"element": "O" 
			},
			{
				"x": 0.8725203864,
				"y": -1.9209188873,
				"z": -1.4935279277,
				"element": "C" 
			},
			{
				"x": 1.9690945631,
				"y": -2.2684989491,
				"z": -2.3562634413,
				"element": "O" 
			},
			{
				"x": 2.8124897486,
				"y": -1.2856420391,
				"z": -2.7926928239,
				"element": "C" 
			},
			{
				"x": 3.8593792505,
				"y": -1.8706544912,
				"z": -3.7041791495,
				"element": "C" 
			},
			{
				"x": 2.7112948715,
				"y": -0.1220657135,
				"z": -2.4829580751,
				"element": "O" 
			},
			{
				"x": 1.3287046506,
				"y": -1.5465228435,
				"z": -0.0793899373,
				"element": "C" 
			},
			{
				"x": 2.0556694409,
				"y": -2.662542245,
				"z": 0.4842751598,
				"element": "O" 
			},
			{
				"x": 3.4164873333,
				"y": -2.6424393725,
				"z": 0.4471987626,
				"element": "C" 
			},
			{
				"x": 3.969065455,
				"y": -3.9184135755,
				"z": 1.0357418209,
				"element": "C" 
			},
			{
				"x": 4.0739036795,
				"y": -1.7298093313,
				"z": 0.004274121,
				"element": "O" 
			},
			{
				"x": -3.0933128491,
				"y": 0.4858434156,
				"z": 4.7274368154,
				"element": "H" 
			},
			{
				"x": -3.2117911999,
				"y": -1.0335318048,
				"z": 3.7994920324,
				"element": "H" 
			},
			{
				"x": -2.1055052444,
				"y": -0.9429386005,
				"z": 5.1701313278,
				"element": "H" 
			},
			{
				"x": 0.5402728541,
				"y": 0.408982228,
				"z": 1.9632095753,
				"element": "H" 
			},
			{
				"x": 1.3354023801,
				"y": -1.0795791439,
				"z": 2.5588440824,
				"element": "H" 
			},
			{
				"x": -0.230700471,
				"y": -2.4085074568,
				"z": 1.0927357799,
				"element": "H" 
			},
			{
				"x": -1.7663367816,
				"y": 0.2661465704,
				"z": -1.3472470085,
				"element": "H" 
			},
			{
				"x": -1.0884159482,
				"y": 1.8770349904,
				"z": 0.7938705523,
				"element": "H" 
			},
			{
				"x": 0.2343654466,
				"y": 2.8499071493,
				"z": 0.1406072578,
				"element": "H" 
			},
			{
				"x": -3.1158045043,
				"y": 3.0440977252,
				"z": 0.4260922323,
				"element": "H" 
			},
			{
				"x": -4.6801316443,
				"y": 4.2750242913,
				"z": -1.0573016502,
				"element": "H" 
			},
			{
				"x": -4.0142389393,
				"y": 4.8153048919,
				"z": -3.3910191873,
				"element": "H" 
			},
			{
				"x": -1.7786217444,
				"y": 4.1201453233,
				"z": -4.2293095388,
				"element": "H" 
			},
			{
				"x": -0.2164394493,
				"y": 2.8984682203,
				"z": -2.7359329563,
				"element": "H" 
			},
			{
				"x": 0.4322830854,
				"y": -0.2091407186,
				"z": -2.770042036,
				"element": "H" 
			},
			{
				"x": -1.9969621035,
				"y": -2.5513847383,
				"z": -5.8274967363,
				"element": "H" 
			},
			{
				"x": -3.0609817017,
				"y": -1.844172007,
				"z": -4.5751052793,
				"element": "H" 
			},
			{
				"x": -2.2964028947,
				"y": -3.4050158048,
				"z": -4.2845807838,
				"element": "H" 
			},
			{
				"x": 0.3171125419,
				"y": -2.8599123859,
				"z": -1.4103507578,
				"element": "H" 
			},
			{
				"x": 4.4466581535,
				"y": -2.6168829083,
				"z": -3.1615988214,
				"element": "H" 
			},
			{
				"x": 4.5114935054,
				"y": -1.0735154979,
				"z": -4.0590620813,
				"element": "H" 
			},
			{
				"x": 3.376432828,
				"y": -2.3684436104,
				"z": -4.5496911031,
				"element": "H" 
			},
			{
				"x": 1.9642069221,
				"y": -0.6609587137,
				"z": -0.0952100365,
				"element": "H" 
			},
			{
				"x": 3.5368686282,
				"y": -4.1040276723,
				"z": 2.0227069492,
				"element": "H" 
			},
			{
				"x": 3.6979240344,
				"y": -4.7641911818,
				"z": 0.3961320463,
				"element": "H" 
			},
			{
				"x": 5.0537318204,
				"y": -3.844122898,
				"z": 1.105648882,
				"element": "H" 
			}
		],
		 "valence_orbital": [ 
			{
				"type": "occ",
				"energy": -0.27417,
				"method": "rhf"
			},
			{
				"type": "occ",
				"energy": -0.26433,
				"method": "rhf"
			},
			{
				"type": "occ",
				"energy": -0.26251,
				"method": "rhf"
			},
			{
				"type": "occ",
				"energy": -0.24644,
				"method": "rhf"
			},
			{
				"type": "occ",
				"energy": -0.2407,
				"method": "rhf"
			},
			{
				"type": "unocc",
				"energy": -0.004,
				"method": "rhf"
			},
			{
				"type": "unocc",
				"energy": 0.00199,
				"method": "rhf"
			},
			{
				"type": "unocc",
				"energy": 0.00266,
				"method": "rhf"
			},
			{
				"type": "unocc",
				"energy": 0.00783,
				"method": "rhf"
			},
			{
				"type": "unocc",
				"energy": 0.00818,
				"method": "rhf"
			}
		],
		"cosmo_sigma_profile": { 
			"-0.025": 0.0,
			"-0.024": 0.0,
			"-0.023": 0.0,
			"-0.022": 0.0,
			"-0.021": 0.0,
			"-0.02": 0.0,
			"-0.019": 0.0,
			"-0.018": 0.0,
			"-0.017": 0.0,
			"-0.016": 0.0,
			"-0.015": 0.0,
			"-0.014": 0.0,
			"-0.013": 0.0,
			"-0.012": 0.0,
			"-0.011": 0.0,
			"-0.01": 0.0,
			"-0.009": 0.121446663906,
			"-0.008": 1.46781856501,
			"-0.007": 9.65810449246,
			"-0.006": 32.6834105512,
			"-0.005": 40.9501049715,
			"-0.004": 49.2594660545,
			"-0.003": 49.9927411763,
			"-0.002": 54.6509140211,
			"-0.001": 36.4815389116,
			"0.0": 22.0189221635,
			"0.001": 19.1997281429,
			"0.002": 20.8217559703,
			"0.003": 21.2895452002,
			"0.004": 20.6859446688,
			"0.005": 23.2966711198,
			"0.006": 15.736958096,
			"0.007": 10.0577075055,
			"0.008": 9.06979219246,
			"0.009": 7.68787527125,
			"0.01": 10.3054340948,
			"0.011": 11.8833540935,
			"0.012": 7.83009047291,
			"0.013": 1.29401834661,
			"0.014": 0.0,
			"0.015": 0.0,
			"0.016": 0.0,
			"0.017": 0.0,
			"0.018": 0.0,
			"0.019": 0.0,
			"0.02": 0.0,
			"0.021": 0.0,
			"0.022": 0.0,
			"0.023": 0.0,
			"0.024": 0.0,
			"0.025": 0.0
		}
	}
}
