{
	 "smiles": "CCOC(=O)C1=C(N)SC=C1C1=C(Cl)C=CC=C1", 
	 "Tm": 342.15, 
	 "num_atms": 30, 
	 "gaussian": { 
		 "optdone": 1, 
		 "sigma_profile": "yes", 
		 "theory": "DFT", 
		 "functional": "B3LYP", 
		 "basiset": "6-31G**", 
		 "properties": { 
			 "R2extent": 6442.707, 
			 "electric_dipole_moment_norm": 1.01268463008, 
			 "electric_quadrupole_moment_norm": 11.4945345813, 
			 "total_energy": -1566.20775507, 
			 "HOMO_LUMO_gap": 0.182, 
			 "cosmo_polarized_energy": -11.58, 
			 "cosmo_cavitation_energy": 37.19, 
			 "cosmo_dispersion_energy": -25.77, 
			 "cosmo_repulsion_energy": 1.97, 
			 "cosmo_total_nonelectrostatic_energy": 13.4, 
			 "SMD_solvation_energy": 6.71 
		},
		"coords": [
			{
				"x": -0.2528887123,
				"y": 0.8178726289,
				"z": 3.6805435545,
				"element": "C" 
			},
			{
				"x": -1.194660655,
				"y": 1.3561453138,
				"z": 2.6134467935,
				"element": "C" 
			},
			{
				"x": -0.5071092064,
				"y": 1.5833683508,
				"z": 1.3618277086,
				"element": "O" 
			},
			{
				"x": 0.149379197,
				"y": 2.7541094949,
				"z": 1.2301789234,
				"element": "C" 
			},
			{
				"x": 0.1546069361,
				"y": 3.6100983247,
				"z": 2.1170232808,
				"element": "O" 
			},
			{
				"x": 0.8279477453,
				"y": 2.9051230349,
				"z": -0.0538147916,
				"element": "C" 
			},
			{
				"x": 1.4898080537,
				"y": 4.101926173,
				"z": -0.3405564474,
				"element": "C" 
			},
			{
				"x": 1.5416199144,
				"y": 5.2154930178,
				"z": 0.4351870635,
				"element": "N" 
			},
			{
				"x": 2.2143942365,
				"y": 4.0709410238,
				"z": -1.9316726962,
				"element": "S" 
			},
			{
				"x": 1.6311362006,
				"y": 2.4418079236,
				"z": -2.2056314833,
				"element": "C" 
			},
			{
				"x": 0.9287303805,
				"y": 1.952559643,
				"z": -1.1474003828,
				"element": "C" 
			},
			{
				"x": 0.3501195217,
				"y": 0.5812228421,
				"z": -1.2001375845,
				"element": "C" 
			},
			{
				"x": 0.9048273172,
				"y": -0.5141816755,
				"z": -0.5192431279,
				"element": "C" 
			},
			{
				"x": 2.3305001199,
				"y": -0.3009732266,
				"z": 0.489665878,
				"element": "Cl" 
			},
			{
				"x": 0.3662778136,
				"y": -1.7952848703,
				"z": -0.6283544914,
				"element": "C" 
			},
			{
				"x": -0.7512824858,
				"y": -2.0072767995,
				"z": -1.43585772,
				"element": "C" 
			},
			{
				"x": -1.3189126033,
				"y": -0.9399780706,
				"z": -2.1308402053,
				"element": "C" 
			},
			{
				"x": -0.7682723585,
				"y": 0.3353651143,
				"z": -2.0111259341,
				"element": "C" 
			},
			{
				"x": 0.5011660904,
				"y": 1.5652216535,
				"z": 3.9378618562,
				"element": "H" 
			},
			{
				"x": -0.819523308,
				"y": 0.5736126473,
				"z": 4.5856737954,
				"element": "H" 
			},
			{
				"x": 0.2515881981,
				"y": -0.0877367843,
				"z": 3.3322982484,
				"element": "H" 
			},
			{
				"x": -1.6624278799,
				"y": 2.289734977,
				"z": 2.934969483,
				"element": "H" 
			},
			{
				"x": -1.9704617646,
				"y": 0.6288924329,
				"z": 2.3620952463,
				"element": "H" 
			},
			{
				"x": 1.1873793897,
				"y": 5.0743502576,
				"z": 1.3781547124,
				"element": "H" 
			},
			{
				"x": 2.2665981415,
				"y": 5.897251149,
				"z": 0.2780856738,
				"element": "H" 
			},
			{
				"x": 1.8782938718,
				"y": 1.9354834285,
				"z": -3.1271316475,
				"element": "H" 
			},
			{
				"x": 0.8270643549,
				"y": -2.615675275,
				"z": -0.0891269076,
				"element": "H" 
			},
			{
				"x": -1.1694779201,
				"y": -3.0058850721,
				"z": -1.5208648034,
				"element": "H" 
			},
			{
				"x": -2.186371044,
				"y": -1.0972210868,
				"z": -2.7646942663,
				"element": "H" 
			},
			{
				"x": -1.2066495452,
				"y": 1.1718334292,
				"z": -2.5464597287,
				"element": "H" 
			}
		],
		 "valence_orbital": [ 
			{
				"type": "occ",
				"energy": -0.26981,
				"method": "rhf"
			},
			{
				"type": "occ",
				"energy": -0.2592,
				"method": "rhf"
			},
			{
				"type": "occ",
				"energy": -0.24957,
				"method": "rhf"
			},
			{
				"type": "occ",
				"energy": -0.2393,
				"method": "rhf"
			},
			{
				"type": "occ",
				"energy": -0.19985,
				"method": "rhf"
			},
			{
				"type": "unocc",
				"energy": -0.01785,
				"method": "rhf"
			},
			{
				"type": "unocc",
				"energy": -0.01603,
				"method": "rhf"
			},
			{
				"type": "unocc",
				"energy": -0.00833,
				"method": "rhf"
			},
			{
				"type": "unocc",
				"energy": 0.00991,
				"method": "rhf"
			},
			{
				"type": "unocc",
				"energy": 0.02141,
				"method": "rhf"
			}
		],
		"cosmo_sigma_profile": { 
			"-0.025": 0.0,
			"-0.024": 0.0,
			"-0.023": 0.0,
			"-0.022": 0.0,
			"-0.021": 0.0,
			"-0.02": 0.0,
			"-0.019": 0.0,
			"-0.018": 0.0,
			"-0.017": 0.0,
			"-0.016": 0.0,
			"-0.015": 0.543451906318,
			"-0.014": 1.46794286865,
			"-0.013": 1.53597293011,
			"-0.012": 1.40789171608,
			"-0.011": 1.05752646307,
			"-0.01": 2.20960498376,
			"-0.009": 1.83595368432,
			"-0.008": 3.55439922927,
			"-0.007": 5.83890508808,
			"-0.006": 11.6919312051,
			"-0.005": 16.3010691766,
			"-0.004": 18.4073842342,
			"-0.003": 19.2845998071,
			"-0.002": 21.3236726439,
			"-0.001": 20.4176885067,
			"0.0": 24.0830958344,
			"0.001": 26.1145252448,
			"0.002": 29.5888735344,
			"0.003": 30.6443873172,
			"0.004": 27.4349099869,
			"0.005": 15.9676441086,
			"0.006": 5.94065540016,
			"0.007": 3.78499459517,
			"0.008": 3.43225563022,
			"0.009": 2.30075914386,
			"0.01": 1.53028311619,
			"0.011": 1.23467191575,
			"0.012": 1.84638283026,
			"0.013": 0.229778718836,
			"0.014": 0.0,
			"0.015": 0.0,
			"0.016": 0.0,
			"0.017": 0.0,
			"0.018": 0.0,
			"0.019": 0.0,
			"0.02": 0.0,
			"0.021": 0.0,
			"0.022": 0.0,
			"0.023": 0.0,
			"0.024": 0.0,
			"0.025": 0.0
		}
	}
}
