{
	 "smiles": "CC1=C(C=NN1C1=CC=CC=C1C)C(O)=O", 
	 "Tm": 417.15, 
	 "num_atms": 28, 
	 "gaussian": { 
		 "optdone": 1, 
		 "sigma_profile": "yes", 
		 "theory": "DFT", 
		 "functional": "B3LYP", 
		 "basiset": "6-31G**", 
		 "properties": { 
			 "R2extent": 4126.5438, 
			 "electric_dipole_moment_norm": 6.65417591968, 
			 "electric_quadrupole_moment_norm": 13.0379950798, 
			 "total_energy": -724.458527291, 
			 "HOMO_LUMO_gap": 0.21343, 
			 "cosmo_polarized_energy": -18.36, 
			 "cosmo_cavitation_energy": 32.01, 
			 "cosmo_dispersion_energy": -22.42, 
			 "cosmo_repulsion_energy": 1.73, 
			 "cosmo_total_nonelectrostatic_energy": 11.32, 
			 "SMD_solvation_energy": 6.2 
		},
		"coords": [
			{
				"x": 0.7594462227,
				"y": -0.2772399765,
				"z": 2.2001772115,
				"element": "C" 
			},
			{
				"x": -0.0982901573,
				"y": 0.0689663018,
				"z": 1.0202537226,
				"element": "C" 
			},
			{
				"x": -1.115649323,
				"y": 1.0134135994,
				"z": 0.8619353071,
				"element": "C" 
			},
			{
				"x": -1.4824011624,
				"y": 0.9239886221,
				"z": -0.505051544,
				"element": "C" 
			},
			{
				"x": -0.7855139316,
				"y": 0.004160116,
				"z": -1.1484431085,
				"element": "N" 
			},
			{
				"x": 0.0615357852,
				"y": -0.5113784496,
				"z": -0.206213655,
				"element": "N" 
			},
			{
				"x": 0.9726550736,
				"y": -1.5541365435,
				"z": -0.5734734886,
				"element": "C" 
			},
			{
				"x": 0.8420571844,
				"y": -2.8030002679,
				"z": 0.0384597903,
				"element": "C" 
			},
			{
				"x": 1.7138254563,
				"y": -3.8390323833,
				"z": -0.2930238837,
				"element": "C" 
			},
			{
				"x": 2.7047700937,
				"y": -3.6193391362,
				"z": -1.2490356338,
				"element": "C" 
			},
			{
				"x": 2.82119794,
				"y": -2.3702055056,
				"z": -1.8603334707,
				"element": "C" 
			},
			{
				"x": 1.9670362708,
				"y": -1.3080063648,
				"z": -1.5386844991,
				"element": "C" 
			},
			{
				"x": 2.1177138037,
				"y": 0.0375936673,
				"z": -2.2029801929,
				"element": "C" 
			},
			{
				"x": -1.7060723665,
				"y": 1.9804833396,
				"z": 1.8057774909,
				"element": "C" 
			},
			{
				"x": -1.4986629506,
				"y": 1.7575647723,
				"z": 3.13973317,
				"element": "O" 
			},
			{
				"x": -2.3496073617,
				"y": 2.9423210346,
				"z": 1.4552152969,
				"element": "O" 
			},
			{
				"x": 0.3103922386,
				"y": -1.0577713851,
				"z": 2.8280920918,
				"element": "H" 
			},
			{
				"x": 0.925599621,
				"y": 0.6073991316,
				"z": 2.8211265009,
				"element": "H" 
			},
			{
				"x": 1.7345216613,
				"y": -0.6511710373,
				"z": 1.8799628845,
				"element": "H" 
			},
			{
				"x": -2.2386414795,
				"y": 1.5048791949,
				"z": -1.0143559353,
				"element": "H" 
			},
			{
				"x": 0.0447062199,
				"y": -2.9590360514,
				"z": 0.7584016912,
				"element": "H" 
			},
			{
				"x": 1.6097392124,
				"y": -4.8089965079,
				"z": 0.1830783838,
				"element": "H" 
			},
			{
				"x": 3.3875020934,
				"y": -4.4187625326,
				"z": -1.521410235,
				"element": "H" 
			},
			{
				"x": 3.5977473919,
				"y": -2.2067364011,
				"z": -2.6025874537,
				"element": "H" 
			},
			{
				"x": 2.184521198,
				"y": 0.8429983782,
				"z": -1.4636100612,
				"element": "H" 
			},
			{
				"x": 1.2528021301,
				"y": 0.2623427436,
				"z": -2.8330687626,
				"element": "H" 
			},
			{
				"x": 3.0198040799,
				"y": 0.0636595138,
				"z": -2.8191308429,
				"element": "H" 
			},
			{
				"x": -1.1385349442,
				"y": 0.8718421275,
				"z": 3.2784892254,
				"element": "H" 
			}
		],
		 "valence_orbital": [ 
			{
				"type": "occ",
				"energy": -0.28451,
				"method": "rhf"
			},
			{
				"type": "occ",
				"energy": -0.26693,
				"method": "rhf"
			},
			{
				"type": "occ",
				"energy": -0.26326,
				"method": "rhf"
			},
			{
				"type": "occ",
				"energy": -0.25847,
				"method": "rhf"
			},
			{
				"type": "occ",
				"energy": -0.24976,
				"method": "rhf"
			},
			{
				"type": "unocc",
				"energy": -0.03633,
				"method": "rhf"
			},
			{
				"type": "unocc",
				"energy": -0.01883,
				"method": "rhf"
			},
			{
				"type": "unocc",
				"energy": -0.01292,
				"method": "rhf"
			},
			{
				"type": "unocc",
				"energy": 0.01519,
				"method": "rhf"
			},
			{
				"type": "unocc",
				"energy": 0.0551,
				"method": "rhf"
			}
		],
		"cosmo_sigma_profile": { 
			"-0.025": 0.0,
			"-0.024": 0.0,
			"-0.023": 0.0,
			"-0.022": 0.0,
			"-0.021": 0.0,
			"-0.02": 0.0,
			"-0.019": 0.0,
			"-0.018": 0.0,
			"-0.017": 0.286864689611,
			"-0.016": 1.1308302891,
			"-0.015": 0.951684324537,
			"-0.014": 0.881220879605,
			"-0.013": 0.739588362665,
			"-0.012": 1.08250996578,
			"-0.011": 1.40001062026,
			"-0.01": 1.29879505965,
			"-0.009": 0.838444869043,
			"-0.008": 2.28253974199,
			"-0.007": 7.88126748451,
			"-0.006": 17.6764618853,
			"-0.005": 17.7015913933,
			"-0.004": 20.3848375275,
			"-0.003": 20.071796926,
			"-0.002": 20.1861951971,
			"-0.001": 17.3000831288,
			"0.0": 18.0039708619,
			"0.001": 14.4551280469,
			"0.002": 14.7050853866,
			"0.003": 14.0329103722,
			"0.004": 13.7030675356,
			"0.005": 8.67403042129,
			"0.006": 5.01886424264,
			"0.007": 4.17371402455,
			"0.008": 2.45160636548,
			"0.009": 4.97068484359,
			"0.01": 5.05164191459,
			"0.011": 5.89067454716,
			"0.012": 7.37093269033,
			"0.013": 3.4797208828,
			"0.014": 0.97561789269,
			"0.015": 0.192992075038,
			"0.016": 0.0,
			"0.017": 0.0,
			"0.018": 0.0,
			"0.019": 0.0,
			"0.02": 0.0,
			"0.021": 0.0,
			"0.022": 0.0,
			"0.023": 0.0,
			"0.024": 0.0,
			"0.025": 0.0
		}
	}
}
