{
	 "smiles": "CN1C2=C(C=C(C=C2)[N+]([O-])=O)C(=NCC1=O)C1=CC=CC=C1F", 
	 "Tm": 439.15, 
	 "num_atms": 35, 
	 "gaussian": { 
		 "optdone": 1, 
		 "sigma_profile": "yes", 
		 "theory": "DFT", 
		 "functional": "B3LYP", 
		 "basiset": "6-31G**", 
		 "properties": { 
			 "R2extent": 7572.2399, 
			 "electric_dipole_moment_norm": 2.78520853977, 
			 "electric_quadrupole_moment_norm": 38.1709430254, 
			 "total_energy": -1106.5898687, 
			 "HOMO_LUMO_gap": 0.15348, 
			 "cosmo_polarized_energy": -18.51, 
			 "cosmo_cavitation_energy": 40.07, 
			 "cosmo_dispersion_energy": -27.68, 
			 "cosmo_repulsion_energy": 2.08, 
			 "cosmo_total_nonelectrostatic_energy": 14.47, 
			 "SMD_solvation_energy": 7.57 
		},
		"coords": [
			{
				"x": -0.4708620818,
				"y": -2.9411233746,
				"z": 1.7329912874,
				"element": "C" 
			},
			{
				"x": -0.4232720573,
				"y": -2.0525030416,
				"z": 0.5644957926,
				"element": "N" 
			},
			{
				"x": -0.4618676963,
				"y": -0.6593086549,
				"z": 0.756949809,
				"element": "C" 
			},
			{
				"x": 0.2342680773,
				"y": 0.2456757976,
				"z": -0.0912721006,
				"element": "C" 
			},
			{
				"x": 0.18222159,
				"y": 1.6163440298,
				"z": 0.196147845,
				"element": "C" 
			},
			{
				"x": -0.5389886387,
				"y": 2.0821874034,
				"z": 1.2855615734,
				"element": "C" 
			},
			{
				"x": -1.2110671861,
				"y": 1.2069554397,
				"z": 2.1392242889,
				"element": "C" 
			},
			{
				"x": -1.1635311338,
				"y": -0.1506034324,
				"z": 1.8715748306,
				"element": "C" 
			},
			{
				"x": -0.584302646,
				"y": 3.523770719,
				"z": 1.5533883625,
				"element": "N" 
			},
			{
				"x": 0.0050627377,
				"y": 4.2699129717,
				"z": 0.7720575099,
				"element": "O" 
			},
			{
				"x": -1.2097645356,
				"y": 3.896854988,
				"z": 2.5463947458,
				"element": "O" 
			},
			{
				"x": 1.0384101234,
				"y": -0.2105118171,
				"z": -1.2622544851,
				"element": "C" 
			},
			{
				"x": 0.6714011984,
				"y": -1.1262980803,
				"z": -2.0829176771,
				"element": "N" 
			},
			{
				"x": -0.63014677,
				"y": -1.744943746,
				"z": -1.885426299,
				"element": "C" 
			},
			{
				"x": -0.6009262969,
				"y": -2.6757123146,
				"z": -0.6790769568,
				"element": "C" 
			},
			{
				"x": -0.7160492751,
				"y": -3.8836779925,
				"z": -0.7659463128,
				"element": "O" 
			},
			{
				"x": 2.3592480502,
				"y": 0.4461884959,
				"z": -1.4912748697,
				"element": "C" 
			},
			{
				"x": 3.2363552228,
				"y": 0.7029983655,
				"z": -0.4234967962,
				"element": "C" 
			},
			{
				"x": 4.4933288405,
				"y": 1.266263563,
				"z": -0.6314259767,
				"element": "C" 
			},
			{
				"x": 4.8960967015,
				"y": 1.6030613286,
				"z": -1.9254192542,
				"element": "C" 
			},
			{
				"x": 4.0419997843,
				"y": 1.3753178002,
				"z": -3.0035084989,
				"element": "C" 
			},
			{
				"x": 2.7959727415,
				"y": 0.8013748429,
				"z": -2.7768193142,
				"element": "C" 
			},
			{
				"x": 1.9879597313,
				"y": 0.6235910899,
				"z": -3.8347305229,
				"element": "F" 
			},
			{
				"x": 0.1014061853,
				"y": -2.4969526669,
				"z": 2.5486140133,
				"element": "H" 
			},
			{
				"x": -0.0322693463,
				"y": -3.8942065016,
				"z": 1.4414160608,
				"element": "H" 
			},
			{
				"x": -1.4978253781,
				"y": -3.1310422374,
				"z": 2.0656029959,
				"element": "H" 
			},
			{
				"x": 0.7131669023,
				"y": 2.3258565712,
				"z": -0.4257380122,
				"element": "H" 
			},
			{
				"x": -1.7622608871,
				"y": 1.6000596337,
				"z": 2.9842086044,
				"element": "H" 
			},
			{
				"x": -1.6949382223,
				"y": -0.8342844073,
				"z": 2.5222902393,
				"element": "H" 
			},
			{
				"x": -0.870622015,
				"y": -2.362668419,
				"z": -2.7507227945,
				"element": "H" 
			},
			{
				"x": -1.4276177121,
				"y": -0.9979879336,
				"z": -1.7489276869,
				"element": "H" 
			},
			{
				"x": 2.9247806875,
				"y": 0.4392067363,
				"z": 0.5824068713,
				"element": "H" 
			},
			{
				"x": 5.1539863362,
				"y": 1.4418911644,
				"z": 0.2114045084,
				"element": "H" 
			},
			{
				"x": 5.8714976176,
				"y": 2.0475688023,
				"z": -2.0980274843,
				"element": "H" 
			},
			{
				"x": 4.3178493506,
				"y": 1.6373448768,
				"z": -4.0191442963,
				"element": "H" 
			}
		],
		 "valence_orbital": [ 
			{
				"type": "occ",
				"energy": -0.27975,
				"method": "rhf"
			},
			{
				"type": "occ",
				"energy": -0.26708,
				"method": "rhf"
			},
			{
				"type": "occ",
				"energy": -0.26024,
				"method": "rhf"
			},
			{
				"type": "occ",
				"energy": -0.25107,
				"method": "rhf"
			},
			{
				"type": "occ",
				"energy": -0.25017,
				"method": "rhf"
			},
			{
				"type": "unocc",
				"energy": -0.09669,
				"method": "rhf"
			},
			{
				"type": "unocc",
				"energy": -0.0694,
				"method": "rhf"
			},
			{
				"type": "unocc",
				"energy": -0.03801,
				"method": "rhf"
			},
			{
				"type": "unocc",
				"energy": -0.02031,
				"method": "rhf"
			},
			{
				"type": "unocc",
				"energy": -0.01029,
				"method": "rhf"
			}
		],
		"cosmo_sigma_profile": { 
			"-0.025": 0.0,
			"-0.024": 0.0,
			"-0.023": 0.0,
			"-0.022": 0.0,
			"-0.021": 0.0,
			"-0.02": 0.0,
			"-0.019": 0.0,
			"-0.018": 0.0,
			"-0.017": 0.0,
			"-0.016": 0.0,
			"-0.015": 0.0,
			"-0.014": 0.0,
			"-0.013": 0.0,
			"-0.012": 0.0,
			"-0.011": 0.0,
			"-0.01": 0.0,
			"-0.009": 0.533402440778,
			"-0.008": 5.18157866307,
			"-0.007": 14.9332760326,
			"-0.006": 24.3656897787,
			"-0.005": 25.8882340792,
			"-0.004": 26.8560912446,
			"-0.003": 25.7733311356,
			"-0.002": 24.1518736548,
			"-0.001": 24.6801000812,
			"0.0": 20.8947295286,
			"0.001": 16.2254024304,
			"0.002": 15.7664266586,
			"0.003": 16.420160768,
			"0.004": 17.6721527566,
			"0.005": 8.98743923593,
			"0.006": 6.37540757737,
			"0.007": 11.2949273498,
			"0.008": 10.854424107,
			"0.009": 6.7443998542,
			"0.01": 5.53389894889,
			"0.011": 4.09156345939,
			"0.012": 5.6199521844,
			"0.013": 1.78066933343,
			"0.014": 0.795726133348,
			"0.015": 0.256307510527,
			"0.016": 0.0,
			"0.017": 0.0,
			"0.018": 0.0,
			"0.019": 0.0,
			"0.02": 0.0,
			"0.021": 0.0,
			"0.022": 0.0,
			"0.023": 0.0,
			"0.024": 0.0,
			"0.025": 0.0
		}
	}
}
