{
	 "smiles": "FC1=CC=C(C=C1)C1(CCC(=O)CC1)C#N", 
	 "Tm": 366.15, 
	 "num_atms": 28, 
	 "gaussian": { 
		 "optdone": 1, 
		 "sigma_profile": "yes", 
		 "theory": "DFT", 
		 "functional": "B3LYP", 
		 "basiset": "6-31G**", 
		 "properties": { 
			 "R2extent": 4787.8029, 
			 "electric_dipole_moment_norm": 2.53141321202, 
			 "electric_quadrupole_moment_norm": 16.298679029, 
			 "total_energy": -732.410524183, 
			 "HOMO_LUMO_gap": 0.22058, 
			 "cosmo_polarized_energy": -13.77, 
			 "cosmo_cavitation_energy": 31.56, 
			 "cosmo_dispersion_energy": -22.02, 
			 "cosmo_repulsion_energy": 1.68, 
			 "cosmo_total_nonelectrostatic_energy": 11.22, 
			 "SMD_solvation_energy": 6.95 
		},
		"coords": [
			{
				"x": -4.346826838,
				"y": 3.6850682301,
				"z": -0.1572966696,
				"element": "F" 
			},
			{
				"x": -3.2074160102,
				"y": 2.9671166118,
				"z": -0.1149419948,
				"element": "C" 
			},
			{
				"x": -1.9917275547,
				"y": 3.6341078486,
				"z": -0.0110872617,
				"element": "C" 
			},
			{
				"x": -0.8178952916,
				"y": 2.8851576024,
				"z": 0.0319619235,
				"element": "C" 
			},
			{
				"x": -0.8445131103,
				"y": 1.4826831715,
				"z": -0.0273818878,
				"element": "C" 
			},
			{
				"x": -2.0884047396,
				"y": 0.8471442711,
				"z": -0.1316512103,
				"element": "C" 
			},
			{
				"x": -3.2740677367,
				"y": 1.5819810823,
				"z": -0.1759507004,
				"element": "C" 
			},
			{
				"x": 0.4782508441,
				"y": 0.6962389449,
				"z": 0.0214791235,
				"element": "C" 
			},
			{
				"x": 1.2454419325,
				"y": 0.9755320914,
				"z": 1.3529085121,
				"element": "C" 
			},
			{
				"x": 2.6133091755,
				"y": 0.270627208,
				"z": 1.4205472078,
				"element": "C" 
			},
			{
				"x": 3.4722391293,
				"y": 0.5565347245,
				"z": 0.194969792,
				"element": "C" 
			},
			{
				"x": 4.6365673386,
				"y": 0.8944286377,
				"z": 0.2781420042,
				"element": "O" 
			},
			{
				"x": 2.7667355484,
				"y": 0.3731193668,
				"z": -1.1430854129,
				"element": "C" 
			},
			{
				"x": 1.3970899378,
				"y": 1.0765569644,
				"z": -1.1827204625,
				"element": "C" 
			},
			{
				"x": 0.2149527258,
				"y": -0.755433551,
				"z": -0.0519093314,
				"element": "C" 
			},
			{
				"x": 0.0511106424,
				"y": -1.903813201,
				"z": -0.1073695552,
				"element": "N" 
			},
			{
				"x": -1.9748330453,
				"y": 4.7175048594,
				"z": 0.0343733439,
				"element": "H" 
			},
			{
				"x": 0.1266084485,
				"y": 3.4143748157,
				"z": 0.1128857902,
				"element": "H" 
			},
			{
				"x": -2.1415288095,
				"y": -0.2354667478,
				"z": -0.1795359835,
				"element": "H" 
			},
			{
				"x": -4.2384305349,
				"y": 1.0925308607,
				"z": -0.2567173747,
				"element": "H" 
			},
			{
				"x": 1.3887220079,
				"y": 2.0584307872,
				"z": 1.4286812093,
				"element": "H" 
			},
			{
				"x": 0.6216022133,
				"y": 0.6785504697,
				"z": 2.2012394203,
				"element": "H" 
			},
			{
				"x": 2.4593724592,
				"y": -0.8160760678,
				"z": 1.4741594331,
				"element": "H" 
			},
			{
				"x": 3.1673433914,
				"y": 0.5722233622,
				"z": 2.3128974136,
				"element": "H" 
			},
			{
				"x": 2.6258844984,
				"y": -0.7051909931,
				"z": -1.3010002102,
				"element": "H" 
			},
			{
				"x": 3.4216242577,
				"y": 0.7423888194,
				"z": -1.9361517735,
				"element": "H" 
			},
			{
				"x": 0.8799933882,
				"y": 0.850765423,
				"z": -2.1201010488,
				"element": "H" 
			},
			{
				"x": 1.5429957316,
				"y": 2.1614144079,
				"z": -1.1547442961,
				"element": "H" 
			}
		],
		 "valence_orbital": [ 
			{
				"type": "occ",
				"energy": -0.33189,
				"method": "rhf"
			},
			{
				"type": "occ",
				"energy": -0.3317,
				"method": "rhf"
			},
			{
				"type": "occ",
				"energy": -0.27549,
				"method": "rhf"
			},
			{
				"type": "occ",
				"energy": -0.2561,
				"method": "rhf"
			},
			{
				"type": "occ",
				"energy": -0.24896,
				"method": "rhf"
			},
			{
				"type": "unocc",
				"energy": -0.02838,
				"method": "rhf"
			},
			{
				"type": "unocc",
				"energy": -0.02681,
				"method": "rhf"
			},
			{
				"type": "unocc",
				"energy": -0.01698,
				"method": "rhf"
			},
			{
				"type": "unocc",
				"energy": 0.0206,
				"method": "rhf"
			},
			{
				"type": "unocc",
				"energy": 0.02579,
				"method": "rhf"
			}
		],
		"cosmo_sigma_profile": { 
			"-0.025": 0.0,
			"-0.024": 0.0,
			"-0.023": 0.0,
			"-0.022": 0.0,
			"-0.021": 0.0,
			"-0.02": 0.0,
			"-0.019": 0.0,
			"-0.018": 0.0,
			"-0.017": 0.0,
			"-0.016": 0.0,
			"-0.015": 0.0,
			"-0.014": 0.0,
			"-0.013": 0.0,
			"-0.012": 0.0,
			"-0.011": 0.115736997822,
			"-0.01": 0.606207713947,
			"-0.009": 1.35624834957,
			"-0.008": 4.07153580553,
			"-0.007": 9.56779571667,
			"-0.006": 15.0217091858,
			"-0.005": 24.2260228096,
			"-0.004": 23.9690126002,
			"-0.003": 22.5739473206,
			"-0.002": 20.2359867255,
			"-0.001": 12.8152309611,
			"0.0": 12.5705129142,
			"0.001": 13.9515631797,
			"0.002": 14.4725018258,
			"0.003": 16.8410361039,
			"0.004": 16.4131379768,
			"0.005": 5.63643737612,
			"0.006": 3.89540813824,
			"0.007": 3.22834373061,
			"0.008": 3.97322681745,
			"0.009": 3.7477389693,
			"0.01": 5.42254355142,
			"0.011": 6.27216876025,
			"0.012": 6.68871123409,
			"0.013": 3.28098133387,
			"0.014": 0.0341368488262,
			"0.015": 0.0,
			"0.016": 0.0,
			"0.017": 0.0,
			"0.018": 0.0,
			"0.019": 0.0,
			"0.02": 0.0,
			"0.021": 0.0,
			"0.022": 0.0,
			"0.023": 0.0,
			"0.024": 0.0,
			"0.025": 0.0
		}
	}
}
