{
	 "smiles": "NCC(O)C1=CC=C(OC(F)F)C=C1", 
	 "Tm": 328.15, 
	 "num_atms": 25, 
	 "gaussian": { 
		 "optdone": 1, 
		 "sigma_profile": "yes", 
		 "theory": "DFT", 
		 "functional": "B3LYP", 
		 "basiset": "6-31G**", 
		 "properties": { 
			 "R2extent": 4699.0079, 
			 "electric_dipole_moment_norm": 1.85942733389, 
			 "electric_quadrupole_moment_norm": 15.0887833943, 
			 "total_energy": -754.448008379, 
			 "HOMO_LUMO_gap": 0.22028, 
			 "cosmo_polarized_energy": -12.03, 
			 "cosmo_cavitation_energy": 29.48, 
			 "cosmo_dispersion_energy": -21.11, 
			 "cosmo_repulsion_energy": 1.66, 
			 "cosmo_total_nonelectrostatic_energy": 10.03, 
			 "SMD_solvation_energy": 5.16 
		},
		"coords": [
			{
				"x": -0.3838338568,
				"y": 3.030205635,
				"z": -3.5034300634,
				"element": "N" 
			},
			{
				"x": -0.0139465802,
				"y": 3.6352346783,
				"z": -2.2236874901,
				"element": "C" 
			},
			{
				"x": -0.5887679978,
				"y": 2.824737218,
				"z": -1.0502554751,
				"element": "C" 
			},
			{
				"x": -0.2688360562,
				"y": 3.5742203938,
				"z": 0.1192912051,
				"element": "O" 
			},
			{
				"x": -0.0362388851,
				"y": 1.4085536165,
				"z": -0.9936020145,
				"element": "C" 
			},
			{
				"x": -0.6732285436,
				"y": 0.3595752981,
				"z": -1.6735787456,
				"element": "C" 
			},
			{
				"x": -0.148606485,
				"y": -0.9299176146,
				"z": -1.6541678719,
				"element": "C" 
			},
			{
				"x": 1.0193746303,
				"y": -1.1865136923,
				"z": -0.9335833467,
				"element": "C" 
			},
			{
				"x": 1.4604975563,
				"y": -2.5032134388,
				"z": -0.9396244257,
				"element": "O" 
			},
			{
				"x": 2.8063775659,
				"y": -2.7334622841,
				"z": -0.8148976292,
				"element": "C" 
			},
			{
				"x": 3.1929695567,
				"y": -2.6686583126,
				"z": 0.4940012952,
				"element": "F" 
			},
			{
				"x": 3.0278571337,
				"y": -3.9909854685,
				"z": -1.2369761919,
				"element": "F" 
			},
			{
				"x": 1.6615221529,
				"y": -0.1647456662,
				"z": -0.2303657116,
				"element": "C" 
			},
			{
				"x": 1.1324787043,
				"y": 1.1266757676,
				"z": -0.2777519241,
				"element": "C" 
			},
			{
				"x": 0.1771171081,
				"y": 2.198596092,
				"z": -3.6703015985,
				"element": "H" 
			},
			{
				"x": -0.1797219407,
				"y": 3.6741883896,
				"z": -4.2620044919,
				"element": "H" 
			},
			{
				"x": -0.4540659546,
				"y": 4.6363811628,
				"z": -2.1698784449,
				"element": "H" 
			},
			{
				"x": 1.0706159831,
				"y": 3.7485376165,
				"z": -2.0580110961,
				"element": "H" 
			},
			{
				"x": -1.6781230997,
				"y": 2.7708755271,
				"z": -1.1970599665,
				"element": "H" 
			},
			{
				"x": -0.6189028043,
				"y": 3.0941384638,
				"z": 0.8812219309,
				"element": "H" 
			},
			{
				"x": -1.5834196171,
				"y": 0.5603209688,
				"z": -2.2315874317,
				"element": "H" 
			},
			{
				"x": -0.630519999,
				"y": -1.7461580277,
				"z": -2.1819825706,
				"element": "H" 
			},
			{
				"x": 3.4164008095,
				"y": -2.0244316382,
				"z": -1.3878300119,
				"element": "H" 
			},
			{
				"x": 2.5397265228,
				"y": -0.3761948201,
				"z": 0.3681159047,
				"element": "H" 
			},
			{
				"x": 1.6201740964,
				"y": 1.9289401353,
				"z": 0.267146166,
				"element": "H" 
			}
		],
		 "valence_orbital": [ 
			{
				"type": "occ",
				"energy": -0.32536,
				"method": "rhf"
			},
			{
				"type": "occ",
				"energy": -0.27929,
				"method": "rhf"
			},
			{
				"type": "occ",
				"energy": -0.26322,
				"method": "rhf"
			},
			{
				"type": "occ",
				"energy": -0.24178,
				"method": "rhf"
			},
			{
				"type": "occ",
				"energy": -0.23599,
				"method": "rhf"
			},
			{
				"type": "unocc",
				"energy": -0.01571,
				"method": "rhf"
			},
			{
				"type": "unocc",
				"energy": -0.00881,
				"method": "rhf"
			},
			{
				"type": "unocc",
				"energy": 0.07954,
				"method": "rhf"
			},
			{
				"type": "unocc",
				"energy": 0.08849,
				"method": "rhf"
			},
			{
				"type": "unocc",
				"energy": 0.09803,
				"method": "rhf"
			}
		],
		"cosmo_sigma_profile": { 
			"-0.025": 0.0,
			"-0.024": 0.0,
			"-0.023": 0.0,
			"-0.022": 0.0,
			"-0.021": 0.0,
			"-0.02": 0.0,
			"-0.019": 0.0,
			"-0.018": 0.0,
			"-0.017": 0.0,
			"-0.016": 0.0669406215802,
			"-0.015": 1.29631187851,
			"-0.014": 0.495959045458,
			"-0.013": 0.71486894752,
			"-0.012": 0.652292139339,
			"-0.011": 1.3585343338,
			"-0.01": 3.97566556748,
			"-0.009": 5.68773826681,
			"-0.008": 4.03293173487,
			"-0.007": 6.89018488598,
			"-0.006": 9.430233775,
			"-0.005": 11.6101845683,
			"-0.004": 16.221500808,
			"-0.003": 13.7714698278,
			"-0.002": 13.9828088341,
			"-0.001": 16.4067724703,
			"0.0": 13.8148014959,
			"0.001": 13.8782393082,
			"0.002": 15.7412521359,
			"0.003": 26.321502618,
			"0.004": 25.9257258252,
			"0.005": 7.13662217666,
			"0.006": 3.62085284389,
			"0.007": 2.39559949019,
			"0.008": 3.2592103811,
			"0.009": 2.92497310326,
			"0.01": 1.75413035826,
			"0.011": 1.3829688662,
			"0.012": 1.73238441568,
			"0.013": 2.33997781155,
			"0.014": 1.16014609995,
			"0.015": 0.786339297431,
			"0.016": 0.647435572455,
			"0.017": 0.468923927801,
			"0.018": 0.248464613057,
			"0.019": 0.234519561256,
			"0.02": 0.0,
			"0.021": 0.0,
			"0.022": 0.0,
			"0.023": 0.0,
			"0.024": 0.0,
			"0.025": 0.0
		}
	}
}
