{
	 "smiles": "CCC(C)C=C", 
	 "Tm": 119.15, 
	 "num_atms": 18, 
	 "gaussian": { 
		 "optdone": 1, 
		 "sigma_profile": "yes", 
		 "theory": "DFT", 
		 "functional": "B3LYP", 
		 "basiset": "6-31G**", 
		 "properties": { 
			 "R2extent": 784.7399, 
			 "electric_dipole_moment_norm": 0.407252378753, 
			 "electric_quadrupole_moment_norm": 1.36824484286, 
			 "total_energy": -235.859512216, 
			 "HOMO_LUMO_gap": 0.27587, 
			 "cosmo_polarized_energy": -1.55, 
			 "cosmo_cavitation_energy": 19.78, 
			 "cosmo_dispersion_energy": -14.23, 
			 "cosmo_repulsion_energy": 1.22, 
			 "cosmo_total_nonelectrostatic_energy": 6.77, 
			 "SMD_solvation_energy": 4.17 
		},
		"coords": [
			{
				"x": -0.7866032053,
				"y": -2.573064257,
				"z": -0.2626356178,
				"element": "C" 
			},
			{
				"x": 0.1126828007,
				"y": -1.4483524999,
				"z": 0.2620347015,
				"element": "C" 
			},
			{
				"x": -0.4193924485,
				"y": -0.0166530943,
				"z": -0.0008321328,
				"element": "C" 
			},
			{
				"x": -0.5073494719,
				"y": 0.3109667221,
				"z": -1.4959241782,
				"element": "C" 
			},
			{
				"x": 0.4022857638,
				"y": 0.9781394156,
				"z": 0.7891348242,
				"element": "C" 
			},
			{
				"x": 1.0839824113,
				"y": 2.0230484672,
				"z": 0.3177371332,
				"element": "C" 
			},
			{
				"x": -1.7981473464,
				"y": -2.4975988781,
				"z": 0.1535323136,
				"element": "H" 
			},
			{
				"x": -0.8743139709,
				"y": -2.5558270453,
				"z": -1.3534133135,
				"element": "H" 
			},
			{
				"x": -0.3864851804,
				"y": -3.5532964037,
				"z": 0.0165974184,
				"element": "H" 
			},
			{
				"x": 1.1154972959,
				"y": -1.5351929961,
				"z": -0.1771414746,
				"element": "H" 
			},
			{
				"x": 0.2446286168,
				"y": -1.5766569986,
				"z": 1.3444141656,
				"element": "H" 
			},
			{
				"x": -1.441297197,
				"y": 0.0188751475,
				"z": 0.4130676218,
				"element": "H" 
			},
			{
				"x": 0.4781422841,
				"y": 0.2494481045,
				"z": -1.9718801991,
				"element": "H" 
			},
			{
				"x": -0.8957745621,
				"y": 1.3214124587,
				"z": -1.6570171245,
				"element": "H" 
			},
			{
				"x": -1.1725853812,
				"y": -0.3842843271,
				"z": -2.0150211372,
				"element": "H" 
			},
			{
				"x": 0.4317683739,
				"y": 0.7845806354,
				"z": 1.8630692916,
				"element": "H" 
			},
			{
				"x": 1.1048157517,
				"y": 2.2795016699,
				"z": -0.7372553148,
				"element": "H" 
			},
			{
				"x": 1.6507454658,
				"y": 2.6696538793,
				"z": 0.9813330227,
				"element": "H" 
			}
		],
		 "valence_orbital": [ 
			{
				"type": "occ",
				"energy": -0.34671,
				"method": "rhf"
			},
			{
				"type": "occ",
				"energy": -0.32795,
				"method": "rhf"
			},
			{
				"type": "occ",
				"energy": -0.32119,
				"method": "rhf"
			},
			{
				"type": "occ",
				"energy": -0.31828,
				"method": "rhf"
			},
			{
				"type": "occ",
				"energy": -0.24875,
				"method": "rhf"
			},
			{
				"type": "unocc",
				"energy": 0.02712,
				"method": "rhf"
			},
			{
				"type": "unocc",
				"energy": 0.08988,
				"method": "rhf"
			},
			{
				"type": "unocc",
				"energy": 0.11984,
				"method": "rhf"
			},
			{
				"type": "unocc",
				"energy": 0.13338,
				"method": "rhf"
			},
			{
				"type": "unocc",
				"energy": 0.13967,
				"method": "rhf"
			}
		],
		"cosmo_sigma_profile": { 
			"-0.025": 0.0,
			"-0.024": 0.0,
			"-0.023": 0.0,
			"-0.022": 0.0,
			"-0.021": 0.0,
			"-0.02": 0.0,
			"-0.019": 0.0,
			"-0.018": 0.0,
			"-0.017": 0.0,
			"-0.016": 0.0,
			"-0.015": 0.0,
			"-0.014": 0.0,
			"-0.013": 0.0,
			"-0.012": 0.0,
			"-0.011": 0.0,
			"-0.01": 0.0,
			"-0.009": 0.0,
			"-0.008": 0.0,
			"-0.007": 0.0,
			"-0.006": 0.0,
			"-0.005": 0.460017936545,
			"-0.004": 4.15600773797,
			"-0.003": 13.6423985844,
			"-0.002": 26.4790692736,
			"-0.001": 26.089829718,
			"0.0": 26.8358680529,
			"0.001": 25.5057013938,
			"0.002": 12.0892417505,
			"0.003": 4.2123899726,
			"0.004": 3.98198450032,
			"0.005": 3.53615883728,
			"0.006": 2.3768893242,
			"0.007": 2.67956321514,
			"0.008": 1.16829935135,
			"0.009": 0.0200550454063,
			"0.01": 0.0,
			"0.011": 0.0,
			"0.012": 0.0,
			"0.013": 0.0,
			"0.014": 0.0,
			"0.015": 0.0,
			"0.016": 0.0,
			"0.017": 0.0,
			"0.018": 0.0,
			"0.019": 0.0,
			"0.02": 0.0,
			"0.021": 0.0,
			"0.022": 0.0,
			"0.023": 0.0,
			"0.024": 0.0,
			"0.025": 0.0
		}
	}
}
