{
	 "smiles": "CN1C=NN(C1=O)C1=CC=C(N)C=C1", 
	 "Tm": 433.15, 
	 "num_atms": 24, 
	 "gaussian": { 
		 "optdone": 1, 
		 "sigma_profile": "yes", 
		 "theory": "DFT", 
		 "functional": "B3LYP", 
		 "basiset": "6-31G**", 
		 "properties": { 
			 "R2extent": 3574.3637, 
			 "electric_dipole_moment_norm": 2.28675831692, 
			 "electric_quadrupole_moment_norm": 25.3489265045, 
			 "total_energy": -643.215399446, 
			 "HOMO_LUMO_gap": 0.18262, 
			 "cosmo_polarized_energy": -17.16, 
			 "cosmo_cavitation_energy": 28.19, 
			 "cosmo_dispersion_energy": -21.07, 
			 "cosmo_repulsion_energy": 1.63, 
			 "cosmo_total_nonelectrostatic_energy": 8.75, 
			 "SMD_solvation_energy": 5.55 
		},
		"coords": [
			{
				"x": -1.1606580238,
				"y": 2.3273609787,
				"z": 3.3559269897,
				"element": "C" 
			},
			{
				"x": -0.2697884691,
				"y": 1.9919513977,
				"z": 2.2621683257,
				"element": "N" 
			},
			{
				"x": 0.7317943623,
				"y": 2.7337618099,
				"z": 1.6956580386,
				"element": "C" 
			},
			{
				"x": 1.3280147637,
				"y": 2.1100617599,
				"z": 0.7258903043,
				"element": "N" 
			},
			{
				"x": 0.6860323145,
				"y": 0.8870716697,
				"z": 0.6447974845,
				"element": "N" 
			},
			{
				"x": -0.3266815246,
				"y": 0.7651867211,
				"z": 1.5906437833,
				"element": "C" 
			},
			{
				"x": -1.1029646377,
				"y": -0.1534687515,
				"z": 1.8234785285,
				"element": "O" 
			},
			{
				"x": 1.0913650048,
				"y": -0.0683327201,
				"z": -0.3280708618,
				"element": "C" 
			},
			{
				"x": 0.4607102682,
				"y": -1.3156668716,
				"z": -0.4229011071,
				"element": "C" 
			},
			{
				"x": 0.8773731566,
				"y": -2.2291839221,
				"z": -1.3869056137,
				"element": "C" 
			},
			{
				"x": 1.9229110398,
				"y": -1.930878574,
				"z": -2.2746643619,
				"element": "C" 
			},
			{
				"x": 2.3740812608,
				"y": -2.8774297059,
				"z": -3.2019531634,
				"element": "N" 
			},
			{
				"x": 2.5436714938,
				"y": -0.6757022685,
				"z": -2.1640941209,
				"element": "C" 
			},
			{
				"x": 2.1360156802,
				"y": 0.2450345818,
				"z": -1.2054142373,
				"element": "C" 
			},
			{
				"x": -1.0488050919,
				"y": 1.6062867206,
				"z": 4.1700111012,
				"element": "H" 
			},
			{
				"x": -2.2005172932,
				"y": 2.3083359577,
				"z": 3.0186363097,
				"element": "H" 
			},
			{
				"x": -0.9158519946,
				"y": 3.3265356872,
				"z": 3.7201661669,
				"element": "H" 
			},
			{
				"x": 0.9942884649,
				"y": 3.729777517,
				"z": 2.0234375656,
				"element": "H" 
			},
			{
				"x": -0.3485750655,
				"y": -1.5597771152,
				"z": 0.2524306533,
				"element": "H" 
			},
			{
				"x": 0.3824352869,
				"y": -3.195400206,
				"z": -1.4478538998,
				"element": "H" 
			},
			{
				"x": 1.6852964315,
				"y": -3.5682680318,
				"z": -3.4680851686,
				"element": "H" 
			},
			{
				"x": 2.8358785203,
				"y": -2.487399883,
				"z": -4.0125928192,
				"element": "H" 
			},
			{
				"x": 3.3595707097,
				"y": -0.4192508312,
				"z": -2.8355122759,
				"element": "H" 
			},
			{
				"x": 2.6209033425,
				"y": 1.2103940795,
				"z": -1.1312976218,
				"element": "H" 
			}
		],
		 "valence_orbital": [ 
			{
				"type": "occ",
				"energy": -0.28502,
				"method": "rhf"
			},
			{
				"type": "occ",
				"energy": -0.2589,
				"method": "rhf"
			},
			{
				"type": "occ",
				"energy": -0.24155,
				"method": "rhf"
			},
			{
				"type": "occ",
				"energy": -0.23213,
				"method": "rhf"
			},
			{
				"type": "occ",
				"energy": -0.18287,
				"method": "rhf"
			},
			{
				"type": "unocc",
				"energy": -0.00025,
				"method": "rhf"
			},
			{
				"type": "unocc",
				"energy": 0.00888,
				"method": "rhf"
			},
			{
				"type": "unocc",
				"energy": 0.03285,
				"method": "rhf"
			},
			{
				"type": "unocc",
				"energy": 0.07191,
				"method": "rhf"
			},
			{
				"type": "unocc",
				"energy": 0.08703,
				"method": "rhf"
			}
		],
		"cosmo_sigma_profile": { 
			"-0.025": 0.0,
			"-0.024": 0.0,
			"-0.023": 0.0,
			"-0.022": 0.0,
			"-0.021": 0.0,
			"-0.02": 0.0,
			"-0.019": 0.0,
			"-0.018": 0.0,
			"-0.017": 0.0,
			"-0.016": 0.0,
			"-0.015": 0.0,
			"-0.014": 0.0,
			"-0.013": 0.172445726575,
			"-0.012": 2.60928013516,
			"-0.011": 4.77222340121,
			"-0.01": 5.57067682572,
			"-0.009": 5.84029166832,
			"-0.008": 5.94718938902,
			"-0.007": 7.16533256577,
			"-0.006": 11.3376173271,
			"-0.005": 13.0359141394,
			"-0.004": 14.2997861236,
			"-0.003": 19.6737516954,
			"-0.002": 13.2679351575,
			"-0.001": 8.79430248008,
			"0.0": 10.3052494243,
			"0.001": 9.3642895193,
			"0.002": 10.7527850135,
			"0.003": 13.8067108572,
			"0.004": 11.916039268,
			"0.005": 12.88996574,
			"0.006": 14.1792190137,
			"0.007": 4.76662462096,
			"0.008": 2.86284747812,
			"0.009": 4.1383727064,
			"0.01": 3.67077166889,
			"0.011": 3.49152009924,
			"0.012": 2.98370249352,
			"0.013": 5.17728026019,
			"0.014": 1.96306645529,
			"0.015": 0.416583545336,
			"0.016": 0.0,
			"0.017": 0.0,
			"0.018": 0.0,
			"0.019": 0.0,
			"0.02": 0.0,
			"0.021": 0.0,
			"0.022": 0.0,
			"0.023": 0.0,
			"0.024": 0.0,
			"0.025": 0.0
		}
	}
}
