{
	 "smiles": "OC(=O)C1(CCCC1)C1=CC=C(F)C=C1", 
	 "Tm": 435.15, 
	 "num_atms": 28, 
	 "gaussian": { 
		 "optdone": 1, 
		 "sigma_profile": "yes", 
		 "theory": "DFT", 
		 "functional": "B3LYP", 
		 "basiset": "6-31G**", 
		 "properties": { 
			 "R2extent": 3997.5961, 
			 "electric_dipole_moment_norm": 3.57050224338, 
			 "electric_quadrupole_moment_norm": 16.4684142275, 
			 "total_energy": -715.406641853, 
			 "HOMO_LUMO_gap": 0.21933, 
			 "cosmo_polarized_energy": -11.99, 
			 "cosmo_cavitation_energy": 30.08, 
			 "cosmo_dispersion_energy": -21.39, 
			 "cosmo_repulsion_energy": 1.64, 
			 "cosmo_total_nonelectrostatic_energy": 10.33, 
			 "SMD_solvation_energy": 6.16 
		},
		"coords": [
			{
				"x": 0.2942366925,
				"y": -3.1250364714,
				"z": -0.9964348025,
				"element": "O" 
			},
			{
				"x": -0.601412466,
				"y": -2.1417137111,
				"z": -0.7414948633,
				"element": "C" 
			},
			{
				"x": -1.7459089983,
				"y": -2.4207456812,
				"z": -0.4749779903,
				"element": "O" 
			},
			{
				"x": -0.098023781,
				"y": -0.6872569211,
				"z": -0.8964104118,
				"element": "C" 
			},
			{
				"x": -0.546187768,
				"y": -0.1762327024,
				"z": -2.3002792681,
				"element": "C" 
			},
			{
				"x": -0.6651996736,
				"y": 1.3641777648,
				"z": -2.1745563492,
				"element": "C" 
			},
			{
				"x": -0.752837684,
				"y": 1.6552998232,
				"z": -0.6499006963,
				"element": "C" 
			},
			{
				"x": -0.8981202141,
				"y": 0.2773144976,
				"z": 0.020487319,
				"element": "C" 
			},
			{
				"x": 1.4093441459,
				"y": -0.5765424533,
				"z": -0.628847281,
				"element": "C" 
			},
			{
				"x": 2.3329793787,
				"y": -0.1015667934,
				"z": -1.5722962268,
				"element": "C" 
			},
			{
				"x": 3.6947978012,
				"y": -0.0005675918,
				"z": -1.2761525088,
				"element": "C" 
			},
			{
				"x": 4.1378939906,
				"y": -0.3855259569,
				"z": -0.0187841076,
				"element": "C" 
			},
			{
				"x": 5.4493518688,
				"y": -0.2926915054,
				"z": 0.2751440988,
				"element": "F" 
			},
			{
				"x": 3.2602843253,
				"y": -0.8699841253,
				"z": 0.9464342477,
				"element": "C" 
			},
			{
				"x": 1.906761676,
				"y": -0.9583714629,
				"z": 0.6336461815,
				"element": "C" 
			},
			{
				"x": 1.168943554,
				"y": -2.731400035,
				"z": -1.1437483412,
				"element": "H" 
			},
			{
				"x": -1.5317812862,
				"y": -0.6077895413,
				"z": -2.4972127467,
				"element": "H" 
			},
			{
				"x": 0.1091561724,
				"y": -0.5055102283,
				"z": -3.1117598443,
				"element": "H" 
			},
			{
				"x": 0.1969686729,
				"y": 1.871452734,
				"z": -2.6183216348,
				"element": "H" 
			},
			{
				"x": -1.5488059457,
				"y": 1.7221256395,
				"z": -2.7110831942,
				"element": "H" 
			},
			{
				"x": -1.5843032559,
				"y": 2.3190418943,
				"z": -0.3957372406,
				"element": "H" 
			},
			{
				"x": 0.1636741014,
				"y": 2.1463710933,
				"z": -0.3067013605,
				"element": "H" 
			},
			{
				"x": -0.5483169383,
				"y": 0.2654291237,
				"z": 1.0566034531,
				"element": "H" 
			},
			{
				"x": -1.9392895336,
				"y": -0.0571625989,
				"z": 0.0186679853,
				"element": "H" 
			},
			{
				"x": 1.9990941806,
				"y": 0.2061499405,
				"z": -2.5565027646,
				"element": "H" 
			},
			{
				"x": 4.4061066541,
				"y": 0.3714493879,
				"z": -2.00554458,
				"element": "H" 
			},
			{
				"x": 3.6400304116,
				"y": -1.1679395282,
				"z": 1.917683612,
				"element": "H" 
			},
			{
				"x": 1.2211639188,
				"y": -1.3383745912,
				"z": 1.3862793153,
				"element": "H" 
			}
		],
		 "valence_orbital": [ 
			{
				"type": "occ",
				"energy": -0.32391,
				"method": "rhf"
			},
			{
				"type": "occ",
				"energy": -0.30824,
				"method": "rhf"
			},
			{
				"type": "occ",
				"energy": -0.27697,
				"method": "rhf"
			},
			{
				"type": "occ",
				"energy": -0.27521,
				"method": "rhf"
			},
			{
				"type": "occ",
				"energy": -0.24923,
				"method": "rhf"
			},
			{
				"type": "unocc",
				"energy": -0.0299,
				"method": "rhf"
			},
			{
				"type": "unocc",
				"energy": -0.02051,
				"method": "rhf"
			},
			{
				"type": "unocc",
				"energy": 0.0103,
				"method": "rhf"
			},
			{
				"type": "unocc",
				"energy": 0.06551,
				"method": "rhf"
			},
			{
				"type": "unocc",
				"energy": 0.08621,
				"method": "rhf"
			}
		],
		"cosmo_sigma_profile": { 
			"-0.025": 0.0,
			"-0.024": 0.0,
			"-0.023": 0.0,
			"-0.022": 0.0,
			"-0.021": 0.0,
			"-0.02": 0.0,
			"-0.019": 0.0,
			"-0.018": 0.0,
			"-0.017": 0.0,
			"-0.016": 0.0,
			"-0.015": 0.132516966583,
			"-0.014": 0.650158203401,
			"-0.013": 0.435363037791,
			"-0.012": 0.826388603722,
			"-0.011": 0.842357558713,
			"-0.01": 1.43429763195,
			"-0.009": 0.77544218417,
			"-0.008": 1.7719752133,
			"-0.007": 9.03461815978,
			"-0.006": 10.6803010898,
			"-0.005": 12.2587715289,
			"-0.004": 11.3535553689,
			"-0.003": 18.3471377096,
			"-0.002": 25.172348067,
			"-0.001": 24.9539471691,
			"0.0": 24.7994054704,
			"0.001": 23.3450766229,
			"0.002": 12.5984885859,
			"0.003": 12.5265448674,
			"0.004": 13.4529170816,
			"0.005": 4.41912744646,
			"0.006": 2.57450969475,
			"0.007": 2.3763851537,
			"0.008": 2.88828671884,
			"0.009": 2.95636063187,
			"0.01": 4.20689148207,
			"0.011": 4.86773100325,
			"0.012": 5.19480040588,
			"0.013": 2.19714080653,
			"0.014": 0.16477071297,
			"0.015": 0.0,
			"0.016": 0.0,
			"0.017": 0.0,
			"0.018": 0.0,
			"0.019": 0.0,
			"0.02": 0.0,
			"0.021": 0.0,
			"0.022": 0.0,
			"0.023": 0.0,
			"0.024": 0.0,
			"0.025": 0.0
		}
	}
}
