{
	 "smiles": "CCOC(=O)C1=C(C)C=C(O)C=C1O", 
	 "Tm": 405.15, 
	 "num_atms": 26, 
	 "gaussian": { 
		 "optdone": 1, 
		 "sigma_profile": "yes", 
		 "theory": "DFT", 
		 "functional": "B3LYP", 
		 "basiset": "6-31G**", 
		 "properties": { 
			 "R2extent": 3549.8686, 
			 "electric_dipole_moment_norm": 1.90958170812, 
			 "electric_quadrupole_moment_norm": 8.90397788126, 
			 "total_energy": -689.216454571, 
			 "HOMO_LUMO_gap": 0.18641, 
			 "cosmo_polarized_energy": -11.85, 
			 "cosmo_cavitation_energy": 29.29, 
			 "cosmo_dispersion_energy": -21.62, 
			 "cosmo_repulsion_energy": 1.7, 
			 "cosmo_total_nonelectrostatic_energy": 9.37, 
			 "SMD_solvation_energy": 6.64 
		},
		"coords": [
			{
				"x": -2.8147422694,
				"y": -1.882130889,
				"z": -3.3169656494,
				"element": "C" 
			},
			{
				"x": -1.5101424835,
				"y": -1.1011473073,
				"z": -3.3128746422,
				"element": "C" 
			},
			{
				"x": -1.3606689349,
				"y": -0.3247161945,
				"z": -2.096981816,
				"element": "O" 
			},
			{
				"x": -0.8245306961,
				"y": -0.9744739945,
				"z": -0.9982606465,
				"element": "C" 
			},
			{
				"x": -0.4914077792,
				"y": -2.1408082594,
				"z": -1.0853632741,
				"element": "O" 
			},
			{
				"x": -0.7222782503,
				"y": -0.1116509523,
				"z": 0.1937269848,
				"element": "C" 
			},
			{
				"x": -0.1722546304,
				"y": -0.6483908274,
				"z": 1.4020178786,
				"element": "C" 
			},
			{
				"x": 0.3196376582,
				"y": -2.0727612472,
				"z": 1.5220279149,
				"element": "C" 
			},
			{
				"x": -0.0731018966,
				"y": 0.154213752,
				"z": 2.530340862,
				"element": "C" 
			},
			{
				"x": -0.505160416,
				"y": 1.4879689297,
				"z": 2.5088981802,
				"element": "C" 
			},
			{
				"x": -0.3711756533,
				"y": 2.2006623346,
				"z": 3.6586363527,
				"element": "O" 
			},
			{
				"x": -1.0426977633,
				"y": 2.0325334686,
				"z": 1.3509028478,
				"element": "C" 
			},
			{
				"x": -1.1546230336,
				"y": 1.2488029547,
				"z": 0.1975473468,
				"element": "C" 
			},
			{
				"x": -1.6908376725,
				"y": 1.8805411626,
				"z": -0.8657983663,
				"element": "O" 
			},
			{
				"x": -2.8161780802,
				"y": -2.6279706391,
				"z": -2.5189369882,
				"element": "H" 
			},
			{
				"x": -3.6720219558,
				"y": -1.215638448,
				"z": -3.1830733785,
				"element": "H" 
			},
			{
				"x": -2.9306618839,
				"y": -2.4017248144,
				"z": -4.2740244388,
				"element": "H" 
			},
			{
				"x": -1.481597243,
				"y": -0.3572585523,
				"z": -4.1127405949,
				"element": "H" 
			},
			{
				"x": -0.6490467501,
				"y": -1.765534519,
				"z": -3.4025598301,
				"element": "H" 
			},
			{
				"x": -0.4738896982,
				"y": -2.7933060586,
				"z": 1.3087383487,
				"element": "H" 
			},
			{
				"x": 1.1161522212,
				"y": -2.2870067622,
				"z": 0.8050609636,
				"element": "H" 
			},
			{
				"x": 0.6960677274,
				"y": -2.2491379378,
				"z": 2.5329035178,
				"element": "H" 
			},
			{
				"x": 0.3419542406,
				"y": -0.2388918064,
				"z": 3.4515841719,
				"element": "H" 
			},
			{
				"x": -0.701521691,
				"y": 3.0979286956,
				"z": 3.5174657733,
				"element": "H" 
			},
			{
				"x": -1.3857986606,
				"y": 3.0618567702,
				"z": 1.3039546304,
				"element": "H" 
			},
			{
				"x": -1.7211744054,
				"y": 1.2466411416,
				"z": -1.6088261485,
				"element": "H" 
			}
		],
		 "valence_orbital": [ 
			{
				"type": "occ",
				"energy": -0.30786,
				"method": "rhf"
			},
			{
				"type": "occ",
				"energy": -0.3015,
				"method": "rhf"
			},
			{
				"type": "occ",
				"energy": -0.27351,
				"method": "rhf"
			},
			{
				"type": "occ",
				"energy": -0.23445,
				"method": "rhf"
			},
			{
				"type": "occ",
				"energy": -0.22009,
				"method": "rhf"
			},
			{
				"type": "unocc",
				"energy": -0.03368,
				"method": "rhf"
			},
			{
				"type": "unocc",
				"energy": 0.00946,
				"method": "rhf"
			},
			{
				"type": "unocc",
				"energy": 0.06456,
				"method": "rhf"
			},
			{
				"type": "unocc",
				"energy": 0.067,
				"method": "rhf"
			},
			{
				"type": "unocc",
				"energy": 0.0981,
				"method": "rhf"
			}
		],
		"cosmo_sigma_profile": { 
			"-0.025": 0.0,
			"-0.024": 0.0,
			"-0.023": 0.0,
			"-0.022": 0.0,
			"-0.021": 0.0,
			"-0.02": 0.0,
			"-0.019": 0.231702204537,
			"-0.018": 0.818177895994,
			"-0.017": 0.986564826173,
			"-0.016": 1.43645235603,
			"-0.015": 0.910026756458,
			"-0.014": 0.548640184217,
			"-0.013": 0.779015436352,
			"-0.012": 1.08661810664,
			"-0.011": 1.37183800479,
			"-0.01": 1.04830514143,
			"-0.009": 1.19871805081,
			"-0.008": 1.66914450709,
			"-0.007": 2.58858358596,
			"-0.006": 6.81393231746,
			"-0.005": 10.5044360878,
			"-0.004": 16.6317276829,
			"-0.003": 19.7947307831,
			"-0.002": 20.060614467,
			"-0.001": 20.3853855013,
			"0.0": 25.1368100098,
			"0.001": 16.6855717593,
			"0.002": 12.6825385275,
			"0.003": 19.1124741092,
			"0.004": 12.5019228753,
			"0.005": 5.53963527852,
			"0.006": 5.12800256625,
			"0.007": 5.28549923108,
			"0.008": 3.98714063027,
			"0.009": 3.77755501466,
			"0.01": 5.72332098763,
			"0.011": 4.79695355565,
			"0.012": 2.16840688632,
			"0.013": 0.180184255459,
			"0.014": 0.0,
			"0.015": 0.0,
			"0.016": 0.0,
			"0.017": 0.0,
			"0.018": 0.0,
			"0.019": 0.0,
			"0.02": 0.0,
			"0.021": 0.0,
			"0.022": 0.0,
			"0.023": 0.0,
			"0.024": 0.0,
			"0.025": 0.0
		}
	}
}
