{
	 "smiles": "FC(F)(F)C(C(=O)NCC1=CC=CC=C1)C(F)(F)F", 
	 "Tm": 467.15, 
	 "num_atms": 28, 
	 "gaussian": { 
		 "optdone": 1, 
		 "sigma_profile": "yes", 
		 "theory": "DFT", 
		 "functional": "B3LYP", 
		 "basiset": "6-31G**", 
		 "properties": { 
			 "R2extent": 5366.2513, 
			 "electric_dipole_moment_norm": 2.93309247041, 
			 "electric_quadrupole_moment_norm": 11.8295313808, 
			 "total_energy": -1153.62935208, 
			 "HOMO_LUMO_gap": 0.23485, 
			 "cosmo_polarized_energy": -10.27, 
			 "cosmo_cavitation_energy": 34.17, 
			 "cosmo_dispersion_energy": -23.17, 
			 "cosmo_repulsion_energy": 1.67, 
			 "cosmo_total_nonelectrostatic_energy": 12.67, 
			 "SMD_solvation_energy": 8.0 
		},
		"coords": [
			{
				"x": -0.7500296738,
				"y": -2.5015290411,
				"z": 1.7890381304,
				"element": "F" 
			},
			{
				"x": -0.4538172033,
				"y": -1.8350901768,
				"z": 0.6573374739,
				"element": "C" 
			},
			{
				"x": -0.5540090372,
				"y": -2.6922128381,
				"z": -0.3721210077,
				"element": "F" 
			},
			{
				"x": -1.4069537561,
				"y": -0.8904112115,
				"z": 0.485927475,
				"element": "F" 
			},
			{
				"x": 0.9627609515,
				"y": -1.2626152091,
				"z": 0.7196063694,
				"element": "C" 
			},
			{
				"x": 1.4256274162,
				"y": -0.6272127096,
				"z": -0.6222846349,
				"element": "C" 
			},
			{
				"x": 2.202853232,
				"y": -1.2783928358,
				"z": -1.3061543512,
				"element": "O" 
			},
			{
				"x": 0.9446918507,
				"y": 0.5758243204,
				"z": -1.0378411743,
				"element": "N" 
			},
			{
				"x": 0.1797070536,
				"y": 1.6205076184,
				"z": -0.3509751222,
				"element": "C" 
			},
			{
				"x": -0.7625039173,
				"y": 2.3176796294,
				"z": -1.3119822701,
				"element": "C" 
			},
			{
				"x": -0.591898337,
				"y": 3.6702525207,
				"z": -1.6226772831,
				"element": "C" 
			},
			{
				"x": -1.4623482428,
				"y": 4.3119472241,
				"z": -2.5075717477,
				"element": "C" 
			},
			{
				"x": -2.5099420314,
				"y": 3.6015042856,
				"z": -3.0927880559,
				"element": "C" 
			},
			{
				"x": -2.6862762502,
				"y": 2.2482380707,
				"z": -2.788841698,
				"element": "C" 
			},
			{
				"x": -1.8188390915,
				"y": 1.6105274057,
				"z": -1.9042813085,
				"element": "C" 
			},
			{
				"x": 1.2348058725,
				"y": -0.4626791958,
				"z": 2.000717062,
				"element": "C" 
			},
			{
				"x": 0.1791533685,
				"y": 0.2679444021,
				"z": 2.4225447195,
				"element": "F" 
			},
			{
				"x": 1.5655713827,
				"y": -1.289716665,
				"z": 3.0073465065,
				"element": "F" 
			},
			{
				"x": 2.264726895,
				"y": 0.3880748708,
				"z": 1.8102986147,
				"element": "F" 
			},
			{
				"x": 1.6150898374,
				"y": -2.1350343307,
				"z": 0.790018291,
				"element": "H" 
			},
			{
				"x": 1.3493943666,
				"y": 0.8413329571,
				"z": -1.9285304147,
				"element": "H" 
			},
			{
				"x": -0.3861363244,
				"y": 1.1654201412,
				"z": 0.4581456805,
				"element": "H" 
			},
			{
				"x": 0.8628278942,
				"y": 2.3520535504,
				"z": 0.099333597,
				"element": "H" 
			},
			{
				"x": 0.2247513794,
				"y": 4.2262626647,
				"z": -1.1682814655,
				"element": "H" 
			},
			{
				"x": -1.3189333057,
				"y": 5.363387048,
				"z": -2.7392656469,
				"element": "H" 
			},
			{
				"x": -3.1872254263,
				"y": 4.0975280273,
				"z": -3.7819593674,
				"element": "H" 
			},
			{
				"x": -3.5027919282,
				"y": 1.6914614909,
				"z": -3.2396030121,
				"element": "H" 
			},
			{
				"x": -1.9574569753,
				"y": 0.5603479858,
				"z": -1.6642553598,
				"element": "H" 
			}
		],
		 "valence_orbital": [ 
			{
				"type": "occ",
				"energy": -0.34956,
				"method": "rhf"
			},
			{
				"type": "occ",
				"energy": -0.27364,
				"method": "rhf"
			},
			{
				"type": "occ",
				"energy": -0.27283,
				"method": "rhf"
			},
			{
				"type": "occ",
				"energy": -0.2601,
				"method": "rhf"
			},
			{
				"type": "occ",
				"energy": -0.25133,
				"method": "rhf"
			},
			{
				"type": "unocc",
				"energy": -0.01648,
				"method": "rhf"
			},
			{
				"type": "unocc",
				"energy": -0.01326,
				"method": "rhf"
			},
			{
				"type": "unocc",
				"energy": -0.0005,
				"method": "rhf"
			},
			{
				"type": "unocc",
				"energy": 0.0739,
				"method": "rhf"
			},
			{
				"type": "unocc",
				"energy": 0.08357,
				"method": "rhf"
			}
		],
		"cosmo_sigma_profile": { 
			"-0.025": 0.0,
			"-0.024": 0.0,
			"-0.023": 0.0,
			"-0.022": 0.0,
			"-0.021": 0.0,
			"-0.02": 0.0,
			"-0.019": 0.0,
			"-0.018": 0.0,
			"-0.017": 0.0,
			"-0.016": 0.0,
			"-0.015": 0.0,
			"-0.014": 0.671749423704,
			"-0.013": 1.02869818659,
			"-0.012": 0.861317949065,
			"-0.011": 1.80905346909,
			"-0.01": 2.15217984232,
			"-0.009": 3.27869692134,
			"-0.008": 2.37714010577,
			"-0.007": 2.78594741993,
			"-0.006": 10.4844393756,
			"-0.005": 14.2476550653,
			"-0.004": 16.1855851664,
			"-0.003": 18.4598541571,
			"-0.002": 19.1350304356,
			"-0.001": 17.8332256403,
			"0.0": 23.4973598776,
			"0.001": 43.1029193365,
			"0.002": 44.9296851668,
			"0.003": 9.63747644865,
			"0.004": 9.05617044025,
			"0.005": 11.0840041515,
			"0.006": 5.37389130232,
			"0.007": 0.812859725888,
			"0.008": 1.1372128949,
			"0.009": 1.2658313534,
			"0.01": 1.39605096181,
			"0.011": 2.01732851027,
			"0.012": 5.03713773418,
			"0.013": 3.17935356688,
			"0.014": 0.033195164982,
			"0.015": 0.0,
			"0.016": 0.0,
			"0.017": 0.0,
			"0.018": 0.0,
			"0.019": 0.0,
			"0.02": 0.0,
			"0.021": 0.0,
			"0.022": 0.0,
			"0.023": 0.0,
			"0.024": 0.0,
			"0.025": 0.0
		}
	}
}
