{
	 "smiles": "CC1=C(Cl)C(C)=C(C(N)=O)C(Cl)=N1", 
	 "Tm": 445.15, 
	 "num_atms": 21, 
	 "gaussian": { 
		 "optdone": 1, 
		 "sigma_profile": "yes", 
		 "theory": "DFT", 
		 "functional": "B3LYP", 
		 "basiset": "6-31G**", 
		 "properties": { 
			 "R2extent": 3690.3693, 
			 "electric_dipole_moment_norm": 2.68508557964, 
			 "electric_quadrupole_moment_norm": 11.5878614174, 
			 "total_energy": -1414.80853324, 
			 "HOMO_LUMO_gap": 0.20621, 
			 "cosmo_polarized_energy": -12.44, 
			 "cosmo_cavitation_energy": 28.29, 
			 "cosmo_dispersion_energy": -20.79, 
			 "cosmo_repulsion_energy": 1.67, 
			 "cosmo_total_nonelectrostatic_energy": 9.17, 
			 "SMD_solvation_energy": 3.77 
		},
		"coords": [
			{
				"x": -3.4091408552,
				"y": -2.3744108654,
				"z": 0.7685188844,
				"element": "C" 
			},
			{
				"x": -2.0330292986,
				"y": -1.8420793347,
				"z": 0.4797097717,
				"element": "C" 
			},
			{
				"x": -1.371841245,
				"y": -0.932740634,
				"z": 1.3171937531,
				"element": "C" 
			},
			{
				"x": -2.1852434783,
				"y": -0.384071558,
				"z": 2.7751867951,
				"element": "Cl" 
			},
			{
				"x": -0.085529988,
				"y": -0.4561602123,
				"z": 1.0238044074,
				"element": "C" 
			},
			{
				"x": 0.5974955995,
				"y": 0.5204892424,
				"z": 1.9456647445,
				"element": "C" 
			},
			{
				"x": 0.5086967244,
				"y": -0.9174891959,
				"z": -0.1707556051,
				"element": "C" 
			},
			{
				"x": 1.917833913,
				"y": -0.4851751354,
				"z": -0.5288347111,
				"element": "C" 
			},
			{
				"x": 2.0427142994,
				"y": 0.2069048443,
				"z": -1.6988697942,
				"element": "N" 
			},
			{
				"x": 2.8574591902,
				"y": -0.685858958,
				"z": 0.2271821561,
				"element": "O" 
			},
			{
				"x": -0.2306203988,
				"y": -1.8308035282,
				"z": -0.9351752781,
				"element": "C" 
			},
			{
				"x": 0.456064327,
				"y": -2.5056237855,
				"z": -2.422498224,
				"element": "Cl" 
			},
			{
				"x": -1.4328778911,
				"y": -2.2784432686,
				"z": -0.6370793072,
				"element": "N" 
			},
			{
				"x": -4.1413807453,
				"y": -1.5629170302,
				"z": 0.835774599,
				"element": "H" 
			},
			{
				"x": -3.6994012909,
				"y": -3.0580691195,
				"z": -0.0295074557,
				"element": "H" 
			},
			{
				"x": -3.4339744114,
				"y": -2.9049156109,
				"z": 1.7262332122,
				"element": "H" 
			},
			{
				"x": -0.0041174133,
				"y": 1.4300442456,
				"z": 2.0446235046,
				"element": "H" 
			},
			{
				"x": 0.6857820917,
				"y": 0.0899427142,
				"z": 2.9480513858,
				"element": "H" 
			},
			{
				"x": 1.596035911,
				"y": 0.776277888,
				"z": 1.6003740538,
				"element": "H" 
			},
			{
				"x": 2.9861436097,
				"y": 0.376702689,
				"z": -2.0195511493,
				"element": "H" 
			},
			{
				"x": 1.3148313497,
				"y": 0.1716966131,
				"z": -2.3961457428,
				"element": "H" 
			}
		],
		 "valence_orbital": [ 
			{
				"type": "occ",
				"energy": -0.29893,
				"method": "rhf"
			},
			{
				"type": "occ",
				"energy": -0.28672,
				"method": "rhf"
			},
			{
				"type": "occ",
				"energy": -0.2802,
				"method": "rhf"
			},
			{
				"type": "occ",
				"energy": -0.26325,
				"method": "rhf"
			},
			{
				"type": "occ",
				"energy": -0.25429,
				"method": "rhf"
			},
			{
				"type": "unocc",
				"energy": -0.04808,
				"method": "rhf"
			},
			{
				"type": "unocc",
				"energy": -0.0409,
				"method": "rhf"
			},
			{
				"type": "unocc",
				"energy": 0.00958,
				"method": "rhf"
			},
			{
				"type": "unocc",
				"energy": 0.0234,
				"method": "rhf"
			},
			{
				"type": "unocc",
				"energy": 0.02904,
				"method": "rhf"
			}
		],
		"cosmo_sigma_profile": { 
			"-0.025": 0.0,
			"-0.024": 0.0,
			"-0.023": 0.0,
			"-0.022": 0.0,
			"-0.021": 0.0,
			"-0.02": 0.0,
			"-0.019": 0.0,
			"-0.018": 0.0,
			"-0.017": 0.0,
			"-0.016": 0.0,
			"-0.015": 0.192639647953,
			"-0.014": 1.75504039519,
			"-0.013": 2.8349455599,
			"-0.012": 1.94857994542,
			"-0.011": 2.83115071328,
			"-0.01": 1.92415072951,
			"-0.009": 2.26505691709,
			"-0.008": 1.68015121258,
			"-0.007": 1.3145040278,
			"-0.006": 3.3185118927,
			"-0.005": 11.046071252,
			"-0.004": 11.8222282012,
			"-0.003": 19.6163167537,
			"-0.002": 27.1388587487,
			"-0.001": 29.9704574353,
			"0.0": 17.2456381946,
			"0.001": 15.0124026577,
			"0.002": 15.1865715265,
			"0.003": 15.1748155172,
			"0.004": 13.5881702434,
			"0.005": 5.37912018832,
			"0.006": 4.47181042283,
			"0.007": 3.16379263859,
			"0.008": 2.5455665888,
			"0.009": 3.10304409042,
			"0.01": 2.56003543423,
			"0.011": 2.01098206763,
			"0.012": 4.90462150008,
			"0.013": 4.73343865038,
			"0.014": 0.647021064851,
			"0.015": 0.0,
			"0.016": 0.0,
			"0.017": 0.0,
			"0.018": 0.0,
			"0.019": 0.0,
			"0.02": 0.0,
			"0.021": 0.0,
			"0.022": 0.0,
			"0.023": 0.0,
			"0.024": 0.0,
			"0.025": 0.0
		}
	}
}
