{
	 "smiles": "CC(=C)C1=CC=C(C)C2=CC=C(C=O)C2=C1", 
	 "Tm": 331.15, 
	 "num_atms": 30, 
	 "gaussian": { 
		 "optdone": 1, 
		 "sigma_profile": "yes", 
		 "theory": "DFT", 
		 "functional": "B3LYP", 
		 "basiset": "6-31G**", 
		 "properties": { 
			 "R2extent": 3992.2065, 
			 "electric_dipole_moment_norm": 4.18104788899, 
			 "electric_quadrupole_moment_norm": 11.5910594563, 
			 "total_energy": -655.208188886, 
			 "HOMO_LUMO_gap": 0.12121, 
			 "cosmo_polarized_energy": -9.91, 
			 "cosmo_cavitation_energy": 33.14, 
			 "cosmo_dispersion_energy": -23.37, 
			 "cosmo_repulsion_energy": 1.76, 
			 "cosmo_total_nonelectrostatic_energy": 11.53, 
			 "SMD_solvation_energy": 6.92 
		},
		"coords": [
			{
				"x": 2.698809436,
				"y": 0.4966288481,
				"z": -2.4200683116,
				"element": "C" 
			},
			{
				"x": 1.5296280695,
				"y": -0.4452380841,
				"z": -2.2290853308,
				"element": "C" 
			},
			{
				"x": 1.4164564959,
				"y": -1.556533895,
				"z": -2.9740564907,
				"element": "C" 
			},
			{
				"x": 0.5196454201,
				"y": -0.1083770896,
				"z": -1.1780794119,
				"element": "C" 
			},
			{
				"x": -0.826055918,
				"y": -0.4082801817,
				"z": -1.4402038828,
				"element": "C" 
			},
			{
				"x": -1.9776373414,
				"y": -0.256403178,
				"z": -0.6616440053,
				"element": "C" 
			},
			{
				"x": -2.1660487914,
				"y": 0.2516503652,
				"z": 0.6292001722,
				"element": "C" 
			},
			{
				"x": -3.5798859128,
				"y": 0.2527779964,
				"z": 1.1714487199,
				"element": "C" 
			},
			{
				"x": -1.1506862033,
				"y": 0.7704351326,
				"z": 1.4558449282,
				"element": "C" 
			},
			{
				"x": -1.3315318651,
				"y": 1.2956117386,
				"z": 2.755385224,
				"element": "C" 
			},
			{
				"x": -0.095264225,
				"y": 1.7212671222,
				"z": 3.2434571186,
				"element": "C" 
			},
			{
				"x": 0.9125410442,
				"y": 1.4876268833,
				"z": 2.2843110148,
				"element": "C" 
			},
			{
				"x": 2.3109859003,
				"y": 1.8167142338,
				"z": 2.4836502332,
				"element": "C" 
			},
			{
				"x": 3.229750255,
				"y": 1.6404749869,
				"z": 1.6877267902,
				"element": "O" 
			},
			{
				"x": 0.2925698234,
				"y": 0.8877373545,
				"z": 1.1413313457,
				"element": "C" 
			},
			{
				"x": 0.9872246056,
				"y": 0.5055795098,
				"z": 0.001468796,
				"element": "C" 
			},
			{
				"x": 2.3628266557,
				"y": 1.5338111672,
				"z": -2.5292623726,
				"element": "H" 
			},
			{
				"x": 3.385861113,
				"y": 0.4753103795,
				"z": -1.5665213568,
				"element": "H" 
			},
			{
				"x": 3.2710428295,
				"y": 0.2219609171,
				"z": -3.3094866337,
				"element": "H" 
			},
			{
				"x": 2.1408918055,
				"y": -1.7886318719,
				"z": -3.748709684,
				"element": "H" 
			},
			{
				"x": 0.622726013,
				"y": -2.2806799873,
				"z": -2.8202507016,
				"element": "H" 
			},
			{
				"x": -1.0137632134,
				"y": -0.8177111768,
				"z": -2.4293189351,
				"element": "H" 
			},
			{
				"x": -2.8883143196,
				"y": -0.5886742836,
				"z": -1.1554883492,
				"element": "H" 
			},
			{
				"x": -3.9062394879,
				"y": 1.2705628878,
				"z": 1.4123130443,
				"element": "H" 
			},
			{
				"x": -4.2861655242,
				"y": -0.170262945,
				"z": 0.4542670767,
				"element": "H" 
			},
			{
				"x": -3.6431925735,
				"y": -0.3304239411,
				"z": 2.0967458831,
				"element": "H" 
			},
			{
				"x": -2.2722052504,
				"y": 1.3599323735,
				"z": 3.2844868735,
				"element": "H" 
			},
			{
				"x": 0.0760618748,
				"y": 2.1683773789,
				"z": 4.2172640815,
				"element": "H" 
			},
			{
				"x": 2.5224419912,
				"y": 2.2748531719,
				"z": 3.4764236867,
				"element": "H" 
			},
			{
				"x": 2.0510272931,
				"y": 0.7093041866,
				"z": 0.0636504775,
				"element": "H" 
			}
		],
		 "valence_orbital": [ 
			{
				"type": "occ",
				"energy": -0.29863,
				"method": "rhf"
			},
			{
				"type": "occ",
				"energy": -0.25978,
				"method": "rhf"
			},
			{
				"type": "occ",
				"energy": -0.23898,
				"method": "rhf"
			},
			{
				"type": "occ",
				"energy": -0.23373,
				"method": "rhf"
			},
			{
				"type": "occ",
				"energy": -0.20152,
				"method": "rhf"
			},
			{
				"type": "unocc",
				"energy": -0.08031,
				"method": "rhf"
			},
			{
				"type": "unocc",
				"energy": -0.06799,
				"method": "rhf"
			},
			{
				"type": "unocc",
				"energy": 0.00149,
				"method": "rhf"
			},
			{
				"type": "unocc",
				"energy": 0.0206,
				"method": "rhf"
			},
			{
				"type": "unocc",
				"energy": 0.08505,
				"method": "rhf"
			}
		],
		"cosmo_sigma_profile": { 
			"-0.025": 0.0,
			"-0.024": 0.0,
			"-0.023": 0.0,
			"-0.022": 0.0,
			"-0.021": 0.0,
			"-0.02": 0.0,
			"-0.019": 0.0,
			"-0.018": 0.0,
			"-0.017": 0.0,
			"-0.016": 0.0,
			"-0.015": 0.0,
			"-0.014": 0.0,
			"-0.013": 0.0,
			"-0.012": 0.0,
			"-0.011": 0.0,
			"-0.01": 0.0,
			"-0.009": 0.0,
			"-0.008": 0.0,
			"-0.007": 2.4467381354,
			"-0.006": 10.5861170997,
			"-0.005": 20.1292800211,
			"-0.004": 25.218412007,
			"-0.003": 22.1409301825,
			"-0.002": 23.6138189919,
			"-0.001": 27.9372402589,
			"0.0": 23.4218773009,
			"0.001": 24.0471067891,
			"0.002": 25.9130803859,
			"0.003": 17.5328894862,
			"0.004": 12.5040666381,
			"0.005": 10.1891245092,
			"0.006": 3.019676908,
			"0.007": 1.15555789889,
			"0.008": 1.49209343452,
			"0.009": 2.18277099319,
			"0.01": 1.65099238521,
			"0.011": 2.10587909053,
			"0.012": 2.57005929105,
			"0.013": 2.57792156282,
			"0.014": 1.77438773299,
			"0.015": 0.317925602926,
			"0.016": 0.0,
			"0.017": 0.0,
			"0.018": 0.0,
			"0.019": 0.0,
			"0.02": 0.0,
			"0.021": 0.0,
			"0.022": 0.0,
			"0.023": 0.0,
			"0.024": 0.0,
			"0.025": 0.0
		}
	}
}
