{
	 "smiles": "O=C(C1=CC=CS1)C1=NOC2C1C(=O)N(C2=O)C1=C2C=CC=CC2=CC=C1", 
	 "Tm": 353.15, 
	 "num_atms": 39, 
	 "gaussian": { 
		 "optdone": 1, 
		 "sigma_profile": "yes", 
		 "theory": "DFT", 
		 "functional": "B3LYP", 
		 "basiset": "6-31G**", 
		 "properties": { 
			 "R2extent": 12662.2882, 
			 "electric_dipole_moment_norm": 1.14724960667, 
			 "electric_quadrupole_moment_norm": 29.298666257, 
			 "total_energy": -1577.88978264, 
			 "HOMO_LUMO_gap": 0.136, 
			 "cosmo_polarized_energy": -22.75, 
			 "cosmo_cavitation_energy": 46.74, 
			 "cosmo_dispersion_energy": -32.76, 
			 "cosmo_repulsion_energy": 2.4, 
			 "cosmo_total_nonelectrostatic_energy": 16.38, 
			 "SMD_solvation_energy": 9.4 
		},
		"coords": [
			{
				"x": -3.887878728,
				"y": 0.8754620273,
				"z": 0.5666180043,
				"element": "O" 
			},
			{
				"x": -3.2567089107,
				"y": 0.1108981756,
				"z": 1.2924432565,
				"element": "C" 
			},
			{
				"x": -3.8345793817,
				"y": -1.1294703878,
				"z": 1.8066561614,
				"element": "C" 
			},
			{
				"x": -3.3011038286,
				"y": -2.1312803552,
				"z": 2.5962398141,
				"element": "C" 
			},
			{
				"x": -4.2217084984,
				"y": -3.178708906,
				"z": 2.8516715052,
				"element": "C" 
			},
			{
				"x": -5.439936735,
				"y": -2.9634730935,
				"z": 2.2523989155,
				"element": "C" 
			},
			{
				"x": -5.4908974108,
				"y": -1.4860388126,
				"z": 1.3672452441,
				"element": "S" 
			},
			{
				"x": -1.8593101227,
				"y": 0.5094207619,
				"z": 1.6488352266,
				"element": "C" 
			},
			{
				"x": -1.2139470591,
				"y": 0.0714119101,
				"z": 2.6702389153,
				"element": "N" 
			},
			{
				"x": -0.0144754143,
				"y": 0.7403601044,
				"z": 2.8156072145,
				"element": "O" 
			},
			{
				"x": 0.1049404095,
				"y": 1.7695259109,
				"z": 1.7809496484,
				"element": "C" 
			},
			{
				"x": -1.1143768251,
				"y": 1.5806905021,
				"z": 0.8846956164,
				"element": "C" 
			},
			{
				"x": -0.552872815,
				"y": 1.0604543113,
				"z": -0.4551659278,
				"element": "C" 
			},
			{
				"x": -1.1813475005,
				"y": 0.7221284644,
				"z": -1.4262962417,
				"element": "O" 
			},
			{
				"x": 0.850022376,
				"y": 1.0461660608,
				"z": -0.3461794706,
				"element": "N" 
			},
			{
				"x": 1.3265153308,
				"y": 1.4582961565,
				"z": 0.9069577568,
				"element": "C" 
			},
			{
				"x": 2.4845505783,
				"y": 1.5390409543,
				"z": 1.2373324868,
				"element": "O" 
			},
			{
				"x": 1.7145342048,
				"y": 0.5882166037,
				"z": -1.3974707249,
				"element": "C" 
			},
			{
				"x": 1.9310882177,
				"y": 1.4058948515,
				"z": -2.5460108294,
				"element": "C" 
			},
			{
				"x": 1.3394647392,
				"y": 2.6846202625,
				"z": -2.7229370257,
				"element": "C" 
			},
			{
				"x": 1.5885973415,
				"y": 3.4251160026,
				"z": -3.8562059745,
				"element": "C" 
			},
			{
				"x": 2.4396690545,
				"y": 2.9246748034,
				"z": -4.8706497983,
				"element": "C" 
			},
			{
				"x": 3.0319366276,
				"y": 1.69157123,
				"z": -4.7264087368,
				"element": "C" 
			},
			{
				"x": 2.8017942147,
				"y": 0.901046344,
				"z": -3.5680967651,
				"element": "C" 
			},
			{
				"x": 3.418580128,
				"y": -0.3669691715,
				"z": -3.3981066683,
				"element": "C" 
			},
			{
				"x": 3.1938905178,
				"y": -1.1170940545,
				"z": -2.2673203547,
				"element": "C" 
			},
			{
				"x": 2.3307822126,
				"y": -0.635185933,
				"z": -1.2579952798,
				"element": "C" 
			},
			{
				"x": -2.289999035,
				"y": -2.0963976475,
				"z": 2.9798726275,
				"element": "H" 
			},
			{
				"x": -3.9937669619,
				"y": -4.0526270482,
				"z": 3.4505774642,
				"element": "H" 
			},
			{
				"x": -6.3126395446,
				"y": -3.6022605836,
				"z": 2.2842562177,
				"element": "H" 
			},
			{
				"x": 0.2168657055,
				"y": 2.7344574618,
				"z": 2.2797070982,
				"element": "H" 
			},
			{
				"x": -1.7404100091,
				"y": 2.4560599624,
				"z": 0.6993324707,
				"element": "H" 
			},
			{
				"x": 0.687272698,
				"y": 3.080831471,
				"z": -1.9527414661,
				"element": "H" 
			},
			{
				"x": 1.1278714298,
				"y": 4.4012598506,
				"z": -3.9748869255,
				"element": "H" 
			},
			{
				"x": 2.6240080424,
				"y": 3.5189921742,
				"z": -5.7605472877,
				"element": "H" 
			},
			{
				"x": 3.6902049385,
				"y": 1.3019353226,
				"z": -5.4983405948,
				"element": "H" 
			},
			{
				"x": 4.0775419113,
				"y": -0.7346147362,
				"z": -4.180058895,
				"element": "H" 
			},
			{
				"x": 3.6724881546,
				"y": -2.0831648648,
				"z": -2.1426584562,
				"element": "H" 
			},
			{
				"x": 2.1480399475,
				"y": -1.2265460854,
				"z": -0.3668582213,
				"element": "H" 
			}
		],
		 "valence_orbital": [ 
			{
				"type": "occ",
				"energy": -0.26708,
				"method": "rhf"
			},
			{
				"type": "occ",
				"energy": -0.26096,
				"method": "rhf"
			},
			{
				"type": "occ",
				"energy": -0.25456,
				"method": "rhf"
			},
			{
				"type": "occ",
				"energy": -0.25186,
				"method": "rhf"
			},
			{
				"type": "occ",
				"energy": -0.22687,
				"method": "rhf"
			},
			{
				"type": "unocc",
				"energy": -0.09087,
				"method": "rhf"
			},
			{
				"type": "unocc",
				"energy": -0.05424,
				"method": "rhf"
			},
			{
				"type": "unocc",
				"energy": -0.04463,
				"method": "rhf"
			},
			{
				"type": "unocc",
				"energy": -0.0315,
				"method": "rhf"
			},
			{
				"type": "unocc",
				"energy": -0.01969,
				"method": "rhf"
			}
		],
		"cosmo_sigma_profile": { 
			"-0.025": 0.0,
			"-0.024": 0.0,
			"-0.023": 0.0,
			"-0.022": 0.0,
			"-0.021": 0.0,
			"-0.02": 0.0,
			"-0.019": 0.0,
			"-0.018": 0.0,
			"-0.017": 0.0,
			"-0.016": 0.0,
			"-0.015": 0.0,
			"-0.014": 0.0,
			"-0.013": 0.0374280295725,
			"-0.012": 0.873710480448,
			"-0.011": 2.45125193201,
			"-0.01": 9.67110853906,
			"-0.009": 9.05124661958,
			"-0.008": 9.87657803972,
			"-0.007": 14.5041170649,
			"-0.006": 23.2224284002,
			"-0.005": 24.2308128958,
			"-0.004": 23.4135920991,
			"-0.003": 18.2117870394,
			"-0.002": 17.3483735547,
			"-0.001": 18.2478861782,
			"0.0": 19.7405574637,
			"0.001": 24.0419504947,
			"0.002": 36.6300920456,
			"0.003": 35.4893678954,
			"0.004": 20.8389362069,
			"0.005": 11.7037036115,
			"0.006": 9.84162571978,
			"0.007": 8.99141160917,
			"0.008": 9.86616542579,
			"0.009": 7.71031815281,
			"0.01": 14.256572897,
			"0.011": 9.02189895365,
			"0.012": 0.218356017176,
			"0.013": 0.0,
			"0.014": 0.0,
			"0.015": 0.0,
			"0.016": 0.0,
			"0.017": 0.0,
			"0.018": 0.0,
			"0.019": 0.0,
			"0.02": 0.0,
			"0.021": 0.0,
			"0.022": 0.0,
			"0.023": 0.0,
			"0.024": 0.0,
			"0.025": 0.0
		}
	}
}
