{
	 "smiles": "NC(=S)C1=CC(=CC=C1)C(F)(F)F", 
	 "Tm": 340.15, 
	 "num_atms": 19, 
	 "gaussian": { 
		 "optdone": 1, 
		 "sigma_profile": "yes", 
		 "theory": "DFT", 
		 "functional": "B3LYP", 
		 "basiset": "6-31G**", 
		 "properties": { 
			 "R2extent": 3457.7303, 
			 "electric_dipole_moment_norm": 5.78480197068, 
			 "electric_quadrupole_moment_norm": 10.791844738, 
			 "total_energy": -1060.94291766, 
			 "HOMO_LUMO_gap": 0.14401, 
			 "cosmo_polarized_energy": -15.62, 
			 "cosmo_cavitation_energy": 26.75, 
			 "cosmo_dispersion_energy": -19.39, 
			 "cosmo_repulsion_energy": 1.44, 
			 "cosmo_total_nonelectrostatic_energy": 8.81, 
			 "SMD_solvation_energy": 4.86 
		},
		"coords": [
			{
				"x": 0.0671083623,
				"y": -2.9841628849,
				"z": 1.3928498282,
				"element": "N" 
			},
			{
				"x": 0.7224516466,
				"y": -2.4067706305,
				"z": 0.3589478536,
				"element": "C" 
			},
			{
				"x": 2.0621840155,
				"y": -3.1127116316,
				"z": -0.3357122133,
				"element": "S" 
			},
			{
				"x": 0.1307889711,
				"y": -1.1241629507,
				"z": -0.1222000739,
				"element": "C" 
			},
			{
				"x": 0.9577895246,
				"y": -0.1350301339,
				"z": -0.6739607844,
				"element": "C" 
			},
			{
				"x": 0.413625546,
				"y": 1.0691747086,
				"z": -1.1113475867,
				"element": "C" 
			},
			{
				"x": -0.9637134293,
				"y": 1.3018783357,
				"z": -1.0244687445,
				"element": "C" 
			},
			{
				"x": -1.7932466968,
				"y": 0.3162594797,
				"z": -0.4960588169,
				"element": "C" 
			},
			{
				"x": -1.2515618252,
				"y": -0.8868212766,
				"z": -0.0427753964,
				"element": "C" 
			},
			{
				"x": 1.3000216742,
				"y": 2.1174017845,
				"z": -1.7334179715,
				"element": "C" 
			},
			{
				"x": 2.5846351896,
				"y": 1.9922476354,
				"z": -1.3432661113,
				"element": "F" 
			},
			{
				"x": 0.8927258023,
				"y": 3.3655790008,
				"z": -1.4067099862,
				"element": "F" 
			},
			{
				"x": 1.2820590284,
				"y": 2.0421192212,
				"z": -3.0832117178,
				"element": "F" 
			},
			{
				"x": -0.5962514594,
				"y": -2.4646975234,
				"z": 1.9487854315,
				"element": "H" 
			},
			{
				"x": 0.4426748336,
				"y": -3.8415912084,
				"z": 1.7716006893,
				"element": "H" 
			},
			{
				"x": 2.0227631671,
				"y": -0.3202897969,
				"z": -0.7471228408,
				"element": "H" 
			},
			{
				"x": -1.3756262193,
				"y": 2.2454868667,
				"z": -1.3659886437,
				"element": "H" 
			},
			{
				"x": -2.8646475722,
				"y": 0.4816763841,
				"z": -0.4399905487,
				"element": "H" 
			},
			{
				"x": -1.9135805591,
				"y": -1.6593853799,
				"z": 0.3367476335,
				"element": "H" 
			}
		],
		 "valence_orbital": [ 
			{
				"type": "occ",
				"energy": -0.35892,
				"method": "rhf"
			},
			{
				"type": "occ",
				"energy": -0.28192,
				"method": "rhf"
			},
			{
				"type": "occ",
				"energy": -0.28047,
				"method": "rhf"
			},
			{
				"type": "occ",
				"energy": -0.23902,
				"method": "rhf"
			},
			{
				"type": "occ",
				"energy": -0.21604,
				"method": "rhf"
			},
			{
				"type": "unocc",
				"energy": -0.07203,
				"method": "rhf"
			},
			{
				"type": "unocc",
				"energy": -0.03638,
				"method": "rhf"
			},
			{
				"type": "unocc",
				"energy": 0.00263,
				"method": "rhf"
			},
			{
				"type": "unocc",
				"energy": 0.06342,
				"method": "rhf"
			},
			{
				"type": "unocc",
				"energy": 0.08299,
				"method": "rhf"
			}
		],
		"cosmo_sigma_profile": { 
			"-0.025": 0.0,
			"-0.024": 0.0,
			"-0.023": 0.0,
			"-0.022": 0.0,
			"-0.021": 0.0,
			"-0.02": 0.0,
			"-0.019": 0.0,
			"-0.018": 0.0,
			"-0.017": 0.0,
			"-0.016": 0.223791082461,
			"-0.015": 2.58658630986,
			"-0.014": 1.81616820265,
			"-0.013": 3.15847416497,
			"-0.012": 2.81360744714,
			"-0.011": 2.0576088629,
			"-0.01": 2.0231104368,
			"-0.009": 2.45474713435,
			"-0.008": 3.60262384289,
			"-0.007": 7.81096613936,
			"-0.006": 8.00607050473,
			"-0.005": 6.55175703024,
			"-0.004": 8.5414850595,
			"-0.003": 8.57085841134,
			"-0.002": 9.27718172456,
			"-0.001": 12.6894051786,
			"0.0": 15.6300328964,
			"0.001": 19.696257574,
			"0.002": 30.0422382712,
			"0.003": 31.2578681338,
			"0.004": 5.29813656196,
			"0.005": 4.35114967958,
			"0.006": 4.34418617606,
			"0.007": 4.80775818661,
			"0.008": 7.0812244731,
			"0.009": 4.93528597442,
			"0.01": 4.35261462055,
			"0.011": 2.84706599505,
			"0.012": 0.582445446955,
			"0.013": 0.0,
			"0.014": 0.0,
			"0.015": 0.0,
			"0.016": 0.0,
			"0.017": 0.0,
			"0.018": 0.0,
			"0.019": 0.0,
			"0.02": 0.0,
			"0.021": 0.0,
			"0.022": 0.0,
			"0.023": 0.0,
			"0.024": 0.0,
			"0.025": 0.0
		}
	}
}
