{
	 "smiles": "CNC(=O)COC1=CC=C(CC(O)=O)C=C1", 
	 "Tm": 417.15, 
	 "num_atms": 29, 
	 "gaussian": { 
		 "optdone": 1, 
		 "sigma_profile": "yes", 
		 "theory": "DFT", 
		 "functional": "B3LYP", 
		 "basiset": "6-31G**", 
		 "properties": { 
			 "R2extent": 5485.7687, 
			 "electric_dipole_moment_norm": 2.13721097461, 
			 "electric_quadrupole_moment_norm": 25.2830140972, 
			 "total_energy": -782.66661937, 
			 "HOMO_LUMO_gap": 0.21266, 
			 "cosmo_polarized_energy": -18.12, 
			 "cosmo_cavitation_energy": 33.72, 
			 "cosmo_dispersion_energy": -23.63, 
			 "cosmo_repulsion_energy": 1.88, 
			 "cosmo_total_nonelectrostatic_energy": 11.97, 
			 "SMD_solvation_energy": 7.3 
		},
		"coords": [
			{
				"x": -1.1916359081,
				"y": 3.3922472301,
				"z": -1.7985528213,
				"element": "C" 
			},
			{
				"x": -0.093121705,
				"y": 2.8937372299,
				"z": -2.6132238444,
				"element": "N" 
			},
			{
				"x": 0.2072884024,
				"y": 1.6110101203,
				"z": -2.9599049559,
				"element": "C" 
			},
			{
				"x": 1.1873120727,
				"y": 1.3346277366,
				"z": -3.6451621966,
				"element": "O" 
			},
			{
				"x": -0.753633319,
				"y": 0.5006015565,
				"z": -2.5036358035,
				"element": "C" 
			},
			{
				"x": -1.0860794888,
				"y": 0.516233513,
				"z": -1.1209589885,
				"element": "O" 
			},
			{
				"x": -0.1357221935,
				"y": 0.1124633691,
				"z": -0.2135128585,
				"element": "C" 
			},
			{
				"x": 1.1867375207,
				"y": -0.2079936223,
				"z": -0.5340020527,
				"element": "C" 
			},
			{
				"x": 2.0546133174,
				"y": -0.612435484,
				"z": 0.4859335585,
				"element": "C" 
			},
			{
				"x": 1.6360428072,
				"y": -0.6952384006,
				"z": 1.8143819777,
				"element": "C" 
			},
			{
				"x": 2.5952138153,
				"y": -1.1249945688,
				"z": 2.9142647333,
				"element": "C" 
			},
			{
				"x": 2.1192127806,
				"y": -2.3979891887,
				"z": 3.5897541382,
				"element": "C" 
			},
			{
				"x": 2.7275251296,
				"y": -3.4992969506,
				"z": 3.0907987327,
				"element": "O" 
			},
			{
				"x": 1.2735011999,
				"y": -2.4538147075,
				"z": 4.4563275801,
				"element": "O" 
			},
			{
				"x": 0.3039739359,
				"y": -0.3680158156,
				"z": 2.1151472299,
				"element": "C" 
			},
			{
				"x": -0.5738754508,
				"y": 0.0306093603,
				"z": 1.1159153817,
				"element": "C" 
			},
			{
				"x": -1.4784442467,
				"y": 4.3842818838,
				"z": -2.1584795931,
				"element": "H" 
			},
			{
				"x": -2.0592942773,
				"y": 2.7374502992,
				"z": -1.8788706242,
				"element": "H" 
			},
			{
				"x": -0.924427927,
				"y": 3.4663409302,
				"z": -0.7378568608,
				"element": "H" 
			},
			{
				"x": 0.6105105267,
				"y": 3.555113527,
				"z": -2.9151878936,
				"element": "H" 
			},
			{
				"x": -1.7089913451,
				"y": 0.6049979676,
				"z": -3.0289119919,
				"element": "H" 
			},
			{
				"x": -0.2974701452,
				"y": -0.4485307262,
				"z": -2.7997408346,
				"element": "H" 
			},
			{
				"x": 1.556392335,
				"y": -0.13318252,
				"z": -1.5500500094,
				"element": "H" 
			},
			{
				"x": 3.0812816649,
				"y": -0.8602425333,
				"z": 0.2293049993,
				"element": "H" 
			},
			{
				"x": 3.595485018,
				"y": -1.2792618485,
				"z": 2.5039525461,
				"element": "H" 
			},
			{
				"x": 2.6513282322,
				"y": -0.357092123,
				"z": 3.6926296978,
				"element": "H" 
			},
			{
				"x": 2.330987165,
				"y": -4.2584949262,
				"z": 3.5513289905,
				"element": "H" 
			},
			{
				"x": -0.0451826024,
				"y": -0.4436130604,
				"z": 3.1407760418,
				"element": "H" 
			},
			{
				"x": -1.6065273144,
				"y": 0.277781752,
				"z": 1.3402357214,
				"element": "H" 
			}
		],
		 "valence_orbital": [ 
			{
				"type": "occ",
				"energy": -0.27492,
				"method": "rhf"
			},
			{
				"type": "occ",
				"energy": -0.25637,
				"method": "rhf"
			},
			{
				"type": "occ",
				"energy": -0.25391,
				"method": "rhf"
			},
			{
				"type": "occ",
				"energy": -0.25232,
				"method": "rhf"
			},
			{
				"type": "occ",
				"energy": -0.21933,
				"method": "rhf"
			},
			{
				"type": "unocc",
				"energy": -0.00667,
				"method": "rhf"
			},
			{
				"type": "unocc",
				"energy": -0.00351,
				"method": "rhf"
			},
			{
				"type": "unocc",
				"energy": 0.01173,
				"method": "rhf"
			},
			{
				"type": "unocc",
				"energy": 0.02315,
				"method": "rhf"
			},
			{
				"type": "unocc",
				"energy": 0.07922,
				"method": "rhf"
			}
		],
		"cosmo_sigma_profile": { 
			"-0.025": 0.0,
			"-0.024": 0.0,
			"-0.023": 0.0,
			"-0.022": 0.0,
			"-0.021": 0.0,
			"-0.02": 0.0,
			"-0.019": 0.000520217228858,
			"-0.018": 0.72807688819,
			"-0.017": 0.857182186838,
			"-0.016": 0.829471532034,
			"-0.015": 1.0242314777,
			"-0.014": 1.57758788554,
			"-0.013": 1.64576244919,
			"-0.012": 1.16906284945,
			"-0.011": 1.69848721932,
			"-0.01": 2.17703342585,
			"-0.009": 1.26778890245,
			"-0.008": 5.27626605318,
			"-0.007": 6.40073371028,
			"-0.006": 15.1634365199,
			"-0.005": 19.5954379789,
			"-0.004": 22.8354656991,
			"-0.003": 21.4861782042,
			"-0.002": 18.4871927361,
			"-0.001": 15.4508772839,
			"0.0": 12.087748997,
			"0.001": 14.1524149991,
			"0.002": 15.9333376988,
			"0.003": 16.0447827773,
			"0.004": 14.7874779432,
			"0.005": 14.0278815115,
			"0.006": 5.33806462853,
			"0.007": 3.40952138034,
			"0.008": 4.1970883842,
			"0.009": 5.9001285844,
			"0.01": 3.71618865406,
			"0.011": 4.11186903213,
			"0.012": 6.35337356889,
			"0.013": 3.85478249322,
			"0.014": 4.47423708264,
			"0.015": 0.618945151308,
			"0.016": 0.0,
			"0.017": 0.0,
			"0.018": 0.0,
			"0.019": 0.0,
			"0.02": 0.0,
			"0.021": 0.0,
			"0.022": 0.0,
			"0.023": 0.0,
			"0.024": 0.0,
			"0.025": 0.0
		}
	}
}
