{
	 "smiles": "OC(=O)C(=C/C1=CC=CC=C1)C1=C(C=CC=C1)[N+]([O-])=O", 
	 "Tm": 465.15, 
	 "num_atms": 31, 
	 "gaussian": { 
		 "optdone": 1, 
		 "sigma_profile": "yes", 
		 "theory": "DFT", 
		 "functional": "B3LYP", 
		 "basiset": "6-31G**", 
		 "properties": { 
			 "R2extent": 8435.1466, 
			 "electric_dipole_moment_norm": 4.84472912452, 
			 "electric_quadrupole_moment_norm": 24.840387285, 
			 "total_energy": -933.76569945, 
			 "HOMO_LUMO_gap": 0.14192, 
			 "cosmo_polarized_energy": -15.45, 
			 "cosmo_cavitation_energy": 36.23, 
			 "cosmo_dispersion_energy": -25.69, 
			 "cosmo_repulsion_energy": 1.96, 
			 "cosmo_total_nonelectrostatic_energy": 12.5, 
			 "SMD_solvation_energy": 9.14 
		},
		"coords": [
			{
				"x": 1.4607544101,
				"y": -1.9885329852,
				"z": -4.0163944854,
				"element": "O" 
			},
			{
				"x": 0.4955826235,
				"y": -1.4126950376,
				"z": -3.2526485137,
				"element": "C" 
			},
			{
				"x": -0.6635757638,
				"y": -1.408327384,
				"z": -3.6184018681,
				"element": "O" 
			},
			{
				"x": 1.0563727763,
				"y": -0.8757956722,
				"z": -1.9831817178,
				"element": "C" 
			},
			{
				"x": 0.3554017773,
				"y": -0.5152160152,
				"z": -0.8724955126,
				"element": "C" 
			},
			{
				"x": -1.0471986623,
				"y": -0.4510117236,
				"z": -0.4483838631,
				"element": "C" 
			},
			{
				"x": -1.2471826076,
				"y": -0.2027660489,
				"z": 0.9295464618,
				"element": "C" 
			},
			{
				"x": -2.5221227607,
				"y": -0.1166905103,
				"z": 1.4773555431,
				"element": "C" 
			},
			{
				"x": -3.6411451182,
				"y": -0.2621646061,
				"z": 0.6545751834,
				"element": "C" 
			},
			{
				"x": -3.465065801,
				"y": -0.4914070423,
				"z": -0.7115455434,
				"element": "C" 
			},
			{
				"x": -2.1897819973,
				"y": -0.5866121912,
				"z": -1.2643230851,
				"element": "C" 
			},
			{
				"x": 2.5510061715,
				"y": -0.8315854166,
				"z": -1.8739950018,
				"element": "C" 
			},
			{
				"x": 3.4169655809,
				"y": -0.099458814,
				"z": -2.712545669,
				"element": "C" 
			},
			{
				"x": 4.8027340518,
				"y": -0.1160288121,
				"z": -2.5497753887,
				"element": "C" 
			},
			{
				"x": 5.3725793335,
				"y": -0.8640137746,
				"z": -1.5252237979,
				"element": "C" 
			},
			{
				"x": 4.5457552557,
				"y": -1.5958057296,
				"z": -0.6728843394,
				"element": "C" 
			},
			{
				"x": 3.1639906595,
				"y": -1.5795328064,
				"z": -0.8549664887,
				"element": "C" 
			},
			{
				"x": 2.9028418371,
				"y": 0.7601451192,
				"z": -3.7953862895,
				"element": "N" 
			},
			{
				"x": 1.6929582292,
				"y": 0.9824957387,
				"z": -3.8428170264,
				"element": "O" 
			},
			{
				"x": 3.7188875342,
				"y": 1.228472646,
				"z": -4.5886636932,
				"element": "O" 
			},
			{
				"x": 1.0086949185,
				"y": -2.284646611,
				"z": -4.823620037,
				"element": "H" 
			},
			{
				"x": 1.0105464012,
				"y": -0.1932092522,
				"z": -0.0639788841,
				"element": "H" 
			},
			{
				"x": -0.381286414,
				"y": -0.0807743501,
				"z": 1.5756374218,
				"element": "H" 
			},
			{
				"x": -2.6428375953,
				"y": 0.0691647298,
				"z": 2.5405898979,
				"element": "H" 
			},
			{
				"x": -4.6407753125,
				"y": -0.1906127526,
				"z": 1.0737681407,
				"element": "H" 
			},
			{
				"x": -4.3311259794,
				"y": -0.5948272471,
				"z": -1.359044153,
				"element": "H" 
			},
			{
				"x": -2.0644886614,
				"y": -0.7589691914,
				"z": -2.3229775554,
				"element": "H" 
			},
			{
				"x": 5.4079224203,
				"y": 0.4690647675,
				"z": -3.2300522884,
				"element": "H" 
			},
			{
				"x": 6.449994167,
				"y": -0.87314481,
				"z": -1.3962173724,
				"element": "H" 
			},
			{
				"x": 4.9740466726,
				"y": -2.1903310499,
				"z": 0.1286320569,
				"element": "H" 
			},
			{
				"x": 2.5285518532,
				"y": -2.1755831668,
				"z": -0.2081821314,
				"element": "H" 
			}
		],
		 "valence_orbital": [ 
			{
				"type": "occ",
				"energy": -0.28493,
				"method": "rhf"
			},
			{
				"type": "occ",
				"energy": -0.27918,
				"method": "rhf"
			},
			{
				"type": "occ",
				"energy": -0.26752,
				"method": "rhf"
			},
			{
				"type": "occ",
				"energy": -0.25387,
				"method": "rhf"
			},
			{
				"type": "occ",
				"energy": -0.23145,
				"method": "rhf"
			},
			{
				"type": "unocc",
				"energy": -0.08953,
				"method": "rhf"
			},
			{
				"type": "unocc",
				"energy": -0.06789,
				"method": "rhf"
			},
			{
				"type": "unocc",
				"energy": -0.02733,
				"method": "rhf"
			},
			{
				"type": "unocc",
				"energy": -0.00311,
				"method": "rhf"
			},
			{
				"type": "unocc",
				"energy": -0.00056,
				"method": "rhf"
			}
		],
		"cosmo_sigma_profile": { 
			"-0.025": 0.0,
			"-0.024": 0.0,
			"-0.023": 0.0,
			"-0.022": 0.0,
			"-0.021": 0.0,
			"-0.02": 0.0,
			"-0.019": 0.0429391400573,
			"-0.018": 0.7630144005,
			"-0.017": 0.853047810266,
			"-0.016": 0.904742811936,
			"-0.015": 0.834172989732,
			"-0.014": 0.54377547769,
			"-0.013": 0.253029918204,
			"-0.012": 0.792474816196,
			"-0.011": 0.786887885772,
			"-0.01": 1.19836734961,
			"-0.009": 0.365960131476,
			"-0.008": 2.83802101501,
			"-0.007": 11.6737486796,
			"-0.006": 18.7366667373,
			"-0.005": 21.0304098517,
			"-0.004": 18.0478496734,
			"-0.003": 17.1029749335,
			"-0.002": 17.9506858846,
			"-0.001": 18.0362296713,
			"0.0": 19.987624627,
			"0.001": 20.839531987,
			"0.002": 25.3581582375,
			"0.003": 18.5187085826,
			"0.004": 17.39690343,
			"0.005": 15.1077185296,
			"0.006": 8.61804154996,
			"0.007": 10.4499171133,
			"0.008": 9.06516000142,
			"0.009": 6.394217004,
			"0.01": 4.01606761492,
			"0.011": 2.24843973005,
			"0.012": 0.589618962942,
			"0.013": 0.0,
			"0.014": 0.0,
			"0.015": 0.0,
			"0.016": 0.0,
			"0.017": 0.0,
			"0.018": 0.0,
			"0.019": 0.0,
			"0.02": 0.0,
			"0.021": 0.0,
			"0.022": 0.0,
			"0.023": 0.0,
			"0.024": 0.0,
			"0.025": 0.0
		}
	}
}
