{
	 "smiles": "CC1=C(NC2=NC(CCl)=NC(N)=N2)C=CC=C1", 
	 "Tm": 478.15, 
	 "num_atms": 29, 
	 "gaussian": { 
		 "optdone": 1, 
		 "sigma_profile": "yes", 
		 "theory": "DFT", 
		 "functional": "B3LYP", 
		 "basiset": "6-31G**", 
		 "properties": { 
			 "R2extent": 6550.521, 
			 "electric_dipole_moment_norm": 3.19101914441, 
			 "electric_quadrupole_moment_norm": 15.8143245126, 
			 "total_energy": -1160.40152415, 
			 "HOMO_LUMO_gap": 0.18955, 
			 "cosmo_polarized_energy": -14.85, 
			 "cosmo_cavitation_energy": 35.29, 
			 "cosmo_dispersion_energy": -25.32, 
			 "cosmo_repulsion_energy": 2.02, 
			 "cosmo_total_nonelectrostatic_energy": 12.0, 
			 "SMD_solvation_energy": 2.12 
		},
		"coords": [
			{
				"x": -0.8734422233,
				"y": -1.3181507336,
				"z": -0.9520500494,
				"element": "C" 
			},
			{
				"x": -1.6392273834,
				"y": -0.0280218833,
				"z": -1.0886024213,
				"element": "C" 
			},
			{
				"x": -1.0323863124,
				"y": 1.2249743339,
				"z": -0.8727520268,
				"element": "C" 
			},
			{
				"x": 0.3491894083,
				"y": 1.3311154514,
				"z": -0.5333589584,
				"element": "N" 
			},
			{
				"x": 0.9392379278,
				"y": 0.9575039929,
				"z": 0.6381502171,
				"element": "C" 
			},
			{
				"x": 2.2410315741,
				"y": 1.3159076358,
				"z": 0.7609216426,
				"element": "N" 
			},
			{
				"x": 2.7958976411,
				"y": 0.9486807696,
				"z": 1.9139346044,
				"element": "C" 
			},
			{
				"x": 4.236797294,
				"y": 1.337286089,
				"z": 2.1250029312,
				"element": "C" 
			},
			{
				"x": 4.353023616,
				"y": 2.9597873293,
				"z": 2.943470886,
				"element": "Cl" 
			},
			{
				"x": 2.2083245753,
				"y": 0.2719490142,
				"z": 2.9032996127,
				"element": "N" 
			},
			{
				"x": 0.9145714485,
				"y": -0.0292281791,
				"z": 2.6595303085,
				"element": "C" 
			},
			{
				"x": 0.2601371508,
				"y": -0.7342519163,
				"z": 3.61381344,
				"element": "N" 
			},
			{
				"x": 0.2249027261,
				"y": 0.2912503927,
				"z": 1.5520232389,
				"element": "N" 
			},
			{
				"x": -1.754223452,
				"y": 2.4091428854,
				"z": -1.0628251091,
				"element": "C" 
			},
			{
				"x": -3.0913035315,
				"y": 2.3717566208,
				"z": -1.4518651097,
				"element": "C" 
			},
			{
				"x": -3.7149875788,
				"y": 1.138787353,
				"z": -1.6424313121,
				"element": "C" 
			},
			{
				"x": -2.9901290195,
				"y": -0.0384957262,
				"z": -1.4608870168,
				"element": "C" 
			},
			{
				"x": 0.1128546107,
				"y": -1.243162278,
				"z": -1.4217484967,
				"element": "H" 
			},
			{
				"x": -0.7062185324,
				"y": -1.5613710071,
				"z": 0.1020574962,
				"element": "H" 
			},
			{
				"x": -1.4165231811,
				"y": -2.1435189127,
				"z": -1.4200925831,
				"element": "H" 
			},
			{
				"x": 0.921116829,
				"y": 1.9654412093,
				"z": -1.0749727481,
				"element": "H" 
			},
			{
				"x": 4.7515694408,
				"y": 1.4345587671,
				"z": 1.1708330478,
				"element": "H" 
			},
			{
				"x": 4.7340378993,
				"y": 0.6245150696,
				"z": 2.7806144258,
				"element": "H" 
			},
			{
				"x": 0.7068484515,
				"y": -0.8436091828,
				"z": 4.5096641453,
				"element": "H" 
			},
			{
				"x": -0.7390744191,
				"y": -0.8318136795,
				"z": 3.5355491266,
				"element": "H" 
			},
			{
				"x": -1.2575911577,
				"y": 3.3603187424,
				"z": -0.8913182111,
				"element": "H" 
			},
			{
				"x": -3.6405096096,
				"y": 3.2974481626,
				"z": -1.5953441887,
				"element": "H" 
			},
			{
				"x": -4.7582326127,
				"y": 1.0922724155,
				"z": -1.9410356697,
				"element": "H" 
			},
			{
				"x": -3.4741915798,
				"y": -0.9970727359,
				"z": -1.6298812222,
				"element": "H" 
			}
		],
		 "valence_orbital": [ 
			{
				"type": "occ",
				"energy": -0.26687,
				"method": "rhf"
			},
			{
				"type": "occ",
				"energy": -0.26176,
				"method": "rhf"
			},
			{
				"type": "occ",
				"energy": -0.25234,
				"method": "rhf"
			},
			{
				"type": "occ",
				"energy": -0.24584,
				"method": "rhf"
			},
			{
				"type": "occ",
				"energy": -0.22829,
				"method": "rhf"
			},
			{
				"type": "unocc",
				"energy": -0.03874,
				"method": "rhf"
			},
			{
				"type": "unocc",
				"energy": -0.01188,
				"method": "rhf"
			},
			{
				"type": "unocc",
				"energy": -0.00125,
				"method": "rhf"
			},
			{
				"type": "unocc",
				"energy": 0.00848,
				"method": "rhf"
			},
			{
				"type": "unocc",
				"energy": 0.0494,
				"method": "rhf"
			}
		],
		"cosmo_sigma_profile": { 
			"-0.025": 0.0,
			"-0.024": 0.0,
			"-0.023": 0.0,
			"-0.022": 0.0,
			"-0.021": 0.0,
			"-0.02": 0.0,
			"-0.019": 0.0,
			"-0.018": 0.0,
			"-0.017": 0.0,
			"-0.016": 0.0,
			"-0.015": 0.276158950791,
			"-0.014": 2.63308835863,
			"-0.013": 3.16168805463,
			"-0.012": 3.09880991709,
			"-0.011": 2.14646025337,
			"-0.01": 3.43151677585,
			"-0.009": 2.83989903871,
			"-0.008": 5.1937874408,
			"-0.007": 5.82888034402,
			"-0.006": 9.77928606123,
			"-0.005": 15.7167102429,
			"-0.004": 16.5924590708,
			"-0.003": 17.9909771118,
			"-0.002": 16.83744592,
			"-0.001": 20.3654596137,
			"0.0": 23.4898746713,
			"0.001": 22.7707803606,
			"0.002": 16.49014001,
			"0.003": 14.4429612132,
			"0.004": 16.9335860452,
			"0.005": 20.1854202723,
			"0.006": 21.6586883774,
			"0.007": 5.85686065445,
			"0.008": 3.6158715105,
			"0.009": 2.8583655502,
			"0.01": 2.48137217443,
			"0.011": 3.03235254103,
			"0.012": 1.63433917528,
			"0.013": 1.47713152644,
			"0.014": 0.3785543435,
			"0.015": 0.0,
			"0.016": 0.0,
			"0.017": 0.0,
			"0.018": 0.0,
			"0.019": 0.0,
			"0.02": 0.0,
			"0.021": 0.0,
			"0.022": 0.0,
			"0.023": 0.0,
			"0.024": 0.0,
			"0.025": 0.0
		}
	}
}
