{
	 "smiles": "OC(=O)C1=CC=CN1CC1=NC=CC=C1", 
	 "Tm": 446.15, 
	 "num_atms": 25, 
	 "gaussian": { 
		 "optdone": 1, 
		 "sigma_profile": "yes", 
		 "theory": "DFT", 
		 "functional": "B3LYP", 
		 "basiset": "6-31G**", 
		 "properties": { 
			 "R2extent": 3816.5918, 
			 "electric_dipole_moment_norm": 2.93584125763, 
			 "electric_quadrupole_moment_norm": 14.8512758681, 
			 "total_energy": -685.149837316, 
			 "HOMO_LUMO_gap": 0.19622, 
			 "cosmo_polarized_energy": -13.69, 
			 "cosmo_cavitation_energy": 29.56, 
			 "cosmo_dispersion_energy": -20.98, 
			 "cosmo_repulsion_energy": 1.64, 
			 "cosmo_total_nonelectrostatic_energy": 10.22, 
			 "SMD_solvation_energy": 5.1 
		},
		"coords": [
			{
				"x": -3.3752157202,
				"y": 1.2252547777,
				"z": 0.6254470391,
				"element": "O" 
			},
			{
				"x": -3.3862414725,
				"y": 0.011543077,
				"z": 1.2466245115,
				"element": "C" 
			},
			{
				"x": -4.4208481107,
				"y": -0.6072411097,
				"z": 1.4159214833,
				"element": "O" 
			},
			{
				"x": -2.0738918272,
				"y": -0.4615337884,
				"z": 1.67619042,
				"element": "C" 
			},
			{
				"x": -1.8500327794,
				"y": -1.6609271607,
				"z": 2.3441829152,
				"element": "C" 
			},
			{
				"x": -0.4672664899,
				"y": -1.7686102239,
				"z": 2.5895959671,
				"element": "C" 
			},
			{
				"x": 0.1219683366,
				"y": -0.6303642143,
				"z": 2.065335522,
				"element": "C" 
			},
			{
				"x": -0.8411354094,
				"y": 0.1700277541,
				"z": 1.514947518,
				"element": "N" 
			},
			{
				"x": -0.5346899283,
				"y": 1.409297108,
				"z": 0.8082268759,
				"element": "C" 
			},
			{
				"x": -0.4050874763,
				"y": 1.2705360521,
				"z": -0.7016437125,
				"element": "C" 
			},
			{
				"x": -0.1784980311,
				"y": 2.4313247546,
				"z": -1.3339293141,
				"element": "N" 
			},
			{
				"x": -0.0392729957,
				"y": 2.4030845616,
				"z": -2.6630798966,
				"element": "C" 
			},
			{
				"x": -0.1174281415,
				"y": 1.2350002021,
				"z": -3.4234091009,
				"element": "C" 
			},
			{
				"x": -0.350492992,
				"y": 0.0338685372,
				"z": -2.7567190398,
				"element": "C" 
			},
			{
				"x": -0.4963614975,
				"y": 0.046282176,
				"z": -1.3695123121,
				"element": "C" 
			},
			{
				"x": -4.3020335894,
				"y": 1.4035201806,
				"z": 0.395640573,
				"element": "H" 
			},
			{
				"x": -2.632336326,
				"y": -2.3538147489,
				"z": 2.6172158613,
				"element": "H" 
			},
			{
				"x": 0.0473839794,
				"y": -2.5713890937,
				"z": 3.0977885134,
				"element": "H" 
			},
			{
				"x": 1.1586532627,
				"y": -0.3249087594,
				"z": 2.0427268289,
				"element": "H" 
			},
			{
				"x": 0.4105668849,
				"y": 1.7881266925,
				"z": 1.2088730919,
				"element": "H" 
			},
			{
				"x": -1.2994405914,
				"y": 2.1539514204,
				"z": 1.0263249156,
				"element": "H" 
			},
			{
				"x": 0.1433662551,
				"y": 3.362512279,
				"z": -3.1445724117,
				"element": "H" 
			},
			{
				"x": 0.0014759947,
				"y": 1.2712244048,
				"z": -4.5015434863,
				"element": "H" 
			},
			{
				"x": -0.4189066013,
				"y": -0.9010138379,
				"z": -3.3057556516,
				"element": "H" 
			},
			{
				"x": -0.6793347334,
				"y": -0.8697510408,
				"z": -0.8189771107,
				"element": "H" 
			}
		],
		 "valence_orbital": [ 
			{
				"type": "occ",
				"energy": -0.27215,
				"method": "rhf"
			},
			{
				"type": "occ",
				"energy": -0.26279,
				"method": "rhf"
			},
			{
				"type": "occ",
				"energy": -0.26109,
				"method": "rhf"
			},
			{
				"type": "occ",
				"energy": -0.24801,
				"method": "rhf"
			},
			{
				"type": "occ",
				"energy": -0.22586,
				"method": "rhf"
			},
			{
				"type": "unocc",
				"energy": -0.02964,
				"method": "rhf"
			},
			{
				"type": "unocc",
				"energy": -0.02773,
				"method": "rhf"
			},
			{
				"type": "unocc",
				"energy": -0.01243,
				"method": "rhf"
			},
			{
				"type": "unocc",
				"energy": 0.05669,
				"method": "rhf"
			},
			{
				"type": "unocc",
				"energy": 0.0797,
				"method": "rhf"
			}
		],
		"cosmo_sigma_profile": { 
			"-0.025": 0.0,
			"-0.024": 0.0,
			"-0.023": 0.0,
			"-0.022": 0.0,
			"-0.021": 0.0,
			"-0.02": 0.0,
			"-0.019": 0.0,
			"-0.018": 0.639940891887,
			"-0.017": 1.11575093628,
			"-0.016": 0.39355982363,
			"-0.015": 1.02429938016,
			"-0.014": 0.662536154444,
			"-0.013": 0.275500657781,
			"-0.012": 0.994166960242,
			"-0.011": 0.500619147003,
			"-0.01": 0.650645994829,
			"-0.009": 2.3712842785,
			"-0.008": 4.72269648628,
			"-0.007": 7.9180804967,
			"-0.006": 14.2719903403,
			"-0.005": 16.001928537,
			"-0.004": 14.5371701231,
			"-0.003": 16.1189285927,
			"-0.002": 14.8452422753,
			"-0.001": 17.3427757954,
			"0.0": 13.8177634592,
			"0.001": 14.2863356416,
			"0.002": 18.406867808,
			"0.003": 20.8155427256,
			"0.004": 13.3800740371,
			"0.005": 10.2360184898,
			"0.006": 6.57386654441,
			"0.007": 2.86989995044,
			"0.008": 2.73493904975,
			"0.009": 3.05867426871,
			"0.01": 1.85215674619,
			"0.011": 3.04044443457,
			"0.012": 6.18207449817,
			"0.013": 3.41497297405,
			"0.014": 0.707490328141,
			"0.015": 0.601649096763,
			"0.016": 0.398063401684,
			"0.017": 0.011527257373,
			"0.018": 0.0,
			"0.019": 0.0,
			"0.02": 0.0,
			"0.021": 0.0,
			"0.022": 0.0,
			"0.023": 0.0,
			"0.024": 0.0,
			"0.025": 0.0
		}
	}
}
