{
	 "smiles": "CC1=CC=C2NN=CC2=C1", 
	 "Tm": 384.15, 
	 "num_atms": 18, 
	 "gaussian": { 
		 "optdone": 1, 
		 "sigma_profile": "yes", 
		 "theory": "DFT", 
		 "functional": "B3LYP", 
		 "basiset": "6-31G**", 
		 "properties": { 
			 "R2extent": 1482.6645, 
			 "electric_dipole_moment_norm": 1.97423052859, 
			 "electric_quadrupole_moment_norm": 9.90131603071, 
			 "total_energy": -419.165855474, 
			 "HOMO_LUMO_gap": 0.19104, 
			 "cosmo_polarized_energy": -8.78, 
			 "cosmo_cavitation_energy": 21.59, 
			 "cosmo_dispersion_energy": -16.37, 
			 "cosmo_repulsion_energy": 1.32, 
			 "cosmo_total_nonelectrostatic_energy": 6.54, 
			 "SMD_solvation_energy": 2.82 
		},
		"coords": [
			{
				"x": -1.2317901296,
				"y": -0.3331254712,
				"z": -2.5082779629,
				"element": "C" 
			},
			{
				"x": -0.5970036225,
				"y": 0.0019499151,
				"z": -1.1779140798,
				"element": "C" 
			},
			{
				"x": -1.0344654627,
				"y": 1.1527930797,
				"z": -0.4652346266,
				"element": "C" 
			},
			{
				"x": -0.501382244,
				"y": 1.5236111165,
				"z": 0.7574886133,
				"element": "C" 
			},
			{
				"x": 0.5114172221,
				"y": 0.7067738494,
				"z": 1.2861693939,
				"element": "C" 
			},
			{
				"x": 1.2437243198,
				"y": 0.7705045412,
				"z": 2.4406174755,
				"element": "N" 
			},
			{
				"x": 2.1359395925,
				"y": -0.249326466,
				"z": 2.5522337386,
				"element": "N" 
			},
			{
				"x": 1.9818355598,
				"y": -0.9812282313,
				"z": 1.4620524758,
				"element": "C" 
			},
			{
				"x": 0.9714082915,
				"y": -0.4462626573,
				"z": 0.6041881522,
				"element": "C" 
			},
			{
				"x": 0.4052643116,
				"y": -0.7924196119,
				"z": -0.6380104834,
				"element": "C" 
			},
			{
				"x": -2.3118690113,
				"y": -0.4940074552,
				"z": -2.4087722451,
				"element": "H" 
			},
			{
				"x": -0.7991291198,
				"y": -1.240777042,
				"z": -2.9380507489,
				"element": "H" 
			},
			{
				"x": -1.0944644391,
				"y": 0.4771195035,
				"z": -3.2342427348,
				"element": "H" 
			},
			{
				"x": -1.8204112661,
				"y": 1.7641026799,
				"z": -0.9022299599,
				"element": "H" 
			},
			{
				"x": -0.8544134584,
				"y": 2.407632431,
				"z": 1.2799854469,
				"element": "H" 
			},
			{
				"x": 1.1954415738,
				"y": 1.4563820597,
				"z": 3.1762234013,
				"element": "H" 
			},
			{
				"x": 2.59092377,
				"y": -1.8638811236,
				"z": 1.3186097104,
				"element": "H" 
			},
			{
				"x": 0.7495741122,
				"y": -1.6748411175,
				"z": -1.1712355668,
				"element": "H" 
			}
		],
		 "valence_orbital": [ 
			{
				"type": "occ",
				"energy": -0.33467,
				"method": "rhf"
			},
			{
				"type": "occ",
				"energy": -0.28741,
				"method": "rhf"
			},
			{
				"type": "occ",
				"energy": -0.28677,
				"method": "rhf"
			},
			{
				"type": "occ",
				"energy": -0.23324,
				"method": "rhf"
			},
			{
				"type": "occ",
				"energy": -0.21515,
				"method": "rhf"
			},
			{
				"type": "unocc",
				"energy": -0.02411,
				"method": "rhf"
			},
			{
				"type": "unocc",
				"energy": 0.02119,
				"method": "rhf"
			},
			{
				"type": "unocc",
				"energy": 0.06075,
				"method": "rhf"
			},
			{
				"type": "unocc",
				"energy": 0.08679,
				"method": "rhf"
			},
			{
				"type": "unocc",
				"energy": 0.10342,
				"method": "rhf"
			}
		],
		"cosmo_sigma_profile": { 
			"-0.025": 0.0,
			"-0.024": 0.0,
			"-0.023": 0.0,
			"-0.022": 0.0,
			"-0.021": 0.0,
			"-0.02": 0.0,
			"-0.019": 0.0,
			"-0.018": 0.0,
			"-0.017": 0.0,
			"-0.016": 1.14030857173,
			"-0.015": 1.41442423204,
			"-0.014": 1.21051056721,
			"-0.013": 1.61791419623,
			"-0.012": 0.669971922629,
			"-0.011": 0.753949289048,
			"-0.01": 1.06390249281,
			"-0.009": 1.22085705446,
			"-0.008": 0.903936712594,
			"-0.007": 4.30463168476,
			"-0.006": 5.16211282849,
			"-0.005": 8.48219202197,
			"-0.004": 13.1086307674,
			"-0.003": 14.2381647026,
			"-0.002": 13.4923506013,
			"-0.001": 12.2766334527,
			"0.0": 12.5421295902,
			"0.001": 10.6510123877,
			"0.002": 9.01164093821,
			"0.003": 13.6251279079,
			"0.004": 14.9364635328,
			"0.005": 12.6428462047,
			"0.006": 5.61825909914,
			"0.007": 1.49787406303,
			"0.008": 1.99453774768,
			"0.009": 1.18499318191,
			"0.01": 1.44803067611,
			"0.011": 1.3022170417,
			"0.012": 1.23696815509,
			"0.013": 0.772070439585,
			"0.014": 1.36128933555,
			"0.015": 0.914715245875,
			"0.016": 0.561179249852,
			"0.017": 0.0,
			"0.018": 0.0,
			"0.019": 0.0,
			"0.02": 0.0,
			"0.021": 0.0,
			"0.022": 0.0,
			"0.023": 0.0,
			"0.024": 0.0,
			"0.025": 0.0
		}
	}
}
