{
	 "smiles": "CCCCCC1=CC(O)=C(C2C=C(C)CCC2C(C)=C)C(O)=C1", 
	 "Tm": 340.15, 
	 "num_atms": 53, 
	 "gaussian": { 
		 "optdone": 1, 
		 "sigma_profile": "yes", 
		 "theory": "DFT", 
		 "functional": "B3LYP", 
		 "basiset": "6-31G**", 
		 "properties": { 
			 "R2extent": 9490.2982, 
			 "electric_dipole_moment_norm": 1.77414252246, 
			 "electric_quadrupole_moment_norm": 12.0447451372, 
			 "total_energy": -968.767370066, 
			 "HOMO_LUMO_gap": 0.21248, 
			 "cosmo_polarized_energy": -11.38, 
			 "cosmo_cavitation_energy": 51.64, 
			 "cosmo_dispersion_energy": -33.59, 
			 "cosmo_repulsion_energy": 2.62, 
			 "cosmo_total_nonelectrostatic_energy": 20.67, 
			 "SMD_solvation_energy": 8.89 
		},
		"coords": [
			{
				"x": 3.933956734,
				"y": 3.5219487398,
				"z": 3.5580949213,
				"element": "C" 
			},
			{
				"x": 3.0441323814,
				"y": 2.4734699712,
				"z": 4.2334992505,
				"element": "C" 
			},
			{
				"x": 2.9793323502,
				"y": 1.1486634345,
				"z": 3.4627482895,
				"element": "C" 
			},
			{
				"x": 2.0940256006,
				"y": 0.0963499733,
				"z": 4.1404511321,
				"element": "C" 
			},
			{
				"x": 2.0155224145,
				"y": -1.2491814611,
				"z": 3.3861373951,
				"element": "C" 
			},
			{
				"x": 1.3411499414,
				"y": -1.1595064236,
				"z": 2.0321542222,
				"element": "C" 
			},
			{
				"x": 2.0883675576,
				"y": -1.2016035127,
				"z": 0.8505583002,
				"element": "C" 
			},
			{
				"x": 1.4565490384,
				"y": -1.0889627466,
				"z": -0.3910393599,
				"element": "C" 
			},
			{
				"x": 2.1851110008,
				"y": -1.1309628175,
				"z": -1.5564544973,
				"element": "O" 
			},
			{
				"x": 0.0665278514,
				"y": -0.9319507025,
				"z": -0.5062039871,
				"element": "C" 
			},
			{
				"x": -0.5984210363,
				"y": -0.7475693385,
				"z": -1.8654663683,
				"element": "C" 
			},
			{
				"x": -1.7445193156,
				"y": -1.7296777962,
				"z": -2.0601585101,
				"element": "C" 
			},
			{
				"x": -2.9346382986,
				"y": -1.4467489796,
				"z": -2.6174154074,
				"element": "C" 
			},
			{
				"x": -4.0205115802,
				"y": -2.4819224144,
				"z": -2.7588074843,
				"element": "C" 
			},
			{
				"x": -3.2409124719,
				"y": -0.0657463871,
				"z": -3.1565427317,
				"element": "C" 
			},
			{
				"x": -1.9781386046,
				"y": 0.7831574019,
				"z": -3.3420808477,
				"element": "C" 
			},
			{
				"x": -1.0710219993,
				"y": 0.7244448205,
				"z": -2.0948351881,
				"element": "C" 
			},
			{
				"x": 0.0714182159,
				"y": 1.7259497426,
				"z": -2.1670006104,
				"element": "C" 
			},
			{
				"x": 1.0507143246,
				"y": 1.6184382226,
				"z": -3.3130769938,
				"element": "C" 
			},
			{
				"x": 0.1878592489,
				"y": 2.6871404184,
				"z": -1.2442030537,
				"element": "C" 
			},
			{
				"x": -0.6699176995,
				"y": -0.9174918687,
				"z": 0.6958184951,
				"element": "C" 
			},
			{
				"x": -2.0305541798,
				"y": -0.7837415314,
				"z": 0.7065559795,
				"element": "O" 
			},
			{
				"x": -0.0455656156,
				"y": -1.0251251294,
				"z": 1.9419851772,
				"element": "C" 
			},
			{
				"x": 4.9657898445,
				"y": 3.1641742284,
				"z": 3.4628337152,
				"element": "H" 
			},
			{
				"x": 3.9581782744,
				"y": 4.4561108424,
				"z": 4.1290226649,
				"element": "H" 
			},
			{
				"x": 3.5727440455,
				"y": 3.7570714348,
				"z": 2.5504080604,
				"element": "H" 
			},
			{
				"x": 3.4096607169,
				"y": 2.2845773359,
				"z": 5.2523862144,
				"element": "H" 
			},
			{
				"x": 2.0277555819,
				"y": 2.8746854894,
				"z": 4.3462759078,
				"element": "H" 
			},
			{
				"x": 3.9972138847,
				"y": 0.746629587,
				"z": 3.3487052201,
				"element": "H" 
			},
			{
				"x": 2.6106722,
				"y": 1.3369772202,
				"z": 2.4462260014,
				"element": "H" 
			},
			{
				"x": 2.4712414397,
				"y": -0.0961899202,
				"z": 5.1541265271,
				"element": "H" 
			},
			{
				"x": 1.0789348006,
				"y": 0.4973654182,
				"z": 4.2608473923,
				"element": "H" 
			},
			{
				"x": 1.4690044855,
				"y": -1.9663092831,
				"z": 4.0111365486,
				"element": "H" 
			},
			{
				"x": 3.0288017065,
				"y": -1.6522889811,
				"z": 3.2648072385,
				"element": "H" 
			},
			{
				"x": 3.1692335861,
				"y": -1.3229641124,
				"z": 0.8946817524,
				"element": "H" 
			},
			{
				"x": 3.120764349,
				"y": -1.2070553881,
				"z": -1.3310145786,
				"element": "H" 
			},
			{
				"x": 0.1591396945,
				"y": -0.9856888529,
				"z": -2.6208455828,
				"element": "H" 
			},
			{
				"x": -1.5512865464,
				"y": -2.7468855232,
				"z": -1.7189118181,
				"element": "H" 
			},
			{
				"x": -3.7377356653,
				"y": -3.4359245343,
				"z": -2.3054220713,
				"element": "H" 
			},
			{
				"x": -4.2540554114,
				"y": -2.6607701236,
				"z": -3.8164979738,
				"element": "H" 
			},
			{
				"x": -4.9527708981,
				"y": -2.1427599149,
				"z": -2.2885519778,
				"element": "H" 
			},
			{
				"x": -3.9472506039,
				"y": 0.4406810757,
				"z": -2.4805986364,
				"element": "H" 
			},
			{
				"x": -3.7745878957,
				"y": -0.1631763654,
				"z": -4.111803795,
				"element": "H" 
			},
			{
				"x": -1.4264346868,
				"y": 0.4144186277,
				"z": -4.2159904407,
				"element": "H" 
			},
			{
				"x": -2.2496584941,
				"y": 1.8235771591,
				"z": -3.5533929713,
				"element": "H" 
			},
			{
				"x": -1.6862240191,
				"y": 1.0017217021,
				"z": -1.2292492339,
				"element": "H" 
			},
			{
				"x": 1.6014447924,
				"y": 0.672314278,
				"z": -3.2735569231,
				"element": "H" 
			},
			{
				"x": 0.5469120828,
				"y": 1.6620350052,
				"z": -4.2862069397,
				"element": "H" 
			},
			{
				"x": 1.7797175619,
				"y": 2.4327972543,
				"z": -3.2787384119,
				"element": "H" 
			},
			{
				"x": 0.9851169031,
				"y": 3.4247600957,
				"z": -1.2868888551,
				"element": "H" 
			},
			{
				"x": -0.5043369144,
				"y": 2.7665126286,
				"z": -0.4104972886,
				"element": "H" 
			},
			{
				"x": -2.376096529,
				"y": -0.9970113822,
				"z": -0.1776035108,
				"element": "H" 
			},
			{
				"x": -0.6694541441,
				"y": -1.0125566167,
				"z": 2.8302956427,
				"element": "H" 
			}
		],
		 "valence_orbital": [ 
			{
				"type": "occ",
				"energy": -0.28815,
				"method": "rhf"
			},
			{
				"type": "occ",
				"energy": -0.24368,
				"method": "rhf"
			},
			{
				"type": "occ",
				"energy": -0.2338,
				"method": "rhf"
			},
			{
				"type": "occ",
				"energy": -0.21237,
				"method": "rhf"
			},
			{
				"type": "occ",
				"energy": -0.20425,
				"method": "rhf"
			},
			{
				"type": "unocc",
				"energy": 0.00823,
				"method": "rhf"
			},
			{
				"type": "unocc",
				"energy": 0.01784,
				"method": "rhf"
			},
			{
				"type": "unocc",
				"energy": 0.02647,
				"method": "rhf"
			},
			{
				"type": "unocc",
				"energy": 0.03618,
				"method": "rhf"
			},
			{
				"type": "unocc",
				"energy": 0.07082,
				"method": "rhf"
			}
		],
		"cosmo_sigma_profile": { 
			"-0.025": 0.0,
			"-0.024": 0.0,
			"-0.023": 0.0,
			"-0.022": 0.0,
			"-0.021": 0.0,
			"-0.02": 0.0,
			"-0.019": 0.0,
			"-0.018": 0.118701463163,
			"-0.017": 0.88493114849,
			"-0.016": 0.972339374159,
			"-0.015": 0.575399992139,
			"-0.014": 0.836781079492,
			"-0.013": 1.30874450861,
			"-0.012": 1.35481178886,
			"-0.011": 0.729544911763,
			"-0.01": 0.646458369962,
			"-0.009": 1.3371305495,
			"-0.008": 0.993975579897,
			"-0.007": 1.52286145876,
			"-0.006": 2.74866720219,
			"-0.005": 4.50677357423,
			"-0.004": 16.1543725272,
			"-0.003": 41.8887104777,
			"-0.002": 53.3047992201,
			"-0.001": 61.9867128977,
			"0.0": 60.2195413761,
			"0.001": 45.0596513653,
			"0.002": 26.0210972367,
			"0.003": 16.0375327155,
			"0.004": 13.8347399328,
			"0.005": 13.8450427467,
			"0.006": 13.4587522885,
			"0.007": 8.09893575226,
			"0.008": 4.76388727173,
			"0.009": 2.0252054614,
			"0.01": 1.85358571359,
			"0.011": 1.62495924611,
			"0.012": 2.02362812781,
			"0.013": 0.31216523154,
			"0.014": 0.0,
			"0.015": 0.0,
			"0.016": 0.0,
			"0.017": 0.0,
			"0.018": 0.0,
			"0.019": 0.0,
			"0.02": 0.0,
			"0.021": 0.0,
			"0.022": 0.0,
			"0.023": 0.0,
			"0.024": 0.0,
			"0.025": 0.0
		}
	}
}
