{
	 "smiles": "CCOC(=O)C1=NN(C(C)=C1C(=O)C1=NOC2C1C(=O)N(C2=O)C1=CC=C(C=C1)C(O)=O)C1=CC=C(C)C=C1", 
	 "Tm": 554.15, 
	 "num_atms": 61, 
	 "gaussian": { 
		 "optdone": 1, 
		 "sigma_profile": "yes", 
		 "theory": "DFT", 
		 "functional": "B3LYP", 
		 "basiset": "6-31G**", 
		 "properties": { 
			 "R2extent": 25881.0327, 
			 "electric_dipole_moment_norm": 8.48949708817, 
			 "electric_quadrupole_moment_norm": 37.319438497, 
			 "total_energy": -1862.89765295, 
			 "HOMO_LUMO_gap": 0.17094, 
			 "cosmo_polarized_energy": -34.98, 
			 "cosmo_cavitation_energy": 67.26, 
			 "cosmo_dispersion_energy": -43.68, 
			 "cosmo_repulsion_energy": 3.24, 
			 "cosmo_total_nonelectrostatic_energy": 26.82, 
			 "SMD_solvation_energy": 13.79 
		},
		"coords": [
			{
				"x": 1.9290644543,
				"y": -1.479757623,
				"z": -3.0245970079,
				"element": "C" 
			},
			{
				"x": 1.787640479,
				"y": 0.0052110322,
				"z": -2.727438926,
				"element": "C" 
			},
			{
				"x": 0.4181382669,
				"y": 0.3535973157,
				"z": -2.4042962314,
				"element": "O" 
			},
			{
				"x": 0.0294960723,
				"y": 0.159489118,
				"z": -1.1379920994,
				"element": "C" 
			},
			{
				"x": 0.7516295003,
				"y": -0.2673534433,
				"z": -0.2521375508,
				"element": "O" 
			},
			{
				"x": -1.4016902904,
				"y": 0.5075186285,
				"z": -0.9336579139,
				"element": "C" 
			},
			{
				"x": -2.2327703802,
				"y": 0.5510015054,
				"z": -1.9677128738,
				"element": "N" 
			},
			{
				"x": -3.4588347293,
				"y": 0.7712521435,
				"z": -1.4309073598,
				"element": "N" 
			},
			{
				"x": -3.437308952,
				"y": 0.8316944759,
				"z": -0.0638574001,
				"element": "C" 
			},
			{
				"x": -4.648674004,
				"y": 1.0046012531,
				"z": 0.7949098668,
				"element": "C" 
			},
			{
				"x": -2.0984390246,
				"y": 0.6844647369,
				"z": 0.3012995212,
				"element": "C" 
			},
			{
				"x": -1.594899083,
				"y": 0.7041208579,
				"z": 1.6828790825,
				"element": "C" 
			},
			{
				"x": -2.2520853029,
				"y": 0.3298752809,
				"z": 2.6489008901,
				"element": "O" 
			},
			{
				"x": -0.2340601825,
				"y": 1.2615512306,
				"z": 1.9439370372,
				"element": "C" 
			},
			{
				"x": 0.2082399381,
				"y": 2.2897015312,
				"z": 1.3179637895,
				"element": "N" 
			},
			{
				"x": 1.4282209569,
				"y": 2.688367255,
				"z": 1.8466951069,
				"element": "O" 
			},
			{
				"x": 1.8443296124,
				"y": 1.7360870068,
				"z": 2.8613783035,
				"element": "C" 
			},
			{
				"x": 0.6714690176,
				"y": 0.7804881517,
				"z": 3.0554870594,
				"element": "C" 
			},
			{
				"x": 1.2375713018,
				"y": -0.6215141159,
				"z": 2.7965174328,
				"element": "C" 
			},
			{
				"x": 0.6601403452,
				"y": -1.6678346463,
				"z": 2.9604094525,
				"element": "O" 
			},
			{
				"x": 2.5698647093,
				"y": -0.4743227988,
				"z": 2.3553304156,
				"element": "N" 
			},
			{
				"x": 2.9929458781,
				"y": 0.8660912129,
				"z": 2.3271385829,
				"element": "C" 
			},
			{
				"x": 4.0730297737,
				"y": 1.2660112288,
				"z": 1.9627199991,
				"element": "O" 
			},
			{
				"x": 3.3753321285,
				"y": -1.5691393882,
				"z": 1.9189558958,
				"element": "C" 
			},
			{
				"x": 3.3404355233,
				"y": -2.7802356437,
				"z": 2.6191228503,
				"element": "C" 
			},
			{
				"x": 4.113424996,
				"y": -3.850444827,
				"z": 2.1776213606,
				"element": "C" 
			},
			{
				"x": 4.9334681626,
				"y": -3.7253685723,
				"z": 1.0483147935,
				"element": "C" 
			},
			{
				"x": 4.9816924531,
				"y": -2.4964035141,
				"z": 0.377458408,
				"element": "C" 
			},
			{
				"x": 4.2013603602,
				"y": -1.4257182175,
				"z": 0.796085326,
				"element": "C" 
			},
			{
				"x": 5.7957160874,
				"y": -4.8370719108,
				"z": 0.5317470293,
				"element": "C" 
			},
			{
				"x": 5.4541676625,
				"y": -6.1003545744,
				"z": 0.9038526927,
				"element": "O" 
			},
			{
				"x": 6.7525626181,
				"y": -4.6566539496,
				"z": -0.184209879,
				"element": "O" 
			},
			{
				"x": -4.580703517,
				"y": 0.8470227076,
				"z": -2.3138774353,
				"element": "C" 
			},
			{
				"x": -5.5502165224,
				"y": 1.8387540172,
				"z": -2.15806577,
				"element": "C" 
			},
			{
				"x": -6.6298922302,
				"y": 1.8887406246,
				"z": -3.040029782,
				"element": "C" 
			},
			{
				"x": -6.7547042625,
				"y": 0.9734280388,
				"z": -4.0916408307,
				"element": "C" 
			},
			{
				"x": -7.9357323966,
				"y": 1.0184254771,
				"z": -5.0311990952,
				"element": "C" 
			},
			{
				"x": -5.75381093,
				"y": 0.0011181082,
				"z": -4.2408380984,
				"element": "C" 
			},
			{
				"x": -4.6766233672,
				"y": -0.0712388574,
				"z": -3.3637654198,
				"element": "C" 
			},
			{
				"x": 1.7229017341,
				"y": -2.0744075965,
				"z": -2.1315681548,
				"element": "H" 
			},
			{
				"x": 2.951826598,
				"y": -1.6946537447,
				"z": -3.3515360539,
				"element": "H" 
			},
			{
				"x": 1.2433275264,
				"y": -1.7829793956,
				"z": -3.8208844702,
				"element": "H" 
			},
			{
				"x": 2.4323176549,
				"y": 0.3094500503,
				"z": -1.899484738,
				"element": "H" 
			},
			{
				"x": 2.0140117518,
				"y": 0.6145837514,
				"z": -3.6047752351,
				"element": "H" 
			},
			{
				"x": -4.4426428156,
				"y": 0.5835586973,
				"z": 1.7785116587,
				"element": "H" 
			},
			{
				"x": -4.9073463175,
				"y": 2.0618454649,
				"z": 0.9251685878,
				"element": "H" 
			},
			{
				"x": -5.5149811006,
				"y": 0.5022579962,
				"z": 0.3566913944,
				"element": "H" 
			},
			{
				"x": 2.1742671576,
				"y": 2.3021160508,
				"z": 3.7349741693,
				"element": "H" 
			},
			{
				"x": 0.1603178533,
				"y": 0.7913169622,
				"z": 4.021235983,
				"element": "H" 
			},
			{
				"x": 2.7093112963,
				"y": -2.8860379282,
				"z": 3.4910948493,
				"element": "H" 
			},
			{
				"x": 4.0962926436,
				"y": -4.7702570129,
				"z": 2.7569423544,
				"element": "H" 
			},
			{
				"x": 5.6374100527,
				"y": -2.4017175531,
				"z": -0.4810439741,
				"element": "H" 
			},
			{
				"x": 4.2380503644,
				"y": -0.4813376855,
				"z": 0.2704440348,
				"element": "H" 
			},
			{
				"x": 4.5846099294,
				"y": -6.1006465529,
				"z": 1.3272021199,
				"element": "H" 
			},
			{
				"x": -5.4522481785,
				"y": 2.5824145962,
				"z": -1.3754752297,
				"element": "H" 
			},
			{
				"x": -7.3786941511,
				"y": 2.6660713816,
				"z": -2.9144987471,
				"element": "H" 
			},
			{
				"x": -7.6332243676,
				"y": 0.814788439,
				"z": -6.0631037906,
				"element": "H" 
			},
			{
				"x": -8.428561737,
				"y": 1.9942879776,
				"z": -5.008537606,
				"element": "H" 
			},
			{
				"x": -8.6853628729,
				"y": 0.2650654614,
				"z": -4.7591983512,
				"element": "H" 
			},
			{
				"x": -5.8204230887,
				"y": -0.7140582963,
				"z": -5.0564992491,
				"element": "H" 
			},
			{
				"x": -3.9020550559,
				"y": -0.8193619192,
				"z": -3.4860607748,
				"element": "H" 
			}
		],
		 "valence_orbital": [ 
			{
				"type": "occ",
				"energy": -0.27021,
				"method": "rhf"
			},
			{
				"type": "occ",
				"energy": -0.26395,
				"method": "rhf"
			},
			{
				"type": "occ",
				"energy": -0.25797,
				"method": "rhf"
			},
			{
				"type": "occ",
				"energy": -0.25502,
				"method": "rhf"
			},
			{
				"type": "occ",
				"energy": -0.24714,
				"method": "rhf"
			},
			{
				"type": "unocc",
				"energy": -0.0762,
				"method": "rhf"
			},
			{
				"type": "unocc",
				"energy": -0.05963,
				"method": "rhf"
			},
			{
				"type": "unocc",
				"energy": -0.04737,
				"method": "rhf"
			},
			{
				"type": "unocc",
				"energy": -0.04311,
				"method": "rhf"
			},
			{
				"type": "unocc",
				"energy": -0.0283,
				"method": "rhf"
			}
		],
		"cosmo_sigma_profile": { 
			"-0.025": 0.0,
			"-0.024": 0.0,
			"-0.023": 0.0,
			"-0.022": 0.0,
			"-0.021": 0.0,
			"-0.02": 0.0,
			"-0.019": 0.367225457636,
			"-0.018": 1.26579660735,
			"-0.017": 0.677869552329,
			"-0.016": 1.06198878965,
			"-0.015": 0.882290813024,
			"-0.014": 0.780089808609,
			"-0.013": 1.40514973247,
			"-0.012": 2.4001955896,
			"-0.011": 4.30716047646,
			"-0.01": 8.80927064752,
			"-0.009": 6.68152064817,
			"-0.008": 7.46751892978,
			"-0.007": 13.1172074462,
			"-0.006": 23.7468209427,
			"-0.005": 30.1351643554,
			"-0.004": 42.1743106626,
			"-0.003": 40.8564363911,
			"-0.002": 43.1214040611,
			"-0.001": 43.3742346683,
			"0.0": 38.2588699712,
			"0.001": 34.0707408871,
			"0.002": 31.9254794778,
			"0.003": 25.0194961093,
			"0.004": 24.0708598187,
			"0.005": 14.8226817777,
			"0.006": 14.8050375878,
			"0.007": 15.7890930488,
			"0.008": 14.443564552,
			"0.009": 15.3782036642,
			"0.01": 18.0008393417,
			"0.011": 9.98701436519,
			"0.012": 5.5692522865,
			"0.013": 2.58272334862,
			"0.014": 0.564461817043,
			"0.015": 0.000635370493506,
			"0.016": 0.0,
			"0.017": 0.0,
			"0.018": 0.0,
			"0.019": 0.0,
			"0.02": 0.0,
			"0.021": 0.0,
			"0.022": 0.0,
			"0.023": 0.0,
			"0.024": 0.0,
			"0.025": 0.0
		}
	}
}
