{
	 "smiles": "OCC1=CC=C(OCC#N)C=C1", 
	 "Tm": 372.15, 
	 "num_atms": 21, 
	 "gaussian": { 
		 "optdone": 1, 
		 "sigma_profile": "yes", 
		 "theory": "DFT", 
		 "functional": "B3LYP", 
		 "basiset": "6-31G**", 
		 "properties": { 
			 "R2extent": 2995.2098, 
			 "electric_dipole_moment_norm": 4.05365924814, 
			 "electric_quadrupole_moment_norm": 13.1293421614, 
			 "total_energy": -553.53025382, 
			 "HOMO_LUMO_gap": 0.21661, 
			 "cosmo_polarized_energy": -14.43, 
			 "cosmo_cavitation_energy": 26.16, 
			 "cosmo_dispersion_energy": -18.64, 
			 "cosmo_repulsion_energy": 1.51, 
			 "cosmo_total_nonelectrostatic_energy": 9.03, 
			 "SMD_solvation_energy": 6.22 
		},
		"coords": [
			{
				"x": -0.9678899158,
				"y": 1.5267975206,
				"z": 2.8751879265,
				"element": "O" 
			},
			{
				"x": 0.3549880844,
				"y": 1.6552026126,
				"z": 2.37294362,
				"element": "C" 
			},
			{
				"x": 0.482138443,
				"y": 1.3153296432,
				"z": 0.9003643572,
				"element": "C" 
			},
			{
				"x": -0.3414306809,
				"y": 0.3478834703,
				"z": 0.3203296712,
				"element": "C" 
			},
			{
				"x": -0.2189197764,
				"y": -0.0001663174,
				"z": -1.0277508943,
				"element": "C" 
			},
			{
				"x": 0.7491618801,
				"y": 0.6326419901,
				"z": -1.8112737144,
				"element": "C" 
			},
			{
				"x": 0.9632971314,
				"y": 0.3869275704,
				"z": -3.1526569674,
				"element": "O" 
			},
			{
				"x": 0.0715911026,
				"y": -0.4637469939,
				"z": -3.8402066764,
				"element": "C" 
			},
			{
				"x": 0.2882131855,
				"y": -1.89758709,
				"z": -3.5567505582,
				"element": "C" 
			},
			{
				"x": 0.453743613,
				"y": -3.0265677469,
				"z": -3.3474101811,
				"element": "N" 
			},
			{
				"x": 1.5856636409,
				"y": 1.6025223725,
				"z": -1.2471192509,
				"element": "C" 
			},
			{
				"x": 1.4452501401,
				"y": 1.9385720055,
				"z": 0.0944190602,
				"element": "C" 
			},
			{
				"x": -1.5340108058,
				"y": 2.108426923,
				"z": 2.3500972934,
				"element": "H" 
			},
			{
				"x": 0.9545801659,
				"y": 0.9616127311,
				"z": 2.9748405984,
				"element": "H" 
			},
			{
				"x": 0.7618902704,
				"y": 2.6629598626,
				"z": 2.5542867221,
				"element": "H" 
			},
			{
				"x": -1.091382507,
				"y": -0.140577394,
				"z": 0.934680166,
				"element": "H" 
			},
			{
				"x": -0.8627347251,
				"y": -0.7718814472,
				"z": -1.4337691666,
				"element": "H" 
			},
			{
				"x": -0.976672709,
				"y": -0.2138298377,
				"z": -3.6283708526,
				"element": "H" 
			},
			{
				"x": 0.2540094426,
				"y": -0.291949457,
				"z": -4.9047626102,
				"element": "H" 
			},
			{
				"x": 2.3251775025,
				"y": 2.08476393,
				"z": -1.8777853608,
				"element": "H" 
			},
			{
				"x": 2.0927365175,
				"y": 2.7014656521,
				"z": 0.5205068179,
				"element": "H" 
			}
		],
		 "valence_orbital": [ 
			{
				"type": "occ",
				"energy": -0.3337,
				"method": "rhf"
			},
			{
				"type": "occ",
				"energy": -0.32845,
				"method": "rhf"
			},
			{
				"type": "occ",
				"energy": -0.27938,
				"method": "rhf"
			},
			{
				"type": "occ",
				"energy": -0.26154,
				"method": "rhf"
			},
			{
				"type": "occ",
				"energy": -0.23131,
				"method": "rhf"
			},
			{
				"type": "unocc",
				"energy": -0.0147,
				"method": "rhf"
			},
			{
				"type": "unocc",
				"energy": -0.00377,
				"method": "rhf"
			},
			{
				"type": "unocc",
				"energy": 0.00212,
				"method": "rhf"
			},
			{
				"type": "unocc",
				"energy": 0.0265,
				"method": "rhf"
			},
			{
				"type": "unocc",
				"energy": 0.07947,
				"method": "rhf"
			}
		],
		"cosmo_sigma_profile": { 
			"-0.025": 0.0,
			"-0.024": 0.0,
			"-0.023": 0.0,
			"-0.022": 0.0,
			"-0.021": 0.0,
			"-0.02": 0.0,
			"-0.019": 0.0,
			"-0.018": 0.0,
			"-0.017": 0.0,
			"-0.016": 0.123170702571,
			"-0.015": 0.738875773319,
			"-0.014": 1.27044828609,
			"-0.013": 0.624623603072,
			"-0.012": 0.671961139569,
			"-0.011": 2.73892947785,
			"-0.01": 6.00663992958,
			"-0.009": 5.88901361529,
			"-0.008": 6.71174935537,
			"-0.007": 5.28766178452,
			"-0.006": 8.66894383499,
			"-0.005": 12.9179928003,
			"-0.004": 14.6451314323,
			"-0.003": 12.8770372272,
			"-0.002": 11.1486389677,
			"-0.001": 8.70975365017,
			"0.0": 11.502041205,
			"0.001": 11.7054210348,
			"0.002": 11.3680722174,
			"0.003": 13.2110071879,
			"0.004": 13.2907536948,
			"0.005": 13.0644485014,
			"0.006": 4.31244475155,
			"0.007": 6.81823435961,
			"0.008": 5.18226773279,
			"0.009": 4.8538749401,
			"0.01": 3.72673261298,
			"0.011": 3.26080578583,
			"0.012": 3.56014205783,
			"0.013": 1.87838119038,
			"0.014": 1.99520784307,
			"0.015": 0.214332944719,
			"0.016": 0.0,
			"0.017": 0.0,
			"0.018": 0.0,
			"0.019": 0.0,
			"0.02": 0.0,
			"0.021": 0.0,
			"0.022": 0.0,
			"0.023": 0.0,
			"0.024": 0.0,
			"0.025": 0.0
		}
	}
}
