{
	 "smiles": "NC1=CC(=C(C=C1)C#N)C(F)(F)F", 
	 "Tm": 410.65, 
	 "num_atms": 18, 
	 "gaussian": { 
		 "optdone": 1, 
		 "sigma_profile": "yes", 
		 "theory": "DFT", 
		 "functional": "B3LYP", 
		 "basiset": "6-31G**", 
		 "properties": { 
			 "R2extent": 2979.141, 
			 "electric_dipole_moment_norm": 7.98806794037, 
			 "electric_quadrupole_moment_norm": 6.55498402363, 
			 "total_energy": -716.88102923, 
			 "HOMO_LUMO_gap": 0.18241, 
			 "cosmo_polarized_energy": -16.14, 
			 "cosmo_cavitation_energy": 24.87, 
			 "cosmo_dispersion_energy": -17.28, 
			 "cosmo_repulsion_energy": 1.32, 
			 "cosmo_total_nonelectrostatic_energy": 8.9, 
			 "SMD_solvation_energy": 6.56 
		},
		"coords": [
			{
				"x": -1.8733806648,
				"y": -3.0335944618,
				"z": -1.9001471338,
				"element": "N" 
			},
			{
				"x": -1.4182126933,
				"y": -1.8750208598,
				"z": -1.3076502073,
				"element": "C" 
			},
			{
				"x": -2.0280917429,
				"y": -1.3850984536,
				"z": -0.1350459439,
				"element": "C" 
			},
			{
				"x": -1.6108559467,
				"y": -0.1967988751,
				"z": 0.4444421849,
				"element": "C" 
			},
			{
				"x": -0.5602807653,
				"y": 0.5511524715,
				"z": -0.131461744,
				"element": "C" 
			},
			{
				"x": 0.0445050249,
				"y": 0.0594053475,
				"z": -1.3011811929,
				"element": "C" 
			},
			{
				"x": -0.3716119724,
				"y": -1.1287849674,
				"z": -1.881096449,
				"element": "C" 
			},
			{
				"x": -0.0904319629,
				"y": 1.7807319008,
				"z": 0.4283559154,
				"element": "C" 
			},
			{
				"x": 0.3285687955,
				"y": 2.7832239348,
				"z": 0.8447690638,
				"element": "N" 
			},
			{
				"x": -2.2879454696,
				"y": 0.2923655342,
				"z": 1.7048099448,
				"element": "C" 
			},
			{
				"x": -1.4103456157,
				"y": 0.402029771,
				"z": 2.7225879169,
				"element": "F" 
			},
			{
				"x": -3.2672857711,
				"y": -0.5480579199,
				"z": 2.1071406833,
				"element": "F" 
			},
			{
				"x": -2.8484559192,
				"y": 1.5045851186,
				"z": 1.5231765572,
				"element": "F" 
			},
			{
				"x": -1.2638214898,
				"y": -3.4922900132,
				"z": -2.5601133959,
				"element": "H" 
			},
			{
				"x": -2.4229817344,
				"y": -3.6636305436,
				"z": -1.3356851735,
				"element": "H" 
			},
			{
				"x": -2.8385994797,
				"y": -1.9410689534,
				"z": 0.3224625049,
				"element": "H" 
			},
			{
				"x": 0.8531367522,
				"y": 0.6256793452,
				"z": -1.7508149541,
				"element": "H" 
			},
			{
				"x": 0.1107906551,
				"y": -1.4855283758,
				"z": -2.7867485769,
				"element": "H" 
			}
		],
		 "valence_orbital": [ 
			{
				"type": "occ",
				"energy": -0.35217,
				"method": "rhf"
			},
			{
				"type": "occ",
				"energy": -0.32402,
				"method": "rhf"
			},
			{
				"type": "occ",
				"energy": -0.3176,
				"method": "rhf"
			},
			{
				"type": "occ",
				"energy": -0.28645,
				"method": "rhf"
			},
			{
				"type": "occ",
				"energy": -0.23234,
				"method": "rhf"
			},
			{
				"type": "unocc",
				"energy": -0.04993,
				"method": "rhf"
			},
			{
				"type": "unocc",
				"energy": -0.03435,
				"method": "rhf"
			},
			{
				"type": "unocc",
				"energy": 0.03927,
				"method": "rhf"
			},
			{
				"type": "unocc",
				"energy": 0.05275,
				"method": "rhf"
			},
			{
				"type": "unocc",
				"energy": 0.08228,
				"method": "rhf"
			}
		],
		"cosmo_sigma_profile": { 
			"-0.025": 0.0,
			"-0.024": 0.0,
			"-0.023": 0.0,
			"-0.022": 0.0,
			"-0.021": 0.0,
			"-0.02": 0.0,
			"-0.019": 0.0,
			"-0.018": 0.0,
			"-0.017": 0.0,
			"-0.016": 0.0,
			"-0.015": 0.0453634330733,
			"-0.014": 2.15181222415,
			"-0.013": 3.68678349334,
			"-0.012": 3.27861624022,
			"-0.011": 3.38063515589,
			"-0.01": 3.59061022297,
			"-0.009": 2.43973523466,
			"-0.008": 5.699601949,
			"-0.007": 6.63186646425,
			"-0.006": 5.86652961109,
			"-0.005": 5.51413079384,
			"-0.004": 4.74705922616,
			"-0.003": 6.89682513256,
			"-0.002": 8.7757726677,
			"-0.001": 11.4215933857,
			"0.0": 15.7673144783,
			"0.001": 20.7368726865,
			"0.002": 34.3000618781,
			"0.003": 19.9047793619,
			"0.004": 5.4697595708,
			"0.005": 3.58860489814,
			"0.006": 3.8668322808,
			"0.007": 3.37513943981,
			"0.008": 3.36859890073,
			"0.009": 4.30983403799,
			"0.01": 3.65645005026,
			"0.011": 3.0054732538,
			"0.012": 2.76371695484,
			"0.013": 1.84792681432,
			"0.014": 0.289909813031,
			"0.015": 0.0,
			"0.016": 0.0,
			"0.017": 0.0,
			"0.018": 0.0,
			"0.019": 0.0,
			"0.02": 0.0,
			"0.021": 0.0,
			"0.022": 0.0,
			"0.023": 0.0,
			"0.024": 0.0,
			"0.025": 0.0
		}
	}
}
