{
	 "smiles": "CC1=CC=CC2=CC=CC(C)=C12", 
	 "Tm": 338.15, 
	 "num_atms": 24, 
	 "gaussian": { 
		 "optdone": 1, 
		 "sigma_profile": "yes", 
		 "theory": "DFT", 
		 "functional": "B3LYP", 
		 "basiset": "6-31G**", 
		 "properties": { 
			 "R2extent": 3313.9577, 
			 "electric_dipole_moment_norm": 0.572956857015, 
			 "electric_quadrupole_moment_norm": 5.85928733465, 
			 "total_energy": -464.524578172, 
			 "HOMO_LUMO_gap": 0.17258, 
			 "cosmo_polarized_energy": -4.63, 
			 "cosmo_cavitation_energy": 25.64, 
			 "cosmo_dispersion_energy": -19.37, 
			 "cosmo_repulsion_energy": 1.49, 
			 "cosmo_total_nonelectrostatic_energy": 7.76, 
			 "SMD_solvation_energy": 4.12 
		},
		"coords": [
			{
				"x": 1.5046837371,
				"y": 1.9632089249,
				"z": 2.1766424913,
				"element": "C" 
			},
			{
				"x": 2.1968121967,
				"y": 0.6485952682,
				"z": 1.871603622,
				"element": "C" 
			},
			{
				"x": 3.1958109856,
				"y": 0.2706181336,
				"z": 2.7537592361,
				"element": "C" 
			},
			{
				"x": 3.9344085195,
				"y": -0.9212669911,
				"z": 2.6118711138,
				"element": "C" 
			},
			{
				"x": 3.6626214363,
				"y": -1.7536150046,
				"z": 1.5579591876,
				"element": "C" 
			},
			{
				"x": 2.6510284677,
				"y": -1.426097415,
				"z": 0.616582065,
				"element": "C" 
			},
			{
				"x": 2.4090089615,
				"y": -2.3229996743,
				"z": -0.4575676879,
				"element": "C" 
			},
			{
				"x": 1.4441108558,
				"y": -2.0523373402,
				"z": -1.3919720043,
				"element": "C" 
			},
			{
				"x": 0.689250519,
				"y": -0.8678291269,
				"z": -1.2763070402,
				"element": "C" 
			},
			{
				"x": 0.8749214693,
				"y": 0.0482003473,
				"z": -0.2538279979,
				"element": "C" 
			},
			{
				"x": -0.0255492334,
				"y": 1.2682560475,
				"z": -0.2840525653,
				"element": "C" 
			},
			{
				"x": 1.8847505543,
				"y": -0.2068796191,
				"z": 0.7487258127,
				"element": "C" 
			},
			{
				"x": 1.6211556947,
				"y": 2.6978874222,
				"z": 1.3752103922,
				"element": "H" 
			},
			{
				"x": 1.9364893559,
				"y": 2.4009551687,
				"z": 3.0801887107,
				"element": "H" 
			},
			{
				"x": 0.4327447239,
				"y": 1.8444344439,
				"z": 2.3567327868,
				"element": "H" 
			},
			{
				"x": 3.4186327694,
				"y": 0.9243841597,
				"z": 3.5928692023,
				"element": "H" 
			},
			{
				"x": 4.7074398678,
				"y": -1.1689468109,
				"z": 3.3334962906,
				"element": "H" 
			},
			{
				"x": 4.2146593354,
				"y": -2.6798010345,
				"z": 1.4210973463,
				"element": "H" 
			},
			{
				"x": 3.0078274537,
				"y": -3.2279439648,
				"z": -0.5192245401,
				"element": "H" 
			},
			{
				"x": 1.2566627321,
				"y": -2.7362886036,
				"z": -2.2146140169,
				"element": "H" 
			},
			{
				"x": -0.0737837567,
				"y": -0.6617998298,
				"z": -2.0223013173,
				"element": "H" 
			},
			{
				"x": -0.6555867858,
				"y": 1.3504599484,
				"z": 0.6058227452,
				"element": "H" 
			},
			{
				"x": 0.5333760843,
				"y": 2.2036065574,
				"z": -0.3753004069,
				"element": "H" 
			},
			{
				"x": -0.6933759441,
				"y": 1.206598993,
				"z": -1.1469934259,
				"element": "H" 
			}
		],
		 "valence_orbital": [ 
			{
				"type": "occ",
				"energy": -0.32228,
				"method": "rhf"
			},
			{
				"type": "occ",
				"energy": -0.31406,
				"method": "rhf"
			},
			{
				"type": "occ",
				"energy": -0.26788,
				"method": "rhf"
			},
			{
				"type": "occ",
				"energy": -0.23695,
				"method": "rhf"
			},
			{
				"type": "occ",
				"energy": -0.20249,
				"method": "rhf"
			},
			{
				"type": "unocc",
				"energy": -0.02991,
				"method": "rhf"
			},
			{
				"type": "unocc",
				"energy": -0.00462,
				"method": "rhf"
			},
			{
				"type": "unocc",
				"energy": 0.03459,
				"method": "rhf"
			},
			{
				"type": "unocc",
				"energy": 0.09263,
				"method": "rhf"
			},
			{
				"type": "unocc",
				"energy": 0.09986,
				"method": "rhf"
			}
		],
		"cosmo_sigma_profile": { 
			"-0.025": 0.0,
			"-0.024": 0.0,
			"-0.023": 0.0,
			"-0.022": 0.0,
			"-0.021": 0.0,
			"-0.02": 0.0,
			"-0.019": 0.0,
			"-0.018": 0.0,
			"-0.017": 0.0,
			"-0.016": 0.0,
			"-0.015": 0.0,
			"-0.014": 0.0,
			"-0.013": 0.0,
			"-0.012": 0.0,
			"-0.011": 0.0,
			"-0.01": 0.0,
			"-0.009": 0.0,
			"-0.008": 0.0,
			"-0.007": 0.0,
			"-0.006": 3.65272097131,
			"-0.005": 18.4226292299,
			"-0.004": 20.0034153171,
			"-0.003": 20.7058905442,
			"-0.002": 17.7977437889,
			"-0.001": 17.1405807672,
			"0.0": 20.7752230644,
			"0.001": 15.0392792308,
			"0.002": 11.2402781954,
			"0.003": 11.2796729417,
			"0.004": 15.4590427314,
			"0.005": 20.9793357402,
			"0.006": 11.2287571795,
			"0.007": 0.13208743903,
			"0.008": 0.0,
			"0.009": 0.0,
			"0.01": 0.0,
			"0.011": 0.0,
			"0.012": 0.0,
			"0.013": 0.0,
			"0.014": 0.0,
			"0.015": 0.0,
			"0.016": 0.0,
			"0.017": 0.0,
			"0.018": 0.0,
			"0.019": 0.0,
			"0.02": 0.0,
			"0.021": 0.0,
			"0.022": 0.0,
			"0.023": 0.0,
			"0.024": 0.0,
			"0.025": 0.0
		}
	}
}
