{
	 "smiles": "FC1=NC=C(Br)C=N1", 
	 "Tm": 364.65, 
	 "num_atms": 10, 
	 "gaussian": { 
		 "optdone": 1, 
		 "sigma_profile": "yes", 
		 "theory": "DFT", 
		 "functional": "B3LYP", 
		 "basiset": "6-31G**", 
		 "properties": { 
			 "R2extent": 1685.5885, 
			 "electric_dipole_moment_norm": 2.24560715621, 
			 "electric_quadrupole_moment_norm": 5.24106082392, 
			 "total_energy": -2934.36179855, 
			 "HOMO_LUMO_gap": 0.20362, 
			 "cosmo_polarized_energy": -6.2, 
			 "cosmo_cavitation_energy": 17.78, 
			 "cosmo_dispersion_energy": -13.73, 
			 "cosmo_repulsion_energy": 1.11, 
			 "cosmo_total_nonelectrostatic_energy": 5.16, 
			 "SMD_solvation_energy": -0.51 
		},
		"coords": [
			{
				"x": 3.1867303661,
				"y": 0.3245725153,
				"z": 1.5997656843,
				"element": "F" 
			},
			{
				"x": 2.045990584,
				"y": 0.3570971634,
				"z": 0.9212332852,
				"element": "C" 
			},
			{
				"x": 1.5727658913,
				"y": -0.8211301429,
				"z": 0.5428828504,
				"element": "N" 
			},
			{
				"x": 0.4244600578,
				"y": -0.784073361,
				"z": -0.1395446419,
				"element": "C" 
			},
			{
				"x": -0.2164230319,
				"y": 0.4215376505,
				"z": -0.4239760617,
				"element": "C" 
			},
			{
				"x": -1.8451160814,
				"y": 0.4677465221,
				"z": -1.3925202388,
				"element": "Br" 
			},
			{
				"x": 0.3895082489,
				"y": 1.591629144,
				"z": 0.0330174653,
				"element": "C" 
			},
			{
				"x": 1.5376774734,
				"y": 1.5632644835,
				"z": 0.7161053262,
				"element": "N" 
			},
			{
				"x": 0.0086132866,
				"y": -1.733865378,
				"z": -0.4650827893,
				"element": "H" 
			},
			{
				"x": -0.0546067951,
				"y": 2.5659214031,
				"z": -0.1527808798,
				"element": "H" 
			}
		],
		 "valence_orbital": [ 
			{
				"type": "occ",
				"energy": -0.34862,
				"method": "rhf"
			},
			{
				"type": "occ",
				"energy": -0.34805,
				"method": "rhf"
			},
			{
				"type": "occ",
				"energy": -0.31943,
				"method": "rhf"
			},
			{
				"type": "occ",
				"energy": -0.28134,
				"method": "rhf"
			},
			{
				"type": "occ",
				"energy": -0.27394,
				"method": "rhf"
			},
			{
				"type": "unocc",
				"energy": -0.07032,
				"method": "rhf"
			},
			{
				"type": "unocc",
				"energy": -0.04198,
				"method": "rhf"
			},
			{
				"type": "unocc",
				"energy": -0.01501,
				"method": "rhf"
			},
			{
				"type": "unocc",
				"energy": 0.10701,
				"method": "rhf"
			},
			{
				"type": "unocc",
				"energy": 0.11633,
				"method": "rhf"
			}
		],
		"cosmo_sigma_profile": { 
			"-0.025": 0.0,
			"-0.024": 0.0,
			"-0.023": 0.0,
			"-0.022": 0.0,
			"-0.021": 0.0,
			"-0.02": 0.0,
			"-0.019": 0.0,
			"-0.018": 0.0,
			"-0.017": 0.0,
			"-0.016": 0.0,
			"-0.015": 0.0,
			"-0.014": 0.0,
			"-0.013": 0.0,
			"-0.012": 0.0,
			"-0.011": 0.0,
			"-0.01": 1.46932829417,
			"-0.009": 3.51163668258,
			"-0.008": 3.80123063741,
			"-0.007": 3.32971308672,
			"-0.006": 6.84691093296,
			"-0.005": 6.95434559631,
			"-0.004": 10.2918158137,
			"-0.003": 14.1466660749,
			"-0.002": 10.1373287208,
			"-0.001": 9.23575780918,
			"0.0": 8.49214395932,
			"0.001": 9.22938820563,
			"0.002": 13.0990989831,
			"0.003": 20.9515566003,
			"0.004": 7.21376793671,
			"0.005": 3.5556640263,
			"0.006": 2.08843555031,
			"0.007": 2.27784949121,
			"0.008": 2.65051047439,
			"0.009": 2.00875557787,
			"0.01": 1.8132645312,
			"0.011": 1.7651293854,
			"0.012": 1.98364496999,
			"0.013": 0.976169509577,
			"0.014": 0.0,
			"0.015": 0.0,
			"0.016": 0.0,
			"0.017": 0.0,
			"0.018": 0.0,
			"0.019": 0.0,
			"0.02": 0.0,
			"0.021": 0.0,
			"0.022": 0.0,
			"0.023": 0.0,
			"0.024": 0.0,
			"0.025": 0.0
		}
	}
}
