{
	 "smiles": "ClC1=C(C=CC=N1)N=C=S", 
	 "Tm": 309.15, 
	 "num_atms": 13, 
	 "gaussian": { 
		 "optdone": 1, 
		 "sigma_profile": "yes", 
		 "theory": "DFT", 
		 "functional": "B3LYP", 
		 "basiset": "6-31G**", 
		 "properties": { 
			 "R2extent": 4128.94, 
			 "electric_dipole_moment_norm": 4.18040933283, 
			 "electric_quadrupole_moment_norm": 12.7744473884, 
			 "total_energy": -1198.31298357, 
			 "HOMO_LUMO_gap": 0.17498, 
			 "cosmo_polarized_energy": -7.79, 
			 "cosmo_cavitation_energy": 22.87, 
			 "cosmo_dispersion_energy": -17.21, 
			 "cosmo_repulsion_energy": 1.37, 
			 "cosmo_total_nonelectrostatic_energy": 7.04, 
			 "SMD_solvation_energy": 2.99 
		},
		"coords": [
			{
				"x": -1.7164731663,
				"y": -0.101654627,
				"z": -2.1551611884,
				"element": "Cl" 
			},
			{
				"x": -0.0981363601,
				"y": 0.5075955375,
				"z": -1.8784648202,
				"element": "C" 
			},
			{
				"x": 0.0778028438,
				"y": 1.8849040411,
				"z": -1.5976458649,
				"element": "C" 
			},
			{
				"x": 1.3908217609,
				"y": 2.330222024,
				"z": -1.3834425324,
				"element": "C" 
			},
			{
				"x": 2.4376713746,
				"y": 1.4169822229,
				"z": -1.4525073872,
				"element": "C" 
			},
			{
				"x": 2.1416826135,
				"y": 0.0845889217,
				"z": -1.73566788,
				"element": "C" 
			},
			{
				"x": 0.8929114736,
				"y": -0.3550241891,
				"z": -1.943878917,
				"element": "N" 
			},
			{
				"x": -0.9719357023,
				"y": 2.7481331136,
				"z": -1.5416988725,
				"element": "N" 
			},
			{
				"x": -1.9204043985,
				"y": 3.4585760063,
				"z": -1.4385258075,
				"element": "C" 
			},
			{
				"x": -3.1735174188,
				"y": 4.4252969195,
				"z": -1.3118019388,
				"element": "S" 
			},
			{
				"x": 1.5614506774,
				"y": 3.3794603638,
				"z": -1.1676383105,
				"element": "H" 
			},
			{
				"x": 3.4625159151,
				"y": 1.7328728046,
				"z": -1.2903437302,
				"element": "H" 
			},
			{
				"x": 2.9274103871,
				"y": -0.6636531389,
				"z": -1.8002227504,
				"element": "H" 
			}
		],
		 "valence_orbital": [ 
			{
				"type": "occ",
				"energy": -0.32535,
				"method": "rhf"
			},
			{
				"type": "occ",
				"energy": -0.29531,
				"method": "rhf"
			},
			{
				"type": "occ",
				"energy": -0.29009,
				"method": "rhf"
			},
			{
				"type": "occ",
				"energy": -0.26185,
				"method": "rhf"
			},
			{
				"type": "occ",
				"energy": -0.24507,
				"method": "rhf"
			},
			{
				"type": "unocc",
				"energy": -0.07009,
				"method": "rhf"
			},
			{
				"type": "unocc",
				"energy": -0.04875,
				"method": "rhf"
			},
			{
				"type": "unocc",
				"energy": -0.01035,
				"method": "rhf"
			},
			{
				"type": "unocc",
				"energy": 0.0228,
				"method": "rhf"
			},
			{
				"type": "unocc",
				"energy": 0.0268,
				"method": "rhf"
			}
		],
		"cosmo_sigma_profile": { 
			"-0.025": 0.0,
			"-0.024": 0.0,
			"-0.023": 0.0,
			"-0.022": 0.0,
			"-0.021": 0.0,
			"-0.02": 0.0,
			"-0.019": 0.0,
			"-0.018": 0.0,
			"-0.017": 0.0,
			"-0.016": 0.0,
			"-0.015": 0.0,
			"-0.014": 0.0,
			"-0.013": 0.0,
			"-0.012": 0.0,
			"-0.011": 0.0,
			"-0.01": 0.299024612742,
			"-0.009": 2.93938941649,
			"-0.008": 6.69242940652,
			"-0.007": 7.83241766876,
			"-0.006": 5.95650481984,
			"-0.005": 5.21331201498,
			"-0.004": 6.50432333699,
			"-0.003": 14.2383015109,
			"-0.002": 19.2359861084,
			"-0.001": 17.2723592171,
			"0.0": 20.0110494794,
			"0.001": 15.8962782927,
			"0.002": 13.4364647822,
			"0.003": 13.1995787658,
			"0.004": 14.7126682803,
			"0.005": 16.4406743291,
			"0.006": 4.15311694309,
			"0.007": 1.2253852111,
			"0.008": 1.45309858931,
			"0.009": 1.12412514871,
			"0.01": 0.991897848067,
			"0.011": 0.905748482211,
			"0.012": 1.12268616961,
			"0.013": 0.602383749756,
			"0.014": 0.206295667957,
			"0.015": 0.0,
			"0.016": 0.0,
			"0.017": 0.0,
			"0.018": 0.0,
			"0.019": 0.0,
			"0.02": 0.0,
			"0.021": 0.0,
			"0.022": 0.0,
			"0.023": 0.0,
			"0.024": 0.0,
			"0.025": 0.0
		}
	}
}
