{
	 "smiles": "OC(=O)CN(CCN(CC(O)=O)CC(O)=O)CC(O)=O", 
	 "Tm": 493.15, 
	 "num_atms": 36, 
	 "gaussian": { 
		 "optdone": 1, 
		 "sigma_profile": "yes", 
		 "theory": "DFT", 
		 "functional": "B3LYP", 
		 "basiset": "6-31G**", 
		 "properties": { 
			 "R2extent": 6283.9709, 
			 "electric_dipole_moment_norm": 1.71313210524, 
			 "electric_quadrupole_moment_norm": 10.2256044868, 
			 "total_energy": -1102.01920701, 
			 "HOMO_LUMO_gap": 0.21304, 
			 "cosmo_polarized_energy": -28.8, 
			 "cosmo_cavitation_energy": 39.85, 
			 "cosmo_dispersion_energy": -25.92, 
			 "cosmo_repulsion_energy": 2.03, 
			 "cosmo_total_nonelectrostatic_energy": 15.96, 
			 "SMD_solvation_energy": 9.86 
		},
		"coords": [
			{
				"x": -2.9040803722,
				"y": -0.9880648691,
				"z": 2.161144416,
				"element": "O" 
			},
			{
				"x": -3.364066847,
				"y": -1.0754851693,
				"z": 0.8937649551,
				"element": "C" 
			},
			{
				"x": -4.1227390275,
				"y": -1.941819056,
				"z": 0.5194384815,
				"element": "O" 
			},
			{
				"x": -2.7956675706,
				"y": 0.024923253,
				"z": 0.0056240195,
				"element": "C" 
			},
			{
				"x": -1.4825520919,
				"y": -0.3416854965,
				"z": -0.5076345246,
				"element": "N" 
			},
			{
				"x": -0.5995408823,
				"y": 0.7951924975,
				"z": -0.7880747821,
				"element": "C" 
			},
			{
				"x": 0.2619545856,
				"y": 1.193654034,
				"z": 0.416639003,
				"element": "C" 
			},
			{
				"x": 1.2180854254,
				"y": 0.1382287509,
				"z": 0.7755024919,
				"element": "N" 
			},
			{
				"x": 0.7674558557,
				"y": -0.7009310168,
				"z": 1.8706368076,
				"element": "C" 
			},
			{
				"x": 1.4404966519,
				"y": -2.0608294154,
				"z": 1.9066063583,
				"element": "C" 
			},
			{
				"x": 0.9826799032,
				"y": -2.7798876888,
				"z": 2.9587751618,
				"element": "O" 
			},
			{
				"x": 2.2818322868,
				"y": -2.4823429379,
				"z": 1.1439826389,
				"element": "O" 
			},
			{
				"x": 2.5905464903,
				"y": 0.5787531117,
				"z": 0.9080900629,
				"element": "C" 
			},
			{
				"x": 3.2019732569,
				"y": 1.0127236693,
				"z": -0.4130626016,
				"element": "C" 
			},
			{
				"x": 4.5113455268,
				"y": 1.3182699311,
				"z": -0.2466824299,
				"element": "O" 
			},
			{
				"x": 2.6426431521,
				"y": 1.1057984214,
				"z": -1.4833167817,
				"element": "O" 
			},
			{
				"x": -1.4906284679,
				"y": -1.432921736,
				"z": -1.4563815607,
				"element": "C" 
			},
			{
				"x": -1.2756180219,
				"y": -2.8019671324,
				"z": -0.815318666,
				"element": "C" 
			},
			{
				"x": -1.3145496205,
				"y": -3.7689715629,
				"z": -1.7593319931,
				"element": "O" 
			},
			{
				"x": -1.0888446117,
				"y": -3.0353459681,
				"z": 0.3576564819,
				"element": "O" 
			},
			{
				"x": -3.2165533117,
				"y": -1.7838598125,
				"z": 2.6239469097,
				"element": "H" 
			},
			{
				"x": -3.5304747019,
				"y": 0.2077901314,
				"z": -0.7969421189,
				"element": "H" 
			},
			{
				"x": -2.6961285815,
				"y": 0.9346554132,
				"z": 0.6028455254,
				"element": "H" 
			},
			{
				"x": -1.1752087641,
				"y": 1.6719629777,
				"z": -1.1325166613,
				"element": "H" 
			},
			{
				"x": 0.0924125994,
				"y": 0.5236378282,
				"z": -1.587166542,
				"element": "H" 
			},
			{
				"x": -0.3741813112,
				"y": 1.4630283272,
				"z": 1.2758717982,
				"element": "H" 
			},
			{
				"x": 0.8098991488,
				"y": 2.1003396168,
				"z": 0.1418803795,
				"element": "H" 
			},
			{
				"x": -0.2994677861,
				"y": -0.899642693,
				"z": 1.7468631587,
				"element": "H" 
			},
			{
				"x": 0.8952016736,
				"y": -0.2404839677,
				"z": 2.8702558481,
				"element": "H" 
			},
			{
				"x": 1.4221707354,
				"y": -3.6442334404,
				"z": 2.9018343541,
				"element": "H" 
			},
			{
				"x": 2.7360089164,
				"y": 1.411792292,
				"z": 1.6248574188,
				"element": "H" 
			},
			{
				"x": 3.2005292892,
				"y": -0.253716998,
				"z": 1.2682185826,
				"element": "H" 
			},
			{
				"x": 4.8397470769,
				"y": 1.5865030567,
				"z": -1.1210169558,
				"element": "H" 
			},
			{
				"x": -0.6853359077,
				"y": -1.3059126109,
				"z": -2.1866295673,
				"element": "H" 
			},
			{
				"x": -2.4266698033,
				"y": -1.4934559301,
				"z": -2.0363597461,
				"element": "H" 
			},
			{
				"x": -1.1671748933,
				"y": -4.6102958103,
				"z": -1.2961999224,
				"element": "H" 
			}
		],
		 "valence_orbital": [ 
			{
				"type": "occ",
				"energy": -0.2774,
				"method": "rhf"
			},
			{
				"type": "occ",
				"energy": -0.27606,
				"method": "rhf"
			},
			{
				"type": "occ",
				"energy": -0.26694,
				"method": "rhf"
			},
			{
				"type": "occ",
				"energy": -0.22583,
				"method": "rhf"
			},
			{
				"type": "occ",
				"energy": -0.2109,
				"method": "rhf"
			},
			{
				"type": "unocc",
				"energy": 0.00214,
				"method": "rhf"
			},
			{
				"type": "unocc",
				"energy": 0.00932,
				"method": "rhf"
			},
			{
				"type": "unocc",
				"energy": 0.01064,
				"method": "rhf"
			},
			{
				"type": "unocc",
				"energy": 0.02412,
				"method": "rhf"
			},
			{
				"type": "unocc",
				"energy": 0.07359,
				"method": "rhf"
			}
		],
		"cosmo_sigma_profile": { 
			"-0.025": 0.0,
			"-0.024": 0.0,
			"-0.023": 0.0,
			"-0.022": 0.0,
			"-0.021": 0.0,
			"-0.02": 0.0,
			"-0.019": 0.132582350002,
			"-0.018": 3.2565361266,
			"-0.017": 3.37726163581,
			"-0.016": 3.38783962976,
			"-0.015": 3.47412343671,
			"-0.014": 2.2232049339,
			"-0.013": 1.93264841057,
			"-0.012": 2.46642488717,
			"-0.011": 4.59720579244,
			"-0.01": 2.80316280981,
			"-0.009": 1.42740479438,
			"-0.008": 2.57200351012,
			"-0.007": 7.40473103799,
			"-0.006": 14.8944077827,
			"-0.005": 22.1370777828,
			"-0.004": 25.3607075166,
			"-0.003": 26.9841042254,
			"-0.002": 19.8420527096,
			"-0.001": 16.425461347,
			"0.0": 11.1821997099,
			"0.001": 10.9131017881,
			"0.002": 11.1826667052,
			"0.003": 8.91803867969,
			"0.004": 9.85996667286,
			"0.005": 11.0475394511,
			"0.006": 11.3492654365,
			"0.007": 12.1913987704,
			"0.008": 12.854306732,
			"0.009": 13.4944507397,
			"0.01": 10.9661201897,
			"0.011": 11.3707507854,
			"0.012": 9.45891260482,
			"0.013": 1.4115015712,
			"0.014": 0.528686375927,
			"0.015": 0.00217478238468,
			"0.016": 0.0,
			"0.017": 0.0,
			"0.018": 0.0,
			"0.019": 0.0,
			"0.02": 0.0,
			"0.021": 0.0,
			"0.022": 0.0,
			"0.023": 0.0,
			"0.024": 0.0,
			"0.025": 0.0
		}
	}
}
