{
	 "smiles": "ON=CC1=C(Cl)N=CN1C1=CC=CC=C1", 
	 "Tm": 453.15, 
	 "num_atms": 23, 
	 "gaussian": { 
		 "optdone": 1, 
		 "sigma_profile": "yes", 
		 "theory": "DFT", 
		 "functional": "B3LYP", 
		 "basiset": "6-31G**", 
		 "properties": { 
			 "R2extent": 4124.8435, 
			 "electric_dipole_moment_norm": 5.07881220169, 
			 "electric_quadrupole_moment_norm": 7.43774762411, 
			 "total_energy": -1085.47815695, 
			 "HOMO_LUMO_gap": 0.17894, 
			 "cosmo_polarized_energy": -13.11, 
			 "cosmo_cavitation_energy": 29.74, 
			 "cosmo_dispersion_energy": -21.15, 
			 "cosmo_repulsion_energy": 1.67, 
			 "cosmo_total_nonelectrostatic_energy": 10.25, 
			 "SMD_solvation_energy": 3.35 
		},
		"coords": [
			{
				"x": 0.1363965395,
				"y": 1.9848067853,
				"z": 2.8553076802,
				"element": "O" 
			},
			{
				"x": 1.3407462452,
				"y": 2.3836962953,
				"z": 2.2700292709,
				"element": "N" 
			},
			{
				"x": 1.8239289216,
				"y": 1.4929262631,
				"z": 1.4786628779,
				"element": "C" 
			},
			{
				"x": 1.3322380069,
				"y": 0.1758447303,
				"z": 1.1019595145,
				"element": "C" 
			},
			{
				"x": 2.0876216288,
				"y": -0.9645580736,
				"z": 0.8673473144,
				"element": "C" 
			},
			{
				"x": 3.8144040119,
				"y": -1.0728015937,
				"z": 0.9709752113,
				"element": "Cl" 
			},
			{
				"x": 1.3277300515,
				"y": -2.0463387772,
				"z": 0.5710377139,
				"element": "N" 
			},
			{
				"x": 0.0917770128,
				"y": -1.5895242292,
				"z": 0.5960528681,
				"element": "C" 
			},
			{
				"x": 0.0159932348,
				"y": -0.2600026133,
				"z": 0.9157192196,
				"element": "N" 
			},
			{
				"x": -1.191399959,
				"y": 0.5011077467,
				"z": 0.8224761498,
				"element": "C" 
			},
			{
				"x": -2.3303785576,
				"y": 0.0489179958,
				"z": 1.4923476729,
				"element": "C" 
			},
			{
				"x": -3.5317198126,
				"y": 0.7442258001,
				"z": 1.3521414408,
				"element": "C" 
			},
			{
				"x": -3.5920927021,
				"y": 1.8919268365,
				"z": 0.5601875088,
				"element": "C" 
			},
			{
				"x": -2.4452483733,
				"y": 2.3406248647,
				"z": -0.0995463948,
				"element": "C" 
			},
			{
				"x": -1.2442984563,
				"y": 1.6437737648,
				"z": 0.020389072,
				"element": "C" 
			},
			{
				"x": -0.1027555694,
				"y": 2.7559640255,
				"z": 3.3864355172,
				"element": "H" 
			},
			{
				"x": 2.7977744832,
				"y": 1.7612466527,
				"z": 1.075059389,
				"element": "H" 
			},
			{
				"x": -0.7931925406,
				"y": -2.1608698649,
				"z": 0.3540663863,
				"element": "H" 
			},
			{
				"x": -2.2657285616,
				"y": -0.8257225905,
				"z": 2.1314356389,
				"element": "H" 
			},
			{
				"x": -4.4171882365,
				"y": 0.3925650698,
				"z": 1.8730774691,
				"element": "H" 
			},
			{
				"x": -4.5268657781,
				"y": 2.4346087023,
				"z": 0.4575396419,
				"element": "H" 
			},
			{
				"x": -2.4865084111,
				"y": 3.230418466,
				"z": -0.7205899142,
				"element": "H" 
			},
			{
				"x": -0.3546331779,
				"y": 1.9776637435,
				"z": -0.5025112487,
				"element": "H" 
			}
		],
		 "valence_orbital": [ 
			{
				"type": "occ",
				"energy": -0.28929,
				"method": "rhf"
			},
			{
				"type": "occ",
				"energy": -0.27407,
				"method": "rhf"
			},
			{
				"type": "occ",
				"energy": -0.26937,
				"method": "rhf"
			},
			{
				"type": "occ",
				"energy": -0.25476,
				"method": "rhf"
			},
			{
				"type": "occ",
				"energy": -0.22208,
				"method": "rhf"
			},
			{
				"type": "unocc",
				"energy": -0.04314,
				"method": "rhf"
			},
			{
				"type": "unocc",
				"energy": -0.02113,
				"method": "rhf"
			},
			{
				"type": "unocc",
				"energy": -0.01684,
				"method": "rhf"
			},
			{
				"type": "unocc",
				"energy": 0.03114,
				"method": "rhf"
			},
			{
				"type": "unocc",
				"energy": 0.0458,
				"method": "rhf"
			}
		],
		"cosmo_sigma_profile": { 
			"-0.025": 0.0,
			"-0.024": 0.0,
			"-0.023": 0.0,
			"-0.022": 0.0,
			"-0.021": 0.0,
			"-0.02": 0.0,
			"-0.019": 0.0,
			"-0.018": 0.310003931744,
			"-0.017": 1.13249866666,
			"-0.016": 1.17736602923,
			"-0.015": 0.627781349809,
			"-0.014": 0.535741373825,
			"-0.013": 0.616029649097,
			"-0.012": 0.707240010696,
			"-0.011": 0.818858342694,
			"-0.01": 1.81567908346,
			"-0.009": 1.87091206024,
			"-0.008": 4.40697318455,
			"-0.007": 8.02405730815,
			"-0.006": 14.542756383,
			"-0.005": 16.0601483682,
			"-0.004": 14.4222303349,
			"-0.003": 14.0878261943,
			"-0.002": 14.4628670989,
			"-0.001": 12.7514217376,
			"0.0": 15.8776305339,
			"0.001": 16.8520619823,
			"0.002": 18.2947971978,
			"0.003": 18.215179454,
			"0.004": 21.9288428192,
			"0.005": 11.0297929748,
			"0.006": 7.667669682,
			"0.007": 5.76551290697,
			"0.008": 2.95527862795,
			"0.009": 3.64109977079,
			"0.01": 2.48415911165,
			"0.011": 2.07197513899,
			"0.012": 2.34204596269,
			"0.013": 1.58212853522,
			"0.014": 0.815404363692,
			"0.015": 1.16083286322,
			"0.016": 0.164745640815,
			"0.017": 0.0,
			"0.018": 0.0,
			"0.019": 0.0,
			"0.02": 0.0,
			"0.021": 0.0,
			"0.022": 0.0,
			"0.023": 0.0,
			"0.024": 0.0,
			"0.025": 0.0
		}
	}
}
