{
	 "smiles": "BrCC1=CC=CC=C1C#N", 
	 "Tm": 345.15, 
	 "num_atms": 16, 
	 "gaussian": { 
		 "optdone": 1, 
		 "sigma_profile": "yes", 
		 "theory": "DFT", 
		 "functional": "B3LYP", 
		 "basiset": "6-31G**", 
		 "properties": { 
			 "R2extent": 2917.8465, 
			 "electric_dipole_moment_norm": 5.0215910158, 
			 "electric_quadrupole_moment_norm": 9.68512818449, 
			 "total_energy": -2934.61050469, 
			 "HOMO_LUMO_gap": 0.20057, 
			 "cosmo_polarized_energy": -10.74, 
			 "cosmo_cavitation_energy": 23.55, 
			 "cosmo_dispersion_energy": -16.76, 
			 "cosmo_repulsion_energy": 1.37, 
			 "cosmo_total_nonelectrostatic_energy": 8.16, 
			 "SMD_solvation_energy": 4.04 
		},
		"coords": [
			{
				"x": -0.6331912798,
				"y": 3.2424690505,
				"z": 1.5817560322,
				"element": "Br" 
			},
			{
				"x": -1.2160796263,
				"y": 2.3278975187,
				"z": -0.097801521,
				"element": "C" 
			},
			{
				"x": -0.760221646,
				"y": 0.9041721193,
				"z": -0.134801076,
				"element": "C" 
			},
			{
				"x": -1.5098360341,
				"y": -0.0935458533,
				"z": 0.4982500273,
				"element": "C" 
			},
			{
				"x": -1.1047781026,
				"y": -1.4264976797,
				"z": 0.4718523635,
				"element": "C" 
			},
			{
				"x": 0.068589087,
				"y": -1.7907311394,
				"z": -0.1935791478,
				"element": "C" 
			},
			{
				"x": 0.8312811842,
				"y": -0.8188212275,
				"z": -0.8331077844,
				"element": "C" 
			},
			{
				"x": 0.424126729,
				"y": 0.5256557098,
				"z": -0.8068075448,
				"element": "C" 
			},
			{
				"x": 1.2219447597,
				"y": 1.505982958,
				"z": -1.4854747976,
				"element": "C" 
			},
			{
				"x": 1.8653273047,
				"y": 2.2954774235,
				"z": -2.0479990442,
				"element": "N" 
			},
			{
				"x": -0.7955553756,
				"y": 2.9305303162,
				"z": -0.8997302106,
				"element": "H" 
			},
			{
				"x": -2.3011372996,
				"y": 2.4105720332,
				"z": -0.0904183428,
				"element": "H" 
			},
			{
				"x": -2.4180962819,
				"y": 0.1861972293,
				"z": 1.0243305499,
				"element": "H" 
			},
			{
				"x": -1.7047994656,
				"y": -2.1819433293,
				"z": 0.9699187242,
				"element": "H" 
			},
			{
				"x": 0.3865691566,
				"y": -2.8281964096,
				"z": -0.2163641224,
				"element": "H" 
			},
			{
				"x": 1.7422568903,
				"y": -1.0855187196,
				"z": -1.3581241055,
				"element": "H" 
			}
		],
		 "valence_orbital": [ 
			{
				"type": "occ",
				"energy": -0.33749,
				"method": "rhf"
			},
			{
				"type": "occ",
				"energy": -0.28691,
				"method": "rhf"
			},
			{
				"type": "occ",
				"energy": -0.27884,
				"method": "rhf"
			},
			{
				"type": "occ",
				"energy": -0.27432,
				"method": "rhf"
			},
			{
				"type": "occ",
				"energy": -0.26786,
				"method": "rhf"
			},
			{
				"type": "unocc",
				"energy": -0.06729,
				"method": "rhf"
			},
			{
				"type": "unocc",
				"energy": -0.04559,
				"method": "rhf"
			},
			{
				"type": "unocc",
				"energy": 0.01279,
				"method": "rhf"
			},
			{
				"type": "unocc",
				"energy": 0.02865,
				"method": "rhf"
			},
			{
				"type": "unocc",
				"energy": 0.06895,
				"method": "rhf"
			}
		],
		"cosmo_sigma_profile": { 
			"-0.025": 0.0,
			"-0.024": 0.0,
			"-0.023": 0.0,
			"-0.022": 0.0,
			"-0.021": 0.0,
			"-0.02": 0.0,
			"-0.019": 0.0,
			"-0.018": 0.0,
			"-0.017": 0.0,
			"-0.016": 0.0,
			"-0.015": 0.0,
			"-0.014": 0.0,
			"-0.013": 0.0,
			"-0.012": 0.0,
			"-0.011": 0.0,
			"-0.01": 0.0,
			"-0.009": 1.4342484997,
			"-0.008": 6.72455218599,
			"-0.007": 13.4943967619,
			"-0.006": 14.8186959625,
			"-0.005": 12.3365199268,
			"-0.004": 9.21047235149,
			"-0.003": 8.78793035049,
			"-0.002": 10.8865448785,
			"-0.001": 12.4801653407,
			"0.0": 13.1366474994,
			"0.001": 15.1618447526,
			"0.002": 16.2209404217,
			"0.003": 10.9707750664,
			"0.004": 7.66770964042,
			"0.005": 10.8793859558,
			"0.006": 10.6455249333,
			"0.007": 3.27403861733,
			"0.008": 2.89351016818,
			"0.009": 3.31253659185,
			"0.01": 2.95604606967,
			"0.011": 2.66130674811,
			"0.012": 2.28415656579,
			"0.013": 1.12759076527,
			"0.014": 0.0,
			"0.015": 0.0,
			"0.016": 0.0,
			"0.017": 0.0,
			"0.018": 0.0,
			"0.019": 0.0,
			"0.02": 0.0,
			"0.021": 0.0,
			"0.022": 0.0,
			"0.023": 0.0,
			"0.024": 0.0,
			"0.025": 0.0
		}
	}
}
