{
	 "smiles": "CC1=C(C)C2=C(S1)N=C(N=C2Cl)C1=CC=CS1", 
	 "Tm": 407.15, 
	 "num_atms": 26, 
	 "gaussian": { 
		 "optdone": 1, 
		 "sigma_profile": "yes", 
		 "theory": "DFT", 
		 "functional": "B3LYP", 
		 "basiset": "6-31G**", 
		 "properties": { 
			 "R2extent": 6532.3766, 
			 "electric_dipole_moment_norm": 2.65337310984, 
			 "electric_quadrupole_moment_norm": 20.7321077874, 
			 "total_energy": -1828.77629381, 
			 "HOMO_LUMO_gap": 0.14835, 
			 "cosmo_polarized_energy": -8.28, 
			 "cosmo_cavitation_energy": 34.93, 
			 "cosmo_dispersion_energy": -26.75, 
			 "cosmo_repulsion_energy": 1.97, 
			 "cosmo_total_nonelectrostatic_energy": 10.15, 
			 "SMD_solvation_energy": 2.63 
		},
		"coords": [
			{
				"x": -3.9781098412,
				"y": -2.9657805601,
				"z": 1.8848729565,
				"element": "C" 
			},
			{
				"x": -2.7489321455,
				"y": -2.3084820925,
				"z": 1.3195938562,
				"element": "C" 
			},
			{
				"x": -1.7155395292,
				"y": -2.8980050396,
				"z": 0.6415379873,
				"element": "C" 
			},
			{
				"x": -1.6630470058,
				"y": -4.3747574351,
				"z": 0.3500120202,
				"element": "C" 
			},
			{
				"x": -0.71107931,
				"y": -1.9294641197,
				"z": 0.2563864996,
				"element": "C" 
			},
			{
				"x": -1.0311280119,
				"y": -0.6058123874,
				"z": 0.6690538401,
				"element": "C" 
			},
			{
				"x": -2.5565108027,
				"y": -0.5673269849,
				"z": 1.5221027981,
				"element": "S" 
			},
			{
				"x": -0.2997555614,
				"y": 0.4797784497,
				"z": 0.4562767716,
				"element": "N" 
			},
			{
				"x": 0.842023999,
				"y": 0.2714439261,
				"z": -0.2138850926,
				"element": "C" 
			},
			{
				"x": 1.2665091829,
				"y": -0.9340785065,
				"z": -0.663500586,
				"element": "N" 
			},
			{
				"x": 0.5156731612,
				"y": -1.9852132959,
				"z": -0.4339009615,
				"element": "C" 
			},
			{
				"x": 1.1432853298,
				"y": -3.5112181451,
				"z": -1.0531619603,
				"element": "Cl" 
			},
			{
				"x": 1.6970243784,
				"y": 1.4192977069,
				"z": -0.4840006318,
				"element": "C" 
			},
			{
				"x": 1.4832255899,
				"y": 2.7345020383,
				"z": -0.1318485927,
				"element": "C" 
			},
			{
				"x": 2.5276530259,
				"y": 3.5978554055,
				"z": -0.5574694272,
				"element": "C" 
			},
			{
				"x": 3.5216445802,
				"y": 2.9293645862,
				"z": -1.2272591766,
				"element": "C" 
			},
			{
				"x": 3.2019885134,
				"y": 1.2341557723,
				"z": -1.3509824455,
				"element": "S" 
			},
			{
				"x": -4.6302128351,
				"y": -2.2391680586,
				"z": 2.3756565899,
				"element": "H" 
			},
			{
				"x": -3.715798228,
				"y": -3.7270388355,
				"z": 2.627811207,
				"element": "H" 
			},
			{
				"x": -4.5638613724,
				"y": -3.4557341221,
				"z": 1.0993079568,
				"element": "H" 
			},
			{
				"x": -2.5447852221,
				"y": -4.8800095586,
				"z": 0.7496844515,
				"element": "H" 
			},
			{
				"x": -0.777621789,
				"y": -4.8403817836,
				"z": 0.7933643958,
				"element": "H" 
			},
			{
				"x": -1.6209025557,
				"y": -4.5704515352,
				"z": -0.7257603042,
				"element": "H" 
			},
			{
				"x": 0.6009215943,
				"y": 3.0469499016,
				"z": 0.4127335791,
				"element": "H" 
			},
			{
				"x": 2.5421874093,
				"y": 4.6663738507,
				"z": -0.3757497917,
				"element": "H" 
			},
			{
				"x": 4.4262474457,
				"y": 3.3391008233,
				"z": -1.6559759395,
				"element": "H" 
			}
		],
		 "valence_orbital": [ 
			{
				"type": "occ",
				"energy": -0.27463,
				"method": "rhf"
			},
			{
				"type": "occ",
				"energy": -0.26608,
				"method": "rhf"
			},
			{
				"type": "occ",
				"energy": -0.25267,
				"method": "rhf"
			},
			{
				"type": "occ",
				"energy": -0.24786,
				"method": "rhf"
			},
			{
				"type": "occ",
				"energy": -0.21325,
				"method": "rhf"
			},
			{
				"type": "unocc",
				"energy": -0.0649,
				"method": "rhf"
			},
			{
				"type": "unocc",
				"energy": -0.04175,
				"method": "rhf"
			},
			{
				"type": "unocc",
				"energy": -0.00194,
				"method": "rhf"
			},
			{
				"type": "unocc",
				"energy": 0.00182,
				"method": "rhf"
			},
			{
				"type": "unocc",
				"energy": 0.0313,
				"method": "rhf"
			}
		],
		"cosmo_sigma_profile": { 
			"-0.025": 0.0,
			"-0.024": 0.0,
			"-0.023": 0.0,
			"-0.022": 0.0,
			"-0.021": 0.0,
			"-0.02": 0.0,
			"-0.019": 0.0,
			"-0.018": 0.0,
			"-0.017": 0.0,
			"-0.016": 0.0,
			"-0.015": 0.0,
			"-0.014": 0.0,
			"-0.013": 0.0,
			"-0.012": 0.0,
			"-0.011": 0.0,
			"-0.01": 0.0,
			"-0.009": 1.1184807738,
			"-0.008": 2.39023340245,
			"-0.007": 4.07428584206,
			"-0.006": 8.30464351859,
			"-0.005": 14.5128725143,
			"-0.004": 19.3011160811,
			"-0.003": 22.8419924721,
			"-0.002": 28.3807306998,
			"-0.001": 29.8982913842,
			"0.0": 27.5145898427,
			"0.001": 27.1563076362,
			"0.002": 26.0890519131,
			"0.003": 29.8402673488,
			"0.004": 23.8566488311,
			"0.005": 7.48755756668,
			"0.006": 4.36606669317,
			"0.007": 2.88660093954,
			"0.008": 3.18821587429,
			"0.009": 2.72519152122,
			"0.01": 1.33791215513,
			"0.011": 0.0868859196948,
			"0.012": 0.0,
			"0.013": 0.0,
			"0.014": 0.0,
			"0.015": 0.0,
			"0.016": 0.0,
			"0.017": 0.0,
			"0.018": 0.0,
			"0.019": 0.0,
			"0.02": 0.0,
			"0.021": 0.0,
			"0.022": 0.0,
			"0.023": 0.0,
			"0.024": 0.0,
			"0.025": 0.0
		}
	}
}
