{
	 "smiles": "COC1=CC2=C(C=C1)[C@H]1CC[C@@]3(C)[C@@H](CC[C@@]3(OC)C#C)[C@@H]1CC2", 
	 "Tm": 387.5, 
	 "num_atms": 52, 
	 "gaussian": { 
		 "optdone": 1, 
		 "sigma_profile": "yes", 
		 "theory": "DFT", 
		 "functional": "B3LYP", 
		 "basiset": "6-31G**", 
		 "properties": { 
			 "R2extent": 10721.563, 
			 "electric_dipole_moment_norm": 2.20360625793, 
			 "electric_quadrupole_moment_norm": 10.8245192725, 
			 "total_energy": -1005.58657652, 
			 "HOMO_LUMO_gap": 0.20984, 
			 "cosmo_polarized_energy": -9.78, 
			 "cosmo_cavitation_energy": 48.32, 
			 "cosmo_dispersion_energy": -33.51, 
			 "cosmo_repulsion_energy": 2.48, 
			 "cosmo_total_nonelectrostatic_energy": 17.29, 
			 "SMD_solvation_energy": 9.36 
		},
		"coords": [
			{
				"x": 2.9289616555,
				"y": -1.2465724902,
				"z": -5.9883290453,
				"element": "C" 
			},
			{
				"x": 2.2821402492,
				"y": -0.0610332208,
				"z": -5.5601312339,
				"element": "O" 
			},
			{
				"x": 1.8711813321,
				"y": 0.0154030934,
				"z": -4.2578119449,
				"element": "C" 
			},
			{
				"x": 2.0469740522,
				"y": -0.9880809618,
				"z": -3.3054325946,
				"element": "C" 
			},
			{
				"x": 1.5908527118,
				"y": -0.8227865626,
				"z": -1.9869386551,
				"element": "C" 
			},
			{
				"x": 0.9423521167,
				"y": 0.3648301497,
				"z": -1.6040499954,
				"element": "C" 
			},
			{
				"x": 0.7868061476,
				"y": 1.3654813136,
				"z": -2.5811898355,
				"element": "C" 
			},
			{
				"x": 1.2346400336,
				"y": 1.2061180272,
				"z": -3.884329766,
				"element": "C" 
			},
			{
				"x": 0.4765680524,
				"y": 0.5878728828,
				"z": -0.1628223917,
				"element": "C" 
			},
			{
				"x": -0.7914226813,
				"y": 1.4650511375,
				"z": -0.0361016708,
				"element": "C" 
			},
			{
				"x": -1.2246128009,
				"y": 1.6874390724,
				"z": 1.4288937306,
				"element": "C" 
			},
			{
				"x": -1.373270547,
				"y": 0.3576494385,
				"z": 2.1863211864,
				"element": "C" 
			},
			{
				"x": -2.6062901084,
				"y": -0.4088092723,
				"z": 1.6560694254,
				"element": "C" 
			},
			{
				"x": -0.0546019985,
				"y": -0.4461224663,
				"z": 2.057269349,
				"element": "C" 
			},
			{
				"x": -0.2139214277,
				"y": -1.5997205994,
				"z": 3.0679682726,
				"element": "C" 
			},
			{
				"x": -1.0799126909,
				"y": -0.9982063856,
				"z": 4.2133750836,
				"element": "C" 
			},
			{
				"x": -1.4892048156,
				"y": 0.4490640651,
				"z": 3.7516740232,
				"element": "C" 
			},
			{
				"x": -2.8299274229,
				"y": 0.7983717412,
				"z": 4.0914149435,
				"element": "O" 
			},
			{
				"x": -3.1222796261,
				"y": 0.897029421,
				"z": 5.4757628893,
				"element": "C" 
			},
			{
				"x": -0.5496465483,
				"y": 1.4404780152,
				"z": 4.3160391504,
				"element": "C" 
			},
			{
				"x": 0.2082942748,
				"y": 2.2366034133,
				"z": 4.819756644,
				"element": "C" 
			},
			{
				"x": 0.3175208492,
				"y": -0.751628266,
				"z": 0.6039572276,
				"element": "C" 
			},
			{
				"x": 1.6002452548,
				"y": -1.5771325396,
				"z": 0.4507035863,
				"element": "C" 
			},
			{
				"x": 1.80159432,
				"y": -1.9717542786,
				"z": -1.0152177933,
				"element": "C" 
			},
			{
				"x": 2.2791931611,
				"y": -2.125589093,
				"z": -5.8834375825,
				"element": "H" 
			},
			{
				"x": 3.8602083757,
				"y": -1.425441319,
				"z": -5.4345380045,
				"element": "H" 
			},
			{
				"x": 3.1638071993,
				"y": -1.099452422,
				"z": -7.0439898272,
				"element": "H" 
			},
			{
				"x": 2.5427233566,
				"y": -1.9171912705,
				"z": -3.5668923577,
				"element": "H" 
			},
			{
				"x": 0.3032605261,
				"y": 2.300893566,
				"z": -2.3199791181,
				"element": "H" 
			},
			{
				"x": 1.1053180414,
				"y": 1.9868718953,
				"z": -4.6268159793,
				"element": "H" 
			},
			{
				"x": 1.2829978143,
				"y": 1.1342562771,
				"z": 0.3570706363,
				"element": "H" 
			},
			{
				"x": -0.6138321102,
				"y": 2.447559891,
				"z": -0.4851436169,
				"element": "H" 
			},
			{
				"x": -1.6037864638,
				"y": 1.0113273647,
				"z": -0.6170065756,
				"element": "H" 
			},
			{
				"x": -2.1633999378,
				"y": 2.2532222106,
				"z": 1.4575379891,
				"element": "H" 
			},
			{
				"x": -0.4704383704,
				"y": 2.3035611894,
				"z": 1.9321104336,
				"element": "H" 
			},
			{
				"x": -2.5360197449,
				"y": -0.5773205921,
				"z": 0.5794727473,
				"element": "H" 
			},
			{
				"x": -3.5108571511,
				"y": 0.170184913,
				"z": 1.8514680122,
				"element": "H" 
			},
			{
				"x": -2.7350357379,
				"y": -1.3844222515,
				"z": 2.1315982885,
				"element": "H" 
			},
			{
				"x": 0.7387197943,
				"y": 0.2081303429,
				"z": 2.4500746918,
				"element": "H" 
			},
			{
				"x": 0.7510364758,
				"y": -1.9615254917,
				"z": 3.433965724,
				"element": "H" 
			},
			{
				"x": -0.7204983244,
				"y": -2.4565896005,
				"z": 2.6098419802,
				"element": "H" 
			},
			{
				"x": -0.5458930965,
				"y": -0.9741213943,
				"z": 5.1657815294,
				"element": "H" 
			},
			{
				"x": -1.9977312254,
				"y": -1.5735070574,
				"z": 4.3658389938,
				"element": "H" 
			},
			{
				"x": -4.1757176638,
				"y": 1.1778834151,
				"z": 5.5465683492,
				"element": "H" 
			},
			{
				"x": -2.511292419,
				"y": 1.6638113539,
				"z": 5.9687552747,
				"element": "H" 
			},
			{
				"x": -2.9768292643,
				"y": -0.0588015217,
				"z": 5.9985323035,
				"element": "H" 
			},
			{
				"x": 0.8790007656,
				"y": 2.9443705696,
				"z": 5.2494670607,
				"element": "H" 
			},
			{
				"x": -0.4985677473,
				"y": -1.3243463958,
				"z": 0.1376545895,
				"element": "H" 
			},
			{
				"x": 1.5617943509,
				"y": -2.4792784204,
				"z": 1.071821241,
				"element": "H" 
			},
			{
				"x": 2.4562333559,
				"y": -0.9859334275,
				"z": 0.8053981138,
				"element": "H" 
			},
			{
				"x": 1.0949221185,
				"y": -2.7768790899,
				"z": -1.2661910318,
				"element": "H" 
			},
			{
				"x": 2.8015435389,
				"y": -2.3978183689,
				"z": -1.1636144501,
				"element": "H" 
			}
		],
		 "valence_orbital": [ 
			{
				"type": "occ",
				"energy": -0.27044,
				"method": "rhf"
			},
			{
				"type": "occ",
				"energy": -0.26209,
				"method": "rhf"
			},
			{
				"type": "occ",
				"energy": -0.2519,
				"method": "rhf"
			},
			{
				"type": "occ",
				"energy": -0.23351,
				"method": "rhf"
			},
			{
				"type": "occ",
				"energy": -0.20391,
				"method": "rhf"
			},
			{
				"type": "unocc",
				"energy": 0.00593,
				"method": "rhf"
			},
			{
				"type": "unocc",
				"energy": 0.02175,
				"method": "rhf"
			},
			{
				"type": "unocc",
				"energy": 0.03693,
				"method": "rhf"
			},
			{
				"type": "unocc",
				"energy": 0.05385,
				"method": "rhf"
			},
			{
				"type": "unocc",
				"energy": 0.08697,
				"method": "rhf"
			}
		],
		"cosmo_sigma_profile": { 
			"-0.025": 0.0,
			"-0.024": 0.0,
			"-0.023": 0.0,
			"-0.022": 0.0,
			"-0.021": 0.0,
			"-0.02": 0.0,
			"-0.019": 0.0,
			"-0.018": 0.0,
			"-0.017": 0.0,
			"-0.016": 0.0,
			"-0.015": 0.0,
			"-0.014": 0.0,
			"-0.013": 0.0,
			"-0.012": 0.283453306066,
			"-0.011": 1.2024466887,
			"-0.01": 1.45033015295,
			"-0.009": 0.499670545519,
			"-0.008": 1.4052574864,
			"-0.007": 1.24863862426,
			"-0.006": 2.71203509087,
			"-0.005": 16.1308670954,
			"-0.004": 22.2239802641,
			"-0.003": 42.3939213696,
			"-0.002": 54.8256173884,
			"-0.001": 53.2875096659,
			"0.0": 42.8457744441,
			"0.001": 32.0691946122,
			"0.002": 17.9041886216,
			"0.003": 15.3533064948,
			"0.004": 18.6600109816,
			"0.005": 15.9635274992,
			"0.006": 15.7299364831,
			"0.007": 9.46562103113,
			"0.008": 3.4165170681,
			"0.009": 3.11915425281,
			"0.01": 2.500277197,
			"0.011": 1.98394871015,
			"0.012": 0.115882924048,
			"0.013": 0.0,
			"0.014": 0.0,
			"0.015": 0.0,
			"0.016": 0.0,
			"0.017": 0.0,
			"0.018": 0.0,
			"0.019": 0.0,
			"0.02": 0.0,
			"0.021": 0.0,
			"0.022": 0.0,
			"0.023": 0.0,
			"0.024": 0.0,
			"0.025": 0.0
		}
	}
}
