{
	 "smiles": "OC(=O)CNCC1=CC(Br)=CC=C1", 
	 "Tm": 487.15, 
	 "num_atms": 23, 
	 "gaussian": { 
		 "optdone": 1, 
		 "sigma_profile": "yes", 
		 "theory": "DFT", 
		 "functional": "B3LYP", 
		 "basiset": "6-31G**", 
		 "properties": { 
			 "R2extent": 5388.212, 
			 "electric_dipole_moment_norm": 2.36259330821, 
			 "electric_quadrupole_moment_norm": 9.05363265822, 
			 "total_energy": -3125.59714056, 
			 "HOMO_LUMO_gap": 0.225, 
			 "cosmo_polarized_energy": -11.69, 
			 "cosmo_cavitation_energy": 29.76, 
			 "cosmo_dispersion_energy": -21.55, 
			 "cosmo_repulsion_energy": 1.75, 
			 "cosmo_total_nonelectrostatic_energy": 9.96, 
			 "SMD_solvation_energy": 3.42 
		},
		"coords": [
			{
				"x": -1.3159439119,
				"y": -1.4839422563,
				"z": 3.2604460658,
				"element": "O" 
			},
			{
				"x": -0.8527164787,
				"y": -1.968736784,
				"z": 2.086378229,
				"element": "C" 
			},
			{
				"x": -1.3526820348,
				"y": -2.9153739168,
				"z": 1.5179320185,
				"element": "O" 
			},
			{
				"x": 0.3805376969,
				"y": -1.208367133,
				"z": 1.6065437285,
				"element": "C" 
			},
			{
				"x": 0.81141604,
				"y": -1.5538857002,
				"z": 0.2659029289,
				"element": "N" 
			},
			{
				"x": -0.0620767555,
				"y": -1.0444405789,
				"z": -0.7966957724,
				"element": "C" 
			},
			{
				"x": 0.1225653326,
				"y": 0.4441146712,
				"z": -1.0413026446,
				"element": "C" 
			},
			{
				"x": 1.3962002981,
				"y": 1.022157129,
				"z": -0.9555902974,
				"element": "C" 
			},
			{
				"x": 1.5548462131,
				"y": 2.3775626949,
				"z": -1.2277482753,
				"element": "C" 
			},
			{
				"x": 3.3003720007,
				"y": 3.1576000776,
				"z": -1.1037809475,
				"element": "Br" 
			},
			{
				"x": 0.4761193201,
				"y": 3.184509089,
				"z": -1.5878565183,
				"element": "C" 
			},
			{
				"x": -0.7902545233,
				"y": 2.6049672986,
				"z": -1.6690535489,
				"element": "C" 
			},
			{
				"x": -0.9672736067,
				"y": 1.2481933057,
				"z": -1.3933800224,
				"element": "C" 
			},
			{
				"x": -2.0723166802,
				"y": -2.0413954437,
				"z": 3.5108693624,
				"element": "H" 
			},
			{
				"x": 0.1841992644,
				"y": -0.133407968,
				"z": 1.6731064788,
				"element": "H" 
			},
			{
				"x": 1.184045266,
				"y": -1.4130040062,
				"z": 2.3263346031,
				"element": "H" 
			},
			{
				"x": 0.8613383089,
				"y": -2.565823519,
				"z": 0.1898294417,
				"element": "H" 
			},
			{
				"x": 0.2038673036,
				"y": -1.5883250208,
				"z": -1.7119731185,
				"element": "H" 
			},
			{
				"x": -1.1289372886,
				"y": -1.2516096134,
				"z": -0.6153885797,
				"element": "H" 
			},
			{
				"x": 2.24093746,
				"y": 0.4075253556,
				"z": -0.6677833057,
				"element": "H" 
			},
			{
				"x": 0.6236700049,
				"y": 4.2383774536,
				"z": -1.7938507689,
				"element": "H" 
			},
			{
				"x": -1.6429284599,
				"y": 3.2203643879,
				"z": -1.9411978326,
				"element": "H" 
			},
			{
				"x": -1.9599847696,
				"y": 0.809240477,
				"z": -1.4522412244,
				"element": "H" 
			}
		],
		 "valence_orbital": [ 
			{
				"type": "occ",
				"energy": -0.28929,
				"method": "rhf"
			},
			{
				"type": "occ",
				"energy": -0.28222,
				"method": "rhf"
			},
			{
				"type": "occ",
				"energy": -0.25596,
				"method": "rhf"
			},
			{
				"type": "occ",
				"energy": -0.23967,
				"method": "rhf"
			},
			{
				"type": "occ",
				"energy": -0.23807,
				"method": "rhf"
			},
			{
				"type": "unocc",
				"energy": -0.01307,
				"method": "rhf"
			},
			{
				"type": "unocc",
				"energy": -0.01164,
				"method": "rhf"
			},
			{
				"type": "unocc",
				"energy": 0.00277,
				"method": "rhf"
			},
			{
				"type": "unocc",
				"energy": 0.01199,
				"method": "rhf"
			},
			{
				"type": "unocc",
				"energy": 0.07084,
				"method": "rhf"
			}
		],
		"cosmo_sigma_profile": { 
			"-0.025": 0.0,
			"-0.024": 0.0,
			"-0.023": 0.0,
			"-0.022": 0.0,
			"-0.021": 0.0,
			"-0.02": 0.0,
			"-0.019": 0.0,
			"-0.018": 0.899111225704,
			"-0.017": 0.871620590146,
			"-0.016": 0.581089491839,
			"-0.015": 0.929785438936,
			"-0.014": 0.851123672495,
			"-0.013": 1.13971144598,
			"-0.012": 0.584081854286,
			"-0.011": 0.481045554684,
			"-0.01": 1.61085777432,
			"-0.009": 1.55542525761,
			"-0.008": 2.22318666001,
			"-0.007": 6.44604524002,
			"-0.006": 11.5391802564,
			"-0.005": 16.1517651136,
			"-0.004": 18.7055121715,
			"-0.003": 15.5467805418,
			"-0.002": 16.4568698792,
			"-0.001": 14.5410035808,
			"0.0": 13.4488643521,
			"0.001": 14.7269828186,
			"0.002": 18.4560274243,
			"0.003": 18.769565915,
			"0.004": 21.750317975,
			"0.005": 15.9980906525,
			"0.006": 3.77655418626,
			"0.007": 2.62073448073,
			"0.008": 4.18355364877,
			"0.009": 3.32411592886,
			"0.01": 2.52807521134,
			"0.011": 4.28574708209,
			"0.012": 3.82082687198,
			"0.013": 0.393457725145,
			"0.014": 0.0,
			"0.015": 0.0,
			"0.016": 0.0,
			"0.017": 0.0,
			"0.018": 0.0,
			"0.019": 0.0,
			"0.02": 0.0,
			"0.021": 0.0,
			"0.022": 0.0,
			"0.023": 0.0,
			"0.024": 0.0,
			"0.025": 0.0
		}
	}
}
