{
	 "smiles": "OC(=O)C1=C(OCC(F)(F)F)N=CC=C1", 
	 "Tm": 396.15, 
	 "num_atms": 21, 
	 "gaussian": { 
		 "optdone": 1, 
		 "sigma_profile": "yes", 
		 "theory": "DFT", 
		 "functional": "B3LYP", 
		 "basiset": "6-31G**", 
		 "properties": { 
			 "R2extent": 5384.2769, 
			 "electric_dipole_moment_norm": 5.31743668792, 
			 "electric_quadrupole_moment_norm": 8.53358368741, 
			 "total_energy": -888.422330632, 
			 "HOMO_LUMO_gap": 0.20093, 
			 "cosmo_polarized_energy": -12.97, 
			 "cosmo_cavitation_energy": 27.84, 
			 "cosmo_dispersion_energy": -19.6, 
			 "cosmo_repulsion_energy": 1.46, 
			 "cosmo_total_nonelectrostatic_energy": 9.7, 
			 "SMD_solvation_energy": 6.52 
		},
		"coords": [
			{
				"x": -1.4485754636,
				"y": 2.4456246268,
				"z": 0.3305815985,
				"element": "O" 
			},
			{
				"x": -1.6891730957,
				"y": 1.1241723859,
				"z": 0.355565497,
				"element": "C" 
			},
			{
				"x": -2.4893937288,
				"y": 0.6517571105,
				"z": 1.1327633563,
				"element": "O" 
			},
			{
				"x": -0.934648427,
				"y": 0.2455239461,
				"z": -0.6113428002,
				"element": "C" 
			},
			{
				"x": 0.0192835936,
				"y": 0.6635587635,
				"z": -1.5644800764,
				"element": "C" 
			},
			{
				"x": 0.3015360419,
				"y": 1.9996501396,
				"z": -1.6334343038,
				"element": "O" 
			},
			{
				"x": 1.2642843044,
				"y": 2.4293995885,
				"z": -2.5929379256,
				"element": "C" 
			},
			{
				"x": 1.3695653969,
				"y": 3.9350724462,
				"z": -2.4439462243,
				"element": "C" 
			},
			{
				"x": 2.2703525765,
				"y": 4.4039067458,
				"z": -3.3285221874,
				"element": "F" 
			},
			{
				"x": 1.7692075628,
				"y": 4.2830675926,
				"z": -1.2069374242,
				"element": "F" 
			},
			{
				"x": 0.1902677671,
				"y": 4.5391384451,
				"z": -2.6791353675,
				"element": "F" 
			},
			{
				"x": 0.6601433504,
				"y": -0.1411505181,
				"z": -2.3956274519,
				"element": "N" 
			},
			{
				"x": 0.3855789401,
				"y": -1.4534076426,
				"z": -2.3310221434,
				"element": "C" 
			},
			{
				"x": -0.5329118133,
				"y": -1.9947922098,
				"z": -1.437949484,
				"element": "C" 
			},
			{
				"x": -1.1952424106,
				"y": -1.1253059894,
				"z": -0.5721576206,
				"element": "C" 
			},
			{
				"x": -0.7833620902,
				"y": 2.6630106563,
				"z": -0.3465311724,
				"element": "H" 
			},
			{
				"x": 0.9463411438,
				"y": 2.1817562551,
				"z": -3.6083653422,
				"element": "H" 
			},
			{
				"x": 2.2386871084,
				"y": 1.9723245956,
				"z": -2.4054248314,
				"element": "H" 
			},
			{
				"x": 0.9301790857,
				"y": -2.0858872934,
				"z": -3.0282647306,
				"element": "H" 
			},
			{
				"x": -0.7234771581,
				"y": -3.0619976905,
				"z": -1.4206541582,
				"element": "H" 
			},
			{
				"x": -1.9244426843,
				"y": -1.4747219538,
				"z": 0.1511227924,
				"element": "H" 
			}
		],
		 "valence_orbital": [ 
			{
				"type": "occ",
				"energy": -0.32005,
				"method": "rhf"
			},
			{
				"type": "occ",
				"energy": -0.30586,
				"method": "rhf"
			},
			{
				"type": "occ",
				"energy": -0.30372,
				"method": "rhf"
			},
			{
				"type": "occ",
				"energy": -0.27294,
				"method": "rhf"
			},
			{
				"type": "occ",
				"energy": -0.26905,
				"method": "rhf"
			},
			{
				"type": "unocc",
				"energy": -0.06812,
				"method": "rhf"
			},
			{
				"type": "unocc",
				"energy": -0.03353,
				"method": "rhf"
			},
			{
				"type": "unocc",
				"energy": 0.04025,
				"method": "rhf"
			},
			{
				"type": "unocc",
				"energy": 0.06167,
				"method": "rhf"
			},
			{
				"type": "unocc",
				"energy": 0.09147,
				"method": "rhf"
			}
		],
		"cosmo_sigma_profile": { 
			"-0.025": 0.0,
			"-0.024": 0.0,
			"-0.023": 0.0,
			"-0.022": 0.0,
			"-0.021": 0.0,
			"-0.02": 0.0,
			"-0.019": 0.0,
			"-0.018": 0.0,
			"-0.017": 0.0,
			"-0.016": 0.0,
			"-0.015": 0.0,
			"-0.014": 0.0,
			"-0.013": 0.0,
			"-0.012": 0.0,
			"-0.011": 0.0,
			"-0.01": 0.834565336855,
			"-0.009": 3.97181453837,
			"-0.008": 7.55473846915,
			"-0.007": 12.6677094036,
			"-0.006": 13.2367645012,
			"-0.005": 11.8140972078,
			"-0.004": 11.4852735253,
			"-0.003": 11.8330276823,
			"-0.002": 13.5695626844,
			"-0.001": 16.1028115709,
			"0.0": 18.4726823644,
			"0.001": 17.1729640343,
			"0.002": 31.6105870842,
			"0.003": 16.4636868805,
			"0.004": 2.91255940662,
			"0.005": 3.6401911622,
			"0.006": 3.16346411149,
			"0.007": 2.93403727098,
			"0.008": 3.81369723425,
			"0.009": 4.28836752845,
			"0.01": 4.34643414794,
			"0.011": 5.81070271443,
			"0.012": 4.169045484,
			"0.013": 1.83953222476,
			"0.014": 0.125902743565,
			"0.015": 0.0,
			"0.016": 0.0,
			"0.017": 0.0,
			"0.018": 0.0,
			"0.019": 0.0,
			"0.02": 0.0,
			"0.021": 0.0,
			"0.022": 0.0,
			"0.023": 0.0,
			"0.024": 0.0,
			"0.025": 0.0
		}
	}
}
