{
	 "smiles": "O=C1N(C(=S)NC2=C1C=CC=C2)C1=CC=CC=C1", 
	 "Tm": 583.15, 
	 "num_atms": 28, 
	 "gaussian": { 
		 "optdone": 1, 
		 "sigma_profile": "yes", 
		 "theory": "DFT", 
		 "functional": "B3LYP", 
		 "basiset": "6-31G**", 
		 "properties": { 
			 "R2extent": 5100.1259, 
			 "electric_dipole_moment_norm": 3.77480557645, 
			 "electric_quadrupole_moment_norm": 26.5701781001, 
			 "total_energy": -1122.46623873, 
			 "HOMO_LUMO_gap": 0.15421, 
			 "cosmo_polarized_energy": -18.8, 
			 "cosmo_cavitation_energy": 34.28, 
			 "cosmo_dispersion_energy": -24.76, 
			 "cosmo_repulsion_energy": 1.85, 
			 "cosmo_total_nonelectrostatic_energy": 11.37, 
			 "SMD_solvation_energy": 5.43 
		},
		"coords": [
			{
				"x": -0.3984574889,
				"y": -1.6081052545,
				"z": -1.1573280026,
				"element": "O" 
			},
			{
				"x": 0.3126992859,
				"y": -0.9422611887,
				"z": -0.4265075009,
				"element": "C" 
			},
			{
				"x": -0.2612869762,
				"y": -0.083912916,
				"z": 0.557574417,
				"element": "N" 
			},
			{
				"x": 0.459057565,
				"y": 0.7145012425,
				"z": 1.4375348769,
				"element": "C" 
			},
			{
				"x": -0.2153670123,
				"y": 1.7185623661,
				"z": 2.5879371625,
				"element": "S" 
			},
			{
				"x": 1.8221909375,
				"y": 0.6358299484,
				"z": 1.3111128655,
				"element": "N" 
			},
			{
				"x": 2.5174532497,
				"y": -0.1487814318,
				"z": 0.4061614382,
				"element": "C" 
			},
			{
				"x": 1.7830219083,
				"y": -0.9515735042,
				"z": -0.4787199577,
				"element": "C" 
			},
			{
				"x": 2.4537895828,
				"y": -1.7580389069,
				"z": -1.4077933546,
				"element": "C" 
			},
			{
				"x": 3.841514522,
				"y": -1.7635368087,
				"z": -1.4534787522,
				"element": "C" 
			},
			{
				"x": 4.5683562313,
				"y": -0.9568433509,
				"z": -0.5638909408,
				"element": "C" 
			},
			{
				"x": 3.9202933678,
				"y": -0.1508713401,
				"z": 0.3639669788,
				"element": "C" 
			},
			{
				"x": -1.7107042471,
				"y": -0.0695565195,
				"z": 0.6141715252,
				"element": "C" 
			},
			{
				"x": -2.3738674521,
				"y": -0.9811945608,
				"z": 1.4327328338,
				"element": "C" 
			},
			{
				"x": -3.7678943653,
				"y": -0.9846379078,
				"z": 1.462394108,
				"element": "C" 
			},
			{
				"x": -4.4877804652,
				"y": -0.0853605266,
				"z": 0.6734261694,
				"element": "C" 
			},
			{
				"x": -3.8125724728,
				"y": 0.8184095693,
				"z": -0.1491517484,
				"element": "C" 
			},
			{
				"x": -2.418644471,
				"y": 0.8269207965,
				"z": -0.1833534414,
				"element": "C" 
			},
			{
				"x": 2.327677726,
				"y": 1.2241633438,
				"z": 1.9598686383,
				"element": "H" 
			},
			{
				"x": 1.8550168594,
				"y": -2.3662037131,
				"z": -2.0771628891,
				"element": "H" 
			},
			{
				"x": 4.3630707424,
				"y": -2.3871010761,
				"z": -2.1719898351,
				"element": "H" 
			},
			{
				"x": 5.6538454679,
				"y": -0.958792503,
				"z": -0.5969961774,
				"element": "H" 
			},
			{
				"x": 4.4853521915,
				"y": 0.4723697333,
				"z": 1.0511653782,
				"element": "H" 
			},
			{
				"x": -1.8014300787,
				"y": -1.6736331743,
				"z": 2.0410986796,
				"element": "H" 
			},
			{
				"x": -4.2902167985,
				"y": -1.6903758046,
				"z": 2.1011630273,
				"element": "H" 
			},
			{
				"x": -5.5735043763,
				"y": -0.0900617911,
				"z": 0.6982611142,
				"element": "H" 
			},
			{
				"x": -4.3696723955,
				"y": 1.5172216518,
				"z": -0.7657686954,
				"element": "H" 
			},
			{
				"x": -1.8806410378,
				"y": 1.5241636271,
				"z": -0.8171279178,
				"element": "H" 
			}
		],
		 "valence_orbital": [ 
			{
				"type": "occ",
				"energy": -0.2615,
				"method": "rhf"
			},
			{
				"type": "occ",
				"energy": -0.25731,
				"method": "rhf"
			},
			{
				"type": "occ",
				"energy": -0.2529,
				"method": "rhf"
			},
			{
				"type": "occ",
				"energy": -0.2215,
				"method": "rhf"
			},
			{
				"type": "occ",
				"energy": -0.21424,
				"method": "rhf"
			},
			{
				"type": "unocc",
				"energy": -0.06003,
				"method": "rhf"
			},
			{
				"type": "unocc",
				"energy": -0.04441,
				"method": "rhf"
			},
			{
				"type": "unocc",
				"energy": -0.00778,
				"method": "rhf"
			},
			{
				"type": "unocc",
				"energy": -0.00431,
				"method": "rhf"
			},
			{
				"type": "unocc",
				"energy": 0.0,
				"method": "rhf"
			}
		],
		"cosmo_sigma_profile": { 
			"-0.025": 0.0,
			"-0.024": 0.0,
			"-0.023": 0.0,
			"-0.022": 0.0,
			"-0.021": 0.0,
			"-0.02": 0.0,
			"-0.019": 0.0,
			"-0.018": 0.0,
			"-0.017": 0.0193312285434,
			"-0.016": 1.3209963121,
			"-0.015": 1.25743825376,
			"-0.014": 1.26832814976,
			"-0.013": 0.908041640574,
			"-0.012": 0.754928717178,
			"-0.011": 1.38815583327,
			"-0.01": 1.26737478433,
			"-0.009": 1.57165767414,
			"-0.008": 2.36369057879,
			"-0.007": 10.4451556652,
			"-0.006": 23.1016015701,
			"-0.005": 24.4415774365,
			"-0.004": 20.3303797787,
			"-0.003": 15.220389407,
			"-0.002": 16.3556143128,
			"-0.001": 14.3135820994,
			"0.0": 16.4796174973,
			"0.001": 17.6265140949,
			"0.002": 17.8609448587,
			"0.003": 17.9111069178,
			"0.004": 10.9929148266,
			"0.005": 10.1743554674,
			"0.006": 7.78180744521,
			"0.007": 7.46832132727,
			"0.008": 8.37083212743,
			"0.009": 10.4395940137,
			"0.01": 7.82284951059,
			"0.011": 5.02422797655,
			"0.012": 4.1244612458,
			"0.013": 0.246620192712,
			"0.014": 0.0,
			"0.015": 0.0,
			"0.016": 0.0,
			"0.017": 0.0,
			"0.018": 0.0,
			"0.019": 0.0,
			"0.02": 0.0,
			"0.021": 0.0,
			"0.022": 0.0,
			"0.023": 0.0,
			"0.024": 0.0,
			"0.025": 0.0
		}
	}
}
