{
	 "smiles": "COC1=CC(=CC=C1)C(CCC(O)=O)C(C)(C)C(O)=O", 
	 "Tm": 410.15, 
	 "num_atms": 40, 
	 "gaussian": { 
		 "optdone": 1, 
		 "sigma_profile": "yes", 
		 "theory": "DFT", 
		 "functional": "B3LYP", 
		 "basiset": "6-31G**", 
		 "properties": { 
			 "R2extent": 5534.2099, 
			 "electric_dipole_moment_norm": 5.16996559853, 
			 "electric_quadrupole_moment_norm": 20.1450181576, 
			 "total_energy": -959.782433204, 
			 "HOMO_LUMO_gap": 0.20938, 
			 "cosmo_polarized_energy": -21.35, 
			 "cosmo_cavitation_energy": 40.17, 
			 "cosmo_dispersion_energy": -26.59, 
			 "cosmo_repulsion_energy": 2.01, 
			 "cosmo_total_nonelectrostatic_energy": 15.59, 
			 "SMD_solvation_energy": 9.31 
		},
		"coords": [
			{
				"x": -2.4645141289,
				"y": 0.5550999153,
				"z": 3.2808159957,
				"element": "C" 
			},
			{
				"x": -2.2902558632,
				"y": -0.8522937607,
				"z": 3.1857564439,
				"element": "O" 
			},
			{
				"x": -1.5464637859,
				"y": -1.3503911266,
				"z": 2.1583767765,
				"element": "C" 
			},
			{
				"x": -0.9037441518,
				"y": -0.5629806436,
				"z": 1.1956992855,
				"element": "C" 
			},
			{
				"x": -0.1510216665,
				"y": -1.1589799162,
				"z": 0.1623102329,
				"element": "C" 
			},
			{
				"x": -0.0685013694,
				"y": -2.5587340436,
				"z": 0.1232383512,
				"element": "C" 
			},
			{
				"x": -0.7130491506,
				"y": -3.3412222326,
				"z": 1.0878442008,
				"element": "C" 
			},
			{
				"x": -1.4497853097,
				"y": -2.7490829479,
				"z": 2.1031744784,
				"element": "C" 
			},
			{
				"x": 0.6253386252,
				"y": -0.3439780445,
				"z": -0.8774247153,
				"element": "C" 
			},
			{
				"x": 1.8627842955,
				"y": 0.358478243,
				"z": -0.2415121723,
				"element": "C" 
			},
			{
				"x": 1.658904034,
				"y": 1.4368336857,
				"z": 0.8400189483,
				"element": "C" 
			},
			{
				"x": 1.7541811449,
				"y": 0.9003727022,
				"z": 2.255150705,
				"element": "C" 
			},
			{
				"x": 1.0792450944,
				"y": 1.683985951,
				"z": 3.1391348385,
				"element": "O" 
			},
			{
				"x": 2.3916648826,
				"y": -0.0654885281,
				"z": 2.6068128158,
				"element": "O" 
			},
			{
				"x": -0.2328607952,
				"y": 0.535389872,
				"z": -1.8898992725,
				"element": "C" 
			},
			{
				"x": -1.3390473861,
				"y": 1.4203797756,
				"z": -1.2616783274,
				"element": "C" 
			},
			{
				"x": 0.6889022504,
				"y": 1.4398215192,
				"z": -2.7280950924,
				"element": "C" 
			},
			{
				"x": -0.9601184796,
				"y": -0.4111004195,
				"z": -2.8853882869,
				"element": "C" 
			},
			{
				"x": -1.7306046752,
				"y": -1.390088869,
				"z": -2.3548508758,
				"element": "O" 
			},
			{
				"x": -0.9073449239,
				"y": -0.2842685765,
				"z": -4.0858788348,
				"element": "O" 
			},
			{
				"x": -2.9856555649,
				"y": 0.9561517102,
				"z": 2.401694354,
				"element": "H" 
			},
			{
				"x": -1.5067386018,
				"y": 1.0758445059,
				"z": 3.3984692493,
				"element": "H" 
			},
			{
				"x": -3.0800967234,
				"y": 0.7206889965,
				"z": 4.1661834276,
				"element": "H" 
			},
			{
				"x": -0.9807245679,
				"y": 0.5127813441,
				"z": 1.2541157708,
				"element": "H" 
			},
			{
				"x": 0.505414601,
				"y": -3.0397926914,
				"z": -0.6633164393,
				"element": "H" 
			},
			{
				"x": -0.6362469739,
				"y": -4.4234446088,
				"z": 1.0409451231,
				"element": "H" 
			},
			{
				"x": -1.9591573896,
				"y": -3.3369800787,
				"z": 2.8592098195,
				"element": "H" 
			},
			{
				"x": 1.0929345326,
				"y": -1.0914382383,
				"z": -1.5317825104,
				"element": "H" 
			},
			{
				"x": 2.4584646685,
				"y": 0.7838788732,
				"z": -1.0512405757,
				"element": "H" 
			},
			{
				"x": 2.4782452581,
				"y": -0.4277141206,
				"z": 0.2073797198,
				"element": "H" 
			},
			{
				"x": 2.4703620069,
				"y": 2.1737745893,
				"z": 0.7658183971,
				"element": "H" 
			},
			{
				"x": 0.7368396066,
				"y": 2.0098933916,
				"z": 0.7299427796,
				"element": "H" 
			},
			{
				"x": 1.2502980151,
				"y": 1.3008463975,
				"z": 4.0166130005,
				"element": "H" 
			},
			{
				"x": -0.9206906888,
				"y": 2.1587126856,
				"z": -0.571463397,
				"element": "H" 
			},
			{
				"x": -1.8495655102,
				"y": 1.9729448479,
				"z": -2.0569136005,
				"element": "H" 
			},
			{
				"x": -2.0937065766,
				"y": 0.8388070928,
				"z": -0.7292211115,
				"element": "H" 
			},
			{
				"x": 1.1153848417,
				"y": 2.240086896,
				"z": -2.1167882096,
				"element": "H" 
			},
			{
				"x": 1.5060511664,
				"y": 0.8732772234,
				"z": -3.1842329309,
				"element": "H" 
			},
			{
				"x": 0.1196939094,
				"y": 1.8908881453,
				"z": -3.5420041486,
				"element": "H" 
			},
			{
				"x": -1.6050146502,
				"y": -1.4561595169,
				"z": -1.3931142131,
				"element": "H" 
			}
		],
		 "valence_orbital": [ 
			{
				"type": "occ",
				"energy": -0.30301,
				"method": "rhf"
			},
			{
				"type": "occ",
				"energy": -0.28616,
				"method": "rhf"
			},
			{
				"type": "occ",
				"energy": -0.2622,
				"method": "rhf"
			},
			{
				"type": "occ",
				"energy": -0.25474,
				"method": "rhf"
			},
			{
				"type": "occ",
				"energy": -0.23124,
				"method": "rhf"
			},
			{
				"type": "unocc",
				"energy": -0.02186,
				"method": "rhf"
			},
			{
				"type": "unocc",
				"energy": -0.0089,
				"method": "rhf"
			},
			{
				"type": "unocc",
				"energy": 0.00691,
				"method": "rhf"
			},
			{
				"type": "unocc",
				"energy": 0.01817,
				"method": "rhf"
			},
			{
				"type": "unocc",
				"energy": 0.0547,
				"method": "rhf"
			}
		],
		"cosmo_sigma_profile": { 
			"-0.025": 0.0,
			"-0.024": 0.0,
			"-0.023": 0.0,
			"-0.022": 0.0,
			"-0.021": 0.0,
			"-0.02": 0.0,
			"-0.019": 0.0,
			"-0.018": 0.560495024118,
			"-0.017": 0.806628947504,
			"-0.016": 0.656655109994,
			"-0.015": 0.800229902754,
			"-0.014": 0.84481956521,
			"-0.013": 0.278747848604,
			"-0.012": 0.798011356541,
			"-0.011": 1.15540381707,
			"-0.01": 1.06582185756,
			"-0.009": 1.9767027622,
			"-0.008": 2.43868093938,
			"-0.007": 7.18946115091,
			"-0.006": 18.4015833207,
			"-0.005": 22.7486696488,
			"-0.004": 32.6085749352,
			"-0.003": 35.3069120889,
			"-0.002": 26.4365929288,
			"-0.001": 21.5097058249,
			"0.0": 20.0532771857,
			"0.001": 16.260260858,
			"0.002": 12.1703675896,
			"0.003": 11.6966776651,
			"0.004": 10.8759893284,
			"0.005": 9.79383386445,
			"0.006": 9.3088302695,
			"0.007": 5.78238070356,
			"0.008": 6.94112643021,
			"0.009": 6.415742571,
			"0.01": 7.67749915809,
			"0.011": 9.07054179712,
			"0.012": 10.0375415878,
			"0.013": 2.92343192635,
			"0.014": 0.342679173885,
			"0.015": 0.0,
			"0.016": 0.0,
			"0.017": 0.0,
			"0.018": 0.0,
			"0.019": 0.0,
			"0.02": 0.0,
			"0.021": 0.0,
			"0.022": 0.0,
			"0.023": 0.0,
			"0.024": 0.0,
			"0.025": 0.0
		}
	}
}
