{
	 "smiles": "O=C1CC2CCC1C2", 
	 "Tm": 368.15, 
	 "num_atms": 18, 
	 "gaussian": { 
		 "optdone": 1, 
		 "sigma_profile": "yes", 
		 "theory": "DFT", 
		 "functional": "B3LYP", 
		 "basiset": "6-31G**", 
		 "properties": { 
			 "R2extent": 1161.0408, 
			 "electric_dipole_moment_norm": 3.07755247071, 
			 "electric_quadrupole_moment_norm": 9.42838133934, 
			 "total_energy": -347.990013807, 
			 "HOMO_LUMO_gap": 0.22128, 
			 "cosmo_polarized_energy": -6.57, 
			 "cosmo_cavitation_energy": 19.2, 
			 "cosmo_dispersion_energy": -14.83, 
			 "cosmo_repulsion_energy": 1.24, 
			 "cosmo_total_nonelectrostatic_energy": 5.61, 
			 "SMD_solvation_energy": 3.15 
		},
		"coords": [
			{
				"x": -2.3546442669,
				"y": -0.9404088951,
				"z": 1.847669047,
				"element": "O" 
			},
			{
				"x": -1.562427537,
				"y": -0.9940242531,
				"z": 0.933091712,
				"element": "C" 
			},
			{
				"x": -1.1950450116,
				"y": -2.2397483445,
				"z": 0.1031535099,
				"element": "C" 
			},
			{
				"x": -0.2360878193,
				"y": -1.6548227422,
				"z": -0.9559776499,
				"element": "C" 
			},
			{
				"x": -1.0549227372,
				"y": -0.7545592916,
				"z": -1.9136266871,
				"element": "C" 
			},
			{
				"x": -1.4107890514,
				"y": 0.4814183526,
				"z": -1.0240652773,
				"element": "C" 
			},
			{
				"x": -0.7379976651,
				"y": 0.1507145928,
				"z": 0.3432518091,
				"element": "C" 
			},
			{
				"x": 0.530939878,
				"y": -0.6015756691,
				"z": -0.1179687468,
				"element": "C" 
			},
			{
				"x": -2.0897855752,
				"y": -2.7258999436,
				"z": -0.2988068121,
				"element": "H" 
			},
			{
				"x": -0.6911980168,
				"y": -2.9646063464,
				"z": 0.7550038871,
				"element": "H" 
			},
			{
				"x": 0.3800946664,
				"y": -2.4021946352,
				"z": -1.4615892321,
				"element": "H" 
			},
			{
				"x": -1.9435552019,
				"y": -1.2652774551,
				"z": -2.2978024564,
				"element": "H" 
			},
			{
				"x": -0.4523312829,
				"y": -0.4572926233,
				"z": -2.7776705952,
				"element": "H" 
			},
			{
				"x": -0.9787411543,
				"y": 1.4020382618,
				"z": -1.4288063805,
				"element": "H" 
			},
			{
				"x": -2.487897397,
				"y": 0.6437514237,
				"z": -0.9251344803,
				"element": "H" 
			},
			{
				"x": -0.6287610632,
				"y": 1.0003970548,
				"z": 1.0180735683,
				"element": "H" 
			},
			{
				"x": 1.10329333,
				"y": -1.0378657993,
				"z": 0.7079147435,
				"element": "H" 
			},
			{
				"x": 1.2003559055,
				"y": 0.0232563129,
				"z": -0.7183099592,
				"element": "H" 
			}
		],
		 "valence_orbital": [ 
			{
				"type": "occ",
				"energy": -0.34979,
				"method": "rhf"
			},
			{
				"type": "occ",
				"energy": -0.33573,
				"method": "rhf"
			},
			{
				"type": "occ",
				"energy": -0.32226,
				"method": "rhf"
			},
			{
				"type": "occ",
				"energy": -0.31511,
				"method": "rhf"
			},
			{
				"type": "occ",
				"energy": -0.23103,
				"method": "rhf"
			},
			{
				"type": "unocc",
				"energy": -0.00975,
				"method": "rhf"
			},
			{
				"type": "unocc",
				"energy": 0.07592,
				"method": "rhf"
			},
			{
				"type": "unocc",
				"energy": 0.10986,
				"method": "rhf"
			},
			{
				"type": "unocc",
				"energy": 0.13101,
				"method": "rhf"
			},
			{
				"type": "unocc",
				"energy": 0.14682,
				"method": "rhf"
			}
		],
		"cosmo_sigma_profile": { 
			"-0.025": 0.0,
			"-0.024": 0.0,
			"-0.023": 0.0,
			"-0.022": 0.0,
			"-0.021": 0.0,
			"-0.02": 0.0,
			"-0.019": 0.0,
			"-0.018": 0.0,
			"-0.017": 0.0,
			"-0.016": 0.0,
			"-0.015": 0.0,
			"-0.014": 0.0,
			"-0.013": 0.0,
			"-0.012": 0.0,
			"-0.011": 0.0,
			"-0.01": 0.0,
			"-0.009": 0.0,
			"-0.008": 0.0,
			"-0.007": 0.0,
			"-0.006": 0.494053156601,
			"-0.005": 6.28852914988,
			"-0.004": 16.2557188811,
			"-0.003": 24.6310090466,
			"-0.002": 24.1520665693,
			"-0.001": 21.3948503495,
			"0.0": 19.9320306707,
			"0.001": 10.6431122969,
			"0.002": 0.988301777756,
			"0.003": 1.2351051922,
			"0.004": 1.24785267467,
			"0.005": 1.81917539134,
			"0.006": 1.54805865577,
			"0.007": 1.53950502499,
			"0.008": 1.11318198356,
			"0.009": 1.83293858441,
			"0.01": 2.12856204599,
			"0.011": 2.96896366265,
			"0.012": 4.97779059164,
			"0.013": 3.41118832394,
			"0.014": 0.668690438561,
			"0.015": 0.0,
			"0.016": 0.0,
			"0.017": 0.0,
			"0.018": 0.0,
			"0.019": 0.0,
			"0.02": 0.0,
			"0.021": 0.0,
			"0.022": 0.0,
			"0.023": 0.0,
			"0.024": 0.0,
			"0.025": 0.0
		}
	}
}
