{
	 "smiles": "CC(C)C(Br)C(=O)NC1=C(C)C(C)=CC=C1", 
	 "Tm": 424.15, 
	 "num_atms": 34, 
	 "gaussian": { 
		 "optdone": 1, 
		 "sigma_profile": "yes", 
		 "theory": "DFT", 
		 "functional": "B3LYP", 
		 "basiset": "6-31G**", 
		 "properties": { 
			 "R2extent": 5939.0621, 
			 "electric_dipole_moment_norm": 1.94304249568, 
			 "electric_quadrupole_moment_norm": 8.06578982989, 
			 "total_energy": -3207.65908563, 
			 "HOMO_LUMO_gap": 0.19913, 
			 "cosmo_polarized_energy": -8.7, 
			 "cosmo_cavitation_energy": 37.33, 
			 "cosmo_dispersion_energy": -26.26, 
			 "cosmo_repulsion_energy": 2.02, 
			 "cosmo_total_nonelectrostatic_energy": 13.09, 
			 "SMD_solvation_energy": 5.63 
		},
		"coords": [
			{
				"x": -2.7782919526,
				"y": 3.4286960258,
				"z": 1.9312886899,
				"element": "C" 
			},
			{
				"x": -2.3676139372,
				"y": 1.9888942474,
				"z": 1.6020855454,
				"element": "C" 
			},
			{
				"x": -3.283582939,
				"y": 1.3579763908,
				"z": 0.5455938572,
				"element": "C" 
			},
			{
				"x": -0.8700814884,
				"y": 1.8739760271,
				"z": 1.2564865564,
				"element": "C" 
			},
			{
				"x": -0.4136405298,
				"y": 2.9039354647,
				"z": -0.4129221436,
				"element": "Br" 
			},
			{
				"x": -0.402520953,
				"y": 0.40491108,
				"z": 1.2520772081,
				"element": "C" 
			},
			{
				"x": -0.4982771964,
				"y": -0.184246411,
				"z": 2.3237391067,
				"element": "O" 
			},
			{
				"x": 0.0483567211,
				"y": -0.1220962371,
				"z": 0.0818977069,
				"element": "N" 
			},
			{
				"x": 0.5200845536,
				"y": -1.4325650063,
				"z": -0.1808894632,
				"element": "C" 
			},
			{
				"x": 0.9766594621,
				"y": -1.7042211245,
				"z": -1.4921810487,
				"element": "C" 
			},
			{
				"x": 0.9499835768,
				"y": -0.6096452344,
				"z": -2.5382814793,
				"element": "C" 
			},
			{
				"x": 1.4477789656,
				"y": -2.997079604,
				"z": -1.7936556904,
				"element": "C" 
			},
			{
				"x": 1.9495446266,
				"y": -3.3563124569,
				"z": -3.1763952598,
				"element": "C" 
			},
			{
				"x": 1.4553113043,
				"y": -3.9782214152,
				"z": -0.7941892368,
				"element": "C" 
			},
			{
				"x": 1.0036658631,
				"y": -3.693125053,
				"z": 0.4910065361,
				"element": "C" 
			},
			{
				"x": 0.5326542635,
				"y": -2.4234897436,
				"z": 0.8100851396,
				"element": "C" 
			},
			{
				"x": -2.716097341,
				"y": 4.0719947568,
				"z": 1.0482307404,
				"element": "H" 
			},
			{
				"x": -2.1402799169,
				"y": 3.8599251446,
				"z": 2.7103168567,
				"element": "H" 
			},
			{
				"x": -3.8109684349,
				"y": 3.4519408221,
				"z": 2.2932181659,
				"element": "H" 
			},
			{
				"x": -2.4442782152,
				"y": 1.3918531623,
				"z": 2.5206551744,
				"element": "H" 
			},
			{
				"x": -3.2273227652,
				"y": 1.9041029829,
				"z": -0.401282651,
				"element": "H" 
			},
			{
				"x": -4.3227189241,
				"y": 1.3831080073,
				"z": 0.8875450083,
				"element": "H" 
			},
			{
				"x": -3.0226405299,
				"y": 0.3124647226,
				"z": 0.3539025313,
				"element": "H" 
			},
			{
				"x": -0.2761084605,
				"y": 2.3824407321,
				"z": 2.0165994567,
				"element": "H" 
			},
			{
				"x": 0.0745004678,
				"y": 0.5284717745,
				"z": -0.6915510456,
				"element": "H" 
			},
			{
				"x": -0.0695025685,
				"y": -0.2474110825,
				"z": -2.7268523546,
				"element": "H" 
			},
			{
				"x": 1.5520098707,
				"y": 0.2582418606,
				"z": -2.2388648587,
				"element": "H" 
			},
			{
				"x": 1.3442413879,
				"y": -0.9522404936,
				"z": -3.4942176425,
				"element": "H" 
			},
			{
				"x": 1.1769118884,
				"y": -3.2253923271,
				"z": -3.9429404486,
				"element": "H" 
			},
			{
				"x": 2.808268357,
				"y": -2.7442060391,
				"z": -3.4758668616,
				"element": "H" 
			},
			{
				"x": 2.2670679311,
				"y": -4.4016445028,
				"z": -3.2078684469,
				"element": "H" 
			},
			{
				"x": 1.8205584026,
				"y": -4.9734830417,
				"z": -1.0322983419,
				"element": "H" 
			},
			{
				"x": 1.0161011271,
				"y": -4.4642481787,
				"z": 1.2558692979,
				"element": "H" 
			},
			{
				"x": 0.1798273833,
				"y": -2.1856052501,
				"z": 1.8029593955,
				"element": "H" 
			}
		],
		 "valence_orbital": [ 
			{
				"type": "occ",
				"energy": -0.29961,
				"method": "rhf"
			},
			{
				"type": "occ",
				"energy": -0.28494,
				"method": "rhf"
			},
			{
				"type": "occ",
				"energy": -0.25717,
				"method": "rhf"
			},
			{
				"type": "occ",
				"energy": -0.23586,
				"method": "rhf"
			},
			{
				"type": "occ",
				"energy": -0.21848,
				"method": "rhf"
			},
			{
				"type": "unocc",
				"energy": -0.01935,
				"method": "rhf"
			},
			{
				"type": "unocc",
				"energy": -0.01106,
				"method": "rhf"
			},
			{
				"type": "unocc",
				"energy": 0.00236,
				"method": "rhf"
			},
			{
				"type": "unocc",
				"energy": 0.04344,
				"method": "rhf"
			},
			{
				"type": "unocc",
				"energy": 0.07997,
				"method": "rhf"
			}
		],
		"cosmo_sigma_profile": { 
			"-0.025": 0.0,
			"-0.024": 0.0,
			"-0.023": 0.0,
			"-0.022": 0.0,
			"-0.021": 0.0,
			"-0.02": 0.0,
			"-0.019": 0.0,
			"-0.018": 0.0,
			"-0.017": 0.0,
			"-0.016": 0.0,
			"-0.015": 0.0,
			"-0.014": 0.0,
			"-0.013": 0.0,
			"-0.012": 0.0,
			"-0.011": 0.0,
			"-0.01": 0.0,
			"-0.009": 0.0982774857779,
			"-0.008": 2.14346826432,
			"-0.007": 3.25485730306,
			"-0.006": 5.38797648926,
			"-0.005": 11.2044132642,
			"-0.004": 25.0631189656,
			"-0.003": 32.9502087417,
			"-0.002": 33.3635294105,
			"-0.001": 34.4446687196,
			"0.0": 37.2993865493,
			"0.001": 27.8595928222,
			"0.002": 16.4988278865,
			"0.003": 14.306620186,
			"0.004": 15.6324397968,
			"0.005": 13.7981867981,
			"0.006": 10.1933254019,
			"0.007": 2.24584667527,
			"0.008": 1.23441262768,
			"0.009": 1.5900937705,
			"0.01": 1.53683077325,
			"0.011": 2.24026732008,
			"0.012": 2.85865626086,
			"0.013": 1.38361074176,
			"0.014": 0.03296253967,
			"0.015": 0.0,
			"0.016": 0.0,
			"0.017": 0.0,
			"0.018": 0.0,
			"0.019": 0.0,
			"0.02": 0.0,
			"0.021": 0.0,
			"0.022": 0.0,
			"0.023": 0.0,
			"0.024": 0.0,
			"0.025": 0.0
		}
	}
}
