{
	 "smiles": "CCC(C)CO", 
	 "Tm": 203.15, 
	 "num_atms": 18, 
	 "gaussian": { 
		 "optdone": 1, 
		 "sigma_profile": "yes", 
		 "theory": "DFT", 
		 "functional": "B3LYP", 
		 "basiset": "6-31G**", 
		 "properties": { 
			 "R2extent": 842.6623, 
			 "electric_dipole_moment_norm": 1.79858165508, 
			 "electric_quadrupole_moment_norm": 5.94432171656, 
			 "total_energy": -272.988694082, 
			 "HOMO_LUMO_gap": 0.32875, 
			 "cosmo_polarized_energy": -5.29, 
			 "cosmo_cavitation_energy": 19.21, 
			 "cosmo_dispersion_energy": -14.25, 
			 "cosmo_repulsion_energy": 1.23, 
			 "cosmo_total_nonelectrostatic_energy": 6.19, 
			 "SMD_solvation_energy": 3.23 
		},
		"coords": [
			{
				"x": -0.1139836575,
				"y": 2.2176553045,
				"z": -0.6906764789,
				"element": "C" 
			},
			{
				"x": -0.7659624746,
				"y": 0.9855671724,
				"z": -0.0472597686,
				"element": "C" 
			},
			{
				"x": -0.0451616144,
				"y": -0.3647520866,
				"z": -0.2460807937,
				"element": "C" 
			},
			{
				"x": -0.8210305597,
				"y": -1.4778892543,
				"z": 0.476696836,
				"element": "C" 
			},
			{
				"x": 0.1703103343,
				"y": -0.750989506,
				"z": -1.7218733283,
				"element": "C" 
			},
			{
				"x": 1.2645560477,
				"y": -0.0951310427,
				"z": -2.3508622261,
				"element": "O" 
			},
			{
				"x": -0.6000482649,
				"y": 3.1366924609,
				"z": -0.3473519746,
				"element": "H" 
			},
			{
				"x": 0.9493231988,
				"y": 2.2922690325,
				"z": -0.437338936,
				"element": "H" 
			},
			{
				"x": -0.2084397398,
				"y": 2.2144152565,
				"z": -1.7838388481,
				"element": "H" 
			},
			{
				"x": -0.8526268474,
				"y": 1.1636609778,
				"z": 1.0323915364,
				"element": "H" 
			},
			{
				"x": -1.7969835272,
				"y": 0.8919580073,
				"z": -0.4178608372,
				"element": "H" 
			},
			{
				"x": 0.957565811,
				"y": -0.2924919103,
				"z": 0.1990152598,
				"element": "H" 
			},
			{
				"x": -1.804122566,
				"y": -1.6375333994,
				"z": 0.0163595079,
				"element": "H" 
			},
			{
				"x": -0.2795805979,
				"y": -2.4290289003,
				"z": 0.4419378029,
				"element": "H" 
			},
			{
				"x": -0.9891990831,
				"y": -1.2262008611,
				"z": 1.5289771213,
				"element": "H" 
			},
			{
				"x": -0.767857996,
				"y": -0.6037662819,
				"z": -2.2851784517,
				"element": "H" 
			},
			{
				"x": 0.4096778262,
				"y": -1.8182300656,
				"z": -1.781762254,
				"element": "H" 
			},
			{
				"x": 1.0560637107,
				"y": 0.8431950961,
				"z": -2.4183941672,
				"element": "H" 
			}
		],
		 "valence_orbital": [ 
			{
				"type": "occ",
				"energy": -0.35702,
				"method": "rhf"
			},
			{
				"type": "occ",
				"energy": -0.32961,
				"method": "rhf"
			},
			{
				"type": "occ",
				"energy": -0.32395,
				"method": "rhf"
			},
			{
				"type": "occ",
				"energy": -0.30418,
				"method": "rhf"
			},
			{
				"type": "occ",
				"energy": -0.2566,
				"method": "rhf"
			},
			{
				"type": "unocc",
				"energy": 0.07215,
				"method": "rhf"
			},
			{
				"type": "unocc",
				"energy": 0.09166,
				"method": "rhf"
			},
			{
				"type": "unocc",
				"energy": 0.11904,
				"method": "rhf"
			},
			{
				"type": "unocc",
				"energy": 0.13289,
				"method": "rhf"
			},
			{
				"type": "unocc",
				"energy": 0.14186,
				"method": "rhf"
			}
		],
		"cosmo_sigma_profile": { 
			"-0.025": 0.0,
			"-0.024": 0.0,
			"-0.023": 0.0,
			"-0.022": 0.0,
			"-0.021": 0.0,
			"-0.02": 0.0,
			"-0.019": 0.0,
			"-0.018": 0.0,
			"-0.017": 0.0,
			"-0.016": 0.0,
			"-0.015": 0.0,
			"-0.014": 0.0,
			"-0.013": 0.0673373882988,
			"-0.012": 0.674354632774,
			"-0.011": 1.11205564522,
			"-0.01": 1.00370908351,
			"-0.009": 1.01343895569,
			"-0.008": 1.10401879161,
			"-0.007": 1.20732477062,
			"-0.006": 0.987160020185,
			"-0.005": 1.94008908669,
			"-0.004": 2.61247845951,
			"-0.003": 14.0636851812,
			"-0.002": 27.5274305798,
			"-0.001": 25.6923402156,
			"0.0": 23.7296137799,
			"0.001": 20.0572457162,
			"0.002": 6.30665039702,
			"0.003": 1.07453792126,
			"0.004": 2.11581690979,
			"0.005": 0.910610420304,
			"0.006": 1.2045696083,
			"0.007": 1.22861911144,
			"0.008": 0.992007132153,
			"0.009": 1.52221126815,
			"0.01": 1.52174738099,
			"0.011": 0.726408477437,
			"0.012": 1.34434690581,
			"0.013": 1.66209556916,
			"0.014": 1.92013614762,
			"0.015": 2.02591376907,
			"0.016": 0.0223918655967,
			"0.017": 0.0,
			"0.018": 0.0,
			"0.019": 0.0,
			"0.02": 0.0,
			"0.021": 0.0,
			"0.022": 0.0,
			"0.023": 0.0,
			"0.024": 0.0,
			"0.025": 0.0
		}
	}
}
