{
	 "smiles": "CC(=O)CC(=O)NC1=CC(F)=C(F)C=C1", 
	 "Tm": 366.15, 
	 "num_atms": 24, 
	 "gaussian": { 
		 "optdone": 1, 
		 "sigma_profile": "yes", 
		 "theory": "DFT", 
		 "functional": "B3LYP", 
		 "basiset": "6-31G**", 
		 "properties": { 
			 "R2extent": 4231.9213, 
			 "electric_dipole_moment_norm": 1.42271915008, 
			 "electric_quadrupole_moment_norm": 8.74486764222, 
			 "total_energy": -791.362160096, 
			 "HOMO_LUMO_gap": 0.19803, 
			 "cosmo_polarized_energy": -12.62, 
			 "cosmo_cavitation_energy": 29.65, 
			 "cosmo_dispersion_energy": -20.91, 
			 "cosmo_repulsion_energy": 1.59, 
			 "cosmo_total_nonelectrostatic_energy": 10.33, 
			 "SMD_solvation_energy": 7.45 
		},
		"coords": [
			{
				"x": -1.4900200309,
				"y": 1.8515556294,
				"z": 3.9541257321,
				"element": "C" 
			},
			{
				"x": -0.8462841492,
				"y": 1.8276863427,
				"z": 2.5900064856,
				"element": "C" 
			},
			{
				"x": -0.8071206806,
				"y": 2.7977119151,
				"z": 1.8556286804,
				"element": "O" 
			},
			{
				"x": -0.2663341498,
				"y": 0.4766006933,
				"z": 2.1394237392,
				"element": "C" 
			},
			{
				"x": -1.3921026495,
				"y": -0.3900198996,
				"z": 1.5761333375,
				"element": "C" 
			},
			{
				"x": -2.2359082843,
				"y": -0.8832704156,
				"z": 2.3141868735,
				"element": "O" 
			},
			{
				"x": -1.4443181554,
				"y": -0.6156423617,
				"z": 0.2185944363,
				"element": "N" 
			},
			{
				"x": -0.6321165349,
				"y": -0.1650159149,
				"z": -0.8535752484,
				"element": "C" 
			},
			{
				"x": -0.2832100655,
				"y": -1.0981303358,
				"z": -1.8431348662,
				"element": "C" 
			},
			{
				"x": 0.4638256433,
				"y": -0.6910526029,
				"z": -2.9369408127,
				"element": "C" 
			},
			{
				"x": 0.7994563724,
				"y": -1.5745850334,
				"z": -3.8907768777,
				"element": "F" 
			},
			{
				"x": 0.8908835675,
				"y": 0.6318272655,
				"z": -3.0538891182,
				"element": "C" 
			},
			{
				"x": 1.6226122486,
				"y": 0.9921083279,
				"z": -4.1212453873,
				"element": "F" 
			},
			{
				"x": 0.5508337047,
				"y": 1.5562539052,
				"z": -2.0776865128,
				"element": "C" 
			},
			{
				"x": -0.2274393087,
				"y": 1.1707697481,
				"z": -0.9835883388,
				"element": "C" 
			},
			{
				"x": -1.9908344463,
				"y": 2.8059908148,
				"z": 4.1204011843,
				"element": "H" 
			},
			{
				"x": -2.195466688,
				"y": 1.0166745824,
				"z": 4.030404173,
				"element": "H" 
			},
			{
				"x": -0.7267171212,
				"y": 1.6960869856,
				"z": 4.7263824785,
				"element": "H" 
			},
			{
				"x": 0.5349177743,
				"y": 0.6497200238,
				"z": 1.4219702552,
				"element": "H" 
			},
			{
				"x": 0.119722897,
				"y": -0.0693482194,
				"z": 3.0044950163,
				"element": "H" 
			},
			{
				"x": -2.1762001213,
				"y": -1.2768091963,
				"z": -0.0145506927,
				"element": "H" 
			},
			{
				"x": -0.5767268031,
				"y": -2.1396992571,
				"z": -1.7657026636,
				"element": "H" 
			},
			{
				"x": 0.8783938513,
				"y": 2.5837936569,
				"z": -2.1927869715,
				"element": "H" 
			},
			{
				"x": -0.5146468704,
				"y": 1.9096933457,
				"z": -0.2430749018,
				"element": "H" 
			}
		],
		 "valence_orbital": [ 
			{
				"type": "occ",
				"energy": -0.30306,
				"method": "rhf"
			},
			{
				"type": "occ",
				"energy": -0.27335,
				"method": "rhf"
			},
			{
				"type": "occ",
				"energy": -0.26942,
				"method": "rhf"
			},
			{
				"type": "occ",
				"energy": -0.26007,
				"method": "rhf"
			},
			{
				"type": "occ",
				"energy": -0.23769,
				"method": "rhf"
			},
			{
				"type": "unocc",
				"energy": -0.03966,
				"method": "rhf"
			},
			{
				"type": "unocc",
				"energy": -0.0242,
				"method": "rhf"
			},
			{
				"type": "unocc",
				"energy": -0.01645,
				"method": "rhf"
			},
			{
				"type": "unocc",
				"energy": 0.02205,
				"method": "rhf"
			},
			{
				"type": "unocc",
				"energy": 0.06301,
				"method": "rhf"
			}
		],
		"cosmo_sigma_profile": { 
			"-0.025": 0.0,
			"-0.024": 0.0,
			"-0.023": 0.0,
			"-0.022": 0.0,
			"-0.021": 0.0,
			"-0.02": 0.0,
			"-0.019": 0.0,
			"-0.018": 0.0,
			"-0.017": 0.0,
			"-0.016": 0.0,
			"-0.015": 0.646651636219,
			"-0.014": 1.04813978525,
			"-0.013": 1.21144120494,
			"-0.012": 1.10731086717,
			"-0.011": 1.60662274456,
			"-0.01": 0.929844576532,
			"-0.009": 2.03079164107,
			"-0.008": 5.29787009009,
			"-0.007": 8.65284525027,
			"-0.006": 9.3531723408,
			"-0.005": 11.6158056609,
			"-0.004": 16.3353090596,
			"-0.003": 14.5902436287,
			"-0.002": 17.0964071226,
			"-0.001": 22.029343134,
			"0.0": 22.3024558977,
			"0.001": 17.9920548291,
			"0.002": 14.5599883108,
			"0.003": 18.5877199559,
			"0.004": 18.8181850748,
			"0.005": 2.64837492616,
			"0.006": 2.90436491358,
			"0.007": 3.02986790068,
			"0.008": 2.41389033339,
			"0.009": 2.87998914131,
			"0.01": 4.14413166322,
			"0.011": 4.15423566857,
			"0.012": 4.71637715096,
			"0.013": 4.13204824514,
			"0.014": 0.41854045288,
			"0.015": 0.0,
			"0.016": 0.0,
			"0.017": 0.0,
			"0.018": 0.0,
			"0.019": 0.0,
			"0.02": 0.0,
			"0.021": 0.0,
			"0.022": 0.0,
			"0.023": 0.0,
			"0.024": 0.0,
			"0.025": 0.0
		}
	}
}
