{
	 "smiles": "CNCC1=C(CN2C=NC=N2)C=CC=C1", 
	 "Tm": 331.15, 
	 "num_atms": 29, 
	 "gaussian": { 
		 "optdone": 1, 
		 "sigma_profile": "yes", 
		 "theory": "DFT", 
		 "functional": "B3LYP", 
		 "basiset": "6-31G**", 
		 "properties": { 
			 "R2extent": 4642.4915, 
			 "electric_dipole_moment_norm": 3.08481057117, 
			 "electric_quadrupole_moment_norm": 14.7118823007, 
			 "total_energy": -646.589764496, 
			 "HOMO_LUMO_gap": 0.18632, 
			 "cosmo_polarized_energy": -13.35, 
			 "cosmo_cavitation_energy": 31.6, 
			 "cosmo_dispersion_energy": -22.07, 
			 "cosmo_repulsion_energy": 1.7, 
			 "cosmo_total_nonelectrostatic_energy": 11.23, 
			 "SMD_solvation_energy": 0.94 
		},
		"coords": [
			{
				"x": 1.7285571893,
				"y": 0.2023805022,
				"z": 0.1031680394,
				"element": "C" 
			},
			{
				"x": 0.4545528868,
				"y": 0.9104675386,
				"z": 0.1055683892,
				"element": "N" 
			},
			{
				"x": 0.0152115343,
				"y": 1.3696135415,
				"z": 1.4232871451,
				"element": "C" 
			},
			{
				"x": -0.2711109693,
				"y": 0.2879441491,
				"z": 2.4653223423,
				"element": "C" 
			},
			{
				"x": -1.484861337,
				"y": -0.430260047,
				"z": 2.5243382609,
				"element": "C" 
			},
			{
				"x": -2.6469056909,
				"y": -0.158937156,
				"z": 1.5829882387,
				"element": "C" 
			},
			{
				"x": -2.7677207939,
				"y": -1.1348782556,
				"z": 0.4956250349,
				"element": "N" 
			},
			{
				"x": -3.6452935473,
				"y": -2.1523446921,
				"z": 0.3501498131,
				"element": "C" 
			},
			{
				"x": -3.4010971048,
				"y": -2.8258359609,
				"z": -0.7628857094,
				"element": "N" 
			},
			{
				"x": -2.330427965,
				"y": -2.1624753251,
				"z": -1.2754276179,
				"element": "C" 
			},
			{
				"x": -1.9077340535,
				"y": -1.1325147428,
				"z": -0.553718643,
				"element": "N" 
			},
			{
				"x": -1.6538991112,
				"y": -1.4297937815,
				"z": 3.4917636754,
				"element": "C" 
			},
			{
				"x": -0.6417472649,
				"y": -1.7452819763,
				"z": 4.3950191081,
				"element": "C" 
			},
			{
				"x": 0.5607702517,
				"y": -1.040690073,
				"z": 4.3436645219,
				"element": "C" 
			},
			{
				"x": 0.7314332384,
				"y": -0.0365188965,
				"z": 3.3922648606,
				"element": "C" 
			},
			{
				"x": 1.7666109079,
				"y": -0.7005284666,
				"z": 0.7366480395,
				"element": "H" 
			},
			{
				"x": 1.9655337374,
				"y": -0.096998039,
				"z": -0.9224817508,
				"element": "H" 
			},
			{
				"x": 2.5256601615,
				"y": 0.876837125,
				"z": 0.441355474,
				"element": "H" 
			},
			{
				"x": -0.2646871277,
				"y": 0.3176644455,
				"z": -0.3075970253,
				"element": "H" 
			},
			{
				"x": -0.8679276507,
				"y": 2.0025666427,
				"z": 1.2780694144,
				"element": "H" 
			},
			{
				"x": 0.7946369235,
				"y": 2.029314976,
				"z": 1.825005555,
				"element": "H" 
			},
			{
				"x": -3.5910969781,
				"y": -0.2042743737,
				"z": 2.1333376301,
				"element": "H" 
			},
			{
				"x": -2.5811261673,
				"y": 0.8281812001,
				"z": 1.1237938177,
				"element": "H" 
			},
			{
				"x": -4.4340252386,
				"y": -2.3540824307,
				"z": 1.0620147862,
				"element": "H" 
			},
			{
				"x": -1.8506074387,
				"y": -2.4373260749,
				"z": -2.2046562877,
				"element": "H" 
			},
			{
				"x": -2.5981799611,
				"y": -1.9682719107,
				"z": 3.5384627933,
				"element": "H" 
			},
			{
				"x": -0.7947582142,
				"y": -2.5246396539,
				"z": 5.1355782859,
				"element": "H" 
			},
			{
				"x": 1.3589356294,
				"y": -1.2658436769,
				"z": 5.0453150922,
				"element": "H" 
			},
			{
				"x": 1.664604154,
				"y": 0.5206254124,
				"z": 3.3649267161,
				"element": "H" 
			}
		],
		 "valence_orbital": [ 
			{
				"type": "occ",
				"energy": -0.28104,
				"method": "rhf"
			},
			{
				"type": "occ",
				"energy": -0.27093,
				"method": "rhf"
			},
			{
				"type": "occ",
				"energy": -0.25536,
				"method": "rhf"
			},
			{
				"type": "occ",
				"energy": -0.25271,
				"method": "rhf"
			},
			{
				"type": "occ",
				"energy": -0.20591,
				"method": "rhf"
			},
			{
				"type": "unocc",
				"energy": -0.01959,
				"method": "rhf"
			},
			{
				"type": "unocc",
				"energy": -0.00944,
				"method": "rhf"
			},
			{
				"type": "unocc",
				"energy": 0.00327,
				"method": "rhf"
			},
			{
				"type": "unocc",
				"energy": 0.04921,
				"method": "rhf"
			},
			{
				"type": "unocc",
				"energy": 0.07824,
				"method": "rhf"
			}
		],
		"cosmo_sigma_profile": { 
			"-0.025": 0.0,
			"-0.024": 0.0,
			"-0.023": 0.0,
			"-0.022": 0.0,
			"-0.021": 0.0,
			"-0.02": 0.0,
			"-0.019": 0.0,
			"-0.018": 0.0,
			"-0.017": 0.0,
			"-0.016": 0.0,
			"-0.015": 0.0,
			"-0.014": 0.0,
			"-0.013": 0.0,
			"-0.012": 0.0,
			"-0.011": 0.855118072673,
			"-0.01": 3.57659005622,
			"-0.009": 3.66253713313,
			"-0.008": 6.22801878253,
			"-0.007": 7.96336765976,
			"-0.006": 10.847248573,
			"-0.005": 15.3350043358,
			"-0.004": 18.6811964234,
			"-0.003": 20.610817607,
			"-0.002": 16.8983952099,
			"-0.001": 19.3262690008,
			"0.0": 20.7288239652,
			"0.001": 18.0084121108,
			"0.002": 15.9607376144,
			"0.003": 14.3639494732,
			"0.004": 15.8696688216,
			"0.005": 12.9886311715,
			"0.006": 6.91164321426,
			"0.007": 3.35596557438,
			"0.008": 2.93839079175,
			"0.009": 2.03397079298,
			"0.01": 2.06330595441,
			"0.011": 1.47028481932,
			"0.012": 1.53251647906,
			"0.013": 2.69255635494,
			"0.014": 1.15896898638,
			"0.015": 1.74468525865,
			"0.016": 1.63186377971,
			"0.017": 0.794453991001,
			"0.018": 0.689872742526,
			"0.019": 0.139010139715,
			"0.02": 0.0,
			"0.021": 0.0,
			"0.022": 0.0,
			"0.023": 0.0,
			"0.024": 0.0,
			"0.025": 0.0
		}
	}
}
