{
	 "smiles": "CCOC1=C2C=C(NC2=C2OC(C)CC2=C1)C(O)=O", 
	 "Tm": 500.15, 
	 "num_atms": 34, 
	 "gaussian": { 
		 "optdone": 1, 
		 "sigma_profile": "yes", 
		 "theory": "DFT", 
		 "functional": "B3LYP", 
		 "basiset": "6-31G**", 
		 "properties": { 
			 "R2extent": 7102.6049, 
			 "electric_dipole_moment_norm": 6.97777314406, 
			 "electric_quadrupole_moment_norm": 25.2993823772, 
			 "total_energy": -898.183089864, 
			 "HOMO_LUMO_gap": 0.14531, 
			 "cosmo_polarized_energy": -20.26, 
			 "cosmo_cavitation_energy": 37.93, 
			 "cosmo_dispersion_energy": -27.51, 
			 "cosmo_repulsion_energy": 2.16, 
			 "cosmo_total_nonelectrostatic_energy": 12.57, 
			 "SMD_solvation_energy": 7.42 
		},
		"coords": [
			{
				"x": -4.3409229817,
				"y": 4.5227929034,
				"z": -0.5481815318,
				"element": "C" 
			},
			{
				"x": -3.2619946522,
				"y": 3.7996281407,
				"z": 0.2387452027,
				"element": "C" 
			},
			{
				"x": -2.9917645726,
				"y": 2.5690696528,
				"z": -0.4293404324,
				"element": "O" 
			},
			{
				"x": -2.0457024103,
				"y": 1.7381962387,
				"z": 0.0953846145,
				"element": "C" 
			},
			{
				"x": -1.8220349905,
				"y": 0.5369499681,
				"z": -0.6258358352,
				"element": "C" 
			},
			{
				"x": -2.3718540234,
				"y": 0.008515766,
				"z": -1.8346568468,
				"element": "C" 
			},
			{
				"x": -1.7748181819,
				"y": -1.2085769064,
				"z": -2.0641091872,
				"element": "C" 
			},
			{
				"x": -0.8835914498,
				"y": -1.4929973151,
				"z": -1.019093422,
				"element": "N" 
			},
			{
				"x": -0.8701448049,
				"y": -0.4079437823,
				"z": -0.163838391,
				"element": "C" 
			},
			{
				"x": -0.1225677776,
				"y": -0.1430757333,
				"z": 0.9841349295,
				"element": "C" 
			},
			{
				"x": 0.8313608406,
				"y": -0.9607884804,
				"z": 1.5300122675,
				"element": "O" 
			},
			{
				"x": 1.5009689059,
				"y": -0.1772916202,
				"z": 2.5690964132,
				"element": "C" 
			},
			{
				"x": 1.8191785535,
				"y": -1.0909434548,
				"z": 3.7378021257,
				"element": "C" 
			},
			{
				"x": 0.5578123036,
				"y": 1.0158468329,
				"z": 2.8839026299,
				"element": "C" 
			},
			{
				"x": -0.3410045299,
				"y": 1.0381608403,
				"z": 1.6671862621,
				"element": "C" 
			},
			{
				"x": -1.3003497551,
				"y": 1.9829819236,
				"z": 1.2475072113,
				"element": "C" 
			},
			{
				"x": -2.0479808343,
				"y": -2.1592514162,
				"z": -3.1542975913,
				"element": "C" 
			},
			{
				"x": -1.6821797908,
				"y": -3.4558501868,
				"z": -2.9037623878,
				"element": "O" 
			},
			{
				"x": -2.547611648,
				"y": -1.8557399793,
				"z": -4.2115720306,
				"element": "O" 
			},
			{
				"x": -4.0051419126,
				"y": 4.7210558652,
				"z": -1.5697980845,
				"element": "H" 
			},
			{
				"x": -4.5799587104,
				"y": 5.4773441288,
				"z": -0.0693607823,
				"element": "H" 
			},
			{
				"x": -5.2523298428,
				"y": 3.9204242502,
				"z": -0.596069786,
				"element": "H" 
			},
			{
				"x": -2.3442046218,
				"y": 4.4027415657,
				"z": 0.2935357947,
				"element": "H" 
			},
			{
				"x": -3.5933171053,
				"y": 3.5995352933,
				"z": 1.2679765676,
				"element": "H" 
			},
			{
				"x": -3.1433906952,
				"y": 0.4465523684,
				"z": -2.4492732209,
				"element": "H" 
			},
			{
				"x": -0.0848312427,
				"y": -2.1037479332,
				"z": -1.1172650519,
				"element": "H" 
			},
			{
				"x": 2.4296328393,
				"y": 0.2002020356,
				"z": 2.1191874333,
				"element": "H" 
			},
			{
				"x": 2.4347840001,
				"y": -1.935276735,
				"z": 3.4149453537,
				"element": "H" 
			},
			{
				"x": 0.8979271601,
				"y": -1.4826869294,
				"z": 4.179937893,
				"element": "H" 
			},
			{
				"x": 2.3686793185,
				"y": -0.5412887477,
				"z": 4.5090913583,
				"element": "H" 
			},
			{
				"x": 1.1226091205,
				"y": 1.9421054022,
				"z": 3.0314416284,
				"element": "H" 
			},
			{
				"x": -0.0187582194,
				"y": 0.8354297204,
				"z": 3.8024711413,
				"element": "H" 
			},
			{
				"x": -1.4423971159,
				"y": 2.8909340161,
				"z": 1.8212088052,
				"element": "H" 
			},
			{
				"x": -1.5672011727,
				"y": -3.5808076925,
				"z": -1.9500130503,
				"element": "H" 
			}
		],
		 "valence_orbital": [ 
			{
				"type": "occ",
				"energy": -0.28105,
				"method": "rhf"
			},
			{
				"type": "occ",
				"energy": -0.27008,
				"method": "rhf"
			},
			{
				"type": "occ",
				"energy": -0.26204,
				"method": "rhf"
			},
			{
				"type": "occ",
				"energy": -0.23179,
				"method": "rhf"
			},
			{
				"type": "occ",
				"energy": -0.18687,
				"method": "rhf"
			},
			{
				"type": "unocc",
				"energy": -0.04156,
				"method": "rhf"
			},
			{
				"type": "unocc",
				"energy": 0.01416,
				"method": "rhf"
			},
			{
				"type": "unocc",
				"energy": 0.0358,
				"method": "rhf"
			},
			{
				"type": "unocc",
				"energy": 0.05236,
				"method": "rhf"
			},
			{
				"type": "unocc",
				"energy": 0.0857,
				"method": "rhf"
			}
		],
		"cosmo_sigma_profile": { 
			"-0.025": 0.0,
			"-0.024": 0.0,
			"-0.023": 0.0,
			"-0.022": 0.0,
			"-0.021": 0.0,
			"-0.02": 0.0,
			"-0.019": 0.00618129402897,
			"-0.018": 1.23761554166,
			"-0.017": 1.9121082174,
			"-0.016": 2.08950016849,
			"-0.015": 2.53118808504,
			"-0.014": 1.08316312724,
			"-0.013": 1.76351065708,
			"-0.012": 1.22733496067,
			"-0.011": 1.77883687702,
			"-0.01": 1.7920985567,
			"-0.009": 1.12523069485,
			"-0.008": 1.07895410932,
			"-0.007": 2.91700542565,
			"-0.006": 4.69686019665,
			"-0.005": 12.8169381973,
			"-0.004": 32.278348156,
			"-0.003": 31.6785169471,
			"-0.002": 27.6742899587,
			"-0.001": 24.6371268776,
			"0.0": 21.9156989478,
			"0.001": 14.4340966761,
			"0.002": 13.346986605,
			"0.003": 19.2305162222,
			"0.004": 20.000741833,
			"0.005": 12.0205074072,
			"0.006": 6.68447767091,
			"0.007": 5.25006802608,
			"0.008": 6.48714202973,
			"0.009": 5.85108736723,
			"0.01": 5.25006958675,
			"0.011": 6.77582510954,
			"0.012": 6.05977826768,
			"0.013": 2.12252897243,
			"0.014": 0.120697062811,
			"0.015": 0.0,
			"0.016": 0.0,
			"0.017": 0.0,
			"0.018": 0.0,
			"0.019": 0.0,
			"0.02": 0.0,
			"0.021": 0.0,
			"0.022": 0.0,
			"0.023": 0.0,
			"0.024": 0.0,
			"0.025": 0.0
		}
	}
}
