{
	 "smiles": "CC12CCC3C(CCC4CC(O)CCC34C)C1CCC2OC(=O)C1=CC=CC=C1", 
	 "Tm": 467.15, 
	 "num_atms": 65, 
	 "gaussian": { 
		 "optdone": 1, 
		 "sigma_profile": "yes", 
		 "theory": "DFT", 
		 "functional": "B3LYP", 
		 "basiset": "6-31G**", 
		 "properties": { 
			 "R2extent": 14360.8267, 
			 "electric_dipole_moment_norm": 2.4685667218, 
			 "electric_quadrupole_moment_norm": 21.376873912, 
			 "total_energy": -1238.16256324, 
			 "HOMO_LUMO_gap": 0.21138, 
			 "cosmo_polarized_energy": -12.14, 
			 "cosmo_cavitation_energy": 56.93, 
			 "cosmo_dispersion_energy": -38.58, 
			 "cosmo_repulsion_energy": 2.82, 
			 "cosmo_total_nonelectrostatic_energy": 21.17, 
			 "SMD_solvation_energy": 8.48 
		},
		"coords": [
			{
				"x": -1.9613360912,
				"y": 2.6071395056,
				"z": -1.0332657555,
				"element": "C" 
			},
			{
				"x": -1.1445119278,
				"y": 1.2964831346,
				"z": -1.0772116808,
				"element": "C" 
			},
			{
				"x": -1.8480622106,
				"y": 0.2273268874,
				"z": -0.2193547973,
				"element": "C" 
			},
			{
				"x": -1.7692631555,
				"y": 0.4989322628,
				"z": 1.298827497,
				"element": "C" 
			},
			{
				"x": -0.3995325899,
				"y": 1.0678193017,
				"z": 1.7868108185,
				"element": "C" 
			},
			{
				"x": 0.7178852001,
				"y": 0.8474844682,
				"z": 0.736327924,
				"element": "C" 
			},
			{
				"x": 1.1173289834,
				"y": -0.6481028171,
				"z": 0.6076905406,
				"element": "C" 
			},
			{
				"x": 0.7564940359,
				"y": -1.4638117297,
				"z": 1.8655176371,
				"element": "C" 
			},
			{
				"x": 0.966985419,
				"y": -0.6775812615,
				"z": 3.1722110077,
				"element": "C" 
			},
			{
				"x": 2.4603941887,
				"y": -0.3789739469,
				"z": 3.4120970985,
				"element": "C" 
			},
			{
				"x": 2.7253512626,
				"y": 0.2736556679,
				"z": 4.7757253172,
				"element": "C" 
			},
			{
				"x": 4.0328834125,
				"y": 0.8530514031,
				"z": 4.8217703931,
				"element": "O" 
			},
			{
				"x": 1.713298958,
				"y": 1.4022413233,
				"z": 5.0696681127,
				"element": "C" 
			},
			{
				"x": 0.8888181788,
				"y": 1.7984467758,
				"z": 3.838591899,
				"element": "C" 
			},
			{
				"x": 0.0695134953,
				"y": 0.6238479183,
				"z": 3.2255413485,
				"element": "C" 
			},
			{
				"x": -1.1420125823,
				"y": 0.3619464717,
				"z": 4.1452005038,
				"element": "C" 
			},
			{
				"x": 0.3338923802,
				"y": 1.5654060265,
				"z": -0.5797863972,
				"element": "C" 
			},
			{
				"x": 1.2518537481,
				"y": 1.3023626135,
				"z": -1.7980704236,
				"element": "C" 
			},
			{
				"x": 0.3388212371,
				"y": 1.5312048141,
				"z": -3.0118256459,
				"element": "C" 
			},
			{
				"x": -0.9883982134,
				"y": 0.9006439692,
				"z": -2.575943174,
				"element": "C" 
			},
			{
				"x": -0.87730264,
				"y": -0.5472372107,
				"z": -2.6942739137,
				"element": "O" 
			},
			{
				"x": -1.2256165044,
				"y": -1.0876898038,
				"z": -3.8851239416,
				"element": "C" 
			},
			{
				"x": -1.6257598704,
				"y": -0.4347990669,
				"z": -4.8308390737,
				"element": "O" 
			},
			{
				"x": -1.0699352228,
				"y": -2.5723047066,
				"z": -3.9100817315,
				"element": "C" 
			},
			{
				"x": -1.4289802591,
				"y": -3.2420638447,
				"z": -5.0881663406,
				"element": "C" 
			},
			{
				"x": -1.3051396042,
				"y": -4.6265913389,
				"z": -5.1717264968,
				"element": "C" 
			},
			{
				"x": -0.8204089428,
				"y": -5.3515269867,
				"z": -4.0796441414,
				"element": "C" 
			},
			{
				"x": -0.4599629068,
				"y": -4.6880797121,
				"z": -2.9043171452,
				"element": "C" 
			},
			{
				"x": -0.5832681331,
				"y": -3.302137436,
				"z": -2.8167347888,
				"element": "C" 
			},
			{
				"x": -2.9884481521,
				"y": 2.4437688114,
				"z": -1.378822454,
				"element": "H" 
			},
			{
				"x": -1.5145153111,
				"y": 3.3836359076,
				"z": -1.6637555057,
				"element": "H" 
			},
			{
				"x": -2.0095584327,
				"y": 3.0062462807,
				"z": -0.0152861795,
				"element": "H" 
			},
			{
				"x": -2.9012151092,
				"y": 0.1495059256,
				"z": -0.5184762821,
				"element": "H" 
			},
			{
				"x": -1.4107593241,
				"y": -0.7487204262,
				"z": -0.4322691566,
				"element": "H" 
			},
			{
				"x": -2.5609293957,
				"y": 1.198288951,
				"z": 1.5904092394,
				"element": "H" 
			},
			{
				"x": -2.0126739383,
				"y": -0.4380173202,
				"z": 1.8059889832,
				"element": "H" 
			},
			{
				"x": -0.5334110435,
				"y": 2.1568658922,
				"z": 1.8515862771,
				"element": "H" 
			},
			{
				"x": 1.6049002217,
				"y": 1.3742557726,
				"z": 1.1096440148,
				"element": "H" 
			},
			{
				"x": 0.6478991783,
				"y": -1.1094689849,
				"z": -0.2664845396,
				"element": "H" 
			},
			{
				"x": 2.1968239751,
				"y": -0.7113152576,
				"z": 0.4279128519,
				"element": "H" 
			},
			{
				"x": -0.2901867253,
				"y": -1.7839834125,
				"z": 1.8090786683,
				"element": "H" 
			},
			{
				"x": 1.3496323185,
				"y": -2.3866861958,
				"z": 1.8922971148,
				"element": "H" 
			},
			{
				"x": 0.6444668472,
				"y": -1.3296822238,
				"z": 3.996801349,
				"element": "H" 
			},
			{
				"x": 3.0362343162,
				"y": -1.3117187782,
				"z": 3.3308740895,
				"element": "H" 
			},
			{
				"x": 2.8523910652,
				"y": 0.2959942344,
				"z": 2.6431870185,
				"element": "H" 
			},
			{
				"x": 2.6388283468,
				"y": -0.4973166355,
				"z": 5.5594040473,
				"element": "H" 
			},
			{
				"x": 4.6694250059,
				"y": 0.1601890766,
				"z": 4.6003668458,
				"element": "H" 
			},
			{
				"x": 1.0469195901,
				"y": 1.0939830611,
				"z": 5.8825892732,
				"element": "H" 
			},
			{
				"x": 2.2773342986,
				"y": 2.2629611828,
				"z": 5.4422371082,
				"element": "H" 
			},
			{
				"x": 1.5653218219,
				"y": 2.2143864044,
				"z": 3.0826831764,
				"element": "H" 
			},
			{
				"x": 0.1979457062,
				"y": 2.6093113217,
				"z": 4.1017063499,
				"element": "H" 
			},
			{
				"x": -1.8483641635,
				"y": 1.1997102015,
				"z": 4.1251750145,
				"element": "H" 
			},
			{
				"x": -0.8195888279,
				"y": 0.2265405547,
				"z": 5.1825192138,
				"element": "H" 
			},
			{
				"x": -1.6885914033,
				"y": -0.5428080701,
				"z": 3.8639456146,
				"element": "H" 
			},
			{
				"x": 0.3961638831,
				"y": 2.6386060554,
				"z": -0.3538552114,
				"element": "H" 
			},
			{
				"x": 1.6046413643,
				"y": 0.2663420411,
				"z": -1.8051978458,
				"element": "H" 
			},
			{
				"x": 2.137326432,
				"y": 1.9462678803,
				"z": -1.7997537562,
				"element": "H" 
			},
			{
				"x": 0.1844205887,
				"y": 2.603034961,
				"z": -3.1848215556,
				"element": "H" 
			},
			{
				"x": 0.7088740471,
				"y": 1.1012160975,
				"z": -3.9460777092,
				"element": "H" 
			},
			{
				"x": -1.8360799279,
				"y": 1.2115346121,
				"z": -3.1888379739,
				"element": "H" 
			},
			{
				"x": -1.8015706426,
				"y": -2.6567554894,
				"z": -5.9218993151,
				"element": "H" 
			},
			{
				"x": -1.5852469402,
				"y": -5.1413300013,
				"z": -6.0860988496,
				"element": "H" 
			},
			{
				"x": -0.7231836723,
				"y": -6.431626316,
				"z": -4.144552334,
				"element": "H" 
			},
			{
				"x": -0.0821915484,
				"y": -5.2511426472,
				"z": -2.0558384484,
				"element": "H" 
			},
			{
				"x": -0.3035640946,
				"y": -2.7831661492,
				"z": -1.9074937833,
				"element": "H" 
			}
		],
		 "valence_orbital": [ 
			{
				"type": "occ",
				"energy": -0.27307,
				"method": "rhf"
			},
			{
				"type": "occ",
				"energy": -0.26884,
				"method": "rhf"
			},
			{
				"type": "occ",
				"energy": -0.25821,
				"method": "rhf"
			},
			{
				"type": "occ",
				"energy": -0.25702,
				"method": "rhf"
			},
			{
				"type": "occ",
				"energy": -0.25466,
				"method": "rhf"
			},
			{
				"type": "unocc",
				"energy": -0.04328,
				"method": "rhf"
			},
			{
				"type": "unocc",
				"energy": -0.007,
				"method": "rhf"
			},
			{
				"type": "unocc",
				"energy": 0.05686,
				"method": "rhf"
			},
			{
				"type": "unocc",
				"energy": 0.06121,
				"method": "rhf"
			},
			{
				"type": "unocc",
				"energy": 0.06996,
				"method": "rhf"
			}
		],
		"cosmo_sigma_profile": { 
			"-0.025": 0.0,
			"-0.024": 0.0,
			"-0.023": 0.0,
			"-0.022": 0.0,
			"-0.021": 0.0,
			"-0.02": 0.0,
			"-0.019": 0.0,
			"-0.018": 0.0,
			"-0.017": 0.0,
			"-0.016": 0.0,
			"-0.015": 0.206735332031,
			"-0.014": 1.01734156836,
			"-0.013": 0.895993124297,
			"-0.012": 0.91591235174,
			"-0.011": 0.633178263044,
			"-0.01": 1.04273632296,
			"-0.009": 0.81904365583,
			"-0.008": 1.10589869598,
			"-0.007": 1.84305174298,
			"-0.006": 7.79949710203,
			"-0.005": 8.96636979146,
			"-0.004": 19.0901936292,
			"-0.003": 33.1675690341,
			"-0.002": 66.3310196018,
			"-0.001": 75.8396034299,
			"0.0": 65.8952661293,
			"0.001": 54.2769761926,
			"0.002": 32.0395962812,
			"0.003": 16.8394527241,
			"0.004": 16.2118128938,
			"0.005": 5.5445384121,
			"0.006": 3.57814635215,
			"0.007": 2.50793197519,
			"0.008": 2.93811766003,
			"0.009": 2.82667188204,
			"0.01": 3.23425355415,
			"0.011": 3.63854465803,
			"0.012": 5.56750906457,
			"0.013": 1.5888987777,
			"0.014": 2.35024692027,
			"0.015": 1.26542814204,
			"0.016": 0.0,
			"0.017": 0.0,
			"0.018": 0.0,
			"0.019": 0.0,
			"0.02": 0.0,
			"0.021": 0.0,
			"0.022": 0.0,
			"0.023": 0.0,
			"0.024": 0.0,
			"0.025": 0.0
		}
	}
}
