{
	 "smiles": "NC1=NC2=CC=CC=C2C(N)=N1", 
	 "Tm": 529.15, 
	 "num_atms": 20, 
	 "gaussian": { 
		 "optdone": 1, 
		 "sigma_profile": "yes", 
		 "theory": "DFT", 
		 "functional": "B3LYP", 
		 "basiset": "6-31G**", 
		 "properties": { 
			 "R2extent": 1970.0584, 
			 "electric_dipole_moment_norm": 2.68909842698, 
			 "electric_quadrupole_moment_norm": 10.8513504017, 
			 "total_energy": -528.717197339, 
			 "HOMO_LUMO_gap": 0.16366, 
			 "cosmo_polarized_energy": -14.99, 
			 "cosmo_cavitation_energy": 23.86, 
			 "cosmo_dispersion_energy": -18.42, 
			 "cosmo_repulsion_energy": 1.47, 
			 "cosmo_total_nonelectrostatic_energy": 6.9, 
			 "SMD_solvation_energy": 0.94 
		},
		"coords": [
			{
				"x": 0.1438652655,
				"y": -3.1257551945,
				"z": 1.5174477917,
				"element": "N" 
			},
			{
				"x": -0.0547038537,
				"y": -1.9275334258,
				"z": 0.8844887997,
				"element": "C" 
			},
			{
				"x": -0.9858258386,
				"y": -1.1218034864,
				"z": 1.3721161231,
				"element": "N" 
			},
			{
				"x": -1.100415899,
				"y": 0.0895422924,
				"z": 0.759920574,
				"element": "C" 
			},
			{
				"x": -2.0669150217,
				"y": 1.0168305176,
				"z": 1.2310540791,
				"element": "C" 
			},
			{
				"x": -2.1930506114,
				"y": 2.2591084774,
				"z": 0.646054211,
				"element": "C" 
			},
			{
				"x": -1.36165629,
				"y": 2.6414249183,
				"z": -0.4312134266,
				"element": "C" 
			},
			{
				"x": -0.4178107286,
				"y": 1.7567488674,
				"z": -0.9142095121,
				"element": "C" 
			},
			{
				"x": -0.2792569998,
				"y": 0.4721336527,
				"z": -0.3416318546,
				"element": "C" 
			},
			{
				"x": 0.6495288601,
				"y": -0.5358790689,
				"z": -0.7890154827,
				"element": "C" 
			},
			{
				"x": 1.4860560374,
				"y": -0.3064710245,
				"z": -1.8495010526,
				"element": "N" 
			},
			{
				"x": 0.7599999912,
				"y": -1.7064830406,
				"z": -0.1868802025,
				"element": "N" 
			},
			{
				"x": 0.6480631382,
				"y": -3.8320601128,
				"z": 1.0059651472,
				"element": "H" 
			},
			{
				"x": -0.5812045802,
				"y": -3.4221838753,
				"z": 2.1514591915,
				"element": "H" 
			},
			{
				"x": -2.6897104958,
				"y": 0.7129881543,
				"z": 2.0660184768,
				"element": "H" 
			},
			{
				"x": -2.9353393867,
				"y": 2.9582794909,
				"z": 1.0216452566,
				"element": "H" 
			},
			{
				"x": -1.4616055462,
				"y": 3.6286622867,
				"z": -0.8714700649,
				"element": "H" 
			},
			{
				"x": 0.2349903724,
				"y": 2.0675751049,
				"z": -1.7257748651,
				"element": "H" 
			},
			{
				"x": 1.9777262171,
				"y": -1.1234798242,
				"z": -2.1820617179,
				"element": "H" 
			},
			{
				"x": 1.21096537,
				"y": 0.3613552904,
				"z": -2.5514114717,
				"element": "H" 
			}
		],
		 "valence_orbital": [ 
			{
				"type": "occ",
				"energy": -0.28433,
				"method": "rhf"
			},
			{
				"type": "occ",
				"energy": -0.25676,
				"method": "rhf"
			},
			{
				"type": "occ",
				"energy": -0.24256,
				"method": "rhf"
			},
			{
				"type": "occ",
				"energy": -0.23631,
				"method": "rhf"
			},
			{
				"type": "occ",
				"energy": -0.1991,
				"method": "rhf"
			},
			{
				"type": "unocc",
				"energy": -0.03544,
				"method": "rhf"
			},
			{
				"type": "unocc",
				"energy": 0.0002,
				"method": "rhf"
			},
			{
				"type": "unocc",
				"energy": 0.04229,
				"method": "rhf"
			},
			{
				"type": "unocc",
				"energy": 0.07075,
				"method": "rhf"
			},
			{
				"type": "unocc",
				"energy": 0.09724,
				"method": "rhf"
			}
		],
		"cosmo_sigma_profile": { 
			"-0.025": 0.0,
			"-0.024": 0.0,
			"-0.023": 0.0,
			"-0.022": 0.0,
			"-0.021": 0.0,
			"-0.02": 0.0,
			"-0.019": 0.0,
			"-0.018": 0.0,
			"-0.017": 0.0,
			"-0.016": 0.0,
			"-0.015": 0.182563128677,
			"-0.014": 1.31342773518,
			"-0.013": 3.93507988094,
			"-0.012": 4.28782170948,
			"-0.011": 4.4172125324,
			"-0.01": 4.95114577342,
			"-0.009": 4.57570481578,
			"-0.008": 4.06390528463,
			"-0.007": 2.98446456261,
			"-0.006": 6.43261636567,
			"-0.005": 10.2430044791,
			"-0.004": 10.3059942695,
			"-0.003": 8.73322379419,
			"-0.002": 7.48066789412,
			"-0.001": 7.73524771856,
			"0.0": 11.0400034199,
			"0.001": 11.6968969595,
			"0.002": 11.7290541799,
			"0.003": 14.5485544805,
			"0.004": 15.5883022802,
			"0.005": 13.3060626381,
			"0.006": 4.36220564895,
			"0.007": 5.5874501258,
			"0.008": 4.44178674459,
			"0.009": 4.62463928503,
			"0.01": 3.26849834308,
			"0.011": 2.79831056012,
			"0.012": 1.26507240764,
			"0.013": 1.91474569032,
			"0.014": 1.20006551255,
			"0.015": 0.745365357752,
			"0.016": 0.580498277302,
			"0.017": 0.104030757503,
			"0.018": 0.0,
			"0.019": 0.0,
			"0.02": 0.0,
			"0.021": 0.0,
			"0.022": 0.0,
			"0.023": 0.0,
			"0.024": 0.0,
			"0.025": 0.0
		}
	}
}
