{
	 "smiles": "OC1(CCNCC1)C1=CC(=C(Cl)C=C1)C(F)(F)F", 
	 "Tm": 411.15, 
	 "num_atms": 31, 
	 "gaussian": { 
		 "optdone": 1, 
		 "sigma_profile": "yes", 
		 "theory": "DFT", 
		 "functional": "B3LYP", 
		 "basiset": "6-31G**", 
		 "properties": { 
			 "R2extent": 6635.7393, 
			 "electric_dipole_moment_norm": 5.21718617072, 
			 "electric_quadrupole_moment_norm": 10.9710668442, 
			 "total_energy": -1354.79097676, 
			 "HOMO_LUMO_gap": 0.19634, 
			 "cosmo_polarized_energy": -9.44, 
			 "cosmo_cavitation_energy": 34.95, 
			 "cosmo_dispersion_energy": -25.08, 
			 "cosmo_repulsion_energy": 1.88, 
			 "cosmo_total_nonelectrostatic_energy": 11.75, 
			 "SMD_solvation_energy": 5.3 
		},
		"coords": [
			{
				"x": 2.2656735161,
				"y": -1.1735672734,
				"z": -0.0487882374,
				"element": "O" 
			},
			{
				"x": 1.1884829248,
				"y": -0.4034210014,
				"z": -0.5990234367,
				"element": "C" 
			},
			{
				"x": 0.4774893082,
				"y": -1.2211293192,
				"z": -1.7284323449,
				"element": "C" 
			},
			{
				"x": 0.3425142797,
				"y": -0.4352185251,
				"z": -3.0445490135,
				"element": "C" 
			},
			{
				"x": -0.0840179641,
				"y": 0.9283589136,
				"z": -2.7347614344,
				"element": "N" 
			},
			{
				"x": 0.9463925628,
				"y": 1.7221502637,
				"z": -2.0399334288,
				"element": "C" 
			},
			{
				"x": 1.8889399812,
				"y": 0.8208925778,
				"z": -1.2248812119,
				"element": "C" 
			},
			{
				"x": 0.2322273341,
				"y": 0.0289227593,
				"z": 0.5253754459,
				"element": "C" 
			},
			{
				"x": 0.6725243651,
				"y": 0.0015735417,
				"z": 1.8528156776,
				"element": "C" 
			},
			{
				"x": -0.1473893987,
				"y": 0.3970376567,
				"z": 2.9140840266,
				"element": "C" 
			},
			{
				"x": -1.4465915967,
				"y": 0.8425438155,
				"z": 2.6319224113,
				"element": "C" 
			},
			{
				"x": -2.5485742513,
				"y": 1.3513935157,
				"z": 3.8989317761,
				"element": "Cl" 
			},
			{
				"x": -1.8969556714,
				"y": 0.8938824421,
				"z": 1.3140847312,
				"element": "C" 
			},
			{
				"x": -1.0657343146,
				"y": 0.4914306009,
				"z": 0.2705886381,
				"element": "C" 
			},
			{
				"x": 0.3916467032,
				"y": 0.3306146327,
				"z": 4.3244715469,
				"element": "C" 
			},
			{
				"x": 0.396679915,
				"y": 1.5410983221,
				"z": 4.9206350732,
				"element": "F" 
			},
			{
				"x": -0.3353303314,
				"y": -0.4985001881,
				"z": 5.1033772222,
				"element": "F" 
			},
			{
				"x": 1.6646852556,
				"y": -0.1249172612,
				"z": 4.3467108147,
				"element": "F" 
			},
			{
				"x": 1.886021605,
				"y": -1.9756253768,
				"z": 0.337298461,
				"element": "H" 
			},
			{
				"x": -0.512019099,
				"y": -1.5465357584,
				"z": -1.3935239904,
				"element": "H" 
			},
			{
				"x": 1.0791143389,
				"y": -2.1184392267,
				"z": -1.9068787521,
				"element": "H" 
			},
			{
				"x": -0.4195559078,
				"y": -0.9023689611,
				"z": -3.6768830745,
				"element": "H" 
			},
			{
				"x": 1.2910937714,
				"y": -0.4801467537,
				"z": -3.6100416261,
				"element": "H" 
			},
			{
				"x": -0.3959798526,
				"y": 1.4099054955,
				"z": -3.5714005827,
				"element": "H" 
			},
			{
				"x": 1.561965255,
				"y": 2.3132828303,
				"z": -2.736953533,
				"element": "H" 
			},
			{
				"x": 0.4430206462,
				"y": 2.4366668916,
				"z": -1.3769133518,
				"element": "H" 
			},
			{
				"x": 2.3789623018,
				"y": 1.402593662,
				"z": -0.4388458405,
				"element": "H" 
			},
			{
				"x": 2.683130148,
				"y": 0.423730485,
				"z": -1.8659523919,
				"element": "H" 
			},
			{
				"x": 1.678953053,
				"y": -0.3339401398,
				"z": 2.0663115398,
				"element": "H" 
			},
			{
				"x": -2.9012249082,
				"y": 1.24937935,
				"z": 1.1111013195,
				"element": "H" 
			},
			{
				"x": -1.4160439695,
				"y": 0.5605520289,
				"z": -0.7554464334,
				"element": "H" 
			}
		],
		 "valence_orbital": [ 
			{
				"type": "occ",
				"energy": -0.31269,
				"method": "rhf"
			},
			{
				"type": "occ",
				"energy": -0.28127,
				"method": "rhf"
			},
			{
				"type": "occ",
				"energy": -0.27122,
				"method": "rhf"
			},
			{
				"type": "occ",
				"energy": -0.24777,
				"method": "rhf"
			},
			{
				"type": "occ",
				"energy": -0.22833,
				"method": "rhf"
			},
			{
				"type": "unocc",
				"energy": -0.03199,
				"method": "rhf"
			},
			{
				"type": "unocc",
				"energy": -0.02009,
				"method": "rhf"
			},
			{
				"type": "unocc",
				"energy": 0.02881,
				"method": "rhf"
			},
			{
				"type": "unocc",
				"energy": 0.06897,
				"method": "rhf"
			},
			{
				"type": "unocc",
				"energy": 0.07952,
				"method": "rhf"
			}
		],
		"cosmo_sigma_profile": { 
			"-0.025": 0.0,
			"-0.024": 0.0,
			"-0.023": 0.0,
			"-0.022": 0.0,
			"-0.021": 0.0,
			"-0.02": 0.0,
			"-0.019": 0.0,
			"-0.018": 0.0,
			"-0.017": 0.0,
			"-0.016": 0.0233405806893,
			"-0.015": 0.868009839884,
			"-0.014": 0.880390356385,
			"-0.013": 0.478160312225,
			"-0.012": 0.903339551812,
			"-0.011": 1.1581131112,
			"-0.01": 2.46276462949,
			"-0.009": 2.36978327196,
			"-0.008": 2.3175598423,
			"-0.007": 4.67241681454,
			"-0.006": 4.16207049943,
			"-0.005": 5.39006319239,
			"-0.004": 9.85159375203,
			"-0.003": 24.1675596472,
			"-0.002": 32.7507753914,
			"-0.001": 32.4356174146,
			"0.0": 25.848796542,
			"0.001": 23.7954895708,
			"0.002": 31.4634578655,
			"0.003": 36.0920190636,
			"0.004": 16.7898504018,
			"0.005": 4.79765481598,
			"0.006": 2.20703961065,
			"0.007": 1.82076868584,
			"0.008": 1.55845464033,
			"0.009": 2.34465034145,
			"0.01": 1.45386813631,
			"0.011": 0.982018944842,
			"0.012": 1.24713545666,
			"0.013": 1.65996454618,
			"0.014": 0.432682878488,
			"0.015": 0.0,
			"0.016": 0.0,
			"0.017": 0.0,
			"0.018": 0.0,
			"0.019": 0.0,
			"0.02": 0.0,
			"0.021": 0.0,
			"0.022": 0.0,
			"0.023": 0.0,
			"0.024": 0.0,
			"0.025": 0.0
		}
	}
}
