{
	 "smiles": "CC1=CC(C(=O)CCl)=C(C)N1CC(N)=O", 
	 "Tm": 492.15, 
	 "num_atms": 28, 
	 "gaussian": { 
		 "optdone": 1, 
		 "sigma_profile": "yes", 
		 "theory": "DFT", 
		 "functional": "B3LYP", 
		 "basiset": "6-31G**", 
		 "properties": { 
			 "R2extent": 4506.8712, 
			 "electric_dipole_moment_norm": 3.19952223621, 
			 "electric_quadrupole_moment_norm": 21.5916858198, 
			 "total_energy": -1109.06548005, 
			 "HOMO_LUMO_gap": 0.17047, 
			 "cosmo_polarized_energy": -19.46, 
			 "cosmo_cavitation_energy": 33.27, 
			 "cosmo_dispersion_energy": -23.09, 
			 "cosmo_repulsion_energy": 1.85, 
			 "cosmo_total_nonelectrostatic_energy": 12.03, 
			 "SMD_solvation_energy": 6.72 
		},
		"coords": [
			{
				"x": 0.7291760007,
				"y": 0.0988571281,
				"z": -3.1034652651,
				"element": "C" 
			},
			{
				"x": 0.4752340832,
				"y": -0.2785269194,
				"z": -1.6793185751,
				"element": "C" 
			},
			{
				"x": -0.3945619856,
				"y": -1.1903774695,
				"z": -1.1444715841,
				"element": "C" 
			},
			{
				"x": -0.2359829184,
				"y": -1.1803474101,
				"z": 0.2833785413,
				"element": "C" 
			},
			{
				"x": -0.9729751392,
				"y": -1.9794820471,
				"z": 1.260911437,
				"element": "C" 
			},
			{
				"x": -0.8315877966,
				"y": -1.8924933718,
				"z": 2.4772478707,
				"element": "O" 
			},
			{
				"x": -2.0305297568,
				"y": -2.9623254148,
				"z": 0.7389673939,
				"element": "C" 
			},
			{
				"x": -1.2848196837,
				"y": -4.384498578,
				"z": -0.1126747401,
				"element": "Cl" 
			},
			{
				"x": 0.7517844027,
				"y": -0.2357947962,
				"z": 0.5808943299,
				"element": "C" 
			},
			{
				"x": 1.3196462303,
				"y": 0.1948921521,
				"z": 1.8948190175,
				"element": "C" 
			},
			{
				"x": 1.1747910828,
				"y": 0.3019013832,
				"z": -0.6134129492,
				"element": "N" 
			},
			{
				"x": 2.1484434288,
				"y": 1.371459459,
				"z": -0.749020109,
				"element": "C" 
			},
			{
				"x": 1.5926710949,
				"y": 2.808459646,
				"z": -0.7460086444,
				"element": "C" 
			},
			{
				"x": 0.2460574655,
				"y": 2.9300508831,
				"z": -0.5970660486,
				"element": "N" 
			},
			{
				"x": 2.3562503161,
				"y": 3.7513459512,
				"z": -0.8741625239,
				"element": "O" 
			},
			{
				"x": 0.5589957407,
				"y": 1.1660413341,
				"z": -3.2914501133,
				"element": "H" 
			},
			{
				"x": 0.0531837974,
				"y": -0.4643742982,
				"z": -3.7505531661,
				"element": "H" 
			},
			{
				"x": 1.7541171789,
				"y": -0.1310683675,
				"z": -3.4209893819,
				"element": "H" 
			},
			{
				"x": -1.054908085,
				"y": -1.8259253811,
				"z": -1.7165883136,
				"element": "H" 
			},
			{
				"x": -2.5793701775,
				"y": -3.3534104065,
				"z": 1.5935720566,
				"element": "H" 
			},
			{
				"x": -2.7118932702,
				"y": -2.4923962875,
				"z": 0.0269553174,
				"element": "H" 
			},
			{
				"x": 2.3913193991,
				"y": -0.0311881217,
				"z": 1.9660412732,
				"element": "H" 
			},
			{
				"x": 0.801602546,
				"y": -0.3389087583,
				"z": 2.6899400866,
				"element": "H" 
			},
			{
				"x": 1.2004849866,
				"y": 1.273291071,
				"z": 2.0563295877,
				"element": "H" 
			},
			{
				"x": 2.8774451713,
				"y": 1.3105474495,
				"z": 0.0614366772,
				"element": "H" 
			},
			{
				"x": 2.7039070191,
				"y": 1.2476996413,
				"z": -1.6811464456,
				"element": "H" 
			},
			{
				"x": -0.3586927575,
				"y": 2.1325501594,
				"z": -0.4821407737,
				"element": "H" 
			},
			{
				"x": -0.1457883737,
				"y": 3.8592213696,
				"z": -0.5767249552,
				"element": "H" 
			}
		],
		 "valence_orbital": [ 
			{
				"type": "occ",
				"energy": -0.28391,
				"method": "rhf"
			},
			{
				"type": "occ",
				"energy": -0.2781,
				"method": "rhf"
			},
			{
				"type": "occ",
				"energy": -0.24994,
				"method": "rhf"
			},
			{
				"type": "occ",
				"energy": -0.24737,
				"method": "rhf"
			},
			{
				"type": "occ",
				"energy": -0.22157,
				"method": "rhf"
			},
			{
				"type": "unocc",
				"energy": -0.0511,
				"method": "rhf"
			},
			{
				"type": "unocc",
				"energy": 0.01257,
				"method": "rhf"
			},
			{
				"type": "unocc",
				"energy": 0.01634,
				"method": "rhf"
			},
			{
				"type": "unocc",
				"energy": 0.03408,
				"method": "rhf"
			},
			{
				"type": "unocc",
				"energy": 0.06085,
				"method": "rhf"
			}
		],
		"cosmo_sigma_profile": { 
			"-0.025": 0.0,
			"-0.024": 0.0,
			"-0.023": 0.0,
			"-0.022": 0.0,
			"-0.021": 0.0,
			"-0.02": 0.0,
			"-0.019": 0.0,
			"-0.018": 0.0,
			"-0.017": 0.0,
			"-0.016": 0.0,
			"-0.015": 0.243749174951,
			"-0.014": 1.24330851141,
			"-0.013": 1.2797870925,
			"-0.012": 2.18967975017,
			"-0.011": 1.76434673954,
			"-0.01": 1.53722476536,
			"-0.009": 1.69172464711,
			"-0.008": 7.95046678395,
			"-0.007": 12.7406563418,
			"-0.006": 14.1013344734,
			"-0.005": 20.0424390746,
			"-0.004": 20.0545791286,
			"-0.003": 17.5862368495,
			"-0.002": 16.2580990978,
			"-0.001": 19.1689437352,
			"0.0": 15.6099051225,
			"0.001": 13.6981124624,
			"0.002": 13.615571693,
			"0.003": 12.3856560025,
			"0.004": 11.9377711218,
			"0.005": 13.4691596724,
			"0.006": 13.4079374069,
			"0.007": 3.96414205406,
			"0.008": 2.28041422521,
			"0.009": 3.59679880518,
			"0.01": 2.40195790405,
			"0.011": 3.73772245386,
			"0.012": 5.17926504673,
			"0.013": 6.51925309868,
			"0.014": 4.77108642619,
			"0.015": 0.539683580547,
			"0.016": 0.0,
			"0.017": 0.0,
			"0.018": 0.0,
			"0.019": 0.0,
			"0.02": 0.0,
			"0.021": 0.0,
			"0.022": 0.0,
			"0.023": 0.0,
			"0.024": 0.0,
			"0.025": 0.0
		}
	}
}
