{
	 "smiles": "CC1=CC(C)=C(C(C)=C1N(=O)=O)N(=O)=O", 
	 "Tm": 358.45, 
	 "num_atms": 25, 
	 "gaussian": { 
		 "optdone": 1, 
		 "sigma_profile": "yes", 
		 "theory": "DFT", 
		 "functional": "B3LYP", 
		 "basiset": "6-31G**", 
		 "properties": { 
			 "R2extent": 3709.2845, 
			 "electric_dipole_moment_norm": 3.84433192115, 
			 "electric_quadrupole_moment_norm": 11.7814413868, 
			 "total_energy": -759.186174943, 
			 "HOMO_LUMO_gap": 0.17995, 
			 "cosmo_polarized_energy": -11.07, 
			 "cosmo_cavitation_energy": 29.31, 
			 "cosmo_dispersion_energy": -20.75, 
			 "cosmo_repulsion_energy": 1.59, 
			 "cosmo_total_nonelectrostatic_energy": 10.16, 
			 "SMD_solvation_energy": 9.51 
		},
		"coords": [
			{
				"x": 0.4674570941,
				"y": -0.2026625716,
				"z": -2.2371922182,
				"element": "C" 
			},
			{
				"x": -0.1636277252,
				"y": 0.2672566965,
				"z": -0.9495051666,
				"element": "C" 
			},
			{
				"x": -0.4266946454,
				"y": 1.6256939235,
				"z": -0.7616785148,
				"element": "C" 
			},
			{
				"x": -0.9849882277,
				"y": 2.1386456668,
				"z": 0.4109252906,
				"element": "C" 
			},
			{
				"x": -1.2123786438,
				"y": 3.6244108483,
				"z": 0.5451877612,
				"element": "C" 
			},
			{
				"x": -1.3220749092,
				"y": 1.211526765,
				"z": 1.4095368518,
				"element": "C" 
			},
			{
				"x": -1.1216269475,
				"y": -0.173545765,
				"z": 1.2938041226,
				"element": "C" 
			},
			{
				"x": -1.469507671,
				"y": -1.1355500379,
				"z": 2.4075229729,
				"element": "C" 
			},
			{
				"x": -0.5280364468,
				"y": -0.5980854267,
				"z": 0.09399991,
				"element": "C" 
			},
			{
				"x": -0.2883653418,
				"y": -2.0408048967,
				"z": -0.0948234864,
				"element": "N" 
			},
			{
				"x": 0.8349853754,
				"y": -2.3862675706,
				"z": -0.4578996775,
				"element": "O" 
			},
			{
				"x": -1.2282711293,
				"y": -2.8058290668,
				"z": 0.1118766248,
				"element": "O" 
			},
			{
				"x": -1.9413388445,
				"y": 1.7271379586,
				"z": 2.6445057121,
				"element": "N" 
			},
			{
				"x": -1.3798711175,
				"y": 2.6626600696,
				"z": 3.2125051302,
				"element": "O" 
			},
			{
				"x": -2.9842605493,
				"y": 1.1971754478,
				"z": 3.0224630139,
				"element": "O" 
			},
			{
				"x": 1.5108360332,
				"y": -0.4875027202,
				"z": -2.0773691644,
				"element": "H" 
			},
			{
				"x": -0.0394428238,
				"y": -1.0802682768,
				"z": -2.6481732419,
				"element": "H" 
			},
			{
				"x": 0.4320440162,
				"y": 0.5947994361,
				"z": -2.9827831387,
				"element": "H" 
			},
			{
				"x": -0.1810889259,
				"y": 2.3161347167,
				"z": -1.5631602221,
				"element": "H" 
			},
			{
				"x": -2.2058222778,
				"y": 3.8550532922,
				"z": 0.9400865269,
				"element": "H" 
			},
			{
				"x": -0.4886143621,
				"y": 4.0676854968,
				"z": 1.2343843888,
				"element": "H" 
			},
			{
				"x": -1.1097070651,
				"y": 4.1071437666,
				"z": -0.4292459673,
				"element": "H" 
			},
			{
				"x": -1.4010401052,
				"y": -0.6532873343,
				"z": 3.3826469731,
				"element": "H" 
			},
			{
				"x": -2.4930973888,
				"y": -1.5005264548,
				"z": 2.2911312984,
				"element": "H" 
			},
			{
				"x": -0.8085673712,
				"y": -2.002293963,
				"z": 2.4026542207,
				"element": "H" 
			}
		],
		 "valence_orbital": [ 
			{
				"type": "occ",
				"energy": -0.31767,
				"method": "rhf"
			},
			{
				"type": "occ",
				"energy": -0.31018,
				"method": "rhf"
			},
			{
				"type": "occ",
				"energy": -0.30862,
				"method": "rhf"
			},
			{
				"type": "occ",
				"energy": -0.2757,
				"method": "rhf"
			},
			{
				"type": "occ",
				"energy": -0.27252,
				"method": "rhf"
			},
			{
				"type": "unocc",
				"energy": -0.09257,
				"method": "rhf"
			},
			{
				"type": "unocc",
				"energy": -0.08995,
				"method": "rhf"
			},
			{
				"type": "unocc",
				"energy": -0.032,
				"method": "rhf"
			},
			{
				"type": "unocc",
				"energy": -0.02388,
				"method": "rhf"
			},
			{
				"type": "unocc",
				"energy": 0.07494,
				"method": "rhf"
			}
		],
		"cosmo_sigma_profile": { 
			"-0.025": 0.0,
			"-0.024": 0.0,
			"-0.023": 0.0,
			"-0.022": 0.0,
			"-0.021": 0.0,
			"-0.02": 0.0,
			"-0.019": 0.0,
			"-0.018": 0.0,
			"-0.017": 0.0,
			"-0.016": 0.0,
			"-0.015": 0.0,
			"-0.014": 0.0,
			"-0.013": 0.0,
			"-0.012": 0.0,
			"-0.011": 0.0,
			"-0.01": 0.00866057688089,
			"-0.009": 1.85897426265,
			"-0.008": 4.35935977668,
			"-0.007": 9.30271783997,
			"-0.006": 11.1566487015,
			"-0.005": 15.1260088965,
			"-0.004": 16.9531096025,
			"-0.003": 18.4183993663,
			"-0.002": 25.796809718,
			"-0.001": 28.5906668607,
			"0.0": 17.1038819422,
			"0.001": 9.56177419109,
			"0.002": 7.27435005065,
			"0.003": 6.9804220994,
			"0.004": 5.35398140669,
			"0.005": 6.46857453498,
			"0.006": 9.79363445826,
			"0.007": 18.4412750784,
			"0.008": 11.5085049216,
			"0.009": 6.69507156026,
			"0.01": 1.79392848989,
			"0.011": 0.0,
			"0.012": 0.0,
			"0.013": 0.0,
			"0.014": 0.0,
			"0.015": 0.0,
			"0.016": 0.0,
			"0.017": 0.0,
			"0.018": 0.0,
			"0.019": 0.0,
			"0.02": 0.0,
			"0.021": 0.0,
			"0.022": 0.0,
			"0.023": 0.0,
			"0.024": 0.0,
			"0.025": 0.0
		}
	}
}
