{
	 "smiles": "OC(=O)C1=NC2=C(C=CC=C2)C(OCC(F)(F)F)=C1", 
	 "Tm": 480.15, 
	 "num_atms": 27, 
	 "gaussian": { 
		 "optdone": 1, 
		 "sigma_profile": "yes", 
		 "theory": "DFT", 
		 "functional": "B3LYP", 
		 "basiset": "6-31G**", 
		 "properties": { 
			 "R2extent": 7132.4827, 
			 "electric_dipole_moment_norm": 4.42850003274, 
			 "electric_quadrupole_moment_norm": 26.1290647133, 
			 "total_energy": -1042.06589742, 
			 "HOMO_LUMO_gap": 0.16845, 
			 "cosmo_polarized_energy": -13.43, 
			 "cosmo_cavitation_energy": 34.01, 
			 "cosmo_dispersion_energy": -24.01, 
			 "cosmo_repulsion_energy": 1.77, 
			 "cosmo_total_nonelectrostatic_energy": 11.76, 
			 "SMD_solvation_energy": 7.39 
		},
		"coords": [
			{
				"x": 4.0567119399,
				"y": -4.2356535215,
				"z": 0.6001554011,
				"element": "O" 
			},
			{
				"x": 3.9253737749,
				"y": -3.1751172622,
				"z": -0.2067349191,
				"element": "C" 
			},
			{
				"x": 4.7511250451,
				"y": -2.8556421328,
				"z": -1.0331677446,
				"element": "O" 
			},
			{
				"x": 2.6408489801,
				"y": -2.4075599954,
				"z": 0.0111787092,
				"element": "C" 
			},
			{
				"x": 1.8421482591,
				"y": -2.8807187646,
				"z": 0.9488296043,
				"element": "N" 
			},
			{
				"x": 0.6694049608,
				"y": -2.2205495989,
				"z": 1.1820685532,
				"element": "C" 
			},
			{
				"x": 0.2955815697,
				"y": -1.0519740839,
				"z": 0.4477566717,
				"element": "C" 
			},
			{
				"x": -0.9335966558,
				"y": -0.4097411189,
				"z": 0.7340819086,
				"element": "C" 
			},
			{
				"x": -1.7623057364,
				"y": -0.9109059034,
				"z": 1.7155362107,
				"element": "C" 
			},
			{
				"x": -1.3959617695,
				"y": -2.0671517834,
				"z": 2.444543497,
				"element": "C" 
			},
			{
				"x": -0.2056383912,
				"y": -2.7099137226,
				"z": 2.1848614247,
				"element": "C" 
			},
			{
				"x": 1.2029838857,
				"y": -0.5867536188,
				"z": -0.556387882,
				"element": "C" 
			},
			{
				"x": 0.8097193321,
				"y": 0.5229703902,
				"z": -1.227570333,
				"element": "O" 
			},
			{
				"x": 1.6606808645,
				"y": 1.0378655778,
				"z": -2.2355986682,
				"element": "C" 
			},
			{
				"x": 0.9775757776,
				"y": 2.266173843,
				"z": -2.8112538865,
				"element": "C" 
			},
			{
				"x": 1.7610519679,
				"y": 2.7859383761,
				"z": -3.7779543644,
				"element": "F" 
			},
			{
				"x": -0.2142653989,
				"y": 1.9628495022,
				"z": -3.3522839456,
				"element": "F" 
			},
			{
				"x": 0.7820999476,
				"y": 3.2094547424,
				"z": -1.8745497471,
				"element": "F" 
			},
			{
				"x": 2.3827247827,
				"y": -1.266177985,
				"z": -0.7781459181,
				"element": "C" 
			},
			{
				"x": 3.2478128526,
				"y": -4.2485643654,
				"z": 1.1564777594,
				"element": "H" 
			},
			{
				"x": -1.2074099367,
				"y": 0.4754282337,
				"z": 0.17155373,
				"element": "H" 
			},
			{
				"x": -2.7039457232,
				"y": -0.4158420267,
				"z": 1.932220604,
				"element": "H" 
			},
			{
				"x": -2.0605808083,
				"y": -2.4482320821,
				"z": 3.2141174131,
				"element": "H" 
			},
			{
				"x": 0.0962100444,
				"y": -3.5976041871,
				"z": 2.7306954225,
				"element": "H" 
			},
			{
				"x": 2.6328993116,
				"y": 1.3371445997,
				"z": -1.8282490384,
				"element": "H" 
			},
			{
				"x": 1.8142057919,
				"y": 0.3127604855,
				"z": -3.042668107,
				"element": "H" 
			},
			{
				"x": 3.1207453319,
				"y": -0.9810835977,
				"z": -1.5160123552,
				"element": "H" 
			}
		],
		 "valence_orbital": [ 
			{
				"type": "occ",
				"energy": -0.3051,
				"method": "rhf"
			},
			{
				"type": "occ",
				"energy": -0.29685,
				"method": "rhf"
			},
			{
				"type": "occ",
				"energy": -0.2729,
				"method": "rhf"
			},
			{
				"type": "occ",
				"energy": -0.26918,
				"method": "rhf"
			},
			{
				"type": "occ",
				"energy": -0.24761,
				"method": "rhf"
			},
			{
				"type": "unocc",
				"energy": -0.07916,
				"method": "rhf"
			},
			{
				"type": "unocc",
				"energy": -0.04805,
				"method": "rhf"
			},
			{
				"type": "unocc",
				"energy": -0.00089,
				"method": "rhf"
			},
			{
				"type": "unocc",
				"energy": 0.03395,
				"method": "rhf"
			},
			{
				"type": "unocc",
				"energy": 0.06331,
				"method": "rhf"
			}
		],
		"cosmo_sigma_profile": { 
			"-0.025": 0.0,
			"-0.024": 0.0,
			"-0.023": 0.0,
			"-0.022": 0.0,
			"-0.021": 0.0,
			"-0.02": 0.0,
			"-0.019": 0.0,
			"-0.018": 0.0,
			"-0.017": 0.0,
			"-0.016": 0.0,
			"-0.015": 0.0,
			"-0.014": 0.0,
			"-0.013": 0.2244744826,
			"-0.012": 0.3024045374,
			"-0.011": 0.368083753991,
			"-0.01": 4.27080830584,
			"-0.009": 9.44408834562,
			"-0.008": 5.6561231072,
			"-0.007": 7.70077194585,
			"-0.006": 11.1612280933,
			"-0.005": 15.1746136266,
			"-0.004": 13.690214048,
			"-0.003": 10.3487699751,
			"-0.002": 14.6311068226,
			"-0.001": 19.9664071527,
			"0.0": 21.661114517,
			"0.001": 23.0477157463,
			"0.002": 44.4459840013,
			"0.003": 33.1264269153,
			"0.004": 8.3331706697,
			"0.005": 3.20148517591,
			"0.006": 2.22426828379,
			"0.007": 2.85632582866,
			"0.008": 3.33694922288,
			"0.009": 3.81672446486,
			"0.01": 5.0731363685,
			"0.011": 5.29867593684,
			"0.012": 3.19687886717,
			"0.013": 0.997508058047,
			"0.014": 0.0,
			"0.015": 0.0,
			"0.016": 0.0,
			"0.017": 0.0,
			"0.018": 0.0,
			"0.019": 0.0,
			"0.02": 0.0,
			"0.021": 0.0,
			"0.022": 0.0,
			"0.023": 0.0,
			"0.024": 0.0,
			"0.025": 0.0
		}
	}
}
