{
	 "smiles": "NC1=C(I)C(C(O)=O)=C(I)C(C(O)=O)=C1I", 
	 "Tm": 540.65, 
	 "num_atms": 20, 
	 "gaussian": { 
		 "optdone": 1, 
		 "sigma_profile": "no", 
		 "theory": "DFT", 
		 "functional": "B3LYP", 
		 "basiset": "6-31G**", 
		 "properties": { 
			 "R2extent": 3881.4016, 
			 "electric_dipole_moment_norm": 4.54225158484, 
			 "electric_quadrupole_moment_norm": 21.3522478362, 
			 "total_energy": -697.058732201, 
			 "HOMO_LUMO_gap": 0.14598, 
			 "cosmo_polarized_energy": -173933.85, 
			 "cosmo_cavitation_energy": 34.58, 
			 "cosmo_dispersion_energy": -27.65, 
			 "cosmo_repulsion_energy": 2.07, 
			 "cosmo_total_nonelectrostatic_energy": 9.0, 
			 "SMD_solvation_energy": 5.32 
		},
		"coords": [
			{
				"x": 1.4100134641,
				"y": 2.6431172388,
				"z": 2.3443843128,
				"element": "N" 
			},
			{
				"x": 1.0166789833,
				"y": 1.6199824381,
				"z": 1.5311338167,
				"element": "C" 
			},
			{
				"x": 1.9390427534,
				"y": 0.6687473639,
				"z": 1.027048558,
				"element": "C" 
			},
			{
				"x": 4.0014063891,
				"y": 0.911167964,
				"z": 1.4936176877,
				"element": "I" 
			},
			{
				"x": 1.5397527432,
				"y": -0.4090732775,
				"z": 0.2317164657,
				"element": "C" 
			},
			{
				"x": 2.559261201,
				"y": -1.4357927263,
				"z": -0.2319853155,
				"element": "C" 
			},
			{
				"x": 3.0545275483,
				"y": -1.2359038834,
				"z": -1.4741975709,
				"element": "O" 
			},
			{
				"x": 2.9168439455,
				"y": -2.3605621629,
				"z": 0.4472549489,
				"element": "O" 
			},
			{
				"x": 0.1842405887,
				"y": -0.559389097,
				"z": -0.0950919688,
				"element": "C" 
			},
			{
				"x": -0.4400740728,
				"y": -2.1977919714,
				"z": -1.2938010796,
				"element": "I" 
			},
			{
				"x": -0.7598084876,
				"y": 0.3642182569,
				"z": 0.3744242809,
				"element": "C" 
			},
			{
				"x": -2.2093761852,
				"y": 0.2375102504,
				"z": -0.0312573586,
				"element": "C" 
			},
			{
				"x": -2.9064576864,
				"y": -0.508263449,
				"z": 0.8451971409,
				"element": "O" 
			},
			{
				"x": -2.6796597427,
				"y": 0.7441837182,
				"z": -1.0215085573,
				"element": "O" 
			},
			{
				"x": -0.3424461429,
				"y": 1.4290366129,
				"z": 1.1746115209,
				"element": "C" 
			},
			{
				"x": -1.7821555626,
				"y": 2.8237377549,
				"z": 1.8873747812,
				"element": "I" 
			},
			{
				"x": 0.7688514436,
				"y": 3.4032344054,
				"z": 2.5106890822,
				"element": "H" 
			},
			{
				"x": 2.3942822106,
				"y": 2.8497039284,
				"z": 2.417481767,
				"element": "H" 
			},
			{
				"x": 2.6374466406,
				"y": -0.461714404,
				"z": -1.8810426274,
				"element": "H" 
			},
			{
				"x": -3.8202700312,
				"y": -0.5508489603,
				"z": 0.5127501152,
				"element": "H" 
			}
		],
		 "valence_orbital": [ 
			{
				"type": "occ",
				"energy": -0.28808,
				"method": "rhf"
			},
			{
				"type": "occ",
				"energy": -0.2813,
				"method": "rhf"
			},
			{
				"type": "occ",
				"energy": -0.27934,
				"method": "rhf"
			},
			{
				"type": "occ",
				"energy": -0.26179,
				"method": "rhf"
			},
			{
				"type": "occ",
				"energy": -0.23202,
				"method": "rhf"
			},
			{
				"type": "unocc",
				"energy": -0.08604,
				"method": "rhf"
			},
			{
				"type": "unocc",
				"energy": -0.05632,
				"method": "rhf"
			},
			{
				"type": "unocc",
				"energy": -0.04619,
				"method": "rhf"
			},
			{
				"type": "unocc",
				"energy": -0.04457,
				"method": "rhf"
			},
			{
				"type": "unocc",
				"energy": -0.03505,
				"method": "rhf"
			}
		],
		"cosmo_sigma_profile": { 
			"0.0": 0.0,
			"0.0": 0.0,
			"0.0": 0.0,
			"0.0": 0.0,
			"0.0": 0.0,
			"0.0": 0.0,
			"0.0": 0.0,
			"0.0": 0.0,
			"0.0": 0.0,
			"0.0": 0.0,
			"0.0": 0.0,
			"0.0": 0.0,
			"0.0": 0.0,
			"0.0": 0.0,
			"0.0": 0.0,
			"0.0": 0.0,
			"0.0": 0.0,
			"0.0": 0.0,
			"0.0": 0.0,
			"0.0": 0.0,
			"0.0": 0.0,
			"0.0": 0.0,
			"0.0": 0.0,
			"0.0": 0.0,
			"0.0": 0.0,
			"0.0": 0.0,
			"0.0": 0.0,
			"0.0": 0.0,
			"0.0": 0.0,
			"0.0": 0.0,
			"0.0": 0.0,
			"0.0": 0.0,
			"0.0": 0.0,
			"0.0": 0.0,
			"0.0": 0.0,
			"0.0": 0.0,
			"0.0": 0.0,
			"0.0": 0.0,
			"0.0": 0.0,
			"0.0": 0.0,
			"0.0": 0.0,
			"0.0": 0.0,
			"0.0": 0.0,
			"0.0": 0.0,
			"0.0": 0.0,
			"0.0": 0.0,
			"0.0": 0.0,
			"0.0": 0.0,
			"0.0": 0.0,
			"0.0": 0.0,
			"0.0": 0.0
		}
	}
}
