{
	 "smiles": "OC(=O)C1=C(CSC2=CC=CS2)C2=C(O1)C=CC=C2", 
	 "Tm": 440.15, 
	 "num_atms": 29, 
	 "gaussian": { 
		 "optdone": 1, 
		 "sigma_profile": "yes", 
		 "theory": "DFT", 
		 "functional": "B3LYP", 
		 "basiset": "6-31G**", 
		 "properties": { 
			 "R2extent": 5800.9127, 
			 "electric_dipole_moment_norm": 6.75842938633, 
			 "electric_quadrupole_moment_norm": 11.9408379061, 
			 "total_energy": -1561.53379375, 
			 "HOMO_LUMO_gap": 0.16491, 
			 "cosmo_polarized_energy": -19.67, 
			 "cosmo_cavitation_energy": 37.16, 
			 "cosmo_dispersion_energy": -25.95, 
			 "cosmo_repulsion_energy": 1.92, 
			 "cosmo_total_nonelectrostatic_energy": 13.12, 
			 "SMD_solvation_energy": 7.01 
		},
		"coords": [
			{
				"x": -2.0907836787,
				"y": 2.8336363964,
				"z": -1.8206618645,
				"element": "O" 
			},
			{
				"x": -1.1548491233,
				"y": 1.9725039434,
				"z": -2.3130847606,
				"element": "C" 
			},
			{
				"x": -0.3842595949,
				"y": 2.3183135148,
				"z": -3.1714344629,
				"element": "O" 
			},
			{
				"x": -1.1583336935,
				"y": 0.6172637844,
				"z": -1.7075995308,
				"element": "C" 
			},
			{
				"x": -1.4384301069,
				"y": 0.1397642933,
				"z": -0.4476665364,
				"element": "C" 
			},
			{
				"x": -1.8660212765,
				"y": 0.8884809747,
				"z": 0.7731415928,
				"element": "C" 
			},
			{
				"x": -0.4906012051,
				"y": 1.5864812207,
				"z": 1.8327361636,
				"element": "S" 
			},
			{
				"x": 0.1929048146,
				"y": 0.162068866,
				"z": 2.6127487715,
				"element": "C" 
			},
			{
				"x": -0.2516345143,
				"y": -0.4737979857,
				"z": 3.7513935375,
				"element": "C" 
			},
			{
				"x": 0.5736483907,
				"y": -1.5656561149,
				"z": 4.1426070279,
				"element": "C" 
			},
			{
				"x": 1.6484284355,
				"y": -1.7412068911,
				"z": 3.3083971658,
				"element": "C" 
			},
			{
				"x": 1.6648390204,
				"y": -0.5842625152,
				"z": 2.0268961748,
				"element": "S" 
			},
			{
				"x": -1.1647073148,
				"y": -1.2795002838,
				"z": -0.5078698605,
				"element": "C" 
			},
			{
				"x": -0.7348224363,
				"y": -1.5308597603,
				"z": -1.822673587,
				"element": "C" 
			},
			{
				"x": -0.7168111372,
				"y": -0.3768447205,
				"z": -2.5458371747,
				"element": "O" 
			},
			{
				"x": -0.3932498223,
				"y": -2.7942123186,
				"z": -2.2960593244,
				"element": "C" 
			},
			{
				"x": -0.4920383005,
				"y": -3.8405027471,
				"z": -1.3834629996,
				"element": "C" 
			},
			{
				"x": -0.9164039387,
				"y": -3.6219897036,
				"z": -0.0562158071,
				"element": "C" 
			},
			{
				"x": -1.2531256646,
				"y": -2.3521545254,
				"z": 0.3963702408,
				"element": "C" 
			},
			{
				"x": -2.7781234346,
				"y": 2.3356376371,
				"z": -1.3564252316,
				"element": "H" 
			},
			{
				"x": -2.4918366297,
				"y": 0.2629087044,
				"z": 1.4127905521,
				"element": "H" 
			},
			{
				"x": -2.4337605103,
				"y": 1.7912070044,
				"z": 0.5371279379,
				"element": "H" 
			},
			{
				"x": -1.1350735827,
				"y": -0.1519545182,
				"z": 4.2911306623,
				"element": "H" 
			},
			{
				"x": 0.3861159575,
				"y": -2.1842337218,
				"z": 5.0129262065,
				"element": "H" 
			},
			{
				"x": 2.4347369091,
				"y": -2.480230909,
				"z": 3.3841217987,
				"element": "H" 
			},
			{
				"x": -0.0670540624,
				"y": -2.9429566577,
				"z": -3.3192190118,
				"element": "H" 
			},
			{
				"x": -0.2346000738,
				"y": -4.8467348736,
				"z": -1.6997647616,
				"element": "H" 
			},
			{
				"x": -0.9766965446,
				"y": -4.4653956376,
				"z": 0.6247343654,
				"element": "H" 
			},
			{
				"x": -1.5610568821,
				"y": -2.1929724556,
				"z": 1.4247527158,
				"element": "H" 
			}
		],
		 "valence_orbital": [ 
			{
				"type": "occ",
				"energy": -0.26303,
				"method": "rhf"
			},
			{
				"type": "occ",
				"energy": -0.25238,
				"method": "rhf"
			},
			{
				"type": "occ",
				"energy": -0.2517,
				"method": "rhf"
			},
			{
				"type": "occ",
				"energy": -0.24847,
				"method": "rhf"
			},
			{
				"type": "occ",
				"energy": -0.22998,
				"method": "rhf"
			},
			{
				"type": "unocc",
				"energy": -0.06507,
				"method": "rhf"
			},
			{
				"type": "unocc",
				"energy": -0.03718,
				"method": "rhf"
			},
			{
				"type": "unocc",
				"energy": -0.00503,
				"method": "rhf"
			},
			{
				"type": "unocc",
				"energy": 0.00442,
				"method": "rhf"
			},
			{
				"type": "unocc",
				"energy": 0.02078,
				"method": "rhf"
			}
		],
		"cosmo_sigma_profile": { 
			"-0.025": 0.0,
			"-0.024": 0.0,
			"-0.023": 0.0,
			"-0.022": 0.0,
			"-0.021": 0.0,
			"-0.02": 0.18123537762,
			"-0.019": 0.796956050353,
			"-0.018": 1.00026066828,
			"-0.017": 0.702326922792,
			"-0.016": 1.18708224473,
			"-0.015": 0.715223338628,
			"-0.014": 1.35242325672,
			"-0.013": 1.06096073754,
			"-0.012": 1.19050900935,
			"-0.011": 0.946177967831,
			"-0.01": 1.23975769482,
			"-0.009": 1.54889113389,
			"-0.008": 4.37174211947,
			"-0.007": 12.2534848263,
			"-0.006": 17.2079072321,
			"-0.005": 20.10464762,
			"-0.004": 18.9673032706,
			"-0.003": 15.3049042033,
			"-0.002": 14.4551274518,
			"-0.001": 17.324457927,
			"0.0": 19.2742297522,
			"0.001": 26.4860927552,
			"0.002": 24.4455503086,
			"0.003": 25.4751884888,
			"0.004": 24.7733263916,
			"0.005": 12.0663448754,
			"0.006": 5.96274090194,
			"0.007": 5.28781371862,
			"0.008": 5.71502514355,
			"0.009": 5.37863023777,
			"0.01": 6.25110217067,
			"0.011": 6.4515669694,
			"0.012": 3.21819946845,
			"0.013": 0.150496923883,
			"0.014": 0.0,
			"0.015": 0.0,
			"0.016": 0.0,
			"0.017": 0.0,
			"0.018": 0.0,
			"0.019": 0.0,
			"0.02": 0.0,
			"0.021": 0.0,
			"0.022": 0.0,
			"0.023": 0.0,
			"0.024": 0.0,
			"0.025": 0.0
		}
	}
}
