{
	 "smiles": "CC1=CSC(=N1)C1(O)C(CN(CC2=CC=CC=C2)C1=O)C(O)=O", 
	 "Tm": 383.15, 
	 "num_atms": 39, 
	 "gaussian": { 
		 "optdone": 1, 
		 "sigma_profile": "yes", 
		 "theory": "DFT", 
		 "functional": "B3LYP", 
		 "basiset": "6-31G**", 
		 "properties": { 
			 "R2extent": 8841.4918, 
			 "electric_dipole_moment_norm": 4.99099484372, 
			 "electric_quadrupole_moment_norm": 34.9690203456, 
			 "total_energy": -1427.95933463, 
			 "HOMO_LUMO_gap": 0.19569, 
			 "cosmo_polarized_energy": -21.19, 
			 "cosmo_cavitation_energy": 44.14, 
			 "cosmo_dispersion_energy": -30.51, 
			 "cosmo_repulsion_energy": 2.28, 
			 "cosmo_total_nonelectrostatic_energy": 15.91, 
			 "SMD_solvation_energy": 7.95 
		},
		"coords": [
			{
				"x": 3.6053395312,
				"y": -2.1471319639,
				"z": -3.6684139161,
				"element": "C" 
			},
			{
				"x": 2.2626339356,
				"y": -2.0098309663,
				"z": -3.0154801774,
				"element": "C" 
			},
			{
				"x": 1.0396203906,
				"y": -2.1258982335,
				"z": -3.6156734591,
				"element": "C" 
			},
			{
				"x": -0.2451110493,
				"y": -1.881491119,
				"z": -2.4781324385,
				"element": "S" 
			},
			{
				"x": 0.9556113968,
				"y": -1.6372026232,
				"z": -1.2344948145,
				"element": "C" 
			},
			{
				"x": 2.1884924597,
				"y": -1.7353412639,
				"z": -1.6636762807,
				"element": "N" 
			},
			{
				"x": 0.6434822106,
				"y": -1.43951473,
				"z": 0.231236702,
				"element": "C" 
			},
			{
				"x": 0.6633626977,
				"y": -2.6936753193,
				"z": 0.9186943104,
				"element": "O" 
			},
			{
				"x": 1.6122024169,
				"y": -0.478238754,
				"z": 0.9579412655,
				"element": "C" 
			},
			{
				"x": 0.7406210019,
				"y": 0.1675195437,
				"z": 2.049884709,
				"element": "C" 
			},
			{
				"x": -0.6129501982,
				"y": 0.0800937214,
				"z": 1.5037771829,
				"element": "N" 
			},
			{
				"x": -1.7600250398,
				"y": 0.730098004,
				"z": 2.1306792982,
				"element": "C" 
			},
			{
				"x": -1.7494948607,
				"y": 2.2377111378,
				"z": 1.9613789514,
				"element": "C" 
			},
			{
				"x": -1.9240628304,
				"y": 2.8016495983,
				"z": 0.6893668602,
				"element": "C" 
			},
			{
				"x": -1.9131648554,
				"y": 4.1851288161,
				"z": 0.5217417587,
				"element": "C" 
			},
			{
				"x": -1.7283828214,
				"y": 5.0243190211,
				"z": 1.624664456,
				"element": "C" 
			},
			{
				"x": -1.5554036748,
				"y": 4.4720879566,
				"z": 2.8935365021,
				"element": "C" 
			},
			{
				"x": -1.564866999,
				"y": 3.0845459481,
				"z": 3.0589177233,
				"element": "C" 
			},
			{
				"x": -0.7387765216,
				"y": -0.8039343515,
				"z": 0.4874375231,
				"element": "C" 
			},
			{
				"x": -1.7691520975,
				"y": -1.1337952771,
				"z": -0.0958652457,
				"element": "O" 
			},
			{
				"x": 2.9004315491,
				"y": -1.1013988503,
				"z": 1.5230381722,
				"element": "C" 
			},
			{
				"x": 3.7045179276,
				"y": -1.6879295179,
				"z": 0.6362873836,
				"element": "O" 
			},
			{
				"x": 3.190074852,
				"y": -1.0038589328,
				"z": 2.6950338164,
				"element": "O" 
			},
			{
				"x": 4.1883218279,
				"y": -1.2266057984,
				"z": -3.5578019892,
				"element": "H" 
			},
			{
				"x": 4.1814215113,
				"y": -2.9552627108,
				"z": -3.20535632,
				"element": "H" 
			},
			{
				"x": 3.5026150608,
				"y": -2.3639823688,
				"z": -4.7339623106,
				"element": "H" 
			},
			{
				"x": 0.8294730661,
				"y": -2.3248593393,
				"z": -4.6572255292,
				"element": "H" 
			},
			{
				"x": -0.0960402413,
				"y": -3.2097978316,
				"z": 0.6084868212,
				"element": "H" 
			},
			{
				"x": 1.9110587668,
				"y": 0.2900297878,
				"z": 0.2356515695,
				"element": "H" 
			},
			{
				"x": 0.8289011303,
				"y": -0.3839156489,
				"z": 2.9915226711,
				"element": "H" 
			},
			{
				"x": 1.0148728184,
				"y": 1.2096428327,
				"z": 2.2339977263,
				"element": "H" 
			},
			{
				"x": -2.6453123626,
				"y": 0.291333183,
				"z": 1.6613982878,
				"element": "H" 
			},
			{
				"x": -1.7751310825,
				"y": 0.4694563885,
				"z": 3.1961400365,
				"element": "H" 
			},
			{
				"x": -2.0739682445,
				"y": 2.1490296511,
				"z": -0.1671251395,
				"element": "H" 
			},
			{
				"x": -2.0537570075,
				"y": 4.6107009898,
				"z": -0.4678168749,
				"element": "H" 
			},
			{
				"x": -1.7218075382,
				"y": 6.1025276413,
				"z": 1.493635289,
				"element": "H" 
			},
			{
				"x": -1.4116459294,
				"y": 5.1177545658,
				"z": 3.7550886916,
				"element": "H" 
			},
			{
				"x": -1.4313512479,
				"y": 2.6572476396,
				"z": 4.0499972529,
				"element": "H" 
			},
			{
				"x": 3.2883500507,
				"y": -1.7108108262,
				"z": -0.2664104655,
				"element": "H" 
			}
		],
		 "valence_orbital": [ 
			{
				"type": "occ",
				"energy": -0.26442,
				"method": "rhf"
			},
			{
				"type": "occ",
				"energy": -0.25842,
				"method": "rhf"
			},
			{
				"type": "occ",
				"energy": -0.25721,
				"method": "rhf"
			},
			{
				"type": "occ",
				"energy": -0.25392,
				"method": "rhf"
			},
			{
				"type": "occ",
				"energy": -0.24684,
				"method": "rhf"
			},
			{
				"type": "unocc",
				"energy": -0.05115,
				"method": "rhf"
			},
			{
				"type": "unocc",
				"energy": -0.01494,
				"method": "rhf"
			},
			{
				"type": "unocc",
				"energy": -0.01038,
				"method": "rhf"
			},
			{
				"type": "unocc",
				"energy": 0.00512,
				"method": "rhf"
			},
			{
				"type": "unocc",
				"energy": 0.01641,
				"method": "rhf"
			}
		],
		"cosmo_sigma_profile": { 
			"-0.025": 0.0,
			"-0.024": 0.0,
			"-0.023": 0.0,
			"-0.022": 0.0,
			"-0.021": 0.0,
			"-0.02": 0.0,
			"-0.019": 0.0,
			"-0.018": 0.0,
			"-0.017": 0.103875552618,
			"-0.016": 0.756095081025,
			"-0.015": 0.764241391116,
			"-0.014": 0.601373318897,
			"-0.013": 0.521286369792,
			"-0.012": 0.807058270632,
			"-0.011": 1.06442156048,
			"-0.01": 1.36812159089,
			"-0.009": 3.69210835659,
			"-0.008": 7.12304730076,
			"-0.007": 8.12273364333,
			"-0.006": 18.2725244758,
			"-0.005": 25.9848631147,
			"-0.004": 29.6963719514,
			"-0.003": 30.9471772219,
			"-0.002": 26.4792250052,
			"-0.001": 30.688472378,
			"0.0": 21.6220047925,
			"0.001": 22.9684613112,
			"0.002": 21.5989584372,
			"0.003": 16.0736879184,
			"0.004": 12.5241291517,
			"0.005": 16.0951902714,
			"0.006": 10.4038343702,
			"0.007": 5.39741457065,
			"0.008": 5.03340080848,
			"0.009": 7.21068368017,
			"0.01": 5.77122891806,
			"0.011": 8.28711712506,
			"0.012": 8.72389630245,
			"0.013": 3.68337647791,
			"0.014": 0.352656338603,
			"0.015": 0.0,
			"0.016": 0.0,
			"0.017": 0.0,
			"0.018": 0.0,
			"0.019": 0.0,
			"0.02": 0.0,
			"0.021": 0.0,
			"0.022": 0.0,
			"0.023": 0.0,
			"0.024": 0.0,
			"0.025": 0.0
		}
	}
}
