{
	 "smiles": "NNC(=S)N1CCOCC1", 
	 "Tm": 455.15, 
	 "num_atms": 21, 
	 "gaussian": { 
		 "optdone": 1, 
		 "sigma_profile": "yes", 
		 "theory": "DFT", 
		 "functional": "B3LYP", 
		 "basiset": "6-31G**", 
		 "properties": { 
			 "R2extent": 2021.1531, 
			 "electric_dipole_moment_norm": 3.3841613156, 
			 "electric_quadrupole_moment_norm": 7.45725446797, 
			 "total_energy": -834.780868043, 
			 "HOMO_LUMO_gap": 0.20474, 
			 "cosmo_polarized_energy": -16.15, 
			 "cosmo_cavitation_energy": 24.32, 
			 "cosmo_dispersion_energy": -18.97, 
			 "cosmo_repulsion_energy": 1.51, 
			 "cosmo_total_nonelectrostatic_energy": 6.86, 
			 "SMD_solvation_energy": 2.95 
		},
		"coords": [
			{
				"x": 0.4165869136,
				"y": 3.2878511539,
				"z": -0.4592891858,
				"element": "N" 
			},
			{
				"x": 0.1587679718,
				"y": 1.9034179712,
				"z": -0.5246011684,
				"element": "N" 
			},
			{
				"x": 0.4851253424,
				"y": 1.0393564444,
				"z": 0.4960076795,
				"element": "C" 
			},
			{
				"x": 1.3719338931,
				"y": 1.5570367006,
				"z": 1.8359743164,
				"element": "S" 
			},
			{
				"x": 0.0530611834,
				"y": -0.2415100674,
				"z": 0.3132423119,
				"element": "N" 
			},
			{
				"x": -0.5327297908,
				"y": -0.69946172,
				"z": -0.9546496068,
				"element": "C" 
			},
			{
				"x": -0.4719426938,
				"y": -2.2242183132,
				"z": -1.0294495558,
				"element": "C" 
			},
			{
				"x": -1.1579514325,
				"y": -2.8477373568,
				"z": 0.0402258187,
				"element": "O" 
			},
			{
				"x": -0.9308890722,
				"y": -2.2441645934,
				"z": 1.3196707895,
				"element": "C" 
			},
			{
				"x": 0.2423423604,
				"y": -1.2699489704,
				"z": 1.3408090139,
				"element": "C" 
			},
			{
				"x": 1.4050804527,
				"y": 3.4175728396,
				"z": -0.6729114608,
				"element": "H" 
			},
			{
				"x": 0.3233660671,
				"y": 3.5658415571,
				"z": 0.5209307858,
				"element": "H" 
			},
			{
				"x": -0.6577793829,
				"y": 1.6986298785,
				"z": -1.0829517183,
				"element": "H" 
			},
			{
				"x": -1.5818915805,
				"y": -0.3768234422,
				"z": -1.0436818788,
				"element": "H" 
			},
			{
				"x": 0.027409595,
				"y": -0.2722056205,
				"z": -1.7952445104,
				"element": "H" 
			},
			{
				"x": -0.95603487,
				"y": -2.5616170323,
				"z": -1.9506391603,
				"element": "H" 
			},
			{
				"x": 0.5808066568,
				"y": -2.5445795768,
				"z": -1.0707479212,
				"element": "H" 
			},
			{
				"x": -0.7460738931,
				"y": -3.0483884369,
				"z": 2.0411160464,
				"element": "H" 
			},
			{
				"x": -1.8455332664,
				"y": -1.7183512536,
				"z": 1.628321887,
				"element": "H" 
			},
			{
				"x": 0.3046706466,
				"y": -0.7763735584,
				"z": 2.3117832221,
				"element": "H" 
			},
			{
				"x": 1.1938748992,
				"y": -1.7960266032,
				"z": 1.1875842954,
				"element": "H" 
			}
		],
		 "valence_orbital": [ 
			{
				"type": "occ",
				"energy": -0.28382,
				"method": "rhf"
			},
			{
				"type": "occ",
				"energy": -0.2653,
				"method": "rhf"
			},
			{
				"type": "occ",
				"energy": -0.25437,
				"method": "rhf"
			},
			{
				"type": "occ",
				"energy": -0.21832,
				"method": "rhf"
			},
			{
				"type": "occ",
				"energy": -0.20724,
				"method": "rhf"
			},
			{
				"type": "unocc",
				"energy": -0.0025,
				"method": "rhf"
			},
			{
				"type": "unocc",
				"energy": 0.06514,
				"method": "rhf"
			},
			{
				"type": "unocc",
				"energy": 0.08007,
				"method": "rhf"
			},
			{
				"type": "unocc",
				"energy": 0.09349,
				"method": "rhf"
			},
			{
				"type": "unocc",
				"energy": 0.09906,
				"method": "rhf"
			}
		],
		"cosmo_sigma_profile": { 
			"-0.025": 0.0,
			"-0.024": 0.0,
			"-0.023": 0.0,
			"-0.022": 0.0,
			"-0.021": 0.0,
			"-0.02": 0.0,
			"-0.019": 0.0,
			"-0.018": 0.0,
			"-0.017": 0.0,
			"-0.016": 0.0,
			"-0.015": 0.122511669049,
			"-0.014": 1.09624755305,
			"-0.013": 1.1247749917,
			"-0.012": 0.892480031565,
			"-0.011": 2.28118683225,
			"-0.01": 2.44602573602,
			"-0.009": 2.16375070049,
			"-0.008": 4.12876430189,
			"-0.007": 5.84364016106,
			"-0.006": 13.1375482392,
			"-0.005": 23.9932596516,
			"-0.004": 20.2420296381,
			"-0.003": 13.5543122896,
			"-0.002": 10.563128562,
			"-0.001": 7.33541805553,
			"0.0": 8.28599342234,
			"0.001": 5.29888289457,
			"0.002": 5.71463535651,
			"0.003": 5.4445615824,
			"0.004": 5.96358682422,
			"0.005": 4.79874185804,
			"0.006": 6.64009235133,
			"0.007": 5.59218886358,
			"0.008": 5.32492951006,
			"0.009": 6.91615993499,
			"0.01": 8.10468079673,
			"0.011": 7.3553958006,
			"0.012": 3.40326338059,
			"0.013": 2.61573561192,
			"0.014": 0.867925919561,
			"0.015": 0.440545853263,
			"0.016": 0.55914895107,
			"0.017": 0.142184617188,
			"0.018": 0.0,
			"0.019": 0.0,
			"0.02": 0.0,
			"0.021": 0.0,
			"0.022": 0.0,
			"0.023": 0.0,
			"0.024": 0.0,
			"0.025": 0.0
		}
	}
}
