{
	 "smiles": "OCC(O)C1OC(=O)C(O)C1O", 
	 "Tm": 457.15, 
	 "num_atms": 22, 
	 "gaussian": { 
		 "optdone": 1, 
		 "sigma_profile": "yes", 
		 "theory": "DFT", 
		 "functional": "B3LYP", 
		 "basiset": "6-31G**", 
		 "properties": { 
			 "R2extent": 2237.7775, 
			 "electric_dipole_moment_norm": 2.46164064599, 
			 "electric_quadrupole_moment_norm": 13.2563369975, 
			 "total_energy": -685.976473876, 
			 "HOMO_LUMO_gap": 0.26814, 
			 "cosmo_polarized_energy": -18.17, 
			 "cosmo_cavitation_energy": 24.85, 
			 "cosmo_dispersion_energy": -18.57, 
			 "cosmo_repulsion_energy": 1.52, 
			 "cosmo_total_nonelectrostatic_energy": 7.79, 
			 "SMD_solvation_energy": 5.28 
		},
		"coords": [
			{
				"x": 0.1132606045,
				"y": 3.3658583712,
				"z": 1.3482341615,
				"element": "O" 
			},
			{
				"x": -0.3664333664,
				"y": 3.0800685278,
				"z": 0.0397633334,
				"element": "C" 
			},
			{
				"x": 0.2607900577,
				"y": 1.7593617929,
				"z": -0.3964273886,
				"element": "C" 
			},
			{
				"x": -0.1501073017,
				"y": 1.522143041,
				"z": -1.7356387506,
				"element": "O" 
			},
			{
				"x": -0.115734588,
				"y": 0.6051442986,
				"z": 0.5433579105,
				"element": "C" 
			},
			{
				"x": -1.5552204008,
				"y": 0.5623503211,
				"z": 0.7718260393,
				"element": "O" 
			},
			{
				"x": -2.1172243415,
				"y": -0.5049699111,
				"z": 0.1670494562,
				"element": "C" 
			},
			{
				"x": -3.2698763384,
				"y": -0.8344535504,
				"z": 0.3022914238,
				"element": "O" 
			},
			{
				"x": -1.0782184115,
				"y": -1.2416532158,
				"z": -0.6681168256,
				"element": "C" 
			},
			{
				"x": -1.2751316196,
				"y": -2.6339762026,
				"z": -0.6483955392,
				"element": "O" 
			},
			{
				"x": 0.2311863291,
				"y": -0.7992183628,
				"z": -0.0177855855,
				"element": "C" 
			},
			{
				"x": 1.3436549416,
				"y": -0.7033421008,
				"z": -0.8990779821,
				"element": "O" 
			},
			{
				"x": -0.4638144899,
				"y": 4.0287327278,
				"z": 1.7442298302,
				"element": "H" 
			},
			{
				"x": -1.4587766175,
				"y": 2.9803421651,
				"z": 0.0122023532,
				"element": "H" 
			},
			{
				"x": -0.0723776725,
				"y": 3.852773062,
				"z": -0.6845342288,
				"element": "H" 
			},
			{
				"x": 1.3531588081,
				"y": 1.864255164,
				"z": -0.3315252977,
				"element": "H" 
			},
			{
				"x": 0.4633123373,
				"y": 0.855410079,
				"z": -2.0789866655,
				"element": "H" 
			},
			{
				"x": 0.3359170568,
				"y": 0.7925441021,
				"z": 1.5191310082,
				"element": "H" 
			},
			{
				"x": -1.1268631055,
				"y": -0.8298759776,
				"z": -1.6879887841,
				"element": "H" 
			},
			{
				"x": -2.230529831,
				"y": -2.7700130113,
				"z": -0.5411621999,
				"element": "H" 
			},
			{
				"x": 0.4477630886,
				"y": -1.490749913,
				"z": 0.8078810363,
				"element": "H" 
			},
			{
				"x": 1.5705648605,
				"y": -1.5979314073,
				"z": -1.1854273049,
				"element": "H" 
			}
		],
		 "valence_orbital": [ 
			{
				"type": "occ",
				"energy": -0.315,
				"method": "rhf"
			},
			{
				"type": "occ",
				"energy": -0.28993,
				"method": "rhf"
			},
			{
				"type": "occ",
				"energy": -0.27766,
				"method": "rhf"
			},
			{
				"type": "occ",
				"energy": -0.27288,
				"method": "rhf"
			},
			{
				"type": "occ",
				"energy": -0.2707,
				"method": "rhf"
			},
			{
				"type": "unocc",
				"energy": -0.00256,
				"method": "rhf"
			},
			{
				"type": "unocc",
				"energy": 0.04542,
				"method": "rhf"
			},
			{
				"type": "unocc",
				"energy": 0.06893,
				"method": "rhf"
			},
			{
				"type": "unocc",
				"energy": 0.08088,
				"method": "rhf"
			},
			{
				"type": "unocc",
				"energy": 0.09232,
				"method": "rhf"
			}
		],
		"cosmo_sigma_profile": { 
			"-0.025": 0.0,
			"-0.024": 0.0,
			"-0.023": 0.0,
			"-0.022": 0.0,
			"-0.021": 0.0,
			"-0.02": 0.0,
			"-0.019": 0.0,
			"-0.018": 0.0078054479553,
			"-0.017": 0.916666084244,
			"-0.016": 1.80347011866,
			"-0.015": 2.04257389053,
			"-0.014": 2.25303409893,
			"-0.013": 2.32848724212,
			"-0.012": 3.107691099,
			"-0.011": 2.23862871687,
			"-0.01": 2.46799270644,
			"-0.009": 2.74877393186,
			"-0.008": 5.20208488896,
			"-0.007": 9.62621578752,
			"-0.006": 10.4708590401,
			"-0.005": 10.1242564897,
			"-0.004": 12.8202861938,
			"-0.003": 11.9942300575,
			"-0.002": 11.2382688118,
			"-0.001": 7.80859506135,
			"0.0": 7.70938719973,
			"0.001": 7.40568298054,
			"0.002": 7.14514503967,
			"0.003": 6.39662440426,
			"0.004": 6.01193521623,
			"0.005": 7.10461725624,
			"0.006": 5.91436518845,
			"0.007": 6.71947457383,
			"0.008": 7.08650068931,
			"0.009": 7.86811993963,
			"0.01": 8.1812775775,
			"0.011": 6.87679833722,
			"0.012": 6.03969053672,
			"0.013": 2.96247842031,
			"0.014": 0.579415665024,
			"0.015": 0.0,
			"0.016": 0.0,
			"0.017": 0.0,
			"0.018": 0.0,
			"0.019": 0.0,
			"0.02": 0.0,
			"0.021": 0.0,
			"0.022": 0.0,
			"0.023": 0.0,
			"0.024": 0.0,
			"0.025": 0.0
		}
	}
}
