{
	 "smiles": "CCCCCCCCCCCCCCCCCCC=C", 
	 "Tm": 301.95, 
	 "num_atms": 60, 
	 "gaussian": { 
		 "optdone": 1, 
		 "sigma_profile": "yes", 
		 "theory": "DFT", 
		 "functional": "B3LYP", 
		 "basiset": "6-31G**", 
		 "properties": { 
			 "R2extent": 12075.1313, 
			 "electric_dipole_moment_norm": 0.455704213279, 
			 "electric_quadrupole_moment_norm": 3.34590006276, 
			 "total_energy": -786.260216782, 
			 "HOMO_LUMO_gap": 0.27408, 
			 "cosmo_polarized_energy": -2.28, 
			 "cosmo_cavitation_energy": 57.3, 
			 "cosmo_dispersion_energy": -36.54, 
			 "cosmo_repulsion_energy": 2.97, 
			 "cosmo_total_nonelectrostatic_energy": 23.74, 
			 "SMD_solvation_energy": 7.94 
		},
		"coords": [
			{
				"x": -1.1275872302,
				"y": -1.048094091,
				"z": -6.4099466167,
				"element": "C" 
			},
			{
				"x": -0.4881261585,
				"y": -1.2805482168,
				"z": -5.0355844273,
				"element": "C" 
			},
			{
				"x": -1.1483339918,
				"y": -0.5050355408,
				"z": -3.8825435975,
				"element": "C" 
			},
			{
				"x": -2.5906733999,
				"y": -0.9311685825,
				"z": -3.5710588227,
				"element": "C" 
			},
			{
				"x": -3.244044681,
				"y": -0.1614860051,
				"z": -2.409063044,
				"element": "C" 
			},
			{
				"x": -2.6694440292,
				"y": -0.3965878087,
				"z": -0.9978404554,
				"element": "C" 
			},
			{
				"x": -2.8559639626,
				"y": -1.8315182507,
				"z": -0.4484926694,
				"element": "C" 
			},
			{
				"x": -1.6900741916,
				"y": -2.8220624974,
				"z": -0.6820009233,
				"element": "C" 
			},
			{
				"x": -0.6550370725,
				"y": -2.8954124649,
				"z": 0.4559592615,
				"element": "C" 
			},
			{
				"x": 0.1547901097,
				"y": -1.61376579,
				"z": 0.7013989083,
				"element": "C" 
			},
			{
				"x": 1.2843452198,
				"y": -1.7699634952,
				"z": 1.735778695,
				"element": "C" 
			},
			{
				"x": 0.8406460082,
				"y": -2.1266701364,
				"z": 3.1675568775,
				"element": "C" 
			},
			{
				"x": -0.0962945402,
				"y": -1.1164394923,
				"z": 3.8527782989,
				"element": "C" 
			},
			{
				"x": 0.5098976356,
				"y": 0.2777992524,
				"z": 4.0696500574,
				"element": "C" 
			},
			{
				"x": -0.4337746869,
				"y": 1.2232209263,
				"z": 4.8261241732,
				"element": "C" 
			},
			{
				"x": 0.1396304479,
				"y": 2.6012864514,
				"z": 5.202996601,
				"element": "C" 
			},
			{
				"x": 0.5217197072,
				"y": 3.5244673286,
				"z": 4.0247826081,
				"element": "C" 
			},
			{
				"x": 1.9870241013,
				"y": 3.4093429853,
				"z": 3.5535994797,
				"element": "C" 
			},
			{
				"x": 2.31869569,
				"y": 4.3784831417,
				"z": 2.4518908391,
				"element": "C" 
			},
			{
				"x": 2.7550229966,
				"y": 4.0462258459,
				"z": 1.2364510543,
				"element": "C" 
			},
			{
				"x": -1.1246811268,
				"y": 0.0169615363,
				"z": -6.6704341718,
				"element": "H" 
			},
			{
				"x": -2.1659366191,
				"y": -1.3933314041,
				"z": -6.4430946764,
				"element": "H" 
			},
			{
				"x": -0.5805184014,
				"y": -1.5822642744,
				"z": -7.1939426923,
				"element": "H" 
			},
			{
				"x": 0.5714256753,
				"y": -0.9983337609,
				"z": -5.0859137317,
				"element": "H" 
			},
			{
				"x": -0.5034325118,
				"y": -2.3544886916,
				"z": -4.8030009196,
				"element": "H" 
			},
			{
				"x": -1.1345718063,
				"y": 0.5698881117,
				"z": -4.1155262051,
				"element": "H" 
			},
			{
				"x": -0.5287993333,
				"y": -0.625306044,
				"z": -2.984792725,
				"element": "H" 
			},
			{
				"x": -2.6175133852,
				"y": -2.0105958341,
				"z": -3.3685398469,
				"element": "H" 
			},
			{
				"x": -3.210508708,
				"y": -0.7813976654,
				"z": -4.4639107157,
				"element": "H" 
			},
			{
				"x": -3.1911361472,
				"y": 0.9135164591,
				"z": -2.6318601547,
				"element": "H" 
			},
			{
				"x": -4.3142023708,
				"y": -0.4097566249,
				"z": -2.3848166735,
				"element": "H" 
			},
			{
				"x": -1.6102344978,
				"y": -0.1167346272,
				"z": -0.9717984553,
				"element": "H" 
			},
			{
				"x": -3.1754366725,
				"y": 0.3068705398,
				"z": -0.3243417807,
				"element": "H" 
			},
			{
				"x": -3.7736770558,
				"y": -2.246939104,
				"z": -0.8855539534,
				"element": "H" 
			},
			{
				"x": -3.0484586008,
				"y": -1.7821327718,
				"z": 0.6316596063,
				"element": "H" 
			},
			{
				"x": -1.1764022506,
				"y": -2.5849991682,
				"z": -1.6220974976,
				"element": "H" 
			},
			{
				"x": -2.1043013858,
				"y": -3.8296918724,
				"z": -0.8144356023,
				"element": "H" 
			},
			{
				"x": -1.1754485927,
				"y": -3.1861676303,
				"z": 1.378719993,
				"element": "H" 
			},
			{
				"x": 0.0459625789,
				"y": -3.713226254,
				"z": 0.2357462845,
				"element": "H" 
			},
			{
				"x": -0.5156460877,
				"y": -0.8012777332,
				"z": 1.0079109119,
				"element": "H" 
			},
			{
				"x": 0.6024144107,
				"y": -1.2901042448,
				"z": -0.248572231,
				"element": "H" 
			},
			{
				"x": 1.9753954842,
				"y": -2.5496168777,
				"z": 1.3867299698,
				"element": "H" 
			},
			{
				"x": 1.8707037799,
				"y": -0.8425535497,
				"z": 1.7579398604,
				"element": "H" 
			},
			{
				"x": 1.7409278109,
				"y": -2.2467020444,
				"z": 3.7858326597,
				"element": "H" 
			},
			{
				"x": 0.3521377798,
				"y": -3.1092054882,
				"z": 3.1618184955,
				"element": "H" 
			},
			{
				"x": -1.0275193664,
				"y": -1.0197686326,
				"z": 3.2778387185,
				"element": "H" 
			},
			{
				"x": -0.3922809803,
				"y": -1.5271100642,
				"z": 4.8278500353,
				"element": "H" 
			},
			{
				"x": 0.7707404522,
				"y": 0.718385431,
				"z": 3.1001859552,
				"element": "H" 
			},
			{
				"x": 1.4533082077,
				"y": 0.1788422589,
				"z": 4.626587576,
				"element": "H" 
			},
			{
				"x": -0.7598209315,
				"y": 0.7252960332,
				"z": 5.7500600866,
				"element": "H" 
			},
			{
				"x": -1.3450682428,
				"y": 1.3706366546,
				"z": 4.228657207,
				"element": "H" 
			},
			{
				"x": -0.6148575317,
				"y": 3.1114220954,
				"z": 5.8148173323,
				"element": "H" 
			},
			{
				"x": 1.0122848269,
				"y": 2.4681112299,
				"z": 5.858353055,
				"element": "H" 
			},
			{
				"x": -0.1482013943,
				"y": 3.3393540379,
				"z": 3.1744636546,
				"element": "H" 
			},
			{
				"x": 0.3472596676,
				"y": 4.5677924115,
				"z": 4.3189196665,
				"element": "H" 
			},
			{
				"x": 2.2107444405,
				"y": 2.3892214019,
				"z": 3.2242240534,
				"element": "H" 
			},
			{
				"x": 2.6390818556,
				"y": 3.6067107807,
				"z": 4.4180539336,
				"element": "H" 
			},
			{
				"x": 2.1702959796,
				"y": 5.4338743655,
				"z": 2.6885573432,
				"element": "H" 
			},
			{
				"x": 2.9154453915,
				"y": 3.0083022391,
				"z": 0.9527144219,
				"element": "H" 
			},
			{
				"x": 2.9721076877,
				"y": 4.7956452158,
				"z": 0.480754915,
				"element": "H" 
			}
		],
		 "valence_orbital": [ 
			{
				"type": "occ",
				"energy": -0.30146,
				"method": "rhf"
			},
			{
				"type": "occ",
				"energy": -0.29818,
				"method": "rhf"
			},
			{
				"type": "occ",
				"energy": -0.29251,
				"method": "rhf"
			},
			{
				"type": "occ",
				"energy": -0.2918,
				"method": "rhf"
			},
			{
				"type": "occ",
				"energy": -0.24871,
				"method": "rhf"
			},
			{
				"type": "unocc",
				"energy": 0.02537,
				"method": "rhf"
			},
			{
				"type": "unocc",
				"energy": 0.07075,
				"method": "rhf"
			},
			{
				"type": "unocc",
				"energy": 0.08247,
				"method": "rhf"
			},
			{
				"type": "unocc",
				"energy": 0.08892,
				"method": "rhf"
			},
			{
				"type": "unocc",
				"energy": 0.09633,
				"method": "rhf"
			}
		],
		"cosmo_sigma_profile": { 
			"-0.025": 0.0,
			"-0.024": 0.0,
			"-0.023": 0.0,
			"-0.022": 0.0,
			"-0.021": 0.0,
			"-0.02": 0.0,
			"-0.019": 0.0,
			"-0.018": 0.0,
			"-0.017": 0.0,
			"-0.016": 0.0,
			"-0.015": 0.0,
			"-0.014": 0.0,
			"-0.013": 0.0,
			"-0.012": 0.0,
			"-0.011": 0.0,
			"-0.01": 0.0,
			"-0.009": 0.0,
			"-0.008": 0.0,
			"-0.007": 0.0,
			"-0.006": 0.0,
			"-0.005": 0.852135452778,
			"-0.004": 5.03819073702,
			"-0.003": 9.7231621294,
			"-0.002": 49.6440252289,
			"-0.001": 110.183043599,
			"0.0": 112.630209353,
			"0.001": 92.1251660822,
			"0.002": 38.4684070074,
			"0.003": 5.84042202951,
			"0.004": 3.73786442884,
			"0.005": 3.21802164608,
			"0.006": 2.99619867627,
			"0.007": 2.86198311061,
			"0.008": 0.967527679243,
			"0.009": 0.0,
			"0.01": 0.0,
			"0.011": 0.0,
			"0.012": 0.0,
			"0.013": 0.0,
			"0.014": 0.0,
			"0.015": 0.0,
			"0.016": 0.0,
			"0.017": 0.0,
			"0.018": 0.0,
			"0.019": 0.0,
			"0.02": 0.0,
			"0.021": 0.0,
			"0.022": 0.0,
			"0.023": 0.0,
			"0.024": 0.0,
			"0.025": 0.0
		}
	}
}
