{
	 "smiles": "NC1=CC(Cl)=C(C=C1)[N+]([O-])=O", 
	 "Tm": 432.15, 
	 "num_atms": 16, 
	 "gaussian": { 
		 "optdone": 1, 
		 "sigma_profile": "yes", 
		 "theory": "DFT", 
		 "functional": "B3LYP", 
		 "basiset": "6-31G**", 
		 "properties": { 
			 "R2extent": 2405.7857, 
			 "electric_dipole_moment_norm": 7.5956038463, 
			 "electric_quadrupole_moment_norm": 8.48175095602, 
			 "total_energy": -951.688782976, 
			 "HOMO_LUMO_gap": 0.16134, 
			 "cosmo_polarized_energy": -16.38, 
			 "cosmo_cavitation_energy": 22.76, 
			 "cosmo_dispersion_energy": -17.18, 
			 "cosmo_repulsion_energy": 1.38, 
			 "cosmo_total_nonelectrostatic_energy": 6.96, 
			 "SMD_solvation_energy": 5.9 
		},
		"coords": [
			{
				"x": 0.0889914934,
				"y": -3.5005111877,
				"z": 0.0446033624,
				"element": "N" 
			},
			{
				"x": 0.1629480079,
				"y": -2.1502248119,
				"z": -0.2097415277,
				"element": "C" 
			},
			{
				"x": 0.0977976548,
				"y": -1.6680361874,
				"z": -1.529705259,
				"element": "C" 
			},
			{
				"x": 0.1392098054,
				"y": -0.3055163215,
				"z": -1.8069997778,
				"element": "C" 
			},
			{
				"x": 0.0050172169,
				"y": 0.1413447697,
				"z": -3.4883293567,
				"element": "Cl" 
			},
			{
				"x": 0.2355242416,
				"y": 0.6174798313,
				"z": -0.7473817923,
				"element": "C" 
			},
			{
				"x": 0.2794833675,
				"y": 0.1352251029,
				"z": 0.5682106706,
				"element": "C" 
			},
			{
				"x": 0.2526918414,
				"y": -1.2175093884,
				"z": 0.8441473529,
				"element": "C" 
			},
			{
				"x": 0.3078684792,
				"y": 2.0680160698,
				"z": -0.9151482577,
				"element": "N" 
			},
			{
				"x": 0.6326919825,
				"y": 2.5228708811,
				"z": -2.0095899175,
				"element": "O" 
			},
			{
				"x": 0.053736219,
				"y": 2.7585401116,
				"z": 0.0771908264,
				"element": "O" 
			},
			{
				"x": 0.2803350836,
				"y": -4.1377658647,
				"z": -0.7132485097,
				"element": "H" 
			},
			{
				"x": 0.3846635699,
				"y": -3.8254084165,
				"z": 0.9523146278,
				"element": "H" 
			},
			{
				"x": 0.0038516986,
				"y": -2.3638916714,
				"z": -2.3564474587,
				"element": "H" 
			},
			{
				"x": 0.3422064292,
				"y": 0.8647446715,
				"z": 1.3657535203,
				"element": "H" 
			},
			{
				"x": 0.2973829092,
				"y": -1.5631575884,
				"z": 1.8725714967,
				"element": "H" 
			}
		],
		 "valence_orbital": [ 
			{
				"type": "occ",
				"energy": -0.29633,
				"method": "rhf"
			},
			{
				"type": "occ",
				"energy": -0.29329,
				"method": "rhf"
			},
			{
				"type": "occ",
				"energy": -0.27429,
				"method": "rhf"
			},
			{
				"type": "occ",
				"energy": -0.26629,
				"method": "rhf"
			},
			{
				"type": "occ",
				"energy": -0.23727,
				"method": "rhf"
			},
			{
				"type": "unocc",
				"energy": -0.07593,
				"method": "rhf"
			},
			{
				"type": "unocc",
				"energy": -0.0304,
				"method": "rhf"
			},
			{
				"type": "unocc",
				"energy": 0.00815,
				"method": "rhf"
			},
			{
				"type": "unocc",
				"energy": 0.01823,
				"method": "rhf"
			},
			{
				"type": "unocc",
				"energy": 0.05427,
				"method": "rhf"
			}
		],
		"cosmo_sigma_profile": { 
			"-0.025": 0.0,
			"-0.024": 0.0,
			"-0.023": 0.0,
			"-0.022": 0.0,
			"-0.021": 0.0,
			"-0.02": 0.0,
			"-0.019": 0.0,
			"-0.018": 0.0,
			"-0.017": 0.0,
			"-0.016": 0.0,
			"-0.015": 0.334408587146,
			"-0.014": 3.2055650948,
			"-0.013": 3.20119030956,
			"-0.012": 2.99357616164,
			"-0.011": 3.23622014639,
			"-0.01": 3.05923226039,
			"-0.009": 3.59789329338,
			"-0.008": 4.27125249691,
			"-0.007": 5.88788765302,
			"-0.006": 5.10620551795,
			"-0.005": 6.47204293577,
			"-0.004": 7.01825007611,
			"-0.003": 7.35672196422,
			"-0.002": 8.87287713022,
			"-0.001": 9.50452182665,
			"0.0": 14.146842924,
			"0.001": 19.6954648958,
			"0.002": 16.4232276776,
			"0.003": 10.6218570637,
			"0.004": 9.09158006506,
			"0.005": 4.97724059549,
			"0.006": 4.46541628496,
			"0.007": 4.77335991068,
			"0.008": 9.46124176252,
			"0.009": 9.85989335977,
			"0.01": 4.72555700527,
			"0.011": 1.99832993559,
			"0.012": 0.00963583938771,
			"0.013": 0.0,
			"0.014": 0.0,
			"0.015": 0.0,
			"0.016": 0.0,
			"0.017": 0.0,
			"0.018": 0.0,
			"0.019": 0.0,
			"0.02": 0.0,
			"0.021": 0.0,
			"0.022": 0.0,
			"0.023": 0.0,
			"0.024": 0.0,
			"0.025": 0.0
		}
	}
}
