{
	 "smiles": "COC(=O)C1=CC=NC(N)=C1", 
	 "Tm": 420.15, 
	 "num_atms": 19, 
	 "gaussian": { 
		 "optdone": 1, 
		 "sigma_profile": "yes", 
		 "theory": "DFT", 
		 "functional": "B3LYP", 
		 "basiset": "6-31G**", 
		 "properties": { 
			 "R2extent": 3090.7481, 
			 "electric_dipole_moment_norm": 3.23096946597, 
			 "electric_quadrupole_moment_norm": 9.21129729734, 
			 "total_energy": -531.53091515, 
			 "HOMO_LUMO_gap": 0.16406, 
			 "cosmo_polarized_energy": -11.99, 
			 "cosmo_cavitation_energy": 23.77, 
			 "cosmo_dispersion_energy": -17.68, 
			 "cosmo_repulsion_energy": 1.43, 
			 "cosmo_total_nonelectrostatic_energy": 7.52, 
			 "SMD_solvation_energy": 4.42 
		},
		"coords": [
			{
				"x": -1.4662686806,
				"y": 4.9506934509,
				"z": -1.8092654072,
				"element": "C" 
			},
			{
				"x": -1.1313940865,
				"y": 3.6027503224,
				"z": -1.4435701494,
				"element": "O" 
			},
			{
				"x": 0.1597786209,
				"y": 3.4055400214,
				"z": -1.0963583273,
				"element": "C" 
			},
			{
				"x": 0.9906312538,
				"y": 4.2912838511,
				"z": -1.0912089823,
				"element": "O" 
			},
			{
				"x": 0.4420491058,
				"y": 1.9849966018,
				"z": -0.7241212366,
				"element": "C" 
			},
			{
				"x": 1.7492832365,
				"y": 1.6451187146,
				"z": -0.3467661957,
				"element": "C" 
			},
			{
				"x": 1.9962392427,
				"y": 0.3202608173,
				"z": -0.0072563892,
				"element": "C" 
			},
			{
				"x": 1.0691813197,
				"y": -0.6464317456,
				"z": -0.0209322689,
				"element": "N" 
			},
			{
				"x": -0.1812196556,
				"y": -0.3109718673,
				"z": -0.3754776337,
				"element": "C" 
			},
			{
				"x": -1.1221947434,
				"y": -1.3211864165,
				"z": -0.323614797,
				"element": "N" 
			},
			{
				"x": -0.5427413427,
				"y": 1.0031559961,
				"z": -0.7388897787,
				"element": "C" 
			},
			{
				"x": -2.5280827278,
				"y": 4.9339430349,
				"z": -2.0546126302,
				"element": "H" 
			},
			{
				"x": -1.274553526,
				"y": 5.6333636812,
				"z": -0.9777324767,
				"element": "H" 
			},
			{
				"x": -0.8772760239,
				"y": 5.272643816,
				"z": -2.6716847601,
				"element": "H" 
			},
			{
				"x": 2.5261519826,
				"y": 2.3993430874,
				"z": -0.3299218433,
				"element": "H" 
			},
			{
				"x": 2.9961785362,
				"y": 0.0077713543,
				"z": 0.2885523547,
				"element": "H" 
			},
			{
				"x": -1.9374598492,
				"y": -1.229748728,
				"z": -0.9104864402,
				"element": "H" 
			},
			{
				"x": -0.7279953509,
				"y": -2.2501543799,
				"z": -0.2773196218,
				"element": "H" 
			},
			{
				"x": -1.5617073118,
				"y": 1.2451283878,
				"z": -1.0176334165,
				"element": "H" 
			}
		],
		 "valence_orbital": [ 
			{
				"type": "occ",
				"energy": -0.30584,
				"method": "rhf"
			},
			{
				"type": "occ",
				"energy": -0.28253,
				"method": "rhf"
			},
			{
				"type": "occ",
				"energy": -0.27936,
				"method": "rhf"
			},
			{
				"type": "occ",
				"energy": -0.25998,
				"method": "rhf"
			},
			{
				"type": "occ",
				"energy": -0.21795,
				"method": "rhf"
			},
			{
				"type": "unocc",
				"energy": -0.05389,
				"method": "rhf"
			},
			{
				"type": "unocc",
				"energy": 0.00329,
				"method": "rhf"
			},
			{
				"type": "unocc",
				"energy": 0.05704,
				"method": "rhf"
			},
			{
				"type": "unocc",
				"energy": 0.08464,
				"method": "rhf"
			},
			{
				"type": "unocc",
				"energy": 0.10567,
				"method": "rhf"
			}
		],
		"cosmo_sigma_profile": { 
			"-0.025": 0.0,
			"-0.024": 0.0,
			"-0.023": 0.0,
			"-0.022": 0.0,
			"-0.021": 0.0,
			"-0.02": 0.0,
			"-0.019": 0.0,
			"-0.018": 0.0,
			"-0.017": 0.0,
			"-0.016": 0.0,
			"-0.015": 0.0,
			"-0.014": 0.345862147543,
			"-0.013": 1.83283122643,
			"-0.012": 2.61503507704,
			"-0.011": 2.3869686908,
			"-0.01": 2.29159568621,
			"-0.009": 3.00543380845,
			"-0.008": 2.48530680661,
			"-0.007": 3.70240508157,
			"-0.006": 10.2705013711,
			"-0.005": 12.0503366235,
			"-0.004": 15.206303798,
			"-0.003": 14.9909554329,
			"-0.002": 10.2404480215,
			"-0.001": 9.42815451955,
			"0.0": 10.2580683174,
			"0.001": 14.5871047906,
			"0.002": 17.383184275,
			"0.003": 11.3010010109,
			"0.004": 7.11719676203,
			"0.005": 7.27590281758,
			"0.006": 4.58581068047,
			"0.007": 3.02602929854,
			"0.008": 3.57579779379,
			"0.009": 3.40589601571,
			"0.01": 3.55796281372,
			"0.011": 6.12359325103,
			"0.012": 3.90852217104,
			"0.013": 0.602078588989,
			"0.014": 0.822450878497,
			"0.015": 0.801124300482,
			"0.016": 0.102708399033,
			"0.017": 0.0,
			"0.018": 0.0,
			"0.019": 0.0,
			"0.02": 0.0,
			"0.021": 0.0,
			"0.022": 0.0,
			"0.023": 0.0,
			"0.024": 0.0,
			"0.025": 0.0
		}
	}
}
