{
	 "smiles": "OC1=C(Br)C=C(Cl)C=C1", 
	 "Tm": 306.15, 
	 "num_atms": 13, 
	 "gaussian": { 
		 "optdone": 1, 
		 "sigma_profile": "yes", 
		 "theory": "DFT", 
		 "functional": "B3LYP", 
		 "basiset": "6-31G**", 
		 "properties": { 
			 "R2extent": 4438.7313, 
			 "electric_dipole_moment_norm": 1.07685038422, 
			 "electric_quadrupole_moment_norm": 4.65234053246, 
			 "total_energy": -3337.8663096, 
			 "HOMO_LUMO_gap": 0.20374, 
			 "cosmo_polarized_energy": -5.43, 
			 "cosmo_cavitation_energy": 21.32, 
			 "cosmo_dispersion_energy": -16.7, 
			 "cosmo_repulsion_energy": 1.36, 
			 "cosmo_total_nonelectrostatic_energy": 5.98, 
			 "SMD_solvation_energy": 2.68 
		},
		"coords": [
			{
				"x": 1.3539587175,
				"y": 1.4240328885,
				"z": -4.5619140364,
				"element": "O" 
			},
			{
				"x": 1.1191662057,
				"y": 0.9637453336,
				"z": -3.3111715843,
				"element": "C" 
			},
			{
				"x": -0.0790714514,
				"y": 1.1781597714,
				"z": -2.6135625477,
				"element": "C" 
			},
			{
				"x": -1.4676183515,
				"y": 2.1792202792,
				"z": -3.474075511,
				"element": "Br" 
			},
			{
				"x": -0.2780175827,
				"y": 0.6857395771,
				"z": -1.3267043701,
				"element": "C" 
			},
			{
				"x": 0.7459908124,
				"y": -0.0389952729,
				"z": -0.7218482717,
				"element": "C" 
			},
			{
				"x": 0.5115464286,
				"y": -0.6674146702,
				"z": 0.901496572,
				"element": "Cl" 
			},
			{
				"x": 1.9500722165,
				"y": -0.2692096751,
				"z": -1.3900840256,
				"element": "C" 
			},
			{
				"x": 2.1296546502,
				"y": 0.2308129966,
				"z": -2.6749242187,
				"element": "C" 
			},
			{
				"x": 0.5707029245,
				"y": 1.908492649,
				"z": -4.869587331,
				"element": "H" 
			},
			{
				"x": -1.2121497651,
				"y": 0.8646560384,
				"z": -0.8090369561,
				"element": "H" 
			},
			{
				"x": 2.7388356256,
				"y": -0.835018811,
				"z": -0.9074349545,
				"element": "H" 
			},
			{
				"x": 3.0562295697,
				"y": 0.0648788954,
				"z": -3.214052765,
				"element": "H" 
			}
		],
		 "valence_orbital": [ 
			{
				"type": "occ",
				"energy": -0.32015,
				"method": "rhf"
			},
			{
				"type": "occ",
				"energy": -0.31385,
				"method": "rhf"
			},
			{
				"type": "occ",
				"energy": -0.31311,
				"method": "rhf"
			},
			{
				"type": "occ",
				"energy": -0.26537,
				"method": "rhf"
			},
			{
				"type": "occ",
				"energy": -0.23238,
				"method": "rhf"
			},
			{
				"type": "unocc",
				"energy": -0.02864,
				"method": "rhf"
			},
			{
				"type": "unocc",
				"energy": -0.01903,
				"method": "rhf"
			},
			{
				"type": "unocc",
				"energy": -0.01156,
				"method": "rhf"
			},
			{
				"type": "unocc",
				"energy": 0.03763,
				"method": "rhf"
			},
			{
				"type": "unocc",
				"energy": 0.08223,
				"method": "rhf"
			}
		],
		"cosmo_sigma_profile": { 
			"-0.025": 0.0,
			"-0.024": 0.0,
			"-0.023": 0.0,
			"-0.022": 0.0,
			"-0.021": 0.0,
			"-0.02": 0.0,
			"-0.019": 0.0,
			"-0.018": 0.0,
			"-0.017": 0.0,
			"-0.016": 0.0,
			"-0.015": 0.163374048403,
			"-0.014": 0.779981574604,
			"-0.013": 0.411038144092,
			"-0.012": 0.842574496003,
			"-0.011": 0.836592081508,
			"-0.01": 0.726610772901,
			"-0.009": 1.13462282933,
			"-0.008": 3.69003518449,
			"-0.007": 6.67234101471,
			"-0.006": 6.87603823772,
			"-0.005": 6.47511126767,
			"-0.004": 7.39000164474,
			"-0.003": 7.53702407729,
			"-0.002": 11.2305504262,
			"-0.001": 11.7716088096,
			"0.0": 14.2566504422,
			"0.001": 21.7997420704,
			"0.002": 26.5862014343,
			"0.003": 19.2813981191,
			"0.004": 13.7527308777,
			"0.005": 6.84761445474,
			"0.006": 1.60444801029,
			"0.007": 1.20678436718,
			"0.008": 1.5709680647,
			"0.009": 1.28015241906,
			"0.01": 1.95034405944,
			"0.011": 0.322049455692,
			"0.012": 0.0,
			"0.013": 0.0,
			"0.014": 0.0,
			"0.015": 0.0,
			"0.016": 0.0,
			"0.017": 0.0,
			"0.018": 0.0,
			"0.019": 0.0,
			"0.02": 0.0,
			"0.021": 0.0,
			"0.022": 0.0,
			"0.023": 0.0,
			"0.024": 0.0,
			"0.025": 0.0
		}
	}
}
