{
	 "smiles": "CC(C)(C)C1CCCCC(=O)N1", 
	 "Tm": 400.15, 
	 "num_atms": 31, 
	 "gaussian": { 
		 "optdone": 1, 
		 "sigma_profile": "yes", 
		 "theory": "DFT", 
		 "functional": "B3LYP", 
		 "basiset": "6-31G**", 
		 "properties": { 
			 "R2extent": 2414.7781, 
			 "electric_dipole_moment_norm": 3.99351954046, 
			 "electric_quadrupole_moment_norm": 10.8432848169, 
			 "total_energy": -522.519180485, 
			 "HOMO_LUMO_gap": 0.26508, 
			 "cosmo_polarized_energy": -10.39, 
			 "cosmo_cavitation_energy": 29.2, 
			 "cosmo_dispersion_energy": -21.04, 
			 "cosmo_repulsion_energy": 1.65, 
			 "cosmo_total_nonelectrostatic_energy": 9.8, 
			 "SMD_solvation_energy": 4.91 
		},
		"coords": [
			{
				"x": -2.6264438367,
				"y": 0.6103369894,
				"z": 1.0871245439,
				"element": "C" 
			},
			{
				"x": -1.7253507972,
				"y": -0.5942107645,
				"z": 0.7322079859,
				"element": "C" 
			},
			{
				"x": -2.4776682814,
				"y": -1.8862890878,
				"z": 1.1091742356,
				"element": "C" 
			},
			{
				"x": -0.4437913312,
				"y": -0.4869823079,
				"z": 1.5788408323,
				"element": "C" 
			},
			{
				"x": -1.4807989984,
				"y": -0.5595649361,
				"z": -0.8259900027,
				"element": "C" 
			},
			{
				"x": -0.9654357544,
				"y": -1.8378588053,
				"z": -1.5266693531,
				"element": "C" 
			},
			{
				"x": 0.4843380484,
				"y": -2.3020646787,
				"z": -1.3336857201,
				"element": "C" 
			},
			{
				"x": 1.534701833,
				"y": -1.3542664228,
				"z": -1.9207948866,
				"element": "C" 
			},
			{
				"x": 1.6384502912,
				"y": 0.0090271715,
				"z": -1.2214913515,
				"element": "C" 
			},
			{
				"x": 0.5178308048,
				"y": 1.0136954419,
				"z": -1.4744909085,
				"element": "C" 
			},
			{
				"x": 0.7817532192,
				"y": 2.1550340975,
				"z": -1.8427238356,
				"element": "O" 
			},
			{
				"x": -0.7984098268,
				"y": 0.6601376639,
				"z": -1.2822572217,
				"element": "N" 
			},
			{
				"x": -2.852480054,
				"y": 0.6176851095,
				"z": 2.158591053,
				"element": "H" 
			},
			{
				"x": -2.1390542015,
				"y": 1.5604494653,
				"z": 0.8474009257,
				"element": "H" 
			},
			{
				"x": -3.5806672952,
				"y": 0.569712813,
				"z": 0.548082147,
				"element": "H" 
			},
			{
				"x": -3.3754145328,
				"y": -2.0248481354,
				"z": 0.4947933504,
				"element": "H" 
			},
			{
				"x": -1.8509782473,
				"y": -2.7765304345,
				"z": 0.9978503802,
				"element": "H" 
			},
			{
				"x": -2.8001862413,
				"y": -1.8427222115,
				"z": 2.1550277485,
				"element": "H" 
			},
			{
				"x": -0.7059246374,
				"y": -0.460592119,
				"z": 2.6424869332,
				"element": "H" 
			},
			{
				"x": 0.2282782682,
				"y": -1.3366436411,
				"z": 1.4328205383,
				"element": "H" 
			},
			{
				"x": 0.1051256475,
				"y": 0.4325485503,
				"z": 1.3569574733,
				"element": "H" 
			},
			{
				"x": -2.4939929418,
				"y": -0.449761426,
				"z": -1.2354746114,
				"element": "H" 
			},
			{
				"x": -1.6374160997,
				"y": -2.6555264885,
				"z": -1.247650674,
				"element": "H" 
			},
			{
				"x": -1.1227258672,
				"y": -1.6760083864,
				"z": -2.6013636598,
				"element": "H" 
			},
			{
				"x": 0.7012743421,
				"y": -2.4803481287,
				"z": -0.2736880944,
				"element": "H" 
			},
			{
				"x": 0.5831404762,
				"y": -3.2778565084,
				"z": -1.826194195,
				"element": "H" 
			},
			{
				"x": 2.5174950489,
				"y": -1.8365852189,
				"z": -1.8565557855,
				"element": "H" 
			},
			{
				"x": 1.337637185,
				"y": -1.2043241263,
				"z": -2.9907810025,
				"element": "H" 
			},
			{
				"x": 2.5406176769,
				"y": 0.5298419012,
				"z": -1.5493941468,
				"element": "H" 
			},
			{
				"x": 1.7371373536,
				"y": -0.1454615928,
				"z": -0.1401839437,
				"element": "H" 
			},
			{
				"x": -1.3958412509,
				"y": 1.4553762169,
				"z": -1.4681687544,
				"element": "H" 
			}
		],
		 "valence_orbital": [ 
			{
				"type": "occ",
				"energy": -0.32404,
				"method": "rhf"
			},
			{
				"type": "occ",
				"energy": -0.31832,
				"method": "rhf"
			},
			{
				"type": "occ",
				"energy": -0.31059,
				"method": "rhf"
			},
			{
				"type": "occ",
				"energy": -0.23783,
				"method": "rhf"
			},
			{
				"type": "occ",
				"energy": -0.23258,
				"method": "rhf"
			},
			{
				"type": "unocc",
				"energy": 0.0325,
				"method": "rhf"
			},
			{
				"type": "unocc",
				"energy": 0.05622,
				"method": "rhf"
			},
			{
				"type": "unocc",
				"energy": 0.09413,
				"method": "rhf"
			},
			{
				"type": "unocc",
				"energy": 0.10211,
				"method": "rhf"
			},
			{
				"type": "unocc",
				"energy": 0.11512,
				"method": "rhf"
			}
		],
		"cosmo_sigma_profile": { 
			"-0.025": 0.0,
			"-0.024": 0.0,
			"-0.023": 0.0,
			"-0.022": 0.0,
			"-0.021": 0.0,
			"-0.02": 0.0,
			"-0.019": 0.0,
			"-0.018": 0.0,
			"-0.017": 0.0,
			"-0.016": 0.0,
			"-0.015": 0.0,
			"-0.014": 0.0,
			"-0.013": 0.0,
			"-0.012": 0.264236257938,
			"-0.011": 1.08671357752,
			"-0.01": 0.828605707654,
			"-0.009": 0.780422441806,
			"-0.008": 0.86172775125,
			"-0.007": 1.52098767911,
			"-0.006": 2.00155393347,
			"-0.005": 2.54326033478,
			"-0.004": 11.4348738922,
			"-0.003": 29.4555716892,
			"-0.002": 44.961784155,
			"-0.001": 35.8532255757,
			"0.0": 28.3978710204,
			"0.001": 25.5198133979,
			"0.002": 11.2059696739,
			"0.003": 2.15630993066,
			"0.004": 2.26337661674,
			"0.005": 1.11805518971,
			"0.006": 1.39864487747,
			"0.007": 1.1617385343,
			"0.008": 1.18116555299,
			"0.009": 1.66090048504,
			"0.01": 1.06649239899,
			"0.011": 1.37269748141,
			"0.012": 1.2624842551,
			"0.013": 2.14680707327,
			"0.014": 4.77666206876,
			"0.015": 4.89314018937,
			"0.016": 0.777524229431,
			"0.017": 0.0,
			"0.018": 0.0,
			"0.019": 0.0,
			"0.02": 0.0,
			"0.021": 0.0,
			"0.022": 0.0,
			"0.023": 0.0,
			"0.024": 0.0,
			"0.025": 0.0
		}
	}
}
