{
	 "smiles": "COC1=C(C=CC=C1)C(O)C1=NC=CC=C1", 
	 "Tm": 331.15, 
	 "num_atms": 29, 
	 "gaussian": { 
		 "optdone": 1, 
		 "sigma_profile": "yes", 
		 "theory": "DFT", 
		 "functional": "B3LYP", 
		 "basiset": "6-31G**", 
		 "properties": { 
			 "R2extent": 3663.1966, 
			 "electric_dipole_moment_norm": 1.33212910035, 
			 "electric_quadrupole_moment_norm": 5.63119567499, 
			 "total_energy": -708.392039885, 
			 "HOMO_LUMO_gap": 0.20799, 
			 "cosmo_polarized_energy": -10.23, 
			 "cosmo_cavitation_energy": 32.34, 
			 "cosmo_dispersion_energy": -22.84, 
			 "cosmo_repulsion_energy": 1.78, 
			 "cosmo_total_nonelectrostatic_energy": 11.29, 
			 "SMD_solvation_energy": 5.75 
		},
		"coords": [
			{
				"x": 1.9798232427,
				"y": 0.5962298652,
				"z": 1.8171782366,
				"element": "C" 
			},
			{
				"x": 1.7296776267,
				"y": -0.7641686937,
				"z": 1.4402384606,
				"element": "O" 
			},
			{
				"x": 1.7394609323,
				"y": -1.0031247328,
				"z": 0.0823990348,
				"element": "C" 
			},
			{
				"x": 0.5296950973,
				"y": -1.1850423569,
				"z": -0.6062939917,
				"element": "C" 
			},
			{
				"x": 0.5764910919,
				"y": -1.5076186916,
				"z": -1.9695587449,
				"element": "C" 
			},
			{
				"x": 1.7909819028,
				"y": -1.6282114735,
				"z": -2.6410454634,
				"element": "C" 
			},
			{
				"x": 2.9884997218,
				"y": -1.4367079925,
				"z": -1.9460783661,
				"element": "C" 
			},
			{
				"x": 2.9620119357,
				"y": -1.1293295227,
				"z": -0.5876701956,
				"element": "C" 
			},
			{
				"x": -0.8130596554,
				"y": -1.0773804869,
				"z": 0.1064512636,
				"element": "C" 
			},
			{
				"x": -1.6586977685,
				"y": -2.1826198472,
				"z": -0.2130277982,
				"element": "O" 
			},
			{
				"x": -1.5593682585,
				"y": 0.1953628316,
				"z": -0.2754052868,
				"element": "C" 
			},
			{
				"x": -1.005082897,
				"y": 1.3418171172,
				"z": 0.1482757701,
				"element": "N" 
			},
			{
				"x": -1.6153924463,
				"y": 2.4891128233,
				"z": -0.165951511,
				"element": "C" 
			},
			{
				"x": -2.7955267279,
				"y": 2.558582962,
				"z": -0.9070401304,
				"element": "C" 
			},
			{
				"x": -3.3681637776,
				"y": 1.3632408866,
				"z": -1.3381037162,
				"element": "C" 
			},
			{
				"x": -2.7438023532,
				"y": 0.1584582034,
				"z": -1.0180781717,
				"element": "C" 
			},
			{
				"x": 1.1901453488,
				"y": 1.2489954996,
				"z": 1.4302403622,
				"element": "H" 
			},
			{
				"x": 2.9576000257,
				"y": 0.9353204234,
				"z": 1.450905282,
				"element": "H" 
			},
			{
				"x": 1.9820081056,
				"y": 0.6145475983,
				"z": 2.9093093231,
				"element": "H" 
			},
			{
				"x": -0.359319872,
				"y": -1.6674659626,
				"z": -2.4974237847,
				"element": "H" 
			},
			{
				"x": 1.8054408465,
				"y": -1.8751374977,
				"z": -3.6985426785,
				"element": "H" 
			},
			{
				"x": 3.9410240567,
				"y": -1.5366209977,
				"z": -2.4587905433,
				"element": "H" 
			},
			{
				"x": 3.8816372738,
				"y": -1.0033162748,
				"z": -0.0241351661,
				"element": "H" 
			},
			{
				"x": -0.6193106216,
				"y": -1.0311073666,
				"z": 1.1851358304,
				"element": "H" 
			},
			{
				"x": -1.1440288474,
				"y": -2.9861974536,
				"z": -0.0664775877,
				"element": "H" 
			},
			{
				"x": -1.1380412924,
				"y": 3.39875296,
				"z": 0.1950440258,
				"element": "H" 
			},
			{
				"x": -3.2480397021,
				"y": 3.5190884995,
				"z": -1.1321492385,
				"element": "H" 
			},
			{
				"x": -4.2898766638,
				"y": 1.366532299,
				"z": -1.9135471051,
				"element": "H" 
			},
			{
				"x": -3.1555863249,
				"y": -0.7961926185,
				"z": -1.3200581093,
				"element": "H" 
			}
		],
		 "valence_orbital": [ 
			{
				"type": "occ",
				"energy": -0.26744,
				"method": "rhf"
			},
			{
				"type": "occ",
				"energy": -0.25354,
				"method": "rhf"
			},
			{
				"type": "occ",
				"energy": -0.25003,
				"method": "rhf"
			},
			{
				"type": "occ",
				"energy": -0.24083,
				"method": "rhf"
			},
			{
				"type": "occ",
				"energy": -0.2311,
				"method": "rhf"
			},
			{
				"type": "unocc",
				"energy": -0.02311,
				"method": "rhf"
			},
			{
				"type": "unocc",
				"energy": -0.01217,
				"method": "rhf"
			},
			{
				"type": "unocc",
				"energy": 0.00016,
				"method": "rhf"
			},
			{
				"type": "unocc",
				"energy": 0.00959,
				"method": "rhf"
			},
			{
				"type": "unocc",
				"energy": 0.09167,
				"method": "rhf"
			}
		],
		"cosmo_sigma_profile": { 
			"-0.025": 0.0,
			"-0.024": 0.0,
			"-0.023": 0.0,
			"-0.022": 0.0,
			"-0.021": 0.0,
			"-0.02": 0.0,
			"-0.019": 0.0,
			"-0.018": 0.0,
			"-0.017": 0.0,
			"-0.016": 0.33738542768,
			"-0.015": 1.00187850586,
			"-0.014": 0.738252971827,
			"-0.013": 0.850065297001,
			"-0.012": 0.690083703278,
			"-0.011": 0.900129408746,
			"-0.01": 1.27006434969,
			"-0.009": 0.427277302176,
			"-0.008": 0.367648505833,
			"-0.007": 4.12907205509,
			"-0.006": 11.8027614859,
			"-0.005": 19.5472662185,
			"-0.004": 21.7600848971,
			"-0.003": 20.8552133437,
			"-0.002": 20.4307265015,
			"-0.001": 17.2519062945,
			"0.0": 16.5307351358,
			"0.001": 16.5752611954,
			"0.002": 20.8455924098,
			"0.003": 23.6523048628,
			"0.004": 15.3874182526,
			"0.005": 14.6814155398,
			"0.006": 8.45241871633,
			"0.007": 5.82193796811,
			"0.008": 3.97710264228,
			"0.009": 2.74024954687,
			"0.01": 2.7093305489,
			"0.011": 1.84195531135,
			"0.012": 1.7303267897,
			"0.013": 0.425769324821,
			"0.014": 0.0,
			"0.015": 0.0,
			"0.016": 0.0,
			"0.017": 0.0,
			"0.018": 0.0,
			"0.019": 0.0,
			"0.02": 0.0,
			"0.021": 0.0,
			"0.022": 0.0,
			"0.023": 0.0,
			"0.024": 0.0,
			"0.025": 0.0
		}
	}
}
