{
	 "smiles": "OC1=CC=CC=C1CNCC1=C(O)C=CC=C1", 
	 "Tm": 435.15, 
	 "num_atms": 32, 
	 "gaussian": { 
		 "optdone": 1, 
		 "sigma_profile": "yes", 
		 "theory": "DFT", 
		 "functional": "B3LYP", 
		 "basiset": "6-31G**", 
		 "properties": { 
			 "R2extent": 3875.0687, 
			 "electric_dipole_moment_norm": 3.63011192252, 
			 "electric_quadrupole_moment_norm": 10.7561474948, 
			 "total_energy": -747.725395761, 
			 "HOMO_LUMO_gap": 0.20093, 
			 "cosmo_polarized_energy": -15.74, 
			 "cosmo_cavitation_energy": 34.16, 
			 "cosmo_dispersion_energy": -23.4, 
			 "cosmo_repulsion_energy": 1.81, 
			 "cosmo_total_nonelectrostatic_energy": 12.58, 
			 "SMD_solvation_energy": 5.66 
		},
		"coords": [
			{
				"x": 1.0534872591,
				"y": -2.1947659349,
				"z": -1.0109115244,
				"element": "O" 
			},
			{
				"x": 1.9439329816,
				"y": -1.1642176458,
				"z": -0.9668243508,
				"element": "C" 
			},
			{
				"x": 3.1944247245,
				"y": -1.3955646139,
				"z": -0.3870229394,
				"element": "C" 
			},
			{
				"x": 4.1372833488,
				"y": -0.3710192498,
				"z": -0.3368757743,
				"element": "C" 
			},
			{
				"x": 3.8396643055,
				"y": 0.8913773633,
				"z": -0.8555648014,
				"element": "C" 
			},
			{
				"x": 2.5910157607,
				"y": 1.1128288556,
				"z": -1.4365994377,
				"element": "C" 
			},
			{
				"x": 1.6319955053,
				"y": 0.0976088291,
				"z": -1.50976089,
				"element": "C" 
			},
			{
				"x": 0.3289549161,
				"y": 0.3045653308,
				"z": -2.2454287236,
				"element": "C" 
			},
			{
				"x": -0.8897213643,
				"y": -0.028730532,
				"z": -1.4604659116,
				"element": "N" 
			},
			{
				"x": -1.2150308047,
				"y": 0.9540326111,
				"z": -0.3882283201,
				"element": "C" 
			},
			{
				"x": -0.6610483614,
				"y": 0.5864492994,
				"z": 0.9699091943,
				"element": "C" 
			},
			{
				"x": -0.9650064868,
				"y": -0.6707340653,
				"z": 1.5287205714,
				"element": "C" 
			},
			{
				"x": -1.6897539433,
				"y": -1.5995189846,
				"z": 0.8353877268,
				"element": "O" 
			},
			{
				"x": -0.5522803047,
				"y": -0.9896339813,
				"z": 2.8247053746,
				"element": "C" 
			},
			{
				"x": 0.1691339489,
				"y": -0.0598466367,
				"z": 3.5710958964,
				"element": "C" 
			},
			{
				"x": 0.4922290187,
				"y": 1.185796505,
				"z": 3.0280060186,
				"element": "C" 
			},
			{
				"x": 0.0755639522,
				"y": 1.4963379726,
				"z": 1.7336062202,
				"element": "C" 
			},
			{
				"x": 0.1675045555,
				"y": -1.8128362645,
				"z": -1.136673746,
				"element": "H" 
			},
			{
				"x": 3.4006268119,
				"y": -2.3791882751,
				"z": 0.0219902349,
				"element": "H" 
			},
			{
				"x": 5.1059133386,
				"y": -0.5583806859,
				"z": 0.1179917721,
				"element": "H" 
			},
			{
				"x": 4.5710732438,
				"y": 1.6921985832,
				"z": -0.8106358049,
				"element": "H" 
			},
			{
				"x": 2.3541531297,
				"y": 2.0888300204,
				"z": -1.8547933055,
				"element": "H" 
			},
			{
				"x": 0.2838688272,
				"y": 1.3427337341,
				"z": -2.6089042773,
				"element": "H" 
			},
			{
				"x": 0.3042747697,
				"y": -0.3469704287,
				"z": -3.1296551381,
				"element": "H" 
			},
			{
				"x": -1.6646042879,
				"y": -0.0365468101,
				"z": -2.1201996892,
				"element": "H" 
			},
			{
				"x": -0.8792126333,
				"y": 1.9632011209,
				"z": -0.6661996605,
				"element": "H" 
			},
			{
				"x": -2.3110811795,
				"y": 0.9904063028,
				"z": -0.325934908,
				"element": "H" 
			},
			{
				"x": -1.624992463,
				"y": -1.3674674915,
				"z": -0.1076822499,
				"element": "H" 
			},
			{
				"x": -0.802623676,
				"y": -1.967728936,
				"z": 3.2223184542,
				"element": "H" 
			},
			{
				"x": 0.4887326025,
				"y": -0.3149111184,
				"z": 4.5775878968,
				"element": "H" 
			},
			{
				"x": 1.0634410349,
				"y": 1.9064417802,
				"z": 3.6047601808,
				"element": "H" 
			},
			{
				"x": 0.3205814697,
				"y": 2.4645533461,
				"z": 1.3032819117,
				"element": "H" 
			}
		],
		 "valence_orbital": [ 
			{
				"type": "occ",
				"energy": -0.26908,
				"method": "rhf"
			},
			{
				"type": "occ",
				"energy": -0.24899,
				"method": "rhf"
			},
			{
				"type": "occ",
				"energy": -0.23691,
				"method": "rhf"
			},
			{
				"type": "occ",
				"energy": -0.21631,
				"method": "rhf"
			},
			{
				"type": "occ",
				"energy": -0.20911,
				"method": "rhf"
			},
			{
				"type": "unocc",
				"energy": -0.00818,
				"method": "rhf"
			},
			{
				"type": "unocc",
				"energy": 0.00896,
				"method": "rhf"
			},
			{
				"type": "unocc",
				"energy": 0.01302,
				"method": "rhf"
			},
			{
				"type": "unocc",
				"energy": 0.02085,
				"method": "rhf"
			},
			{
				"type": "unocc",
				"energy": 0.06297,
				"method": "rhf"
			}
		],
		"cosmo_sigma_profile": { 
			"-0.025": 0.0,
			"-0.024": 0.0,
			"-0.023": 0.0,
			"-0.022": 0.0,
			"-0.021": 0.0,
			"-0.02": 0.0,
			"-0.019": 0.0,
			"-0.018": 0.0,
			"-0.017": 0.0,
			"-0.016": 0.0,
			"-0.015": 0.0,
			"-0.014": 0.0,
			"-0.013": 0.0712443065851,
			"-0.012": 1.51917343871,
			"-0.011": 2.75920811335,
			"-0.01": 3.70646960316,
			"-0.009": 2.85904353256,
			"-0.008": 3.32811806108,
			"-0.007": 4.24361826585,
			"-0.006": 11.38025017,
			"-0.005": 25.7107456574,
			"-0.004": 26.0472891147,
			"-0.003": 24.2495842562,
			"-0.002": 17.9075643798,
			"-0.001": 13.8780925038,
			"0.0": 12.5314298447,
			"0.001": 11.0887699632,
			"0.002": 12.7792026556,
			"0.003": 13.2196999583,
			"0.004": 18.6261369455,
			"0.005": 21.1442829922,
			"0.006": 20.4768449398,
			"0.007": 7.67847972735,
			"0.008": 2.78646596644,
			"0.009": 2.70398686702,
			"0.01": 2.66080341737,
			"0.011": 3.75065275196,
			"0.012": 3.27206496485,
			"0.013": 0.447068509492,
			"0.014": 0.0,
			"0.015": 0.0,
			"0.016": 0.0,
			"0.017": 0.0,
			"0.018": 0.0,
			"0.019": 0.0,
			"0.02": 0.0,
			"0.021": 0.0,
			"0.022": 0.0,
			"0.023": 0.0,
			"0.024": 0.0,
			"0.025": 0.0
		}
	}
}
