{
	 "smiles": "CC1(C)CC(=O)CC(C)(C)N1C(=O)CCl", 
	 "Tm": 341.15, 
	 "num_atms": 33, 
	 "gaussian": { 
		 "optdone": 1, 
		 "sigma_profile": "yes", 
		 "theory": "DFT", 
		 "functional": "B3LYP", 
		 "basiset": "6-31G**", 
		 "properties": { 
			 "R2extent": 4007.3361, 
			 "electric_dipole_moment_norm": 2.48630956439, 
			 "electric_quadrupole_moment_norm": 20.567524811, 
			 "total_energy": -1095.41143637, 
			 "HOMO_LUMO_gap": 0.22029, 
			 "cosmo_polarized_energy": -15.95, 
			 "cosmo_cavitation_energy": 33.21, 
			 "cosmo_dispersion_energy": -23.33, 
			 "cosmo_repulsion_energy": 1.78, 
			 "cosmo_total_nonelectrostatic_energy": 11.66, 
			 "SMD_solvation_energy": 6.34 
		},
		"coords": [
			{
				"x": -0.94269134,
				"y": -1.0797188704,
				"z": 2.0367586887,
				"element": "C" 
			},
			{
				"x": -1.260104355,
				"y": -0.5758567348,
				"z": 0.6108669749,
				"element": "C" 
			},
			{
				"x": -2.7709935094,
				"y": -0.2809510825,
				"z": 0.4920869496,
				"element": "C" 
			},
			{
				"x": -0.8633284978,
				"y": -1.7271741792,
				"z": -0.3390732919,
				"element": "C" 
			},
			{
				"x": -0.9216854101,
				"y": -1.3912518401,
				"z": -1.8110776313,
				"element": "C" 
			},
			{
				"x": -1.0988866349,
				"y": -2.2272010086,
				"z": -2.6755020102,
				"element": "O" 
			},
			{
				"x": -0.7384462561,
				"y": 0.0773042394,
				"z": -2.1230893848,
				"element": "C" 
			},
			{
				"x": 0.124630036,
				"y": 0.8669358541,
				"z": -1.1061782213,
				"element": "C" 
			},
			{
				"x": 0.0017636193,
				"y": 2.3428955184,
				"z": -1.5518073032,
				"element": "C" 
			},
			{
				"x": 1.5900695244,
				"y": 0.3902697396,
				"z": -1.2216702484,
				"element": "C" 
			},
			{
				"x": -0.4231099115,
				"y": 0.6493983234,
				"z": 0.2885840662,
				"element": "N" 
			},
			{
				"x": -0.4028747949,
				"y": 1.6382325318,
				"z": 1.2598910646,
				"element": "C" 
			},
			{
				"x": -1.2439491611,
				"y": 1.7319856869,
				"z": 2.144000666,
				"element": "O" 
			},
			{
				"x": 0.8327705757,
				"y": 2.5445277997,
				"z": 1.3774486681,
				"element": "C" 
			},
			{
				"x": 0.4026764078,
				"y": 4.2995041965,
				"z": 1.4171228413,
				"element": "Cl" 
			},
			{
				"x": 0.1376400315,
				"y": -1.2043858085,
				"z": 2.1664797614,
				"element": "H" 
			},
			{
				"x": -1.4126661891,
				"y": -2.0581990026,
				"z": 2.1766488621,
				"element": "H" 
			},
			{
				"x": -1.3150145041,
				"y": -0.4048719371,
				"z": 2.804318002,
				"element": "H" 
			},
			{
				"x": -3.0617146727,
				"y": -0.00538906,
				"z": -0.5254821831,
				"element": "H" 
			},
			{
				"x": -3.343530414,
				"y": -1.1728884646,
				"z": 0.7687302213,
				"element": "H" 
			},
			{
				"x": -3.0425476226,
				"y": 0.5323573886,
				"z": 1.1645258102,
				"element": "H" 
			},
			{
				"x": 0.163283804,
				"y": -2.050116336,
				"z": -0.11819985,
				"element": "H" 
			},
			{
				"x": -1.5034684441,
				"y": -2.5939393109,
				"z": -0.1531690283,
				"element": "H" 
			},
			{
				"x": -0.3028464853,
				"y": 0.1685486013,
				"z": -3.1218403827,
				"element": "H" 
			},
			{
				"x": -1.7375531915,
				"y": 0.5281280458,
				"z": -2.1768222959,
				"element": "H" 
			},
			{
				"x": 0.7222286166,
				"y": 3.0160665971,
				"z": -1.0899131904,
				"element": "H" 
			},
			{
				"x": 0.167630157,
				"y": 2.396619117,
				"z": -2.6320123535,
				"element": "H" 
			},
			{
				"x": -1.0014264334,
				"y": 2.7267157318,
				"z": -1.3457767796,
				"element": "H" 
			},
			{
				"x": 1.6871611013,
				"y": -0.6793953632,
				"z": -1.0191640761,
				"element": "H" 
			},
			{
				"x": 1.9656120142,
				"y": 0.5739549917,
				"z": -2.2335641746,
				"element": "H" 
			},
			{
				"x": 2.2473944239,
				"y": 0.9146790371,
				"z": -0.5240795725,
				"element": "H" 
			},
			{
				"x": 1.2671987127,
				"y": 2.31677147,
				"z": 2.3526570897,
				"element": "H" 
			},
			{
				"x": 1.5905788031,
				"y": 2.4123441283,
				"z": 0.6134023118,
				"element": "H" 
			}
		],
		 "valence_orbital": [ 
			{
				"type": "occ",
				"energy": -0.30636,
				"method": "rhf"
			},
			{
				"type": "occ",
				"energy": -0.30023,
				"method": "rhf"
			},
			{
				"type": "occ",
				"energy": -0.26064,
				"method": "rhf"
			},
			{
				"type": "occ",
				"energy": -0.25262,
				"method": "rhf"
			},
			{
				"type": "occ",
				"energy": -0.24894,
				"method": "rhf"
			},
			{
				"type": "unocc",
				"energy": -0.02865,
				"method": "rhf"
			},
			{
				"type": "unocc",
				"energy": -0.02208,
				"method": "rhf"
			},
			{
				"type": "unocc",
				"energy": 0.03306,
				"method": "rhf"
			},
			{
				"type": "unocc",
				"energy": 0.05741,
				"method": "rhf"
			},
			{
				"type": "unocc",
				"energy": 0.07615,
				"method": "rhf"
			}
		],
		"cosmo_sigma_profile": { 
			"-0.025": 0.0,
			"-0.024": 0.0,
			"-0.023": 0.0,
			"-0.022": 0.0,
			"-0.021": 0.0,
			"-0.02": 0.0,
			"-0.019": 0.0,
			"-0.018": 0.0,
			"-0.017": 0.0,
			"-0.016": 0.0,
			"-0.015": 0.0,
			"-0.014": 0.0,
			"-0.013": 0.0,
			"-0.012": 0.0,
			"-0.011": 0.0,
			"-0.01": 0.00287215541482,
			"-0.009": 2.15167889112,
			"-0.008": 5.64574031424,
			"-0.007": 8.19662367039,
			"-0.006": 14.734116237,
			"-0.005": 19.2777902816,
			"-0.004": 24.4612304982,
			"-0.003": 22.5605183201,
			"-0.002": 23.0636785799,
			"-0.001": 23.7442633796,
			"0.0": 23.6340088385,
			"0.001": 17.6850228818,
			"0.002": 7.66450166059,
			"0.003": 7.41652996904,
			"0.004": 8.08005465811,
			"0.005": 10.1577341319,
			"0.006": 8.39679532458,
			"0.007": 4.59506661865,
			"0.008": 3.74488126734,
			"0.009": 2.63277611023,
			"0.01": 4.83703271478,
			"0.011": 4.95684261147,
			"0.012": 7.00186929076,
			"0.013": 4.86878141357,
			"0.014": 1.12538299401,
			"0.015": 0.00256212810631,
			"0.016": 0.0,
			"0.017": 0.0,
			"0.018": 0.0,
			"0.019": 0.0,
			"0.02": 0.0,
			"0.021": 0.0,
			"0.022": 0.0,
			"0.023": 0.0,
			"0.024": 0.0,
			"0.025": 0.0
		}
	}
}
