{
	 "smiles": "NC1=NC(=CS1)C(=NOCC(O)=O)C(=O)N[C@H]1[C@H]2SCC(C=C)=C(N2C1=O)C(O)=O", 
	 "Tm": 494.65, 
	 "num_atms": 45, 
	 "gaussian": { 
		 "optdone": 1, 
		 "sigma_profile": "yes", 
		 "theory": "DFT", 
		 "functional": "B3LYP", 
		 "basiset": "6-31G**", 
		 "properties": { 
			 "R2extent": 15141.9153, 
			 "electric_dipole_moment_norm": 9.57741593176, 
			 "electric_quadrupole_moment_norm": 28.8635417679, 
			 "total_energy": -2215.33656803, 
			 "HOMO_LUMO_gap": 0.15756, 
			 "cosmo_polarized_energy": -39.24, 
			 "cosmo_cavitation_energy": 54.13, 
			 "cosmo_dispersion_energy": -36.14, 
			 "cosmo_repulsion_energy": 2.66, 
			 "cosmo_total_nonelectrostatic_energy": 20.65, 
			 "SMD_solvation_energy": 10.59 
		},
		"coords": [
			{
				"x": 3.6312455702,
				"y": -4.1023090851,
				"z": 0.1035633181,
				"element": "N" 
			},
			{
				"x": 2.3765483585,
				"y": -4.128524759,
				"z": 0.6512582849,
				"element": "C" 
			},
			{
				"x": 1.3257741476,
				"y": -3.602163109,
				"z": 0.1006649642,
				"element": "N" 
			},
			{
				"x": 0.1895734106,
				"y": -3.8511398022,
				"z": 0.8538087951,
				"element": "C" 
			},
			{
				"x": 0.3842963481,
				"y": -4.5626701541,
				"z": 2.0119920797,
				"element": "C" 
			},
			{
				"x": 2.05887122,
				"y": -4.9977535703,
				"z": 2.1687032444,
				"element": "S" 
			},
			{
				"x": -1.0744099642,
				"y": -3.3052546247,
				"z": 0.3465451645,
				"element": "C" 
			},
			{
				"x": -2.1816377333,
				"y": -3.0805711845,
				"z": 0.9655020636,
				"element": "N" 
			},
			{
				"x": -2.1514934746,
				"y": -3.4658402314,
				"z": 2.3251716112,
				"element": "O" 
			},
			{
				"x": -3.3004867344,
				"y": -2.9180717236,
				"z": 2.9749056062,
				"element": "C" 
			},
			{
				"x": -3.1100481893,
				"y": -1.440526721,
				"z": 3.3322951231,
				"element": "C" 
			},
			{
				"x": -1.8302498438,
				"y": -1.0053726943,
				"z": 3.2692999564,
				"element": "O" 
			},
			{
				"x": -4.0215789448,
				"y": -0.7279073206,
				"z": 3.6624193393,
				"element": "O" 
			},
			{
				"x": -1.1386118378,
				"y": -3.0131805694,
				"z": -1.1497213179,
				"element": "C" 
			},
			{
				"x": -0.8787632008,
				"y": -3.896257881,
				"z": -1.9455253499,
				"element": "O" 
			},
			{
				"x": -1.4746107324,
				"y": -1.7425570999,
				"z": -1.5485008846,
				"element": "N" 
			},
			{
				"x": -2.0148634406,
				"y": -0.6627255585,
				"z": -0.7658677189,
				"element": "C" 
			},
			{
				"x": -1.0862647908,
				"y": 0.3112756121,
				"z": 0.0400415662,
				"element": "C" 
			},
			{
				"x": 0.7024597,
				"y": 0.1980710381,
				"z": -0.2629350812,
				"element": "S" 
			},
			{
				"x": 0.9912409033,
				"y": 1.9364593206,
				"z": 0.2566359865,
				"element": "C" 
			},
			{
				"x": 0.0724724082,
				"y": 3.014610849,
				"z": -0.3017379715,
				"element": "C" 
			},
			{
				"x": 0.6061134076,
				"y": 4.3803609469,
				"z": -0.241570802,
				"element": "C" 
			},
			{
				"x": 1.7941380633,
				"y": 4.7351697432,
				"z": 0.2747916171,
				"element": "C" 
			},
			{
				"x": -1.1706507674,
				"y": 2.743880634,
				"z": -0.8057363668,
				"element": "C" 
			},
			{
				"x": -1.6570812065,
				"y": 1.415010364,
				"z": -0.7482020107,
				"element": "N" 
			},
			{
				"x": -2.3485759731,
				"y": 0.5831894582,
				"z": -1.5961279192,
				"element": "C" 
			},
			{
				"x": -2.9453628681,
				"y": 0.7816341522,
				"z": -2.641660812,
				"element": "O" 
			},
			{
				"x": -2.1207439341,
				"y": 3.797115712,
				"z": -1.3557503294,
				"element": "C" 
			},
			{
				"x": -3.0045818987,
				"y": 3.4179187214,
				"z": -2.2813558811,
				"element": "O" 
			},
			{
				"x": -2.0959379646,
				"y": 4.9481152882,
				"z": -0.9736146711,
				"element": "O" 
			},
			{
				"x": 4.4233043786,
				"y": -4.1286032196,
				"z": 0.7281360608,
				"element": "H" 
			},
			{
				"x": 3.7223389798,
				"y": -3.4646338514,
				"z": -0.6760254552,
				"element": "H" 
			},
			{
				"x": -0.3432092367,
				"y": -4.8770868593,
				"z": 2.7409189397,
				"element": "H" 
			},
			{
				"x": -3.4324372984,
				"y": -3.4953737592,
				"z": 3.8948726829,
				"element": "H" 
			},
			{
				"x": -4.1898403025,
				"y": -3.0239767887,
				"z": 2.3505580303,
				"element": "H" 
			},
			{
				"x": -1.2699678383,
				"y": -1.7576509948,
				"z": 3.0069811303,
				"element": "H" 
			},
			{
				"x": -1.5085783038,
				"y": -1.6407448952,
				"z": -2.5566586262,
				"element": "H" 
			},
			{
				"x": -2.8534875996,
				"y": -0.9896673949,
				"z": -0.1468324249,
				"element": "H" 
			},
			{
				"x": -1.302008718,
				"y": 0.3911624857,
				"z": 1.108452033,
				"element": "H" 
			},
			{
				"x": 2.0129258319,
				"y": 2.1431057907,
				"z": -0.0691507945,
				"element": "H" 
			},
			{
				"x": 0.9894579551,
				"y": 1.9891214537,
				"z": 1.3514486094,
				"element": "H" 
			},
			{
				"x": -0.0438239475,
				"y": 5.1536279054,
				"z": -0.6282389607,
				"element": "H" 
			},
			{
				"x": 2.4998010201,
				"y": 4.0405545759,
				"z": 0.7191715158,
				"element": "H" 
			},
			{
				"x": 2.0934146143,
				"y": 5.7781143354,
				"z": 0.275295896,
				"element": "H" 
			},
			{
				"x": -2.9496695732,
				"y": 2.4744654654,
				"z": -2.5693202408,
				"element": "H" 
			}
		],
		 "valence_orbital": [ 
			{
				"type": "occ",
				"energy": -0.27377,
				"method": "rhf"
			},
			{
				"type": "occ",
				"energy": -0.27098,
				"method": "rhf"
			},
			{
				"type": "occ",
				"energy": -0.25184,
				"method": "rhf"
			},
			{
				"type": "occ",
				"energy": -0.23692,
				"method": "rhf"
			},
			{
				"type": "occ",
				"energy": -0.23503,
				"method": "rhf"
			},
			{
				"type": "unocc",
				"energy": -0.07747,
				"method": "rhf"
			},
			{
				"type": "unocc",
				"energy": -0.07493,
				"method": "rhf"
			},
			{
				"type": "unocc",
				"energy": -0.02404,
				"method": "rhf"
			},
			{
				"type": "unocc",
				"energy": -0.01804,
				"method": "rhf"
			},
			{
				"type": "unocc",
				"energy": -0.01465,
				"method": "rhf"
			}
		],
		"cosmo_sigma_profile": { 
			"-0.025": 0.0,
			"-0.024": 0.0,
			"-0.023": 0.0,
			"-0.022": 0.0,
			"-0.021": 0.0,
			"-0.02": 0.0,
			"-0.019": 0.0,
			"-0.018": 0.0,
			"-0.017": 0.0,
			"-0.016": 0.0,
			"-0.015": 1.4493127311,
			"-0.014": 3.01189064227,
			"-0.013": 4.30239041928,
			"-0.012": 4.10067321721,
			"-0.011": 4.80592002791,
			"-0.01": 8.15545486151,
			"-0.009": 11.4120974991,
			"-0.008": 16.866984302,
			"-0.007": 20.4396786415,
			"-0.006": 23.7653984415,
			"-0.005": 22.4778644073,
			"-0.004": 23.1225909745,
			"-0.003": 23.4115254295,
			"-0.002": 23.7686997158,
			"-0.001": 24.4425200903,
			"0.0": 24.4640062438,
			"0.001": 25.0465103758,
			"0.002": 23.6031771867,
			"0.003": 21.7895773191,
			"0.004": 16.5111597756,
			"0.005": 14.8072364801,
			"0.006": 12.2386254107,
			"0.007": 12.4069287832,
			"0.008": 11.8966320971,
			"0.009": 11.9820655035,
			"0.01": 12.5169507561,
			"0.011": 15.0832832109,
			"0.012": 14.1953556391,
			"0.013": 5.09003522638,
			"0.014": 0.141646396997,
			"0.015": 0.0,
			"0.016": 0.0,
			"0.017": 0.0,
			"0.018": 0.0,
			"0.019": 0.0,
			"0.02": 0.0,
			"0.021": 0.0,
			"0.022": 0.0,
			"0.023": 0.0,
			"0.024": 0.0,
			"0.025": 0.0
		}
	}
}
