{
	 "smiles": "FC1=CC=C(C=C1)C(=O)CC(F)(F)F", 
	 "Tm": 303.15, 
	 "num_atms": 20, 
	 "gaussian": { 
		 "optdone": 1, 
		 "sigma_profile": "yes", 
		 "theory": "DFT", 
		 "functional": "B3LYP", 
		 "basiset": "6-31G**", 
		 "properties": { 
			 "R2extent": 5110.2405, 
			 "electric_dipole_moment_norm": 3.66313342645, 
			 "electric_quadrupole_moment_norm": 16.2150786162, 
			 "total_energy": -821.159192595, 
			 "HOMO_LUMO_gap": 0.19621, 
			 "cosmo_polarized_energy": -10.59, 
			 "cosmo_cavitation_energy": 26.85, 
			 "cosmo_dispersion_energy": -18.86, 
			 "cosmo_repulsion_energy": 1.39, 
			 "cosmo_total_nonelectrostatic_energy": 9.37, 
			 "SMD_solvation_energy": 6.68 
		},
		"coords": [
			{
				"x": 3.3287671186,
				"y": 0.1416516197,
				"z": -1.8760288518,
				"element": "F" 
			},
			{
				"x": 2.3363850313,
				"y": 0.3161828467,
				"z": -0.9865078656,
				"element": "C" 
			},
			{
				"x": 2.4729417503,
				"y": 1.3010963442,
				"z": -0.0131981138,
				"element": "C" 
			},
			{
				"x": 1.4412835517,
				"y": 1.4771910702,
				"z": 0.9057842114,
				"element": "C" 
			},
			{
				"x": 0.28762684,
				"y": 0.6781061758,
				"z": 0.8516696265,
				"element": "C" 
			},
			{
				"x": 0.1860163567,
				"y": -0.3068972957,
				"z": -0.1463904778,
				"element": "C" 
			},
			{
				"x": 1.2062828867,
				"y": -0.4946479593,
				"z": -1.0699210273,
				"element": "C" 
			},
			{
				"x": -0.8531397465,
				"y": 0.8165799741,
				"z": 1.8066517314,
				"element": "C" 
			},
			{
				"x": -1.837705986,
				"y": 0.1027535945,
				"z": 1.7254324346,
				"element": "O" 
			},
			{
				"x": -0.743374897,
				"y": 1.8886582033,
				"z": 2.8941678342,
				"element": "C" 
			},
			{
				"x": -1.9409852945,
				"y": 1.9643158369,
				"z": 3.8210389378,
				"element": "C" 
			},
			{
				"x": -3.0742451545,
				"y": 2.2670199306,
				"z": 3.1647723053,
				"element": "F" 
			},
			{
				"x": -1.7339358138,
				"y": 2.9428770692,
				"z": 4.7388307183,
				"element": "F" 
			},
			{
				"x": -2.1347602228,
				"y": 0.8187915688,
				"z": 4.4969181278,
				"element": "F" 
			},
			{
				"x": 3.3711067944,
				"y": 1.9079886298,
				"z": 0.0123462366,
				"element": "H" 
			},
			{
				"x": 1.5486320685,
				"y": 2.2453839396,
				"z": 1.6643701004,
				"element": "H" 
			},
			{
				"x": -0.7111055532,
				"y": -0.9158014416,
				"z": -0.1748989467,
				"element": "H" 
			},
			{
				"x": 1.1451070663,
				"y": -1.2493387839,
				"z": -1.8463257703,
				"element": "H" 
			},
			{
				"x": -0.6150899879,
				"y": 2.8748906916,
				"z": 2.4360137593,
				"element": "H" 
			},
			{
				"x": 0.1429931916,
				"y": 1.7068979855,
				"z": 3.5108750297,
				"element": "H" 
			}
		],
		 "valence_orbital": [ 
			{
				"type": "occ",
				"energy": -0.36507,
				"method": "rhf"
			},
			{
				"type": "occ",
				"energy": -0.36266,
				"method": "rhf"
			},
			{
				"type": "occ",
				"energy": -0.2826,
				"method": "rhf"
			},
			{
				"type": "occ",
				"energy": -0.26826,
				"method": "rhf"
			},
			{
				"type": "occ",
				"energy": -0.26635,
				"method": "rhf"
			},
			{
				"type": "unocc",
				"energy": -0.07014,
				"method": "rhf"
			},
			{
				"type": "unocc",
				"energy": -0.03113,
				"method": "rhf"
			},
			{
				"type": "unocc",
				"energy": 0.02663,
				"method": "rhf"
			},
			{
				"type": "unocc",
				"energy": 0.0701,
				"method": "rhf"
			},
			{
				"type": "unocc",
				"energy": 0.09328,
				"method": "rhf"
			}
		],
		"cosmo_sigma_profile": { 
			"-0.025": 0.0,
			"-0.024": 0.0,
			"-0.023": 0.0,
			"-0.022": 0.0,
			"-0.021": 0.0,
			"-0.02": 0.0,
			"-0.019": 0.0,
			"-0.018": 0.0,
			"-0.017": 0.0,
			"-0.016": 0.0,
			"-0.015": 0.0,
			"-0.014": 0.0,
			"-0.013": 0.0,
			"-0.012": 0.0,
			"-0.011": 0.0,
			"-0.01": 0.521875711308,
			"-0.009": 8.48353034028,
			"-0.008": 9.19323451852,
			"-0.007": 9.55412716562,
			"-0.006": 10.2530682038,
			"-0.005": 8.20223020906,
			"-0.004": 7.99042007952,
			"-0.003": 7.57836435917,
			"-0.002": 8.2392918947,
			"-0.001": 11.6149408058,
			"0.0": 16.6938076211,
			"0.001": 19.2070011749,
			"0.002": 26.5758362505,
			"0.003": 36.7983217993,
			"0.004": 14.5189313545,
			"0.005": 3.01876802292,
			"0.006": 3.19096109033,
			"0.007": 1.51423160085,
			"0.008": 2.3483252147,
			"0.009": 3.03057318109,
			"0.01": 2.97243244025,
			"0.011": 3.73009071339,
			"0.012": 0.32634111546,
			"0.013": 0.0,
			"0.014": 0.0,
			"0.015": 0.0,
			"0.016": 0.0,
			"0.017": 0.0,
			"0.018": 0.0,
			"0.019": 0.0,
			"0.02": 0.0,
			"0.021": 0.0,
			"0.022": 0.0,
			"0.023": 0.0,
			"0.024": 0.0,
			"0.025": 0.0
		}
	}
}
