{
	 "smiles": "CC(Cl)C1=NN=C(O1)C1=CC(Cl)=C(Cl)C=C1", 
	 "Tm": 367.15, 
	 "num_atms": 23, 
	 "gaussian": { 
		 "optdone": 1, 
		 "sigma_profile": "yes", 
		 "theory": "DFT", 
		 "functional": "B3LYP", 
		 "basiset": "6-31G**", 
		 "properties": { 
			 "R2extent": 8084.4817, 
			 "electric_dipole_moment_norm": 1.90108043228, 
			 "electric_quadrupole_moment_norm": 13.0669669193, 
			 "total_energy": -1950.56568859, 
			 "HOMO_LUMO_gap": 0.17732, 
			 "cosmo_polarized_energy": -10.91, 
			 "cosmo_cavitation_energy": 33.89, 
			 "cosmo_dispersion_energy": -24.87, 
			 "cosmo_repulsion_energy": 1.95, 
			 "cosmo_total_nonelectrostatic_energy": 10.97, 
			 "SMD_solvation_energy": 3.37 
		},
		"coords": [
			{
				"x": -4.0981154217,
				"y": -0.7043823323,
				"z": -0.5199460951,
				"element": "C" 
			},
			{
				"x": -2.927995245,
				"y": -0.6136988425,
				"z": 0.4486049785,
				"element": "C" 
			},
			{
				"x": -2.7142485677,
				"y": -2.2119269335,
				"z": 1.3410398353,
				"element": "Cl" 
			},
			{
				"x": -1.6486036654,
				"y": -0.2648553421,
				"z": -0.2248059937,
				"element": "C" 
			},
			{
				"x": -1.3853977479,
				"y": -0.237907264,
				"z": -1.4938937979,
				"element": "N" 
			},
			{
				"x": -0.0572634835,
				"y": 0.1516965604,
				"z": -1.6142178658,
				"element": "N" 
			},
			{
				"x": 0.3868544228,
				"y": 0.3316163749,
				"z": -0.403034689,
				"element": "C" 
			},
			{
				"x": -0.5736142508,
				"y": 0.0900802499,
				"z": 0.5356129077,
				"element": "O" 
			},
			{
				"x": 1.7203569325,
				"y": 0.7423835658,
				"z": 0.0167738447,
				"element": "C" 
			},
			{
				"x": 2.0371233859,
				"y": 0.8730773639,
				"z": 1.3738567335,
				"element": "C" 
			},
			{
				"x": 3.3172005381,
				"y": 1.268019084,
				"z": 1.7599052863,
				"element": "C" 
			},
			{
				"x": 3.6663163776,
				"y": 1.4186489147,
				"z": 3.4623348121,
				"element": "Cl" 
			},
			{
				"x": 4.2909349792,
				"y": 1.5340849777,
				"z": 0.7860358743,
				"element": "C" 
			},
			{
				"x": 5.9024865382,
				"y": 2.0303058493,
				"z": 1.2225753875,
				"element": "Cl" 
			},
			{
				"x": 3.9696824687,
				"y": 1.4004371089,
				"z": -0.5694662739,
				"element": "C" 
			},
			{
				"x": 2.6962145037,
				"y": 1.008283477,
				"z": -0.9566892691,
				"element": "C" 
			},
			{
				"x": -3.8989192941,
				"y": -1.4410334415,
				"z": -1.2997508384,
				"element": "H" 
			},
			{
				"x": -5.0050622138,
				"y": -0.9841342853,
				"z": 0.0189015687,
				"element": "H" 
			},
			{
				"x": -4.2519080528,
				"y": 0.2679057915,
				"z": -0.9978229634,
				"element": "H" 
			},
			{
				"x": -3.1218004295,
				"y": 0.1059264138,
				"z": 1.2467745975,
				"element": "H" 
			},
			{
				"x": 1.2940391066,
				"y": 0.6671500537,
				"z": 2.134825993,
				"element": "H" 
			},
			{
				"x": 4.7314338055,
				"y": 1.6083661506,
				"z": -1.3122384476,
				"element": "H" 
			},
			{
				"x": 2.4444853132,
				"y": 0.9040565052,
				"z": -2.0059755853,
				"element": "H" 
			}
		],
		 "valence_orbital": [ 
			{
				"type": "occ",
				"energy": -0.31147,
				"method": "rhf"
			},
			{
				"type": "occ",
				"energy": -0.30359,
				"method": "rhf"
			},
			{
				"type": "occ",
				"energy": -0.29316,
				"method": "rhf"
			},
			{
				"type": "occ",
				"energy": -0.27601,
				"method": "rhf"
			},
			{
				"type": "occ",
				"energy": -0.25304,
				"method": "rhf"
			},
			{
				"type": "unocc",
				"energy": -0.07572,
				"method": "rhf"
			},
			{
				"type": "unocc",
				"energy": -0.03985,
				"method": "rhf"
			},
			{
				"type": "unocc",
				"energy": -0.03272,
				"method": "rhf"
			},
			{
				"type": "unocc",
				"energy": -0.00817,
				"method": "rhf"
			},
			{
				"type": "unocc",
				"energy": 0.02795,
				"method": "rhf"
			}
		],
		"cosmo_sigma_profile": { 
			"-0.025": 0.0,
			"-0.024": 0.0,
			"-0.023": 0.0,
			"-0.022": 0.0,
			"-0.021": 0.0,
			"-0.02": 0.0,
			"-0.019": 0.0,
			"-0.018": 0.0,
			"-0.017": 0.0,
			"-0.016": 0.0,
			"-0.015": 0.0,
			"-0.014": 0.0,
			"-0.013": 0.0,
			"-0.012": 0.0,
			"-0.011": 0.0,
			"-0.01": 1.60812552858,
			"-0.009": 3.36141021741,
			"-0.008": 6.9502173995,
			"-0.007": 7.72953102144,
			"-0.006": 10.4404460884,
			"-0.005": 12.9542053262,
			"-0.004": 15.6094156318,
			"-0.003": 18.9190452059,
			"-0.002": 21.6781589512,
			"-0.001": 31.1564243071,
			"0.0": 30.8907013379,
			"0.001": 20.993198751,
			"0.002": 18.3063359633,
			"0.003": 23.9127230252,
			"0.004": 18.957044878,
			"0.005": 13.2602237772,
			"0.006": 5.23809909579,
			"0.007": 2.01552244808,
			"0.008": 2.45544578316,
			"0.009": 2.48837276552,
			"0.01": 2.68140870854,
			"0.011": 2.82431107934,
			"0.012": 2.57336881187,
			"0.013": 1.91340039953,
			"0.014": 0.238853289134,
			"0.015": 0.0,
			"0.016": 0.0,
			"0.017": 0.0,
			"0.018": 0.0,
			"0.019": 0.0,
			"0.02": 0.0,
			"0.021": 0.0,
			"0.022": 0.0,
			"0.023": 0.0,
			"0.024": 0.0,
			"0.025": 0.0
		}
	}
}
