{
	 "smiles": "ClC1=CC=C(CN2C(=O)C(=O)C3=C2C=CC=C3)C=C1", 
	 "Tm": 437.15, 
	 "num_atms": 29, 
	 "gaussian": { 
		 "optdone": 1, 
		 "sigma_profile": "yes", 
		 "theory": "DFT", 
		 "functional": "B3LYP", 
		 "basiset": "6-31G**", 
		 "properties": { 
			 "R2extent": 6711.2505, 
			 "electric_dipole_moment_norm": 5.26416536024, 
			 "electric_quadrupole_moment_norm": 18.052883902, 
			 "total_energy": -1243.02078642, 
			 "HOMO_LUMO_gap": 0.13819, 
			 "cosmo_polarized_energy": -15.2, 
			 "cosmo_cavitation_energy": 36.24, 
			 "cosmo_dispersion_energy": -25.35, 
			 "cosmo_repulsion_energy": 1.93, 
			 "cosmo_total_nonelectrostatic_energy": 12.82, 
			 "SMD_solvation_energy": 6.84 
		},
		"coords": [
			{
				"x": -4.4477643954,
				"y": 3.7771031532,
				"z": -1.5982329285,
				"element": "Cl" 
			},
			{
				"x": -3.0037291975,
				"y": 2.7763179185,
				"z": -1.5929081169,
				"element": "C" 
			},
			{
				"x": -3.1281862299,
				"y": 1.391132612,
				"z": -1.7170185874,
				"element": "C" 
			},
			{
				"x": -1.9800617686,
				"y": 0.6027127964,
				"z": -1.7115286808,
				"element": "C" 
			},
			{
				"x": -0.7105519276,
				"y": 1.1813824724,
				"z": -1.5780597935,
				"element": "C" 
			},
			{
				"x": 0.534166543,
				"y": 0.3122355847,
				"z": -1.5947579557,
				"element": "C" 
			},
			{
				"x": 0.5447830459,
				"y": -0.7322352942,
				"z": -0.5770620042,
				"element": "N" 
			},
			{
				"x": 0.3539052274,
				"y": -2.0752848148,
				"z": -0.8736830996,
				"element": "C" 
			},
			{
				"x": 0.1241197004,
				"y": -2.5440150378,
				"z": -1.9689498802,
				"element": "O" 
			},
			{
				"x": 0.4913362148,
				"y": -2.8360492342,
				"z": 0.4881778362,
				"element": "C" 
			},
			{
				"x": 0.3885967295,
				"y": -4.0365087956,
				"z": 0.6171098329,
				"element": "O" 
			},
			{
				"x": 0.754162825,
				"y": -1.7835981579,
				"z": 1.4795361311,
				"element": "C" 
			},
			{
				"x": 0.7705812721,
				"y": -0.5472998415,
				"z": 0.8009449217,
				"element": "C" 
			},
			{
				"x": 0.9937384396,
				"y": 0.6393529057,
				"z": 1.4894977777,
				"element": "C" 
			},
			{
				"x": 1.2063514454,
				"y": 0.5560583383,
				"z": 2.8733003329,
				"element": "C" 
			},
			{
				"x": 1.1954534126,
				"y": -0.6662836596,
				"z": 3.5548543584,
				"element": "C" 
			},
			{
				"x": 0.9650611049,
				"y": -1.852385053,
				"z": 2.8529333378,
				"element": "C" 
			},
			{
				"x": -0.6135103901,
				"y": 2.5707947235,
				"z": -1.459505686,
				"element": "C" 
			},
			{
				"x": -1.7535100764,
				"y": 3.3771279056,
				"z": -1.4671077782,
				"element": "C" 
			},
			{
				"x": -4.1092215369,
				"y": 0.9412286365,
				"z": -1.8216519958,
				"element": "H" 
			},
			{
				"x": -2.0712997383,
				"y": -0.4743831585,
				"z": -1.8204695099,
				"element": "H" 
			},
			{
				"x": 0.6145431523,
				"y": -0.2186450949,
				"z": -2.5486407473,
				"element": "H" 
			},
			{
				"x": 1.4306146814,
				"y": 0.931565406,
				"z": -1.4789388588,
				"element": "H" 
			},
			{
				"x": 0.9901619616,
				"y": 1.599477833,
				"z": 0.9867577291,
				"element": "H" 
			},
			{
				"x": 1.3810296098,
				"y": 1.4727244294,
				"z": 3.429366133,
				"element": "H" 
			},
			{
				"x": 1.3627720383,
				"y": -0.6885679104,
				"z": 4.6266465448,
				"element": "H" 
			},
			{
				"x": 0.9481756913,
				"y": -2.8163445174,
				"z": 3.352359057,
				"element": "H" 
			},
			{
				"x": 0.3638606475,
				"y": 3.038343864,
				"z": -1.3655812868,
				"element": "H" 
			},
			{
				"x": -1.6730784824,
				"y": 4.4544419907,
				"z": -1.374087083,
				"element": "H" 
			}
		],
		 "valence_orbital": [ 
			{
				"type": "occ",
				"energy": -0.27917,
				"method": "rhf"
			},
			{
				"type": "occ",
				"energy": -0.27419,
				"method": "rhf"
			},
			{
				"type": "occ",
				"energy": -0.25654,
				"method": "rhf"
			},
			{
				"type": "occ",
				"energy": -0.24731,
				"method": "rhf"
			},
			{
				"type": "occ",
				"energy": -0.23742,
				"method": "rhf"
			},
			{
				"type": "unocc",
				"energy": -0.09923,
				"method": "rhf"
			},
			{
				"type": "unocc",
				"energy": -0.02815,
				"method": "rhf"
			},
			{
				"type": "unocc",
				"energy": -0.02489,
				"method": "rhf"
			},
			{
				"type": "unocc",
				"energy": -0.02328,
				"method": "rhf"
			},
			{
				"type": "unocc",
				"energy": 0.00309,
				"method": "rhf"
			}
		],
		"cosmo_sigma_profile": { 
			"-0.025": 0.0,
			"-0.024": 0.0,
			"-0.023": 0.0,
			"-0.022": 0.0,
			"-0.021": 0.0,
			"-0.02": 0.0,
			"-0.019": 0.0,
			"-0.018": 0.0,
			"-0.017": 0.0,
			"-0.016": 0.0,
			"-0.015": 0.0,
			"-0.014": 0.0,
			"-0.013": 0.0,
			"-0.012": 0.0,
			"-0.011": 0.0,
			"-0.01": 0.0,
			"-0.009": 0.622958800183,
			"-0.008": 4.51382200612,
			"-0.007": 16.5036993841,
			"-0.006": 22.2707575374,
			"-0.005": 21.2246345478,
			"-0.004": 18.9074002588,
			"-0.003": 18.3724906178,
			"-0.002": 15.9108127735,
			"-0.001": 19.8503761477,
			"0.0": 19.3353221693,
			"0.001": 24.6775875999,
			"0.002": 26.7016944048,
			"0.003": 27.3679069554,
			"0.004": 17.0750244508,
			"0.005": 8.83855241895,
			"0.006": 2.23232366765,
			"0.007": 2.90338494105,
			"0.008": 3.25043314981,
			"0.009": 4.89179058678,
			"0.01": 7.11632327067,
			"0.011": 8.53607095219,
			"0.012": 2.6834541971,
			"0.013": 0.357179247048,
			"0.014": 0.0,
			"0.015": 0.0,
			"0.016": 0.0,
			"0.017": 0.0,
			"0.018": 0.0,
			"0.019": 0.0,
			"0.02": 0.0,
			"0.021": 0.0,
			"0.022": 0.0,
			"0.023": 0.0,
			"0.024": 0.0,
			"0.0": 0.0
		}
	}
}
