{
	 "smiles": "CNC(=O)C1(CCC1)C(O)=O", 
	 "Tm": 418.15, 
	 "num_atms": 22, 
	 "gaussian": { 
		 "optdone": 1, 
		 "sigma_profile": "yes", 
		 "theory": "DFT", 
		 "functional": "B3LYP", 
		 "basiset": "6-31G**", 
		 "properties": { 
			 "R2extent": 2581.5014, 
			 "electric_dipole_moment_norm": 4.48099958603, 
			 "electric_quadrupole_moment_norm": 20.8284916069, 
			 "total_energy": -553.78420766, 
			 "HOMO_LUMO_gap": 0.24159, 
			 "cosmo_polarized_energy": -19.19, 
			 "cosmo_cavitation_energy": 24.16, 
			 "cosmo_dispersion_energy": -17.63, 
			 "cosmo_repulsion_energy": 1.42, 
			 "cosmo_total_nonelectrostatic_energy": 7.94, 
			 "SMD_solvation_energy": 5.16 
		},
		"coords": [
			{
				"x": -1.9860443815,
				"y": 1.0572426356,
				"z": -1.1085555668,
				"element": "C" 
			},
			{
				"x": -1.6624057067,
				"y": -0.2895086113,
				"z": -0.6607996307,
				"element": "N" 
			},
			{
				"x": -0.6628082247,
				"y": -1.1178527815,
				"z": -1.0921194397,
				"element": "C" 
			},
			{
				"x": -0.667802231,
				"y": -2.3093676401,
				"z": -0.8064790556,
				"element": "O" 
			},
			{
				"x": 0.5228021732,
				"y": -0.4804813068,
				"z": -1.8493580171,
				"element": "C" 
			},
			{
				"x": 1.370508712,
				"y": 0.4666130048,
				"z": -0.9194486771,
				"element": "C" 
			},
			{
				"x": 2.3412863218,
				"y": -0.7095016272,
				"z": -0.6433822285,
				"element": "C" 
			},
			{
				"x": 1.7483143193,
				"y": -1.4564076706,
				"z": -1.8634437372,
				"element": "C" 
			},
			{
				"x": 0.0778905896,
				"y": 0.0157908144,
				"z": -3.2220923861,
				"element": "C" 
			},
			{
				"x": 1.0045875364,
				"y": 0.6989356837,
				"z": -3.9459157409,
				"element": "O" 
			},
			{
				"x": -1.0132017047,
				"y": -0.1885194754,
				"z": -3.6985286573,
				"element": "O" 
			},
			{
				"x": -2.5197145742,
				"y": 1.0627524238,
				"z": -2.064452338,
				"element": "H" 
			},
			{
				"x": -2.6017705427,
				"y": 1.5400453366,
				"z": -0.34496711,
				"element": "H" 
			},
			{
				"x": -1.0789369832,
				"y": 1.6550585441,
				"z": -1.2216933589,
				"element": "H" 
			},
			{
				"x": -2.41133081,
				"y": -0.8136162216,
				"z": -0.2258379683,
				"element": "H" 
			},
			{
				"x": 1.8417564677,
				"y": 1.2882763759,
				"z": -1.4713371271,
				"element": "H" 
			},
			{
				"x": 0.8418465864,
				"y": 0.8977116244,
				"z": -0.0659376706,
				"element": "H" 
			},
			{
				"x": 2.1048358354,
				"y": -1.219660533,
				"z": 0.2933976359,
				"element": "H" 
			},
			{
				"x": 3.4108369877,
				"y": -0.4847336676,
				"z": -0.6593928687,
				"element": "H" 
			},
			{
				"x": 1.4754397059,
				"y": -2.5034272827,
				"z": -1.7344955702,
				"element": "H" 
			},
			{
				"x": 2.35343199,
				"y": -1.3424831037,
				"z": -2.7683853755,
				"element": "H" 
			},
			{
				"x": 1.8384779334,
				"y": 0.7638334783,
				"z": -3.4600751116,
				"element": "H" 
			}
		],
		 "valence_orbital": [ 
			{
				"type": "occ",
				"energy": -0.32932,
				"method": "rhf"
			},
			{
				"type": "occ",
				"energy": -0.31666,
				"method": "rhf"
			},
			{
				"type": "occ",
				"energy": -0.2716,
				"method": "rhf"
			},
			{
				"type": "occ",
				"energy": -0.2568,
				"method": "rhf"
			},
			{
				"type": "occ",
				"energy": -0.24808,
				"method": "rhf"
			},
			{
				"type": "unocc",
				"energy": -0.00649,
				"method": "rhf"
			},
			{
				"type": "unocc",
				"energy": 0.01694,
				"method": "rhf"
			},
			{
				"type": "unocc",
				"energy": 0.04118,
				"method": "rhf"
			},
			{
				"type": "unocc",
				"energy": 0.07937,
				"method": "rhf"
			},
			{
				"type": "unocc",
				"energy": 0.09131,
				"method": "rhf"
			}
		],
		"cosmo_sigma_profile": { 
			"-0.025": 0.0,
			"-0.024": 0.0,
			"-0.023": 0.0,
			"-0.022": 0.0,
			"-0.021": 0.0,
			"-0.02": 0.0,
			"-0.019": 0.295826204791,
			"-0.018": 0.682396873192,
			"-0.017": 0.884088972254,
			"-0.016": 1.20472137516,
			"-0.015": 0.782375002142,
			"-0.014": 0.823039090429,
			"-0.013": 2.25720255171,
			"-0.012": 2.22982516204,
			"-0.011": 1.92546309564,
			"-0.01": 2.20858432188,
			"-0.009": 2.1206561402,
			"-0.008": 2.68123631766,
			"-0.007": 4.54534760722,
			"-0.006": 7.41952142561,
			"-0.005": 9.80444215033,
			"-0.004": 14.372538905,
			"-0.003": 19.7681868698,
			"-0.002": 19.9018721927,
			"-0.001": 14.9394734888,
			"0.0": 12.9466474103,
			"0.001": 5.40622977659,
			"0.002": 4.75928556677,
			"0.003": 4.16695623971,
			"0.004": 4.58881091517,
			"0.005": 4.30896178396,
			"0.006": 4.15601465045,
			"0.007": 4.80169356539,
			"0.008": 4.47348682058,
			"0.009": 4.42605034957,
			"0.01": 6.77202756031,
			"0.011": 5.96670081176,
			"0.012": 4.88846485752,
			"0.013": 5.80045673912,
			"0.014": 2.7579070884,
			"0.015": 0.087048244836,
			"0.016": 0.0,
			"0.017": 0.0,
			"0.018": 0.0,
			"0.019": 0.0,
			"0.02": 0.0,
			"0.021": 0.0,
			"0.022": 0.0,
			"0.023": 0.0,
			"0.024": 0.0,
			"0.025": 0.0
		}
	}
}
