{
	 "smiles": "FC1=CC=C(NCC2=NC=CC=C2)C=C1", 
	 "Tm": 345.15, 
	 "num_atms": 26, 
	 "gaussian": { 
		 "optdone": 1, 
		 "sigma_profile": "yes", 
		 "theory": "DFT", 
		 "functional": "B3LYP", 
		 "basiset": "6-31G**", 
		 "properties": { 
			 "R2extent": 4234.167, 
			 "electric_dipole_moment_norm": 2.9300047645, 
			 "electric_quadrupole_moment_norm": 11.8724121656, 
			 "total_energy": -673.23804818, 
			 "HOMO_LUMO_gap": 0.17095, 
			 "cosmo_polarized_energy": -10.14, 
			 "cosmo_cavitation_energy": 30.5, 
			 "cosmo_dispersion_energy": -21.87, 
			 "cosmo_repulsion_energy": 1.69, 
			 "cosmo_total_nonelectrostatic_energy": 10.32, 
			 "SMD_solvation_energy": 3.84 
		},
		"coords": [
			{
				"x": 3.8864469556,
				"y": -1.4975576734,
				"z": 2.8699422943,
				"element": "F" 
			},
			{
				"x": 3.1855289644,
				"y": -0.6428214268,
				"z": 2.0873393018,
				"element": "C" 
			},
			{
				"x": 3.8681608898,
				"y": 0.1827003249,
				"z": 1.2002601984,
				"element": "C" 
			},
			{
				"x": 3.1447985157,
				"y": 1.0596293453,
				"z": 0.3980605898,
				"element": "C" 
			},
			{
				"x": 1.7400639109,
				"y": 1.1243942969,
				"z": 0.4727962136,
				"element": "C" 
			},
			{
				"x": 1.0467512771,
				"y": 1.9981921158,
				"z": -0.3740521593,
				"element": "N" 
			},
			{
				"x": -0.3253742884,
				"y": 2.3898648636,
				"z": -0.0973081328,
				"element": "C" 
			},
			{
				"x": -1.3774227438,
				"y": 1.4197078854,
				"z": -0.6205953073,
				"element": "C" 
			},
			{
				"x": -2.5767345348,
				"y": 1.5067852987,
				"z": -0.024799762,
				"element": "N" 
			},
			{
				"x": -3.5559920366,
				"y": 0.7111152735,
				"z": -0.4705255144,
				"element": "C" 
			},
			{
				"x": -3.3954433412,
				"y": -0.2041411084,
				"z": -1.5112687751,
				"element": "C" 
			},
			{
				"x": -2.1436568361,
				"y": -0.2926793866,
				"z": -2.1198426649,
				"element": "C" 
			},
			{
				"x": -1.115213897,
				"y": 0.533022933,
				"z": -1.6700956043,
				"element": "C" 
			},
			{
				"x": 1.0785960671,
				"y": 0.2767184971,
				"z": 1.3791177209,
				"element": "C" 
			},
			{
				"x": 1.8021815039,
				"y": -0.6050573469,
				"z": 2.184241061,
				"element": "C" 
			},
			{
				"x": 4.9506235226,
				"y": 0.134979066,
				"z": 1.1464684549,
				"element": "H" 
			},
			{
				"x": 3.673167619,
				"y": 1.705960418,
				"z": -0.2988915898,
				"element": "H" 
			},
			{
				"x": 1.6231816293,
				"y": 2.7435185076,
				"z": -0.7358273208,
				"element": "H" 
			},
			{
				"x": -0.5129081494,
				"y": 2.5415215151,
				"z": 0.9752218615,
				"element": "H" 
			},
			{
				"x": -0.4949337665,
				"y": 3.3605750586,
				"z": -0.5782934181,
				"element": "H" 
			},
			{
				"x": -4.515984846,
				"y": 0.8072298805,
				"z": 0.0345305891,
				"element": "H" 
			},
			{
				"x": -4.2248514504,
				"y": -0.8288936273,
				"z": -1.8272934048,
				"element": "H" 
			},
			{
				"x": -1.9702738026,
				"y": -0.9949067991,
				"z": -2.9306460892,
				"element": "H" 
			},
			{
				"x": -0.1223864374,
				"y": 0.4989279752,
				"z": -2.1045920601,
				"element": "H" 
			},
			{
				"x": -0.0023749778,
				"y": 0.2922948537,
				"z": 1.4559666345,
				"element": "H" 
			},
			{
				"x": 1.2965502525,
				"y": -1.2608807403,
				"z": 2.8850868831,
				"element": "H" 
			}
		],
		 "valence_orbital": [ 
			{
				"type": "occ",
				"energy": -0.28486,
				"method": "rhf"
			},
			{
				"type": "occ",
				"energy": -0.25683,
				"method": "rhf"
			},
			{
				"type": "occ",
				"energy": -0.25484,
				"method": "rhf"
			},
			{
				"type": "occ",
				"energy": -0.25069,
				"method": "rhf"
			},
			{
				"type": "occ",
				"energy": -0.19643,
				"method": "rhf"
			},
			{
				"type": "unocc",
				"energy": -0.02548,
				"method": "rhf"
			},
			{
				"type": "unocc",
				"energy": -0.01044,
				"method": "rhf"
			},
			{
				"type": "unocc",
				"energy": -0.00288,
				"method": "rhf"
			},
			{
				"type": "unocc",
				"energy": 0.02344,
				"method": "rhf"
			},
			{
				"type": "unocc",
				"energy": 0.07563,
				"method": "rhf"
			}
		],
		"cosmo_sigma_profile": { 
			"-0.025": 0.0,
			"-0.024": 0.0,
			"-0.023": 0.0,
			"-0.022": 0.0,
			"-0.021": 0.0,
			"-0.02": 0.0,
			"-0.019": 0.0,
			"-0.018": 0.0,
			"-0.017": 0.0,
			"-0.016": 0.0,
			"-0.015": 0.0,
			"-0.014": 0.0,
			"-0.013": 0.825781104831,
			"-0.012": 1.62839922868,
			"-0.011": 1.44358742283,
			"-0.01": 1.50897442434,
			"-0.009": 1.53456853591,
			"-0.008": 1.78220572333,
			"-0.007": 6.69437135017,
			"-0.006": 14.6703632284,
			"-0.005": 15.7457779424,
			"-0.004": 18.8891608185,
			"-0.003": 15.9367033305,
			"-0.002": 14.5445002953,
			"-0.001": 15.478735849,
			"0.0": 11.7711256671,
			"0.001": 16.2145388424,
			"0.002": 21.3645998765,
			"0.003": 25.4494311486,
			"0.004": 19.0400075507,
			"0.005": 24.3871385097,
			"0.006": 6.23693994004,
			"0.007": 0.767419960045,
			"0.008": 1.28221241068,
			"0.009": 1.34440426778,
			"0.01": 0.790527394981,
			"0.011": 0.787682157555,
			"0.012": 0.838835135439,
			"0.013": 0.978703117124,
			"0.014": 0.619917240938,
			"0.015": 0.64104617156,
			"0.016": 0.694334961713,
			"0.017": 0.124080183918,
			"0.018": 0.0,
			"0.019": 0.0,
			"0.02": 0.0,
			"0.021": 0.0,
			"0.022": 0.0,
			"0.023": 0.0,
			"0.024": 0.0,
			"0.025": 0.0
		}
	}
}
