{
	 "smiles": "CC(SC1=CC=C(Cl)C=C1)C(O)=O", 
	 "Tm": 380.15, 
	 "num_atms": 22, 
	 "gaussian": { 
		 "optdone": 1, 
		 "sigma_profile": "yes", 
		 "theory": "DFT", 
		 "functional": "B3LYP", 
		 "basiset": "6-31G**", 
		 "properties": { 
			 "R2extent": 4695.0029, 
			 "electric_dipole_moment_norm": 1.60181354096, 
			 "electric_quadrupole_moment_norm": 5.94302869083, 
			 "total_energy": -1357.22196139, 
			 "HOMO_LUMO_gap": 0.19669, 
			 "cosmo_polarized_energy": -11.28, 
			 "cosmo_cavitation_energy": 30.32, 
			 "cosmo_dispersion_energy": -21.7, 
			 "cosmo_repulsion_energy": 1.71, 
			 "cosmo_total_nonelectrostatic_energy": 10.34, 
			 "SMD_solvation_energy": 5.76 
		},
		"coords": [
			{
				"x": 0.8824019383,
				"y": 1.2096656825,
				"z": -2.2871191622,
				"element": "C" 
			},
			{
				"x": 0.9765415561,
				"y": 1.1471447417,
				"z": -0.7602426867,
				"element": "C" 
			},
			{
				"x": -0.6972455946,
				"y": 0.9607042482,
				"z": 0.051810288,
				"element": "S" 
			},
			{
				"x": -0.9022445311,
				"y": -0.8178206806,
				"z": -0.0543183089,
				"element": "C" 
			},
			{
				"x": -1.8109120799,
				"y": -1.3616073586,
				"z": -0.9716721178,
				"element": "C" 
			},
			{
				"x": -2.0177999784,
				"y": -2.7403745916,
				"z": -1.0353992654,
				"element": "C" 
			},
			{
				"x": -1.3002782101,
				"y": -3.5747978162,
				"z": -0.1798175727,
				"element": "C" 
			},
			{
				"x": -1.5479932171,
				"y": -5.3113213615,
				"z": -0.2593866215,
				"element": "Cl" 
			},
			{
				"x": -0.3910075217,
				"y": -3.0545920496,
				"z": 0.7428409205,
				"element": "C" 
			},
			{
				"x": -0.2034921975,
				"y": -1.6752392585,
				"z": 0.8081726948,
				"element": "C" 
			},
			{
				"x": 1.634886861,
				"y": 2.3752784379,
				"z": -0.1565070798,
				"element": "C" 
			},
			{
				"x": 0.957402557,
				"y": 3.5089552935,
				"z": -0.4542608996,
				"element": "O" 
			},
			{
				"x": 2.6458277061,
				"y": 2.3664112234,
				"z": 0.5081163248,
				"element": "O" 
			},
			{
				"x": 1.8821308937,
				"y": 1.3004585885,
				"z": -2.7278019005,
				"element": "H" 
			},
			{
				"x": 0.4245075513,
				"y": 0.2939519977,
				"z": -2.6704467112,
				"element": "H" 
			},
			{
				"x": 0.2799836708,
				"y": 2.0633031026,
				"z": -2.6046055385,
				"element": "H" 
			},
			{
				"x": 1.5791377274,
				"y": 0.2968372765,
				"z": -0.4378357951,
				"element": "H" 
			},
			{
				"x": -2.3603485511,
				"y": -0.7025481063,
				"z": -1.6358975714,
				"element": "H" 
			},
			{
				"x": -2.7221267287,
				"y": -3.1624077029,
				"z": -1.7436844185,
				"element": "H" 
			},
			{
				"x": 0.1504027199,
				"y": -3.7192490509,
				"z": 1.406926121,
				"element": "H" 
			},
			{
				"x": 0.4845544091,
				"y": -1.2604306254,
				"z": 1.5382612001,
				"element": "H" 
			},
			{
				"x": 1.4309710196,
				"y": 4.2350780097,
				"z": -0.0145318995,
				"element": "H" 
			}
		],
		 "valence_orbital": [ 
			{
				"type": "occ",
				"energy": -0.31951,
				"method": "rhf"
			},
			{
				"type": "occ",
				"energy": -0.28504,
				"method": "rhf"
			},
			{
				"type": "occ",
				"energy": -0.27476,
				"method": "rhf"
			},
			{
				"type": "occ",
				"energy": -0.25774,
				"method": "rhf"
			},
			{
				"type": "occ",
				"energy": -0.23672,
				"method": "rhf"
			},
			{
				"type": "unocc",
				"energy": -0.04003,
				"method": "rhf"
			},
			{
				"type": "unocc",
				"energy": -0.02555,
				"method": "rhf"
			},
			{
				"type": "unocc",
				"energy": -0.00376,
				"method": "rhf"
			},
			{
				"type": "unocc",
				"energy": 0.01969,
				"method": "rhf"
			},
			{
				"type": "unocc",
				"energy": 0.03712,
				"method": "rhf"
			}
		],
		"cosmo_sigma_profile": { 
			"-0.025": 0.0,
			"-0.024": 0.0,
			"-0.023": 0.0,
			"-0.022": 0.0,
			"-0.021": 0.0,
			"-0.02": 0.0,
			"-0.019": 0.237828934825,
			"-0.018": 0.994653544216,
			"-0.017": 0.936749586439,
			"-0.016": 0.828117511468,
			"-0.015": 0.69698919288,
			"-0.014": 0.847610541023,
			"-0.013": 0.201676113477,
			"-0.012": 0.91359064918,
			"-0.011": 1.33462668401,
			"-0.01": 0.347541078096,
			"-0.009": 0.369935670777,
			"-0.008": 2.29856144614,
			"-0.007": 8.46667327354,
			"-0.006": 13.2575844495,
			"-0.005": 11.8027286244,
			"-0.004": 14.0666570766,
			"-0.003": 15.4997599907,
			"-0.002": 17.3692989925,
			"-0.001": 19.583272054,
			"0.0": 18.8863385733,
			"0.001": 20.2104984942,
			"0.002": 22.3211076574,
			"0.003": 19.7849608431,
			"0.004": 16.2990037915,
			"0.005": 10.0570873009,
			"0.006": 5.7782472899,
			"0.007": 4.68293578524,
			"0.008": 4.67778138659,
			"0.009": 2.30130722059,
			"0.01": 2.34230553853,
			"0.011": 4.94883946333,
			"0.012": 2.79136375798,
			"0.013": 0.121586647674,
			"0.014": 0.0,
			"0.015": 0.0,
			"0.016": 0.0,
			"0.017": 0.0,
			"0.018": 0.0,
			"0.019": 0.0,
			"0.02": 0.0,
			"0.021": 0.0,
			"0.022": 0.0,
			"0.023": 0.0,
			"0.024": 0.0,
			"0.025": 0.0
		}
	}
}
