{
	 "smiles": "FC1=CC=C(C=CS(Cl)(=O)=O)C=C1", 
	 "Tm": 384.15, 
	 "num_atms": 19, 
	 "gaussian": { 
		 "optdone": 1, 
		 "sigma_profile": "yes", 
		 "theory": "DFT", 
		 "functional": "B3LYP", 
		 "basiset": "6-31G**", 
		 "properties": { 
			 "R2extent": 4836.1573, 
			 "electric_dipole_moment_norm": 4.73904315237, 
			 "electric_quadrupole_moment_norm": 14.8319496746, 
			 "total_energy": -1417.03381106, 
			 "HOMO_LUMO_gap": 0.16911, 
			 "cosmo_polarized_energy": -11.01, 
			 "cosmo_cavitation_energy": 27.63, 
			 "cosmo_dispersion_energy": -20.47, 
			 "cosmo_repulsion_energy": 1.55, 
			 "cosmo_total_nonelectrostatic_energy": 8.71, 
			 "SMD_solvation_energy": 4.29 
		},
		"coords": [
			{
				"x": -1.0035295934,
				"y": 3.9390964009,
				"z": 0.3802993912,
				"element": "F" 
			},
			{
				"x": -0.0888120596,
				"y": 2.961841229,
				"z": 0.2610502588,
				"element": "C" 
			},
			{
				"x": 0.0762571156,
				"y": 2.0606397903,
				"z": 1.3088152225,
				"element": "C" 
			},
			{
				"x": 1.0213578598,
				"y": 1.0485352634,
				"z": 1.1837584207,
				"element": "C" 
			},
			{
				"x": 1.8008325294,
				"y": 0.9326202261,
				"z": 0.0165987633,
				"element": "C" 
			},
			{
				"x": 2.8205918279,
				"y": -0.0999735535,
				"z": -0.1780405295,
				"element": "C" 
			},
			{
				"x": 2.9419217712,
				"y": -1.3524486335,
				"z": 0.2924042956,
				"element": "C" 
			},
			{
				"x": 1.7444834155,
				"y": -2.1941217055,
				"z": 1.3124367143,
				"element": "S" 
			},
			{
				"x": 2.3948449704,
				"y": -4.1912776633,
				"z": 0.9377543109,
				"element": "Cl" 
			},
			{
				"x": 1.9964395033,
				"y": -1.9390312234,
				"z": 2.7288238861,
				"element": "O" 
			},
			{
				"x": 0.4020043836,
				"y": -2.0727076285,
				"z": 0.7586994739,
				"element": "O" 
			},
			{
				"x": 1.6290271773,
				"y": 1.886633715,
				"z": -1.0052343458,
				"element": "C" 
			},
			{
				"x": 0.6780247181,
				"y": 2.8949660931,
				"z": -0.8983655062,
				"element": "C" 
			},
			{
				"x": -0.5240405586,
				"y": 2.1653046852,
				"z": 2.2055437705,
				"element": "H" 
			},
			{
				"x": 1.1773879104,
				"y": 0.3748167284,
				"z": 2.0182182094,
				"element": "H" 
			},
			{
				"x": 3.6385873405,
				"y": 0.194174224,
				"z": -0.8367504037,
				"element": "H" 
			},
			{
				"x": 3.803939165,
				"y": -1.9725791027,
				"z": 0.0818041445,
				"element": "H" 
			},
			{
				"x": 2.2392980744,
				"y": 1.8244791458,
				"z": -1.9019103327,
				"element": "H" 
			},
			{
				"x": 0.5284844492,
				"y": 3.6256320093,
				"z": -1.6853057438,
				"element": "H" 
			}
		],
		 "valence_orbital": [ 
			{
				"type": "occ",
				"energy": -0.32911,
				"method": "rhf"
			},
			{
				"type": "occ",
				"energy": -0.3182,
				"method": "rhf"
			},
			{
				"type": "occ",
				"energy": -0.31474,
				"method": "rhf"
			},
			{
				"type": "occ",
				"energy": -0.28205,
				"method": "rhf"
			},
			{
				"type": "occ",
				"energy": -0.25604,
				"method": "rhf"
			},
			{
				"type": "unocc",
				"energy": -0.08693,
				"method": "rhf"
			},
			{
				"type": "unocc",
				"energy": -0.07229,
				"method": "rhf"
			},
			{
				"type": "unocc",
				"energy": -0.03199,
				"method": "rhf"
			},
			{
				"type": "unocc",
				"energy": 0.01014,
				"method": "rhf"
			},
			{
				"type": "unocc",
				"energy": 0.03325,
				"method": "rhf"
			}
		],
		"cosmo_sigma_profile": { 
			"-0.025": 0.0,
			"-0.024": 0.0,
			"-0.023": 0.0,
			"-0.022": 0.0,
			"-0.021": 0.0,
			"-0.02": 0.0,
			"-0.019": 0.0,
			"-0.018": 0.0,
			"-0.017": 0.0,
			"-0.016": 0.0,
			"-0.015": 0.0,
			"-0.014": 0.0,
			"-0.013": 0.0,
			"-0.012": 0.0,
			"-0.011": 0.755542073743,
			"-0.01": 2.85496917377,
			"-0.009": 6.14983168168,
			"-0.008": 7.88406968403,
			"-0.007": 9.24907564108,
			"-0.006": 9.76880630193,
			"-0.005": 8.15814005568,
			"-0.004": 8.63971599134,
			"-0.003": 9.63136233842,
			"-0.002": 11.868165352,
			"-0.001": 16.8429702767,
			"0.0": 20.2232402998,
			"0.001": 21.5146733955,
			"0.002": 22.9922101945,
			"0.003": 22.2974155108,
			"0.004": 16.3474586092,
			"0.005": 3.9875459675,
			"0.006": 3.8261871491,
			"0.007": 5.48477671248,
			"0.008": 10.9294846679,
			"0.009": 5.66732378772,
			"0.01": 0.0755795921484,
			"0.011": 0.0,
			"0.012": 0.0,
			"0.013": 0.0,
			"0.014": 0.0,
			"0.015": 0.0,
			"0.016": 0.0,
			"0.017": 0.0,
			"0.018": 0.0,
			"0.019": 0.0,
			"0.02": 0.0,
			"0.021": 0.0,
			"0.022": 0.0,
			"0.023": 0.0,
			"0.024": 0.0,
			"0.025": 0.0
		}
	}
}
