{
	 "smiles": "CC1(C)CC2=C(C=C(N2CC2=CC=C(Cl)C=C2)C2=CC=CC=C2)C(=O)C1", 
	 "Tm": 389.15, 
	 "num_atms": 48, 
	 "gaussian": { 
		 "optdone": 1, 
		 "sigma_profile": "yes", 
		 "theory": "DFT", 
		 "functional": "B3LYP", 
		 "basiset": "6-31G**", 
		 "properties": { 
			 "R2extent": 12879.5694, 
			 "electric_dipole_moment_norm": 4.92084617927, 
			 "electric_quadrupole_moment_norm": 29.1201869209, 
			 "total_energy": -1479.89922068, 
			 "HOMO_LUMO_gap": 0.18118, 
			 "cosmo_polarized_energy": -16.73, 
			 "cosmo_cavitation_energy": 51.53, 
			 "cosmo_dispersion_energy": -34.18, 
			 "cosmo_repulsion_energy": 2.62, 
			 "cosmo_total_nonelectrostatic_energy": 19.97, 
			 "SMD_solvation_energy": 8.0 
		},
		"coords": [
			{
				"x": -0.0528197046,
				"y": -3.5071098556,
				"z": -0.9665091153,
				"element": "C" 
			},
			{
				"x": -1.0103249685,
				"y": -2.3099524677,
				"z": -1.0948951936,
				"element": "C" 
			},
			{
				"x": -2.3228848969,
				"y": -2.6360197865,
				"z": -0.3534400223,
				"element": "C" 
			},
			{
				"x": -0.3363725366,
				"y": -1.0556616785,
				"z": -0.4655912077,
				"element": "C" 
			},
			{
				"x": -1.0708659767,
				"y": 0.1897524371,
				"z": -0.8495002348,
				"element": "C" 
			},
			{
				"x": -1.8757587726,
				"y": 0.3310505824,
				"z": -1.9716313613,
				"element": "C" 
			},
			{
				"x": -2.3694546332,
				"y": 1.667341123,
				"z": -1.9839374227,
				"element": "C" 
			},
			{
				"x": -1.8637020024,
				"y": 2.3098402269,
				"z": -0.8750941853,
				"element": "C" 
			},
			{
				"x": -1.0616201998,
				"y": 1.3849983549,
				"z": -0.1753485581,
				"element": "N" 
			},
			{
				"x": -0.1573941482,
				"y": 1.6921883762,
				"z": 0.9300196144,
				"element": "C" 
			},
			{
				"x": 1.3106113326,
				"y": 1.7482859017,
				"z": 0.5366463833,
				"element": "C" 
			},
			{
				"x": 1.7154059281,
				"y": 2.2759126198,
				"z": -0.6955581871,
				"element": "C" 
			},
			{
				"x": 3.0670399114,
				"y": 2.3687911515,
				"z": -1.0247872952,
				"element": "C" 
			},
			{
				"x": 4.0237287213,
				"y": 1.9330855329,
				"z": -0.1079822694,
				"element": "C" 
			},
			{
				"x": 5.7293847302,
				"y": 2.0458382703,
				"z": -0.5166930159,
				"element": "Cl" 
			},
			{
				"x": 3.6469676161,
				"y": 1.4038988535,
				"z": 1.1250058564,
				"element": "C" 
			},
			{
				"x": 2.289965409,
				"y": 1.312398448,
				"z": 1.4357352617,
				"element": "C" 
			},
			{
				"x": -2.1264913042,
				"y": 3.685589849,
				"z": -0.4188434636,
				"element": "C" 
			},
			{
				"x": -2.5504924203,
				"y": 3.9727639794,
				"z": 0.8922853279,
				"element": "C" 
			},
			{
				"x": -2.8281556694,
				"y": 5.2826903144,
				"z": 1.2823303948,
				"element": "C" 
			},
			{
				"x": -2.7068675065,
				"y": 6.3301324157,
				"z": 0.367281892,
				"element": "C" 
			},
			{
				"x": -2.3070530707,
				"y": 6.0571934677,
				"z": -0.9425552808,
				"element": "C" 
			},
			{
				"x": -2.0140079468,
				"y": 4.7506032161,
				"z": -1.3301284527,
				"element": "C" 
			},
			{
				"x": -2.1106484227,
				"y": -0.7753798434,
				"z": -2.8963340951,
				"element": "C" 
			},
			{
				"x": -2.8522336119,
				"y": -0.704346261,
				"z": -3.8682085989,
				"element": "O" 
			},
			{
				"x": -1.3013197662,
				"y": -2.0423226571,
				"z": -2.5942277478,
				"element": "C" 
			},
			{
				"x": 0.181744814,
				"y": -3.712650584,
				"z": 0.0845308795,
				"element": "H" 
			},
			{
				"x": -0.5010229082,
				"y": -4.4122732908,
				"z": -1.3900818497,
				"element": "H" 
			},
			{
				"x": 0.8909078387,
				"y": -3.3227290453,
				"z": -1.4918827574,
				"element": "H" 
			},
			{
				"x": -2.1277470883,
				"y": -2.8646481539,
				"z": 0.7006224704,
				"element": "H" 
			},
			{
				"x": -3.0318503058,
				"y": -1.8040870546,
				"z": -0.3926056685,
				"element": "H" 
			},
			{
				"x": -2.808748931,
				"y": -3.5104190838,
				"z": -0.7992680781,
				"element": "H" 
			},
			{
				"x": 0.7077602372,
				"y": -0.9954003033,
				"z": -0.8065967226,
				"element": "H" 
			},
			{
				"x": -0.2913979147,
				"y": -1.173311194,
				"z": 0.6248886203,
				"element": "H" 
			},
			{
				"x": -3.0593970467,
				"y": 2.0867130759,
				"z": -2.7015105404,
				"element": "H" 
			},
			{
				"x": -0.2985961276,
				"y": 0.951299724,
				"z": 1.7243653162,
				"element": "H" 
			},
			{
				"x": -0.463084064,
				"y": 2.6569186829,
				"z": 1.3410965806,
				"element": "H" 
			},
			{
				"x": 0.9695356434,
				"y": 2.6124105183,
				"z": -1.4092897736,
				"element": "H" 
			},
			{
				"x": 3.3766337749,
				"y": 2.7749866782,
				"z": -1.9813698351,
				"element": "H" 
			},
			{
				"x": 4.4012817996,
				"y": 1.0621335727,
				"z": 1.8250181983,
				"element": "H" 
			},
			{
				"x": 1.9950733579,
				"y": 0.8930751384,
				"z": 2.3946658413,
				"element": "H" 
			},
			{
				"x": -2.6974305943,
				"y": 3.1604280617,
				"z": 1.5984561678,
				"element": "H" 
			},
			{
				"x": -3.1566698094,
				"y": 5.4823678887,
				"z": 2.2983791331,
				"element": "H" 
			},
			{
				"x": -2.9275557885,
				"y": 7.349216101,
				"z": 0.6708578086,
				"element": "H" 
			},
			{
				"x": -2.2134179256,
				"y": 6.8650345893,
				"z": -1.6627237664,
				"element": "H" 
			},
			{
				"x": -1.6875484062,
				"y": 4.5421287927,
				"z": -2.3445532254,
				"element": "H" 
			},
			{
				"x": -0.3465399291,
				"y": -1.9375578217,
				"z": -3.1317331903,
				"element": "H" 
			},
			{
				"x": -1.8239667171,
				"y": -2.8898988628,
				"z": -3.0489046316,
				"element": "H" 
			}
		],
		 "valence_orbital": [ 
			{
				"type": "occ",
				"energy": -0.25957,
				"method": "rhf"
			},
			{
				"type": "occ",
				"energy": -0.25362,
				"method": "rhf"
			},
			{
				"type": "occ",
				"energy": -0.24297,
				"method": "rhf"
			},
			{
				"type": "occ",
				"energy": -0.22533,
				"method": "rhf"
			},
			{
				"type": "occ",
				"energy": -0.2074,
				"method": "rhf"
			},
			{
				"type": "unocc",
				"energy": -0.02622,
				"method": "rhf"
			},
			{
				"type": "unocc",
				"energy": -0.02519,
				"method": "rhf"
			},
			{
				"type": "unocc",
				"energy": -0.02145,
				"method": "rhf"
			},
			{
				"type": "unocc",
				"energy": -0.01935,
				"method": "rhf"
			},
			{
				"type": "unocc",
				"energy": -0.0097,
				"method": "rhf"
			}
		],
		"cosmo_sigma_profile": { 
			"-0.025": 0.0,
			"-0.024": 0.0,
			"-0.023": 0.0,
			"-0.022": 0.0,
			"-0.021": 0.0,
			"-0.02": 0.0,
			"-0.019": 0.0,
			"-0.018": 0.0,
			"-0.017": 0.0,
			"-0.016": 0.0,
			"-0.015": 0.0,
			"-0.014": 0.0,
			"-0.013": 0.0,
			"-0.012": 0.0,
			"-0.011": 0.0,
			"-0.01": 0.0,
			"-0.009": 0.0,
			"-0.008": 0.797054316612,
			"-0.007": 9.29477368086,
			"-0.006": 18.0574052469,
			"-0.005": 27.8103245003,
			"-0.004": 33.272177578,
			"-0.003": 42.4872900055,
			"-0.002": 36.3684965631,
			"-0.001": 35.4566650663,
			"0.0": 35.4505892324,
			"0.001": 36.2086100186,
			"0.002": 29.3489949604,
			"0.003": 28.6460966419,
			"0.004": 27.2791257306,
			"0.005": 22.8967913214,
			"0.006": 5.84267438342,
			"0.007": 2.37185488426,
			"0.008": 2.0412267695,
			"0.009": 1.65945654155,
			"0.01": 1.27536164615,
			"0.011": 2.26065962231,
			"0.012": 2.4621693173,
			"0.013": 4.86552661209,
			"0.014": 3.5464312167,
			"0.015": 0.895829189508,
			"0.016": 0.00469955422304,
			"0.017": 0.0,
			"0.018": 0.0,
			"0.019": 0.0,
			"0.02": 0.0,
			"0.021": 0.0,
			"0.022": 0.0,
			"0.023": 0.0,
			"0.024": 0.0,
			"0.025": 0.0
		}
	}
}
