{
	 "smiles": "OC(=O)C1CCCN(C1)C(=O)NC1=CC=CC=C1", 
	 "Tm": 437.15, 
	 "num_atms": 34, 
	 "gaussian": { 
		 "optdone": 1, 
		 "sigma_profile": "yes", 
		 "theory": "DFT", 
		 "functional": "B3LYP", 
		 "basiset": "6-31G**", 
		 "properties": { 
			 "R2extent": 5785.8937, 
			 "electric_dipole_moment_norm": 2.67171453939, 
			 "electric_quadrupole_moment_norm": 18.7764799675, 
			 "total_energy": -840.236062379, 
			 "HOMO_LUMO_gap": 0.21175, 
			 "cosmo_polarized_energy": -17.71, 
			 "cosmo_cavitation_energy": 36.41, 
			 "cosmo_dispersion_energy": -25.4, 
			 "cosmo_repulsion_energy": 1.98, 
			 "cosmo_total_nonelectrostatic_energy": 12.99, 
			 "SMD_solvation_energy": 7.29 
		},
		"coords": [
			{
				"x": -1.3427836254,
				"y": -4.2360540843,
				"z": 2.2680908351,
				"element": "O" 
			},
			{
				"x": -0.6837377755,
				"y": -3.1953516409,
				"z": 1.7019784658,
				"element": "C" 
			},
			{
				"x": 0.3900663236,
				"y": -2.806705129,
				"z": 2.1076520791,
				"element": "O" 
			},
			{
				"x": -1.4630378918,
				"y": -2.6079645336,
				"z": 0.5443127335,
				"element": "C" 
			},
			{
				"x": -2.8407725517,
				"y": -2.0571162478,
				"z": 1.0126484969,
				"element": "C" 
			},
			{
				"x": -3.3331191965,
				"y": -0.9381172165,
				"z": 0.0682902355,
				"element": "C" 
			},
			{
				"x": -2.8278883531,
				"y": -1.1300293902,
				"z": -1.3605782632,
				"element": "C" 
			},
			{
				"x": -1.3560003622,
				"y": -1.0805507724,
				"z": -1.3794099752,
				"element": "N" 
			},
			{
				"x": -0.6425118851,
				"y": -1.5270551438,
				"z": -0.1735790194,
				"element": "C" 
			},
			{
				"x": -0.7834842752,
				"y": -1.054586501,
				"z": -2.6318214831,
				"element": "C" 
			},
			{
				"x": -1.446406957,
				"y": -1.1635753743,
				"z": -3.6597414121,
				"element": "O" 
			},
			{
				"x": 0.6142201594,
				"y": -0.9390092261,
				"z": -2.6990052313,
				"element": "N" 
			},
			{
				"x": 1.4609155437,
				"y": -0.0397429257,
				"z": -2.0031678607,
				"element": "C" 
			},
			{
				"x": 0.9780068669,
				"y": 1.0224676735,
				"z": -1.2250136716,
				"element": "C" 
			},
			{
				"x": 1.872557663,
				"y": 1.8802952297,
				"z": -0.584068165,
				"element": "C" 
			},
			{
				"x": 3.2505139113,
				"y": 1.7110278596,
				"z": -0.7213733246,
				"element": "C" 
			},
			{
				"x": 3.7314359045,
				"y": 0.6628031868,
				"z": -1.5091885836,
				"element": "C" 
			},
			{
				"x": 2.847792062,
				"y": -0.210734069,
				"z": -2.1380454991,
				"element": "C" 
			},
			{
				"x": -0.7859805083,
				"y": -4.5405873316,
				"z": 3.0046450571,
				"element": "H" 
			},
			{
				"x": -1.6439484812,
				"y": -3.428803514,
				"z": -0.1612796829,
				"element": "H" 
			},
			{
				"x": -3.5580348064,
				"y": -2.881962066,
				"z": 1.0499804991,
				"element": "H" 
			},
			{
				"x": -2.7625538034,
				"y": -1.6658534403,
				"z": 2.0329222283,
				"element": "H" 
			},
			{
				"x": -4.4271557679,
				"y": -0.902418155,
				"z": 0.0626645054,
				"element": "H" 
			},
			{
				"x": -2.9911278545,
				"y": 0.0376401221,
				"z": 0.4327393144,
				"element": "H" 
			},
			{
				"x": -3.2035923758,
				"y": -0.3475521913,
				"z": -2.0237402241,
				"element": "H" 
			},
			{
				"x": -3.1859648466,
				"y": -2.0831211164,
				"z": -1.7758221586,
				"element": "H" 
			},
			{
				"x": 0.329639611,
				"y": -1.9252242687,
				"z": -0.4627054824,
				"element": "H" 
			},
			{
				"x": -0.4484648563,
				"y": -0.6931096419,
				"z": 0.5115360616,
				"element": "H" 
			},
			{
				"x": 0.9128632605,
				"y": -1.1412917886,
				"z": -3.6449175756,
				"element": "H" 
			},
			{
				"x": -0.090725229,
				"y": 1.1803940876,
				"z": -1.1340786765,
				"element": "H" 
			},
			{
				"x": 1.4825422781,
				"y": 2.6976314786,
				"z": 0.0161584033,
				"element": "H" 
			},
			{
				"x": 3.939852992,
				"y": 2.3857548738,
				"z": -0.2234538301,
				"element": "H" 
			},
			{
				"x": 4.8011453076,
				"y": 0.5159109683,
				"z": -1.6285608477,
				"element": "H" 
			},
			{
				"x": 3.2248395194,
				"y": -1.0370097117,
				"z": -2.7349679484,
				"element": "H" 
			}
		],
		 "valence_orbital": [ 
			{
				"type": "occ",
				"energy": -0.28085,
				"method": "rhf"
			},
			{
				"type": "occ",
				"energy": -0.2589,
				"method": "rhf"
			},
			{
				"type": "occ",
				"energy": -0.25099,
				"method": "rhf"
			},
			{
				"type": "occ",
				"energy": -0.23497,
				"method": "rhf"
			},
			{
				"type": "occ",
				"energy": -0.21468,
				"method": "rhf"
			},
			{
				"type": "unocc",
				"energy": -0.00293,
				"method": "rhf"
			},
			{
				"type": "unocc",
				"energy": -0.00073,
				"method": "rhf"
			},
			{
				"type": "unocc",
				"energy": 0.00218,
				"method": "rhf"
			},
			{
				"type": "unocc",
				"energy": 0.05052,
				"method": "rhf"
			},
			{
				"type": "unocc",
				"energy": 0.06626,
				"method": "rhf"
			}
		],
		"cosmo_sigma_profile": { 
			"-0.025": 0.0,
			"-0.024": 0.0,
			"-0.023": 0.0,
			"-0.022": 0.0,
			"-0.021": 0.0,
			"-0.02": 0.0,
			"-0.019": 0.0,
			"-0.018": 0.702228815766,
			"-0.017": 1.19500656277,
			"-0.016": 0.683447423894,
			"-0.015": 0.686472512831,
			"-0.014": 0.841184268356,
			"-0.013": 1.48297986993,
			"-0.012": 2.02737241958,
			"-0.011": 1.43305456124,
			"-0.01": 1.92296107075,
			"-0.009": 1.54625791251,
			"-0.008": 1.37561566882,
			"-0.007": 3.46313459426,
			"-0.006": 10.1414815257,
			"-0.005": 18.6421136756,
			"-0.004": 29.80916859,
			"-0.003": 35.2044823456,
			"-0.002": 24.5833359594,
			"-0.001": 20.934815404,
			"0.0": 18.4395784585,
			"0.001": 14.1673642507,
			"0.002": 13.3092647358,
			"0.003": 12.1580075688,
			"0.004": 12.173818521,
			"0.005": 13.0007708036,
			"0.006": 9.82655829758,
			"0.007": 3.86556893472,
			"0.008": 4.48372085739,
			"0.009": 4.70887866088,
			"0.01": 2.79492245737,
			"0.011": 5.34899909268,
			"0.012": 5.42316646968,
			"0.013": 2.20924661801,
			"0.014": 5.89151605776,
			"0.015": 1.61678481253,
			"0.016": 0.0,
			"0.017": 0.0,
			"0.018": 0.0,
			"0.019": 0.0,
			"0.02": 0.0,
			"0.021": 0.0,
			"0.022": 0.0,
			"0.023": 0.0,
			"0.024": 0.0,
			"0.025": 0.0
		}
	}
}
