{
	 "smiles": "CC1=CC(=O)N(N)C(N)=C1", 
	 "Tm": 467.15, 
	 "num_atms": 19, 
	 "gaussian": { 
		 "optdone": 1, 
		 "sigma_profile": "yes", 
		 "theory": "DFT", 
		 "functional": "B3LYP", 
		 "basiset": "6-31G**", 
		 "properties": { 
			 "R2extent": 1463.8333, 
			 "electric_dipole_moment_norm": 4.20444238514, 
			 "electric_quadrupole_moment_norm": 8.62882632517, 
			 "total_energy": -473.53169615, 
			 "HOMO_LUMO_gap": 0.17895, 
			 "cosmo_polarized_energy": -14.64, 
			 "cosmo_cavitation_energy": 22.33, 
			 "cosmo_dispersion_energy": -16.9, 
			 "cosmo_repulsion_energy": 1.38, 
			 "cosmo_total_nonelectrostatic_energy": 6.81, 
			 "SMD_solvation_energy": 5.11 
		},
		"coords": [
			{
				"x": -2.3102254478,
				"y": -0.1094507209,
				"z": -2.0612127696,
				"element": "C" 
			},
			{
				"x": -1.2445332953,
				"y": -0.0094816532,
				"z": -0.9970294216,
				"element": "C" 
			},
			{
				"x": -1.0724655044,
				"y": 1.155807333,
				"z": -0.2807685974,
				"element": "C" 
			},
			{
				"x": -0.0668736931,
				"y": 1.2810098527,
				"z": 0.7308648659,
				"element": "C" 
			},
			{
				"x": 0.2203160163,
				"y": 2.2734305344,
				"z": 1.4078741251,
				"element": "O" 
			},
			{
				"x": 0.6967266804,
				"y": 0.0902880151,
				"z": 0.9451988241,
				"element": "N" 
			},
			{
				"x": 1.7388925458,
				"y": 0.1566821702,
				"z": 1.9013253913,
				"element": "N" 
			},
			{
				"x": 0.5611124569,
				"y": -1.0665961624,
				"z": 0.2209182114,
				"element": "C" 
			},
			{
				"x": 1.3901458041,
				"y": -2.1039727523,
				"z": 0.5722777617,
				"element": "N" 
			},
			{
				"x": -0.418342924,
				"y": -1.134284608,
				"z": -0.7530174054,
				"element": "C" 
			},
			{
				"x": -3.0194458863,
				"y": -0.9120264661,
				"z": -1.8278967229,
				"element": "H" 
			},
			{
				"x": -2.8700427068,
				"y": 0.8234790433,
				"z": -2.1580106832,
				"element": "H" 
			},
			{
				"x": -1.8677147229,
				"y": -0.3463312924,
				"z": -3.0357063569,
				"element": "H" 
			},
			{
				"x": -1.6846294361,
				"y": 2.0315725418,
				"z": -0.4608880529,
				"element": "H" 
			},
			{
				"x": 2.0054380702,
				"y": 1.1446492924,
				"z": 1.8972486733,
				"element": "H" 
			},
			{
				"x": 1.3100606346,
				"y": 0.0149834917,
				"z": 2.8185168639,
				"element": "H" 
			},
			{
				"x": 1.5158040844,
				"y": -2.8181422761,
				"z": -0.1289350108,
				"element": "H" 
			},
			{
				"x": 2.2251966909,
				"y": -1.8104229362,
				"z": 1.0657113393,
				"element": "H" 
			},
			{
				"x": -0.5459193667,
				"y": -2.0545934071,
				"z": -1.3117710353,
				"element": "H" 
			}
		],
		 "valence_orbital": [ 
			{
				"type": "occ",
				"energy": -0.30807,
				"method": "rhf"
			},
			{
				"type": "occ",
				"energy": -0.28055,
				"method": "rhf"
			},
			{
				"type": "occ",
				"energy": -0.25782,
				"method": "rhf"
			},
			{
				"type": "occ",
				"energy": -0.24476,
				"method": "rhf"
			},
			{
				"type": "occ",
				"energy": -0.19089,
				"method": "rhf"
			},
			{
				"type": "unocc",
				"energy": -0.01194,
				"method": "rhf"
			},
			{
				"type": "unocc",
				"energy": 0.03184,
				"method": "rhf"
			},
			{
				"type": "unocc",
				"energy": 0.07293,
				"method": "rhf"
			},
			{
				"type": "unocc",
				"energy": 0.08801,
				"method": "rhf"
			},
			{
				"type": "unocc",
				"energy": 0.11218,
				"method": "rhf"
			}
		],
		"cosmo_sigma_profile": { 
			"-0.025": 0.0,
			"-0.024": 0.0,
			"-0.023": 0.0,
			"-0.022": 0.0,
			"-0.021": 0.0,
			"-0.02": 0.0,
			"-0.019": 0.0,
			"-0.018": 0.0,
			"-0.017": 0.0,
			"-0.016": 0.0,
			"-0.015": 0.0170889194745,
			"-0.014": 0.876967984421,
			"-0.013": 2.0978553843,
			"-0.012": 2.92973584373,
			"-0.011": 3.41321829965,
			"-0.01": 4.78235572621,
			"-0.009": 4.1817050184,
			"-0.008": 4.19744155721,
			"-0.007": 3.57079351999,
			"-0.006": 4.53991515655,
			"-0.005": 7.16528083566,
			"-0.004": 12.8444477601,
			"-0.003": 10.601415808,
			"-0.002": 13.6649662482,
			"-0.001": 12.9998735339,
			"0.0": 15.1668130714,
			"0.001": 9.58114691598,
			"0.002": 7.01274179916,
			"0.003": 8.78650436352,
			"0.004": 9.36921946007,
			"0.005": 10.1009026107,
			"0.006": 4.50037026881,
			"0.007": 2.35210477771,
			"0.008": 2.36053297835,
			"0.009": 2.34320248445,
			"0.01": 2.34192546378,
			"0.011": 1.61236855179,
			"0.012": 1.48464922813,
			"0.013": 2.37421409349,
			"0.014": 3.1079137413,
			"0.015": 4.03101985918,
			"0.016": 1.60223299309,
			"0.017": 0.0361727532659,
			"0.018": 0.0,
			"0.019": 0.0,
			"0.02": 0.0,
			"0.021": 0.0,
			"0.022": 0.0,
			"0.023": 0.0,
			"0.024": 0.0,
			"0.025": 0.0
		}
	}
}
