{
	 "smiles": "CC1=NC(SCC(O)=O)=C(C#N)C(=C1)C(F)(F)F", 
	 "Tm": 406.15, 
	 "num_atms": 25, 
	 "gaussian": { 
		 "optdone": 1, 
		 "sigma_profile": "yes", 
		 "theory": "DFT", 
		 "functional": "B3LYP", 
		 "basiset": "6-31G**", 
		 "properties": { 
			 "R2extent": 6122.2872, 
			 "electric_dipole_moment_norm": 6.57215593546, 
			 "electric_quadrupole_moment_norm": 24.9436728164, 
			 "total_energy": -1342.94064951, 
			 "HOMO_LUMO_gap": 0.15381, 
			 "cosmo_polarized_energy": -19.61, 
			 "cosmo_cavitation_energy": 33.78, 
			 "cosmo_dispersion_energy": -23.27, 
			 "cosmo_repulsion_energy": 1.69, 
			 "cosmo_total_nonelectrostatic_energy": 12.2, 
			 "SMD_solvation_energy": 8.61 
		},
		"coords": [
			{
				"x": 0.7815852731,
				"y": -2.9255968136,
				"z": 0.3204132413,
				"element": "C" 
			},
			{
				"x": 0.1772885756,
				"y": -1.6500629848,
				"z": 0.8379425515,
				"element": "C" 
			},
			{
				"x": 0.6224258292,
				"y": -0.5055946566,
				"z": 0.2865624711,
				"element": "N" 
			},
			{
				"x": 0.1355214747,
				"y": 0.6742210318,
				"z": 0.6830953554,
				"element": "C" 
			},
			{
				"x": 0.730375894,
				"y": 2.1649529503,
				"z": -0.0652663198,
				"element": "S" 
			},
			{
				"x": 1.529095435,
				"y": 1.5577989601,
				"z": -1.6084276889,
				"element": "C" 
			},
			{
				"x": 2.9749553274,
				"y": 1.0607732946,
				"z": -1.4676556832,
				"element": "C" 
			},
			{
				"x": 3.1287936053,
				"y": -0.0714868305,
				"z": -0.769727512,
				"element": "O" 
			},
			{
				"x": 3.8990050529,
				"y": 1.6427460262,
				"z": -1.9819990874,
				"element": "O" 
			},
			{
				"x": -0.8426938228,
				"y": 0.7715986818,
				"z": 1.7080240143,
				"element": "C" 
			},
			{
				"x": -1.3385122836,
				"y": 2.0513464327,
				"z": 2.1088150182,
				"element": "C" 
			},
			{
				"x": -1.7199121378,
				"y": 3.1066494973,
				"z": 2.4140886192,
				"element": "N" 
			},
			{
				"x": -1.2940398209,
				"y": -0.4227103288,
				"z": 2.2914058914,
				"element": "C" 
			},
			{
				"x": -0.7872545679,
				"y": -1.6396355648,
				"z": 1.8484783718,
				"element": "C" 
			},
			{
				"x": -2.3392252865,
				"y": -0.3907987664,
				"z": 3.391763213,
				"element": "C" 
			},
			{
				"x": -1.9014171341,
				"y": 0.3142009353,
				"z": 4.449375443,
				"element": "F" 
			},
			{
				"x": -2.6372806503,
				"y": -1.6333091602,
				"z": 3.8187010581,
				"element": "F" 
			},
			{
				"x": -3.4771073402,
				"y": 0.1782083883,
				"z": 2.9555481381,
				"element": "F" 
			},
			{
				"x": 0.3828806438,
				"y": -3.798249712,
				"z": 0.8408667186,
				"element": "H" 
			},
			{
				"x": 1.8695162527,
				"y": -2.9100321919,
				"z": 0.4446603227,
				"element": "H" 
			},
			{
				"x": 0.5807901685,
				"y": -3.0340467565,
				"z": -0.7505669299,
				"element": "H" 
			},
			{
				"x": 1.5380335679,
				"y": 2.4297950698,
				"z": -2.2628732619,
				"element": "H" 
			},
			{
				"x": 0.8881898789,
				"y": 0.7853084983,
				"z": -2.0429753705,
				"element": "H" 
			},
			{
				"x": 2.2460194058,
				"y": -0.3737289582,
				"z": -0.4377464751,
				"element": "H" 
			},
			{
				"x": -1.1317333406,
				"y": -2.5656470421,
				"z": 2.2895979009,
				"element": "H" 
			}
		],
		 "valence_orbital": [ 
			{
				"type": "occ",
				"energy": -0.32232,
				"method": "rhf"
			},
			{
				"type": "occ",
				"energy": -0.31493,
				"method": "rhf"
			},
			{
				"type": "occ",
				"energy": -0.31044,
				"method": "rhf"
			},
			{
				"type": "occ",
				"energy": -0.27977,
				"method": "rhf"
			},
			{
				"type": "occ",
				"energy": -0.25702,
				"method": "rhf"
			},
			{
				"type": "unocc",
				"energy": -0.10321,
				"method": "rhf"
			},
			{
				"type": "unocc",
				"energy": -0.07618,
				"method": "rhf"
			},
			{
				"type": "unocc",
				"energy": -0.02496,
				"method": "rhf"
			},
			{
				"type": "unocc",
				"energy": 0.00466,
				"method": "rhf"
			},
			{
				"type": "unocc",
				"energy": 0.02517,
				"method": "rhf"
			}
		],
		"cosmo_sigma_profile": { 
			"-0.025": 0.0,
			"-0.024": 0.0,
			"-0.023": 0.0,
			"-0.022": 0.0,
			"-0.021": 0.0,
			"-0.02": 0.0,
			"-0.019": 0.0,
			"-0.018": 0.0,
			"-0.017": 0.0,
			"-0.016": 0.0,
			"-0.015": 0.0,
			"-0.014": 0.0,
			"-0.013": 0.0,
			"-0.012": 0.0,
			"-0.011": 0.0,
			"-0.01": 0.486668823224,
			"-0.009": 6.13148811836,
			"-0.008": 7.15350680765,
			"-0.007": 8.46416400604,
			"-0.006": 14.5529456893,
			"-0.005": 19.7093378832,
			"-0.004": 29.647297678,
			"-0.003": 23.9831704639,
			"-0.002": 19.2814062665,
			"-0.001": 12.0598833576,
			"0.0": 11.4201353499,
			"0.001": 22.5986316633,
			"0.002": 30.2472030499,
			"0.003": 9.85968409286,
			"0.004": 7.55241532848,
			"0.005": 6.32033353366,
			"0.006": 3.45304509165,
			"0.007": 5.72782976293,
			"0.008": 5.39682157341,
			"0.009": 5.99289944347,
			"0.01": 6.75608141049,
			"0.011": 9.18385077858,
			"0.012": 6.11791642638,
			"0.013": 1.8744982593,
			"0.014": 0.0427149378737,
			"0.015": 0.0,
			"0.016": 0.0,
			"0.017": 0.0,
			"0.018": 0.0,
			"0.019": 0.0,
			"0.02": 0.0,
			"0.021": 0.0,
			"0.022": 0.0,
			"0.023": 0.0,
			"0.024": 0.0,
			"0.025": 0.0
		}
	}
}
