{
	 "smiles": "COC(=O)C1=CC(F)=C(N)C=C1", 
	 "Tm": 385.15, 
	 "num_atms": 20, 
	 "gaussian": { 
		 "optdone": 1, 
		 "sigma_profile": "yes", 
		 "theory": "DFT", 
		 "functional": "B3LYP", 
		 "basiset": "6-31G**", 
		 "properties": { 
			 "R2extent": 2995.1386, 
			 "electric_dipole_moment_norm": 3.64575692827, 
			 "electric_quadrupole_moment_norm": 15.1675175177, 
			 "total_energy": -614.722517473, 
			 "HOMO_LUMO_gap": 0.18124, 
			 "cosmo_polarized_energy": -11.67, 
			 "cosmo_cavitation_energy": 25.07, 
			 "cosmo_dispersion_energy": -18.49, 
			 "cosmo_repulsion_energy": 1.46, 
			 "cosmo_total_nonelectrostatic_energy": 8.04, 
			 "SMD_solvation_energy": 6.33 
		},
		"coords": [
			{
				"x": 1.2600354749,
				"y": 2.8813288267,
				"z": 1.7671922664,
				"element": "C" 
			},
			{
				"x": 0.967479142,
				"y": 2.2502477334,
				"z": 0.5131367852,
				"element": "O" 
			},
			{
				"x": 0.0591999655,
				"y": 1.2442674464,
				"z": 0.5742593043,
				"element": "C" 
			},
			{
				"x": -0.470979331,
				"y": 0.8974067468,
				"z": 1.6139386084,
				"element": "O" 
			},
			{
				"x": -0.2013164276,
				"y": 0.6339240455,
				"z": -0.7500559008,
				"element": "C" 
			},
			{
				"x": -1.1264595047,
				"y": -0.4224111882,
				"z": -0.8122963526,
				"element": "C" 
			},
			{
				"x": -1.3914246515,
				"y": -1.0119651431,
				"z": -2.026836997,
				"element": "C" 
			},
			{
				"x": -2.2724486417,
				"y": -2.0444599753,
				"z": -2.1111824484,
				"element": "F" 
			},
			{
				"x": -0.7750590813,
				"y": -0.6072547199,
				"z": -3.2258739847,
				"element": "C" 
			},
			{
				"x": -1.1309230611,
				"y": -1.213793622,
				"z": -4.4144782065,
				"element": "N" 
			},
			{
				"x": 0.1500793408,
				"y": 0.4479408489,
				"z": -3.144972567,
				"element": "C" 
			},
			{
				"x": 0.4316472008,
				"y": 1.057821188,
				"z": -1.9270477197,
				"element": "C" 
			},
			{
				"x": 0.3577117972,
				"y": 3.3229428713,
				"z": 2.1980789234,
				"element": "H" 
			},
			{
				"x": 1.9948435052,
				"y": 3.6551807312,
				"z": 1.5436768765,
				"element": "H" 
			},
			{
				"x": 1.6690039471,
				"y": 2.1587249935,
				"z": 2.4781954981,
				"element": "H" 
			},
			{
				"x": -1.6201331002,
				"y": -0.7677766517,
				"z": 0.0886868339,
				"element": "H" 
			},
			{
				"x": -1.5956375862,
				"y": -2.1055413187,
				"z": -4.3262969282,
				"element": "H" 
			},
			{
				"x": -0.4646107918,
				"y": -1.1617419482,
				"z": -5.170143253,
				"element": "H" 
			},
			{
				"x": 0.6423461727,
				"y": 0.7877306922,
				"z": -4.0521706155,
				"element": "H" 
			},
			{
				"x": 1.1474456309,
				"y": 1.8701284432,
				"z": -1.8832101227,
				"element": "H" 
			}
		],
		 "valence_orbital": [ 
			{
				"type": "occ",
				"energy": -0.31772,
				"method": "rhf"
			},
			{
				"type": "occ",
				"energy": -0.2942,
				"method": "rhf"
			},
			{
				"type": "occ",
				"energy": -0.26615,
				"method": "rhf"
			},
			{
				"type": "occ",
				"energy": -0.2531,
				"method": "rhf"
			},
			{
				"type": "occ",
				"energy": -0.21445,
				"method": "rhf"
			},
			{
				"type": "unocc",
				"energy": -0.03321,
				"method": "rhf"
			},
			{
				"type": "unocc",
				"energy": -0.00205,
				"method": "rhf"
			},
			{
				"type": "unocc",
				"energy": 0.06687,
				"method": "rhf"
			},
			{
				"type": "unocc",
				"energy": 0.07734,
				"method": "rhf"
			},
			{
				"type": "unocc",
				"energy": 0.09516,
				"method": "rhf"
			}
		],
		"cosmo_sigma_profile": { 
			"-0.025": 0.0,
			"-0.024": 0.0,
			"-0.023": 0.0,
			"-0.022": 0.0,
			"-0.021": 0.0,
			"-0.02": 0.0,
			"-0.019": 0.0,
			"-0.018": 0.0,
			"-0.017": 0.0,
			"-0.016": 0.0,
			"-0.015": 0.0,
			"-0.014": 0.561934772811,
			"-0.013": 1.86175565724,
			"-0.012": 2.61149070634,
			"-0.011": 2.25625510007,
			"-0.01": 3.06164584699,
			"-0.009": 2.55580886574,
			"-0.008": 2.14256052027,
			"-0.007": 3.8018279696,
			"-0.006": 8.77781296752,
			"-0.005": 12.2742500588,
			"-0.004": 13.0964390801,
			"-0.003": 14.0407066745,
			"-0.002": 11.0892357463,
			"-0.001": 10.1467210944,
			"0.0": 11.4950001364,
			"0.001": 16.7985015724,
			"0.002": 18.2807444066,
			"0.003": 17.6601799836,
			"0.004": 18.0880574552,
			"0.005": 6.44610335007,
			"0.006": 4.51622875688,
			"0.007": 2.43983058556,
			"0.008": 2.04835169961,
			"0.009": 1.87666422146,
			"0.01": 2.66711512058,
			"0.011": 2.71755549196,
			"0.012": 4.8188074682,
			"0.013": 1.76188810474,
			"0.014": 0.0,
			"0.015": 0.0,
			"0.016": 0.0,
			"0.017": 0.0,
			"0.018": 0.0,
			"0.019": 0.0,
			"0.02": 0.0,
			"0.021": 0.0,
			"0.022": 0.0,
			"0.023": 0.0,
			"0.024": 0.0,
			"0.025": 0.0
		}
	}
}
