{
	 "smiles": "CSC1=C(C(=O)NC2=CC=C(Cl)C=C2)C(SC)=NS1", 
	 "Tm": 442.15, 
	 "num_atms": 30, 
	 "gaussian": { 
		 "optdone": 1, 
		 "sigma_profile": "yes", 
		 "theory": "DFT", 
		 "functional": "B3LYP", 
		 "basiset": "6-31G**", 
		 "properties": { 
			 "R2extent": 10112.3017, 
			 "electric_dipole_moment_norm": 3.37590934416, 
			 "electric_quadrupole_moment_norm": 18.0342710842, 
			 "total_energy": -2303.38664684, 
			 "HOMO_LUMO_gap": 0.16303, 
			 "cosmo_polarized_energy": -12.74, 
			 "cosmo_cavitation_energy": 40.64, 
			 "cosmo_dispersion_energy": -30.37, 
			 "cosmo_repulsion_energy": 2.22, 
			 "cosmo_total_nonelectrostatic_energy": 12.48, 
			 "SMD_solvation_energy": 5.77 
		},
		"coords": [
			{
				"x": 2.9444975726,
				"y": -0.6156961465,
				"z": 1.099720716,
				"element": "C" 
			},
			{
				"x": 3.2744415084,
				"y": 1.0887690481,
				"z": 0.5235988299,
				"element": "S" 
			},
			{
				"x": 1.7727658029,
				"y": 1.958684783,
				"z": 0.8123121212,
				"element": "C" 
			},
			{
				"x": 0.4267688412,
				"y": 1.6739137158,
				"z": 0.6169361177,
				"element": "C" 
			},
			{
				"x": -0.0660585702,
				"y": 0.3877649752,
				"z": 0.0293613393,
				"element": "C" 
			},
			{
				"x": 0.5975642858,
				"y": -0.2450652353,
				"z": -0.7872557673,
				"element": "O" 
			},
			{
				"x": -1.2920669653,
				"y": -0.0286278678,
				"z": 0.4951741602,
				"element": "N" 
			},
			{
				"x": -2.0455009216,
				"y": -1.1554037867,
				"z": 0.1051166008,
				"element": "C" 
			},
			{
				"x": -1.642024581,
				"y": -2.0558969256,
				"z": -0.8934041343,
				"element": "C" 
			},
			{
				"x": -2.455160206,
				"y": -3.1419478078,
				"z": -1.2153147874,
				"element": "C" 
			},
			{
				"x": -3.6633493454,
				"y": -3.3363194379,
				"z": -0.5496411178,
				"element": "C" 
			},
			{
				"x": -4.678093888,
				"y": -4.7113997744,
				"z": -0.962391721,
				"element": "Cl" 
			},
			{
				"x": -4.076169783,
				"y": -2.4491408699,
				"z": 0.4438857475,
				"element": "C" 
			},
			{
				"x": -3.2671721667,
				"y": -1.3647709063,
				"z": 0.7657728572,
				"element": "C" 
			},
			{
				"x": -0.3629462961,
				"y": 2.840156316,
				"z": 0.9634352273,
				"element": "C" 
			},
			{
				"x": -2.1371570535,
				"y": 2.924732076,
				"z": 0.785175126,
				"element": "S" 
			},
			{
				"x": -2.4628045659,
				"y": 4.5732147509,
				"z": 1.4951122981,
				"element": "C" 
			},
			{
				"x": 0.2795269306,
				"y": 3.9061227545,
				"z": 1.3825937209,
				"element": "N" 
			},
			{
				"x": 1.9222140051,
				"y": 3.5711049423,
				"z": 1.4370172625,
				"element": "S" 
			},
			{
				"x": 2.5393727652,
				"y": -0.604773919,
				"z": 2.1131343349,
				"element": "H" 
			},
			{
				"x": 3.923094836,
				"y": -1.1009252249,
				"z": 1.1093318989,
				"element": "H" 
			},
			{
				"x": 2.273897871,
				"y": -1.1260648146,
				"z": 0.4103734079,
				"element": "H" 
			},
			{
				"x": -1.7239490074,
				"y": 0.5443130338,
				"z": 1.2097396201,
				"element": "H" 
			},
			{
				"x": -0.7033321059,
				"y": -1.9006721309,
				"z": -1.4046755981,
				"element": "H" 
			},
			{
				"x": -2.1444441676,
				"y": -3.8373375257,
				"z": -1.9873099194,
				"element": "H" 
			},
			{
				"x": -5.0178889548,
				"y": -2.6035070422,
				"z": 0.9585242507,
				"element": "H" 
			},
			{
				"x": -3.5894089123,
				"y": -0.6712504,
				"z": 1.5384397002,
				"element": "H" 
			},
			{
				"x": -2.1307370306,
				"y": 4.6181490762,
				"z": 2.5325028275,
				"element": "H" 
			},
			{
				"x": -3.5446516907,
				"y": 4.7079759179,
				"z": 1.4363221522,
				"element": "H" 
			},
			{
				"x": -1.9531282068,
				"y": 5.3405984256,
				"z": 0.9129127283,
				"element": "H" 
			}
		],
		 "valence_orbital": [ 
			{
				"type": "occ",
				"energy": -0.26821,
				"method": "rhf"
			},
			{
				"type": "occ",
				"energy": -0.26651,
				"method": "rhf"
			},
			{
				"type": "occ",
				"energy": -0.24601,
				"method": "rhf"
			},
			{
				"type": "occ",
				"energy": -0.23355,
				"method": "rhf"
			},
			{
				"type": "occ",
				"energy": -0.22513,
				"method": "rhf"
			},
			{
				"type": "unocc",
				"energy": -0.0621,
				"method": "rhf"
			},
			{
				"type": "unocc",
				"energy": -0.02756,
				"method": "rhf"
			},
			{
				"type": "unocc",
				"energy": -0.01696,
				"method": "rhf"
			},
			{
				"type": "unocc",
				"energy": -0.01256,
				"method": "rhf"
			},
			{
				"type": "unocc",
				"energy": 0.00832,
				"method": "rhf"
			}
		],
		"cosmo_sigma_profile": { 
			"-0.025": 0.0,
			"-0.024": 0.0,
			"-0.023": 0.0,
			"-0.022": 0.0,
			"-0.021": 0.0,
			"-0.02": 0.0,
			"-0.019": 0.0,
			"-0.018": 0.0,
			"-0.017": 0.0,
			"-0.016": 0.0,
			"-0.015": 0.0,
			"-0.014": 0.0,
			"-0.013": 0.60575630679,
			"-0.012": 0.746585558398,
			"-0.011": 1.2353431985,
			"-0.01": 1.26965188397,
			"-0.009": 1.15676477922,
			"-0.008": 4.13223683799,
			"-0.007": 11.2995989255,
			"-0.006": 15.2810307768,
			"-0.005": 15.6684380494,
			"-0.004": 17.8293902065,
			"-0.003": 24.1285034813,
			"-0.002": 30.0117344232,
			"-0.001": 28.492417022,
			"0.0": 27.7516981511,
			"0.001": 28.5058200674,
			"0.002": 33.110036652,
			"0.003": 29.5956317129,
			"0.004": 22.53868822,
			"0.005": 15.7156289882,
			"0.006": 6.61509938342,
			"0.007": 5.07681907432,
			"0.008": 3.27072286935,
			"0.009": 2.8307312141,
			"0.01": 1.94179860062,
			"0.011": 2.97155516398,
			"0.012": 1.6538504196,
			"0.013": 1.00171737346,
			"0.014": 0.043662314022,
			"0.015": 0.0,
			"0.016": 0.0,
			"0.017": 0.0,
			"0.018": 0.0,
			"0.019": 0.0,
			"0.02": 0.0,
			"0.021": 0.0,
			"0.022": 0.0,
			"0.023": 0.0,
			"0.024": 0.0,
			"0.025": 0.0
		}
	}
}
