{
	 "smiles": "ClC1=CC(=CC=C1)N1CCC(Br)C1=O", 
	 "Tm": 363.15, 
	 "num_atms": 23, 
	 "gaussian": { 
		 "optdone": 1, 
		 "sigma_profile": "yes", 
		 "theory": "DFT", 
		 "functional": "B3LYP", 
		 "basiset": "6-31G**", 
		 "properties": { 
			 "R2extent": 5460.4756, 
			 "electric_dipole_moment_norm": 3.07714275424, 
			 "electric_quadrupole_moment_norm": 17.5627631724, 
			 "total_energy": -3548.07932616, 
			 "HOMO_LUMO_gap": 0.18065, 
			 "cosmo_polarized_energy": -11.56, 
			 "cosmo_cavitation_energy": 30.3, 
			 "cosmo_dispersion_energy": -22.74, 
			 "cosmo_repulsion_energy": 1.79, 
			 "cosmo_total_nonelectrostatic_energy": 9.34, 
			 "SMD_solvation_energy": 3.54 
		},
		"coords": [
			{
				"x": 2.1889276295,
				"y": 1.1013174981,
				"z": -3.4971110342,
				"element": "Cl" 
			},
			{
				"x": 0.9551589249,
				"y": 1.5119331263,
				"z": -2.3109506097,
				"element": "C" 
			},
			{
				"x": 0.4202819447,
				"y": 0.4926844355,
				"z": -1.5271106192,
				"element": "C" 
			},
			{
				"x": -0.566763032,
				"y": 0.797242649,
				"z": -0.5738546749,
				"element": "C" 
			},
			{
				"x": -0.9923069514,
				"y": 2.1302615014,
				"z": -0.4250805038,
				"element": "C" 
			},
			{
				"x": -0.4318183,
				"y": 3.1230050161,
				"z": -1.2240612873,
				"element": "C" 
			},
			{
				"x": 0.5446977052,
				"y": 2.8347531097,
				"z": -2.1788902285,
				"element": "C" 
			},
			{
				"x": -1.1119007623,
				"y": -0.2517010464,
				"z": 0.2034376141,
				"element": "N" 
			},
			{
				"x": -0.8045170133,
				"y": -1.6608792351,
				"z": -0.0798625375,
				"element": "C" 
			},
			{
				"x": -1.8347716236,
				"y": -2.4288977842,
				"z": 0.760943097,
				"element": "C" 
			},
			{
				"x": -2.0852003837,
				"y": -1.4999753441,
				"z": 1.9366782225,
				"element": "C" 
			},
			{
				"x": -0.7400770992,
				"y": -1.7831184604,
				"z": 3.3826767756,
				"element": "Br" 
			},
			{
				"x": -1.8636918073,
				"y": -0.0997125004,
				"z": 1.3615560334,
				"element": "C" 
			},
			{
				"x": -2.2868919066,
				"y": 0.9343647478,
				"z": 1.8432639499,
				"element": "O" 
			},
			{
				"x": 0.7881596534,
				"y": -0.5158020688,
				"z": -1.6596769948,
				"element": "H" 
			},
			{
				"x": -1.7420198301,
				"y": 2.371022551,
				"z": 0.3135590108,
				"element": "H" 
			},
			{
				"x": -0.7678365502,
				"y": 4.1482744084,
				"z": -1.1009681607,
				"element": "H" 
			},
			{
				"x": 0.9756383764,
				"y": 3.6104295301,
				"z": -2.8009748814,
				"element": "H" 
			},
			{
				"x": -0.9087796022,
				"y": -1.866648528,
				"z": -1.148237792,
				"element": "H" 
			},
			{
				"x": 0.2220918756,
				"y": -1.9010870072,
				"z": 0.2236289082,
				"element": "H" 
			},
			{
				"x": -2.7701061239,
				"y": -2.5309258024,
				"z": 0.197236552,
				"element": "H" 
			},
			{
				"x": -1.4951445397,
				"y": -3.4247367985,
				"z": 1.0471211714,
				"element": "H" 
			},
			{
				"x": -3.0491305843,
				"y": -1.5873039979,
				"z": 2.4308779892,
				"element": "H" 
			}
		],
		 "valence_orbital": [ 
			{
				"type": "occ",
				"energy": -0.29266,
				"method": "rhf"
			},
			{
				"type": "occ",
				"energy": -0.28687,
				"method": "rhf"
			},
			{
				"type": "occ",
				"energy": -0.26496,
				"method": "rhf"
			},
			{
				"type": "occ",
				"energy": -0.25479,
				"method": "rhf"
			},
			{
				"type": "occ",
				"energy": -0.23275,
				"method": "rhf"
			},
			{
				"type": "unocc",
				"energy": -0.0521,
				"method": "rhf"
			},
			{
				"type": "unocc",
				"energy": -0.01623,
				"method": "rhf"
			},
			{
				"type": "unocc",
				"energy": -0.00631,
				"method": "rhf"
			},
			{
				"type": "unocc",
				"energy": 0.02524,
				"method": "rhf"
			},
			{
				"type": "unocc",
				"energy": 0.04362,
				"method": "rhf"
			}
		],
		"cosmo_sigma_profile": { 
			"-0.025": 0.0,
			"-0.024": 0.0,
			"-0.023": 0.0,
			"-0.022": 0.0,
			"-0.021": 0.0,
			"-0.02": 0.0,
			"-0.019": 0.0,
			"-0.018": 0.0,
			"-0.017": 0.0,
			"-0.016": 0.0,
			"-0.015": 0.0,
			"-0.014": 0.0,
			"-0.013": 0.0,
			"-0.012": 0.0,
			"-0.011": 0.0,
			"-0.01": 0.0242526926137,
			"-0.009": 1.89165922381,
			"-0.008": 5.92950488733,
			"-0.007": 11.6861147884,
			"-0.006": 18.5308589046,
			"-0.005": 16.4013862954,
			"-0.004": 16.050088096,
			"-0.003": 14.3575800957,
			"-0.002": 13.5134427149,
			"-0.001": 11.9401613235,
			"0.0": 14.1966530665,
			"0.001": 17.5804411834,
			"0.002": 20.4817143169,
			"0.003": 25.4549395559,
			"0.004": 23.1203516624,
			"0.005": 18.595922016,
			"0.006": 4.31552569256,
			"0.007": 1.46634655717,
			"0.008": 1.23210616232,
			"0.009": 1.7531582695,
			"0.01": 2.19199746164,
			"0.011": 2.51061559282,
			"0.012": 2.97641514567,
			"0.013": 1.22941997866,
			"0.014": 0.00911320728669,
			"0.015": 0.0,
			"0.016": 0.0,
			"0.017": 0.0,
			"0.018": 0.0,
			"0.019": 0.0,
			"0.02": 0.0,
			"0.021": 0.0,
			"0.022": 0.0,
			"0.023": 0.0,
			"0.024": 0.0,
			"0.025": 0.0
		}
	}
}
