{
	 "smiles": "OC(=O)C1=CNC2=C1C=CC=N2", 
	 "Tm": 487.15, 
	 "num_atms": 18, 
	 "gaussian": { 
		 "optdone": 1, 
		 "sigma_profile": "yes", 
		 "theory": "DFT", 
		 "functional": "B3LYP", 
		 "basiset": "6-31G**", 
		 "properties": { 
			 "R2extent": 2043.7958, 
			 "electric_dipole_moment_norm": 0.873376665592, 
			 "electric_quadrupole_moment_norm": 13.3680180685, 
			 "total_energy": -568.442712776, 
			 "HOMO_LUMO_gap": 0.18775, 
			 "cosmo_polarized_energy": -14.15, 
			 "cosmo_cavitation_energy": 22.96, 
			 "cosmo_dispersion_energy": -17.36, 
			 "cosmo_repulsion_energy": 1.37, 
			 "cosmo_total_nonelectrostatic_energy": 6.97, 
			 "SMD_solvation_energy": 3.55 
		},
		"coords": [
			{
				"x": -1.4502865739,
				"y": 1.7875387796,
				"z": 1.9662100137,
				"element": "O" 
			},
			{
				"x": -1.8502574123,
				"y": 0.6422699512,
				"z": 1.3470193337,
				"element": "C" 
			},
			{
				"x": -3.0014387903,
				"y": 0.2488481554,
				"z": 1.4014864736,
				"element": "O" 
			},
			{
				"x": -0.7601893733,
				"y": -0.0217455079,
				"z": 0.6371181328,
				"element": "C" 
			},
			{
				"x": -0.9364891676,
				"y": -1.200083817,
				"z": -0.0634695912,
				"element": "C" 
			},
			{
				"x": 0.2475315824,
				"y": -1.5878062287,
				"z": -0.6228492558,
				"element": "N" 
			},
			{
				"x": 1.2318976955,
				"y": -0.6673351904,
				"z": -0.2999101505,
				"element": "C" 
			},
			{
				"x": 0.6298620965,
				"y": 0.3410661382,
				"z": 0.4989454924,
				"element": "C" 
			},
			{
				"x": 1.4678104445,
				"y": 1.376062186,
				"z": 0.9332215527,
				"element": "C" 
			},
			{
				"x": 2.8037881926,
				"y": 1.3219795262,
				"z": 0.545131693,
				"element": "C" 
			},
			{
				"x": 3.2694040919,
				"y": 0.2597825865,
				"z": -0.2516419021,
				"element": "C" 
			},
			{
				"x": 2.5012050234,
				"y": -0.7458594294,
				"z": -0.6858458075,
				"element": "N" 
			},
			{
				"x": -2.2452475406,
				"y": 2.139857691,
				"z": 2.3994456882,
				"element": "H" 
			},
			{
				"x": -1.8438281382,
				"y": -1.7728869659,
				"z": -0.1863805313,
				"element": "H" 
			},
			{
				"x": 0.4060607611,
				"y": -2.4095268557,
				"z": -1.1858264367,
				"element": "H" 
			},
			{
				"x": 1.0821341397,
				"y": 2.1826566037,
				"z": 1.5467231442,
				"element": "H" 
			},
			{
				"x": 3.4983762808,
				"y": 2.0970145957,
				"z": 0.8525595946,
				"element": "H" 
			},
			{
				"x": 4.3146666876,
				"y": 0.2241677814,
				"z": -0.5510374438,
				"element": "H" 
			}
		],
		 "valence_orbital": [ 
			{
				"type": "occ",
				"energy": -0.30668,
				"method": "rhf"
			},
			{
				"type": "occ",
				"energy": -0.27798,
				"method": "rhf"
			},
			{
				"type": "occ",
				"energy": -0.26384,
				"method": "rhf"
			},
			{
				"type": "occ",
				"energy": -0.24646,
				"method": "rhf"
			},
			{
				"type": "occ",
				"energy": -0.23027,
				"method": "rhf"
			},
			{
				"type": "unocc",
				"energy": -0.04252,
				"method": "rhf"
			},
			{
				"type": "unocc",
				"energy": -0.01088,
				"method": "rhf"
			},
			{
				"type": "unocc",
				"energy": 0.01159,
				"method": "rhf"
			},
			{
				"type": "unocc",
				"energy": 0.0746,
				"method": "rhf"
			},
			{
				"type": "unocc",
				"energy": 0.0848,
				"method": "rhf"
			}
		],
		"cosmo_sigma_profile": { 
			"-0.025": 0.0,
			"-0.024": 0.0,
			"-0.023": 0.0,
			"-0.022": 0.0,
			"-0.021": 0.0,
			"-0.02": 0.0,
			"-0.019": 0.0,
			"-0.018": 0.406338773524,
			"-0.017": 1.65748581757,
			"-0.016": 2.89630165274,
			"-0.015": 1.86457471865,
			"-0.014": 1.55351128857,
			"-0.013": 1.61515231667,
			"-0.012": 1.53682758826,
			"-0.011": 2.00378589561,
			"-0.01": 2.85321494937,
			"-0.009": 3.2489470493,
			"-0.008": 2.80862407859,
			"-0.007": 3.96473795661,
			"-0.006": 7.72845975786,
			"-0.005": 7.67047147476,
			"-0.004": 8.02643319001,
			"-0.003": 7.25911788923,
			"-0.002": 7.36475561188,
			"-0.001": 8.10414449006,
			"0.0": 13.659886888,
			"0.001": 18.7497912134,
			"0.002": 19.4829793102,
			"0.003": 17.1307917789,
			"0.004": 8.26615243043,
			"0.005": 5.06339202425,
			"0.006": 4.36246734575,
			"0.007": 3.47925470956,
			"0.008": 2.83118386898,
			"0.009": 2.14542419026,
			"0.01": 2.25096158281,
			"0.011": 3.39926654029,
			"0.012": 6.31545022147,
			"0.013": 3.10161851097,
			"0.014": 0.715641950335,
			"0.015": 0.918791420604,
			"0.016": 0.122147956434,
			"0.017": 0.0,
			"0.018": 0.0,
			"0.019": 0.0,
			"0.02": 0.0,
			"0.021": 0.0,
			"0.022": 0.0,
			"0.023": 0.0,
			"0.024": 0.0,
			"0.025": 0.0
		}
	}
}
