{
	 "smiles": "CSC1=CC=C(S1)C(O)=O", 
	 "Tm": 377.15, 
	 "num_atms": 16, 
	 "gaussian": { 
		 "optdone": 1, 
		 "sigma_profile": "yes", 
		 "theory": "DFT", 
		 "functional": "B3LYP", 
		 "basiset": "6-31G**", 
		 "properties": { 
			 "R2extent": 2516.4361, 
			 "electric_dipole_moment_norm": 4.33345715451, 
			 "electric_quadrupole_moment_norm": 25.2133373009, 
			 "total_energy": -1179.06627895, 
			 "HOMO_LUMO_gap": 0.1627, 
			 "cosmo_polarized_energy": -16.13, 
			 "cosmo_cavitation_energy": 23.63, 
			 "cosmo_dispersion_energy": -18.55, 
			 "cosmo_repulsion_energy": 1.41, 
			 "cosmo_total_nonelectrostatic_energy": 6.49, 
			 "SMD_solvation_energy": 5.15 
		},
		"coords": [
			{
				"x": 1.8722427935,
				"y": -2.7538787712,
				"z": 0.5121180999,
				"element": "C" 
			},
			{
				"x": 2.4104251646,
				"y": -1.0550384136,
				"z": 0.121117557,
				"element": "S" 
			},
			{
				"x": 0.9223248933,
				"y": -0.300621544,
				"z": -0.4384772252,
				"element": "C" 
			},
			{
				"x": 0.8331499869,
				"y": 1.0061604392,
				"z": -0.8809875114,
				"element": "C" 
			},
			{
				"x": -0.4814755049,
				"y": 1.3594274594,
				"z": -1.2669487024,
				"element": "C" 
			},
			{
				"x": -1.3943462648,
				"y": 0.3366061483,
				"z": -1.1235756177,
				"element": "C" 
			},
			{
				"x": -0.6234564287,
				"y": -1.1022115209,
				"z": -0.4984947411,
				"element": "S" 
			},
			{
				"x": -2.8375007714,
				"y": 0.2568454879,
				"z": -1.4019670555,
				"element": "C" 
			},
			{
				"x": -3.4390964184,
				"y": 1.3839157578,
				"z": -1.8700400968,
				"element": "O" 
			},
			{
				"x": -3.4875396719,
				"y": -0.7518570737,
				"z": -1.2321891576,
				"element": "O" 
			},
			{
				"x": 1.4879628982,
				"y": -3.2602271983,
				"z": -0.3759798465,
				"element": "H" 
			},
			{
				"x": 2.7668847878,
				"y": -3.2726131792,
				"z": 0.861607975,
				"element": "H" 
			},
			{
				"x": 1.1229292659,
				"y": -2.7578492757,
				"z": 1.3067065022,
				"element": "H" 
			},
			{
				"x": 1.680924264,
				"y": 1.679580267,
				"z": -0.9261629003,
				"element": "H" 
			},
			{
				"x": -0.7264801732,
				"y": 2.3487480127,
				"z": -1.6430930926,
				"element": "H" 
			},
			{
				"x": -2.8056488211,
				"y": 2.1108134044,
				"z": -1.9400341873,
				"element": "H" 
			}
		],
		 "valence_orbital": [ 
			{
				"type": "occ",
				"energy": -0.31755,
				"method": "rhf"
			},
			{
				"type": "occ",
				"energy": -0.29844,
				"method": "rhf"
			},
			{
				"type": "occ",
				"energy": -0.27506,
				"method": "rhf"
			},
			{
				"type": "occ",
				"energy": -0.27238,
				"method": "rhf"
			},
			{
				"type": "occ",
				"energy": -0.22143,
				"method": "rhf"
			},
			{
				"type": "unocc",
				"energy": -0.05873,
				"method": "rhf"
			},
			{
				"type": "unocc",
				"energy": 0.00041,
				"method": "rhf"
			},
			{
				"type": "unocc",
				"energy": 0.01915,
				"method": "rhf"
			},
			{
				"type": "unocc",
				"energy": 0.02322,
				"method": "rhf"
			},
			{
				"type": "unocc",
				"energy": 0.04475,
				"method": "rhf"
			}
		],
		"cosmo_sigma_profile": { 
			"-0.025": 0.0,
			"-0.024": 0.0,
			"-0.023": 0.0,
			"-0.022": 0.0,
			"-0.021": 0.0,
			"-0.02": 0.0,
			"-0.019": 0.621365020821,
			"-0.018": 1.16874394679,
			"-0.017": 1.30182109837,
			"-0.016": 1.22308669889,
			"-0.015": 0.555102203427,
			"-0.014": 0.462748481997,
			"-0.013": 1.26951983574,
			"-0.012": 1.95073269224,
			"-0.011": 0.943866492543,
			"-0.01": 1.02787963057,
			"-0.009": 1.61018389113,
			"-0.008": 5.02866284329,
			"-0.007": 7.82926444363,
			"-0.006": 10.0718449545,
			"-0.005": 10.0673457879,
			"-0.004": 10.7680242512,
			"-0.003": 13.2211084659,
			"-0.002": 10.6484812832,
			"-0.001": 7.64518434339,
			"0.0": 9.94840927358,
			"0.001": 12.8094673985,
			"0.002": 17.9740183348,
			"0.003": 18.0007394083,
			"0.004": 7.67401816709,
			"0.005": 5.49587325427,
			"0.006": 5.67410079362,
			"0.007": 4.58070651227,
			"0.008": 2.84902634557,
			"0.009": 3.33409933647,
			"0.01": 4.36631722995,
			"0.011": 4.86604199348,
			"0.012": 5.6566126784,
			"0.013": 2.07787757315,
			"0.014": 0.292677147872,
			"0.015": 0.0,
			"0.016": 0.0,
			"0.017": 0.0,
			"0.018": 0.0,
			"0.019": 0.0,
			"0.02": 0.0,
			"0.021": 0.0,
			"0.022": 0.0,
			"0.023": 0.0,
			"0.024": 0.0,
			"0.025": 0.0
		}
	}
}
