{
	 "smiles": "CCCCCCCCCOC1=CC=C(C=C1)C(O)=O", 
	 "Tm": 416.15, 
	 "num_atms": 43, 
	 "gaussian": { 
		 "optdone": 1, 
		 "sigma_profile": "yes", 
		 "theory": "DFT", 
		 "functional": "B3LYP", 
		 "basiset": "6-31G**", 
		 "properties": { 
			 "R2extent": 11072.1073, 
			 "electric_dipole_moment_norm": 5.72891935185, 
			 "electric_quadrupole_moment_norm": 41.1537053383, 
			 "total_energy": -849.865712145, 
			 "HOMO_LUMO_gap": 0.19709, 
			 "cosmo_polarized_energy": -15.37, 
			 "cosmo_cavitation_energy": 44.84, 
			 "cosmo_dispersion_energy": -31.28, 
			 "cosmo_repulsion_energy": 2.47, 
			 "cosmo_total_nonelectrostatic_energy": 16.03, 
			 "SMD_solvation_energy": 7.95 
		},
		"coords": [
			{
				"x": -1.2074702357,
				"y": 4.7401914546,
				"z": 3.1668190752,
				"element": "C" 
			},
			{
				"x": -0.3769549167,
				"y": 3.5210556411,
				"z": 2.7479726681,
				"element": "C" 
			},
			{
				"x": 0.126394965,
				"y": 2.6636805197,
				"z": 3.9224935985,
				"element": "C" 
			},
			{
				"x": -0.9627777329,
				"y": 2.0173850461,
				"z": 4.7983123736,
				"element": "C" 
			},
			{
				"x": -1.9411495355,
				"y": 1.0398525015,
				"z": 4.1172737452,
				"element": "C" 
			},
			{
				"x": -1.3422342728,
				"y": -0.2886311662,
				"z": 3.6065504336,
				"element": "C" 
			},
			{
				"x": -0.7835678125,
				"y": -0.2633872194,
				"z": 2.1756362356,
				"element": "C" 
			},
			{
				"x": -0.2699474042,
				"y": -1.6355256376,
				"z": 1.7199994181,
				"element": "C" 
			},
			{
				"x": 0.2766936845,
				"y": -1.6498127262,
				"z": 0.2991977098,
				"element": "C" 
			},
			{
				"x": -0.8019776856,
				"y": -1.3470102624,
				"z": -0.5934117077,
				"element": "O" 
			},
			{
				"x": -0.5591641652,
				"y": -1.2781957503,
				"z": -1.9259430939,
				"element": "C" 
			},
			{
				"x": -1.664527878,
				"y": -0.9535362655,
				"z": -2.7307441187,
				"element": "C" 
			},
			{
				"x": -1.5215179611,
				"y": -0.8670911969,
				"z": -4.1072419135,
				"element": "C" 
			},
			{
				"x": -0.2774239851,
				"y": -1.1006935592,
				"z": -4.719799678,
				"element": "C" 
			},
			{
				"x": 0.820645643,
				"y": -1.4014236246,
				"z": -3.9054470166,
				"element": "C" 
			},
			{
				"x": 0.6917074251,
				"y": -1.5003780956,
				"z": -2.5231733094,
				"element": "C" 
			},
			{
				"x": -0.0485169553,
				"y": -1.0125015973,
				"z": -6.1928176306,
				"element": "C" 
			},
			{
				"x": -1.1506449284,
				"y": -1.0772665563,
				"z": -6.9923830582,
				"element": "O" 
			},
			{
				"x": 1.0462101078,
				"y": -0.8915923048,
				"z": -6.693642664,
				"element": "O" 
			},
			{
				"x": -1.4800541949,
				"y": 5.3479062577,
				"z": 2.2977391363,
				"element": "H" 
			},
			{
				"x": -2.1372320095,
				"y": 4.4501434367,
				"z": 3.667191897,
				"element": "H" 
			},
			{
				"x": -0.6472757444,
				"y": 5.3813584119,
				"z": 3.857611923,
				"element": "H" 
			},
			{
				"x": 0.4940603099,
				"y": 3.8639261782,
				"z": 2.1747522961,
				"element": "H" 
			},
			{
				"x": -0.962924587,
				"y": 2.9020902725,
				"z": 2.0566979078,
				"element": "H" 
			},
			{
				"x": 0.7507788061,
				"y": 3.2943077779,
				"z": 4.5708362021,
				"element": "H" 
			},
			{
				"x": 0.7972204747,
				"y": 1.8862000274,
				"z": 3.5360697656,
				"element": "H" 
			},
			{
				"x": -0.4688648249,
				"y": 1.4883622832,
				"z": 5.6250656507,
				"element": "H" 
			},
			{
				"x": -1.5535355548,
				"y": 2.8123439682,
				"z": 5.2712828377,
				"element": "H" 
			},
			{
				"x": -2.4691418202,
				"y": 1.5406928001,
				"z": 3.294610594,
				"element": "H" 
			},
			{
				"x": -2.7152692664,
				"y": 0.8004861006,
				"z": 4.8571209404,
				"element": "H" 
			},
			{
				"x": -0.5600902234,
				"y": -0.6259461928,
				"z": 4.302340137,
				"element": "H" 
			},
			{
				"x": -2.1238520693,
				"y": -1.0594908816,
				"z": 3.6439488597,
				"element": "H" 
			},
			{
				"x": -1.567740147,
				"y": 0.0696925702,
				"z": 1.4852741379,
				"element": "H" 
			},
			{
				"x": 0.0305413069,
				"y": 0.4667771988,
				"z": 2.0922557649,
				"element": "H" 
			},
			{
				"x": -1.0719204541,
				"y": -2.3809536092,
				"z": 1.793690002,
				"element": "H" 
			},
			{
				"x": 0.5345307664,
				"y": -1.9746112554,
				"z": 2.3862175334,
				"element": "H" 
			},
			{
				"x": 0.6928691293,
				"y": -2.6357932091,
				"z": 0.0515211777,
				"element": "H" 
			},
			{
				"x": 1.0741050962,
				"y": -0.9024615758,
				"z": 0.1803584287,
				"element": "H" 
			},
			{
				"x": -2.6176621608,
				"y": -0.7645604178,
				"z": -2.2485883147,
				"element": "H" 
			},
			{
				"x": -2.3877813082,
				"y": -0.5745961394,
				"z": -4.6964899468,
				"element": "H" 
			},
			{
				"x": 1.7829651963,
				"y": -1.5593620367,
				"z": -4.3806553313,
				"element": "H" 
			},
			{
				"x": 1.5594432204,
				"y": -1.7455611849,
				"z": -1.9232220285,
				"element": "H" 
			},
			{
				"x": -1.9222462975,
				"y": -1.3432699813,
				"z": -6.4741806379,
				"element": "H" 
			}
		],
		 "valence_orbital": [ 
			{
				"type": "occ",
				"energy": -0.30651,
				"method": "rhf"
			},
			{
				"type": "occ",
				"energy": -0.30422,
				"method": "rhf"
			},
			{
				"type": "occ",
				"energy": -0.26967,
				"method": "rhf"
			},
			{
				"type": "occ",
				"energy": -0.26568,
				"method": "rhf"
			},
			{
				"type": "occ",
				"energy": -0.23505,
				"method": "rhf"
			},
			{
				"type": "unocc",
				"energy": -0.03796,
				"method": "rhf"
			},
			{
				"type": "unocc",
				"energy": -0.01901,
				"method": "rhf"
			},
			{
				"type": "unocc",
				"energy": 0.05798,
				"method": "rhf"
			},
			{
				"type": "unocc",
				"energy": 0.06657,
				"method": "rhf"
			},
			{
				"type": "unocc",
				"energy": 0.07328,
				"method": "rhf"
			}
		],
		"cosmo_sigma_profile": { 
			"-0.025": 0.0,
			"-0.024": 0.0,
			"-0.023": 0.0,
			"-0.022": 0.0,
			"-0.021": 0.0,
			"-0.02": 0.0,
			"-0.019": 0.137910582466,
			"-0.018": 0.521890730657,
			"-0.017": 0.863265176406,
			"-0.016": 0.930987526183,
			"-0.015": 1.42228483336,
			"-0.014": 1.2013108001,
			"-0.013": 0.484408808317,
			"-0.012": 0.829836854357,
			"-0.011": 1.49369104839,
			"-0.01": 1.24504458363,
			"-0.009": 1.11447089638,
			"-0.008": 1.33394295014,
			"-0.007": 4.56414145949,
			"-0.006": 8.58165576443,
			"-0.005": 13.186811758,
			"-0.004": 15.0942025729,
			"-0.003": 19.1564708774,
			"-0.002": 35.5336537558,
			"-0.001": 52.448280016,
			"0.0": 52.9288499136,
			"0.001": 43.4768797517,
			"0.002": 27.1945505513,
			"0.003": 17.7426903532,
			"0.004": 11.2470262976,
			"0.005": 3.86645124968,
			"0.006": 3.90165685196,
			"0.007": 4.27043053638,
			"0.008": 2.84111369493,
			"0.009": 4.12254473295,
			"0.01": 3.8145775514,
			"0.011": 4.89915336337,
			"0.012": 6.07936246762,
			"0.013": 2.62810985654,
			"0.014": 0.463003868202,
			"0.015": 0.0,
			"0.016": 0.0,
			"0.017": 0.0,
			"0.018": 0.0,
			"0.019": 0.0,
			"0.02": 0.0,
			"0.021": 0.0,
			"0.022": 0.0,
			"0.023": 0.0,
			"0.024": 0.0,
			"0.025": 0.0
		}
	}
}
