{
	 "smiles": "O=C(OC1(CC2=CC=CC=C12)C#N)C1=CC=CC=C1", 
	 "Tm": 385.15, 
	 "num_atms": 30, 
	 "gaussian": { 
		 "optdone": 1, 
		 "sigma_profile": "yes", 
		 "theory": "DFT", 
		 "functional": "B3LYP", 
		 "basiset": "6-31G**", 
		 "properties": { 
			 "R2extent": 5815.5704, 
			 "electric_dipole_moment_norm": 5.04654863248, 
			 "electric_quadrupole_moment_norm": 24.3750746288, 
			 "total_energy": -821.48130854, 
			 "HOMO_LUMO_gap": 0.19982, 
			 "cosmo_polarized_energy": -12.39, 
			 "cosmo_cavitation_energy": 35.97, 
			 "cosmo_dispersion_energy": -24.91, 
			 "cosmo_repulsion_energy": 1.92, 
			 "cosmo_total_nonelectrostatic_energy": 12.98, 
			 "SMD_solvation_energy": 7.79 
		},
		"coords": [
			{
				"x": -0.1138051032,
				"y": -0.0085549213,
				"z": 2.1488121739,
				"element": "O" 
			},
			{
				"x": -0.5225320839,
				"y": 0.0976130167,
				"z": 1.0109577762,
				"element": "C" 
			},
			{
				"x": -0.1378847832,
				"y": -0.7461373444,
				"z": 0.0077292946,
				"element": "O" 
			},
			{
				"x": 0.7886763949,
				"y": -1.7875306569,
				"z": 0.363930489,
				"element": "C" 
			},
			{
				"x": 1.4447145144,
				"y": -2.39239865,
				"z": -0.9468091808,
				"element": "C" 
			},
			{
				"x": 2.7728208756,
				"y": -1.9212013541,
				"z": -0.3744633832,
				"element": "C" 
			},
			{
				"x": 4.1430953181,
				"y": -1.8947721859,
				"z": -0.5944281194,
				"element": "C" 
			},
			{
				"x": 4.9058067328,
				"y": -1.2675140002,
				"z": 0.4025116791,
				"element": "C" 
			},
			{
				"x": 4.3199418425,
				"y": -0.7115529784,
				"z": 1.5521288647,
				"element": "C" 
			},
			{
				"x": 2.9357741669,
				"y": -0.7534256895,
				"z": 1.7703939743,
				"element": "C" 
			},
			{
				"x": 2.2007114281,
				"y": -1.3694762988,
				"z": 0.7673396939,
				"element": "C" 
			},
			{
				"x": 0.1367998035,
				"y": -2.7835373749,
				"z": 1.2272272138,
				"element": "C" 
			},
			{
				"x": -0.351451103,
				"y": -3.6153944612,
				"z": 1.8728448656,
				"element": "N" 
			},
			{
				"x": -1.4787568523,
				"y": 1.1340160893,
				"z": 0.541489631,
				"element": "C" 
			},
			{
				"x": -1.9218245768,
				"y": 1.2047434345,
				"z": -0.7871908672,
				"element": "C" 
			},
			{
				"x": -2.820165315,
				"y": 2.2007349702,
				"z": -1.1654555225,
				"element": "C" 
			},
			{
				"x": -3.2785903978,
				"y": 3.1257966055,
				"z": -0.224108755,
				"element": "C" 
			},
			{
				"x": -2.8388907382,
				"y": 3.0561812664,
				"z": 1.1008430527,
				"element": "C" 
			},
			{
				"x": -1.9415453089,
				"y": 2.0633867315,
				"z": 1.4842499423,
				"element": "C" 
			},
			{
				"x": 1.0946170056,
				"y": -1.8773140912,
				"z": -1.845714631,
				"element": "H" 
			},
			{
				"x": 1.3104688391,
				"y": -3.4711188092,
				"z": -1.0663264812,
				"element": "H" 
			},
			{
				"x": 4.614253346,
				"y": -2.3241210159,
				"z": -1.4735840741,
				"element": "H" 
			},
			{
				"x": 5.9845231892,
				"y": -1.2091342038,
				"z": 0.2860115712,
				"element": "H" 
			},
			{
				"x": 4.9613153939,
				"y": -0.2404837693,
				"z": 2.2914388343,
				"element": "H" 
			},
			{
				"x": 2.4754780315,
				"y": -0.3313481777,
				"z": 2.6559904164,
				"element": "H" 
			},
			{
				"x": -1.563701842,
				"y": 0.4826772709,
				"z": -1.511648998,
				"element": "H" 
			},
			{
				"x": -3.1639227147,
				"y": 2.2552531734,
				"z": -2.1940289215,
				"element": "H" 
			},
			{
				"x": -3.9793206962,
				"y": 3.9002684002,
				"z": -0.5227796627,
				"element": "H" 
			},
			{
				"x": -3.1968381461,
				"y": 3.7745335249,
				"z": 1.8321691917,
				"element": "H" 
			},
			{
				"x": -1.5872672208,
				"y": 1.9871114994,
				"z": 2.506569932,
				"element": "H" 
			}
		],
		 "valence_orbital": [ 
			{
				"type": "occ",
				"energy": -0.28539,
				"method": "rhf"
			},
			{
				"type": "occ",
				"energy": -0.26806,
				"method": "rhf"
			},
			{
				"type": "occ",
				"energy": -0.26554,
				"method": "rhf"
			},
			{
				"type": "occ",
				"energy": -0.26363,
				"method": "rhf"
			},
			{
				"type": "occ",
				"energy": -0.25634,
				"method": "rhf"
			},
			{
				"type": "unocc",
				"energy": -0.05652,
				"method": "rhf"
			},
			{
				"type": "unocc",
				"energy": -0.02994,
				"method": "rhf"
			},
			{
				"type": "unocc",
				"energy": -0.01467,
				"method": "rhf"
			},
			{
				"type": "unocc",
				"energy": -0.01335,
				"method": "rhf"
			},
			{
				"type": "unocc",
				"energy": 0.02659,
				"method": "rhf"
			}
		],
		"cosmo_sigma_profile": { 
			"-0.025": 0.0,
			"-0.024": 0.0,
			"-0.023": 0.0,
			"-0.022": 0.0,
			"-0.021": 0.0,
			"-0.02": 0.0,
			"-0.019": 0.0,
			"-0.018": 0.0,
			"-0.017": 0.0,
			"-0.016": 0.0,
			"-0.015": 0.0,
			"-0.014": 0.0,
			"-0.013": 0.0,
			"-0.012": 0.0,
			"-0.011": 0.0,
			"-0.01": 0.0,
			"-0.009": 0.0,
			"-0.008": 0.052035353177,
			"-0.007": 6.90147602246,
			"-0.006": 21.0071845662,
			"-0.005": 25.6515177525,
			"-0.004": 24.5400728193,
			"-0.003": 22.5671809742,
			"-0.002": 19.0740946223,
			"-0.001": 18.4411917936,
			"0.0": 23.2437529681,
			"0.001": 23.2222351745,
			"0.002": 23.0318531048,
			"0.003": 24.9239842308,
			"0.004": 20.4926994747,
			"0.005": 6.27243812525,
			"0.006": 5.18736558204,
			"0.007": 4.56066299649,
			"0.008": 5.36563340063,
			"0.009": 5.16958287566,
			"0.01": 4.60131492754,
			"0.011": 3.72193268488,
			"0.012": 2.06795322487,
			"0.013": 0.33124186219,
			"0.014": 0.0,
			"0.015": 0.0,
			"0.016": 0.0,
			"0.017": 0.0,
			"0.018": 0.0,
			"0.019": 0.0,
			"0.02": 0.0,
			"0.021": 0.0,
			"0.022": 0.0,
			"0.023": 0.0,
			"0.024": 0.0,
			"0.025": 0.0
		}
	}
}
