{
	 "smiles": "NCCCCCCCCCCCC(O)=O", 
	 "Tm": 459.15, 
	 "num_atms": 40, 
	 "gaussian": { 
		 "optdone": 1, 
		 "sigma_profile": "yes", 
		 "theory": "DFT", 
		 "functional": "B3LYP", 
		 "basiset": "6-31G**", 
		 "properties": { 
			 "R2extent": 7892.8425, 
			 "electric_dipole_moment_norm": 1.51822929098, 
			 "electric_quadrupole_moment_norm": 15.4958758491, 
			 "total_energy": -677.584872783, 
			 "HOMO_LUMO_gap": 0.23895, 
			 "cosmo_polarized_energy": -12.41, 
			 "cosmo_cavitation_energy": 41.14, 
			 "cosmo_dispersion_energy": -28.47, 
			 "cosmo_repulsion_energy": 2.36, 
			 "cosmo_total_nonelectrostatic_energy": 15.03, 
			 "SMD_solvation_energy": 5.48 
		},
		"coords": [
			{
				"x": -0.5844472158,
				"y": 3.2469731541,
				"z": -4.8307283123,
				"element": "N" 
			},
			{
				"x": -1.8787226507,
				"y": 2.5570084302,
				"z": -4.9089555165,
				"element": "C" 
			},
			{
				"x": -2.8225970322,
				"y": 3.0114688309,
				"z": -3.7881105736,
				"element": "C" 
			},
			{
				"x": -2.3349839184,
				"y": 2.7216815321,
				"z": -2.3579850829,
				"element": "C" 
			},
			{
				"x": -2.1654113567,
				"y": 1.2336962078,
				"z": -2.0194793335,
				"element": "C" 
			},
			{
				"x": -1.7610228396,
				"y": 0.9865090118,
				"z": -0.5596620829,
				"element": "C" 
			},
			{
				"x": -1.5834714505,
				"y": -0.5003229102,
				"z": -0.2221100314,
				"element": "C" 
			},
			{
				"x": -1.2756107146,
				"y": -0.7919950735,
				"z": 1.257504544,
				"element": "C" 
			},
			{
				"x": 0.0447806677,
				"y": -0.2171654842,
				"z": 1.8004330146,
				"element": "C" 
			},
			{
				"x": 1.3076313687,
				"y": -0.779913298,
				"z": 1.1341000179,
				"element": "C" 
			},
			{
				"x": 2.5998988686,
				"y": -0.2494970254,
				"z": 1.7699699442,
				"element": "C" 
			},
			{
				"x": 3.8767767985,
				"y": -0.781234176,
				"z": 1.112098321,
				"element": "C" 
			},
			{
				"x": 4.1334416268,
				"y": -2.2486113797,
				"z": 1.3863662793,
				"element": "C" 
			},
			{
				"x": 5.1260666805,
				"y": -2.7350570338,
				"z": 0.6000908107,
				"element": "O" 
			},
			{
				"x": 3.5661700881,
				"y": -2.9339772748,
				"z": 2.2095443383,
				"element": "O" 
			},
			{
				"x": -0.0528960336,
				"y": 2.8977084858,
				"z": -4.036927158,
				"element": "H" 
			},
			{
				"x": -0.0286370388,
				"y": 3.0292024286,
				"z": -5.6540565199,
				"element": "H" 
			},
			{
				"x": -2.3344448471,
				"y": 2.8215293555,
				"z": -5.8705818884,
				"element": "H" 
			},
			{
				"x": -1.7976721326,
				"y": 1.4553914976,
				"z": -4.9005188193,
				"element": "H" 
			},
			{
				"x": -2.9792391303,
				"y": 4.0912988284,
				"z": -3.8950750048,
				"element": "H" 
			},
			{
				"x": -3.7975962719,
				"y": 2.5285423633,
				"z": -3.9411258991,
				"element": "H" 
			},
			{
				"x": -3.0513346116,
				"y": 3.1642351847,
				"z": -1.6528896684,
				"element": "H" 
			},
			{
				"x": -1.3877094369,
				"y": 3.2499619686,
				"z": -2.1815291094,
				"element": "H" 
			},
			{
				"x": -1.4127077729,
				"y": 0.7798933573,
				"z": -2.6793296164,
				"element": "H" 
			},
			{
				"x": -3.1059237195,
				"y": 0.7042551641,
				"z": -2.2298576378,
				"element": "H" 
			},
			{
				"x": -0.8315290688,
				"y": 1.5329799431,
				"z": -0.3497304817,
				"element": "H" 
			},
			{
				"x": -2.522085337,
				"y": 1.4203841237,
				"z": 0.1050795972,
				"element": "H" 
			},
			{
				"x": -2.5042283476,
				"y": -1.0348174856,
				"z": -0.492990846,
				"element": "H" 
			},
			{
				"x": -0.7965123242,
				"y": -0.9256302918,
				"z": -0.8596239699,
				"element": "H" 
			},
			{
				"x": -1.270712041,
				"y": -1.8801870341,
				"z": 1.4069947819,
				"element": "H" 
			},
			{
				"x": -2.1025261247,
				"y": -0.4067604469,
				"z": 1.8696753875,
				"element": "H" 
			},
			{
				"x": 0.0939166689,
				"y": -0.4280567837,
				"z": 2.8771103876,
				"element": "H" 
			},
			{
				"x": 0.0421601017,
				"y": 0.8777222823,
				"z": 1.7110251976,
				"element": "H" 
			},
			{
				"x": 1.3092904825,
				"y": -0.5331120757,
				"z": 0.0633675953,
				"element": "H" 
			},
			{
				"x": 1.2968254364,
				"y": -1.8745897285,
				"z": 1.2042432758,
				"element": "H" 
			},
			{
				"x": 2.6165760965,
				"y": -0.5113957108,
				"z": 2.8340399306,
				"element": "H" 
			},
			{
				"x": 2.6118995719,
				"y": 0.8462847713,
				"z": 1.7124733935,
				"element": "H" 
			},
			{
				"x": 3.867231008,
				"y": -0.6321924154,
				"z": 0.0258204847,
				"element": "H" 
			},
			{
				"x": 4.7593715148,
				"y": -0.2383615809,
				"z": 1.4759293674,
				"element": "H" 
			},
			{
				"x": 5.2421844375,
				"y": -3.6646497126,
				"z": 0.8596008832,
				"element": "H" 
			}
		],
		 "valence_orbital": [ 
			{
				"type": "occ",
				"energy": -0.30887,
				"method": "rhf"
			},
			{
				"type": "occ",
				"energy": -0.30631,
				"method": "rhf"
			},
			{
				"type": "occ",
				"energy": -0.29698,
				"method": "rhf"
			},
			{
				"type": "occ",
				"energy": -0.27459,
				"method": "rhf"
			},
			{
				"type": "occ",
				"energy": -0.22889,
				"method": "rhf"
			},
			{
				"type": "unocc",
				"energy": 0.01006,
				"method": "rhf"
			},
			{
				"type": "unocc",
				"energy": 0.06884,
				"method": "rhf"
			},
			{
				"type": "unocc",
				"energy": 0.07933,
				"method": "rhf"
			},
			{
				"type": "unocc",
				"energy": 0.08479,
				"method": "rhf"
			},
			{
				"type": "unocc",
				"energy": 0.10064,
				"method": "rhf"
			}
		],
		"cosmo_sigma_profile": { 
			"-0.025": 0.0,
			"-0.024": 0.0,
			"-0.023": 0.0,
			"-0.022": 0.0,
			"-0.021": 0.0,
			"-0.02": 0.0,
			"-0.019": 0.0,
			"-0.018": 0.389667076856,
			"-0.017": 0.833713002174,
			"-0.016": 1.00233971197,
			"-0.015": 0.861024276587,
			"-0.014": 0.873455219362,
			"-0.013": 0.486304256513,
			"-0.012": 0.711689936349,
			"-0.011": 0.418034699857,
			"-0.01": 1.00392810325,
			"-0.009": 2.31198173429,
			"-0.008": 3.23154973808,
			"-0.007": 3.27461736795,
			"-0.006": 6.13425571425,
			"-0.005": 8.12670992268,
			"-0.004": 9.53957803673,
			"-0.003": 14.8156433398,
			"-0.002": 40.0698699159,
			"-0.001": 61.2254048686,
			"0.0": 57.6074580182,
			"0.001": 40.3830200619,
			"0.002": 16.7389745908,
			"0.003": 4.93206946842,
			"0.004": 3.67657779458,
			"0.005": 3.84211678512,
			"0.006": 3.67269183154,
			"0.007": 3.38426379447,
			"0.008": 3.61535373536,
			"0.009": 3.40838773204,
			"0.01": 3.99627171097,
			"0.011": 3.49745975623,
			"0.012": 5.79709159716,
			"0.013": 1.44766934338,
			"0.014": 0.582189082154,
			"0.015": 0.288461989396,
			"0.016": 0.588768794382,
			"0.017": 0.653767596473,
			"0.018": 0.540414508507,
			"0.019": 0.654692164193,
			"0.02": 0.5041873134,
			"0.021": 0.0946195141408,
			"0.022": 0.0,
			"0.023": 0.0,
			"0.024": 0.0,
			"0.025": 0.0
		}
	}
}
