{
	 "smiles": "NC1=NN2C=C(F)C=CC2=N1", 
	 "Tm": 440.15, 
	 "num_atms": 16, 
	 "gaussian": { 
		 "optdone": 1, 
		 "sigma_profile": "yes", 
		 "theory": "DFT", 
		 "functional": "B3LYP", 
		 "basiset": "6-31G**", 
		 "properties": { 
			 "R2extent": 1803.3553, 
			 "electric_dipole_moment_norm": 1.0116986755, 
			 "electric_quadrupole_moment_norm": 8.12688993096, 
			 "total_energy": -550.477142787, 
			 "HOMO_LUMO_gap": 0.17333, 
			 "cosmo_polarized_energy": -11.51, 
			 "cosmo_cavitation_energy": 21.28, 
			 "cosmo_dispersion_energy": -16.15, 
			 "cosmo_repulsion_energy": 1.26, 
			 "cosmo_total_nonelectrostatic_energy": 6.39, 
			 "SMD_solvation_energy": 1.48 
		},
		"coords": [
			{
				"x": -2.1514131851,
				"y": -1.2247972315,
				"z": 1.7350094247,
				"element": "N" 
			},
			{
				"x": -1.2026391867,
				"y": -0.6805715998,
				"z": 0.9077759728,
				"element": "C" 
			},
			{
				"x": 0.0860767192,
				"y": -0.5893868483,
				"z": 1.2898945961,
				"element": "N" 
			},
			{
				"x": 0.6370337625,
				"y": 0.0437250549,
				"z": 0.2233391455,
				"element": "N" 
			},
			{
				"x": 1.9460294001,
				"y": 0.3909591828,
				"z": 0.0883699198,
				"element": "C" 
			},
			{
				"x": 2.3087992875,
				"y": 1.0241918902,
				"z": -1.0733674996,
				"element": "C" 
			},
			{
				"x": 3.5971672006,
				"y": 1.3823550451,
				"z": -1.2406791969,
				"element": "F" 
			},
			{
				"x": 1.3773993216,
				"y": 1.3104214068,
				"z": -2.0924018973,
				"element": "C" 
			},
			{
				"x": 0.0560091014,
				"y": 0.9469362608,
				"z": -1.9279341006,
				"element": "C" 
			},
			{
				"x": -0.3377304904,
				"y": 0.2945984857,
				"z": -0.7420695555,
				"element": "C" 
			},
			{
				"x": -1.5140808635,
				"y": -0.1699485054,
				"z": -0.3058947519,
				"element": "N" 
			},
			{
				"x": -2.9854143909,
				"y": -1.5405413762,
				"z": 1.2628361266,
				"element": "H" 
			},
			{
				"x": -1.799643057,
				"y": -1.8466322891,
				"z": 2.4477899926,
				"element": "H" 
			},
			{
				"x": 2.6198600291,
				"y": 0.1508404204,
				"z": 0.8986568692,
				"element": "H" 
			},
			{
				"x": 1.720560926,
				"y": 1.814080903,
				"z": -2.9890416979,
				"element": "H" 
			},
			{
				"x": -0.6919145742,
				"y": 1.1487692007,
				"z": -2.6848833477,
				"element": "H" 
			}
		],
		 "valence_orbital": [ 
			{
				"type": "occ",
				"energy": -0.32532,
				"method": "rhf"
			},
			{
				"type": "occ",
				"energy": -0.30092,
				"method": "rhf"
			},
			{
				"type": "occ",
				"energy": -0.27748,
				"method": "rhf"
			},
			{
				"type": "occ",
				"energy": -0.23472,
				"method": "rhf"
			},
			{
				"type": "occ",
				"energy": -0.21734,
				"method": "rhf"
			},
			{
				"type": "unocc",
				"energy": -0.04401,
				"method": "rhf"
			},
			{
				"type": "unocc",
				"energy": 0.00058,
				"method": "rhf"
			},
			{
				"type": "unocc",
				"energy": 0.06878,
				"method": "rhf"
			},
			{
				"type": "unocc",
				"energy": 0.07763,
				"method": "rhf"
			},
			{
				"type": "unocc",
				"energy": 0.09801,
				"method": "rhf"
			}
		],
		"cosmo_sigma_profile": { 
			"-0.025": 0.0,
			"-0.024": 0.0,
			"-0.023": 0.0,
			"-0.022": 0.0,
			"-0.021": 0.0,
			"-0.02": 0.0,
			"-0.019": 0.0,
			"-0.018": 0.0,
			"-0.017": 0.0,
			"-0.016": 0.0,
			"-0.015": 0.0,
			"-0.014": 0.552650043904,
			"-0.013": 2.66168609583,
			"-0.012": 1.85384807499,
			"-0.011": 2.58447610859,
			"-0.01": 3.74267649999,
			"-0.009": 3.50260494659,
			"-0.008": 7.63230037549,
			"-0.007": 5.80072648359,
			"-0.006": 6.8355322834,
			"-0.005": 5.87016714452,
			"-0.004": 4.9817938906,
			"-0.003": 7.42912122524,
			"-0.002": 10.5203693634,
			"-0.001": 17.6488064152,
			"0.0": 14.3149168991,
			"0.001": 13.0872968699,
			"0.002": 9.29097932784,
			"0.003": 9.7225069318,
			"0.004": 11.0139863002,
			"0.005": 4.78532741205,
			"0.006": 2.47207655633,
			"0.007": 3.86787699232,
			"0.008": 2.66680900734,
			"0.009": 3.120048648,
			"0.01": 3.16979188483,
			"0.011": 3.17041694607,
			"0.012": 2.80621771751,
			"0.013": 1.5219578632,
			"0.014": 1.90113015233,
			"0.015": 1.58290654276,
			"0.016": 1.07704433823,
			"0.017": 0.162153577853,
			"0.018": 0.0,
			"0.019": 0.0,
			"0.02": 0.0,
			"0.021": 0.0,
			"0.022": 0.0,
			"0.023": 0.0,
			"0.024": 0.0,
			"0.025": 0.0
		}
	}
}
