{
	 "smiles": "CCOC(Cl)=O", 
	 "Tm": 192.35, 
	 "num_atms": 11, 
	 "gaussian": { 
		 "optdone": 1, 
		 "sigma_profile": "yes", 
		 "theory": "DFT", 
		 "functional": "B3LYP", 
		 "basiset": "6-31G**", 
		 "properties": { 
			 "R2extent": 2441.7216, 
			 "electric_dipole_moment_norm": 3.0950866143, 
			 "electric_quadrupole_moment_norm": 7.45758006796, 
			 "total_energy": -727.981877278, 
			 "HOMO_LUMO_gap": 0.29617, 
			 "cosmo_polarized_energy": -5.18, 
			 "cosmo_cavitation_energy": 16.97, 
			 "cosmo_dispersion_energy": -12.72, 
			 "cosmo_repulsion_energy": 1.13, 
			 "cosmo_total_nonelectrostatic_energy": 5.38, 
			 "SMD_solvation_energy": 4.48 
		},
		"coords": [
			{
				"x": -1.2189729748,
				"y": -1.4271008719,
				"z": -0.4212216348,
				"element": "C" 
			},
			{
				"x": -0.6647610469,
				"y": -0.5985329667,
				"z": 0.724382999,
				"element": "C" 
			},
			{
				"x": -0.908127966,
				"y": -1.2478102874,
				"z": 2.0124949319,
				"element": "O" 
			},
			{
				"x": -0.0297435884,
				"y": -2.1805578594,
				"z": 2.3577904405,
				"element": "C" 
			},
			{
				"x": -0.5084603342,
				"y": -2.8513914473,
				"z": 3.9389758102,
				"element": "Cl" 
			},
			{
				"x": 0.9390530491,
				"y": -2.5514506449,
				"z": 1.7621583921,
				"element": "O" 
			},
			{
				"x": -2.285100577,
				"y": -1.6244642253,
				"z": -0.279624515,
				"element": "H" 
			},
			{
				"x": -1.0917614275,
				"y": -0.8799511847,
				"z": -1.3609845448,
				"element": "H" 
			},
			{
				"x": -0.6877729022,
				"y": -2.3781997946,
				"z": -0.5058526109,
				"element": "H" 
			},
			{
				"x": -1.1792935852,
				"y": 0.3588396554,
				"z": 0.8225280155,
				"element": "H" 
			},
			{
				"x": 0.4090413531,
				"y": -0.4283803732,
				"z": 0.6208527164,
				"element": "H" 
			}
		],
		 "valence_orbital": [ 
			{
				"type": "occ",
				"energy": -0.3661,
				"method": "rhf"
			},
			{
				"type": "occ",
				"energy": -0.33754,
				"method": "rhf"
			},
			{
				"type": "occ",
				"energy": -0.329,
				"method": "rhf"
			},
			{
				"type": "occ",
				"energy": -0.32706,
				"method": "rhf"
			},
			{
				"type": "occ",
				"energy": -0.30205,
				"method": "rhf"
			},
			{
				"type": "unocc",
				"energy": -0.00588,
				"method": "rhf"
			},
			{
				"type": "unocc",
				"energy": 0.01506,
				"method": "rhf"
			},
			{
				"type": "unocc",
				"energy": 0.0943,
				"method": "rhf"
			},
			{
				"type": "unocc",
				"energy": 0.11017,
				"method": "rhf"
			},
			{
				"type": "unocc",
				"energy": 0.13346,
				"method": "rhf"
			}
		],
		"cosmo_sigma_profile": { 
			"-0.025": 0.0,
			"-0.024": 0.0,
			"-0.023": 0.0,
			"-0.022": 0.0,
			"-0.021": 0.0,
			"-0.02": 0.0,
			"-0.019": 0.0,
			"-0.018": 0.0,
			"-0.017": 0.0,
			"-0.016": 0.0,
			"-0.015": 0.0,
			"-0.014": 0.0,
			"-0.013": 0.0,
			"-0.012": 0.0,
			"-0.011": 0.0,
			"-0.01": 0.0,
			"-0.009": 0.0,
			"-0.008": 0.0664168650182,
			"-0.007": 3.04474242961,
			"-0.006": 5.62239225276,
			"-0.005": 12.2099159383,
			"-0.004": 13.5169370911,
			"-0.003": 11.666029298,
			"-0.002": 11.9691738525,
			"-0.001": 12.7773497892,
			"0.0": 9.65532159893,
			"0.001": 7.13579868791,
			"0.002": 8.08935143389,
			"0.003": 11.9981865642,
			"0.004": 9.31928053655,
			"0.005": 4.13894099813,
			"0.006": 3.39775172089,
			"0.007": 2.74060166309,
			"0.008": 3.23053924828,
			"0.009": 4.25846732987,
			"0.01": 1.99157356683,
			"0.011": 0.00173457492686,
			"0.012": 0.0,
			"0.013": 0.0,
			"0.014": 0.0,
			"0.015": 0.0,
			"0.016": 0.0,
			"0.017": 0.0,
			"0.018": 0.0,
			"0.019": 0.0,
			"0.02": 0.0,
			"0.021": 0.0,
			"0.022": 0.0,
			"0.023": 0.0,
			"0.024": 0.0,
			"0.025": 0.0
		}
	}
}
