{
	 "smiles": "FC1=CC=C(C=C1)C(=O)C1=NC=CC=N1", 
	 "Tm": 402.15, 
	 "num_atms": 22, 
	 "gaussian": { 
		 "optdone": 1, 
		 "sigma_profile": "yes", 
		 "theory": "DFT", 
		 "functional": "B3LYP", 
		 "basiset": "6-31G**", 
		 "properties": { 
			 "R2extent": 3859.2801, 
			 "electric_dipole_moment_norm": 4.09759499829, 
			 "electric_quadrupole_moment_norm": 15.0418053983, 
			 "total_energy": -707.932354066, 
			 "HOMO_LUMO_gap": 0.175, 
			 "cosmo_polarized_energy": -13.22, 
			 "cosmo_cavitation_energy": 28.12, 
			 "cosmo_dispersion_energy": -20.4, 
			 "cosmo_repulsion_energy": 1.55, 
			 "cosmo_total_nonelectrostatic_energy": 9.27, 
			 "SMD_solvation_energy": 3.82 
		},
		"coords": [
			{
				"x": -2.9620039411,
				"y": 4.0048940916,
				"z": -1.179387683,
				"element": "F" 
			},
			{
				"x": -2.3547126659,
				"y": 2.9247399378,
				"z": -0.6544310456,
				"element": "C" 
			},
			{
				"x": -1.7752569838,
				"y": 1.9959344961,
				"z": -1.5123100802,
				"element": "C" 
			},
			{
				"x": -1.1439728604,
				"y": 0.881437813,
				"z": -0.9652218884,
				"element": "C" 
			},
			{
				"x": -1.0971946752,
				"y": 0.6979808221,
				"z": 0.4268623527,
				"element": "C" 
			},
			{
				"x": -1.701483893,
				"y": 1.6551461795,
				"z": 1.2621547953,
				"element": "C" 
			},
			{
				"x": -2.3285563707,
				"y": 2.7743240461,
				"z": 0.7305174447,
				"element": "C" 
			},
			{
				"x": -0.4858708868,
				"y": -0.4894181503,
				"z": 1.0906025371,
				"element": "C" 
			},
			{
				"x": -0.58855008,
				"y": -0.6727898952,
				"z": 2.2935478175,
				"element": "O" 
			},
			{
				"x": 0.2987393358,
				"y": -1.5180753808,
				"z": 0.2852481921,
				"element": "C" 
			},
			{
				"x": 0.0930239514,
				"y": -2.7980959024,
				"z": 0.6252875242,
				"element": "N" 
			},
			{
				"x": 0.8443754085,
				"y": -3.7027946258,
				"z": -0.0064263898,
				"element": "C" 
			},
			{
				"x": 1.8124113514,
				"y": -3.347651702,
				"z": -0.9471308564,
				"element": "C" 
			},
			{
				"x": 1.9357490705,
				"y": -1.9895047622,
				"z": -1.2242977607,
				"element": "C" 
			},
			{
				"x": 1.1730374299,
				"y": -1.0662565327,
				"z": -0.6242312587,
				"element": "N" 
			},
			{
				"x": -1.8225220081,
				"y": 2.1552351202,
				"z": -2.5839271515,
				"element": "H" 
			},
			{
				"x": -0.6760264547,
				"y": 0.1609590175,
				"z": -1.6236258752,
				"element": "H" 
			},
			{
				"x": -1.6666794535,
				"y": 1.4939549623,
				"z": 2.3340576008,
				"element": "H" 
			},
			{
				"x": -2.7956407679,
				"y": 3.523828074,
				"z": 1.3600579548,
				"element": "H" 
			},
			{
				"x": 0.6680624764,
				"y": -4.7455618635,
				"z": 0.252441635,
				"element": "H" 
			},
			{
				"x": 2.4293611591,
				"y": -4.0904058326,
				"z": -1.4409741363,
				"element": "H" 
			},
			{
				"x": 2.6594108581,
				"y": -1.6231799127,
				"z": -1.9502137283,
				"element": "H" 
			}
		],
		 "valence_orbital": [ 
			{
				"type": "occ",
				"energy": -0.29778,
				"method": "rhf"
			},
			{
				"type": "occ",
				"energy": -0.26924,
				"method": "rhf"
			},
			{
				"type": "occ",
				"energy": -0.26309,
				"method": "rhf"
			},
			{
				"type": "occ",
				"energy": -0.25543,
				"method": "rhf"
			},
			{
				"type": "occ",
				"energy": -0.24957,
				"method": "rhf"
			},
			{
				"type": "unocc",
				"energy": -0.07457,
				"method": "rhf"
			},
			{
				"type": "unocc",
				"energy": -0.05322,
				"method": "rhf"
			},
			{
				"type": "unocc",
				"energy": -0.03016,
				"method": "rhf"
			},
			{
				"type": "unocc",
				"energy": -0.01535,
				"method": "rhf"
			},
			{
				"type": "unocc",
				"energy": 0.04904,
				"method": "rhf"
			}
		],
		"cosmo_sigma_profile": { 
			"-0.025": 0.0,
			"-0.024": 0.0,
			"-0.023": 0.0,
			"-0.022": 0.0,
			"-0.021": 0.0,
			"-0.02": 0.0,
			"-0.019": 0.0,
			"-0.018": 0.0,
			"-0.017": 0.0,
			"-0.016": 0.0,
			"-0.015": 0.0,
			"-0.014": 0.0,
			"-0.013": 0.0,
			"-0.012": 0.0,
			"-0.011": 0.0,
			"-0.01": 0.0,
			"-0.009": 1.35112069286,
			"-0.008": 10.6584125455,
			"-0.007": 12.218737696,
			"-0.006": 12.0239132848,
			"-0.005": 13.7393691857,
			"-0.004": 10.2398295404,
			"-0.003": 13.6509545546,
			"-0.002": 16.4274106194,
			"-0.001": 22.4421311511,
			"0.0": 19.5379177623,
			"0.001": 17.4055461007,
			"0.002": 20.0376592432,
			"0.003": 12.9614645308,
			"0.004": 10.9110822953,
			"0.005": 4.24817149343,
			"0.006": 3.70459661861,
			"0.007": 2.63027632686,
			"0.008": 2.83896576211,
			"0.009": 3.34873361718,
			"0.01": 3.7333046165,
			"0.011": 5.33935808405,
			"0.012": 3.39762739904,
			"0.013": 1.95649675284,
			"0.014": 1.88650735081,
			"0.015": 1.04636014942,
			"0.016": 0.163788422608,
			"0.017": 0.0,
			"0.018": 0.0,
			"0.019": 0.0,
			"0.02": 0.0,
			"0.021": 0.0,
			"0.022": 0.0,
			"0.023": 0.0,
			"0.024": 0.0,
			"0.025": 0.0
		}
	}
}
