{
	 "smiles": "CC(C)C1=CC=C(C=C1)C1=NOC(CCl)=N1", 
	 "Tm": 324.15, 
	 "num_atms": 29, 
	 "gaussian": { 
		 "optdone": 1, 
		 "sigma_profile": "yes", 
		 "theory": "DFT", 
		 "functional": "B3LYP", 
		 "basiset": "6-31G**", 
		 "properties": { 
			 "R2extent": 7143.1846, 
			 "electric_dipole_moment_norm": 2.62282503229, 
			 "electric_quadrupole_moment_norm": 12.3577773386, 
			 "total_energy": -1110.01048628, 
			 "HOMO_LUMO_gap": 0.18169, 
			 "cosmo_polarized_energy": -9.29, 
			 "cosmo_cavitation_energy": 35.05, 
			 "cosmo_dispersion_energy": -25.3, 
			 "cosmo_repulsion_energy": 1.99, 
			 "cosmo_total_nonelectrostatic_energy": 11.74, 
			 "SMD_solvation_energy": 4.11 
		},
		"coords": [
			{
				"x": 0.5805763515,
				"y": -4.1881361583,
				"z": -1.9235398962,
				"element": "C" 
			},
			{
				"x": 0.63648256,
				"y": -3.8519833453,
				"z": -0.4209904346,
				"element": "C" 
			},
			{
				"x": 1.959868966,
				"y": -4.3315173821,
				"z": 0.2054925054,
				"element": "C" 
			},
			{
				"x": 0.3940761579,
				"y": -2.3714620957,
				"z": -0.1642172986,
				"element": "C" 
			},
			{
				"x": -0.7124533027,
				"y": -1.946011168,
				"z": 0.5815811257,
				"element": "C" 
			},
			{
				"x": -0.9481688262,
				"y": -0.5942625311,
				"z": 0.8248274336,
				"element": "C" 
			},
			{
				"x": -0.0699954033,
				"y": 0.37306594,
				"z": 0.3207273486,
				"element": "C" 
			},
			{
				"x": 1.0439162933,
				"y": -0.0386164975,
				"z": -0.4291163109,
				"element": "C" 
			},
			{
				"x": 1.2668851872,
				"y": -1.389874234,
				"z": -0.6642890519,
				"element": "C" 
			},
			{
				"x": -0.3208963169,
				"y": 1.7951894397,
				"z": 0.5780563806,
				"element": "C" 
			},
			{
				"x": 0.460780609,
				"y": 2.7563198822,
				"z": 0.1294328809,
				"element": "N" 
			},
			{
				"x": -0.1455542525,
				"y": 3.9255347596,
				"z": 0.6076510817,
				"element": "O" 
			},
			{
				"x": -1.2327015144,
				"y": 3.5362993223,
				"z": 1.2917947869,
				"element": "C" 
			},
			{
				"x": -2.0844272074,
				"y": 4.5780455246,
				"z": 1.9231211608,
				"element": "C" 
			},
			{
				"x": -3.1856468728,
				"y": 5.3706827024,
				"z": 0.7148209643,
				"element": "Cl" 
			},
			{
				"x": -1.4000969866,
				"y": 2.2494412285,
				"z": 1.3169685667,
				"element": "N" 
			},
			{
				"x": 0.6970755788,
				"y": -5.265826246,
				"z": -2.0811389569,
				"element": "H" 
			},
			{
				"x": 1.3818716407,
				"y": -3.6836854984,
				"z": -2.4744793043,
				"element": "H" 
			},
			{
				"x": -0.3724854245,
				"y": -3.8798627071,
				"z": -2.3641803113,
				"element": "H" 
			},
			{
				"x": -0.1783142165,
				"y": -4.4000357327,
				"z": 0.069925641,
				"element": "H" 
			},
			{
				"x": 2.0853995553,
				"y": -5.4100050724,
				"z": 0.0608353398,
				"element": "H" 
			},
			{
				"x": 2.8209365139,
				"y": -3.8328098229,
				"z": -0.2526998735,
				"element": "H" 
			},
			{
				"x": 1.9881001961,
				"y": -4.1258505137,
				"z": 1.2799732791,
				"element": "H" 
			},
			{
				"x": -1.4028184915,
				"y": -2.6859974219,
				"z": 0.9787131967,
				"element": "H" 
			},
			{
				"x": -1.8097924532,
				"y": -0.2781832517,
				"z": 1.4029318074,
				"element": "H" 
			},
			{
				"x": 1.7271792113,
				"y": 0.7069939609,
				"z": -0.8225315767,
				"element": "H" 
			},
			{
				"x": 2.134779399,
				"y": -1.6857019935,
				"z": -1.2470988288,
				"element": "H" 
			},
			{
				"x": -1.4755269993,
				"y": 5.3703056822,
				"z": 2.3582920146,
				"element": "H" 
			},
			{
				"x": -2.7134499523,
				"y": 4.1160432299,
				"z": 2.6814363297,
				"element": "H" 
			}
		],
		 "valence_orbital": [ 
			{
				"type": "occ",
				"energy": -0.31296,
				"method": "rhf"
			},
			{
				"type": "occ",
				"energy": -0.30321,
				"method": "rhf"
			},
			{
				"type": "occ",
				"energy": -0.30142,
				"method": "rhf"
			},
			{
				"type": "occ",
				"energy": -0.2572,
				"method": "rhf"
			},
			{
				"type": "occ",
				"energy": -0.23974,
				"method": "rhf"
			},
			{
				"type": "unocc",
				"energy": -0.05805,
				"method": "rhf"
			},
			{
				"type": "unocc",
				"energy": -0.03263,
				"method": "rhf"
			},
			{
				"type": "unocc",
				"energy": -0.00686,
				"method": "rhf"
			},
			{
				"type": "unocc",
				"energy": 0.03605,
				"method": "rhf"
			},
			{
				"type": "unocc",
				"energy": 0.06561,
				"method": "rhf"
			}
		],
		"cosmo_sigma_profile": { 
			"-0.025": 0.0,
			"-0.024": 0.0,
			"-0.023": 0.0,
			"-0.022": 0.0,
			"-0.021": 0.0,
			"-0.02": 0.0,
			"-0.019": 0.0,
			"-0.018": 0.0,
			"-0.017": 0.0,
			"-0.016": 0.0,
			"-0.015": 0.0,
			"-0.014": 0.0,
			"-0.013": 0.0,
			"-0.012": 0.0,
			"-0.011": 0.189326398166,
			"-0.01": 3.94506377594,
			"-0.009": 4.41504103135,
			"-0.008": 4.09744396062,
			"-0.007": 4.83548364233,
			"-0.006": 6.63688850923,
			"-0.005": 12.8553476768,
			"-0.004": 15.4945495768,
			"-0.003": 20.6058572249,
			"-0.002": 24.1895198217,
			"-0.001": 28.2836562824,
			"0.0": 26.4280360431,
			"0.001": 33.5272063787,
			"0.002": 20.9343714197,
			"0.003": 17.0948301082,
			"0.004": 20.8261521246,
			"0.005": 17.1462039736,
			"0.006": 6.5116354211,
			"0.007": 3.1539731674,
			"0.008": 2.27418651889,
			"0.009": 2.50837035941,
			"0.01": 2.24466964576,
			"0.011": 1.81853022589,
			"0.012": 0.695470719106,
			"0.013": 0.0236142234514,
			"0.014": 0.0,
			"0.015": 0.0,
			"0.016": 0.0,
			"0.017": 0.0,
			"0.018": 0.0,
			"0.019": 0.0,
			"0.02": 0.0,
			"0.021": 0.0,
			"0.022": 0.0,
			"0.023": 0.0,
			"0.024": 0.0,
			"0.025": 0.0
		}
	}
}
