{
	 "smiles": "CC1=CC=C(CNC(=O)C2=C(N)C=CC=C2)C=C1", 
	 "Tm": 414.15, 
	 "num_atms": 34, 
	 "gaussian": { 
		 "optdone": 1, 
		 "sigma_profile": "yes", 
		 "theory": "DFT", 
		 "functional": "B3LYP", 
		 "basiset": "6-31G**", 
		 "properties": { 
			 "R2extent": 6662.6912, 
			 "electric_dipole_moment_norm": 2.12079982554, 
			 "electric_quadrupole_moment_norm": 16.8759825512, 
			 "total_energy": -765.998260526, 
			 "HOMO_LUMO_gap": 0.1726, 
			 "cosmo_polarized_energy": -12.92, 
			 "cosmo_cavitation_energy": 37.36, 
			 "cosmo_dispersion_energy": -26.67, 
			 "cosmo_repulsion_energy": 2.07, 
			 "cosmo_total_nonelectrostatic_energy": 12.76, 
			 "SMD_solvation_energy": 5.95 
		},
		"coords": [
			{
				"x": -4.6649235575,
				"y": 2.7887412926,
				"z": 0.2134139905,
				"element": "C" 
			},
			{
				"x": -3.6313735469,
				"y": 1.6924332935,
				"z": 0.321913989,
				"element": "C" 
			},
			{
				"x": -3.9795697837,
				"y": 0.4033916231,
				"z": 0.7383603414,
				"element": "C" 
			},
			{
				"x": -3.023930044,
				"y": -0.6124298861,
				"z": 0.8123615322,
				"element": "C" 
			},
			{
				"x": -1.6892730343,
				"y": -0.3663801031,
				"z": 0.4801700785,
				"element": "C" 
			},
			{
				"x": -0.64739091,
				"y": -1.4640467495,
				"z": 0.5914800975,
				"element": "C" 
			},
			{
				"x": 0.1113362404,
				"y": -1.6313940855,
				"z": -0.650106705,
				"element": "N" 
			},
			{
				"x": 1.4666572195,
				"y": -1.5143109139,
				"z": -0.8548087618,
				"element": "C" 
			},
			{
				"x": 1.8795468116,
				"y": -1.1972467616,
				"z": -1.9788282308,
				"element": "O" 
			},
			{
				"x": 2.3964107693,
				"y": -1.8134090196,
				"z": 0.2735279334,
				"element": "C" 
			},
			{
				"x": 3.6535097818,
				"y": -1.1467953265,
				"z": 0.3417710128,
				"element": "C" 
			},
			{
				"x": 4.0008722195,
				"y": -0.1783649986,
				"z": -0.5747116212,
				"element": "N" 
			},
			{
				"x": 4.5195947096,
				"y": -1.4628894547,
				"z": 1.4093855972,
				"element": "C" 
			},
			{
				"x": 4.1870682572,
				"y": -2.4336999712,
				"z": 2.3437300076,
				"element": "C" 
			},
			{
				"x": 2.9770142133,
				"y": -3.1302496183,
				"z": 2.2493169717,
				"element": "C" 
			},
			{
				"x": 2.0999442976,
				"y": -2.8090282799,
				"z": 1.2194294764,
				"element": "C" 
			},
			{
				"x": -1.3345800745,
				"y": 0.9248117213,
				"z": 0.0624208425,
				"element": "C" 
			},
			{
				"x": -2.2900452007,
				"y": 1.9341194559,
				"z": -0.0139232276,
				"element": "C" 
			},
			{
				"x": -4.9316813252,
				"y": 2.9813362527,
				"z": -0.8331256468,
				"element": "H" 
			},
			{
				"x": -4.2931369472,
				"y": 3.7314583956,
				"z": 0.6284940655,
				"element": "H" 
			},
			{
				"x": -5.5845062371,
				"y": 2.5258433247,
				"z": 0.7437714426,
				"element": "H" 
			},
			{
				"x": -5.0115789401,
				"y": 0.1873805305,
				"z": 1.0037712727,
				"element": "H" 
			},
			{
				"x": -3.3220173382,
				"y": -1.6072556545,
				"z": 1.1353415952,
				"element": "H" 
			},
			{
				"x": -1.142656717,
				"y": -2.4033390709,
				"z": 0.8714382804,
				"element": "H" 
			},
			{
				"x": 0.0615379664,
				"y": -1.2303110495,
				"z": 1.3901345451,
				"element": "H" 
			},
			{
				"x": -0.4009454716,
				"y": -1.4357570751,
				"z": -1.5024754254,
				"element": "H" 
			},
			{
				"x": 3.5275259845,
				"y": -0.2654364566,
				"z": -1.4679852546,
				"element": "H" 
			},
			{
				"x": 4.979731437,
				"y": 0.0627256146,
				"z": -0.6150482024,
				"element": "H" 
			},
			{
				"x": 5.470686068,
				"y": -0.9407272079,
				"z": 1.4809500318,
				"element": "H" 
			},
			{
				"x": 4.8851539678,
				"y": -2.6612800452,
				"z": 3.144893148,
				"element": "H" 
			},
			{
				"x": 2.7280740234,
				"y": -3.9102561496,
				"z": 2.9612649942,
				"element": "H" 
			},
			{
				"x": 1.1709378014,
				"y": -3.3614723329,
				"z": 1.1198166741,
				"element": "H" 
			},
			{
				"x": -0.3031564811,
				"y": 1.1379206603,
				"z": -0.2062291203,
				"element": "H" 
			},
			{
				"x": -1.991436159,
				"y": 2.9287180459,
				"z": -0.3369157242,
				"element": "H" 
			}
		],
		 "valence_orbital": [ 
			{
				"type": "occ",
				"energy": -0.25339,
				"method": "rhf"
			},
			{
				"type": "occ",
				"energy": -0.24975,
				"method": "rhf"
			},
			{
				"type": "occ",
				"energy": -0.24179,
				"method": "rhf"
			},
			{
				"type": "occ",
				"energy": -0.23349,
				"method": "rhf"
			},
			{
				"type": "occ",
				"energy": -0.19903,
				"method": "rhf"
			},
			{
				"type": "unocc",
				"energy": -0.02643,
				"method": "rhf"
			},
			{
				"type": "unocc",
				"energy": -0.00577,
				"method": "rhf"
			},
			{
				"type": "unocc",
				"energy": -0.00406,
				"method": "rhf"
			},
			{
				"type": "unocc",
				"energy": 0.0146,
				"method": "rhf"
			},
			{
				"type": "unocc",
				"energy": 0.06088,
				"method": "rhf"
			}
		],
		"cosmo_sigma_profile": { 
			"-0.025": 0.0,
			"-0.024": 0.0,
			"-0.023": 0.0,
			"-0.022": 0.0,
			"-0.021": 0.0,
			"-0.02": 0.0,
			"-0.019": 0.0,
			"-0.018": 0.0,
			"-0.017": 0.0,
			"-0.016": 0.0,
			"-0.015": 0.0,
			"-0.014": 0.0,
			"-0.013": 0.451702488195,
			"-0.012": 2.11965013461,
			"-0.011": 1.86312509544,
			"-0.01": 2.11787079087,
			"-0.009": 2.54756639971,
			"-0.008": 2.80083616777,
			"-0.007": 3.22902402451,
			"-0.006": 8.67816381065,
			"-0.005": 22.1962679839,
			"-0.004": 29.9491926138,
			"-0.003": 30.0495126177,
			"-0.002": 23.0212726509,
			"-0.001": 21.3160244077,
			"0.0": 22.5883684806,
			"0.001": 16.8816469421,
			"0.002": 16.7839430234,
			"0.003": 17.4540879355,
			"0.004": 17.139507522,
			"0.005": 19.7273546409,
			"0.006": 15.4285295721,
			"0.007": 3.28354557987,
			"0.008": 2.8618168235,
			"0.009": 1.23160504106,
			"0.01": 1.98913943961,
			"0.011": 2.25957844382,
			"0.012": 2.4659560517,
			"0.013": 3.61315052568,
			"0.014": 2.17547112378,
			"0.015": 0.277528720686,
			"0.016": 0.0,
			"0.017": 0.0,
			"0.018": 0.0,
			"0.019": 0.0,
			"0.02": 0.0,
			"0.021": 0.0,
			"0.022": 0.0,
			"0.023": 0.0,
			"0.024": 0.0,
			"0.025": 0.0
		}
	}
}
