{
	 "smiles": "CCSC1=NN=C(N)S1", 
	 "Tm": 407.15, 
	 "num_atms": 16, 
	 "gaussian": { 
		 "optdone": 1, 
		 "sigma_profile": "yes", 
		 "theory": "DFT", 
		 "functional": "B3LYP", 
		 "basiset": "6-31G**", 
		 "properties": { 
			 "R2extent": 2285.0659, 
			 "electric_dipole_moment_norm": 1.94047059241, 
			 "electric_quadrupole_moment_norm": 17.9992634444, 
			 "total_energy": -1117.24448295, 
			 "HOMO_LUMO_gap": 0.19558, 
			 "cosmo_polarized_energy": -12.78, 
			 "cosmo_cavitation_energy": 23.14, 
			 "cosmo_dispersion_energy": -18.27, 
			 "cosmo_repulsion_energy": 1.43, 
			 "cosmo_total_nonelectrostatic_energy": 6.3, 
			 "SMD_solvation_energy": 1.93 
		},
		"coords": [
			{
				"x": -2.4431544401,
				"y": 0.6974862056,
				"z": 0.2794690221,
				"element": "C" 
			},
			{
				"x": -1.520589704,
				"y": 0.2745281856,
				"z": -0.8593552886,
				"element": "C" 
			},
			{
				"x": -0.5729388536,
				"y": -1.2743356626,
				"z": -0.5351346423,
				"element": "S" 
			},
			{
				"x": 0.6620936526,
				"y": -0.6626318787,
				"z": 0.5638951927,
				"element": "C" 
			},
			{
				"x": 0.8228306876,
				"y": 0.5743547225,
				"z": 0.9187691471,
				"element": "N" 
			},
			{
				"x": 1.8620092472,
				"y": 0.7660112151,
				"z": 1.7999315022,
				"element": "N" 
			},
			{
				"x": 2.4906108437,
				"y": -0.3371550776,
				"z": 2.087179659,
				"element": "C" 
			},
			{
				"x": 3.6212007148,
				"y": -0.3915454862,
				"z": 2.8714275283,
				"element": "N" 
			},
			{
				"x": 1.8411148055,
				"y": -1.77481626,
				"z": 1.2871041766,
				"element": "S" 
			},
			{
				"x": -1.8637273081,
				"y": 0.9328105526,
				"z": 1.174267527,
				"element": "H" 
			},
			{
				"x": -3.1662433222,
				"y": -0.086857875,
				"z": 0.5200669395,
				"element": "H" 
			},
			{
				"x": -2.9968255231,
				"y": 1.5969713964,
				"z": -0.0136372764,
				"element": "H" 
			},
			{
				"x": -0.7912625978,
				"y": 1.0519417466,
				"z": -1.0948193472,
				"element": "H" 
			},
			{
				"x": -2.0807726346,
				"y": 0.0379862611,
				"z": -1.7690291386,
				"element": "H" 
			},
			{
				"x": 3.7114896127,
				"y": -1.1981007308,
				"z": 3.4738947356,
				"element": "H" 
			},
			{
				"x": 3.7938648195,
				"y": 0.4850526853,
				"z": 3.348770263,
				"element": "H" 
			}
		],
		 "valence_orbital": [ 
			{
				"type": "occ",
				"energy": -0.29929,
				"method": "rhf"
			},
			{
				"type": "occ",
				"energy": -0.29614,
				"method": "rhf"
			},
			{
				"type": "occ",
				"energy": -0.2679,
				"method": "rhf"
			},
			{
				"type": "occ",
				"energy": -0.26084,
				"method": "rhf"
			},
			{
				"type": "occ",
				"energy": -0.21412,
				"method": "rhf"
			},
			{
				"type": "unocc",
				"energy": -0.01854,
				"method": "rhf"
			},
			{
				"type": "unocc",
				"energy": -0.00848,
				"method": "rhf"
			},
			{
				"type": "unocc",
				"energy": 0.02382,
				"method": "rhf"
			},
			{
				"type": "unocc",
				"energy": 0.04333,
				"method": "rhf"
			},
			{
				"type": "unocc",
				"energy": 0.0517,
				"method": "rhf"
			}
		],
		"cosmo_sigma_profile": { 
			"-0.025": 0.0,
			"-0.024": 0.0,
			"-0.023": 0.0,
			"-0.022": 0.0,
			"-0.021": 0.0,
			"-0.02": 0.0,
			"-0.019": 0.0,
			"-0.018": 0.0,
			"-0.017": 0.0,
			"-0.016": 0.00328146682333,
			"-0.015": 1.03932114662,
			"-0.014": 2.35143237551,
			"-0.013": 3.68802244666,
			"-0.012": 2.33257814545,
			"-0.011": 2.10237040225,
			"-0.01": 1.87823109735,
			"-0.009": 2.28116331752,
			"-0.008": 2.40952927066,
			"-0.007": 3.96537781353,
			"-0.006": 4.08195774112,
			"-0.005": 5.37246194049,
			"-0.004": 10.3038242163,
			"-0.003": 14.3706792706,
			"-0.002": 13.990259947,
			"-0.001": 14.3149374115,
			"0.0": 20.9357595125,
			"0.001": 16.0583940071,
			"0.002": 13.6715586742,
			"0.003": 10.7215822904,
			"0.004": 7.06128677501,
			"0.005": 5.48855270804,
			"0.006": 5.78065694827,
			"0.007": 4.40290937131,
			"0.008": 2.70797487168,
			"0.009": 3.08740702047,
			"0.01": 2.72684577768,
			"0.011": 2.77308171241,
			"0.012": 3.45464259283,
			"0.013": 2.24253694583,
			"0.014": 1.41292178288,
			"0.015": 0.811019496601,
			"0.016": 0.0314715554267,
			"0.017": 0.0,
			"0.018": 0.0,
			"0.019": 0.0,
			"0.02": 0.0,
			"0.021": 0.0,
			"0.022": 0.0,
			"0.023": 0.0,
			"0.024": 0.0,
			"0.025": 0.0
		}
	}
}
