{
	 "smiles": "CC(=O)NC1=CC=CC(NCC(=O)C2=CC=CC=C2)=C1", 
	 "Tm": 444.15, 
	 "num_atms": 36, 
	 "gaussian": { 
		 "optdone": 1, 
		 "sigma_profile": "yes", 
		 "theory": "DFT", 
		 "functional": "B3LYP", 
		 "basiset": "6-31G**", 
		 "properties": { 
			 "R2extent": 7283.5721, 
			 "electric_dipole_moment_norm": 6.91698097511, 
			 "electric_quadrupole_moment_norm": 19.4079231808, 
			 "total_energy": -879.310067931, 
			 "HOMO_LUMO_gap": 0.13366, 
			 "cosmo_polarized_energy": -19.56, 
			 "cosmo_cavitation_energy": 40.0, 
			 "cosmo_dispersion_energy": -27.68, 
			 "cosmo_repulsion_energy": 2.11, 
			 "cosmo_total_nonelectrostatic_energy": 14.43, 
			 "SMD_solvation_energy": 7.54 
		},
		"coords": [
			{
				"x": 0.9703005089,
				"y": -3.7846147483,
				"z": 1.6676113159,
				"element": "C" 
			},
			{
				"x": 1.774483529,
				"y": -3.8163753878,
				"z": 0.3831235289,
				"element": "C" 
			},
			{
				"x": 1.9094423632,
				"y": -4.8418413263,
				"z": -0.2705134562,
				"element": "O" 
			},
			{
				"x": 2.4035172417,
				"y": -2.6588723323,
				"z": -0.0532907325,
				"element": "N" 
			},
			{
				"x": 2.455848141,
				"y": -1.3415778443,
				"z": 0.4479126237,
				"element": "C" 
			},
			{
				"x": 3.6287607209,
				"y": -0.6026041381,
				"z": 0.2327474913,
				"element": "C" 
			},
			{
				"x": 3.6980866292,
				"y": 0.7160391139,
				"z": 0.6788886616,
				"element": "C" 
			},
			{
				"x": 2.6309236757,
				"y": 1.3074606768,
				"z": 1.3462206033,
				"element": "C" 
			},
			{
				"x": 1.4497716382,
				"y": 0.574127435,
				"z": 1.5612372905,
				"element": "C" 
			},
			{
				"x": 0.3677615188,
				"y": 1.192000413,
				"z": 2.1967941697,
				"element": "N" 
			},
			{
				"x": -0.7140843732,
				"y": 0.4202002525,
				"z": 2.7857570785,
				"element": "C" 
			},
			{
				"x": -1.7843645453,
				"y": -0.0472753026,
				"z": 1.777025514,
				"element": "C" 
			},
			{
				"x": -1.9686026025,
				"y": -1.2483617615,
				"z": 1.6289736524,
				"element": "O" 
			},
			{
				"x": -2.5995117104,
				"y": 0.9529951289,
				"z": 1.0251529083,
				"element": "C" 
			},
			{
				"x": -2.4702378801,
				"y": 2.3395729133,
				"z": 1.203393012,
				"element": "C" 
			},
			{
				"x": -3.2829056911,
				"y": 3.2192727801,
				"z": 0.4898841958,
				"element": "C" 
			},
			{
				"x": -4.229405962,
				"y": 2.7244591716,
				"z": -0.4097448503,
				"element": "C" 
			},
			{
				"x": -4.363618503,
				"y": 1.3451602443,
				"z": -0.5961436801,
				"element": "C" 
			},
			{
				"x": -3.5549414402,
				"y": 0.4662423016,
				"z": 0.1167164115,
				"element": "C" 
			},
			{
				"x": 1.3636316674,
				"y": -0.747181196,
				"z": 1.0942730158,
				"element": "C" 
			},
			{
				"x": -0.0424845635,
				"y": -3.4071778839,
				"z": 1.4913311808,
				"element": "H" 
			},
			{
				"x": 0.894234233,
				"y": -4.8132744743,
				"z": 2.0214574813,
				"element": "H" 
			},
			{
				"x": 1.4323738858,
				"y": -3.1565172054,
				"z": 2.4333009873,
				"element": "H" 
			},
			{
				"x": 2.9988915957,
				"y": -2.8541019916,
				"z": -0.8489813286,
				"element": "H" 
			},
			{
				"x": 4.4756547467,
				"y": -1.0637500845,
				"z": -0.2664425296,
				"element": "H" 
			},
			{
				"x": 4.6069018724,
				"y": 1.2880711882,
				"z": 0.5146861116,
				"element": "H" 
			},
			{
				"x": 2.7013899496,
				"y": 2.3345995148,
				"z": 1.694980938,
				"element": "H" 
			},
			{
				"x": 0.6273450925,
				"y": 2.0155107048,
				"z": 2.7195290289,
				"element": "H" 
			},
			{
				"x": -0.3572051058,
				"y": -0.4893433356,
				"z": 3.2869813109,
				"element": "H" 
			},
			{
				"x": -1.2048370057,
				"y": 1.0472839216,
				"z": 3.5380648598,
				"element": "H" 
			},
			{
				"x": -1.7266621958,
				"y": 2.7358735629,
				"z": 1.8846698514,
				"element": "H" 
			},
			{
				"x": -3.175789238,
				"y": 4.2904366981,
				"z": 0.6328617577,
				"element": "H" 
			},
			{
				"x": -4.8602923751,
				"y": 3.4120732627,
				"z": -0.9658666703,
				"element": "H" 
			},
			{
				"x": -5.0988227295,
				"y": 0.9594957286,
				"z": -1.2962313769,
				"element": "H" 
			},
			{
				"x": -3.6429853383,
				"y": -0.6076862942,
				"z": -0.0078675268,
				"element": "H" 
			},
			{
				"x": 0.4393322498,
				"y": -1.2951197063,
				"z": 1.1957071704,
				"element": "H" 
			}
		],
		 "valence_orbital": [ 
			{
				"type": "occ",
				"energy": -0.26441,
				"method": "rhf"
			},
			{
				"type": "occ",
				"energy": -0.26158,
				"method": "rhf"
			},
			{
				"type": "occ",
				"energy": -0.24208,
				"method": "rhf"
			},
			{
				"type": "occ",
				"energy": -0.22345,
				"method": "rhf"
			},
			{
				"type": "occ",
				"energy": -0.20204,
				"method": "rhf"
			},
			{
				"type": "unocc",
				"energy": -0.06838,
				"method": "rhf"
			},
			{
				"type": "unocc",
				"energy": -0.01467,
				"method": "rhf"
			},
			{
				"type": "unocc",
				"energy": -0.00661,
				"method": "rhf"
			},
			{
				"type": "unocc",
				"energy": 0.0083,
				"method": "rhf"
			},
			{
				"type": "unocc",
				"energy": 0.02406,
				"method": "rhf"
			}
		],
		"cosmo_sigma_profile": { 
			"-0.025": 0.0,
			"-0.024": 0.0,
			"-0.023": 0.0,
			"-0.022": 0.0,
			"-0.021": 0.0,
			"-0.02": 0.0,
			"-0.019": 0.0,
			"-0.018": 0.0,
			"-0.017": 0.0,
			"-0.016": 0.0,
			"-0.015": 0.0,
			"-0.014": 0.377095355453,
			"-0.013": 2.47506271185,
			"-0.012": 2.3609026444,
			"-0.011": 3.21991729032,
			"-0.01": 3.25586783166,
			"-0.009": 2.96959945549,
			"-0.008": 5.21293474953,
			"-0.007": 8.06780949277,
			"-0.006": 14.8459551404,
			"-0.005": 20.2603377966,
			"-0.004": 25.9675379493,
			"-0.003": 22.9687258308,
			"-0.002": 23.22896018,
			"-0.001": 21.9113328015,
			"0.0": 19.8691326737,
			"0.001": 19.4485052073,
			"0.002": 21.0236427207,
			"0.003": 20.5252352924,
			"0.004": 24.1865044959,
			"0.005": 13.8419800327,
			"0.006": 10.9551187753,
			"0.007": 6.29282920732,
			"0.008": 3.45787599268,
			"0.009": 1.88238265259,
			"0.01": 3.54167236343,
			"0.011": 4.40659562433,
			"0.012": 2.69247525405,
			"0.013": 4.17731686757,
			"0.014": 4.63146976405,
			"0.015": 0.657049027775,
			"0.016": 0.0,
			"0.017": 0.0,
			"0.018": 0.0,
			"0.019": 0.0,
			"0.02": 0.0,
			"0.021": 0.0,
			"0.022": 0.0,
			"0.023": 0.0,
			"0.024": 0.0,
			"0.025": 0.0
		}
	}
}
