{
	 "smiles": "CC1=NC(=CC=C1)C#N", 
	 "Tm": 344.15, 
	 "num_atms": 15, 
	 "gaussian": { 
		 "optdone": 1, 
		 "sigma_profile": "yes", 
		 "theory": "DFT", 
		 "functional": "B3LYP", 
		 "basiset": "6-31G**", 
		 "properties": { 
			 "R2extent": 2205.6187, 
			 "electric_dipole_moment_norm": 5.73898085465, 
			 "electric_quadrupole_moment_norm": 19.7603248774, 
			 "total_energy": -379.845425768, 
			 "HOMO_LUMO_gap": 0.20718, 
			 "cosmo_polarized_energy": -10.58, 
			 "cosmo_cavitation_energy": 20.42, 
			 "cosmo_dispersion_energy": -14.56, 
			 "cosmo_repulsion_energy": 1.2, 
			 "cosmo_total_nonelectrostatic_energy": 7.07, 
			 "SMD_solvation_energy": 3.79 
		},
		"coords": [
			{
				"x": -0.3194061648,
				"y": -1.9498598201,
				"z": 1.210172138,
				"element": "C" 
			},
			{
				"x": -1.1648585155,
				"y": -0.9558625444,
				"z": 0.4543405233,
				"element": "C" 
			},
			{
				"x": -1.894561878,
				"y": -0.1024588337,
				"z": 1.1825077481,
				"element": "N" 
			},
			{
				"x": -2.6566589952,
				"y": 0.7933948481,
				"z": 0.5300346565,
				"element": "C" 
			},
			{
				"x": -2.7351258004,
				"y": 0.8898636445,
				"z": -0.8628413142,
				"element": "C" 
			},
			{
				"x": -1.971518243,
				"y": -0.0032003327,
				"z": -1.6142828443,
				"element": "C" 
			},
			{
				"x": -1.1796268616,
				"y": -0.93397534,
				"z": -0.9523817038,
				"element": "C" 
			},
			{
				"x": -3.4297894429,
				"y": 1.6975555751,
				"z": 1.3497807578,
				"element": "C" 
			},
			{
				"x": -4.0641406092,
				"y": 2.4395963591,
				"z": 1.9803025198,
				"element": "N" 
			},
			{
				"x": -0.4486520558,
				"y": -1.8018393144,
				"z": 2.2829391595,
				"element": "H" 
			},
			{
				"x": -0.6009142186,
				"y": -2.97848387,
				"z": 0.9584299195,
				"element": "H" 
			},
			{
				"x": 0.7415955247,
				"y": -1.8337426127,
				"z": 0.9622204524,
				"element": "H" 
			},
			{
				"x": -3.3697476624,
				"y": 1.6356059602,
				"z": -1.3281529841,
				"element": "H" 
			},
			{
				"x": -1.9972397925,
				"y": 0.0304563269,
				"z": -2.6992533764,
				"element": "H" 
			},
			{
				"x": -0.5739552848,
				"y": -1.6424500458,
				"z": -1.5096156521,
				"element": "H" 
			}
		],
		 "valence_orbital": [ 
			{
				"type": "occ",
				"energy": -0.34835,
				"method": "rhf"
			},
			{
				"type": "occ",
				"energy": -0.33465,
				"method": "rhf"
			},
			{
				"type": "occ",
				"energy": -0.30578,
				"method": "rhf"
			},
			{
				"type": "occ",
				"energy": -0.27913,
				"method": "rhf"
			},
			{
				"type": "occ",
				"energy": -0.27061,
				"method": "rhf"
			},
			{
				"type": "unocc",
				"energy": -0.06343,
				"method": "rhf"
			},
			{
				"type": "unocc",
				"energy": -0.03778,
				"method": "rhf"
			},
			{
				"type": "unocc",
				"energy": 0.03505,
				"method": "rhf"
			},
			{
				"type": "unocc",
				"energy": 0.06592,
				"method": "rhf"
			},
			{
				"type": "unocc",
				"energy": 0.08135,
				"method": "rhf"
			}
		],
		"cosmo_sigma_profile": { 
			"-0.025": 0.0,
			"-0.024": 0.0,
			"-0.023": 0.0,
			"-0.022": 0.0,
			"-0.021": 0.0,
			"-0.02": 0.0,
			"-0.019": 0.0,
			"-0.018": 0.0,
			"-0.017": 0.0,
			"-0.016": 0.0,
			"-0.015": 0.0,
			"-0.014": 0.0,
			"-0.013": 0.0,
			"-0.012": 0.0,
			"-0.011": 0.0,
			"-0.01": 0.0,
			"-0.009": 0.946527485735,
			"-0.008": 5.60086271812,
			"-0.007": 7.59213544749,
			"-0.006": 8.50874974439,
			"-0.005": 10.7844118677,
			"-0.004": 11.8386417532,
			"-0.003": 11.5513494517,
			"-0.002": 13.2693123493,
			"-0.001": 17.4055457632,
			"0.0": 17.4032938093,
			"0.001": 12.6275124704,
			"0.002": 4.67060603495,
			"0.003": 5.0941811735,
			"0.004": 3.94243947941,
			"0.005": 4.78982882687,
			"0.006": 4.42677739811,
			"0.007": 4.00225908449,
			"0.008": 4.5485074852,
			"0.009": 4.05734463577,
			"0.01": 4.38253118315,
			"0.011": 3.2408712249,
			"0.012": 2.56186228271,
			"0.013": 1.50864048168,
			"0.014": 0.161579659751,
			"0.015": 0.0,
			"0.016": 0.0,
			"0.017": 0.0,
			"0.018": 0.0,
			"0.019": 0.0,
			"0.02": 0.0,
			"0.021": 0.0,
			"0.022": 0.0,
			"0.023": 0.0,
			"0.024": 0.0,
			"0.025": 0.0
		}
	}
}
