{
	 "smiles": "OC(=O)CN1C=CN=C1", 
	 "Tm": 532.15, 
	 "num_atms": 15, 
	 "gaussian": { 
		 "optdone": 1, 
		 "sigma_profile": "yes", 
		 "theory": "DFT", 
		 "functional": "B3LYP", 
		 "basiset": "6-31G**", 
		 "properties": { 
			 "R2extent": 1826.3704, 
			 "electric_dipole_moment_norm": 4.68900642994, 
			 "electric_quadrupole_moment_norm": 10.4947192669, 
			 "total_energy": -454.09257324, 
			 "HOMO_LUMO_gap": 0.21287, 
			 "cosmo_polarized_energy": -17.6, 
			 "cosmo_cavitation_energy": 19.97, 
			 "cosmo_dispersion_energy": -14.52, 
			 "cosmo_repulsion_energy": 1.2, 
			 "cosmo_total_nonelectrostatic_energy": 6.65, 
			 "SMD_solvation_energy": 3.93 
		},
		"coords": [
			{
				"x": 0.7247471538,
				"y": -0.8851843739,
				"z": -2.1634546239,
				"element": "O" 
			},
			{
				"x": 0.6261714151,
				"y": -1.3399321666,
				"z": -0.8932486007,
				"element": "C" 
			},
			{
				"x": 1.4781286753,
				"y": -1.9913612968,
				"z": -0.3424051801,
				"element": "O" 
			},
			{
				"x": -0.7211150789,
				"y": -0.9283260946,
				"z": -0.3049553958,
				"element": "C" 
			},
			{
				"x": -0.8434025653,
				"y": -1.2067434433,
				"z": 1.1038048955,
				"element": "N" 
			},
			{
				"x": -0.9200779398,
				"y": -2.4483282697,
				"z": 1.7086855298,
				"element": "C" 
			},
			{
				"x": -1.0315747613,
				"y": -2.1945155079,
				"z": 3.0515063484,
				"element": "C" 
			},
			{
				"x": -1.0250933248,
				"y": -0.8376357461,
				"z": 3.2955597423,
				"element": "N" 
			},
			{
				"x": -0.9084181119,
				"y": -0.279168225,
				"z": 2.1137134731,
				"element": "C" 
			},
			{
				"x": 1.5825043199,
				"y": -1.1919415054,
				"z": -2.5029055809,
				"element": "H" 
			},
			{
				"x": -1.5051278512,
				"y": -1.442061405,
				"z": -0.8748745902,
				"element": "H" 
			},
			{
				"x": -0.8647715473,
				"y": 0.1421999835,
				"z": -0.4748293564,
				"element": "H" 
			},
			{
				"x": -0.8673604813,
				"y": -3.3631396401,
				"z": 1.1394639242,
				"element": "H" 
			},
			{
				"x": -1.1147517211,
				"y": -2.9112371143,
				"z": 3.8567038648,
				"element": "H" 
			},
			{
				"x": -0.8739581811,
				"y": 0.7835748052,
				"z": 1.91073555,
				"element": "H" 
			}
		],
		 "valence_orbital": [ 
			{
				"type": "occ",
				"energy": -0.34097,
				"method": "rhf"
			},
			{
				"type": "occ",
				"energy": -0.30057,
				"method": "rhf"
			},
			{
				"type": "occ",
				"energy": -0.26981,
				"method": "rhf"
			},
			{
				"type": "occ",
				"energy": -0.26196,
				"method": "rhf"
			},
			{
				"type": "occ",
				"energy": -0.22431,
				"method": "rhf"
			},
			{
				"type": "unocc",
				"energy": -0.01144,
				"method": "rhf"
			},
			{
				"type": "unocc",
				"energy": 0.02532,
				"method": "rhf"
			},
			{
				"type": "unocc",
				"energy": 0.06051,
				"method": "rhf"
			},
			{
				"type": "unocc",
				"energy": 0.07327,
				"method": "rhf"
			},
			{
				"type": "unocc",
				"energy": 0.08533,
				"method": "rhf"
			}
		],
		"cosmo_sigma_profile": { 
			"-0.025": 0.0,
			"-0.024": 0.0,
			"-0.023": 0.0,
			"-0.022": 0.0,
			"-0.021": 0.0,
			"-0.02": 0.0,
			"-0.019": 0.307224235209,
			"-0.018": 0.917096278752,
			"-0.017": 1.03970363732,
			"-0.016": 1.02045853579,
			"-0.015": 0.658909435239,
			"-0.014": 0.701541746705,
			"-0.013": 0.452231167162,
			"-0.012": 0.738512869988,
			"-0.011": 1.40169853413,
			"-0.01": 3.86279141136,
			"-0.009": 9.00390690289,
			"-0.008": 8.89922732956,
			"-0.007": 6.83058621404,
			"-0.006": 10.7098487566,
			"-0.005": 6.46742898908,
			"-0.004": 7.0625993075,
			"-0.003": 7.28738282444,
			"-0.002": 5.88181210815,
			"-0.001": 7.23985283066,
			"0.0": 5.63422374523,
			"0.001": 5.15804965969,
			"0.002": 5.60608424287,
			"0.003": 6.56273361673,
			"0.004": 5.94916037801,
			"0.005": 6.64082145987,
			"0.006": 8.04280347943,
			"0.007": 5.90081001359,
			"0.008": 4.62418035225,
			"0.009": 4.60029235715,
			"0.01": 5.11107432488,
			"0.011": 6.29072450143,
			"0.012": 2.11646686555,
			"0.013": 1.15740876579,
			"0.014": 1.4033660278,
			"0.015": 0.850436630441,
			"0.016": 1.27879797053,
			"0.017": 1.20027577824,
			"0.018": 0.709205226693,
			"0.019": 0.0385498632266,
			"0.02": 0.0,
			"0.021": 0.0,
			"0.022": 0.0,
			"0.023": 0.0,
			"0.024": 0.0,
			"0.025": 0.0
		}
	}
}
