{
	 "smiles": "CCOC(=O)NP(=O)(N1CC1)N1CC1", 
	 "Tm": 362.15, 
	 "num_atms": 28, 
	 "gaussian": { 
		 "optdone": 1, 
		 "sigma_profile": "yes", 
		 "theory": "DFT", 
		 "functional": "B3LYP", 
		 "basiset": "6-31G**", 
		 "properties": { 
			 "R2extent": 4310.5592, 
			 "electric_dipole_moment_norm": 2.49632635286, 
			 "electric_quadrupole_moment_norm": 17.1842592503, 
			 "total_energy": -1006.45188497, 
			 "HOMO_LUMO_gap": 0.28636, 
			 "cosmo_polarized_energy": -17.62, 
			 "cosmo_cavitation_energy": 33.48, 
			 "cosmo_dispersion_energy": -22.66, 
			 "cosmo_repulsion_energy": 1.79, 
			 "cosmo_total_nonelectrostatic_energy": 12.61, 
			 "SMD_solvation_energy": 3.21 
		},
		"coords": [
			{
				"x": -0.488789372,
				"y": 3.7828278032,
				"z": -0.2052116683,
				"element": "C" 
			},
			{
				"x": -1.7608972168,
				"y": 2.9870274562,
				"z": 0.0140837285,
				"element": "C" 
			},
			{
				"x": -1.4966218228,
				"y": 1.627812163,
				"z": -0.4032293386,
				"element": "O" 
			},
			{
				"x": -2.5485671922,
				"y": 0.788472834,
				"z": -0.3315560539,
				"element": "C" 
			},
			{
				"x": -3.6381814222,
				"y": 1.0701329319,
				"z": 0.1234119208,
				"element": "O" 
			},
			{
				"x": -2.2329937311,
				"y": -0.4630824048,
				"z": -0.8363876259,
				"element": "N" 
			},
			{
				"x": -0.8227706988,
				"y": -1.0104134031,
				"z": -1.6191841202,
				"element": "P" 
			},
			{
				"x": -0.2159708748,
				"y": -0.0797135443,
				"z": -2.6127681916,
				"element": "O" 
			},
			{
				"x": -1.4497941104,
				"y": -2.4799391013,
				"z": -2.1974143768,
				"element": "N" 
			},
			{
				"x": -0.6156570925,
				"y": -3.3056032159,
				"z": -3.0851489845,
				"element": "C" 
			},
			{
				"x": -1.7860546121,
				"y": -2.5732087226,
				"z": -3.6309409341,
				"element": "C" 
			},
			{
				"x": 0.1892534572,
				"y": -1.5377008344,
				"z": -0.3610066133,
				"element": "N" 
			},
			{
				"x": 1.6497988914,
				"y": -1.51528888,
				"z": -0.5766988985,
				"element": "C" 
			},
			{
				"x": 1.0149104638,
				"y": -0.5365495992,
				"z": 0.3393966333,
				"element": "C" 
			},
			{
				"x": -0.1862259695,
				"y": 3.7489690556,
				"z": -1.2552706587,
				"element": "H" 
			},
			{
				"x": 0.3313827732,
				"y": 3.3906486496,
				"z": 0.4036145876,
				"element": "H" 
			},
			{
				"x": -0.6538895361,
				"y": 4.8274085959,
				"z": 0.0766625219,
				"element": "H" 
			},
			{
				"x": -2.0700473114,
				"y": 2.9812995917,
				"z": 1.0639451428,
				"element": "H" 
			},
			{
				"x": -2.5952361144,
				"y": 3.3788777808,
				"z": -0.5752671678,
				"element": "H" 
			},
			{
				"x": -2.964230636,
				"y": -1.1488383265,
				"z": -0.6972285579,
				"element": "H" 
			},
			{
				"x": 0.3697309203,
				"y": -2.9353546926,
				"z": -3.3607252029,
				"element": "H" 
			},
			{
				"x": -0.6732160006,
				"y": -4.3732907417,
				"z": -2.891453675,
				"element": "H" 
			},
			{
				"x": -1.5829235863,
				"y": -1.7035055662,
				"z": -4.2516267063,
				"element": "H" 
			},
			{
				"x": -2.7114590685,
				"y": -3.1026987081,
				"z": -3.8407760764,
				"element": "H" 
			},
			{
				"x": 2.1740338906,
				"y": -2.3793595652,
				"z": -0.1771505,
				"element": "H" 
			},
			{
				"x": 2.0142082859,
				"y": -1.1332015655,
				"z": -1.5276368567,
				"element": "H" 
			},
			{
				"x": 0.957138706,
				"y": 0.4958339939,
				"z": 0.0049586725,
				"element": "H" 
			},
			{
				"x": 1.06866898,
				"y": -0.6796619843,
				"z": 1.4155089997,
				"element": "H" 
			}
		],
		 "valence_orbital": [ 
			{
				"type": "occ",
				"energy": -0.29759,
				"method": "rhf"
			},
			{
				"type": "occ",
				"energy": -0.28298,
				"method": "rhf"
			},
			{
				"type": "occ",
				"energy": -0.27587,
				"method": "rhf"
			},
			{
				"type": "occ",
				"energy": -0.2634,
				"method": "rhf"
			},
			{
				"type": "occ",
				"energy": -0.24981,
				"method": "rhf"
			},
			{
				"type": "unocc",
				"energy": 0.03655,
				"method": "rhf"
			},
			{
				"type": "unocc",
				"energy": 0.06335,
				"method": "rhf"
			},
			{
				"type": "unocc",
				"energy": 0.07412,
				"method": "rhf"
			},
			{
				"type": "unocc",
				"energy": 0.08903,
				"method": "rhf"
			},
			{
				"type": "unocc",
				"energy": 0.09286,
				"method": "rhf"
			}
		],
		"cosmo_sigma_profile": { 
			"-0.025": 0.0,
			"-0.024": 0.0,
			"-0.023": 0.0,
			"-0.022": 0.0,
			"-0.021": 0.0,
			"-0.02": 0.0,
			"-0.019": 0.0,
			"-0.018": 0.0,
			"-0.017": 0.0,
			"-0.016": 0.0,
			"-0.015": 0.618108822828,
			"-0.014": 0.461824149968,
			"-0.013": 0.468799414833,
			"-0.012": 0.784276910861,
			"-0.011": 0.543949465208,
			"-0.01": 1.18206723254,
			"-0.009": 0.674540828923,
			"-0.008": 0.683797993922,
			"-0.007": 5.72679499278,
			"-0.006": 13.0109152433,
			"-0.005": 23.9525019258,
			"-0.004": 28.8704027158,
			"-0.003": 32.1058642923,
			"-0.002": 26.7834955076,
			"-0.001": 22.893077336,
			"0.0": 20.4630604738,
			"0.001": 13.5868618062,
			"0.002": 6.86937527092,
			"0.003": 5.64755044581,
			"0.004": 5.13978462354,
			"0.005": 4.51964080885,
			"0.006": 4.07339379525,
			"0.007": 3.85005530082,
			"0.008": 4.09476583642,
			"0.009": 3.51629475403,
			"0.01": 4.02071908213,
			"0.011": 6.6118668492,
			"0.012": 7.64370587625,
			"0.013": 4.40038223144,
			"0.014": 4.96745719964,
			"0.015": 3.66075151204,
			"0.016": 0.125742838013,
			"0.017": 0.0,
			"0.018": 0.0,
			"0.019": 0.0,
			"0.02": 0.0,
			"0.021": 0.0,
			"0.022": 0.0,
			"0.023": 0.0,
			"0.024": 0.0,
			"0.025": 0.0
		}
	}
}
