{
	 "smiles": "CC1=NN(C(N)=C1)C1=CC=CC=C1", 
	 "Tm": 389.15, 
	 "num_atms": 24, 
	 "gaussian": { 
		 "optdone": 1, 
		 "sigma_profile": "yes", 
		 "theory": "DFT", 
		 "functional": "B3LYP", 
		 "basiset": "6-31G**", 
		 "properties": { 
			 "R2extent": 2707.7559, 
			 "electric_dipole_moment_norm": 2.90643130144, 
			 "electric_quadrupole_moment_norm": 7.31403577787, 
			 "total_energy": -551.933975646, 
			 "HOMO_LUMO_gap": 0.19206, 
			 "cosmo_polarized_energy": -11.75, 
			 "cosmo_cavitation_energy": 27.49, 
			 "cosmo_dispersion_energy": -20.43, 
			 "cosmo_repulsion_energy": 1.63, 
			 "cosmo_total_nonelectrostatic_energy": 8.69, 
			 "SMD_solvation_energy": 4.17 
		},
		"coords": [
			{
				"x": -2.4131865367,
				"y": 0.2287478873,
				"z": 3.1073791829,
				"element": "C" 
			},
			{
				"x": -1.2501445546,
				"y": 0.2549667728,
				"z": 2.1634965317,
				"element": "C" 
			},
			{
				"x": -1.25384452,
				"y": -0.5091358369,
				"z": 1.0798682313,
				"element": "N" 
			},
			{
				"x": -0.0482142221,
				"y": -0.2605110815,
				"z": 0.4605481012,
				"element": "N" 
			},
			{
				"x": 0.6812391485,
				"y": 0.6798780684,
				"z": 1.1477259015,
				"element": "C" 
			},
			{
				"x": 1.9446629135,
				"y": 1.1085101896,
				"z": 0.7396351388,
				"element": "N" 
			},
			{
				"x": -0.0622658823,
				"y": 1.0259235239,
				"z": 2.2602583166,
				"element": "C" 
			},
			{
				"x": 0.2441010549,
				"y": -0.9031212172,
				"z": -0.7682506172,
				"element": "C" 
			},
			{
				"x": -0.8107101949,
				"y": -1.2098705502,
				"z": -1.6392137699,
				"element": "C" 
			},
			{
				"x": -0.5447506798,
				"y": -1.8502022527,
				"z": -2.8464789278,
				"element": "C" 
			},
			{
				"x": 0.7654424322,
				"y": -2.1812471412,
				"z": -3.2038523965,
				"element": "C" 
			},
			{
				"x": 1.8101443935,
				"y": -1.882470101,
				"z": -2.3295636857,
				"element": "C" 
			},
			{
				"x": 1.5579153164,
				"y": -1.2553910451,
				"z": -1.1078285274,
				"element": "C" 
			},
			{
				"x": -2.8591218041,
				"y": 1.2236201257,
				"z": 3.2196429967,
				"element": "H" 
			},
			{
				"x": -2.109416789,
				"y": -0.1061179267,
				"z": 4.1057179683,
				"element": "H" 
			},
			{
				"x": -3.1787366559,
				"y": -0.4540837856,
				"z": 2.7325290713,
				"element": "H" 
			},
			{
				"x": 2.040450671,
				"y": 1.1979368697,
				"z": -0.2661602856,
				"element": "H" 
			},
			{
				"x": 2.2117323883,
				"y": 1.9704342838,
				"z": 1.1983163652,
				"element": "H" 
			},
			{
				"x": 0.2101809627,
				"y": 1.740030072,
				"z": 3.0239049273,
				"element": "H" 
			},
			{
				"x": -1.8205223711,
				"y": -0.9511247173,
				"z": -1.345016975,
				"element": "H" 
			},
			{
				"x": -1.3670941116,
				"y": -2.0862203199,
				"z": -3.5158472092,
				"element": "H" 
			},
			{
				"x": 0.9671538786,
				"y": -2.6743088081,
				"z": -4.1500198984,
				"element": "H" 
			},
			{
				"x": 2.830437116,
				"y": -2.1533858799,
				"z": -2.5858056608,
				"element": "H" 
			},
			{
				"x": 2.3672480466,
				"y": -1.0652571301,
				"z": -0.4121847794,
				"element": "H" 
			}
		],
		 "valence_orbital": [ 
			{
				"type": "occ",
				"energy": -0.27446,
				"method": "rhf"
			},
			{
				"type": "occ",
				"energy": -0.27294,
				"method": "rhf"
			},
			{
				"type": "occ",
				"energy": -0.25218,
				"method": "rhf"
			},
			{
				"type": "occ",
				"energy": -0.21498,
				"method": "rhf"
			},
			{
				"type": "occ",
				"energy": -0.20258,
				"method": "rhf"
			},
			{
				"type": "unocc",
				"energy": -0.01052,
				"method": "rhf"
			},
			{
				"type": "unocc",
				"energy": -0.00432,
				"method": "rhf"
			},
			{
				"type": "unocc",
				"energy": 0.05252,
				"method": "rhf"
			},
			{
				"type": "unocc",
				"energy": 0.07476,
				"method": "rhf"
			},
			{
				"type": "unocc",
				"energy": 0.08954,
				"method": "rhf"
			}
		],
		"cosmo_sigma_profile": { 
			"-0.025": 0.0,
			"-0.024": 0.0,
			"-0.023": 0.0,
			"-0.022": 0.0,
			"-0.021": 0.0,
			"-0.02": 0.0,
			"-0.019": 0.0,
			"-0.018": 0.0,
			"-0.017": 0.0,
			"-0.016": 0.0,
			"-0.015": 0.0,
			"-0.014": 0.174943940502,
			"-0.013": 1.48954218026,
			"-0.012": 2.33152543326,
			"-0.011": 2.3815585794,
			"-0.01": 3.43958475738,
			"-0.009": 2.19728027445,
			"-0.008": 2.06519713647,
			"-0.007": 2.88790012759,
			"-0.006": 8.77646339575,
			"-0.005": 12.2724528332,
			"-0.004": 18.0391095752,
			"-0.003": 16.9024765064,
			"-0.002": 15.1930784812,
			"-0.001": 16.4685929124,
			"0.0": 17.4730492893,
			"0.001": 12.997481662,
			"0.002": 12.1733617744,
			"0.003": 13.2914352213,
			"0.004": 14.3435138074,
			"0.005": 17.9215953997,
			"0.006": 8.77172417354,
			"0.007": 3.75734716559,
			"0.008": 2.70570552694,
			"0.009": 2.21591416294,
			"0.01": 2.40206313682,
			"0.011": 1.80864515935,
			"0.012": 1.52494785306,
			"0.013": 1.36086761698,
			"0.014": 0.646170307188,
			"0.015": 0.664585890837,
			"0.016": 0.400590912197,
			"0.017": 0.0,
			"0.018": 0.0,
			"0.019": 0.0,
			"0.02": 0.0,
			"0.021": 0.0,
			"0.022": 0.0,
			"0.023": 0.0,
			"0.024": 0.0,
			"0.025": 0.0
		}
	}
}
