{
	 "smiles": "CC(C)CCCC(C)(C)C", 
	 "Tm": 168.15, 
	 "num_atms": 32, 
	 "gaussian": { 
		 "optdone": 1, 
		 "sigma_profile": "yes", 
		 "theory": "DFT", 
		 "functional": "B3LYP", 
		 "basiset": "6-31G**", 
		 "properties": { 
			 "R2extent": 2281.8884, 
			 "electric_dipole_moment_norm": 0.0718769086703, 
			 "electric_quadrupole_moment_norm": 0.566361183345, 
			 "total_energy": -394.355036486, 
			 "HOMO_LUMO_gap": 0.35981, 
			 "cosmo_polarized_energy": -0.9, 
			 "cosmo_cavitation_energy": 30.55, 
			 "cosmo_dispersion_energy": -20.96, 
			 "cosmo_repulsion_energy": 1.68, 
			 "cosmo_total_nonelectrostatic_energy": 11.28, 
			 "SMD_solvation_energy": 5.04 
		},
		"coords": [
			{
				"x": -1.6418422373,
				"y": 2.7309901335,
				"z": -2.1668170867,
				"element": "C" 
			},
			{
				"x": -0.9670066931,
				"y": 1.3646228047,
				"z": -1.9717929596,
				"element": "C" 
			},
			{
				"x": -0.8716015998,
				"y": 0.6150185218,
				"z": -3.3094795679,
				"element": "C" 
			},
			{
				"x": 0.4087354054,
				"y": 1.5428346502,
				"z": -1.2972437181,
				"element": "C" 
			},
			{
				"x": 1.187169991,
				"y": 0.2562161239,
				"z": -0.9606759807,
				"element": "C" 
			},
			{
				"x": 0.5157267058,
				"y": -0.8091108862,
				"z": -0.0668038887,
				"element": "C" 
			},
			{
				"x": 0.3163810882,
				"y": -0.5420897986,
				"z": 1.454333871,
				"element": "C" 
			},
			{
				"x": -0.826751547,
				"y": 0.4559393561,
				"z": 1.7310022737,
				"element": "C" 
			},
			{
				"x": 1.6159926781,
				"y": -0.0269921875,
				"z": 2.1016793719,
				"element": "C" 
			},
			{
				"x": -0.0620912567,
				"y": -1.8888600803,
				"z": 2.1079662663,
				"element": "C" 
			},
			{
				"x": -1.7545654021,
				"y": 3.2612837921,
				"z": -1.2146577732,
				"element": "H" 
			},
			{
				"x": -2.6377992631,
				"y": 2.6242036824,
				"z": -2.6105827205,
				"element": "H" 
			},
			{
				"x": -1.0487459829,
				"y": 3.3692480492,
				"z": -2.8336172839,
				"element": "H" 
			},
			{
				"x": -1.6063004287,
				"y": 0.7747453332,
				"z": -1.300171375,
				"element": "H" 
			},
			{
				"x": -0.4717843724,
				"y": -0.3966511607,
				"z": -3.1892775677,
				"element": "H" 
			},
			{
				"x": -0.2185256627,
				"y": 1.1499082785,
				"z": -4.0106314073,
				"element": "H" 
			},
			{
				"x": -1.8572837773,
				"y": 0.5252499328,
				"z": -3.7792018693,
				"element": "H" 
			},
			{
				"x": 1.0393737812,
				"y": 2.1479909551,
				"z": -1.9655281428,
				"element": "H" 
			},
			{
				"x": 0.2783861981,
				"y": 2.1489695727,
				"z": -0.3929076748,
				"element": "H" 
			},
			{
				"x": 1.448289226,
				"y": -0.2418231172,
				"z": -1.9032156999,
				"element": "H" 
			},
			{
				"x": 2.1485087816,
				"y": 0.5444192992,
				"z": -0.5179528523,
				"element": "H" 
			},
			{
				"x": 1.1382997086,
				"y": -1.7109057977,
				"z": -0.1477628184,
				"element": "H" 
			},
			{
				"x": -0.4563727761,
				"y": -1.089711399,
				"z": -0.494658912,
				"element": "H" 
			},
			{
				"x": -1.7631672706,
				"y": 0.1228229276,
				"z": 1.2689834247,
				"element": "H" 
			},
			{
				"x": -0.6042667922,
				"y": 1.4576887781,
				"z": 1.3548717209,
				"element": "H" 
			},
			{
				"x": -1.0045748295,
				"y": 0.5445563089,
				"z": 2.8092277347,
				"element": "H" 
			},
			{
				"x": 2.4547448037,
				"y": -0.7050077532,
				"z": 1.904479633,
				"element": "H" 
			},
			{
				"x": 1.5011548525,
				"y": 0.0510244426,
				"z": 3.1888431625,
				"element": "H" 
			},
			{
				"x": 1.8926028303,
				"y": 0.9649658084,
				"z": 1.7299286008,
				"element": "H" 
			},
			{
				"x": -0.96984544,
				"y": -2.3064822669,
				"z": 1.6568437205,
				"element": "H" 
			},
			{
				"x": -0.2493827239,
				"y": -1.7669480846,
				"z": 3.1808976563,
				"element": "H" 
			},
			{
				"x": 0.7388420048,
				"y": -2.6276162189,
				"z": 1.9899218622,
				"element": "H" 
			}
		],
		 "valence_orbital": [ 
			{
				"type": "occ",
				"energy": -0.3184,
				"method": "rhf"
			},
			{
				"type": "occ",
				"energy": -0.31556,
				"method": "rhf"
			},
			{
				"type": "occ",
				"energy": -0.30175,
				"method": "rhf"
			},
			{
				"type": "occ",
				"energy": -0.29641,
				"method": "rhf"
			},
			{
				"type": "occ",
				"energy": -0.29305,
				"method": "rhf"
			},
			{
				"type": "unocc",
				"energy": 0.06676,
				"method": "rhf"
			},
			{
				"type": "unocc",
				"energy": 0.10122,
				"method": "rhf"
			},
			{
				"type": "unocc",
				"energy": 0.10995,
				"method": "rhf"
			},
			{
				"type": "unocc",
				"energy": 0.11166,
				"method": "rhf"
			},
			{
				"type": "unocc",
				"energy": 0.13011,
				"method": "rhf"
			}
		],
		"cosmo_sigma_profile": { 
			"-0.025": 0.0,
			"-0.024": 0.0,
			"-0.023": 0.0,
			"-0.022": 0.0,
			"-0.021": 0.0,
			"-0.02": 0.0,
			"-0.019": 0.0,
			"-0.018": 0.0,
			"-0.017": 0.0,
			"-0.016": 0.0,
			"-0.015": 0.0,
			"-0.014": 0.0,
			"-0.013": 0.0,
			"-0.012": 0.0,
			"-0.011": 0.0,
			"-0.01": 0.0,
			"-0.009": 0.0,
			"-0.008": 0.0,
			"-0.007": 0.0,
			"-0.006": 0.0,
			"-0.005": 0.0,
			"-0.004": 0.00990332875872,
			"-0.003": 3.32723482043,
			"-0.002": 33.4831888891,
			"-0.001": 58.7725367769,
			"0.0": 48.1203696729,
			"0.001": 45.7688886524,
			"0.002": 39.6751887966,
			"0.003": 3.72733333594,
			"0.004": 0.0,
			"0.005": 0.0,
			"0.006": 0.0,
			"0.007": 0.0,
			"0.008": 0.0,
			"0.009": 0.0,
			"0.01": 0.0,
			"0.011": 0.0,
			"0.012": 0.0,
			"0.013": 0.0,
			"0.014": 0.0,
			"0.015": 0.0,
			"0.016": 0.0,
			"0.017": 0.0,
			"0.018": 0.0,
			"0.019": 0.0,
			"0.02": 0.0,
			"0.021": 0.0,
			"0.022": 0.0,
			"0.023": 0.0,
			"0.024": 0.0,
			"0.025": 0.0
		}
	}
}
