{
	 "smiles": "COC1=CC=C(C=C1)C(=O)C1CCOCC1", 
	 "Tm": 377.15, 
	 "num_atms": 32, 
	 "gaussian": { 
		 "optdone": 1, 
		 "sigma_profile": "yes", 
		 "theory": "DFT", 
		 "functional": "B3LYP", 
		 "basiset": "6-31G**", 
		 "properties": { 
			 "R2extent": 6019.7441, 
			 "electric_dipole_moment_norm": 5.08405135596, 
			 "electric_quadrupole_moment_norm": 11.3520194336, 
			 "total_energy": -730.683402234, 
			 "HOMO_LUMO_gap": 0.18336, 
			 "cosmo_polarized_energy": -13.14, 
			 "cosmo_cavitation_energy": 33.92, 
			 "cosmo_dispersion_energy": -24.84, 
			 "cosmo_repulsion_energy": 1.93, 
			 "cosmo_total_nonelectrostatic_energy": 11.0, 
			 "SMD_solvation_energy": 6.54 
		},
		"coords": [
			{
				"x": -2.2278876906,
				"y": 0.4983999997,
				"z": 4.6071399491,
				"element": "C" 
			},
			{
				"x": -1.9167228441,
				"y": 1.738923603,
				"z": 3.9877214813,
				"element": "O" 
			},
			{
				"x": -1.253848663,
				"y": 1.7254423426,
				"z": 2.8022256311,
				"element": "C" 
			},
			{
				"x": -0.9761847864,
				"y": 2.987278289,
				"z": 2.2451389601,
				"element": "C" 
			},
			{
				"x": -0.305105011,
				"y": 3.0788596501,
				"z": 1.0399764648,
				"element": "C" 
			},
			{
				"x": 0.1122026995,
				"y": 1.9244766607,
				"z": 0.3462733108,
				"element": "C" 
			},
			{
				"x": -0.1725952541,
				"y": 0.6753284962,
				"z": 0.9136861528,
				"element": "C" 
			},
			{
				"x": -0.8478481502,
				"y": 0.5650945766,
				"z": 2.1298476842,
				"element": "C" 
			},
			{
				"x": 0.8304472207,
				"y": 2.1099506451,
				"z": -0.9511383746,
				"element": "C" 
			},
			{
				"x": 1.0132934004,
				"y": 3.2352787613,
				"z": -1.3997994354,
				"element": "O" 
			},
			{
				"x": 1.375401845,
				"y": 0.889729968,
				"z": -1.6991614784,
				"element": "C" 
			},
			{
				"x": 1.5629147669,
				"y": 1.1746790681,
				"z": -3.1981064315,
				"element": "C" 
			},
			{
				"x": 2.242427989,
				"y": -0.009022401,
				"z": -3.8887422044,
				"element": "C" 
			},
			{
				"x": 3.4877116187,
				"y": -0.3381288879,
				"z": -3.2842374979,
				"element": "O" 
			},
			{
				"x": 3.3377649044,
				"y": -0.6890546534,
				"z": -1.918604832,
				"element": "C" 
			},
			{
				"x": 2.7337531926,
				"y": 0.4522027848,
				"z": -1.094740923,
				"element": "C" 
			},
			{
				"x": -2.7501213671,
				"y": 0.7475928937,
				"z": 5.531734384,
				"element": "H" 
			},
			{
				"x": -2.8831710732,
				"y": -0.1142095861,
				"z": 3.9755185076,
				"element": "H" 
			},
			{
				"x": -1.3212172461,
				"y": -0.0712278025,
				"z": 4.8461078131,
				"element": "H" 
			},
			{
				"x": -1.3005859009,
				"y": 3.8716308858,
				"z": 2.7837978307,
				"element": "H" 
			},
			{
				"x": -0.0839491304,
				"y": 4.0444779944,
				"z": 0.5980661999,
				"element": "H" 
			},
			{
				"x": 0.1284363358,
				"y": -0.2386291361,
				"z": 0.412615196,
				"element": "H" 
			},
			{
				"x": -1.0519087503,
				"y": -0.4172630155,
				"z": 2.5384119714,
				"element": "H" 
			},
			{
				"x": 0.6709964297,
				"y": 0.0539495909,
				"z": -1.5880575932,
				"element": "H" 
			},
			{
				"x": 0.5962578051,
				"y": 1.3777663637,
				"z": -3.6741805366,
				"element": "H" 
			},
			{
				"x": 2.1722695633,
				"y": 2.0752608529,
				"z": -3.3157396019,
				"element": "H" 
			},
			{
				"x": 1.5759305876,
				"y": -0.8904975592,
				"z": -3.8744605552,
				"element": "H" 
			},
			{
				"x": 2.4652642163,
				"y": 0.2228953141,
				"z": -4.9344378718,
				"element": "H" 
			},
			{
				"x": 2.7044934827,
				"y": -1.5903418505,
				"z": -1.8256354973,
				"element": "H" 
			},
			{
				"x": 4.3381106987,
				"y": -0.9442787645,
				"z": -1.5552933544,
				"element": "H" 
			},
			{
				"x": 3.4201374545,
				"y": 1.3070834517,
				"z": -1.1089269954,
				"element": "H" 
			},
			{
				"x": 2.6200316565,
				"y": 0.1388514644,
				"z": -0.0504983541,
				"element": "H" 
			}
		],
		 "valence_orbital": [ 
			{
				"type": "occ",
				"energy": -0.30039,
				"method": "rhf"
			},
			{
				"type": "occ",
				"energy": -0.26209,
				"method": "rhf"
			},
			{
				"type": "occ",
				"energy": -0.25135,
				"method": "rhf"
			},
			{
				"type": "occ",
				"energy": -0.23796,
				"method": "rhf"
			},
			{
				"type": "occ",
				"energy": -0.23112,
				"method": "rhf"
			},
			{
				"type": "unocc",
				"energy": -0.04776,
				"method": "rhf"
			},
			{
				"type": "unocc",
				"energy": -0.01102,
				"method": "rhf"
			},
			{
				"type": "unocc",
				"energy": 0.04844,
				"method": "rhf"
			},
			{
				"type": "unocc",
				"energy": 0.07713,
				"method": "rhf"
			},
			{
				"type": "unocc",
				"energy": 0.09225,
				"method": "rhf"
			}
		],
		"cosmo_sigma_profile": { 
			"-0.025": 0.0,
			"-0.024": 0.0,
			"-0.023": 0.0,
			"-0.022": 0.0,
			"-0.021": 0.0,
			"-0.02": 0.0,
			"-0.019": 0.0,
			"-0.018": 0.0,
			"-0.017": 0.0,
			"-0.016": 0.0,
			"-0.015": 0.0,
			"-0.014": 0.0,
			"-0.013": 0.0,
			"-0.012": 0.0,
			"-0.011": 0.0,
			"-0.01": 0.0,
			"-0.009": 0.0,
			"-0.008": 0.241001935493,
			"-0.007": 4.34979377897,
			"-0.006": 13.5307539706,
			"-0.005": 19.5821342831,
			"-0.004": 30.6496948194,
			"-0.003": 36.8183203795,
			"-0.002": 27.28867099,
			"-0.001": 20.8089898261,
			"0.0": 13.847342787,
			"0.001": 11.3832014455,
			"0.002": 14.7839530688,
			"0.003": 16.5780698812,
			"0.004": 16.46329923,
			"0.005": 5.56036839256,
			"0.006": 4.64681279674,
			"0.007": 4.143187276,
			"0.008": 4.11592690953,
			"0.009": 4.92111436202,
			"0.01": 2.96165366705,
			"0.011": 3.84464249542,
			"0.012": 5.00704707075,
			"0.013": 4.35319838042,
			"0.014": 0.860950857876,
			"0.015": 0.0,
			"0.016": 0.0,
			"0.017": 0.0,
			"0.018": 0.0,
			"0.019": 0.0,
			"0.02": 0.0,
			"0.021": 0.0,
			"0.022": 0.0,
			"0.023": 0.0,
			"0.024": 0.0,
			"0.025": 0.0
		}
	}
}
