{
	 "smiles": "[O-][N+](=O)C1=CC=CC=C1CCl", 
	 "Tm": 322.15, 
	 "num_atms": 17, 
	 "gaussian": { 
		 "optdone": 1, 
		 "sigma_profile": "yes", 
		 "theory": "DFT", 
		 "functional": "B3LYP", 
		 "basiset": "6-31G**", 
		 "properties": { 
			 "R2extent": 2595.0743, 
			 "electric_dipole_moment_norm": 5.35788540751, 
			 "electric_quadrupole_moment_norm": 10.3620398059, 
			 "total_energy": -935.649753963, 
			 "HOMO_LUMO_gap": 0.18478, 
			 "cosmo_polarized_energy": -10.31, 
			 "cosmo_cavitation_energy": 23.32, 
			 "cosmo_dispersion_energy": -17.14, 
			 "cosmo_repulsion_energy": 1.38, 
			 "cosmo_total_nonelectrostatic_energy": 7.56, 
			 "SMD_solvation_energy": 5.8 
		},
		"coords": [
			{
				"x": 0.4347217652,
				"y": 0.6759028989,
				"z": -3.5974658292,
				"element": "O" 
			},
			{
				"x": -0.1043157709,
				"y": 1.3227248051,
				"z": -2.7021350474,
				"element": "N" 
			},
			{
				"x": -0.184179984,
				"y": 2.5503526742,
				"z": -2.6863551067,
				"element": "O" 
			},
			{
				"x": -0.7189680128,
				"y": 0.5605317249,
				"z": -1.5938931413,
				"element": "C" 
			},
			{
				"x": -1.0425428318,
				"y": -0.765502125,
				"z": -1.8819705969,
				"element": "C" 
			},
			{
				"x": -1.6492522847,
				"y": -1.5588389665,
				"z": -0.9128421076,
				"element": "C" 
			},
			{
				"x": -1.9141580752,
				"y": -1.0220249073,
				"z": 0.3463681668,
				"element": "C" 
			},
			{
				"x": -1.5707741829,
				"y": 0.300204936,
				"z": 0.624709056,
				"element": "C" 
			},
			{
				"x": -0.9747956757,
				"y": 1.1333768502,
				"z": -0.3319151547,
				"element": "C" 
			},
			{
				"x": -0.6249847169,
				"y": 2.5381885664,
				"z": 0.0804515188,
				"element": "C" 
			},
			{
				"x": 1.1607468937,
				"y": 2.7110196432,
				"z": 0.4318373503,
				"element": "Cl" 
			},
			{
				"x": -0.8116509882,
				"y": -1.1516472646,
				"z": -2.8665571622,
				"element": "H" 
			},
			{
				"x": -1.9092662117,
				"y": -2.5870522863,
				"z": -1.1423931771,
				"element": "H" 
			},
			{
				"x": -2.3819642604,
				"y": -1.6300989284,
				"z": 1.1145085828,
				"element": "H" 
			},
			{
				"x": -1.7629833007,
				"y": 0.7061675992,
				"z": 1.6135855823,
				"element": "H" 
			},
			{
				"x": -1.1340153436,
				"y": 2.7912312352,
				"z": 1.0098515406,
				"element": "H" 
			},
			{
				"x": -0.8476170194,
				"y": 3.2685635449,
				"z": -0.6896844745,
				"element": "H" 
			}
		],
		 "valence_orbital": [ 
			{
				"type": "occ",
				"energy": -0.30549,
				"method": "rhf"
			},
			{
				"type": "occ",
				"energy": -0.30417,
				"method": "rhf"
			},
			{
				"type": "occ",
				"energy": -0.29403,
				"method": "rhf"
			},
			{
				"type": "occ",
				"energy": -0.28382,
				"method": "rhf"
			},
			{
				"type": "occ",
				"energy": -0.28051,
				"method": "rhf"
			},
			{
				"type": "unocc",
				"energy": -0.09573,
				"method": "rhf"
			},
			{
				"type": "unocc",
				"energy": -0.04447,
				"method": "rhf"
			},
			{
				"type": "unocc",
				"energy": -0.01469,
				"method": "rhf"
			},
			{
				"type": "unocc",
				"energy": 0.03203,
				"method": "rhf"
			},
			{
				"type": "unocc",
				"energy": 0.06859,
				"method": "rhf"
			}
		],
		"cosmo_sigma_profile": { 
			"-0.025": 0.0,
			"-0.024": 0.0,
			"-0.023": 0.0,
			"-0.022": 0.0,
			"-0.021": 0.0,
			"-0.02": 0.0,
			"-0.019": 0.0,
			"-0.018": 0.0,
			"-0.017": 0.0,
			"-0.016": 0.0,
			"-0.015": 0.0,
			"-0.014": 0.0,
			"-0.013": 0.0,
			"-0.012": 0.0,
			"-0.011": 0.0,
			"-0.01": 0.35946889719,
			"-0.009": 2.0638331503,
			"-0.008": 6.0269929841,
			"-0.007": 11.2370968344,
			"-0.006": 13.0096347796,
			"-0.005": 11.9589462771,
			"-0.004": 10.5189944165,
			"-0.003": 10.48131701,
			"-0.002": 9.71735046896,
			"-0.001": 10.5234869227,
			"0.0": 13.6309381664,
			"0.001": 17.054645473,
			"0.002": 14.5502264572,
			"0.003": 7.63109337763,
			"0.004": 6.94514610678,
			"0.005": 10.1679903075,
			"0.006": 13.1122498703,
			"0.007": 8.49447862205,
			"0.008": 6.04105910585,
			"0.009": 3.92893137203,
			"0.01": 1.87584973949,
			"0.011": 0.0,
			"0.012": 0.0,
			"0.013": 0.0,
			"0.014": 0.0,
			"0.015": 0.0,
			"0.016": 0.0,
			"0.017": 0.0,
			"0.018": 0.0,
			"0.019": 0.0,
			"0.02": 0.0,
			"0.021": 0.0,
			"0.022": 0.0,
			"0.023": 0.0,
			"0.024": 0.0,
			"0.025": 0.0
		}
	}
}
