{
	 "smiles": "CC1=C(OCC(O)=O)C(C)=C(C=C1)S(Cl)(=O)=O", 
	 "Tm": 418.15, 
	 "num_atms": 28, 
	 "gaussian": { 
		 "optdone": 1, 
		 "sigma_profile": "yes", 
		 "theory": "DFT", 
		 "functional": "B3LYP", 
		 "basiset": "6-31G**", 
		 "properties": { 
			 "R2extent": 7384.7015, 
			 "electric_dipole_moment_norm": 5.18088868342, 
			 "electric_quadrupole_moment_norm": 22.7823815959, 
			 "total_energy": -1622.12798593, 
			 "HOMO_LUMO_gap": 0.18317, 
			 "cosmo_polarized_energy": -18.17, 
			 "cosmo_cavitation_energy": 35.03, 
			 "cosmo_dispersion_energy": -25.14, 
			 "cosmo_repulsion_energy": 1.9, 
			 "cosmo_total_nonelectrostatic_energy": 11.8, 
			 "SMD_solvation_energy": 6.27 
		},
		"coords": [
			{
				"x": -0.7441489084,
				"y": -1.2787609414,
				"z": 1.8046739074,
				"element": "C" 
			},
			{
				"x": 0.1519730504,
				"y": -0.7226330783,
				"z": 0.7280564298,
				"element": "C" 
			},
			{
				"x": 0.3266109133,
				"y": 0.6657565813,
				"z": 0.58567158,
				"element": "C" 
			},
			{
				"x": -0.3755800125,
				"y": 1.5000770309,
				"z": 1.4467519748,
				"element": "O" 
			},
			{
				"x": 0.2866916453,
				"y": 1.8693846853,
				"z": 2.6653470465,
				"element": "C" 
			},
			{
				"x": -0.3590094711,
				"y": 3.1403373755,
				"z": 3.2202475134,
				"element": "C" 
			},
			{
				"x": -1.2927949128,
				"y": 3.6988202727,
				"z": 2.4309454561,
				"element": "O" 
			},
			{
				"x": -0.0264663306,
				"y": 3.6029200974,
				"z": 4.2813474251,
				"element": "O" 
			},
			{
				"x": 1.1235274904,
				"y": 1.2456234347,
				"z": -0.4170955906,
				"element": "C" 
			},
			{
				"x": 1.2384244689,
				"y": 2.7457855787,
				"z": -0.5407215951,
				"element": "C" 
			},
			{
				"x": 1.7775239648,
				"y": 0.337130072,
				"z": -1.2738511596,
				"element": "C" 
			},
			{
				"x": 1.6484787522,
				"y": -1.0468025587,
				"z": -1.1533215503,
				"element": "C" 
			},
			{
				"x": 0.8260265844,
				"y": -1.5654862667,
				"z": -0.1593237368,
				"element": "C" 
			},
			{
				"x": 2.8199820669,
				"y": 0.8914039646,
				"z": -2.6269386277,
				"element": "S" 
			},
			{
				"x": 4.5528922376,
				"y": 1.5804819154,
				"z": -1.5744642494,
				"element": "Cl" 
			},
			{
				"x": 2.248236036,
				"y": 2.0641670421,
				"z": -3.277323424,
				"element": "O" 
			},
			{
				"x": 3.2554335698,
				"y": -0.267002562,
				"z": -3.3962916103,
				"element": "O" 
			},
			{
				"x": -1.0170617197,
				"y": -2.3136552809,
				"z": 1.5859900631,
				"element": "H" 
			},
			{
				"x": -1.6571837376,
				"y": -0.6862112299,
				"z": 1.9032520351,
				"element": "H" 
			},
			{
				"x": -0.2452764544,
				"y": -1.2712813394,
				"z": 2.7814127997,
				"element": "H" 
			},
			{
				"x": 1.3491569427,
				"y": 2.0726453145,
				"z": 2.4899890836,
				"element": "H" 
			},
			{
				"x": 0.205629495,
				"y": 1.0773863208,
				"z": 3.417514873,
				"element": "H" 
			},
			{
				"x": -1.4099475647,
				"y": 3.1229951182,
				"z": 1.6533551073,
				"element": "H" 
			},
			{
				"x": 0.6455878538,
				"y": 3.2428569536,
				"z": 0.2251295512,
				"element": "H" 
			},
			{
				"x": 0.8940499347,
				"y": 3.0799422522,
				"z": -1.5216955422,
				"element": "H" 
			},
			{
				"x": 2.2781064677,
				"y": 3.0734684638,
				"z": -0.4435401435,
				"element": "H" 
			},
			{
				"x": 2.1760602104,
				"y": -1.6979551101,
				"z": -1.8394484877,
				"element": "H" 
			},
			{
				"x": 0.7035774276,
				"y": -2.6407941062,
				"z": -0.0722691287,
				"element": "H" 
			}
		],
		 "valence_orbital": [ 
			{
				"type": "occ",
				"energy": -0.31946,
				"method": "rhf"
			},
			{
				"type": "occ",
				"energy": -0.31699,
				"method": "rhf"
			},
			{
				"type": "occ",
				"energy": -0.28847,
				"method": "rhf"
			},
			{
				"type": "occ",
				"energy": -0.2864,
				"method": "rhf"
			},
			{
				"type": "occ",
				"energy": -0.27923,
				"method": "rhf"
			},
			{
				"type": "unocc",
				"energy": -0.09606,
				"method": "rhf"
			},
			{
				"type": "unocc",
				"energy": -0.05355,
				"method": "rhf"
			},
			{
				"type": "unocc",
				"energy": -0.04226,
				"method": "rhf"
			},
			{
				"type": "unocc",
				"energy": -0.00467,
				"method": "rhf"
			},
			{
				"type": "unocc",
				"energy": 0.03659,
				"method": "rhf"
			}
		],
		"cosmo_sigma_profile": { 
			"-0.025": 0.0,
			"-0.024": 0.0,
			"-0.023": 0.0,
			"-0.022": 0.0,
			"-0.021": 0.0,
			"-0.02": 0.0,
			"-0.019": 0.0,
			"-0.018": 0.0,
			"-0.017": 0.0,
			"-0.016": 0.0,
			"-0.015": 0.178526872421,
			"-0.014": 0.716741879676,
			"-0.013": 0.660846373024,
			"-0.012": 0.51898126108,
			"-0.011": 0.366572008832,
			"-0.01": 0.750289164627,
			"-0.009": 2.19907033558,
			"-0.008": 8.91516065089,
			"-0.007": 13.8934140494,
			"-0.006": 14.801233044,
			"-0.005": 15.0848304064,
			"-0.004": 17.5079656776,
			"-0.003": 20.1480090663,
			"-0.002": 24.0210842838,
			"-0.001": 26.8923709248,
			"0.0": 21.7994359085,
			"0.001": 17.6767310962,
			"0.002": 14.9562524257,
			"0.003": 14.1515601425,
			"0.004": 11.8229352272,
			"0.005": 6.38896664701,
			"0.006": 4.84556034922,
			"0.007": 7.50808911398,
			"0.008": 11.9285164569,
			"0.009": 9.01625731409,
			"0.01": 4.30466676645,
			"0.011": 5.24644653756,
			"0.012": 4.57939643516,
			"0.013": 0.770644443008,
			"0.014": 0.0,
			"0.015": 0.0,
			"0.016": 0.0,
			"0.017": 0.0,
			"0.018": 0.0,
			"0.019": 0.0,
			"0.02": 0.0,
			"0.021": 0.0,
			"0.022": 0.0,
			"0.023": 0.0,
			"0.024": 0.0,
			"0.025": 0.0
		}
	}
}
