{
	 "smiles": "OC(=O)CNC1=CC=C(Cl)C=C1", 
	 "Tm": 416.15, 
	 "num_atms": 20, 
	 "gaussian": { 
		 "optdone": 1, 
		 "sigma_profile": "yes", 
		 "theory": "DFT", 
		 "functional": "B3LYP", 
		 "basiset": "6-31G**", 
		 "properties": { 
			 "R2extent": 3156.0485, 
			 "electric_dipole_moment_norm": 3.62918636198, 
			 "electric_quadrupole_moment_norm": 8.92920210489, 
			 "total_energy": -975.074249391, 
			 "HOMO_LUMO_gap": 0.19029, 
			 "cosmo_polarized_energy": -13.82, 
			 "cosmo_cavitation_energy": 26.49, 
			 "cosmo_dispersion_energy": -19.26, 
			 "cosmo_repulsion_energy": 1.56, 
			 "cosmo_total_nonelectrostatic_energy": 8.8, 
			 "SMD_solvation_energy": 4.51 
		},
		"coords": [
			{
				"x": 1.3774719349,
				"y": -1.487886821,
				"z": 2.1312102174,
				"element": "O" 
			},
			{
				"x": 1.253217919,
				"y": -2.2834855313,
				"z": 1.0453034401,
				"element": "C" 
			},
			{
				"x": 0.7421263914,
				"y": -3.3794402695,
				"z": 1.0763382653,
				"element": "O" 
			},
			{
				"x": 1.8819645537,
				"y": -1.653279684,
				"z": -0.2011709037,
				"element": "C" 
			},
			{
				"x": 1.7809410339,
				"y": -0.2190615852,
				"z": -0.3261270611,
				"element": "N" 
			},
			{
				"x": 0.5426507945,
				"y": 0.4146217751,
				"z": -0.4697842559,
				"element": "C" 
			},
			{
				"x": -0.6339479121,
				"y": -0.2827745485,
				"z": -0.7935665607,
				"element": "C" 
			},
			{
				"x": -1.8362626124,
				"y": 0.4005301709,
				"z": -0.9820910145,
				"element": "C" 
			},
			{
				"x": -1.8801222625,
				"y": 1.7837949139,
				"z": -0.8400807026,
				"element": "C" 
			},
			{
				"x": -3.399513221,
				"y": 2.6433930727,
				"z": -1.0703611102,
				"element": "Cl" 
			},
			{
				"x": -0.7251657785,
				"y": 2.4949884248,
				"z": -0.5098664654,
				"element": "C" 
			},
			{
				"x": 0.4723529901,
				"y": 1.8138475039,
				"z": -0.329700656,
				"element": "C" 
			},
			{
				"x": 0.9645394986,
				"y": -1.9657016304,
				"z": 2.870337073,
				"element": "H" 
			},
			{
				"x": 2.9446761685,
				"y": -1.9222958898,
				"z": -0.1921142405,
				"element": "H" 
			},
			{
				"x": 1.4434748897,
				"y": -2.1544025264,
				"z": -1.0676776569,
				"element": "H" 
			},
			{
				"x": 2.4292891953,
				"y": 0.290078046,
				"z": 0.2582409481,
				"element": "H" 
			},
			{
				"x": -0.6304501846,
				"y": -1.3623768142,
				"z": -0.8944059046,
				"element": "H" 
			},
			{
				"x": -2.7375976048,
				"y": -0.1489951839,
				"z": -1.2309392588,
				"element": "H" 
			},
			{
				"x": -0.7635745402,
				"y": 3.5729991733,
				"z": -0.3970969675,
				"element": "H" 
			},
			{
				"x": 1.3724287464,
				"y": 2.3715474035,
				"z": -0.0832471856,
				"element": "H" 
			}
		],
		 "valence_orbital": [ 
			{
				"type": "occ",
				"energy": -0.30509,
				"method": "rhf"
			},
			{
				"type": "occ",
				"energy": -0.30403,
				"method": "rhf"
			},
			{
				"type": "occ",
				"energy": -0.27677,
				"method": "rhf"
			},
			{
				"type": "occ",
				"energy": -0.26025,
				"method": "rhf"
			},
			{
				"type": "occ",
				"energy": -0.20606,
				"method": "rhf"
			},
			{
				"type": "unocc",
				"energy": -0.01577,
				"method": "rhf"
			},
			{
				"type": "unocc",
				"energy": -0.00034,
				"method": "rhf"
			},
			{
				"type": "unocc",
				"energy": 0.00489,
				"method": "rhf"
			},
			{
				"type": "unocc",
				"energy": 0.03573,
				"method": "rhf"
			},
			{
				"type": "unocc",
				"energy": 0.06317,
				"method": "rhf"
			}
		],
		"cosmo_sigma_profile": { 
			"-0.025": 0.0,
			"-0.024": 0.0,
			"-0.023": 0.0,
			"-0.022": 0.0,
			"-0.021": 0.0,
			"-0.02": 0.0,
			"-0.019": 0.119901824761,
			"-0.018": 0.960881186503,
			"-0.017": 0.934769504584,
			"-0.016": 0.861269695794,
			"-0.015": 0.541301467445,
			"-0.014": 0.957443717536,
			"-0.013": 1.69596588929,
			"-0.012": 2.03149639362,
			"-0.011": 2.10450747901,
			"-0.01": 2.4460849875,
			"-0.009": 2.95050281447,
			"-0.008": 5.57876205323,
			"-0.007": 9.58304150044,
			"-0.006": 11.3349844812,
			"-0.005": 11.4241784994,
			"-0.004": 10.035185424,
			"-0.003": 8.92639564234,
			"-0.002": 9.61681329606,
			"-0.001": 9.33651692813,
			"0.0": 11.6738573185,
			"0.001": 10.0122181794,
			"0.002": 12.4908675703,
			"0.003": 17.2539956306,
			"0.004": 20.2618384351,
			"0.005": 23.2315316121,
			"0.006": 6.62390977001,
			"0.007": 3.27841372796,
			"0.008": 3.33699552265,
			"0.009": 1.73274316137,
			"0.01": 2.7278179909,
			"0.011": 4.73984631918,
			"0.012": 3.83391647019,
			"0.013": 0.368154407454,
			"0.014": 0.0,
			"0.015": 0.0,
			"0.016": 0.0,
			"0.017": 0.0,
			"0.018": 0.0,
			"0.019": 0.0,
			"0.02": 0.0,
			"0.021": 0.0,
			"0.022": 0.0,
			"0.023": 0.0,
			"0.024": 0.0,
			"0.025": 0.0
		}
	}
}
