{
	 "smiles": "OC(=O)C1=CSC(=N1)N1CCOCC1", 
	 "Tm": 449.15, 
	 "num_atms": 24, 
	 "gaussian": { 
		 "optdone": 1, 
		 "sigma_profile": "yes", 
		 "theory": "DFT", 
		 "functional": "B3LYP", 
		 "basiset": "6-31G**", 
		 "properties": { 
			 "R2extent": 4058.1298, 
			 "electric_dipole_moment_norm": 2.59068840658, 
			 "electric_quadrupole_moment_norm": 14.176059651, 
			 "total_energy": -1044.22901007, 
			 "HOMO_LUMO_gap": 0.17258, 
			 "cosmo_polarized_energy": -15.05, 
			 "cosmo_cavitation_energy": 28.99, 
			 "cosmo_dispersion_energy": -22.25, 
			 "cosmo_repulsion_energy": 1.72, 
			 "cosmo_total_nonelectrostatic_energy": 8.46, 
			 "SMD_solvation_energy": 4.07 
		},
		"coords": [
			{
				"x": -0.8002427849,
				"y": -0.1320347269,
				"z": 3.711341137,
				"element": "O" 
			},
			{
				"x": 0.5480819016,
				"y": -0.0562588281,
				"z": 3.681649814,
				"element": "C" 
			},
			{
				"x": 1.2315384081,
				"y": -0.0689848793,
				"z": 4.6880706188,
				"element": "O" 
			},
			{
				"x": 1.0973717379,
				"y": 0.0422335808,
				"z": 2.3092023598,
				"element": "C" 
			},
			{
				"x": 2.4433733322,
				"y": 0.1294503334,
				"z": 2.093922377,
				"element": "C" 
			},
			{
				"x": 2.7640948799,
				"y": 0.2401921106,
				"z": 0.3926479815,
				"element": "S" 
			},
			{
				"x": 1.0007503729,
				"y": 0.1411121159,
				"z": 0.1053724682,
				"element": "C" 
			},
			{
				"x": 0.2872505071,
				"y": 0.056840266,
				"z": 1.1934535773,
				"element": "N" 
			},
			{
				"x": 0.4822764325,
				"y": 0.1146892027,
				"z": -1.1625404775,
				"element": "N" 
			},
			{
				"x": -0.9649927031,
				"y": 0.3256134919,
				"z": -1.3042396295,
				"element": "C" 
			},
			{
				"x": -1.431976336,
				"y": -0.2508164038,
				"z": -2.6367734671,
				"element": "C" 
			},
			{
				"x": -0.6873896474,
				"y": 0.2864610556,
				"z": -3.7237068511,
				"element": "O" 
			},
			{
				"x": 0.6882671853,
				"y": -0.0295166124,
				"z": -3.5923375978,
				"element": "C" 
			},
			{
				"x": 1.2772995595,
				"y": 0.5551201658,
				"z": -2.3072439295,
				"element": "C" 
			},
			{
				"x": -1.0325060148,
				"y": -0.1913922503,
				"z": 4.6531105917,
				"element": "H" 
			},
			{
				"x": 3.2302853032,
				"y": 0.1409226655,
				"z": 2.8326673408,
				"element": "H" 
			},
			{
				"x": -1.4659377976,
				"y": -0.1613684248,
				"z": -0.4664461483,
				"element": "H" 
			},
			{
				"x": -1.1957868043,
				"y": 1.401192175,
				"z": -1.2607002599,
				"element": "H" 
			},
			{
				"x": -2.4788858854,
				"y": 0.0101335896,
				"z": -2.8138660463,
				"element": "H" 
			},
			{
				"x": -1.3398770416,
				"y": -1.3487102383,
				"z": -2.6210113163,
				"element": "H" 
			},
			{
				"x": 0.8318903533,
				"y": -1.1223249465,
				"z": -3.5950727151,
				"element": "H" 
			},
			{
				"x": 1.1965286298,
				"y": 0.3930126273,
				"z": -4.4635157372,
				"element": "H" 
			},
			{
				"x": 1.2952226231,
				"y": 1.6548991958,
				"z": -2.3714544318,
				"element": "H" 
			},
			{
				"x": 2.3078637884,
				"y": 0.2032347345,
				"z": -2.1962296586,
				"element": "H" 
			}
		],
		 "valence_orbital": [ 
			{
				"type": "occ",
				"energy": -0.2852,
				"method": "rhf"
			},
			{
				"type": "occ",
				"energy": -0.28318,
				"method": "rhf"
			},
			{
				"type": "occ",
				"energy": -0.27075,
				"method": "rhf"
			},
			{
				"type": "occ",
				"energy": -0.26676,
				"method": "rhf"
			},
			{
				"type": "occ",
				"energy": -0.21198,
				"method": "rhf"
			},
			{
				"type": "unocc",
				"energy": -0.0394,
				"method": "rhf"
			},
			{
				"type": "unocc",
				"energy": 0.00727,
				"method": "rhf"
			},
			{
				"type": "unocc",
				"energy": 0.01209,
				"method": "rhf"
			},
			{
				"type": "unocc",
				"energy": 0.07041,
				"method": "rhf"
			},
			{
				"type": "unocc",
				"energy": 0.08637,
				"method": "rhf"
			}
		],
		"cosmo_sigma_profile": { 
			"-0.025": 0.0,
			"-0.024": 0.0,
			"-0.023": 0.0,
			"-0.022": 0.0,
			"-0.021": 0.0,
			"-0.02": 0.0,
			"-0.019": 0.126151780039,
			"-0.018": 0.600267840023,
			"-0.017": 1.13392897571,
			"-0.016": 0.973104706208,
			"-0.015": 0.381840931304,
			"-0.014": 0.748621219778,
			"-0.013": 0.494879245154,
			"-0.012": 0.819567354295,
			"-0.011": 0.893355930043,
			"-0.01": 1.00394352858,
			"-0.009": 1.62418041661,
			"-0.008": 2.75015155569,
			"-0.007": 4.37416037718,
			"-0.006": 11.0956674571,
			"-0.005": 20.5669304265,
			"-0.004": 27.2152746718,
			"-0.003": 19.2621016293,
			"-0.002": 15.0938419292,
			"-0.001": 12.1726638533,
			"0.0": 13.9281708205,
			"0.001": 15.5493901184,
			"0.002": 15.4207818098,
			"0.003": 11.1181820357,
			"0.004": 6.70230463829,
			"0.005": 5.93873339428,
			"0.006": 4.38642964554,
			"0.007": 4.21697873498,
			"0.008": 5.15384754016,
			"0.009": 4.65916202887,
			"0.01": 4.69127991133,
			"0.011": 5.66419371656,
			"0.012": 8.12815987322,
			"0.013": 3.02924730246,
			"0.014": 1.24729209121,
			"0.015": 0.414546724882,
			"0.016": 0.0,
			"0.017": 0.0,
			"0.018": 0.0,
			"0.019": 0.0,
			"0.02": 0.0,
			"0.021": 0.0,
			"0.022": 0.0,
			"0.023": 0.0,
			"0.024": 0.0,
			"0.025": 0.0
		}
	}
}
