{
	 "smiles": "COC1=CC=C(Cl)C(=C1)[N+]([O-])=O", 
	 "Tm": 317.15, 
	 "num_atms": 18, 
	 "gaussian": { 
		 "optdone": 1, 
		 "sigma_profile": "yes", 
		 "theory": "DFT", 
		 "functional": "B3LYP", 
		 "basiset": "6-31G**", 
		 "properties": { 
			 "R2extent": 3853.6196, 
			 "electric_dipole_moment_norm": 4.83997153091, 
			 "electric_quadrupole_moment_norm": 21.4335029263, 
			 "total_energy": -1010.85032527, 
			 "HOMO_LUMO_gap": 0.1539, 
			 "cosmo_polarized_energy": -9.68, 
			 "cosmo_cavitation_energy": 24.81, 
			 "cosmo_dispersion_energy": -18.41, 
			 "cosmo_repulsion_energy": 1.47, 
			 "cosmo_total_nonelectrostatic_energy": 7.87, 
			 "SMD_solvation_energy": 7.11 
		},
		"coords": [
			{
				"x": -1.1384581527,
				"y": 1.79218439,
				"z": 0.1453889588,
				"element": "C" 
			},
			{
				"x": -1.1724595531,
				"y": 0.3751586007,
				"z": 0.013389807,
				"element": "O" 
			},
			{
				"x": 0.0052788569,
				"y": -0.2891079784,
				"z": -0.0969267998,
				"element": "C" 
			},
			{
				"x": -0.0817009942,
				"y": -1.6840159198,
				"z": -0.2381765897,
				"element": "C" 
			},
			{
				"x": 1.0673644574,
				"y": -2.4477816244,
				"z": -0.364097513,
				"element": "C" 
			},
			{
				"x": 2.3396892822,
				"y": -1.8596779289,
				"z": -0.332820683,
				"element": "C" 
			},
			{
				"x": 3.7152768857,
				"y": -2.9072891125,
				"z": -0.5544691395,
				"element": "Cl" 
			},
			{
				"x": 2.4153240443,
				"y": -0.4698473885,
				"z": -0.1861880368,
				"element": "C" 
			},
			{
				"x": 1.261300097,
				"y": 0.3148950287,
				"z": -0.0812578031,
				"element": "C" 
			},
			{
				"x": 3.6914557118,
				"y": 0.2684781649,
				"z": -0.1216664242,
				"element": "N" 
			},
			{
				"x": 4.6743722921,
				"y": -0.3089732315,
				"z": 0.3287056079,
				"element": "O" 
			},
			{
				"x": 3.6743587717,
				"y": 1.4400751206,
				"z": -0.5034679285,
				"element": "O" 
			},
			{
				"x": -2.179025445,
				"y": 2.11026302,
				"z": 0.2145197448,
				"element": "H" 
			},
			{
				"x": -0.6707901307,
				"y": 2.264822241,
				"z": -0.726822425,
				"element": "H" 
			},
			{
				"x": -0.6043730818,
				"y": 2.0972583198,
				"z": 1.0535755122,
				"element": "H" 
			},
			{
				"x": -1.0624295188,
				"y": -2.147043099,
				"z": -0.2542422009,
				"element": "H" 
			},
			{
				"x": 0.99555098,
				"y": -3.5219237933,
				"z": -0.4918770441,
				"element": "H" 
			},
			{
				"x": 1.3916654971,
				"y": 1.3841251906,
				"z": 0.0062329571,
				"element": "H" 
			}
		],
		 "valence_orbital": [ 
			{
				"type": "occ",
				"energy": -0.3102,
				"method": "rhf"
			},
			{
				"type": "occ",
				"energy": -0.30705,
				"method": "rhf"
			},
			{
				"type": "occ",
				"energy": -0.29545,
				"method": "rhf"
			},
			{
				"type": "occ",
				"energy": -0.28042,
				"method": "rhf"
			},
			{
				"type": "occ",
				"energy": -0.24377,
				"method": "rhf"
			},
			{
				"type": "unocc",
				"energy": -0.08987,
				"method": "rhf"
			},
			{
				"type": "unocc",
				"energy": -0.02659,
				"method": "rhf"
			},
			{
				"type": "unocc",
				"energy": -0.00973,
				"method": "rhf"
			},
			{
				"type": "unocc",
				"energy": 0.01491,
				"method": "rhf"
			},
			{
				"type": "unocc",
				"energy": 0.08819,
				"method": "rhf"
			}
		],
		"cosmo_sigma_profile": { 
			"-0.025": 0.0,
			"-0.024": 0.0,
			"-0.023": 0.0,
			"-0.022": 0.0,
			"-0.021": 0.0,
			"-0.02": 0.0,
			"-0.019": 0.0,
			"-0.018": 0.0,
			"-0.017": 0.0,
			"-0.016": 0.0,
			"-0.015": 0.0,
			"-0.014": 0.0,
			"-0.013": 0.0,
			"-0.012": 0.0,
			"-0.011": 0.0,
			"-0.01": 0.0,
			"-0.009": 0.544510189073,
			"-0.008": 5.04560006231,
			"-0.007": 9.72585672564,
			"-0.006": 13.9871787674,
			"-0.005": 12.7511663227,
			"-0.004": 13.9717271232,
			"-0.003": 12.4265288817,
			"-0.002": 11.8116967868,
			"-0.001": 12.9056478614,
			"0.0": 21.3193523029,
			"0.001": 17.1277801164,
			"0.002": 10.4615383068,
			"0.003": 10.9355159278,
			"0.004": 9.43700737137,
			"0.005": 5.07731594287,
			"0.006": 5.3855823681,
			"0.007": 11.1679205176,
			"0.008": 10.2436032953,
			"0.009": 5.47121166411,
			"0.01": 1.31027111553,
			"0.011": 0.0,
			"0.012": 0.0,
			"0.013": 0.0,
			"0.014": 0.0,
			"0.015": 0.0,
			"0.016": 0.0,
			"0.017": 0.0,
			"0.018": 0.0,
			"0.019": 0.0,
			"0.02": 0.0,
			"0.021": 0.0,
			"0.022": 0.0,
			"0.023": 0.0,
			"0.024": 0.0,
			"0.025": 0.0
		}
	}
}
