{
	 "smiles": "CC(C)(C)CC1=NC(=NO1)C1=CC(=CC=C1)C(O)=O", 
	 "Tm": 434.15, 
	 "num_atms": 35, 
	 "gaussian": { 
		 "optdone": 1, 
		 "sigma_profile": "yes", 
		 "theory": "DFT", 
		 "functional": "B3LYP", 
		 "basiset": "6-31G**", 
		 "properties": { 
			 "R2extent": 7501.6951, 
			 "electric_dipole_moment_norm": 5.18650583823, 
			 "electric_quadrupole_moment_norm": 27.5137770341, 
			 "total_energy": -878.305058337, 
			 "HOMO_LUMO_gap": 0.19335, 
			 "cosmo_polarized_energy": -16.28, 
			 "cosmo_cavitation_energy": 38.93, 
			 "cosmo_dispersion_energy": -27.17, 
			 "cosmo_repulsion_energy": 2.07, 
			 "cosmo_total_nonelectrostatic_energy": 13.83, 
			 "SMD_solvation_energy": 6.25 
		},
		"coords": [
			{
				"x": -3.6332867624,
				"y": 2.2239417258,
				"z": 0.764011997,
				"element": "C" 
			},
			{
				"x": -3.3050312733,
				"y": 2.0649037467,
				"z": -0.731975507,
				"element": "C" 
			},
			{
				"x": -3.6511654912,
				"y": 0.6397086085,
				"z": -1.1997012436,
				"element": "C" 
			},
			{
				"x": -4.1217362404,
				"y": 3.0851799846,
				"z": -1.5477177961,
				"element": "C" 
			},
			{
				"x": -1.7945910392,
				"y": 2.3706424241,
				"z": -0.9950044585,
				"element": "C" 
			},
			{
				"x": -0.8283172234,
				"y": 1.5174994321,
				"z": -0.2451485446,
				"element": "C" 
			},
			{
				"x": -0.3332526944,
				"y": 0.3567141905,
				"z": -0.5690099646,
				"element": "N" 
			},
			{
				"x": 0.4828367659,
				"y": 0.0631361584,
				"z": 0.505815983,
				"element": "C" 
			},
			{
				"x": 0.4971266749,
				"y": 0.9854744153,
				"z": 1.4422312774,
				"element": "N" 
			},
			{
				"x": -0.3781223647,
				"y": 1.960501062,
				"z": 0.9456169455,
				"element": "O" 
			},
			{
				"x": 1.269720616,
				"y": -1.174852337,
				"z": 0.5920847389,
				"element": "C" 
			},
			{
				"x": 1.2233743318,
				"y": -2.0927669906,
				"z": -0.4640228455,
				"element": "C" 
			},
			{
				"x": 1.9670703028,
				"y": -3.2764224333,
				"z": -0.4075865807,
				"element": "C" 
			},
			{
				"x": 2.7782005229,
				"y": -3.5295900328,
				"z": 0.7069922611,
				"element": "C" 
			},
			{
				"x": 2.8196780257,
				"y": -2.6212799196,
				"z": 1.7631080598,
				"element": "C" 
			},
			{
				"x": 2.0688291152,
				"y": -1.4482865906,
				"z": 1.7122223258,
				"element": "C" 
			},
			{
				"x": 1.9686855055,
				"y": -4.2934281251,
				"z": -1.5120692603,
				"element": "C" 
			},
			{
				"x": 0.9423100048,
				"y": -4.2395073339,
				"z": -2.4006095711,
				"element": "O" 
			},
			{
				"x": 2.8274548674,
				"y": -5.1354524156,
				"z": -1.63170832,
				"element": "O" 
			},
			{
				"x": -3.3762352265,
				"y": 3.2256901697,
				"z": 1.1254496041,
				"element": "H" 
			},
			{
				"x": -4.7040758482,
				"y": 2.0708887158,
				"z": 0.9351446903,
				"element": "H" 
			},
			{
				"x": -3.0924636057,
				"y": 1.4990544473,
				"z": 1.3804055859,
				"element": "H" 
			},
			{
				"x": -3.0711344485,
				"y": -0.1155577122,
				"z": -0.6616064656,
				"element": "H" 
			},
			{
				"x": -4.7136643375,
				"y": 0.4331100095,
				"z": -1.0324652955,
				"element": "H" 
			},
			{
				"x": -3.4495114681,
				"y": 0.51370194,
				"z": -2.2692822209,
				"element": "H" 
			},
			{
				"x": -5.1946919284,
				"y": 2.9109611575,
				"z": -1.4153412904,
				"element": "H" 
			},
			{
				"x": -3.9010986227,
				"y": 3.0087748638,
				"z": -2.6183462891,
				"element": "H" 
			},
			{
				"x": -3.9086947871,
				"y": 4.1123859487,
				"z": -1.2311156925,
				"element": "H" 
			},
			{
				"x": -1.5851226894,
				"y": 2.2408410526,
				"z": -2.0612651001,
				"element": "H" 
			},
			{
				"x": -1.5925513531,
				"y": 3.4155328898,
				"z": -0.737408543,
				"element": "H" 
			},
			{
				"x": 0.6224877653,
				"y": -1.8307057782,
				"z": -1.3300759182,
				"element": "H" 
			},
			{
				"x": 3.3635885292,
				"y": -4.442432104,
				"z": 0.7219617498,
				"element": "H" 
			},
			{
				"x": 3.4416314157,
				"y": -2.8256579162,
				"z": 2.6290644027,
				"element": "H" 
			},
			{
				"x": 2.0984009129,
				"y": -0.7356045195,
				"z": 2.5296906468,
				"element": "H" 
			},
			{
				"x": 0.2669520481,
				"y": -3.6160987341,
				"z": -2.0996393606,
				"element": "H" 
			}
		],
		 "valence_orbital": [ 
			{
				"type": "occ",
				"energy": -0.30655,
				"method": "rhf"
			},
			{
				"type": "occ",
				"energy": -0.30125,
				"method": "rhf"
			},
			{
				"type": "occ",
				"energy": -0.27895,
				"method": "rhf"
			},
			{
				"type": "occ",
				"energy": -0.27295,
				"method": "rhf"
			},
			{
				"type": "occ",
				"energy": -0.25753,
				"method": "rhf"
			},
			{
				"type": "unocc",
				"energy": -0.06418,
				"method": "rhf"
			},
			{
				"type": "unocc",
				"energy": -0.04662,
				"method": "rhf"
			},
			{
				"type": "unocc",
				"energy": -0.02024,
				"method": "rhf"
			},
			{
				"type": "unocc",
				"energy": 0.03129,
				"method": "rhf"
			},
			{
				"type": "unocc",
				"energy": 0.05988,
				"method": "rhf"
			}
		],
		"cosmo_sigma_profile": { 
			"-0.025": 0.0,
			"-0.024": 0.0,
			"-0.023": 0.0,
			"-0.022": 0.0,
			"-0.021": 0.0,
			"-0.02": 0.0,
			"-0.019": 0.473525503878,
			"-0.018": 0.783405501928,
			"-0.017": 0.94219292033,
			"-0.016": 1.06208877153,
			"-0.015": 1.0096765139,
			"-0.014": 0.960339210608,
			"-0.013": 0.816578426465,
			"-0.012": 0.950373520285,
			"-0.011": 1.2086200372,
			"-0.01": 0.882287345831,
			"-0.009": 0.739467452882,
			"-0.008": 1.09128713999,
			"-0.007": 5.4387924043,
			"-0.006": 10.637462447,
			"-0.005": 14.1278604426,
			"-0.004": 19.2386938249,
			"-0.003": 31.1557298807,
			"-0.002": 29.8362679494,
			"-0.001": 29.8327235843,
			"0.0": 30.2778639645,
			"0.001": 38.2542912009,
			"0.002": 22.3126241133,
			"0.003": 8.0022241313,
			"0.004": 5.51789365412,
			"0.005": 6.114755104,
			"0.006": 7.82206412788,
			"0.007": 7.04187013334,
			"0.008": 4.86885129595,
			"0.009": 6.06070796721,
			"0.01": 6.7622994581,
			"0.011": 7.61334502004,
			"0.012": 4.98084225207,
			"0.013": 1.19934547133,
			"0.014": 0.0,
			"0.015": 0.0,
			"0.016": 0.0,
			"0.017": 0.0,
			"0.018": 0.0,
			"0.019": 0.0,
			"0.02": 0.0,
			"0.021": 0.0,
			"0.022": 0.0,
			"0.023": 0.0,
			"0.024": 0.0,
			"0.025": 0.0
		}
	}
}
