{
	 "smiles": "OC1=C(C=CC2=C(C=C(C=C2)[N+]([O-])=O)[N+]([O-])=O)C=CC=C1", 
	 "Tm": 459.15, 
	 "num_atms": 31, 
	 "gaussian": { 
		 "optdone": 1, 
		 "sigma_profile": "yes", 
		 "theory": "DFT", 
		 "functional": "B3LYP", 
		 "basiset": "6-31G**", 
		 "properties": { 
			 "R2extent": 8888.3248, 
			 "electric_dipole_moment_norm": 5.46968771595, 
			 "electric_quadrupole_moment_norm": 15.1809706864, 
			 "total_energy": -1024.91911572, 
			 "HOMO_LUMO_gap": 0.11136, 
			 "cosmo_polarized_energy": -15.57, 
			 "cosmo_cavitation_energy": 37.24, 
			 "cosmo_dispersion_energy": -26.89, 
			 "cosmo_repulsion_energy": 1.99, 
			 "cosmo_total_nonelectrostatic_energy": 12.35, 
			 "SMD_solvation_energy": 10.5 
		},
		"coords": [
			{
				"x": -1.1246598063,
				"y": 2.2891259584,
				"z": -2.7095274089,
				"element": "O" 
			},
			{
				"x": -1.580511212,
				"y": 1.0932278374,
				"z": -3.1693562392,
				"element": "C" 
			},
			{
				"x": -1.6863949738,
				"y": -0.0748980022,
				"z": -2.3714007192,
				"element": "C" 
			},
			{
				"x": -1.255377486,
				"y": -0.1467506088,
				"z": -0.9761729826,
				"element": "C" 
			},
			{
				"x": -0.2746107582,
				"y": 0.5793178797,
				"z": -0.3930341175,
				"element": "C" 
			},
			{
				"x": 0.0788663921,
				"y": 0.4862665179,
				"z": 1.0248933363,
				"element": "C" 
			},
			{
				"x": 0.5752716678,
				"y": 1.5769646712,
				"z": 1.7809892826,
				"element": "C" 
			},
			{
				"x": 0.9606398363,
				"y": 1.4525069785,
				"z": 3.1135637851,
				"element": "C" 
			},
			{
				"x": 0.8289624467,
				"y": 0.2173130536,
				"z": 3.7277815263,
				"element": "C" 
			},
			{
				"x": 0.3385911868,
				"y": -0.8925250606,
				"z": 3.0371437892,
				"element": "C" 
			},
			{
				"x": -0.0154689627,
				"y": -0.7482916931,
				"z": 1.7053303074,
				"element": "C" 
			},
			{
				"x": 1.2204107051,
				"y": 0.0759434838,
				"z": 5.1373430125,
				"element": "N" 
			},
			{
				"x": 1.6483715447,
				"y": 1.074679082,
				"z": 5.7120466944,
				"element": "O" 
			},
			{
				"x": 1.0917406105,
				"y": -1.0359961508,
				"z": 5.648279145,
				"element": "O" 
			},
			{
				"x": 0.6724433964,
				"y": 2.9393420903,
				"z": 1.2190283792,
				"element": "N" 
			},
			{
				"x": 0.0103947794,
				"y": 3.2144023811,
				"z": 0.2141318561,
				"element": "O" 
			},
			{
				"x": 1.3953464889,
				"y": 3.7397552418,
				"z": 1.8046756447,
				"element": "O" 
			},
			{
				"x": -2.2641576912,
				"y": -1.2220330916,
				"z": -2.9552797904,
				"element": "C" 
			},
			{
				"x": -2.6544690501,
				"y": -1.2515171271,
				"z": -4.2866893988,
				"element": "C" 
			},
			{
				"x": -2.4976284833,
				"y": -0.1008509113,
				"z": -5.0687574342,
				"element": "C" 
			},
			{
				"x": -1.9783731277,
				"y": 1.0619527919,
				"z": -4.511414072,
				"element": "C" 
			},
			{
				"x": -1.1052827159,
				"y": 2.308711401,
				"z": -1.7407800427,
				"element": "H" 
			},
			{
				"x": -1.8071696103,
				"y": -0.8599847953,
				"z": -0.3641716146,
				"element": "H" 
			},
			{
				"x": 0.3002628944,
				"y": 1.2799020367,
				"z": -0.9837024733,
				"element": "H" 
			},
			{
				"x": 1.3410682066,
				"y": 2.3051513778,
				"z": 3.6588232862,
				"element": "H" 
			},
			{
				"x": 0.2634780757,
				"y": -1.8454357294,
				"z": 3.5460901183,
				"element": "H" 
			},
			{
				"x": -0.3451042041,
				"y": -1.6185786571,
				"z": 1.1493652028,
				"element": "H" 
			},
			{
				"x": -2.3779139145,
				"y": -2.1104892402,
				"z": -2.338976269,
				"element": "H" 
			},
			{
				"x": -3.0780832125,
				"y": -2.1550228464,
				"z": -4.7129470366,
				"element": "H" 
			},
			{
				"x": -2.7996315154,
				"y": -0.1048923037,
				"z": -6.1119864362,
				"element": "H" 
			},
			{
				"x": -1.8816115073,
				"y": 1.9741034345,
				"z": -5.090689331,
				"element": "H" 
			}
		],
		 "valence_orbital": [ 
			{
				"type": "occ",
				"energy": -0.30559,
				"method": "rhf"
			},
			{
				"type": "occ",
				"energy": -0.30258,
				"method": "rhf"
			},
			{
				"type": "occ",
				"energy": -0.29649,
				"method": "rhf"
			},
			{
				"type": "occ",
				"energy": -0.25058,
				"method": "rhf"
			},
			{
				"type": "occ",
				"energy": -0.22819,
				"method": "rhf"
			},
			{
				"type": "unocc",
				"energy": -0.11683,
				"method": "rhf"
			},
			{
				"type": "unocc",
				"energy": -0.10407,
				"method": "rhf"
			},
			{
				"type": "unocc",
				"energy": -0.05699,
				"method": "rhf"
			},
			{
				"type": "unocc",
				"energy": -0.03436,
				"method": "rhf"
			},
			{
				"type": "unocc",
				"energy": -0.0088,
				"method": "rhf"
			}
		],
		"cosmo_sigma_profile": { 
			"-0.025": 0.0,
			"-0.024": 0.0,
			"-0.023": 0.0,
			"-0.022": 0.0,
			"-0.021": 0.0,
			"-0.02": 0.0,
			"-0.019": 0.0,
			"-0.018": 0.0,
			"-0.017": 0.0,
			"-0.016": 0.0,
			"-0.015": 0.0,
			"-0.014": 0.0,
			"-0.013": 0.0,
			"-0.012": 0.0,
			"-0.011": 0.0332855856582,
			"-0.01": 1.02313339978,
			"-0.009": 4.17668755127,
			"-0.008": 8.19368140078,
			"-0.007": 11.3486233815,
			"-0.006": 17.475746107,
			"-0.005": 19.6442767129,
			"-0.004": 20.5855167456,
			"-0.003": 24.3548365276,
			"-0.002": 27.1752103758,
			"-0.001": 19.6019498056,
			"0.0": 18.1840950573,
			"0.001": 14.9264030769,
			"0.002": 14.5456239295,
			"0.003": 17.1390316752,
			"0.004": 16.7380060321,
			"0.005": 14.1673967564,
			"0.006": 10.8995763213,
			"0.007": 16.8298410409,
			"0.008": 10.6121317507,
			"0.009": 8.16956883931,
			"0.01": 3.18272749764,
			"0.011": 1.27814143131,
			"0.012": 0.0,
			"0.013": 0.0,
			"0.014": 0.0,
			"0.015": 0.0,
			"0.016": 0.0,
			"0.017": 0.0,
			"0.018": 0.0,
			"0.019": 0.0,
			"0.02": 0.0,
			"0.021": 0.0,
			"0.022": 0.0,
			"0.023": 0.0,
			"0.024": 0.0,
			"0.025": 0.0
		}
	}
}
