{
	 "smiles": "NCC1=CC(N)=NC=C1", 
	 "Tm": 366.15, 
	 "num_atms": 18, 
	 "gaussian": { 
		 "optdone": 1, 
		 "sigma_profile": "yes", 
		 "theory": "DFT", 
		 "functional": "B3LYP", 
		 "basiset": "6-31G**", 
		 "properties": { 
			 "R2extent": 1548.6759, 
			 "electric_dipole_moment_norm": 2.87635849817, 
			 "electric_quadrupole_moment_norm": 8.03467805702, 
			 "total_energy": -398.318969982, 
			 "HOMO_LUMO_gap": 0.19916, 
			 "cosmo_polarized_energy": -12.19, 
			 "cosmo_cavitation_energy": 21.42, 
			 "cosmo_dispersion_energy": -16.19, 
			 "cosmo_repulsion_energy": 1.36, 
			 "cosmo_total_nonelectrostatic_energy": 6.59, 
			 "SMD_solvation_energy": 1.48 
		},
		"coords": [
			{
				"x": 0.2848800703,
				"y": 2.0562891628,
				"z": 0.4733113469,
				"element": "N" 
			},
			{
				"x": 0.8896142827,
				"y": 0.7468226901,
				"z": 0.7275376611,
				"element": "C" 
			},
			{
				"x": 0.3639902748,
				"y": -0.3225726946,
				"z": -0.211129193,
				"element": "C" 
			},
			{
				"x": -0.901245555,
				"y": -0.2268213495,
				"z": -0.7767822175,
				"element": "C" 
			},
			{
				"x": -1.3517980641,
				"y": -1.2638425738,
				"z": -1.6193456806,
				"element": "C" 
			},
			{
				"x": -2.62365637,
				"y": -1.234997756,
				"z": -2.1651046133,
				"element": "N" 
			},
			{
				"x": -0.6116541201,
				"y": -2.3457148979,
				"z": -1.908014161,
				"element": "N" 
			},
			{
				"x": 0.6023024579,
				"y": -2.4224125285,
				"z": -1.347632401,
				"element": "C" 
			},
			{
				"x": 1.1402368426,
				"y": -1.4552407895,
				"z": -0.5067302421,
				"element": "C" 
			},
			{
				"x": 0.6143896563,
				"y": 2.4218742756,
				"z": -0.4170239046,
				"element": "H" 
			},
			{
				"x": 0.5763135698,
				"y": 2.7171175274,
				"z": 1.1880627167,
				"element": "H" 
			},
			{
				"x": 1.9923381363,
				"y": 0.738010962,
				"z": 0.68032867,
				"element": "H" 
			},
			{
				"x": 0.6299631586,
				"y": 0.4606413064,
				"z": 1.7560814545,
				"element": "H" 
			},
			{
				"x": -1.5231869102,
				"y": 0.6363318939,
				"z": -0.5639503806,
				"element": "H" 
			},
			{
				"x": -3.0457912231,
				"y": -0.3286013053,
				"z": -2.2997203796,
				"element": "H" 
			},
			{
				"x": -2.7550265824,
				"y": -1.8839928384,
				"z": -2.9282204076,
				"element": "H" 
			},
			{
				"x": 1.1813345212,
				"y": -3.3099363004,
				"z": -1.6001829558,
				"element": "H" 
			},
			{
				"x": 2.1392958542,
				"y": -1.5732547844,
				"z": -0.0977853127,
				"element": "H" 
			}
		],
		 "valence_orbital": [ 
			{
				"type": "occ",
				"energy": -0.30385,
				"method": "rhf"
			},
			{
				"type": "occ",
				"energy": -0.26297,
				"method": "rhf"
			},
			{
				"type": "occ",
				"energy": -0.24673,
				"method": "rhf"
			},
			{
				"type": "occ",
				"energy": -0.239,
				"method": "rhf"
			},
			{
				"type": "occ",
				"energy": -0.2039,
				"method": "rhf"
			},
			{
				"type": "unocc",
				"energy": -0.00474,
				"method": "rhf"
			},
			{
				"type": "unocc",
				"energy": 0.01852,
				"method": "rhf"
			},
			{
				"type": "unocc",
				"energy": 0.08338,
				"method": "rhf"
			},
			{
				"type": "unocc",
				"energy": 0.0951,
				"method": "rhf"
			},
			{
				"type": "unocc",
				"energy": 0.12511,
				"method": "rhf"
			}
		],
		"cosmo_sigma_profile": { 
			"-0.025": 0.0,
			"-0.024": 0.0,
			"-0.023": 0.0,
			"-0.022": 0.0,
			"-0.021": 0.0,
			"-0.02": 0.0,
			"-0.019": 0.0,
			"-0.018": 0.0,
			"-0.017": 0.0,
			"-0.016": 0.0,
			"-0.015": 0.0,
			"-0.014": 0.0,
			"-0.013": 0.723829873837,
			"-0.012": 1.87326744692,
			"-0.011": 2.50918473698,
			"-0.01": 4.03741792194,
			"-0.009": 5.62714421645,
			"-0.008": 4.94592681428,
			"-0.007": 4.50445254939,
			"-0.006": 6.15559685319,
			"-0.005": 10.7885606141,
			"-0.004": 11.6572333394,
			"-0.003": 13.5725944102,
			"-0.002": 12.1768104927,
			"-0.001": 9.19871664638,
			"0.0": 6.7967612209,
			"0.001": 5.4917872264,
			"0.002": 9.18790471655,
			"0.003": 7.83320399495,
			"0.004": 12.3556153955,
			"0.005": 11.1141740125,
			"0.006": 4.78719436669,
			"0.007": 3.31207312052,
			"0.008": 2.43565930627,
			"0.009": 2.90418059361,
			"0.01": 2.78733192898,
			"0.011": 2.54304670592,
			"0.012": 2.2999597032,
			"0.013": 2.39021913011,
			"0.014": 0.944292596514,
			"0.015": 1.84217742698,
			"0.016": 1.06186424985,
			"0.017": 0.56314889686,
			"0.018": 0.0,
			"0.019": 0.0,
			"0.02": 0.0,
			"0.021": 0.0,
			"0.022": 0.0,
			"0.023": 0.0,
			"0.024": 0.0,
			"0.025": 0.0
		}
	}
}
