{
	 "smiles": "CC1CCN(CC1)C(=O)C1=CN=C(Cl)C=C1", 
	 "Tm": 343.15, 
	 "num_atms": 31, 
	 "gaussian": { 
		 "optdone": 1, 
		 "sigma_profile": "yes", 
		 "theory": "DFT", 
		 "functional": "B3LYP", 
		 "basiset": "6-31G**", 
		 "properties": { 
			 "R2extent": 6614.6042, 
			 "electric_dipole_moment_norm": 6.07996794893, 
			 "electric_quadrupole_moment_norm": 12.5072687374, 
			 "total_energy": -1111.25178816, 
			 "HOMO_LUMO_gap": 0.19344, 
			 "cosmo_polarized_energy": -13.52, 
			 "cosmo_cavitation_energy": 34.7, 
			 "cosmo_dispersion_energy": -25.17, 
			 "cosmo_repulsion_energy": 1.96, 
			 "cosmo_total_nonelectrostatic_energy": 11.5, 
			 "SMD_solvation_energy": 3.49 
		},
		"coords": [
			{
				"x": 1.0404044873,
				"y": -2.6815150847,
				"z": 3.9562369951,
				"element": "C" 
			},
			{
				"x": -0.1682428305,
				"y": -1.8368999,
				"z": 3.5337950043,
				"element": "C" 
			},
			{
				"x": -0.0521935448,
				"y": -0.3626298839,
				"z": 4.0062449648,
				"element": "C" 
			},
			{
				"x": 0.5417704191,
				"y": 0.5529876207,
				"z": 2.9359458923,
				"element": "C" 
			},
			{
				"x": -0.3194056045,
				"y": 0.5642890795,
				"z": 1.7388440056,
				"element": "N" 
			},
			{
				"x": -1.1080298557,
				"y": -0.650393679,
				"z": 1.473981191,
				"element": "C" 
			},
			{
				"x": -0.3675878837,
				"y": -1.8845756359,
				"z": 1.9995470557,
				"element": "C" 
			},
			{
				"x": -0.0656888638,
				"y": 1.5537321474,
				"z": 0.8237269163,
				"element": "C" 
			},
			{
				"x": 0.859228278,
				"y": 2.3518110021,
				"z": 0.974761982,
				"element": "O" 
			},
			{
				"x": -0.9645519964,
				"y": 1.6883843023,
				"z": -0.3762149428,
				"element": "C" 
			},
			{
				"x": -0.3790983497,
				"y": 2.070667879,
				"z": -1.5898131482,
				"element": "C" 
			},
			{
				"x": -1.0712393553,
				"y": 2.2903195179,
				"z": -2.7135251828,
				"element": "N" 
			},
			{
				"x": -2.3854737124,
				"y": 2.1656689083,
				"z": -2.6494821151,
				"element": "C" 
			},
			{
				"x": -3.2824665873,
				"y": 2.4636927829,
				"z": -4.1353472392,
				"element": "Cl" 
			},
			{
				"x": -3.097668339,
				"y": 1.8251922839,
				"z": -1.496845155,
				"element": "C" 
			},
			{
				"x": -2.3607425613,
				"y": 1.5782179221,
				"z": -0.3427577831,
				"element": "C" 
			},
			{
				"x": 1.9731578852,
				"y": -2.2575547718,
				"z": 3.5650856876,
				"element": "H" 
			},
			{
				"x": 0.9605873864,
				"y": -3.7069788721,
				"z": 3.5786885903,
				"element": "H" 
			},
			{
				"x": 1.1277997812,
				"y": -2.7318250617,
				"z": 5.0466986387,
				"element": "H" 
			},
			{
				"x": -1.0612662818,
				"y": -2.2673853663,
				"z": 4.0054519669,
				"element": "H" 
			},
			{
				"x": 0.5650773208,
				"y": -0.2992123934,
				"z": 4.909117473,
				"element": "H" 
			},
			{
				"x": -1.0411233217,
				"y": 0.0225678769,
				"z": 4.2819787608,
				"element": "H" 
			},
			{
				"x": 0.6307993468,
				"y": 1.5811035284,
				"z": 3.2931023128,
				"element": "H" 
			},
			{
				"x": 1.5581448461,
				"y": 0.2345803317,
				"z": 2.6645421292,
				"element": "H" 
			},
			{
				"x": -2.0977471913,
				"y": -0.5844318352,
				"z": 1.9502323833,
				"element": "H" 
			},
			{
				"x": -1.2728056802,
				"y": -0.7392476654,
				"z": 0.3989975132,
				"element": "H" 
			},
			{
				"x": 0.6072333407,
				"y": -1.9395009085,
				"z": 1.4982140524,
				"element": "H" 
			},
			{
				"x": -0.9177851003,
				"y": -2.7874382567,
				"z": 1.7122303522,
				"element": "H" 
			},
			{
				"x": 0.6973424282,
				"y": 2.2068313175,
				"z": -1.6447526241,
				"element": "H" 
			},
			{
				"x": -4.1791782273,
				"y": 1.7636114639,
				"z": -1.5095206678,
				"element": "H" 
			},
			{
				"x": -2.873450233,
				"y": 1.3230313503,
				"z": 0.5793349907,
				"element": "H" 
			}
		],
		 "valence_orbital": [ 
			{
				"type": "occ",
				"energy": -0.30296,
				"method": "rhf"
			},
			{
				"type": "occ",
				"energy": -0.28018,
				"method": "rhf"
			},
			{
				"type": "occ",
				"energy": -0.26744,
				"method": "rhf"
			},
			{
				"type": "occ",
				"energy": -0.24948,
				"method": "rhf"
			},
			{
				"type": "occ",
				"energy": -0.24149,
				"method": "rhf"
			},
			{
				"type": "unocc",
				"energy": -0.04805,
				"method": "rhf"
			},
			{
				"type": "unocc",
				"energy": -0.03765,
				"method": "rhf"
			},
			{
				"type": "unocc",
				"energy": 0.0317,
				"method": "rhf"
			},
			{
				"type": "unocc",
				"energy": 0.03751,
				"method": "rhf"
			},
			{
				"type": "unocc",
				"energy": 0.06299,
				"method": "rhf"
			}
		],
		"cosmo_sigma_profile": { 
			"-0.025": 0.0,
			"-0.024": 0.0,
			"-0.023": 0.0,
			"-0.022": 0.0,
			"-0.021": 0.0,
			"-0.02": 0.0,
			"-0.019": 0.0,
			"-0.018": 0.0,
			"-0.017": 0.0,
			"-0.016": 0.0,
			"-0.015": 0.0,
			"-0.014": 0.0,
			"-0.013": 0.0,
			"-0.012": 0.0,
			"-0.011": 0.0,
			"-0.01": 0.0,
			"-0.009": 0.815346874225,
			"-0.008": 4.10023541863,
			"-0.007": 5.73797792499,
			"-0.006": 5.84339226795,
			"-0.005": 8.720029637,
			"-0.004": 17.7899764157,
			"-0.003": 37.1025873167,
			"-0.002": 39.4202212837,
			"-0.001": 36.6070554233,
			"0.0": 30.3639009629,
			"0.001": 19.4415260982,
			"0.002": 11.6728916377,
			"0.003": 9.72860643126,
			"0.004": 12.1653040039,
			"0.005": 6.45131034852,
			"0.006": 3.90868756596,
			"0.007": 2.65277928866,
			"0.008": 2.56451805697,
			"0.009": 3.24489112274,
			"0.01": 1.73476351362,
			"0.011": 3.37990808216,
			"0.012": 2.38328413183,
			"0.013": 4.3603919519,
			"0.014": 4.89127445856,
			"0.015": 0.303055452074,
			"0.016": 0.0,
			"0.017": 0.0,
			"0.018": 0.0,
			"0.019": 0.0,
			"0.02": 0.0,
			"0.021": 0.0,
			"0.022": 0.0,
			"0.023": 0.0,
			"0.024": 0.0,
			"0.025": 0.0
		}
	}
}
