{
	 "smiles": "CC1=NN(C(C)=C1CC(O)=O)C1=CC(Cl)=C(Cl)C=C1", 
	 "Tm": 414.15, 
	 "num_atms": 31, 
	 "gaussian": { 
		 "optdone": 1, 
		 "sigma_profile": "yes", 
		 "theory": "DFT", 
		 "functional": "B3LYP", 
		 "basiset": "6-31G**", 
		 "properties": { 
			 "R2extent": 9043.6136, 
			 "electric_dipole_moment_norm": 3.0572797942, 
			 "electric_quadrupole_moment_norm": 10.6637085791, 
			 "total_energy": -1682.96104177, 
			 "HOMO_LUMO_gap": 0.19105, 
			 "cosmo_polarized_energy": -13.49, 
			 "cosmo_cavitation_energy": 39.26, 
			 "cosmo_dispersion_energy": -27.55, 
			 "cosmo_repulsion_energy": 2.14, 
			 "cosmo_total_nonelectrostatic_energy": 13.85, 
			 "SMD_solvation_energy": 6.38 
		},
		"coords": [
			{
				"x": -2.0513311391,
				"y": 2.2310365402,
				"z": 1.6970341751,
				"element": "C" 
			},
			{
				"x": -1.1845869192,
				"y": 1.1918219067,
				"z": 1.0555123474,
				"element": "C" 
			},
			{
				"x": -1.0741130572,
				"y": 1.1224417745,
				"z": -0.2646416541,
				"element": "N" 
			},
			{
				"x": -0.2174483772,
				"y": 0.0833607266,
				"z": -0.5025542429,
				"element": "N" 
			},
			{
				"x": 0.1999892163,
				"y": -0.5209028212,
				"z": 0.6624641576,
				"element": "C" 
			},
			{
				"x": 1.0642940879,
				"y": -1.7415416501,
				"z": 0.7440075629,
				"element": "C" 
			},
			{
				"x": -0.3991881175,
				"y": 0.1897145762,
				"z": 1.6897863686,
				"element": "C" 
			},
			{
				"x": -0.2780601351,
				"y": -0.0771223343,
				"z": 3.168844,
				"element": "C" 
			},
			{
				"x": -1.2103979737,
				"y": -1.1994866794,
				"z": 3.5915399153,
				"element": "C" 
			},
			{
				"x": -2.4405643384,
				"y": -0.7399899689,
				"z": 3.9214294709,
				"element": "O" 
			},
			{
				"x": -0.9275931686,
				"y": -2.3782497974,
				"z": 3.6037165099,
				"element": "O" 
			},
			{
				"x": 0.0663691173,
				"y": -0.249223154,
				"z": -1.8491801272,
				"element": "C" 
			},
			{
				"x": 1.331189702,
				"y": -0.7039810237,
				"z": -2.2297632877,
				"element": "C" 
			},
			{
				"x": 1.5855892897,
				"y": -1.031175125,
				"z": -3.5632151994,
				"element": "C" 
			},
			{
				"x": 3.1817938635,
				"y": -1.6032426509,
				"z": -3.9836709422,
				"element": "Cl" 
			},
			{
				"x": 0.5847376823,
				"y": -0.8796320649,
				"z": -4.5296702059,
				"element": "C" 
			},
			{
				"x": 0.8610815835,
				"y": -1.2730294866,
				"z": -6.2074363731,
				"element": "Cl" 
			},
			{
				"x": -0.6690748688,
				"y": -0.3956595203,
				"z": -4.1431388466,
				"element": "C" 
			},
			{
				"x": -0.9343601872,
				"y": -0.0857051106,
				"z": -2.8160702895,
				"element": "C" 
			},
			{
				"x": -2.8036445461,
				"y": 1.770506077,
				"z": 2.346199049,
				"element": "H" 
			},
			{
				"x": -2.5597217567,
				"y": 2.8153628654,
				"z": 0.927436728,
				"element": "H" 
			},
			{
				"x": -1.4625977118,
				"y": 2.9187605431,
				"z": 2.3158215892,
				"element": "H" 
			},
			{
				"x": 0.8721023358,
				"y": -2.4274554226,
				"z": -0.085510313,
				"element": "H" 
			},
			{
				"x": 0.8474282266,
				"y": -2.2716243131,
				"z": 1.6741641913,
				"element": "H" 
			},
			{
				"x": 2.1344907315,
				"y": -1.499995841,
				"z": 0.7334040225,
				"element": "H" 
			},
			{
				"x": -0.5213587459,
				"y": 0.8272008709,
				"z": 3.7328302333,
				"element": "H" 
			},
			{
				"x": 0.7373035106,
				"y": -0.3842891895,
				"z": 3.4317469456,
				"element": "H" 
			},
			{
				"x": -2.9807276701,
				"y": -1.5235760902,
				"z": 4.1214514465,
				"element": "H" 
			},
			{
				"x": 2.1348819608,
				"y": -0.7839269015,
				"z": -1.5105297616,
				"element": "H" 
			},
			{
				"x": -1.4394871977,
				"y": -0.2748572746,
				"z": -4.8964418614,
				"element": "H" 
			},
			{
				"x": -1.9029953975,
				"y": 0.2915605393,
				"z": -2.5138656085,
				"element": "H" 
			}
		],
		 "valence_orbital": [ 
			{
				"type": "occ",
				"energy": -0.28586,
				"method": "rhf"
			},
			{
				"type": "occ",
				"energy": -0.27686,
				"method": "rhf"
			},
			{
				"type": "occ",
				"energy": -0.26283,
				"method": "rhf"
			},
			{
				"type": "occ",
				"energy": -0.24185,
				"method": "rhf"
			},
			{
				"type": "occ",
				"energy": -0.22817,
				"method": "rhf"
			},
			{
				"type": "unocc",
				"energy": -0.03712,
				"method": "rhf"
			},
			{
				"type": "unocc",
				"energy": -0.029,
				"method": "rhf"
			},
			{
				"type": "unocc",
				"energy": -0.00158,
				"method": "rhf"
			},
			{
				"type": "unocc",
				"energy": -0.00077,
				"method": "rhf"
			},
			{
				"type": "unocc",
				"energy": 0.02308,
				"method": "rhf"
			}
		],
		"cosmo_sigma_profile": { 
			"-0.025": 0.0,
			"-0.024": 0.0,
			"-0.023": 0.0,
			"-0.022": 0.0,
			"-0.021": 0.0,
			"-0.02": 0.0,
			"-0.019": 0.0603970476687,
			"-0.018": 0.737723164612,
			"-0.017": 1.09220644261,
			"-0.016": 0.90317877311,
			"-0.015": 0.391136589206,
			"-0.014": 0.929141377819,
			"-0.013": 0.79853270563,
			"-0.012": 0.628014367022,
			"-0.011": 0.794343703689,
			"-0.01": 0.77684998073,
			"-0.009": 0.826889747494,
			"-0.008": 4.47015213784,
			"-0.007": 6.48639841029,
			"-0.006": 10.753665458,
			"-0.005": 15.8750983358,
			"-0.004": 20.595503815,
			"-0.003": 22.6203974871,
			"-0.002": 24.0879567901,
			"-0.001": 28.1359215629,
			"0.0": 33.3044099812,
			"0.001": 31.3422108088,
			"0.002": 26.3864491901,
			"0.003": 23.6897691166,
			"0.004": 24.0672772808,
			"0.005": 8.8556009026,
			"0.006": 4.35219634011,
			"0.007": 4.27392178697,
			"0.008": 4.19066068651,
			"0.009": 2.94850512314,
			"0.01": 3.41816922501,
			"0.011": 4.24518834869,
			"0.012": 3.43441078917,
			"0.013": 1.2009942034,
			"0.014": 0.531265490859,
			"0.015": 0.201948413476,
			"0.016": 0.0,
			"0.017": 0.0,
			"0.018": 0.0,
			"0.019": 0.0,
			"0.02": 0.0,
			"0.021": 0.0,
			"0.022": 0.0,
			"0.023": 0.0,
			"0.024": 0.0,
			"0.025": 0.0
		}
	}
}
