{
	 "smiles": "OC(=O)CC1=CSC(=N1)C1=CC=C(Cl)S1", 
	 "Tm": 410.15, 
	 "num_atms": 21, 
	 "gaussian": { 
		 "optdone": 1, 
		 "sigma_profile": "yes", 
		 "theory": "DFT", 
		 "functional": "B3LYP", 
		 "basiset": "6-31G**", 
		 "properties": { 
			 "R2extent": 8091.5364, 
			 "electric_dipole_moment_norm": 2.26648666883, 
			 "electric_quadrupole_moment_norm": 6.35473777901, 
			 "total_energy": -1808.33080892, 
			 "HOMO_LUMO_gap": 0.15027, 
			 "cosmo_polarized_energy": -10.17, 
			 "cosmo_cavitation_energy": 31.69, 
			 "cosmo_dispersion_energy": -24.54, 
			 "cosmo_repulsion_energy": 1.84, 
			 "cosmo_total_nonelectrostatic_energy": 8.99, 
			 "SMD_solvation_energy": 4.46 
		},
		"coords": [
			{
				"x": -4.0442909482,
				"y": 1.957015106,
				"z": 0.6465642915,
				"element": "O" 
			},
			{
				"x": -3.4260670401,
				"y": 0.8836431292,
				"z": 0.0993414806,
				"element": "C" 
			},
			{
				"x": -3.9830451256,
				"y": 0.1522293982,
				"z": -0.6905338587,
				"element": "O" 
			},
			{
				"x": -2.0108062179,
				"y": 0.7766124201,
				"z": 0.622189549,
				"element": "C" 
			},
			{
				"x": -1.1687202858,
				"y": -0.3646335097,
				"z": 0.1171671907,
				"element": "C" 
			},
			{
				"x": -1.5122815725,
				"y": -1.348241984,
				"z": -0.7704171309,
				"element": "C" 
			},
			{
				"x": -0.1759044529,
				"y": -2.4227023982,
				"z": -1.0149231118,
				"element": "S" 
			},
			{
				"x": 0.7697751298,
				"y": -1.4547552702,
				"z": 0.1154396433,
				"element": "C" 
			},
			{
				"x": 0.1152514718,
				"y": -0.4335727387,
				"z": 0.6087313238,
				"element": "N" 
			},
			{
				"x": 2.1452832282,
				"y": -1.7566390815,
				"z": 0.4705195398,
				"element": "C" 
			},
			{
				"x": 2.9329591979,
				"y": -1.0445707371,
				"z": 1.3479729832,
				"element": "C" 
			},
			{
				"x": 4.2421511377,
				"y": -1.5755617279,
				"z": 1.5003285255,
				"element": "C" 
			},
			{
				"x": 4.435901216,
				"y": -2.6918796772,
				"z": 0.7322058663,
				"element": "C" 
			},
			{
				"x": 5.875434127,
				"y": -3.6425136508,
				"z": 0.6204088704,
				"element": "Cl" 
			},
			{
				"x": 3.0243750742,
				"y": -3.1203070009,
				"z": -0.1948560768,
				"element": "S" 
			},
			{
				"x": -4.9422210165,
				"y": 1.9712511494,
				"z": 0.2746806173,
				"element": "H" 
			},
			{
				"x": -1.507141047,
				"y": 1.727819532,
				"z": 0.4082965251,
				"element": "H" 
			},
			{
				"x": -2.0660668292,
				"y": 0.7361903495,
				"z": 1.7174685577,
				"element": "H" 
			},
			{
				"x": -2.4555511548,
				"y": -1.4857455798,
				"z": -1.2739051422,
				"element": "H" 
			},
			{
				"x": 2.5629993427,
				"y": -0.1655033199,
				"z": 1.8604544979,
				"element": "H" 
			},
			{
				"x": 5.0058657653,
				"y": -1.1573344086,
				"z": 2.1439658584,
				"element": "H" 
			}
		],
		 "valence_orbital": [ 
			{
				"type": "occ",
				"energy": -0.28874,
				"method": "rhf"
			},
			{
				"type": "occ",
				"energy": -0.28155,
				"method": "rhf"
			},
			{
				"type": "occ",
				"energy": -0.27253,
				"method": "rhf"
			},
			{
				"type": "occ",
				"energy": -0.26614,
				"method": "rhf"
			},
			{
				"type": "occ",
				"energy": -0.21502,
				"method": "rhf"
			},
			{
				"type": "unocc",
				"energy": -0.06475,
				"method": "rhf"
			},
			{
				"type": "unocc",
				"energy": -0.01555,
				"method": "rhf"
			},
			{
				"type": "unocc",
				"energy": -0.00243,
				"method": "rhf"
			},
			{
				"type": "unocc",
				"energy": 0.00774,
				"method": "rhf"
			},
			{
				"type": "unocc",
				"energy": 0.01873,
				"method": "rhf"
			}
		],
		"cosmo_sigma_profile": { 
			"-0.025": 0.0,
			"-0.024": 0.0,
			"-0.023": 0.0,
			"-0.022": 0.0,
			"-0.021": 0.0,
			"-0.02": 0.0,
			"-0.019": 0.155543400695,
			"-0.018": 0.789868979693,
			"-0.017": 1.05601511662,
			"-0.016": 0.886594095697,
			"-0.015": 0.284003160926,
			"-0.014": 0.567201425923,
			"-0.013": 0.730191498494,
			"-0.012": 1.01855113419,
			"-0.011": 0.959264576158,
			"-0.01": 0.628795062157,
			"-0.009": 0.713178347489,
			"-0.008": 5.39847894174,
			"-0.007": 9.80126342952,
			"-0.006": 9.55222354896,
			"-0.005": 9.31983308459,
			"-0.004": 10.353303226,
			"-0.003": 14.2256895739,
			"-0.002": 18.2506191109,
			"-0.001": 18.6142140586,
			"0.0": 23.87935928,
			"0.001": 32.4968706144,
			"0.002": 35.7931269035,
			"0.003": 29.3004898387,
			"0.004": 8.06971593205,
			"0.005": 3.41081741199,
			"0.006": 4.25069656136,
			"0.007": 4.66495277263,
			"0.008": 3.49300997371,
			"0.009": 4.43687323386,
			"0.01": 3.91297008489,
			"0.011": 3.20322648261,
			"0.012": 1.23426403597,
			"0.013": 0.0,
			"0.014": 0.0,
			"0.015": 0.0,
			"0.016": 0.0,
			"0.017": 0.0,
			"0.018": 0.0,
			"0.019": 0.0,
			"0.02": 0.0,
			"0.021": 0.0,
			"0.022": 0.0,
			"0.023": 0.0,
			"0.024": 0.0,
			"0.025": 0.0
		}
	}
}
