{
	 "smiles": "COC1=CC(CN2CCNCC2)=CC(OC)=C1OC", 
	 "Tm": 376.15, 
	 "num_atms": 41, 
	 "gaussian": { 
		 "optdone": 1, 
		 "sigma_profile": "yes", 
		 "theory": "DFT", 
		 "functional": "B3LYP", 
		 "basiset": "6-31G**", 
		 "properties": { 
			 "R2extent": 7426.5986, 
			 "electric_dipole_moment_norm": 1.33653068427, 
			 "electric_quadrupole_moment_norm": 7.87129497859, 
			 "total_energy": -881.856366527, 
			 "HOMO_LUMO_gap": 0.20475, 
			 "cosmo_polarized_energy": -11.84, 
			 "cosmo_cavitation_energy": 41.6, 
			 "cosmo_dispersion_energy": -28.97, 
			 "cosmo_repulsion_energy": 2.28, 
			 "cosmo_total_nonelectrostatic_energy": 14.92, 
			 "SMD_solvation_energy": 5.36 
		},
		"coords": [
			{
				"x": -2.8909587937,
				"y": -1.3683224845,
				"z": -0.2010605814,
				"element": "C" 
			},
			{
				"x": -1.7951333156,
				"y": -1.1447332905,
				"z": -1.0740865432,
				"element": "O" 
			},
			{
				"x": -0.6950600445,
				"y": -0.5106776253,
				"z": -0.5694968339,
				"element": "C" 
			},
			{
				"x": -0.5788995507,
				"y": -0.0467782791,
				"z": 0.7419771474,
				"element": "C" 
			},
			{
				"x": 0.5893431445,
				"y": 0.607249674,
				"z": 1.1594415899,
				"element": "C" 
			},
			{
				"x": 0.7320397256,
				"y": 1.0576388781,
				"z": 2.6045554136,
				"element": "C" 
			},
			{
				"x": -0.5093222877,
				"y": 1.6122481184,
				"z": 3.1492445985,
				"element": "N" 
			},
			{
				"x": -0.571353733,
				"y": 1.6517629482,
				"z": 4.6143601753,
				"element": "C" 
			},
			{
				"x": 0.2188927417,
				"y": 2.8144668024,
				"z": 5.2340704583,
				"element": "C" 
			},
			{
				"x": -0.2706818225,
				"y": 4.0683049833,
				"z": 4.6560815796,
				"element": "N" 
			},
			{
				"x": -0.0963162354,
				"y": 4.08989998,
				"z": 3.2006860235,
				"element": "C" 
			},
			{
				"x": -0.882812526,
				"y": 2.9201982549,
				"z": 2.590220252,
				"element": "C" 
			},
			{
				"x": 1.636921924,
				"y": 0.787588777,
				"z": 0.2585693707,
				"element": "C" 
			},
			{
				"x": 1.5284517705,
				"y": 0.3249959206,
				"z": -1.0584720452,
				"element": "C" 
			},
			{
				"x": 2.5599022116,
				"y": 0.585743602,
				"z": -1.9294427216,
				"element": "O" 
			},
			{
				"x": 3.2590570486,
				"y": -0.5594319749,
				"z": -2.4254326523,
				"element": "C" 
			},
			{
				"x": 0.3652070475,
				"y": -0.327314909,
				"z": -1.4840844161,
				"element": "C" 
			},
			{
				"x": 0.2715761085,
				"y": -0.8052579494,
				"z": -2.7713028315,
				"element": "O" 
			},
			{
				"x": -0.5043394706,
				"y": 0.0121477089,
				"z": -3.6513825851,
				"element": "C" 
			},
			{
				"x": -2.6054438605,
				"y": -1.9954949583,
				"z": 0.6528993354,
				"element": "H" 
			},
			{
				"x": -3.6453227108,
				"y": -1.8888460892,
				"z": -0.7933971388,
				"element": "H" 
			},
			{
				"x": -3.3108754947,
				"y": -0.4263460626,
				"z": 0.1743644885,
				"element": "H" 
			},
			{
				"x": -1.3849568466,
				"y": -0.1584893315,
				"z": 1.456388147,
				"element": "H" 
			},
			{
				"x": 0.9855264876,
				"y": 0.1853160156,
				"z": 3.2224268013,
				"element": "H" 
			},
			{
				"x": 1.5986528526,
				"y": 1.7378064714,
				"z": 2.6740933093,
				"element": "H" 
			},
			{
				"x": -1.6246764987,
				"y": 1.7681083994,
				"z": 4.9012159437,
				"element": "H" 
			},
			{
				"x": -0.2183913655,
				"y": 0.693683819,
				"z": 5.0118256953,
				"element": "H" 
			},
			{
				"x": 0.0569453017,
				"y": 2.8341089798,
				"z": 6.3182410891,
				"element": "H" 
			},
			{
				"x": 1.3023074193,
				"y": 2.6560302488,
				"z": 5.0669831323,
				"element": "H" 
			},
			{
				"x": 0.2114431527,
				"y": 4.8576388136,
				"z": 5.0763859706,
				"element": "H" 
			},
			{
				"x": 0.9657580614,
				"y": 4.02365421,
				"z": 2.8953985594,
				"element": "H" 
			},
			{
				"x": -0.4858188654,
				"y": 5.0366895139,
				"z": 2.8090336084,
				"element": "H" 
			},
			{
				"x": -1.9489910809,
				"y": 3.0806879518,
				"z": 2.794932187,
				"element": "H" 
			},
			{
				"x": -0.7491937524,
				"y": 2.89079788,
				"z": 1.5048566604,
				"element": "H" 
			},
			{
				"x": 2.5500435238,
				"y": 1.2981474644,
				"z": 0.5495349833,
				"element": "H" 
			},
			{
				"x": 3.7165216057,
				"y": -1.1236428362,
				"z": -1.6019357904,
				"element": "H" 
			},
			{
				"x": 2.5964854182,
				"y": -1.216251308,
				"z": -2.9954102897,
				"element": "H" 
			},
			{
				"x": 4.0477454588,
				"y": -0.1748297854,
				"z": -3.0760600626,
				"element": "H" 
			},
			{
				"x": -0.4734404521,
				"y": -0.4731910803,
				"z": -4.6295209388,
				"element": "H" 
			},
			{
				"x": -0.0756405501,
				"y": 1.0185877664,
				"z": -3.7315680747,
				"element": "H" 
			},
			{
				"x": -1.5436917472,
				"y": 0.078904782,
				"z": -3.3126330146,
				"element": "H" 
			}
		],
		 "valence_orbital": [ 
			{
				"type": "occ",
				"energy": -0.25713,
				"method": "rhf"
			},
			{
				"type": "occ",
				"energy": -0.2279,
				"method": "rhf"
			},
			{
				"type": "occ",
				"energy": -0.21779,
				"method": "rhf"
			},
			{
				"type": "occ",
				"energy": -0.20893,
				"method": "rhf"
			},
			{
				"type": "occ",
				"energy": -0.19747,
				"method": "rhf"
			},
			{
				"type": "unocc",
				"energy": 0.00728,
				"method": "rhf"
			},
			{
				"type": "unocc",
				"energy": 0.02035,
				"method": "rhf"
			},
			{
				"type": "unocc",
				"energy": 0.07826,
				"method": "rhf"
			},
			{
				"type": "unocc",
				"energy": 0.0881,
				"method": "rhf"
			},
			{
				"type": "unocc",
				"energy": 0.10579,
				"method": "rhf"
			}
		],
		"cosmo_sigma_profile": { 
			"-0.025": 0.0,
			"-0.024": 0.0,
			"-0.023": 0.0,
			"-0.022": 0.0,
			"-0.021": 0.0,
			"-0.02": 0.0,
			"-0.019": 0.0,
			"-0.018": 0.0,
			"-0.017": 0.0,
			"-0.016": 0.0,
			"-0.015": 0.0,
			"-0.014": 0.0,
			"-0.013": 0.0,
			"-0.012": 0.0,
			"-0.011": 0.0,
			"-0.01": 0.861219808876,
			"-0.009": 1.20807673566,
			"-0.008": 1.21373198719,
			"-0.007": 1.32947069831,
			"-0.006": 4.26937868167,
			"-0.005": 19.0677383706,
			"-0.004": 29.0475094948,
			"-0.003": 43.4873286719,
			"-0.002": 50.8821072975,
			"-0.001": 38.3646816447,
			"0.0": 25.620085939,
			"0.001": 15.4109135953,
			"0.002": 13.6519853947,
			"0.003": 15.9517145847,
			"0.004": 15.6662233776,
			"0.005": 13.2563509089,
			"0.006": 6.36720785896,
			"0.007": 5.65333560905,
			"0.008": 4.44228315122,
			"0.009": 3.87631811673,
			"0.01": 4.41538246863,
			"0.011": 3.90770935373,
			"0.012": 3.49947726289,
			"0.013": 0.69014849499,
			"0.014": 0.563103282163,
			"0.015": 0.656386345279,
			"0.016": 0.46503179735,
			"0.017": 0.385220407798,
			"0.018": 0.394594067892,
			"0.019": 0.107012745813,
			"0.02": 0.0,
			"0.021": 0.0,
			"0.022": 0.0,
			"0.023": 0.0,
			"0.024": 0.0,
			"0.025": 0.0
		}
	}
}
