{
	 "smiles": "NC(=O)C1CC2CCCCC2N1", 
	 "Tm": 397.15, 
	 "num_atms": 28, 
	 "gaussian": { 
		 "optdone": 1, 
		 "sigma_profile": "yes", 
		 "theory": "DFT", 
		 "functional": "B3LYP", 
		 "basiset": "6-31G**", 
		 "properties": { 
			 "R2extent": 2796.5902, 
			 "electric_dipole_moment_norm": 4.05311738789, 
			 "electric_quadrupole_moment_norm": 19.9952890712, 
			 "total_energy": -537.35064082, 
			 "HOMO_LUMO_gap": 0.24339, 
			 "cosmo_polarized_energy": -14.11, 
			 "cosmo_cavitation_energy": 27.93, 
			 "cosmo_dispersion_energy": -20.68, 
			 "cosmo_repulsion_energy": 1.67, 
			 "cosmo_total_nonelectrostatic_energy": 8.92, 
			 "SMD_solvation_energy": 2.52 
		},
		"coords": [
			{
				"x": -1.0431738505,
				"y": 0.0288335551,
				"z": -3.6431375556,
				"element": "N" 
			},
			{
				"x": 0.3251961654,
				"y": -0.0970729617,
				"z": -3.6535114735,
				"element": "C" 
			},
			{
				"x": 0.9547039415,
				"y": -0.3097421519,
				"z": -4.6785532684,
				"element": "O" 
			},
			{
				"x": 1.0243879592,
				"y": 0.042281717,
				"z": -2.2953144056,
				"element": "C" 
			},
			{
				"x": 1.1897462002,
				"y": -1.362684219,
				"z": -1.623071407,
				"element": "C" 
			},
			{
				"x": 0.8974903525,
				"y": -1.0814720297,
				"z": -0.1435005315,
				"element": "C" 
			},
			{
				"x": 0.4808432454,
				"y": -2.2193874771,
				"z": 0.7870380135,
				"element": "C" 
			},
			{
				"x": 0.1507426988,
				"y": -1.6377652577,
				"z": 2.1784330109,
				"element": "C" 
			},
			{
				"x": -0.8726788866,
				"y": -0.4856364106,
				"z": 2.1187838667,
				"element": "C" 
			},
			{
				"x": -0.4684813431,
				"y": 0.6228778563,
				"z": 1.1238291872,
				"element": "C" 
			},
			{
				"x": -0.1980300096,
				"y": -0.0136901248,
				"z": -0.2372688128,
				"element": "C" 
			},
			{
				"x": 0.3420872759,
				"y": 0.8624609802,
				"z": -1.2739694096,
				"element": "N" 
			},
			{
				"x": -1.5606264682,
				"y": -0.0174170496,
				"z": -2.7794197265,
				"element": "H" 
			},
			{
				"x": -1.5258281256,
				"y": -0.2134649291,
				"z": -4.4961439624,
				"element": "H" 
			},
			{
				"x": 2.006245044,
				"y": 0.4679966314,
				"z": -2.5303706431,
				"element": "H" 
			},
			{
				"x": 0.4510505741,
				"y": -2.0678720922,
				"z": -2.0244250394,
				"element": "H" 
			},
			{
				"x": 2.179350764,
				"y": -1.7858455926,
				"z": -1.8097212521,
				"element": "H" 
			},
			{
				"x": 1.7787172172,
				"y": -0.5857117532,
				"z": 0.2895441487,
				"element": "H" 
			},
			{
				"x": 1.2737413764,
				"y": -2.9723266922,
				"z": 0.8709090878,
				"element": "H" 
			},
			{
				"x": -0.3997323665,
				"y": -2.733497725,
				"z": 0.3755794165,
				"element": "H" 
			},
			{
				"x": -0.2211353353,
				"y": -2.4287609084,
				"z": 2.8402375355,
				"element": "H" 
			},
			{
				"x": 1.0800413961,
				"y": -1.2661921237,
				"z": 2.6319829638,
				"element": "H" 
			},
			{
				"x": -1.8504177907,
				"y": -0.890642418,
				"z": 1.8213820617,
				"element": "H" 
			},
			{
				"x": -1.0094808869,
				"y": -0.0593711988,
				"z": 3.1191933558,
				"element": "H" 
			},
			{
				"x": -1.259566416,
				"y": 1.3810180018,
				"z": 1.0601394364,
				"element": "H" 
			},
			{
				"x": 0.4408246713,
				"y": 1.1365703773,
				"z": 1.4607518148,
				"element": "H" 
			},
			{
				"x": -1.1354822788,
				"y": -0.5263310815,
				"z": -0.5496016019,
				"element": "H" 
			},
			{
				"x": -0.3117351244,
				"y": 1.5350450777,
				"z": -1.6583948098,
				"element": "H" 
			}
		],
		 "valence_orbital": [ 
			{
				"type": "occ",
				"energy": -0.31272,
				"method": "rhf"
			},
			{
				"type": "occ",
				"energy": -0.2985,
				"method": "rhf"
			},
			{
				"type": "occ",
				"energy": -0.26723,
				"method": "rhf"
			},
			{
				"type": "occ",
				"energy": -0.25196,
				"method": "rhf"
			},
			{
				"type": "occ",
				"energy": -0.21494,
				"method": "rhf"
			},
			{
				"type": "unocc",
				"energy": 0.02845,
				"method": "rhf"
			},
			{
				"type": "unocc",
				"energy": 0.05803,
				"method": "rhf"
			},
			{
				"type": "unocc",
				"energy": 0.08654,
				"method": "rhf"
			},
			{
				"type": "unocc",
				"energy": 0.09847,
				"method": "rhf"
			},
			{
				"type": "unocc",
				"energy": 0.11271,
				"method": "rhf"
			}
		],
		"cosmo_sigma_profile": { 
			"-0.025": 0.0,
			"-0.024": 0.0,
			"-0.023": 0.0,
			"-0.022": 0.0,
			"-0.021": 0.0,
			"-0.02": 0.0,
			"-0.019": 0.0,
			"-0.018": 0.0,
			"-0.017": 0.0,
			"-0.016": 0.0,
			"-0.015": 0.0,
			"-0.014": 0.273316051646,
			"-0.013": 1.44568627081,
			"-0.012": 1.86289854794,
			"-0.011": 2.26978352733,
			"-0.01": 4.49280781433,
			"-0.009": 3.75682385043,
			"-0.008": 3.75774120261,
			"-0.007": 3.07828125276,
			"-0.006": 2.51855693788,
			"-0.005": 3.38668169757,
			"-0.004": 5.85536766309,
			"-0.003": 14.8170491313,
			"-0.002": 33.9132184639,
			"-0.001": 35.8275404548,
			"0.0": 31.2643589041,
			"0.001": 20.2757025683,
			"0.002": 6.32512024709,
			"0.003": 3.81940878217,
			"0.004": 2.73539133683,
			"0.005": 4.00423337946,
			"0.006": 2.41279362728,
			"0.007": 2.64215785923,
			"0.008": 2.23193353025,
			"0.009": 1.4879142011,
			"0.01": 2.21134918952,
			"0.011": 2.49032582666,
			"0.012": 2.06421125464,
			"0.013": 3.68512728874,
			"0.014": 6.08126277079,
			"0.015": 2.73300004361,
			"0.016": 0.97692601694,
			"0.017": 0.0592187448745,
			"0.018": 0.0,
			"0.019": 0.0,
			"0.02": 0.0,
			"0.021": 0.0,
			"0.022": 0.0,
			"0.023": 0.0,
			"0.024": 0.0,
			"0.025": 0.0
		}
	}
}
