{
	 "smiles": "OC1CCC(=C1)C1=CC=C(Cl)C=C1", 
	 "Tm": 363.15, 
	 "num_atms": 24, 
	 "gaussian": { 
		 "optdone": 1, 
		 "sigma_profile": "yes", 
		 "theory": "DFT", 
		 "functional": "B3LYP", 
		 "basiset": "6-31G**", 
		 "properties": { 
			 "R2extent": 4247.0329, 
			 "electric_dipole_moment_norm": 1.54711560654, 
			 "electric_quadrupole_moment_norm": 13.5172495656, 
			 "total_energy": -961.198452491, 
			 "HOMO_LUMO_gap": 0.18099, 
			 "cosmo_polarized_energy": -9.04, 
			 "cosmo_cavitation_energy": 28.85, 
			 "cosmo_dispersion_energy": -21.48, 
			 "cosmo_repulsion_energy": 1.71, 
			 "cosmo_total_nonelectrostatic_energy": 9.07, 
			 "SMD_solvation_energy": 4.07 
		},
		"coords": [
			{
				"x": 2.4545008325,
				"y": 2.7391869518,
				"z": -1.4731102674,
				"element": "O" 
			},
			{
				"x": 2.5954913982,
				"y": 1.6636459267,
				"z": -0.5309628942,
				"element": "C" 
			},
			{
				"x": 2.3553823099,
				"y": 2.2314117745,
				"z": 0.8796765832,
				"element": "C" 
			},
			{
				"x": 0.8740545619,
				"y": 1.9304713681,
				"z": 1.1989090235,
				"element": "C" 
			},
			{
				"x": 0.5329389758,
				"y": 0.7826102246,
				"z": 0.2603735269,
				"element": "C" 
			},
			{
				"x": 1.4940406478,
				"y": 0.6384946947,
				"z": -0.6712241481,
				"element": "C" 
			},
			{
				"x": -0.7126275857,
				"y": 0.0063674567,
				"z": 0.3797384162,
				"element": "C" 
			},
			{
				"x": -1.7703529139,
				"y": 0.467095046,
				"z": 1.1831821785,
				"element": "C" 
			},
			{
				"x": -2.9628072512,
				"y": -0.2457630101,
				"z": 1.2993709761,
				"element": "C" 
			},
			{
				"x": -3.1057993839,
				"y": -1.4476211325,
				"z": 0.6102921293,
				"element": "C" 
			},
			{
				"x": -4.6011845556,
				"y": -2.3599125465,
				"z": 0.7530154958,
				"element": "Cl" 
			},
			{
				"x": -2.0717828349,
				"y": -1.941964286,
				"z": -0.1871856495,
				"element": "C" 
			},
			{
				"x": -0.8899399942,
				"y": -1.2172240505,
				"z": -0.2940813453,
				"element": "C" 
			},
			{
				"x": 2.4351195091,
				"y": 2.356794458,
				"z": -2.3602323015,
				"element": "H" 
			},
			{
				"x": 3.5989340072,
				"y": 1.2214832487,
				"z": -0.6307822941,
				"element": "H" 
			},
			{
				"x": 2.6050941968,
				"y": 3.2945234778,
				"z": 0.9149794533,
				"element": "H" 
			},
			{
				"x": 2.999888632,
				"y": 1.7078618306,
				"z": 1.5930107867,
				"element": "H" 
			},
			{
				"x": 0.2299996583,
				"y": 2.79494619,
				"z": 0.9892490905,
				"element": "H" 
			},
			{
				"x": 0.7196453868,
				"y": 1.6694251964,
				"z": 2.2520416533,
				"element": "H" 
			},
			{
				"x": 1.4691936223,
				"y": -0.0708636169,
				"z": -1.4941074827,
				"element": "H" 
			},
			{
				"x": -1.6696870428,
				"y": 1.404084099,
				"z": 1.7208928109,
				"element": "H" 
			},
			{
				"x": -3.7717399425,
				"y": 0.1265560013,
				"z": 1.9182196081,
				"element": "H" 
			},
			{
				"x": -2.1919589728,
				"y": -2.8851187134,
				"z": -0.7088266547,
				"element": "H" 
			},
			{
				"x": -0.083803261,
				"y": -1.6189905892,
				"z": -0.8996386947,
				"element": "H" 
			}
		],
		 "valence_orbital": [ 
			{
				"type": "occ",
				"energy": -0.31264,
				"method": "rhf"
			},
			{
				"type": "occ",
				"energy": -0.27886,
				"method": "rhf"
			},
			{
				"type": "occ",
				"energy": -0.26522,
				"method": "rhf"
			},
			{
				"type": "occ",
				"energy": -0.26487,
				"method": "rhf"
			},
			{
				"type": "occ",
				"energy": -0.22313,
				"method": "rhf"
			},
			{
				"type": "unocc",
				"energy": -0.04214,
				"method": "rhf"
			},
			{
				"type": "unocc",
				"energy": -0.01462,
				"method": "rhf"
			},
			{
				"type": "unocc",
				"energy": 0.02947,
				"method": "rhf"
			},
			{
				"type": "unocc",
				"energy": 0.04063,
				"method": "rhf"
			},
			{
				"type": "unocc",
				"energy": 0.08597,
				"method": "rhf"
			}
		],
		"cosmo_sigma_profile": { 
			"-0.025": 0.0,
			"-0.024": 0.0,
			"-0.023": 0.0,
			"-0.022": 0.0,
			"-0.021": 0.0,
			"-0.02": 0.0,
			"-0.019": 0.0,
			"-0.018": 0.0,
			"-0.017": 0.0,
			"-0.016": 0.0493561631272,
			"-0.015": 0.625364759049,
			"-0.014": 0.930553750797,
			"-0.013": 1.10199698766,
			"-0.012": 1.18990209791,
			"-0.011": 0.44337368179,
			"-0.01": 0.763341229295,
			"-0.009": 0.675205778195,
			"-0.008": 0.849932194405,
			"-0.007": 6.38793174393,
			"-0.006": 11.0489294242,
			"-0.005": 11.181886908,
			"-0.004": 14.0920433321,
			"-0.003": 20.7587178084,
			"-0.002": 18.3481876961,
			"-0.001": 19.0097526582,
			"0.0": 17.1523957493,
			"0.001": 18.0241160594,
			"0.002": 17.6961763389,
			"0.003": 22.6291607074,
			"0.004": 23.2145667677,
			"0.005": 9.53571510376,
			"0.006": 2.20686888248,
			"0.007": 1.54408781441,
			"0.008": 1.71049912103,
			"0.009": 1.50954536961,
			"0.01": 0.676664379831,
			"0.011": 1.57614127195,
			"0.012": 1.80558124059,
			"0.013": 1.46869715804,
			"0.014": 1.90835036231,
			"0.015": 0.722240896088,
			"0.016": 0.0,
			"0.017": 0.0,
			"0.018": 0.0,
			"0.019": 0.0,
			"0.02": 0.0,
			"0.021": 0.0,
			"0.022": 0.0,
			"0.023": 0.0,
			"0.024": 0.0,
			"0.025": 0.0
		}
	}
}
