{
	 "smiles": "FC1=CC(=C(C=C1)C#N)C(F)(F)F", 
	 "Tm": 317.15, 
	 "num_atms": 16, 
	 "gaussian": { 
		 "optdone": 1, 
		 "sigma_profile": "yes", 
		 "theory": "DFT", 
		 "functional": "B3LYP", 
		 "basiset": "6-31G**", 
		 "properties": { 
			 "R2extent": 3789.6005, 
			 "electric_dipole_moment_norm": 4.43088669456, 
			 "electric_quadrupole_moment_norm": 14.079732507, 
			 "total_energy": -760.748657609, 
			 "HOMO_LUMO_gap": 0.20536, 
			 "cosmo_polarized_energy": -8.97, 
			 "cosmo_cavitation_energy": 23.75, 
			 "cosmo_dispersion_energy": -16.2, 
			 "cosmo_repulsion_energy": 1.2, 
			 "cosmo_total_nonelectrostatic_energy": 8.74, 
			 "SMD_solvation_energy": 6.93 
		},
		"coords": [
			{
				"x": 2.6567091145,
				"y": -1.5137975427,
				"z": 1.2845748956,
				"element": "F" 
			},
			{
				"x": 1.5018722805,
				"y": -1.4038546142,
				"z": 0.6116128672,
				"element": "C" 
			},
			{
				"x": 0.515782674,
				"y": -2.3641428131,
				"z": 0.8176894801,
				"element": "C" 
			},
			{
				"x": -0.6856422382,
				"y": -2.2593951047,
				"z": 0.124730299,
				"element": "C" 
			},
			{
				"x": -0.8919138126,
				"y": -1.1896382154,
				"z": -0.7731769312,
				"element": "C" 
			},
			{
				"x": 0.124964067,
				"y": -0.2381789824,
				"z": -0.9568980154,
				"element": "C" 
			},
			{
				"x": 1.3280162818,
				"y": -0.3399124009,
				"z": -0.2653503689,
				"element": "C" 
			},
			{
				"x": -2.1123854998,
				"y": -1.0383994404,
				"z": -1.5104419813,
				"element": "C" 
			},
			{
				"x": -3.0810598348,
				"y": -0.870214758,
				"z": -2.1308456986,
				"element": "N" 
			},
			{
				"x": -1.7653347369,
				"y": -3.2978588145,
				"z": 0.3408506197,
				"element": "C" 
			},
			{
				"x": -1.3795066893,
				"y": -4.2342349252,
				"z": 1.2319230122,
				"element": "F" 
			},
			{
				"x": -2.8969373173,
				"y": -2.7342521695,
				"z": 0.8060986065,
				"element": "F" 
			},
			{
				"x": -2.06987316,
				"y": -3.9303106423,
				"z": -0.8088803431,
				"element": "F" 
			},
			{
				"x": 0.6911698345,
				"y": -3.1776179445,
				"z": 1.5099843019,
				"element": "H" 
			},
			{
				"x": -0.038657004,
				"y": 0.5814521373,
				"z": -1.6477121591,
				"element": "H" 
			},
			{
				"x": 2.1218960408,
				"y": 0.3864562306,
				"z": -0.3966585848,
				"element": "H" 
			}
		],
		 "valence_orbital": [ 
			{
				"type": "occ",
				"energy": -0.3693,
				"method": "rhf"
			},
			{
				"type": "occ",
				"energy": -0.35686,
				"method": "rhf"
			},
			{
				"type": "occ",
				"energy": -0.34209,
				"method": "rhf"
			},
			{
				"type": "occ",
				"energy": -0.30514,
				"method": "rhf"
			},
			{
				"type": "occ",
				"energy": -0.27781,
				"method": "rhf"
			},
			{
				"type": "unocc",
				"energy": -0.07245,
				"method": "rhf"
			},
			{
				"type": "unocc",
				"energy": -0.05467,
				"method": "rhf"
			},
			{
				"type": "unocc",
				"energy": 0.02252,
				"method": "rhf"
			},
			{
				"type": "unocc",
				"energy": 0.06302,
				"method": "rhf"
			},
			{
				"type": "unocc",
				"energy": 0.06389,
				"method": "rhf"
			}
		],
		"cosmo_sigma_profile": { 
			"-0.025": 0.0,
			"-0.024": 0.0,
			"-0.023": 0.0,
			"-0.022": 0.0,
			"-0.021": 0.0,
			"-0.02": 0.0,
			"-0.019": 0.0,
			"-0.018": 0.0,
			"-0.017": 0.0,
			"-0.016": 0.0,
			"-0.015": 0.0,
			"-0.014": 0.0,
			"-0.013": 0.0,
			"-0.012": 0.0,
			"-0.011": 0.0,
			"-0.01": 0.641339078362,
			"-0.009": 5.71352990883,
			"-0.008": 5.54749536033,
			"-0.007": 5.93557171159,
			"-0.006": 4.75370925501,
			"-0.005": 5.88238460347,
			"-0.004": 8.37740381285,
			"-0.003": 11.9706653318,
			"-0.002": 24.5275593508,
			"-0.001": 17.4745575831,
			"0.0": 12.0964363726,
			"0.001": 14.8611268712,
			"0.002": 30.1338639326,
			"0.003": 19.3835330747,
			"0.004": 3.54541865609,
			"0.005": 3.03269538958,
			"0.006": 2.50697592611,
			"0.007": 2.88685630307,
			"0.008": 3.32668674249,
			"0.009": 2.83435320635,
			"0.01": 3.10542166597,
			"0.011": 2.25676715618,
			"0.012": 2.10139570789,
			"0.013": 0.320998845077,
			"0.014": 0.0,
			"0.015": 0.0,
			"0.016": 0.0,
			"0.017": 0.0,
			"0.018": 0.0,
			"0.019": 0.0,
			"0.02": 0.0,
			"0.021": 0.0,
			"0.022": 0.0,
			"0.023": 0.0,
			"0.024": 0.0,
			"0.025": 0.0
		}
	}
}
