{
	 "smiles": "CC(C)(C(O)C1=CC=C(OCC2=CC=CC=C2)C=C1)C(O)=O", 
	 "Tm": 441.15, 
	 "num_atms": 42, 
	 "gaussian": { 
		 "optdone": 1, 
		 "sigma_profile": "yes", 
		 "theory": "DFT", 
		 "functional": "B3LYP", 
		 "basiset": "6-31G**", 
		 "properties": { 
			 "R2extent": 10318.041, 
			 "electric_dipole_moment_norm": 7.23746027416, 
			 "electric_quadrupole_moment_norm": 32.2066743485, 
			 "total_energy": -998.87372217, 
			 "HOMO_LUMO_gap": 0.20873, 
			 "cosmo_polarized_energy": -18.71, 
			 "cosmo_cavitation_energy": 44.06, 
			 "cosmo_dispersion_energy": -30.52, 
			 "cosmo_repulsion_energy": 2.33, 
			 "cosmo_total_nonelectrostatic_energy": 15.87, 
			 "SMD_solvation_energy": 8.68 
		},
		"coords": [
			{
				"x": 1.6393275243,
				"y": -2.5453641158,
				"z": 2.4133301133,
				"element": "C" 
			},
			{
				"x": 2.1662624586,
				"y": -3.0461951247,
				"z": 1.0487930296,
				"element": "C" 
			},
			{
				"x": 1.1606107286,
				"y": -4.0315457797,
				"z": 0.4332079682,
				"element": "C" 
			},
			{
				"x": 2.4243774801,
				"y": -1.8642191958,
				"z": 0.0567179686,
				"element": "C" 
			},
			{
				"x": 3.3172273647,
				"y": -0.9414046054,
				"z": 0.7243866066,
				"element": "O" 
			},
			{
				"x": 1.1948048185,
				"y": -1.1287347272,
				"z": -0.4417458621,
				"element": "C" 
			},
			{
				"x": 0.6109773448,
				"y": -1.4675812258,
				"z": -1.6726692368,
				"element": "C" 
			},
			{
				"x": -0.5137845091,
				"y": -0.8031216442,
				"z": -2.1436768411,
				"element": "C" 
			},
			{
				"x": -1.0819309053,
				"y": 0.2376860628,
				"z": -1.3943422911,
				"element": "C" 
			},
			{
				"x": -2.1893971895,
				"y": 0.8201357504,
				"z": -1.9448067983,
				"element": "O" 
			},
			{
				"x": -2.9117099713,
				"y": 1.7971652441,
				"z": -1.1954383166,
				"element": "C" 
			},
			{
				"x": -2.2742702372,
				"y": 3.173482062,
				"z": -1.1900761207,
				"element": "C" 
			},
			{
				"x": -2.4546086977,
				"y": 4.0254745805,
				"z": -0.0943264267,
				"element": "C" 
			},
			{
				"x": -1.9245233415,
				"y": 5.316979099,
				"z": -0.1044956843,
				"element": "C" 
			},
			{
				"x": -1.2000640123,
				"y": 5.7657917704,
				"z": -1.2097966448,
				"element": "C" 
			},
			{
				"x": -1.0120284383,
				"y": 4.9181962436,
				"z": -2.3040582965,
				"element": "C" 
			},
			{
				"x": -1.5491647501,
				"y": 3.6308522829,
				"z": -2.2966787989,
				"element": "C" 
			},
			{
				"x": -0.499350922,
				"y": 0.6078919404,
				"z": -0.1766235193,
				"element": "C" 
			},
			{
				"x": 0.626391442,
				"y": -0.0774261605,
				"z": 0.2861773323,
				"element": "C" 
			},
			{
				"x": 3.4862717337,
				"y": -3.8256058488,
				"z": 1.3273114646,
				"element": "C" 
			},
			{
				"x": 4.607080226,
				"y": -3.093976269,
				"z": 1.4710056636,
				"element": "O" 
			},
			{
				"x": 3.5143678456,
				"y": -5.0282818504,
				"z": 1.4577913232,
				"element": "O" 
			},
			{
				"x": 1.4959992673,
				"y": -3.3974603023,
				"z": 3.0838759163,
				"element": "H" 
			},
			{
				"x": 0.6751581273,
				"y": -2.0439089446,
				"z": 2.2900819131,
				"element": "H" 
			},
			{
				"x": 2.3345026152,
				"y": -1.8480346118,
				"z": 2.886782022,
				"element": "H" 
			},
			{
				"x": 0.1745329184,
				"y": -3.5712793825,
				"z": 0.3361927488,
				"element": "H" 
			},
			{
				"x": 1.0868078457,
				"y": -4.9155959593,
				"z": 1.067519457,
				"element": "H" 
			},
			{
				"x": 1.4841054742,
				"y": -4.3704602444,
				"z": -0.5566041507,
				"element": "H" 
			},
			{
				"x": 2.9409466648,
				"y": -2.2926642536,
				"z": -0.8157977748,
				"element": "H" 
			},
			{
				"x": 3.534952945,
				"y": -0.2315047694,
				"z": 0.1053831586,
				"element": "H" 
			},
			{
				"x": 1.0430282937,
				"y": -2.2654108621,
				"z": -2.271400748,
				"element": "H" 
			},
			{
				"x": -0.9687531444,
				"y": -1.068184784,
				"z": -3.0923914171,
				"element": "H" 
			},
			{
				"x": -3.887450821,
				"y": 1.8383422674,
				"z": -1.6916270349,
				"element": "H" 
			},
			{
				"x": -3.0809356163,
				"y": 1.4444274105,
				"z": -0.1696101065,
				"element": "H" 
			},
			{
				"x": -3.0126933889,
				"y": 3.6781811828,
				"z": 0.7726651373,
				"element": "H" 
			},
			{
				"x": -2.0709919652,
				"y": 5.9676399444,
				"z": 0.7529350246,
				"element": "H" 
			},
			{
				"x": -0.7819938373,
				"y": 6.7682017997,
				"z": -1.2175459607,
				"element": "H" 
			},
			{
				"x": -0.4470258203,
				"y": 5.2611221311,
				"z": -3.1662557405,
				"element": "H" 
			},
			{
				"x": -1.4023866312,
				"y": 2.9694586546,
				"z": -3.1449589174,
				"element": "H" 
			},
			{
				"x": -0.8918099525,
				"y": 1.4358925714,
				"z": 0.4005149779,
				"element": "H" 
			},
			{
				"x": 1.0828680985,
				"y": 0.2294419889,
				"z": 1.2215637943,
				"element": "H" 
			},
			{
				"x": 4.3975729342,
				"y": -2.1485023257,
				"z": 1.306991068,
				"element": "H" 
			}
		],
		 "valence_orbital": [ 
			{
				"type": "occ",
				"energy": -0.26388,
				"method": "rhf"
			},
			{
				"type": "occ",
				"energy": -0.26035,
				"method": "rhf"
			},
			{
				"type": "occ",
				"energy": -0.25385,
				"method": "rhf"
			},
			{
				"type": "occ",
				"energy": -0.2493,
				"method": "rhf"
			},
			{
				"type": "occ",
				"energy": -0.22779,
				"method": "rhf"
			},
			{
				"type": "unocc",
				"energy": -0.01906,
				"method": "rhf"
			},
			{
				"type": "unocc",
				"energy": -0.01371,
				"method": "rhf"
			},
			{
				"type": "unocc",
				"energy": -0.00989,
				"method": "rhf"
			},
			{
				"type": "unocc",
				"energy": -0.00684,
				"method": "rhf"
			},
			{
				"type": "unocc",
				"energy": 0.02874,
				"method": "rhf"
			}
		],
		"cosmo_sigma_profile": { 
			"-0.025": 0.0,
			"-0.024": 0.0,
			"-0.023": 0.0,
			"-0.022": 0.0,
			"-0.021": 0.0,
			"-0.02": 0.0,
			"-0.019": 0.0,
			"-0.018": 0.0197402418475,
			"-0.017": 0.634006839331,
			"-0.016": 1.11379165579,
			"-0.015": 0.788259941841,
			"-0.014": 1.30844621789,
			"-0.013": 0.404978849785,
			"-0.012": 0.741216171525,
			"-0.011": 0.718467268223,
			"-0.01": 0.989329727444,
			"-0.009": 1.19319130648,
			"-0.008": 0.972599520507,
			"-0.007": 5.00178408506,
			"-0.006": 21.1414263428,
			"-0.005": 26.1568254703,
			"-0.004": 29.5790366824,
			"-0.003": 29.7999311401,
			"-0.002": 29.9945194547,
			"-0.001": 26.9254553444,
			"0.0": 25.3668598246,
			"0.001": 24.6850879178,
			"0.002": 17.6543071856,
			"0.003": 18.5825203649,
			"0.004": 21.6015086833,
			"0.005": 20.5949488486,
			"0.006": 9.75504623736,
			"0.007": 3.82423395959,
			"0.008": 3.76394078039,
			"0.009": 3.9667687748,
			"0.01": 4.20540722069,
			"0.011": 4.78035452154,
			"0.012": 6.3689888156,
			"0.013": 4.03552124441,
			"0.014": 1.11798697246,
			"0.015": 0.0,
			"0.016": 0.0,
			"0.017": 0.0,
			"0.018": 0.0,
			"0.019": 0.0,
			"0.02": 0.0,
			"0.021": 0.0,
			"0.022": 0.0,
			"0.023": 0.0,
			"0.024": 0.0,
			"0.025": 0.0
		}
	}
}
