{
	 "smiles": "FC1=C(CC#N)C=CC(Cl)=C1", 
	 "Tm": 312.15, 
	 "num_atms": 16, 
	 "gaussian": { 
		 "optdone": 1, 
		 "sigma_profile": "yes", 
		 "theory": "DFT", 
		 "functional": "B3LYP", 
		 "basiset": "6-31G**", 
		 "properties": { 
			 "R2extent": 2682.1698, 
			 "electric_dipole_moment_norm": 3.61948355847, 
			 "electric_quadrupole_moment_norm": 12.75989546, 
			 "total_energy": -922.624033474, 
			 "HOMO_LUMO_gap": 0.22192, 
			 "cosmo_polarized_energy": -10.59, 
			 "cosmo_cavitation_energy": 24.03, 
			 "cosmo_dispersion_energy": -16.84, 
			 "cosmo_repulsion_energy": 1.35, 
			 "cosmo_total_nonelectrostatic_energy": 8.54, 
			 "SMD_solvation_energy": 5.76 
		},
		"coords": [
			{
				"x": -1.7253563631,
				"y": -1.3294583544,
				"z": 1.541384267,
				"element": "F" 
			},
			{
				"x": -0.8452398418,
				"y": -1.3140749213,
				"z": 0.5191565503,
				"element": "C" 
			},
			{
				"x": -0.6650413761,
				"y": -0.1261050186,
				"z": -0.1901779117,
				"element": "C" 
			},
			{
				"x": -1.4392891486,
				"y": 1.1223962719,
				"z": 0.1940489634,
				"element": "C" 
			},
			{
				"x": -0.7217648024,
				"y": 1.9601919025,
				"z": 1.1656348927,
				"element": "C" 
			},
			{
				"x": -0.1470607717,
				"y": 2.6206286227,
				"z": 1.9272291223,
				"element": "N" 
			},
			{
				"x": 0.2512550566,
				"y": -0.142204986,
				"z": -1.2462427935,
				"element": "C" 
			},
			{
				"x": 0.9555560659,
				"y": -1.2974001406,
				"z": -1.5831941804,
				"element": "C" 
			},
			{
				"x": 0.7371848312,
				"y": -2.4615219355,
				"z": -0.8453242706,
				"element": "C" 
			},
			{
				"x": 1.610187482,
				"y": -3.9242916172,
				"z": -1.2566061677,
				"element": "Cl" 
			},
			{
				"x": -0.1672381698,
				"y": -2.487664849,
				"z": 0.214905782,
				"element": "C" 
			},
			{
				"x": -1.6416739904,
				"y": 1.728434048,
				"z": -0.6956151666,
				"element": "H" 
			},
			{
				"x": -2.4057656523,
				"y": 0.8485105635,
				"z": 0.6283651705,
				"element": "H" 
			},
			{
				"x": 0.4177738586,
				"y": 0.7672507013,
				"z": -1.8167650785,
				"element": "H" 
			},
			{
				"x": 1.6621072382,
				"y": -1.2974837611,
				"z": -2.404697381,
				"element": "H" 
			},
			{
				"x": -0.3467344164,
				"y": -3.3849065261,
				"z": 0.7941982017,
				"element": "H" 
			}
		],
		 "valence_orbital": [ 
			{
				"type": "occ",
				"energy": -0.33071,
				"method": "rhf"
			},
			{
				"type": "occ",
				"energy": -0.32953,
				"method": "rhf"
			},
			{
				"type": "occ",
				"energy": -0.32803,
				"method": "rhf"
			},
			{
				"type": "occ",
				"energy": -0.27791,
				"method": "rhf"
			},
			{
				"type": "occ",
				"energy": -0.26254,
				"method": "rhf"
			},
			{
				"type": "unocc",
				"energy": -0.04062,
				"method": "rhf"
			},
			{
				"type": "unocc",
				"energy": -0.02768,
				"method": "rhf"
			},
			{
				"type": "unocc",
				"energy": 0.01117,
				"method": "rhf"
			},
			{
				"type": "unocc",
				"energy": 0.03397,
				"method": "rhf"
			},
			{
				"type": "unocc",
				"energy": 0.03533,
				"method": "rhf"
			}
		],
		"cosmo_sigma_profile": { 
			"-0.025": 0.0,
			"-0.024": 0.0,
			"-0.023": 0.0,
			"-0.022": 0.0,
			"-0.021": 0.0,
			"-0.02": 0.0,
			"-0.019": 0.0,
			"-0.018": 0.0,
			"-0.017": 0.0,
			"-0.016": 0.0,
			"-0.015": 0.0,
			"-0.014": 0.0,
			"-0.013": 0.0,
			"-0.012": 0.0,
			"-0.011": 0.0,
			"-0.01": 0.898157853954,
			"-0.009": 6.88496770385,
			"-0.008": 8.79501094154,
			"-0.007": 9.1469358349,
			"-0.006": 10.5639185783,
			"-0.005": 8.19340612675,
			"-0.004": 6.58953055079,
			"-0.003": 8.15043640634,
			"-0.002": 10.7163787042,
			"-0.001": 13.902816855,
			"0.0": 17.0182071216,
			"0.001": 21.168008414,
			"0.002": 16.7451927623,
			"0.003": 16.677361268,
			"0.004": 14.7293934346,
			"0.005": 3.87119899619,
			"0.006": 2.8111008777,
			"0.007": 2.63932698176,
			"0.008": 3.35506002471,
			"0.009": 3.59382068338,
			"0.01": 3.28734678826,
			"0.011": 2.72976139656,
			"0.012": 2.33989466103,
			"0.013": 1.70259612908,
			"0.014": 0.12791691703,
			"0.015": 0.0,
			"0.016": 0.0,
			"0.017": 0.0,
			"0.018": 0.0,
			"0.019": 0.0,
			"0.02": 0.0,
			"0.021": 0.0,
			"0.022": 0.0,
			"0.023": 0.0,
			"0.024": 0.0,
			"0.025": 0.0
		}
	}
}
