{
	 "smiles": "COC1=CC=CC2=C1C=CN2", 
	 "Tm": 343.15, 
	 "num_atms": 20, 
	 "gaussian": { 
		 "optdone": 1, 
		 "sigma_profile": "yes", 
		 "theory": "DFT", 
		 "functional": "B3LYP", 
		 "basiset": "6-31G**", 
		 "properties": { 
			 "R2extent": 1690.7421, 
			 "electric_dipole_moment_norm": 2.81464553541, 
			 "electric_quadrupole_moment_norm": 10.9624148412, 
			 "total_energy": -478.340494193, 
			 "HOMO_LUMO_gap": 0.19347, 
			 "cosmo_polarized_energy": -10.32, 
			 "cosmo_cavitation_energy": 23.51, 
			 "cosmo_dispersion_energy": -17.49, 
			 "cosmo_repulsion_energy": 1.4, 
			 "cosmo_total_nonelectrostatic_energy": 7.42, 
			 "SMD_solvation_energy": 4.75 
		},
		"coords": [
			{
				"x": 0.2599377032,
				"y": 2.6456305866,
				"z": 1.664730741,
				"element": "C" 
			},
			{
				"x": -0.5041256576,
				"y": 2.4788662413,
				"z": 0.4726171345,
				"element": "O" 
			},
			{
				"x": -0.281690146,
				"y": 1.2858098682,
				"z": -0.1861704334,
				"element": "C" 
			},
			{
				"x": 0.5134255425,
				"y": 1.2603885499,
				"z": -1.3243757041,
				"element": "C" 
			},
			{
				"x": 0.7230909183,
				"y": 0.0601752298,
				"z": -2.034189838,
				"element": "C" 
			},
			{
				"x": 0.1527732,
				"y": -1.1367420205,
				"z": -1.6191936715,
				"element": "C" 
			},
			{
				"x": -0.6504203772,
				"y": -1.1001855123,
				"z": -0.4721268939,
				"element": "C" 
			},
			{
				"x": -0.8883688235,
				"y": 0.0946238293,
				"z": 0.2612865262,
				"element": "C" 
			},
			{
				"x": -1.7681340396,
				"y": -0.2399633648,
				"z": 1.346398636,
				"element": "C" 
			},
			{
				"x": -2.0267464314,
				"y": -1.5818272696,
				"z": 1.2499408563,
				"element": "C" 
			},
			{
				"x": -1.3539862462,
				"y": -2.1059698108,
				"z": 0.1607028172,
				"element": "N" 
			},
			{
				"x": 0.0626808641,
				"y": 1.8465188962,
				"z": 2.3905385453,
				"element": "H" 
			},
			{
				"x": 1.3363495824,
				"y": 2.6642699258,
				"z": 1.447187679,
				"element": "H" 
			},
			{
				"x": -0.0371092277,
				"y": 3.6046577441,
				"z": 2.095322533,
				"element": "H" 
			},
			{
				"x": 0.9644758132,
				"y": 2.1878837468,
				"z": -1.6622213188,
				"element": "H" 
			},
			{
				"x": 1.347535218,
				"y": 0.0745052007,
				"z": -2.9226198285,
				"element": "H" 
			},
			{
				"x": 0.3177558159,
				"y": -2.0598673751,
				"z": -2.1670538995,
				"element": "H" 
			},
			{
				"x": -2.1689767391,
				"y": 0.433793591,
				"z": 2.088868197,
				"element": "H" 
			},
			{
				"x": -2.6432778741,
				"y": -2.2170017594,
				"z": 1.8698450296,
				"element": "H" 
			},
			{
				"x": -1.392189095,
				"y": -3.0660662972,
				"z": -0.1392871074,
				"element": "H" 
			}
		],
		 "valence_orbital": [ 
			{
				"type": "occ",
				"energy": -0.31454,
				"method": "rhf"
			},
			{
				"type": "occ",
				"energy": -0.27136,
				"method": "rhf"
			},
			{
				"type": "occ",
				"energy": -0.2556,
				"method": "rhf"
			},
			{
				"type": "occ",
				"energy": -0.21754,
				"method": "rhf"
			},
			{
				"type": "occ",
				"energy": -0.19597,
				"method": "rhf"
			},
			{
				"type": "unocc",
				"energy": -0.0025,
				"method": "rhf"
			},
			{
				"type": "unocc",
				"energy": 0.03263,
				"method": "rhf"
			},
			{
				"type": "unocc",
				"energy": 0.07117,
				"method": "rhf"
			},
			{
				"type": "unocc",
				"energy": 0.07992,
				"method": "rhf"
			},
			{
				"type": "unocc",
				"energy": 0.11027,
				"method": "rhf"
			}
		],
		"cosmo_sigma_profile": { 
			"-0.025": 0.0,
			"-0.024": 0.0,
			"-0.023": 0.0,
			"-0.022": 0.0,
			"-0.021": 0.0,
			"-0.02": 0.0,
			"-0.019": 0.0,
			"-0.018": 0.0,
			"-0.017": 0.0,
			"-0.016": 0.540363595291,
			"-0.015": 1.32628605703,
			"-0.014": 1.77732359956,
			"-0.013": 1.20289218968,
			"-0.012": 0.674579727533,
			"-0.011": 1.3401703991,
			"-0.01": 1.42867094376,
			"-0.009": 1.43696168724,
			"-0.008": 2.7485986301,
			"-0.007": 3.4710561702,
			"-0.006": 5.73846861108,
			"-0.005": 10.7541901837,
			"-0.004": 14.0634877417,
			"-0.003": 18.4228690457,
			"-0.002": 16.5333515144,
			"-0.001": 11.3489170599,
			"0.0": 10.7702354848,
			"0.001": 8.22914556206,
			"0.002": 7.85302187182,
			"0.003": 8.76439294019,
			"0.004": 11.1908196205,
			"0.005": 16.5922384814,
			"0.006": 14.9631426145,
			"0.007": 8.44850479275,
			"0.008": 1.25252881816,
			"0.009": 1.70059060419,
			"0.01": 1.37040671036,
			"0.011": 1.35162806595,
			"0.012": 1.82204139029,
			"0.013": 0.415930440928,
			"0.014": 0.0,
			"0.015": 0.0,
			"0.016": 0.0,
			"0.017": 0.0,
			"0.018": 0.0,
			"0.019": 0.0,
			"0.02": 0.0,
			"0.021": 0.0,
			"0.022": 0.0,
			"0.023": 0.0,
			"0.024": 0.0,
			"0.025": 0.0
		}
	}
}
