{
	 "smiles": "OC(=O)C1CCN(CC1)C(=O)NC1=CC=CC=C1", 
	 "Tm": 453.15, 
	 "num_atms": 34, 
	 "gaussian": { 
		 "optdone": 1, 
		 "sigma_profile": "yes", 
		 "theory": "DFT", 
		 "functional": "B3LYP", 
		 "basiset": "6-31G**", 
		 "properties": { 
			 "R2extent": 6087.3891, 
			 "electric_dipole_moment_norm": 5.94348668292, 
			 "electric_quadrupole_moment_norm": 21.5731982474, 
			 "total_energy": -840.233954922, 
			 "HOMO_LUMO_gap": 0.21109, 
			 "cosmo_polarized_energy": -23.71, 
			 "cosmo_cavitation_energy": 36.28, 
			 "cosmo_dispersion_energy": -25.67, 
			 "cosmo_repulsion_energy": 1.98, 
			 "cosmo_total_nonelectrostatic_energy": 12.58, 
			 "SMD_solvation_energy": 7.16 
		},
		"coords": [
			{
				"x": 3.1029174509,
				"y": 3.1599738813,
				"z": 2.3461312538,
				"element": "O" 
			},
			{
				"x": 1.782003783,
				"y": 2.8863202601,
				"z": 2.5420978675,
				"element": "C" 
			},
			{
				"x": 1.2618452079,
				"y": 3.1670770934,
				"z": 3.5920915748,
				"element": "O" 
			},
			{
				"x": 1.0697249734,
				"y": 2.2095316494,
				"z": 1.3710311498,
				"element": "C" 
			},
			{
				"x": -0.4459267552,
				"y": 2.135521919,
				"z": 1.6020827062,
				"element": "C" 
			},
			{
				"x": -1.1380846991,
				"y": 1.3976773153,
				"z": 0.4499018651,
				"element": "C" 
			},
			{
				"x": -0.5629228411,
				"y": 0.0653413056,
				"z": 0.2269359108,
				"element": "N" 
			},
			{
				"x": 0.8801497174,
				"y": 0.0871830225,
				"z": -0.02580685,
				"element": "C" 
			},
			{
				"x": 1.6404055454,
				"y": 0.7948254299,
				"z": 1.108943117,
				"element": "C" 
			},
			{
				"x": -1.1959044776,
				"y": -0.995691738,
				"z": 0.8543114524,
				"element": "C" 
			},
			{
				"x": -2.150054712,
				"y": -0.8532089928,
				"z": 1.6110652232,
				"element": "O" 
			},
			{
				"x": -0.6832361209,
				"y": -2.2785930259,
				"z": 0.6127926253,
				"element": "N" 
			},
			{
				"x": -0.2730222703,
				"y": -2.8743337755,
				"z": -0.605074643,
				"element": "C" 
			},
			{
				"x": -0.4254923027,
				"y": -2.2589143033,
				"z": -1.8567767596,
				"element": "C" 
			},
			{
				"x": -0.0110056768,
				"y": -2.92093507,
				"z": -3.013033494,
				"element": "C" 
			},
			{
				"x": 0.5415246741,
				"y": -4.2004751467,
				"z": -2.949054252,
				"element": "C" 
			},
			{
				"x": 0.6817126017,
				"y": -4.8180681257,
				"z": -1.7041934755,
				"element": "C" 
			},
			{
				"x": 0.2867718996,
				"y": -4.1610342517,
				"z": -0.5416475283,
				"element": "C" 
			},
			{
				"x": 3.3706927573,
				"y": 2.8996037785,
				"z": 1.4535291664,
				"element": "H" 
			},
			{
				"x": 1.2631882058,
				"y": 2.8213586243,
				"z": 0.4739333287,
				"element": "H" 
			},
			{
				"x": -0.6461621528,
				"y": 1.6118044324,
				"z": 2.5416974489,
				"element": "H" 
			},
			{
				"x": -0.8603420175,
				"y": 3.1433941464,
				"z": 1.7064798374,
				"element": "H" 
			},
			{
				"x": -2.2000431329,
				"y": 1.2736861944,
				"z": 0.6579762694,
				"element": "H" 
			},
			{
				"x": -1.0291853827,
				"y": 1.965857715,
				"z": -0.4845150106,
				"element": "H" 
			},
			{
				"x": 1.0559428181,
				"y": 0.6132893605,
				"z": -0.9743667031,
				"element": "H" 
			},
			{
				"x": 1.2525917858,
				"y": -0.9279824113,
				"z": -0.148203546,
				"element": "H" 
			},
			{
				"x": 2.7061834037,
				"y": 0.8336353107,
				"z": 0.849228289,
				"element": "H" 
			},
			{
				"x": 1.5571423387,
				"y": 0.1974993589,
				"z": 2.0250151464,
				"element": "H" 
			},
			{
				"x": -1.1044853216,
				"y": -2.9247015183,
				"z": 1.2682219699,
				"element": "H" 
			},
			{
				"x": -0.8741563563,
				"y": -1.2745185105,
				"z": -1.9211696424,
				"element": "H" 
			},
			{
				"x": -0.1374663615,
				"y": -2.4312353356,
				"z": -3.9746199587,
				"element": "H" 
			},
			{
				"x": 0.8558770742,
				"y": -4.7101322522,
				"z": -3.8544340017,
				"element": "H" 
			},
			{
				"x": 1.1078911282,
				"y": -5.8147677015,
				"z": -1.6337614019,
				"element": "H" 
			},
			{
				"x": 0.4117252157,
				"y": -4.6386886389,
				"z": 0.4266910648,
				"element": "H" 
			}
		],
		 "valence_orbital": [ 
			{
				"type": "occ",
				"energy": -0.27341,
				"method": "rhf"
			},
			{
				"type": "occ",
				"energy": -0.26888,
				"method": "rhf"
			},
			{
				"type": "occ",
				"energy": -0.25909,
				"method": "rhf"
			},
			{
				"type": "occ",
				"energy": -0.24346,
				"method": "rhf"
			},
			{
				"type": "occ",
				"energy": -0.22254,
				"method": "rhf"
			},
			{
				"type": "unocc",
				"energy": -0.01145,
				"method": "rhf"
			},
			{
				"type": "unocc",
				"energy": -0.00998,
				"method": "rhf"
			},
			{
				"type": "unocc",
				"energy": 0.00614,
				"method": "rhf"
			},
			{
				"type": "unocc",
				"energy": 0.03719,
				"method": "rhf"
			},
			{
				"type": "unocc",
				"energy": 0.04752,
				"method": "rhf"
			}
		],
		"cosmo_sigma_profile": { 
			"-0.025": 0.0,
			"-0.024": 0.0,
			"-0.023": 0.0,
			"-0.022": 0.0,
			"-0.021": 0.0,
			"-0.02": 0.0,
			"-0.019": 0.156637200603,
			"-0.018": 0.749516382133,
			"-0.017": 1.20961631094,
			"-0.016": 1.44168466883,
			"-0.015": 0.890427829866,
			"-0.014": 1.22739361998,
			"-0.013": 2.46127545993,
			"-0.012": 1.88772505087,
			"-0.011": 1.48205518944,
			"-0.01": 2.84766088831,
			"-0.009": 2.24690134102,
			"-0.008": 2.89109131912,
			"-0.007": 4.10871855847,
			"-0.006": 11.4109486429,
			"-0.005": 22.3019176324,
			"-0.004": 29.0230092108,
			"-0.003": 27.952334072,
			"-0.002": 23.314087577,
			"-0.001": 17.4943937641,
			"0.0": 15.5861150628,
			"0.001": 13.3323525449,
			"0.002": 12.6908897624,
			"0.003": 11.257053909,
			"0.004": 12.3964545822,
			"0.005": 12.4058435575,
			"0.006": 9.8019258535,
			"0.007": 4.28428013663,
			"0.008": 3.94371382737,
			"0.009": 4.72246980379,
			"0.01": 5.65988075179,
			"0.011": 6.94151334014,
			"0.012": 7.10571105573,
			"0.013": 5.6599223051,
			"0.014": 4.17922067102,
			"0.015": 0.419128763512,
			"0.016": 0.0,
			"0.017": 0.0,
			"0.018": 0.0,
			"0.019": 0.0,
			"0.02": 0.0,
			"0.021": 0.0,
			"0.022": 0.0,
			"0.023": 0.0,
			"0.024": 0.0,
			"0.025": 0.0
		}
	}
}
