{
	 "smiles": "CC(=N/NC1=CC=C(C=C1[N+]([O-])=O)[N+]([O-])=O)C1=C(O)C=CC=C1", 
	 "Tm": 532.15, 
	 "num_atms": 35, 
	 "gaussian": { 
		 "optdone": 1, 
		 "sigma_profile": "yes", 
		 "theory": "DFT", 
		 "functional": "B3LYP", 
		 "basiset": "6-31G**", 
		 "properties": { 
			 "R2extent": 10344.2107, 
			 "electric_dipole_moment_norm": 6.97566527078, 
			 "electric_quadrupole_moment_norm": 16.5167707479, 
			 "total_energy": -1135.63301508, 
			 "HOMO_LUMO_gap": 0.11313, 
			 "cosmo_polarized_energy": -17.5, 
			 "cosmo_cavitation_energy": 40.62, 
			 "cosmo_dispersion_energy": -29.38, 
			 "cosmo_repulsion_energy": 2.16, 
			 "cosmo_total_nonelectrostatic_energy": 13.4, 
			 "SMD_solvation_energy": 10.99 
		},
		"coords": [
			{
				"x": -2.0279967788,
				"y": 2.1179775559,
				"z": 2.0819940507,
				"element": "C" 
			},
			{
				"x": -1.0165422907,
				"y": 2.1141464753,
				"z": 0.9593241925,
				"element": "C" 
			},
			{
				"x": -0.5994675258,
				"y": 0.9886794669,
				"z": 0.4417813084,
				"element": "N" 
			},
			{
				"x": -1.1097216651,
				"y": -0.1777969181,
				"z": 0.9272586628,
				"element": "N" 
			},
			{
				"x": -0.6218926113,
				"y": -1.3830206895,
				"z": 0.5294586059,
				"element": "C" 
			},
			{
				"x": 0.520967377,
				"y": -1.4721809909,
				"z": -0.3109063698,
				"element": "C" 
			},
			{
				"x": 1.0144780964,
				"y": -2.6895486475,
				"z": -0.7230881683,
				"element": "C" 
			},
			{
				"x": 0.3869346703,
				"y": -3.875125666,
				"z": -0.3066850048,
				"element": "C" 
			},
			{
				"x": -0.7181250744,
				"y": -3.8437638695,
				"z": 0.521302854,
				"element": "C" 
			},
			{
				"x": -1.2241302434,
				"y": -2.6137372974,
				"z": 0.9444064277,
				"element": "C" 
			},
			{
				"x": -2.3850639386,
				"y": -2.6589234465,
				"z": 1.8162563298,
				"element": "N" 
			},
			{
				"x": -2.8466348079,
				"y": -1.5834487698,
				"z": 2.2542517194,
				"element": "O" 
			},
			{
				"x": -2.8705689454,
				"y": -3.7504442623,
				"z": 2.0953155604,
				"element": "O" 
			},
			{
				"x": 0.9142469773,
				"y": -5.1646002722,
				"z": -0.7469975285,
				"element": "N" 
			},
			{
				"x": 0.3419238913,
				"y": -6.182264121,
				"z": -0.356453545,
				"element": "O" 
			},
			{
				"x": 1.9018422863,
				"y": -5.1493590076,
				"z": -1.4839962404,
				"element": "O" 
			},
			{
				"x": -0.4759052077,
				"y": 3.3569535556,
				"z": 0.3893083757,
				"element": "C" 
			},
			{
				"x": 0.3126830609,
				"y": 3.3485847526,
				"z": -0.8026401937,
				"element": "C" 
			},
			{
				"x": 0.6185487077,
				"y": 2.2214975955,
				"z": -1.469465826,
				"element": "O" 
			},
			{
				"x": 0.7938614517,
				"y": 4.5531078136,
				"z": -1.3375293614,
				"element": "C" 
			},
			{
				"x": 0.5328499588,
				"y": 5.7614772076,
				"z": -0.7095840742,
				"element": "C" 
			},
			{
				"x": -0.2235815522,
				"y": 5.7938299389,
				"z": 0.4692104201,
				"element": "C" 
			},
			{
				"x": -0.7162575453,
				"y": 4.6102306195,
				"z": 0.996833136,
				"element": "C" 
			},
			{
				"x": -2.2928794942,
				"y": 3.1178643723,
				"z": 2.4134637823,
				"element": "H" 
			},
			{
				"x": -1.6494735069,
				"y": 1.5609135398,
				"z": 2.947157561,
				"element": "H" 
			},
			{
				"x": -2.9571487452,
				"y": 1.6310677411,
				"z": 1.7596516476,
				"element": "H" 
			},
			{
				"x": -1.9059946978,
				"y": -0.2126405933,
				"z": 1.5621452617,
				"element": "H" 
			},
			{
				"x": 1.0154304183,
				"y": -0.5579945296,
				"z": -0.6091565723,
				"element": "H" 
			},
			{
				"x": 1.8874291476,
				"y": -2.7517579811,
				"z": -1.3610569135,
				"element": "H" 
			},
			{
				"x": -1.1941169694,
				"y": -4.7594782947,
				"z": 0.8439996509,
				"element": "H" 
			},
			{
				"x": 0.2171012072,
				"y": 1.4740439332,
				"z": -0.9624069715,
				"element": "H" 
			},
			{
				"x": 1.3788419178,
				"y": 4.4989432105,
				"z": -2.2494908858,
				"element": "H" 
			},
			{
				"x": 0.9201632115,
				"y": 6.6827146787,
				"z": -1.1350565817,
				"element": "H" 
			},
			{
				"x": -0.4243722783,
				"y": 6.7352573192,
				"z": 0.9697547335,
				"element": "H" 
			},
			{
				"x": -1.2891285017,
				"y": 4.6593955811,
				"z": 1.9152399567,
				"element": "H" 
			}
		],
		 "valence_orbital": [ 
			{
				"type": "occ",
				"energy": -0.30103,
				"method": "rhf"
			},
			{
				"type": "occ",
				"energy": -0.29446,
				"method": "rhf"
			},
			{
				"type": "occ",
				"energy": -0.27955,
				"method": "rhf"
			},
			{
				"type": "occ",
				"energy": -0.24426,
				"method": "rhf"
			},
			{
				"type": "occ",
				"energy": -0.22335,
				"method": "rhf"
			},
			{
				"type": "unocc",
				"energy": -0.11022,
				"method": "rhf"
			},
			{
				"type": "unocc",
				"energy": -0.09584,
				"method": "rhf"
			},
			{
				"type": "unocc",
				"energy": -0.06097,
				"method": "rhf"
			},
			{
				"type": "unocc",
				"energy": -0.02379,
				"method": "rhf"
			},
			{
				"type": "unocc",
				"energy": -0.00549,
				"method": "rhf"
			}
		],
		"cosmo_sigma_profile": { 
			"-0.025": 0.0,
			"-0.024": 0.0,
			"-0.023": 0.0,
			"-0.022": 0.0,
			"-0.021": 0.0,
			"-0.02": 0.0,
			"-0.019": 0.0,
			"-0.018": 0.0,
			"-0.017": 0.0,
			"-0.016": 0.0,
			"-0.015": 0.0,
			"-0.014": 0.0,
			"-0.013": 0.0,
			"-0.012": 0.0,
			"-0.011": 0.0766623342836,
			"-0.01": 0.397556040221,
			"-0.009": 2.03895730262,
			"-0.008": 6.54527217594,
			"-0.007": 13.261784441,
			"-0.006": 19.9939903907,
			"-0.005": 23.6611754101,
			"-0.004": 25.6973806611,
			"-0.003": 30.0674185602,
			"-0.002": 31.8963263625,
			"-0.001": 23.9891350765,
			"0.0": 17.5590594846,
			"0.001": 15.7224344554,
			"0.002": 13.9392991836,
			"0.003": 15.2434701927,
			"0.004": 15.5090916011,
			"0.005": 15.3995990334,
			"0.006": 8.46534916189,
			"0.007": 14.9571363559,
			"0.008": 13.5185240026,
			"0.009": 9.35639409842,
			"0.01": 6.88253862144,
			"0.011": 2.17912637402,
			"0.012": 0.968421204788,
			"0.013": 0.0,
			"0.014": 0.0,
			"0.015": 0.0,
			"0.016": 0.0,
			"0.017": 0.0,
			"0.018": 0.0,
			"0.019": 0.0,
			"0.02": 0.0,
			"0.021": 0.0,
			"0.022": 0.0,
			"0.023": 0.0,
			"0.024": 0.0,
			"0.025": 0.0
		}
	}
}
