{
	 "smiles": "CSC1=CC2=C(C(=O)N(N2C)C2=CC=CC=C2)C2=C1CCOC1=CC=CC=C21", 
	 "Tm": 449.15, 
	 "num_atms": 48, 
	 "gaussian": { 
		 "optdone": 1, 
		 "sigma_profile": "yes", 
		 "theory": "DFT", 
		 "functional": "B3LYP", 
		 "basiset": "6-31G**", 
		 "properties": { 
			 "R2extent": 12151.3811, 
			 "electric_dipole_moment_norm": 3.14953360833, 
			 "electric_quadrupole_moment_norm": 15.7100911029, 
			 "total_energy": -1546.617962, 
			 "HOMO_LUMO_gap": 0.15075, 
			 "cosmo_polarized_energy": -17.04, 
			 "cosmo_cavitation_energy": 50.66, 
			 "cosmo_dispersion_energy": -35.72, 
			 "cosmo_repulsion_energy": 2.61, 
			 "cosmo_total_nonelectrostatic_energy": 17.54, 
			 "SMD_solvation_energy": 8.27 
		},
		"coords": [
			{
				"x": 2.1761233808,
				"y": -4.861043638,
				"z": -0.9356414756,
				"element": "C" 
			},
			{
				"x": 3.1810671638,
				"y": -3.3964450736,
				"z": -1.3956854115,
				"element": "S" 
			},
			{
				"x": 2.1195826967,
				"y": -2.0505782798,
				"z": -0.8300169652,
				"element": "C" 
			},
			{
				"x": 1.2979855217,
				"y": -1.4686158633,
				"z": -1.7980949,
				"element": "C" 
			},
			{
				"x": 0.4796964829,
				"y": -0.4109443941,
				"z": -1.4102846474,
				"element": "C" 
			},
			{
				"x": 0.5055724992,
				"y": 0.0984901741,
				"z": -0.1078855131,
				"element": "C" 
			},
			{
				"x": -0.4773329384,
				"y": 1.2017367778,
				"z": -0.0567004258,
				"element": "C" 
			},
			{
				"x": -0.8492735455,
				"y": 1.9107044625,
				"z": 0.8660971053,
				"element": "O" 
			},
			{
				"x": -0.9819947953,
				"y": 1.2870427416,
				"z": -1.372232275,
				"element": "N" 
			},
			{
				"x": -0.4623999802,
				"y": 0.2584823417,
				"z": -2.2066192359,
				"element": "N" 
			},
			{
				"x": 0.0113227665,
				"y": 0.7618362579,
				"z": -3.5061067274,
				"element": "C" 
			},
			{
				"x": -2.2287663448,
				"y": 1.8713720659,
				"z": -1.7171907973,
				"element": "C" 
			},
			{
				"x": -3.1140828765,
				"y": 1.2056433702,
				"z": -2.5769985327,
				"element": "C" 
			},
			{
				"x": -4.3269050884,
				"y": 1.802795382,
				"z": -2.9191221137,
				"element": "C" 
			},
			{
				"x": -4.6735109764,
				"y": 3.0510371731,
				"z": -2.4004453947,
				"element": "C" 
			},
			{
				"x": -3.7921803235,
				"y": 3.7022875794,
				"z": -1.5347277388,
				"element": "C" 
			},
			{
				"x": -2.5683398066,
				"y": 3.1282653206,
				"z": -1.1958262405,
				"element": "C" 
			},
			{
				"x": 1.3316875883,
				"y": -0.4784503761,
				"z": 0.8790093279,
				"element": "C" 
			},
			{
				"x": 2.1481811851,
				"y": -1.5724426563,
				"z": 0.5061704086,
				"element": "C" 
			},
			{
				"x": 3.0589417275,
				"y": -2.1684848113,
				"z": 1.5557193701,
				"element": "C" 
			},
			{
				"x": 2.2961132915,
				"y": -2.920694385,
				"z": 2.6536691842,
				"element": "C" 
			},
			{
				"x": 1.1572983142,
				"y": -2.2044701478,
				"z": 3.1439434695,
				"element": "O" 
			},
			{
				"x": 1.3396042119,
				"y": -0.8555585835,
				"z": 3.3614629288,
				"element": "C" 
			},
			{
				"x": 1.3957602957,
				"y": -0.3941390623,
				"z": 4.6769517285,
				"element": "C" 
			},
			{
				"x": 1.5152129473,
				"y": 0.9712564927,
				"z": 4.930800217,
				"element": "C" 
			},
			{
				"x": 1.5846893587,
				"y": 1.8722286063,
				"z": 3.866367479,
				"element": "C" 
			},
			{
				"x": 1.5167926104,
				"y": 1.4091182559,
				"z": 2.554448868,
				"element": "C" 
			},
			{
				"x": 1.3893679634,
				"y": 0.0400012833,
				"z": 2.2729954499,
				"element": "C" 
			},
			{
				"x": 1.1925063654,
				"y": -4.8192724051,
				"z": -1.407488801,
				"element": "H" 
			},
			{
				"x": 2.0650608537,
				"y": -4.9475034492,
				"z": 0.1469761337,
				"element": "H" 
			},
			{
				"x": 2.7179662383,
				"y": -5.73312458,
				"z": -1.3094952391,
				"element": "H" 
			},
			{
				"x": 1.2940144118,
				"y": -1.8570815426,
				"z": -2.8096223198,
				"element": "H" 
			},
			{
				"x": -0.8210936353,
				"y": 1.2313723471,
				"z": -4.0317298196,
				"element": "H" 
			},
			{
				"x": 0.3561029866,
				"y": -0.0878778274,
				"z": -4.0974429797,
				"element": "H" 
			},
			{
				"x": 0.8279471363,
				"y": 1.4864185737,
				"z": -3.391432544,
				"element": "H" 
			},
			{
				"x": -2.8547586971,
				"y": 0.2223586225,
				"z": -2.9527502111,
				"element": "H" 
			},
			{
				"x": -5.0069581905,
				"y": 1.2802812124,
				"z": -3.585883032,
				"element": "H" 
			},
			{
				"x": -5.6207502098,
				"y": 3.5106293396,
				"z": -2.6659307261,
				"element": "H" 
			},
			{
				"x": -4.0527580973,
				"y": 4.6726606763,
				"z": -1.1221613418,
				"element": "H" 
			},
			{
				"x": -1.8864640183,
				"y": 3.6277642216,
				"z": -0.5209750868,
				"element": "H" 
			},
			{
				"x": 3.6367658715,
				"y": -1.3620275247,
				"z": 2.0219537717,
				"element": "H" 
			},
			{
				"x": 3.7767289415,
				"y": -2.8535723149,
				"z": 1.0984811579,
				"element": "H" 
			},
			{
				"x": 2.9809826615,
				"y": -3.1536896792,
				"z": 3.483215793,
				"element": "H" 
			},
			{
				"x": 1.8871342936,
				"y": -3.8623773068,
				"z": 2.2755078163,
				"element": "H" 
			},
			{
				"x": 1.3331765989,
				"y": -1.119330443,
				"z": 5.4820034459,
				"element": "H" 
			},
			{
				"x": 1.5563093284,
				"y": 1.3292680452,
				"z": 5.955540075,
				"element": "H" 
			},
			{
				"x": 1.6806492133,
				"y": 2.9368471509,
				"z": 4.0559853266,
				"element": "H" 
			},
			{
				"x": 1.5519246174,
				"y": 2.1155258697,
				"z": 1.7340914385,
				"element": "H" 
			}
		],
		 "valence_orbital": [ 
			{
				"type": "occ",
				"energy": -0.24067,
				"method": "rhf"
			},
			{
				"type": "occ",
				"energy": -0.23383,
				"method": "rhf"
			},
			{
				"type": "occ",
				"energy": -0.2307,
				"method": "rhf"
			},
			{
				"type": "occ",
				"energy": -0.22649,
				"method": "rhf"
			},
			{
				"type": "occ",
				"energy": -0.20619,
				"method": "rhf"
			},
			{
				"type": "unocc",
				"energy": -0.05544,
				"method": "rhf"
			},
			{
				"type": "unocc",
				"energy": -0.02128,
				"method": "rhf"
			},
			{
				"type": "unocc",
				"energy": -0.00214,
				"method": "rhf"
			},
			{
				"type": "unocc",
				"energy": 0.00168,
				"method": "rhf"
			},
			{
				"type": "unocc",
				"energy": 0.00905,
				"method": "rhf"
			}
		],
		"cosmo_sigma_profile": { 
			"-0.025": 0.0,
			"-0.024": 0.0,
			"-0.023": 0.0,
			"-0.022": 0.0,
			"-0.021": 0.0,
			"-0.02": 0.0,
			"-0.019": 0.0,
			"-0.018": 0.0,
			"-0.017": 0.0,
			"-0.016": 0.0,
			"-0.015": 0.0,
			"-0.014": 0.0,
			"-0.013": 0.0,
			"-0.012": 0.0,
			"-0.011": 0.0,
			"-0.01": 0.0,
			"-0.009": 0.826518500236,
			"-0.008": 1.9307357699,
			"-0.007": 4.30475616873,
			"-0.006": 18.5041439213,
			"-0.005": 31.3405331748,
			"-0.004": 42.6500335658,
			"-0.003": 43.183863143,
			"-0.002": 37.7529475119,
			"-0.001": 31.1055731012,
			"0.0": 25.6939545969,
			"0.001": 29.0980039281,
			"0.002": 29.3131142582,
			"0.003": 23.9849377833,
			"0.004": 21.6344100161,
			"0.005": 24.1932599262,
			"0.006": 10.3623809721,
			"0.007": 6.87952406346,
			"0.008": 4.32649844922,
			"0.009": 3.99436620788,
			"0.01": 3.99180654509,
			"0.011": 3.35666708699,
			"0.012": 3.63204701805,
			"0.013": 3.65405120042,
			"0.014": 0.736694959167,
			"0.015": 0.0,
			"0.016": 0.0,
			"0.017": 0.0,
			"0.018": 0.0,
			"0.019": 0.0,
			"0.02": 0.0,
			"0.021": 0.0,
			"0.022": 0.0,
			"0.023": 0.0,
			"0.024": 0.0,
			"0.025": 0.0
		}
	}
}
