{
	 "smiles": "O=C=NC1=CC2=C(SC=C2)C=C1", 
	 "Tm": 331.15, 
	 "num_atms": 17, 
	 "gaussian": { 
		 "optdone": 1, 
		 "sigma_profile": "yes", 
		 "theory": "DFT", 
		 "functional": "B3LYP", 
		 "basiset": "6-31G**", 
		 "properties": { 
			 "R2extent": 2954.8734, 
			 "electric_dipole_moment_norm": 2.47702617871, 
			 "electric_quadrupole_moment_norm": 10.6383474732, 
			 "total_energy": -874.132128871, 
			 "HOMO_LUMO_gap": 0.1868, 
			 "cosmo_polarized_energy": -6.18, 
			 "cosmo_cavitation_energy": 24.43, 
			 "cosmo_dispersion_energy": -18.42, 
			 "cosmo_repulsion_energy": 1.4, 
			 "cosmo_total_nonelectrostatic_energy": 7.41, 
			 "SMD_solvation_energy": 6.23 
		},
		"coords": [
			{
				"x": 0.1300718205,
				"y": 0.0504642734,
				"z": 4.9375317121,
				"element": "O" 
			},
			{
				"x": -0.0362012803,
				"y": -0.2316816964,
				"z": 3.8046936009,
				"element": "C" 
			},
			{
				"x": -0.3263710892,
				"y": -0.5863597757,
				"z": 2.6857997672,
				"element": "N" 
			},
			{
				"x": 0.1498858879,
				"y": -0.5084855264,
				"z": 1.3727627118,
				"element": "C" 
			},
			{
				"x": -0.5847136746,
				"y": -1.1334766863,
				"z": 0.3698377583,
				"element": "C" 
			},
			{
				"x": -0.1311546419,
				"y": -1.0727343317,
				"z": -0.9583966012,
				"element": "C" 
			},
			{
				"x": 1.0675679563,
				"y": -0.3738297268,
				"z": -1.2479982264,
				"element": "C" 
			},
			{
				"x": 1.4357365417,
				"y": -0.4309896685,
				"z": -2.9631994429,
				"element": "S" 
			},
			{
				"x": -0.0035939552,
				"y": -1.3793250307,
				"z": -3.2669394097,
				"element": "C" 
			},
			{
				"x": -0.7219428103,
				"y": -1.6394716237,
				"z": -2.144226725,
				"element": "C" 
			},
			{
				"x": 1.8047508595,
				"y": 0.2541315649,
				"z": -0.2380968453,
				"element": "C" 
			},
			{
				"x": 1.3442171492,
				"y": 0.1850835194,
				"z": 1.0682719936,
				"element": "C" 
			},
			{
				"x": -1.4980434964,
				"y": -1.6600125145,
				"z": 0.6253597662,
				"element": "H" 
			},
			{
				"x": -0.2258166551,
				"y": -1.687532967,
				"z": -4.2797295387,
				"element": "H" 
			},
			{
				"x": -1.6418846431,
				"y": -2.2130011594,
				"z": -2.1405614149,
				"element": "H" 
			},
			{
				"x": 2.7222307742,
				"y": 0.7881600605,
				"z": -0.4646496297,
				"element": "H" 
			},
			{
				"x": 1.8990612569,
				"y": 0.6645612889,
				"z": 1.8686405236,
				"element": "H" 
			}
		],
		 "valence_orbital": [ 
			{
				"type": "occ",
				"energy": -0.31014,
				"method": "rhf"
			},
			{
				"type": "occ",
				"energy": -0.30771,
				"method": "rhf"
			},
			{
				"type": "occ",
				"energy": -0.2888,
				"method": "rhf"
			},
			{
				"type": "occ",
				"energy": -0.23526,
				"method": "rhf"
			},
			{
				"type": "occ",
				"energy": -0.22349,
				"method": "rhf"
			},
			{
				"type": "unocc",
				"energy": -0.03669,
				"method": "rhf"
			},
			{
				"type": "unocc",
				"energy": -0.02192,
				"method": "rhf"
			},
			{
				"type": "unocc",
				"energy": 0.00743,
				"method": "rhf"
			},
			{
				"type": "unocc",
				"energy": 0.02027,
				"method": "rhf"
			},
			{
				"type": "unocc",
				"energy": 0.03092,
				"method": "rhf"
			}
		],
		"cosmo_sigma_profile": { 
			"-0.025": 0.0,
			"-0.024": 0.0,
			"-0.023": 0.0,
			"-0.022": 0.0,
			"-0.021": 0.0,
			"-0.02": 0.0,
			"-0.019": 0.0,
			"-0.018": 0.0,
			"-0.017": 0.0,
			"-0.016": 0.0,
			"-0.015": 0.0,
			"-0.014": 0.0,
			"-0.013": 0.0,
			"-0.012": 0.0,
			"-0.011": 0.0,
			"-0.01": 0.0,
			"-0.009": 1.2047663359,
			"-0.008": 4.78789292456,
			"-0.007": 10.6040971093,
			"-0.006": 12.1979724229,
			"-0.005": 10.0902189079,
			"-0.004": 9.98476474013,
			"-0.003": 12.028053064,
			"-0.002": 12.577997889,
			"-0.001": 10.3622845619,
			"0.0": 12.6851381404,
			"0.001": 13.4857108953,
			"0.002": 20.4395056506,
			"0.003": 29.5304336008,
			"0.004": 19.511039037,
			"0.005": 8.33896428795,
			"0.006": 2.72971076155,
			"0.007": 6.28165395425,
			"0.008": 4.09806608048,
			"0.009": 0.0,
			"0.01": 0.0,
			"0.011": 0.0,
			"0.012": 0.0,
			"0.013": 0.0,
			"0.014": 0.0,
			"0.015": 0.0,
			"0.016": 0.0,
			"0.017": 0.0,
			"0.018": 0.0,
			"0.019": 0.0,
			"0.02": 0.0,
			"0.021": 0.0,
			"0.022": 0.0,
			"0.023": 0.0,
			"0.024": 0.0,
			"0.025": 0.0
		}
	}
}
