{
	 "smiles": "CCC1OC2=C(NC1=O)C=CC=C2Cl", 
	 "Tm": 413.15, 
	 "num_atms": 24, 
	 "gaussian": { 
		 "optdone": 1, 
		 "sigma_profile": "yes", 
		 "theory": "DFT", 
		 "functional": "B3LYP", 
		 "basiset": "6-31G**", 
		 "properties": { 
			 "R2extent": 4273.2425, 
			 "electric_dipole_moment_norm": 2.52228696623, 
			 "electric_quadrupole_moment_norm": 19.3832979629, 
			 "total_energy": -1052.4988524, 
			 "HOMO_LUMO_gap": 0.19911, 
			 "cosmo_polarized_energy": -11.88, 
			 "cosmo_cavitation_energy": 29.1, 
			 "cosmo_dispersion_energy": -21.29, 
			 "cosmo_repulsion_energy": 1.68, 
			 "cosmo_total_nonelectrostatic_energy": 9.5, 
			 "SMD_solvation_energy": 5.19 
		},
		"coords": [
			{
				"x": 0.5282984884,
				"y": -2.2503278582,
				"z": -0.330973528,
				"element": "C" 
			},
			{
				"x": 1.0416041832,
				"y": -0.8166463401,
				"z": -0.4958107984,
				"element": "C" 
			},
			{
				"x": -0.0372056965,
				"y": 0.2525899182,
				"z": -0.3498025485,
				"element": "C" 
			},
			{
				"x": -0.6169526062,
				"y": 0.1191469705,
				"z": 0.9639880443,
				"element": "O" 
			},
			{
				"x": -1.7181538068,
				"y": 0.8782627808,
				"z": 1.2168074387,
				"element": "C" 
			},
			{
				"x": -2.6249050986,
				"y": 1.1756823673,
				"z": 0.1848605029,
				"element": "C" 
			},
			{
				"x": -2.3283653774,
				"y": 0.668523651,
				"z": -1.0893850101,
				"element": "N" 
			},
			{
				"x": -1.098449692,
				"y": 0.1797540167,
				"z": -1.4567700919,
				"element": "C" 
			},
			{
				"x": -0.8607088749,
				"y": -0.2217583747,
				"z": -2.5842003208,
				"element": "O" 
			},
			{
				"x": -3.7794350806,
				"y": 1.9138600447,
				"z": 0.4468834799,
				"element": "C" 
			},
			{
				"x": -4.042443733,
				"y": 2.3453955953,
				"z": 1.7471816171,
				"element": "C" 
			},
			{
				"x": -3.1572641738,
				"y": 2.0514717073,
				"z": 2.7831552261,
				"element": "C" 
			},
			{
				"x": -1.9963499742,
				"y": 1.3242880924,
				"z": 2.5117777553,
				"element": "C" 
			},
			{
				"x": -0.8778992848,
				"y": 0.9479114224,
				"z": 3.802650037,
				"element": "Cl" 
			},
			{
				"x": 0.06187867,
				"y": -2.3909968698,
				"z": 0.6476590695,
				"element": "H" 
			},
			{
				"x": -0.2041934649,
				"y": -2.4959249978,
				"z": -1.1053528574,
				"element": "H" 
			},
			{
				"x": 1.3557242526,
				"y": -2.9608937169,
				"z": -0.4174239471,
				"element": "H" 
			},
			{
				"x": 1.4864515646,
				"y": -0.6842961009,
				"z": -1.4865009236,
				"element": "H" 
			},
			{
				"x": 1.81866293,
				"y": -0.6037218862,
				"z": 0.2462214377,
				"element": "H" 
			},
			{
				"x": 0.422892154,
				"y": 1.2517990427,
				"z": -0.4235635881,
				"element": "H" 
			},
			{
				"x": -3.02595348,
				"y": 0.7079626578,
				"z": -1.821596456,
				"element": "H" 
			},
			{
				"x": -4.4675871005,
				"y": 2.1390427334,
				"z": -0.3628929497,
				"element": "H" 
			},
			{
				"x": -4.9422043608,
				"y": 2.9154108877,
				"z": 1.953929466,
				"element": "H" 
			},
			{
				"x": -3.349340438,
				"y": 2.3851642565,
				"z": 3.7962589451,
				"element": "H" 
			}
		],
		 "valence_orbital": [ 
			{
				"type": "occ",
				"energy": -0.31317,
				"method": "rhf"
			},
			{
				"type": "occ",
				"energy": -0.30943,
				"method": "rhf"
			},
			{
				"type": "occ",
				"energy": -0.26634,
				"method": "rhf"
			},
			{
				"type": "occ",
				"energy": -0.24249,
				"method": "rhf"
			},
			{
				"type": "occ",
				"energy": -0.22603,
				"method": "rhf"
			},
			{
				"type": "unocc",
				"energy": -0.02692,
				"method": "rhf"
			},
			{
				"type": "unocc",
				"energy": -0.01469,
				"method": "rhf"
			},
			{
				"type": "unocc",
				"energy": 0.0211,
				"method": "rhf"
			},
			{
				"type": "unocc",
				"energy": 0.0261,
				"method": "rhf"
			},
			{
				"type": "unocc",
				"energy": 0.07473,
				"method": "rhf"
			}
		],
		"cosmo_sigma_profile": { 
			"-0.025": 0.0,
			"-0.024": 0.0,
			"-0.023": 0.0,
			"-0.022": 0.0,
			"-0.021": 0.0,
			"-0.02": 0.0,
			"-0.019": 0.0,
			"-0.018": 0.0,
			"-0.017": 0.0,
			"-0.016": 0.359470214918,
			"-0.015": 1.41616120086,
			"-0.014": 1.26011679222,
			"-0.013": 1.52783826112,
			"-0.012": 0.987719782825,
			"-0.011": 1.24457312459,
			"-0.01": 0.962693294356,
			"-0.009": 1.45224427675,
			"-0.008": 3.49749712993,
			"-0.007": 8.94478750394,
			"-0.006": 8.3380335355,
			"-0.005": 9.22157762701,
			"-0.004": 11.9572590665,
			"-0.003": 14.5188173765,
			"-0.002": 18.8440118458,
			"-0.001": 21.0096664371,
			"0.0": 20.4783656462,
			"0.001": 22.2626870758,
			"0.002": 18.7002262181,
			"0.003": 16.0202660464,
			"0.004": 16.5140094503,
			"0.005": 10.0125943871,
			"0.006": 3.74937644111,
			"0.007": 3.05286358407,
			"0.008": 2.8253835357,
			"0.009": 2.40714167964,
			"0.01": 2.04497691224,
			"0.011": 2.29612510037,
			"0.012": 4.11992586876,
			"0.013": 3.17520569255,
			"0.014": 0.10549575676,
			"0.015": 0.0,
			"0.016": 0.0,
			"0.017": 0.0,
			"0.018": 0.0,
			"0.019": 0.0,
			"0.02": 0.0,
			"0.021": 0.0,
			"0.022": 0.0,
			"0.023": 0.0,
			"0.024": 0.0,
			"0.025": 0.0
		}
	}
}
