{
	 "smiles": "[O-][N+](=O)C1=CC=C(C=C2SC(=S)N(CN(CCCl)CCCl)C2=O)C=C1", 
	 "Tm": 557.15, 
	 "num_atms": 40, 
	 "gaussian": { 
		 "optdone": 1, 
		 "sigma_profile": "yes", 
		 "theory": "DFT", 
		 "functional": "B3LYP", 
		 "basiset": "6-31G**", 
		 "properties": { 
			 "R2extent": 18508.8258, 
			 "electric_dipole_moment_norm": 3.34101334478, 
			 "electric_quadrupole_moment_norm": 45.4113602376, 
			 "total_energy": -2687.2214695, 
			 "HOMO_LUMO_gap": 0.11219, 
			 "cosmo_polarized_energy": -20.78, 
			 "cosmo_cavitation_energy": 51.52, 
			 "cosmo_dispersion_energy": -35.75, 
			 "cosmo_repulsion_energy": 2.64, 
			 "cosmo_total_nonelectrostatic_energy": 18.41, 
			 "SMD_solvation_energy": 8.53 
		},
		"coords": [
			{
				"x": -0.3945237234,
				"y": -5.535761937,
				"z": 3.0767039538,
				"element": "O" 
			},
			{
				"x": 0.7256560936,
				"y": -5.6552559712,
				"z": 2.5836149631,
				"element": "N" 
			},
			{
				"x": 1.3524803789,
				"y": -6.7111327987,
				"z": 2.5036620317,
				"element": "O" 
			},
			{
				"x": 1.3670636985,
				"y": -4.4424996176,
				"z": 2.048411698,
				"element": "C" 
			},
			{
				"x": 0.6875340461,
				"y": -3.2277753817,
				"z": 2.1169017334,
				"element": "C" 
			},
			{
				"x": 1.2894926629,
				"y": -2.08022595,
				"z": 1.6145885329,
				"element": "C" 
			},
			{
				"x": 2.5780941561,
				"y": -2.1392416601,
				"z": 1.0386118099,
				"element": "C" 
			},
			{
				"x": 3.3264723886,
				"y": -1.0185946393,
				"z": 0.4767790613,
				"element": "C" 
			},
			{
				"x": 3.0971356006,
				"y": 0.3113760306,
				"z": 0.2993738294,
				"element": "C" 
			},
			{
				"x": 4.347644918,
				"y": 1.3291612355,
				"z": -0.4545138946,
				"element": "S" 
			},
			{
				"x": 3.3678227561,
				"y": 2.7935360966,
				"z": -0.3295817217,
				"element": "C" 
			},
			{
				"x": 3.9102079938,
				"y": 4.2653219304,
				"z": -0.8399477267,
				"element": "S" 
			},
			{
				"x": 2.1528291493,
				"y": 2.4907398412,
				"z": 0.2439080202,
				"element": "N" 
			},
			{
				"x": 1.0905620917,
				"y": 3.5225743091,
				"z": 0.5275763407,
				"element": "C" 
			},
			{
				"x": 0.0301181812,
				"y": 3.5841306317,
				"z": -0.4168201988,
				"element": "N" 
			},
			{
				"x": -1.2551598749,
				"y": 2.9527075384,
				"z": -0.1498897949,
				"element": "C" 
			},
			{
				"x": -1.4639756614,
				"y": 1.6844350443,
				"z": -0.985066918,
				"element": "C" 
			},
			{
				"x": -3.1347444065,
				"y": 1.0223296966,
				"z": -0.721378292,
				"element": "Cl" 
			},
			{
				"x": 0.1266791996,
				"y": 4.5035544573,
				"z": -1.5439686403,
				"element": "C" 
			},
			{
				"x": -0.3040249821,
				"y": 5.9258848245,
				"z": -1.1632872729,
				"element": "C" 
			},
			{
				"x": -0.2557748488,
				"y": 7.0191472157,
				"z": -2.6104441081,
				"element": "Cl" 
			},
			{
				"x": 1.9273148683,
				"y": 1.1629524337,
				"z": 0.6316851122,
				"element": "C" 
			},
			{
				"x": 0.8802936556,
				"y": 0.8252610044,
				"z": 1.1686266064,
				"element": "O" 
			},
			{
				"x": 3.2327461432,
				"y": -3.3939690448,
				"z": 0.9903224321,
				"element": "C" 
			},
			{
				"x": 2.6391825545,
				"y": -4.5440749172,
				"z": 1.4886837205,
				"element": "C" 
			},
			{
				"x": -0.2997638665,
				"y": -3.1959259714,
				"z": 2.5604528983,
				"element": "H" 
			},
			{
				"x": 0.7709927234,
				"y": -1.1333922221,
				"z": 1.6641368431,
				"element": "H" 
			},
			{
				"x": 4.3037342356,
				"y": -1.3361065017,
				"z": 0.1136305147,
				"element": "H" 
			},
			{
				"x": 1.6422484911,
				"y": 4.46304385,
				"z": 0.5779270867,
				"element": "H" 
			},
			{
				"x": 0.7087912965,
				"y": 3.2625510584,
				"z": 1.5160030305,
				"element": "H" 
			},
			{
				"x": -2.0714750378,
				"y": 3.6544599882,
				"z": -0.3622821643,
				"element": "H" 
			},
			{
				"x": -1.3222585186,
				"y": 2.6924349867,
				"z": 0.9095300575,
				"element": "H" 
			},
			{
				"x": -1.372316068,
				"y": 1.8836653178,
				"z": -2.0541336803,
				"element": "H" 
			},
			{
				"x": -0.7644143704,
				"y": 0.9036888206,
				"z": -0.6912113671,
				"element": "H" 
			},
			{
				"x": 1.1523381016,
				"y": 4.5250550209,
				"z": -1.921862874,
				"element": "H" 
			},
			{
				"x": -0.5065294446,
				"y": 4.1438637831,
				"z": -2.3612008024,
				"element": "H" 
			},
			{
				"x": 0.3647977632,
				"y": 6.3625575227,
				"z": -0.4196608867,
				"element": "H" 
			},
			{
				"x": -1.3269980502,
				"y": 5.9504693534,
				"z": -0.7841443865,
				"element": "H" 
			},
			{
				"x": 4.2243583269,
				"y": -3.4606900892,
				"z": 0.5522600967,
				"element": "H" 
			},
			{
				"x": 3.1346673784,
				"y": -5.5059552898,
				"z": 1.4540043565,
				"element": "H" 
			}
		],
		 "valence_orbital": [ 
			{
				"type": "occ",
				"energy": -0.29195,
				"method": "rhf"
			},
			{
				"type": "occ",
				"energy": -0.28669,
				"method": "rhf"
			},
			{
				"type": "occ",
				"energy": -0.25466,
				"method": "rhf"
			},
			{
				"type": "occ",
				"energy": -0.24889,
				"method": "rhf"
			},
			{
				"type": "occ",
				"energy": -0.2416,
				"method": "rhf"
			},
			{
				"type": "unocc",
				"energy": -0.12941,
				"method": "rhf"
			},
			{
				"type": "unocc",
				"energy": -0.08692,
				"method": "rhf"
			},
			{
				"type": "unocc",
				"energy": -0.05539,
				"method": "rhf"
			},
			{
				"type": "unocc",
				"energy": -0.03955,
				"method": "rhf"
			},
			{
				"type": "unocc",
				"energy": -0.02722,
				"method": "rhf"
			}
		],
		"cosmo_sigma_profile": { 
			"-0.025": 0.0,
			"-0.024": 0.0,
			"-0.023": 0.0,
			"-0.022": 0.0,
			"-0.021": 0.0,
			"-0.02": 0.0,
			"-0.019": 0.0,
			"-0.018": 0.0,
			"-0.017": 0.0,
			"-0.016": 0.0,
			"-0.015": 0.0,
			"-0.014": 0.0,
			"-0.013": 0.0,
			"-0.012": 0.0,
			"-0.011": 0.483476239681,
			"-0.01": 3.65333841807,
			"-0.009": 3.23265395887,
			"-0.008": 7.99845322373,
			"-0.007": 20.4079430869,
			"-0.006": 23.7040514805,
			"-0.005": 24.0276744318,
			"-0.004": 23.7074549629,
			"-0.003": 25.1311603625,
			"-0.002": 32.2168450431,
			"-0.001": 33.9716958735,
			"0.0": 36.2888516163,
			"0.001": 35.0328823719,
			"0.002": 22.9455213401,
			"0.003": 19.4954673943,
			"0.004": 18.6074664124,
			"0.005": 19.6884915477,
			"0.006": 29.5089309171,
			"0.007": 23.2767745547,
			"0.008": 10.0467236772,
			"0.009": 5.63592430555,
			"0.01": 2.1299469665,
			"0.011": 0.0285266986463,
			"0.012": 0.0,
			"0.013": 0.0,
			"0.014": 0.0,
			"0.015": 0.0,
			"0.016": 0.0,
			"0.017": 0.0,
			"0.018": 0.0,
			"0.019": 0.0,
			"0.02": 0.0,
			"0.021": 0.0,
			"0.022": 0.0,
			"0.023": 0.0,
			"0.024": 0.0,
			"0.025": 0.0
		}
	}
}
