{
	 "smiles": "CC(=O)OCC(=O)C1(CCC2(C)C(CCC3C4CCC(=O)C4(C)CCC23)C1)OC(C)=O", 
	 "Tm": 414.15, 
	 "num_atms": 67, 
	 "gaussian": { 
		 "optdone": 1, 
		 "sigma_profile": "yes", 
		 "theory": "DFT", 
		 "functional": "B3LYP", 
		 "basiset": "6-31G**", 
		 "properties": { 
			 "R2extent": 17220.2591, 
			 "electric_dipole_moment_norm": 1.47859741647, 
			 "electric_quadrupole_moment_norm": 30.0250135813, 
			 "total_energy": -1425.73305868, 
			 "HOMO_LUMO_gap": 0.19821, 
			 "cosmo_polarized_energy": -20.9, 
			 "cosmo_cavitation_energy": 61.18, 
			 "cosmo_dispersion_energy": -39.47, 
			 "cosmo_repulsion_energy": 2.93, 
			 "cosmo_total_nonelectrostatic_energy": 24.64, 
			 "SMD_solvation_energy": 11.81 
		},
		"coords": [
			{
				"x": 6.4063214092,
				"y": 1.5612541245,
				"z": 2.4953088222,
				"element": "C" 
			},
			{
				"x": 5.9032274061,
				"y": 0.5559246246,
				"z": 1.4908234866,
				"element": "C" 
			},
			{
				"x": 5.7494310711,
				"y": 0.755026531,
				"z": 0.3054884469,
				"element": "O" 
			},
			{
				"x": 5.6360964379,
				"y": -0.6279192421,
				"z": 2.102664408,
				"element": "O" 
			},
			{
				"x": 5.2201787842,
				"y": -1.7224468203,
				"z": 1.2704247173,
				"element": "C" 
			},
			{
				"x": 3.9845511649,
				"y": -2.4161086469,
				"z": 1.8496205575,
				"element": "C" 
			},
			{
				"x": 4.064372983,
				"y": -3.5778406312,
				"z": 2.1924217626,
				"element": "O" 
			},
			{
				"x": 2.6013718852,
				"y": -1.7188060392,
				"z": 1.8162095999,
				"element": "C" 
			},
			{
				"x": 2.5994105796,
				"y": -0.1825984878,
				"z": 1.8278197669,
				"element": "C" 
			},
			{
				"x": 1.1872400905,
				"y": 0.3941054879,
				"z": 1.6338871055,
				"element": "C" 
			},
			{
				"x": 0.4710855629,
				"y": -0.0771044517,
				"z": 0.3359814479,
				"element": "C" 
			},
			{
				"x": 1.2007473911,
				"y": 0.5381535037,
				"z": -0.8792559743,
				"element": "C" 
			},
			{
				"x": 0.4899473592,
				"y": -1.6340299789,
				"z": 0.3456105738,
				"element": "C" 
			},
			{
				"x": -0.2004885925,
				"y": -2.2812890062,
				"z": -0.8783968855,
				"element": "C" 
			},
			{
				"x": -1.2835958772,
				"y": -1.4004215602,
				"z": -1.5317584608,
				"element": "C" 
			},
			{
				"x": -2.0043050409,
				"y": -0.4413237383,
				"z": -0.5623844283,
				"element": "C" 
			},
			{
				"x": -3.0035868137,
				"y": 0.4543114877,
				"z": -1.3458616746,
				"element": "C" 
			},
			{
				"x": -2.4452528072,
				"y": 1.1582964001,
				"z": -2.6184142352,
				"element": "C" 
			},
			{
				"x": -3.4366122749,
				"y": 2.2929031696,
				"z": -2.9029178487,
				"element": "C" 
			},
			{
				"x": -3.9116499068,
				"y": 2.726561906,
				"z": -1.522707888,
				"element": "C" 
			},
			{
				"x": -4.3875291108,
				"y": 3.8061278383,
				"z": -1.240964202,
				"element": "O" 
			},
			{
				"x": -3.6933415726,
				"y": 1.5783566885,
				"z": -0.5082938812,
				"element": "C" 
			},
			{
				"x": -5.0725836456,
				"y": 1.1607760709,
				"z": 0.0370340013,
				"element": "C" 
			},
			{
				"x": -2.809152859,
				"y": 2.0990437685,
				"z": 0.6571063535,
				"element": "C" 
			},
			{
				"x": -1.3138003821,
				"y": 1.8517758368,
				"z": 0.4328468369,
				"element": "C" 
			},
			{
				"x": -1.0375265087,
				"y": 0.3361767978,
				"z": 0.4188538327,
				"element": "C" 
			},
			{
				"x": 1.892356215,
				"y": -2.2332284907,
				"z": 0.5436066894,
				"element": "C" 
			},
			{
				"x": 1.8029084665,
				"y": -2.2409129969,
				"z": 2.9124181036,
				"element": "O" 
			},
			{
				"x": 2.3112632575,
				"y": -2.1529720285,
				"z": 4.1658735355,
				"element": "C" 
			},
			{
				"x": 1.4024939575,
				"y": -2.8346106236,
				"z": 5.1588809685,
				"element": "C" 
			},
			{
				"x": 3.3622035973,
				"y": -1.6113318341,
				"z": 4.4328189606,
				"element": "O" 
			},
			{
				"x": 6.548178843,
				"y": 2.524388453,
				"z": 2.0064334376,
				"element": "H" 
			},
			{
				"x": 7.3538948016,
				"y": 1.2158811804,
				"z": 2.9195998652,
				"element": "H" 
			},
			{
				"x": 5.696724519,
				"y": 1.6532874654,
				"z": 3.3221246449,
				"element": "H" 
			},
			{
				"x": 6.022428394,
				"y": -2.4635863643,
				"z": 1.2559419501,
				"element": "H" 
			},
			{
				"x": 5.0359777315,
				"y": -1.3550738103,
				"z": 0.2554322809,
				"element": "H" 
			},
			{
				"x": 3.2531289511,
				"y": 0.1710008915,
				"z": 1.024875163,
				"element": "H" 
			},
			{
				"x": 3.0254321224,
				"y": 0.1730747443,
				"z": 2.7678168843,
				"element": "H" 
			},
			{
				"x": 1.2614356092,
				"y": 1.4870119758,
				"z": 1.6466778464,
				"element": "H" 
			},
			{
				"x": 0.5724988188,
				"y": 0.1141244538,
				"z": 2.498362253,
				"element": "H" 
			},
			{
				"x": 2.2387601097,
				"y": 0.200204511,
				"z": -0.9483101343,
				"element": "H" 
			},
			{
				"x": 1.2317956395,
				"y": 1.6292609161,
				"z": -0.7951724581,
				"element": "H" 
			},
			{
				"x": 0.7241574501,
				"y": 0.297826545,
				"z": -1.8308129254,
				"element": "H" 
			},
			{
				"x": -0.0896855264,
				"y": -1.9176023502,
				"z": 1.2341611913,
				"element": "H" 
			},
			{
				"x": 0.549319307,
				"y": -2.5324382707,
				"z": -1.6396189103,
				"element": "H" 
			},
			{
				"x": -0.6306798047,
				"y": -3.2385373551,
				"z": -0.5600951593,
				"element": "H" 
			},
			{
				"x": -0.828006157,
				"y": -0.8222971531,
				"z": -2.3391999907,
				"element": "H" 
			},
			{
				"x": -2.0324123444,
				"y": -2.0374535461,
				"z": -2.0191941936,
				"element": "H" 
			},
			{
				"x": -2.628889798,
				"y": -1.0740715028,
				"z": 0.0828481548,
				"element": "H" 
			},
			{
				"x": -3.7988714109,
				"y": -0.217332692,
				"z": -1.7000306744,
				"element": "H" 
			},
			{
				"x": -1.4477640758,
				"y": 1.5722535551,
				"z": -2.435964769,
				"element": "H" 
			},
			{
				"x": -2.3527138392,
				"y": 0.4672420151,
				"z": -3.4600971223,
				"element": "H" 
			},
			{
				"x": -3.0410607388,
				"y": 3.138070195,
				"z": -3.471752416,
				"element": "H" 
			},
			{
				"x": -4.3137366972,
				"y": 1.9154968714,
				"z": -3.4484541289,
				"element": "H" 
			},
			{
				"x": -5.7515796251,
				"y": 0.856299378,
				"z": -0.7673440981,
				"element": "H" 
			},
			{
				"x": -4.9721270213,
				"y": 0.3180684988,
				"z": 0.7300904232,
				"element": "H" 
			},
			{
				"x": -5.535811588,
				"y": 1.9957297465,
				"z": 0.5713751375,
				"element": "H" 
			},
			{
				"x": -3.1058703168,
				"y": 1.5888949508,
				"z": 1.5835268144,
				"element": "H" 
			},
			{
				"x": -3.024819322,
				"y": 3.162300464,
				"z": 0.8071493135,
				"element": "H" 
			},
			{
				"x": -0.7487280064,
				"y": 2.3222441884,
				"z": 1.2445179375,
				"element": "H" 
			},
			{
				"x": -0.9806051791,
				"y": 2.3395179568,
				"z": -0.4903257488,
				"element": "H" 
			},
			{
				"x": -1.3366334885,
				"y": 0.001958752,
				"z": 1.4228319395,
				"element": "H" 
			},
			{
				"x": 1.828157189,
				"y": -3.3244669004,
				"z": 0.6110890989,
				"element": "H" 
			},
			{
				"x": 2.5236284741,
				"y": -2.0040260525,
				"z": -0.324727553,
				"element": "H" 
			},
			{
				"x": 0.36294001,
				"y": -2.5341057957,
				"z": 5.0057761095,
				"element": "H" 
			},
			{
				"x": 1.4595033245,
				"y": -3.9173474558,
				"z": 5.0074313702,
				"element": "H" 
			},
			{
				"x": 1.7249514186,
				"y": -2.5931481186,
				"z": 6.1712939678,
				"element": "H" 
			}
		],
		 "valence_orbital": [ 
			{
				"type": "occ",
				"energy": -0.28406,
				"method": "rhf"
			},
			{
				"type": "occ",
				"energy": -0.27888,
				"method": "rhf"
			},
			{
				"type": "occ",
				"energy": -0.27089,
				"method": "rhf"
			},
			{
				"type": "occ",
				"energy": -0.25218,
				"method": "rhf"
			},
			{
				"type": "occ",
				"energy": -0.23464,
				"method": "rhf"
			},
			{
				"type": "unocc",
				"energy": -0.03643,
				"method": "rhf"
			},
			{
				"type": "unocc",
				"energy": -0.01729,
				"method": "rhf"
			},
			{
				"type": "unocc",
				"energy": 0.00256,
				"method": "rhf"
			},
			{
				"type": "unocc",
				"energy": 0.00927,
				"method": "rhf"
			},
			{
				"type": "unocc",
				"energy": 0.05628,
				"method": "rhf"
			}
		],
		"cosmo_sigma_profile": { 
			"-0.025": 0.0,
			"-0.024": 0.0,
			"-0.023": 0.0,
			"-0.022": 0.0,
			"-0.021": 0.0,
			"-0.02": 0.0,
			"-0.019": 0.0,
			"-0.018": 0.0,
			"-0.017": 0.0,
			"-0.016": 0.0,
			"-0.015": 0.0,
			"-0.014": 0.0,
			"-0.013": 0.0,
			"-0.012": 0.0,
			"-0.011": 0.0,
			"-0.01": 0.295547031382,
			"-0.009": 1.26170172879,
			"-0.008": 2.10710393753,
			"-0.007": 7.71850636563,
			"-0.006": 16.1029881075,
			"-0.005": 22.5997228901,
			"-0.004": 28.5686282662,
			"-0.003": 44.7703348107,
			"-0.002": 92.0950154653,
			"-0.001": 72.9409337145,
			"0.0": 46.5260286839,
			"0.001": 31.0176851578,
			"0.002": 12.673566949,
			"0.003": 9.78111940707,
			"0.004": 6.11087523222,
			"0.005": 8.84017519543,
			"0.006": 9.72898440363,
			"0.007": 8.28712251562,
			"0.008": 7.86944338602,
			"0.009": 7.77423903698,
			"0.01": 9.21541803899,
			"0.011": 12.4908418913,
			"0.012": 9.79024124412,
			"0.013": 3.6306993515,
			"0.014": 0.356086423731,
			"0.015": 0.0,
			"0.016": 0.0,
			"0.017": 0.0,
			"0.018": 0.0,
			"0.019": 0.0,
			"0.02": 0.0,
			"0.021": 0.0,
			"0.022": 0.0,
			"0.023": 0.0,
			"0.024": 0.0,
			"0.025": 0.0
		}
	}
}
