{
	 "smiles": "CC1(C)C=C(C(N)=O)C(C)(C)N1O", 
	 "Tm": 472.15, 
	 "num_atms": 29, 
	 "gaussian": { 
		 "optdone": 1, 
		 "sigma_profile": "yes", 
		 "theory": "DFT", 
		 "functional": "B3LYP", 
		 "basiset": "6-31G**", 
		 "properties": { 
			 "R2extent": 2391.6562, 
			 "electric_dipole_moment_norm": 3.23191371791, 
			 "electric_quadrupole_moment_norm": 13.3268949013, 
			 "total_energy": -612.498063617, 
			 "HOMO_LUMO_gap": 0.19047, 
			 "cosmo_polarized_energy": -14.69, 
			 "cosmo_cavitation_energy": 29.84, 
			 "cosmo_dispersion_energy": -20.91, 
			 "cosmo_repulsion_energy": 1.67, 
			 "cosmo_total_nonelectrostatic_energy": 10.6, 
			 "SMD_solvation_energy": 5.61 
		},
		"coords": [
			{
				"x": 1.207952784,
				"y": -2.3152285116,
				"z": 0.9149258509,
				"element": "C" 
			},
			{
				"x": 0.9238289791,
				"y": -1.392669636,
				"z": -0.291221714,
				"element": "C" 
			},
			{
				"x": 1.2903260135,
				"y": -2.1309905718,
				"z": -1.5882309957,
				"element": "C" 
			},
			{
				"x": -0.5196793971,
				"y": -0.9429860412,
				"z": -0.2975679394,
				"element": "C" 
			},
			{
				"x": -0.64759026,
				"y": 0.3543334953,
				"z": -0.001793088,
				"element": "C" 
			},
			{
				"x": -1.9266264032,
				"y": 1.1088262971,
				"z": 0.1389062282,
				"element": "C" 
			},
			{
				"x": -2.9978123084,
				"y": 0.6001568978,
				"z": -0.5568414874,
				"element": "N" 
			},
			{
				"x": -2.0344795945,
				"y": 2.1049949223,
				"z": 0.8487592334,
				"element": "O" 
			},
			{
				"x": 0.7144354347,
				"y": 0.9816586464,
				"z": 0.2912047301,
				"element": "C" 
			},
			{
				"x": 0.8771983897,
				"y": 1.2519652885,
				"z": 1.8023055215,
				"element": "C" 
			},
			{
				"x": 0.9366864697,
				"y": 2.2874513166,
				"z": -0.483266706,
				"element": "C" 
			},
			{
				"x": 1.6985456839,
				"y": -0.1080339756,
				"z": -0.0946366863,
				"element": "N" 
			},
			{
				"x": 2.3442819201,
				"y": 0.2428104473,
				"z": -1.3375625698,
				"element": "O" 
			},
			{
				"x": 0.9715360139,
				"y": -1.8208773421,
				"z": 1.8596837343,
				"element": "H" 
			},
			{
				"x": 0.6106072824,
				"y": -3.2317015207,
				"z": 0.8511847329,
				"element": "H" 
			},
			{
				"x": 2.266568326,
				"y": -2.5922272805,
				"z": 0.9299412153,
				"element": "H" 
			},
			{
				"x": 1.0763286987,
				"y": -1.5299087216,
				"z": -2.4724802161,
				"element": "H" 
			},
			{
				"x": 0.7111459504,
				"y": -3.0591543472,
				"z": -1.6417083019,
				"element": "H" 
			},
			{
				"x": 2.3516883084,
				"y": -2.3919394552,
				"z": -1.6027113136,
				"element": "H" 
			},
			{
				"x": -1.3364974832,
				"y": -1.6380404475,
				"z": -0.4726456407,
				"element": "H" 
			},
			{
				"x": -2.8459175836,
				"y": 0.0005044819,
				"z": -1.3522904231,
				"element": "H" 
			},
			{
				"x": -3.8348284689,
				"y": 1.1651812013,
				"z": -0.5510955592,
				"element": "H" 
			},
			{
				"x": 0.7631065502,
				"y": 0.3344206801,
				"z": 2.3853218642,
				"element": "H" 
			},
			{
				"x": 1.874565336,
				"y": 1.6575872963,
				"z": 1.9995481384,
				"element": "H" 
			},
			{
				"x": 0.1196526281,
				"y": 1.965694756,
				"z": 2.1332989457,
				"element": "H" 
			},
			{
				"x": 1.9447862265,
				"y": 2.6734804543,
				"z": -0.3091769449,
				"element": "H" 
			},
			{
				"x": 0.2142222495,
				"y": 3.0246193314,
				"z": -0.1251357866,
				"element": "H" 
			},
			{
				"x": 0.8074200801,
				"y": 2.1504444422,
				"z": -1.557781969,
				"element": "H" 
			},
			{
				"x": 3.2699481739,
				"y": 0.3004278962,
				"z": -1.0688328531,
				"element": "H" 
			}
		],
		 "valence_orbital": [ 
			{
				"type": "occ",
				"energy": -0.27671,
				"method": "rhf"
			},
			{
				"type": "occ",
				"energy": -0.27086,
				"method": "rhf"
			},
			{
				"type": "occ",
				"energy": -0.25716,
				"method": "rhf"
			},
			{
				"type": "occ",
				"energy": -0.24741,
				"method": "rhf"
			},
			{
				"type": "occ",
				"energy": -0.21961,
				"method": "rhf"
			},
			{
				"type": "unocc",
				"energy": -0.02914,
				"method": "rhf"
			},
			{
				"type": "unocc",
				"energy": 0.06735,
				"method": "rhf"
			},
			{
				"type": "unocc",
				"energy": 0.074,
				"method": "rhf"
			},
			{
				"type": "unocc",
				"energy": 0.08364,
				"method": "rhf"
			},
			{
				"type": "unocc",
				"energy": 0.09901,
				"method": "rhf"
			}
		],
		"cosmo_sigma_profile": { 
			"-0.025": 0.0,
			"-0.024": 0.0,
			"-0.023": 0.0,
			"-0.022": 0.0,
			"-0.021": 0.0,
			"-0.02": 0.0,
			"-0.019": 0.0,
			"-0.018": 0.0,
			"-0.017": 0.0,
			"-0.016": 0.175241019862,
			"-0.015": 0.889226264686,
			"-0.014": 1.59850285653,
			"-0.013": 2.71593674076,
			"-0.012": 3.18679412422,
			"-0.011": 2.7561127508,
			"-0.01": 3.32884107406,
			"-0.009": 2.74002538742,
			"-0.008": 3.35340930863,
			"-0.007": 3.76389962297,
			"-0.006": 3.80865262389,
			"-0.005": 4.49253599226,
			"-0.004": 9.17979579208,
			"-0.003": 18.1303714264,
			"-0.002": 20.4894588721,
			"-0.001": 24.8711238576,
			"0.0": 26.939876052,
			"0.001": 30.3209580623,
			"0.002": 16.5167375682,
			"0.003": 6.57661159076,
			"0.004": 6.28430033865,
			"0.005": 5.36321268955,
			"0.006": 5.93930824724,
			"0.007": 3.57946630009,
			"0.008": 4.86446830068,
			"0.009": 3.73048018021,
			"0.01": 2.68930933029,
			"0.011": 3.55974588884,
			"0.012": 2.23180375927,
			"0.013": 3.48132970248,
			"0.014": 3.18653247408,
			"0.015": 0.498415736063,
			"0.016": 0.0,
			"0.017": 0.0,
			"0.018": 0.0,
			"0.019": 0.0,
			"0.02": 0.0,
			"0.021": 0.0,
			"0.022": 0.0,
			"0.023": 0.0,
			"0.024": 0.0,
			"0.025": 0.0
		}
	}
}
