{
	 "smiles": "CC(SC1=NN=C(NC2=CC(C)=CC(C)=C2)S1)C(O)=O", 
	 "Tm": 401.15, 
	 "num_atms": 35, 
	 "gaussian": { 
		 "optdone": 1, 
		 "sigma_profile": "yes", 
		 "theory": "DFT", 
		 "functional": "B3LYP", 
		 "basiset": "6-31G**", 
		 "properties": { 
			 "R2extent": 10581.8412, 
			 "electric_dipole_moment_norm": 9.24409552958, 
			 "electric_quadrupole_moment_norm": 32.5183152782, 
			 "total_energy": -1615.4996282, 
			 "HOMO_LUMO_gap": 0.16682, 
			 "cosmo_polarized_energy": -17.78, 
			 "cosmo_cavitation_energy": 41.99, 
			 "cosmo_dispersion_energy": -30.75, 
			 "cosmo_repulsion_energy": 2.29, 
			 "cosmo_total_nonelectrostatic_energy": 13.54, 
			 "SMD_solvation_energy": 6.34 
		},
		"coords": [
			{
				"x": 1.7421234869,
				"y": -4.4932095541,
				"z": 1.6991070924,
				"element": "C" 
			},
			{
				"x": 2.7656599932,
				"y": -4.4101247639,
				"z": 0.5623206732,
				"element": "C" 
			},
			{
				"x": 3.2510551394,
				"y": -2.6661770486,
				"z": 0.1072036636,
				"element": "S" 
			},
			{
				"x": 1.7090124434,
				"y": -1.8657318187,
				"z": -0.1643902733,
				"element": "C" 
			},
			{
				"x": 0.6354072077,
				"y": -2.429791202,
				"z": -0.6396994198,
				"element": "N" 
			},
			{
				"x": -0.4477069055,
				"y": -1.6068440823,
				"z": -0.7458225186,
				"element": "N" 
			},
			{
				"x": -0.1713528538,
				"y": -0.3757332914,
				"z": -0.384006442,
				"element": "C" 
			},
			{
				"x": -1.0837827,
				"y": 0.6229655267,
				"z": -0.5466955516,
				"element": "N" 
			},
			{
				"x": -1.0585584613,
				"y": 1.9606653395,
				"z": -0.1026712494,
				"element": "C" 
			},
			{
				"x": -0.3767366546,
				"y": 2.358736869,
				"z": 1.0507532681,
				"element": "C" 
			},
			{
				"x": -0.3835334658,
				"y": 3.7044171612,
				"z": 1.4452932968,
				"element": "C" 
			},
			{
				"x": 0.3863794094,
				"y": 4.1347014384,
				"z": 2.6720175289,
				"element": "C" 
			},
			{
				"x": -1.1049398362,
				"y": 4.630160953,
				"z": 0.689028575,
				"element": "C" 
			},
			{
				"x": -1.8180310142,
				"y": 4.2428666165,
				"z": -0.4557759436,
				"element": "C" 
			},
			{
				"x": -2.6125707095,
				"y": 5.2582559847,
				"z": -1.2428964441,
				"element": "C" 
			},
			{
				"x": -1.7809505795,
				"y": 2.9057979891,
				"z": -0.8479661706,
				"element": "C" 
			},
			{
				"x": 1.4861463706,
				"y": -0.1534286665,
				"z": 0.197981733,
				"element": "S" 
			},
			{
				"x": 2.3936635083,
				"y": -5.3071483529,
				"z": -0.6385489191,
				"element": "C" 
			},
			{
				"x": 1.3336954145,
				"y": -4.9681446256,
				"z": -1.3711382008,
				"element": "O" 
			},
			{
				"x": 3.0266413643,
				"y": -6.3181341624,
				"z": -0.8477204318,
				"element": "O" 
			},
			{
				"x": 2.0982030783,
				"y": -3.9514075344,
				"z": 2.5789315401,
				"element": "H" 
			},
			{
				"x": 0.7717170348,
				"y": -4.0890358737,
				"z": 1.4050132126,
				"element": "H" 
			},
			{
				"x": 1.6044268343,
				"y": -5.5448052412,
				"z": 1.9713349975,
				"element": "H" 
			},
			{
				"x": 3.7290569192,
				"y": -4.795296734,
				"z": 0.9047204806,
				"element": "H" 
			},
			{
				"x": -1.8688974342,
				"y": 0.341980488,
				"z": -1.1200558231,
				"element": "H" 
			},
			{
				"x": 0.1314245644,
				"y": 1.6280301429,
				"z": 1.670767514,
				"element": "H" 
			},
			{
				"x": 0.2952675693,
				"y": 3.4016560026,
				"z": 3.4798429756,
				"element": "H" 
			},
			{
				"x": 1.455274441,
				"y": 4.2393785168,
				"z": 2.4492122858,
				"element": "H" 
			},
			{
				"x": 0.0326861127,
				"y": 5.0986429461,
				"z": 3.0474269778,
				"element": "H" 
			},
			{
				"x": -1.1194312651,
				"y": 5.6729874061,
				"z": 0.9968480664,
				"element": "H" 
			},
			{
				"x": -3.49542131,
				"y": 5.5873824924,
				"z": -0.6820402643,
				"element": "H" 
			},
			{
				"x": -2.0154280048,
				"y": 6.1511009452,
				"z": -1.4557177933,
				"element": "H" 
			},
			{
				"x": -2.9585369262,
				"y": 4.8485695471,
				"z": -2.1955938479,
				"element": "H" 
			},
			{
				"x": -2.3070515491,
				"y": 2.5887056615,
				"z": -1.7452206951,
				"element": "H" 
			},
			{
				"x": 0.9450887782,
				"y": -4.0900890749,
				"z": -1.1120438931,
				"element": "H" 
			}
		],
		 "valence_orbital": [ 
			{
				"type": "occ",
				"energy": -0.29125,
				"method": "rhf"
			},
			{
				"type": "occ",
				"energy": -0.26391,
				"method": "rhf"
			},
			{
				"type": "occ",
				"energy": -0.25652,
				"method": "rhf"
			},
			{
				"type": "occ",
				"energy": -0.24601,
				"method": "rhf"
			},
			{
				"type": "occ",
				"energy": -0.22008,
				"method": "rhf"
			},
			{
				"type": "unocc",
				"energy": -0.05326,
				"method": "rhf"
			},
			{
				"type": "unocc",
				"energy": -0.02755,
				"method": "rhf"
			},
			{
				"type": "unocc",
				"energy": -0.01952,
				"method": "rhf"
			},
			{
				"type": "unocc",
				"energy": -0.01166,
				"method": "rhf"
			},
			{
				"type": "unocc",
				"energy": 0.0009,
				"method": "rhf"
			}
		],
		"cosmo_sigma_profile": { 
			"-0.025": 0.0,
			"-0.024": 0.0,
			"-0.023": 0.0,
			"-0.022": 0.0,
			"-0.021": 0.0,
			"-0.02": 0.0,
			"-0.019": 0.0,
			"-0.018": 0.0,
			"-0.017": 0.0,
			"-0.016": 0.415808502371,
			"-0.015": 1.15622788792,
			"-0.014": 0.734403430167,
			"-0.013": 1.08984578205,
			"-0.012": 0.74614782739,
			"-0.011": 1.66255624275,
			"-0.01": 1.27275365855,
			"-0.009": 1.65184188075,
			"-0.008": 3.27872622375,
			"-0.007": 3.57679652037,
			"-0.006": 8.11130623178,
			"-0.005": 17.7313899925,
			"-0.004": 30.1932534304,
			"-0.003": 32.6595250874,
			"-0.002": 38.9846831833,
			"-0.001": 38.6341289696,
			"0.0": 34.405906684,
			"0.001": 24.1986799015,
			"0.002": 15.6417419616,
			"0.003": 13.7356406197,
			"0.004": 13.1808406524,
			"0.005": 13.4922380064,
			"0.006": 6.60534677652,
			"0.007": 3.66497939165,
			"0.008": 2.68038647782,
			"0.009": 4.40035806053,
			"0.01": 4.68928077435,
			"0.011": 6.99904887523,
			"0.012": 7.82939415364,
			"0.013": 3.68314318696,
			"0.014": 0.723847119563,
			"0.015": 0.0,
			"0.016": 0.0,
			"0.017": 0.0,
			"0.018": 0.0,
			"0.019": 0.0,
			"0.02": 0.0,
			"0.021": 0.0,
			"0.022": 0.0,
			"0.023": 0.0,
			"0.024": 0.0,
			"0.025": 0.0
		}
	}
}
