{
	 "smiles": "CC1=C(SC2=C1C=CC=C2)C(=O)C(O)=O", 
	 "Tm": 430.15, 
	 "num_atms": 23, 
	 "gaussian": { 
		 "optdone": 1, 
		 "sigma_profile": "yes", 
		 "theory": "DFT", 
		 "functional": "B3LYP", 
		 "basiset": "6-31G**", 
		 "properties": { 
			 "R2extent": 3893.1767, 
			 "electric_dipole_moment_norm": 1.83907109705, 
			 "electric_quadrupole_moment_norm": 12.9816573849, 
			 "total_energy": -1047.85947359, 
			 "HOMO_LUMO_gap": 0.12956, 
			 "cosmo_polarized_energy": -12.98, 
			 "cosmo_cavitation_energy": 29.04, 
			 "cosmo_dispersion_energy": -22.03, 
			 "cosmo_repulsion_energy": 1.65, 
			 "cosmo_total_nonelectrostatic_energy": 8.66, 
			 "SMD_solvation_energy": 6.41 
		},
		"coords": [
			{
				"x": -1.5187142139,
				"y": 2.1238580055,
				"z": 1.1546329843,
				"element": "C" 
			},
			{
				"x": -1.06519533,
				"y": 1.1846345836,
				"z": 0.0741567311,
				"element": "C" 
			},
			{
				"x": -0.0238858179,
				"y": 0.2738684051,
				"z": 0.2014624587,
				"element": "C" 
			},
			{
				"x": 0.2409077095,
				"y": -0.676514297,
				"z": -1.2702302473,
				"element": "S" 
			},
			{
				"x": -1.0646464,
				"y": 0.1600538813,
				"z": -2.0685009863,
				"element": "C" 
			},
			{
				"x": -1.6726078766,
				"y": 1.1284489512,
				"z": -1.2292813037,
				"element": "C" 
			},
			{
				"x": -2.7486094138,
				"y": 1.8888891604,
				"z": -1.7393234913,
				"element": "C" 
			},
			{
				"x": -3.1851915,
				"y": 1.6766614873,
				"z": -3.0356086471,
				"element": "C" 
			},
			{
				"x": -2.5671031223,
				"y": 0.708624626,
				"z": -3.8538970532,
				"element": "C" 
			},
			{
				"x": -1.5082275651,
				"y": -0.0533648215,
				"z": -3.380893431,
				"element": "C" 
			},
			{
				"x": 0.7686894984,
				"y": 0.1166109059,
				"z": 1.4206357287,
				"element": "C" 
			},
			{
				"x": 0.5843116991,
				"y": 0.7741030875,
				"z": 2.4364097714,
				"element": "O" 
			},
			{
				"x": 1.8969056815,
				"y": -0.9363453826,
				"z": 1.420920545,
				"element": "C" 
			},
			{
				"x": 2.5369714696,
				"y": -0.9727256001,
				"z": 2.5966720884,
				"element": "O" 
			},
			{
				"x": 2.1774168229,
				"y": -1.647831539,
				"z": 0.4784113284,
				"element": "O" 
			},
			{
				"x": -2.3542965934,
				"y": 2.7400072629,
				"z": 0.8169075232,
				"element": "H" 
			},
			{
				"x": -1.8239233143,
				"y": 1.5752632648,
				"z": 2.0502873723,
				"element": "H" 
			},
			{
				"x": -0.7034608298,
				"y": 2.7795141098,
				"z": 1.4739394595,
				"element": "H" 
			},
			{
				"x": -3.2324038023,
				"y": 2.6368663042,
				"z": -1.1194180762,
				"element": "H" 
			},
			{
				"x": -4.0118679335,
				"y": 2.2602684392,
				"z": -3.4289560284,
				"element": "H" 
			},
			{
				"x": -2.9246221658,
				"y": 0.5572672055,
				"z": -4.8681976859,
				"element": "H" 
			},
			{
				"x": -1.0335174459,
				"y": -0.798206975,
				"z": -4.0121363986,
				"element": "H" 
			},
			{
				"x": 3.2241704436,
				"y": -1.6551510651,
				"z": 2.510707358,
				"element": "H" 
			}
		],
		 "valence_orbital": [ 
			{
				"type": "occ",
				"energy": -0.31271,
				"method": "rhf"
			},
			{
				"type": "occ",
				"energy": -0.28743,
				"method": "rhf"
			},
			{
				"type": "occ",
				"energy": -0.25597,
				"method": "rhf"
			},
			{
				"type": "occ",
				"energy": -0.24567,
				"method": "rhf"
			},
			{
				"type": "occ",
				"energy": -0.22352,
				"method": "rhf"
			},
			{
				"type": "unocc",
				"energy": -0.09396,
				"method": "rhf"
			},
			{
				"type": "unocc",
				"energy": -0.02497,
				"method": "rhf"
			},
			{
				"type": "unocc",
				"energy": -0.01031,
				"method": "rhf"
			},
			{
				"type": "unocc",
				"energy": 0.02697,
				"method": "rhf"
			},
			{
				"type": "unocc",
				"energy": 0.03075,
				"method": "rhf"
			}
		],
		"cosmo_sigma_profile": { 
			"-0.025": 0.0,
			"-0.024": 0.0,
			"-0.023": 0.0,
			"-0.022": 0.0,
			"-0.021": 0.0,
			"-0.02": 0.0810061306603,
			"-0.019": 0.975581362795,
			"-0.018": 0.962129315015,
			"-0.017": 0.961840379051,
			"-0.016": 0.97361296728,
			"-0.015": 0.321160783282,
			"-0.014": 0.409052445369,
			"-0.013": 1.13539499324,
			"-0.012": 1.19901485556,
			"-0.011": 0.554564733002,
			"-0.01": 0.554224550572,
			"-0.009": 0.832553433573,
			"-0.008": 1.76021945233,
			"-0.007": 8.61132078853,
			"-0.006": 11.8997709665,
			"-0.005": 13.824205139,
			"-0.004": 16.7323584017,
			"-0.003": 14.6214479489,
			"-0.002": 14.3497077655,
			"-0.001": 19.5924275516,
			"0.0": 16.0033071491,
			"0.001": 17.9372314356,
			"0.002": 16.5865876454,
			"0.003": 16.541664031,
			"0.004": 16.6584232584,
			"0.005": 7.85212879143,
			"0.006": 4.89536847595,
			"0.007": 4.90702478109,
			"0.008": 4.34878664937,
			"0.009": 5.38072446026,
			"0.01": 6.41978136895,
			"0.011": 3.98497541307,
			"0.012": 1.85505256478,
			"0.013": 1.27681733863,
			"0.014": 0.0243535475298,
			"0.015": 0.0,
			"0.016": 0.0,
			"0.017": 0.0,
			"0.018": 0.0,
			"0.019": 0.0,
			"0.02": 0.0,
			"0.021": 0.0,
			"0.022": 0.0,
			"0.023": 0.0,
			"0.024": 0.0,
			"0.025": 0.0
		}
	}
}
