{
	 "smiles": "OC(=O)C1=C(N(N=N1)C1=C(F)C=CC=C1)C(F)(F)F", 
	 "Tm": 407.15, 
	 "num_atms": 24, 
	 "gaussian": { 
		 "optdone": 1, 
		 "sigma_profile": "yes", 
		 "theory": "DFT", 
		 "functional": "B3LYP", 
		 "basiset": "6-31G**", 
		 "properties": { 
			 "R2extent": 5107.0621, 
			 "electric_dipole_moment_norm": 3.65470244206, 
			 "electric_quadrupole_moment_norm": 21.8524933863, 
			 "total_energy": -1098.09184629, 
			 "HOMO_LUMO_gap": 0.20384, 
			 "cosmo_polarized_energy": -15.13, 
			 "cosmo_cavitation_energy": 31.9, 
			 "cosmo_dispersion_energy": -22.04, 
			 "cosmo_repulsion_energy": 1.62, 
			 "cosmo_total_nonelectrostatic_energy": 11.48, 
			 "SMD_solvation_energy": 6.95 
		},
		"coords": [
			{
				"x": 4.3224218196,
				"y": -0.6138840356,
				"z": -0.8716018681,
				"element": "O" 
			},
			{
				"x": 3.3136896162,
				"y": -1.1436998527,
				"z": -0.1537077202,
				"element": "C" 
			},
			{
				"x": 3.3549136808,
				"y": -2.245537466,
				"z": 0.3516255895,
				"element": "O" 
			},
			{
				"x": 2.1491292794,
				"y": -0.2312170169,
				"z": -0.078242995,
				"element": "C" 
			},
			{
				"x": 1.0425091982,
				"y": -0.2888603904,
				"z": 0.7563320914,
				"element": "C" 
			},
			{
				"x": 0.2515811597,
				"y": 0.736122155,
				"z": 0.3311809009,
				"element": "N" 
			},
			{
				"x": 0.8515962729,
				"y": 1.3951534015,
				"z": -0.7047607286,
				"element": "N" 
			},
			{
				"x": 1.9845425952,
				"y": 0.818677383,
				"z": -0.9370686416,
				"element": "N" 
			},
			{
				"x": -1.0502692404,
				"y": 1.1456300711,
				"z": 0.7512227686,
				"element": "C" 
			},
			{
				"x": -1.2484635317,
				"y": 2.4581048443,
				"z": 1.1879454983,
				"element": "C" 
			},
			{
				"x": -0.2041834992,
				"y": 3.2934632399,
				"z": 1.2614604442,
				"element": "F" 
			},
			{
				"x": -2.5109631306,
				"y": 2.9027240998,
				"z": 1.5603209844,
				"element": "C" 
			},
			{
				"x": -3.5876440721,
				"y": 2.0178835334,
				"z": 1.5018001135,
				"element": "C" 
			},
			{
				"x": -3.4005588412,
				"y": 0.7011774878,
				"z": 1.073655658,
				"element": "C" 
			},
			{
				"x": -2.1335194872,
				"y": 0.2663248983,
				"z": 0.6911723018,
				"element": "C" 
			},
			{
				"x": 0.6758414885,
				"y": -1.196122911,
				"z": 1.8981305141,
				"element": "C" 
			},
			{
				"x": -0.0878522606,
				"y": -2.2257737613,
				"z": 1.4690592498,
				"element": "F" 
			},
			{
				"x": -0.0405235411,
				"y": -0.5273633096,
				"z": 2.8288736169,
				"element": "F" 
			},
			{
				"x": 1.7551545599,
				"y": -1.6952199713,
				"z": 2.5018054379,
				"element": "F" 
			},
			{
				"x": 5.0176093162,
				"y": -1.292793404,
				"z": -0.8927400309,
				"element": "H" 
			},
			{
				"x": -2.6267721903,
				"y": 3.9278695924,
				"z": 1.8940164133,
				"element": "H" 
			},
			{
				"x": -4.5755578778,
				"y": 2.3603033502,
				"z": 1.7931325538,
				"element": "H" 
			},
			{
				"x": -4.2398634188,
				"y": 0.0155003878,
				"z": 1.0288210483,
				"element": "H" 
			},
			{
				"x": -1.9700178955,
				"y": -0.7511623255,
				"z": 0.3535667996,
				"element": "H" 
			}
		],
		 "valence_orbital": [ 
			{
				"type": "occ",
				"energy": -0.29851,
				"method": "rhf"
			},
			{
				"type": "occ",
				"energy": -0.29587,
				"method": "rhf"
			},
			{
				"type": "occ",
				"energy": -0.28584,
				"method": "rhf"
			},
			{
				"type": "occ",
				"energy": -0.27929,
				"method": "rhf"
			},
			{
				"type": "occ",
				"energy": -0.26874,
				"method": "rhf"
			},
			{
				"type": "unocc",
				"energy": -0.0649,
				"method": "rhf"
			},
			{
				"type": "unocc",
				"energy": -0.03955,
				"method": "rhf"
			},
			{
				"type": "unocc",
				"energy": -0.02665,
				"method": "rhf"
			},
			{
				"type": "unocc",
				"energy": -0.02059,
				"method": "rhf"
			},
			{
				"type": "unocc",
				"energy": 0.05991,
				"method": "rhf"
			}
		],
		"cosmo_sigma_profile": { 
			"-0.025": 0.0,
			"-0.024": 0.0,
			"-0.023": 0.0,
			"-0.022": 0.0,
			"-0.021": 0.0,
			"-0.02": 0.083723330833,
			"-0.019": 0.795499598241,
			"-0.018": 0.859048199446,
			"-0.017": 1.07369757164,
			"-0.016": 0.896768104439,
			"-0.015": 0.477059232406,
			"-0.014": 0.181090244359,
			"-0.013": 1.12185296303,
			"-0.012": 1.01696152923,
			"-0.011": 0.565546919983,
			"-0.01": 0.609252572084,
			"-0.009": 1.80592992892,
			"-0.008": 5.69517520217,
			"-0.007": 10.9537343404,
			"-0.006": 13.9938601686,
			"-0.005": 13.529112409,
			"-0.004": 13.7529387761,
			"-0.003": 11.6982520888,
			"-0.002": 14.8724742769,
			"-0.001": 14.8849522665,
			"0.0": 19.4516033617,
			"0.001": 29.7487260389,
			"0.002": 32.9855099795,
			"0.003": 15.8459764893,
			"0.004": 7.58835908087,
			"0.005": 4.90471907083,
			"0.006": 5.19843349627,
			"0.007": 6.00767920519,
			"0.008": 6.50286375933,
			"0.009": 5.49701903,
			"0.01": 6.63307307403,
			"0.011": 5.44189218456,
			"0.012": 1.59005211261,
			"0.013": 1.32974819029,
			"0.014": 0.284238052508,
			"0.015": 0.0,
			"0.016": 0.0,
			"0.017": 0.0,
			"0.018": 0.0,
			"0.019": 0.0,
			"0.02": 0.0,
			"0.021": 0.0,
			"0.022": 0.0,
			"0.023": 0.0,
			"0.024": 0.0,
			"0.025": 0.0
		}
	}
}
