{
	 "smiles": "CC(C)(C)CO", 
	 "Tm": 325.15, 
	 "num_atms": 18, 
	 "gaussian": { 
		 "optdone": 1, 
		 "sigma_profile": "yes", 
		 "theory": "DFT", 
		 "functional": "B3LYP", 
		 "basiset": "6-31G**", 
		 "properties": { 
			 "R2extent": 813.1409, 
			 "electric_dipole_moment_norm": 1.43504364394, 
			 "electric_quadrupole_moment_norm": 3.84166303572, 
			 "total_energy": -272.992470074, 
			 "HOMO_LUMO_gap": 0.33612, 
			 "cosmo_polarized_energy": -5.26, 
			 "cosmo_cavitation_energy": 19.26, 
			 "cosmo_dispersion_energy": -14.04, 
			 "cosmo_repulsion_energy": 1.21, 
			 "cosmo_total_nonelectrostatic_energy": 6.43, 
			 "SMD_solvation_energy": 3.75 
		},
		"coords": [
			{
				"x": -0.5123766013,
				"y": -0.1167515945,
				"z": -1.7004709801,
				"element": "C" 
			},
			{
				"x": -0.5619420125,
				"y": 1.0092530655,
				"z": -0.6507807098,
				"element": "C" 
			},
			{
				"x": -1.9384324136,
				"y": 1.6974837582,
				"z": -0.6870943916,
				"element": "C" 
			},
			{
				"x": 0.5460747377,
				"y": 2.0406731466,
				"z": -0.9348759132,
				"element": "C" 
			},
			{
				"x": -0.3634518624,
				"y": 0.4136298777,
				"z": 0.753439319,
				"element": "C" 
			},
			{
				"x": 0.9041299911,
				"y": -0.2311666722,
				"z": 0.8192227981,
				"element": "O" 
			},
			{
				"x": 0.4426716781,
				"y": -0.6462865962,
				"z": -1.6561516544,
				"element": "H" 
			},
			{
				"x": -1.3121952294,
				"y": -0.8476336572,
				"z": -1.53173057,
				"element": "H" 
			},
			{
				"x": -0.6377244227,
				"y": 0.2883933668,
				"z": -2.7107261558,
				"element": "H" 
			},
			{
				"x": -2.0038062148,
				"y": 2.5029500573,
				"z": 0.0537969568,
				"element": "H" 
			},
			{
				"x": -2.1233996558,
				"y": 2.1382075324,
				"z": -1.6726552092,
				"element": "H" 
			},
			{
				"x": -2.7479191029,
				"y": 0.9863215331,
				"z": -0.484743578,
				"element": "H" 
			},
			{
				"x": 1.5336244707,
				"y": 1.5774119292,
				"z": -0.866846255,
				"element": "H" 
			},
			{
				"x": 0.4315683682,
				"y": 2.4674146541,
				"z": -1.9375059412,
				"element": "H" 
			},
			{
				"x": 0.5096216426,
				"y": 2.8661544991,
				"z": -0.2140251959,
				"element": "H" 
			},
			{
				"x": -0.4331168432,
				"y": 1.2214916158,
				"z": 1.5010824495,
				"element": "H" 
			},
			{
				"x": -1.1787773568,
				"y": -0.2994257458,
				"z": 0.9614209905,
				"element": "H" 
			},
			{
				"x": 1.0099508271,
				"y": -0.5973207699,
				"z": 1.7051440403,
				"element": "H" 
			}
		],
		 "valence_orbital": [ 
			{
				"type": "occ",
				"energy": -0.35465,
				"method": "rhf"
			},
			{
				"type": "occ",
				"energy": -0.31782,
				"method": "rhf"
			},
			{
				"type": "occ",
				"energy": -0.31679,
				"method": "rhf"
			},
			{
				"type": "occ",
				"energy": -0.30346,
				"method": "rhf"
			},
			{
				"type": "occ",
				"energy": -0.2628,
				"method": "rhf"
			},
			{
				"type": "unocc",
				"energy": 0.07332,
				"method": "rhf"
			},
			{
				"type": "unocc",
				"energy": 0.09368,
				"method": "rhf"
			},
			{
				"type": "unocc",
				"energy": 0.13848,
				"method": "rhf"
			},
			{
				"type": "unocc",
				"energy": 0.14127,
				"method": "rhf"
			},
			{
				"type": "unocc",
				"energy": 0.15344,
				"method": "rhf"
			}
		],
		"cosmo_sigma_profile": { 
			"-0.025": 0.0,
			"-0.024": 0.0,
			"-0.023": 0.0,
			"-0.022": 0.0,
			"-0.021": 0.0,
			"-0.02": 0.0,
			"-0.019": 0.0,
			"-0.018": 0.0,
			"-0.017": 0.0,
			"-0.016": 0.180138008662,
			"-0.015": 0.796298593137,
			"-0.014": 1.25989488448,
			"-0.013": 0.913218842433,
			"-0.012": 1.07801464362,
			"-0.011": 0.647446413893,
			"-0.01": 0.493825782982,
			"-0.009": 1.14358766779,
			"-0.008": 0.404950761327,
			"-0.007": 1.06578341586,
			"-0.006": 1.20966334405,
			"-0.005": 0.827613968914,
			"-0.004": 0.689752826044,
			"-0.003": 8.58768574791,
			"-0.002": 28.1637015739,
			"-0.001": 22.8573491446,
			"0.0": 18.0416125094,
			"0.001": 19.448612481,
			"0.002": 19.1988273313,
			"0.003": 2.33325917712,
			"0.004": 2.62177317504,
			"0.005": 1.74457690844,
			"0.006": 1.68973571944,
			"0.007": 1.99906903748,
			"0.008": 1.49579544096,
			"0.009": 1.79183742473,
			"0.01": 1.36113819716,
			"0.011": 2.10314908408,
			"0.012": 2.20679189542,
			"0.013": 0.857501502966,
			"0.014": 0.0260958458574,
			"0.015": 0.0,
			"0.016": 0.0,
			"0.017": 0.0,
			"0.018": 0.0,
			"0.019": 0.0,
			"0.02": 0.0,
			"0.021": 0.0,
			"0.022": 0.0,
			"0.023": 0.0,
			"0.024": 0.0,
			"0.025": 0.0
		}
	}
}
