{
	 "smiles": "CC1CCC2C(C)(C)C3CC12CCC3(C)O", 
	 "Tm": 359.15, 
	 "num_atms": 42, 
	 "gaussian": { 
		 "optdone": 1, 
		 "sigma_profile": "yes", 
		 "theory": "DFT", 
		 "functional": "B3LYP", 
		 "basiset": "6-31G**", 
		 "properties": { 
			 "R2extent": 3684.8391, 
			 "electric_dipole_moment_norm": 1.29261439726, 
			 "electric_quadrupole_moment_norm": 6.63768625426, 
			 "total_energy": -662.503688489, 
			 "HOMO_LUMO_gap": 0.32006, 
			 "cosmo_polarized_energy": -5.7, 
			 "cosmo_cavitation_energy": 35.24, 
			 "cosmo_dispersion_energy": -25.59, 
			 "cosmo_repulsion_energy": 1.9, 
			 "cosmo_total_nonelectrostatic_energy": 11.55, 
			 "SMD_solvation_energy": 5.19 
		},
		"coords": [
			{
				"x": 1.7620321161,
				"y": 2.4758007733,
				"z": 1.0279574612,
				"element": "C" 
			},
			{
				"x": 1.2901432104,
				"y": 1.0611615153,
				"z": 1.4003282289,
				"element": "C" 
			},
			{
				"x": -0.1055727869,
				"y": 1.0894006795,
				"z": 2.0663521367,
				"element": "C" 
			},
			{
				"x": -1.0998388506,
				"y": 1.0932527537,
				"z": 0.8875957512,
				"element": "C" 
			},
			{
				"x": -0.4252445964,
				"y": 0.2643651965,
				"z": -0.2420742594,
				"element": "C" 
			},
			{
				"x": -0.9525141814,
				"y": -1.1960550047,
				"z": -0.55860487,
				"element": "C" 
			},
			{
				"x": -1.8912156582,
				"y": -1.7633564714,
				"z": 0.5338206496,
				"element": "C" 
			},
			{
				"x": -1.7775400706,
				"y": -1.1990032471,
				"z": -1.8596861735,
				"element": "C" 
			},
			{
				"x": 0.3661480973,
				"y": -2.0658087822,
				"z": -0.5329912143,
				"element": "C" 
			},
			{
				"x": 1.1432541692,
				"y": -1.3877642223,
				"z": 0.6107061997,
				"element": "C" 
			},
			{
				"x": 1.0767346859,
				"y": 0.0995017361,
				"z": 0.1965033192,
				"element": "C" 
			},
			{
				"x": 2.046255916,
				"y": 0.2769215991,
				"z": -0.9918295375,
				"element": "C" 
			},
			{
				"x": 1.6669692413,
				"y": -0.6224063575,
				"z": -2.1873871137,
				"element": "C" 
			},
			{
				"x": 1.2946613811,
				"y": -2.0653250326,
				"z": -1.7859994079,
				"element": "C" 
			},
			{
				"x": 0.7517089337,
				"y": -2.868957348,
				"z": -2.9761148975,
				"element": "C" 
			},
			{
				"x": 2.4811338784,
				"y": -2.7552232281,
				"z": -1.3287845524,
				"element": "O" 
			},
			{
				"x": 1.8208374586,
				"y": 3.1027167044,
				"z": 1.9244725549,
				"element": "H" 
			},
			{
				"x": 1.0781328674,
				"y": 2.9688435262,
				"z": 0.327517522,
				"element": "H" 
			},
			{
				"x": 2.7550238778,
				"y": 2.4673179956,
				"z": 0.5683384287,
				"element": "H" 
			},
			{
				"x": 2.0342546022,
				"y": 0.6325714894,
				"z": 2.0850095289,
				"element": "H" 
			},
			{
				"x": -0.2489722644,
				"y": 0.1924053778,
				"z": 2.6795799437,
				"element": "H" 
			},
			{
				"x": -0.2356146001,
				"y": 1.9496319102,
				"z": 2.7325640284,
				"element": "H" 
			},
			{
				"x": -1.2481881205,
				"y": 2.1210008416,
				"z": 0.5376288258,
				"element": "H" 
			},
			{
				"x": -2.0876814027,
				"y": 0.7260146948,
				"z": 1.1766078426,
				"element": "H" 
			},
			{
				"x": -0.4861107322,
				"y": 0.8437717931,
				"z": -1.1697524207,
				"element": "H" 
			},
			{
				"x": -2.1494707831,
				"y": -2.8015029399,
				"z": 0.2971828127,
				"element": "H" 
			},
			{
				"x": -1.4480681372,
				"y": -1.7540477024,
				"z": 1.5327646747,
				"element": "H" 
			},
			{
				"x": -2.8291118101,
				"y": -1.2016803124,
				"z": 0.5828173537,
				"element": "H" 
			},
			{
				"x": -1.2426754914,
				"y": -0.7635191013,
				"z": -2.7072700442,
				"element": "H" 
			},
			{
				"x": -2.0956891211,
				"y": -2.2096322069,
				"z": -2.1381857682,
				"element": "H" 
			},
			{
				"x": -2.685302977,
				"y": -0.6010808818,
				"z": -1.7161638594,
				"element": "H" 
			},
			{
				"x": 0.1305203609,
				"y": -3.1140171039,
				"z": -0.3144002456,
				"element": "H" 
			},
			{
				"x": 2.1666390169,
				"y": -1.7547377462,
				"z": 0.6989946703,
				"element": "H" 
			},
			{
				"x": 0.6472580376,
				"y": -1.5565420052,
				"z": 1.5707575443,
				"element": "H" 
			},
			{
				"x": 3.0640403429,
				"y": 0.0364298779,
				"z": -0.6598150902,
				"element": "H" 
			},
			{
				"x": 2.061099824,
				"y": 1.3181353886,
				"z": -1.3328208051,
				"element": "H" 
			},
			{
				"x": 2.4938220065,
				"y": -0.6572382174,
				"z": -2.9107035249,
				"element": "H" 
			},
			{
				"x": 0.8240821104,
				"y": -0.1742441042,
				"z": -2.724967781,
				"element": "H" 
			},
			{
				"x": 1.5140248716,
				"y": -2.9204405349,
				"z": -3.7649135452,
				"element": "H" 
			},
			{
				"x": -0.1443296108,
				"y": -2.4377645848,
				"z": -3.4225343427,
				"element": "H" 
			},
			{
				"x": 0.5277475612,
				"y": -3.8928783965,
				"z": -2.6615868789,
				"element": "H" 
			},
			{
				"x": 3.078716627,
				"y": -2.8210183213,
				"z": -2.0856131449,
				"element": "H" 
			}
		],
		 "valence_orbital": [ 
			{
				"type": "occ",
				"energy": -0.28995,
				"method": "rhf"
			},
			{
				"type": "occ",
				"energy": -0.28378,
				"method": "rhf"
			},
			{
				"type": "occ",
				"energy": -0.28168,
				"method": "rhf"
			},
			{
				"type": "occ",
				"energy": -0.27639,
				"method": "rhf"
			},
			{
				"type": "occ",
				"energy": -0.25341,
				"method": "rhf"
			},
			{
				"type": "unocc",
				"energy": 0.06665,
				"method": "rhf"
			},
			{
				"type": "unocc",
				"energy": 0.08501,
				"method": "rhf"
			},
			{
				"type": "unocc",
				"energy": 0.09329,
				"method": "rhf"
			},
			{
				"type": "unocc",
				"energy": 0.1021,
				"method": "rhf"
			},
			{
				"type": "unocc",
				"energy": 0.11004,
				"method": "rhf"
			}
		],
		"cosmo_sigma_profile": { 
			"-0.025": 0.0,
			"-0.024": 0.0,
			"-0.023": 0.0,
			"-0.022": 0.0,
			"-0.021": 0.0,
			"-0.02": 0.0,
			"-0.019": 0.0,
			"-0.018": 0.0,
			"-0.017": 0.0,
			"-0.016": 0.0,
			"-0.015": 0.0104162422974,
			"-0.014": 0.485771667479,
			"-0.013": 1.07783021924,
			"-0.012": 0.544321093276,
			"-0.011": 1.19556569298,
			"-0.01": 1.06867759253,
			"-0.009": 0.928529459717,
			"-0.008": 0.981930230721,
			"-0.007": 0.843575273527,
			"-0.006": 1.17520286032,
			"-0.005": 2.31461175099,
			"-0.004": 4.33728037813,
			"-0.003": 13.1796204404,
			"-0.002": 34.7050961527,
			"-0.001": 50.9256025035,
			"0.0": 51.181733979,
			"0.001": 51.7444582578,
			"0.002": 31.2136563219,
			"0.003": 4.26337579964,
			"0.004": 1.28770181576,
			"0.005": 1.90057603008,
			"0.006": 1.73876937429,
			"0.007": 1.25844542282,
			"0.008": 2.19564805825,
			"0.009": 1.5890169968,
			"0.01": 0.985122961382,
			"0.011": 1.15251652721,
			"0.012": 1.06070801675,
			"0.013": 1.40395207682,
			"0.014": 0.79728837277,
			"0.015": 0.690570531946,
			"0.016": 0.122614605093,
			"0.017": 0.0,
			"0.018": 0.0,
			"0.019": 0.0,
			"0.02": 0.0,
			"0.021": 0.0,
			"0.022": 0.0,
			"0.023": 0.0,
			"0.024": 0.0,
			"0.025": 0.0
		}
	}
}
