{
	 "smiles": "CC1=CC=C(NC(=O)C(=O)NN)C=C1", 
	 "Tm": 478.15, 
	 "num_atms": 25, 
	 "gaussian": { 
		 "optdone": 1, 
		 "sigma_profile": "yes", 
		 "theory": "DFT", 
		 "functional": "B3LYP", 
		 "basiset": "6-31G**", 
		 "properties": { 
			 "R2extent": 4265.0835, 
			 "electric_dipole_moment_norm": 3.58740979678, 
			 "electric_quadrupole_moment_norm": 11.334761185, 
			 "total_energy": -664.276208962, 
			 "HOMO_LUMO_gap": 0.18874, 
			 "cosmo_polarized_energy": -17.57, 
			 "cosmo_cavitation_energy": 29.67, 
			 "cosmo_dispersion_energy": -21.16, 
			 "cosmo_repulsion_energy": 1.7, 
			 "cosmo_total_nonelectrostatic_energy": 10.21, 
			 "SMD_solvation_energy": 6.74 
		},
		"coords": [
			{
				"x": -2.9910708844,
				"y": 1.3104504874,
				"z": -1.876072658,
				"element": "C" 
			},
			{
				"x": -2.0869674565,
				"y": 1.269167648,
				"z": -0.6669332043,
				"element": "C" 
			},
			{
				"x": -1.6118129781,
				"y": 0.0525455676,
				"z": -0.1598913752,
				"element": "C" 
			},
			{
				"x": -0.8115485539,
				"y": 0.000204059,
				"z": 0.9785103236,
				"element": "C" 
			},
			{
				"x": -0.4345856957,
				"y": 1.1838619395,
				"z": 1.6213033608,
				"element": "C" 
			},
			{
				"x": 0.3589680889,
				"y": 1.179977313,
				"z": 2.7988669247,
				"element": "N" 
			},
			{
				"x": 1.4274698592,
				"y": 0.4088218464,
				"z": 3.1483957311,
				"element": "C" 
			},
			{
				"x": 1.9343288329,
				"y": 0.47618476,
				"z": 4.2675201187,
				"element": "O" 
			},
			{
				"x": 2.0865977395,
				"y": -0.4479735837,
				"z": 2.0524937237,
				"element": "C" 
			},
			{
				"x": 2.3807588356,
				"y": 0.0386203235,
				"z": 0.9703283278,
				"element": "O" 
			},
			{
				"x": 2.400529264,
				"y": -1.7291810045,
				"z": 2.4025456614,
				"element": "N" 
			},
			{
				"x": 2.3120637572,
				"y": -2.3125443127,
				"z": 3.6856635227,
				"element": "N" 
			},
			{
				"x": -0.900177957,
				"y": 2.4073634225,
				"z": 1.1290229488,
				"element": "C" 
			},
			{
				"x": -1.7196285779,
				"y": 2.4429766921,
				"z": 0.0033630349,
				"element": "C" 
			},
			{
				"x": -4.0464260723,
				"y": 1.2224876504,
				"z": -1.588207033,
				"element": "H" 
			},
			{
				"x": -2.77356979,
				"y": 0.4897006449,
				"z": -2.5660962289,
				"element": "H" 
			},
			{
				"x": -2.8816578079,
				"y": 2.250682186,
				"z": -2.4247056088,
				"element": "H" 
			},
			{
				"x": -1.8844633804,
				"y": -0.8758576638,
				"z": -0.655103745,
				"element": "H" 
			},
			{
				"x": -0.4841599083,
				"y": -0.9589705106,
				"z": 1.3658177098,
				"element": "H" 
			},
			{
				"x": 0.121330388,
				"y": 1.8535931332,
				"z": 3.5182001289,
				"element": "H" 
			},
			{
				"x": 3.0068879021,
				"y": -2.2118944323,
				"z": 1.7499515249,
				"element": "H" 
			},
			{
				"x": 2.5541533139,
				"y": -1.5977600743,
				"z": 4.3694766846,
				"element": "H" 
			},
			{
				"x": 1.3471294394,
				"y": -2.5880536832,
				"z": 3.8573895023,
				"element": "H" 
			},
			{
				"x": -0.6046848952,
				"y": 3.3308211945,
				"z": 1.6195401039,
				"element": "H" 
			},
			{
				"x": -2.068863463,
				"y": 3.4033763972,
				"z": -0.3670794795,
				"element": "H" 
			}
		],
		 "valence_orbital": [ 
			{
				"type": "occ",
				"energy": -0.29212,
				"method": "rhf"
			},
			{
				"type": "occ",
				"energy": -0.26141,
				"method": "rhf"
			},
			{
				"type": "occ",
				"energy": -0.2566,
				"method": "rhf"
			},
			{
				"type": "occ",
				"energy": -0.23971,
				"method": "rhf"
			},
			{
				"type": "occ",
				"energy": -0.22759,
				"method": "rhf"
			},
			{
				"type": "unocc",
				"energy": -0.03885,
				"method": "rhf"
			},
			{
				"type": "unocc",
				"energy": -0.01047,
				"method": "rhf"
			},
			{
				"type": "unocc",
				"energy": 0.00045,
				"method": "rhf"
			},
			{
				"type": "unocc",
				"energy": 0.0567,
				"method": "rhf"
			},
			{
				"type": "unocc",
				"energy": 0.08008,
				"method": "rhf"
			}
		],
		"cosmo_sigma_profile": { 
			"-0.025": 0.0,
			"-0.024": 0.0,
			"-0.023": 0.0,
			"-0.022": 0.0,
			"-0.021": 0.0,
			"-0.02": 0.0,
			"-0.019": 0.0,
			"-0.018": 0.0,
			"-0.017": 0.0,
			"-0.016": 0.0508617829453,
			"-0.015": 0.952231289755,
			"-0.014": 1.92658457927,
			"-0.013": 2.29482253339,
			"-0.012": 2.92154226733,
			"-0.011": 4.05243513054,
			"-0.01": 3.1462555413,
			"-0.009": 4.42562148872,
			"-0.008": 5.54340904963,
			"-0.007": 4.88036474758,
			"-0.006": 7.53821130773,
			"-0.005": 12.4976690913,
			"-0.004": 19.025102556,
			"-0.003": 15.4038290366,
			"-0.002": 17.3561466853,
			"-0.001": 17.7381575952,
			"0.0": 18.0008655807,
			"0.001": 14.2098463283,
			"0.002": 10.1931137378,
			"0.003": 9.74291483785,
			"0.004": 9.79353767456,
			"0.005": 10.8640363627,
			"0.006": 6.03724395358,
			"0.007": 3.09576127403,
			"0.008": 4.17268247244,
			"0.009": 3.4335626473,
			"0.01": 4.3442019511,
			"0.011": 5.50244061067,
			"0.012": 8.80560433382,
			"0.013": 5.14054485893,
			"0.014": 0.840994603787,
			"0.015": 0.336688717128,
			"0.016": 0.520845638775,
			"0.017": 0.0,
			"0.018": 0.0,
			"0.019": 0.0,
			"0.02": 0.0,
			"0.021": 0.0,
			"0.022": 0.0,
			"0.023": 0.0,
			"0.024": 0.0,
			"0.025": 0.0
		}
	}
}
