{
	 "smiles": "OC(=O)CC1=C(Cl)C(=CC=C1)C(F)(F)F", 
	 "Tm": 405.15, 
	 "num_atms": 21, 
	 "gaussian": { 
		 "optdone": 1, 
		 "sigma_profile": "yes", 
		 "theory": "DFT", 
		 "functional": "B3LYP", 
		 "basiset": "6-31G**", 
		 "properties": { 
			 "R2extent": 3779.3678, 
			 "electric_dipole_moment_norm": 3.36589556879, 
			 "electric_quadrupole_moment_norm": 27.4592400031, 
			 "total_energy": -1256.74621833, 
			 "HOMO_LUMO_gap": 0.21348, 
			 "cosmo_polarized_energy": -12.43, 
			 "cosmo_cavitation_energy": 28.25, 
			 "cosmo_dispersion_energy": -20.13, 
			 "cosmo_repulsion_energy": 1.5, 
			 "cosmo_total_nonelectrostatic_energy": 9.62, 
			 "SMD_solvation_energy": 6.79 
		},
		"coords": [
			{
				"x": -0.0651510743,
				"y": -3.9055524007,
				"z": -0.4571516415,
				"element": "O" 
			},
			{
				"x": -1.337853221,
				"y": -3.719525496,
				"z": -0.0401609978,
				"element": "C" 
			},
			{
				"x": -1.9242827305,
				"y": -4.5819525431,
				"z": 0.5629597767,
				"element": "O" 
			},
			{
				"x": -1.9635613884,
				"y": -2.3536645945,
				"z": -0.3674649068,
				"element": "C" 
			},
			{
				"x": -1.3800729647,
				"y": -1.2352481634,
				"z": 0.4741564292,
				"element": "C" 
			},
			{
				"x": -0.3017894174,
				"y": -0.437650578,
				"z": 0.0644333461,
				"element": "C" 
			},
			{
				"x": 0.4336631064,
				"y": -0.7503964638,
				"z": -1.5127791005,
				"element": "Cl" 
			},
			{
				"x": 0.2063643781,
				"y": 0.5903994893,
				"z": 0.8750881977,
				"element": "C" 
			},
			{
				"x": -0.3724056007,
				"y": 0.8100750454,
				"z": 2.1266118333,
				"element": "C" 
			},
			{
				"x": -1.4347525608,
				"y": 0.0209232287,
				"z": 2.561560738,
				"element": "C" 
			},
			{
				"x": -1.9285972278,
				"y": -0.986534068,
				"z": 1.7415942615,
				"element": "C" 
			},
			{
				"x": 1.3627071237,
				"y": 1.4651730492,
				"z": 0.4386203109,
				"element": "C" 
			},
			{
				"x": 2.4836000046,
				"y": 0.7464337215,
				"z": 0.2264080042,
				"element": "F" 
			},
			{
				"x": 1.6563409364,
				"y": 2.3904296177,
				"z": 1.377067808,
				"element": "F" 
			},
			{
				"x": 1.0851578302,
				"y": 2.1310214709,
				"z": -0.7009425376,
				"element": "F" 
			},
			{
				"x": 0.2629577217,
				"y": -3.124770657,
				"z": -0.9317023994,
				"element": "H" 
			},
			{
				"x": -3.0290095491,
				"y": -2.4498323731,
				"z": -0.1559272752,
				"element": "H" 
			},
			{
				"x": -1.8459448863,
				"y": -2.1393446525,
				"z": -1.4335945286,
				"element": "H" 
			},
			{
				"x": 0.0190714371,
				"y": 1.602166309,
				"z": 2.7525861576,
				"element": "H" 
			},
			{
				"x": -1.8760771317,
				"y": 0.1953107993,
				"z": 3.5372859966,
				"element": "H" 
			},
			{
				"x": -2.7561647856,
				"y": -1.6051607409,
				"z": 2.0760505275,
				"element": "H" 
			}
		],
		 "valence_orbital": [ 
			{
				"type": "occ",
				"energy": -0.3439,
				"method": "rhf"
			},
			{
				"type": "occ",
				"energy": -0.31921,
				"method": "rhf"
			},
			{
				"type": "occ",
				"energy": -0.2969,
				"method": "rhf"
			},
			{
				"type": "occ",
				"energy": -0.28187,
				"method": "rhf"
			},
			{
				"type": "occ",
				"energy": -0.26669,
				"method": "rhf"
			},
			{
				"type": "unocc",
				"energy": -0.05321,
				"method": "rhf"
			},
			{
				"type": "unocc",
				"energy": -0.0457,
				"method": "rhf"
			},
			{
				"type": "unocc",
				"energy": -0.00651,
				"method": "rhf"
			},
			{
				"type": "unocc",
				"energy": 0.01338,
				"method": "rhf"
			},
			{
				"type": "unocc",
				"energy": 0.07376,
				"method": "rhf"
			}
		],
		"cosmo_sigma_profile": { 
			"-0.025": 0.0,
			"-0.024": 0.0,
			"-0.023": 0.0,
			"-0.022": 0.0,
			"-0.021": 0.0,
			"-0.02": 0.0,
			"-0.019": 0.0,
			"-0.018": 0.0,
			"-0.017": 0.0,
			"-0.016": 0.0,
			"-0.015": 0.0,
			"-0.014": 0.0013945885885,
			"-0.013": 0.333400996079,
			"-0.012": 1.19913396333,
			"-0.011": 1.50079364347,
			"-0.01": 1.73444759589,
			"-0.009": 2.05688258831,
			"-0.008": 5.58181830066,
			"-0.007": 11.2696750898,
			"-0.006": 12.385302926,
			"-0.005": 9.36666000551,
			"-0.004": 12.8718875231,
			"-0.003": 14.8313940504,
			"-0.002": 12.8387475002,
			"-0.001": 15.3947660678,
			"0.0": 17.8809207107,
			"0.001": 18.9590733255,
			"0.002": 30.9908428989,
			"0.003": 25.3033716531,
			"0.004": 5.48061669837,
			"0.005": 2.12408546748,
			"0.006": 1.01751743268,
			"0.007": 2.4624572607,
			"0.008": 3.31285622922,
			"0.009": 3.8878800113,
			"0.01": 4.65213819717,
			"0.011": 5.25250458326,
			"0.012": 4.79292445816,
			"0.013": 1.10080184742,
			"0.014": 0.0,
			"0.015": 0.0,
			"0.016": 0.0,
			"0.017": 0.0,
			"0.018": 0.0,
			"0.019": 0.0,
			"0.02": 0.0,
			"0.021": 0.0,
			"0.022": 0.0,
			"0.023": 0.0,
			"0.024": 0.0,
			"0.025": 0.0
		}
	}
}
