{
	 "smiles": "CC1(C)NCCNC1=O", 
	 "Tm": 387.15, 
	 "num_atms": 21, 
	 "gaussian": { 
		 "optdone": 1, 
		 "sigma_profile": "yes", 
		 "theory": "DFT", 
		 "functional": "B3LYP", 
		 "basiset": "6-31G**", 
		 "properties": { 
			 "R2extent": 1307.9438, 
			 "electric_dipole_moment_norm": 3.52783431867, 
			 "electric_quadrupole_moment_norm": 10.3891866891, 
			 "total_energy": -420.61195515, 
			 "HOMO_LUMO_gap": 0.24408, 
			 "cosmo_polarized_energy": -12.77, 
			 "cosmo_cavitation_energy": 22.19, 
			 "cosmo_dispersion_energy": -16.58, 
			 "cosmo_repulsion_energy": 1.36, 
			 "cosmo_total_nonelectrostatic_energy": 6.97, 
			 "SMD_solvation_energy": 1.86 
		},
		"coords": [
			{
				"x": 0.0335534464,
				"y": 1.0456714764,
				"z": -1.0534538174,
				"element": "C" 
			},
			{
				"x": -0.0973888737,
				"y": 0.2376709404,
				"z": 0.2458776365,
				"element": "C" 
			},
			{
				"x": 1.2629338413,
				"y": 0.2064768087,
				"z": 0.9739079265,
				"element": "C" 
			},
			{
				"x": -1.0984494171,
				"y": 0.9045588102,
				"z": 1.1060250897,
				"element": "N" 
			},
			{
				"x": -1.6899930518,
				"y": 0.0296367474,
				"z": 2.1124800208,
				"element": "C" 
			},
			{
				"x": -2.3883864491,
				"y": -1.1825422213,
				"z": 1.493018365,
				"element": "C" 
			},
			{
				"x": -1.4906870289,
				"y": -1.81345792,
				"z": 0.5331398323,
				"element": "N" 
			},
			{
				"x": -0.4518027722,
				"y": -1.222152161,
				"z": -0.1333314793,
				"element": "C" 
			},
			{
				"x": 0.1983369515,
				"y": -1.8395797181,
				"z": -0.9710374917,
				"element": "O" 
			},
			{
				"x": 0.3440380186,
				"y": 2.0692510047,
				"z": -0.8235009116,
				"element": "H" 
			},
			{
				"x": 0.7673217367,
				"y": 0.5783127175,
				"z": -1.7112442277,
				"element": "H" 
			},
			{
				"x": -0.9213551331,
				"y": 1.0857326765,
				"z": -1.591415962,
				"element": "H" 
			},
			{
				"x": 2.0074563326,
				"y": -0.2972985637,
				"z": 0.3532918758,
				"element": "H" 
			},
			{
				"x": 1.2001120238,
				"y": -0.3305282356,
				"z": 1.9257023934,
				"element": "H" 
			},
			{
				"x": 1.5873134521,
				"y": 1.2298676371,
				"z": 1.1813246832,
				"element": "H" 
			},
			{
				"x": -1.8397034399,
				"y": 1.2823423776,
				"z": 0.5193745834,
				"element": "H" 
			},
			{
				"x": -0.8995610275,
				"y": -0.3110933509,
				"z": 2.7907491461,
				"element": "H" 
			},
			{
				"x": -2.4039113432,
				"y": 0.6030008785,
				"z": 2.7132573831,
				"element": "H" 
			},
			{
				"x": -3.3227918216,
				"y": -0.8643134894,
				"z": 1.0032578139,
				"element": "H" 
			},
			{
				"x": -2.66137476,
				"y": -1.9127373127,
				"z": 2.2652055973,
				"element": "H" 
			},
			{
				"x": -1.6899606849,
				"y": -2.7537191022,
				"z": 0.2156715428,
				"element": "H" 
			}
		],
		 "valence_orbital": [ 
			{
				"type": "occ",
				"energy": -0.34532,
				"method": "rhf"
			},
			{
				"type": "occ",
				"energy": -0.33143,
				"method": "rhf"
			},
			{
				"type": "occ",
				"energy": -0.26458,
				"method": "rhf"
			},
			{
				"type": "occ",
				"energy": -0.24551,
				"method": "rhf"
			},
			{
				"type": "occ",
				"energy": -0.21297,
				"method": "rhf"
			},
			{
				"type": "unocc",
				"energy": 0.03111,
				"method": "rhf"
			},
			{
				"type": "unocc",
				"energy": 0.07064,
				"method": "rhf"
			},
			{
				"type": "unocc",
				"energy": 0.10331,
				"method": "rhf"
			},
			{
				"type": "unocc",
				"energy": 0.10776,
				"method": "rhf"
			},
			{
				"type": "unocc",
				"energy": 0.11581,
				"method": "rhf"
			}
		],
		"cosmo_sigma_profile": { 
			"-0.025": 0.0,
			"-0.024": 0.0,
			"-0.023": 0.0,
			"-0.022": 0.0,
			"-0.021": 0.0,
			"-0.02": 0.0,
			"-0.019": 0.0,
			"-0.018": 0.0,
			"-0.017": 0.0,
			"-0.016": 0.0,
			"-0.015": 0.0,
			"-0.014": 0.100193932045,
			"-0.013": 0.923307658998,
			"-0.012": 1.26070799897,
			"-0.011": 0.968634543263,
			"-0.01": 2.07894062873,
			"-0.009": 2.22995207367,
			"-0.008": 2.62362333743,
			"-0.007": 3.6134678546,
			"-0.006": 3.73097208191,
			"-0.005": 11.1756598218,
			"-0.004": 17.0032033794,
			"-0.003": 20.3607182466,
			"-0.002": 16.9747304588,
			"-0.001": 15.1432049919,
			"0.0": 15.12594683,
			"0.001": 14.6201711603,
			"0.002": 5.89487859119,
			"0.003": 4.24462714284,
			"0.004": 3.55151184391,
			"0.005": 2.1174325695,
			"0.006": 2.5529854672,
			"0.007": 1.83319928789,
			"0.008": 2.56169413406,
			"0.009": 2.2327246246,
			"0.01": 2.2782677121,
			"0.011": 2.08766608167,
			"0.012": 1.42114811832,
			"0.013": 2.52180013223,
			"0.014": 5.28302157394,
			"0.015": 4.20814696383,
			"0.016": 0.481356694146,
			"0.017": 0.479073980514,
			"0.018": 0.00819685169274,
			"0.019": 0.0,
			"0.02": 0.0,
			"0.021": 0.0,
			"0.022": 0.0,
			"0.023": 0.0,
			"0.024": 0.0,
			"0.025": 0.0
		}
	}
}
