{
	 "smiles": "CN(C)C=CC(=O)C1=CC=CC=N1", 
	 "Tm": 404.15, 
	 "num_atms": 25, 
	 "gaussian": { 
		 "optdone": 1, 
		 "sigma_profile": "yes", 
		 "theory": "DFT", 
		 "functional": "B3LYP", 
		 "basiset": "6-31G**", 
		 "properties": { 
			 "R2extent": 3974.4529, 
			 "electric_dipole_moment_norm": 4.51114206493, 
			 "electric_quadrupole_moment_norm": 18.792941745, 
			 "total_energy": -573.001850428, 
			 "HOMO_LUMO_gap": 0.15064, 
			 "cosmo_polarized_energy": -13.69, 
			 "cosmo_cavitation_energy": 28.94, 
			 "cosmo_dispersion_energy": -20.94, 
			 "cosmo_repulsion_energy": 1.65, 
			 "cosmo_total_nonelectrostatic_energy": 9.65, 
			 "SMD_solvation_energy": 5.29 
		},
		"coords": [
			{
				"x": 0.0707512731,
				"y": -0.396281561,
				"z": 2.5739224531,
				"element": "C" 
			},
			{
				"x": 0.5941529967,
				"y": -1.044378975,
				"z": 1.3824023666,
				"element": "N" 
			},
			{
				"x": 0.7562759039,
				"y": -2.4878246552,
				"z": 1.4285360276,
				"element": "C" 
			},
			{
				"x": 0.6387511677,
				"y": -0.3729218811,
				"z": 0.2010709639,
				"element": "C" 
			},
			{
				"x": 0.8811013506,
				"y": -0.9254066272,
				"z": -1.0250200349,
				"element": "C" 
			},
			{
				"x": 0.9975541138,
				"y": -0.2447823132,
				"z": -2.303396024,
				"element": "C" 
			},
			{
				"x": 1.2241843032,
				"y": -0.9027220411,
				"z": -3.3262796063,
				"element": "O" 
			},
			{
				"x": 0.8538505607,
				"y": 1.2625598661,
				"z": -2.4811006989,
				"element": "C" 
			},
			{
				"x": 1.0191216268,
				"y": 1.7671199102,
				"z": -3.7793998854,
				"element": "C" 
			},
			{
				"x": 0.8955476558,
				"y": 3.1355616811,
				"z": -3.9947265488,
				"element": "C" 
			},
			{
				"x": 0.6086664052,
				"y": 3.9637441981,
				"z": -2.9091589445,
				"element": "C" 
			},
			{
				"x": 0.4593819272,
				"y": 3.3741191332,
				"z": -1.6541059206,
				"element": "C" 
			},
			{
				"x": 0.5774668194,
				"y": 2.0600742595,
				"z": -1.4352616883,
				"element": "N" 
			},
			{
				"x": 0.0847111548,
				"y": 0.6866173912,
				"z": 2.4360898268,
				"element": "H" 
			},
			{
				"x": -0.9635007777,
				"y": -0.7018858806,
				"z": 2.7901672693,
				"element": "H" 
			},
			{
				"x": 0.6878820076,
				"y": -0.6422218041,
				"z": 3.4455414271,
				"element": "H" 
			},
			{
				"x": 0.8990511584,
				"y": -2.8009817778,
				"z": 2.4652862846,
				"element": "H" 
			},
			{
				"x": -0.1169190175,
				"y": -3.0163969688,
				"z": 1.019940943,
				"element": "H" 
			},
			{
				"x": 1.6372744619,
				"y": -2.7867160598,
				"z": 0.8532282519,
				"element": "H" 
			},
			{
				"x": 0.4783378775,
				"y": 0.696791244,
				"z": 0.2715424851,
				"element": "H" 
			},
			{
				"x": 1.0129584303,
				"y": -1.9977748268,
				"z": -1.1304415432,
				"element": "H" 
			},
			{
				"x": 1.2380666986,
				"y": 1.0666937399,
				"z": -4.5760048437,
				"element": "H" 
			},
			{
				"x": 1.0199175999,
				"y": 3.5509062289,
				"z": -4.9909658085,
				"element": "H" 
			},
			{
				"x": 0.5025712674,
				"y": 5.0376834923,
				"z": -3.0266076001,
				"element": "H" 
			},
			{
				"x": 0.2343430347,
				"y": 3.9868242271,
				"z": -0.7824591517,
				"element": "H" 
			}
		],
		 "valence_orbital": [ 
			{
				"type": "occ",
				"energy": -0.28571,
				"method": "rhf"
			},
			{
				"type": "occ",
				"energy": -0.25979,
				"method": "rhf"
			},
			{
				"type": "occ",
				"energy": -0.25434,
				"method": "rhf"
			},
			{
				"type": "occ",
				"energy": -0.22154,
				"method": "rhf"
			},
			{
				"type": "occ",
				"energy": -0.19912,
				"method": "rhf"
			},
			{
				"type": "unocc",
				"energy": -0.04848,
				"method": "rhf"
			},
			{
				"type": "unocc",
				"energy": -0.01682,
				"method": "rhf"
			},
			{
				"type": "unocc",
				"energy": 0.01451,
				"method": "rhf"
			},
			{
				"type": "unocc",
				"energy": 0.08197,
				"method": "rhf"
			},
			{
				"type": "unocc",
				"energy": 0.1008,
				"method": "rhf"
			}
		],
		"cosmo_sigma_profile": { 
			"-0.025": 0.0,
			"-0.024": 0.0,
			"-0.023": 0.0,
			"-0.022": 0.0,
			"-0.021": 0.0,
			"-0.02": 0.0,
			"-0.019": 0.0,
			"-0.018": 0.0,
			"-0.017": 0.0,
			"-0.016": 0.0,
			"-0.015": 0.0,
			"-0.014": 0.0,
			"-0.013": 0.0,
			"-0.012": 0.0,
			"-0.011": 0.0,
			"-0.01": 0.0,
			"-0.009": 0.0,
			"-0.008": 0.31616406457,
			"-0.007": 5.67393777157,
			"-0.006": 13.904406766,
			"-0.005": 22.0648182605,
			"-0.004": 23.0206198117,
			"-0.003": 25.4311538916,
			"-0.002": 21.0924542619,
			"-0.001": 12.6566701975,
			"0.0": 10.1320679801,
			"0.001": 15.2191023211,
			"0.002": 21.9866875512,
			"0.003": 13.4894424398,
			"0.004": 9.90498336111,
			"0.005": 7.94278238318,
			"0.006": 6.48262522258,
			"0.007": 3.22197843715,
			"0.008": 2.05332572149,
			"0.009": 1.62802528205,
			"0.01": 1.23952535157,
			"0.011": 1.57483935348,
			"0.012": 2.10814393713,
			"0.013": 2.68187157234,
			"0.014": 4.19033497341,
			"0.015": 2.10643808807,
			"0.016": 0.443400581919,
			"0.017": 0.0,
			"0.018": 0.0,
			"0.019": 0.0,
			"0.02": 0.0,
			"0.021": 0.0,
			"0.022": 0.0,
			"0.023": 0.0,
			"0.024": 0.0,
			"0.025": 0.0
		}
	}
}
