{
	 "smiles": "C1CCSSC1", 
	 "Tm": 305.65, 
	 "num_atms": 14, 
	 "gaussian": { 
		 "optdone": 1, 
		 "sigma_profile": "yes", 
		 "theory": "DFT", 
		 "functional": "B3LYP", 
		 "basiset": "6-31G**", 
		 "properties": { 
			 "R2extent": 1095.1661, 
			 "electric_dipole_moment_norm": 3.00129575184, 
			 "electric_quadrupole_moment_norm": 7.27869134941, 
			 "total_energy": -953.624783445, 
			 "HOMO_LUMO_gap": 0.19066, 
			 "cosmo_polarized_energy": -5.24, 
			 "cosmo_cavitation_energy": 18.43, 
			 "cosmo_dispersion_energy": -15.41, 
			 "cosmo_repulsion_energy": 1.2, 
			 "cosmo_total_nonelectrostatic_energy": 4.22, 
			 "SMD_solvation_energy": 1.48 
		},
		"coords": [
			{
				"x": 0.5674301634,
				"y": -0.6434508226,
				"z": -0.3636031426,
				"element": "C" 
			},
			{
				"x": 0.1159616976,
				"y": 0.8281791646,
				"z": -0.3286175501,
				"element": "C" 
			},
			{
				"x": -0.6045867178,
				"y": 1.2293931009,
				"z": 0.9756432531,
				"element": "C" 
			},
			{
				"x": -1.6052476829,
				"y": -0.1432553559,
				"z": 1.7209500174,
				"element": "S" 
			},
			{
				"x": -2.2203495804,
				"y": -1.1127833351,
				"z": -0.0246900972,
				"element": "S" 
			},
			{
				"x": -0.5681916608,
				"y": -1.6375194406,
				"z": -0.6850595202,
				"element": "C" 
			},
			{
				"x": 1.0176569805,
				"y": -0.9065674438,
				"z": 0.5992448004,
				"element": "H" 
			},
			{
				"x": 1.3500502311,
				"y": -0.7741785591,
				"z": -1.1198734928,
				"element": "H" 
			},
			{
				"x": -0.5420358858,
				"y": 1.0249325965,
				"z": -1.1814591922,
				"element": "H" 
			},
			{
				"x": 0.9845908877,
				"y": 1.4862658492,
				"z": -0.4466307438,
				"element": "H" 
			},
			{
				"x": -1.2426052563,
				"y": 2.1025777728,
				"z": 0.8170059485,
				"element": "H" 
			},
			{
				"x": 0.120699273,
				"y": 1.4713957805,
				"z": 1.7601145492,
				"element": "H" 
			},
			{
				"x": -0.7336577849,
				"y": -1.7001215676,
				"z": -1.7661239555,
				"element": "H" 
			},
			{
				"x": -0.3279146645,
				"y": -2.6379677398,
				"z": -0.3162008741,
				"element": "H" 
			}
		],
		 "valence_orbital": [ 
			{
				"type": "occ",
				"energy": -0.34647,
				"method": "rhf"
			},
			{
				"type": "occ",
				"energy": -0.33368,
				"method": "rhf"
			},
			{
				"type": "occ",
				"energy": -0.31391,
				"method": "rhf"
			},
			{
				"type": "occ",
				"energy": -0.25298,
				"method": "rhf"
			},
			{
				"type": "occ",
				"energy": -0.21456,
				"method": "rhf"
			},
			{
				"type": "unocc",
				"energy": -0.0239,
				"method": "rhf"
			},
			{
				"type": "unocc",
				"energy": 0.03729,
				"method": "rhf"
			},
			{
				"type": "unocc",
				"energy": 0.05372,
				"method": "rhf"
			},
			{
				"type": "unocc",
				"energy": 0.08255,
				"method": "rhf"
			},
			{
				"type": "unocc",
				"energy": 0.112,
				"method": "rhf"
			}
		],
		"cosmo_sigma_profile": { 
			"-0.025": 0.0,
			"-0.024": 0.0,
			"-0.023": 0.0,
			"-0.022": 0.0,
			"-0.021": 0.0,
			"-0.02": 0.0,
			"-0.019": 0.0,
			"-0.018": 0.0,
			"-0.017": 0.0,
			"-0.016": 0.0,
			"-0.015": 0.0,
			"-0.014": 0.0,
			"-0.013": 0.0,
			"-0.012": 0.0,
			"-0.011": 0.0,
			"-0.01": 0.0,
			"-0.009": 0.0,
			"-0.008": 0.0,
			"-0.007": 0.0455128660825,
			"-0.006": 3.43028336631,
			"-0.005": 9.00696088523,
			"-0.004": 17.02526421,
			"-0.003": 20.9734857511,
			"-0.002": 22.3445191103,
			"-0.001": 13.6296186481,
			"0.0": 7.20366835395,
			"0.001": 4.7686327862,
			"0.002": 6.83254637454,
			"0.003": 7.07690633465,
			"0.004": 9.1621631759,
			"0.005": 7.59326659742,
			"0.006": 6.09654086538,
			"0.007": 4.35255679231,
			"0.008": 4.66024989525,
			"0.009": 3.38505403184,
			"0.01": 0.509924403411,
			"0.011": 0.0,
			"0.012": 0.0,
			"0.013": 0.0,
			"0.014": 0.0,
			"0.015": 0.0,
			"0.016": 0.0,
			"0.017": 0.0,
			"0.018": 0.0,
			"0.019": 0.0,
			"0.02": 0.0,
			"0.021": 0.0,
			"0.022": 0.0,
			"0.023": 0.0,
			"0.024": 0.0,
			"0.025": 0.0
		}
	}
}
