{
	 "smiles": "CC1=C(N=NC2=C(C)C=CC=C2)C(C)=C(C#N)C(=S)N1", 
	 "Tm": 451.15, 
	 "num_atms": 34, 
	 "gaussian": { 
		 "optdone": 1, 
		 "sigma_profile": "yes", 
		 "theory": "DFT", 
		 "functional": "B3LYP", 
		 "basiset": "6-31G**", 
		 "properties": { 
			 "R2extent": 8743.5857, 
			 "electric_dipole_moment_norm": 9.59840308124, 
			 "electric_quadrupole_moment_norm": 42.3136099726, 
			 "total_energy": -1197.187849, 
			 "HOMO_LUMO_gap": 0.11061, 
			 "cosmo_polarized_energy": -22.62, 
			 "cosmo_cavitation_energy": 40.79, 
			 "cosmo_dispersion_energy": -28.39, 
			 "cosmo_repulsion_energy": 2.09, 
			 "cosmo_total_nonelectrostatic_energy": 14.49, 
			 "SMD_solvation_energy": 6.34 
		},
		"coords": [
			{
				"x": -0.8726959746,
				"y": 0.0048440181,
				"z": 2.1120644783,
				"element": "C" 
			},
			{
				"x": -1.5111779998,
				"y": 0.954177592,
				"z": 1.1448261781,
				"element": "C" 
			},
			{
				"x": -1.1762729966,
				"y": 1.1213319956,
				"z": -0.2048544273,
				"element": "C" 
			},
			{
				"x": -0.1823441409,
				"y": 0.4360437538,
				"z": -0.9102220481,
				"element": "N" 
			},
			{
				"x": 0.4926558671,
				"y": -0.4371848299,
				"z": -0.2860315135,
				"element": "N" 
			},
			{
				"x": 1.4804495927,
				"y": -1.0895602241,
				"z": -1.0610293062,
				"element": "C" 
			},
			{
				"x": 2.2462027368,
				"y": -2.0718039606,
				"z": -0.3902918278,
				"element": "C" 
			},
			{
				"x": 2.0146702934,
				"y": -2.395516832,
				"z": 1.0651583879,
				"element": "C" 
			},
			{
				"x": 3.2355753168,
				"y": -2.744603224,
				"z": -1.116513293,
				"element": "C" 
			},
			{
				"x": 3.4688277047,
				"y": -2.4631855649,
				"z": -2.461984771,
				"element": "C" 
			},
			{
				"x": 2.7055710966,
				"y": -1.4893427005,
				"z": -3.1154346773,
				"element": "C" 
			},
			{
				"x": 1.7178024269,
				"y": -0.8071840214,
				"z": -2.4189336101,
				"element": "C" 
			},
			{
				"x": -1.9045401608,
				"y": 2.0895078817,
				"z": -0.982592214,
				"element": "C" 
			},
			{
				"x": -1.5472662621,
				"y": 2.2726270955,
				"z": -2.4325443636,
				"element": "C" 
			},
			{
				"x": -2.9177792997,
				"y": 2.8347525348,
				"z": -0.3909041615,
				"element": "C" 
			},
			{
				"x": -3.6461991293,
				"y": 3.7990835014,
				"z": -1.159700531,
				"element": "C" 
			},
			{
				"x": -4.2045413696,
				"y": 4.5676671468,
				"z": -1.8310744288,
				"element": "N" 
			},
			{
				"x": -3.274842772,
				"y": 2.6743332261,
				"z": 0.9971049519,
				"element": "C" 
			},
			{
				"x": -4.4586328478,
				"y": 3.4895205199,
				"z": 1.8435250082,
				"element": "S" 
			},
			{
				"x": -2.5091935267,
				"y": 1.716358796,
				"z": 1.6515720081,
				"element": "N" 
			},
			{
				"x": -1.3319911422,
				"y": 0.0950476282,
				"z": 3.1012774823,
				"element": "H" 
			},
			{
				"x": 0.200231656,
				"y": 0.195510655,
				"z": 2.1889525622,
				"element": "H" 
			},
			{
				"x": -0.9644920923,
				"y": -1.0252751947,
				"z": 1.759933942,
				"element": "H" 
			},
			{
				"x": 2.7001551651,
				"y": -3.1789368137,
				"z": 1.3987994933,
				"element": "H" 
			},
			{
				"x": 2.1668645367,
				"y": -1.5176245273,
				"z": 1.7015431824,
				"element": "H" 
			},
			{
				"x": 0.9911499896,
				"y": -2.7415008271,
				"z": 1.2424750797,
				"element": "H" 
			},
			{
				"x": 3.8317691287,
				"y": -3.5019835952,
				"z": -0.6147138423,
				"element": "H" 
			},
			{
				"x": 4.2436245475,
				"y": -3.0012649553,
				"z": -3.0003790067,
				"element": "H" 
			},
			{
				"x": 2.8838756731,
				"y": -1.2666935813,
				"z": -4.1633158979,
				"element": "H" 
			},
			{
				"x": 1.1133360703,
				"y": -0.0487845778,
				"z": -2.9020214803,
				"element": "H" 
			},
			{
				"x": -2.1710661442,
				"y": 3.0314496161,
				"z": -2.9039488638,
				"element": "H" 
			},
			{
				"x": -0.4961309812,
				"y": 2.5593155029,
				"z": -2.5296962318,
				"element": "H" 
			},
			{
				"x": -1.6598884274,
				"y": 1.3278434277,
				"z": -2.9721862227,
				"element": "H" 
			},
			{
				"x": -2.7588065346,
				"y": 1.6024305382,
				"z": 2.6293399644,
				"element": "H" 
			}
		],
		 "valence_orbital": [ 
			{
				"type": "occ",
				"energy": -0.26233,
				"method": "rhf"
			},
			{
				"type": "occ",
				"energy": -0.25788,
				"method": "rhf"
			},
			{
				"type": "occ",
				"energy": -0.24284,
				"method": "rhf"
			},
			{
				"type": "occ",
				"energy": -0.22003,
				"method": "rhf"
			},
			{
				"type": "occ",
				"energy": -0.21413,
				"method": "rhf"
			},
			{
				"type": "unocc",
				"energy": -0.10352,
				"method": "rhf"
			},
			{
				"type": "unocc",
				"energy": -0.0763,
				"method": "rhf"
			},
			{
				"type": "unocc",
				"energy": -0.03412,
				"method": "rhf"
			},
			{
				"type": "unocc",
				"energy": -0.01356,
				"method": "rhf"
			},
			{
				"type": "unocc",
				"energy": 0.01458,
				"method": "rhf"
			}
		],
		"cosmo_sigma_profile": { 
			"-0.025": 0.0,
			"-0.024": 0.0,
			"-0.023": 0.0,
			"-0.022": 0.0,
			"-0.021": 0.0,
			"-0.02": 0.0,
			"-0.019": 0.0,
			"-0.018": 0.0,
			"-0.017": 0.578544731447,
			"-0.016": 1.21569737587,
			"-0.015": 1.10231375271,
			"-0.014": 0.966225628339,
			"-0.013": 1.48590208737,
			"-0.012": 0.962053751048,
			"-0.011": 1.37373414319,
			"-0.01": 0.849383412176,
			"-0.009": 1.01656954796,
			"-0.008": 1.08782893202,
			"-0.007": 2.68670607442,
			"-0.006": 13.4540188222,
			"-0.005": 25.1450241196,
			"-0.004": 31.7617023723,
			"-0.003": 34.3963551451,
			"-0.002": 33.0997219426,
			"-0.001": 24.6407151723,
			"0.0": 21.3674253785,
			"0.001": 19.4182575132,
			"0.002": 18.1560352151,
			"0.003": 17.0916196033,
			"0.004": 16.6431322011,
			"0.005": 10.4242570516,
			"0.006": 4.84465968443,
			"0.007": 6.68051884719,
			"0.008": 9.70897444351,
			"0.009": 12.4696121241,
			"0.01": 8.342579757,
			"0.011": 4.87012850226,
			"0.012": 2.55658798131,
			"0.013": 1.13900729763,
			"0.014": 0.0,
			"0.015": 0.0,
			"0.016": 0.0,
			"0.017": 0.0,
			"0.018": 0.0,
			"0.019": 0.0,
			"0.02": 0.0,
			"0.021": 0.0,
			"0.022": 0.0,
			"0.023": 0.0,
			"0.024": 0.0,
			"0.025": 0.0
		}
	}
}
