{
	 "smiles": "CC1=COC(=N1)C1=C(C)C=CC(N)=C1", 
	 "Tm": 326.15, 
	 "num_atms": 26, 
	 "gaussian": { 
		 "optdone": 1, 
		 "sigma_profile": "yes", 
		 "theory": "DFT", 
		 "functional": "B3LYP", 
		 "basiset": "6-31G**", 
		 "properties": { 
			 "R2extent": 3613.0029, 
			 "electric_dipole_moment_norm": 2.12602065371, 
			 "electric_quadrupole_moment_norm": 15.583835877, 
			 "total_energy": -611.135906282, 
			 "HOMO_LUMO_gap": 0.16407, 
			 "cosmo_polarized_energy": -10.84, 
			 "cosmo_cavitation_energy": 29.6, 
			 "cosmo_dispersion_energy": -21.85, 
			 "cosmo_repulsion_energy": 1.72, 
			 "cosmo_total_nonelectrostatic_energy": 9.48, 
			 "SMD_solvation_energy": 4.92 
		},
		"coords": [
			{
				"x": 0.1666233893,
				"y": 4.5718370715,
				"z": 1.1432607326,
				"element": "C" 
			},
			{
				"x": -0.2456522864,
				"y": 3.1512068009,
				"z": 0.9358227716,
				"element": "C" 
			},
			{
				"x": -0.8999632839,
				"y": 2.3048551138,
				"z": 1.7731009868,
				"element": "C" 
			},
			{
				"x": -1.0535140631,
				"y": 1.1021409608,
				"z": 1.1362974292,
				"element": "O" 
			},
			{
				"x": -0.4707148747,
				"y": 1.2765565654,
				"z": -0.0908605448,
				"element": "C" 
			},
			{
				"x": 0.0204186825,
				"y": 2.4766547074,
				"z": -0.2497257029,
				"element": "N" 
			},
			{
				"x": -0.4834322984,
				"y": 0.1360304094,
				"z": -1.0095747141,
				"element": "C" 
			},
			{
				"x": 0.0928435573,
				"y": 0.2083730297,
				"z": -2.3023432818,
				"element": "C" 
			},
			{
				"x": 0.7641193883,
				"y": 1.4413294632,
				"z": -2.8562948008,
				"element": "C" 
			},
			{
				"x": 0.0222756281,
				"y": -0.9468623551,
				"z": -3.0905635176,
				"element": "C" 
			},
			{
				"x": -0.5771717399,
				"y": -2.1241839293,
				"z": -2.6559595305,
				"element": "C" 
			},
			{
				"x": -1.1464936093,
				"y": -2.1926652881,
				"z": -1.3751970454,
				"element": "C" 
			},
			{
				"x": -1.8057598216,
				"y": -3.3474739037,
				"z": -0.9398988997,
				"element": "N" 
			},
			{
				"x": -1.0886205246,
				"y": -1.0526100464,
				"z": -0.5675953739,
				"element": "C" 
			},
			{
				"x": -0.2923184524,
				"y": 5.2236258766,
				"z": 0.3922110517,
				"element": "H" 
			},
			{
				"x": -0.1277446429,
				"y": 4.9278371438,
				"z": 2.1342010967,
				"element": "H" 
			},
			{
				"x": 1.2521641962,
				"y": 4.6800609413,
				"z": 1.0461667231,
				"element": "H" 
			},
			{
				"x": -1.2987607311,
				"y": 2.3797297728,
				"z": 2.7718395983,
				"element": "H" 
			},
			{
				"x": 1.1268358596,
				"y": 1.2457436545,
				"z": -3.8698104092,
				"element": "H" 
			},
			{
				"x": 1.6082651413,
				"y": 1.7595461971,
				"z": -2.2373587315,
				"element": "H" 
			},
			{
				"x": 0.0833751385,
				"y": 2.2971744021,
				"z": -2.8870511913,
				"element": "H" 
			},
			{
				"x": 0.4579000208,
				"y": -0.9198536199,
				"z": -4.0861300099,
				"element": "H" 
			},
			{
				"x": -0.6098339026,
				"y": -2.9920957,
				"z": -3.3101219819,
				"element": "H" 
			},
			{
				"x": -1.4912697376,
				"y": -4.203533168,
				"z": -1.3762416694,
				"element": "H" 
			},
			{
				"x": -1.8681507651,
				"y": -3.4455869139,
				"z": 0.0644317142,
				"element": "H" 
			},
			{
				"x": -1.5255202682,
				"y": -1.0816371857,
				"z": 0.4250953004,
				"element": "H" 
			}
		],
		 "valence_orbital": [ 
			{
				"type": "occ",
				"energy": -0.29583,
				"method": "rhf"
			},
			{
				"type": "occ",
				"energy": -0.2735,
				"method": "rhf"
			},
			{
				"type": "occ",
				"energy": -0.26365,
				"method": "rhf"
			},
			{
				"type": "occ",
				"energy": -0.21551,
				"method": "rhf"
			},
			{
				"type": "occ",
				"energy": -0.19526,
				"method": "rhf"
			},
			{
				"type": "unocc",
				"energy": -0.03119,
				"method": "rhf"
			},
			{
				"type": "unocc",
				"energy": 0.01932,
				"method": "rhf"
			},
			{
				"type": "unocc",
				"energy": 0.04495,
				"method": "rhf"
			},
			{
				"type": "unocc",
				"energy": 0.07643,
				"method": "rhf"
			},
			{
				"type": "unocc",
				"energy": 0.0872,
				"method": "rhf"
			}
		],
		"cosmo_sigma_profile": { 
			"-0.025": 0.0,
			"-0.024": 0.0,
			"-0.023": 0.0,
			"-0.022": 0.0,
			"-0.021": 0.0,
			"-0.02": 0.0,
			"-0.019": 0.0,
			"-0.018": 0.0,
			"-0.017": 0.0,
			"-0.016": 0.0,
			"-0.015": 0.0,
			"-0.014": 0.0,
			"-0.013": 0.178721469767,
			"-0.012": 2.40927616495,
			"-0.011": 2.47898056303,
			"-0.01": 3.36858314603,
			"-0.009": 5.02105944141,
			"-0.008": 4.98951264735,
			"-0.007": 4.28439770505,
			"-0.006": 5.2979295337,
			"-0.005": 11.728102688,
			"-0.004": 15.1216003131,
			"-0.003": 13.062768673,
			"-0.002": 15.56022284,
			"-0.001": 18.7260129988,
			"0.0": 21.4317463389,
			"0.001": 20.8870739668,
			"0.002": 21.1573871837,
			"0.003": 16.4157246896,
			"0.004": 12.8167566463,
			"0.005": 13.8728769518,
			"0.006": 11.7047265568,
			"0.007": 2.56495926021,
			"0.008": 2.13834587442,
			"0.009": 3.05917490702,
			"0.01": 1.62317617603,
			"0.011": 1.65028626876,
			"0.012": 1.72252995921,
			"0.013": 0.702636299879,
			"0.014": 0.738264662862,
			"0.015": 0.361303825496,
			"0.016": 0.0,
			"0.017": 0.0,
			"0.018": 0.0,
			"0.019": 0.0,
			"0.02": 0.0,
			"0.021": 0.0,
			"0.022": 0.0,
			"0.023": 0.0,
			"0.024": 0.0,
			"0.025": 0.0
		}
	}
}
