{
	 "smiles": "CC(=O)C1=CC=C(OC2=CC=CC=C2)C=C1", 
	 "Tm": 326.15, 
	 "num_atms": 28, 
	 "gaussian": { 
		 "optdone": 1, 
		 "sigma_profile": "yes", 
		 "theory": "DFT", 
		 "functional": "B3LYP", 
		 "basiset": "6-31G**", 
		 "properties": { 
			 "R2extent": 5651.0769, 
			 "electric_dipole_moment_norm": 4.27028770576, 
			 "electric_quadrupole_moment_norm": 14.2507100044, 
			 "total_energy": -691.166281335, 
			 "HOMO_LUMO_gap": 0.18094, 
			 "cosmo_polarized_energy": -10.29, 
			 "cosmo_cavitation_energy": 32.64, 
			 "cosmo_dispersion_energy": -23.45, 
			 "cosmo_repulsion_energy": 1.82, 
			 "cosmo_total_nonelectrostatic_energy": 11.02, 
			 "SMD_solvation_energy": 6.46 
		},
		"coords": [
			{
				"x": 0.5739043003,
				"y": -4.1909734904,
				"z": -3.5390694551,
				"element": "C" 
			},
			{
				"x": 0.6238218361,
				"y": -2.6788384714,
				"z": -3.6960996603,
				"element": "C" 
			},
			{
				"x": 0.6706540068,
				"y": -2.1747040583,
				"z": -4.8097300784,
				"element": "O" 
			},
			{
				"x": 0.6144981273,
				"y": -1.8254539605,
				"z": -2.4702591809,
				"element": "C" 
			},
			{
				"x": 0.6599091856,
				"y": -0.4285006876,
				"z": -2.6281395625,
				"element": "C" 
			},
			{
				"x": 0.6579038323,
				"y": 0.4148053425,
				"z": -1.5286264536,
				"element": "C" 
			},
			{
				"x": 0.6085520117,
				"y": -0.1291058215,
				"z": -0.2368979139,
				"element": "C" 
			},
			{
				"x": 0.5657492628,
				"y": 0.7780348476,
				"z": 0.7915455808,
				"element": "O" 
			},
			{
				"x": 0.8720337501,
				"y": 0.3969119681,
				"z": 2.0901632655,
				"element": "C" 
			},
			{
				"x": -0.0853973807,
				"y": 0.6314245451,
				"z": 3.0763088461,
				"element": "C" 
			},
			{
				"x": 0.2210675514,
				"y": 0.3456477712,
				"z": 4.4078957547,
				"element": "C" 
			},
			{
				"x": 1.4707906106,
				"y": -0.1758231075,
				"z": 4.7477297242,
				"element": "C" 
			},
			{
				"x": 2.4212502122,
				"y": -0.4046665923,
				"z": 3.7494034272,
				"element": "C" 
			},
			{
				"x": 2.1303262976,
				"y": -0.115530003,
				"z": 2.4160113359,
				"element": "C" 
			},
			{
				"x": 0.5559220105,
				"y": -1.515526225,
				"z": -0.0541013205,
				"element": "C" 
			},
			{
				"x": 0.5610005534,
				"y": -2.3493899893,
				"z": -1.1704337054,
				"element": "C" 
			},
			{
				"x": 1.4300850238,
				"y": -4.5563266053,
				"z": -2.961221637,
				"element": "H" 
			},
			{
				"x": -0.3339021787,
				"y": -4.5029213754,
				"z": -3.0108029613,
				"element": "H" 
			},
			{
				"x": 0.5879978699,
				"y": -4.6438021682,
				"z": -4.5307879286,
				"element": "H" 
			},
			{
				"x": 0.7004281983,
				"y": -0.0300961269,
				"z": -3.6363551385,
				"element": "H" 
			},
			{
				"x": 0.6937250487,
				"y": 1.4936166984,
				"z": -1.6385070771,
				"element": "H" 
			},
			{
				"x": -1.0490664043,
				"y": 1.038983052,
				"z": 2.789336099,
				"element": "H" 
			},
			{
				"x": -0.5212691574,
				"y": 0.5295588357,
				"z": 5.1789890199,
				"element": "H" 
			},
			{
				"x": 1.7052275141,
				"y": -0.3987476344,
				"z": 5.7840862498,
				"element": "H" 
			},
			{
				"x": 3.3984458348,
				"y": -0.8017163543,
				"z": 4.0084369134,
				"element": "H" 
			},
			{
				"x": 2.8656057988,
				"y": -0.2766210535,
				"z": 1.63444049,
				"element": "H" 
			},
			{
				"x": 0.5067365846,
				"y": -1.9334838178,
				"z": 0.9445159867,
				"element": "H" 
			},
			{
				"x": 0.5168996994,
				"y": -3.4225555181,
				"z": -1.0143306202,
				"element": "H" 
			}
		],
		 "valence_orbital": [ 
			{
				"type": "occ",
				"energy": -0.26531,
				"method": "rhf"
			},
			{
				"type": "occ",
				"energy": -0.26088,
				"method": "rhf"
			},
			{
				"type": "occ",
				"energy": -0.25648,
				"method": "rhf"
			},
			{
				"type": "occ",
				"energy": -0.24272,
				"method": "rhf"
			},
			{
				"type": "occ",
				"energy": -0.22885,
				"method": "rhf"
			},
			{
				"type": "unocc",
				"energy": -0.04791,
				"method": "rhf"
			},
			{
				"type": "unocc",
				"energy": -0.01847,
				"method": "rhf"
			},
			{
				"type": "unocc",
				"energy": -0.00771,
				"method": "rhf"
			},
			{
				"type": "unocc",
				"energy": -0.00574,
				"method": "rhf"
			},
			{
				"type": "unocc",
				"energy": 0.04802,
				"method": "rhf"
			}
		],
		"cosmo_sigma_profile": { 
			"-0.025": 0.0,
			"-0.024": 0.0,
			"-0.023": 0.0,
			"-0.022": 0.0,
			"-0.021": 0.0,
			"-0.02": 0.0,
			"-0.019": 0.0,
			"-0.018": 0.0,
			"-0.017": 0.0,
			"-0.016": 0.0,
			"-0.015": 0.0,
			"-0.014": 0.0,
			"-0.013": 0.0,
			"-0.012": 0.0,
			"-0.011": 0.0,
			"-0.01": 0.0,
			"-0.009": 0.0,
			"-0.008": 0.0,
			"-0.007": 4.25220312035,
			"-0.006": 20.1247190524,
			"-0.005": 22.8202261523,
			"-0.004": 22.9650334667,
			"-0.003": 19.5665030598,
			"-0.002": 18.3242198171,
			"-0.001": 21.3766523351,
			"0.0": 18.1874310259,
			"0.001": 16.850717778,
			"0.002": 20.5432863787,
			"0.003": 25.0257568682,
			"0.004": 19.1195375533,
			"0.005": 9.81718513472,
			"0.006": 3.21575580222,
			"0.007": 3.09114686849,
			"0.008": 2.70512447499,
			"0.009": 1.98655326561,
			"0.01": 1.68083346494,
			"0.011": 3.12992749267,
			"0.012": 3.84168322605,
			"0.013": 2.28670488935,
			"0.014": 0.491961027092,
			"0.015": 0.0,
			"0.016": 0.0,
			"0.017": 0.0,
			"0.018": 0.0,
			"0.019": 0.0,
			"0.02": 0.0,
			"0.021": 0.0,
			"0.022": 0.0,
			"0.023": 0.0,
			"0.024": 0.0,
			"0.025": 0.0
		}
	}
}
