{
	 "smiles": "[O-][N+](=O)C1=CC=CC=C1C=CC1=NC=CC=C1", 
	 "Tm": 487.15, 
	 "num_atms": 27, 
	 "gaussian": { 
		 "optdone": 1, 
		 "sigma_profile": "yes", 
		 "theory": "DFT", 
		 "functional": "B3LYP", 
		 "basiset": "6-31G**", 
		 "properties": { 
			 "R2extent": 5507.6011, 
			 "electric_dipole_moment_norm": 2.84192126034, 
			 "electric_quadrupole_moment_norm": 25.3165113311, 
			 "total_energy": -761.243036518, 
			 "HOMO_LUMO_gap": 0.13717, 
			 "cosmo_polarized_energy": -11.88, 
			 "cosmo_cavitation_energy": 32.55, 
			 "cosmo_dispersion_energy": -23.61, 
			 "cosmo_repulsion_energy": 1.8, 
			 "cosmo_total_nonelectrostatic_energy": 10.74, 
			 "SMD_solvation_energy": 6.28 
		},
		"coords": [
			{
				"x": 0.5932899308,
				"y": 0.3102438162,
				"z": -2.1002457256,
				"element": "O" 
			},
			{
				"x": 1.3383486697,
				"y": 1.1840871409,
				"z": -1.6520270914,
				"element": "N" 
			},
			{
				"x": 2.2945913925,
				"y": 1.6540682558,
				"z": -2.2693513925,
				"element": "O" 
			},
			{
				"x": 1.0671538632,
				"y": 1.7213640122,
				"z": -0.3064313521,
				"element": "C" 
			},
			{
				"x": 1.6405096934,
				"y": 2.964684871,
				"z": -0.0270313197,
				"element": "C" 
			},
			{
				"x": 1.4054692422,
				"y": 3.5783951287,
				"z": 1.1962508401,
				"element": "C" 
			},
			{
				"x": 0.6106311362,
				"y": 2.9279675398,
				"z": 2.144470973,
				"element": "C" 
			},
			{
				"x": 0.0652852119,
				"y": 1.6805227903,
				"z": 1.865659528,
				"element": "C" 
			},
			{
				"x": 0.2556490669,
				"y": 1.0332795432,
				"z": 0.6267648189,
				"element": "C" 
			},
			{
				"x": -0.3226757098,
				"y": -0.299719313,
				"z": 0.4053265357,
				"element": "C" 
			},
			{
				"x": -1.4552380795,
				"y": -0.7319400104,
				"z": 0.9934079212,
				"element": "C" 
			},
			{
				"x": -2.0654165991,
				"y": -2.0595689151,
				"z": 0.8467090228,
				"element": "C" 
			},
			{
				"x": -3.1588750631,
				"y": -2.260594151,
				"z": 1.6138608446,
				"element": "N" 
			},
			{
				"x": -3.7709515048,
				"y": -3.4453035309,
				"z": 1.5443518479,
				"element": "C" 
			},
			{
				"x": -3.349488283,
				"y": -4.4903672949,
				"z": 0.720979281,
				"element": "C" 
			},
			{
				"x": -2.2240206,
				"y": -4.2812134253,
				"z": -0.0777537386,
				"element": "C" 
			},
			{
				"x": -1.5728360537,
				"y": -3.0547538682,
				"z": -0.017903567,
				"element": "C" 
			},
			{
				"x": 2.255032895,
				"y": 3.4303302329,
				"z": -0.7866939519,
				"element": "H" 
			},
			{
				"x": 1.8420691153,
				"y": 4.5485138121,
				"z": 1.4097771387,
				"element": "H" 
			},
			{
				"x": 0.4298678134,
				"y": 3.3866526758,
				"z": 3.1120714357,
				"element": "H" 
			},
			{
				"x": -0.5040751232,
				"y": 1.1653172413,
				"z": 2.6312377357,
				"element": "H" 
			},
			{
				"x": 0.2042281804,
				"y": -0.9451713198,
				"z": -0.2853633782,
				"element": "H" 
			},
			{
				"x": -2.0294205527,
				"y": -0.0744541912,
				"z": 1.6411123042,
				"element": "H" 
			},
			{
				"x": -4.6473346854,
				"y": -3.5660062785,
				"z": 2.179368486,
				"element": "H" 
			},
			{
				"x": -3.8886944041,
				"y": -5.4320247379,
				"z": 0.7048279995,
				"element": "H" 
			},
			{
				"x": -1.8613309585,
				"y": -5.061774524,
				"z": -0.7403748521,
				"element": "H" 
			},
			{
				"x": -0.7028685939,
				"y": -2.8667355,
				"z": -0.6377003439,
				"element": "H" 
			}
		],
		 "valence_orbital": [ 
			{
				"type": "occ",
				"energy": -0.28795,
				"method": "rhf"
			},
			{
				"type": "occ",
				"energy": -0.27793,
				"method": "rhf"
			},
			{
				"type": "occ",
				"energy": -0.2761,
				"method": "rhf"
			},
			{
				"type": "occ",
				"energy": -0.2586,
				"method": "rhf"
			},
			{
				"type": "occ",
				"energy": -0.22812,
				"method": "rhf"
			},
			{
				"type": "unocc",
				"energy": -0.09095,
				"method": "rhf"
			},
			{
				"type": "unocc",
				"energy": -0.06028,
				"method": "rhf"
			},
			{
				"type": "unocc",
				"energy": -0.0232,
				"method": "rhf"
			},
			{
				"type": "unocc",
				"energy": -0.01306,
				"method": "rhf"
			},
			{
				"type": "unocc",
				"energy": 0.00017,
				"method": "rhf"
			}
		],
		"cosmo_sigma_profile": { 
			"-0.025": 0.0,
			"-0.024": 0.0,
			"-0.023": 0.0,
			"-0.022": 0.0,
			"-0.021": 0.0,
			"-0.02": 0.0,
			"-0.019": 0.0,
			"-0.018": 0.0,
			"-0.017": 0.0,
			"-0.016": 0.0,
			"-0.015": 0.0,
			"-0.014": 0.0,
			"-0.013": 0.0,
			"-0.012": 0.0,
			"-0.011": 0.0,
			"-0.01": 0.0,
			"-0.009": 0.0537635350959,
			"-0.008": 3.2586078441,
			"-0.007": 14.8876007874,
			"-0.006": 21.6178686501,
			"-0.005": 20.3845829279,
			"-0.004": 16.0681801702,
			"-0.003": 14.9821437056,
			"-0.002": 13.0250637261,
			"-0.001": 14.7447085037,
			"0.0": 19.1614976906,
			"0.001": 24.6790552275,
			"0.002": 33.2394482363,
			"0.003": 17.7344944554,
			"0.004": 7.23342609898,
			"0.005": 4.48058374722,
			"0.006": 5.97377889258,
			"0.007": 7.54064208517,
			"0.008": 9.1774907933,
			"0.009": 5.58703093618,
			"0.01": 4.2507349279,
			"0.011": 1.24545957393,
			"0.012": 0.634235058671,
			"0.013": 0.920086109093,
			"0.014": 0.689411131447,
			"0.015": 0.794817809243,
			"0.016": 0.290193895119,
			"0.017": 0.0,
			"0.018": 0.0,
			"0.019": 0.0,
			"0.02": 0.0,
			"0.021": 0.0,
			"0.022": 0.0,
			"0.023": 0.0,
			"0.024": 0.0,
			"0.025": 0.0
		}
	}
}
