{
	 "smiles": "OC(=O)C1=C(NS(=O)(=O)C2=CC(=CC=C2)[N+]([O-])=O)C=CC=C1", 
	 "Tm": 459.15, 
	 "num_atms": 32, 
	 "gaussian": { 
		 "optdone": 1, 
		 "sigma_profile": "yes", 
		 "theory": "DFT", 
		 "functional": "B3LYP", 
		 "basiset": "6-31G**", 
		 "properties": { 
			 "R2extent": 7522.4351, 
			 "electric_dipole_moment_norm": 6.61414891048, 
			 "electric_quadrupole_moment_norm": 24.9755265952, 
			 "total_energy": -1460.29349938, 
			 "HOMO_LUMO_gap": 0.14274, 
			 "cosmo_polarized_energy": -20.1, 
			 "cosmo_cavitation_energy": 39.49, 
			 "cosmo_dispersion_energy": -27.5, 
			 "cosmo_repulsion_energy": 2.06, 
			 "cosmo_total_nonelectrostatic_energy": 14.05, 
			 "SMD_solvation_energy": 9.2 
		},
		"coords": [
			{
				"x": 0.6280312669,
				"y": 4.1669534094,
				"z": -0.5199360542,
				"element": "O" 
			},
			{
				"x": 0.1244602665,
				"y": 2.985160813,
				"z": -0.1071700505,
				"element": "C" 
			},
			{
				"x": -1.0783116695,
				"y": 2.756484584,
				"z": -0.1940605872,
				"element": "O" 
			},
			{
				"x": 1.1433525771,
				"y": 2.056937091,
				"z": 0.4266559582,
				"element": "C" 
			},
			{
				"x": 0.7896389739,
				"y": 0.7470090649,
				"z": 0.8550106493,
				"element": "C" 
			},
			{
				"x": -0.5555770496,
				"y": 0.3412871015,
				"z": 0.8109386862,
				"element": "N" 
			},
			{
				"x": -1.1206516313,
				"y": -1.1997228919,
				"z": 0.4270973889,
				"element": "S" 
			},
			{
				"x": -0.4095905184,
				"y": -2.1837550555,
				"z": 1.2428690783,
				"element": "O" 
			},
			{
				"x": -2.5730471561,
				"y": -1.0617746964,
				"z": 0.4519227287,
				"element": "O" 
			},
			{
				"x": -0.6216332696,
				"y": -1.4791200049,
				"z": -1.2828512569,
				"element": "C" 
			},
			{
				"x": -1.3810266023,
				"y": -0.9102576126,
				"z": -2.3047037049,
				"element": "C" 
			},
			{
				"x": -0.9637680894,
				"y": -1.1283575736,
				"z": -3.6132076952,
				"element": "C" 
			},
			{
				"x": 0.1646608585,
				"y": -1.8871982831,
				"z": -3.923227836,
				"element": "C" 
			},
			{
				"x": 0.8998327801,
				"y": -2.4503189662,
				"z": -2.8825932929,
				"element": "C" 
			},
			{
				"x": 0.5108149404,
				"y": -2.2503159098,
				"z": -1.5556953915,
				"element": "C" 
			},
			{
				"x": -1.7490240665,
				"y": -0.5369612799,
				"z": -4.714318223,
				"element": "N" 
			},
			{
				"x": -1.3590394292,
				"y": -0.7452358846,
				"z": -5.8616957173,
				"element": "O" 
			},
			{
				"x": -2.7375096995,
				"y": 0.127055781,
				"z": -4.4128673576,
				"element": "O" 
			},
			{
				"x": 1.7931013556,
				"y": -0.0965133665,
				"z": 1.3608136721,
				"element": "C" 
			},
			{
				"x": 3.1126974687,
				"y": 0.3374954375,
				"z": 1.4199631087,
				"element": "C" 
			},
			{
				"x": 3.4692549519,
				"y": 1.6226462258,
				"z": 0.9994502633,
				"element": "C" 
			},
			{
				"x": 2.4845540365,
				"y": 2.4716842616,
				"z": 0.5156833595,
				"element": "C" 
			},
			{
				"x": -0.1306555712,
				"y": 4.6834295463,
				"z": -0.83897072,
				"element": "H" 
			},
			{
				"x": -1.1925702677,
				"y": 1.0742398872,
				"z": 0.4792444933,
				"element": "H" 
			},
			{
				"x": -2.2734095117,
				"y": -0.3304963355,
				"z": -2.1027772941,
				"element": "H" 
			},
			{
				"x": 0.4396166547,
				"y": -2.0262569055,
				"z": -4.9612055893,
				"element": "H" 
			},
			{
				"x": 1.7751066492,
				"y": -3.051933314,
				"z": -3.1045545336,
				"element": "H" 
			},
			{
				"x": 1.0603444619,
				"y": -2.6992497383,
				"z": -0.7364353908,
				"element": "H" 
			},
			{
				"x": 1.5191553698,
				"y": -1.0786109988,
				"z": 1.7238282542,
				"element": "H" 
			},
			{
				"x": 3.8693998687,
				"y": -0.332898556,
				"z": 1.8174632495,
				"element": "H" 
			},
			{
				"x": 4.4993020603,
				"y": 1.9580011394,
				"z": 1.0596994932,
				"element": "H" 
			},
			{
				"x": 2.7361899914,
				"y": 3.4747930305,
				"z": 0.1929303115,
				"element": "H" 
			}
		],
		 "valence_orbital": [ 
			{
				"type": "occ",
				"energy": -0.30294,
				"method": "rhf"
			},
			{
				"type": "occ",
				"energy": -0.29945,
				"method": "rhf"
			},
			{
				"type": "occ",
				"energy": -0.2954,
				"method": "rhf"
			},
			{
				"type": "occ",
				"energy": -0.28061,
				"method": "rhf"
			},
			{
				"type": "occ",
				"energy": -0.24598,
				"method": "rhf"
			},
			{
				"type": "unocc",
				"energy": -0.10324,
				"method": "rhf"
			},
			{
				"type": "unocc",
				"energy": -0.07028,
				"method": "rhf"
			},
			{
				"type": "unocc",
				"energy": -0.06127,
				"method": "rhf"
			},
			{
				"type": "unocc",
				"energy": -0.02481,
				"method": "rhf"
			},
			{
				"type": "unocc",
				"energy": -0.01841,
				"method": "rhf"
			}
		],
		"cosmo_sigma_profile": { 
			"-0.025": 0.0,
			"-0.024": 0.0,
			"-0.023": 0.0,
			"-0.022": 0.0,
			"-0.021": 0.0,
			"-0.02": 0.0,
			"-0.019": 0.388184273046,
			"-0.018": 0.771906684198,
			"-0.017": 1.26166252928,
			"-0.016": 0.679639663273,
			"-0.015": 0.531636826262,
			"-0.014": 0.764216428371,
			"-0.013": 0.900110083708,
			"-0.012": 0.632342589586,
			"-0.011": 0.914528058879,
			"-0.01": 0.597228784726,
			"-0.009": 2.62463758041,
			"-0.008": 8.21701790203,
			"-0.007": 12.6996455267,
			"-0.006": 14.8253341971,
			"-0.005": 18.6121297111,
			"-0.004": 20.0246754968,
			"-0.003": 22.8748956618,
			"-0.002": 27.05278484,
			"-0.001": 25.0157084752,
			"0.0": 23.0886176883,
			"0.001": 17.821367548,
			"0.002": 19.2413965849,
			"0.003": 18.2984749314,
			"0.004": 10.108946516,
			"0.005": 9.20308667206,
			"0.006": 11.2726225619,
			"0.007": 14.323329866,
			"0.008": 10.2445086608,
			"0.009": 10.3695677905,
			"0.01": 10.6462311129,
			"0.011": 4.19894073599,
			"0.012": 0.137156645877,
			"0.013": 0.0,
			"0.014": 0.0,
			"0.015": 0.0,
			"0.016": 0.0,
			"0.017": 0.0,
			"0.018": 0.0,
			"0.019": 0.0,
			"0.02": 0.0,
			"0.021": 0.0,
			"0.022": 0.0,
			"0.023": 0.0,
			"0.024": 0.0,
			"0.025": 0.0
		}
	}
}
