{
	 "smiles": "CC1=CC=C(OCC(O)=O)C(C)=C1", 
	 "Tm": 414.15, 
	 "num_atms": 25, 
	 "gaussian": { 
		 "optdone": 1, 
		 "sigma_profile": "yes", 
		 "theory": "DFT", 
		 "functional": "B3LYP", 
		 "basiset": "6-31G**", 
		 "properties": { 
			 "R2extent": 4211.0826, 
			 "electric_dipole_moment_norm": 4.36677630066, 
			 "electric_quadrupole_moment_norm": 24.1185892622, 
			 "total_energy": -613.968391293, 
			 "HOMO_LUMO_gap": 0.21265, 
			 "cosmo_polarized_energy": -19.03, 
			 "cosmo_cavitation_energy": 29.22, 
			 "cosmo_dispersion_energy": -20.89, 
			 "cosmo_repulsion_energy": 1.67, 
			 "cosmo_total_nonelectrostatic_energy": 10.0, 
			 "SMD_solvation_energy": 6.62 
		},
		"coords": [
			{
				"x": -3.0140312127,
				"y": 0.9154424489,
				"z": 2.3562883421,
				"element": "C" 
			},
			{
				"x": -2.0219244401,
				"y": 0.0992456307,
				"z": 1.5610142044,
				"element": "C" 
			},
			{
				"x": -0.8285832546,
				"y": 0.6488099024,
				"z": 1.0968823921,
				"element": "C" 
			},
			{
				"x": 0.0846611106,
				"y": -0.1154700245,
				"z": 0.3601076877,
				"element": "C" 
			},
			{
				"x": -0.1993606196,
				"y": -1.451518343,
				"z": 0.0825039538,
				"element": "C" 
			},
			{
				"x": 0.6248320756,
				"y": -2.2910846125,
				"z": -0.6305616137,
				"element": "O" 
			},
			{
				"x": 1.8343848212,
				"y": -1.7834768517,
				"z": -1.1168078999,
				"element": "C" 
			},
			{
				"x": 2.5639443831,
				"y": -2.8983673578,
				"z": -1.8676878618,
				"element": "C" 
			},
			{
				"x": 3.761632619,
				"y": -2.5116826241,
				"z": -2.3863494743,
				"element": "O" 
			},
			{
				"x": 2.1596313542,
				"y": -4.0176575962,
				"z": -2.0110670269,
				"element": "O" 
			},
			{
				"x": -1.3971463768,
				"y": -2.04353872,
				"z": 0.5354603833,
				"element": "C" 
			},
			{
				"x": -1.6860795719,
				"y": -3.4899602869,
				"z": 0.2252505841,
				"element": "C" 
			},
			{
				"x": -2.2791796581,
				"y": -1.2504836921,
				"z": 1.2647202195,
				"element": "C" 
			},
			{
				"x": -3.9869735043,
				"y": 0.9669970248,
				"z": 1.8534496637,
				"element": "H" 
			},
			{
				"x": -3.1889422785,
				"y": 0.4811443306,
				"z": 3.3476745386,
				"element": "H" 
			},
			{
				"x": -2.661019805,
				"y": 1.9404274959,
				"z": 2.5009713414,
				"element": "H" 
			},
			{
				"x": -0.5957099409,
				"y": 1.6895867647,
				"z": 1.3069106863,
				"element": "H" 
			},
			{
				"x": 1.0029953803,
				"y": 0.3463352316,
				"z": 0.0155208673,
				"element": "H" 
			},
			{
				"x": 1.6743329319,
				"y": -0.9375568241,
				"z": -1.8062090855,
				"element": "H" 
			},
			{
				"x": 2.4828303209,
				"y": -1.4222247975,
				"z": -0.3010314397,
				"element": "H" 
			},
			{
				"x": 3.945774027,
				"y": -1.5821559091,
				"z": -2.1858414171,
				"element": "H" 
			},
			{
				"x": -2.649590281,
				"y": -3.7922194208,
				"z": 0.6435880274,
				"element": "H" 
			},
			{
				"x": -0.9089970562,
				"y": -4.1465420825,
				"z": 0.6310124887,
				"element": "H" 
			},
			{
				"x": -1.70386086,
				"y": -3.6691016029,
				"z": -0.8550882916,
				"element": "H" 
			},
			{
				"x": -3.2049201643,
				"y": -1.701548084,
				"z": 1.6168887303,
				"element": "H" 
			}
		],
		 "valence_orbital": [ 
			{
				"type": "occ",
				"energy": -0.32558,
				"method": "rhf"
			},
			{
				"type": "occ",
				"energy": -0.31651,
				"method": "rhf"
			},
			{
				"type": "occ",
				"energy": -0.28108,
				"method": "rhf"
			},
			{
				"type": "occ",
				"energy": -0.24433,
				"method": "rhf"
			},
			{
				"type": "occ",
				"energy": -0.21579,
				"method": "rhf"
			},
			{
				"type": "unocc",
				"energy": -0.00314,
				"method": "rhf"
			},
			{
				"type": "unocc",
				"energy": 0.00455,
				"method": "rhf"
			},
			{
				"type": "unocc",
				"energy": 0.01333,
				"method": "rhf"
			},
			{
				"type": "unocc",
				"energy": 0.03833,
				"method": "rhf"
			},
			{
				"type": "unocc",
				"energy": 0.08969,
				"method": "rhf"
			}
		],
		"cosmo_sigma_profile": { 
			"-0.025": 0.0,
			"-0.024": 0.0,
			"-0.023": 0.0,
			"-0.022": 0.0,
			"-0.021": 0.0616498942967,
			"-0.02": 0.848010124891,
			"-0.019": 1.26530597448,
			"-0.018": 1.24228504302,
			"-0.017": 0.668525709031,
			"-0.016": 1.37786991,
			"-0.015": 1.28911924042,
			"-0.014": 1.23389188879,
			"-0.013": 0.683723660001,
			"-0.012": 2.03361192275,
			"-0.011": 1.52720608351,
			"-0.01": 1.40880604201,
			"-0.009": 3.37547944791,
			"-0.008": 6.13284409827,
			"-0.007": 5.17807597684,
			"-0.006": 4.33665124496,
			"-0.005": 7.66446504961,
			"-0.004": 15.4807806835,
			"-0.003": 16.7695468914,
			"-0.002": 17.7008882494,
			"-0.001": 17.7829280736,
			"0.0": 20.7026622448,
			"0.001": 16.9872624208,
			"0.002": 10.7490040268,
			"0.003": 11.0962227927,
			"0.004": 9.885694345,
			"0.005": 10.4944361403,
			"0.006": 10.5536776463,
			"0.007": 5.21085371137,
			"0.008": 3.74282687556,
			"0.009": 3.93797159585,
			"0.01": 6.16239411458,
			"0.011": 5.96489885609,
			"0.012": 4.84263907664,
			"0.013": 2.07035615807,
			"0.014": 0.188439285457,
			"0.015": 0.0,
			"0.016": 0.0,
			"0.017": 0.0,
			"0.018": 0.0,
			"0.019": 0.0,
			"0.02": 0.0,
			"0.021": 0.0,
			"0.022": 0.0,
			"0.023": 0.0,
			"0.024": 0.0,
			"0.025": 0.0
		}
	}
}
