{
	 "smiles": "OC(=O)C(O)(C1=CC=CC=C1)C1=CC=CC=C1", 
	 "Tm": 423.15, 
	 "num_atms": 29, 
	 "gaussian": { 
		 "optdone": 1, 
		 "sigma_profile": "yes", 
		 "theory": "DFT", 
		 "functional": "B3LYP", 
		 "basiset": "6-31G**", 
		 "properties": { 
			 "R2extent": 4399.6646, 
			 "electric_dipole_moment_norm": 4.15782364826, 
			 "electric_quadrupole_moment_norm": 8.97816873811, 
			 "total_energy": -766.396865965, 
			 "HOMO_LUMO_gap": 0.21883, 
			 "cosmo_polarized_energy": -13.94, 
			 "cosmo_cavitation_energy": 32.36, 
			 "cosmo_dispersion_energy": -23.03, 
			 "cosmo_repulsion_energy": 1.79, 
			 "cosmo_total_nonelectrostatic_energy": 11.11, 
			 "SMD_solvation_energy": 6.68 
		},
		"coords": [
			{
				"x": -0.8329363097,
				"y": -1.601547954,
				"z": -2.5761226584,
				"element": "O" 
			},
			{
				"x": -0.8292027756,
				"y": -0.9685921917,
				"z": -1.3967132815,
				"element": "C" 
			},
			{
				"x": -1.6872846837,
				"y": -0.1780051863,
				"z": -1.0782005871,
				"element": "O" 
			},
			{
				"x": 0.3549826277,
				"y": -1.3801516647,
				"z": -0.4689188553,
				"element": "C" 
			},
			{
				"x": 1.2404808605,
				"y": -2.2179870911,
				"z": -1.2542515137,
				"element": "O" 
			},
			{
				"x": 1.1571526919,
				"y": -0.1843339944,
				"z": 0.0610778635,
				"element": "C" 
			},
			{
				"x": 0.8596577675,
				"y": 1.1514493487,
				"z": -0.234584057,
				"element": "C" 
			},
			{
				"x": 1.6824785267,
				"y": 2.1760322102,
				"z": 0.2415647897,
				"element": "C" 
			},
			{
				"x": 2.8072582639,
				"y": 1.883481267,
				"z": 1.0112560836,
				"element": "C" 
			},
			{
				"x": 3.1081605221,
				"y": 0.5530430757,
				"z": 1.3135542654,
				"element": "C" 
			},
			{
				"x": 2.2880889192,
				"y": -0.4709342487,
				"z": 0.8456342758,
				"element": "C" 
			},
			{
				"x": -0.2191698004,
				"y": -2.2312217182,
				"z": 0.6741019707,
				"element": "C" 
			},
			{
				"x": 0.1710718702,
				"y": -3.5628993983,
				"z": 0.8475958383,
				"element": "C" 
			},
			{
				"x": -0.3530042036,
				"y": -4.3163807223,
				"z": 1.9014910787,
				"element": "C" 
			},
			{
				"x": -1.2708654143,
				"y": -3.7495467515,
				"z": 2.784328389,
				"element": "C" 
			},
			{
				"x": -1.6663793299,
				"y": -2.4208829384,
				"z": 2.6084956334,
				"element": "C" 
			},
			{
				"x": -1.1454107768,
				"y": -1.6642267269,
				"z": 1.5611707404,
				"element": "C" 
			},
			{
				"x": -0.0352974248,
				"y": -2.1705226291,
				"z": -2.5738401243,
				"element": "H" 
			},
			{
				"x": 2.0068159655,
				"y": -1.6780223424,
				"z": -1.4918776881,
				"element": "H" 
			},
			{
				"x": -0.0211119928,
				"y": 1.3955515181,
				"z": -0.8150795447,
				"element": "H" 
			},
			{
				"x": 1.4370311438,
				"y": 3.2075048485,
				"z": 0.005933306,
				"element": "H" 
			},
			{
				"x": 3.4424666602,
				"y": 2.6843013445,
				"z": 1.3784839815,
				"element": "H" 
			},
			{
				"x": 3.9766850448,
				"y": 0.3127099869,
				"z": 1.9199366511,
				"element": "H" 
			},
			{
				"x": 2.5145637009,
				"y": -1.5030000427,
				"z": 1.0971856179,
				"element": "H" 
			},
			{
				"x": 0.8829050617,
				"y": -4.0047040644,
				"z": 0.1608280254,
				"element": "H" 
			},
			{
				"x": -0.0412404381,
				"y": -5.3495069206,
				"z": 2.027076062,
				"element": "H" 
			},
			{
				"x": -1.6775683604,
				"y": -4.3369499711,
				"z": 3.6025215134,
				"element": "H" 
			},
			{
				"x": -2.3836440939,
				"y": -1.9709451952,
				"z": 3.2888594206,
				"element": "H" 
			},
			{
				"x": -1.4642840228,
				"y": -0.6379118478,
				"z": 1.4168928039,
				"element": "H" 
			}
		],
		 "valence_orbital": [ 
			{
				"type": "occ",
				"energy": -0.27594,
				"method": "rhf"
			},
			{
				"type": "occ",
				"energy": -0.262,
				"method": "rhf"
			},
			{
				"type": "occ",
				"energy": -0.25479,
				"method": "rhf"
			},
			{
				"type": "occ",
				"energy": -0.24911,
				"method": "rhf"
			},
			{
				"type": "occ",
				"energy": -0.24213,
				"method": "rhf"
			},
			{
				"type": "unocc",
				"energy": -0.0233,
				"method": "rhf"
			},
			{
				"type": "unocc",
				"energy": -0.02136,
				"method": "rhf"
			},
			{
				"type": "unocc",
				"energy": -0.00588,
				"method": "rhf"
			},
			{
				"type": "unocc",
				"energy": -0.00049,
				"method": "rhf"
			},
			{
				"type": "unocc",
				"energy": 0.02417,
				"method": "rhf"
			}
		],
		"cosmo_sigma_profile": { 
			"-0.025": 0.0,
			"-0.024": 0.0,
			"-0.023": 0.0,
			"-0.022": 0.0,
			"-0.021": 0.0,
			"-0.02": 0.0,
			"-0.019": 0.0,
			"-0.018": 0.0,
			"-0.017": 0.285441026735,
			"-0.016": 0.818559547674,
			"-0.015": 0.908564580085,
			"-0.014": 0.703708014839,
			"-0.013": 1.63050912882,
			"-0.012": 1.76560653146,
			"-0.011": 1.75526959706,
			"-0.01": 2.33803098722,
			"-0.009": 2.2393908768,
			"-0.008": 1.16257249169,
			"-0.007": 2.23315785376,
			"-0.006": 12.2492807007,
			"-0.005": 18.0026084679,
			"-0.004": 24.9147397581,
			"-0.003": 19.2909377639,
			"-0.002": 16.5240330954,
			"-0.001": 15.2654202223,
			"0.0": 15.0462042141,
			"0.001": 15.0055309969,
			"0.002": 17.3199705541,
			"0.003": 20.5906967934,
			"0.004": 21.2321040375,
			"0.005": 19.2273229243,
			"0.006": 6.11260153162,
			"0.007": 3.40074814827,
			"0.008": 3.1286763701,
			"0.009": 3.67869449329,
			"0.01": 4.61427376534,
			"0.011": 3.69765171432,
			"0.012": 2.73573622017,
			"0.013": 0.773845404328,
			"0.014": 0.0,
			"0.015": 0.0,
			"0.016": 0.0,
			"0.017": 0.0,
			"0.018": 0.0,
			"0.019": 0.0,
			"0.02": 0.0,
			"0.021": 0.0,
			"0.022": 0.0,
			"0.023": 0.0,
			"0.024": 0.0,
			"0.025": 0.0
		}
	}
}
