{
	 "smiles": "CC(Cl)C(=O)C1=CC=C(Br)C=C1", 
	 "Tm": 328.15, 
	 "num_atms": 20, 
	 "gaussian": { 
		 "optdone": 1, 
		 "sigma_profile": "yes", 
		 "theory": "DFT", 
		 "functional": "B3LYP", 
		 "basiset": "6-31G**", 
		 "properties": { 
			 "R2extent": 5155.9098, 
			 "electric_dipole_moment_norm": 2.05788436264, 
			 "electric_quadrupole_moment_norm": 6.6244479053, 
			 "total_energy": -3454.60216491, 
			 "HOMO_LUMO_gap": 0.1788, 
			 "cosmo_polarized_energy": -7.41, 
			 "cosmo_cavitation_energy": 27.92, 
			 "cosmo_dispersion_energy": -20.73, 
			 "cosmo_repulsion_energy": 1.66, 
			 "cosmo_total_nonelectrostatic_energy": 8.86, 
			 "SMD_solvation_energy": 3.9 
		},
		"coords": [
			{
				"x": -1.9809055441,
				"y": 1.1796525185,
				"z": 1.6247759576,
				"element": "C" 
			},
			{
				"x": -0.5994912427,
				"y": 1.794152561,
				"z": 1.4136757103,
				"element": "C" 
			},
			{
				"x": 0.6283649287,
				"y": 1.0626267415,
				"z": 2.5631778899,
				"element": "Cl" 
			},
			{
				"x": -0.115462891,
				"y": 1.7547779335,
				"z": -0.0481100625,
				"element": "C" 
			},
			{
				"x": -0.0656461382,
				"y": 2.8272690567,
				"z": -0.6311476693,
				"element": "O" 
			},
			{
				"x": 0.1997024236,
				"y": 0.4812874098,
				"z": -0.7668722251,
				"element": "C" 
			},
			{
				"x": 0.5021476967,
				"y": 0.5883529268,
				"z": -2.1357845422,
				"element": "C" 
			},
			{
				"x": 0.7868254697,
				"y": -0.5374026958,
				"z": -2.8988579056,
				"element": "C" 
			},
			{
				"x": 0.7700699393,
				"y": -1.792001864,
				"z": -2.2858551666,
				"element": "C" 
			},
			{
				"x": 1.1565539239,
				"y": -3.3452988144,
				"z": -3.3212131659,
				"element": "Br" 
			},
			{
				"x": 0.4777571993,
				"y": -1.9288281476,
				"z": -0.9295685115,
				"element": "C" 
			},
			{
				"x": 0.1949873691,
				"y": -0.7921414713,
				"z": -0.1745236284,
				"element": "C" 
			},
			{
				"x": -1.9993045795,
				"y": 0.1113457877,
				"z": 1.4015510462,
				"element": "H" 
			},
			{
				"x": -2.3039692555,
				"y": 1.3272883004,
				"z": 2.6579954738,
				"element": "H" 
			},
			{
				"x": -2.6964241015,
				"y": 1.6821099004,
				"z": 0.9643271098,
				"element": "H" 
			},
			{
				"x": -0.6135706325,
				"y": 2.8524106265,
				"z": 1.6721625301,
				"element": "H" 
			},
			{
				"x": 0.5055794058,
				"y": 1.5751578283,
				"z": -2.585607948,
				"element": "H" 
			},
			{
				"x": 1.0179925837,
				"y": -0.4486905741,
				"z": -3.9541190331,
				"element": "H" 
			},
			{
				"x": 0.476598565,
				"y": -2.9095611093,
				"z": -0.4683221961,
				"element": "H" 
			},
			{
				"x": -0.00530512,
				"y": -0.9092069147,
				"z": 0.8829163365,
				"element": "H" 
			}
		],
		 "valence_orbital": [ 
			{
				"type": "occ",
				"energy": -0.30582,
				"method": "rhf"
			},
			{
				"type": "occ",
				"energy": -0.29809,
				"method": "rhf"
			},
			{
				"type": "occ",
				"energy": -0.27735,
				"method": "rhf"
			},
			{
				"type": "occ",
				"energy": -0.26575,
				"method": "rhf"
			},
			{
				"type": "occ",
				"energy": -0.25695,
				"method": "rhf"
			},
			{
				"type": "unocc",
				"energy": -0.07815,
				"method": "rhf"
			},
			{
				"type": "unocc",
				"energy": -0.02679,
				"method": "rhf"
			},
			{
				"type": "unocc",
				"energy": -0.00472,
				"method": "rhf"
			},
			{
				"type": "unocc",
				"energy": -0.00245,
				"method": "rhf"
			},
			{
				"type": "unocc",
				"energy": 0.04091,
				"method": "rhf"
			}
		],
		"cosmo_sigma_profile": { 
			"-0.025": 0.0,
			"-0.024": 0.0,
			"-0.023": 0.0,
			"-0.022": 0.0,
			"-0.021": 0.0,
			"-0.02": 0.0,
			"-0.019": 0.0,
			"-0.018": 0.0,
			"-0.017": 0.0,
			"-0.016": 0.0,
			"-0.015": 0.0,
			"-0.014": 0.0,
			"-0.013": 0.0,
			"-0.012": 0.0,
			"-0.011": 0.0,
			"-0.01": 0.0,
			"-0.009": 0.0,
			"-0.008": 2.09567642898,
			"-0.007": 7.51733029958,
			"-0.006": 13.6652197239,
			"-0.005": 15.5661514305,
			"-0.004": 13.7495866851,
			"-0.003": 15.4484425248,
			"-0.002": 16.267450548,
			"-0.001": 17.3624623988,
			"0.0": 18.1571244334,
			"0.001": 24.9695923838,
			"0.002": 24.9361881729,
			"0.003": 16.7726546394,
			"0.004": 16.4363201428,
			"0.005": 8.88110636991,
			"0.006": 5.04918631075,
			"0.007": 1.19426984221,
			"0.008": 1.59468119323,
			"0.009": 2.36480097572,
			"0.01": 2.75714920435,
			"0.011": 3.32602965682,
			"0.012": 0.509834198981,
			"0.013": 0.0,
			"0.014": 0.0,
			"0.015": 0.0,
			"0.016": 0.0,
			"0.017": 0.0,
			"0.018": 0.0,
			"0.019": 0.0,
			"0.02": 0.0,
			"0.021": 0.0,
			"0.022": 0.0,
			"0.023": 0.0,
			"0.024": 0.0,
			"0.025": 0.0
		}
	}
}
