{
	 "smiles": "CC1=CC(CS(Cl)(=O)=O)=NO1", 
	 "Tm": 317.15, 
	 "num_atms": 17, 
	 "gaussian": { 
		 "optdone": 1, 
		 "sigma_profile": "yes", 
		 "theory": "DFT", 
		 "functional": "B3LYP", 
		 "basiset": "6-31G**", 
		 "properties": { 
			 "R2extent": 3234.6969, 
			 "electric_dipole_moment_norm": 4.36888071936, 
			 "electric_quadrupole_moment_norm": 15.1154143863, 
			 "total_energy": -1332.83689517, 
			 "HOMO_LUMO_gap": 0.18688, 
			 "cosmo_polarized_energy": -12.88, 
			 "cosmo_cavitation_energy": 25.25, 
			 "cosmo_dispersion_energy": -18.82, 
			 "cosmo_repulsion_energy": 1.49, 
			 "cosmo_total_nonelectrostatic_energy": 7.92, 
			 "SMD_solvation_energy": 3.08 
		},
		"coords": [
			{
				"x": 1.0563870541,
				"y": 2.2027963904,
				"z": 2.294031885,
				"element": "C" 
			},
			{
				"x": 0.6841148475,
				"y": 1.1808787392,
				"z": 1.2779086498,
				"element": "C" 
			},
			{
				"x": -0.0872764081,
				"y": 1.2030569299,
				"z": 0.1540100273,
				"element": "C" 
			},
			{
				"x": 0.0047070993,
				"y": -0.1279545235,
				"z": -0.3428821576,
				"element": "C" 
			},
			{
				"x": -0.6400682813,
				"y": -0.748267605,
				"z": -1.5331051637,
				"element": "C" 
			},
			{
				"x": -0.2132852063,
				"y": 0.0442288852,
				"z": -3.1285860385,
				"element": "S" 
			},
			{
				"x": 1.8723017203,
				"y": -0.314728881,
				"z": -3.2182480741,
				"element": "Cl" 
			},
			{
				"x": -0.402356874,
				"y": 1.4864367928,
				"z": -3.0179585663,
				"element": "O" 
			},
			{
				"x": -0.8369113809,
				"y": -0.7300550364,
				"z": -4.1937218564,
				"element": "O" 
			},
			{
				"x": 0.7653214897,
				"y": -0.8893428473,
				"z": 0.417107995,
				"element": "N" 
			},
			{
				"x": 1.1924642202,
				"y": -0.0633364272,
				"z": 1.4471085034,
				"element": "O" 
			},
			{
				"x": 0.7377535135,
				"y": 1.8926030244,
				"z": 3.2945060842,
				"element": "H" 
			},
			{
				"x": 0.5837445327,
				"y": 3.1574077673,
				"z": 2.056290019,
				"element": "H" 
			},
			{
				"x": 2.1413823563,
				"y": 2.3467818906,
				"z": 2.3208462743,
				"element": "H" 
			},
			{
				"x": -0.6173693474,
				"y": 2.0366352125,
				"z": -0.2781269901,
				"element": "H" 
			},
			{
				"x": -0.3683867334,
				"y": -1.800508037,
				"z": -1.6303331392,
				"element": "H" 
			},
			{
				"x": -1.7312226023,
				"y": -0.6504322751,
				"z": -1.5211474521,
				"element": "H" 
			}
		],
		 "valence_orbital": [ 
			{
				"type": "occ",
				"energy": -0.33886,
				"method": "rhf"
			},
			{
				"type": "occ",
				"energy": -0.32492,
				"method": "rhf"
			},
			{
				"type": "occ",
				"energy": -0.31994,
				"method": "rhf"
			},
			{
				"type": "occ",
				"energy": -0.30793,
				"method": "rhf"
			},
			{
				"type": "occ",
				"energy": -0.27424,
				"method": "rhf"
			},
			{
				"type": "unocc",
				"energy": -0.08736,
				"method": "rhf"
			},
			{
				"type": "unocc",
				"energy": -0.0333,
				"method": "rhf"
			},
			{
				"type": "unocc",
				"energy": 0.01723,
				"method": "rhf"
			},
			{
				"type": "unocc",
				"energy": 0.04599,
				"method": "rhf"
			},
			{
				"type": "unocc",
				"energy": 0.05958,
				"method": "rhf"
			}
		],
		"cosmo_sigma_profile": { 
			"-0.025": 0.0,
			"-0.024": 0.0,
			"-0.023": 0.0,
			"-0.022": 0.0,
			"-0.021": 0.0,
			"-0.02": 0.0,
			"-0.019": 0.0,
			"-0.018": 0.0,
			"-0.017": 0.0,
			"-0.016": 0.0,
			"-0.015": 0.0,
			"-0.014": 0.113194735156,
			"-0.013": 1.32470934443,
			"-0.012": 2.07669157664,
			"-0.011": 3.41422679818,
			"-0.01": 3.79069372939,
			"-0.009": 3.03425126467,
			"-0.008": 4.5386793796,
			"-0.007": 7.34183614382,
			"-0.006": 10.5119226512,
			"-0.005": 10.6667617082,
			"-0.004": 9.38774254377,
			"-0.003": 13.2094299221,
			"-0.002": 14.5207585882,
			"-0.001": 11.4952588975,
			"0.0": 13.3768990335,
			"0.001": 12.0353749795,
			"0.002": 14.6485945525,
			"0.003": 15.6667341946,
			"0.004": 7.71589688664,
			"0.005": 5.89072738742,
			"0.006": 5.84813150151,
			"0.007": 10.3625702583,
			"0.008": 13.4319846517,
			"0.009": 5.38154745199,
			"0.01": 1.13364276368,
			"0.011": 1.18126825715,
			"0.012": 1.27294260326,
			"0.013": 0.890240796601,
			"0.014": 0.108534254784,
			"0.015": 0.0,
			"0.016": 0.0,
			"0.017": 0.0,
			"0.018": 0.0,
			"0.019": 0.0,
			"0.02": 0.0,
			"0.021": 0.0,
			"0.022": 0.0,
			"0.023": 0.0,
			"0.024": 0.0,
			"0.025": 0.0
		}
	}
}
