{
	 "smiles": "OC(=O)C(Br)C(Br)C(O)=O", 
	 "Tm": 548.15, 
	 "num_atms": 14, 
	 "gaussian": { 
		 "optdone": 1, 
		 "sigma_profile": "yes", 
		 "theory": "DFT", 
		 "functional": "B3LYP", 
		 "basiset": "6-31G**", 
		 "properties": { 
			 "R2extent": 3288.3275, 
			 "electric_dipole_moment_norm": 5.43595326875, 
			 "electric_quadrupole_moment_norm": 8.69343001122, 
			 "total_energy": -5598.547416, 
			 "HOMO_LUMO_gap": 0.18862, 
			 "cosmo_polarized_energy": -18.42, 
			 "cosmo_cavitation_energy": 22.97, 
			 "cosmo_dispersion_energy": -17.38, 
			 "cosmo_repulsion_energy": 1.41, 
			 "cosmo_total_nonelectrostatic_energy": 7.0, 
			 "SMD_solvation_energy": 3.94 
		},
		"coords": [
			{
				"x": 2.3711122889,
				"y": -1.832110119,
				"z": 0.1359270778,
				"element": "O" 
			},
			{
				"x": 2.291474153,
				"y": -0.6407899029,
				"z": -0.4505553952,
				"element": "C" 
			},
			{
				"x": 3.1212749692,
				"y": 0.2232259132,
				"z": -0.3022489629,
				"element": "O" 
			},
			{
				"x": 1.0870918839,
				"y": -0.3645565698,
				"z": -1.3789719191,
				"element": "C" 
			},
			{
				"x": 1.1082752139,
				"y": -1.60017694,
				"z": -2.9421942543,
				"element": "Br" 
			},
			{
				"x": -0.3224579653,
				"y": -0.3810399874,
				"z": -0.7932011227,
				"element": "C" 
			},
			{
				"x": -0.4874122119,
				"y": 1.0661333373,
				"z": 0.5771745793,
				"element": "Br" 
			},
			{
				"x": -0.8267575701,
				"y": -1.6820888518,
				"z": -0.1575602732,
				"element": "C" 
			},
			{
				"x": -2.0973959088,
				"y": -1.669230554,
				"z": 0.2577130017,
				"element": "O" 
			},
			{
				"x": -0.1626085682,
				"y": -2.6914273466,
				"z": -0.0659732592,
				"element": "O" 
			},
			{
				"x": 1.5688291604,
				"y": -2.3697561837,
				"z": -0.0482962797,
				"element": "H" 
			},
			{
				"x": 1.2684837453,
				"y": 0.6160190955,
				"z": -1.810560451,
				"element": "H" 
			},
			{
				"x": -1.0247764027,
				"y": -0.0831952106,
				"z": -1.5738858709,
				"element": "H" 
			},
			{
				"x": -2.4512327876,
				"y": -0.7651066804,
				"z": 0.2644331293,
				"element": "H" 
			}
		],
		 "valence_orbital": [ 
			{
				"type": "occ",
				"energy": -0.32052,
				"method": "rhf"
			},
			{
				"type": "occ",
				"energy": -0.31768,
				"method": "rhf"
			},
			{
				"type": "occ",
				"energy": -0.31456,
				"method": "rhf"
			},
			{
				"type": "occ",
				"energy": -0.30125,
				"method": "rhf"
			},
			{
				"type": "occ",
				"energy": -0.27984,
				"method": "rhf"
			},
			{
				"type": "unocc",
				"energy": -0.09122,
				"method": "rhf"
			},
			{
				"type": "unocc",
				"energy": -0.05528,
				"method": "rhf"
			},
			{
				"type": "unocc",
				"energy": -0.01692,
				"method": "rhf"
			},
			{
				"type": "unocc",
				"energy": 0.02655,
				"method": "rhf"
			},
			{
				"type": "unocc",
				"energy": 0.03638,
				"method": "rhf"
			}
		],
		"cosmo_sigma_profile": { 
			"-0.025": 0.0,
			"-0.024": 0.0,
			"-0.023": 0.0,
			"-0.022": 0.0,
			"-0.021": 0.0,
			"-0.02": 0.157935598252,
			"-0.019": 1.42521226344,
			"-0.018": 0.685705258423,
			"-0.017": 1.3891713108,
			"-0.016": 1.06665601283,
			"-0.015": 1.14565945603,
			"-0.014": 1.51410932728,
			"-0.013": 1.36895685267,
			"-0.012": 3.28775655856,
			"-0.011": 3.72546183321,
			"-0.01": 3.37521894244,
			"-0.009": 3.18327056999,
			"-0.008": 3.88342587537,
			"-0.007": 3.58997440332,
			"-0.006": 5.66045125017,
			"-0.005": 6.76201454035,
			"-0.004": 8.27806521186,
			"-0.003": 8.79776607187,
			"-0.002": 10.4278175899,
			"-0.001": 9.73707368992,
			"0.0": 12.8067536859,
			"0.001": 12.0567632397,
			"0.002": 15.6430340567,
			"0.003": 17.329521929,
			"0.004": 8.16462241778,
			"0.005": 4.55308145143,
			"0.006": 5.97300144355,
			"0.007": 6.16636484606,
			"0.008": 7.0235486594,
			"0.009": 6.64844318236,
			"0.01": 6.53473460417,
			"0.011": 5.18801586898,
			"0.012": 1.79570221953,
			"0.013": 0.0365137808184,
			"0.014": 0.0,
			"0.015": 0.0,
			"0.016": 0.0,
			"0.017": 0.0,
			"0.018": 0.0,
			"0.019": 0.0,
			"0.02": 0.0,
			"0.021": 0.0,
			"0.022": 0.0,
			"0.023": 0.0,
			"0.024": 0.0,
			"0.025": 0.0
		}
	}
}
