{
	 "smiles": "CC(C)C1=C(C=NN1C1=NC=CC=C1)C(O)=O", 
	 "Tm": 403.15, 
	 "num_atms": 30, 
	 "gaussian": { 
		 "optdone": 1, 
		 "sigma_profile": "yes", 
		 "theory": "DFT", 
		 "functional": "B3LYP", 
		 "basiset": "6-31G**", 
		 "properties": { 
			 "R2extent": 4667.6038, 
			 "electric_dipole_moment_norm": 6.93218896598, 
			 "electric_quadrupole_moment_norm": 14.7359362797, 
			 "total_energy": -779.808489507, 
			 "HOMO_LUMO_gap": 0.1944, 
			 "cosmo_polarized_energy": -15.26, 
			 "cosmo_cavitation_energy": 32.96, 
			 "cosmo_dispersion_energy": -23.62, 
			 "cosmo_repulsion_energy": 1.81, 
			 "cosmo_total_nonelectrostatic_energy": 11.16, 
			 "SMD_solvation_energy": 5.89 
		},
		"coords": [
			{
				"x": -0.8176352781,
				"y": -0.2742139048,
				"z": 2.2754277471,
				"element": "C" 
			},
			{
				"x": -0.5392305889,
				"y": -0.8653664235,
				"z": 0.8791197657,
				"element": "C" 
			},
			{
				"x": -1.0044395532,
				"y": -2.3306234811,
				"z": 0.751877943,
				"element": "C" 
			},
			{
				"x": 0.9011467107,
				"y": -0.6723776973,
				"z": 0.443025055,
				"element": "C" 
			},
			{
				"x": 2.1125246692,
				"y": -0.7927389328,
				"z": 1.1333105267,
				"element": "C" 
			},
			{
				"x": 3.1034311622,
				"y": -0.306964813,
				"z": 0.2409685353,
				"element": "C" 
			},
			{
				"x": 2.5951325465,
				"y": 0.0587266463,
				"z": -0.9159603562,
				"element": "N" 
			},
			{
				"x": 1.2496215492,
				"y": -0.1662565831,
				"z": -0.7932285303,
				"element": "N" 
			},
			{
				"x": 0.4470899569,
				"y": 0.13370572,
				"z": -1.9300780667,
				"element": "C" 
			},
			{
				"x": -0.6823508291,
				"y": -0.5563861351,
				"z": -2.0798567642,
				"element": "N" 
			},
			{
				"x": -1.4359703366,
				"y": -0.2876335501,
				"z": -3.155482882,
				"element": "C" 
			},
			{
				"x": -1.0870005375,
				"y": 0.6489613242,
				"z": -4.1237432177,
				"element": "C" 
			},
			{
				"x": 0.1072313202,
				"y": 1.3548283389,
				"z": -3.9537585721,
				"element": "C" 
			},
			{
				"x": 0.8944935167,
				"y": 1.1056529683,
				"z": -2.8364115118,
				"element": "C" 
			},
			{
				"x": 2.4797390601,
				"y": -1.2650698938,
				"z": 2.4880828355,
				"element": "C" 
			},
			{
				"x": 1.6760551731,
				"y": -2.1977486597,
				"z": 3.0743510056,
				"element": "O" 
			},
			{
				"x": 3.4727334584,
				"y": -0.8852350078,
				"z": 3.0647696476,
				"element": "O" 
			},
			{
				"x": -0.2869235006,
				"y": -0.7988402124,
				"z": 3.0727250659,
				"element": "H" 
			},
			{
				"x": -1.8894337069,
				"y": -0.3394717586,
				"z": 2.4890095717,
				"element": "H" 
			},
			{
				"x": -0.5285706482,
				"y": 0.7800087547,
				"z": 2.3181105206,
				"element": "H" 
			},
			{
				"x": -1.1479192366,
				"y": -0.3054553347,
				"z": 0.1674690968,
				"element": "H" 
			},
			{
				"x": -0.8686367031,
				"y": -2.6856749968,
				"z": -0.2717527657,
				"element": "H" 
			},
			{
				"x": -2.0662627807,
				"y": -2.406782998,
				"z": 1.0070121563,
				"element": "H" 
			},
			{
				"x": -0.4705449628,
				"y": -3.0163676605,
				"z": 1.4231363338,
				"element": "H" 
			},
			{
				"x": 4.1660780348,
				"y": -0.2408174898,
				"z": 0.4287508724,
				"element": "H" 
			},
			{
				"x": -2.3547607269,
				"y": -0.8631765112,
				"z": -3.2442753659,
				"element": "H" 
			},
			{
				"x": -1.7281135538,
				"y": 0.8182362724,
				"z": -4.9821981166,
				"element": "H" 
			},
			{
				"x": 0.4196911427,
				"y": 2.0976122693,
				"z": -4.6815863002,
				"element": "H" 
			},
			{
				"x": 1.8280469797,
				"y": 1.6214304364,
				"z": -2.6559697093,
				"element": "H" 
			},
			{
				"x": 1.0237776624,
				"y": -2.5171606865,
				"z": 2.4353554797,
				"element": "H" 
			}
		],
		 "valence_orbital": [ 
			{
				"type": "occ",
				"energy": -0.29792,
				"method": "rhf"
			},
			{
				"type": "occ",
				"energy": -0.28368,
				"method": "rhf"
			},
			{
				"type": "occ",
				"energy": -0.26933,
				"method": "rhf"
			},
			{
				"type": "occ",
				"energy": -0.25797,
				"method": "rhf"
			},
			{
				"type": "occ",
				"energy": -0.24702,
				"method": "rhf"
			},
			{
				"type": "unocc",
				"energy": -0.05262,
				"method": "rhf"
			},
			{
				"type": "unocc",
				"energy": -0.03894,
				"method": "rhf"
			},
			{
				"type": "unocc",
				"energy": -0.00849,
				"method": "rhf"
			},
			{
				"type": "unocc",
				"energy": 0.0197,
				"method": "rhf"
			},
			{
				"type": "unocc",
				"energy": 0.05279,
				"method": "rhf"
			}
		],
		"cosmo_sigma_profile": { 
			"-0.025": 0.0,
			"-0.024": 0.0,
			"-0.023": 0.0,
			"-0.022": 0.0,
			"-0.021": 0.0,
			"-0.02": 0.0,
			"-0.019": 0.0,
			"-0.018": 0.0,
			"-0.017": 0.0,
			"-0.016": 0.0,
			"-0.015": 0.0965797945284,
			"-0.014": 1.24158250075,
			"-0.013": 0.909893143092,
			"-0.012": 1.60531606938,
			"-0.011": 1.16993584932,
			"-0.01": 1.02189508112,
			"-0.009": 0.971175986535,
			"-0.008": 3.8184106174,
			"-0.007": 9.25317374872,
			"-0.006": 11.9277688985,
			"-0.005": 11.5842495166,
			"-0.004": 16.4581329817,
			"-0.003": 22.6583129095,
			"-0.002": 23.6599624292,
			"-0.001": 24.6830109293,
			"0.0": 28.7439141811,
			"0.001": 23.2039257521,
			"0.002": 19.970936281,
			"0.003": 8.65257896958,
			"0.004": 5.74033058168,
			"0.005": 6.37584105855,
			"0.006": 5.19326802623,
			"0.007": 5.37215497717,
			"0.008": 4.38729788683,
			"0.009": 4.43854665757,
			"0.01": 5.67787656087,
			"0.011": 5.78457332557,
			"0.012": 6.30660867268,
			"0.013": 2.19538153598,
			"0.014": 0.111436436534,
			"0.015": 0.0,
			"0.016": 0.0,
			"0.017": 0.0,
			"0.018": 0.0,
			"0.019": 0.0,
			"0.02": 0.0,
			"0.021": 0.0,
			"0.022": 0.0,
			"0.023": 0.0,
			"0.024": 0.0,
			"0.025": 0.0
		}
	}
}
