{
	 "smiles": "[O-][N+](=O)C1=C(NC(=O)N2CCCC2)C=CC=C1", 
	 "Tm": 373.15, 
	 "num_atms": 30, 
	 "gaussian": { 
		 "optdone": 1, 
		 "sigma_profile": "yes", 
		 "theory": "DFT", 
		 "functional": "B3LYP", 
		 "basiset": "6-31G**", 
		 "properties": { 
			 "R2extent": 3759.0937, 
			 "electric_dipole_moment_norm": 5.56254827305, 
			 "electric_quadrupole_moment_norm": 13.6304059697, 
			 "total_energy": -816.843001177, 
			 "HOMO_LUMO_gap": 0.15233, 
			 "cosmo_polarized_energy": -17.02, 
			 "cosmo_cavitation_energy": 32.81, 
			 "cosmo_dispersion_energy": -22.9, 
			 "cosmo_repulsion_energy": 1.76, 
			 "cosmo_total_nonelectrostatic_energy": 11.67, 
			 "SMD_solvation_energy": 7.95 
		},
		"coords": [
			{
				"x": 1.8424458769,
				"y": 1.2809447791,
				"z": -0.929845035,
				"element": "O" 
			},
			{
				"x": 1.4879848517,
				"y": 0.6458972862,
				"z": 0.0650337764,
				"element": "N" 
			},
			{
				"x": 2.2102172525,
				"y": -0.0981401816,
				"z": 0.7225113587,
				"element": "O" 
			},
			{
				"x": 0.1107977989,
				"y": 0.854305469,
				"z": 0.5391088937,
				"element": "C" 
			},
			{
				"x": -0.6930288347,
				"y": -0.2038783254,
				"z": 1.0069442555,
				"element": "C" 
			},
			{
				"x": -0.3738462069,
				"y": -1.5666125065,
				"z": 0.9332770675,
				"element": "N" 
			},
			{
				"x": 0.5091250233,
				"y": -2.253287384,
				"z": 0.0740388939,
				"element": "C" 
			},
			{
				"x": 1.1344716578,
				"y": -3.218794063,
				"z": 0.491993753,
				"element": "O" 
			},
			{
				"x": 0.5745090309,
				"y": -1.8085568172,
				"z": -1.2185617872,
				"element": "N" 
			},
			{
				"x": 1.5489854301,
				"y": -2.4598354355,
				"z": -2.1137539613,
				"element": "C" 
			},
			{
				"x": 1.2037354738,
				"y": -1.8836020902,
				"z": -3.4920164599,
				"element": "C" 
			},
			{
				"x": -0.3146320214,
				"y": -1.6597061258,
				"z": -3.4033045802,
				"element": "C" 
			},
			{
				"x": -0.4987870908,
				"y": -1.1307026598,
				"z": -1.9724867244,
				"element": "C" 
			},
			{
				"x": -1.9304241885,
				"y": 0.1485081576,
				"z": 1.5776963684,
				"element": "C" 
			},
			{
				"x": -2.3443789505,
				"y": 1.4722973216,
				"z": 1.6657640857,
				"element": "C" 
			},
			{
				"x": -1.5523163903,
				"y": 2.4987358288,
				"z": 1.1411373045,
				"element": "C" 
			},
			{
				"x": -0.3285461715,
				"y": 2.1805187092,
				"z": 0.5662531353,
				"element": "C" 
			},
			{
				"x": -0.5134328151,
				"y": -2.0951614685,
				"z": 1.7846813283,
				"element": "H" 
			},
			{
				"x": 1.4205054541,
				"y": -3.5481291541,
				"z": -2.076512172,
				"element": "H" 
			},
			{
				"x": 2.5680982246,
				"y": -2.2346099066,
				"z": -1.7878643311,
				"element": "H" 
			},
			{
				"x": 1.4952953774,
				"y": -2.5527208513,
				"z": -4.3057245231,
				"element": "H" 
			},
			{
				"x": 1.7161094714,
				"y": -0.9263864616,
				"z": -3.6391794023,
				"element": "H" 
			},
			{
				"x": -0.8445692664,
				"y": -2.6116758548,
				"z": -3.5233464119,
				"element": "H" 
			},
			{
				"x": -0.6976128326,
				"y": -0.9624715488,
				"z": -4.1534968537,
				"element": "H" 
			},
			{
				"x": -1.4792166068,
				"y": -1.3652420681,
				"z": -1.5483617769,
				"element": "H" 
			},
			{
				"x": -0.3685367335,
				"y": -0.0418378839,
				"z": -1.9498086832,
				"element": "H" 
			},
			{
				"x": -2.5739473372,
				"y": -0.6516183097,
				"z": 1.9316112221,
				"element": "H" 
			},
			{
				"x": -3.3031896775,
				"y": 1.7014384576,
				"z": 2.1209964671,
				"element": "H" 
			},
			{
				"x": -1.8819726961,
				"y": 3.5312731499,
				"z": 1.1834673727,
				"element": "H" 
			},
			{
				"x": 0.3221568963,
				"y": 2.9449499373,
				"z": 0.1577474196,
				"element": "H" 
			}
		],
		 "valence_orbital": [ 
			{
				"type": "occ",
				"energy": -0.29993,
				"method": "rhf"
			},
			{
				"type": "occ",
				"energy": -0.2726,
				"method": "rhf"
			},
			{
				"type": "occ",
				"energy": -0.26091,
				"method": "rhf"
			},
			{
				"type": "occ",
				"energy": -0.23731,
				"method": "rhf"
			},
			{
				"type": "occ",
				"energy": -0.23422,
				"method": "rhf"
			},
			{
				"type": "unocc",
				"energy": -0.08189,
				"method": "rhf"
			},
			{
				"type": "unocc",
				"energy": -0.02959,
				"method": "rhf"
			},
			{
				"type": "unocc",
				"energy": -0.01402,
				"method": "rhf"
			},
			{
				"type": "unocc",
				"energy": 0.04946,
				"method": "rhf"
			},
			{
				"type": "unocc",
				"energy": 0.07511,
				"method": "rhf"
			}
		],
		"cosmo_sigma_profile": { 
			"-0.025": 0.0,
			"-0.024": 0.0,
			"-0.023": 0.0,
			"-0.022": 0.0,
			"-0.021": 0.0,
			"-0.02": 0.0,
			"-0.019": 0.0,
			"-0.018": 0.0,
			"-0.017": 0.0,
			"-0.016": 0.0,
			"-0.015": 0.394283999369,
			"-0.014": 1.20448507728,
			"-0.013": 0.57410087102,
			"-0.012": 0.931561825737,
			"-0.011": 1.51085399588,
			"-0.01": 0.845633876592,
			"-0.009": 1.30330183521,
			"-0.008": 3.40142283105,
			"-0.007": 9.44844811421,
			"-0.006": 10.2981086216,
			"-0.005": 11.5248950554,
			"-0.004": 20.6458729206,
			"-0.003": 28.4620442931,
			"-0.002": 29.2012595298,
			"-0.001": 23.0044757648,
			"0.0": 21.1294318803,
			"0.001": 16.136339308,
			"0.002": 13.8335466901,
			"0.003": 11.3205042163,
			"0.004": 4.29689674041,
			"0.005": 4.3019372745,
			"0.006": 4.64035674766,
			"0.007": 8.57162305638,
			"0.008": 9.68623979205,
			"0.009": 5.9574770001,
			"0.01": 3.47959193523,
			"0.011": 1.77066401772,
			"0.012": 1.63011946174,
			"0.013": 3.85018097976,
			"0.014": 5.50078960144,
			"0.015": 0.290426908636,
			"0.016": 0.0,
			"0.017": 0.0,
			"0.018": 0.0,
			"0.019": 0.0,
			"0.02": 0.0,
			"0.021": 0.0,
			"0.022": 0.0,
			"0.023": 0.0,
			"0.024": 0.0,
			"0.025": 0.0
		}
	}
}
