{
	 "smiles": "OC1(CCC(=O)CC1)C(F)(F)F", 
	 "Tm": 397.15, 
	 "num_atms": 21, 
	 "gaussian": { 
		 "optdone": 1, 
		 "sigma_profile": "yes", 
		 "theory": "DFT", 
		 "functional": "B3LYP", 
		 "basiset": "6-31G**", 
		 "properties": { 
			 "R2extent": 2470.8375, 
			 "electric_dipole_moment_norm": 2.10258285449, 
			 "electric_quadrupole_moment_norm": 12.3777523574, 
			 "total_energy": -722.145681292, 
			 "HOMO_LUMO_gap": 0.2229, 
			 "cosmo_polarized_energy": -10.7, 
			 "cosmo_cavitation_energy": 23.86, 
			 "cosmo_dispersion_energy": -17.41, 
			 "cosmo_repulsion_energy": 1.32, 
			 "cosmo_total_nonelectrostatic_energy": 7.77, 
			 "SMD_solvation_energy": 5.26 
		},
		"coords": [
			{
				"x": -1.0632737638,
				"y": -1.194314322,
				"z": 0.1213597469,
				"element": "O" 
			},
			{
				"x": -0.5682633965,
				"y": 0.0001577484,
				"z": 0.7137246542,
				"element": "C" 
			},
			{
				"x": 0.7707420467,
				"y": -0.2740599207,
				"z": 1.4337579814,
				"element": "C" 
			},
			{
				"x": 1.5783158724,
				"y": 0.981005013,
				"z": 1.820517834,
				"element": "C" 
			},
			{
				"x": 1.6850586651,
				"y": 1.9858220419,
				"z": 0.6790449202,
				"element": "C" 
			},
			{
				"x": 2.7311306648,
				"y": 2.5348715336,
				"z": 0.3935431357,
				"element": "O" 
			},
			{
				"x": 0.3829743248,
				"y": 2.2754246988,
				"z": -0.0576851515,
				"element": "C" 
			},
			{
				"x": -0.3735755486,
				"y": 0.9910009864,
				"z": -0.4450153719,
				"element": "C" 
			},
			{
				"x": -1.6543842291,
				"y": 0.4755703633,
				"z": 1.6977374421,
				"element": "C" 
			},
			{
				"x": -2.8095966029,
				"y": 0.7647554114,
				"z": 1.076967083,
				"element": "F" 
			},
			{
				"x": -1.2911041643,
				"y": 1.5749057356,
				"z": 2.4030733568,
				"element": "F" 
			},
			{
				"x": -1.9164197523,
				"y": -0.5041416292,
				"z": 2.6027304745,
				"element": "F" 
			},
			{
				"x": -1.2286197184,
				"y": -1.8335443159,
				"z": 0.8290439771,
				"element": "H" 
			},
			{
				"x": 0.5933167221,
				"y": -0.8966569032,
				"z": 2.3181510467,
				"element": "H" 
			},
			{
				"x": 1.3528979582,
				"y": -0.8806062592,
				"z": 0.7316225105,
				"element": "H" 
			},
			{
				"x": 2.5886564743,
				"y": 0.7127435397,
				"z": 2.138808168,
				"element": "H" 
			},
			{
				"x": 1.0921463954,
				"y": 1.4931236658,
				"z": 2.6595001093,
				"element": "H" 
			},
			{
				"x": -0.2395879099,
				"y": 2.8897127786,
				"z": 0.6052772729,
				"element": "H" 
			},
			{
				"x": 0.6129677209,
				"y": 2.8741056761,
				"z": -0.9421705615,
				"element": "H" 
			},
			{
				"x": -1.3466111157,
				"y": 1.2288492324,
				"z": -0.8829057676,
				"element": "H" 
			},
			{
				"x": 0.1904293567,
				"y": 0.4446749254,
				"z": -1.2085828606,
				"element": "H" 
			}
		],
		 "valence_orbital": [ 
			{
				"type": "occ",
				"energy": -0.36522,
				"method": "rhf"
			},
			{
				"type": "occ",
				"energy": -0.34475,
				"method": "rhf"
			},
			{
				"type": "occ",
				"energy": -0.33636,
				"method": "rhf"
			},
			{
				"type": "occ",
				"energy": -0.29756,
				"method": "rhf"
			},
			{
				"type": "occ",
				"energy": -0.24482,
				"method": "rhf"
			},
			{
				"type": "unocc",
				"energy": -0.02192,
				"method": "rhf"
			},
			{
				"type": "unocc",
				"energy": 0.06597,
				"method": "rhf"
			},
			{
				"type": "unocc",
				"energy": 0.08295,
				"method": "rhf"
			},
			{
				"type": "unocc",
				"energy": 0.1094,
				"method": "rhf"
			},
			{
				"type": "unocc",
				"energy": 0.11506,
				"method": "rhf"
			}
		],
		"cosmo_sigma_profile": { 
			"-0.025": 0.0,
			"-0.024": 0.0,
			"-0.023": 0.0,
			"-0.022": 0.0,
			"-0.021": 0.0,
			"-0.02": 0.0,
			"-0.019": 0.0,
			"-0.018": 0.0,
			"-0.017": 0.0,
			"-0.016": 0.271419737859,
			"-0.015": 0.770539319298,
			"-0.014": 0.7085787007,
			"-0.013": 0.839278462279,
			"-0.012": 0.863633515486,
			"-0.011": 0.868675016059,
			"-0.01": 0.990919983091,
			"-0.009": 0.752192146671,
			"-0.008": 1.35853427482,
			"-0.007": 2.3997887632,
			"-0.006": 6.42669758242,
			"-0.005": 17.3660410894,
			"-0.004": 20.0023513929,
			"-0.003": 19.316679122,
			"-0.002": 15.8616084457,
			"-0.001": 9.42444482775,
			"0.0": 8.16378498705,
			"0.001": 10.0332793648,
			"0.002": 20.1313038944,
			"0.003": 15.8814216587,
			"0.004": 3.16505308231,
			"0.005": 3.31622600802,
			"0.006": 3.13122446052,
			"0.007": 2.65887733386,
			"0.008": 2.64128202613,
			"0.009": 2.57107827336,
			"0.01": 3.40121063503,
			"0.011": 4.70654676074,
			"0.012": 6.22124196832,
			"0.013": 2.56906723911,
			"0.014": 0.170464837992,
			"0.015": 0.0,
			"0.016": 0.0,
			"0.017": 0.0,
			"0.018": 0.0,
			"0.019": 0.0,
			"0.02": 0.0,
			"0.021": 0.0,
			"0.022": 0.0,
			"0.023": 0.0,
			"0.024": 0.0,
			"0.025": 0.0
		}
	}
}
