{
	 "smiles": "CC(=O)NC1=C(C=C(C=C1)S(Cl)(=O)=O)[N+]([O-])=O", 
	 "Tm": 363.15, 
	 "num_atms": 24, 
	 "gaussian": { 
		 "optdone": 1, 
		 "sigma_profile": "yes", 
		 "theory": "DFT", 
		 "functional": "B3LYP", 
		 "basiset": "6-31G**", 
		 "properties": { 
			 "R2extent": 7101.1839, 
			 "electric_dipole_moment_norm": 4.58771960237, 
			 "electric_quadrupole_moment_norm": 23.3679788484, 
			 "total_energy": -1652.91037711, 
			 "HOMO_LUMO_gap": 0.15201, 
			 "cosmo_polarized_energy": -18.92, 
			 "cosmo_cavitation_energy": 33.08, 
			 "cosmo_dispersion_energy": -24.34, 
			 "cosmo_repulsion_energy": 1.85, 
			 "cosmo_total_nonelectrostatic_energy": 10.59, 
			 "SMD_solvation_energy": 7.2 
		},
		"coords": [
			{
				"x": -2.8524563166,
				"y": 2.9410100316,
				"z": -0.5920767176,
				"element": "C" 
			},
			{
				"x": -1.7376007993,
				"y": 3.7852215786,
				"z": -1.1714100049,
				"element": "C" 
			},
			{
				"x": -1.9534973466,
				"y": 4.8489633438,
				"z": -1.7184055604,
				"element": "O" 
			},
			{
				"x": -0.3923038139,
				"y": 3.3862394868,
				"z": -1.0444566689,
				"element": "N" 
			},
			{
				"x": 0.2208762067,
				"y": 2.2530089011,
				"z": -0.5611682155,
				"element": "C" 
			},
			{
				"x": 1.5863618799,
				"y": 2.2709194868,
				"z": -0.1404800542,
				"element": "C" 
			},
			{
				"x": 2.2151652581,
				"y": 1.131405273,
				"z": 0.3600139377,
				"element": "C" 
			},
			{
				"x": 1.5063607401,
				"y": -0.0554597668,
				"z": 0.4364444152,
				"element": "C" 
			},
			{
				"x": 0.1770050978,
				"y": -0.1301624132,
				"z": 0.0046219166,
				"element": "C" 
			},
			{
				"x": -0.4424996718,
				"y": 1.0029308877,
				"z": -0.4883874915,
				"element": "C" 
			},
			{
				"x": 2.3162843963,
				"y": -1.5176711983,
				"z": 1.0516895845,
				"element": "S" 
			},
			{
				"x": 1.8229616057,
				"y": -1.429525253,
				"z": 3.1213486469,
				"element": "Cl" 
			},
			{
				"x": 3.7588894177,
				"y": -1.3397831731,
				"z": 0.9654497657,
				"element": "O" 
			},
			{
				"x": 1.6316686173,
				"y": -2.6898154226,
				"z": 0.5217141019,
				"element": "O" 
			},
			{
				"x": 2.4254260477,
				"y": 3.4753763168,
				"z": -0.2012089796,
				"element": "N" 
			},
			{
				"x": 3.5088115673,
				"y": 3.446717164,
				"z": 0.3709072416,
				"element": "O" 
			},
			{
				"x": 2.0118033848,
				"y": 4.4583421507,
				"z": -0.8333649684,
				"element": "O" 
			},
			{
				"x": -3.1532783121,
				"y": 2.1592798193,
				"z": -1.2981041894,
				"element": "H" 
			},
			{
				"x": -3.706470182,
				"y": 3.6030954068,
				"z": -0.447664989,
				"element": "H" 
			},
			{
				"x": -2.5835927546,
				"y": 2.4699208617,
				"z": 0.3562342657,
				"element": "H" 
			},
			{
				"x": 0.2523232218,
				"y": 4.1404092798,
				"z": -1.2769537639,
				"element": "H" 
			},
			{
				"x": 3.2493458387,
				"y": 1.1963560484,
				"z": 0.6739484064,
				"element": "H" 
			},
			{
				"x": -0.3507723011,
				"y": -1.0771294622,
				"z": 0.0298669112,
				"element": "H" 
			},
			{
				"x": -1.4504117818,
				"y": 0.9183506527,
				"z": -0.8656575903,
				"element": "H" 
			}
		],
		 "valence_orbital": [ 
			{
				"type": "occ",
				"energy": -0.32815,
				"method": "rhf"
			},
			{
				"type": "occ",
				"energy": -0.32589,
				"method": "rhf"
			},
			{
				"type": "occ",
				"energy": -0.31884,
				"method": "rhf"
			},
			{
				"type": "occ",
				"energy": -0.29113,
				"method": "rhf"
			},
			{
				"type": "occ",
				"energy": -0.27518,
				"method": "rhf"
			},
			{
				"type": "unocc",
				"energy": -0.12317,
				"method": "rhf"
			},
			{
				"type": "unocc",
				"energy": -0.10447,
				"method": "rhf"
			},
			{
				"type": "unocc",
				"energy": -0.06665,
				"method": "rhf"
			},
			{
				"type": "unocc",
				"energy": -0.04203,
				"method": "rhf"
			},
			{
				"type": "unocc",
				"energy": -0.00981,
				"method": "rhf"
			}
		],
		"cosmo_sigma_profile": { 
			"-0.025": 0.0,
			"-0.024": 0.0,
			"-0.023": 0.0,
			"-0.022": 0.0,
			"-0.021": 0.0,
			"-0.02": 0.0,
			"-0.019": 0.0,
			"-0.018": 0.0,
			"-0.017": 0.0,
			"-0.016": 0.0,
			"-0.015": 0.0,
			"-0.014": 0.0,
			"-0.013": 0.0,
			"-0.012": 0.00451260661552,
			"-0.011": 0.850051254261,
			"-0.01": 3.56301266158,
			"-0.009": 5.74728516759,
			"-0.008": 7.06185929917,
			"-0.007": 13.2082508631,
			"-0.006": 15.3012535118,
			"-0.005": 16.7529867883,
			"-0.004": 21.6873465292,
			"-0.003": 23.4213008505,
			"-0.002": 19.4539952135,
			"-0.001": 15.1456787334,
			"0.0": 12.5076069871,
			"0.001": 9.79520434299,
			"0.002": 12.2758647709,
			"0.003": 18.8584669572,
			"0.004": 9.14453188179,
			"0.005": 7.23405224629,
			"0.006": 10.9627270884,
			"0.007": 13.4742020794,
			"0.008": 14.6286714799,
			"0.009": 6.17265037175,
			"0.01": 2.24191584215,
			"0.011": 4.15658533112,
			"0.012": 4.24763129356,
			"0.013": 0.86731905822,
			"0.014": 0.0,
			"0.015": 0.0,
			"0.016": 0.0,
			"0.017": 0.0,
			"0.018": 0.0,
			"0.019": 0.0,
			"0.02": 0.0,
			"0.021": 0.0,
			"0.022": 0.0,
			"0.023": 0.0,
			"0.024": 0.0,
			"0.025": 0.0
		}
	}
}
