{
	 "smiles": "COC1=CC=C(I)C=C1[N+]([O-])=O", 
	 "Tm": 370.15, 
	 "num_atms": 18, 
	 "gaussian": { 
		 "optdone": 1, 
		 "sigma_profile": "no", 
		 "theory": "DFT", 
		 "functional": "B3LYP", 
		 "basiset": "6-31G**", 
		 "properties": { 
			 "R2extent": 2368.0524, 
			 "electric_dipole_moment_norm": 5.44481308954, 
			 "electric_quadrupole_moment_norm": 16.6860006841, 
			 "total_energy": -562.043385922, 
			 "HOMO_LUMO_gap": 0.15597, 
			 "cosmo_polarized_energy": -100104.01, 
			 "cosmo_cavitation_energy": 26.32, 
			 "cosmo_dispersion_energy": -20.7, 
			 "cosmo_repulsion_energy": 1.63, 
			 "cosmo_total_nonelectrostatic_energy": 7.25, 
			 "SMD_solvation_energy": 6.76 
		},
		"coords": [
			{
				"x": -0.142992717,
				"y": 0.264163065,
				"z": -3.4825607873,
				"element": "C" 
			},
			{
				"x": -0.2367750135,
				"y": -0.7018427537,
				"z": -2.4398468497,
				"element": "O" 
			},
			{
				"x": -0.0453282669,
				"y": -0.3091485416,
				"z": -1.1674387963,
				"element": "C" 
			},
			{
				"x": 0.2323660184,
				"y": 1.0160250539,
				"z": -0.7923683932,
				"element": "C" 
			},
			{
				"x": 0.4547556576,
				"y": 1.3620883497,
				"z": 0.5382431547,
				"element": "C" 
			},
			{
				"x": 0.4212484862,
				"y": 0.3833502644,
				"z": 1.5333515341,
				"element": "C" 
			},
			{
				"x": 0.7664144149,
				"y": 0.9069953937,
				"z": 3.5529187297,
				"element": "I" 
			},
			{
				"x": 0.1608721016,
				"y": -0.9392132139,
				"z": 1.1930536844,
				"element": "C" 
			},
			{
				"x": -0.0834271319,
				"y": -1.2784726563,
				"z": -0.1372679288,
				"element": "C" 
			},
			{
				"x": -0.3855734869,
				"y": -2.6930761282,
				"z": -0.4049287682,
				"element": "N" 
			},
			{
				"x": 0.0518163738,
				"y": -3.5175176658,
				"z": 0.4010243545,
				"element": "O" 
			},
			{
				"x": -1.0685295587,
				"y": -2.9667091255,
				"z": -1.3866816326,
				"element": "O" 
			},
			{
				"x": 0.85222858,
				"y": 0.7231348109,
				"z": -3.5169756849,
				"element": "H" 
			},
			{
				"x": -0.9048523909,
				"y": 1.0449719275,
				"z": -3.3743037154,
				"element": "H" 
			},
			{
				"x": -0.320690506,
				"y": -0.288171374,
				"z": -4.40512329,
				"element": "H" 
			},
			{
				"x": 0.2778777976,
				"y": 1.7918750814,
				"z": -1.5460046787,
				"element": "H" 
			},
			{
				"x": 0.658808057,
				"y": 2.3967904131,
				"z": 0.7903189468,
				"element": "H" 
			},
			{
				"x": 0.1395815849,
				"y": -1.7309429008,
				"z": 1.9302901207,
				"element": "H" 
			}
		],
		 "valence_orbital": [ 
			{
				"type": "occ",
				"energy": -0.29581,
				"method": "rhf"
			},
			{
				"type": "occ",
				"energy": -0.2925,
				"method": "rhf"
			},
			{
				"type": "occ",
				"energy": -0.27955,
				"method": "rhf"
			},
			{
				"type": "occ",
				"energy": -0.27816,
				"method": "rhf"
			},
			{
				"type": "occ",
				"energy": -0.24158,
				"method": "rhf"
			},
			{
				"type": "unocc",
				"energy": -0.08561,
				"method": "rhf"
			},
			{
				"type": "unocc",
				"energy": -0.04977,
				"method": "rhf"
			},
			{
				"type": "unocc",
				"energy": -0.02821,
				"method": "rhf"
			},
			{
				"type": "unocc",
				"energy": -0.01243,
				"method": "rhf"
			},
			{
				"type": "unocc",
				"energy": 0.03865,
				"method": "rhf"
			}
		],
		"cosmo_sigma_profile": { 
			"0.0": 0.0,
			"0.0": 0.0,
			"0.0": 0.0,
			"0.0": 0.0,
			"0.0": 0.0,
			"0.0": 0.0,
			"0.0": 0.0,
			"0.0": 0.0,
			"0.0": 0.0,
			"0.0": 0.0,
			"0.0": 0.0,
			"0.0": 0.0,
			"0.0": 0.0,
			"0.0": 0.0,
			"0.0": 0.0,
			"0.0": 0.0,
			"0.0": 0.0,
			"0.0": 0.0,
			"0.0": 0.0,
			"0.0": 0.0,
			"0.0": 0.0,
			"0.0": 0.0,
			"0.0": 0.0,
			"0.0": 0.0,
			"0.0": 0.0,
			"0.0": 0.0,
			"0.0": 0.0,
			"0.0": 0.0,
			"0.0": 0.0,
			"0.0": 0.0,
			"0.0": 0.0,
			"0.0": 0.0,
			"0.0": 0.0,
			"0.0": 0.0,
			"0.0": 0.0,
			"0.0": 0.0,
			"0.0": 0.0,
			"0.0": 0.0,
			"0.0": 0.0,
			"0.0": 0.0,
			"0.0": 0.0,
			"0.0": 0.0,
			"0.0": 0.0,
			"0.0": 0.0,
			"0.0": 0.0,
			"0.0": 0.0,
			"0.0": 0.0,
			"0.0": 0.0,
			"0.0": 0.0,
			"0.0": 0.0,
			"0.0": 0.0
		}
	}
}
