{
	 "smiles": "COC1=CC=C(C=C1Cl)C(C)=O", 
	 "Tm": 348.15, 
	 "num_atms": 21, 
	 "gaussian": { 
		 "optdone": 1, 
		 "sigma_profile": "yes", 
		 "theory": "DFT", 
		 "functional": "B3LYP", 
		 "basiset": "6-31G**", 
		 "properties": { 
			 "R2extent": 3089.0186, 
			 "electric_dipole_moment_norm": 2.32254826645, 
			 "electric_quadrupole_moment_norm": 24.9856536132, 
			 "total_energy": -959.013194687, 
			 "HOMO_LUMO_gap": 0.18118, 
			 "cosmo_polarized_energy": -10.67, 
			 "cosmo_cavitation_energy": 26.93, 
			 "cosmo_dispersion_energy": -19.76, 
			 "cosmo_repulsion_energy": 1.58, 
			 "cosmo_total_nonelectrostatic_energy": 8.75, 
			 "SMD_solvation_energy": 5.92 
		},
		"coords": [
			{
				"x": -4.0346920334,
				"y": 2.2621828114,
				"z": 0.9222346422,
				"element": "C" 
			},
			{
				"x": -2.732066654,
				"y": 1.9274561097,
				"z": 1.3867284996,
				"element": "O" 
			},
			{
				"x": -1.9324144894,
				"y": 1.1804938892,
				"z": 0.5948791243,
				"element": "C" 
			},
			{
				"x": -2.2894671696,
				"y": 0.6979755795,
				"z": -0.6745830498,
				"element": "C" 
			},
			{
				"x": -1.3945673435,
				"y": -0.0647769795,
				"z": -1.4152042557,
				"element": "C" 
			},
			{
				"x": -0.1207460247,
				"y": -0.3713277674,
				"z": -0.9198647182,
				"element": "C" 
			},
			{
				"x": 0.2400141167,
				"y": 0.1094992537,
				"z": 0.3493466599,
				"element": "C" 
			},
			{
				"x": -0.6491161839,
				"y": 0.8713623934,
				"z": 1.0932660888,
				"element": "C" 
			},
			{
				"x": -0.1766631084,
				"y": 1.4598740124,
				"z": 2.6737327554,
				"element": "Cl" 
			},
			{
				"x": 0.7956424325,
				"y": -1.1963593152,
				"z": -1.7658844384,
				"element": "C" 
			},
			{
				"x": 2.1794442183,
				"y": -1.5333690317,
				"z": -1.2355349826,
				"element": "C" 
			},
			{
				"x": 0.4372118838,
				"y": -1.5928571577,
				"z": -2.8656025589,
				"element": "O" 
			},
			{
				"x": -3.9918533116,
				"y": 2.8556100545,
				"z": 0.0011398848,
				"element": "H" 
			},
			{
				"x": -4.6419423084,
				"y": 1.3654612337,
				"z": 0.7502412479,
				"element": "H" 
			},
			{
				"x": -4.486247883,
				"y": 2.8580043784,
				"z": 1.7158127643,
				"element": "H" 
			},
			{
				"x": -3.2682609408,
				"y": 0.9199444552,
				"z": -1.0824905607,
				"element": "H" 
			},
			{
				"x": -1.6656136435,
				"y": -0.4397534697,
				"z": -2.3962056358,
				"element": "H" 
			},
			{
				"x": 1.2148460194,
				"y": -0.1028943379,
				"z": 0.772589912,
				"element": "H" 
			},
			{
				"x": 2.7003736647,
				"y": -2.1353439217,
				"z": -1.980403002,
				"element": "H" 
			},
			{
				"x": 2.1160705019,
				"y": -2.0937869548,
				"z": -0.2961421192,
				"element": "H" 
			},
			{
				"x": 2.7572482568,
				"y": -0.6241952356,
				"z": -1.0353562578,
				"element": "H" 
			}
		],
		 "valence_orbital": [ 
			{
				"type": "occ",
				"energy": -0.32609,
				"method": "rhf"
			},
			{
				"type": "occ",
				"energy": -0.31248,
				"method": "rhf"
			},
			{
				"type": "occ",
				"energy": -0.26176,
				"method": "rhf"
			},
			{
				"type": "occ",
				"energy": -0.24824,
				"method": "rhf"
			},
			{
				"type": "occ",
				"energy": -0.23412,
				"method": "rhf"
			},
			{
				"type": "unocc",
				"energy": -0.05294,
				"method": "rhf"
			},
			{
				"type": "unocc",
				"energy": -0.01992,
				"method": "rhf"
			},
			{
				"type": "unocc",
				"energy": 0.02746,
				"method": "rhf"
			},
			{
				"type": "unocc",
				"energy": 0.04159,
				"method": "rhf"
			},
			{
				"type": "unocc",
				"energy": 0.08894,
				"method": "rhf"
			}
		],
		"cosmo_sigma_profile": { 
			"-0.025": 0.0,
			"-0.024": 0.0,
			"-0.023": 0.0,
			"-0.022": 0.0,
			"-0.021": 0.0,
			"-0.02": 0.0,
			"-0.019": 0.0,
			"-0.018": 0.0,
			"-0.017": 0.0,
			"-0.016": 0.0,
			"-0.015": 0.0,
			"-0.014": 0.0,
			"-0.013": 0.0,
			"-0.012": 0.0,
			"-0.011": 0.0,
			"-0.01": 0.0,
			"-0.009": 0.0,
			"-0.008": 1.50820713607,
			"-0.007": 8.65763924101,
			"-0.006": 19.2516882837,
			"-0.005": 17.5474989187,
			"-0.004": 16.9737329101,
			"-0.003": 14.4520159767,
			"-0.002": 13.3634333332,
			"-0.001": 14.4491090076,
			"0.0": 14.3437086727,
			"0.001": 17.585866621,
			"0.002": 18.4195629237,
			"0.003": 15.2269653447,
			"0.004": 10.7803147044,
			"0.005": 7.97189706798,
			"0.006": 4.7650613659,
			"0.007": 3.05140677928,
			"0.008": 2.58302472182,
			"0.009": 3.68608043011,
			"0.01": 3.4175764021,
			"0.011": 2.45765834621,
			"0.012": 4.43881521222,
			"0.013": 1.66616951581,
			"0.014": 0.310439784062,
			"0.015": 0.0,
			"0.016": 0.0,
			"0.017": 0.0,
			"0.018": 0.0,
			"0.019": 0.0,
			"0.02": 0.0,
			"0.021": 0.0,
			"0.022": 0.0,
			"0.023": 0.0,
			"0.024": 0.0,
			"0.025": 0.0
		}
	}
}
