{
	 "smiles": "CCOC1=CC=C(C=C1)C1=CSC(N)=N1", 
	 "Tm": 522.15, 
	 "num_atms": 27, 
	 "gaussian": { 
		 "optdone": 1, 
		 "sigma_profile": "yes", 
		 "theory": "DFT", 
		 "functional": "B3LYP", 
		 "basiset": "6-31G**", 
		 "properties": { 
			 "R2extent": 6507.0253, 
			 "electric_dipole_moment_norm": 1.90667979745, 
			 "electric_quadrupole_moment_norm": 15.2325775455, 
			 "total_energy": -1009.31565322, 
			 "HOMO_LUMO_gap": 0.16967, 
			 "cosmo_polarized_energy": -13.21, 
			 "cosmo_cavitation_energy": 32.64, 
			 "cosmo_dispersion_energy": -24.86, 
			 "cosmo_repulsion_energy": 1.91, 
			 "cosmo_total_nonelectrostatic_energy": 9.69, 
			 "SMD_solvation_energy": 4.5 
		},
		"coords": [
			{
				"x": -2.7993651161,
				"y": 0.1490059962,
				"z": -4.6641875365,
				"element": "C" 
			},
			{
				"x": -2.0670422126,
				"y": -0.4595392966,
				"z": -3.4808623805,
				"element": "C" 
			},
			{
				"x": -1.0608681844,
				"y": 0.4665373923,
				"z": -3.0753311034,
				"element": "O" 
			},
			{
				"x": -0.2612111797,
				"y": 0.1444841965,
				"z": -2.0179799814,
				"element": "C" 
			},
			{
				"x": 0.7060877207,
				"y": 1.1015794217,
				"z": -1.6701355081,
				"element": "C" 
			},
			{
				"x": 1.5688056658,
				"y": 0.8714354483,
				"z": -0.6104123557,
				"element": "C" 
			},
			{
				"x": 1.5021376009,
				"y": -0.3173845602,
				"z": 0.1417979458,
				"element": "C" 
			},
			{
				"x": 0.5318761869,
				"y": -1.2618409845,
				"z": -0.2178172962,
				"element": "C" 
			},
			{
				"x": -0.3437132255,
				"y": -1.0433260495,
				"z": -1.282606723,
				"element": "C" 
			},
			{
				"x": 2.4088834487,
				"y": -0.5832542503,
				"z": 1.273120695,
				"element": "C" 
			},
			{
				"x": 3.398094783,
				"y": 0.2422320781,
				"z": 1.73645709,
				"element": "C" 
			},
			{
				"x": 4.2147362043,
				"y": -0.4792200893,
				"z": 3.1010088328,
				"element": "S" 
			},
			{
				"x": 3.1468370282,
				"y": -1.8782973233,
				"z": 2.9233485131,
				"element": "C" 
			},
			{
				"x": 3.2038152842,
				"y": -2.9320179923,
				"z": 3.8102035655,
				"element": "N" 
			},
			{
				"x": 2.2845513101,
				"y": -1.7875488105,
				"z": 1.9575961798,
				"element": "N" 
			},
			{
				"x": -3.5845066807,
				"y": -0.5298838233,
				"z": -5.0110671967,
				"element": "H" 
			},
			{
				"x": -2.1084268103,
				"y": 0.3328097085,
				"z": -5.4916902156,
				"element": "H" 
			},
			{
				"x": -3.2611382942,
				"y": 1.0998308541,
				"z": -4.383798776,
				"element": "H" 
			},
			{
				"x": -1.6047974428,
				"y": -1.4180006498,
				"z": -3.7572363146,
				"element": "H" 
			},
			{
				"x": -2.7588685896,
				"y": -0.6498372343,
				"z": -2.6479186264,
				"element": "H" 
			},
			{
				"x": 0.7580862332,
				"y": 2.0179944669,
				"z": -2.2490065281,
				"element": "H" 
			},
			{
				"x": 2.3053941052,
				"y": 1.6307778395,
				"z": -0.3653574251,
				"element": "H" 
			},
			{
				"x": 0.4685781964,
				"y": -2.1814151473,
				"z": 0.3528164651,
				"element": "H" 
			},
			{
				"x": -1.0794647486,
				"y": -1.800661902,
				"z": -1.5259821757,
				"element": "H" 
			},
			{
				"x": 3.7063180944,
				"y": 1.2112338628,
				"z": 1.3751274367,
				"element": "H" 
			},
			{
				"x": 2.6835422812,
				"y": -3.7382703922,
				"z": 3.4889043542,
				"element": "H" 
			},
			{
				"x": 4.1139583412,
				"y": -3.1595227593,
				"z": 4.1848090652,
				"element": "H" 
			}
		],
		 "valence_orbital": [ 
			{
				"type": "occ",
				"energy": -0.27219,
				"method": "rhf"
			},
			{
				"type": "occ",
				"energy": -0.26844,
				"method": "rhf"
			},
			{
				"type": "occ",
				"energy": -0.24503,
				"method": "rhf"
			},
			{
				"type": "occ",
				"energy": -0.22764,
				"method": "rhf"
			},
			{
				"type": "occ",
				"energy": -0.18781,
				"method": "rhf"
			},
			{
				"type": "unocc",
				"energy": -0.01814,
				"method": "rhf"
			},
			{
				"type": "unocc",
				"energy": 0.00543,
				"method": "rhf"
			},
			{
				"type": "unocc",
				"energy": 0.01408,
				"method": "rhf"
			},
			{
				"type": "unocc",
				"energy": 0.02528,
				"method": "rhf"
			},
			{
				"type": "unocc",
				"energy": 0.07314,
				"method": "rhf"
			}
		],
		"cosmo_sigma_profile": { 
			"-0.025": 0.0,
			"-0.024": 0.0,
			"-0.023": 0.0,
			"-0.022": 0.0,
			"-0.021": 0.0,
			"-0.02": 0.0,
			"-0.019": 0.0,
			"-0.018": 0.0,
			"-0.017": 0.0,
			"-0.016": 0.0,
			"-0.015": 0.163870355835,
			"-0.014": 1.80913407584,
			"-0.013": 2.20541640097,
			"-0.012": 3.47649366469,
			"-0.011": 2.27553468258,
			"-0.01": 2.01883426914,
			"-0.009": 2.97421776984,
			"-0.008": 5.26213419405,
			"-0.007": 3.42362852158,
			"-0.006": 7.82127880933,
			"-0.005": 13.6190266614,
			"-0.004": 19.4449363296,
			"-0.003": 21.4504719944,
			"-0.002": 16.7482993875,
			"-0.001": 16.4234341832,
			"0.0": 16.5251459294,
			"0.001": 14.9663311814,
			"0.002": 16.0894932227,
			"0.003": 18.4559494204,
			"0.004": 25.6870929798,
			"0.005": 23.6443301687,
			"0.006": 9.79924959129,
			"0.007": 3.46159632352,
			"0.008": 4.20824998858,
			"0.009": 3.51863082691,
			"0.01": 3.65967951361,
			"0.011": 2.22507830401,
			"0.012": 0.522211303847,
			"0.013": 0.0371021197675,
			"0.014": 0.0,
			"0.015": 0.0,
			"0.016": 0.0,
			"0.017": 0.0,
			"0.018": 0.0,
			"0.019": 0.0,
			"0.02": 0.0,
			"0.021": 0.0,
			"0.022": 0.0,
			"0.023": 0.0,
			"0.024": 0.0,
			"0.025": 0.0
		}
	}
}
