{
	 "smiles": "CC1=NC=C(N)S1", 
	 "Tm": 394.15, 
	 "num_atms": 13, 
	 "gaussian": { 
		 "optdone": 1, 
		 "sigma_profile": "yes", 
		 "theory": "DFT", 
		 "functional": "B3LYP", 
		 "basiset": "6-31G**", 
		 "properties": { 
			 "R2extent": 894.0552, 
			 "electric_dipole_moment_norm": 2.12719884825, 
			 "electric_quadrupole_moment_norm": 10.4745281727, 
			 "total_energy": -663.720538688, 
			 "HOMO_LUMO_gap": 0.1959, 
			 "cosmo_polarized_energy": -10.14, 
			 "cosmo_cavitation_energy": 18.4, 
			 "cosmo_dispersion_energy": -14.44, 
			 "cosmo_repulsion_energy": 1.18, 
			 "cosmo_total_nonelectrostatic_energy": 5.14, 
			 "SMD_solvation_energy": 1.6 
		},
		"coords": [
			{
				"x": -0.5111983315,
				"y": 2.6292829151,
				"z": -0.8903070951,
				"element": "C" 
			},
			{
				"x": -0.1280650658,
				"y": 1.3869712319,
				"z": -0.1475812384,
				"element": "C" 
			},
			{
				"x": 0.1880098717,
				"y": 1.3359681833,
				"z": 1.1077915991,
				"element": "N" 
			},
			{
				"x": 0.4632867019,
				"y": 0.0509488994,
				"z": 1.5247825811,
				"element": "C" 
			},
			{
				"x": 0.3686852741,
				"y": -0.9275446675,
				"z": 0.5714871569,
				"element": "C" 
			},
			{
				"x": 0.672770082,
				"y": -2.2857007345,
				"z": 0.6591233877,
				"element": "N" 
			},
			{
				"x": -0.0839393904,
				"y": -0.1977984943,
				"z": -0.9583297483,
				"element": "S" 
			},
			{
				"x": 0.1693624286,
				"y": 2.8327457677,
				"z": -1.7245883131,
				"element": "H" 
			},
			{
				"x": -1.5259930604,
				"y": 2.5626921131,
				"z": -1.2985053371,
				"element": "H" 
			},
			{
				"x": -0.4694121551,
				"y": 3.4683316001,
				"z": -0.1927756554,
				"element": "H" 
			},
			{
				"x": 0.7337488469,
				"y": -0.1274896321,
				"z": 2.5597228631,
				"element": "H" 
			},
			{
				"x": -0.0066546386,
				"y": -2.8964604694,
				"z": 0.220578645,
				"element": "H" 
			},
			{
				"x": 0.8465994366,
				"y": -2.5807467127,
				"z": 1.6127011545,
				"element": "H" 
			}
		],
		 "valence_orbital": [ 
			{
				"type": "occ",
				"energy": -0.35482,
				"method": "rhf"
			},
			{
				"type": "occ",
				"energy": -0.3207,
				"method": "rhf"
			},
			{
				"type": "occ",
				"energy": -0.26417,
				"method": "rhf"
			},
			{
				"type": "occ",
				"energy": -0.25933,
				"method": "rhf"
			},
			{
				"type": "occ",
				"energy": -0.20204,
				"method": "rhf"
			},
			{
				"type": "unocc",
				"energy": -0.00614,
				"method": "rhf"
			},
			{
				"type": "unocc",
				"energy": 0.01562,
				"method": "rhf"
			},
			{
				"type": "unocc",
				"energy": 0.06848,
				"method": "rhf"
			},
			{
				"type": "unocc",
				"energy": 0.07323,
				"method": "rhf"
			},
			{
				"type": "unocc",
				"energy": 0.11087,
				"method": "rhf"
			}
		],
		"cosmo_sigma_profile": { 
			"-0.025": 0.0,
			"-0.024": 0.0,
			"-0.023": 0.0,
			"-0.022": 0.0,
			"-0.021": 0.0,
			"-0.02": 0.0,
			"-0.019": 0.0,
			"-0.018": 0.0,
			"-0.017": 0.0,
			"-0.016": 0.0,
			"-0.015": 0.0,
			"-0.014": 0.0674860222061,
			"-0.013": 2.45587046131,
			"-0.012": 2.90596576713,
			"-0.011": 3.20878000371,
			"-0.01": 2.84199191542,
			"-0.009": 2.65393366107,
			"-0.008": 3.02896388832,
			"-0.007": 2.72679297262,
			"-0.006": 3.78291864065,
			"-0.005": 7.65236674274,
			"-0.004": 10.4827877062,
			"-0.003": 10.0228089865,
			"-0.002": 9.71092451359,
			"-0.001": 11.2471063453,
			"0.0": 7.41121175781,
			"0.001": 6.67553316644,
			"0.002": 8.86523819472,
			"0.003": 11.0503738038,
			"0.004": 10.2596708846,
			"0.005": 8.7731225334,
			"0.006": 4.20772384309,
			"0.007": 2.81476559595,
			"0.008": 3.30903990647,
			"0.009": 1.97880848946,
			"0.01": 1.80744326872,
			"0.011": 1.49873395948,
			"0.012": 1.83266424687,
			"0.013": 1.62350789144,
			"0.014": 1.56742563625,
			"0.015": 1.04037831806,
			"0.016": 0.67398722889,
			"0.017": 0.0256432246935,
			"0.018": 0.0,
			"0.019": 0.0,
			"0.02": 0.0,
			"0.021": 0.0,
			"0.022": 0.0,
			"0.023": 0.0,
			"0.024": 0.0,
			"0.025": 0.0
		}
	}
}
