{
	 "smiles": "CC(C)(C1=CC(Br)=C(OCCO)C(Br)=C1)C1=CC(Br)=C(OCCO)C(Br)=C1", 
	 "Tm": 384.15, 
	 "num_atms": 47, 
	 "gaussian": { 
		 "optdone": 1, 
		 "sigma_profile": "yes", 
		 "theory": "DFT", 
		 "functional": "B3LYP", 
		 "basiset": "6-31G**", 
		 "properties": { 
			 "R2extent": 24246.3025, 
			 "electric_dipole_moment_norm": 0.50191816066, 
			 "electric_quadrupole_moment_norm": 30.0255971256, 
			 "total_energy": -11322.5369411, 
			 "HOMO_LUMO_gap": 0.20752, 
			 "cosmo_polarized_energy": -19.64, 
			 "cosmo_cavitation_energy": 59.2, 
			 "cosmo_dispersion_energy": -39.88, 
			 "cosmo_repulsion_energy": 3.16, 
			 "cosmo_total_nonelectrostatic_energy": 22.47, 
			 "SMD_solvation_energy": 6.08 
		},
		"coords": [
			{
				"x": -1.376218909,
				"y": 2.9650044982,
				"z": -1.4657289345,
				"element": "C" 
			},
			{
				"x": -1.64039273,
				"y": 1.6723000343,
				"z": -0.6571939926,
				"element": "C" 
			},
			{
				"x": -3.1694025953,
				"y": 1.4349371142,
				"z": -0.6382498389,
				"element": "C" 
			},
			{
				"x": -1.1682571186,
				"y": 1.7893109892,
				"z": 0.806599551,
				"element": "C" 
			},
			{
				"x": -1.1863561192,
				"y": 0.649368782,
				"z": 1.6246543196,
				"element": "C" 
			},
			{
				"x": -0.8185756,
				"y": 0.7271015457,
				"z": 2.9616976685,
				"element": "C" 
			},
			{
				"x": -0.8780444232,
				"y": -0.8500761996,
				"z": 4.0341879321,
				"element": "Br" 
			},
			{
				"x": -0.4136804149,
				"y": 1.9373946914,
				"z": 3.5493429664,
				"element": "C" 
			},
			{
				"x": -0.111818241,
				"y": 2.0193008565,
				"z": 4.8741026996,
				"element": "O" 
			},
			{
				"x": 1.2688783073,
				"y": 1.7991027684,
				"z": 5.2192656508,
				"element": "C" 
			},
			{
				"x": 1.3786372937,
				"y": 1.9465973848,
				"z": 6.7333845332,
				"element": "C" 
			},
			{
				"x": 2.7142246426,
				"y": 1.7472338912,
				"z": 7.1677985895,
				"element": "O" 
			},
			{
				"x": -0.3976462901,
				"y": 3.0659986197,
				"z": 2.7208168517,
				"element": "C" 
			},
			{
				"x": 0.1309010176,
				"y": 4.7462187384,
				"z": 3.4510403557,
				"element": "Br" 
			},
			{
				"x": -0.7679752382,
				"y": 3.000822097,
				"z": 1.3771510802,
				"element": "C" 
			},
			{
				"x": -0.8773466706,
				"y": 0.5245680929,
				"z": -1.3497907515,
				"element": "C" 
			},
			{
				"x": -1.5216858213,
				"y": -0.4844732385,
				"z": -2.0710283311,
				"element": "C" 
			},
			{
				"x": -0.7848861058,
				"y": -1.4738402319,
				"z": -2.7230163588,
				"element": "C" 
			},
			{
				"x": -1.7139660945,
				"y": -2.8217437265,
				"z": -3.7007864774,
				"element": "Br" 
			},
			{
				"x": 0.6146266334,
				"y": -1.4988161986,
				"z": -2.6891538581,
				"element": "C" 
			},
			{
				"x": 1.3293852392,
				"y": -2.4295983428,
				"z": -3.378779939,
				"element": "O" 
			},
			{
				"x": 1.6565851879,
				"y": -3.6323991815,
				"z": -2.6575447628,
				"element": "C" 
			},
			{
				"x": 2.4349696165,
				"y": -4.5284762966,
				"z": -3.6154111397,
				"element": "C" 
			},
			{
				"x": 2.8005374698,
				"y": -5.7468302214,
				"z": -2.9875214892,
				"element": "O" 
			},
			{
				"x": 1.2479741726,
				"y": -0.4778959265,
				"z": -1.9606516576,
				"element": "C" 
			},
			{
				"x": 3.1541939176,
				"y": -0.4405918345,
				"z": -1.8820229432,
				"element": "Br" 
			},
			{
				"x": 0.5250928717,
				"y": 0.5102503973,
				"z": -1.3049120157,
				"element": "C" 
			},
			{
				"x": -0.3173415022,
				"y": 3.2382896405,
				"z": -1.4711286726,
				"element": "H" 
			},
			{
				"x": -1.6854390397,
				"y": 2.8144977252,
				"z": -2.5037220051,
				"element": "H" 
			},
			{
				"x": -1.9499793193,
				"y": 3.8076055364,
				"z": -1.0669116638,
				"element": "H" 
			},
			{
				"x": -3.4347891743,
				"y": 0.4997267839,
				"z": -0.1373635584,
				"element": "H" 
			},
			{
				"x": -3.6576280692,
				"y": 2.2508192259,
				"z": -0.0981767266,
				"element": "H" 
			},
			{
				"x": -3.5810963993,
				"y": 1.4143932997,
				"z": -1.6523250728,
				"element": "H" 
			},
			{
				"x": -1.4811783987,
				"y": -0.310495628,
				"z": 1.2162333809,
				"element": "H" 
			},
			{
				"x": 1.572430896,
				"y": 0.7906350207,
				"z": 4.9065562589,
				"element": "H" 
			},
			{
				"x": 1.9088958055,
				"y": 2.5341082654,
				"z": 4.7185544838,
				"element": "H" 
			},
			{
				"x": 1.1018326039,
				"y": 2.9649681115,
				"z": 7.019916102,
				"element": "H" 
			},
			{
				"x": 0.6702533102,
				"y": 1.2599314388,
				"z": 7.2186498037,
				"element": "H" 
			},
			{
				"x": 2.9179167902,
				"y": 0.8066051483,
				"z": 7.0876504015,
				"element": "H" 
			},
			{
				"x": -0.7373723888,
				"y": 3.9107514451,
				"z": 0.7928023136,
				"element": "H" 
			},
			{
				"x": -2.6007126398,
				"y": -0.5202637498,
				"z": -2.1401872935,
				"element": "H" 
			},
			{
				"x": 2.2677836665,
				"y": -3.3828416485,
				"z": -1.7794220984,
				"element": "H" 
			},
			{
				"x": 0.7432382596,
				"y": -4.1368418913,
				"z": -2.3230364442,
				"element": "H" 
			},
			{
				"x": 1.7990330085,
				"y": -4.7895596666,
				"z": -4.4658336651,
				"element": "H" 
			},
			{
				"x": 3.3030390132,
				"y": -3.9778441332,
				"z": -4.0053553981,
				"element": "H" 
			},
			{
				"x": 3.499946935,
				"y": -5.5566689956,
				"z": -2.3492762026,
				"element": "H" 
			},
			{
				"x": 1.0608126443,
				"y": 1.2700149689,
				"z": -0.7473736514,
				"element": "H" 
			}
		],
		 "valence_orbital": [ 
			{
				"type": "occ",
				"energy": -0.27847,
				"method": "rhf"
			},
			{
				"type": "occ",
				"energy": -0.25518,
				"method": "rhf"
			},
			{
				"type": "occ",
				"energy": -0.25251,
				"method": "rhf"
			},
			{
				"type": "occ",
				"energy": -0.25193,
				"method": "rhf"
			},
			{
				"type": "occ",
				"energy": -0.24327,
				"method": "rhf"
			},
			{
				"type": "unocc",
				"energy": -0.03575,
				"method": "rhf"
			},
			{
				"type": "unocc",
				"energy": -0.03131,
				"method": "rhf"
			},
			{
				"type": "unocc",
				"energy": -0.03046,
				"method": "rhf"
			},
			{
				"type": "unocc",
				"energy": -0.02219,
				"method": "rhf"
			},
			{
				"type": "unocc",
				"energy": -0.01996,
				"method": "rhf"
			}
		],
		"cosmo_sigma_profile": { 
			"-0.025": 0.0,
			"-0.024": 0.0,
			"-0.023": 0.0,
			"-0.022": 0.0,
			"-0.021": 0.0,
			"-0.02": 0.0,
			"-0.019": 0.0,
			"-0.018": 0.0,
			"-0.017": 0.038376290016,
			"-0.016": 1.37730022662,
			"-0.015": 2.72767926231,
			"-0.014": 1.6676214753,
			"-0.013": 2.15935871652,
			"-0.012": 2.06422535278,
			"-0.011": 2.17574413684,
			"-0.01": 1.68889848563,
			"-0.009": 1.85628766038,
			"-0.008": 2.04058262326,
			"-0.007": 4.71147910762,
			"-0.006": 12.1368655276,
			"-0.005": 21.3340522948,
			"-0.004": 41.7831804378,
			"-0.003": 42.8582355166,
			"-0.002": 39.3783943297,
			"-0.001": 37.4876205233,
			"0.0": 42.723914133,
			"0.001": 54.5902866621,
			"0.002": 42.2717918319,
			"0.003": 30.7529932469,
			"0.004": 35.9714345042,
			"0.005": 14.5361224114,
			"0.006": 8.02278588639,
			"0.007": 5.4921320437,
			"0.008": 6.04720363521,
			"0.009": 5.10281625408,
			"0.01": 3.68570274246,
			"0.011": 2.79533565472,
			"0.012": 3.22341310118,
			"0.013": 3.35129120147,
			"0.014": 4.07158652502,
			"0.015": 0.0945399863001,
			"0.016": 0.0,
			"0.017": 0.0,
			"0.018": 0.0,
			"0.019": 0.0,
			"0.02": 0.0,
			"0.021": 0.0,
			"0.022": 0.0,
			"0.023": 0.0,
			"0.024": 0.0,
			"0.025": 0.0
		}
	}
}
