{
	 "smiles": "O=C(NC1=CC=CC=C1)OC1CCCCC(C1)OC(=O)NC1=CC=CC=C1", 
	 "Tm": 443.15, 
	 "num_atms": 51, 
	 "gaussian": { 
		 "optdone": 1, 
		 "sigma_profile": "yes", 
		 "theory": "DFT", 
		 "functional": "B3LYP", 
		 "basiset": "6-31G**", 
		 "properties": { 
			 "R2extent": 17679.2921, 
			 "electric_dipole_moment_norm": 1.71883901515, 
			 "electric_quadrupole_moment_norm": 15.8460517887, 
			 "total_energy": -1225.16264361, 
			 "HOMO_LUMO_gap": 0.21429, 
			 "cosmo_polarized_energy": -18.15, 
			 "cosmo_cavitation_energy": 53.42, 
			 "cosmo_dispersion_energy": -37.14, 
			 "cosmo_repulsion_energy": 2.8, 
			 "cosmo_total_nonelectrostatic_energy": 19.08, 
			 "SMD_solvation_energy": 9.7 
		},
		"coords": [
			{
				"x": -1.7516754524,
				"y": -0.8951847144,
				"z": -3.7826596939,
				"element": "O" 
			},
			{
				"x": -2.444547327,
				"y": -0.0353078881,
				"z": -3.2651595572,
				"element": "C" 
			},
			{
				"x": -3.5965715062,
				"y": 0.4216717767,
				"z": -3.8675729826,
				"element": "N" 
			},
			{
				"x": -4.5929928118,
				"y": 1.349615827,
				"z": -3.4978169591,
				"element": "C" 
			},
			{
				"x": -5.7741301865,
				"y": 1.3387291065,
				"z": -4.2598977403,
				"element": "C" 
			},
			{
				"x": -6.8043599024,
				"y": 2.2336137458,
				"z": -3.9873973688,
				"element": "C" 
			},
			{
				"x": -6.6809748222,
				"y": 3.1558746784,
				"z": -2.9465955554,
				"element": "C" 
			},
			{
				"x": -5.5082104277,
				"y": 3.1688025624,
				"z": -2.1917395322,
				"element": "C" 
			},
			{
				"x": -4.4641275562,
				"y": 2.2821178213,
				"z": -2.4575185907,
				"element": "C" 
			},
			{
				"x": -2.1875633273,
				"y": 0.5560916182,
				"z": -2.0791452575,
				"element": "O" 
			},
			{
				"x": -0.9815066976,
				"y": 0.1046506315,
				"z": -1.3815189281,
				"element": "C" 
			},
			{
				"x": 0.2381951617,
				"y": 0.8814840079,
				"z": -1.8949427619,
				"element": "C" 
			},
			{
				"x": 0.4986264244,
				"y": 2.26443532,
				"z": -1.2757073891,
				"element": "C" 
			},
			{
				"x": 1.264394924,
				"y": 2.1998031841,
				"z": 0.056496589,
				"element": "C" 
			},
			{
				"x": 0.4825821947,
				"y": 1.6609726156,
				"z": 1.2626727888,
				"element": "C" 
			},
			{
				"x": -0.2000723506,
				"y": 0.2937538837,
				"z": 1.1159888952,
				"element": "C" 
			},
			{
				"x": -1.3493776265,
				"y": 0.2444189335,
				"z": 0.1038991083,
				"element": "C" 
			},
			{
				"x": 0.7536224856,
				"y": -0.7395815312,
				"z": 0.7456736255,
				"element": "O" 
			},
			{
				"x": 1.4471254513,
				"y": -1.3196038472,
				"z": 1.7669116519,
				"element": "C" 
			},
			{
				"x": 1.3146449643,
				"y": -1.0332519574,
				"z": 2.9424758089,
				"element": "O" 
			},
			{
				"x": 2.2929587258,
				"y": -2.2585352234,
				"z": 1.23668139,
				"element": "N" 
			},
			{
				"x": 3.1993921994,
				"y": -3.1021340021,
				"z": 1.91116172,
				"element": "C" 
			},
			{
				"x": 3.3739167227,
				"y": -3.0890713834,
				"z": 3.3030347717,
				"element": "C" 
			},
			{
				"x": 4.2970724338,
				"y": -3.9597619615,
				"z": 3.8828191395,
				"element": "C" 
			},
			{
				"x": 5.0490218454,
				"y": -4.8424887861,
				"z": 3.1066014937,
				"element": "C" 
			},
			{
				"x": 4.8702411201,
				"y": -4.8508469125,
				"z": 1.7220402618,
				"element": "C" 
			},
			{
				"x": 3.9536745671,
				"y": -3.9886892694,
				"z": 1.1265371272,
				"element": "C" 
			},
			{
				"x": -3.766750371,
				"y": -0.0848095921,
				"z": -4.7250762556,
				"element": "H" 
			},
			{
				"x": -5.8819190931,
				"y": 0.6190341289,
				"z": -5.0682243414,
				"element": "H" 
			},
			{
				"x": -7.7073032226,
				"y": 2.2048803683,
				"z": -4.5905078266,
				"element": "H" 
			},
			{
				"x": -7.4844063652,
				"y": 3.8528211867,
				"z": -2.7297159005,
				"element": "H" 
			},
			{
				"x": -5.3932576968,
				"y": 3.8837190865,
				"z": -1.3816541893,
				"element": "H" 
			},
			{
				"x": -3.5592406403,
				"y": 2.3122086869,
				"z": -1.8690178143,
				"element": "H" 
			},
			{
				"x": -0.844613124,
				"y": -0.946360134,
				"z": -1.6383169495,
				"element": "H" 
			},
			{
				"x": 0.1270571103,
				"y": 0.9573222278,
				"z": -2.9809564411,
				"element": "H" 
			},
			{
				"x": 1.1204295293,
				"y": 0.2525677432,
				"z": -1.7280367856,
				"element": "H" 
			},
			{
				"x": 1.0978152744,
				"y": 2.8494283574,
				"z": -1.9834958229,
				"element": "H" 
			},
			{
				"x": -0.443484827,
				"y": 2.8166767433,
				"z": -1.1545745275,
				"element": "H" 
			},
			{
				"x": 2.1646784801,
				"y": 1.5893967011,
				"z": -0.0921995922,
				"element": "H" 
			},
			{
				"x": 1.621384075,
				"y": 3.2037184243,
				"z": 0.3175775377,
				"element": "H" 
			},
			{
				"x": -0.3090784928,
				"y": 2.3727535823,
				"z": 1.5339244654,
				"element": "H" 
			},
			{
				"x": 1.1515530706,
				"y": 1.6040838072,
				"z": 2.1282198276,
				"element": "H" 
			},
			{
				"x": -0.5960547669,
				"y": 0.0267656118,
				"z": 2.0996184965,
				"element": "H" 
			},
			{
				"x": -1.9329196593,
				"y": 1.1620217536,
				"z": 0.2336516108,
				"element": "H" 
			},
			{
				"x": -2.0203294817,
				"y": -0.5829930741,
				"z": 0.3576573765,
				"element": "H" 
			},
			{
				"x": 2.2437543995,
				"y": -2.3559999241,
				"z": 0.232680418,
				"element": "H" 
			},
			{
				"x": 2.791930081,
				"y": -2.4073503254,
				"z": 3.9072988745,
				"element": "H" 
			},
			{
				"x": 4.4254194398,
				"y": -3.9427740851,
				"z": 4.9615137894,
				"element": "H" 
			},
			{
				"x": 5.7633303595,
				"y": -5.5142950272,
				"z": 3.5723996335,
				"element": "H" 
			},
			{
				"x": 5.4447620342,
				"y": -5.5301134008,
				"z": 1.0988582156,
				"element": "H" 
			},
			{
				"x": 3.8189846607,
				"y": -4.0002810826,
				"z": 0.0471541462,
				"element": "H" 
			}
		],
		 "valence_orbital": [ 
			{
				"type": "occ",
				"energy": -0.27714,
				"method": "rhf"
			},
			{
				"type": "occ",
				"energy": -0.25345,
				"method": "rhf"
			},
			{
				"type": "occ",
				"energy": -0.25006,
				"method": "rhf"
			},
			{
				"type": "occ",
				"energy": -0.21931,
				"method": "rhf"
			},
			{
				"type": "occ",
				"energy": -0.21926,
				"method": "rhf"
			},
			{
				"type": "unocc",
				"energy": -0.00497,
				"method": "rhf"
			},
			{
				"type": "unocc",
				"energy": -0.00376,
				"method": "rhf"
			},
			{
				"type": "unocc",
				"energy": -0.00316,
				"method": "rhf"
			},
			{
				"type": "unocc",
				"energy": -0.00042,
				"method": "rhf"
			},
			{
				"type": "unocc",
				"energy": 0.05845,
				"method": "rhf"
			}
		],
		"cosmo_sigma_profile": { 
			"-0.025": 0.0,
			"-0.024": 0.0,
			"-0.023": 0.0,
			"-0.022": 0.0,
			"-0.021": 0.0,
			"-0.02": 0.0,
			"-0.019": 0.0,
			"-0.018": 0.0,
			"-0.017": 0.0,
			"-0.016": 0.0365336078636,
			"-0.015": 0.934401895195,
			"-0.014": 1.99589544317,
			"-0.013": 2.03562863939,
			"-0.012": 2.03539736366,
			"-0.011": 2.81613054945,
			"-0.01": 2.61304153587,
			"-0.009": 1.62022333152,
			"-0.008": 1.93541069913,
			"-0.007": 3.67684382288,
			"-0.006": 9.79337540341,
			"-0.005": 22.8070907054,
			"-0.004": 32.9100476665,
			"-0.003": 39.1905323691,
			"-0.002": 41.7404752548,
			"-0.001": 45.0074387554,
			"0.0": 37.9429943563,
			"0.001": 31.9100358764,
			"0.002": 26.1273105153,
			"0.003": 23.1741948033,
			"0.004": 22.7936290219,
			"0.005": 23.1652088889,
			"0.006": 18.8598067617,
			"0.007": 3.57001152573,
			"0.008": 2.69138907894,
			"0.009": 2.50385933457,
			"0.01": 2.86307100034,
			"0.011": 4.03198324417,
			"0.012": 5.38480032409,
			"0.013": 5.6437019652,
			"0.014": 0.269347231433,
			"0.015": 0.0,
			"0.016": 0.0,
			"0.017": 0.0,
			"0.018": 0.0,
			"0.019": 0.0,
			"0.02": 0.0,
			"0.021": 0.0,
			"0.022": 0.0,
			"0.023": 0.0,
			"0.024": 0.0,
			"0.025": 0.0
		}
	}
}
