{
	 "smiles": "CN(C)C1=CC=C(C=C1)C1=CCNC1", 
	 "Tm": 373.15, 
	 "num_atms": 30, 
	 "gaussian": { 
		 "optdone": 1, 
		 "sigma_profile": "yes", 
		 "theory": "DFT", 
		 "functional": "B3LYP", 
		 "basiset": "6-31G**", 
		 "properties": { 
			 "R2extent": 4260.2483, 
			 "electric_dipole_moment_norm": 3.57893573706, 
			 "electric_quadrupole_moment_norm": 8.61735580036, 
			 "total_energy": -576.39005515, 
			 "HOMO_LUMO_gap": 0.16737, 
			 "cosmo_polarized_energy": -9.32, 
			 "cosmo_cavitation_energy": 31.44, 
			 "cosmo_dispersion_energy": -23.44, 
			 "cosmo_repulsion_energy": 1.82, 
			 "cosmo_total_nonelectrostatic_energy": 9.82, 
			 "SMD_solvation_energy": 1.5 
		},
		"coords": [
			{
				"x": 0.3133908666,
				"y": 3.9084041183,
				"z": 0.4834967991,
				"element": "C" 
			},
			{
				"x": 0.9382592261,
				"y": 2.871054751,
				"z": -0.3188878421,
				"element": "N" 
			},
			{
				"x": 1.5563391473,
				"y": 3.2573673817,
				"z": -1.5757304731,
				"element": "C" 
			},
			{
				"x": 0.5739622153,
				"y": 1.5449486836,
				"z": -0.1173114178,
				"element": "C" 
			},
			{
				"x": -0.2178271932,
				"y": 1.1534574269,
				"z": 0.9842350834,
				"element": "C" 
			},
			{
				"x": -0.5498925532,
				"y": -0.1811823127,
				"z": 1.1917605272,
				"element": "C" 
			},
			{
				"x": -0.1248676307,
				"y": -1.203382948,
				"z": 0.3260584462,
				"element": "C" 
			},
			{
				"x": 0.6488118467,
				"y": -0.803703343,
				"z": -0.7799623224,
				"element": "C" 
			},
			{
				"x": 0.9876870168,
				"y": 0.5219876908,
				"z": -1.0046903722,
				"element": "C" 
			},
			{
				"x": -0.4853683324,
				"y": -2.6043534153,
				"z": 0.5679515624,
				"element": "C" 
			},
			{
				"x": -0.0471343239,
				"y": -3.7107210153,
				"z": -0.0582046267,
				"element": "C" 
			},
			{
				"x": -0.6338077311,
				"y": -4.9560612783,
				"z": 0.5625690445,
				"element": "C" 
			},
			{
				"x": -1.6888724537,
				"y": -4.4696907215,
				"z": 1.4811780357,
				"element": "N" 
			},
			{
				"x": -1.4229727603,
				"y": -3.0315970414,
				"z": 1.6946199147,
				"element": "C" 
			},
			{
				"x": 0.5142215888,
				"y": 3.7547975413,
				"z": 1.5498289409,
				"element": "H" 
			},
			{
				"x": 0.7349407984,
				"y": 4.8765030504,
				"z": 0.207980141,
				"element": "H" 
			},
			{
				"x": -0.7788738538,
				"y": 3.9577755957,
				"z": 0.3488135435,
				"element": "H" 
			},
			{
				"x": 1.7940585566,
				"y": 4.3219598249,
				"z": -1.5444204616,
				"element": "H" 
			},
			{
				"x": 2.4961541669,
				"y": 2.7167082275,
				"z": -1.7346784139,
				"element": "H" 
			},
			{
				"x": 0.9092930868,
				"y": 3.0753756195,
				"z": -2.4485334433,
				"element": "H" 
			},
			{
				"x": -0.5815227635,
				"y": 1.8915951201,
				"z": 1.6884033139,
				"element": "H" 
			},
			{
				"x": -1.1559409824,
				"y": -0.4275604924,
				"z": 2.0585762913,
				"element": "H" 
			},
			{
				"x": 0.9846916375,
				"y": -1.5494926717,
				"z": -1.4947026599,
				"element": "H" 
			},
			{
				"x": 1.5759436322,
				"y": 0.7633961922,
				"z": -1.8815441551,
				"element": "H" 
			},
			{
				"x": 0.6866955945,
				"y": -3.7454935846,
				"z": -0.8566509383,
				"element": "H" 
			},
			{
				"x": 0.1362020377,
				"y": -5.513692614,
				"z": 1.1212677654,
				"element": "H" 
			},
			{
				"x": -1.0497146683,
				"y": -5.6612391427,
				"z": -0.1690171596,
				"element": "H" 
			},
			{
				"x": -2.5759761905,
				"y": -4.5463330415,
				"z": 0.9927990145,
				"element": "H" 
			},
			{
				"x": -2.3615680728,
				"y": -2.4644679136,
				"z": 1.716481393,
				"element": "H" 
			},
			{
				"x": -0.9380119083,
				"y": -2.8699596879,
				"z": 2.6705144694,
				"element": "H" 
			}
		],
		 "valence_orbital": [ 
			{
				"type": "occ",
				"energy": -0.29457,
				"method": "rhf"
			},
			{
				"type": "occ",
				"energy": -0.24242,
				"method": "rhf"
			},
			{
				"type": "occ",
				"energy": -0.23641,
				"method": "rhf"
			},
			{
				"type": "occ",
				"energy": -0.21408,
				"method": "rhf"
			},
			{
				"type": "occ",
				"energy": -0.17773,
				"method": "rhf"
			},
			{
				"type": "unocc",
				"energy": -0.01036,
				"method": "rhf"
			},
			{
				"type": "unocc",
				"energy": 0.00864,
				"method": "rhf"
			},
			{
				"type": "unocc",
				"energy": 0.07566,
				"method": "rhf"
			},
			{
				"type": "unocc",
				"energy": 0.08525,
				"method": "rhf"
			},
			{
				"type": "unocc",
				"energy": 0.09147,
				"method": "rhf"
			}
		],
		"cosmo_sigma_profile": { 
			"-0.025": 0.0,
			"-0.024": 0.0,
			"-0.023": 0.0,
			"-0.022": 0.0,
			"-0.021": 0.0,
			"-0.02": 0.0,
			"-0.019": 0.0,
			"-0.018": 0.0,
			"-0.017": 0.0,
			"-0.016": 0.0,
			"-0.015": 0.0,
			"-0.014": 0.0,
			"-0.013": 0.0,
			"-0.012": 0.0,
			"-0.011": 0.0,
			"-0.01": 0.719326796161,
			"-0.009": 1.4632039902,
			"-0.008": 1.74775823861,
			"-0.007": 1.43417125658,
			"-0.006": 6.45952678467,
			"-0.005": 17.4449013075,
			"-0.004": 22.4718813336,
			"-0.003": 30.4579435668,
			"-0.002": 31.3941994899,
			"-0.001": 29.4212130344,
			"0.0": 15.1648017335,
			"0.001": 12.656412932,
			"0.002": 10.0498102159,
			"0.003": 10.1796693408,
			"0.004": 10.8394756712,
			"0.005": 11.3967090986,
			"0.006": 14.789734403,
			"0.007": 10.1983953352,
			"0.008": 1.82750166247,
			"0.009": 1.11763768322,
			"0.01": 0.442340755643,
			"0.011": 0.899861050834,
			"0.012": 0.634577668357,
			"0.013": 0.355358158533,
			"0.014": 0.883783567377,
			"0.015": 0.780288137332,
			"0.016": 0.462003294618,
			"0.017": 0.633874054441,
			"0.018": 0.489867182366,
			"0.019": 0.634707132965,
			"0.02": 0.0390061462391,
			"0.021": 0.0,
			"0.022": 0.0,
			"0.023": 0.0,
			"0.024": 0.0,
			"0.025": 0.0
		}
	}
}
