{
	 "smiles": "NN=C1C2=CC=CC=C2C2=CC=CC=C12", 
	 "Tm": 425.15, 
	 "num_atms": 25, 
	 "gaussian": { 
		 "optdone": 1, 
		 "sigma_profile": "yes", 
		 "theory": "DFT", 
		 "functional": "B3LYP", 
		 "basiset": "6-31G**", 
		 "properties": { 
			 "R2extent": 3043.7345, 
			 "electric_dipole_moment_norm": 1.93315164692, 
			 "electric_quadrupole_moment_norm": 11.2403065514, 
			 "total_energy": -610.891443793, 
			 "HOMO_LUMO_gap": 0.15221, 
			 "cosmo_polarized_energy": -10.83, 
			 "cosmo_cavitation_energy": 28.64, 
			 "cosmo_dispersion_energy": -21.4, 
			 "cosmo_repulsion_energy": 1.63, 
			 "cosmo_total_nonelectrostatic_energy": 8.87, 
			 "SMD_solvation_energy": 3.82 
		},
		"coords": [
			{
				"x": -2.7708018916,
				"y": -2.2974712266,
				"z": 0.577358397,
				"element": "N" 
			},
			{
				"x": -2.2142515983,
				"y": -1.5552163261,
				"z": -0.42077833,
				"element": "N" 
			},
			{
				"x": -1.0991119695,
				"y": -0.9349236892,
				"z": -0.2104148732,
				"element": "C" 
			},
			{
				"x": -0.4443300989,
				"y": -0.1687468802,
				"z": -1.2911626987,
				"element": "C" 
			},
			{
				"x": -0.8604415121,
				"y": 0.0813994678,
				"z": -2.5957104154,
				"element": "C" 
			},
			{
				"x": -0.0229060508,
				"y": 0.824687457,
				"z": -3.4324438127,
				"element": "C" 
			},
			{
				"x": 1.2118244343,
				"y": 1.3000701668,
				"z": -2.9714045372,
				"element": "C" 
			},
			{
				"x": 1.6331104996,
				"y": 1.0443956609,
				"z": -1.6630447723,
				"element": "C" 
			},
			{
				"x": 0.7986139362,
				"y": 0.3083955593,
				"z": -0.8225262101,
				"element": "C" 
			},
			{
				"x": 0.9480559804,
				"y": -0.1045252382,
				"z": 0.5810029185,
				"element": "C" 
			},
			{
				"x": 1.9708867385,
				"y": 0.1431486244,
				"z": 1.4920317998,
				"element": "C" 
			},
			{
				"x": 1.8442085524,
				"y": -0.3290200125,
				"z": 2.8029432898,
				"element": "C" 
			},
			{
				"x": 0.6984568152,
				"y": -1.0221207571,
				"z": 3.2005547938,
				"element": "C" 
			},
			{
				"x": -0.3347930548,
				"y": -1.2778767289,
				"z": 2.2907172772,
				"element": "C" 
			},
			{
				"x": -0.2054018306,
				"y": -0.8404096668,
				"z": 0.9693714203,
				"element": "C" 
			},
			{
				"x": -3.459319382,
				"y": -2.9306551307,
				"z": 0.1912798518,
				"element": "H" 
			},
			{
				"x": -2.1179568767,
				"y": -2.7774661582,
				"z": 1.192782121,
				"element": "H" 
			},
			{
				"x": -1.8165099606,
				"y": -0.2952958423,
				"z": -2.9453048916,
				"element": "H" 
			},
			{
				"x": -0.3314817707,
				"y": 1.0360201787,
				"z": -4.4523427181,
				"element": "H" 
			},
			{
				"x": 1.8491582047,
				"y": 1.8735806602,
				"z": -3.6384070672,
				"element": "H" 
			},
			{
				"x": 2.5928693228,
				"y": 1.4156328723,
				"z": -1.3140152865,
				"element": "H" 
			},
			{
				"x": 2.8529051362,
				"y": 0.704200951,
				"z": 1.1959110756,
				"element": "H" 
			},
			{
				"x": 2.6369918859,
				"y": -0.141772826,
				"z": 3.521506739,
				"element": "H" 
			},
			{
				"x": 0.6014616565,
				"y": -1.3603505323,
				"z": 4.2279804304,
				"element": "H" 
			},
			{
				"x": -1.2346371659,
				"y": -1.7699805832,
				"z": 2.6423154988,
				"element": "H" 
			}
		],
		 "valence_orbital": [ 
			{
				"type": "occ",
				"energy": -0.27612,
				"method": "rhf"
			},
			{
				"type": "occ",
				"energy": -0.26872,
				"method": "rhf"
			},
			{
				"type": "occ",
				"energy": -0.24934,
				"method": "rhf"
			},
			{
				"type": "occ",
				"energy": -0.215,
				"method": "rhf"
			},
			{
				"type": "occ",
				"energy": -0.20917,
				"method": "rhf"
			},
			{
				"type": "unocc",
				"energy": -0.05696,
				"method": "rhf"
			},
			{
				"type": "unocc",
				"energy": -0.02622,
				"method": "rhf"
			},
			{
				"type": "unocc",
				"energy": 0.0084,
				"method": "rhf"
			},
			{
				"type": "unocc",
				"energy": 0.04077,
				"method": "rhf"
			},
			{
				"type": "unocc",
				"energy": 0.06957,
				"method": "rhf"
			}
		],
		"cosmo_sigma_profile": { 
			"-0.025": 0.0,
			"-0.024": 0.0,
			"-0.023": 0.0,
			"-0.022": 0.0,
			"-0.021": 0.0,
			"-0.02": 0.0,
			"-0.019": 0.0,
			"-0.018": 0.0,
			"-0.017": 0.0,
			"-0.016": 0.0,
			"-0.015": 0.0,
			"-0.014": 0.154199422194,
			"-0.013": 1.78005132553,
			"-0.012": 2.68947018211,
			"-0.011": 3.24700213527,
			"-0.01": 2.46316642808,
			"-0.009": 2.16352725069,
			"-0.008": 2.59295535857,
			"-0.007": 2.42107400116,
			"-0.006": 11.8289597433,
			"-0.005": 16.5189540176,
			"-0.004": 18.2926516019,
			"-0.003": 14.3203294769,
			"-0.002": 12.0063550918,
			"-0.001": 10.3826059322,
			"0.0": 10.6402974205,
			"0.001": 13.5530771629,
			"0.002": 18.7258214892,
			"0.003": 20.8448950675,
			"0.004": 23.0093121052,
			"0.005": 22.2181727508,
			"0.006": 8.05485559044,
			"0.007": 2.42190593704,
			"0.008": 2.69736094656,
			"0.009": 2.30628868979,
			"0.01": 2.00913572536,
			"0.011": 1.47247719915,
			"0.012": 1.21483637964,
			"0.013": 0.145876936654,
			"0.014": 0.0,
			"0.015": 0.0,
			"0.016": 0.0,
			"0.017": 0.0,
			"0.018": 0.0,
			"0.019": 0.0,
			"0.02": 0.0,
			"0.021": 0.0,
			"0.022": 0.0,
			"0.023": 0.0,
			"0.024": 0.0,
			"0.025": 0.0
		}
	}
}
