{
	 "smiles": "N#CC1=CC2=C(OC=C2)C=C1", 
	 "Tm": 358.15, 
	 "num_atms": 16, 
	 "gaussian": { 
		 "optdone": 1, 
		 "sigma_profile": "yes", 
		 "theory": "DFT", 
		 "functional": "B3LYP", 
		 "basiset": "6-31G**", 
		 "properties": { 
			 "R2extent": 2236.4254, 
			 "electric_dipole_moment_norm": 4.95084338169, 
			 "electric_quadrupole_moment_norm": 11.1727772461, 
			 "total_energy": -475.915123334, 
			 "HOMO_LUMO_gap": 0.19842, 
			 "cosmo_polarized_energy": -9.62, 
			 "cosmo_cavitation_energy": 21.79, 
			 "cosmo_dispersion_energy": -15.79, 
			 "cosmo_repulsion_energy": 1.25, 
			 "cosmo_total_nonelectrostatic_energy": 7.24, 
			 "SMD_solvation_energy": 5.94 
		},
		"coords": [
			{
				"x": 1.5117476617,
				"y": 3.1244063652,
				"z": -1.693955234,
				"element": "N" 
			},
			{
				"x": 0.8178608694,
				"y": 2.1972225314,
				"z": -1.5813079967,
				"element": "C" 
			},
			{
				"x": -0.039827764,
				"y": 1.0556431164,
				"z": -1.4437827993,
				"element": "C" 
			},
			{
				"x": 0.4842633272,
				"y": -0.144408853,
				"z": -0.9438505595,
				"element": "C" 
			},
			{
				"x": -0.3757558641,
				"y": -1.2402779615,
				"z": -0.8210015691,
				"element": "C" 
			},
			{
				"x": -1.7256738762,
				"y": -1.0947195966,
				"z": -1.2023052461,
				"element": "C" 
			},
			{
				"x": -2.3991346768,
				"y": -2.2654828829,
				"z": -1.0098961748,
				"element": "O" 
			},
			{
				"x": -1.4809705325,
				"y": -3.1563451732,
				"z": -0.5068570626,
				"element": "C" 
			},
			{
				"x": -0.2503157808,
				"y": -2.6057964305,
				"z": -0.3695188807,
				"element": "C" 
			},
			{
				"x": -2.2666069804,
				"y": 0.085752176,
				"z": -1.7004136623,
				"element": "C" 
			},
			{
				"x": -1.4022713905,
				"y": 1.1675007056,
				"z": -1.8178310192,
				"element": "C" 
			},
			{
				"x": 1.5300041985,
				"y": -0.2083789403,
				"z": -0.6634966332,
				"element": "H" 
			},
			{
				"x": -1.8670163439,
				"y": -4.1428328276,
				"z": -0.2994910274,
				"element": "H" 
			},
			{
				"x": 0.6351446649,
				"y": -3.0995295385,
				"z": 0.0031464882,
				"element": "H" 
			},
			{
				"x": -3.3112469685,
				"y": 0.1542348223,
				"z": -1.9819050656,
				"element": "H" 
			},
			{
				"x": -1.7654005441,
				"y": 2.1150124871,
				"z": -2.1999335576,
				"element": "H" 
			}
		],
		 "valence_orbital": [ 
			{
				"type": "occ",
				"energy": -0.33704,
				"method": "rhf"
			},
			{
				"type": "occ",
				"energy": -0.32743,
				"method": "rhf"
			},
			{
				"type": "occ",
				"energy": -0.31577,
				"method": "rhf"
			},
			{
				"type": "occ",
				"energy": -0.25568,
				"method": "rhf"
			},
			{
				"type": "occ",
				"energy": -0.24489,
				"method": "rhf"
			},
			{
				"type": "unocc",
				"energy": -0.04647,
				"method": "rhf"
			},
			{
				"type": "unocc",
				"energy": -0.03501,
				"method": "rhf"
			},
			{
				"type": "unocc",
				"energy": 0.03146,
				"method": "rhf"
			},
			{
				"type": "unocc",
				"energy": 0.03978,
				"method": "rhf"
			},
			{
				"type": "unocc",
				"energy": 0.08481,
				"method": "rhf"
			}
		],
		"cosmo_sigma_profile": { 
			"-0.025": 0.0,
			"-0.024": 0.0,
			"-0.023": 0.0,
			"-0.022": 0.0,
			"-0.021": 0.0,
			"-0.02": 0.0,
			"-0.019": 0.0,
			"-0.018": 0.0,
			"-0.017": 0.0,
			"-0.016": 0.0,
			"-0.015": 0.0,
			"-0.014": 0.0,
			"-0.013": 0.0,
			"-0.012": 0.0,
			"-0.011": 0.049040601597,
			"-0.01": 1.44618621055,
			"-0.009": 2.06221088596,
			"-0.008": 8.43325222519,
			"-0.007": 9.0905547002,
			"-0.006": 10.8817543272,
			"-0.005": 9.59301857584,
			"-0.004": 8.05361083164,
			"-0.003": 7.70829813899,
			"-0.002": 8.62200537765,
			"-0.001": 12.6963883364,
			"0.0": 16.5966002754,
			"0.001": 20.5607603181,
			"0.002": 18.0036226605,
			"0.003": 9.28154139443,
			"0.004": 4.19327494873,
			"0.005": 4.02805979187,
			"0.006": 3.75975003659,
			"0.007": 4.10672100175,
			"0.008": 4.15024540424,
			"0.009": 3.5564813519,
			"0.01": 3.21466364072,
			"0.011": 2.96818893425,
			"0.012": 2.5780576337,
			"0.013": 1.83490137313,
			"0.014": 0.229367382529,
			"0.015": 0.0,
			"0.016": 0.0,
			"0.017": 0.0,
			"0.018": 0.0,
			"0.019": 0.0,
			"0.02": 0.0,
			"0.021": 0.0,
			"0.022": 0.0,
			"0.023": 0.0,
			"0.024": 0.0,
			"0.025": 0.0
		}
	}
}
