{
	 "smiles": "NC1=CC=C(OCC2CCCCC2)C=C1", 
	 "Tm": 327.15, 
	 "num_atms": 34, 
	 "gaussian": { 
		 "optdone": 1, 
		 "sigma_profile": "yes", 
		 "theory": "DFT", 
		 "functional": "B3LYP", 
		 "basiset": "6-31G**", 
		 "properties": { 
			 "R2extent": 5072.6945, 
			 "electric_dipole_moment_norm": 1.9680300455, 
			 "electric_quadrupole_moment_norm": 11.1384171999, 
			 "total_energy": -636.822535492, 
			 "HOMO_LUMO_gap": 0.18591, 
			 "cosmo_polarized_energy": -9.76, 
			 "cosmo_cavitation_energy": 34.54, 
			 "cosmo_dispersion_energy": -25.05, 
			 "cosmo_repulsion_energy": 1.98, 
			 "cosmo_total_nonelectrostatic_energy": 11.48, 
			 "SMD_solvation_energy": 4.93 
		},
		"coords": [
			{
				"x": -0.3470147817,
				"y": 4.3958966816,
				"z": -1.7323460486,
				"element": "N" 
			},
			{
				"x": 0.2022526388,
				"y": 3.1498257436,
				"z": -1.381372916,
				"element": "C" 
			},
			{
				"x": 1.3912158268,
				"y": 2.6933388054,
				"z": -1.9772229444,
				"element": "C" 
			},
			{
				"x": 1.9690351261,
				"y": 1.4912175813,
				"z": -1.5897753388,
				"element": "C" 
			},
			{
				"x": 1.3829053025,
				"y": 0.7013353384,
				"z": -0.5911233074,
				"element": "C" 
			},
			{
				"x": 2.0563217565,
				"y": -0.4554600757,
				"z": -0.2805032816,
				"element": "O" 
			},
			{
				"x": 1.5316839327,
				"y": -1.3330802803,
				"z": 0.7131694835,
				"element": "C" 
			},
			{
				"x": 0.4341533184,
				"y": -2.2677878001,
				"z": 0.1896824286,
				"element": "C" 
			},
			{
				"x": 0.9351463825,
				"y": -3.1370294058,
				"z": -0.9778022621,
				"element": "C" 
			},
			{
				"x": -0.1504306396,
				"y": -4.1019791976,
				"z": -1.4773844817,
				"element": "C" 
			},
			{
				"x": -0.6934943941,
				"y": -4.9774711749,
				"z": -0.337772563,
				"element": "C" 
			},
			{
				"x": -1.1930486569,
				"y": -4.1207125017,
				"z": 0.8355811286,
				"element": "C" 
			},
			{
				"x": -0.1090244964,
				"y": -3.1494793065,
				"z": 1.3298280782,
				"element": "C" 
			},
			{
				"x": 0.19913698,
				"y": 1.1435076323,
				"z": 0.0075444599,
				"element": "C" 
			},
			{
				"x": -0.3783464369,
				"y": 2.3540472268,
				"z": -0.3869637341,
				"element": "C" 
			},
			{
				"x": -1.3406713282,
				"y": 4.4701412248,
				"z": -1.5561317376,
				"element": "H" 
			},
			{
				"x": -0.1329160037,
				"y": 4.6862850229,
				"z": -2.6777787143,
				"element": "H" 
			},
			{
				"x": 1.8691364185,
				"y": 3.2929077083,
				"z": -2.7484502849,
				"element": "H" 
			},
			{
				"x": 2.8877905675,
				"y": 1.1428790466,
				"z": -2.0509045262,
				"element": "H" 
			},
			{
				"x": 2.3931682984,
				"y": -1.9265429262,
				"z": 1.0402355017,
				"element": "H" 
			},
			{
				"x": 1.180278117,
				"y": -0.7616000834,
				"z": 1.5834293682,
				"element": "H" 
			},
			{
				"x": -0.3943080401,
				"y": -1.6477286026,
				"z": -0.1829304505,
				"element": "H" 
			},
			{
				"x": 1.2875246573,
				"y": -2.4945082096,
				"z": -1.7911304255,
				"element": "H" 
			},
			{
				"x": 1.8068604896,
				"y": -3.7169238947,
				"z": -0.6378025517,
				"element": "H" 
			},
			{
				"x": 0.2467635179,
				"y": -4.7303580953,
				"z": -2.2836161669,
				"element": "H" 
			},
			{
				"x": -0.9766947995,
				"y": -3.5227383924,
				"z": -1.9138465035,
				"element": "H" 
			},
			{
				"x": 0.1057937101,
				"y": -5.643912356,
				"z": 0.017162582,
				"element": "H" 
			},
			{
				"x": -1.4991939643,
				"y": -5.625360009,
				"z": -0.7036118275,
				"element": "H" 
			},
			{
				"x": -2.0715905898,
				"y": -3.544065647,
				"z": 0.512950599,
				"element": "H" 
			},
			{
				"x": -1.527742251,
				"y": -4.7610576645,
				"z": 1.66059189,
				"element": "H" 
			},
			{
				"x": -0.5059633844,
				"y": -2.5218113175,
				"z": 2.1385231609,
				"element": "H" 
			},
			{
				"x": 0.721767934,
				"y": -3.7261546272,
				"z": 1.7638781851,
				"element": "H" 
			},
			{
				"x": -0.2924188557,
				"y": 0.5603213015,
				"z": 0.7772769076,
				"element": "H" 
			},
			{
				"x": -1.2978763524,
				"y": 2.6814582547,
				"z": 0.0927162931,
				"element": "H" 
			}
		],
		 "valence_orbital": [ 
			{
				"type": "occ",
				"energy": -0.29755,
				"method": "rhf"
			},
			{
				"type": "occ",
				"energy": -0.29081,
				"method": "rhf"
			},
			{
				"type": "occ",
				"energy": -0.26568,
				"method": "rhf"
			},
			{
				"type": "occ",
				"energy": -0.24121,
				"method": "rhf"
			},
			{
				"type": "occ",
				"energy": -0.17981,
				"method": "rhf"
			},
			{
				"type": "unocc",
				"energy": 0.0061,
				"method": "rhf"
			},
			{
				"type": "unocc",
				"energy": 0.03541,
				"method": "rhf"
			},
			{
				"type": "unocc",
				"energy": 0.08339,
				"method": "rhf"
			},
			{
				"type": "unocc",
				"energy": 0.08638,
				"method": "rhf"
			},
			{
				"type": "unocc",
				"energy": 0.10087,
				"method": "rhf"
			}
		],
		"cosmo_sigma_profile": { 
			"-0.025": 0.0,
			"-0.024": 0.0,
			"-0.023": 0.0,
			"-0.022": 0.0,
			"-0.021": 0.0,
			"-0.02": 0.0,
			"-0.019": 0.0,
			"-0.018": 0.0,
			"-0.017": 0.0,
			"-0.016": 0.0,
			"-0.015": 0.0,
			"-0.014": 0.0,
			"-0.013": 0.0,
			"-0.012": 1.26936681442,
			"-0.011": 2.46151950832,
			"-0.01": 2.92476368427,
			"-0.009": 3.14974668414,
			"-0.008": 2.86460666579,
			"-0.007": 3.32644930026,
			"-0.006": 5.75723928147,
			"-0.005": 9.6296005193,
			"-0.004": 12.5611484778,
			"-0.003": 17.3841086453,
			"-0.002": 31.8155605936,
			"-0.001": 36.6872440663,
			"0.0": 36.1275370609,
			"0.001": 29.2956257138,
			"0.002": 12.3345883226,
			"0.003": 7.75345989887,
			"0.004": 10.016237882,
			"0.005": 9.94616009734,
			"0.006": 11.4119699714,
			"0.007": 10.4265031594,
			"0.008": 2.32927099496,
			"0.009": 1.75755489186,
			"0.01": 1.69589469148,
			"0.011": 2.10036429136,
			"0.012": 1.16962031863,
			"0.013": 0.500412601789,
			"0.014": 0.578804919776,
			"0.015": 0.798951838413,
			"0.016": 0.409143117563,
			"0.017": 0.0,
			"0.018": 0.0,
			"0.019": 0.0,
			"0.02": 0.0,
			"0.021": 0.0,
			"0.022": 0.0,
			"0.023": 0.0,
			"0.024": 0.0,
			"0.025": 0.0
		}
	}
}
