{
	 "smiles": "CC(=O)N1N=C(C=C1C1=CC=CC=C1)C(F)(F)F", 
	 "Tm": 350.15, 
	 "num_atms": 27, 
	 "gaussian": { 
		 "optdone": 1, 
		 "sigma_profile": "yes", 
		 "theory": "DFT", 
		 "functional": "B3LYP", 
		 "basiset": "6-31G**", 
		 "properties": { 
			 "R2extent": 5310.0779, 
			 "electric_dipole_moment_norm": 1.98441643059, 
			 "electric_quadrupole_moment_norm": 11.7402991427, 
			 "total_energy": -946.941438968, 
			 "HOMO_LUMO_gap": 0.17759, 
			 "cosmo_polarized_energy": -8.8, 
			 "cosmo_cavitation_energy": 33.66, 
			 "cosmo_dispersion_energy": -23.32, 
			 "cosmo_repulsion_energy": 1.76, 
			 "cosmo_total_nonelectrostatic_energy": 12.1, 
			 "SMD_solvation_energy": 7.0 
		},
		"coords": [
			{
				"x": 4.0847008566,
				"y": 0.0100484618,
				"z": 0.3643572047,
				"element": "C" 
			},
			{
				"x": 2.8067058489,
				"y": -0.748798622,
				"z": 0.6253353519,
				"element": "C" 
			},
			{
				"x": 2.7249529965,
				"y": -1.7254593812,
				"z": 1.3331009248,
				"element": "O" 
			},
			{
				"x": 1.6462498696,
				"y": -0.228561675,
				"z": -0.0347167927,
				"element": "N" 
			},
			{
				"x": 1.7876299371,
				"y": 0.9173659652,
				"z": -0.7601053199,
				"element": "N" 
			},
			{
				"x": 0.562124598,
				"y": 1.2376820185,
				"z": -1.1269542226,
				"element": "C" 
			},
			{
				"x": -0.3999256801,
				"y": 0.3168311267,
				"z": -0.6501275032,
				"element": "C" 
			},
			{
				"x": 0.3126043992,
				"y": -0.6303368932,
				"z": 0.0559056587,
				"element": "C" 
			},
			{
				"x": -0.2374118649,
				"y": -1.8167648397,
				"z": 0.7397029825,
				"element": "C" 
			},
			{
				"x": -1.3892430332,
				"y": -1.6529028479,
				"z": 1.5263889924,
				"element": "C" 
			},
			{
				"x": -2.0062215715,
				"y": -2.7536366128,
				"z": 2.1201664795,
				"element": "C" 
			},
			{
				"x": -1.4853138199,
				"y": -4.0333888039,
				"z": 1.9288356277,
				"element": "C" 
			},
			{
				"x": -0.3438827938,
				"y": -4.2060324248,
				"z": 1.1414113128,
				"element": "C" 
			},
			{
				"x": 0.2774749453,
				"y": -3.1092446405,
				"z": 0.5507885343,
				"element": "C" 
			},
			{
				"x": 0.3167318884,
				"y": 2.4274018918,
				"z": -2.0060183518,
				"element": "C" 
			},
			{
				"x": 0.4212480818,
				"y": 2.106858737,
				"z": -3.3142502439,
				"element": "F" 
			},
			{
				"x": -0.9350276203,
				"y": 2.8990822161,
				"z": -1.8107518067,
				"element": "F" 
			},
			{
				"x": 1.1837546232,
				"y": 3.4238969302,
				"z": -1.7632458413,
				"element": "F" 
			},
			{
				"x": 4.8873073977,
				"y": -0.5099739687,
				"z": 0.8867116346,
				"element": "H" 
			},
			{
				"x": 4.294708726,
				"y": 0.0655763319,
				"z": -0.7064030017,
				"element": "H" 
			},
			{
				"x": 4.0026899167,
				"y": 1.039599734,
				"z": 0.7215320561,
				"element": "H" 
			},
			{
				"x": -1.4653088092,
				"y": 0.3248714756,
				"z": -0.8202054342,
				"element": "H" 
			},
			{
				"x": -1.7887100956,
				"y": -0.6555854632,
				"z": 1.6838395573,
				"element": "H" 
			},
			{
				"x": -2.8902505996,
				"y": -2.6084993204,
				"z": 2.7340158122,
				"element": "H" 
			},
			{
				"x": -1.9635464562,
				"y": -4.8921416243,
				"z": 2.3907828663,
				"element": "H" 
			},
			{
				"x": 0.0644866497,
				"y": -5.2001155599,
				"z": 0.9856325706,
				"element": "H" 
			},
			{
				"x": 1.1628716097,
				"y": -3.2534722113,
				"z": -0.0567290482,
				"element": "H" 
			}
		],
		 "valence_orbital": [ 
			{
				"type": "occ",
				"energy": -0.29767,
				"method": "rhf"
			},
			{
				"type": "occ",
				"energy": -0.28757,
				"method": "rhf"
			},
			{
				"type": "occ",
				"energy": -0.28332,
				"method": "rhf"
			},
			{
				"type": "occ",
				"energy": -0.25847,
				"method": "rhf"
			},
			{
				"type": "occ",
				"energy": -0.2421,
				"method": "rhf"
			},
			{
				"type": "unocc",
				"energy": -0.06451,
				"method": "rhf"
			},
			{
				"type": "unocc",
				"energy": -0.0143,
				"method": "rhf"
			},
			{
				"type": "unocc",
				"energy": -0.00905,
				"method": "rhf"
			},
			{
				"type": "unocc",
				"energy": 0.02089,
				"method": "rhf"
			},
			{
				"type": "unocc",
				"energy": 0.04938,
				"method": "rhf"
			}
		],
		"cosmo_sigma_profile": { 
			"-0.025": 0.0,
			"-0.024": 0.0,
			"-0.023": 0.0,
			"-0.022": 0.0,
			"-0.021": 0.0,
			"-0.02": 0.0,
			"-0.019": 0.0,
			"-0.018": 0.0,
			"-0.017": 0.0,
			"-0.016": 0.0,
			"-0.015": 0.0,
			"-0.014": 0.0,
			"-0.013": 0.0,
			"-0.012": 0.0,
			"-0.011": 0.0,
			"-0.01": 0.0,
			"-0.009": 0.492443667722,
			"-0.008": 1.38478825086,
			"-0.007": 3.86460507846,
			"-0.006": 18.06793721,
			"-0.005": 21.5044534259,
			"-0.004": 20.7950255211,
			"-0.003": 20.0211979918,
			"-0.002": 19.6529062523,
			"-0.001": 17.5073319146,
			"0.0": 17.5420131027,
			"0.001": 22.303740702,
			"0.002": 33.786381262,
			"0.003": 29.4794870631,
			"0.004": 12.2756848673,
			"0.005": 9.88828845053,
			"0.006": 4.63330576534,
			"0.007": 3.60263689799,
			"0.008": 3.34692315648,
			"0.009": 2.55577259768,
			"0.01": 4.3656944484,
			"0.011": 2.77937471877,
			"0.012": 0.462462505962,
			"0.013": 0.0,
			"0.014": 0.0,
			"0.015": 0.0,
			"0.016": 0.0,
			"0.017": 0.0,
			"0.018": 0.0,
			"0.019": 0.0,
			"0.02": 0.0,
			"0.021": 0.0,
			"0.022": 0.0,
			"0.023": 0.0,
			"0.024": 0.0,
			"0.025": 0.0
		}
	}
}
