{
	 "smiles": "NS(=O)(=O)C1=C(C=CC(=C1)C(F)(F)F)C(F)(F)F", 
	 "Tm": 420.15, 
	 "num_atms": 23, 
	 "gaussian": { 
		 "optdone": 1, 
		 "sigma_profile": "yes", 
		 "theory": "DFT", 
		 "functional": "B3LYP", 
		 "basiset": "6-31G**", 
		 "properties": { 
			 "R2extent": 5148.891, 
			 "electric_dipole_moment_norm": 3.55693892694, 
			 "electric_quadrupole_moment_norm": 15.0329219957, 
			 "total_energy": -1510.22720339, 
			 "HOMO_LUMO_gap": 0.21583, 
			 "cosmo_polarized_energy": -14.25, 
			 "cosmo_cavitation_energy": 31.14, 
			 "cosmo_dispersion_energy": -22.53, 
			 "cosmo_repulsion_energy": 1.57, 
			 "cosmo_total_nonelectrostatic_energy": 10.18, 
			 "SMD_solvation_energy": 7.07 
		},
		"coords": [
			{
				"x": 0.0948128628,
				"y": -2.7705169114,
				"z": -1.8390597014,
				"element": "N" 
			},
			{
				"x": 0.1608631979,
				"y": -1.0893393962,
				"z": -1.9102434286,
				"element": "S" 
			},
			{
				"x": 1.4468630153,
				"y": -0.6317414226,
				"z": -2.4322809858,
				"element": "O" 
			},
			{
				"x": -1.1031281275,
				"y": -0.6807652201,
				"z": -2.5273988132,
				"element": "O" 
			},
			{
				"x": 0.06998403,
				"y": -0.6098167611,
				"z": -0.1594219482,
				"element": "C" 
			},
			{
				"x": 1.1285519009,
				"y": -0.7160877248,
				"z": 0.7638568268,
				"element": "C" 
			},
			{
				"x": 0.9183193476,
				"y": -0.2792340019,
				"z": 2.0748707848,
				"element": "C" 
			},
			{
				"x": -0.3049411238,
				"y": 0.2568627399,
				"z": 2.4701244747,
				"element": "C" 
			},
			{
				"x": -1.3417390002,
				"y": 0.3611701361,
				"z": 1.5467287022,
				"element": "C" 
			},
			{
				"x": -1.1539883952,
				"y": -0.0727568921,
				"z": 0.234002553,
				"element": "C" 
			},
			{
				"x": -2.6534389371,
				"y": 0.99148662,
				"z": 1.9459437327,
				"element": "C" 
			},
			{
				"x": -3.6843713155,
				"y": 0.482974115,
				"z": 1.2424576269,
				"element": "F" 
			},
			{
				"x": -2.9125230692,
				"y": 0.8008945914,
				"z": 3.2571259414,
				"element": "F" 
			},
			{
				"x": -2.6388694419,
				"y": 2.3242569882,
				"z": 1.7315185885,
				"element": "F" 
			},
			{
				"x": 2.5107494941,
				"y": -1.245814746,
				"z": 0.4248047623,
				"element": "C" 
			},
			{
				"x": 3.1880153986,
				"y": -1.5755056697,
				"z": 1.5465637435,
				"element": "F" 
			},
			{
				"x": 3.2487718542,
				"y": -0.3419748212,
				"z": -0.2326254829,
				"element": "F" 
			},
			{
				"x": 2.4565067613,
				"y": -2.3700358195,
				"z": -0.3309868393,
				"element": "F" 
			},
			{
				"x": 1.0217855861,
				"y": -3.180945234,
				"z": -1.8977049774,
				"element": "H" 
			},
			{
				"x": -0.5302325628,
				"y": -3.1005510513,
				"z": -2.5695652542,
				"element": "H" 
			},
			{
				"x": 1.723856405,
				"y": -0.3674453141,
				"z": 2.7930356731,
				"element": "H" 
			},
			{
				"x": -0.4510552446,
				"y": 0.5837468999,
				"z": 3.4934403473,
				"element": "H" 
			},
			{
				"x": -1.9528926359,
				"y": 0.0002388956,
				"z": -0.4939863262,
				"element": "H" 
			}
		],
		 "valence_orbital": [ 
			{
				"type": "occ",
				"energy": -0.33324,
				"method": "rhf"
			},
			{
				"type": "occ",
				"energy": -0.3243,
				"method": "rhf"
			},
			{
				"type": "occ",
				"energy": -0.30956,
				"method": "rhf"
			},
			{
				"type": "occ",
				"energy": -0.30214,
				"method": "rhf"
			},
			{
				"type": "occ",
				"energy": -0.29095,
				"method": "rhf"
			},
			{
				"type": "unocc",
				"energy": -0.07512,
				"method": "rhf"
			},
			{
				"type": "unocc",
				"energy": -0.0536,
				"method": "rhf"
			},
			{
				"type": "unocc",
				"energy": 0.03898,
				"method": "rhf"
			},
			{
				"type": "unocc",
				"energy": 0.05733,
				"method": "rhf"
			},
			{
				"type": "unocc",
				"energy": 0.07397,
				"method": "rhf"
			}
		],
		"cosmo_sigma_profile": { 
			"-0.025": 0.0,
			"-0.024": 0.0,
			"-0.023": 0.0,
			"-0.022": 0.0,
			"-0.021": 0.0,
			"-0.02": 0.0,
			"-0.019": 0.0,
			"-0.018": 0.0,
			"-0.017": 0.0,
			"-0.016": 0.213678653289,
			"-0.015": 1.76218724046,
			"-0.014": 2.57340199333,
			"-0.013": 1.70240248492,
			"-0.012": 2.3411787439,
			"-0.011": 2.00477629837,
			"-0.01": 2.11614971991,
			"-0.009": 3.4170190774,
			"-0.008": 5.70548928987,
			"-0.007": 5.72068395595,
			"-0.006": 6.67055320232,
			"-0.005": 8.56605694507,
			"-0.004": 8.85021299213,
			"-0.003": 12.4979419805,
			"-0.002": 19.2841927639,
			"-0.001": 23.736691813,
			"0.0": 18.1910075711,
			"0.001": 21.0337424361,
			"0.002": 46.0381594736,
			"0.003": 17.891665952,
			"0.004": 4.19212117766,
			"0.005": 3.0202638443,
			"0.006": 3.08832933446,
			"0.007": 5.14862583266,
			"0.008": 4.88297501284,
			"0.009": 6.19835858937,
			"0.01": 8.49793404919,
			"0.011": 5.20487094713,
			"0.012": 0.0117458702451,
			"0.013": 0.0,
			"0.014": 0.0,
			"0.015": 0.0,
			"0.016": 0.0,
			"0.017": 0.0,
			"0.018": 0.0,
			"0.019": 0.0,
			"0.02": 0.0,
			"0.021": 0.0,
			"0.022": 0.0,
			"0.023": 0.0,
			"0.024": 0.0,
			"0.025": 0.0
		}
	}
}
