{
	 "smiles": "CCC(=O)C1=CC(F)=CC(F)=C1", 
	 "Tm": 299.15, 
	 "num_atms": 20, 
	 "gaussian": { 
		 "optdone": 1, 
		 "sigma_profile": "yes", 
		 "theory": "DFT", 
		 "functional": "B3LYP", 
		 "basiset": "6-31G**", 
		 "properties": { 
			 "R2extent": 3593.3455, 
			 "electric_dipole_moment_norm": 2.31944236617, 
			 "electric_quadrupole_moment_norm": 9.31069642669, 
			 "total_energy": -622.674439126, 
			 "HOMO_LUMO_gap": 0.18677, 
			 "cosmo_polarized_energy": -7.06, 
			 "cosmo_cavitation_energy": 25.25, 
			 "cosmo_dispersion_energy": -17.87, 
			 "cosmo_repulsion_energy": 1.38, 
			 "cosmo_total_nonelectrostatic_energy": 8.76, 
			 "SMD_solvation_energy": 5.99 
		},
		"coords": [
			{
				"x": -1.3563410674,
				"y": -0.1878389309,
				"z": 1.5823738431,
				"element": "C" 
			},
			{
				"x": -1.4588246032,
				"y": 0.6866126976,
				"z": 0.3168852694,
				"element": "C" 
			},
			{
				"x": -1.7579621243,
				"y": -0.1481467687,
				"z": -0.9209083339,
				"element": "C" 
			},
			{
				"x": -2.9054541221,
				"y": -0.2698436467,
				"z": -1.3206021651,
				"element": "O" 
			},
			{
				"x": -0.6368070967,
				"y": -0.8611969229,
				"z": -1.6320865003,
				"element": "C" 
			},
			{
				"x": -0.9806063263,
				"y": -1.6709561513,
				"z": -2.7244820637,
				"element": "C" 
			},
			{
				"x": 0.0229707818,
				"y": -2.3417099283,
				"z": -3.4054604643,
				"element": "C" 
			},
			{
				"x": -0.2998068873,
				"y": -3.1198103442,
				"z": -4.4549294072,
				"element": "F" 
			},
			{
				"x": 1.3651492345,
				"y": -2.2439249916,
				"z": -3.0459821531,
				"element": "C" 
			},
			{
				"x": 1.6745485776,
				"y": -1.4348906955,
				"z": -1.9595260274,
				"element": "C" 
			},
			{
				"x": 2.9639866789,
				"y": -1.3202020774,
				"z": -1.5880969966,
				"element": "F" 
			},
			{
				"x": 0.7056090243,
				"y": -0.7403742825,
				"z": -1.2441593298,
				"element": "C" 
			},
			{
				"x": -2.2830831532,
				"y": -0.7482942986,
				"z": 1.7362164844,
				"element": "H" 
			},
			{
				"x": -1.1873558761,
				"y": 0.4375359137,
				"z": 2.4637686324,
				"element": "H" 
			},
			{
				"x": -0.534241918,
				"y": -0.9068074653,
				"z": 1.5150595589,
				"element": "H" 
			},
			{
				"x": -2.288776447,
				"y": 1.3901688102,
				"z": 0.4208992509,
				"element": "H" 
			},
			{
				"x": -0.5405808806,
				"y": 1.2688863172,
				"z": 0.1846299568,
				"element": "H" 
			},
			{
				"x": -2.0183762419,
				"y": -1.7605797686,
				"z": -3.0217242834,
				"element": "H" 
			},
			{
				"x": 2.1356603641,
				"y": -2.775701066,
				"z": -3.5907603048,
				"element": "H" 
			},
			{
				"x": 1.016092083,
				"y": -0.1260264001,
				"z": -0.4084149666,
				"element": "H" 
			}
		],
		 "valence_orbital": [ 
			{
				"type": "occ",
				"energy": -0.35922,
				"method": "rhf"
			},
			{
				"type": "occ",
				"energy": -0.34839,
				"method": "rhf"
			},
			{
				"type": "occ",
				"energy": -0.27206,
				"method": "rhf"
			},
			{
				"type": "occ",
				"energy": -0.25895,
				"method": "rhf"
			},
			{
				"type": "occ",
				"energy": -0.25666,
				"method": "rhf"
			},
			{
				"type": "unocc",
				"energy": -0.06989,
				"method": "rhf"
			},
			{
				"type": "unocc",
				"energy": -0.01242,
				"method": "rhf"
			},
			{
				"type": "unocc",
				"energy": 0.02913,
				"method": "rhf"
			},
			{
				"type": "unocc",
				"energy": 0.07271,
				"method": "rhf"
			},
			{
				"type": "unocc",
				"energy": 0.10232,
				"method": "rhf"
			}
		],
		"cosmo_sigma_profile": { 
			"-0.025": 0.0,
			"-0.024": 0.0,
			"-0.023": 0.0,
			"-0.022": 0.0,
			"-0.021": 0.0,
			"-0.02": 0.0,
			"-0.019": 0.0,
			"-0.018": 0.0,
			"-0.017": 0.0,
			"-0.016": 0.0,
			"-0.015": 0.0,
			"-0.014": 0.0,
			"-0.013": 0.0,
			"-0.012": 0.0,
			"-0.011": 0.0,
			"-0.01": 0.044865686036,
			"-0.009": 1.98841089234,
			"-0.008": 3.75529770225,
			"-0.007": 4.14936176596,
			"-0.006": 5.43899603837,
			"-0.005": 7.7759385268,
			"-0.004": 12.1161055697,
			"-0.003": 16.4161649172,
			"-0.002": 20.7459291456,
			"-0.001": 23.2058249587,
			"0.0": 29.1806820355,
			"0.001": 19.4372374822,
			"0.002": 9.16640391438,
			"0.003": 12.6290026072,
			"0.004": 18.3701253954,
			"0.005": 1.80666558812,
			"0.006": 1.23904274777,
			"0.007": 1.36816384186,
			"0.008": 1.64679415161,
			"0.009": 2.12932450599,
			"0.01": 1.98762853786,
			"0.011": 3.49099137438,
			"0.012": 2.84401573381,
			"0.013": 0.736023585963,
			"0.014": 0.0,
			"0.015": 0.0,
			"0.016": 0.0,
			"0.017": 0.0,
			"0.018": 0.0,
			"0.019": 0.0,
			"0.02": 0.0,
			"0.021": 0.0,
			"0.022": 0.0,
			"0.023": 0.0,
			"0.024": 0.0,
			"0.025": 0.0
		}
	}
}
