{
	 "smiles": "CN(N=CC1=CC=C(Br)C=C1)P(=O)(N1CC1)N1CC1", 
	 "Tm": 391.15, 
	 "num_atms": 35, 
	 "gaussian": { 
		 "optdone": 1, 
		 "sigma_profile": "yes", 
		 "theory": "DFT", 
		 "functional": "B3LYP", 
		 "basiset": "6-31G**", 
		 "properties": { 
			 "R2extent": 12839.5989, 
			 "electric_dipole_moment_norm": 3.22361157865, 
			 "electric_quadrupole_moment_norm": 17.2229458732, 
			 "total_energy": -3673.83194652, 
			 "HOMO_LUMO_gap": 0.1654, 
			 "cosmo_polarized_energy": -13.59, 
			 "cosmo_cavitation_energy": 42.85, 
			 "cosmo_dispersion_energy": -29.25, 
			 "cosmo_repulsion_energy": 2.27, 
			 "cosmo_total_nonelectrostatic_energy": 15.87, 
			 "SMD_solvation_energy": 4.02 
		},
		"coords": [
			{
				"x": -2.024763103,
				"y": -2.5926994406,
				"z": -2.0539379726,
				"element": "C" 
			},
			{
				"x": -1.4883726195,
				"y": -1.4556659276,
				"z": -1.2950978452,
				"element": "N" 
			},
			{
				"x": -0.4747217111,
				"y": -0.8195641889,
				"z": -1.9705014289,
				"element": "N" 
			},
			{
				"x": 0.1413569601,
				"y": 0.2034800422,
				"z": -1.4933129164,
				"element": "C" 
			},
			{
				"x": 1.2158258035,
				"y": 0.834732687,
				"z": -2.2690214505,
				"element": "C" 
			},
			{
				"x": 1.6098985919,
				"y": 0.3639268833,
				"z": -3.5348468018,
				"element": "C" 
			},
			{
				"x": 2.6320481944,
				"y": 0.9865124716,
				"z": -4.241326737,
				"element": "C" 
			},
			{
				"x": 3.27438659,
				"y": 2.0948841971,
				"z": -3.6831009592,
				"element": "C" 
			},
			{
				"x": 4.6812698129,
				"y": 2.9527926878,
				"z": -4.6536321789,
				"element": "Br" 
			},
			{
				"x": 2.906378752,
				"y": 2.5839028255,
				"z": -2.4322317077,
				"element": "C" 
			},
			{
				"x": 1.8793073107,
				"y": 1.9499815917,
				"z": -1.7340439343,
				"element": "C" 
			},
			{
				"x": -2.1440074815,
				"y": -1.0856331977,
				"z": 0.232230159,
				"element": "P" 
			},
			{
				"x": -3.241164373,
				"y": -2.0290906122,
				"z": 0.608150337,
				"element": "O" 
			},
			{
				"x": -2.5483734622,
				"y": 0.5608931431,
				"z": 0.1368036718,
				"element": "N" 
			},
			{
				"x": -3.5444556037,
				"y": 1.1098861436,
				"z": 1.0742879622,
				"element": "C" 
			},
			{
				"x": -3.8867187053,
				"y": 0.920527687,
				"z": -0.3586122708,
				"element": "C" 
			},
			{
				"x": -0.8011454161,
				"y": -1.0192371515,
				"z": 1.2695220571,
				"element": "N" 
			},
			{
				"x": -1.0060881895,
				"y": -1.1876143255,
				"z": 2.7193554176,
				"element": "C" 
			},
			{
				"x": -0.3642726106,
				"y": -2.2639524558,
				"z": 1.9219903847,
				"element": "C" 
			},
			{
				"x": -1.2320409386,
				"y": -3.3232900271,
				"z": -2.2435244101,
				"element": "H" 
			},
			{
				"x": -2.4228051274,
				"y": -2.247942298,
				"z": -3.0135496158,
				"element": "H" 
			},
			{
				"x": -2.820532418,
				"y": -3.0591919695,
				"z": -1.4748289054,
				"element": "H" 
			},
			{
				"x": -0.0883976079,
				"y": 0.6444058436,
				"z": -0.5242171892,
				"element": "H" 
			},
			{
				"x": 1.1007104345,
				"y": -0.4975363329,
				"z": -3.9533224361,
				"element": "H" 
			},
			{
				"x": 2.9320365671,
				"y": 0.619731028,
				"z": -5.2165888646,
				"element": "H" 
			},
			{
				"x": 3.4131168106,
				"y": 3.444641997,
				"z": -2.0108962677,
				"element": "H" 
			},
			{
				"x": 1.5880221326,
				"y": 2.3275085715,
				"z": -0.7572335533,
				"element": "H" 
			},
			{
				"x": -4.008990073,
				"y": 0.4285983819,
				"z": 1.7837160621,
				"element": "H" 
			},
			{
				"x": -3.3078778954,
				"y": 2.0994763436,
				"z": 1.4562369454,
				"element": "H" 
			},
			{
				"x": -3.9015239642,
				"y": 1.7704202189,
				"z": -1.0354921167,
				"element": "H" 
			},
			{
				"x": -4.5752816295,
				"y": 0.1130559606,
				"z": -0.5982320684,
				"element": "H" 
			},
			{
				"x": -2.0168060477,
				"y": -1.3764494085,
				"z": 3.0743784878,
				"element": "H" 
			},
			{
				"x": -0.403157547,
				"y": -0.530158713,
				"z": 3.3401356335,
				"element": "H" 
			},
			{
				"x": 0.7132745925,
				"y": -2.4005279531,
				"z": 1.9527246167,
				"element": "H" 
			},
			{
				"x": -0.9501360287,
				"y": -3.1638047032,
				"z": 1.7471198955,
				"element": "H" 
			}
		],
		 "valence_orbital": [ 
			{
				"type": "occ",
				"energy": -0.26312,
				"method": "rhf"
			},
			{
				"type": "occ",
				"energy": -0.25851,
				"method": "rhf"
			},
			{
				"type": "occ",
				"energy": -0.2579,
				"method": "rhf"
			},
			{
				"type": "occ",
				"energy": -0.25417,
				"method": "rhf"
			},
			{
				"type": "occ",
				"energy": -0.20649,
				"method": "rhf"
			},
			{
				"type": "unocc",
				"energy": -0.04109,
				"method": "rhf"
			},
			{
				"type": "unocc",
				"energy": -0.00713,
				"method": "rhf"
			},
			{
				"type": "unocc",
				"energy": 0.01261,
				"method": "rhf"
			},
			{
				"type": "unocc",
				"energy": 0.04559,
				"method": "rhf"
			},
			{
				"type": "unocc",
				"energy": 0.06026,
				"method": "rhf"
			}
		],
		"cosmo_sigma_profile": { 
			"-0.025": 0.0,
			"-0.024": 0.0,
			"-0.023": 0.0,
			"-0.022": 0.0,
			"-0.021": 0.0,
			"-0.02": 0.0,
			"-0.019": 0.0,
			"-0.018": 0.0,
			"-0.017": 0.0,
			"-0.016": 0.0,
			"-0.015": 0.0,
			"-0.014": 0.0,
			"-0.013": 0.0,
			"-0.012": 0.0,
			"-0.011": 0.0,
			"-0.01": 0.0,
			"-0.009": 0.0,
			"-0.008": 0.207854028248,
			"-0.007": 9.06583063114,
			"-0.006": 20.9557776938,
			"-0.005": 25.3548552984,
			"-0.004": 28.3996159884,
			"-0.003": 32.5421579566,
			"-0.002": 30.1631834493,
			"-0.001": 25.7066371832,
			"0.0": 22.7889587576,
			"0.001": 22.3815363691,
			"0.002": 23.6195935101,
			"0.003": 30.9459722349,
			"0.004": 25.7224543252,
			"0.005": 14.1748098384,
			"0.006": 5.49030915158,
			"0.007": 6.04078889695,
			"0.008": 6.23435930189,
			"0.009": 3.03220831443,
			"0.01": 1.05668211547,
			"0.011": 0.64378766591,
			"0.012": 1.20857874319,
			"0.013": 1.57074537486,
			"0.014": 3.06734421085,
			"0.015": 2.39405182667,
			"0.016": 0.0,
			"0.017": 0.0,
			"0.018": 0.0,
			"0.019": 0.0,
			"0.02": 0.0,
			"0.021": 0.0,
			"0.022": 0.0,
			"0.023": 0.0,
			"0.024": 0.0,
			"0.025": 0.0
		}
	}
}
