{
	 "smiles": "N#CCC1=CC=C(OCC2=CC=CC=C2)C=C1", 
	 "Tm": 341.15, 
	 "num_atms": 30, 
	 "gaussian": { 
		 "optdone": 1, 
		 "sigma_profile": "no", 
		 "theory": "DFT", 
		 "functional": "B3LYP", 
		 "basiset": "6-31G**", 
		 "properties": { 
			 "R2extent": 5971.3934, 
			 "electric_dipole_moment_norm": 5.0436861996, 
			 "electric_quadrupole_moment_norm": 17.9326467391, 
			 "total_energy": -709.38136075, 
			 "HOMO_LUMO_gap": 0.21091, 
			 "cosmo_polarized_energy": -12.0, 
			 "cosmo_cavitation_energy": 35.16, 
			 "cosmo_dispersion_energy": -24.36, 
			 "cosmo_repulsion_energy": 1.91, 
			 "cosmo_total_nonelectrostatic_energy": 12.7, 
			 "SMD_solvation_energy": 7.35 
		},
		"coords": [
			{
				"x": -2.7880531123,
				"y": 2.6251578733,
				"z": 3.8583395137,
				"element": "N" 
			},
			{
				"x": -1.7393075626,
				"y": 2.4609707788,
				"z": 3.3889625703,
				"element": "C" 
			},
			{
				"x": -0.4151397413,
				"y": 2.2702963456,
				"z": 2.7842730939,
				"element": "C" 
			},
			{
				"x": -0.4639422936,
				"y": 1.8552515944,
				"z": 1.3200357273,
				"element": "C" 
			},
			{
				"x": -1.2725126073,
				"y": 2.5357370101,
				"z": 0.397688137,
				"element": "C" 
			},
			{
				"x": -1.2787819856,
				"y": 2.1763276046,
				"z": -0.9430386336,
				"element": "C" 
			},
			{
				"x": -0.4714788665,
				"y": 1.1217681246,
				"z": -1.3962767498,
				"element": "C" 
			},
			{
				"x": -0.5476090062,
				"y": 0.8603163883,
				"z": -2.7367256987,
				"element": "O" 
			},
			{
				"x": 0.3371754046,
				"y": -0.0993359251,
				"z": -3.3126169923,
				"element": "C" 
			},
			{
				"x": -0.0661266248,
				"y": -1.5421419117,
				"z": -3.074391881,
				"element": "C" 
			},
			{
				"x": 0.9108929367,
				"y": -2.5435567093,
				"z": -3.0301616699,
				"element": "C" 
			},
			{
				"x": 0.5483048708,
				"y": -3.8824700883,
				"z": -2.8733311151,
				"element": "C" 
			},
			{
				"x": -0.7974492012,
				"y": -4.2316424433,
				"z": -2.7497950999,
				"element": "C" 
			},
			{
				"x": -1.7764201442,
				"y": -3.2361507431,
				"z": -2.7873304164,
				"element": "C" 
			},
			{
				"x": -1.4139860167,
				"y": -1.8992664928,
				"z": -2.9530440504,
				"element": "C" 
			},
			{
				"x": 0.3327755419,
				"y": 0.4278031,
				"z": -0.4866924864,
				"element": "C" 
			},
			{
				"x": 0.3268639466,
				"y": 0.8026152262,
				"z": 0.8600549684,
				"element": "C" 
			},
			{
				"x": 0.1404511937,
				"y": 3.2105857694,
				"z": 2.9046543486,
				"element": "H" 
			},
			{
				"x": 0.1226787096,
				"y": 1.5180016421,
				"z": 3.3715518774,
				"element": "H" 
			},
			{
				"x": -1.9093456074,
				"y": 3.3494853459,
				"z": 0.7340391753,
				"element": "H" 
			},
			{
				"x": -1.9002416573,
				"y": 2.6996746816,
				"z": -1.6621415126,
				"element": "H" 
			},
			{
				"x": 0.3060790801,
				"y": 0.1256527067,
				"z": -4.3843483195,
				"element": "H" 
			},
			{
				"x": 1.3662441052,
				"y": 0.0759764542,
				"z": -2.971582825,
				"element": "H" 
			},
			{
				"x": 1.9618218666,
				"y": -2.275952177,
				"z": -3.1186465903,
				"element": "H" 
			},
			{
				"x": 1.3165998696,
				"y": -4.6497238639,
				"z": -2.8395487999,
				"element": "H" 
			},
			{
				"x": -1.081500245,
				"y": -5.2720402182,
				"z": -2.6211405252,
				"element": "H" 
			},
			{
				"x": -2.825216814,
				"y": -3.5010737696,
				"z": -2.687729404,
				"element": "H" 
			},
			{
				"x": -2.1730150692,
				"y": -1.1236887394,
				"z": -2.9793172923,
				"element": "H" 
			},
			{
				"x": 0.9368350059,
				"y": -0.4136540359,
				"z": -0.8020867801,
				"element": "H" 
			},
			{
				"x": 0.9510040238,
				"y": 0.2511764717,
				"z": 1.5589474304,
				"element": "H" 
			}
		],
		 "valence_orbital": [ 
			{
				"type": "occ",
				"energy": -0.31614,
				"method": "rhf"
			},
			{
				"type": "occ",
				"energy": -0.26049,
				"method": "rhf"
			},
			{
				"type": "occ",
				"energy": -0.25674,
				"method": "rhf"
			},
			{
				"type": "occ",
				"energy": -0.25027,
				"method": "rhf"
			},
			{
				"type": "occ",
				"energy": -0.22639,
				"method": "rhf"
			},
			{
				"type": "unocc",
				"energy": -0.01548,
				"method": "rhf"
			},
			{
				"type": "unocc",
				"energy": -0.00985,
				"method": "rhf"
			},
			{
				"type": "unocc",
				"energy": -0.0064,
				"method": "rhf"
			},
			{
				"type": "unocc",
				"energy": -0.00061,
				"method": "rhf"
			},
			{
				"type": "unocc",
				"energy": 0.03622,
				"method": "rhf"
			}
		],
		"cosmo_sigma_profile": { 
			"0.0": 0.0,
			"0.0": 0.0,
			"0.0": 0.0,
			"0.0": 0.0,
			"0.0": 0.0,
			"0.0": 0.0,
			"0.0": 0.0,
			"0.0": 0.0,
			"0.0": 0.0,
			"0.0": 0.0,
			"0.0": 0.0,
			"0.0": 0.0,
			"0.0": 0.0,
			"0.0": 0.0,
			"0.0": 0.0,
			"0.0": 0.0,
			"0.0": 0.0,
			"0.0": 0.0,
			"0.0": 0.0,
			"0.0": 0.0,
			"0.0": 0.0,
			"0.0": 0.0,
			"0.0": 0.0,
			"0.0": 0.0,
			"0.0": 0.0,
			"0.0": 0.0,
			"0.0": 0.0,
			"0.0": 0.0,
			"0.0": 0.0,
			"0.0": 0.0,
			"0.0": 0.0,
			"0.0": 0.0,
			"0.0": 0.0,
			"0.0": 0.0,
			"0.0": 0.0,
			"0.0": 0.0,
			"0.0": 0.0,
			"0.0": 0.0,
			"0.0": 0.0,
			"0.0": 0.0,
			"0.0": 0.0,
			"0.0": 0.0,
			"0.0": 0.0,
			"0.0": 0.0,
			"0.0": 0.0,
			"0.0": 0.0,
			"0.0": 0.0,
			"0.0": 0.0,
			"0.0": 0.0,
			"0.0": 0.0,
			"0.0": 0.0
		}
	}
}
