{
	 "smiles": "CC1(COCOC1=O)NC(=O)C1=CC=CC=C1", 
	 "Tm": 429.15, 
	 "num_atms": 30, 
	 "gaussian": { 
		 "optdone": 1, 
		 "sigma_profile": "yes", 
		 "theory": "DFT", 
		 "functional": "B3LYP", 
		 "basiset": "6-31G**", 
		 "properties": { 
			 "R2extent": 5647.2425, 
			 "electric_dipole_moment_norm": 4.53140932713, 
			 "electric_quadrupole_moment_norm": 24.4965509346, 
			 "total_energy": -820.766827797, 
			 "HOMO_LUMO_gap": 0.21214, 
			 "cosmo_polarized_energy": -18.79, 
			 "cosmo_cavitation_energy": 33.1, 
			 "cosmo_dispersion_energy": -23.79, 
			 "cosmo_repulsion_energy": 1.82, 
			 "cosmo_total_nonelectrostatic_energy": 11.13, 
			 "SMD_solvation_energy": 6.79 
		},
		"coords": [
			{
				"x": -0.3169871911,
				"y": 2.9233311121,
				"z": 1.6511228339,
				"element": "C" 
			},
			{
				"x": -0.2151548639,
				"y": 1.5030146641,
				"z": 1.0699461345,
				"element": "C" 
			},
			{
				"x": 0.8308003062,
				"y": 1.4628917769,
				"z": -0.0681577173,
				"element": "C" 
			},
			{
				"x": 2.1418249245,
				"y": 1.4409324916,
				"z": 0.4912031701,
				"element": "O" 
			},
			{
				"x": 2.3230635328,
				"y": 0.2648377506,
				"z": 1.2097277009,
				"element": "C" 
			},
			{
				"x": 1.4611640285,
				"y": 0.1743900536,
				"z": 2.358445596,
				"element": "O" 
			},
			{
				"x": 0.1712935787,
				"y": 0.5729663679,
				"z": 2.258342327,
				"element": "C" 
			},
			{
				"x": -0.6118633985,
				"y": 0.3228816129,
				"z": 3.1395139636,
				"element": "O" 
			},
			{
				"x": -1.5213466689,
				"y": 1.1059765216,
				"z": 0.5596424648,
				"element": "N" 
			},
			{
				"x": -1.7858079795,
				"y": -0.1972556826,
				"z": 0.2290273659,
				"element": "C" 
			},
			{
				"x": -0.8837133375,
				"y": -1.0347420942,
				"z": 0.1838209376,
				"element": "O" 
			},
			{
				"x": -3.2042086832,
				"y": -0.5413642805,
				"z": -0.1157917577,
				"element": "C" 
			},
			{
				"x": -4.3114724166,
				"y": 0.198787968,
				"z": 0.3228604233,
				"element": "C" 
			},
			{
				"x": -5.6031378903,
				"y": -0.1894800956,
				"z": -0.0322107577,
				"element": "C" 
			},
			{
				"x": -5.7998339248,
				"y": -1.318964934,
				"z": -0.8289134037,
				"element": "C" 
			},
			{
				"x": -4.7015661647,
				"y": -2.0687701167,
				"z": -1.2577816508,
				"element": "C" 
			},
			{
				"x": -3.4120528001,
				"y": -1.686519354,
				"z": -0.8968597146,
				"element": "C" 
			},
			{
				"x": -0.9885123562,
				"y": 2.9367303971,
				"z": 2.5132724333,
				"element": "H" 
			},
			{
				"x": 0.6716725899,
				"y": 3.2620880395,
				"z": 1.9693758325,
				"element": "H" 
			},
			{
				"x": -0.6864106401,
				"y": 3.6174003474,
				"z": 0.8878348491,
				"element": "H" 
			},
			{
				"x": 0.6688692654,
				"y": 0.5777700796,
				"z": -0.691793414,
				"element": "H" 
			},
			{
				"x": 0.7586912513,
				"y": 2.3621956527,
				"z": -0.6852984415,
				"element": "H" 
			},
			{
				"x": 2.1365148831,
				"y": -0.6204292299,
				"z": 0.5864192935,
				"element": "H" 
			},
			{
				"x": 3.3395537023,
				"y": 0.2617527554,
				"z": 1.6043652075,
				"element": "H" 
			},
			{
				"x": -2.2835337082,
				"y": 1.7578474312,
				"z": 0.6582859937,
				"element": "H" 
			},
			{
				"x": -4.1834868938,
				"y": 1.0569849505,
				"z": 0.9770360239,
				"element": "H" 
			},
			{
				"x": -6.4549288988,
				"y": 0.3838771569,
				"z": 0.3213075348,
				"element": "H" 
			},
			{
				"x": -6.8062470409,
				"y": -1.6189671142,
				"z": -1.106231451,
				"element": "H" 
			},
			{
				"x": -4.8519590232,
				"y": -2.9532785517,
				"z": -1.8697272925,
				"element": "H" 
			},
			{
				"x": -2.5458241825,
				"y": -2.2617856761,
				"z": -1.2051844853,
				"element": "H" 
			}
		],
		 "valence_orbital": [ 
			{
				"type": "occ",
				"energy": -0.27151,
				"method": "rhf"
			},
			{
				"type": "occ",
				"energy": -0.26862,
				"method": "rhf"
			},
			{
				"type": "occ",
				"energy": -0.26454,
				"method": "rhf"
			},
			{
				"type": "occ",
				"energy": -0.25615,
				"method": "rhf"
			},
			{
				"type": "occ",
				"energy": -0.25586,
				"method": "rhf"
			},
			{
				"type": "unocc",
				"energy": -0.04372,
				"method": "rhf"
			},
			{
				"type": "unocc",
				"energy": -0.01386,
				"method": "rhf"
			},
			{
				"type": "unocc",
				"energy": 0.00869,
				"method": "rhf"
			},
			{
				"type": "unocc",
				"energy": 0.05257,
				"method": "rhf"
			},
			{
				"type": "unocc",
				"energy": 0.06385,
				"method": "rhf"
			}
		],
		"cosmo_sigma_profile": { 
			"-0.025": 0.0,
			"-0.024": 0.0,
			"-0.023": 0.0,
			"-0.022": 0.0,
			"-0.021": 0.0,
			"-0.02": 0.0,
			"-0.019": 0.0,
			"-0.018": 0.0,
			"-0.017": 0.0,
			"-0.016": 0.0,
			"-0.015": 0.395609064942,
			"-0.014": 1.34330864742,
			"-0.013": 0.913431069502,
			"-0.012": 1.33820223473,
			"-0.011": 1.38601320314,
			"-0.01": 1.66674913035,
			"-0.009": 1.33162955231,
			"-0.008": 4.77765525867,
			"-0.007": 9.60269403491,
			"-0.006": 18.6730879451,
			"-0.005": 21.6536891687,
			"-0.004": 22.4857962331,
			"-0.003": 17.2963470847,
			"-0.002": 16.3392964642,
			"-0.001": 17.3951833431,
			"0.0": 15.3384518734,
			"0.001": 13.9101658038,
			"0.002": 13.2272143762,
			"0.003": 14.0989084494,
			"0.004": 16.7535992526,
			"0.005": 7.3683447355,
			"0.006": 5.38423215223,
			"0.007": 6.21420329659,
			"0.008": 5.9434460695,
			"0.009": 4.70434313015,
			"0.01": 6.72720220962,
			"0.011": 6.84241942345,
			"0.012": 6.19666849042,
			"0.013": 2.87028278385,
			"0.014": 0.420202499347,
			"0.015": 0.0,
			"0.016": 0.0,
			"0.017": 0.0,
			"0.018": 0.0,
			"0.019": 0.0,
			"0.02": 0.0,
			"0.021": 0.0,
			"0.022": 0.0,
			"0.023": 0.0,
			"0.024": 0.0,
			"0.025": 0.0
		}
	}
}
