{
	 "smiles": "CN1C(=O)C(C2=NNC(=O)C2=C/C2=CC=CC=C2)=C(O)C2=CC=CC=C12", 
	 "Tm": 556.15, 
	 "num_atms": 41, 
	 "gaussian": { 
		 "optdone": 1, 
		 "sigma_profile": "yes", 
		 "theory": "DFT", 
		 "functional": "B3LYP", 
		 "basiset": "6-31G**", 
		 "properties": { 
			 "R2extent": 11303.0773, 
			 "electric_dipole_moment_norm": 3.71584624278, 
			 "electric_quadrupole_moment_norm": 13.9070102574, 
			 "total_energy": -1161.10362166, 
			 "HOMO_LUMO_gap": 0.11989, 
			 "cosmo_polarized_energy": -16.33, 
			 "cosmo_cavitation_energy": 44.26, 
			 "cosmo_dispersion_energy": -32.63, 
			 "cosmo_repulsion_energy": 2.37, 
			 "cosmo_total_nonelectrostatic_energy": 14.0, 
			 "SMD_solvation_energy": 7.93 
		},
		"coords": [
			{
				"x": 2.513543598,
				"y": 2.0164775566,
				"z": -0.2460448402,
				"element": "C" 
			},
			{
				"x": 2.1667878766,
				"y": 0.7974323895,
				"z": 0.4849163868,
				"element": "N" 
			},
			{
				"x": 1.2302720676,
				"y": -0.0645777245,
				"z": -0.1205250392,
				"element": "C" 
			},
			{
				"x": 0.7697860717,
				"y": 0.2332811837,
				"z": -1.2286537342,
				"element": "O" 
			},
			{
				"x": 0.8657509912,
				"y": -1.2784203466,
				"z": 0.6064500153,
				"element": "C" 
			},
			{
				"x": -0.167283515,
				"y": -2.2037790066,
				"z": 0.095626702,
				"element": "C" 
			},
			{
				"x": -0.0796506746,
				"y": -3.4596018422,
				"z": 0.4880781395,
				"element": "N" 
			},
			{
				"x": -1.1802971679,
				"y": -4.1365962322,
				"z": 0.034302178,
				"element": "N" 
			},
			{
				"x": -2.0400875417,
				"y": -3.3666648135,
				"z": -0.7178851319,
				"element": "C" 
			},
			{
				"x": -3.052786867,
				"y": -3.802342942,
				"z": -1.2593628948,
				"element": "O" 
			},
			{
				"x": -1.4189411768,
				"y": -2.0069284671,
				"z": -0.6687074648,
				"element": "C" 
			},
			{
				"x": -1.9042634537,
				"y": -0.8137718449,
				"z": -1.1271492514,
				"element": "C" 
			},
			{
				"x": -3.1244911248,
				"y": -0.4010075166,
				"z": -1.8011691389,
				"element": "C" 
			},
			{
				"x": -3.2271273883,
				"y": 0.9847049949,
				"z": -2.0748899701,
				"element": "C" 
			},
			{
				"x": -4.3443326869,
				"y": 1.5151395348,
				"z": -2.7077633955,
				"element": "C" 
			},
			{
				"x": -5.3914033967,
				"y": 0.6702568501,
				"z": -3.0862995749,
				"element": "C" 
			},
			{
				"x": -5.3068966241,
				"y": -0.7008617295,
				"z": -2.8289745955,
				"element": "C" 
			},
			{
				"x": -4.19078468,
				"y": -1.2406646937,
				"z": -2.1962030741,
				"element": "C" 
			},
			{
				"x": 1.5642062851,
				"y": -1.611282694,
				"z": 1.7659785175,
				"element": "C" 
			},
			{
				"x": 1.4134929189,
				"y": -2.7643771621,
				"z": 2.4137989453,
				"element": "O" 
			},
			{
				"x": 2.505118869,
				"y": -0.6901870747,
				"z": 2.3618627999,
				"element": "C" 
			},
			{
				"x": 3.1438464003,
				"y": -0.9864820853,
				"z": 3.5805530286,
				"element": "C" 
			},
			{
				"x": 4.03428488,
				"y": -0.0910265506,
				"z": 4.1496614917,
				"element": "C" 
			},
			{
				"x": 4.3038413117,
				"y": 1.1184168697,
				"z": 3.4939194274,
				"element": "C" 
			},
			{
				"x": 3.6935968636,
				"y": 1.42890413,
				"z": 2.2859055588,
				"element": "C" 
			},
			{
				"x": 2.7822204477,
				"y": 0.5277015606,
				"z": 1.6987563688,
				"element": "C" 
			},
			{
				"x": 3.5861074662,
				"y": 2.0430014271,
				"z": -0.4612745606,
				"element": "H" 
			},
			{
				"x": 1.9545142274,
				"y": 2.00351903,
				"z": -1.1780644605,
				"element": "H" 
			},
			{
				"x": 2.2424180284,
				"y": 2.9043204963,
				"z": 0.3342161188,
				"element": "H" 
			},
			{
				"x": -1.2382154157,
				"y": -5.1367755616,
				"z": 0.1435051158,
				"element": "H" 
			},
			{
				"x": -1.2214347001,
				"y": 0.0124734213,
				"z": -0.9687116938,
				"element": "H" 
			},
			{
				"x": -2.4098096289,
				"y": 1.6390677414,
				"z": -1.7845009269,
				"element": "H" 
			},
			{
				"x": -4.4004824898,
				"y": 2.5809951127,
				"z": -2.9079172239,
				"element": "H" 
			},
			{
				"x": -6.2675105654,
				"y": 1.0787633101,
				"z": -3.5823389607,
				"element": "H" 
			},
			{
				"x": -6.1186430894,
				"y": -1.357995434,
				"z": -3.127346157,
				"element": "H" 
			},
			{
				"x": -4.1221536687,
				"y": -2.3043461619,
				"z": -2.0058067655,
				"element": "H" 
			},
			{
				"x": 0.8326578502,
				"y": -3.3478002133,
				"z": 1.8431209951,
				"element": "H" 
			},
			{
				"x": 2.9172187768,
				"y": -1.9315304453,
				"z": 4.0597581386,
				"element": "H" 
			},
			{
				"x": 4.5199163034,
				"y": -0.3246516654,
				"z": 5.0915283599,
				"element": "H" 
			},
			{
				"x": 5.001511855,
				"y": 1.8278855592,
				"z": 3.9295253279,
				"element": "H" 
			},
			{
				"x": 3.9235027668,
				"y": 2.3685310398,
				"z": 1.8009252384,
				"element": "H" 
			}
		],
		 "valence_orbital": [ 
			{
				"type": "occ",
				"energy": -0.25526,
				"method": "rhf"
			},
			{
				"type": "occ",
				"energy": -0.25058,
				"method": "rhf"
			},
			{
				"type": "occ",
				"energy": -0.23511,
				"method": "rhf"
			},
			{
				"type": "occ",
				"energy": -0.22584,
				"method": "rhf"
			},
			{
				"type": "occ",
				"energy": -0.20914,
				"method": "rhf"
			},
			{
				"type": "unocc",
				"energy": -0.08925,
				"method": "rhf"
			},
			{
				"type": "unocc",
				"energy": -0.05306,
				"method": "rhf"
			},
			{
				"type": "unocc",
				"energy": -0.012,
				"method": "rhf"
			},
			{
				"type": "unocc",
				"energy": -0.00354,
				"method": "rhf"
			},
			{
				"type": "unocc",
				"energy": 0.0129,
				"method": "rhf"
			}
		],
		"cosmo_sigma_profile": { 
			"-0.025": 0.0,
			"-0.024": 0.0,
			"-0.023": 0.0,
			"-0.022": 0.0,
			"-0.021": 0.0,
			"-0.02": 0.0,
			"-0.019": 0.0,
			"-0.018": 0.0,
			"-0.017": 0.281950706842,
			"-0.016": 1.3280310249,
			"-0.015": 1.07176620019,
			"-0.014": 0.91997581273,
			"-0.013": 0.875890390269,
			"-0.012": 0.873322756562,
			"-0.011": 0.84862242203,
			"-0.01": 1.03239306093,
			"-0.009": 0.630580850133,
			"-0.008": 0.377140509207,
			"-0.007": 6.85476458704,
			"-0.006": 22.4227861154,
			"-0.005": 24.5362884328,
			"-0.004": 24.6386441176,
			"-0.003": 22.8325811826,
			"-0.002": 27.4754764229,
			"-0.001": 26.821971991,
			"0.0": 32.0987699837,
			"0.001": 31.5740709584,
			"0.002": 29.1282556925,
			"0.003": 31.3013717721,
			"0.004": 25.6241463639,
			"0.005": 8.06330974686,
			"0.006": 5.50119997016,
			"0.007": 6.33204999995,
			"0.008": 4.67147068128,
			"0.009": 2.93578405251,
			"0.01": 2.0627299835,
			"0.011": 4.46086964931,
			"0.012": 3.99516756711,
			"0.013": 4.57719860302,
			"0.014": 0.891027519567,
			"0.015": 0.0,
			"0.016": 0.0,
			"0.017": 0.0,
			"0.018": 0.0,
			"0.019": 0.0,
			"0.02": 0.0,
			"0.021": 0.0,
			"0.022": 0.0,
			"0.023": 0.0,
			"0.024": 0.0,
			"0.025": 0.0
		}
	}
}
