{
	 "smiles": "O=C1NC2=C(C=CC(=C2)N2CCCC2)C1=O", 
	 "Tm": 567.15, 
	 "num_atms": 28, 
	 "gaussian": { 
		 "optdone": 1, 
		 "sigma_profile": "yes", 
		 "theory": "DFT", 
		 "functional": "B3LYP", 
		 "basiset": "6-31G**", 
		 "properties": { 
			 "R2extent": 5851.0005, 
			 "electric_dipole_moment_norm": 10.2017939079, 
			 "electric_quadrupole_moment_norm": 42.9492323983, 
			 "total_energy": -724.469931675, 
			 "HOMO_LUMO_gap": 0.13333, 
			 "cosmo_polarized_energy": -20.95, 
			 "cosmo_cavitation_energy": 31.25, 
			 "cosmo_dispersion_energy": -23.27, 
			 "cosmo_repulsion_energy": 1.8, 
			 "cosmo_total_nonelectrostatic_energy": 9.78, 
			 "SMD_solvation_energy": 5.26 
		},
		"coords": [
			{
				"x": -6.23460061,
				"y": -0.6350588356,
				"z": -1.6238242825,
				"element": "O" 
			},
			{
				"x": -5.102960878,
				"y": -0.2612444345,
				"z": -1.4127317989,
				"element": "C" 
			},
			{
				"x": -4.1003196008,
				"y": -0.9755152177,
				"z": -0.7666828275,
				"element": "N" 
			},
			{
				"x": -2.9068239228,
				"y": -0.2467268168,
				"z": -0.6894582394,
				"element": "C" 
			},
			{
				"x": -3.0751172071,
				"y": 1.0154613874,
				"z": -1.3017677702,
				"element": "C" 
			},
			{
				"x": -1.9977128493,
				"y": 1.9032419158,
				"z": -1.3378862413,
				"element": "C" 
			},
			{
				"x": -0.7825286182,
				"y": 1.5420160869,
				"z": -0.7777215206,
				"element": "C" 
			},
			{
				"x": -0.6141516968,
				"y": 0.2682207213,
				"z": -0.1610777026,
				"element": "C" 
			},
			{
				"x": -1.7106500142,
				"y": -0.6394106728,
				"z": -0.1223491881,
				"element": "C" 
			},
			{
				"x": 0.5868041703,
				"y": -0.0823671514,
				"z": 0.3890285009,
				"element": "N" 
			},
			{
				"x": 0.8123289338,
				"y": -1.3242952328,
				"z": 1.1337857361,
				"element": "C" 
			},
			{
				"x": 2.188233395,
				"y": -1.1168737601,
				"z": 1.7828539365,
				"element": "C" 
			},
			{
				"x": 2.9116433038,
				"y": -0.1957584476,
				"z": 0.7884246836,
				"element": "C" 
			},
			{
				"x": 1.7973262347,
				"y": 0.7408156247,
				"z": 0.3000723372,
				"element": "C" 
			},
			{
				"x": -4.4411023625,
				"y": 1.1110192528,
				"z": -1.7970553763,
				"element": "C" 
			},
			{
				"x": -5.0221448895,
				"y": 2.004045356,
				"z": -2.3844311095,
				"element": "O" 
			},
			{
				"x": -4.2400266963,
				"y": -1.9066565093,
				"z": -0.4033449372,
				"element": "H" 
			},
			{
				"x": -2.1225548479,
				"y": 2.8765942613,
				"z": -1.8033107102,
				"element": "H" 
			},
			{
				"x": 0.0429716815,
				"y": 2.2422933818,
				"z": -0.7961926409,
				"element": "H" 
			},
			{
				"x": -1.6059877642,
				"y": -1.6199388266,
				"z": 0.3259410759,
				"element": "H" 
			},
			{
				"x": 0.8127491052,
				"y": -2.1936213478,
				"z": 0.4584492949,
				"element": "H" 
			},
			{
				"x": 0.022949679,
				"y": -1.4832243527,
				"z": 1.8773697115,
				"element": "H" 
			},
			{
				"x": 2.7111939553,
				"y": -2.0603415712,
				"z": 1.9584566318,
				"element": "H" 
			},
			{
				"x": 2.0717077475,
				"y": -0.6128950543,
				"z": 2.7486425555,
				"element": "H" 
			},
			{
				"x": 3.7473393445,
				"y": 0.3499876055,
				"z": 1.2335979561,
				"element": "H" 
			},
			{
				"x": 3.3021506275,
				"y": -0.7799035344,
				"z": -0.0522161363,
				"element": "H" 
			},
			{
				"x": 1.7129124349,
				"y": 1.633658051,
				"z": 0.9376934289,
				"element": "H" 
			},
			{
				"x": 1.9625713446,
				"y": 1.0824781213,
				"z": -0.7276653675,
				"element": "H" 
			}
		],
		 "valence_orbital": [ 
			{
				"type": "occ",
				"energy": -0.28972,
				"method": "rhf"
			},
			{
				"type": "occ",
				"energy": -0.28794,
				"method": "rhf"
			},
			{
				"type": "occ",
				"energy": -0.23487,
				"method": "rhf"
			},
			{
				"type": "occ",
				"energy": -0.22633,
				"method": "rhf"
			},
			{
				"type": "occ",
				"energy": -0.20582,
				"method": "rhf"
			},
			{
				"type": "unocc",
				"energy": -0.07249,
				"method": "rhf"
			},
			{
				"type": "unocc",
				"energy": -0.00682,
				"method": "rhf"
			},
			{
				"type": "unocc",
				"energy": 0.02992,
				"method": "rhf"
			},
			{
				"type": "unocc",
				"energy": 0.06235,
				"method": "rhf"
			},
			{
				"type": "unocc",
				"energy": 0.08457,
				"method": "rhf"
			}
		],
		"cosmo_sigma_profile": { 
			"-0.025": 0.0,
			"-0.024": 0.0,
			"-0.023": 0.0,
			"-0.022": 0.0,
			"-0.021": 0.0,
			"-0.02": 0.0,
			"-0.019": 0.0,
			"-0.018": 0.0,
			"-0.017": 0.00660268512936,
			"-0.016": 0.865782844763,
			"-0.015": 1.60845112301,
			"-0.014": 1.38653410096,
			"-0.013": 0.673208397945,
			"-0.012": 1.24654792444,
			"-0.011": 0.95049314733,
			"-0.01": 1.22732266909,
			"-0.009": 1.29625398823,
			"-0.008": 1.44677810198,
			"-0.007": 2.95557960195,
			"-0.006": 8.0740827569,
			"-0.005": 14.9629033898,
			"-0.004": 29.1660094793,
			"-0.003": 32.8180136506,
			"-0.002": 24.3099791558,
			"-0.001": 18.1818271435,
			"0.0": 16.0776140606,
			"0.001": 11.8241801123,
			"0.002": 12.0557375579,
			"0.003": 12.7839293519,
			"0.004": 9.94792572611,
			"0.005": 5.28894519102,
			"0.006": 2.75404009256,
			"0.007": 1.80481290811,
			"0.008": 2.36109670914,
			"0.009": 3.52832252314,
			"0.01": 4.1466386385,
			"0.011": 8.26348040696,
			"0.012": 9.89030646768,
			"0.013": 5.23647395497,
			"0.014": 0.831749630279,
			"0.015": 0.0,
			"0.016": 0.0,
			"0.017": 0.0,
			"0.018": 0.0,
			"0.019": 0.0,
			"0.02": 0.0,
			"0.021": 0.0,
			"0.022": 0.0,
			"0.023": 0.0,
			"0.024": 0.0,
			"0.025": 0.0
		}
	}
}
