{
	 "smiles": "CCOP(S)(=S)OCC", 
	 "Tm": 263.15, 
	 "num_atms": 20, 
	 "gaussian": { 
		 "optdone": 1, 
		 "sigma_profile": "yes", 
		 "theory": "DFT", 
		 "functional": "B3LYP", 
		 "basiset": "6-31G**", 
		 "properties": { 
			 "R2extent": 2801.2644, 
			 "electric_dipole_moment_norm": 3.68039846892, 
			 "electric_quadrupole_moment_norm": 13.6633566557, 
			 "total_energy": -1447.29617425, 
			 "HOMO_LUMO_gap": 0.21625, 
			 "cosmo_polarized_energy": -9.8, 
			 "cosmo_cavitation_energy": 27.98, 
			 "cosmo_dispersion_energy": -20.72, 
			 "cosmo_repulsion_energy": 1.65, 
			 "cosmo_total_nonelectrostatic_energy": 8.9, 
			 "SMD_solvation_energy": 4.29 
		},
		"coords": [
			{
				"x": -0.5825328604,
				"y": -2.7701937988,
				"z": -2.2141315468,
				"element": "C" 
			},
			{
				"x": -0.0323091817,
				"y": -1.3587321897,
				"z": -2.2829698573,
				"element": "C" 
			},
			{
				"x": -0.7622987189,
				"y": -0.5546387344,
				"z": -1.3184930718,
				"element": "O" 
			},
			{
				"x": -0.500247002,
				"y": 1.0411565913,
				"z": -1.1884027924,
				"element": "P" 
			},
			{
				"x": 1.2343392657,
				"y": 1.012668972,
				"z": 0.0717573002,
				"element": "S" 
			},
			{
				"x": -0.3697857789,
				"y": 2.0987919443,
				"z": -2.8019426555,
				"element": "S" 
			},
			{
				"x": -1.7390524648,
				"y": 1.4706108353,
				"z": -0.2563151898,
				"element": "O" 
			},
			{
				"x": -2.133958791,
				"y": 0.7255206444,
				"z": 0.9269631422,
				"element": "C" 
			},
			{
				"x": -3.2658738524,
				"y": 1.4885935841,
				"z": 1.587735639,
				"element": "C" 
			},
			{
				"x": -0.4466681957,
				"y": -3.1955685929,
				"z": -1.2157882463,
				"element": "H" 
			},
			{
				"x": -0.0561121814,
				"y": -3.404650051,
				"z": -2.934120455,
				"element": "H" 
			},
			{
				"x": -1.6486227895,
				"y": -2.7828096979,
				"z": -2.456881512,
				"element": "H" 
			},
			{
				"x": -0.1668358297,
				"y": -0.9180081354,
				"z": -3.275289854,
				"element": "H" 
			},
			{
				"x": 1.0337766525,
				"y": -1.3314508427,
				"z": -2.0307177328,
				"element": "H" 
			},
			{
				"x": 1.5988643248,
				"y": 2.2748307157,
				"z": -0.2227326717,
				"element": "H" 
			},
			{
				"x": -2.4440966774,
				"y": -0.276565633,
				"z": 0.6177320709,
				"element": "H" 
			},
			{
				"x": -1.269085797,
				"y": 0.6367816263,
				"z": 1.5943939242,
				"element": "H" 
			},
			{
				"x": -2.9386947074,
				"y": 2.4886571203,
				"z": 1.8844480449,
				"element": "H" 
			},
			{
				"x": -3.5987433571,
				"y": 0.9518322676,
				"z": 2.4819518624,
				"element": "H" 
			},
			{
				"x": -4.1150620577,
				"y": 1.5891733745,
				"z": 0.9066036015,
				"element": "H" 
			}
		],
		 "valence_orbital": [ 
			{
				"type": "occ",
				"energy": -0.31583,
				"method": "rhf"
			},
			{
				"type": "occ",
				"energy": -0.30981,
				"method": "rhf"
			},
			{
				"type": "occ",
				"energy": -0.2832,
				"method": "rhf"
			},
			{
				"type": "occ",
				"energy": -0.2472,
				"method": "rhf"
			},
			{
				"type": "occ",
				"energy": -0.23927,
				"method": "rhf"
			},
			{
				"type": "unocc",
				"energy": -0.02302,
				"method": "rhf"
			},
			{
				"type": "unocc",
				"energy": 0.02917,
				"method": "rhf"
			},
			{
				"type": "unocc",
				"energy": 0.03556,
				"method": "rhf"
			},
			{
				"type": "unocc",
				"energy": 0.05731,
				"method": "rhf"
			},
			{
				"type": "unocc",
				"energy": 0.08339,
				"method": "rhf"
			}
		],
		"cosmo_sigma_profile": { 
			"-0.025": 0.0,
			"-0.024": 0.0,
			"-0.023": 0.0,
			"-0.022": 0.0,
			"-0.021": 0.0,
			"-0.02": 0.0,
			"-0.019": 0.0,
			"-0.018": 0.0,
			"-0.017": 0.0,
			"-0.016": 0.0,
			"-0.015": 0.0,
			"-0.014": 0.0,
			"-0.013": 0.0,
			"-0.012": 0.457811854003,
			"-0.011": 1.69458261702,
			"-0.01": 1.81498321152,
			"-0.009": 1.77601329412,
			"-0.008": 1.17427287979,
			"-0.007": 1.24034554176,
			"-0.006": 2.96665066994,
			"-0.005": 14.5873870801,
			"-0.004": 26.4478271286,
			"-0.003": 23.9186208129,
			"-0.002": 20.248494934,
			"-0.001": 21.7742608768,
			"0.0": 19.2167837368,
			"0.001": 11.8464076811,
			"0.002": 10.9613886271,
			"0.003": 12.1500851963,
			"0.004": 9.0947671427,
			"0.005": 8.98415344018,
			"0.006": 8.50731659643,
			"0.007": 6.96655705459,
			"0.008": 8.33670948203,
			"0.009": 8.24115798105,
			"0.01": 1.53188583006,
			"0.011": 0.0,
			"0.012": 0.0,
			"0.013": 0.0,
			"0.014": 0.0,
			"0.015": 0.0,
			"0.016": 0.0,
			"0.017": 0.0,
			"0.018": 0.0,
			"0.019": 0.0,
			"0.02": 0.0,
			"0.021": 0.0,
			"0.022": 0.0,
			"0.023": 0.0,
			"0.024": 0.0,
			"0.025": 0.0
		}
	}
}
