{
	 "smiles": "C(CCC1CCCCC1)CCC1CCCCC1", 
	 "Tm": 259.55, 
	 "num_atms": 49, 
	 "gaussian": { 
		 "optdone": 1, 
		 "sigma_profile": "yes", 
		 "theory": "DFT", 
		 "functional": "B3LYP", 
		 "basiset": "6-31G**", 
		 "properties": { 
			 "R2extent": 7436.231, 
			 "electric_dipole_moment_norm": 0.0130238243231, 
			 "electric_quadrupole_moment_norm": 0.480814340468, 
			 "total_energy": -667.134535773, 
			 "HOMO_LUMO_gap": 0.34689, 
			 "cosmo_polarized_energy": -0.96, 
			 "cosmo_cavitation_energy": 44.68, 
			 "cosmo_dispersion_energy": -30.52, 
			 "cosmo_repulsion_energy": 2.42, 
			 "cosmo_total_nonelectrostatic_energy": 16.58, 
			 "SMD_solvation_energy": 4.93 
		},
		"coords": [
			{
				"x": -0.0830945914,
				"y": 2.1623620763,
				"z": -2.6730477802,
				"element": "C" 
			},
			{
				"x": 0.5913904361,
				"y": 0.7829310108,
				"z": -2.5582222082,
				"element": "C" 
			},
			{
				"x": -0.3361762325,
				"y": -0.3379180579,
				"z": -2.0669702499,
				"element": "C" 
			},
			{
				"x": 0.3128772938,
				"y": -1.7356433926,
				"z": -2.0219286312,
				"element": "C" 
			},
			{
				"x": 1.3421266952,
				"y": -1.8888614501,
				"z": -0.8632751622,
				"element": "C" 
			},
			{
				"x": 0.7222107869,
				"y": -2.5612467333,
				"z": 0.3700011618,
				"element": "C" 
			},
			{
				"x": 0.277625452,
				"y": -4.0082359249,
				"z": 0.0560219443,
				"element": "C" 
			},
			{
				"x": -0.2070311708,
				"y": -4.1585872816,
				"z": -1.4071219811,
				"element": "C" 
			},
			{
				"x": -0.7747576074,
				"y": -2.8362514703,
				"z": -1.9380055264,
				"element": "C" 
			},
			{
				"x": -0.5656985767,
				"y": 2.7933922881,
				"z": -1.3540177011,
				"element": "C" 
			},
			{
				"x": 0.559435398,
				"y": 3.146704505,
				"z": -0.3705957296,
				"element": "C" 
			},
			{
				"x": 0.0880526925,
				"y": 3.8418390188,
				"z": 0.9222760643,
				"element": "C" 
			},
			{
				"x": 1.2793530439,
				"y": 4.5340930672,
				"z": 1.6314385482,
				"element": "C" 
			},
			{
				"x": 0.9838513126,
				"y": 4.8000004048,
				"z": 3.1129048656,
				"element": "C" 
			},
			{
				"x": 0.8127434696,
				"y": 3.4730215407,
				"z": 3.8925637083,
				"element": "C" 
			},
			{
				"x": 0.2927533815,
				"y": 2.334456719,
				"z": 2.9851596197,
				"element": "C" 
			},
			{
				"x": -0.6462111119,
				"y": 2.8740028041,
				"z": 1.8967774712,
				"element": "C" 
			},
			{
				"x": 0.6182778626,
				"y": 2.8562781561,
				"z": -3.1566338319,
				"element": "H" 
			},
			{
				"x": -0.9405385853,
				"y": 2.0765486857,
				"z": -3.3547421144,
				"element": "H" 
			},
			{
				"x": 1.4726776488,
				"y": 0.8556097461,
				"z": -1.9086964226,
				"element": "H" 
			},
			{
				"x": 0.9762924621,
				"y": 0.5052122961,
				"z": -3.5491452123,
				"element": "H" 
			},
			{
				"x": -1.2133619255,
				"y": -0.3773818546,
				"z": -2.7291289712,
				"element": "H" 
			},
			{
				"x": -0.7267786165,
				"y": -0.0990714265,
				"z": -1.0675921665,
				"element": "H" 
			},
			{
				"x": 0.8532101179,
				"y": -1.8786872216,
				"z": -2.9689491433,
				"element": "H" 
			},
			{
				"x": 2.194168001,
				"y": -2.4924560224,
				"z": -1.2018589705,
				"element": "H" 
			},
			{
				"x": 1.7573655088,
				"y": -0.9113747673,
				"z": -0.5927820506,
				"element": "H" 
			},
			{
				"x": 1.4298267278,
				"y": -2.5555311484,
				"z": 1.2069008868,
				"element": "H" 
			},
			{
				"x": -0.1416645586,
				"y": -1.9710513087,
				"z": 0.7024534595,
				"element": "H" 
			},
			{
				"x": 1.1077582712,
				"y": -4.7011691744,
				"z": 0.2390772164,
				"element": "H" 
			},
			{
				"x": -0.5222099576,
				"y": -4.2998422438,
				"z": 0.747368681,
				"element": "H" 
			},
			{
				"x": 0.6298653551,
				"y": -4.4649425081,
				"z": -2.0486497391,
				"element": "H" 
			},
			{
				"x": -0.9529961338,
				"y": -4.9580524432,
				"z": -1.4799476286,
				"element": "H" 
			},
			{
				"x": -1.2313365782,
				"y": -2.975563106,
				"z": -2.9251452119,
				"element": "H" 
			},
			{
				"x": -1.5849939596,
				"y": -2.5020246112,
				"z": -1.2742437668,
				"element": "H" 
			},
			{
				"x": -1.1173238255,
				"y": 3.7126747827,
				"z": -1.5945175381,
				"element": "H" 
			},
			{
				"x": -1.2940663277,
				"y": 2.1294288735,
				"z": -0.8718456296,
				"element": "H" 
			},
			{
				"x": 1.1251770101,
				"y": 2.2444165767,
				"z": -0.0983132163,
				"element": "H" 
			},
			{
				"x": 1.2752914354,
				"y": 3.8046684638,
				"z": -0.8844790666,
				"element": "H" 
			},
			{
				"x": -0.6245108946,
				"y": 4.6278767333,
				"z": 0.6330531645,
				"element": "H" 
			},
			{
				"x": 2.1731878626,
				"y": 3.8987401097,
				"z": 1.5528114025,
				"element": "H" 
			},
			{
				"x": 1.5248316727,
				"y": 5.4662129571,
				"z": 1.1087328627,
				"element": "H" 
			},
			{
				"x": 0.0659943057,
				"y": 5.3982325503,
				"z": 3.1868082304,
				"element": "H" 
			},
			{
				"x": 1.7775955355,
				"y": 5.4060502597,
				"z": 3.5641110604,
				"element": "H" 
			},
			{
				"x": 0.1215446619,
				"y": 3.627557973,
				"z": 4.7299124803,
				"element": "H" 
			},
			{
				"x": 1.7696110371,
				"y": 3.1738924944,
				"z": 4.3371596257,
				"element": "H" 
			},
			{
				"x": -0.2150308467,
				"y": 1.5722554751,
				"z": 3.587123226,
				"element": "H" 
			},
			{
				"x": 1.1391455164,
				"y": 1.824980114,
				"z": 2.5064411154,
				"element": "H" 
			},
			{
				"x": -1.4810489529,
				"y": 3.3975988687,
				"z": 2.3803289852,
				"element": "H" 
			},
			{
				"x": -1.0964105015,
				"y": 2.0443535961,
				"z": 1.33992987,
				"element": "H" 
			}
		],
		 "valence_orbital": [ 
			{
				"type": "occ",
				"energy": -0.28942,
				"method": "rhf"
			},
			{
				"type": "occ",
				"energy": -0.28881,
				"method": "rhf"
			},
			{
				"type": "occ",
				"energy": -0.28811,
				"method": "rhf"
			},
			{
				"type": "occ",
				"energy": -0.28494,
				"method": "rhf"
			},
			{
				"type": "occ",
				"energy": -0.28076,
				"method": "rhf"
			},
			{
				"type": "unocc",
				"energy": 0.06613,
				"method": "rhf"
			},
			{
				"type": "unocc",
				"energy": 0.08275,
				"method": "rhf"
			},
			{
				"type": "unocc",
				"energy": 0.09487,
				"method": "rhf"
			},
			{
				"type": "unocc",
				"energy": 0.09902,
				"method": "rhf"
			},
			{
				"type": "unocc",
				"energy": 0.10008,
				"method": "rhf"
			}
		],
		"cosmo_sigma_profile": { 
			"-0.025": 0.0,
			"-0.024": 0.0,
			"-0.023": 0.0,
			"-0.022": 0.0,
			"-0.021": 0.0,
			"-0.02": 0.0,
			"-0.019": 0.0,
			"-0.018": 0.0,
			"-0.017": 0.0,
			"-0.016": 0.0,
			"-0.015": 0.0,
			"-0.014": 0.0,
			"-0.013": 0.0,
			"-0.012": 0.0,
			"-0.011": 0.0,
			"-0.01": 0.0,
			"-0.009": 0.0,
			"-0.008": 0.0,
			"-0.007": 0.0,
			"-0.006": 0.0,
			"-0.005": 0.0,
			"-0.004": 0.0,
			"-0.003": 1.29779751612,
			"-0.002": 35.6665484151,
			"-0.001": 85.5244878155,
			"0.0": 98.5277084355,
			"0.001": 76.7252683913,
			"0.002": 41.6648652155,
			"0.003": 0.42652642296,
			"0.004": 0.0,
			"0.005": 0.0,
			"0.006": 0.0,
			"0.007": 0.0,
			"0.008": 0.0,
			"0.009": 0.0,
			"0.01": 0.0,
			"0.011": 0.0,
			"0.012": 0.0,
			"0.013": 0.0,
			"0.014": 0.0,
			"0.015": 0.0,
			"0.016": 0.0,
			"0.017": 0.0,
			"0.018": 0.0,
			"0.019": 0.0,
			"0.02": 0.0,
			"0.021": 0.0,
			"0.022": 0.0,
			"0.023": 0.0,
			"0.024": 0.0,
			"0.025": 0.0
		}
	}
}
