{
	 "smiles": "NC1=CC(F)=C(SC(F)(F)F)C=C1", 
	 "Tm": 307.15, 
	 "num_atms": 18, 
	 "gaussian": { 
		 "optdone": 1, 
		 "sigma_profile": "yes", 
		 "theory": "DFT", 
		 "functional": "B3LYP", 
		 "basiset": "6-31G**", 
		 "properties": { 
			 "R2extent": 4206.4954, 
			 "electric_dipole_moment_norm": 5.15079129164, 
			 "electric_quadrupole_moment_norm": 16.9410540124, 
			 "total_energy": -1122.04686057, 
			 "HOMO_LUMO_gap": 0.20147, 
			 "cosmo_polarized_energy": -9.7, 
			 "cosmo_cavitation_energy": 26.09, 
			 "cosmo_dispersion_energy": -18.78, 
			 "cosmo_repulsion_energy": 1.38, 
			 "cosmo_total_nonelectrostatic_energy": 8.7, 
			 "SMD_solvation_energy": 5.66 
		},
		"coords": [
			{
				"x": 1.2122715856,
				"y": 0.4242892999,
				"z": 4.2282551148,
				"element": "N" 
			},
			{
				"x": 1.35676108,
				"y": 0.1895424957,
				"z": 2.8725136941,
				"element": "C" 
			},
			{
				"x": 2.6358343575,
				"y": 0.0518979655,
				"z": 2.3050131794,
				"element": "C" 
			},
			{
				"x": 2.759306984,
				"y": -0.2337895704,
				"z": 0.954797297,
				"element": "C" 
			},
			{
				"x": 3.9971778064,
				"y": -0.3584311208,
				"z": 0.451751889,
				"element": "F" 
			},
			{
				"x": 1.6498583923,
				"y": -0.3915831502,
				"z": 0.1132639432,
				"element": "C" 
			},
			{
				"x": 1.8422065363,
				"y": -0.811063937,
				"z": -1.6039059619,
				"element": "S" 
			},
			{
				"x": 1.9982726862,
				"y": 0.8629095947,
				"z": -2.315214025,
				"element": "C" 
			},
			{
				"x": 2.1807744028,
				"y": 0.725222473,
				"z": -3.6397628024,
				"element": "F" 
			},
			{
				"x": 3.0386097207,
				"y": 1.5488383743,
				"z": -1.8130009835,
				"element": "F" 
			},
			{
				"x": 0.9002794507,
				"y": 1.6160382834,
				"z": -2.1195526879,
				"element": "F" 
			},
			{
				"x": 0.3801059376,
				"y": -0.2521596125,
				"z": 0.6951876835,
				"element": "C" 
			},
			{
				"x": 0.2263318528,
				"y": 0.0322111157,
				"z": 2.0443391833,
				"element": "C" 
			},
			{
				"x": 2.0068664201,
				"y": 0.8166290099,
				"z": 4.7112312617,
				"element": "H" 
			},
			{
				"x": 0.3283615252,
				"y": 0.8065375386,
				"z": 4.5301725395,
				"element": "H" 
			},
			{
				"x": 3.5348972617,
				"y": 0.1612715981,
				"z": 2.9027249315,
				"element": "H" 
			},
			{
				"x": -0.4953507818,
				"y": -0.3700814368,
				"z": 0.0651164752,
				"element": "H" 
			},
			{
				"x": -0.768565218,
				"y": 0.131121079,
				"z": 2.4688692684,
				"element": "H" 
			}
		],
		 "valence_orbital": [ 
			{
				"type": "occ",
				"energy": -0.35163,
				"method": "rhf"
			},
			{
				"type": "occ",
				"energy": -0.31463,
				"method": "rhf"
			},
			{
				"type": "occ",
				"energy": -0.25814,
				"method": "rhf"
			},
			{
				"type": "occ",
				"energy": -0.25635,
				"method": "rhf"
			},
			{
				"type": "occ",
				"energy": -0.22309,
				"method": "rhf"
			},
			{
				"type": "unocc",
				"energy": -0.02162,
				"method": "rhf"
			},
			{
				"type": "unocc",
				"energy": -0.00897,
				"method": "rhf"
			},
			{
				"type": "unocc",
				"energy": 0.02931,
				"method": "rhf"
			},
			{
				"type": "unocc",
				"energy": 0.05801,
				"method": "rhf"
			},
			{
				"type": "unocc",
				"energy": 0.07461,
				"method": "rhf"
			}
		],
		"cosmo_sigma_profile": { 
			"-0.025": 0.0,
			"-0.024": 0.0,
			"-0.023": 0.0,
			"-0.022": 0.0,
			"-0.021": 0.0,
			"-0.02": 0.0,
			"-0.019": 0.0,
			"-0.018": 0.0,
			"-0.017": 0.0,
			"-0.016": 0.0,
			"-0.015": 0.0,
			"-0.014": 0.467580190105,
			"-0.013": 3.1110311261,
			"-0.012": 2.49300831945,
			"-0.011": 3.64246843531,
			"-0.01": 3.62070279235,
			"-0.009": 2.2934550056,
			"-0.008": 3.48534880432,
			"-0.007": 5.82572675911,
			"-0.006": 5.89173889141,
			"-0.005": 5.77336103111,
			"-0.004": 5.28099502727,
			"-0.003": 4.49650819675,
			"-0.002": 7.48804786678,
			"-0.001": 13.4869755549,
			"0.0": 15.4883209003,
			"0.001": 23.9587634511,
			"0.002": 42.6728538848,
			"0.003": 27.979866688,
			"0.004": 17.7410981343,
			"0.005": 6.56968950978,
			"0.006": 3.67557381396,
			"0.007": 2.4164670353,
			"0.008": 0.683129675272,
			"0.009": 0.397143566488,
			"0.01": 0.84958892463,
			"0.011": 0.759351975693,
			"0.012": 0.370114769274,
			"0.013": 0.0299568055995,
			"0.014": 0.0,
			"0.015": 0.0,
			"0.016": 0.0,
			"0.017": 0.0,
			"0.018": 0.0,
			"0.019": 0.0,
			"0.02": 0.0,
			"0.021": 0.0,
			"0.022": 0.0,
			"0.023": 0.0,
			"0.024": 0.0,
			"0.025": 0.0
		}
	}
}
