{
	 "smiles": "CC1=CC=CN=C1C(N)=NO", 
	 "Tm": 367.65, 
	 "num_atms": 20, 
	 "gaussian": { 
		 "optdone": 1, 
		 "sigma_profile": "yes", 
		 "theory": "DFT", 
		 "functional": "B3LYP", 
		 "basiset": "6-31G**", 
		 "properties": { 
			 "R2extent": 2453.7342, 
			 "electric_dipole_moment_norm": 1.43376835298, 
			 "electric_quadrupole_moment_norm": 7.24781257139, 
			 "total_energy": -511.603331018, 
			 "HOMO_LUMO_gap": 0.16686, 
			 "cosmo_polarized_energy": -9.75, 
			 "cosmo_cavitation_energy": 23.59, 
			 "cosmo_dispersion_energy": -17.91, 
			 "cosmo_repulsion_energy": 1.46, 
			 "cosmo_total_nonelectrostatic_energy": 7.13, 
			 "SMD_solvation_energy": 3.76 
		},
		"coords": [
			{
				"x": -1.1770425983,
				"y": 0.8607650382,
				"z": -0.6801074822,
				"element": "C" 
			},
			{
				"x": -0.0235423444,
				"y": 0.3189014284,
				"z": 0.1243332879,
				"element": "C" 
			},
			{
				"x": -0.2447514484,
				"y": -0.7521318207,
				"z": 0.9979726431,
				"element": "C" 
			},
			{
				"x": 0.7898418771,
				"y": -1.2898689974,
				"z": 1.758520544,
				"element": "C" 
			},
			{
				"x": 2.0562399666,
				"y": -0.7295149965,
				"z": 1.6183862745,
				"element": "C" 
			},
			{
				"x": 2.303906154,
				"y": 0.2891662361,
				"z": 0.7953537758,
				"element": "N" 
			},
			{
				"x": 1.302757919,
				"y": 0.8136251312,
				"z": 0.0631059816,
				"element": "C" 
			},
			{
				"x": 1.7489618732,
				"y": 1.9494779529,
				"z": -0.7966152253,
				"element": "C" 
			},
			{
				"x": 3.0981502154,
				"y": 2.1401415804,
				"z": -0.8882690335,
				"element": "N" 
			},
			{
				"x": 0.8616544962,
				"y": 2.6758310656,
				"z": -1.4065466713,
				"element": "N" 
			},
			{
				"x": 1.5285624086,
				"y": 3.7043293929,
				"z": -2.1291773201,
				"element": "O" 
			},
			{
				"x": -0.9443814002,
				"y": 0.8809203865,
				"z": -1.7478309214,
				"element": "H" 
			},
			{
				"x": -1.4008483964,
				"y": 1.8953208202,
				"z": -0.4068729453,
				"element": "H" 
			},
			{
				"x": -2.0685919384,
				"y": 0.2478332293,
				"z": -0.5172734324,
				"element": "H" 
			},
			{
				"x": -1.2468824929,
				"y": -1.1662389557,
				"z": 1.0740927057,
				"element": "H" 
			},
			{
				"x": 0.6203630769,
				"y": -2.1203762326,
				"z": 2.436310968,
				"element": "H" 
			},
			{
				"x": 2.9043832644,
				"y": -1.10983346,
				"z": 2.1845223526,
				"element": "H" 
			},
			{
				"x": 3.6401179424,
				"y": 1.6731282572,
				"z": -0.1751438647,
				"element": "H" 
			},
			{
				"x": 3.3976769177,
				"y": 3.036737058,
				"z": -1.2372445338,
				"element": "H" 
			},
			{
				"x": 0.7879245075,
				"y": 4.199086886,
				"z": -2.4997171033,
				"element": "H" 
			}
		],
		 "valence_orbital": [ 
			{
				"type": "occ",
				"energy": -0.28021,
				"method": "rhf"
			},
			{
				"type": "occ",
				"energy": -0.27029,
				"method": "rhf"
			},
			{
				"type": "occ",
				"energy": -0.2604,
				"method": "rhf"
			},
			{
				"type": "occ",
				"energy": -0.25341,
				"method": "rhf"
			},
			{
				"type": "occ",
				"energy": -0.20304,
				"method": "rhf"
			},
			{
				"type": "unocc",
				"energy": -0.03618,
				"method": "rhf"
			},
			{
				"type": "unocc",
				"energy": -0.01592,
				"method": "rhf"
			},
			{
				"type": "unocc",
				"energy": 0.07153,
				"method": "rhf"
			},
			{
				"type": "unocc",
				"energy": 0.07792,
				"method": "rhf"
			},
			{
				"type": "unocc",
				"energy": 0.09788,
				"method": "rhf"
			}
		],
		"cosmo_sigma_profile": { 
			"-0.025": 0.0,
			"-0.024": 0.0,
			"-0.023": 0.0,
			"-0.022": 0.0,
			"-0.021": 0.0,
			"-0.02": 0.0,
			"-0.019": 0.0,
			"-0.018": 0.0,
			"-0.017": 0.332060064848,
			"-0.016": 0.918960056831,
			"-0.015": 0.817151377432,
			"-0.014": 1.31712991963,
			"-0.013": 0.353661256445,
			"-0.012": 0.93176896079,
			"-0.011": 1.49102698618,
			"-0.01": 1.10913583372,
			"-0.009": 2.39430097368,
			"-0.008": 2.56431562059,
			"-0.007": 6.02628632166,
			"-0.006": 10.0015170972,
			"-0.005": 9.64951089444,
			"-0.004": 9.14161459345,
			"-0.003": 10.5530284829,
			"-0.002": 9.92368199534,
			"-0.001": 12.2156864185,
			"0.0": 16.2005684251,
			"0.001": 17.5548079849,
			"0.002": 19.1035574596,
			"0.003": 11.2939643819,
			"0.004": 5.63706683493,
			"0.005": 6.76506637309,
			"0.006": 6.22758221398,
			"0.007": 7.96030348073,
			"0.008": 7.145748477,
			"0.009": 5.26679454481,
			"0.01": 2.57911798571,
			"0.011": 1.33397644005,
			"0.012": 0.311708679635,
			"0.013": 0.0,
			"0.014": 0.0,
			"0.015": 0.0,
			"0.016": 0.0,
			"0.017": 0.0,
			"0.018": 0.0,
			"0.019": 0.0,
			"0.02": 0.0,
			"0.021": 0.0,
			"0.022": 0.0,
			"0.023": 0.0,
			"0.024": 0.0,
			"0.025": 0.0
		}
	}
}
