{
	 "smiles": "NC1=CC=C(C=C1)C(=O)NC1CCCC1", 
	 "Tm": 415.15, 
	 "num_atms": 31, 
	 "gaussian": { 
		 "optdone": 1, 
		 "sigma_profile": "yes", 
		 "theory": "DFT", 
		 "functional": "B3LYP", 
		 "basiset": "6-31G**", 
		 "properties": { 
			 "R2extent": 5200.1838, 
			 "electric_dipole_moment_norm": 4.01974596834, 
			 "electric_quadrupole_moment_norm": 25.7015637867, 
			 "total_energy": -651.671061526, 
			 "HOMO_LUMO_gap": 0.19211, 
			 "cosmo_polarized_energy": -16.23, 
			 "cosmo_cavitation_energy": 32.94, 
			 "cosmo_dispersion_energy": -23.79, 
			 "cosmo_repulsion_energy": 1.89, 
			 "cosmo_total_nonelectrostatic_energy": 11.03, 
			 "SMD_solvation_energy": 5.11 
		},
		"coords": [
			{
				"x": -3.0660240743,
				"y": 0.8124666998,
				"z": 1.5669336941,
				"element": "N" 
			},
			{
				"x": -2.2357269879,
				"y": 0.1541697114,
				"z": 0.6665579898,
				"element": "C" 
			},
			{
				"x": -2.6151435696,
				"y": -0.0011642004,
				"z": -0.6809132316,
				"element": "C" 
			},
			{
				"x": -1.7635853349,
				"y": -0.6169900846,
				"z": -1.5860365825,
				"element": "C" 
			},
			{
				"x": -0.4944894635,
				"y": -1.0743605859,
				"z": -1.1977521473,
				"element": "C" 
			},
			{
				"x": -0.1251676923,
				"y": -0.9316329575,
				"z": 0.1482368239,
				"element": "C" 
			},
			{
				"x": -0.9787568828,
				"y": -0.3324872431,
				"z": 1.0683858505,
				"element": "C" 
			},
			{
				"x": 0.3299651039,
				"y": -1.78370635,
				"z": -2.2246096603,
				"element": "C" 
			},
			{
				"x": -0.2023350781,
				"y": -2.4312680378,
				"z": -3.1251228132,
				"element": "O" 
			},
			{
				"x": 1.7079286351,
				"y": -1.7424315659,
				"z": -2.1234831519,
				"element": "N" 
			},
			{
				"x": 2.5430399163,
				"y": -0.6532633224,
				"z": -1.600232153,
				"element": "C" 
			},
			{
				"x": 3.6297569483,
				"y": -1.1738414489,
				"z": -0.6368173649,
				"element": "C" 
			},
			{
				"x": 4.7200854349,
				"y": -1.7490007263,
				"z": -1.5669618261,
				"element": "C" 
			},
			{
				"x": 4.6433698692,
				"y": -0.8990238637,
				"z": -2.8716469326,
				"element": "C" 
			},
			{
				"x": 3.387547978,
				"y": 0.0022041855,
				"z": -2.7176692734,
				"element": "C" 
			},
			{
				"x": -4.047129278,
				"y": 0.8317312412,
				"z": 1.3268757898,
				"element": "H" 
			},
			{
				"x": -2.9099919019,
				"y": 0.6052276692,
				"z": 2.5432380181,
				"element": "H" 
			},
			{
				"x": -3.5872602688,
				"y": 0.3605244402,
				"z": -1.0073015668,
				"element": "H" 
			},
			{
				"x": -2.0701579195,
				"y": -0.7649851966,
				"z": -2.6162676363,
				"element": "H" 
			},
			{
				"x": 0.8262588487,
				"y": -1.3234542185,
				"z": 0.4934922169,
				"element": "H" 
			},
			{
				"x": -0.677470983,
				"y": -0.2428641963,
				"z": 2.109286054,
				"element": "H" 
			},
			{
				"x": 2.1188632836,
				"y": -2.2849320931,
				"z": -2.8752254244,
				"element": "H" 
			},
			{
				"x": 1.8803191694,
				"y": 0.0699709935,
				"z": -1.1243036817,
				"element": "H" 
			},
			{
				"x": 3.2418751408,
				"y": -1.9076177575,
				"z": 0.0755068622,
				"element": "H" 
			},
			{
				"x": 4.028577257,
				"y": -0.3273073363,
				"z": -0.0639478884,
				"element": "H" 
			},
			{
				"x": 4.5054191923,
				"y": -2.8008322341,
				"z": -1.7852226843,
				"element": "H" 
			},
			{
				"x": 5.7118724479,
				"y": -1.7216218805,
				"z": -1.1066093258,
				"element": "H" 
			},
			{
				"x": 4.5633035979,
				"y": -1.5451492134,
				"z": -3.7521440323,
				"element": "H" 
			},
			{
				"x": 5.5433755085,
				"y": -0.2943447079,
				"z": -3.0167383936,
				"element": "H" 
			},
			{
				"x": 2.8202601064,
				"y": 0.1224712023,
				"z": -3.6451143508,
				"element": "H" 
			},
			{
				"x": 3.6829209963,
				"y": 1.0041130776,
				"z": -2.3861931778,
				"element": "H" 
			}
		],
		 "valence_orbital": [ 
			{
				"type": "occ",
				"energy": -0.30522,
				"method": "rhf"
			},
			{
				"type": "occ",
				"energy": -0.25044,
				"method": "rhf"
			},
			{
				"type": "occ",
				"energy": -0.24295,
				"method": "rhf"
			},
			{
				"type": "occ",
				"energy": -0.2277,
				"method": "rhf"
			},
			{
				"type": "occ",
				"energy": -0.20499,
				"method": "rhf"
			},
			{
				"type": "unocc",
				"energy": -0.01288,
				"method": "rhf"
			},
			{
				"type": "unocc",
				"energy": 0.00053,
				"method": "rhf"
			},
			{
				"type": "unocc",
				"energy": 0.06703,
				"method": "rhf"
			},
			{
				"type": "unocc",
				"energy": 0.06918,
				"method": "rhf"
			},
			{
				"type": "unocc",
				"energy": 0.07979,
				"method": "rhf"
			}
		],
		"cosmo_sigma_profile": { 
			"-0.025": 0.0,
			"-0.024": 0.0,
			"-0.023": 0.0,
			"-0.022": 0.0,
			"-0.021": 0.0,
			"-0.02": 0.0,
			"-0.019": 0.0,
			"-0.018": 0.0,
			"-0.017": 0.0,
			"-0.016": 0.0,
			"-0.015": 0.0,
			"-0.014": 0.0,
			"-0.013": 1.31419969873,
			"-0.012": 2.74965616264,
			"-0.011": 2.79051291293,
			"-0.01": 4.63393983356,
			"-0.009": 4.39891086362,
			"-0.008": 3.98761241579,
			"-0.007": 4.5853866059,
			"-0.006": 5.08725999013,
			"-0.005": 8.7080809729,
			"-0.004": 13.7934308619,
			"-0.003": 26.8553534045,
			"-0.002": 27.8810198827,
			"-0.001": 27.7324406604,
			"0.0": 24.2490066526,
			"0.001": 22.1977320669,
			"0.002": 12.3389124643,
			"0.003": 8.43625556065,
			"0.004": 8.7994409059,
			"0.005": 13.1685190238,
			"0.006": 9.12070304247,
			"0.007": 2.37872403387,
			"0.008": 1.78450954236,
			"0.009": 3.25924783187,
			"0.01": 1.69926611206,
			"0.011": 2.00572457422,
			"0.012": 2.12124074047,
			"0.013": 3.13958883484,
			"0.014": 5.51976800012,
			"0.015": 3.29888237035,
			"0.016": 0.0402957704557,
			"0.017": 0.0,
			"0.018": 0.0,
			"0.019": 0.0,
			"0.02": 0.0,
			"0.021": 0.0,
			"0.022": 0.0,
			"0.023": 0.0,
			"0.024": 0.0,
			"0.025": 0.0
		}
	}
}
