{
	 "smiles": "CC1=NSC=C1C(O)=O", 
	 "Tm": 493.15, 
	 "num_atms": 14, 
	 "gaussian": { 
		 "optdone": 1, 
		 "sigma_profile": "yes", 
		 "theory": "DFT", 
		 "functional": "B3LYP", 
		 "basiset": "6-31G**", 
		 "properties": { 
			 "R2extent": 1472.8463, 
			 "electric_dipole_moment_norm": 1.17343780832, 
			 "electric_quadrupole_moment_norm": 10.3249544188, 
			 "total_energy": -796.934249111, 
			 "HOMO_LUMO_gap": 0.21116, 
			 "cosmo_polarized_energy": -9.79, 
			 "cosmo_cavitation_energy": 20.26, 
			 "cosmo_dispersion_energy": -15.7, 
			 "cosmo_repulsion_energy": 1.24, 
			 "cosmo_total_nonelectrostatic_energy": 5.8, 
			 "SMD_solvation_energy": 3.64 
		},
		"coords": [
			{
				"x": -0.7488897291,
				"y": -0.9941978337,
				"z": -1.8211923101,
				"element": "C" 
			},
			{
				"x": 0.0048835594,
				"y": 0.0886121333,
				"z": -1.1009678338,
				"element": "C" 
			},
			{
				"x": -0.0576751828,
				"y": 1.315517369,
				"z": -1.5820617985,
				"element": "N" 
			},
			{
				"x": 0.8558070834,
				"y": 2.3544743682,
				"z": -0.6215863041,
				"element": "S" 
			},
			{
				"x": 1.3517734961,
				"y": 1.1401941602,
				"z": 0.4687784597,
				"element": "C" 
			},
			{
				"x": 0.8110087271,
				"y": -0.0672029662,
				"z": 0.0897663381,
				"element": "C" 
			},
			{
				"x": 1.0941219446,
				"y": -1.2832084221,
				"z": 0.879742939,
				"element": "C" 
			},
			{
				"x": 0.4950935608,
				"y": -2.3960136337,
				"z": 0.3877054319,
				"element": "O" 
			},
			{
				"x": 1.7912385354,
				"y": -1.3101147687,
				"z": 1.8747078466,
				"element": "O" 
			},
			{
				"x": -1.4829547169,
				"y": -1.4653673041,
				"z": -1.1613615492,
				"element": "H" 
			},
			{
				"x": -1.2595475341,
				"y": -0.5611249112,
				"z": -2.6823066072,
				"element": "H" 
			},
			{
				"x": -0.0720912346,
				"y": -1.7843908886,
				"z": -2.1585012089,
				"element": "H" 
			},
			{
				"x": 1.9938366056,
				"y": 1.3145564443,
				"z": 1.3217550861,
				"element": "H" 
			},
			{
				"x": 0.753794885,
				"y": -3.1181337467,
				"z": 0.9848215104,
				"element": "H" 
			}
		],
		 "valence_orbital": [ 
			{
				"type": "occ",
				"energy": -0.32796,
				"method": "rhf"
			},
			{
				"type": "occ",
				"energy": -0.30927,
				"method": "rhf"
			},
			{
				"type": "occ",
				"energy": -0.28093,
				"method": "rhf"
			},
			{
				"type": "occ",
				"energy": -0.27863,
				"method": "rhf"
			},
			{
				"type": "occ",
				"energy": -0.26736,
				"method": "rhf"
			},
			{
				"type": "unocc",
				"energy": -0.0562,
				"method": "rhf"
			},
			{
				"type": "unocc",
				"energy": -0.01052,
				"method": "rhf"
			},
			{
				"type": "unocc",
				"energy": 0.00515,
				"method": "rhf"
			},
			{
				"type": "unocc",
				"energy": 0.07262,
				"method": "rhf"
			},
			{
				"type": "unocc",
				"energy": 0.08378,
				"method": "rhf"
			}
		],
		"cosmo_sigma_profile": { 
			"-0.025": 0.0,
			"-0.024": 0.0,
			"-0.023": 0.0,
			"-0.022": 0.0,
			"-0.021": 0.0,
			"-0.02": 0.0,
			"-0.019": 0.109542254,
			"-0.018": 0.72435677617,
			"-0.017": 0.910536155312,
			"-0.016": 1.00956714534,
			"-0.015": 0.574494105007,
			"-0.014": 0.815405762602,
			"-0.013": 0.952189670167,
			"-0.012": 0.450030048331,
			"-0.011": 0.973072062134,
			"-0.01": 2.71554872158,
			"-0.009": 2.58327873428,
			"-0.008": 1.76069026468,
			"-0.007": 2.48330022034,
			"-0.006": 3.20694009753,
			"-0.005": 5.71900090645,
			"-0.004": 7.41003578584,
			"-0.003": 12.3190997569,
			"-0.002": 14.3382588415,
			"-0.001": 21.4275243745,
			"0.0": 20.1958053913,
			"0.001": 12.7149343608,
			"0.002": 9.76950971134,
			"0.003": 5.49599610067,
			"0.004": 5.21793601556,
			"0.005": 4.77910485008,
			"0.006": 3.52689727567,
			"0.007": 2.44109725126,
			"0.008": 2.6237249232,
			"0.009": 2.72917442465,
			"0.01": 2.71560094778,
			"0.011": 4.92822856741,
			"0.012": 4.37865480167,
			"0.013": 1.19753800671,
			"0.014": 0.947328628843,
			"0.015": 0.128668982334,
			"0.016": 0.0,
			"0.017": 0.0,
			"0.018": 0.0,
			"0.019": 0.0,
			"0.02": 0.0,
			"0.021": 0.0,
			"0.022": 0.0,
			"0.023": 0.0,
			"0.024": 0.0,
			"0.025": 0.0
		}
	}
}
