{
	 "smiles": "ClC1=CC2=C(N1)N=CN=C2Cl", 
	 "Tm": 513.15, 
	 "num_atms": 14, 
	 "gaussian": { 
		 "optdone": 1, 
		 "sigma_profile": "yes", 
		 "theory": "DFT", 
		 "functional": "B3LYP", 
		 "basiset": "6-31G**", 
		 "properties": { 
			 "R2extent": 2528.8335, 
			 "electric_dipole_moment_norm": 3.14125838638, 
			 "electric_quadrupole_moment_norm": 4.41910579077, 
			 "total_energy": -1315.08289315, 
			 "HOMO_LUMO_gap": 0.18591, 
			 "cosmo_polarized_energy": -9.54, 
			 "cosmo_cavitation_energy": 22.71, 
			 "cosmo_dispersion_energy": -17.53, 
			 "cosmo_repulsion_energy": 1.41, 
			 "cosmo_total_nonelectrostatic_energy": 6.59, 
			 "SMD_solvation_energy": 0.18 
		},
		"coords": [
			{
				"x": -0.6042966685,
				"y": -1.2134965214,
				"z": 3.3031972916,
				"element": "Cl" 
			},
			{
				"x": -0.6228584531,
				"y": -0.5636265756,
				"z": 1.7082762119,
				"element": "C" 
			},
			{
				"x": 0.15835172,
				"y": 0.4202228652,
				"z": 1.163862877,
				"element": "C" 
			},
			{
				"x": -0.2880900712,
				"y": 0.5551187337,
				"z": -0.1897122549,
				"element": "C" 
			},
			{
				"x": -1.3418955913,
				"y": -0.3775453138,
				"z": -0.3977023998,
				"element": "C" 
			},
			{
				"x": -1.5287771669,
				"y": -1.0521688493,
				"z": 0.7815738556,
				"element": "N" 
			},
			{
				"x": -2.0197696288,
				"y": -0.5597257986,
				"z": -1.5291264818,
				"element": "N" 
			},
			{
				"x": -1.6156944077,
				"y": 0.2434498562,
				"z": -2.5137709117,
				"element": "C" 
			},
			{
				"x": -0.6367947885,
				"y": 1.16981686,
				"z": -2.4636891613,
				"element": "N" 
			},
			{
				"x": 0.0086746411,
				"y": 1.3172980338,
				"z": -1.3240477942,
				"element": "C" 
			},
			{
				"x": 1.2834330318,
				"y": 2.521292391,
				"z": -1.2540211228,
				"element": "Cl" 
			},
			{
				"x": 0.9413081708,
				"y": 0.9686963899,
				"z": 1.6631836644,
				"element": "H" 
			},
			{
				"x": -2.210415258,
				"y": -1.7786229893,
				"z": 0.9413312191,
				"element": "H" 
			},
			{
				"x": -2.1285755296,
				"y": 0.1463909181,
				"z": -3.4666549931,
				"element": "H" 
			}
		],
		 "valence_orbital": [ 
			{
				"type": "occ",
				"energy": -0.31692,
				"method": "rhf"
			},
			{
				"type": "occ",
				"energy": -0.30744,
				"method": "rhf"
			},
			{
				"type": "occ",
				"energy": -0.28329,
				"method": "rhf"
			},
			{
				"type": "occ",
				"energy": -0.2741,
				"method": "rhf"
			},
			{
				"type": "occ",
				"energy": -0.24067,
				"method": "rhf"
			},
			{
				"type": "unocc",
				"energy": -0.05476,
				"method": "rhf"
			},
			{
				"type": "unocc",
				"energy": -0.01885,
				"method": "rhf"
			},
			{
				"type": "unocc",
				"energy": 0.01089,
				"method": "rhf"
			},
			{
				"type": "unocc",
				"energy": 0.02865,
				"method": "rhf"
			},
			{
				"type": "unocc",
				"energy": 0.03076,
				"method": "rhf"
			}
		],
		"cosmo_sigma_profile": { 
			"-0.025": 0.0,
			"-0.024": 0.0,
			"-0.023": 0.0,
			"-0.022": 0.0,
			"-0.021": 0.0,
			"-0.02": 0.0,
			"-0.019": 0.0,
			"-0.018": 0.475029127928,
			"-0.017": 1.36706494193,
			"-0.016": 1.21249901372,
			"-0.015": 0.688287733402,
			"-0.014": 1.00292550132,
			"-0.013": 0.670268077268,
			"-0.012": 1.75290972198,
			"-0.011": 0.611551289005,
			"-0.01": 1.02297054988,
			"-0.009": 1.3387868594,
			"-0.008": 3.53844498447,
			"-0.007": 4.87594737904,
			"-0.006": 3.35764443547,
			"-0.005": 4.7293181079,
			"-0.004": 5.51742337103,
			"-0.003": 9.52876035714,
			"-0.002": 15.4335730748,
			"-0.001": 23.6554114936,
			"0.0": 21.2270026086,
			"0.001": 17.5309143226,
			"0.002": 19.2820761472,
			"0.003": 18.5489028773,
			"0.004": 8.3963905878,
			"0.005": 4.25833672115,
			"0.006": 2.894795957,
			"0.007": 3.59473432946,
			"0.008": 2.01347880937,
			"0.009": 1.72508723061,
			"0.01": 1.80963386377,
			"0.011": 1.90836887898,
			"0.012": 1.98401339724,
			"0.013": 1.32462906455,
			"0.014": 1.31214819422,
			"0.015": 0.141964283973,
			"0.016": 0.0,
			"0.017": 0.0,
			"0.018": 0.0,
			"0.019": 0.0,
			"0.02": 0.0,
			"0.021": 0.0,
			"0.022": 0.0,
			"0.023": 0.0,
			"0.024": 0.0,
			"0.025": 0.0
		}
	}
}
