{
	 "smiles": "CCC[N+]([O-])=O", 
	 "Tm": 165.15, 
	 "num_atms": 13, 
	 "gaussian": { 
		 "optdone": 1, 
		 "sigma_profile": "yes", 
		 "theory": "DFT", 
		 "functional": "B3LYP", 
		 "basiset": "6-31G**", 
		 "properties": { 
			 "R2extent": 708.1456, 
			 "electric_dipole_moment_norm": 3.56520622124, 
			 "electric_quadrupole_moment_norm": 6.42419548893, 
			 "total_energy": -323.645486733, 
			 "HOMO_LUMO_gap": 0.22592, 
			 "cosmo_polarized_energy": -7.56, 
			 "cosmo_cavitation_energy": 16.65, 
			 "cosmo_dispersion_energy": -12.17, 
			 "cosmo_repulsion_energy": 1.08, 
			 "cosmo_total_nonelectrostatic_energy": 5.56, 
			 "SMD_solvation_energy": 5.07 
		},
		"coords": [
			{
				"x": 0.7137119858,
				"y": -1.3140960344,
				"z": 0.2888497663,
				"element": "C" 
			},
			{
				"x": -0.7235891541,
				"y": -1.0529889254,
				"z": 0.749699308,
				"element": "C" 
			},
			{
				"x": -1.0319011892,
				"y": 0.4173719864,
				"z": 0.9974033209,
				"element": "C" 
			},
			{
				"x": -0.9929661148,
				"y": 1.2546653876,
				"z": -0.2665115486,
				"element": "N" 
			},
			{
				"x": -1.284119301,
				"y": 0.7083654735,
				"z": -1.3263704948,
				"element": "O" 
			},
			{
				"x": -0.7056238219,
				"y": 2.4390157538,
				"z": -0.1307794485,
				"element": "O" 
			},
			{
				"x": 1.4414621029,
				"y": -0.938024367,
				"z": 1.0165761683,
				"element": "H" 
			},
			{
				"x": 0.8895019943,
				"y": -2.3865434603,
				"z": 0.1647227829,
				"element": "H" 
			},
			{
				"x": 0.9109641525,
				"y": -0.8321295219,
				"z": -0.6729880656,
				"element": "H" 
			},
			{
				"x": -1.4351158632,
				"y": -1.44152526,
				"z": 0.015691021,
				"element": "H" 
			},
			{
				"x": -0.9180020297,
				"y": -1.5777274664,
				"z": 1.6931560006,
				"element": "H" 
			},
			{
				"x": -0.3286808241,
				"y": 0.9012664569,
				"z": 1.6769032772,
				"element": "H" 
			},
			{
				"x": -2.0451419374,
				"y": 0.5615499772,
				"z": 1.3856479123,
				"element": "H" 
			}
		],
		 "valence_orbital": [ 
			{
				"type": "occ",
				"energy": -0.36995,
				"method": "rhf"
			},
			{
				"type": "occ",
				"energy": -0.35961,
				"method": "rhf"
			},
			{
				"type": "occ",
				"energy": -0.31135,
				"method": "rhf"
			},
			{
				"type": "occ",
				"energy": -0.30048,
				"method": "rhf"
			},
			{
				"type": "occ",
				"energy": -0.29103,
				"method": "rhf"
			},
			{
				"type": "unocc",
				"energy": -0.06511,
				"method": "rhf"
			},
			{
				"type": "unocc",
				"energy": 0.07934,
				"method": "rhf"
			},
			{
				"type": "unocc",
				"energy": 0.11316,
				"method": "rhf"
			},
			{
				"type": "unocc",
				"energy": 0.12416,
				"method": "rhf"
			},
			{
				"type": "unocc",
				"energy": 0.12965,
				"method": "rhf"
			}
		],
		"cosmo_sigma_profile": { 
			"-0.025": 0.0,
			"-0.024": 0.0,
			"-0.023": 0.0,
			"-0.022": 0.0,
			"-0.021": 0.0,
			"-0.02": 0.0,
			"-0.019": 0.0,
			"-0.018": 0.0,
			"-0.017": 0.0,
			"-0.016": 0.0,
			"-0.015": 0.0,
			"-0.014": 0.0,
			"-0.013": 0.0,
			"-0.012": 0.0,
			"-0.011": 0.0,
			"-0.01": 0.7416048865,
			"-0.009": 2.25834701603,
			"-0.008": 3.04154726001,
			"-0.007": 4.57392512234,
			"-0.006": 5.91034470216,
			"-0.005": 9.68630080752,
			"-0.004": 10.3085263958,
			"-0.003": 12.6055521086,
			"-0.002": 11.2054494245,
			"-0.001": 12.0477061414,
			"0.0": 9.50351230797,
			"0.001": 8.02604358994,
			"0.002": 2.43148134513,
			"0.003": 3.03799228263,
			"0.004": 2.23887917568,
			"0.005": 3.17964598746,
			"0.006": 3.54166437214,
			"0.007": 6.23203616126,
			"0.008": 10.8735113153,
			"0.009": 5.62277233363,
			"0.01": 2.86447723148,
			"0.011": 0.226087096393,
			"0.012": 0.0,
			"0.013": 0.0,
			"0.014": 0.0,
			"0.015": 0.0,
			"0.016": 0.0,
			"0.017": 0.0,
			"0.018": 0.0,
			"0.019": 0.0,
			"0.02": 0.0,
			"0.021": 0.0,
			"0.022": 0.0,
			"0.023": 0.0,
			"0.024": 0.0,
			"0.025": 0.0
		}
	}
}
