{
	 "smiles": "CC1=C2C=C(NC2=CC(F)=C1)C(O)=O", 
	 "Tm": 535.15, 
	 "num_atms": 22, 
	 "gaussian": { 
		 "optdone": 1, 
		 "sigma_profile": "yes", 
		 "theory": "DFT", 
		 "functional": "B3LYP", 
		 "basiset": "6-31G**", 
		 "properties": { 
			 "R2extent": 4182.609, 
			 "electric_dipole_moment_norm": 3.434078016, 
			 "electric_quadrupole_moment_norm": 20.6326650705, 
			 "total_energy": -690.942824733, 
			 "HOMO_LUMO_gap": 0.16545, 
			 "cosmo_polarized_energy": -15.33, 
			 "cosmo_cavitation_energy": 27.13, 
			 "cosmo_dispersion_energy": -19.94, 
			 "cosmo_repulsion_energy": 1.53, 
			 "cosmo_total_nonelectrostatic_energy": 8.72, 
			 "SMD_solvation_energy": 6.03 
		},
		"coords": [
			{
				"x": -1.3497742169,
				"y": -0.9034875843,
				"z": -1.6856231261,
				"element": "C" 
			},
			{
				"x": -0.433802897,
				"y": -1.3521016949,
				"z": -0.5720927984,
				"element": "C" 
			},
			{
				"x": 0.8411521819,
				"y": -0.7701204019,
				"z": -0.3734717384,
				"element": "C" 
			},
			{
				"x": 1.571379278,
				"y": 0.2627605161,
				"z": -1.0435165849,
				"element": "C" 
			},
			{
				"x": 2.7798603726,
				"y": 0.3994698214,
				"z": -0.3905986082,
				"element": "C" 
			},
			{
				"x": 2.831437084,
				"y": -0.5033926509,
				"z": 0.6553900158,
				"element": "N" 
			},
			{
				"x": 1.6725273573,
				"y": -1.229280157,
				"z": 0.6955208454,
				"element": "C" 
			},
			{
				"x": 1.2795271025,
				"y": -2.2475333047,
				"z": 1.5739623094,
				"element": "C" 
			},
			{
				"x": 0.0281696962,
				"y": -2.7829079578,
				"z": 1.3388195869,
				"element": "C" 
			},
			{
				"x": -0.4148360016,
				"y": -3.7689589165,
				"z": 2.1477883665,
				"element": "F" 
			},
			{
				"x": -0.8208446873,
				"y": -2.3619659918,
				"z": 0.3009083145,
				"element": "C" 
			},
			{
				"x": 3.9501628777,
				"y": 1.2699275006,
				"z": -0.5852504652,
				"element": "C" 
			},
			{
				"x": 3.9013748975,
				"y": 2.1552030799,
				"z": -1.6104876258,
				"element": "O" 
			},
			{
				"x": 4.925491243,
				"y": 1.2087375941,
				"z": 0.1343642735,
				"element": "O" 
			},
			{
				"x": -2.3001873802,
				"y": -0.5310507625,
				"z": -1.28781887,
				"element": "H" 
			},
			{
				"x": -0.9062898107,
				"y": -0.1052412766,
				"z": -2.2847364225,
				"element": "H" 
			},
			{
				"x": -1.5848987083,
				"y": -1.7336604569,
				"z": -2.360727679,
				"element": "H" 
			},
			{
				"x": 1.2344417168,
				"y": 0.8284682519,
				"z": -1.9019498258,
				"element": "H" 
			},
			{
				"x": 3.6341070266,
				"y": -0.568910254,
				"z": 1.2641132027,
				"element": "H" 
			},
			{
				"x": 1.8979012237,
				"y": -2.6062698791,
				"z": 2.3883238562,
				"element": "H" 
			},
			{
				"x": -1.7860843089,
				"y": -2.8482738426,
				"z": 0.2017006861,
				"element": "H" 
			},
			{
				"x": 3.0616859529,
				"y": 2.0777883674,
				"z": -2.0847177126,
				"element": "H" 
			}
		],
		 "valence_orbital": [ 
			{
				"type": "occ",
				"energy": -0.31808,
				"method": "rhf"
			},
			{
				"type": "occ",
				"energy": -0.29354,
				"method": "rhf"
			},
			{
				"type": "occ",
				"energy": -0.28344,
				"method": "rhf"
			},
			{
				"type": "occ",
				"energy": -0.23759,
				"method": "rhf"
			},
			{
				"type": "occ",
				"energy": -0.2206,
				"method": "rhf"
			},
			{
				"type": "unocc",
				"energy": -0.05515,
				"method": "rhf"
			},
			{
				"type": "unocc",
				"energy": 0.00041,
				"method": "rhf"
			},
			{
				"type": "unocc",
				"energy": 0.02424,
				"method": "rhf"
			},
			{
				"type": "unocc",
				"energy": 0.04767,
				"method": "rhf"
			},
			{
				"type": "unocc",
				"energy": 0.08476,
				"method": "rhf"
			}
		],
		"cosmo_sigma_profile": { 
			"-0.025": 0.0,
			"-0.024": 0.0,
			"-0.023": 0.0,
			"-0.022": 0.0,
			"-0.021": 0.0,
			"-0.02": 0.0,
			"-0.019": 0.265184892671,
			"-0.018": 1.00214152245,
			"-0.017": 1.23886379065,
			"-0.016": 0.936388557964,
			"-0.015": 2.11185899031,
			"-0.014": 1.26522766334,
			"-0.013": 1.71062381965,
			"-0.012": 2.4641392382,
			"-0.011": 2.39393776273,
			"-0.01": 2.28426992975,
			"-0.009": 1.95707670577,
			"-0.008": 3.60090474918,
			"-0.007": 6.16070618158,
			"-0.006": 6.249820828,
			"-0.005": 7.15857818159,
			"-0.004": 11.3279424528,
			"-0.003": 12.6995628966,
			"-0.002": 13.038317901,
			"-0.001": 15.9123975185,
			"0.0": 14.2916707533,
			"0.001": 14.5347743166,
			"0.002": 16.8337686718,
			"0.003": 22.3322153723,
			"0.004": 21.6685464248,
			"0.005": 7.99657028518,
			"0.006": 2.36452073071,
			"0.007": 2.37726693499,
			"0.008": 2.6112422316,
			"0.009": 2.94183528835,
			"0.01": 5.18473623319,
			"0.011": 4.65005138465,
			"0.012": 3.65785683095,
			"0.013": 1.82676359333,
			"0.014": 0.151414756591,
			"0.015": 0.0,
			"0.016": 0.0,
			"0.017": 0.0,
			"0.018": 0.0,
			"0.019": 0.0,
			"0.02": 0.0,
			"0.021": 0.0,
			"0.022": 0.0,
			"0.023": 0.0,
			"0.024": 0.0,
			"0.025": 0.0
		}
	}
}
