{
	 "smiles": "OC(=O)C1=CC=CC=C1C1=CC=CC=C1C=O", 
	 "Tm": 403.15, 
	 "num_atms": 27, 
	 "gaussian": { 
		 "optdone": 1, 
		 "sigma_profile": "yes", 
		 "theory": "DFT", 
		 "functional": "B3LYP", 
		 "basiset": "6-31G**", 
		 "properties": { 
			 "R2extent": 4133.0802, 
			 "electric_dipole_moment_norm": 2.77875592667, 
			 "electric_quadrupole_moment_norm": 20.7884561849, 
			 "total_energy": -765.194889996, 
			 "HOMO_LUMO_gap": 0.18014, 
			 "cosmo_polarized_energy": -14.08, 
			 "cosmo_cavitation_energy": 32.18, 
			 "cosmo_dispersion_energy": -22.19, 
			 "cosmo_repulsion_energy": 1.73, 
			 "cosmo_total_nonelectrostatic_energy": 11.73, 
			 "SMD_solvation_energy": 7.72 
		},
		"coords": [
			{
				"x": 0.1563662909,
				"y": 2.6884729707,
				"z": -0.2048872047,
				"element": "O" 
			},
			{
				"x": 1.4636266949,
				"y": 2.7829901391,
				"z": 0.125291791,
				"element": "C" 
			},
			{
				"x": 1.9606894555,
				"y": 3.8331118509,
				"z": 0.4837299681,
				"element": "O" 
			},
			{
				"x": 2.2313434506,
				"y": 1.5104158112,
				"z": -0.0369606871,
				"element": "C" 
			},
			{
				"x": 3.6251412773,
				"y": 1.663492332,
				"z": -0.1095890875,
				"element": "C" 
			},
			{
				"x": 4.4593901706,
				"y": 0.570000749,
				"z": -0.3115082515,
				"element": "C" 
			},
			{
				"x": 3.9013965272,
				"y": -0.7030163926,
				"z": -0.4373064403,
				"element": "C" 
			},
			{
				"x": 2.5205617999,
				"y": -0.8692314695,
				"z": -0.3459989878,
				"element": "C" 
			},
			{
				"x": 1.6596204675,
				"y": 0.2214742218,
				"z": -0.1434194873,
				"element": "C" 
			},
			{
				"x": 0.2030989974,
				"y": -0.0773929445,
				"z": 0.0487117159,
				"element": "C" 
			},
			{
				"x": -0.3219966546,
				"y": -0.0632932697,
				"z": 1.3483715425,
				"element": "C" 
			},
			{
				"x": -1.6477708399,
				"y": -0.4193898587,
				"z": 1.5887336911,
				"element": "C" 
			},
			{
				"x": -2.4793523954,
				"y": -0.8013251181,
				"z": 0.5305151713,
				"element": "C" 
			},
			{
				"x": -1.9734155192,
				"y": -0.8180422577,
				"z": -0.7626915883,
				"element": "C" 
			},
			{
				"x": -0.6398570706,
				"y": -0.4584129173,
				"z": -1.0164334793,
				"element": "C" 
			},
			{
				"x": -0.1730440494,
				"y": -0.4494359222,
				"z": -2.4255764162,
				"element": "C" 
			},
			{
				"x": -0.8564903634,
				"y": -0.8074399686,
				"z": -3.368420113,
				"element": "O" 
			},
			{
				"x": -0.2151701899,
				"y": 3.5761065717,
				"z": -0.0674860087,
				"element": "H" 
			},
			{
				"x": 4.0288847205,
				"y": 2.6651345145,
				"z": -0.0111574524,
				"element": "H" 
			},
			{
				"x": 5.5342892735,
				"y": 0.7091171267,
				"z": -0.3727224813,
				"element": "H" 
			},
			{
				"x": 4.5380996511,
				"y": -1.5683536468,
				"z": -0.5969449761,
				"element": "H" 
			},
			{
				"x": 2.0908217196,
				"y": -1.8639870858,
				"z": -0.4168004028,
				"element": "H" 
			},
			{
				"x": 0.3221826209,
				"y": 0.2202049706,
				"z": 2.1755828116,
				"element": "H" 
			},
			{
				"x": -2.0314534046,
				"y": -0.4040497792,
				"z": 2.6050162848,
				"element": "H" 
			},
			{
				"x": -3.5114965554,
				"y": -1.081122367,
				"z": 0.7192309134,
				"element": "H" 
			},
			{
				"x": -2.5892999799,
				"y": -1.1006646265,
				"z": -1.6106178518,
				"element": "H" 
			},
			{
				"x": 0.858733905,
				"y": -0.0791636343,
				"z": -2.5849629738,
				"element": "H" 
			}
		],
		 "valence_orbital": [ 
			{
				"type": "occ",
				"energy": -0.27559,
				"method": "rhf"
			},
			{
				"type": "occ",
				"energy": -0.26928,
				"method": "rhf"
			},
			{
				"type": "occ",
				"energy": -0.26188,
				"method": "rhf"
			},
			{
				"type": "occ",
				"energy": -0.25717,
				"method": "rhf"
			},
			{
				"type": "occ",
				"energy": -0.24667,
				"method": "rhf"
			},
			{
				"type": "unocc",
				"energy": -0.06653,
				"method": "rhf"
			},
			{
				"type": "unocc",
				"energy": -0.05076,
				"method": "rhf"
			},
			{
				"type": "unocc",
				"energy": -0.02571,
				"method": "rhf"
			},
			{
				"type": "unocc",
				"energy": -0.00933,
				"method": "rhf"
			},
			{
				"type": "unocc",
				"energy": 0.03915,
				"method": "rhf"
			}
		],
		"cosmo_sigma_profile": { 
			"-0.025": 0.0,
			"-0.024": 0.0,
			"-0.023": 0.0,
			"-0.022": 0.0,
			"-0.021": 0.0,
			"-0.02": 0.0,
			"-0.019": 0.0397291343107,
			"-0.018": 0.851204933509,
			"-0.017": 0.779694128911,
			"-0.016": 1.24529411171,
			"-0.015": 0.663292204439,
			"-0.014": 0.250796408047,
			"-0.013": 0.700026726425,
			"-0.012": 0.779232724916,
			"-0.011": 0.845580053404,
			"-0.01": 0.526025175045,
			"-0.009": 0.595172291872,
			"-0.008": 0.553575289167,
			"-0.007": 6.85712149245,
			"-0.006": 16.8992396057,
			"-0.005": 22.0433263276,
			"-0.004": 19.9642080891,
			"-0.003": 17.1253172565,
			"-0.002": 18.0040271268,
			"-0.001": 15.5706208205,
			"0.0": 18.7493874907,
			"0.001": 18.2768070717,
			"0.002": 20.5749978524,
			"0.003": 21.2805703246,
			"0.004": 11.8327329815,
			"0.005": 6.62013849505,
			"0.006": 5.25270893771,
			"0.007": 4.33874274346,
			"0.008": 3.53303188732,
			"0.009": 3.73319890274,
			"0.01": 4.61328029856,
			"0.011": 7.52703255793,
			"0.012": 6.79315996466,
			"0.013": 0.959584512429,
			"0.014": 0.00545415084288,
			"0.015": 0.0,
			"0.016": 0.0,
			"0.017": 0.0,
			"0.018": 0.0,
			"0.019": 0.0,
			"0.02": 0.0,
			"0.021": 0.0,
			"0.022": 0.0,
			"0.023": 0.0,
			"0.024": 0.0,
			"0.025": 0.0
		}
	}
}
