{
	 "smiles": "CCC(O)CN(CC(O)CC)CC(O)CC", 
	 "Tm": 314.15, 
	 "num_atms": 43, 
	 "gaussian": { 
		 "optdone": 1, 
		 "sigma_profile": "yes", 
		 "theory": "DFT", 
		 "functional": "B3LYP", 
		 "basiset": "6-31G**", 
		 "properties": { 
			 "R2extent": 5426.4399, 
			 "electric_dipole_moment_norm": 2.07151918408, 
			 "electric_quadrupole_moment_norm": 13.6186399585, 
			 "total_energy": -753.970295415, 
			 "HOMO_LUMO_gap": 0.28, 
			 "cosmo_polarized_energy": -13.21, 
			 "cosmo_cavitation_energy": 41.36, 
			 "cosmo_dispersion_energy": -27.46, 
			 "cosmo_repulsion_energy": 2.18, 
			 "cosmo_total_nonelectrostatic_energy": 16.09, 
			 "SMD_solvation_energy": 6.14 
		},
		"coords": [
			{
				"x": -1.5720247246,
				"y": -1.5732284812,
				"z": 2.9020484867,
				"element": "C" 
			},
			{
				"x": -1.5639472184,
				"y": -0.1667056358,
				"z": 2.2909812972,
				"element": "C" 
			},
			{
				"x": -0.1711296551,
				"y": 0.4201617706,
				"z": 2.0067664986,
				"element": "C" 
			},
			{
				"x": 0.5958296898,
				"y": 0.5818972871,
				"z": 3.2005654711,
				"element": "O" 
			},
			{
				"x": 0.6712815961,
				"y": -0.3623235184,
				"z": 0.9794231794,
				"element": "C" 
			},
			{
				"x": 0.055893932,
				"y": -0.5253603269,
				"z": -0.3437606232,
				"element": "N" 
			},
			{
				"x": 0.0292971185,
				"y": 0.7130297433,
				"z": -1.1441674755,
				"element": "C" 
			},
			{
				"x": -1.1899678989,
				"y": 0.8076807317,
				"z": -2.0826708638,
				"element": "C" 
			},
			{
				"x": -1.2397494228,
				"y": -0.262367263,
				"z": -3.0197478545,
				"element": "O" 
			},
			{
				"x": -1.1883221974,
				"y": 2.1011742426,
				"z": -2.9056087893,
				"element": "C" 
			},
			{
				"x": -1.3203785921,
				"y": 3.3922869984,
				"z": -2.0909102693,
				"element": "C" 
			},
			{
				"x": 0.614152076,
				"y": -1.6764851753,
				"z": -1.0843024988,
				"element": "C" 
			},
			{
				"x": -0.3102938415,
				"y": -2.899591539,
				"z": -0.9452813738,
				"element": "C" 
			},
			{
				"x": -1.6615578351,
				"y": -2.469133649,
				"z": -1.152428689,
				"element": "O" 
			},
			{
				"x": 0.0126113018,
				"y": -4.0030534808,
				"z": -1.9474778795,
				"element": "C" 
			},
			{
				"x": -0.8571886931,
				"y": -5.252296311,
				"z": -1.777753742,
				"element": "C" 
			},
			{
				"x": -2.5943125888,
				"y": -1.8847286898,
				"z": 3.1360075753,
				"element": "H" 
			},
			{
				"x": -1.0077111532,
				"y": -1.6084730749,
				"z": 3.8415313646,
				"element": "H" 
			},
			{
				"x": -1.1515871548,
				"y": -2.3241346684,
				"z": 2.2251129508,
				"element": "H" 
			},
			{
				"x": -2.0729368156,
				"y": 0.5241625337,
				"z": 2.9729146578,
				"element": "H" 
			},
			{
				"x": -2.1374910661,
				"y": -0.1660600246,
				"z": 1.3568460417,
				"element": "H" 
			},
			{
				"x": -0.3137412021,
				"y": 1.4447673655,
				"z": 1.6450283207,
				"element": "H" 
			},
			{
				"x": 0.7638895675,
				"y": -0.2967536002,
				"z": 3.5665066145,
				"element": "H" 
			},
			{
				"x": 0.8503595388,
				"y": -1.3662488645,
				"z": 1.3842113973,
				"element": "H" 
			},
			{
				"x": 1.6578030625,
				"y": 0.129218275,
				"z": 0.9187134036,
				"element": "H" 
			},
			{
				"x": -0.0059837482,
				"y": 1.5630282054,
				"z": -0.4575769529,
				"element": "H" 
			},
			{
				"x": 0.9521802538,
				"y": 0.8217561758,
				"z": -1.7389998914,
				"element": "H" 
			},
			{
				"x": -2.0941840489,
				"y": 0.7969377994,
				"z": -1.4480577694,
				"element": "H" 
			},
			{
				"x": -1.5212897085,
				"y": -1.0709170075,
				"z": -2.5546689942,
				"element": "H" 
			},
			{
				"x": -0.2734851349,
				"y": 2.1245660677,
				"z": -3.5118240653,
				"element": "H" 
			},
			{
				"x": -2.0204786586,
				"y": 2.0209785901,
				"z": -3.6132540504,
				"element": "H" 
			},
			{
				"x": -1.4150134659,
				"y": 4.258213401,
				"z": -2.7535460709,
				"element": "H" 
			},
			{
				"x": -0.4520418727,
				"y": 3.5719335524,
				"z": -1.4483227368,
				"element": "H" 
			},
			{
				"x": -2.2096254124,
				"y": 3.3708438679,
				"z": -1.4499397599,
				"element": "H" 
			},
			{
				"x": 1.6323334136,
				"y": -1.9225229083,
				"z": -0.7464208985,
				"element": "H" 
			},
			{
				"x": 0.672478794,
				"y": -1.4103551407,
				"z": -2.141836729,
				"element": "H" 
			},
			{
				"x": -0.2229142332,
				"y": -3.3106331229,
				"z": 0.0758979268,
				"element": "H" 
			},
			{
				"x": -1.731998593,
				"y": -1.6887333122,
				"z": -0.5712200161,
				"element": "H" 
			},
			{
				"x": -0.1109525395,
				"y": -3.5945783464,
				"z": -2.9586420677,
				"element": "H" 
			},
			{
				"x": 1.0738961268,
				"y": -4.2640855494,
				"z": -1.8402590714,
				"element": "H" 
			},
			{
				"x": -0.7142229916,
				"y": -5.7031563247,
				"z": -0.7889334708,
				"element": "H" 
			},
			{
				"x": -1.9159017329,
				"y": -5.0008509884,
				"z": -1.8810909341,
				"element": "H" 
			},
			{
				"x": -0.6088742714,
				"y": -6.0092596046,
				"z": -2.5282516488,
				"element": "H" 
			}
		],
		 "valence_orbital": [ 
			{
				"type": "occ",
				"energy": -0.30715,
				"method": "rhf"
			},
			{
				"type": "occ",
				"energy": -0.27709,
				"method": "rhf"
			},
			{
				"type": "occ",
				"energy": -0.27162,
				"method": "rhf"
			},
			{
				"type": "occ",
				"energy": -0.25397,
				"method": "rhf"
			},
			{
				"type": "occ",
				"energy": -0.22683,
				"method": "rhf"
			},
			{
				"type": "unocc",
				"energy": 0.05317,
				"method": "rhf"
			},
			{
				"type": "unocc",
				"energy": 0.06876,
				"method": "rhf"
			},
			{
				"type": "unocc",
				"energy": 0.07684,
				"method": "rhf"
			},
			{
				"type": "unocc",
				"energy": 0.0885,
				"method": "rhf"
			},
			{
				"type": "unocc",
				"energy": 0.1,
				"method": "rhf"
			}
		],
		"cosmo_sigma_profile": { 
			"-0.025": 0.0,
			"-0.024": 0.0,
			"-0.023": 0.0,
			"-0.022": 0.0,
			"-0.021": 0.0,
			"-0.02": 0.0,
			"-0.019": 0.0,
			"-0.018": 0.0,
			"-0.017": 0.0,
			"-0.016": 0.0,
			"-0.015": 0.0,
			"-0.014": 0.60468592994,
			"-0.013": 0.90357504408,
			"-0.012": 0.919860014711,
			"-0.011": 1.38491992615,
			"-0.01": 0.970577641571,
			"-0.009": 1.16370515633,
			"-0.008": 0.826918178445,
			"-0.007": 2.48531670374,
			"-0.006": 3.42843650656,
			"-0.005": 6.85636906229,
			"-0.004": 16.8149692817,
			"-0.003": 36.7701023006,
			"-0.002": 55.1825183203,
			"-0.001": 49.9581807746,
			"0.0": 42.8275392035,
			"0.001": 34.5889529987,
			"0.002": 14.0203642323,
			"0.003": 4.30123557849,
			"0.004": 4.45663918669,
			"0.005": 3.64604968764,
			"0.006": 3.64885694772,
			"0.007": 3.54159540828,
			"0.008": 4.23598279954,
			"0.009": 3.43732789235,
			"0.01": 2.99276706363,
			"0.011": 3.75346297492,
			"0.012": 3.46348359859,
			"0.013": 3.7903930306,
			"0.014": 3.08185081917,
			"0.015": 2.91174978256,
			"0.016": 0.136303633291,
			"0.017": 0.0,
			"0.018": 0.0,
			"0.019": 0.0,
			"0.02": 0.0,
			"0.021": 0.0,
			"0.022": 0.0,
			"0.023": 0.0,
			"0.024": 0.0,
			"0.025": 0.0
		}
	}
}
