{
	 "smiles": "CC(C)=CC=CC=NNC1=C(C=C(C=C1)[N+]([O-])=O)[N+]([O-])=O", 
	 "Tm": 479.15, 
	 "num_atms": 35, 
	 "gaussian": { 
		 "optdone": 1, 
		 "sigma_profile": "yes", 
		 "theory": "DFT", 
		 "functional": "B3LYP", 
		 "basiset": "6-31G**", 
		 "properties": { 
			 "R2extent": 11936.6572, 
			 "electric_dipole_moment_norm": 9.11380422985, 
			 "electric_quadrupole_moment_norm": 14.6734054057, 
			 "total_energy": -1023.47655552, 
			 "HOMO_LUMO_gap": 0.1088, 
			 "cosmo_polarized_energy": -15.72, 
			 "cosmo_cavitation_energy": 42.07, 
			 "cosmo_dispersion_energy": -29.71, 
			 "cosmo_repulsion_energy": 2.28, 
			 "cosmo_total_nonelectrostatic_energy": 14.63, 
			 "SMD_solvation_energy": 11.61 
		},
		"coords": [
			{
				"x": 1.3444380094,
				"y": -4.6210782608,
				"z": -0.7274294893,
				"element": "C" 
			},
			{
				"x": 1.4039054808,
				"y": -5.0136637997,
				"z": 0.7245472818,
				"element": "C" 
			},
			{
				"x": 1.99484193,
				"y": -6.3728948122,
				"z": 0.9893589471,
				"element": "C" 
			},
			{
				"x": 0.9724439915,
				"y": -4.240263539,
				"z": 1.7516291635,
				"element": "C" 
			},
			{
				"x": 0.3874912344,
				"y": -2.9260369983,
				"z": 1.663798463,
				"element": "C" 
			},
			{
				"x": -0.0204289032,
				"y": -2.2141192368,
				"z": 2.7459441828,
				"element": "C" 
			},
			{
				"x": -0.6115106825,
				"y": -0.8947696814,
				"z": 2.7055892869,
				"element": "C" 
			},
			{
				"x": -0.8146517016,
				"y": -0.2471803105,
				"z": 1.6026874897,
				"element": "N" 
			},
			{
				"x": -1.3789153047,
				"y": 0.9821385836,
				"z": 1.7338429857,
				"element": "N" 
			},
			{
				"x": -1.6413195924,
				"y": 1.7573883874,
				"z": 0.6496041762,
				"element": "C" 
			},
			{
				"x": -2.2348750307,
				"y": 3.055405456,
				"z": 0.757265896,
				"element": "C" 
			},
			{
				"x": -2.4913180822,
				"y": 3.8266775341,
				"z": -0.377808298,
				"element": "C" 
			},
			{
				"x": -2.1676158629,
				"y": 3.3306232729,
				"z": -1.6255488957,
				"element": "C" 
			},
			{
				"x": -1.5832866135,
				"y": 2.0598064027,
				"z": -1.77099692,
				"element": "C" 
			},
			{
				"x": -1.3274787901,
				"y": 1.2937701292,
				"z": -0.6580936918,
				"element": "C" 
			},
			{
				"x": -2.4374688594,
				"y": 4.1402682711,
				"z": -2.8090412377,
				"element": "N" 
			},
			{
				"x": -2.1335741046,
				"y": 3.6613404636,
				"z": -3.9042275181,
				"element": "O" 
			},
			{
				"x": -2.9500642646,
				"y": 5.2481632385,
				"z": -2.644786001,
				"element": "O" 
			},
			{
				"x": -2.6019785073,
				"y": 3.6429081441,
				"z": 2.0333619401,
				"element": "N" 
			},
			{
				"x": -3.1071488398,
				"y": 4.7620235976,
				"z": 2.043652827,
				"element": "O" 
			},
			{
				"x": -2.3902852321,
				"y": 2.9878968159,
				"z": 3.0745307876,
				"element": "O" 
			},
			{
				"x": 2.3503755371,
				"y": -4.6313517115,
				"z": -1.1667108936,
				"element": "H" 
			},
			{
				"x": 0.7527779019,
				"y": -5.3504210604,
				"z": -1.2957554083,
				"element": "H" 
			},
			{
				"x": 0.9137237937,
				"y": -3.6336465882,
				"z": -0.8974676615,
				"element": "H" 
			},
			{
				"x": 1.4230375628,
				"y": -7.1556328515,
				"z": 0.4731821682,
				"element": "H" 
			},
			{
				"x": 3.020585739,
				"y": -6.43595331,
				"z": 0.6021296254,
				"element": "H" 
			},
			{
				"x": 2.0165703425,
				"y": -6.6121744446,
				"z": 2.0555289201,
				"element": "H" 
			},
			{
				"x": 1.072698279,
				"y": -4.6435789857,
				"z": 2.7592787573,
				"element": "H" 
			},
			{
				"x": 0.2614527621,
				"y": -2.4711317557,
				"z": 0.6850853852,
				"element": "H" 
			},
			{
				"x": 0.0932443807,
				"y": -2.6439896866,
				"z": 3.7387730604,
				"element": "H" 
			},
			{
				"x": -0.8898492735,
				"y": -0.4486078649,
				"z": 3.6684705363,
				"element": "H" 
			},
			{
				"x": -1.6285045869,
				"y": 1.3747404608,
				"z": 2.6434647543,
				"element": "H" 
			},
			{
				"x": -2.9404757471,
				"y": 4.8043102724,
				"z": -0.2703667945,
				"element": "H" 
			},
			{
				"x": -1.3426717243,
				"y": 1.7030265459,
				"z": -2.7648228448,
				"element": "H" 
			},
			{
				"x": -0.8788652415,
				"y": 0.3139073219,
				"z": -0.7456709803,
				"element": "H" 
			}
		],
		 "valence_orbital": [ 
			{
				"type": "occ",
				"energy": -0.29543,
				"method": "rhf"
			},
			{
				"type": "occ",
				"energy": -0.2946,
				"method": "rhf"
			},
			{
				"type": "occ",
				"energy": -0.28806,
				"method": "rhf"
			},
			{
				"type": "occ",
				"energy": -0.25836,
				"method": "rhf"
			},
			{
				"type": "occ",
				"energy": -0.21176,
				"method": "rhf"
			},
			{
				"type": "unocc",
				"energy": -0.10296,
				"method": "rhf"
			},
			{
				"type": "unocc",
				"energy": -0.09182,
				"method": "rhf"
			},
			{
				"type": "unocc",
				"energy": -0.06777,
				"method": "rhf"
			},
			{
				"type": "unocc",
				"energy": -0.01691,
				"method": "rhf"
			},
			{
				"type": "unocc",
				"energy": 0.0092,
				"method": "rhf"
			}
		],
		"cosmo_sigma_profile": { 
			"-0.025": 0.0,
			"-0.024": 0.0,
			"-0.023": 0.0,
			"-0.022": 0.0,
			"-0.021": 0.0,
			"-0.02": 0.0,
			"-0.019": 0.0,
			"-0.018": 0.0,
			"-0.017": 0.0,
			"-0.016": 0.0,
			"-0.015": 0.0,
			"-0.014": 0.0308487226496,
			"-0.013": 0.664311014138,
			"-0.012": 0.716682378901,
			"-0.011": 1.14248063429,
			"-0.01": 1.40887615581,
			"-0.009": 1.44662556906,
			"-0.008": 3.5096380841,
			"-0.007": 7.39382301691,
			"-0.006": 13.8241165853,
			"-0.005": 19.1817493567,
			"-0.004": 29.652538611,
			"-0.003": 30.0811479895,
			"-0.002": 34.05023795,
			"-0.001": 34.341187782,
			"0.0": 32.0263432108,
			"0.001": 17.9095553439,
			"0.002": 14.3336901905,
			"0.003": 14.7326362461,
			"0.004": 16.1505594511,
			"0.005": 11.5452548178,
			"0.006": 10.1016639621,
			"0.007": 11.6371944126,
			"0.008": 14.1201093571,
			"0.009": 9.1825942475,
			"0.01": 6.34887982008,
			"0.011": 0.780872497999,
			"0.012": 0.0,
			"0.013": 0.0,
			"0.014": 0.0,
			"0.015": 0.0,
			"0.016": 0.0,
			"0.017": 0.0,
			"0.018": 0.0,
			"0.019": 0.0,
			"0.02": 0.0,
			"0.021": 0.0,
			"0.022": 0.0,
			"0.023": 0.0,
			"0.024": 0.0,
			"0.025": 0.0
		}
	}
}
