{
	 "smiles": "OC(=O)C12CC3CC(CC(O)(C3)C1)C2", 
	 "Tm": 478.15, 
	 "num_atms": 30, 
	 "gaussian": { 
		 "optdone": 1, 
		 "sigma_profile": "yes", 
		 "theory": "DFT", 
		 "functional": "B3LYP", 
		 "basiset": "6-31G**", 
		 "properties": { 
			 "R2extent": 2570.0104, 
			 "electric_dipole_moment_norm": 4.18357541345, 
			 "electric_quadrupole_moment_norm": 16.1086581275, 
			 "total_energy": -654.516660716, 
			 "HOMO_LUMO_gap": 0.26964, 
			 "cosmo_polarized_energy": -17.02, 
			 "cosmo_cavitation_energy": 28.28, 
			 "cosmo_dispersion_energy": -21.2, 
			 "cosmo_repulsion_energy": 1.62, 
			 "cosmo_total_nonelectrostatic_energy": 8.69, 
			 "SMD_solvation_energy": 4.54 
		},
		"coords": [
			{
				"x": 3.5163696063,
				"y": -1.1807762339,
				"z": -1.4573373249,
				"element": "O" 
			},
			{
				"x": 2.2877603766,
				"y": -1.5878870752,
				"z": -1.0318452811,
				"element": "C" 
			},
			{
				"x": 2.0467060285,
				"y": -2.7682813526,
				"z": -0.9644313468,
				"element": "O" 
			},
			{
				"x": 1.2898545051,
				"y": -0.4769159282,
				"z": -0.6818410576,
				"element": "C" 
			},
			{
				"x": 0.9616406449,
				"y": 0.3672651254,
				"z": -1.9470112141,
				"element": "C" 
			},
			{
				"x": -0.0681590465,
				"y": 1.4613944942,
				"z": -1.5975009541,
				"element": "C" 
			},
			{
				"x": 0.5127177118,
				"y": 2.3858940432,
				"z": -0.5080155102,
				"element": "C" 
			},
			{
				"x": 0.8232516304,
				"y": 1.5589080641,
				"z": 0.7565799998,
				"element": "C" 
			},
			{
				"x": -0.4705368754,
				"y": 0.9003288649,
				"z": 1.2745837566,
				"element": "C" 
			},
			{
				"x": -1.0496681015,
				"y": -0.0231181729,
				"z": 0.1926053797,
				"element": "C" 
			},
			{
				"x": -2.2321170606,
				"y": -0.5978218379,
				"z": 0.742647266,
				"element": "O" 
			},
			{
				"x": -1.3603203187,
				"y": 0.8034519325,
				"z": -1.071160036,
				"element": "C" 
			},
			{
				"x": -0.0158258324,
				"y": -1.111288716,
				"z": -0.1533581033,
				"element": "C" 
			},
			{
				"x": 1.8591571733,
				"y": 0.4676895793,
				"z": 0.4142062318,
				"element": "C" 
			},
			{
				"x": 3.5688769757,
				"y": -0.2147789673,
				"z": -1.454569537,
				"element": "H" 
			},
			{
				"x": 1.8710978726,
				"y": 0.834305257,
				"z": -2.3488822953,
				"element": "H" 
			},
			{
				"x": 0.5712001933,
				"y": -0.2887193102,
				"z": -2.7347123647,
				"element": "H" 
			},
			{
				"x": -0.2903347148,
				"y": 2.0441926681,
				"z": -2.4996884963,
				"element": "H" 
			},
			{
				"x": -0.2033240843,
				"y": 3.1819658409,
				"z": -0.2697238036,
				"element": "H" 
			},
			{
				"x": 1.4241920235,
				"y": 2.8767387972,
				"z": -0.8740414146,
				"element": "H" 
			},
			{
				"x": 1.2382499376,
				"y": 2.2121144109,
				"z": 1.5335502261,
				"element": "H" 
			},
			{
				"x": -0.2766739853,
				"y": 0.3122543279,
				"z": 2.1792717706,
				"element": "H" 
			},
			{
				"x": -1.2154603031,
				"y": 1.6607664391,
				"z": 1.5365423189,
				"element": "H" 
			},
			{
				"x": -2.5846121196,
				"y": -1.2247101605,
				"z": 0.095921399,
				"element": "H" 
			},
			{
				"x": -1.7949330904,
				"y": 0.1494031651,
				"z": -1.8403744431,
				"element": "H" 
			},
			{
				"x": -2.1132059574,
				"y": 1.5626007634,
				"z": -0.8288691403,
				"element": "H" 
			},
			{
				"x": -0.4217664689,
				"y": -1.7929852528,
				"z": -0.9109067064,
				"element": "H" 
			},
			{
				"x": 0.1907103765,
				"y": -1.7177149454,
				"z": 0.7341261947,
				"element": "H" 
			},
			{
				"x": 2.7890040608,
				"y": 0.946929871,
				"z": 0.0766140969,
				"element": "H" 
			},
			{
				"x": 2.1120488423,
				"y": -0.1148056916,
				"z": 1.3083203893,
				"element": "H" 
			}
		],
		 "valence_orbital": [ 
			{
				"type": "occ",
				"energy": -0.31496,
				"method": "rhf"
			},
			{
				"type": "occ",
				"energy": -0.31194,
				"method": "rhf"
			},
			{
				"type": "occ",
				"energy": -0.29402,
				"method": "rhf"
			},
			{
				"type": "occ",
				"energy": -0.26589,
				"method": "rhf"
			},
			{
				"type": "occ",
				"energy": -0.25904,
				"method": "rhf"
			},
			{
				"type": "unocc",
				"energy": 0.0106,
				"method": "rhf"
			},
			{
				"type": "unocc",
				"energy": 0.03776,
				"method": "rhf"
			},
			{
				"type": "unocc",
				"energy": 0.07201,
				"method": "rhf"
			},
			{
				"type": "unocc",
				"energy": 0.07814,
				"method": "rhf"
			},
			{
				"type": "unocc",
				"energy": 0.11392,
				"method": "rhf"
			}
		],
		"cosmo_sigma_profile": { 
			"-0.025": 0.0,
			"-0.024": 0.0,
			"-0.023": 0.0,
			"-0.022": 0.0,
			"-0.021": 0.0,
			"-0.02": 0.0,
			"-0.019": 0.0,
			"-0.018": 0.133666311224,
			"-0.017": 0.602410178069,
			"-0.016": 0.968811843806,
			"-0.015": 1.14403393927,
			"-0.014": 2.310130316,
			"-0.013": 1.63981853808,
			"-0.012": 1.91628153738,
			"-0.011": 1.66159736295,
			"-0.01": 2.6057763479,
			"-0.009": 1.84324462492,
			"-0.008": 1.71785607847,
			"-0.007": 3.14239444187,
			"-0.006": 3.05320663084,
			"-0.005": 3.41230289587,
			"-0.004": 13.5887081115,
			"-0.003": 28.4937474474,
			"-0.002": 33.7850036493,
			"-0.001": 27.9895255512,
			"0.0": 18.5096177559,
			"0.001": 11.4358690445,
			"0.002": 4.22792430274,
			"0.003": 4.00865714519,
			"0.004": 3.4699539507,
			"0.005": 3.53493584605,
			"0.006": 3.69142649629,
			"0.007": 3.65506155174,
			"0.008": 3.94076574398,
			"0.009": 4.2793027439,
			"0.01": 5.83874084166,
			"0.011": 6.66071107819,
			"0.012": 6.98618655863,
			"0.013": 3.89697026297,
			"0.014": 2.14681096737,
			"0.015": 0.77683683716,
			"0.016": 0.0,
			"0.017": 0.0,
			"0.018": 0.0,
			"0.019": 0.0,
			"0.02": 0.0,
			"0.021": 0.0,
			"0.022": 0.0,
			"0.023": 0.0,
			"0.024": 0.0,
			"0.025": 0.0
		}
	}
}
