{
	 "smiles": "CCOC(=O)C1=C(C)OC2=C1C(N)=NC(CCl)=N2", 
	 "Tm": 466.15, 
	 "num_atms": 30, 
	 "gaussian": { 
		 "optdone": 1, 
		 "sigma_profile": "yes", 
		 "theory": "DFT", 
		 "functional": "B3LYP", 
		 "basiset": "6-31G**", 
		 "properties": { 
			 "R2extent": 7624.8404, 
			 "electric_dipole_moment_norm": 6.65145763498, 
			 "electric_quadrupole_moment_norm": 17.1483357531, 
			 "total_energy": -1276.56769576, 
			 "HOMO_LUMO_gap": 0.16671, 
			 "cosmo_polarized_energy": -13.61, 
			 "cosmo_cavitation_energy": 36.19, 
			 "cosmo_dispersion_energy": -26.43, 
			 "cosmo_repulsion_energy": 2.08, 
			 "cosmo_total_nonelectrostatic_energy": 11.84, 
			 "SMD_solvation_energy": 3.9 
		},
		"coords": [
			{
				"x": -1.6051651202,
				"y": -1.8599966029,
				"z": -3.2083825856,
				"element": "C" 
			},
			{
				"x": -0.3636948489,
				"y": -0.9833161736,
				"z": -3.2624936905,
				"element": "C" 
			},
			{
				"x": -0.3131027449,
				"y": -0.0678533961,
				"z": -2.1378082403,
				"element": "O" 
			},
			{
				"x": 0.2188294848,
				"y": -0.5404055289,
				"z": -0.9911934563,
				"element": "C" 
			},
			{
				"x": 0.6486280792,
				"y": -1.6831575616,
				"z": -0.8822857881,
				"element": "O" 
			},
			{
				"x": 0.2241203965,
				"y": 0.4555757296,
				"z": 0.0818142877,
				"element": "C" 
			},
			{
				"x": -0.2260548185,
				"y": 1.7562926822,
				"z": 0.0144400184,
				"element": "C" 
			},
			{
				"x": -0.837158148,
				"y": 2.5845767879,
				"z": -1.062009301,
				"element": "C" 
			},
			{
				"x": -0.0599385647,
				"y": 2.3891303897,
				"z": 1.2135637884,
				"element": "O" 
			},
			{
				"x": 0.5108644633,
				"y": 1.4917234108,
				"z": 2.078895746,
				"element": "C" 
			},
			{
				"x": 0.7100850132,
				"y": 0.2742015836,
				"z": 1.436505357,
				"element": "C" 
			},
			{
				"x": 1.2915622513,
				"y": -0.7337593703,
				"z": 2.2532210238,
				"element": "C" 
			},
			{
				"x": 1.5439136278,
				"y": -1.980353633,
				"z": 1.8120181001,
				"element": "N" 
			},
			{
				"x": 1.5979682547,
				"y": -0.4390216267,
				"z": 3.5330978478,
				"element": "N" 
			},
			{
				"x": 1.3493911212,
				"y": 0.7932382597,
				"z": 3.9942968264,
				"element": "C" 
			},
			{
				"x": 1.7341631244,
				"y": 1.058260939,
				"z": 5.4241413697,
				"element": "C" 
			},
			{
				"x": 3.4852197606,
				"y": 1.5611222856,
				"z": 5.5550605607,
				"element": "Cl" 
			},
			{
				"x": 0.7981546448,
				"y": 1.8192226368,
				"z": 3.3289157807,
				"element": "N" 
			},
			{
				"x": -1.6558107531,
				"y": -2.4830077752,
				"z": -4.1074149134,
				"element": "H" 
			},
			{
				"x": -1.5749001676,
				"y": -2.518172128,
				"z": -2.3369178717,
				"element": "H" 
			},
			{
				"x": -2.5123737366,
				"y": -1.2504475133,
				"z": -3.1624705104,
				"element": "H" 
			},
			{
				"x": 0.5476594365,
				"y": -1.5848826677,
				"z": -3.2664452949,
				"element": "H" 
			},
			{
				"x": -0.3714060886,
				"y": -0.3291996483,
				"z": -4.1372801717,
				"element": "H" 
			},
			{
				"x": -0.1986115893,
				"y": 2.6059799765,
				"z": -1.9489327346,
				"element": "H" 
			},
			{
				"x": -1.8021809997,
				"y": 2.1735948846,
				"z": -1.3741228483,
				"element": "H" 
			},
			{
				"x": -0.9841844784,
				"y": 3.6024282136,
				"z": -0.6965279105,
				"element": "H" 
			},
			{
				"x": 1.9979774442,
				"y": -2.6210203433,
				"z": 2.4427831055,
				"element": "H" 
			},
			{
				"x": 1.3539961481,
				"y": -2.2139837523,
				"z": 0.8433473618,
				"element": "H" 
			},
			{
				"x": 1.634394296,
				"y": 0.156860307,
				"z": 6.0261753751,
				"element": "H" 
			},
			{
				"x": 1.1494545119,
				"y": 1.8804696343,
				"z": 5.8321087681,
				"element": "H" 
			}
		],
		 "valence_orbital": [ 
			{
				"type": "occ",
				"energy": -0.28492,
				"method": "rhf"
			},
			{
				"type": "occ",
				"energy": -0.2826,
				"method": "rhf"
			},
			{
				"type": "occ",
				"energy": -0.26923,
				"method": "rhf"
			},
			{
				"type": "occ",
				"energy": -0.25955,
				"method": "rhf"
			},
			{
				"type": "occ",
				"energy": -0.2176,
				"method": "rhf"
			},
			{
				"type": "unocc",
				"energy": -0.05089,
				"method": "rhf"
			},
			{
				"type": "unocc",
				"energy": -0.03068,
				"method": "rhf"
			},
			{
				"type": "unocc",
				"energy": 6e-05,
				"method": "rhf"
			},
			{
				"type": "unocc",
				"energy": 0.04924,
				"method": "rhf"
			},
			{
				"type": "unocc",
				"energy": 0.08271,
				"method": "rhf"
			}
		],
		"cosmo_sigma_profile": { 
			"-0.025": 0.0,
			"-0.024": 0.0,
			"-0.023": 0.0,
			"-0.022": 0.0,
			"-0.021": 0.0,
			"-0.02": 0.0,
			"-0.019": 0.0,
			"-0.018": 0.0,
			"-0.017": 0.0,
			"-0.016": 0.0,
			"-0.015": 0.0,
			"-0.014": 0.640747297411,
			"-0.013": 1.00150426028,
			"-0.012": 1.11468806436,
			"-0.011": 1.14108842093,
			"-0.01": 0.674274375705,
			"-0.009": 1.50357030784,
			"-0.008": 2.74073626076,
			"-0.007": 4.66446205141,
			"-0.006": 10.4909465663,
			"-0.005": 16.5166322195,
			"-0.004": 21.9144653055,
			"-0.003": 27.3833286448,
			"-0.002": 32.8113011996,
			"-0.001": 29.8805776529,
			"0.0": 25.8935268889,
			"0.001": 16.9125878306,
			"0.002": 14.1549989939,
			"0.003": 14.0263701811,
			"0.004": 11.1147733988,
			"0.005": 12.3352498295,
			"0.006": 16.5996790396,
			"0.007": 9.87146162537,
			"0.008": 4.09015568673,
			"0.009": 3.55099812174,
			"0.01": 2.97245939468,
			"0.011": 2.7126868806,
			"0.012": 1.2552022282,
			"0.013": 1.76097051289,
			"0.014": 0.655210794964,
			"0.015": 0.0181667629311,
			"0.016": 0.0,
			"0.017": 0.0,
			"0.018": 0.0,
			"0.019": 0.0,
			"0.02": 0.0,
			"0.021": 0.0,
			"0.022": 0.0,
			"0.023": 0.0,
			"0.024": 0.0,
			"0.025": 0.0
		}
	}
}
