{
	 "smiles": "CCOC(=O)C(=CNC1=CC(OC)=CC(OC)=C1)C#N", 
	 "Tm": 414.15, 
	 "num_atms": 36, 
	 "gaussian": { 
		 "optdone": 1, 
		 "sigma_profile": "yes", 
		 "theory": "DFT", 
		 "functional": "B3LYP", 
		 "basiset": "6-31G**", 
		 "properties": { 
			 "R2extent": 6600.3614, 
			 "electric_dipole_moment_norm": 7.47069551247, 
			 "electric_quadrupole_moment_norm": 39.9724450798, 
			 "total_energy": -953.483667906, 
			 "HOMO_LUMO_gap": 0.1601, 
			 "cosmo_polarized_energy": -24.57, 
			 "cosmo_cavitation_energy": 41.49, 
			 "cosmo_dispersion_energy": -26.54, 
			 "cosmo_repulsion_energy": 2.07, 
			 "cosmo_total_nonelectrostatic_energy": 17.03, 
			 "SMD_solvation_energy": 10.85 
		},
		"coords": [
			{
				"x": -1.7703608154,
				"y": -2.3522913169,
				"z": -0.3990700255,
				"element": "C" 
			},
			{
				"x": -2.5604957456,
				"y": -1.1170229982,
				"z": -0.0127040627,
				"element": "C" 
			},
			{
				"x": -2.1683087969,
				"y": -0.7560162802,
				"z": 1.3339694235,
				"element": "O" 
			},
			{
				"x": -2.8089087342,
				"y": 0.3011308372,
				"z": 1.8690834274,
				"element": "C" 
			},
			{
				"x": -3.713498702,
				"y": 0.8989650792,
				"z": 1.3199290539,
				"element": "O" 
			},
			{
				"x": -2.3058600777,
				"y": 0.6064593851,
				"z": 3.239749517,
				"element": "C" 
			},
			{
				"x": -1.0116592313,
				"y": 0.5255287165,
				"z": 3.6873949071,
				"element": "C" 
			},
			{
				"x": 0.1552497398,
				"y": 0.3483533028,
				"z": 3.0111150887,
				"element": "N" 
			},
			{
				"x": 0.4735082781,
				"y": 0.5896880221,
				"z": 1.648681195,
				"element": "C" 
			},
			{
				"x": -0.1835068256,
				"y": 1.5908643926,
				"z": 0.9288546578,
				"element": "C" 
			},
			{
				"x": 0.1929033984,
				"y": 1.8199078879,
				"z": -0.401964677,
				"element": "C" 
			},
			{
				"x": -0.3981730153,
				"y": 2.7452077531,
				"z": -1.202541598,
				"element": "O" 
			},
			{
				"x": -1.5075392266,
				"y": 3.4791337143,
				"z": -0.6899500729,
				"element": "C" 
			},
			{
				"x": 1.2359649473,
				"y": 1.0920104478,
				"z": -0.9831308424,
				"element": "C" 
			},
			{
				"x": 1.9022375298,
				"y": 0.1193489074,
				"z": -0.2351700701,
				"element": "C" 
			},
			{
				"x": 2.9082242342,
				"y": -0.532479577,
				"z": -0.8831218718,
				"element": "O" 
			},
			{
				"x": 3.6246210785,
				"y": -1.5399968562,
				"z": -0.1866772216,
				"element": "C" 
			},
			{
				"x": 1.520241495,
				"y": -0.1496898696,
				"z": 1.0880495455,
				"element": "C" 
			},
			{
				"x": -3.2926817381,
				"y": 1.0122759255,
				"z": 4.1880665893,
				"element": "C" 
			},
			{
				"x": -4.0839869911,
				"y": 1.3367569624,
				"z": 4.9790935694,
				"element": "N" 
			},
			{
				"x": -0.6964384331,
				"y": -2.1486019775,
				"z": -0.3730354664,
				"element": "H" 
			},
			{
				"x": -2.0395560438,
				"y": -2.6601760327,
				"z": -1.4142228439,
				"element": "H" 
			},
			{
				"x": -1.9850582428,
				"y": -3.182154521,
				"z": 0.2805127195,
				"element": "H" 
			},
			{
				"x": -3.6401472214,
				"y": -1.2921720009,
				"z": -0.0267761766,
				"element": "H" 
			},
			{
				"x": -2.3494199624,
				"y": -0.2731730079,
				"z": -0.676791119,
				"element": "H" 
			},
			{
				"x": -0.8615677557,
				"y": 0.6455638817,
				"z": 4.7579741615,
				"element": "H" 
			},
			{
				"x": 0.954316885,
				"y": 0.1457893665,
				"z": 3.5940577859,
				"element": "H" 
			},
			{
				"x": -0.9590164343,
				"y": 2.1770845333,
				"z": 1.4003053498,
				"element": "H" 
			},
			{
				"x": -1.8589586951,
				"y": 4.0990689756,
				"z": -1.5155728237,
				"element": "H" 
			},
			{
				"x": -2.3150408751,
				"y": 2.8153159072,
				"z": -0.359892088,
				"element": "H" 
			},
			{
				"x": -1.2081219316,
				"y": 4.1273215101,
				"z": 0.1431531464,
				"element": "H" 
			},
			{
				"x": 1.5261970725,
				"y": 1.281814265,
				"z": -2.0093028368,
				"element": "H" 
			},
			{
				"x": 4.374147269,
				"y": -1.9131264483,
				"z": -0.8859277879,
				"element": "H" 
			},
			{
				"x": 4.1295592315,
				"y": -1.1384301018,
				"z": 0.7013111121,
				"element": "H" 
			},
			{
				"x": 2.9703914029,
				"y": -2.3681978748,
				"z": 0.1150144238,
				"element": "H" 
			},
			{
				"x": 1.9989429331,
				"y": -0.9268609101,
				"z": 1.6708359106,
				"element": "H" 
			}
		],
		 "valence_orbital": [ 
			{
				"type": "occ",
				"energy": -0.29974,
				"method": "rhf"
			},
			{
				"type": "occ",
				"energy": -0.27817,
				"method": "rhf"
			},
			{
				"type": "occ",
				"energy": -0.24977,
				"method": "rhf"
			},
			{
				"type": "occ",
				"energy": -0.23163,
				"method": "rhf"
			},
			{
				"type": "occ",
				"energy": -0.21631,
				"method": "rhf"
			},
			{
				"type": "unocc",
				"energy": -0.05621,
				"method": "rhf"
			},
			{
				"type": "unocc",
				"energy": -0.00183,
				"method": "rhf"
			},
			{
				"type": "unocc",
				"energy": 0.00746,
				"method": "rhf"
			},
			{
				"type": "unocc",
				"energy": 0.02266,
				"method": "rhf"
			},
			{
				"type": "unocc",
				"energy": 0.04423,
				"method": "rhf"
			}
		],
		"cosmo_sigma_profile": { 
			"-0.025": 0.0,
			"-0.024": 0.0,
			"-0.023": 0.0,
			"-0.022": 0.0,
			"-0.021": 0.0,
			"-0.02": 0.0,
			"-0.019": 0.0,
			"-0.018": 0.0,
			"-0.017": 0.554908370402,
			"-0.016": 1.75652360593,
			"-0.015": 1.77433346085,
			"-0.014": 1.46402550178,
			"-0.013": 1.78477177158,
			"-0.012": 1.59376429879,
			"-0.011": 2.54854089359,
			"-0.01": 2.54282212607,
			"-0.009": 2.73834628246,
			"-0.008": 2.44729733445,
			"-0.007": 4.40385414146,
			"-0.006": 14.4617602163,
			"-0.005": 23.5660186456,
			"-0.004": 28.778885541,
			"-0.003": 33.1431305213,
			"-0.002": 26.2926770904,
			"-0.001": 22.5845981554,
			"0.0": 24.3948694028,
			"0.001": 16.8746257761,
			"0.002": 15.299853652,
			"0.003": 15.9909514372,
			"0.004": 16.9070121735,
			"0.005": 8.22264609209,
			"0.006": 8.02896628532,
			"0.007": 10.7253192484,
			"0.008": 8.40686951416,
			"0.009": 7.35037024357,
			"0.01": 8.63621117006,
			"0.011": 6.19652809168,
			"0.012": 6.12125338609,
			"0.013": 2.75731268331,
			"0.014": 1.34153539009,
			"0.015": 0.00306021736117,
			"0.016": 0.0,
			"0.017": 0.0,
			"0.018": 0.0,
			"0.019": 0.0,
			"0.02": 0.0,
			"0.021": 0.0,
			"0.022": 0.0,
			"0.023": 0.0,
			"0.024": 0.0,
			"0.025": 0.0
		}
	}
}
