{
	 "smiles": "CC1=CC(C)=C(C=C1)C1=NC(CC(O)=O)=CS1", 
	 "Tm": 378.15, 
	 "num_atms": 30, 
	 "gaussian": { 
		 "optdone": 1, 
		 "sigma_profile": "yes", 
		 "theory": "DFT", 
		 "functional": "B3LYP", 
		 "basiset": "6-31G**", 
		 "properties": { 
			 "R2extent": 5766.7435, 
			 "electric_dipole_moment_norm": 6.3291534663, 
			 "electric_quadrupole_moment_norm": 16.7403913374, 
			 "total_energy": -1106.63463858, 
			 "HOMO_LUMO_gap": 0.16872, 
			 "cosmo_polarized_energy": -13.47, 
			 "cosmo_cavitation_energy": 34.93, 
			 "cosmo_dispersion_energy": -25.61, 
			 "cosmo_repulsion_energy": 1.92, 
			 "cosmo_total_nonelectrostatic_energy": 11.24, 
			 "SMD_solvation_energy": 6.29 
		},
		"coords": [
			{
				"x": 5.229132646,
				"y": 0.0653714092,
				"z": -2.6311402943,
				"element": "C" 
			},
			{
				"x": 3.8594124411,
				"y": -0.2589146878,
				"z": -2.0869661319,
				"element": "C" 
			},
			{
				"x": 3.1109805484,
				"y": 0.7009019314,
				"z": -1.398115027,
				"element": "C" 
			},
			{
				"x": 1.8244204382,
				"y": 0.461206896,
				"z": -0.9007848034,
				"element": "C" 
			},
			{
				"x": 1.118524833,
				"y": 1.5741527762,
				"z": -0.164070308,
				"element": "C" 
			},
			{
				"x": 1.2619683988,
				"y": -0.82409665,
				"z": -1.1038364161,
				"element": "C" 
			},
			{
				"x": 2.0145489357,
				"y": -1.795017653,
				"z": -1.7914031762,
				"element": "C" 
			},
			{
				"x": 3.2874207524,
				"y": -1.52326386,
				"z": -2.2738258271,
				"element": "C" 
			},
			{
				"x": -0.0720226736,
				"y": -1.1966574846,
				"z": -0.608646395,
				"element": "C" 
			},
			{
				"x": -1.1141733584,
				"y": -0.4088630913,
				"z": -0.489164783,
				"element": "N" 
			},
			{
				"x": -2.2294972875,
				"y": -1.0617141536,
				"z": -0.0018865263,
				"element": "C" 
			},
			{
				"x": -3.5110304849,
				"y": -0.2865166112,
				"z": 0.1492892816,
				"element": "C" 
			},
			{
				"x": -3.3909461756,
				"y": 1.0925699079,
				"z": 0.8236553962,
				"element": "C" 
			},
			{
				"x": -2.2973821613,
				"y": 1.8056419512,
				"z": 0.5076673796,
				"element": "O" 
			},
			{
				"x": -4.2580191975,
				"y": 1.5293187388,
				"z": 1.541650898,
				"element": "O" 
			},
			{
				"x": -2.0434309561,
				"y": -2.3878989909,
				"z": 0.2660056922,
				"element": "C" 
			},
			{
				"x": -0.4155645785,
				"y": -2.8506101666,
				"z": -0.0961309977,
				"element": "S" 
			},
			{
				"x": 5.8955074566,
				"y": -0.801110053,
				"z": -2.5792916568,
				"element": "H" 
			},
			{
				"x": 5.6949405534,
				"y": 0.8877224676,
				"z": -2.080872387,
				"element": "H" 
			},
			{
				"x": 5.1718126306,
				"y": 0.3674793989,
				"z": -3.6844258793,
				"element": "H" 
			},
			{
				"x": 3.54852387,
				"y": 1.6825076088,
				"z": -1.2306958058,
				"element": "H" 
			},
			{
				"x": 0.6043772924,
				"y": 1.2198907587,
				"z": 0.7326345008,
				"element": "H" 
			},
			{
				"x": 1.8343662188,
				"y": 2.3444607608,
				"z": 0.1343591266,
				"element": "H" 
			},
			{
				"x": 0.3639035312,
				"y": 2.0547226724,
				"z": -0.7962777151,
				"element": "H" 
			},
			{
				"x": 1.5806524666,
				"y": -2.7749628646,
				"z": -1.967844874,
				"element": "H" 
			},
			{
				"x": 3.8377169747,
				"y": -2.2958835526,
				"z": -2.8040118926,
				"element": "H" 
			},
			{
				"x": -4.2523081003,
				"y": -0.8580525986,
				"z": 0.7086726842,
				"element": "H" 
			},
			{
				"x": -3.9354122737,
				"y": -0.0978299004,
				"z": -0.8477544331,
				"element": "H" 
			},
			{
				"x": -1.6873907872,
				"y": 1.2461451192,
				"z": -0.0304030196,
				"element": "H" 
			},
			{
				"x": -2.7594319533,
				"y": -3.101000079,
				"z": 0.6485133902,
				"element": "H" 
			}
		],
		 "valence_orbital": [ 
			{
				"type": "occ",
				"energy": -0.29484,
				"method": "rhf"
			},
			{
				"type": "occ",
				"energy": -0.28358,
				"method": "rhf"
			},
			{
				"type": "occ",
				"energy": -0.25835,
				"method": "rhf"
			},
			{
				"type": "occ",
				"energy": -0.25468,
				"method": "rhf"
			},
			{
				"type": "occ",
				"energy": -0.2314,
				"method": "rhf"
			},
			{
				"type": "unocc",
				"energy": -0.06268,
				"method": "rhf"
			},
			{
				"type": "unocc",
				"energy": -0.01736,
				"method": "rhf"
			},
			{
				"type": "unocc",
				"energy": -0.00125,
				"method": "rhf"
			},
			{
				"type": "unocc",
				"energy": 0.00967,
				"method": "rhf"
			},
			{
				"type": "unocc",
				"energy": 0.02606,
				"method": "rhf"
			}
		],
		"cosmo_sigma_profile": { 
			"-0.025": 0.0,
			"-0.024": 0.0,
			"-0.023": 0.0,
			"-0.022": 0.0,
			"-0.021": 0.0,
			"-0.02": 0.0,
			"-0.019": 0.0,
			"-0.018": 0.0,
			"-0.017": 0.0,
			"-0.016": 0.0,
			"-0.015": 0.0,
			"-0.014": 0.0,
			"-0.013": 0.0,
			"-0.012": 0.0,
			"-0.011": 0.0,
			"-0.01": 0.530888290164,
			"-0.009": 2.56360021682,
			"-0.008": 4.9523524755,
			"-0.007": 6.93758324461,
			"-0.006": 9.46699062074,
			"-0.005": 17.364609539,
			"-0.004": 25.7964731948,
			"-0.003": 23.3831596534,
			"-0.002": 23.9356658093,
			"-0.001": 28.4231013945,
			"0.0": 30.1131007377,
			"0.001": 23.1518421164,
			"0.002": 18.2522811416,
			"0.003": 14.0522588216,
			"0.004": 11.9641553138,
			"0.005": 9.10506499604,
			"0.006": 2.72091090545,
			"0.007": 2.8181464828,
			"0.008": 2.60414004341,
			"0.009": 2.47949281304,
			"0.01": 3.75349702889,
			"0.011": 5.54035941982,
			"0.012": 6.59136495434,
			"0.013": 3.57250350648,
			"0.014": 0.433774401692,
			"0.015": 0.0,
			"0.016": 0.0,
			"0.017": 0.0,
			"0.018": 0.0,
			"0.019": 0.0,
			"0.02": 0.0,
			"0.021": 0.0,
			"0.022": 0.0,
			"0.023": 0.0,
			"0.024": 0.0,
			"0.025": 0.0
		}
	}
}
