{
	 "smiles": "NC(=O)CNC(=O)COC(=O)C1=CC=CC=C1", 
	 "Tm": 425.15, 
	 "num_atms": 29, 
	 "gaussian": { 
		 "optdone": 1, 
		 "sigma_profile": "yes", 
		 "theory": "DFT", 
		 "functional": "B3LYP", 
		 "basiset": "6-31G**", 
		 "properties": { 
			 "R2extent": 5944.042, 
			 "electric_dipole_moment_norm": 6.15669761317, 
			 "electric_quadrupole_moment_norm": 19.7616640274, 
			 "total_energy": -836.837263541, 
			 "HOMO_LUMO_gap": 0.17269, 
			 "cosmo_polarized_energy": -19.39, 
			 "cosmo_cavitation_energy": 33.53, 
			 "cosmo_dispersion_energy": -23.92, 
			 "cosmo_repulsion_energy": 1.88, 
			 "cosmo_total_nonelectrostatic_energy": 11.5, 
			 "SMD_solvation_energy": 7.38 
		},
		"coords": [
			{
				"x": 3.5239900365,
				"y": -0.5433757761,
				"z": 0.1770861315,
				"element": "N" 
			},
			{
				"x": 3.7883886914,
				"y": -0.0062744109,
				"z": 1.3996001054,
				"element": "C" 
			},
			{
				"x": 4.8959702396,
				"y": 0.019326297,
				"z": 1.9157110333,
				"element": "O" 
			},
			{
				"x": 2.5638851701,
				"y": 0.5923673478,
				"z": 2.119362309,
				"element": "C" 
			},
			{
				"x": 2.2884965338,
				"y": -0.067359565,
				"z": 3.3884751353,
				"element": "N" 
			},
			{
				"x": 1.6494990713,
				"y": -1.2625720424,
				"z": 3.5820396795,
				"element": "C" 
			},
			{
				"x": 1.6891792746,
				"y": -1.8539635977,
				"z": 4.6516312485,
				"element": "O" 
			},
			{
				"x": 0.8788480974,
				"y": -1.8778001798,
				"z": 2.4049369732,
				"element": "C" 
			},
			{
				"x": -0.2427909102,
				"y": -1.062218474,
				"z": 2.001404539,
				"element": "O" 
			},
			{
				"x": -0.3639017017,
				"y": -0.7203067261,
				"z": 0.6998207165,
				"element": "C" 
			},
			{
				"x": 0.5005159241,
				"y": -0.9311431446,
				"z": -0.139088137,
				"element": "O" 
			},
			{
				"x": -1.6541294936,
				"y": -0.0452194305,
				"z": 0.4078526197,
				"element": "C" 
			},
			{
				"x": -1.8870831949,
				"y": 0.3844233251,
				"z": -0.9070529786,
				"element": "C" 
			},
			{
				"x": -3.0824792155,
				"y": 1.02050069,
				"z": -1.229723472,
				"element": "C" 
			},
			{
				"x": -4.0491840411,
				"y": 1.2312662424,
				"z": -0.2423869202,
				"element": "C" 
			},
			{
				"x": -3.8200878386,
				"y": 0.8044284312,
				"z": 1.068306525,
				"element": "C" 
			},
			{
				"x": -2.6262758743,
				"y": 0.165935243,
				"z": 1.3973405479,
				"element": "C" 
			},
			{
				"x": 2.5766528251,
				"y": -0.6616877325,
				"z": -0.1626239318,
				"element": "H" 
			},
			{
				"x": 4.2872151753,
				"y": -0.9822391059,
				"z": -0.3173655267,
				"element": "H" 
			},
			{
				"x": 2.7976637158,
				"y": 1.6390601172,
				"z": 2.3328059335,
				"element": "H" 
			},
			{
				"x": 1.6758164595,
				"y": 0.5806101484,
				"z": 1.4900394521,
				"element": "H" 
			},
			{
				"x": 2.8939246608,
				"y": 0.1771054735,
				"z": 4.1624350449,
				"element": "H" 
			},
			{
				"x": 1.5298019067,
				"y": -2.0556410334,
				"z": 1.5461684889,
				"element": "H" 
			},
			{
				"x": 0.47302434,
				"y": -2.8212959106,
				"z": 2.7704495373,
				"element": "H" 
			},
			{
				"x": -1.1229617744,
				"y": 0.2093025001,
				"z": -1.6565348154,
				"element": "H" 
			},
			{
				"x": -3.2621505374,
				"y": 1.3519568684,
				"z": -2.24791102,
				"element": "H" 
			},
			{
				"x": -4.9817032373,
				"y": 1.727940311,
				"z": -0.4946352834,
				"element": "H" 
			},
			{
				"x": -4.5725884114,
				"y": 0.9685762567,
				"z": 1.8335574472,
				"element": "H" 
			},
			{
				"x": -2.4406358918,
				"y": -0.1693021219,
				"z": 2.4109986174,
				"element": "H" 
			}
		],
		 "valence_orbital": [ 
			{
				"type": "occ",
				"energy": -0.27579,
				"method": "rhf"
			},
			{
				"type": "occ",
				"energy": -0.27322,
				"method": "rhf"
			},
			{
				"type": "occ",
				"energy": -0.26885,
				"method": "rhf"
			},
			{
				"type": "occ",
				"energy": -0.25641,
				"method": "rhf"
			},
			{
				"type": "occ",
				"energy": -0.24005,
				"method": "rhf"
			},
			{
				"type": "unocc",
				"energy": -0.06736,
				"method": "rhf"
			},
			{
				"type": "unocc",
				"energy": -0.02209,
				"method": "rhf"
			},
			{
				"type": "unocc",
				"energy": -0.00016,
				"method": "rhf"
			},
			{
				"type": "unocc",
				"energy": 0.02121,
				"method": "rhf"
			},
			{
				"type": "unocc",
				"energy": 0.03615,
				"method": "rhf"
			}
		],
		"cosmo_sigma_profile": { 
			"-0.025": 0.0,
			"-0.024": 0.0,
			"-0.023": 0.0,
			"-0.022": 0.0,
			"-0.021": 0.0,
			"-0.02": 0.00676574482271,
			"-0.019": 0.00714139234433,
			"-0.018": 0.0118867523596,
			"-0.017": 0.00449381680644,
			"-0.016": 0.00229393766697,
			"-0.015": 0.0823715087023,
			"-0.014": 1.57416190615,
			"-0.013": 2.06655343993,
			"-0.012": 2.49276212279,
			"-0.011": 1.81714024499,
			"-0.01": 1.84053102722,
			"-0.009": 1.74302018138,
			"-0.008": 4.33534342929,
			"-0.007": 13.3634817574,
			"-0.006": 18.5290947318,
			"-0.005": 22.4016149072,
			"-0.004": 19.1014567669,
			"-0.003": 15.9119723675,
			"-0.002": 14.5300094611,
			"-0.001": 13.3321964241,
			"0.0": 17.7231579703,
			"0.001": 17.5653447747,
			"0.002": 18.5210021922,
			"0.003": 18.6520227817,
			"0.004": 14.0916644937,
			"0.005": 4.54017050408,
			"0.006": 3.54645449022,
			"0.007": 4.29572634677,
			"0.008": 3.28831306003,
			"0.009": 2.9225990256,
			"0.01": 4.08213905493,
			"0.011": 2.78242160252,
			"0.012": 6.00644574959,
			"0.013": 9.55381690481,
			"0.014": 6.0790539414,
			"0.015": 0.563858798006,
			"0.016": 0.0,
			"0.017": 0.0,
			"0.018": 0.0,
			"0.019": 0.0,
			"0.02": 0.0,
			"0.021": 0.0,
			"0.022": 0.0,
			"0.023": 0.0,
			"0.024": 0.0,
			"0.025": 0.0
		}
	}
}
