{
	 "smiles": "OC(=O)C1=C2C=CC=CC2=CC(Br)=C1", 
	 "Tm": 503.15, 
	 "num_atms": 21, 
	 "gaussian": { 
		 "optdone": 1, 
		 "sigma_profile": "yes", 
		 "theory": "DFT", 
		 "functional": "B3LYP", 
		 "basiset": "6-31G**", 
		 "properties": { 
			 "R2extent": 5526.5895, 
			 "electric_dipole_moment_norm": 0.854331697879, 
			 "electric_quadrupole_moment_norm": 12.7758239699, 
			 "total_energy": -3145.26755034, 
			 "HOMO_LUMO_gap": 0.15482, 
			 "cosmo_polarized_energy": -8.71, 
			 "cosmo_cavitation_energy": 27.71, 
			 "cosmo_dispersion_energy": -21.14, 
			 "cosmo_repulsion_energy": 1.63, 
			 "cosmo_total_nonelectrostatic_energy": 8.2, 
			 "SMD_solvation_energy": 4.47 
		},
		"coords": [
			{
				"x": -3.6935669215,
				"y": -0.5177018786,
				"z": 0.9046792838,
				"element": "O" 
			},
			{
				"x": -2.352689963,
				"y": -0.5487305992,
				"z": 1.1230920448,
				"element": "C" 
			},
			{
				"x": -1.8815183855,
				"y": -1.2879659868,
				"z": 1.9675467929,
				"element": "O" 
			},
			{
				"x": -1.603880894,
				"y": 0.3901841773,
				"z": 0.2370159187,
				"element": "C" 
			},
			{
				"x": -0.1706150767,
				"y": 0.5219389841,
				"z": 0.2981348492,
				"element": "C" 
			},
			{
				"x": 0.6690985418,
				"y": -0.2076815429,
				"z": 1.1855380494,
				"element": "C" 
			},
			{
				"x": 2.0349153831,
				"y": -0.0210366167,
				"z": 1.1794652823,
				"element": "C" 
			},
			{
				"x": 2.6436107101,
				"y": 0.8980662534,
				"z": 0.2944556846,
				"element": "C" 
			},
			{
				"x": 1.8647101269,
				"y": 1.6209208538,
				"z": -0.5773370693,
				"element": "C" 
			},
			{
				"x": 0.4531448764,
				"y": 1.4554518383,
				"z": -0.5999109993,
				"element": "C" 
			},
			{
				"x": -0.3339734675,
				"y": 2.2108600478,
				"z": -1.506971438,
				"element": "C" 
			},
			{
				"x": -1.6972295421,
				"y": 2.0527223137,
				"z": -1.5303737943,
				"element": "C" 
			},
			{
				"x": -2.7602927486,
				"y": 3.0679971368,
				"z": -2.7501197605,
				"element": "Br" 
			},
			{
				"x": -2.3373125324,
				"y": 1.1476131759,
				"z": -0.6646019631,
				"element": "C" 
			},
			{
				"x": -4.0696499021,
				"y": -1.1593446048,
				"z": 1.5288640041,
				"element": "H" 
			},
			{
				"x": 0.2153079744,
				"y": -0.9130943228,
				"z": 1.866492586,
				"element": "H" 
			},
			{
				"x": 2.652852947,
				"y": -0.5909571824,
				"z": 1.8673237985,
				"element": "H" 
			},
			{
				"x": 3.7214212282,
				"y": 1.0304866623,
				"z": 0.3053656358,
				"element": "H" 
			},
			{
				"x": 2.3143902794,
				"y": 2.3319987464,
				"z": -1.2649519278,
				"element": "H" 
			},
			{
				"x": 0.1526178901,
				"y": 2.9110317682,
				"z": -2.1778682188,
				"element": "H" 
			},
			{
				"x": -3.4127405239,
				"y": 1.0426407763,
				"z": -0.7039387591,
				"element": "H" 
			}
		],
		 "valence_orbital": [ 
			{
				"type": "occ",
				"energy": -0.29369,
				"method": "rhf"
			},
			{
				"type": "occ",
				"energy": -0.29063,
				"method": "rhf"
			},
			{
				"type": "occ",
				"energy": -0.27871,
				"method": "rhf"
			},
			{
				"type": "occ",
				"energy": -0.2517,
				"method": "rhf"
			},
			{
				"type": "occ",
				"energy": -0.22963,
				"method": "rhf"
			},
			{
				"type": "unocc",
				"energy": -0.07481,
				"method": "rhf"
			},
			{
				"type": "unocc",
				"energy": -0.02487,
				"method": "rhf"
			},
			{
				"type": "unocc",
				"energy": -0.00739,
				"method": "rhf"
			},
			{
				"type": "unocc",
				"energy": 0.00155,
				"method": "rhf"
			},
			{
				"type": "unocc",
				"energy": 0.04959,
				"method": "rhf"
			}
		],
		"cosmo_sigma_profile": { 
			"-0.025": 0.0,
			"-0.024": 0.0,
			"-0.023": 0.0,
			"-0.022": 0.0,
			"-0.021": 0.0,
			"-0.02": 0.0,
			"-0.019": 0.0662539935542,
			"-0.018": 0.708701228767,
			"-0.017": 0.89436881385,
			"-0.016": 0.782880788235,
			"-0.015": 1.12773811041,
			"-0.014": 0.837955163179,
			"-0.013": 0.0389551213351,
			"-0.012": 0.564388314709,
			"-0.011": 0.813352989093,
			"-0.01": 0.942370903516,
			"-0.009": 0.540044793741,
			"-0.008": 3.03540202553,
			"-0.007": 4.88799400113,
			"-0.006": 9.41271061568,
			"-0.005": 10.2344491131,
			"-0.004": 12.5043070296,
			"-0.003": 12.6145787874,
			"-0.002": 14.1162240363,
			"-0.001": 14.3419082924,
			"0.0": 19.6498136584,
			"0.001": 29.5564679592,
			"0.002": 22.7847809058,
			"0.003": 21.7074236017,
			"0.004": 22.9496293933,
			"0.005": 6.18266486567,
			"0.006": 3.73546067688,
			"0.007": 2.15053196552,
			"0.008": 1.46910914695,
			"0.009": 1.94997168758,
			"0.01": 2.0061460138,
			"0.011": 3.00501622834,
			"0.012": 1.00347328214,
			"0.013": 0.0,
			"0.014": 0.0,
			"0.015": 0.0,
			"0.016": 0.0,
			"0.017": 0.0,
			"0.018": 0.0,
			"0.019": 0.0,
			"0.02": 0.0,
			"0.021": 0.0,
			"0.022": 0.0,
			"0.023": 0.0,
			"0.024": 0.0,
			"0.025": 0.0
		}
	}
}
