{
	 "smiles": "COCCOC(=O)C1=C(C=CC=C1)C(=O)OCCOC", 
	 "Tm": 228.15, 
	 "num_atms": 38, 
	 "gaussian": { 
		 "optdone": 1, 
		 "sigma_profile": "yes", 
		 "theory": "DFT", 
		 "functional": "B3LYP", 
		 "basiset": "6-31G**", 
		 "properties": { 
			 "R2extent": 5968.7781, 
			 "electric_dipole_moment_norm": 5.4042114966, 
			 "electric_quadrupole_moment_norm": 12.0718661979, 
			 "total_energy": -995.661607244, 
			 "HOMO_LUMO_gap": 0.19054, 
			 "cosmo_polarized_energy": -18.71, 
			 "cosmo_cavitation_energy": 41.85, 
			 "cosmo_dispersion_energy": -27.56, 
			 "cosmo_repulsion_energy": 2.15, 
			 "cosmo_total_nonelectrostatic_energy": 16.43, 
			 "SMD_solvation_energy": 9.64 
		},
		"coords": [
			{
				"x": -0.0986205681,
				"y": -3.5466874117,
				"z": -1.4209284539,
				"element": "C" 
			},
			{
				"x": -0.2465610583,
				"y": -2.2438549794,
				"z": -1.9457929493,
				"element": "O" 
			},
			{
				"x": -1.3543006227,
				"y": -1.5523798349,
				"z": -1.4135065096,
				"element": "C" 
			},
			{
				"x": -1.1932117333,
				"y": -0.076774767,
				"z": -1.7267676586,
				"element": "C" 
			},
			{
				"x": -0.1890000571,
				"y": 0.4980486977,
				"z": -0.8655989834,
				"element": "O" 
			},
			{
				"x": 1.0160939629,
				"y": 0.785585582,
				"z": -1.3968327017,
				"element": "C" 
			},
			{
				"x": 1.2785514151,
				"y": 0.7671391831,
				"z": -2.5807277493,
				"element": "O" 
			},
			{
				"x": 1.9772952978,
				"y": 1.2615979458,
				"z": -0.3467166216,
				"element": "C" 
			},
			{
				"x": 1.9649258263,
				"y": 0.8449380317,
				"z": 1.0004618908,
				"element": "C" 
			},
			{
				"x": 2.8361444419,
				"y": 1.4529463163,
				"z": 1.9131123673,
				"element": "C" 
			},
			{
				"x": 3.7328940369,
				"y": 2.4372490646,
				"z": 1.4983831949,
				"element": "C" 
			},
			{
				"x": 3.7680131333,
				"y": 2.8247950962,
				"z": 0.1590528917,
				"element": "C" 
			},
			{
				"x": 2.8915002749,
				"y": 2.2398107898,
				"z": -0.7528623995,
				"element": "C" 
			},
			{
				"x": 1.1608862534,
				"y": -0.3307498881,
				"z": 1.470699999,
				"element": "C" 
			},
			{
				"x": 1.0995433262,
				"y": -1.3936295561,
				"z": 0.8940944384,
				"element": "O" 
			},
			{
				"x": 0.5900252315,
				"y": -0.0745915157,
				"z": 2.675040913,
				"element": "O" 
			},
			{
				"x": -0.1654782494,
				"y": -1.1336744511,
				"z": 3.2940731639,
				"element": "C" 
			},
			{
				"x": -1.6258228953,
				"y": -0.740577144,
				"z": 3.3971128728,
				"element": "C" 
			},
			{
				"x": -2.2127712997,
				"y": -0.7828844723,
				"z": 2.1138971817,
				"element": "O" 
			},
			{
				"x": -3.5566897801,
				"y": -0.348020721,
				"z": 2.1127680048,
				"element": "C" 
			},
			{
				"x": 0.7795708276,
				"y": -3.9865191338,
				"z": -1.9000156415,
				"element": "H" 
			},
			{
				"x": 0.0617754831,
				"y": -3.5234048913,
				"z": -0.3345560939,
				"element": "H" 
			},
			{
				"x": -0.9737376666,
				"y": -4.180383925,
				"z": -1.6411222619,
				"element": "H" 
			},
			{
				"x": -1.4254229919,
				"y": -1.6821371415,
				"z": -0.3240344088,
				"element": "H" 
			},
			{
				"x": -2.2989293851,
				"y": -1.9104641071,
				"z": -1.8636700772,
				"element": "H" 
			},
			{
				"x": -2.1197295981,
				"y": 0.4622979331,
				"z": -1.5092157921,
				"element": "H" 
			},
			{
				"x": -0.9058736365,
				"y": 0.0739094238,
				"z": -2.7691871203,
				"element": "H" 
			},
			{
				"x": 2.8177424193,
				"y": 1.1333816888,
				"z": 2.9493693361,
				"element": "H" 
			},
			{
				"x": 4.40602634,
				"y": 2.8920663004,
				"z": 2.2191187536,
				"element": "H" 
			},
			{
				"x": 4.4687315967,
				"y": 3.5846256343,
				"z": -0.1738458618,
				"element": "H" 
			},
			{
				"x": 2.8897702362,
				"y": 2.5359913706,
				"z": -1.7962990789,
				"element": "H" 
			},
			{
				"x": -0.0496395201,
				"y": -2.0508182801,
				"z": 2.7140942212,
				"element": "H" 
			},
			{
				"x": 0.2508992305,
				"y": -1.2719672785,
				"z": 4.2968937685,
				"element": "H" 
			},
			{
				"x": -1.7090397561,
				"y": 0.268392892,
				"z": 3.8332318045,
				"element": "H" 
			},
			{
				"x": -2.1308899163,
				"y": -1.4423090166,
				"z": 4.0845169638,
				"element": "H" 
			},
			{
				"x": -3.6479287762,
				"y": 0.6953451321,
				"z": 2.4521907639,
				"element": "H" 
			},
			{
				"x": -4.1911014165,
				"y": -0.9776903432,
				"z": 2.7566360971,
				"element": "H" 
			},
			{
				"x": -3.9199404064,
				"y": -0.4184022242,
				"z": 1.0850317367,
				"element": "H" 
			}
		],
		 "valence_orbital": [ 
			{
				"type": "occ",
				"energy": -0.27054,
				"method": "rhf"
			},
			{
				"type": "occ",
				"energy": -0.26604,
				"method": "rhf"
			},
			{
				"type": "occ",
				"energy": -0.25809,
				"method": "rhf"
			},
			{
				"type": "occ",
				"energy": -0.25429,
				"method": "rhf"
			},
			{
				"type": "occ",
				"energy": -0.23831,
				"method": "rhf"
			},
			{
				"type": "unocc",
				"energy": -0.04777,
				"method": "rhf"
			},
			{
				"type": "unocc",
				"energy": -0.02106,
				"method": "rhf"
			},
			{
				"type": "unocc",
				"energy": 0.034,
				"method": "rhf"
			},
			{
				"type": "unocc",
				"energy": 0.055,
				"method": "rhf"
			},
			{
				"type": "unocc",
				"energy": 0.07646,
				"method": "rhf"
			}
		],
		"cosmo_sigma_profile": { 
			"-0.025": 0.0,
			"-0.024": 0.0,
			"-0.023": 0.0,
			"-0.022": 0.0,
			"-0.021": 0.0,
			"-0.02": 0.0,
			"-0.019": 0.0,
			"-0.018": 0.0,
			"-0.017": 0.0,
			"-0.016": 0.0,
			"-0.015": 0.0,
			"-0.014": 0.0,
			"-0.013": 0.0,
			"-0.012": 0.0,
			"-0.011": 0.0,
			"-0.01": 0.0,
			"-0.009": 0.0,
			"-0.008": 0.122422670625,
			"-0.007": 8.07424345808,
			"-0.006": 16.7204157454,
			"-0.005": 27.3584393703,
			"-0.004": 38.9908843419,
			"-0.003": 36.8707882997,
			"-0.002": 35.1484599289,
			"-0.001": 21.9841201183,
			"0.0": 16.8158046555,
			"0.001": 16.2490922294,
			"0.002": 21.828214194,
			"0.003": 18.3065504474,
			"0.004": 9.97877755726,
			"0.005": 9.39183308655,
			"0.006": 10.2250799988,
			"0.007": 10.1891710765,
			"0.008": 6.54195317193,
			"0.009": 5.70407561976,
			"0.01": 6.48878609362,
			"0.011": 7.82332674082,
			"0.012": 4.73424357501,
			"0.013": 0.894029233844,
			"0.014": 0.0401433153446,
			"0.015": 0.0,
			"0.016": 0.0,
			"0.017": 0.0,
			"0.018": 0.0,
			"0.019": 0.0,
			"0.02": 0.0,
			"0.021": 0.0,
			"0.022": 0.0,
			"0.023": 0.0,
			"0.024": 0.0,
			"0.025": 0.0
		}
	}
}
