{
	 "smiles": "ClC1=NC2=C(C=C1)C=C(C=C2)C#N", 
	 "Tm": 482.15, 
	 "num_atms": 18, 
	 "gaussian": { 
		 "optdone": 1, 
		 "sigma_profile": "yes", 
		 "theory": "DFT", 
		 "functional": "B3LYP", 
		 "basiset": "6-31G**", 
		 "properties": { 
			 "R2extent": 3700.1277, 
			 "electric_dipole_moment_norm": 2.67751257887, 
			 "electric_quadrupole_moment_norm": 33.7398909746, 
			 "total_energy": -953.76419055, 
			 "HOMO_LUMO_gap": 0.17329, 
			 "cosmo_polarized_energy": -11.71, 
			 "cosmo_cavitation_energy": 25.92, 
			 "cosmo_dispersion_energy": -18.85, 
			 "cosmo_repulsion_energy": 1.47, 
			 "cosmo_total_nonelectrostatic_energy": 8.54, 
			 "SMD_solvation_energy": 3.92 
		},
		"coords": [
			{
				"x": -1.7359603345,
				"y": 3.2216009818,
				"z": -1.3630465895,
				"element": "Cl" 
			},
			{
				"x": -1.6089600244,
				"y": 1.5089446143,
				"z": -0.9757609086,
				"element": "C" 
			},
			{
				"x": -0.4159814928,
				"y": 1.0314009082,
				"z": -0.7735361708,
				"element": "N" 
			},
			{
				"x": -0.3058103789,
				"y": -0.2960373923,
				"z": -0.4723795449,
				"element": "C" 
			},
			{
				"x": -1.4473168152,
				"y": -1.1520787558,
				"z": -0.3768817246,
				"element": "C" 
			},
			{
				"x": -2.723748516,
				"y": -0.5703387333,
				"z": -0.608871412,
				"element": "C" 
			},
			{
				"x": -2.8183401989,
				"y": 0.7642500885,
				"z": -0.9103360487,
				"element": "C" 
			},
			{
				"x": -1.2663496333,
				"y": -2.5179397908,
				"z": -0.0614124531,
				"element": "C" 
			},
			{
				"x": 0.0084325045,
				"y": -3.0204103932,
				"z": 0.153077194,
				"element": "C" 
			},
			{
				"x": 1.145104829,
				"y": -2.1655459538,
				"z": 0.0574399434,
				"element": "C" 
			},
			{
				"x": 0.9876883038,
				"y": -0.8351996168,
				"z": -0.2483184,
				"element": "C" 
			},
			{
				"x": 0.1895264342,
				"y": -4.4064532857,
				"z": 0.4730122275,
				"element": "C" 
			},
			{
				"x": 0.3423501345,
				"y": -5.5299563147,
				"z": 0.7328340931,
				"element": "N" 
			},
			{
				"x": -3.61529889,
				"y": -1.1881583501,
				"z": -0.5454662194,
				"element": "H" 
			},
			{
				"x": -3.7687127926,
				"y": 1.2497827366,
				"z": -1.0946012495,
				"element": "H" 
			},
			{
				"x": -2.1291358635,
				"y": -3.1726792676,
				"z": 0.0124847326,
				"element": "H" 
			},
			{
				"x": 2.1318489617,
				"y": -2.5816553147,
				"z": 0.2294529865,
				"element": "H" 
			},
			{
				"x": 1.8367637725,
				"y": -0.1651261604,
				"z": -0.3266904561,
				"element": "H" 
			}
		],
		 "valence_orbital": [ 
			{
				"type": "occ",
				"energy": -0.32699,
				"method": "rhf"
			},
			{
				"type": "occ",
				"energy": -0.32247,
				"method": "rhf"
			},
			{
				"type": "occ",
				"energy": -0.29227,
				"method": "rhf"
			},
			{
				"type": "occ",
				"energy": -0.27405,
				"method": "rhf"
			},
			{
				"type": "occ",
				"energy": -0.26095,
				"method": "rhf"
			},
			{
				"type": "unocc",
				"energy": -0.08766,
				"method": "rhf"
			},
			{
				"type": "unocc",
				"energy": -0.0604,
				"method": "rhf"
			},
			{
				"type": "unocc",
				"energy": -0.015,
				"method": "rhf"
			},
			{
				"type": "unocc",
				"energy": 0.02011,
				"method": "rhf"
			},
			{
				"type": "unocc",
				"energy": 0.02762,
				"method": "rhf"
			}
		],
		"cosmo_sigma_profile": { 
			"-0.025": 0.0,
			"-0.024": 0.0,
			"-0.023": 0.0,
			"-0.022": 0.0,
			"-0.021": 0.0,
			"-0.02": 0.0,
			"-0.019": 0.0,
			"-0.018": 0.0,
			"-0.017": 0.0,
			"-0.016": 0.0,
			"-0.015": 0.0,
			"-0.014": 0.0,
			"-0.013": 0.0,
			"-0.012": 0.0,
			"-0.011": 0.0,
			"-0.01": 0.806024901261,
			"-0.009": 5.6972261213,
			"-0.008": 9.90592745952,
			"-0.007": 9.36718457901,
			"-0.006": 9.58301699404,
			"-0.005": 7.07103299871,
			"-0.004": 8.260103902,
			"-0.003": 10.7927268105,
			"-0.002": 18.1590263256,
			"-0.001": 25.2018792525,
			"0.0": 23.3520721622,
			"0.001": 16.141820593,
			"0.002": 10.4907045523,
			"0.003": 10.1713699751,
			"0.004": 11.282317521,
			"0.005": 6.9235594966,
			"0.006": 4.65681783502,
			"0.007": 3.76096275767,
			"0.008": 4.8076863207,
			"0.009": 4.24576934891,
			"0.01": 4.16355037565,
			"0.011": 3.74216958631,
			"0.012": 3.08176646313,
			"0.013": 1.66806150944,
			"0.014": 0.0545203556161,
			"0.015": 0.0,
			"0.016": 0.0,
			"0.017": 0.0,
			"0.018": 0.0,
			"0.019": 0.0,
			"0.02": 0.0,
			"0.021": 0.0,
			"0.022": 0.0,
			"0.023": 0.0,
			"0.024": 0.0,
			"0.025": 0.0
		}
	}
}
