{
	 "smiles": "CC1=CC=C(C=C(/C#N)C2=NC(=CS2)C2=CC=CC=C2)C=C1", 
	 "Tm": 352.15, 
	 "num_atms": 36, 
	 "gaussian": { 
		 "optdone": 1, 
		 "sigma_profile": "yes", 
		 "theory": "DFT", 
		 "functional": "B3LYP", 
		 "basiset": "6-31G**", 
		 "properties": { 
			 "R2extent": 11095.4215, 
			 "electric_dipole_moment_norm": 3.50231194927, 
			 "electric_quadrupole_moment_norm": 26.017332336, 
			 "total_energy": -1240.13301425, 
			 "HOMO_LUMO_gap": 0.12511, 
			 "cosmo_polarized_energy": -11.58, 
			 "cosmo_cavitation_energy": 43.4, 
			 "cosmo_dispersion_energy": -31.09, 
			 "cosmo_repulsion_energy": 2.28, 
			 "cosmo_total_nonelectrostatic_energy": 14.59, 
			 "SMD_solvation_energy": 7.21 
		},
		"coords": [
			{
				"x": 4.6577498116,
				"y": 4.4476502127,
				"z": -2.1780803096,
				"element": "C" 
			},
			{
				"x": 3.5674059012,
				"y": 3.4806925754,
				"z": -1.7895809481,
				"element": "C" 
			},
			{
				"x": 3.3778924648,
				"y": 3.0925139513,
				"z": -0.4570591864,
				"element": "C" 
			},
			{
				"x": 2.3570131208,
				"y": 2.2161374328,
				"z": -0.1078526976,
				"element": "C" 
			},
			{
				"x": 1.4785745304,
				"y": 1.6854276066,
				"z": -1.0764053147,
				"element": "C" 
			},
			{
				"x": 0.4491581086,
				"y": 0.7776316633,
				"z": -0.6011765612,
				"element": "C" 
			},
			{
				"x": -0.54047849,
				"y": 0.0961949529,
				"z": -1.2507456553,
				"element": "C" 
			},
			{
				"x": -0.7591115641,
				"y": 0.1600325188,
				"z": -2.6631406082,
				"element": "C" 
			},
			{
				"x": -0.9701360275,
				"y": 0.1842282756,
				"z": -3.8084585954,
				"element": "N" 
			},
			{
				"x": -1.4589449808,
				"y": -0.7671805099,
				"z": -0.4915629272,
				"element": "C" 
			},
			{
				"x": -1.4137247328,
				"y": -0.9301418375,
				"z": 0.8024507472,
				"element": "N" 
			},
			{
				"x": -2.3829773338,
				"y": -1.7995163581,
				"z": 1.2551345444,
				"element": "C" 
			},
			{
				"x": -3.19232457,
				"y": -2.3060695944,
				"z": 0.2624666354,
				"element": "C" 
			},
			{
				"x": -2.7342725319,
				"y": -1.691001917,
				"z": -1.2829003563,
				"element": "S" 
			},
			{
				"x": -2.4759953306,
				"y": -2.0952414052,
				"z": 2.699062369,
				"element": "C" 
			},
			{
				"x": -1.7059425324,
				"y": -1.3594791379,
				"z": 3.6145406949,
				"element": "C" 
			},
			{
				"x": -1.7873984657,
				"y": -1.6188385096,
				"z": 4.9813963381,
				"element": "C" 
			},
			{
				"x": -2.6370496057,
				"y": -2.6172819564,
				"z": 5.4608006077,
				"element": "C" 
			},
			{
				"x": -3.4040109729,
				"y": -3.3583607723,
				"z": 4.558510714,
				"element": "C" 
			},
			{
				"x": -3.323227127,
				"y": -3.1019380779,
				"z": 3.1919918896,
				"element": "C" 
			},
			{
				"x": 1.6744098528,
				"y": 2.0772915802,
				"z": -2.4200363714,
				"element": "C" 
			},
			{
				"x": 2.6968796624,
				"y": 2.953058084,
				"z": -2.7582652779,
				"element": "C" 
			},
			{
				"x": 4.2412721273,
				"y": 5.4340874244,
				"z": -2.4169769419,
				"element": "H" 
			},
			{
				"x": 5.3824187123,
				"y": 4.5816463578,
				"z": -1.3705262018,
				"element": "H" 
			},
			{
				"x": 5.1970293143,
				"y": 4.104107729,
				"z": -3.0670292936,
				"element": "H" 
			},
			{
				"x": 4.0383017205,
				"y": 3.4808539433,
				"z": 0.3137560814,
				"element": "H" 
			},
			{
				"x": 2.2304430109,
				"y": 1.9283894432,
				"z": 0.9325130722,
				"element": "H" 
			},
			{
				"x": 0.4585076854,
				"y": 0.599841697,
				"z": 0.4716102504,
				"element": "H" 
			},
			{
				"x": -4.0286674884,
				"y": -2.9829260591,
				"z": 0.3531463644,
				"element": "H" 
			},
			{
				"x": -1.048037491,
				"y": -0.5849912039,
				"z": 3.2373182985,
				"element": "H" 
			},
			{
				"x": -1.1853184951,
				"y": -1.0378042294,
				"z": 5.6743510733,
				"element": "H" 
			},
			{
				"x": -2.6997327107,
				"y": -2.8191747868,
				"z": 6.5261303006,
				"element": "H" 
			},
			{
				"x": -4.0637234005,
				"y": -4.1423002541,
				"z": 4.919336871,
				"element": "H" 
			},
			{
				"x": -3.9162707845,
				"y": -3.6990214193,
				"z": 2.5057447971,
				"element": "H" 
			},
			{
				"x": 1.0303458354,
				"y": 1.6969029503,
				"z": -3.2025903337,
				"element": "H" 
			},
			{
				"x": 2.8264427767,
				"y": 3.2356796302,
				"z": -3.7999740688,
				"element": "H" 
			}
		],
		 "valence_orbital": [ 
			{
				"type": "occ",
				"energy": -0.28124,
				"method": "rhf"
			},
			{
				"type": "occ",
				"energy": -0.26415,
				"method": "rhf"
			},
			{
				"type": "occ",
				"energy": -0.25234,
				"method": "rhf"
			},
			{
				"type": "occ",
				"energy": -0.24038,
				"method": "rhf"
			},
			{
				"type": "occ",
				"energy": -0.21177,
				"method": "rhf"
			},
			{
				"type": "unocc",
				"energy": -0.08666,
				"method": "rhf"
			},
			{
				"type": "unocc",
				"energy": -0.03678,
				"method": "rhf"
			},
			{
				"type": "unocc",
				"energy": -0.0136,
				"method": "rhf"
			},
			{
				"type": "unocc",
				"energy": -0.00523,
				"method": "rhf"
			},
			{
				"type": "unocc",
				"energy": 0.00265,
				"method": "rhf"
			}
		],
		"cosmo_sigma_profile": { 
			"-0.025": 0.0,
			"-0.024": 0.0,
			"-0.023": 0.0,
			"-0.022": 0.0,
			"-0.021": 0.0,
			"-0.02": 0.0,
			"-0.019": 0.0,
			"-0.018": 0.0,
			"-0.017": 0.0,
			"-0.016": 0.0,
			"-0.015": 0.0,
			"-0.014": 0.0,
			"-0.013": 0.0,
			"-0.012": 0.0,
			"-0.011": 0.0,
			"-0.01": 0.984701046979,
			"-0.009": 2.81052096479,
			"-0.008": 4.01123225859,
			"-0.007": 5.47749719391,
			"-0.006": 13.0520171907,
			"-0.005": 21.5237539841,
			"-0.004": 26.9805070731,
			"-0.003": 26.4875149452,
			"-0.002": 27.9203138764,
			"-0.001": 31.1130173681,
			"0.0": 33.7729811636,
			"0.001": 33.4155164012,
			"0.002": 31.5099797175,
			"0.003": 28.4407533752,
			"0.004": 24.7616866938,
			"0.005": 15.6588195091,
			"0.006": 7.53022720686,
			"0.007": 3.13687127606,
			"0.008": 3.3517472716,
			"0.009": 2.70149022697,
			"0.01": 2.70832587492,
			"0.011": 2.49562298219,
			"0.012": 2.13791597911,
			"0.013": 0.414040207041,
			"0.014": 0.0,
			"0.015": 0.0,
			"0.016": 0.0,
			"0.017": 0.0,
			"0.018": 0.0,
			"0.019": 0.0,
			"0.02": 0.0,
			"0.021": 0.0,
			"0.022": 0.0,
			"0.023": 0.0,
			"0.024": 0.0,
			"0.025": 0.0
		}
	}
}
