{
	 "smiles": "OC(=O)C1=CC2=C(S1)C=CC(F)=C2", 
	 "Tm": 481.15, 
	 "num_atms": 18, 
	 "gaussian": { 
		 "optdone": 1, 
		 "sigma_profile": "yes", 
		 "theory": "DFT", 
		 "functional": "B3LYP", 
		 "basiset": "6-31G**", 
		 "properties": { 
			 "R2extent": 3713.1303, 
			 "electric_dipole_moment_norm": 4.17776530097, 
			 "electric_quadrupole_moment_norm": 16.9405959928, 
			 "total_energy": -994.44519447, 
			 "HOMO_LUMO_gap": 0.16652, 
			 "cosmo_polarized_energy": -12.93, 
			 "cosmo_cavitation_energy": 25.19, 
			 "cosmo_dispersion_energy": -19.13, 
			 "cosmo_repulsion_energy": 1.42, 
			 "cosmo_total_nonelectrostatic_energy": 7.47, 
			 "SMD_solvation_energy": 5.54 
		},
		"coords": [
			{
				"x": 2.2033304361,
				"y": -4.2199011473,
				"z": 1.2316792965,
				"element": "O" 
			},
			{
				"x": 2.5446432926,
				"y": -2.9700540008,
				"z": 0.8263187538,
				"element": "C" 
			},
			{
				"x": 3.6661887316,
				"y": -2.5580649471,
				"z": 1.0080555721,
				"element": "O" 
			},
			{
				"x": 1.5001305454,
				"y": -2.146973212,
				"z": 0.1624509157,
				"element": "C" 
			},
			{
				"x": 1.7188086775,
				"y": -0.8780252313,
				"z": -0.2898596017,
				"element": "C" 
			},
			{
				"x": 0.5658904239,
				"y": -0.2806152581,
				"z": -0.8951259692,
				"element": "C" 
			},
			{
				"x": -0.5534530341,
				"y": -1.1535377981,
				"z": -0.8865739104,
				"element": "C" 
			},
			{
				"x": -0.15465294,
				"y": -2.6867229233,
				"z": -0.1328916789,
				"element": "S" 
			},
			{
				"x": -1.7859121924,
				"y": -0.7723029643,
				"z": -1.4280067576,
				"element": "C" 
			},
			{
				"x": -1.9018325221,
				"y": 0.4948692185,
				"z": -1.9842547933,
				"element": "C" 
			},
			{
				"x": -0.7928521717,
				"y": 1.3547917012,
				"z": -1.9907184195,
				"element": "C" 
			},
			{
				"x": -0.9437360896,
				"y": 2.577020324,
				"z": -2.5394225015,
				"element": "F" 
			},
			{
				"x": 0.4330203859,
				"y": 1.0020322419,
				"z": -1.462982048,
				"element": "C" 
			},
			{
				"x": 1.2806391447,
				"y": -4.4310514908,
				"z": 1.0294076074,
				"element": "H" 
			},
			{
				"x": 2.6839561268,
				"y": -0.3971689426,
				"z": -0.1856932522,
				"element": "H" 
			},
			{
				"x": -2.6365391955,
				"y": -1.4458217436,
				"z": -1.4173191237,
				"element": "H" 
			},
			{
				"x": -2.8350945503,
				"y": 0.838004832,
				"z": -2.4166359569,
				"element": "H" 
			},
			{
				"x": 1.2617649314,
				"y": 1.7008213417,
				"z": -1.4908281326,
				"element": "H" 
			}
		],
		 "valence_orbital": [ 
			{
				"type": "occ",
				"energy": -0.32302,
				"method": "rhf"
			},
			{
				"type": "occ",
				"energy": -0.30784,
				"method": "rhf"
			},
			{
				"type": "occ",
				"energy": -0.28378,
				"method": "rhf"
			},
			{
				"type": "occ",
				"energy": -0.25476,
				"method": "rhf"
			},
			{
				"type": "occ",
				"energy": -0.24257,
				"method": "rhf"
			},
			{
				"type": "unocc",
				"energy": -0.07605,
				"method": "rhf"
			},
			{
				"type": "unocc",
				"energy": -0.02164,
				"method": "rhf"
			},
			{
				"type": "unocc",
				"energy": -0.01941,
				"method": "rhf"
			},
			{
				"type": "unocc",
				"energy": 0.0054,
				"method": "rhf"
			},
			{
				"type": "unocc",
				"energy": 0.052,
				"method": "rhf"
			}
		],
		"cosmo_sigma_profile": { 
			"-0.025": 0.0,
			"-0.024": 0.0,
			"-0.023": 0.0,
			"-0.022": 0.0,
			"-0.021": 0.0,
			"-0.02": 0.0,
			"-0.019": 0.015382239715,
			"-0.018": 0.552242311629,
			"-0.017": 0.887161658671,
			"-0.016": 1.13826509683,
			"-0.015": 0.696863226111,
			"-0.014": 0.7154608093,
			"-0.013": 0.752736066911,
			"-0.012": 1.40863490276,
			"-0.011": 0.959850133031,
			"-0.01": 1.10118149966,
			"-0.009": 1.03660375778,
			"-0.008": 8.80197944313,
			"-0.007": 10.1249003208,
			"-0.006": 9.0926677098,
			"-0.005": 6.89784574012,
			"-0.004": 7.4404045743,
			"-0.003": 8.76539272973,
			"-0.002": 8.56678886039,
			"-0.001": 11.09083862,
			"0.0": 19.6257836951,
			"0.001": 28.9076266189,
			"0.002": 21.7474150642,
			"0.003": 11.9939953934,
			"0.004": 12.8671611402,
			"0.005": 4.45106845827,
			"0.006": 2.30970393475,
			"0.007": 2.05179488945,
			"0.008": 3.39499215363,
			"0.009": 3.23097506902,
			"0.01": 5.17066730957,
			"0.011": 5.51702101946,
			"0.012": 3.56671721045,
			"0.013": 0.727573812035,
			"0.014": 0.0,
			"0.015": 0.0,
			"0.016": 0.0,
			"0.017": 0.0,
			"0.018": 0.0,
			"0.019": 0.0,
			"0.02": 0.0,
			"0.021": 0.0,
			"0.022": 0.0,
			"0.023": 0.0,
			"0.024": 0.0,
			"0.025": 0.0
		}
	}
}
