{
	 "smiles": "COC(=O)C(C#N)=C1SC(S1)=C(C#N)C(=O)OC", 
	 "Tm": 515.15, 
	 "num_atms": 24, 
	 "gaussian": { 
		 "optdone": 1, 
		 "sigma_profile": "yes", 
		 "theory": "DFT", 
		 "functional": "B3LYP", 
		 "basiset": "6-31G**", 
		 "properties": { 
			 "R2extent": 6872.1565, 
			 "electric_dipole_moment_norm": 3.39704134505, 
			 "electric_quadrupole_moment_norm": 48.1163502332, 
			 "total_energy": -1591.3731168, 
			 "HOMO_LUMO_gap": 0.14705, 
			 "cosmo_polarized_energy": -18.13, 
			 "cosmo_cavitation_energy": 36.22, 
			 "cosmo_dispersion_energy": -25.3, 
			 "cosmo_repulsion_energy": 1.9, 
			 "cosmo_total_nonelectrostatic_energy": 12.82, 
			 "SMD_solvation_energy": 11.69 
		},
		"coords": [
			{
				"x": 5.1750091063,
				"y": 1.0511135798,
				"z": 3.1759629184,
				"element": "C" 
			},
			{
				"x": 4.0288330346,
				"y": 1.6118508619,
				"z": 2.5034622491,
				"element": "O" 
			},
			{
				"x": 3.1092545025,
				"y": 0.73371452,
				"z": 2.0962160857,
				"element": "C" 
			},
			{
				"x": 3.1776866381,
				"y": -0.4748237479,
				"z": 2.2533910066,
				"element": "O" 
			},
			{
				"x": 1.9616135998,
				"y": 1.3812215631,
				"z": 1.4143040031,
				"element": "C" 
			},
			{
				"x": 1.8910688691,
				"y": 2.7930895231,
				"z": 1.2358160364,
				"element": "C" 
			},
			{
				"x": 1.8007064835,
				"y": 3.9422661479,
				"z": 1.0728783333,
				"element": "N" 
			},
			{
				"x": 0.9653687833,
				"y": 0.5803197817,
				"z": 0.9579623392,
				"element": "C" 
			},
			{
				"x": 0.8142435977,
				"y": -1.1760060034,
				"z": 1.0514497178,
				"element": "S" 
			},
			{
				"x": -0.7009194165,
				"y": -0.7892495711,
				"z": 0.1976359643,
				"element": "C" 
			},
			{
				"x": -0.5362368368,
				"y": 0.9733025741,
				"z": 0.1109039125,
				"element": "S" 
			},
			{
				"x": -1.6785535363,
				"y": -1.61806927,
				"z": -0.2459865367,
				"element": "C" 
			},
			{
				"x": -1.5396420481,
				"y": -3.0232112572,
				"z": -0.0314097584,
				"element": "C" 
			},
			{
				"x": -1.3809118539,
				"y": -4.158630055,
				"z": 0.1671462973,
				"element": "N" 
			},
			{
				"x": -2.9054136536,
				"y": -1.154702658,
				"z": -0.9523681786,
				"element": "C" 
			},
			{
				"x": -3.7815350301,
				"y": -1.8865073258,
				"z": -1.3514858675,
				"element": "O" 
			},
			{
				"x": -2.9082306415,
				"y": 0.1904294717,
				"z": -1.0871740416,
				"element": "O" 
			},
			{
				"x": -4.0565639951,
				"y": 0.7467359448,
				"z": -1.7604162203,
				"element": "C" 
			},
			{
				"x": 5.7027322758,
				"y": 0.361745457,
				"z": 2.5133175101,
				"element": "H" 
			},
			{
				"x": 4.8620099318,
				"y": 0.5171534705,
				"z": 4.0758153007,
				"element": "H" 
			},
			{
				"x": 5.8042208049,
				"y": 1.9026010446,
				"z": 3.429826291,
				"element": "H" 
			},
			{
				"x": -4.9688801143,
				"y": 0.5028022798,
				"z": -1.2123009205,
				"element": "H" 
			},
			{
				"x": -4.1277359252,
				"y": 0.3484610896,
				"z": -2.7746035503,
				"element": "H" 
			},
			{
				"x": -3.8905245758,
				"y": 1.8227925788,
				"z": -1.7773428916,
				"element": "H" 
			}
		],
		 "valence_orbital": [ 
			{
				"type": "occ",
				"energy": -0.31709,
				"method": "rhf"
			},
			{
				"type": "occ",
				"energy": -0.3123,
				"method": "rhf"
			},
			{
				"type": "occ",
				"energy": -0.305,
				"method": "rhf"
			},
			{
				"type": "occ",
				"energy": -0.30359,
				"method": "rhf"
			},
			{
				"type": "occ",
				"energy": -0.26051,
				"method": "rhf"
			},
			{
				"type": "unocc",
				"energy": -0.11346,
				"method": "rhf"
			},
			{
				"type": "unocc",
				"energy": -0.07563,
				"method": "rhf"
			},
			{
				"type": "unocc",
				"energy": -0.06942,
				"method": "rhf"
			},
			{
				"type": "unocc",
				"energy": -0.01218,
				"method": "rhf"
			},
			{
				"type": "unocc",
				"energy": -0.00361,
				"method": "rhf"
			}
		],
		"cosmo_sigma_profile": { 
			"-0.025": 0.0,
			"-0.024": 0.0,
			"-0.023": 0.0,
			"-0.022": 0.0,
			"-0.021": 0.0,
			"-0.02": 0.0,
			"-0.019": 0.0,
			"-0.018": 0.0,
			"-0.017": 0.0,
			"-0.016": 0.0,
			"-0.015": 0.0,
			"-0.014": 0.0,
			"-0.013": 0.0,
			"-0.012": 0.0,
			"-0.011": 0.0,
			"-0.01": 0.0,
			"-0.009": 0.0,
			"-0.008": 0.843788565619,
			"-0.007": 9.87502871276,
			"-0.006": 24.2922743891,
			"-0.005": 37.0891891788,
			"-0.004": 38.7273841906,
			"-0.003": 22.7567311403,
			"-0.002": 18.517731008,
			"-0.001": 15.2167345581,
			"0.0": 15.5661865779,
			"0.001": 15.9789983168,
			"0.002": 9.27348667857,
			"0.003": 7.9820263753,
			"0.004": 8.59993913164,
			"0.005": 11.1166297229,
			"0.006": 10.2506343952,
			"0.007": 10.4612803018,
			"0.008": 8.87478287115,
			"0.009": 9.92984133553,
			"0.01": 11.9117997623,
			"0.011": 7.65859909041,
			"0.012": 2.73187282455,
			"0.013": 0.0156908576306,
			"0.014": 0.0,
			"0.015": 0.0,
			"0.016": 0.0,
			"0.017": 0.0,
			"0.018": 0.0,
			"0.019": 0.0,
			"0.02": 0.0,
			"0.021": 0.0,
			"0.022": 0.0,
			"0.023": 0.0,
			"0.024": 0.0,
			"0.025": 0.0
		}
	}
}
