{
	 "smiles": "O=C1NC2=CC=CC=C2C=C1", 
	 "Tm": 472.15, 
	 "num_atms": 18, 
	 "gaussian": { 
		 "optdone": 1, 
		 "sigma_profile": "yes", 
		 "theory": "DFT", 
		 "functional": "B3LYP", 
		 "basiset": "6-31G**", 
		 "properties": { 
			 "R2extent": 1832.3003, 
			 "electric_dipole_moment_norm": 3.98837883607, 
			 "electric_quadrupole_moment_norm": 12.1238913877, 
			 "total_energy": -477.175025796, 
			 "HOMO_LUMO_gap": 0.16527, 
			 "cosmo_polarized_energy": -12.37, 
			 "cosmo_cavitation_energy": 22.07, 
			 "cosmo_dispersion_energy": -16.72, 
			 "cosmo_repulsion_energy": 1.32, 
			 "cosmo_total_nonelectrostatic_energy": 6.67, 
			 "SMD_solvation_energy": 4.3 
		},
		"coords": [
			{
				"x": -1.9658329649,
				"y": 2.0220157818,
				"z": 2.1582049941,
				"element": "O" 
			},
			{
				"x": -1.7242159131,
				"y": 1.2021270993,
				"z": 1.2789882667,
				"element": "C" 
			},
			{
				"x": -0.5757307829,
				"y": 1.3231779497,
				"z": 0.4883820601,
				"element": "N" 
			},
			{
				"x": -0.1893535333,
				"y": 0.4733107766,
				"z": -0.529085537,
				"element": "C" 
			},
			{
				"x": 0.9899589906,
				"y": 0.6918197108,
				"z": -1.2610655729,
				"element": "C" 
			},
			{
				"x": 1.3426909338,
				"y": -0.1865580174,
				"z": -2.2763257059,
				"element": "C" 
			},
			{
				"x": 0.5347830634,
				"y": -1.29381909,
				"z": -2.5829345391,
				"element": "C" 
			},
			{
				"x": -0.629750941,
				"y": -1.512199651,
				"z": -1.8623866754,
				"element": "C" 
			},
			{
				"x": -1.0151688424,
				"y": -0.6400319629,
				"z": -0.8269014292,
				"element": "C" 
			},
			{
				"x": -2.2133430761,
				"y": -0.8168580952,
				"z": -0.0451451234,
				"element": "C" 
			},
			{
				"x": -2.5537932005,
				"y": 0.0431437772,
				"z": 0.945205494,
				"element": "C" 
			},
			{
				"x": 0.0017632409,
				"y": 2.1236421348,
				"z": 0.7151474805,
				"element": "H" 
			},
			{
				"x": 1.6172037133,
				"y": 1.5476041727,
				"z": -1.0262835968,
				"element": "H" 
			},
			{
				"x": 2.255584695,
				"y": -0.0114309706,
				"z": -2.8378724578,
				"element": "H" 
			},
			{
				"x": 0.8215901737,
				"y": -1.9731525118,
				"z": -3.379056395,
				"element": "H" 
			},
			{
				"x": -1.2647321641,
				"y": -2.3648121501,
				"z": -2.0885432742,
				"element": "H" 
			},
			{
				"x": -2.8493224323,
				"y": -1.6699174839,
				"z": -0.2709759525,
				"element": "H" 
			},
			{
				"x": -3.45233096,
				"y": -0.0813614699,
				"z": 1.5382479639,
				"element": "H" 
			}
		],
		 "valence_orbital": [ 
			{
				"type": "occ",
				"energy": -0.32336,
				"method": "rhf"
			},
			{
				"type": "occ",
				"energy": -0.30909,
				"method": "rhf"
			},
			{
				"type": "occ",
				"energy": -0.25035,
				"method": "rhf"
			},
			{
				"type": "occ",
				"energy": -0.24868,
				"method": "rhf"
			},
			{
				"type": "occ",
				"energy": -0.22068,
				"method": "rhf"
			},
			{
				"type": "unocc",
				"energy": -0.05541,
				"method": "rhf"
			},
			{
				"type": "unocc",
				"energy": -0.00867,
				"method": "rhf"
			},
			{
				"type": "unocc",
				"energy": 0.01171,
				"method": "rhf"
			},
			{
				"type": "unocc",
				"energy": 0.08065,
				"method": "rhf"
			},
			{
				"type": "unocc",
				"energy": 0.09318,
				"method": "rhf"
			}
		],
		"cosmo_sigma_profile": { 
			"-0.025": 0.0,
			"-0.024": 0.0,
			"-0.023": 0.0,
			"-0.022": 0.0,
			"-0.021": 0.0,
			"-0.02": 0.0,
			"-0.019": 0.0,
			"-0.018": 0.0,
			"-0.017": 0.0,
			"-0.016": 0.0326082227799,
			"-0.015": 0.918674060731,
			"-0.014": 1.13701371132,
			"-0.013": 1.4334545672,
			"-0.012": 1.32439948502,
			"-0.011": 0.953054951134,
			"-0.01": 0.799571907475,
			"-0.009": 1.58451674471,
			"-0.008": 1.96504045536,
			"-0.007": 7.70616558088,
			"-0.006": 12.1597644707,
			"-0.005": 12.4257875574,
			"-0.004": 11.882124994,
			"-0.003": 8.68211073227,
			"-0.002": 8.42869227962,
			"-0.001": 10.6869980546,
			"0.0": 13.3441575487,
			"0.001": 16.3895042998,
			"0.002": 15.8800081057,
			"0.003": 13.4451917994,
			"0.004": 10.2444018509,
			"0.005": 4.9748735579,
			"0.006": 1.40756491117,
			"0.007": 0.919179800108,
			"0.008": 1.4311861128,
			"0.009": 1.4787835034,
			"0.01": 1.05688194033,
			"0.011": 0.84976472428,
			"0.012": 1.99477191163,
			"0.013": 2.87592880172,
			"0.014": 6.21236801315,
			"0.015": 2.46826769775,
			"0.016": 0.154704863849,
			"0.017": 0.0,
			"0.018": 0.0,
			"0.019": 0.0,
			"0.02": 0.0,
			"0.021": 0.0,
			"0.022": 0.0,
			"0.023": 0.0,
			"0.024": 0.0,
			"0.025": 0.0
		}
	}
}
