{
	 "smiles": "CC12CCC3C(CCC4CC(O)CCC34C)C1CCC2C1(C)OCCO1", 
	 "Tm": 447.15, 
	 "num_atms": 64, 
	 "gaussian": { 
		 "optdone": 1, 
		 "sigma_profile": "yes", 
		 "theory": "DFT", 
		 "functional": "B3LYP", 
		 "basiset": "6-31G**", 
		 "properties": { 
			 "R2extent": 11570.3154, 
			 "electric_dipole_moment_norm": 1.58888849514, 
			 "electric_quadrupole_moment_norm": 16.5763843199, 
			 "total_energy": -1125.02019811, 
			 "HOMO_LUMO_gap": 0.31443, 
			 "cosmo_polarized_energy": -11.11, 
			 "cosmo_cavitation_energy": 53.51, 
			 "cosmo_dispersion_energy": -36.85, 
			 "cosmo_repulsion_energy": 2.7, 
			 "cosmo_total_nonelectrostatic_energy": 19.35, 
			 "SMD_solvation_energy": 7.09 
		},
		"coords": [
			{
				"x": 2.5139999692,
				"y": -0.2080250554,
				"z": 2.1315714023,
				"element": "C" 
			},
			{
				"x": 1.3704949969,
				"y": -0.7653493714,
				"z": 1.2588027855,
				"element": "C" 
			},
			{
				"x": 0.0540636693,
				"y": -0.0388728078,
				"z": 1.6223595531,
				"element": "C" 
			},
			{
				"x": 0.0175930029,
				"y": 1.3935301787,
				"z": 1.070725748,
				"element": "C" 
			},
			{
				"x": 0.0866010542,
				"y": 1.4439021853,
				"z": -0.4815828301,
				"element": "C" 
			},
			{
				"x": 0.600639163,
				"y": 0.1180289866,
				"z": -1.0912712016,
				"element": "C" 
			},
			{
				"x": 1.0469517044,
				"y": 0.3775327862,
				"z": -2.5529923479,
				"element": "C" 
			},
			{
				"x": 0.1046945097,
				"y": 1.3549382412,
				"z": -3.3069004678,
				"element": "C" 
			},
			{
				"x": -1.2771762118,
				"y": 1.3479693901,
				"z": -2.6464569929,
				"element": "C" 
			},
			{
				"x": -2.438755412,
				"y": 1.9160280479,
				"z": -3.4739112375,
				"element": "C" 
			},
			{
				"x": -3.7689577121,
				"y": 1.5275344745,
				"z": -2.8093963371,
				"element": "C" 
			},
			{
				"x": -4.9033169816,
				"y": 2.0220963766,
				"z": -3.5174039219,
				"element": "O" 
			},
			{
				"x": -3.8053385386,
				"y": 1.9333890716,
				"z": -1.3273852925,
				"element": "C" 
			},
			{
				"x": -2.5536800379,
				"y": 1.5120614604,
				"z": -0.5262466516,
				"element": "C" 
			},
			{
				"x": -1.228046463,
				"y": 1.9525043309,
				"z": -1.2040821478,
				"element": "C" 
			},
			{
				"x": -1.143243883,
				"y": 3.496864129,
				"z": -1.2085125681,
				"element": "C" 
			},
			{
				"x": 1.7289554589,
				"y": -0.5393995806,
				"z": -0.270051664,
				"element": "C" 
			},
			{
				"x": 2.124693337,
				"y": -1.9334418805,
				"z": -0.8407869416,
				"element": "C" 
			},
			{
				"x": 2.299307038,
				"y": -2.8526153973,
				"z": 0.3746388683,
				"element": "C" 
			},
			{
				"x": 1.2422550988,
				"y": -2.323641945,
				"z": 1.3581189172,
				"element": "C" 
			},
			{
				"x": 1.2266731822,
				"y": -3.0288445031,
				"z": 2.7358808583,
				"element": "C" 
			},
			{
				"x": 2.5753581352,
				"y": -3.2637875318,
				"z": 3.4183305727,
				"element": "C" 
			},
			{
				"x": 0.3809263103,
				"y": -2.3291474199,
				"z": 3.665924315,
				"element": "O" 
			},
			{
				"x": -0.8130002977,
				"y": -3.0833205414,
				"z": 3.8503952646,
				"element": "C" 
			},
			{
				"x": -0.3541949664,
				"y": -4.5070473198,
				"z": 3.551130271,
				"element": "C" 
			},
			{
				"x": 0.600764186,
				"y": -4.3076989274,
				"z": 2.5172736181,
				"element": "O" 
			},
			{
				"x": 3.4671595462,
				"y": -0.7056917082,
				"z": 1.9246079746,
				"element": "H" 
			},
			{
				"x": 2.6666483592,
				"y": 0.8578666646,
				"z": 1.9339266013,
				"element": "H" 
			},
			{
				"x": 2.2909094217,
				"y": -0.3165085777,
				"z": 3.1971348767,
				"element": "H" 
			},
			{
				"x": -0.0700191877,
				"y": -0.0343515973,
				"z": 2.7089971609,
				"element": "H" 
			},
			{
				"x": -0.7987955849,
				"y": -0.6026427587,
				"z": 1.2221502555,
				"element": "H" 
			},
			{
				"x": 0.8623351661,
				"y": 1.9534912671,
				"z": 1.4871235315,
				"element": "H" 
			},
			{
				"x": -0.8729941855,
				"y": 1.9070662509,
				"z": 1.4443395061,
				"element": "H" 
			},
			{
				"x": 0.8531867595,
				"y": 2.1892174011,
				"z": -0.7358645538,
				"element": "H" 
			},
			{
				"x": -0.2304799634,
				"y": -0.6020809254,
				"z": -1.1066960118,
				"element": "H" 
			},
			{
				"x": 2.068403277,
				"y": 0.7800458274,
				"z": -2.5433222532,
				"element": "H" 
			},
			{
				"x": 1.0994935401,
				"y": -0.5749211453,
				"z": -3.0923148514,
				"element": "H" 
			},
			{
				"x": 0.0228185695,
				"y": 1.0636695596,
				"z": -4.3605785238,
				"element": "H" 
			},
			{
				"x": 0.5201057687,
				"y": 2.3701855416,
				"z": -3.3069335478,
				"element": "H" 
			},
			{
				"x": -1.530776259,
				"y": 0.28505294,
				"z": -2.5161413079,
				"element": "H" 
			},
			{
				"x": -2.418871037,
				"y": 1.5100520438,
				"z": -4.4923245319,
				"element": "H" 
			},
			{
				"x": -2.3711772844,
				"y": 3.008426301,
				"z": -3.5714727926,
				"element": "H" 
			},
			{
				"x": -3.8662920626,
				"y": 0.4355019879,
				"z": -2.8739974137,
				"element": "H" 
			},
			{
				"x": -4.8647489284,
				"y": 2.9877712524,
				"z": -3.4849602706,
				"element": "H" 
			},
			{
				"x": -4.7055791194,
				"y": 1.5113938352,
				"z": -0.8665210412,
				"element": "H" 
			},
			{
				"x": -3.9244760115,
				"y": 3.0247712325,
				"z": -1.2752525673,
				"element": "H" 
			},
			{
				"x": -2.5516606315,
				"y": 0.4194097144,
				"z": -0.4113081594,
				"element": "H" 
			},
			{
				"x": -2.6409475357,
				"y": 1.9271343341,
				"z": 0.4832437208,
				"element": "H" 
			},
			{
				"x": -0.2966134017,
				"y": 3.8481966476,
				"z": -1.8078393666,
				"element": "H" 
			},
			{
				"x": -2.0408375237,
				"y": 3.9854559201,
				"z": -1.5937249603,
				"element": "H" 
			},
			{
				"x": -0.9910310312,
				"y": 3.862124785,
				"z": -0.1863907296,
				"element": "H" 
			},
			{
				"x": 2.5990204956,
				"y": 0.1300569118,
				"z": -0.3187141252,
				"element": "H" 
			},
			{
				"x": 1.3100700013,
				"y": -2.3193480768,
				"z": -1.4666553425,
				"element": "H" 
			},
			{
				"x": 3.0156658014,
				"y": -1.8925270762,
				"z": -1.4750284159,
				"element": "H" 
			},
			{
				"x": 2.1590504952,
				"y": -3.9119413631,
				"z": 0.1388110163,
				"element": "H" 
			},
			{
				"x": 3.306029715,
				"y": -2.7432548102,
				"z": 0.7942818586,
				"element": "H" 
			},
			{
				"x": 0.2613986882,
				"y": -2.5730586826,
				"z": 0.9308350302,
				"element": "H" 
			},
			{
				"x": 3.2316389427,
				"y": -3.858893793,
				"z": 2.7797712263,
				"element": "H" 
			},
			{
				"x": 3.0761324019,
				"y": -2.3270095812,
				"z": 3.6648643325,
				"element": "H" 
			},
			{
				"x": 2.4049045151,
				"y": -3.8143955105,
				"z": 4.3472402365,
				"element": "H" 
			},
			{
				"x": -1.1649854491,
				"y": -2.9349973997,
				"z": 4.875544949,
				"element": "H" 
			},
			{
				"x": -1.5983029464,
				"y": -2.7603136977,
				"z": 3.1515810152,
				"element": "H" 
			},
			{
				"x": 0.1015772192,
				"y": -4.9733460393,
				"z": 4.4378115761,
				"element": "H" 
			},
			{
				"x": -1.1442208524,
				"y": -5.1613950529,
				"z": 3.1724043265,
				"element": "H" 
			}
		],
		 "valence_orbital": [ 
			{
				"type": "occ",
				"energy": -0.27247,
				"method": "rhf"
			},
			{
				"type": "occ",
				"energy": -0.26815,
				"method": "rhf"
			},
			{
				"type": "occ",
				"energy": -0.26184,
				"method": "rhf"
			},
			{
				"type": "occ",
				"energy": -0.2503,
				"method": "rhf"
			},
			{
				"type": "occ",
				"energy": -0.24554,
				"method": "rhf"
			},
			{
				"type": "unocc",
				"energy": 0.06889,
				"method": "rhf"
			},
			{
				"type": "unocc",
				"energy": 0.07465,
				"method": "rhf"
			},
			{
				"type": "unocc",
				"energy": 0.08148,
				"method": "rhf"
			},
			{
				"type": "unocc",
				"energy": 0.08602,
				"method": "rhf"
			},
			{
				"type": "unocc",
				"energy": 0.09715,
				"method": "rhf"
			}
		],
		"cosmo_sigma_profile": { 
			"-0.025": 0.0,
			"-0.024": 0.0,
			"-0.023": 0.0,
			"-0.022": 0.0,
			"-0.021": 0.0,
			"-0.02": 0.0,
			"-0.019": 0.0,
			"-0.018": 0.0,
			"-0.017": 0.0,
			"-0.016": 0.0,
			"-0.015": 0.157556691741,
			"-0.014": 0.711911015161,
			"-0.013": 1.16340136209,
			"-0.012": 0.220643548823,
			"-0.011": 0.719071455941,
			"-0.01": 1.7664508714,
			"-0.009": 0.79432557703,
			"-0.008": 0.931642009447,
			"-0.007": 1.37788889742,
			"-0.006": 3.62995088807,
			"-0.005": 8.91288894082,
			"-0.004": 17.6132893316,
			"-0.003": 28.5020214859,
			"-0.002": 60.3278451544,
			"-0.001": 76.6080676597,
			"0.0": 70.9239704886,
			"0.001": 52.5865265838,
			"0.002": 30.3819015396,
			"0.003": 7.0391923298,
			"0.004": 6.35317446022,
			"0.005": 5.57458385855,
			"0.006": 4.64290626874,
			"0.007": 3.95556104624,
			"0.008": 3.7225619911,
			"0.009": 3.37472723026,
			"0.01": 2.82115368659,
			"0.011": 3.61036221127,
			"0.012": 3.88079925609,
			"0.013": 1.74475373649,
			"0.014": 1.79610626115,
			"0.015": 2.24169619471,
			"0.016": 0.0502321453321,
			"0.017": 0.0,
			"0.018": 0.0,
			"0.019": 0.0,
			"0.02": 0.0,
			"0.021": 0.0,
			"0.022": 0.0,
			"0.023": 0.0,
			"0.024": 0.0,
			"0.025": 0.0
		}
	}
}
