{
	 "smiles": "CSC1=CC2=C(C=C1)C(=O)CCC2", 
	 "Tm": 348.15, 
	 "num_atms": 25, 
	 "gaussian": { 
		 "optdone": 1, 
		 "sigma_profile": "yes", 
		 "theory": "DFT", 
		 "functional": "B3LYP", 
		 "basiset": "6-31G**", 
		 "properties": { 
			 "R2extent": 4664.6599, 
			 "electric_dipole_moment_norm": 4.63309601347, 
			 "electric_quadrupole_moment_norm": 7.52059096082, 
			 "total_energy": -899.832594435, 
			 "HOMO_LUMO_gap": 0.16741, 
			 "cosmo_polarized_energy": -10.75, 
			 "cosmo_cavitation_energy": 28.9, 
			 "cosmo_dispersion_energy": -21.91, 
			 "cosmo_repulsion_energy": 1.68, 
			 "cosmo_total_nonelectrostatic_energy": 8.67, 
			 "SMD_solvation_energy": 4.78 
		},
		"coords": [
			{
				"x": 2.7165424418,
				"y": 2.9100667645,
				"z": 3.8725757576,
				"element": "C" 
			},
			{
				"x": 0.9729911417,
				"y": 2.4963336222,
				"z": 4.1974302985,
				"element": "S" 
			},
			{
				"x": 0.3388206605,
				"y": 2.0360780534,
				"z": 2.6034248786,
				"element": "C" 
			},
			{
				"x": 1.0865865173,
				"y": 2.0479917754,
				"z": 1.4205693212,
				"element": "C" 
			},
			{
				"x": 0.5133390257,
				"y": 1.6726542656,
				"z": 0.199668123,
				"element": "C" 
			},
			{
				"x": -0.839743853,
				"y": 1.2837284329,
				"z": 0.1656950069,
				"element": "C" 
			},
			{
				"x": -1.588073056,
				"y": 1.2795465435,
				"z": 1.3564202825,
				"element": "C" 
			},
			{
				"x": -1.015275729,
				"y": 1.6454141936,
				"z": 2.5606548776,
				"element": "C" 
			},
			{
				"x": -1.5077281644,
				"y": 0.8747480504,
				"z": -1.1005244996,
				"element": "C" 
			},
			{
				"x": -2.6850884943,
				"y": 0.5428898209,
				"z": -1.1309523644,
				"element": "O" 
			},
			{
				"x": -0.6533079736,
				"y": 0.8628501966,
				"z": -2.3628158651,
				"element": "C" 
			},
			{
				"x": 0.4861812574,
				"y": 1.887352809,
				"z": -2.3178576941,
				"element": "C" 
			},
			{
				"x": 1.3461542376,
				"y": 1.6745651521,
				"z": -1.0660480382,
				"element": "C" 
			},
			{
				"x": 3.2666571123,
				"y": 2.0504911684,
				"z": 3.4828568078,
				"element": "H" 
			},
			{
				"x": 2.8079188596,
				"y": 3.7591218807,
				"z": 3.191328025,
				"element": "H" 
			},
			{
				"x": 3.1356875205,
				"y": 3.1882694565,
				"z": 4.8416617519,
				"element": "H" 
			},
			{
				"x": 2.127122892,
				"y": 2.3543558549,
				"z": 1.4299867122,
				"element": "H" 
			},
			{
				"x": -2.6289311742,
				"y": 0.9776067691,
				"z": 1.3000333921,
				"element": "H" 
			},
			{
				"x": -1.6040970434,
				"y": 1.634908032,
				"z": 3.473427898,
				"element": "H" 
			},
			{
				"x": -1.3184255143,
				"y": 1.0079328205,
				"z": -3.2186272535,
				"element": "H" 
			},
			{
				"x": -0.2333524643,
				"y": -0.1503082332,
				"z": -2.4571241573,
				"element": "H" 
			},
			{
				"x": 1.1033069745,
				"y": 1.810839196,
				"z": -3.2195923395,
				"element": "H" 
			},
			{
				"x": 0.0678040114,
				"y": 2.9017511736,
				"z": -2.3037520149,
				"element": "H" 
			},
			{
				"x": 2.1270532069,
				"y": 2.4400868323,
				"z": -0.9953233484,
				"element": "H" 
			},
			{
				"x": 1.8703576074,
				"y": 0.7104253693,
				"z": -1.1513155579,
				"element": "H" 
			}
		],
		 "valence_orbital": [ 
			{
				"type": "occ",
				"energy": -0.32318,
				"method": "rhf"
			},
			{
				"type": "occ",
				"energy": -0.28643,
				"method": "rhf"
			},
			{
				"type": "occ",
				"energy": -0.25452,
				"method": "rhf"
			},
			{
				"type": "occ",
				"energy": -0.23696,
				"method": "rhf"
			},
			{
				"type": "occ",
				"energy": -0.21762,
				"method": "rhf"
			},
			{
				"type": "unocc",
				"energy": -0.05021,
				"method": "rhf"
			},
			{
				"type": "unocc",
				"energy": -0.01019,
				"method": "rhf"
			},
			{
				"type": "unocc",
				"energy": 0.02968,
				"method": "rhf"
			},
			{
				"type": "unocc",
				"energy": 0.04193,
				"method": "rhf"
			},
			{
				"type": "unocc",
				"energy": 0.07002,
				"method": "rhf"
			}
		],
		"cosmo_sigma_profile": { 
			"-0.025": 0.0,
			"-0.024": 0.0,
			"-0.023": 0.0,
			"-0.022": 0.0,
			"-0.021": 0.0,
			"-0.02": 0.0,
			"-0.019": 0.0,
			"-0.018": 0.0,
			"-0.017": 0.0,
			"-0.016": 0.0,
			"-0.015": 0.0,
			"-0.014": 0.0,
			"-0.013": 0.0,
			"-0.012": 0.0,
			"-0.011": 0.0,
			"-0.01": 0.0,
			"-0.009": 0.0,
			"-0.008": 0.151308881789,
			"-0.007": 2.99618221948,
			"-0.006": 12.5023302897,
			"-0.005": 18.8523452099,
			"-0.004": 23.6731240829,
			"-0.003": 25.5350135381,
			"-0.002": 26.4289413695,
			"-0.001": 21.3336131937,
			"0.0": 12.1705994157,
			"0.001": 10.2746355451,
			"0.002": 10.8417651437,
			"0.003": 13.6856094589,
			"0.004": 18.0939936171,
			"0.005": 6.54721420305,
			"0.006": 4.99804523069,
			"0.007": 4.24555020694,
			"0.008": 3.91695957773,
			"0.009": 1.92062509636,
			"0.01": 1.47531469485,
			"0.011": 2.69547825522,
			"0.012": 3.88844456719,
			"0.013": 3.233087726,
			"0.014": 1.04214983236,
			"0.015": 0.0069435279978,
			"0.016": 0.0,
			"0.017": 0.0,
			"0.018": 0.0,
			"0.019": 0.0,
			"0.02": 0.0,
			"0.021": 0.0,
			"0.022": 0.0,
			"0.023": 0.0,
			"0.024": 0.0,
			"0.025": 0.0
		}
	}
}
