{
	 "smiles": "[O-][N+](=O)CC(=O)NC1=CC=CC=C1", 
	 "Tm": 366.65, 
	 "num_atms": 21, 
	 "gaussian": { 
		 "optdone": 1, 
		 "sigma_profile": "yes", 
		 "theory": "DFT", 
		 "functional": "B3LYP", 
		 "basiset": "6-31G**", 
		 "properties": { 
			 "R2extent": 2892.5889, 
			 "electric_dipole_moment_norm": 5.72882225331, 
			 "electric_quadrupole_moment_norm": 10.9653562728, 
			 "total_energy": -644.751086294, 
			 "HOMO_LUMO_gap": 0.1725, 
			 "cosmo_polarized_energy": -14.86, 
			 "cosmo_cavitation_energy": 26.21, 
			 "cosmo_dispersion_energy": -18.76, 
			 "cosmo_repulsion_energy": 1.5, 
			 "cosmo_total_nonelectrostatic_energy": 8.95, 
			 "SMD_solvation_energy": 7.18 
		},
		"coords": [
			{
				"x": 1.2797033312,
				"y": 0.4217819825,
				"z": -2.9229799733,
				"element": "O" 
			},
			{
				"x": 0.2106181795,
				"y": 0.9939906081,
				"z": -3.127281986,
				"element": "N" 
			},
			{
				"x": -0.3130232544,
				"y": 1.1623374459,
				"z": -4.2184769625,
				"element": "O" 
			},
			{
				"x": -0.5372146382,
				"y": 1.4952294564,
				"z": -1.91700008,
				"element": "C" 
			},
			{
				"x": 0.4061458647,
				"y": 2.2729656586,
				"z": -0.9947158601,
				"element": "C" 
			},
			{
				"x": 0.8662974433,
				"y": 3.3419350937,
				"z": -1.3600559879,
				"element": "O" 
			},
			{
				"x": 0.6345065354,
				"y": 1.7755780105,
				"z": 0.2628644009,
				"element": "N" 
			},
			{
				"x": 0.308479966,
				"y": 0.5170794426,
				"z": 0.8414364526,
				"element": "C" 
			},
			{
				"x": 0.5665435168,
				"y": -0.6856935803,
				"z": 0.1702983992,
				"element": "C" 
			},
			{
				"x": 0.2419755183,
				"y": -1.8987769967,
				"z": 0.7801797986,
				"element": "C" 
			},
			{
				"x": -0.3012421673,
				"y": -1.924376136,
				"z": 2.0653284009,
				"element": "C" 
			},
			{
				"x": -0.5287876936,
				"y": -0.7242218984,
				"z": 2.7432226814,
				"element": "C" 
			},
			{
				"x": -0.2347342071,
				"y": 0.4937005053,
				"z": 2.1331102469,
				"element": "C" 
			},
			{
				"x": -1.3025432219,
				"y": 2.1734836645,
				"z": -2.2895475358,
				"element": "H" 
			},
			{
				"x": -0.9896527322,
				"y": 0.6149454508,
				"z": -1.458698448,
				"element": "H" 
			},
			{
				"x": 1.1523286275,
				"y": 2.4296348864,
				"z": 0.8388614027,
				"element": "H" 
			},
			{
				"x": 1.0346507281,
				"y": -0.6626222492,
				"z": -0.8083058463,
				"element": "H" 
			},
			{
				"x": 0.4390725863,
				"y": -2.8275875273,
				"z": 0.2530909155,
				"element": "H" 
			},
			{
				"x": -0.5387491524,
				"y": -2.8718274993,
				"z": 2.5392177049,
				"element": "H" 
			},
			{
				"x": -0.9468965688,
				"y": -0.7340930767,
				"z": 3.7454071236,
				"element": "H" 
			},
			{
				"x": -0.4309786612,
				"y": 1.4302367585,
				"z": 2.6475451526,
				"element": "H" 
			}
		],
		 "valence_orbital": [ 
			{
				"type": "occ",
				"energy": -0.30892,
				"method": "rhf"
			},
			{
				"type": "occ",
				"energy": -0.30254,
				"method": "rhf"
			},
			{
				"type": "occ",
				"energy": -0.27538,
				"method": "rhf"
			},
			{
				"type": "occ",
				"energy": -0.27174,
				"method": "rhf"
			},
			{
				"type": "occ",
				"energy": -0.2481,
				"method": "rhf"
			},
			{
				"type": "unocc",
				"energy": -0.0756,
				"method": "rhf"
			},
			{
				"type": "unocc",
				"energy": -0.03402,
				"method": "rhf"
			},
			{
				"type": "unocc",
				"energy": -0.02318,
				"method": "rhf"
			},
			{
				"type": "unocc",
				"energy": -0.00217,
				"method": "rhf"
			},
			{
				"type": "unocc",
				"energy": 0.07878,
				"method": "rhf"
			}
		],
		"cosmo_sigma_profile": { 
			"-0.025": 0.0,
			"-0.024": 0.0,
			"-0.023": 0.0,
			"-0.022": 0.0,
			"-0.021": 0.0,
			"-0.02": 0.0,
			"-0.019": 0.0,
			"-0.018": 0.0,
			"-0.017": 0.0,
			"-0.016": 0.00643248277839,
			"-0.015": 0.833243270073,
			"-0.014": 1.09162343122,
			"-0.013": 1.32239743746,
			"-0.012": 0.969461348392,
			"-0.011": 1.89688377479,
			"-0.01": 4.03585267591,
			"-0.009": 4.73995119415,
			"-0.008": 5.42713156241,
			"-0.007": 8.05809501924,
			"-0.006": 11.9041963945,
			"-0.005": 11.3387725742,
			"-0.004": 14.5084101553,
			"-0.003": 11.5102677675,
			"-0.002": 11.6279840026,
			"-0.001": 11.6806981277,
			"0.0": 11.4658480447,
			"0.001": 11.3738249645,
			"0.002": 11.4325410496,
			"0.003": 11.7543134606,
			"0.004": 12.7362006266,
			"0.005": 10.7457647221,
			"0.006": 7.22100784085,
			"0.007": 9.17942077383,
			"0.008": 6.3767920614,
			"0.009": 4.42157531846,
			"0.01": 2.02743398892,
			"0.011": 2.05198218722,
			"0.012": 5.06642479172,
			"0.013": 2.75871618794,
			"0.014": 0.0414239272477,
			"0.015": 0.0,
			"0.016": 0.0,
			"0.017": 0.0,
			"0.018": 0.0,
			"0.019": 0.0,
			"0.02": 0.0,
			"0.021": 0.0,
			"0.022": 0.0,
			"0.023": 0.0,
			"0.024": 0.0,
			"0.025": 0.0
		}
	}
}
