{
	 "smiles": "CCC(=O)OC(CC1=CC=CC=C1)(C(C)CN(C)C)C1=CC=CC=C1", 
	 "Tm": 348.15, 
	 "num_atms": 54, 
	 "gaussian": { 
		 "optdone": 1, 
		 "sigma_profile": "yes", 
		 "theory": "DFT", 
		 "functional": "B3LYP", 
		 "basiset": "6-31G**", 
		 "properties": { 
			 "R2extent": 8745.6812, 
			 "electric_dipole_moment_norm": 2.53371276983, 
			 "electric_quadrupole_moment_norm": 12.2546797967, 
			 "total_energy": -1061.0194047, 
			 "HOMO_LUMO_gap": 0.20755, 
			 "cosmo_polarized_energy": -11.51, 
			 "cosmo_cavitation_energy": 51.69, 
			 "cosmo_dispersion_energy": -32.45, 
			 "cosmo_repulsion_energy": 2.45, 
			 "cosmo_total_nonelectrostatic_energy": 21.7, 
			 "SMD_solvation_energy": 9.25 
		},
		"coords": [
			{
				"x": 3.3427231698,
				"y": 0.3489342488,
				"z": 1.3935958806,
				"element": "C" 
			},
			{
				"x": 2.3382640272,
				"y": 1.4945178647,
				"z": 1.6072358147,
				"element": "C" 
			},
			{
				"x": 1.5477058625,
				"y": 1.7985014283,
				"z": 0.3474979605,
				"element": "C" 
			},
			{
				"x": 1.7783768588,
				"y": 2.7244688217,
				"z": -0.4009782044,
				"element": "O" 
			},
			{
				"x": 0.5646894196,
				"y": 0.8843301127,
				"z": 0.1750687672,
				"element": "O" 
			},
			{
				"x": -0.2860863998,
				"y": 0.8911597589,
				"z": -1.015784007,
				"element": "C" 
			},
			{
				"x": -1.0993171765,
				"y": 2.2298207313,
				"z": -1.0722668299,
				"element": "C" 
			},
			{
				"x": -1.8207743934,
				"y": 2.6513672055,
				"z": 0.1927758209,
				"element": "C" 
			},
			{
				"x": -3.1633887246,
				"y": 2.3059647297,
				"z": 0.4128400266,
				"element": "C" 
			},
			{
				"x": -3.8356861761,
				"y": 2.7109119716,
				"z": 1.5674607982,
				"element": "C" 
			},
			{
				"x": -3.1777640706,
				"y": 3.4833989183,
				"z": 2.5249814125,
				"element": "C" 
			},
			{
				"x": -1.8495810909,
				"y": 3.8563935475,
				"z": 2.3099388179,
				"element": "C" 
			},
			{
				"x": -1.1812454002,
				"y": 3.4485249585,
				"z": 1.1550801177,
				"element": "C" 
			},
			{
				"x": -1.2758184158,
				"y": -0.3114336573,
				"z": -0.7795301036,
				"element": "C" 
			},
			{
				"x": -2.017225356,
				"y": -0.7194241158,
				"z": -2.0652957863,
				"element": "C" 
			},
			{
				"x": -0.7655638516,
				"y": -1.4970984008,
				"z": 0.0842989811,
				"element": "C" 
			},
			{
				"x": 0.3840003986,
				"y": -2.3046736838,
				"z": -0.3339166104,
				"element": "N" 
			},
			{
				"x": 0.8701070008,
				"y": -3.0944053849,
				"z": 0.7948012658,
				"element": "C" 
			},
			{
				"x": 0.111840156,
				"y": -3.1763239625,
				"z": -1.4725051412,
				"element": "C" 
			},
			{
				"x": 0.5857316955,
				"y": 0.7208380274,
				"z": -2.2740568769,
				"element": "C" 
			},
			{
				"x": 0.2960110212,
				"y": 1.3830020888,
				"z": -3.4755525483,
				"element": "C" 
			},
			{
				"x": 1.0876948179,
				"y": 1.1965047096,
				"z": -4.6111916435,
				"element": "C" 
			},
			{
				"x": 2.1904903458,
				"y": 0.3457660288,
				"z": -4.5694818965,
				"element": "C" 
			},
			{
				"x": 2.4866666276,
				"y": -0.3234666707,
				"z": -3.3808812537,
				"element": "C" 
			},
			{
				"x": 1.6923244892,
				"y": -0.1415489505,
				"z": -2.2494212137,
				"element": "C" 
			},
			{
				"x": 4.0484925609,
				"y": 0.5934849032,
				"z": 0.5939843437,
				"element": "H" 
			},
			{
				"x": 3.9158868129,
				"y": 0.1706098216,
				"z": 2.3083066879,
				"element": "H" 
			},
			{
				"x": 2.8287123774,
				"y": -0.5774658799,
				"z": 1.1239070312,
				"element": "H" 
			},
			{
				"x": 1.6399243333,
				"y": 1.2358557395,
				"z": 2.4096990799,
				"element": "H" 
			},
			{
				"x": 2.8623085031,
				"y": 2.4127744358,
				"z": 1.8835469295,
				"element": "H" 
			},
			{
				"x": -0.4086919247,
				"y": 3.0181188454,
				"z": -1.3739091064,
				"element": "H" 
			},
			{
				"x": -1.8400543098,
				"y": 2.1218639873,
				"z": -1.8698822906,
				"element": "H" 
			},
			{
				"x": -3.6966839495,
				"y": 1.7271445258,
				"z": -0.3376172185,
				"element": "H" 
			},
			{
				"x": -4.8754914493,
				"y": 2.4307970969,
				"z": 1.712107947,
				"element": "H" 
			},
			{
				"x": -3.698800486,
				"y": 3.8038724248,
				"z": 3.4226733405,
				"element": "H" 
			},
			{
				"x": -1.3339545471,
				"y": 4.4760709768,
				"z": 3.0385987611,
				"element": "H" 
			},
			{
				"x": -0.1586328643,
				"y": 3.7692252707,
				"z": 0.9831708024,
				"element": "H" 
			},
			{
				"x": -2.0450564605,
				"y": 0.0972207083,
				"z": -0.1133600261,
				"element": "H" 
			},
			{
				"x": -2.7012004799,
				"y": -1.5474962199,
				"z": -1.8533849659,
				"element": "H" 
			},
			{
				"x": -2.6218552678,
				"y": 0.1069308498,
				"z": -2.4536118845,
				"element": "H" 
			},
			{
				"x": -1.3461528549,
				"y": -1.0262984761,
				"z": -2.8688196786,
				"element": "H" 
			},
			{
				"x": -0.5063665824,
				"y": -1.0757111681,
				"z": 1.057502051,
				"element": "H" 
			},
			{
				"x": -1.6504954907,
				"y": -2.1463067972,
				"z": 0.2516348135,
				"element": "H" 
			},
			{
				"x": 1.1516807337,
				"y": -2.4345337486,
				"z": 1.6212292516,
				"element": "H" 
			},
			{
				"x": 0.1222932573,
				"y": -3.8166259955,
				"z": 1.1770807344,
				"element": "H" 
			},
			{
				"x": 1.7573565013,
				"y": -3.6606130523,
				"z": 0.4938069555,
				"element": "H" 
			},
			{
				"x": -0.7454783912,
				"y": -3.8555306718,
				"z": -1.2991780619,
				"element": "H" 
			},
			{
				"x": -0.0876072262,
				"y": -2.5902424895,
				"z": -2.3695191938,
				"element": "H" 
			},
			{
				"x": 0.9930036761,
				"y": -3.7936123091,
				"z": -1.6740470454,
				"element": "H" 
			},
			{
				"x": -0.5465333769,
				"y": 2.0609713278,
				"z": -3.544131205,
				"element": "H" 
			},
			{
				"x": 0.8402023293,
				"y": 1.7266175436,
				"z": -5.5267177152,
				"element": "H" 
			},
			{
				"x": 2.8098035024,
				"y": 0.2044958438,
				"z": -5.4507366738,
				"element": "H" 
			},
			{
				"x": 3.3404718651,
				"y": -0.9941125282,
				"z": -3.3318609368,
				"element": "H" 
			},
			{
				"x": 1.9040443735,
				"y": -0.6970352908,
				"z": -1.3436862749,
				"element": "H" 
			}
		],
		 "valence_orbital": [ 
			{
				"type": "occ",
				"energy": -0.24602,
				"method": "rhf"
			},
			{
				"type": "occ",
				"energy": -0.24154,
				"method": "rhf"
			},
			{
				"type": "occ",
				"energy": -0.24084,
				"method": "rhf"
			},
			{
				"type": "occ",
				"energy": -0.23316,
				"method": "rhf"
			},
			{
				"type": "occ",
				"energy": -0.21058,
				"method": "rhf"
			},
			{
				"type": "unocc",
				"energy": -0.00303,
				"method": "rhf"
			},
			{
				"type": "unocc",
				"energy": 0.00017,
				"method": "rhf"
			},
			{
				"type": "unocc",
				"energy": 0.0031,
				"method": "rhf"
			},
			{
				"type": "unocc",
				"energy": 0.00646,
				"method": "rhf"
			},
			{
				"type": "unocc",
				"energy": 0.01757,
				"method": "rhf"
			}
		],
		"cosmo_sigma_profile": { 
			"-0.025": 0.0,
			"-0.024": 0.0,
			"-0.023": 0.0,
			"-0.022": 0.0,
			"-0.021": 0.0,
			"-0.02": 0.0,
			"-0.019": 0.0,
			"-0.018": 0.0,
			"-0.017": 0.0,
			"-0.016": 0.0,
			"-0.015": 0.0,
			"-0.014": 0.0,
			"-0.013": 0.0,
			"-0.012": 0.0,
			"-0.011": 0.0,
			"-0.01": 0.0,
			"-0.009": 0.0,
			"-0.008": 0.0,
			"-0.007": 0.0857539666681,
			"-0.006": 6.51414717666,
			"-0.005": 22.4400424504,
			"-0.004": 30.9227733169,
			"-0.003": 45.0892281698,
			"-0.002": 50.3816376728,
			"-0.001": 59.0745817081,
			"0.0": 49.9612966819,
			"0.001": 30.5675364549,
			"0.002": 20.2374168779,
			"0.003": 19.118702329,
			"0.004": 18.2360984202,
			"0.005": 17.8637874157,
			"0.006": 15.7525938446,
			"0.007": 5.32514153977,
			"0.008": 2.08877283873,
			"0.009": 1.32634836172,
			"0.01": 2.62993182904,
			"0.011": 2.60568786794,
			"0.012": 3.3589886267,
			"0.013": 1.46907186704,
			"0.014": 0.0874889484786,
			"0.015": 0.0,
			"0.016": 0.0,
			"0.017": 0.0,
			"0.018": 0.0,
			"0.019": 0.0,
			"0.02": 0.0,
			"0.021": 0.0,
			"0.022": 0.0,
			"0.023": 0.0,
			"0.024": 0.0,
			"0.025": 0.0
		}
	}
}
