{
	 "smiles": "OC(=O)CCC1=CC(F)=CC=C1", 
	 "Tm": 318.15, 
	 "num_atms": 21, 
	 "gaussian": { 
		 "optdone": 1, 
		 "sigma_profile": "yes", 
		 "theory": "DFT", 
		 "functional": "B3LYP", 
		 "basiset": "6-31G**", 
		 "properties": { 
			 "R2extent": 2707.2729, 
			 "electric_dipole_moment_norm": 1.5661048145, 
			 "electric_quadrupole_moment_norm": 9.31283244346, 
			 "total_energy": -598.687054828, 
			 "HOMO_LUMO_gap": 0.22933, 
			 "cosmo_polarized_energy": -9.64, 
			 "cosmo_cavitation_energy": 25.74, 
			 "cosmo_dispersion_energy": -18.36, 
			 "cosmo_repulsion_energy": 1.46, 
			 "cosmo_total_nonelectrostatic_energy": 8.84, 
			 "SMD_solvation_energy": 5.83 
		},
		"coords": [
			{
				"x": 3.6891976676,
				"y": -1.3752760468,
				"z": -0.4926621476,
				"element": "O" 
			},
			{
				"x": 2.4899670371,
				"y": -1.3357461796,
				"z": 0.1334314722,
				"element": "C" 
			},
			{
				"x": 1.7818377688,
				"y": -2.3140172328,
				"z": 0.2436134001,
				"element": "O" 
			},
			{
				"x": 2.1999870317,
				"y": 0.0412133329,
				"z": 0.6946052326,
				"element": "C" 
			},
			{
				"x": 0.7101375634,
				"y": 0.2711582606,
				"z": 1.0070122194,
				"element": "C" 
			},
			{
				"x": -0.140755705,
				"y": 0.4996494542,
				"z": -0.2270755782,
				"element": "C" 
			},
			{
				"x": -0.319745608,
				"y": 1.7985862384,
				"z": -0.7217330596,
				"element": "C" 
			},
			{
				"x": -1.0826726047,
				"y": 1.9970308071,
				"z": -1.8658713511,
				"element": "C" 
			},
			{
				"x": -1.2470745202,
				"y": 3.2570918906,
				"z": -2.3259439906,
				"element": "F" 
			},
			{
				"x": -1.6851107706,
				"y": 0.9466357689,
				"z": -2.5477550486,
				"element": "C" 
			},
			{
				"x": -1.5053778839,
				"y": -0.345506795,
				"z": -2.0517718571,
				"element": "C" 
			},
			{
				"x": -0.74242933,
				"y": -0.5710802055,
				"z": -0.9045567096,
				"element": "C" 
			},
			{
				"x": 3.811572868,
				"y": -2.2939918837,
				"z": -0.7864012213,
				"element": "H" 
			},
			{
				"x": 2.5901886755,
				"y": 0.7950395087,
				"z": 0.0039960421,
				"element": "H" 
			},
			{
				"x": 2.7955095606,
				"y": 0.1294909784,
				"z": 1.6134795178,
				"element": "H" 
			},
			{
				"x": 0.3371198773,
				"y": -0.593707439,
				"z": 1.5632974075,
				"element": "H" 
			},
			{
				"x": 0.6313244906,
				"y": 1.1416594643,
				"z": 1.6667701809,
				"element": "H" 
			},
			{
				"x": 0.1196476304,
				"y": 2.6587046642,
				"z": -0.2251978445,
				"element": "H" 
			},
			{
				"x": -2.2761285131,
				"y": 1.1479884264,
				"z": -3.4345123334,
				"element": "H" 
			},
			{
				"x": -1.968166693,
				"y": -1.1835555514,
				"z": -2.5647914096,
				"element": "H" 
			},
			{
				"x": -0.6003285423,
				"y": -1.5798674609,
				"z": -0.5318329215,
				"element": "H" 
			}
		],
		 "valence_orbital": [ 
			{
				"type": "occ",
				"energy": -0.33462,
				"method": "rhf"
			},
			{
				"type": "occ",
				"energy": -0.32312,
				"method": "rhf"
			},
			{
				"type": "occ",
				"energy": -0.28108,
				"method": "rhf"
			},
			{
				"type": "occ",
				"energy": -0.25164,
				"method": "rhf"
			},
			{
				"type": "occ",
				"energy": -0.23835,
				"method": "rhf"
			},
			{
				"type": "unocc",
				"energy": -0.00902,
				"method": "rhf"
			},
			{
				"type": "unocc",
				"energy": 0.00213,
				"method": "rhf"
			},
			{
				"type": "unocc",
				"energy": 0.00792,
				"method": "rhf"
			},
			{
				"type": "unocc",
				"energy": 0.07605,
				"method": "rhf"
			},
			{
				"type": "unocc",
				"energy": 0.09004,
				"method": "rhf"
			}
		],
		"cosmo_sigma_profile": { 
			"-0.025": 0.0,
			"-0.024": 0.0,
			"-0.023": 0.0,
			"-0.022": 0.0,
			"-0.021": 0.0,
			"-0.02": 0.0,
			"-0.019": 0.0,
			"-0.018": 0.500054362157,
			"-0.017": 1.20506581953,
			"-0.016": 0.569207097353,
			"-0.015": 0.893510074751,
			"-0.014": 0.557007877711,
			"-0.013": 0.908428587642,
			"-0.012": 0.749210710628,
			"-0.011": 0.724937601879,
			"-0.01": 0.728902143101,
			"-0.009": 0.718252704063,
			"-0.008": 0.489151712189,
			"-0.007": 4.20972089735,
			"-0.006": 10.3484681553,
			"-0.005": 12.6389692546,
			"-0.004": 16.676399293,
			"-0.003": 17.1002832022,
			"-0.002": 14.7452433751,
			"-0.001": 12.6015475312,
			"0.0": 11.062368812,
			"0.001": 13.0283090494,
			"0.002": 14.438074634,
			"0.003": 14.8253225078,
			"0.004": 18.9093534218,
			"0.005": 15.8735420436,
			"0.006": 3.30556582466,
			"0.007": 2.2918788344,
			"0.008": 2.44497623786,
			"0.009": 3.38787999296,
			"0.01": 2.39093360725,
			"0.011": 2.89894242891,
			"0.012": 2.84003550578,
			"0.013": 0.164314689931,
			"0.014": 0.0,
			"0.015": 0.0,
			"0.016": 0.0,
			"0.017": 0.0,
			"0.018": 0.0,
			"0.019": 0.0,
			"0.02": 0.0,
			"0.021": 0.0,
			"0.022": 0.0,
			"0.023": 0.0,
			"0.024": 0.0,
			"0.025": 0.0
		}
	}
}
