{
	 "smiles": "OC(=O)C1(O)CCCC1", 
	 "Tm": 358.15, 
	 "num_atms": 19, 
	 "gaussian": { 
		 "optdone": 1, 
		 "sigma_profile": "yes", 
		 "theory": "DFT", 
		 "functional": "B3LYP", 
		 "basiset": "6-31G**", 
		 "properties": { 
			 "R2extent": 1751.7176, 
			 "electric_dipole_moment_norm": 4.11138093103, 
			 "electric_quadrupole_moment_norm": 10.2206203139, 
			 "total_energy": -460.349370111, 
			 "HOMO_LUMO_gap": 0.26909, 
			 "cosmo_polarized_energy": -13.44, 
			 "cosmo_cavitation_energy": 21.08, 
			 "cosmo_dispersion_energy": -15.82, 
			 "cosmo_repulsion_energy": 1.31, 
			 "cosmo_total_nonelectrostatic_energy": 6.57, 
			 "SMD_solvation_energy": 4.44 
		},
		"coords": [
			{
				"x": 0.3640187449,
				"y": 1.672568619,
				"z": -2.7605747191,
				"element": "O" 
			},
			{
				"x": 0.7336782108,
				"y": 1.244849911,
				"z": -1.5406970091,
				"element": "C" 
			},
			{
				"x": 1.010471167,
				"y": 1.9984333519,
				"z": -0.6369686958,
				"element": "O" 
			},
			{
				"x": 0.8033073491,
				"y": -0.2884604036,
				"z": -1.4050993304,
				"element": "C" 
			},
			{
				"x": 0.2272884103,
				"y": -0.9009088287,
				"z": -2.5829748223,
				"element": "O" 
			},
			{
				"x": 0.1418621065,
				"y": -0.8088204173,
				"z": -0.1209875597,
				"element": "C" 
			},
			{
				"x": 0.7473754272,
				"y": -2.2101726942,
				"z": 0.0512753274,
				"element": "C" 
			},
			{
				"x": 2.2295186511,
				"y": -2.0252761737,
				"z": -0.3510473763,
				"element": "C" 
			},
			{
				"x": 2.264986629,
				"y": -0.7874187532,
				"z": -1.294471271,
				"element": "C" 
			},
			{
				"x": 0.2151794024,
				"y": 0.861956365,
				"z": -3.2879389626,
				"element": "H" 
			},
			{
				"x": -0.7115518962,
				"y": -1.059848684,
				"z": -2.4104204941,
				"element": "H" 
			},
			{
				"x": 0.4337803873,
				"y": -0.1441116675,
				"z": 0.6978893542,
				"element": "H" 
			},
			{
				"x": -0.9543112324,
				"y": -0.793840899,
				"z": -0.1779020327,
				"element": "H" 
			},
			{
				"x": 0.6255509667,
				"y": -2.60050299,
				"z": 1.065717355,
				"element": "H" 
			},
			{
				"x": 0.2554896461,
				"y": -2.9117534653,
				"z": -0.6313569609,
				"element": "H" 
			},
			{
				"x": 2.8421661296,
				"y": -1.8332220037,
				"z": 0.5354696955,
				"element": "H" 
			},
			{
				"x": 2.6353006601,
				"y": -2.9199872192,
				"z": -0.830654946,
				"element": "H" 
			},
			{
				"x": 2.8862888364,
				"y": 0.0080065361,
				"z": -0.8756741323,
				"element": "H" 
			},
			{
				"x": 2.6417004041,
				"y": -1.0191905834,
				"z": -2.2939834197,
				"element": "H" 
			}
		],
		 "valence_orbital": [ 
			{
				"type": "occ",
				"energy": -0.34284,
				"method": "rhf"
			},
			{
				"type": "occ",
				"energy": -0.33523,
				"method": "rhf"
			},
			{
				"type": "occ",
				"energy": -0.32445,
				"method": "rhf"
			},
			{
				"type": "occ",
				"energy": -0.30512,
				"method": "rhf"
			},
			{
				"type": "occ",
				"energy": -0.25682,
				"method": "rhf"
			},
			{
				"type": "unocc",
				"energy": 0.01227,
				"method": "rhf"
			},
			{
				"type": "unocc",
				"energy": 0.04558,
				"method": "rhf"
			},
			{
				"type": "unocc",
				"energy": 0.08503,
				"method": "rhf"
			},
			{
				"type": "unocc",
				"energy": 0.09557,
				"method": "rhf"
			},
			{
				"type": "unocc",
				"energy": 0.12553,
				"method": "rhf"
			}
		],
		"cosmo_sigma_profile": { 
			"-0.025": 0.0,
			"-0.024": 0.0,
			"-0.023": 0.0,
			"-0.022": 0.0,
			"-0.021": 0.0,
			"-0.02": 0.0,
			"-0.019": 0.0,
			"-0.018": 0.0,
			"-0.017": 0.370807127732,
			"-0.016": 1.28023513357,
			"-0.015": 0.927392007585,
			"-0.014": 1.23964934506,
			"-0.013": 2.02690136929,
			"-0.012": 2.29794219151,
			"-0.011": 1.56329215707,
			"-0.01": 2.31891290844,
			"-0.009": 1.87344913789,
			"-0.008": 1.74980862045,
			"-0.007": 2.55750161368,
			"-0.006": 2.77056872438,
			"-0.005": 3.62693215166,
			"-0.004": 7.84191190949,
			"-0.003": 19.7503752709,
			"-0.002": 20.3606531049,
			"-0.001": 18.4684551165,
			"0.0": 16.5157038255,
			"0.001": 9.27689788074,
			"0.002": 3.80931732719,
			"0.003": 3.34200343847,
			"0.004": 2.50377562376,
			"0.005": 2.93811389475,
			"0.006": 4.08205931432,
			"0.007": 3.53562816196,
			"0.008": 3.26758288442,
			"0.009": 3.89816013217,
			"0.01": 5.4054942887,
			"0.011": 4.85160601832,
			"0.012": 6.33364650639,
			"0.013": 2.71986116158,
			"0.014": 0.3322144257,
			"0.015": 0.0,
			"0.016": 0.0,
			"0.017": 0.0,
			"0.018": 0.0,
			"0.019": 0.0,
			"0.02": 0.0,
			"0.021": 0.0,
			"0.022": 0.0,
			"0.023": 0.0,
			"0.024": 0.0,
			"0.025": 0.0
		}
	}
}
