{
	 "smiles": "OCC1=CC=CC(CO)=N1", 
	 "Tm": 387.15, 
	 "num_atms": 19, 
	 "gaussian": { 
		 "optdone": 1, 
		 "sigma_profile": "yes", 
		 "theory": "DFT", 
		 "functional": "B3LYP", 
		 "basiset": "6-31G**", 
		 "properties": { 
			 "R2extent": 1738.2132, 
			 "electric_dipole_moment_norm": 4.69633633591, 
			 "electric_quadrupole_moment_norm": 4.05665127291, 
			 "total_energy": -477.349353131, 
			 "HOMO_LUMO_gap": 0.20936, 
			 "cosmo_polarized_energy": -11.2, 
			 "cosmo_cavitation_energy": 22.31, 
			 "cosmo_dispersion_energy": -16.91, 
			 "cosmo_repulsion_energy": 1.39, 
			 "cosmo_total_nonelectrostatic_energy": 6.79, 
			 "SMD_solvation_energy": 3.16 
		},
		"coords": [
			{
				"x": -0.5642777857,
				"y": 2.5389913616,
				"z": 1.5584340971,
				"element": "O" 
			},
			{
				"x": -0.5641793188,
				"y": 1.396351194,
				"z": 2.3731314225,
				"element": "C" 
			},
			{
				"x": -0.6545573297,
				"y": 0.097399042,
				"z": 1.5879266335,
				"element": "C" 
			},
			{
				"x": -0.6672276956,
				"y": -1.1445899256,
				"z": 2.2264990893,
				"element": "C" 
			},
			{
				"x": -0.7516291435,
				"y": -2.2952049217,
				"z": 1.4458035874,
				"element": "C" 
			},
			{
				"x": -0.8204682945,
				"y": -2.1737156889,
				"z": 0.0597915567,
				"element": "C" 
			},
			{
				"x": -0.8023416084,
				"y": -0.8948451848,
				"z": -0.5011507881,
				"element": "C" 
			},
			{
				"x": -0.8740566978,
				"y": -0.6832169332,
				"z": -2.0051666728,
				"element": "C" 
			},
			{
				"x": -0.8442326589,
				"y": 0.6694088233,
				"z": -2.377821849,
				"element": "O" 
			},
			{
				"x": -0.7210366952,
				"y": 0.2104663548,
				"z": 0.2535133211,
				"element": "N" 
			},
			{
				"x": -0.6247320016,
				"y": 2.20998389,
				"z": 0.6471489461,
				"element": "H" 
			},
			{
				"x": -1.4091346018,
				"y": 1.4340370344,
				"z": 3.0801262731,
				"element": "H" 
			},
			{
				"x": 0.3509887033,
				"y": 1.3677903713,
				"z": 2.9870281494,
				"element": "H" 
			},
			{
				"x": -0.6120403907,
				"y": -1.2030117434,
				"z": 3.3094816327,
				"element": "H" 
			},
			{
				"x": -0.7636393394,
				"y": -3.2759919527,
				"z": 1.9125037893,
				"element": "H" 
			},
			{
				"x": -0.887085076,
				"y": -3.0497232909,
				"z": -0.5785527834,
				"element": "H" 
			},
			{
				"x": -0.0347981233,
				"y": -1.2243206221,
				"z": -2.4721510466,
				"element": "H" 
			},
			{
				"x": -1.7949887722,
				"y": -1.1598815723,
				"z": -2.3791726208,
				"element": "H" 
			},
			{
				"x": -0.7818631704,
				"y": 1.1678737643,
				"z": -1.5471727377,
				"element": "H" 
			}
		],
		 "valence_orbital": [ 
			{
				"type": "occ",
				"energy": -0.30512,
				"method": "rhf"
			},
			{
				"type": "occ",
				"energy": -0.29273,
				"method": "rhf"
			},
			{
				"type": "occ",
				"energy": -0.28362,
				"method": "rhf"
			},
			{
				"type": "occ",
				"energy": -0.26414,
				"method": "rhf"
			},
			{
				"type": "occ",
				"energy": -0.24735,
				"method": "rhf"
			},
			{
				"type": "unocc",
				"energy": -0.03799,
				"method": "rhf"
			},
			{
				"type": "unocc",
				"energy": -0.02855,
				"method": "rhf"
			},
			{
				"type": "unocc",
				"energy": 0.08081,
				"method": "rhf"
			},
			{
				"type": "unocc",
				"energy": 0.08984,
				"method": "rhf"
			},
			{
				"type": "unocc",
				"energy": 0.10889,
				"method": "rhf"
			}
		],
		"cosmo_sigma_profile": { 
			"-0.025": 0.0,
			"-0.024": 0.0,
			"-0.023": 0.0,
			"-0.022": 0.0,
			"-0.021": 0.0,
			"-0.02": 0.0,
			"-0.019": 0.0,
			"-0.018": 0.0,
			"-0.017": 0.0,
			"-0.016": 0.0,
			"-0.015": 0.0,
			"-0.014": 0.0,
			"-0.013": 0.167293456611,
			"-0.012": 0.937621810524,
			"-0.011": 0.883678708871,
			"-0.01": 0.786324696085,
			"-0.009": 1.02214245997,
			"-0.008": 1.25650071239,
			"-0.007": 7.84369729676,
			"-0.006": 10.9742698542,
			"-0.005": 19.0309304783,
			"-0.004": 15.12631061,
			"-0.003": 13.5413606442,
			"-0.002": 11.5595614836,
			"-0.001": 10.2320481857,
			"0.0": 10.8785983634,
			"0.001": 16.0683047188,
			"0.002": 13.8079547859,
			"0.003": 9.09739855212,
			"0.004": 3.71100945093,
			"0.005": 2.32680463063,
			"0.006": 2.28125970663,
			"0.007": 1.79321622778,
			"0.008": 2.42760182304,
			"0.009": 2.96534654423,
			"0.01": 2.13497172716,
			"0.011": 2.44993582408,
			"0.012": 3.20870544828,
			"0.013": 3.44377746727,
			"0.014": 4.87066085549,
			"0.015": 1.70119876307,
			"0.016": 0.0,
			"0.017": 0.0,
			"0.018": 0.0,
			"0.019": 0.0,
			"0.02": 0.0,
			"0.021": 0.0,
			"0.022": 0.0,
			"0.023": 0.0,
			"0.024": 0.0,
			"0.025": 0.0
		}
	}
}
