{
	 "smiles": "CC(NC(=O)C1=C2C=CC=CC2=NN1)C(O)=O", 
	 "Tm": 482.15, 
	 "num_atms": 28, 
	 "gaussian": { 
		 "optdone": 1, 
		 "sigma_profile": "yes", 
		 "theory": "DFT", 
		 "functional": "B3LYP", 
		 "basiset": "6-31G**", 
		 "properties": { 
			 "R2extent": 4716.3296, 
			 "electric_dipole_moment_norm": 3.84773776133, 
			 "electric_quadrupole_moment_norm": 25.7770795262, 
			 "total_energy": -815.72585371, 
			 "HOMO_LUMO_gap": 0.14613, 
			 "cosmo_polarized_energy": -20.51, 
			 "cosmo_cavitation_energy": 32.61, 
			 "cosmo_dispersion_energy": -23.29, 
			 "cosmo_repulsion_energy": 1.78, 
			 "cosmo_total_nonelectrostatic_energy": 11.11, 
			 "SMD_solvation_energy": 5.26 
		},
		"coords": [
			{
				"x": 0.4110056371,
				"y": 3.4921551803,
				"z": -2.3751116177,
				"element": "C" 
			},
			{
				"x": -0.4456174282,
				"y": 2.5629194926,
				"z": -1.5124219118,
				"element": "C" 
			},
			{
				"x": -0.5262335003,
				"y": 1.2116260775,
				"z": -2.108721805,
				"element": "N" 
			},
			{
				"x": -0.933825565,
				"y": 0.1426776973,
				"z": -1.2773796093,
				"element": "C" 
			},
			{
				"x": -2.0668688352,
				"y": -0.3399525245,
				"z": -1.3683581976,
				"element": "O" 
			},
			{
				"x": 0.0578990577,
				"y": -0.3498029199,
				"z": -0.3430601132,
				"element": "C" 
			},
			{
				"x": -0.0469898992,
				"y": -1.2003419458,
				"z": 0.7763107664,
				"element": "C" 
			},
			{
				"x": -1.1034288852,
				"y": -1.8773485968,
				"z": 1.4253312388,
				"element": "C" 
			},
			{
				"x": -0.7889917682,
				"y": -2.6294786685,
				"z": 2.5375676049,
				"element": "C" 
			},
			{
				"x": 0.5471221853,
				"y": -2.730130531,
				"z": 3.026301306,
				"element": "C" 
			},
			{
				"x": 1.593819388,
				"y": -2.0811767893,
				"z": 2.4105084701,
				"element": "C" 
			},
			{
				"x": 1.2951455689,
				"y": -1.3032448271,
				"z": 1.2662091413,
				"element": "C" 
			},
			{
				"x": 2.1604928952,
				"y": -0.5881739647,
				"z": 0.5009394487,
				"element": "N" 
			},
			{
				"x": 1.3882762406,
				"y": -0.0387614268,
				"z": -0.4284863127,
				"element": "N" 
			},
			{
				"x": -1.8335406881,
				"y": 3.2117897004,
				"z": -1.2468246466,
				"element": "C" 
			},
			{
				"x": -2.9251301286,
				"y": 2.4259760057,
				"z": -1.2695616969,
				"element": "O" 
			},
			{
				"x": -1.9231118098,
				"y": 4.3937392413,
				"z": -1.0154366925,
				"element": "O" 
			},
			{
				"x": 0.002263867,
				"y": 3.5677011901,
				"z": -3.3882896322,
				"element": "H" 
			},
			{
				"x": 1.4340246234,
				"y": 3.1132854347,
				"z": -2.4467215769,
				"element": "H" 
			},
			{
				"x": 0.4203647531,
				"y": 4.4918849483,
				"z": -1.9398792134,
				"element": "H" 
			},
			{
				"x": 0.0217276372,
				"y": 2.4574477121,
				"z": -0.5261593336,
				"element": "H" 
			},
			{
				"x": -1.1265859066,
				"y": 1.2220065374,
				"z": -2.9312436431,
				"element": "H" 
			},
			{
				"x": -2.1163969552,
				"y": -1.8063115067,
				"z": 1.0459086712,
				"element": "H" 
			},
			{
				"x": -1.5757493272,
				"y": -3.1659310482,
				"z": 3.0596262837,
				"element": "H" 
			},
			{
				"x": 0.7358849372,
				"y": -3.3373564797,
				"z": 3.9065349064,
				"element": "H" 
			},
			{
				"x": 2.6131375344,
				"y": -2.1525938795,
				"z": 2.7744559738,
				"element": "H" 
			},
			{
				"x": 1.8072219334,
				"y": 0.5105363935,
				"z": -1.1676992297,
				"element": "H" 
			},
			{
				"x": -2.7447155616,
				"y": 1.4726594974,
				"z": -1.402138579,
				"element": "H" 
			}
		],
		 "valence_orbital": [ 
			{
				"type": "occ",
				"energy": -0.30548,
				"method": "rhf"
			},
			{
				"type": "occ",
				"energy": -0.28807,
				"method": "rhf"
			},
			{
				"type": "occ",
				"energy": -0.2684,
				"method": "rhf"
			},
			{
				"type": "occ",
				"energy": -0.26251,
				"method": "rhf"
			},
			{
				"type": "occ",
				"energy": -0.23288,
				"method": "rhf"
			},
			{
				"type": "unocc",
				"energy": -0.08675,
				"method": "rhf"
			},
			{
				"type": "unocc",
				"energy": -0.02827,
				"method": "rhf"
			},
			{
				"type": "unocc",
				"energy": 0.00099,
				"method": "rhf"
			},
			{
				"type": "unocc",
				"energy": 0.01394,
				"method": "rhf"
			},
			{
				"type": "unocc",
				"energy": 0.05167,
				"method": "rhf"
			}
		],
		"cosmo_sigma_profile": { 
			"-0.025": 0.0,
			"-0.024": 0.0,
			"-0.023": 0.0,
			"-0.022": 0.0,
			"-0.021": 0.0,
			"-0.02": 0.0,
			"-0.019": 0.0,
			"-0.018": 0.0,
			"-0.017": 0.223970350317,
			"-0.016": 1.07128758507,
			"-0.015": 1.05830602356,
			"-0.014": 2.0225460153,
			"-0.013": 3.10785314171,
			"-0.012": 2.67085749493,
			"-0.011": 3.0307028226,
			"-0.01": 2.84169222098,
			"-0.009": 3.96325547997,
			"-0.008": 6.57076936163,
			"-0.007": 6.80238939762,
			"-0.006": 12.7304510547,
			"-0.005": 14.9966498155,
			"-0.004": 18.2963809282,
			"-0.003": 14.6686192244,
			"-0.002": 15.5312981379,
			"-0.001": 16.0890992315,
			"0.0": 16.5364379917,
			"0.001": 14.8080373508,
			"0.002": 16.2072489247,
			"0.003": 17.3359109481,
			"0.004": 14.3976085021,
			"0.005": 8.54428791754,
			"0.006": 5.87599687615,
			"0.007": 4.60441546354,
			"0.008": 4.51780452658,
			"0.009": 5.73143196354,
			"0.01": 8.019629145,
			"0.011": 8.40192205523,
			"0.012": 6.24054590024,
			"0.013": 2.36297155234,
			"0.014": 0.899127093688,
			"0.015": 0.0643271948088,
			"0.016": 0.0,
			"0.017": 0.0,
			"0.018": 0.0,
			"0.019": 0.0,
			"0.02": 0.0,
			"0.021": 0.0,
			"0.022": 0.0,
			"0.023": 0.0,
			"0.024": 0.0,
			"0.025": 0.0
		}
	}
}
