{
	 "smiles": "CC(=O)C1=C(C)SC(=C1)C1=CC=CC=C1", 
	 "Tm": 341.15, 
	 "num_atms": 27, 
	 "gaussian": { 
		 "optdone": 1, 
		 "sigma_profile": "yes", 
		 "theory": "DFT", 
		 "functional": "B3LYP", 
		 "basiset": "6-31G**", 
		 "properties": { 
			 "R2extent": 4771.2989, 
			 "electric_dipole_moment_norm": 2.6172634277, 
			 "electric_quadrupole_moment_norm": 12.4978016011, 
			 "total_energy": -976.0324286, 
			 "HOMO_LUMO_gap": 0.16673, 
			 "cosmo_polarized_energy": -8.86, 
			 "cosmo_cavitation_energy": 32.28, 
			 "cosmo_dispersion_energy": -23.73, 
			 "cosmo_repulsion_energy": 1.8, 
			 "cosmo_total_nonelectrostatic_energy": 10.34, 
			 "SMD_solvation_energy": 5.68 
		},
		"coords": [
			{
				"x": -2.4547284785,
				"y": 2.0265485099,
				"z": -2.7424043629,
				"element": "C" 
			},
			{
				"x": -2.016865882,
				"y": 0.6601102026,
				"z": -3.2480510955,
				"element": "C" 
			},
			{
				"x": -2.3581144556,
				"y": 0.2710224578,
				"z": -4.358943113,
				"element": "O" 
			},
			{
				"x": -1.1722437383,
				"y": -0.1714032357,
				"z": -2.3563070624,
				"element": "C" 
			},
			{
				"x": -0.7237964574,
				"y": -1.4351486561,
				"z": -2.7132557828,
				"element": "C" 
			},
			{
				"x": -0.9529649522,
				"y": -2.2028629924,
				"z": -3.9798603977,
				"element": "C" 
			},
			{
				"x": 0.2295286543,
				"y": -2.1228609077,
				"z": -1.4385381511,
				"element": "S" 
			},
			{
				"x": 0.0292039273,
				"y": -0.7192943042,
				"z": -0.4020068074,
				"element": "C" 
			},
			{
				"x": -0.7370979206,
				"y": 0.2173911053,
				"z": -1.0459375892,
				"element": "C" 
			},
			{
				"x": 0.6366692032,
				"y": -0.6530763086,
				"z": 0.933577459,
				"element": "C" 
			},
			{
				"x": 0.9772929963,
				"y": 0.5914823227,
				"z": 1.4955831411,
				"element": "C" 
			},
			{
				"x": 1.5348389758,
				"y": 0.6701304487,
				"z": 2.769415531,
				"element": "C" 
			},
			{
				"x": 1.7804350048,
				"y": -0.4913636668,
				"z": 3.5055092826,
				"element": "C" 
			},
			{
				"x": 1.458369679,
				"y": -1.733214675,
				"z": 2.9551973642,
				"element": "C" 
			},
			{
				"x": 0.8886994779,
				"y": -1.8142150955,
				"z": 1.6860106431,
				"element": "C" 
			},
			{
				"x": -3.0413613238,
				"y": 1.9339323361,
				"z": -1.8214603877,
				"element": "H" 
			},
			{
				"x": -3.0604611643,
				"y": 2.5071427385,
				"z": -3.5112494377,
				"element": "H" 
			},
			{
				"x": -1.5877136745,
				"y": 2.6567332538,
				"z": -2.5145046685,
				"element": "H" 
			},
			{
				"x": -2.0229850016,
				"y": -2.3527459415,
				"z": -4.1508018993,
				"element": "H" 
			},
			{
				"x": -0.4573796073,
				"y": -3.1770556313,
				"z": -3.9498926988,
				"element": "H" 
			},
			{
				"x": -0.5834849895,
				"y": -1.6412626609,
				"z": -4.8426542289,
				"element": "H" 
			},
			{
				"x": -1.011006811,
				"y": 1.1571227788,
				"z": -0.5816708179,
				"element": "H" 
			},
			{
				"x": 0.8224545557,
				"y": 1.4979352417,
				"z": 0.9184693083,
				"element": "H" 
			},
			{
				"x": 1.7911404779,
				"y": 1.6413832042,
				"z": 3.1830079013,
				"element": "H" 
			},
			{
				"x": 2.2216704735,
				"y": -0.4289361852,
				"z": 4.4957770873,
				"element": "H" 
			},
			{
				"x": 1.6421707468,
				"y": -2.6433935461,
				"z": 3.5188014107,
				"element": "H" 
			},
			{
				"x": 0.6186302839,
				"y": -2.7855007935,
				"z": 1.281189372,
				"element": "H" 
			}
		],
		 "valence_orbital": [ 
			{
				"type": "occ",
				"energy": -0.27583,
				"method": "rhf"
			},
			{
				"type": "occ",
				"energy": -0.26008,
				"method": "rhf"
			},
			{
				"type": "occ",
				"energy": -0.25647,
				"method": "rhf"
			},
			{
				"type": "occ",
				"energy": -0.24271,
				"method": "rhf"
			},
			{
				"type": "occ",
				"energy": -0.21488,
				"method": "rhf"
			},
			{
				"type": "unocc",
				"energy": -0.04815,
				"method": "rhf"
			},
			{
				"type": "unocc",
				"energy": -0.03248,
				"method": "rhf"
			},
			{
				"type": "unocc",
				"energy": -0.00928,
				"method": "rhf"
			},
			{
				"type": "unocc",
				"energy": 0.02105,
				"method": "rhf"
			},
			{
				"type": "unocc",
				"energy": 0.03437,
				"method": "rhf"
			}
		],
		"cosmo_sigma_profile": { 
			"-0.025": 0.0,
			"-0.024": 0.0,
			"-0.023": 0.0,
			"-0.022": 0.0,
			"-0.021": 0.0,
			"-0.02": 0.0,
			"-0.019": 0.0,
			"-0.018": 0.0,
			"-0.017": 0.0,
			"-0.016": 0.0,
			"-0.015": 0.0,
			"-0.014": 0.0,
			"-0.013": 0.0,
			"-0.012": 0.0,
			"-0.011": 0.0,
			"-0.01": 0.0,
			"-0.009": 0.0,
			"-0.008": 0.0325497659869,
			"-0.007": 2.0005691747,
			"-0.006": 14.4068649365,
			"-0.005": 22.475878025,
			"-0.004": 22.8887834651,
			"-0.003": 22.5392033994,
			"-0.002": 19.3459128925,
			"-0.001": 26.8191563085,
			"0.0": 19.1474043196,
			"0.001": 17.8918694863,
			"0.002": 22.4289384883,
			"0.003": 22.0230782917,
			"0.004": 16.176803242,
			"0.005": 12.4436094082,
			"0.006": 4.41972200066,
			"0.007": 2.42774273764,
			"0.008": 0.840931495671,
			"0.009": 1.82419203787,
			"0.01": 1.34440152194,
			"0.011": 2.22604643243,
			"0.012": 2.7799226152,
			"0.013": 2.33611372597,
			"0.014": 0.780033851161,
			"0.015": 0.00896778557311,
			"0.016": 0.0,
			"0.017": 0.0,
			"0.018": 0.0,
			"0.019": 0.0,
			"0.02": 0.0,
			"0.021": 0.0,
			"0.022": 0.0,
			"0.023": 0.0,
			"0.024": 0.0,
			"0.025": 0.0
		}
	}
}
