{
	 "smiles": "FC(F)(F)OC1=CC=C(C=C1)N=C=O", 
	 "Tm": 244.15, 
	 "num_atms": 18, 
	 "gaussian": { 
		 "optdone": 1, 
		 "sigma_profile": "yes", 
		 "theory": "DFT", 
		 "functional": "B3LYP", 
		 "basiset": "6-31G**", 
		 "properties": { 
			 "R2extent": 3944.2101, 
			 "electric_dipole_moment_norm": 0.458509825413, 
			 "electric_quadrupole_moment_norm": 13.8649930815, 
			 "total_energy": -811.980844667, 
			 "HOMO_LUMO_gap": 0.20736, 
			 "cosmo_polarized_energy": -5.12, 
			 "cosmo_cavitation_energy": 25.97, 
			 "cosmo_dispersion_energy": -18.35, 
			 "cosmo_repulsion_energy": 1.39, 
			 "cosmo_total_nonelectrostatic_energy": 9.01, 
			 "SMD_solvation_energy": 8.38 
		},
		"coords": [
			{
				"x": -2.4170016664,
				"y": 2.0411820929,
				"z": 0.4877325017,
				"element": "F" 
			},
			{
				"x": -2.9013972208,
				"y": 0.8446207369,
				"z": 0.0875140001,
				"element": "C" 
			},
			{
				"x": -2.875379663,
				"y": 0.8353668462,
				"z": -1.2565495679,
				"element": "F" 
			},
			{
				"x": -4.1647631971,
				"y": 0.752601524,
				"z": 0.497190782,
				"element": "F" 
			},
			{
				"x": -2.2217659748,
				"y": -0.1971334993,
				"z": 0.6276959656,
				"element": "O" 
			},
			{
				"x": -0.9157884073,
				"y": -0.4835178437,
				"z": 0.2213654421,
				"element": "C" 
			},
			{
				"x": -0.0249407364,
				"y": 0.4628173665,
				"z": -0.2842288307,
				"element": "C" 
			},
			{
				"x": 1.2651920831,
				"y": 0.0617904469,
				"z": -0.6258980107,
				"element": "C" 
			},
			{
				"x": 1.6700332277,
				"y": -1.2662757566,
				"z": -0.4540422421,
				"element": "C" 
			},
			{
				"x": 0.7639676056,
				"y": -2.2034488699,
				"z": 0.0657280862,
				"element": "C" 
			},
			{
				"x": -0.5274570737,
				"y": -1.8110911316,
				"z": 0.3979014685,
				"element": "C" 
			},
			{
				"x": 2.9756643431,
				"y": -1.6126863559,
				"z": -0.8085807414,
				"element": "N" 
			},
			{
				"x": 3.7084161992,
				"y": -2.5752368887,
				"z": -0.8301417911,
				"element": "C" 
			},
			{
				"x": 4.5197011457,
				"y": -3.4264830077,
				"z": -0.9034048536,
				"element": "O" 
			},
			{
				"x": -0.3190126794,
				"y": 1.4968082248,
				"z": -0.4068175851,
				"element": "H" 
			},
			{
				"x": 1.9724083273,
				"y": 0.7808700908,
				"z": -1.0240820365,
				"element": "H" 
			},
			{
				"x": 1.0707942941,
				"y": -3.2356852643,
				"z": 0.2022110095,
				"element": "H" 
			},
			{
				"x": -1.2437706067,
				"y": -2.5222987114,
				"z": 0.7943064032,
				"element": "H" 
			}
		],
		 "valence_orbital": [ 
			{
				"type": "occ",
				"energy": -0.36658,
				"method": "rhf"
			},
			{
				"type": "occ",
				"energy": -0.32401,
				"method": "rhf"
			},
			{
				"type": "occ",
				"energy": -0.31601,
				"method": "rhf"
			},
			{
				"type": "occ",
				"energy": -0.27906,
				"method": "rhf"
			},
			{
				"type": "occ",
				"energy": -0.24029,
				"method": "rhf"
			},
			{
				"type": "unocc",
				"energy": -0.03293,
				"method": "rhf"
			},
			{
				"type": "unocc",
				"energy": -0.02727,
				"method": "rhf"
			},
			{
				"type": "unocc",
				"energy": 0.00434,
				"method": "rhf"
			},
			{
				"type": "unocc",
				"energy": 0.06921,
				"method": "rhf"
			},
			{
				"type": "unocc",
				"energy": 0.08136,
				"method": "rhf"
			}
		],
		"cosmo_sigma_profile": { 
			"-0.025": 0.0,
			"-0.024": 0.0,
			"-0.023": 0.0,
			"-0.022": 0.0,
			"-0.021": 0.0,
			"-0.02": 0.0,
			"-0.019": 0.0,
			"-0.018": 0.0,
			"-0.017": 0.0,
			"-0.016": 0.0,
			"-0.015": 0.0,
			"-0.014": 0.0,
			"-0.013": 0.0,
			"-0.012": 0.0,
			"-0.011": 0.0,
			"-0.01": 0.0,
			"-0.009": 0.683654546848,
			"-0.008": 4.85490019477,
			"-0.007": 7.89170856107,
			"-0.006": 8.28945340545,
			"-0.005": 8.38730588926,
			"-0.004": 7.96388218497,
			"-0.003": 10.1617166741,
			"-0.002": 13.3333893997,
			"-0.001": 16.1800451705,
			"0.0": 20.7343762578,
			"0.001": 32.3292079912,
			"0.002": 44.0455262675,
			"0.003": 13.3016905239,
			"0.004": 5.15593469764,
			"0.005": 4.43824570315,
			"0.006": 3.77908123663,
			"0.007": 7.14286368929,
			"0.008": 2.23887525533,
			"0.009": 0.0,
			"0.01": 0.0,
			"0.011": 0.0,
			"0.012": 0.0,
			"0.013": 0.0,
			"0.014": 0.0,
			"0.015": 0.0,
			"0.016": 0.0,
			"0.017": 0.0,
			"0.018": 0.0,
			"0.019": 0.0,
			"0.02": 0.0,
			"0.021": 0.0,
			"0.022": 0.0,
			"0.023": 0.0,
			"0.024": 0.0,
			"0.025": 0.0
		}
	}
}
