{
	 "smiles": "OC(=O)CC1=COC2=C1C=CC(F)=C2", 
	 "Tm": 377.15, 
	 "num_atms": 21, 
	 "gaussian": { 
		 "optdone": 1, 
		 "sigma_profile": "yes", 
		 "theory": "DFT", 
		 "functional": "B3LYP", 
		 "basiset": "6-31G**", 
		 "properties": { 
			 "R2extent": 3346.6359, 
			 "electric_dipole_moment_norm": 2.6816463115, 
			 "electric_quadrupole_moment_norm": 3.72277649477, 
			 "total_energy": -710.790995596, 
			 "HOMO_LUMO_gap": 0.19535, 
			 "cosmo_polarized_energy": -10.59, 
			 "cosmo_cavitation_energy": 26.67, 
			 "cosmo_dispersion_energy": -19.22, 
			 "cosmo_repulsion_energy": 1.48, 
			 "cosmo_total_nonelectrostatic_energy": 8.93, 
			 "SMD_solvation_energy": 6.81 
		},
		"coords": [
			{
				"x": 2.4370385246,
				"y": 0.3951101347,
				"z": 2.4334901744,
				"element": "O" 
			},
			{
				"x": 2.5519293139,
				"y": 0.3764857534,
				"z": 1.0870360925,
				"element": "C" 
			},
			{
				"x": 3.1867287416,
				"y": 1.2032639193,
				"z": 0.469361498,
				"element": "O" 
			},
			{
				"x": 1.7748037487,
				"y": -0.773310785,
				"z": 0.4648335183,
				"element": "C" 
			},
			{
				"x": 0.3748163962,
				"y": -0.3607359205,
				"z": 0.0992048272,
				"element": "C" 
			},
			{
				"x": -0.7804006058,
				"y": -0.885919075,
				"z": 0.5811468775,
				"element": "C" 
			},
			{
				"x": -1.8958947784,
				"y": -0.3102616362,
				"z": 0.0206310315,
				"element": "O" 
			},
			{
				"x": -1.4336637541,
				"y": 0.628833175,
				"z": -0.8583117958,
				"element": "C" 
			},
			{
				"x": -0.0270044807,
				"y": 0.6534641905,
				"z": -0.8567491432,
				"element": "C" 
			},
			{
				"x": 0.63971856,
				"y": 1.5617416472,
				"z": -1.6942674668,
				"element": "C" 
			},
			{
				"x": -0.1202648176,
				"y": 2.3998214963,
				"z": -2.5039750233,
				"element": "C" 
			},
			{
				"x": -1.5202720502,
				"y": 2.3295699256,
				"z": -2.469288476,
				"element": "C" 
			},
			{
				"x": -2.2204394238,
				"y": 3.1614870626,
				"z": -3.2701446956,
				"element": "F" 
			},
			{
				"x": -2.2229126159,
				"y": 1.4532743439,
				"z": -1.6529417395,
				"element": "C" 
			},
			{
				"x": 2.9278000862,
				"y": 1.1772463087,
				"z": 2.7387560898,
				"element": "H" 
			},
			{
				"x": 2.325451104,
				"y": -1.0782358931,
				"z": -0.4309665088,
				"element": "H" 
			},
			{
				"x": 1.7470850464,
				"y": -1.6138252554,
				"z": 1.1627429022,
				"element": "H" 
			},
			{
				"x": -0.9760037061,
				"y": -1.6622104392,
				"z": 1.3058657266,
				"element": "H" 
			},
			{
				"x": 1.722645526,
				"y": 1.6209355786,
				"z": -1.6935229872,
				"element": "H" 
			},
			{
				"x": 0.3462755182,
				"y": 3.1201080358,
				"z": -3.1667877167,
				"element": "H" 
			},
			{
				"x": -3.3054363329,
				"y": 1.4242574326,
				"z": -1.6457131852,
				"element": "H" 
			}
		],
		 "valence_orbital": [ 
			{
				"type": "occ",
				"energy": -0.32712,
				"method": "rhf"
			},
			{
				"type": "occ",
				"energy": -0.29658,
				"method": "rhf"
			},
			{
				"type": "occ",
				"energy": -0.28028,
				"method": "rhf"
			},
			{
				"type": "occ",
				"energy": -0.24527,
				"method": "rhf"
			},
			{
				"type": "occ",
				"energy": -0.22084,
				"method": "rhf"
			},
			{
				"type": "unocc",
				"energy": -0.02549,
				"method": "rhf"
			},
			{
				"type": "unocc",
				"energy": -0.00095,
				"method": "rhf"
			},
			{
				"type": "unocc",
				"energy": 0.00894,
				"method": "rhf"
			},
			{
				"type": "unocc",
				"energy": 0.05234,
				"method": "rhf"
			},
			{
				"type": "unocc",
				"energy": 0.07015,
				"method": "rhf"
			}
		],
		"cosmo_sigma_profile": { 
			"-0.025": 0.0,
			"-0.024": 0.0,
			"-0.023": 0.0,
			"-0.022": 0.0,
			"-0.021": 0.0,
			"-0.02": 0.0,
			"-0.019": 0.0400350253818,
			"-0.018": 0.95419619212,
			"-0.017": 0.924422569696,
			"-0.016": 0.835326207119,
			"-0.015": 1.02123853132,
			"-0.014": 0.606850658248,
			"-0.013": 0.551201705987,
			"-0.012": 0.560642036274,
			"-0.011": 0.948766420825,
			"-0.01": 1.25972690392,
			"-0.009": 2.92425580357,
			"-0.008": 4.61341353209,
			"-0.007": 7.54748033923,
			"-0.006": 9.5967709949,
			"-0.005": 12.126948654,
			"-0.004": 10.9730494395,
			"-0.003": 11.0803288133,
			"-0.002": 9.68138539067,
			"-0.001": 9.79747831796,
			"0.0": 12.0792770525,
			"0.001": 22.2335321083,
			"0.002": 23.7416423449,
			"0.003": 19.4420633275,
			"0.004": 18.2847186792,
			"0.005": 9.30298961771,
			"0.006": 3.81478328413,
			"0.007": 3.81549252628,
			"0.008": 4.20271099075,
			"0.009": 2.96819630946,
			"0.01": 2.2974937154,
			"0.011": 3.82493077439,
			"0.012": 1.99163592928,
			"0.013": 0.0,
			"0.014": 0.0,
			"0.015": 0.0,
			"0.016": 0.0,
			"0.017": 0.0,
			"0.018": 0.0,
			"0.019": 0.0,
			"0.02": 0.0,
			"0.021": 0.0,
			"0.022": 0.0,
			"0.023": 0.0,
			"0.024": 0.0,
			"0.025": 0.0
		}
	}
}
