{
	 "smiles": "CCC1=CNC(S)=N1", 
	 "Tm": 437.15, 
	 "num_atms": 16, 
	 "gaussian": { 
		 "optdone": 1, 
		 "sigma_profile": "yes", 
		 "theory": "DFT", 
		 "functional": "B3LYP", 
		 "basiset": "6-31G**", 
		 "properties": { 
			 "R2extent": 1734.814, 
			 "electric_dipole_moment_norm": 2.28834584143, 
			 "electric_quadrupole_moment_norm": 8.87235517154, 
			 "total_energy": -703.041858158, 
			 "HOMO_LUMO_gap": 0.21279, 
			 "cosmo_polarized_energy": -10.88, 
			 "cosmo_cavitation_energy": 21.41, 
			 "cosmo_dispersion_energy": -16.45, 
			 "cosmo_repulsion_energy": 1.35, 
			 "cosmo_total_nonelectrostatic_energy": 6.31, 
			 "SMD_solvation_energy": 1.92 
		},
		"coords": [
			{
				"x": 0.8602788162,
				"y": -0.3252241682,
				"z": -2.7989871956,
				"element": "C" 
			},
			{
				"x": 0.6488684578,
				"y": -1.2396504212,
				"z": -1.581588621,
				"element": "C" 
			},
			{
				"x": -0.5480056058,
				"y": -0.8577202305,
				"z": -0.7618867961,
				"element": "C" 
			},
			{
				"x": -1.688401828,
				"y": -1.5779173396,
				"z": -0.5147095356,
				"element": "C" 
			},
			{
				"x": -2.4796666606,
				"y": -0.7654384168,
				"z": 0.2864845667,
				"element": "N" 
			},
			{
				"x": -1.7820777158,
				"y": 0.3923816284,
				"z": 0.4787534411,
				"element": "C" 
			},
			{
				"x": -2.4393168986,
				"y": 1.7166667162,
				"z": 1.4597643748,
				"element": "S" 
			},
			{
				"x": -0.6208471854,
				"y": 0.377474271,
				"z": -0.1330262332,
				"element": "N" 
			},
			{
				"x": 0.0129556441,
				"y": -0.3887725941,
				"z": -3.4896400823,
				"element": "H" 
			},
			{
				"x": 1.7678681405,
				"y": -0.6024618595,
				"z": -3.3453389145,
				"element": "H" 
			},
			{
				"x": 0.9544618836,
				"y": 0.7162614141,
				"z": -2.4792533133,
				"element": "H" 
			},
			{
				"x": 1.5426493249,
				"y": -1.2003833896,
				"z": -0.9456098383,
				"element": "H" 
			},
			{
				"x": 0.5412734054,
				"y": -2.281288642,
				"z": -1.9062726714,
				"element": "H" 
			},
			{
				"x": -2.0082091883,
				"y": -2.5620767971,
				"z": -0.8202232533,
				"element": "H" 
			},
			{
				"x": -3.3886669789,
				"y": -0.9925230715,
				"z": 0.6588751093,
				"element": "H" 
			},
			{
				"x": -1.3553636111,
				"y": 2.4919729005,
				"z": 1.2772589628,
				"element": "H" 
			}
		],
		 "valence_orbital": [ 
			{
				"type": "occ",
				"energy": -0.33608,
				"method": "rhf"
			},
			{
				"type": "occ",
				"energy": -0.2952,
				"method": "rhf"
			},
			{
				"type": "occ",
				"energy": -0.26936,
				"method": "rhf"
			},
			{
				"type": "occ",
				"energy": -0.26806,
				"method": "rhf"
			},
			{
				"type": "occ",
				"energy": -0.2043,
				"method": "rhf"
			},
			{
				"type": "unocc",
				"energy": 0.00849,
				"method": "rhf"
			},
			{
				"type": "unocc",
				"energy": 0.03194,
				"method": "rhf"
			},
			{
				"type": "unocc",
				"energy": 0.06661,
				"method": "rhf"
			},
			{
				"type": "unocc",
				"energy": 0.07313,
				"method": "rhf"
			},
			{
				"type": "unocc",
				"energy": 0.08571,
				"method": "rhf"
			}
		],
		"cosmo_sigma_profile": { 
			"-0.025": 0.0,
			"-0.024": 0.0,
			"-0.023": 0.0,
			"-0.022": 0.0,
			"-0.021": 0.0,
			"-0.02": 0.0,
			"-0.019": 0.0,
			"-0.018": 0.0,
			"-0.017": 0.444484748002,
			"-0.016": 1.56579445927,
			"-0.015": 1.64537978509,
			"-0.014": 1.31771439305,
			"-0.013": 1.03112685827,
			"-0.012": 1.92005464909,
			"-0.011": 2.14950684905,
			"-0.01": 2.29158408708,
			"-0.009": 2.5160042556,
			"-0.008": 3.5356621216,
			"-0.007": 3.92614541729,
			"-0.006": 4.33929408237,
			"-0.005": 2.88744686958,
			"-0.004": 5.40784113808,
			"-0.003": 10.2097433453,
			"-0.002": 12.8110335753,
			"-0.001": 13.860845116,
			"0.0": 16.6977569381,
			"0.001": 16.9044027774,
			"0.002": 12.035570399,
			"0.003": 11.2144734518,
			"0.004": 9.78686620167,
			"0.005": 10.1007208305,
			"0.006": 6.5277873838,
			"0.007": 4.54742827386,
			"0.008": 3.68461159782,
			"0.009": 1.48605975841,
			"0.01": 1.4587232003,
			"0.011": 1.25787046515,
			"0.012": 0.639652398314,
			"0.013": 1.06685797189,
			"0.014": 0.833681225095,
			"0.015": 0.64860545445,
			"0.016": 0.503437650667,
			"0.017": 0.52492763676,
			"0.018": 0.0,
			"0.019": 0.0,
			"0.02": 0.0,
			"0.021": 0.0,
			"0.022": 0.0,
			"0.023": 0.0,
			"0.024": 0.0,
			"0.025": 0.0
		}
	}
}
