{
	 "smiles": "C[Si]1(C)OC2=C(C3=C(C=CC=C3)C=C2)C2=C(O[Si](C)(C)O1)C=CC1=C2C=CC=C1", 
	 "Tm": 446.15, 
	 "num_atms": 53, 
	 "gaussian": { 
		 "optdone": 1, 
		 "sigma_profile": "yes", 
		 "theory": "DFT", 
		 "functional": "B3LYP", 
		 "basiset": "6-31G**", 
		 "properties": { 
			 "R2extent": 10885.6996, 
			 "electric_dipole_moment_norm": 1.78179340273, 
			 "electric_quadrupole_moment_norm": 7.13333447064, 
			 "total_energy": -1733.94964644, 
			 "HOMO_LUMO_gap": 0.16958, 
			 "cosmo_polarized_energy": -11.51, 
			 "cosmo_cavitation_energy": 56.99, 
			 "cosmo_dispersion_energy": -33.06, 
			 "cosmo_repulsion_energy": 2.66, 
			 "cosmo_total_nonelectrostatic_energy": 26.59, 
			 "SMD_solvation_energy": 10.59 
		},
		"coords": [
			{
				"x": -0.6267834946,
				"y": -2.4205695854,
				"z": 3.159003218,
				"element": "C" 
			},
			{
				"x": -0.8887919356,
				"y": -0.8304677859,
				"z": 2.2011548888,
				"element": "Si" 
			},
			{
				"x": -2.5400282214,
				"y": -0.0333983293,
				"z": 2.5526633433,
				"element": "C" 
			},
			{
				"x": -0.8911925743,
				"y": -1.1234879377,
				"z": 0.5472995474,
				"element": "O" 
			},
			{
				"x": 0.1947299269,
				"y": -1.3776912402,
				"z": -0.2523546283,
				"element": "C" 
			},
			{
				"x": 0.7346206556,
				"y": -0.366396069,
				"z": -1.0343271298,
				"element": "C" 
			},
			{
				"x": 1.8447773869,
				"y": -0.670534669,
				"z": -1.8901703433,
				"element": "C" 
			},
			{
				"x": 2.3720330003,
				"y": -2.0042020494,
				"z": -1.9255279472,
				"element": "C" 
			},
			{
				"x": 3.4723700453,
				"y": -2.2965473502,
				"z": -2.7751227875,
				"element": "C" 
			},
			{
				"x": 4.037763629,
				"y": -1.3202066791,
				"z": -3.5629535541,
				"element": "C" 
			},
			{
				"x": 3.5197698263,
				"y": -0.0034382735,
				"z": -3.5311982491,
				"element": "C" 
			},
			{
				"x": 2.4538584244,
				"y": 0.3129796496,
				"z": -2.7183969898,
				"element": "C" 
			},
			{
				"x": 1.772523009,
				"y": -3.0019568747,
				"z": -1.1128072271,
				"element": "C" 
			},
			{
				"x": 0.7097211057,
				"y": -2.6995247962,
				"z": -0.2982276418,
				"element": "C" 
			},
			{
				"x": 0.1513130087,
				"y": 1.0110092456,
				"z": -0.9989751423,
				"element": "C" 
			},
			{
				"x": 0.6491388965,
				"y": 1.9618006945,
				"z": -0.1192789025,
				"element": "C" 
			},
			{
				"x": 1.6936449747,
				"y": 1.6483025699,
				"z": 0.7137589944,
				"element": "O" 
			},
			{
				"x": 1.609217467,
				"y": 1.2322297602,
				"z": 2.3388248933,
				"element": "Si" 
			},
			{
				"x": 1.3092321455,
				"y": 2.7488507637,
				"z": 3.3990784342,
				"element": "C" 
			},
			{
				"x": 3.2378717448,
				"y": 0.3974111091,
				"z": 2.7081352339,
				"element": "C" 
			},
			{
				"x": 0.3490501441,
				"y": 0.1936050735,
				"z": 2.5815516185,
				"element": "O" 
			},
			{
				"x": 0.1348521907,
				"y": 3.2844697506,
				"z": -0.0951924986,
				"element": "C" 
			},
			{
				"x": -0.8856785136,
				"y": 3.6473241123,
				"z": -0.9386323279,
				"element": "C" 
			},
			{
				"x": -1.4415577137,
				"y": 2.7123300138,
				"z": -1.8509259512,
				"element": "C" 
			},
			{
				"x": -0.914647109,
				"y": 1.3785135572,
				"z": -1.8855801189,
				"element": "C" 
			},
			{
				"x": -1.4796168606,
				"y": 0.4587089128,
				"z": -2.8124330789,
				"element": "C" 
			},
			{
				"x": -2.503535842,
				"y": 0.8353328346,
				"z": -3.6530691979,
				"element": "C" 
			},
			{
				"x": -3.0211970072,
				"y": 2.1520830058,
				"z": -3.6157556515,
				"element": "C" 
			},
			{
				"x": -2.4978857503,
				"y": 3.0676934095,
				"z": -2.7317813712,
				"element": "C" 
			},
			{
				"x": -1.4129482598,
				"y": -3.1509625086,
				"z": 2.9400576937,
				"element": "H" 
			},
			{
				"x": 0.337881245,
				"y": -2.8764850352,
				"z": 2.9140447368,
				"element": "H" 
			},
			{
				"x": -0.6374374753,
				"y": -2.2276547671,
				"z": 4.2372920749,
				"element": "H" 
			},
			{
				"x": -2.6453197277,
				"y": 0.2039450162,
				"z": 3.6164743696,
				"element": "H" 
			},
			{
				"x": -3.3638305611,
				"y": -0.6971103878,
				"z": 2.2703428353,
				"element": "H" 
			},
			{
				"x": -2.6471129941,
				"y": 0.8945244709,
				"z": 1.9827771699,
				"element": "H" 
			},
			{
				"x": 3.8602941349,
				"y": -3.3121806075,
				"z": -2.79091845,
				"element": "H" 
			},
			{
				"x": 4.8788218462,
				"y": -1.5556904671,
				"z": -4.2086121444,
				"element": "H" 
			},
			{
				"x": 3.9685812674,
				"y": 0.7650616249,
				"z": -4.1542476347,
				"element": "H" 
			},
			{
				"x": 2.0651473612,
				"y": 1.3252181055,
				"z": -2.699883386,
				"element": "H" 
			},
			{
				"x": 2.1643221894,
				"y": -4.0153011355,
				"z": -1.1476380046,
				"element": "H" 
			},
			{
				"x": 0.2337925887,
				"y": -3.4603818503,
				"z": 0.3118472391,
				"element": "H" 
			},
			{
				"x": 2.1085182037,
				"y": 3.4867531255,
				"z": 3.2720999429,
				"element": "H" 
			},
			{
				"x": 1.2677643053,
				"y": 2.4766779699,
				"z": 4.4593721308,
				"element": "H" 
			},
			{
				"x": 0.3595746978,
				"y": 3.2298192306,
				"z": 3.1436000218,
				"element": "H" 
			},
			{
				"x": 4.0775076312,
				"y": 1.0728659319,
				"z": 2.5140884069,
				"element": "H" 
			},
			{
				"x": 3.2916898505,
				"y": 0.0819221621,
				"z": 3.7553627495,
				"element": "H" 
			},
			{
				"x": 3.3669583806,
				"y": -0.487126957,
				"z": 2.0770691603,
				"element": "H" 
			},
			{
				"x": 0.5778424183,
				"y": 3.9980735073,
				"z": 0.591945676,
				"element": "H" 
			},
			{
				"x": -1.2769184522,
				"y": 4.6613069904,
				"z": -0.9197168294,
				"element": "H" 
			},
			{
				"x": -1.0909737484,
				"y": -0.5531240741,
				"z": -2.8474746473,
				"element": "H" 
			},
			{
				"x": -2.9191594874,
				"y": 0.1147931602,
				"z": -4.3518529307,
				"element": "H" 
			},
			{
				"x": -3.8288701764,
				"y": 2.4354101903,
				"z": -4.2844094468,
				"element": "H" 
			},
			{
				"x": -2.8860977968,
				"y": 4.0826234813,
				"z": -2.6936801663,
				"element": "H" 
			}
		],
		 "valence_orbital": [ 
			{
				"type": "occ",
				"energy": -0.26888,
				"method": "rhf"
			},
			{
				"type": "occ",
				"energy": -0.23058,
				"method": "rhf"
			},
			{
				"type": "occ",
				"energy": -0.22983,
				"method": "rhf"
			},
			{
				"type": "occ",
				"energy": -0.20599,
				"method": "rhf"
			},
			{
				"type": "occ",
				"energy": -0.20295,
				"method": "rhf"
			},
			{
				"type": "unocc",
				"energy": -0.03337,
				"method": "rhf"
			},
			{
				"type": "unocc",
				"energy": -0.03252,
				"method": "rhf"
			},
			{
				"type": "unocc",
				"energy": -0.00298,
				"method": "rhf"
			},
			{
				"type": "unocc",
				"energy": 0.003,
				"method": "rhf"
			},
			{
				"type": "unocc",
				"energy": 0.03586,
				"method": "rhf"
			}
		],
		"cosmo_sigma_profile": { 
			"-0.025": 0.0,
			"-0.024": 0.0,
			"-0.023": 0.0,
			"-0.022": 0.0,
			"-0.021": 0.0,
			"-0.02": 0.0,
			"-0.019": 0.0,
			"-0.018": 0.0,
			"-0.017": 0.0,
			"-0.016": 0.0,
			"-0.015": 0.0,
			"-0.014": 0.0,
			"-0.013": 0.0,
			"-0.012": 0.0,
			"-0.011": 0.0,
			"-0.01": 0.0,
			"-0.009": 0.0,
			"-0.008": 0.0,
			"-0.007": 0.513949986694,
			"-0.006": 13.9413271959,
			"-0.005": 26.5080524712,
			"-0.004": 43.6285603511,
			"-0.003": 48.2979993109,
			"-0.002": 42.2805743202,
			"-0.001": 37.1366002267,
			"0.0": 43.9119137411,
			"0.001": 36.7745313023,
			"0.002": 32.1303402267,
			"0.003": 31.3423989037,
			"0.004": 34.9234632651,
			"0.005": 27.8281955337,
			"0.006": 12.2082272505,
			"0.007": 3.69219147036,
			"0.008": 3.85843350137,
			"0.009": 2.72033146907,
			"0.01": 2.03012897242,
			"0.011": 0.890860935974,
			"0.012": 0.0,
			"0.013": 0.0,
			"0.014": 0.0,
			"0.015": 0.0,
			"0.016": 0.0,
			"0.017": 0.0,
			"0.018": 0.0,
			"0.019": 0.0,
			"0.02": 0.0,
			"0.021": 0.0,
			"0.022": 0.0,
			"0.023": 0.0,
			"0.024": 0.0,
			"0.025": 0.0
		}
	}
}
