{
	 "smiles": "NC1(CCOCC1)C1=CC=C(Br)C=C1", 
	 "Tm": 359.15, 
	 "num_atms": 28, 
	 "gaussian": { 
		 "optdone": 1, 
		 "sigma_profile": "yes", 
		 "theory": "DFT", 
		 "functional": "B3LYP", 
		 "basiset": "6-31G**", 
		 "properties": { 
			 "R2extent": 7496.564, 
			 "electric_dipole_moment_norm": 3.43492873143, 
			 "electric_quadrupole_moment_norm": 9.46495112454, 
			 "total_energy": -3128.96396928, 
			 "HOMO_LUMO_gap": 0.21914, 
			 "cosmo_polarized_energy": -11.54, 
			 "cosmo_cavitation_energy": 30.94, 
			 "cosmo_dispersion_energy": -23.08, 
			 "cosmo_repulsion_energy": 1.8, 
			 "cosmo_total_nonelectrostatic_energy": 9.66, 
			 "SMD_solvation_energy": 2.81 
		},
		"coords": [
			{
				"x": -2.8338077923,
				"y": 0.5847445412,
				"z": -0.3277477992,
				"element": "N" 
			},
			{
				"x": -1.6526733504,
				"y": -0.0989077028,
				"z": 0.2371262394,
				"element": "C" 
			},
			{
				"x": -0.5035340394,
				"y": -0.2920509941,
				"z": -0.7916084005,
				"element": "C" 
			},
			{
				"x": 0.6795632364,
				"y": -1.072896547,
				"z": -0.1843275714,
				"element": "C" 
			},
			{
				"x": 0.2742423853,
				"y": -1.9807796056,
				"z": 0.8385893706,
				"element": "O" 
			},
			{
				"x": -0.9918026145,
				"y": -2.5665895695,
				"z": 0.5765964937,
				"element": "C" 
			},
			{
				"x": -2.1280721171,
				"y": -1.5216711136,
				"z": 0.6406865883,
				"element": "C" 
			},
			{
				"x": -1.1384327861,
				"y": 0.7542375686,
				"z": 1.4135064314,
				"element": "C" 
			},
			{
				"x": -0.9250076769,
				"y": 0.2491217951,
				"z": 2.7014725196,
				"element": "C" 
			},
			{
				"x": -0.4551500266,
				"y": 1.0587904174,
				"z": 3.737512975,
				"element": "C" 
			},
			{
				"x": -0.1833107714,
				"y": 2.3998680016,
				"z": 3.4879124608,
				"element": "C" 
			},
			{
				"x": 0.4561255546,
				"y": 3.518967932,
				"z": 4.900851591,
				"element": "Br" 
			},
			{
				"x": -0.3639480592,
				"y": 2.9343149568,
				"z": 2.2145859056,
				"element": "C" 
			},
			{
				"x": -0.8320935578,
				"y": 2.1077025866,
				"z": 1.1947454038,
				"element": "C" 
			},
			{
				"x": -3.0918838798,
				"y": 0.1369005431,
				"z": -1.2052740293,
				"element": "H" 
			},
			{
				"x": -2.6225910631,
				"y": 1.5533575446,
				"z": -0.5512370556,
				"element": "H" 
			},
			{
				"x": -0.1521376347,
				"y": 0.6741928353,
				"z": -1.1698821734,
				"element": "H" 
			},
			{
				"x": -0.9164178006,
				"y": -0.8346747426,
				"z": -1.6527114954,
				"element": "H" 
			},
			{
				"x": 1.3862157191,
				"y": -0.3896066056,
				"z": 0.2957739683,
				"element": "H" 
			},
			{
				"x": 1.2189640139,
				"y": -1.6154190407,
				"z": -0.9775470994,
				"element": "H" 
			},
			{
				"x": -1.1288114136,
				"y": -3.3458945327,
				"z": 1.3317985336,
				"element": "H" 
			},
			{
				"x": -0.9839636513,
				"y": -3.0669138296,
				"z": -0.405852622,
				"element": "H" 
			},
			{
				"x": -2.9199363912,
				"y": -1.8168641007,
				"z": -0.0574316278,
				"element": "H" 
			},
			{
				"x": -2.5990832285,
				"y": -1.492628924,
				"z": 1.6262673978,
				"element": "H" 
			},
			{
				"x": -1.1034205829,
				"y": -0.7968481651,
				"z": 2.9154052789,
				"element": "H" 
			},
			{
				"x": -0.2994133347,
				"y": 0.6447224447,
				"z": 4.72726374,
				"element": "H" 
			},
			{
				"x": -0.1407259323,
				"y": 3.9773999127,
				"z": 2.0210361217,
				"element": "H" 
			},
			{
				"x": -0.949693205,
				"y": 2.5442243939,
				"z": 0.2061888547,
				"element": "H" 
			}
		],
		 "valence_orbital": [ 
			{
				"type": "occ",
				"energy": -0.28326,
				"method": "rhf"
			},
			{
				"type": "occ",
				"energy": -0.26038,
				"method": "rhf"
			},
			{
				"type": "occ",
				"energy": -0.25192,
				"method": "rhf"
			},
			{
				"type": "occ",
				"energy": -0.24062,
				"method": "rhf"
			},
			{
				"type": "occ",
				"energy": -0.23255,
				"method": "rhf"
			},
			{
				"type": "unocc",
				"energy": -0.01341,
				"method": "rhf"
			},
			{
				"type": "unocc",
				"energy": -0.00946,
				"method": "rhf"
			},
			{
				"type": "unocc",
				"energy": 0.01067,
				"method": "rhf"
			},
			{
				"type": "unocc",
				"energy": 0.06677,
				"method": "rhf"
			},
			{
				"type": "unocc",
				"energy": 0.09128,
				"method": "rhf"
			}
		],
		"cosmo_sigma_profile": { 
			"-0.025": 0.0,
			"-0.024": 0.0,
			"-0.023": 0.0,
			"-0.022": 0.0,
			"-0.021": 0.0,
			"-0.02": 0.0,
			"-0.019": 0.0,
			"-0.018": 0.0,
			"-0.017": 0.0,
			"-0.016": 0.0,
			"-0.015": 0.0,
			"-0.014": 0.0,
			"-0.013": 0.0,
			"-0.012": 0.0,
			"-0.011": 0.0848477963439,
			"-0.01": 1.55119866656,
			"-0.009": 2.84637889378,
			"-0.008": 3.60783630481,
			"-0.007": 6.78983435634,
			"-0.006": 9.85383145197,
			"-0.005": 12.8182723449,
			"-0.004": 21.0694271237,
			"-0.003": 28.0136369326,
			"-0.002": 25.1174695635,
			"-0.001": 18.7150429514,
			"0.0": 13.7524184411,
			"0.001": 12.9565588729,
			"0.002": 14.9048735615,
			"0.003": 17.3417466155,
			"0.004": 20.8780039263,
			"0.005": 14.0314669961,
			"0.006": 2.67847435452,
			"0.007": 2.25934082921,
			"0.008": 2.93294159507,
			"0.009": 2.34318895179,
			"0.01": 1.85845745855,
			"0.011": 1.40708610645,
			"0.012": 1.7160392275,
			"0.013": 2.10379108377,
			"0.014": 1.6190547298,
			"0.015": 0.820784040518,
			"0.016": 0.609245879368,
			"0.017": 0.149044771702,
			"0.018": 0.717702443352,
			"0.019": 0.534111352166,
			"0.02": 0.0,
			"0.021": 0.0,
			"0.022": 0.0,
			"0.023": 0.0,
			"0.024": 0.0,
			"0.025": 0.0
		}
	}
}
