{
	 "smiles": "OC(=O)C1(CCCC1)C1=CC=C(Cl)C=C1", 
	 "Tm": 435.15, 
	 "num_atms": 28, 
	 "gaussian": { 
		 "optdone": 1, 
		 "sigma_profile": "yes", 
		 "theory": "DFT", 
		 "functional": "B3LYP", 
		 "basiset": "6-31G**", 
		 "properties": { 
			 "R2extent": 4413.1088, 
			 "electric_dipole_moment_norm": 3.27137242912, 
			 "electric_quadrupole_moment_norm": 16.9240155767, 
			 "total_energy": -1075.76639695, 
			 "HOMO_LUMO_gap": 0.21673, 
			 "cosmo_polarized_energy": -12.49, 
			 "cosmo_cavitation_energy": 31.43, 
			 "cosmo_dispersion_energy": -22.63, 
			 "cosmo_repulsion_energy": 1.77, 
			 "cosmo_total_nonelectrostatic_energy": 10.57, 
			 "SMD_solvation_energy": 5.55 
		},
		"coords": [
			{
				"x": -1.9145785057,
				"y": 0.2180070534,
				"z": -1.9487401824,
				"element": "O" 
			},
			{
				"x": -1.8442921356,
				"y": -0.5730532227,
				"z": -0.8515435583,
				"element": "C" 
			},
			{
				"x": -2.7471026341,
				"y": -1.3331890873,
				"z": -0.5962503823,
				"element": "O" 
			},
			{
				"x": -0.6152753307,
				"y": -0.3774911216,
				"z": 0.0670773774,
				"element": "C" 
			},
			{
				"x": -1.0384199944,
				"y": 0.5675794784,
				"z": 1.2337335559,
				"element": "C" 
			},
			{
				"x": -0.1175917846,
				"y": 0.2088041049,
				"z": 2.4282290382,
				"element": "C" 
			},
			{
				"x": 0.4681353617,
				"y": -1.1936650571,
				"z": 2.1012946988,
				"element": "C" 
			},
			{
				"x": -0.2991213112,
				"y": -1.6762507098,
				"z": 0.8571886633,
				"element": "C" 
			},
			{
				"x": 0.6115689436,
				"y": 0.0943871833,
				"z": -0.7238406944,
				"element": "C" 
			},
			{
				"x": 1.2927913462,
				"y": 1.2912754216,
				"z": -0.4606952288,
				"element": "C" 
			},
			{
				"x": 2.4176406377,
				"y": 1.6705771681,
				"z": -1.19806627,
				"element": "C" 
			},
			{
				"x": 2.8722967237,
				"y": 0.8456764857,
				"z": -2.2225111778,
				"element": "C" 
			},
			{
				"x": 4.2830308818,
				"y": 1.3137828305,
				"z": -3.1560134157,
				"element": "Cl" 
			},
			{
				"x": 2.2154235731,
				"y": -0.3498633966,
				"z": -2.51842982,
				"element": "C" 
			},
			{
				"x": 1.0996638151,
				"y": -0.7131455956,
				"z": -1.769718028,
				"element": "C" 
			},
			{
				"x": -1.0939925765,
				"y": 0.7286840821,
				"z": -2.0328246028,
				"element": "H" 
			},
			{
				"x": -1.020130429,
				"y": 1.6270805541,
				"z": 0.9625082127,
				"element": "H" 
			},
			{
				"x": -2.0757401315,
				"y": 0.3245582938,
				"z": 1.4814652321,
				"element": "H" 
			},
			{
				"x": 0.6824627278,
				"y": 0.9447404159,
				"z": 2.5543218333,
				"element": "H" 
			},
			{
				"x": -0.6893473981,
				"y": 0.2060644302,
				"z": 3.3608108123,
				"element": "H" 
			},
			{
				"x": 1.5369316271,
				"y": -1.1131115457,
				"z": 1.8772891659,
				"element": "H" 
			},
			{
				"x": 0.3696099871,
				"y": -1.8949837587,
				"z": 2.9348429242,
				"element": "H" 
			},
			{
				"x": -1.2542823321,
				"y": -2.1326062869,
				"z": 1.1315672895,
				"element": "H" 
			},
			{
				"x": 0.2589757257,
				"y": -2.4073664567,
				"z": 0.2655832072,
				"element": "H" 
			},
			{
				"x": 0.9589555862,
				"y": 1.9475537657,
				"z": 0.3348372698,
				"element": "H" 
			},
			{
				"x": 2.9339295521,
				"y": 2.5979985764,
				"z": -0.9760728153,
				"element": "H" 
			},
			{
				"x": 2.5733171282,
				"y": -0.9840379373,
				"z": -3.3219053044,
				"element": "H" 
			},
			{
				"x": 0.5934409462,
				"y": -1.6446056682,
				"z": -2.0089378005,
				"element": "H" 
			}
		],
		 "valence_orbital": [ 
			{
				"type": "occ",
				"energy": -0.32294,
				"method": "rhf"
			},
			{
				"type": "occ",
				"energy": -0.3109,
				"method": "rhf"
			},
			{
				"type": "occ",
				"energy": -0.27947,
				"method": "rhf"
			},
			{
				"type": "occ",
				"energy": -0.27582,
				"method": "rhf"
			},
			{
				"type": "occ",
				"energy": -0.25162,
				"method": "rhf"
			},
			{
				"type": "unocc",
				"energy": -0.03489,
				"method": "rhf"
			},
			{
				"type": "unocc",
				"energy": -0.03056,
				"method": "rhf"
			},
			{
				"type": "unocc",
				"energy": 0.00678,
				"method": "rhf"
			},
			{
				"type": "unocc",
				"energy": 0.02056,
				"method": "rhf"
			},
			{
				"type": "unocc",
				"energy": 0.07115,
				"method": "rhf"
			}
		],
		"cosmo_sigma_profile": { 
			"-0.025": 0.0,
			"-0.024": 0.0,
			"-0.023": 0.0,
			"-0.022": 0.0,
			"-0.021": 0.0,
			"-0.02": 0.0,
			"-0.019": 0.0,
			"-0.018": 0.0,
			"-0.017": 0.0,
			"-0.016": 0.0,
			"-0.015": 0.319504401754,
			"-0.014": 0.290679645959,
			"-0.013": 0.927337280939,
			"-0.012": 1.06894756062,
			"-0.011": 0.923597090469,
			"-0.01": 1.50114054837,
			"-0.009": 0.866252436815,
			"-0.008": 2.55388050773,
			"-0.007": 8.82438291082,
			"-0.006": 11.3653769426,
			"-0.005": 11.3727137776,
			"-0.004": 11.9716093563,
			"-0.003": 19.624715982,
			"-0.002": 25.5731350289,
			"-0.001": 27.5595279707,
			"0.0": 23.790767964,
			"0.001": 22.8699753359,
			"0.002": 17.2727448728,
			"0.003": 14.1247819753,
			"0.004": 12.8827799322,
			"0.005": 7.78407754007,
			"0.006": 1.64706221519,
			"0.007": 3.26348597537,
			"0.008": 2.18689015953,
			"0.009": 3.08761208855,
			"0.01": 4.60127110074,
			"0.011": 4.79739949856,
			"0.012": 5.18250734032,
			"0.013": 1.9595826016,
			"0.014": 0.104807268206,
			"0.015": 0.0,
			"0.016": 0.0,
			"0.017": 0.0,
			"0.018": 0.0,
			"0.019": 0.0,
			"0.02": 0.0,
			"0.021": 0.0,
			"0.022": 0.0,
			"0.023": 0.0,
			"0.024": 0.0,
			"0.025": 0.0
		}
	}
}
