{
	 "smiles": "CC(=O)CC(=O)NC1=CC=C(Br)C=C1", 
	 "Tm": 411.15, 
	 "num_atms": 24, 
	 "gaussian": { 
		 "optdone": 1, 
		 "sigma_profile": "yes", 
		 "theory": "DFT", 
		 "functional": "B3LYP", 
		 "basiset": "6-31G**", 
		 "properties": { 
			 "R2extent": 7625.7909, 
			 "electric_dipole_moment_norm": 3.67679617602, 
			 "electric_quadrupole_moment_norm": 12.2636579653, 
			 "total_energy": -3163.70435801, 
			 "HOMO_LUMO_gap": 0.20149, 
			 "cosmo_polarized_energy": -15.99, 
			 "cosmo_cavitation_energy": 31.18, 
			 "cosmo_dispersion_energy": -22.59, 
			 "cosmo_repulsion_energy": 1.81, 
			 "cosmo_total_nonelectrostatic_energy": 10.39, 
			 "SMD_solvation_energy": 5.53 
		},
		"coords": [
			{
				"x": 1.2403791916,
				"y": 1.5809188936,
				"z": 2.9426700731,
				"element": "C" 
			},
			{
				"x": 2.0038900557,
				"y": 1.0414267912,
				"z": 1.7524600576,
				"element": "C" 
			},
			{
				"x": 3.2153619893,
				"y": 1.077522979,
				"z": 1.6837449796,
				"element": "O" 
			},
			{
				"x": 1.1901202011,
				"y": 0.4800232481,
				"z": 0.5771139972,
				"element": "C" 
			},
			{
				"x": 0.2152473744,
				"y": -0.6134725385,
				"z": 0.9941778155,
				"element": "C" 
			},
			{
				"x": 0.369310926,
				"y": -1.2621782252,
				"z": 2.0204787523,
				"element": "O" 
			},
			{
				"x": -0.8776987985,
				"y": -0.8691702655,
				"z": 0.1865859389,
				"element": "N" 
			},
			{
				"x": -1.323566903,
				"y": -0.2678069002,
				"z": -1.0135092916,
				"element": "C" 
			},
			{
				"x": -2.6946663207,
				"y": -0.0088650138,
				"z": -1.1626448263,
				"element": "C" 
			},
			{
				"x": -3.192284495,
				"y": 0.5446624341,
				"z": -2.3391097926,
				"element": "C" 
			},
			{
				"x": -2.3116097349,
				"y": 0.8593112147,
				"z": -3.3736069376,
				"element": "C" 
			},
			{
				"x": -2.9834573152,
				"y": 1.6358503592,
				"z": -4.9823345481,
				"element": "Br" 
			},
			{
				"x": -0.9478674189,
				"y": 0.6042001355,
				"z": -3.2473548624,
				"element": "C" 
			},
			{
				"x": -0.4581971213,
				"y": 0.0267129532,
				"z": -2.0763164192,
				"element": "C" 
			},
			{
				"x": 1.9244853976,
				"y": 2.1193943867,
				"z": 3.5996260425,
				"element": "H" 
			},
			{
				"x": 0.7900423946,
				"y": 0.7420528142,
				"z": 3.4819578688,
				"element": "H" 
			},
			{
				"x": 0.4264133989,
				"y": 2.2422987908,
				"z": 2.6238898407,
				"element": "H" 
			},
			{
				"x": 0.6623767488,
				"y": 1.3022853592,
				"z": 0.078497187,
				"element": "H" 
			},
			{
				"x": 1.9139603617,
				"y": 0.0739483126,
				"z": -0.1359812226,
				"element": "H" 
			},
			{
				"x": -1.4992496103,
				"y": -1.5456661154,
				"z": 0.6146156372,
				"element": "H" 
			},
			{
				"x": -3.374069422,
				"y": -0.2354891926,
				"z": -0.3457731141,
				"element": "H" 
			},
			{
				"x": -4.2529968684,
				"y": 0.7407084515,
				"z": -2.4457364218,
				"element": "H" 
			},
			{
				"x": -0.2723947763,
				"y": 0.8329552692,
				"z": -4.0636594506,
				"element": "H" 
			},
			{
				"x": 0.5954707447,
				"y": -0.2154241417,
				"z": -2.0057913035,
				"element": "H" 
			}
		],
		 "valence_orbital": [ 
			{
				"type": "occ",
				"energy": -0.29254,
				"method": "rhf"
			},
			{
				"type": "occ",
				"energy": -0.28252,
				"method": "rhf"
			},
			{
				"type": "occ",
				"energy": -0.2728,
				"method": "rhf"
			},
			{
				"type": "occ",
				"energy": -0.24971,
				"method": "rhf"
			},
			{
				"type": "occ",
				"energy": -0.23897,
				"method": "rhf"
			},
			{
				"type": "unocc",
				"energy": -0.03748,
				"method": "rhf"
			},
			{
				"type": "unocc",
				"energy": -0.03342,
				"method": "rhf"
			},
			{
				"type": "unocc",
				"energy": -0.01729,
				"method": "rhf"
			},
			{
				"type": "unocc",
				"energy": -0.00401,
				"method": "rhf"
			},
			{
				"type": "unocc",
				"energy": 0.01328,
				"method": "rhf"
			}
		],
		"cosmo_sigma_profile": { 
			"-0.025": 0.0,
			"-0.024": 0.0,
			"-0.023": 0.0,
			"-0.022": 0.0,
			"-0.021": 0.0,
			"-0.02": 0.0,
			"-0.019": 0.0,
			"-0.018": 0.0,
			"-0.017": 0.0,
			"-0.016": 0.0,
			"-0.015": 0.264967474663,
			"-0.014": 1.30020454961,
			"-0.013": 1.05456538432,
			"-0.012": 0.851814630545,
			"-0.011": 1.37009783775,
			"-0.01": 1.43826476506,
			"-0.009": 3.60860211464,
			"-0.008": 8.00270828601,
			"-0.007": 12.0307613914,
			"-0.006": 13.4498050158,
			"-0.005": 13.5975550573,
			"-0.004": 14.5572856619,
			"-0.003": 16.4911308205,
			"-0.002": 16.2958497483,
			"-0.001": 17.628248441,
			"0.0": 15.4646189459,
			"0.001": 15.7612580039,
			"0.002": 21.5034009852,
			"0.003": 20.2892707877,
			"0.004": 14.8864570622,
			"0.005": 8.67129846744,
			"0.006": 2.89965425907,
			"0.007": 2.5824272485,
			"0.008": 3.65166021399,
			"0.009": 2.66385026049,
			"0.01": 3.87157690924,
			"0.011": 5.52004178047,
			"0.012": 7.69087731084,
			"0.013": 4.05328467977,
			"0.014": 0.234477431584,
			"0.015": 0.0,
			"0.016": 0.0,
			"0.017": 0.0,
			"0.018": 0.0,
			"0.019": 0.0,
			"0.02": 0.0,
			"0.021": 0.0,
			"0.022": 0.0,
			"0.023": 0.0,
			"0.024": 0.0,
			"0.0": 0.0
		}
	}
}
