{
	 "smiles": "ClC1=NC=C(CN2C(=O)NC3(CCCC3)C2=O)C=C1", 
	 "Tm": 443.15, 
	 "num_atms": 33, 
	 "gaussian": { 
		 "optdone": 1, 
		 "sigma_profile": "yes", 
		 "theory": "DFT", 
		 "functional": "B3LYP", 
		 "basiset": "6-31G**", 
		 "properties": { 
			 "R2extent": 7259.0265, 
			 "electric_dipole_moment_norm": 5.69021798001, 
			 "electric_quadrupole_moment_norm": 18.6539765332, 
			 "total_energy": -1278.76631235, 
			 "HOMO_LUMO_gap": 0.2192, 
			 "cosmo_polarized_energy": -17.09, 
			 "cosmo_cavitation_energy": 38.18, 
			 "cosmo_dispersion_energy": -26.8, 
			 "cosmo_repulsion_energy": 2.08, 
			 "cosmo_total_nonelectrostatic_energy": 13.45, 
			 "SMD_solvation_energy": 4.78 
		},
		"coords": [
			{
				"x": 5.9004919526,
				"y": -0.8658530669,
				"z": -1.8950271914,
				"element": "Cl" 
			},
			{
				"x": 4.3890549528,
				"y": -1.0509495058,
				"z": -1.0046398712,
				"element": "C" 
			},
			{
				"x": 4.3484729604,
				"y": -0.535155349,
				"z": 0.2090712003,
				"element": "N" 
			},
			{
				"x": 3.2053336234,
				"y": -0.6731710465,
				"z": 0.8962817377,
				"element": "C" 
			},
			{
				"x": 2.0761884989,
				"y": -1.3291979315,
				"z": 0.4000631355,
				"element": "C" 
			},
			{
				"x": 0.8146660138,
				"y": -1.4403160622,
				"z": 1.2295871768,
				"element": "C" 
			},
			{
				"x": -0.1559937785,
				"y": -0.3883138014,
				"z": 0.938759623,
				"element": "N" 
			},
			{
				"x": -0.2172347787,
				"y": 0.8222975095,
				"z": 1.6717748285,
				"element": "C" 
			},
			{
				"x": 0.4687273004,
				"y": 1.0893837213,
				"z": 2.6393982598,
				"element": "O" 
			},
			{
				"x": -1.1813994927,
				"y": 1.576988802,
				"z": 1.0627775845,
				"element": "N" 
			},
			{
				"x": -1.8709617841,
				"y": 0.8921914579,
				"z": -0.0248875086,
				"element": "C" 
			},
			{
				"x": -1.8562021291,
				"y": 1.6388467623,
				"z": -1.4018279647,
				"element": "C" 
			},
			{
				"x": -3.3337570842,
				"y": 1.8323199786,
				"z": -1.8001805955,
				"element": "C" 
			},
			{
				"x": -4.0518787428,
				"y": 0.6577907552,
				"z": -1.1165754525,
				"element": "C" 
			},
			{
				"x": -3.3779480903,
				"y": 0.6010712656,
				"z": 0.2600028727,
				"element": "C" 
			},
			{
				"x": -1.0666647526,
				"y": -0.4173425323,
				"z": -0.0911225839,
				"element": "C" 
			},
			{
				"x": -1.2130222545,
				"y": -1.3188414758,
				"z": -0.8987536752,
				"element": "O" 
			},
			{
				"x": 2.1523771984,
				"y": -1.8585916218,
				"z": -0.8954582562,
				"element": "C" 
			},
			{
				"x": 3.3299101418,
				"y": -1.7231486011,
				"z": -1.6223957803,
				"element": "C" 
			},
			{
				"x": 3.1883679249,
				"y": -0.2314518278,
				"z": 1.8908202745,
				"element": "H" 
			},
			{
				"x": 0.3179200216,
				"y": -2.3962882869,
				"z": 1.0453620662,
				"element": "H" 
			},
			{
				"x": 1.0474480548,
				"y": -1.358992841,
				"z": 2.2934552291,
				"element": "H" 
			},
			{
				"x": -1.5017402155,
				"y": 2.4304958719,
				"z": 1.4935301165,
				"element": "H" 
			},
			{
				"x": -1.3505728089,
				"y": 1.0086969926,
				"z": -2.1394650788,
				"element": "H" 
			},
			{
				"x": -1.2960409844,
				"y": 2.5741552366,
				"z": -1.3243033165,
				"element": "H" 
			},
			{
				"x": -3.4741568382,
				"y": 1.8530130116,
				"z": -2.8846326168,
				"element": "H" 
			},
			{
				"x": -3.7158164268,
				"y": 2.781817263,
				"z": -1.404178123,
				"element": "H" 
			},
			{
				"x": -3.854392371,
				"y": -0.2719806149,
				"z": -1.6613151117,
				"element": "H" 
			},
			{
				"x": -5.1362767091,
				"y": 0.7883966769,
				"z": -1.050867263,
				"element": "H" 
			},
			{
				"x": -3.5274615214,
				"y": -0.3429284577,
				"z": 0.7914649188,
				"element": "H" 
			},
			{
				"x": -3.7628997391,
				"y": 1.4036625476,
				"z": 0.9016711695,
				"element": "H" 
			},
			{
				"x": 1.2901692503,
				"y": -2.3584310993,
				"z": -1.3274281163,
				"element": "H" 
			},
			{
				"x": 3.4330926078,
				"y": -2.1193737307,
				"z": -2.6254616879,
				"element": "H" 
			}
		],
		 "valence_orbital": [ 
			{
				"type": "occ",
				"energy": -0.28546,
				"method": "rhf"
			},
			{
				"type": "occ",
				"energy": -0.27211,
				"method": "rhf"
			},
			{
				"type": "occ",
				"energy": -0.27173,
				"method": "rhf"
			},
			{
				"type": "occ",
				"energy": -0.26525,
				"method": "rhf"
			},
			{
				"type": "occ",
				"energy": -0.25598,
				"method": "rhf"
			},
			{
				"type": "unocc",
				"energy": -0.03678,
				"method": "rhf"
			},
			{
				"type": "unocc",
				"energy": -0.02709,
				"method": "rhf"
			},
			{
				"type": "unocc",
				"energy": -0.01605,
				"method": "rhf"
			},
			{
				"type": "unocc",
				"energy": 0.03614,
				"method": "rhf"
			},
			{
				"type": "unocc",
				"energy": 0.05359,
				"method": "rhf"
			}
		],
		"cosmo_sigma_profile": { 
			"-0.025": 0.0,
			"-0.024": 0.0,
			"-0.023": 0.0,
			"-0.022": 0.0,
			"-0.021": 0.0,
			"-0.02": 0.0,
			"-0.019": 0.0,
			"-0.018": 0.0,
			"-0.017": 0.0,
			"-0.016": 0.0571424655121,
			"-0.015": 1.10071131461,
			"-0.014": 1.14212102448,
			"-0.013": 1.06256381019,
			"-0.012": 1.40199909989,
			"-0.011": 0.657016826019,
			"-0.01": 1.16376035456,
			"-0.009": 1.78181306829,
			"-0.008": 3.10790792327,
			"-0.007": 7.82986207752,
			"-0.006": 12.0097455248,
			"-0.005": 14.9107665545,
			"-0.004": 21.2590116907,
			"-0.003": 27.2558768343,
			"-0.002": 29.297427874,
			"-0.001": 33.4965948377,
			"0.0": 35.8768419628,
			"0.001": 22.6043523184,
			"0.002": 12.2001013635,
			"0.003": 12.3349227075,
			"0.004": 14.1044477564,
			"0.005": 9.1435020952,
			"0.006": 5.53272779681,
			"0.007": 3.73935153913,
			"0.008": 5.08884335907,
			"0.009": 3.87325902616,
			"0.01": 3.72629708676,
			"0.011": 5.23888102612,
			"0.012": 7.14553185805,
			"0.013": 4.97931392723,
			"0.014": 1.30412954299,
			"0.015": 0.100197710423,
			"0.016": 0.0,
			"0.017": 0.0,
			"0.018": 0.0,
			"0.019": 0.0,
			"0.02": 0.0,
			"0.021": 0.0,
			"0.022": 0.0,
			"0.023": 0.0,
			"0.024": 0.0,
			"0.025": 0.0
		}
	}
}
