{
	 "smiles": "OC(=O)C1=NC(SC2=CC(Br)=CC=C2)=CC=C1", 
	 "Tm": 387.15, 
	 "num_atms": 25, 
	 "gaussian": { 
		 "optdone": 1, 
		 "sigma_profile": "yes", 
		 "theory": "DFT", 
		 "functional": "B3LYP", 
		 "basiset": "6-31G**", 
		 "properties": { 
			 "R2extent": 8461.7771, 
			 "electric_dipole_moment_norm": 4.3284678005, 
			 "electric_quadrupole_moment_norm": 22.973157801, 
			 "total_energy": -3636.90063439, 
			 "HOMO_LUMO_gap": 0.175, 
			 "cosmo_polarized_energy": -13.23, 
			 "cosmo_cavitation_energy": 34.92, 
			 "cosmo_dispersion_energy": -24.96, 
			 "cosmo_repulsion_energy": 1.9, 
			 "cosmo_total_nonelectrostatic_energy": 11.87, 
			 "SMD_solvation_energy": 5.14 
		},
		"coords": [
			{
				"x": 2.6979368632,
				"y": 0.5529889204,
				"z": -0.4602859796,
				"element": "O" 
			},
			{
				"x": 2.175299398,
				"y": 1.6317667157,
				"z": -1.0625931164,
				"element": "C" 
			},
			{
				"x": 2.8347709265,
				"y": 2.5876887709,
				"z": -1.4029769667,
				"element": "O" 
			},
			{
				"x": 0.6829851075,
				"y": 1.5464032136,
				"z": -1.2749702321,
				"element": "C" 
			},
			{
				"x": 0.1017676935,
				"y": 0.4164443462,
				"z": -0.8328922858,
				"element": "N" 
			},
			{
				"x": -1.210935564,
				"y": 0.2768936405,
				"z": -0.984054895,
				"element": "C" 
			},
			{
				"x": -2.0347088885,
				"y": -1.2050796159,
				"z": -0.4024476119,
				"element": "S" 
			},
			{
				"x": -0.6777298517,
				"y": -2.2037759034,
				"z": 0.2095555471,
				"element": "C" 
			},
			{
				"x": -0.2026073116,
				"y": -3.2563067125,
				"z": -0.5807918888,
				"element": "C" 
			},
			{
				"x": 0.8124698286,
				"y": -4.0712585762,
				"z": -0.081146224,
				"element": "C" 
			},
			{
				"x": 1.4596968719,
				"y": -5.5137720857,
				"z": -1.1519699961,
				"element": "Br" 
			},
			{
				"x": 1.3634760608,
				"y": -3.851674918,
				"z": 1.180170788,
				"element": "C" 
			},
			{
				"x": 0.8797360464,
				"y": -2.797214846,
				"z": 1.9576238393,
				"element": "C" 
			},
			{
				"x": -0.1432015386,
				"y": -1.9763037942,
				"z": 1.4835089503,
				"element": "C" 
			},
			{
				"x": -2.0086673134,
				"y": 1.2666846537,
				"z": -1.5879938886,
				"element": "C" 
			},
			{
				"x": -1.3944490962,
				"y": 2.4282521498,
				"z": -2.0396288284,
				"element": "C" 
			},
			{
				"x": -0.013445477,
				"y": 2.5828661814,
				"z": -1.8842456618,
				"element": "C" 
			},
			{
				"x": 1.9525919854,
				"y": -0.0625409005,
				"z": -0.2982141287,
				"element": "H" 
			},
			{
				"x": -0.6171972503,
				"y": -3.4340431711,
				"z": -1.5655988372,
				"element": "H" 
			},
			{
				"x": 2.1540914241,
				"y": -4.495189285,
				"z": 1.548468798,
				"element": "H" 
			},
			{
				"x": 1.3020556067,
				"y": -2.6220612572,
				"z": 2.9424029457,
				"element": "H" 
			},
			{
				"x": -0.5265708535,
				"y": -1.1647382434,
				"z": 2.0921181826,
				"element": "H" 
			},
			{
				"x": -3.0781143934,
				"y": 1.1180486985,
				"z": -1.6965855304,
				"element": "H" 
			},
			{
				"x": -1.9867624678,
				"y": 3.2073711164,
				"z": -2.5101273282,
				"element": "H" 
			},
			{
				"x": 0.5223121936,
				"y": 3.464250902,
				"z": -2.2149256514,
				"element": "H" 
			}
		],
		 "valence_orbital": [ 
			{
				"type": "occ",
				"energy": -0.29714,
				"method": "rhf"
			},
			{
				"type": "occ",
				"energy": -0.28001,
				"method": "rhf"
			},
			{
				"type": "occ",
				"energy": -0.2684,
				"method": "rhf"
			},
			{
				"type": "occ",
				"energy": -0.25773,
				"method": "rhf"
			},
			{
				"type": "occ",
				"energy": -0.2439,
				"method": "rhf"
			},
			{
				"type": "unocc",
				"energy": -0.0689,
				"method": "rhf"
			},
			{
				"type": "unocc",
				"energy": -0.04607,
				"method": "rhf"
			},
			{
				"type": "unocc",
				"energy": -0.04081,
				"method": "rhf"
			},
			{
				"type": "unocc",
				"energy": -0.02992,
				"method": "rhf"
			},
			{
				"type": "unocc",
				"energy": -0.0094,
				"method": "rhf"
			}
		],
		"cosmo_sigma_profile": { 
			"-0.025": 0.0,
			"-0.024": 0.0,
			"-0.023": 0.0,
			"-0.022": 0.0,
			"-0.021": 0.0,
			"-0.02": 0.0,
			"-0.019": 0.0,
			"-0.018": 0.0,
			"-0.017": 0.0,
			"-0.016": 0.0,
			"-0.015": 0.0,
			"-0.014": 0.0,
			"-0.013": 0.0,
			"-0.012": 0.0,
			"-0.011": 0.0,
			"-0.01": 0.0,
			"-0.009": 1.26093616023,
			"-0.008": 7.22990700921,
			"-0.007": 15.0259497282,
			"-0.006": 15.1278741687,
			"-0.005": 14.6178613518,
			"-0.004": 16.0548611521,
			"-0.003": 16.5937849447,
			"-0.002": 18.1140565337,
			"-0.001": 25.7551342812,
			"0.0": 32.3834527881,
			"0.001": 32.6007511911,
			"0.002": 22.4974500924,
			"0.003": 15.617701589,
			"0.004": 16.9676355635,
			"0.005": 7.09764449199,
			"0.006": 4.38756037031,
			"0.007": 3.49624838851,
			"0.008": 2.39018195246,
			"0.009": 4.09706838337,
			"0.01": 5.4777855789,
			"0.011": 5.00485863526,
			"0.012": 3.90493855151,
			"0.013": 1.20312401967,
			"0.014": 0.0,
			"0.015": 0.0,
			"0.016": 0.0,
			"0.017": 0.0,
			"0.018": 0.0,
			"0.019": 0.0,
			"0.02": 0.0,
			"0.021": 0.0,
			"0.022": 0.0,
			"0.023": 0.0,
			"0.024": 0.0,
			"0.025": 0.0
		}
	}
}
