{
	 "smiles": "OC1=CC=C(C(O)=C1)[N+]([O-])=O", 
	 "Tm": 395.15, 
	 "num_atms": 16, 
	 "gaussian": { 
		 "optdone": 1, 
		 "sigma_profile": "yes", 
		 "theory": "DFT", 
		 "functional": "B3LYP", 
		 "basiset": "6-31G**", 
		 "properties": { 
			 "R2extent": 1930.5442, 
			 "electric_dipole_moment_norm": 4.294361757, 
			 "electric_quadrupole_moment_norm": 5.57192416854, 
			 "total_energy": -587.202052207, 
			 "HOMO_LUMO_gap": 0.15621, 
			 "cosmo_polarized_energy": -12.42, 
			 "cosmo_cavitation_energy": 20.95, 
			 "cosmo_dispersion_energy": -16.11, 
			 "cosmo_repulsion_energy": 1.28, 
			 "cosmo_total_nonelectrostatic_energy": 6.12, 
			 "SMD_solvation_energy": 6.53 
		},
		"coords": [
			{
				"x": 2.0430074849,
				"y": -2.7651197243,
				"z": 1.0339621422,
				"element": "O" 
			},
			{
				"x": 1.2888391514,
				"y": -1.6432224496,
				"z": 0.9627793043,
				"element": "C" 
			},
			{
				"x": 1.9850360415,
				"y": -0.4209219401,
				"z": 0.8334655799,
				"element": "C" 
			},
			{
				"x": 1.2683788374,
				"y": 0.7518577694,
				"z": 0.7565793672,
				"element": "C" 
			},
			{
				"x": -0.1374316848,
				"y": 0.7384569333,
				"z": 0.8056866353,
				"element": "C" 
			},
			{
				"x": -0.8440553284,
				"y": -0.4875248075,
				"z": 0.9357182599,
				"element": "C" 
			},
			{
				"x": -2.1737994004,
				"y": -0.5711633468,
				"z": 0.9883620182,
				"element": "O" 
			},
			{
				"x": -0.1019232226,
				"y": -1.6739579495,
				"z": 1.0128643081,
				"element": "C" 
			},
			{
				"x": -0.8392082113,
				"y": 1.9866036733,
				"z": 0.7218635252,
				"element": "N" 
			},
			{
				"x": -0.2050373686,
				"y": 3.0313725935,
				"z": 0.6101468403,
				"element": "O" 
			},
			{
				"x": -2.0966702166,
				"y": 1.9663716154,
				"z": 0.7664376607,
				"element": "O" 
			},
			{
				"x": 1.4711393909,
				"y": -3.5400135436,
				"z": 1.120352865,
				"element": "H" 
			},
			{
				"x": 3.0677925891,
				"y": -0.4316288861,
				"z": 0.797480334,
				"element": "H" 
			},
			{
				"x": 1.7638039204,
				"y": 1.7096504404,
				"z": 0.6569404575,
				"element": "H" 
			},
			{
				"x": -2.5047095911,
				"y": 0.3609631059,
				"z": 0.919253116,
				"element": "H" 
			},
			{
				"x": -0.6477623919,
				"y": -2.6074234839,
				"z": 1.1121075863,
				"element": "H" 
			}
		],
		 "valence_orbital": [ 
			{
				"type": "occ",
				"energy": -0.31594,
				"method": "rhf"
			},
			{
				"type": "occ",
				"energy": -0.31499,
				"method": "rhf"
			},
			{
				"type": "occ",
				"energy": -0.29979,
				"method": "rhf"
			},
			{
				"type": "occ",
				"energy": -0.2638,
				"method": "rhf"
			},
			{
				"type": "occ",
				"energy": -0.24819,
				"method": "rhf"
			},
			{
				"type": "unocc",
				"energy": -0.09198,
				"method": "rhf"
			},
			{
				"type": "unocc",
				"energy": -0.01843,
				"method": "rhf"
			},
			{
				"type": "unocc",
				"energy": 0.00911,
				"method": "rhf"
			},
			{
				"type": "unocc",
				"energy": 0.04806,
				"method": "rhf"
			},
			{
				"type": "unocc",
				"energy": 0.08274,
				"method": "rhf"
			}
		],
		"cosmo_sigma_profile": { 
			"-0.025": 0.0,
			"-0.024": 0.0,
			"-0.023": 0.0,
			"-0.022": 0.0,
			"-0.021": 0.0,
			"-0.02": 0.0410269989883,
			"-0.019": 0.899227832771,
			"-0.018": 1.39898991916,
			"-0.017": 1.09797532233,
			"-0.016": 1.26186160617,
			"-0.015": 0.906510658931,
			"-0.014": 0.591421404345,
			"-0.013": 0.772332535252,
			"-0.012": 1.32849222947,
			"-0.011": 1.19633745266,
			"-0.01": 1.37535487156,
			"-0.009": 1.43303091212,
			"-0.008": 3.82561631781,
			"-0.007": 5.06158149805,
			"-0.006": 8.35918591341,
			"-0.005": 7.30303820547,
			"-0.004": 8.57219031177,
			"-0.003": 7.82024335272,
			"-0.002": 8.63070037565,
			"-0.001": 9.49950647601,
			"0.0": 14.4375067773,
			"0.001": 15.9590431317,
			"0.002": 12.6432527274,
			"0.003": 7.12869676689,
			"0.004": 4.49583819315,
			"0.005": 5.25446763141,
			"0.006": 6.36118477798,
			"0.007": 7.69510212027,
			"0.008": 8.44195333508,
			"0.009": 7.8294200369,
			"0.01": 5.75373715764,
			"0.011": 0.730339273571,
			"0.012": 0.0,
			"0.013": 0.0,
			"0.014": 0.0,
			"0.015": 0.0,
			"0.016": 0.0,
			"0.017": 0.0,
			"0.018": 0.0,
			"0.019": 0.0,
			"0.02": 0.0,
			"0.021": 0.0,
			"0.022": 0.0,
			"0.023": 0.0,
			"0.024": 0.0,
			"0.025": 0.0
		}
	}
}
