{
	 "smiles": "C1CNC2=C(C1)NN=N2", 
	 "Tm": 437.15, 
	 "num_atms": 17, 
	 "gaussian": { 
		 "optdone": 1, 
		 "sigma_profile": "yes", 
		 "theory": "DFT", 
		 "functional": "B3LYP", 
		 "basiset": "6-31G**", 
		 "properties": { 
			 "R2extent": 1367.1934, 
			 "electric_dipole_moment_norm": 4.84065911318, 
			 "electric_quadrupole_moment_norm": 12.5727542229, 
			 "total_energy": -414.31632433, 
			 "HOMO_LUMO_gap": 0.20237, 
			 "cosmo_polarized_energy": -16.34, 
			 "cosmo_cavitation_energy": 19.59, 
			 "cosmo_dispersion_energy": -15.42, 
			 "cosmo_repulsion_energy": 1.28, 
			 "cosmo_total_nonelectrostatic_energy": 5.45, 
			 "SMD_solvation_energy": 0.2 
		},
		"coords": [
			{
				"x": -0.7817166009,
				"y": 1.8343543184,
				"z": -1.5562342833,
				"element": "C" 
			},
			{
				"x": -1.189563575,
				"y": 1.1531748771,
				"z": -0.2364380755,
				"element": "C" 
			},
			{
				"x": -0.7813160761,
				"y": -0.2559847475,
				"z": -0.2476444528,
				"element": "N" 
			},
			{
				"x": 0.5530257355,
				"y": -0.417443879,
				"z": -0.6124252739,
				"element": "C" 
			},
			{
				"x": 1.2724255216,
				"y": 0.5211138089,
				"z": -1.3247159736,
				"element": "C" 
			},
			{
				"x": 0.7542348438,
				"y": 1.8512911743,
				"z": -1.7668455586,
				"element": "C" 
			},
			{
				"x": 2.481830496,
				"y": -0.0875213292,
				"z": -1.4834976046,
				"element": "N" 
			},
			{
				"x": 2.5094954105,
				"y": -1.3058453762,
				"z": -0.9049345686,
				"element": "N" 
			},
			{
				"x": 1.3269537626,
				"y": -1.5091346704,
				"z": -0.3705445936,
				"element": "N" 
			},
			{
				"x": -1.2525324732,
				"y": 1.2896369105,
				"z": -2.381866085,
				"element": "H" 
			},
			{
				"x": -1.1718708399,
				"y": 2.8568260906,
				"z": -1.5715584995,
				"element": "H" 
			},
			{
				"x": -2.2767247501,
				"y": 1.1983888291,
				"z": -0.1206338939,
				"element": "H" 
			},
			{
				"x": -0.7406570541,
				"y": 1.7071899249,
				"z": 0.6070231124,
				"element": "H" 
			},
			{
				"x": -1.029954098,
				"y": -0.7745034616,
				"z": 0.586379533,
				"element": "H" 
			},
			{
				"x": 0.9822107109,
				"y": 2.0540325282,
				"z": -2.8210118512,
				"element": "H" 
			},
			{
				"x": 1.2110380564,
				"y": 2.6656864602,
				"z": -1.187181867,
				"element": "H" 
			},
			{
				"x": 3.30912093,
				"y": 0.2482385418,
				"z": -1.9540700643,
				"element": "H" 
			}
		],
		 "valence_orbital": [ 
			{
				"type": "occ",
				"energy": -0.31785,
				"method": "rhf"
			},
			{
				"type": "occ",
				"energy": -0.31166,
				"method": "rhf"
			},
			{
				"type": "occ",
				"energy": -0.27052,
				"method": "rhf"
			},
			{
				"type": "occ",
				"energy": -0.25581,
				"method": "rhf"
			},
			{
				"type": "occ",
				"energy": -0.19628,
				"method": "rhf"
			},
			{
				"type": "unocc",
				"energy": 0.00609,
				"method": "rhf"
			},
			{
				"type": "unocc",
				"energy": 0.07306,
				"method": "rhf"
			},
			{
				"type": "unocc",
				"energy": 0.08048,
				"method": "rhf"
			},
			{
				"type": "unocc",
				"energy": 0.08326,
				"method": "rhf"
			},
			{
				"type": "unocc",
				"energy": 0.11183,
				"method": "rhf"
			}
		],
		"cosmo_sigma_profile": { 
			"-0.025": 0.0,
			"-0.024": 0.0,
			"-0.023": 0.0,
			"-0.022": 0.0,
			"-0.021": 0.0,
			"-0.02": 0.0,
			"-0.019": 0.0,
			"-0.018": 0.158428445807,
			"-0.017": 1.54215813869,
			"-0.016": 1.53177843683,
			"-0.015": 0.855767906387,
			"-0.014": 0.679408058042,
			"-0.013": 1.32133358972,
			"-0.012": 2.69157681649,
			"-0.011": 1.80453884147,
			"-0.01": 1.76045868499,
			"-0.009": 2.10385478843,
			"-0.008": 1.95718276893,
			"-0.007": 1.62591505478,
			"-0.006": 2.11797451947,
			"-0.005": 7.75740397406,
			"-0.004": 14.1999184548,
			"-0.003": 21.7349363477,
			"-0.002": 18.4058709078,
			"-0.001": 11.6064528555,
			"0.0": 5.67877437516,
			"0.001": 4.34582667299,
			"0.002": 5.75104272729,
			"0.003": 4.04741863232,
			"0.004": 2.74544027985,
			"0.005": 3.16917975466,
			"0.006": 3.13594186259,
			"0.007": 2.94159236757,
			"0.008": 3.12085694588,
			"0.009": 2.86656736898,
			"0.01": 2.81983290428,
			"0.011": 3.682181757,
			"0.012": 5.50569251503,
			"0.013": 3.22241168418,
			"0.014": 3.10430454046,
			"0.015": 2.44147428074,
			"0.016": 0.997570058478,
			"0.017": 0.619250902913,
			"0.018": 0.000351418739739,
			"0.019": 0.0,
			"0.02": 0.0,
			"0.021": 0.0,
			"0.022": 0.0,
			"0.023": 0.0,
			"0.024": 0.0,
			"0.025": 0.0
		}
	}
}
