{
	 "smiles": "BrC1=CC2=C(C=C1)C(=O)C(=O)N2", 
	 "Tm": 533.15, 
	 "num_atms": 16, 
	 "gaussian": { 
		 "optdone": 1, 
		 "sigma_profile": "yes", 
		 "theory": "DFT", 
		 "functional": "B3LYP", 
		 "basiset": "6-31G**", 
		 "properties": { 
			 "R2extent": 4950.0223, 
			 "electric_dipole_moment_norm": 4.35075746394, 
			 "electric_quadrupole_moment_norm": 12.409973537, 
			 "total_energy": -3083.8636226, 
			 "HOMO_LUMO_gap": 0.14352, 
			 "cosmo_polarized_energy": -14.89, 
			 "cosmo_cavitation_energy": 24.06, 
			 "cosmo_dispersion_energy": -18.2, 
			 "cosmo_repulsion_energy": 1.44, 
			 "cosmo_total_nonelectrostatic_energy": 7.3, 
			 "SMD_solvation_energy": 4.33 
		},
		"coords": [
			{
				"x": 0.2791833458,
				"y": -4.4106961753,
				"z": -2.5388851989,
				"element": "Br" 
			},
			{
				"x": 0.3445148079,
				"y": -2.8224403393,
				"z": -1.4884573557,
				"element": "C" 
			},
			{
				"x": -0.6468385564,
				"y": -2.6302171036,
				"z": -0.5178002703,
				"element": "C" 
			},
			{
				"x": -0.5708559676,
				"y": -1.4628287724,
				"z": 0.2307716748,
				"element": "C" 
			},
			{
				"x": 0.4571965509,
				"y": -0.5209335768,
				"z": 0.0188782858,
				"element": "C" 
			},
			{
				"x": 1.4285801733,
				"y": -0.7390089747,
				"z": -0.9530633138,
				"element": "C" 
			},
			{
				"x": 1.3750993897,
				"y": -1.9045602394,
				"z": -1.7194468999,
				"element": "C" 
			},
			{
				"x": 0.2539240691,
				"y": 0.588538439,
				"z": 0.9636738074,
				"element": "C" 
			},
			{
				"x": 0.8897421901,
				"y": 1.6052348026,
				"z": 1.1336412904,
				"element": "O" 
			},
			{
				"x": -1.0321813146,
				"y": 0.1969934681,
				"z": 1.7747661328,
				"element": "C" 
			},
			{
				"x": -1.5718495849,
				"y": 0.8161240214,
				"z": 2.6615148176,
				"element": "O" 
			},
			{
				"x": -1.4240524062,
				"y": -1.0297547929,
				"z": 1.2521758059,
				"element": "N" 
			},
			{
				"x": -1.4292339995,
				"y": -3.3648352644,
				"z": -0.3688708416,
				"element": "H" 
			},
			{
				"x": 2.2147157727,
				"y": -0.0059957048,
				"z": -1.1061634712,
				"element": "H" 
			},
			{
				"x": 2.1154991204,
				"y": -2.104990202,
				"z": -2.4839594032,
				"element": "H" 
			},
			{
				"x": -2.2338435906,
				"y": -1.5321295854,
				"z": 1.58582494,
				"element": "H" 
			}
		],
		 "valence_orbital": [ 
			{
				"type": "occ",
				"energy": -0.31737,
				"method": "rhf"
			},
			{
				"type": "occ",
				"energy": -0.30764,
				"method": "rhf"
			},
			{
				"type": "occ",
				"energy": -0.27462,
				"method": "rhf"
			},
			{
				"type": "occ",
				"energy": -0.25408,
				"method": "rhf"
			},
			{
				"type": "occ",
				"energy": -0.24924,
				"method": "rhf"
			},
			{
				"type": "unocc",
				"energy": -0.10572,
				"method": "rhf"
			},
			{
				"type": "unocc",
				"energy": -0.03519,
				"method": "rhf"
			},
			{
				"type": "unocc",
				"energy": -0.01371,
				"method": "rhf"
			},
			{
				"type": "unocc",
				"energy": -0.00594,
				"method": "rhf"
			},
			{
				"type": "unocc",
				"energy": 0.06827,
				"method": "rhf"
			}
		],
		"cosmo_sigma_profile": { 
			"-0.025": 0.0,
			"-0.024": 0.0,
			"-0.023": 0.0,
			"-0.022": 0.0,
			"-0.021": 0.0,
			"-0.02": 0.0,
			"-0.019": 0.0,
			"-0.018": 0.0,
			"-0.017": 0.900835751772,
			"-0.016": 1.62200775823,
			"-0.015": 1.18353521725,
			"-0.014": 1.29627660496,
			"-0.013": 1.25649027373,
			"-0.012": 1.4115842155,
			"-0.011": 1.25191684856,
			"-0.01": 1.73828915077,
			"-0.009": 2.00655894987,
			"-0.008": 5.82196950675,
			"-0.007": 7.41907483975,
			"-0.006": 7.59282861324,
			"-0.005": 8.76519418782,
			"-0.004": 8.41668539708,
			"-0.003": 10.3086321845,
			"-0.002": 13.8432601718,
			"-0.001": 13.5903413217,
			"0.0": 19.544768924,
			"0.001": 20.5247248236,
			"0.002": 11.8456740358,
			"0.003": 12.0092445918,
			"0.004": 9.18651088658,
			"0.005": 2.29054547228,
			"0.006": 2.10851072528,
			"0.007": 3.3600269702,
			"0.008": 3.73109090163,
			"0.009": 5.37220961017,
			"0.01": 8.43246919195,
			"0.011": 8.44038792298,
			"0.012": 2.47846580907,
			"0.013": 0.097356897391,
			"0.014": 0.0,
			"0.015": 0.0,
			"0.016": 0.0,
			"0.017": 0.0,
			"0.018": 0.0,
			"0.019": 0.0,
			"0.02": 0.0,
			"0.021": 0.0,
			"0.022": 0.0,
			"0.023": 0.0,
			"0.024": 0.0,
			"0.025": 0.0
		}
	}
}
