{
	 "smiles": "NC1=CC(=C(Cl)C=C1)S(=O)(=O)NC1=CC(Cl)=CC=C1", 
	 "Tm": 432.15, 
	 "num_atms": 29, 
	 "gaussian": { 
		 "optdone": 1, 
		 "sigma_profile": "yes", 
		 "theory": "DFT", 
		 "functional": "B3LYP", 
		 "basiset": "6-31G**", 
		 "properties": { 
			 "R2extent": 7610.457, 
			 "electric_dipole_moment_norm": 6.12288420518, 
			 "electric_quadrupole_moment_norm": 29.592087853, 
			 "total_energy": -2041.75573574, 
			 "HOMO_LUMO_gap": 0.18005, 
			 "cosmo_polarized_energy": -19.33, 
			 "cosmo_cavitation_energy": 38.4, 
			 "cosmo_dispersion_energy": -27.19, 
			 "cosmo_repulsion_energy": 2.08, 
			 "cosmo_total_nonelectrostatic_energy": 13.29, 
			 "SMD_solvation_energy": 5.0 
		},
		"coords": [
			{
				"x": -3.9942819155,
				"y": -1.6942391691,
				"z": -0.3106260568,
				"element": "N" 
			},
			{
				"x": -3.4327891491,
				"y": -0.5239617375,
				"z": 0.1763738267,
				"element": "C" 
			},
			{
				"x": -2.5208773129,
				"y": -0.5579305876,
				"z": 1.2445911223,
				"element": "C" 
			},
			{
				"x": -1.9957931937,
				"y": 0.6180586433,
				"z": 1.7776215317,
				"element": "C" 
			},
			{
				"x": -2.3690585701,
				"y": 1.8613467914,
				"z": 1.24875751,
				"element": "C" 
			},
			{
				"x": -1.737373555,
				"y": 3.3868317712,
				"z": 1.8530044616,
				"element": "Cl" 
			},
			{
				"x": -3.269338708,
				"y": 1.9015473843,
				"z": 0.1843034584,
				"element": "C" 
			},
			{
				"x": -3.7973570697,
				"y": 0.7296987091,
				"z": -0.3448566806,
				"element": "C" 
			},
			{
				"x": -0.8630431169,
				"y": 0.4225956514,
				"z": 3.1775401047,
				"element": "S" 
			},
			{
				"x": -1.3269163507,
				"y": 1.2446986723,
				"z": 4.2894524893,
				"element": "O" 
			},
			{
				"x": -0.6330132493,
				"y": -1.0141329544,
				"z": 3.3267045375,
				"element": "O" 
			},
			{
				"x": 0.6045872225,
				"y": 1.1233106962,
				"z": 2.6999392588,
				"element": "N" 
			},
			{
				"x": 1.3577901014,
				"y": 0.6637735603,
				"z": 1.5842660614,
				"element": "C" 
			},
			{
				"x": 1.7170997281,
				"y": 1.5793881864,
				"z": 0.5858268256,
				"element": "C" 
			},
			{
				"x": 2.5130920434,
				"y": 1.1507353676,
				"z": -0.4736304639,
				"element": "C" 
			},
			{
				"x": 2.972973303,
				"y": 2.309889892,
				"z": -1.713703442,
				"element": "Cl" 
			},
			{
				"x": 2.9371009413,
				"y": -0.1722839837,
				"z": -0.5802928108,
				"element": "C" 
			},
			{
				"x": 2.5574492329,
				"y": -1.073044011,
				"z": 0.416759478,
				"element": "C" 
			},
			{
				"x": 1.7855513268,
				"y": -0.6685937153,
				"z": 1.5037329418,
				"element": "C" 
			},
			{
				"x": -4.3668326,
				"y": -1.659642345,
				"z": -1.2482179658,
				"element": "H" 
			},
			{
				"x": -3.4949208633,
				"y": -2.549034681,
				"z": -0.1126658564,
				"element": "H" 
			},
			{
				"x": -2.2122875069,
				"y": -1.5024114747,
				"z": 1.679149695,
				"element": "H" 
			},
			{
				"x": -3.5559166564,
				"y": 2.861970689,
				"z": -0.2299642711,
				"element": "H" 
			},
			{
				"x": -4.5020527029,
				"y": 0.787385746,
				"z": -1.1698011947,
				"element": "H" 
			},
			{
				"x": 0.5313610801,
				"y": 2.1331083226,
				"z": 2.7810780341,
				"element": "H" 
			},
			{
				"x": 1.3790444082,
				"y": 2.6091461049,
				"z": 0.632579974,
				"element": "H" 
			},
			{
				"x": 3.5520302766,
				"y": -0.4840145143,
				"z": -1.416591499,
				"element": "H" 
			},
			{
				"x": 2.8882842417,
				"y": -2.1054170126,
				"z": 0.3539676351,
				"element": "H" 
			},
			{
				"x": 1.5138886141,
				"y": -1.3634800018,
				"z": 2.2879012951,
				"element": "H" 
			}
		],
		 "valence_orbital": [ 
			{
				"type": "occ",
				"energy": -0.30799,
				"method": "rhf"
			},
			{
				"type": "occ",
				"energy": -0.28031,
				"method": "rhf"
			},
			{
				"type": "occ",
				"energy": -0.25861,
				"method": "rhf"
			},
			{
				"type": "occ",
				"energy": -0.24066,
				"method": "rhf"
			},
			{
				"type": "occ",
				"energy": -0.22591,
				"method": "rhf"
			},
			{
				"type": "unocc",
				"energy": -0.04586,
				"method": "rhf"
			},
			{
				"type": "unocc",
				"energy": -0.02297,
				"method": "rhf"
			},
			{
				"type": "unocc",
				"energy": -0.02209,
				"method": "rhf"
			},
			{
				"type": "unocc",
				"energy": -0.0168,
				"method": "rhf"
			},
			{
				"type": "unocc",
				"energy": 0.00875,
				"method": "rhf"
			}
		],
		"cosmo_sigma_profile": { 
			"-0.025": 0.0,
			"-0.024": 0.0,
			"-0.023": 0.0,
			"-0.022": 0.0,
			"-0.021": 0.0,
			"-0.02": 0.0,
			"-0.019": 0.0,
			"-0.018": 0.0,
			"-0.017": 0.0,
			"-0.016": 0.0,
			"-0.015": 0.0924025874584,
			"-0.014": 0.966101254232,
			"-0.013": 4.00173915528,
			"-0.012": 4.58823094283,
			"-0.011": 4.19538901632,
			"-0.01": 3.71851901935,
			"-0.009": 4.36165873021,
			"-0.008": 6.82681626955,
			"-0.007": 10.8687960577,
			"-0.006": 13.6482913751,
			"-0.005": 13.1731241886,
			"-0.004": 12.4176227883,
			"-0.003": 12.5920098732,
			"-0.002": 15.9359441325,
			"-0.001": 16.9243662316,
			"0.0": 20.6468397523,
			"0.001": 29.3777362591,
			"0.002": 36.9297361055,
			"0.003": 32.359695704,
			"0.004": 21.5738922464,
			"0.005": 11.3452760784,
			"0.006": 4.89377427222,
			"0.007": 4.52886222451,
			"0.008": 5.35535496221,
			"0.009": 5.80954660991,
			"0.01": 9.40330044004,
			"0.011": 5.27337401306,
			"0.012": 0.431026700226,
			"0.013": 0.178642667893,
			"0.014": 0.0,
			"0.015": 0.0,
			"0.016": 0.0,
			"0.017": 0.0,
			"0.018": 0.0,
			"0.019": 0.0,
			"0.02": 0.0,
			"0.021": 0.0,
			"0.022": 0.0,
			"0.023": 0.0,
			"0.024": 0.0,
			"0.025": 0.0
		}
	}
}
