{
	 "smiles": "CN1C=C(C=C1C(O)=O)C(N)=O", 
	 "Tm": 497.15, 
	 "num_atms": 20, 
	 "gaussian": { 
		 "optdone": 1, 
		 "sigma_profile": "yes", 
		 "theory": "DFT", 
		 "functional": "B3LYP", 
		 "basiset": "6-31G**", 
		 "properties": { 
			 "R2extent": 2484.6253, 
			 "electric_dipole_moment_norm": 2.43567937545, 
			 "electric_quadrupole_moment_norm": 17.0580743424, 
			 "total_energy": -606.771658753, 
			 "HOMO_LUMO_gap": 0.19768, 
			 "cosmo_polarized_energy": -19.3, 
			 "cosmo_cavitation_energy": 25.13, 
			 "cosmo_dispersion_energy": -18.37, 
			 "cosmo_repulsion_energy": 1.47, 
			 "cosmo_total_nonelectrostatic_energy": 8.23, 
			 "SMD_solvation_energy": 6.61 
		},
		"coords": [
			{
				"x": 0.9869295002,
				"y": -1.7876924751,
				"z": 1.0991908864,
				"element": "C" 
			},
			{
				"x": 0.1591254959,
				"y": -0.8704873073,
				"z": 0.3195155489,
				"element": "N" 
			},
			{
				"x": -0.7060470584,
				"y": -1.2512857142,
				"z": -0.6504060867,
				"element": "C" 
			},
			{
				"x": -1.3290930753,
				"y": -0.1271094807,
				"z": -1.1869829172,
				"element": "C" 
			},
			{
				"x": -0.8044427535,
				"y": 0.9901842395,
				"z": -0.4959208227,
				"element": "C" 
			},
			{
				"x": 0.1140716974,
				"y": 0.5168765904,
				"z": 0.43214546,
				"element": "C" 
			},
			{
				"x": 0.9278421753,
				"y": 1.2524417351,
				"z": 1.3885273584,
				"element": "C" 
			},
			{
				"x": 0.7117983635,
				"y": 2.5921478595,
				"z": 1.3125996404,
				"element": "O" 
			},
			{
				"x": 1.7209024912,
				"y": 0.7688098212,
				"z": 2.1808451162,
				"element": "O" 
			},
			{
				"x": -2.3320785308,
				"y": -0.2334149583,
				"z": -2.2726176441,
				"element": "C" 
			},
			{
				"x": -2.8717542562,
				"y": 0.9431054417,
				"z": -2.7172844179,
				"element": "N" 
			},
			{
				"x": -2.6610460973,
				"y": -1.3179905119,
				"z": -2.7458566049,
				"element": "O" 
			},
			{
				"x": 2.0450437873,
				"y": -1.5609665591,
				"z": 0.9609561104,
				"element": "H" 
			},
			{
				"x": 0.7774883609,
				"y": -2.8022650415,
				"z": 0.7572129408,
				"element": "H" 
			},
			{
				"x": 0.7588335443,
				"y": -1.7004377545,
				"z": 2.1624343393,
				"element": "H" 
			},
			{
				"x": -0.8454244889,
				"y": -2.287555978,
				"z": -0.9195877187,
				"element": "H" 
			},
			{
				"x": -1.0415130271,
				"y": 2.0363710113,
				"z": -0.6275727042,
				"element": "H" 
			},
			{
				"x": 1.2945668491,
				"y": 2.9861856837,
				"z": 1.9819440813,
				"element": "H" 
			},
			{
				"x": -2.6119153882,
				"y": 1.8421503641,
				"z": -2.3487215931,
				"element": "H" 
			},
			{
				"x": -3.5533875895,
				"y": 0.8937330341,
				"z": -3.4578209725,
				"element": "H" 
			}
		],
		 "valence_orbital": [ 
			{
				"type": "occ",
				"energy": -0.28113,
				"method": "rhf"
			},
			{
				"type": "occ",
				"energy": -0.26095,
				"method": "rhf"
			},
			{
				"type": "occ",
				"energy": -0.25719,
				"method": "rhf"
			},
			{
				"type": "occ",
				"energy": -0.24497,
				"method": "rhf"
			},
			{
				"type": "occ",
				"energy": -0.2331,
				"method": "rhf"
			},
			{
				"type": "unocc",
				"energy": -0.03542,
				"method": "rhf"
			},
			{
				"type": "unocc",
				"energy": -0.00391,
				"method": "rhf"
			},
			{
				"type": "unocc",
				"energy": 0.07134,
				"method": "rhf"
			},
			{
				"type": "unocc",
				"energy": 0.07803,
				"method": "rhf"
			},
			{
				"type": "unocc",
				"energy": 0.09383,
				"method": "rhf"
			}
		],
		"cosmo_sigma_profile": { 
			"-0.025": 0.0,
			"-0.024": 0.0,
			"-0.023": 0.0,
			"-0.022": 0.0,
			"-0.021": 0.0,
			"-0.02": 0.0,
			"-0.019": 0.000172164667477,
			"-0.018": 0.666775941309,
			"-0.017": 0.785707174038,
			"-0.016": 0.936768786632,
			"-0.015": 1.08349175049,
			"-0.014": 2.45896254591,
			"-0.013": 3.20162397853,
			"-0.012": 2.46042790616,
			"-0.011": 3.69781440367,
			"-0.01": 3.16688897711,
			"-0.009": 5.61186554988,
			"-0.008": 5.79646114324,
			"-0.007": 7.24915090243,
			"-0.006": 7.12240958846,
			"-0.005": 7.16994792868,
			"-0.004": 9.44577764327,
			"-0.003": 13.2941946053,
			"-0.002": 11.988683777,
			"-0.001": 10.0102178894,
			"0.0": 8.9893178975,
			"0.001": 11.1321921209,
			"0.002": 12.498243279,
			"0.003": 13.1325805236,
			"0.004": 11.0925269931,
			"0.005": 5.85509854546,
			"0.006": 4.51410488912,
			"0.007": 4.39052675678,
			"0.008": 5.35694391218,
			"0.009": 3.17555157968,
			"0.01": 2.35917350795,
			"0.011": 4.56021478004,
			"0.012": 5.26740012703,
			"0.013": 2.83193284617,
			"0.014": 6.11204126425,
			"0.015": 2.02843818156,
			"0.016": 0.0417174215013,
			"0.017": 0.0,
			"0.018": 0.0,
			"0.019": 0.0,
			"0.02": 0.0,
			"0.021": 0.0,
			"0.022": 0.0,
			"0.023": 0.0,
			"0.024": 0.0,
			"0.025": 0.0
		}
	}
}
