{
	 "smiles": "CC1=CC=C(C=C1)C(=O)C1=CN=CC=C1", 
	 "Tm": 345.15, 
	 "num_atms": 26, 
	 "gaussian": { 
		 "optdone": 1, 
		 "sigma_profile": "yes", 
		 "theory": "DFT", 
		 "functional": "B3LYP", 
		 "basiset": "6-31G**", 
		 "properties": { 
			 "R2extent": 4043.8048, 
			 "electric_dipole_moment_norm": 1.96953116502, 
			 "electric_quadrupole_moment_norm": 18.7536967673, 
			 "total_energy": -631.990033853, 
			 "HOMO_LUMO_gap": 0.1763, 
			 "cosmo_polarized_energy": -10.15, 
			 "cosmo_cavitation_energy": 30.34, 
			 "cosmo_dispersion_energy": -22.04, 
			 "cosmo_repulsion_energy": 1.71, 
			 "cosmo_total_nonelectrostatic_energy": 10.0, 
			 "SMD_solvation_energy": 4.17 
		},
		"coords": [
			{
				"x": 1.8827200721,
				"y": 1.2595310859,
				"z": -4.0365876897,
				"element": "C" 
			},
			{
				"x": 1.619642872,
				"y": 0.8388057045,
				"z": -2.611337415,
				"element": "C" 
			},
			{
				"x": 0.576547235,
				"y": 1.4063325614,
				"z": -1.8694352445,
				"element": "C" 
			},
			{
				"x": 0.3109414911,
				"y": 0.9916436727,
				"z": -0.5647826585,
				"element": "C" 
			},
			{
				"x": 1.097421897,
				"y": -0.0005800433,
				"z": 0.0392625675,
				"element": "C" 
			},
			{
				"x": 2.163732887,
				"y": -0.5516354842,
				"z": -0.6918748929,
				"element": "C" 
			},
			{
				"x": 2.4110575803,
				"y": -0.1462095192,
				"z": -1.9965995545,
				"element": "C" 
			},
			{
				"x": 0.9175003409,
				"y": -0.4469065392,
				"z": 1.4544481472,
				"element": "C" 
			},
			{
				"x": 1.8638590799,
				"y": -0.9110809608,
				"z": 2.0828759545,
				"element": "O" 
			},
			{
				"x": -0.4198180204,
				"y": -0.33939021,
				"z": 2.1293585896,
				"element": "C" 
			},
			{
				"x": -1.647107258,
				"y": -0.4480109935,
				"z": 1.4576523114,
				"element": "C" 
			},
			{
				"x": -2.8382455722,
				"y": -0.4209940878,
				"z": 2.0679023014,
				"element": "N" 
			},
			{
				"x": -2.843441139,
				"y": -0.2763216294,
				"z": 3.3981064478,
				"element": "C" 
			},
			{
				"x": -1.6827505302,
				"y": -0.1807584465,
				"z": 4.1718073317,
				"element": "C" 
			},
			{
				"x": -0.4533420761,
				"y": -0.2255131939,
				"z": 3.5266743151,
				"element": "C" 
			},
			{
				"x": 1.4872062758,
				"y": 0.5194726137,
				"z": -4.743394706,
				"element": "H" 
			},
			{
				"x": 2.9554988141,
				"y": 1.3514519472,
				"z": -4.2342573589,
				"element": "H" 
			},
			{
				"x": 1.4100617026,
				"y": 2.2184271434,
				"z": -4.2660971282,
				"element": "H" 
			},
			{
				"x": -0.0341044987,
				"y": 2.1865226553,
				"z": -2.3163580175,
				"element": "H" 
			},
			{
				"x": -0.4908219001,
				"y": 1.4661335393,
				"z": -0.0089623696,
				"element": "H" 
			},
			{
				"x": 2.7878010139,
				"y": -1.2971873517,
				"z": -0.2104079046,
				"element": "H" 
			},
			{
				"x": 3.2335356803,
				"y": -0.5918600116,
				"z": -2.5507525168,
				"element": "H" 
			},
			{
				"x": -1.6706594628,
				"y": -0.5891108287,
				"z": 0.3798505579,
				"element": "H" 
			},
			{
				"x": -3.8234293943,
				"y": -0.2412676732,
				"z": 3.8712423714,
				"element": "H" 
			},
			{
				"x": -1.7497800381,
				"y": -0.0797298081,
				"z": 5.250491783,
				"element": "H" 
			},
			{
				"x": 0.484072948,
				"y": -0.1784641426,
				"z": 4.0714747784,
				"element": "H" 
			}
		],
		 "valence_orbital": [ 
			{
				"type": "occ",
				"energy": -0.27279,
				"method": "rhf"
			},
			{
				"type": "occ",
				"energy": -0.26572,
				"method": "rhf"
			},
			{
				"type": "occ",
				"energy": -0.26082,
				"method": "rhf"
			},
			{
				"type": "occ",
				"energy": -0.25271,
				"method": "rhf"
			},
			{
				"type": "occ",
				"energy": -0.24546,
				"method": "rhf"
			},
			{
				"type": "unocc",
				"energy": -0.06916,
				"method": "rhf"
			},
			{
				"type": "unocc",
				"energy": -0.02822,
				"method": "rhf"
			},
			{
				"type": "unocc",
				"energy": -0.02017,
				"method": "rhf"
			},
			{
				"type": "unocc",
				"energy": -0.00893,
				"method": "rhf"
			},
			{
				"type": "unocc",
				"energy": 0.04896,
				"method": "rhf"
			}
		],
		"cosmo_sigma_profile": { 
			"-0.025": 0.0,
			"-0.024": 0.0,
			"-0.023": 0.0,
			"-0.022": 0.0,
			"-0.021": 0.0,
			"-0.02": 0.0,
			"-0.019": 0.0,
			"-0.018": 0.0,
			"-0.017": 0.0,
			"-0.016": 0.0,
			"-0.015": 0.0,
			"-0.014": 0.0,
			"-0.013": 0.0,
			"-0.012": 0.0,
			"-0.011": 0.0,
			"-0.01": 0.0,
			"-0.009": 0.0,
			"-0.008": 0.678264204021,
			"-0.007": 5.32292871032,
			"-0.006": 13.752115537,
			"-0.005": 19.7424109558,
			"-0.004": 23.6761910435,
			"-0.003": 21.189917144,
			"-0.002": 20.1803132846,
			"-0.001": 20.453339381,
			"0.0": 22.8997219352,
			"0.001": 20.0083923824,
			"0.002": 16.4241992406,
			"0.003": 12.8934981071,
			"0.004": 14.5266174128,
			"0.005": 4.2599802834,
			"0.006": 3.24381117721,
			"0.007": 3.72340078441,
			"0.008": 2.34365518727,
			"0.009": 2.5389104224,
			"0.01": 2.99113382858,
			"0.011": 3.71198170037,
			"0.012": 5.24398114606,
			"0.013": 1.25804849386,
			"0.014": 0.678299655852,
			"0.015": 0.861292820841,
			"0.016": 0.669654024328,
			"0.017": 0.0339524621309,
			"0.018": 0.0,
			"0.019": 0.0,
			"0.02": 0.0,
			"0.021": 0.0,
			"0.022": 0.0,
			"0.023": 0.0,
			"0.024": 0.0,
			"0.025": 0.0
		}
	}
}
