{
	 "smiles": "CNCC1=C(C)N=C2C=CC=CN12", 
	 "Tm": 347.15, 
	 "num_atms": 26, 
	 "gaussian": { 
		 "optdone": 1, 
		 "sigma_profile": "yes", 
		 "theory": "DFT", 
		 "functional": "B3LYP", 
		 "basiset": "6-31G**", 
		 "properties": { 
			 "R2extent": 2624.8419, 
			 "electric_dipole_moment_norm": 2.95219032246, 
			 "electric_quadrupole_moment_norm": 8.26389639032, 
			 "total_energy": -553.151259045, 
			 "HOMO_LUMO_gap": 0.17511, 
			 "cosmo_polarized_energy": -9.94, 
			 "cosmo_cavitation_energy": 28.75, 
			 "cosmo_dispersion_energy": -20.96, 
			 "cosmo_repulsion_energy": 1.67, 
			 "cosmo_total_nonelectrostatic_energy": 9.45, 
			 "SMD_solvation_energy": 2.51 
		},
		"coords": [
			{
				"x": 0.0712353049,
				"y": -3.7047653572,
				"z": 0.9388430433,
				"element": "C" 
			},
			{
				"x": 0.2588928347,
				"y": -2.3547689993,
				"z": 0.4187362526,
				"element": "N" 
			},
			{
				"x": -0.0499957704,
				"y": -1.3133816153,
				"z": 1.4066606303,
				"element": "C" 
			},
			{
				"x": 0.2283273989,
				"y": 0.059745976,
				"z": 0.8930319007,
				"element": "C" 
			},
			{
				"x": 1.0126963721,
				"y": 1.101631374,
				"z": 1.3757220535,
				"element": "C" 
			},
			{
				"x": 1.8876600548,
				"y": 1.1080105452,
				"z": 2.5917491588,
				"element": "C" 
			},
			{
				"x": 0.9071467518,
				"y": 2.2197889849,
				"z": 0.5974556782,
				"element": "N" 
			},
			{
				"x": 0.06256592,
				"y": 1.8977361886,
				"z": -0.3783284627,
				"element": "C" 
			},
			{
				"x": -0.4246491461,
				"y": 2.6590450549,
				"z": -1.4657016061,
				"element": "C" 
			},
			{
				"x": -1.3097063295,
				"y": 2.0899848503,
				"z": -2.3504143954,
				"element": "C" 
			},
			{
				"x": -1.7245052026,
				"y": 0.7385503432,
				"z": -2.1833078622,
				"element": "C" 
			},
			{
				"x": -1.2533767939,
				"y": -0.0073696988,
				"z": -1.1377923803,
				"element": "C" 
			},
			{
				"x": -0.3840858682,
				"y": 0.5702421572,
				"z": -0.2440975359,
				"element": "N" 
			},
			{
				"x": 0.6400921024,
				"y": -3.918833995,
				"z": 1.8619236638,
				"element": "H" 
			},
			{
				"x": -0.9894966074,
				"y": -3.865964632,
				"z": 1.1631702674,
				"element": "H" 
			},
			{
				"x": 0.3641148838,
				"y": -4.4350753539,
				"z": 0.1790099521,
				"element": "H" 
			},
			{
				"x": 1.2203759392,
				"y": -2.2338954605,
				"z": 0.1093349502,
				"element": "H" 
			},
			{
				"x": -1.117571038,
				"y": -1.4185222854,
				"z": 1.6584227895,
				"element": "H" 
			},
			{
				"x": 0.4969965933,
				"y": -1.444325611,
				"z": 2.357012263,
				"element": "H" 
			},
			{
				"x": 2.9032449604,
				"y": 1.4191782443,
				"z": 2.3264272836,
				"element": "H" 
			},
			{
				"x": 1.9406978861,
				"y": 0.1253333744,
				"z": 3.0673589005,
				"element": "H" 
			},
			{
				"x": 1.515987731,
				"y": 1.8255438654,
				"z": 3.3316301368,
				"element": "H" 
			},
			{
				"x": -0.0792931283,
				"y": 3.6817532887,
				"z": -1.5639578918,
				"element": "H" 
			},
			{
				"x": -1.6906271902,
				"y": 2.6666389992,
				"z": -3.1872109491,
				"element": "H" 
			},
			{
				"x": -2.4082578369,
				"y": 0.2796697824,
				"z": -2.8883836265,
				"element": "H" 
			},
			{
				"x": -1.4776698221,
				"y": -1.0527500203,
				"z": -0.9713942142,
				"element": "H" 
			}
		],
		 "valence_orbital": [ 
			{
				"type": "occ",
				"energy": -0.30789,
				"method": "rhf"
			},
			{
				"type": "occ",
				"energy": -0.25769,
				"method": "rhf"
			},
			{
				"type": "occ",
				"energy": -0.23183,
				"method": "rhf"
			},
			{
				"type": "occ",
				"energy": -0.22781,
				"method": "rhf"
			},
			{
				"type": "occ",
				"energy": -0.19787,
				"method": "rhf"
			},
			{
				"type": "unocc",
				"energy": -0.02276,
				"method": "rhf"
			},
			{
				"type": "unocc",
				"energy": 0.01092,
				"method": "rhf"
			},
			{
				"type": "unocc",
				"energy": 0.06463,
				"method": "rhf"
			},
			{
				"type": "unocc",
				"energy": 0.0866,
				"method": "rhf"
			},
			{
				"type": "unocc",
				"energy": 0.10321,
				"method": "rhf"
			}
		],
		"cosmo_sigma_profile": { 
			"-0.025": 0.0,
			"-0.024": 0.0,
			"-0.023": 0.0,
			"-0.022": 0.0,
			"-0.021": 0.0,
			"-0.02": 0.0,
			"-0.019": 0.0,
			"-0.018": 0.0,
			"-0.017": 0.0,
			"-0.016": 0.0,
			"-0.015": 0.0,
			"-0.014": 0.0,
			"-0.013": 0.0,
			"-0.012": 0.0,
			"-0.011": 0.00332535431556,
			"-0.01": 0.745592140762,
			"-0.009": 1.1656892641,
			"-0.008": 1.39847837675,
			"-0.007": 3.29317805973,
			"-0.006": 8.17706962972,
			"-0.005": 11.8638497193,
			"-0.004": 22.7551671921,
			"-0.003": 22.2417851881,
			"-0.002": 24.0788531995,
			"-0.001": 23.7038816856,
			"0.0": 24.0528412622,
			"0.001": 16.3778777594,
			"0.002": 13.3402368816,
			"0.003": 15.7967988742,
			"0.004": 12.5902435623,
			"0.005": 4.1265988714,
			"0.006": 3.05296254082,
			"0.007": 2.78863302823,
			"0.008": 2.71024208163,
			"0.009": 2.8794368093,
			"0.01": 1.04647478848,
			"0.011": 1.77043436918,
			"0.012": 1.28503609394,
			"0.013": 1.10991783134,
			"0.014": 0.998880822002,
			"0.015": 1.22671085199,
			"0.016": 0.65833771706,
			"0.017": 0.949207925734,
			"0.018": 0.960223228241,
			"0.019": 0.384816744119,
			"0.02": 0.0,
			"0.021": 0.0,
			"0.022": 0.0,
			"0.023": 0.0,
			"0.024": 0.0,
			"0.025": 0.0
		}
	}
}
