{
	 "smiles": "CCOC(=O)C1=C(C)C(C(=O)OCC)=C(N)S1", 
	 "Tm": 388.15, 
	 "num_atms": 32, 
	 "gaussian": { 
		 "optdone": 1, 
		 "sigma_profile": "yes", 
		 "theory": "DFT", 
		 "functional": "B3LYP", 
		 "basiset": "6-31G**", 
		 "properties": { 
			 "R2extent": 6823.0348, 
			 "electric_dipole_moment_norm": 2.48732821517, 
			 "electric_quadrupole_moment_norm": 14.4463719871, 
			 "total_energy": -1182.0862189, 
			 "HOMO_LUMO_gap": 0.1716, 
			 "cosmo_polarized_energy": -12.99, 
			 "cosmo_cavitation_energy": 36.99, 
			 "cosmo_dispersion_energy": -26.93, 
			 "cosmo_repulsion_energy": 2.08, 
			 "cosmo_total_nonelectrostatic_energy": 12.14, 
			 "SMD_solvation_energy": 8.1 
		},
		"coords": [
			{
				"x": -0.7061087858,
				"y": 5.7314778261,
				"z": 2.634127284,
				"element": "C" 
			},
			{
				"x": -1.4416083428,
				"y": 5.395338865,
				"z": 1.3505897961,
				"element": "C" 
			},
			{
				"x": -1.1762095553,
				"y": 4.0063313672,
				"z": 1.0494579023,
				"element": "O" 
			},
			{
				"x": -1.7638014765,
				"y": 3.5352600488,
				"z": -0.0766680808,
				"element": "C" 
			},
			{
				"x": -2.4699845033,
				"y": 4.2318931679,
				"z": -0.7915001271,
				"element": "O" 
			},
			{
				"x": -1.4911046591,
				"y": 2.1294834023,
				"z": -0.3761768272,
				"element": "C" 
			},
			{
				"x": -0.7583022007,
				"y": 1.1270493408,
				"z": 0.22533009,
				"element": "C" 
			},
			{
				"x": 0.0260815496,
				"y": 1.296515272,
				"z": 1.4988658731,
				"element": "C" 
			},
			{
				"x": -0.8282206184,
				"y": -0.1139770496,
				"z": -0.5104454883,
				"element": "C" 
			},
			{
				"x": -0.1998204988,
				"y": -1.3976878379,
				"z": -0.2088767391,
				"element": "C" 
			},
			{
				"x": -0.3194977264,
				"y": -2.4038466778,
				"z": -0.9120929375,
				"element": "O" 
			},
			{
				"x": 0.5437254254,
				"y": -1.405869202,
				"z": 0.9204448716,
				"element": "O" 
			},
			{
				"x": 1.1881081919,
				"y": -2.6545807051,
				"z": 1.2667451558,
				"element": "C" 
			},
			{
				"x": 0.2485512029,
				"y": -3.5736005725,
				"z": 2.0333089177,
				"element": "C" 
			},
			{
				"x": -1.6262259661,
				"y": -0.0086844007,
				"z": -1.6674898162,
				"element": "C" 
			},
			{
				"x": -1.8814834871,
				"y": -0.9897347897,
				"z": -2.5514508768,
				"element": "N" 
			},
			{
				"x": -2.2893513442,
				"y": 1.5844315407,
				"z": -1.8627843481,
				"element": "S" 
			},
			{
				"x": -0.8817679568,
				"y": 6.7791885598,
				"z": 2.8976448322,
				"element": "H" 
			},
			{
				"x": 0.3715779829,
				"y": 5.5827327821,
				"z": 2.5193438768,
				"element": "H" 
			},
			{
				"x": -1.0548807847,
				"y": 5.1065911731,
				"z": 3.4615239054,
				"element": "H" 
			},
			{
				"x": -2.5225659511,
				"y": 5.5367242466,
				"z": 1.4468823573,
				"element": "H" 
			},
			{
				"x": -1.1046662169,
				"y": 6.0105416815,
				"z": 0.5104887705,
				"element": "H" 
			},
			{
				"x": -0.3235541222,
				"y": 0.5900307068,
				"z": 2.2570830581,
				"element": "H" 
			},
			{
				"x": -0.0629245881,
				"y": 2.3095166533,
				"z": 1.8809133043,
				"element": "H" 
			},
			{
				"x": 1.0813088214,
				"y": 1.0641492281,
				"z": 1.3284153991,
				"element": "H" 
			},
			{
				"x": 2.0408085625,
				"y": -2.3537585262,
				"z": 1.8804052438,
				"element": "H" 
			},
			{
				"x": 1.5487715498,
				"y": -3.1326982308,
				"z": 0.3534439112,
				"element": "H" 
			},
			{
				"x": -0.5887375033,
				"y": -3.8789427204,
				"z": 1.4015787429,
				"element": "H" 
			},
			{
				"x": 0.7866349463,
				"y": -4.4732255772,
				"z": 2.3506495699,
				"element": "H" 
			},
			{
				"x": -0.1425166571,
				"y": -3.0754075682,
				"z": 2.925424196,
				"element": "H" 
			},
			{
				"x": -2.45581679,
				"y": -0.8345295038,
				"z": -3.3625665861,
				"element": "H" 
			},
			{
				"x": -1.443118498,
				"y": -1.8865125001,
				"z": -2.3611152308,
				"element": "H" 
			}
		],
		 "valence_orbital": [ 
			{
				"type": "occ",
				"energy": -0.29225,
				"method": "rhf"
			},
			{
				"type": "occ",
				"energy": -0.27969,
				"method": "rhf"
			},
			{
				"type": "occ",
				"energy": -0.26493,
				"method": "rhf"
			},
			{
				"type": "occ",
				"energy": -0.25075,
				"method": "rhf"
			},
			{
				"type": "occ",
				"energy": -0.20411,
				"method": "rhf"
			},
			{
				"type": "unocc",
				"energy": -0.03251,
				"method": "rhf"
			},
			{
				"type": "unocc",
				"energy": -0.01865,
				"method": "rhf"
			},
			{
				"type": "unocc",
				"energy": 0.01599,
				"method": "rhf"
			},
			{
				"type": "unocc",
				"energy": 0.0856,
				"method": "rhf"
			},
			{
				"type": "unocc",
				"energy": 0.09567,
				"method": "rhf"
			}
		],
		"cosmo_sigma_profile": { 
			"-0.025": 0.0,
			"-0.024": 0.0,
			"-0.023": 0.0,
			"-0.022": 0.0,
			"-0.021": 0.0,
			"-0.02": 0.0,
			"-0.019": 0.0,
			"-0.018": 0.0,
			"-0.017": 0.0,
			"-0.016": 0.406599161259,
			"-0.015": 1.60896299082,
			"-0.014": 1.34330460391,
			"-0.013": 1.36547707002,
			"-0.012": 0.918927590172,
			"-0.011": 1.37413062623,
			"-0.01": 2.29444617431,
			"-0.009": 2.15785283862,
			"-0.008": 1.26334202263,
			"-0.007": 1.0914103435,
			"-0.006": 3.18519412382,
			"-0.005": 10.6596217437,
			"-0.004": 24.2404825722,
			"-0.003": 26.6976975493,
			"-0.002": 26.6568042623,
			"-0.001": 28.2990871829,
			"0.0": 36.5880032261,
			"0.001": 31.8938978091,
			"0.002": 25.6063966551,
			"0.003": 19.4968728153,
			"0.004": 12.9813992269,
			"0.005": 6.97299260963,
			"0.006": 2.91128372411,
			"0.007": 3.92000386957,
			"0.008": 2.75618098844,
			"0.009": 2.87146347191,
			"0.01": 3.57723267548,
			"0.011": 3.63785179473,
			"0.012": 5.56635715016,
			"0.013": 1.81635505572,
			"0.014": 0.0,
			"0.015": 0.0,
			"0.016": 0.0,
			"0.017": 0.0,
			"0.018": 0.0,
			"0.019": 0.0,
			"0.02": 0.0,
			"0.021": 0.0,
			"0.022": 0.0,
			"0.023": 0.0,
			"0.024": 0.0,
			"0.025": 0.0
		}
	}
}
