{
	 "smiles": "NC1=CC(CC2CCCCC2)=NN1", 
	 "Tm": 346.15, 
	 "num_atms": 30, 
	 "gaussian": { 
		 "optdone": 1, 
		 "sigma_profile": "yes", 
		 "theory": "DFT", 
		 "functional": "B3LYP", 
		 "basiset": "6-31G**", 
		 "properties": { 
			 "R2extent": 3191.2871, 
			 "electric_dipole_moment_norm": 3.24542169371, 
			 "electric_quadrupole_moment_norm": 12.2277055043, 
			 "total_energy": -555.554926412, 
			 "HOMO_LUMO_gap": 0.23894, 
			 "cosmo_polarized_energy": -13.35, 
			 "cosmo_cavitation_energy": 30.54, 
			 "cosmo_dispersion_energy": -22.33, 
			 "cosmo_repulsion_energy": 1.81, 
			 "cosmo_total_nonelectrostatic_energy": 10.02, 
			 "SMD_solvation_energy": 3.27 
		},
		"coords": [
			{
				"x": 1.9938458354,
				"y": 1.3118784508,
				"z": 3.8477799866,
				"element": "N" 
			},
			{
				"x": 1.3958393982,
				"y": 0.4013180464,
				"z": 2.9680509091,
				"element": "C" 
			},
			{
				"x": 0.0926477473,
				"y": 0.2360763531,
				"z": 2.5295998464,
				"element": "C" 
			},
			{
				"x": 0.1213629246,
				"y": -0.9287115075,
				"z": 1.7135017126,
				"element": "C" 
			},
			{
				"x": -1.0157649096,
				"y": -1.5693601654,
				"z": 0.9651533668,
				"element": "C" 
			},
			{
				"x": -1.2319509662,
				"y": -1.0899739972,
				"z": -0.4934895219,
				"element": "C" 
			},
			{
				"x": -1.6776343108,
				"y": 0.3916875735,
				"z": -0.5807403734,
				"element": "C" 
			},
			{
				"x": -1.4111917892,
				"y": 1.0178064366,
				"z": -1.9715811002,
				"element": "C" 
			},
			{
				"x": -1.4798310908,
				"y": -0.0384208938,
				"z": -3.0818148299,
				"element": "C" 
			},
			{
				"x": -0.3803357812,
				"y": -1.1115409985,
				"z": -2.8922227943,
				"element": "C" 
			},
			{
				"x": -0.0164805549,
				"y": -1.3303329138,
				"z": -1.4034929481,
				"element": "C" 
			},
			{
				"x": 1.3472094226,
				"y": -1.4475937221,
				"z": 1.6472532335,
				"element": "N" 
			},
			{
				"x": 2.1082165019,
				"y": -0.6166298701,
				"z": 2.4159079972,
				"element": "N" 
			},
			{
				"x": 1.3340670562,
				"y": 2.0118993629,
				"z": 4.1631353896,
				"element": "H" 
			},
			{
				"x": 2.8073212684,
				"y": 1.7742978999,
				"z": 3.4541061746,
				"element": "H" 
			},
			{
				"x": -0.7551062765,
				"y": 0.8646296871,
				"z": 2.7602085974,
				"element": "H" 
			},
			{
				"x": -1.9437217459,
				"y": -1.4060931575,
				"z": 1.5278798831,
				"element": "H" 
			},
			{
				"x": -0.8404831962,
				"y": -2.6509046559,
				"z": 0.948833339,
				"element": "H" 
			},
			{
				"x": -2.0529479578,
				"y": -1.7100095281,
				"z": -0.8833854825,
				"element": "H" 
			},
			{
				"x": -2.74660915,
				"y": 0.4562792624,
				"z": -0.3389749861,
				"element": "H" 
			},
			{
				"x": -1.1510958854,
				"y": 0.9779820394,
				"z": 0.1810444536,
				"element": "H" 
			},
			{
				"x": -2.122816892,
				"y": 1.8295858447,
				"z": -2.1622123319,
				"element": "H" 
			},
			{
				"x": -0.4143805178,
				"y": 1.4781472944,
				"z": -1.9852915354,
				"element": "H" 
			},
			{
				"x": -1.3871532322,
				"y": 0.4290169887,
				"z": -4.0689666101,
				"element": "H" 
			},
			{
				"x": -2.4711597452,
				"y": -0.5102683979,
				"z": -3.061328145,
				"element": "H" 
			},
			{
				"x": -0.7166779159,
				"y": -2.0561053262,
				"z": -3.3370873311,
				"element": "H" 
			},
			{
				"x": 0.5216796749,
				"y": -0.8195569659,
				"z": -3.4437924257,
				"element": "H" 
			},
			{
				"x": 0.7903729244,
				"y": -0.6510872583,
				"z": -1.1046028008,
				"element": "H" 
			},
			{
				"x": 0.380099363,
				"y": -2.3407275148,
				"z": -1.2538147911,
				"element": "H" 
			},
			{
				"x": 3.0644798006,
				"y": -0.8650883669,
				"z": 2.6139431183,
				"element": "H" 
			}
		],
		 "valence_orbital": [ 
			{
				"type": "occ",
				"energy": -0.28325,
				"method": "rhf"
			},
			{
				"type": "occ",
				"energy": -0.28087,
				"method": "rhf"
			},
			{
				"type": "occ",
				"energy": -0.26793,
				"method": "rhf"
			},
			{
				"type": "occ",
				"energy": -0.23497,
				"method": "rhf"
			},
			{
				"type": "occ",
				"energy": -0.20394,
				"method": "rhf"
			},
			{
				"type": "unocc",
				"energy": 0.035,
				"method": "rhf"
			},
			{
				"type": "unocc",
				"energy": 0.06746,
				"method": "rhf"
			},
			{
				"type": "unocc",
				"energy": 0.07919,
				"method": "rhf"
			},
			{
				"type": "unocc",
				"energy": 0.09809,
				"method": "rhf"
			},
			{
				"type": "unocc",
				"energy": 0.10144,
				"method": "rhf"
			}
		],
		"cosmo_sigma_profile": { 
			"-0.025": 0.0,
			"-0.024": 0.0,
			"-0.023": 0.0,
			"-0.022": 0.0,
			"-0.021": 0.0,
			"-0.02": 0.0,
			"-0.019": 0.0,
			"-0.018": 0.0,
			"-0.017": 0.0,
			"-0.016": 0.426357254626,
			"-0.015": 1.17456409713,
			"-0.014": 1.24188633711,
			"-0.013": 2.45928501943,
			"-0.012": 5.04146566739,
			"-0.011": 4.22838767982,
			"-0.01": 2.6773435169,
			"-0.009": 3.37656012102,
			"-0.008": 3.55880828607,
			"-0.007": 2.55581118184,
			"-0.006": 2.89112974081,
			"-0.005": 3.91749046321,
			"-0.004": 2.92617219744,
			"-0.003": 5.32845004933,
			"-0.002": 20.6623087679,
			"-0.001": 37.0957411333,
			"0.0": 41.3826143499,
			"0.001": 29.2456940981,
			"0.002": 17.0950625728,
			"0.003": 5.83816730658,
			"0.004": 5.84287169369,
			"0.005": 6.14457461186,
			"0.006": 7.72070856907,
			"0.007": 5.6451320981,
			"0.008": 2.63696063588,
			"0.009": 2.10015596822,
			"0.01": 2.43760784659,
			"0.011": 2.12912157559,
			"0.012": 1.95572421002,
			"0.013": 1.5560018442,
			"0.014": 1.76413412266,
			"0.015": 1.15754431483,
			"0.016": 0.869875491002,
			"0.017": 0.957022088127,
			"0.018": 0.150404961458,
			"0.019": 0.0,
			"0.02": 0.0,
			"0.021": 0.0,
			"0.022": 0.0,
			"0.023": 0.0,
			"0.024": 0.0,
			"0.025": 0.0
		}
	}
}
