{
	 "smiles": "O=C1OCCO1", 
	 "Tm": 312.65, 
	 "num_atms": 10, 
	 "gaussian": { 
		 "optdone": 1, 
		 "sigma_profile": "yes", 
		 "theory": "DFT", 
		 "functional": "B3LYP", 
		 "basiset": "6-31G**", 
		 "properties": { 
			 "R2extent": 541.8666, 
			 "electric_dipole_moment_norm": 5.27124013777, 
			 "electric_quadrupole_moment_norm": 5.36930860447, 
			 "total_energy": -342.397924827, 
			 "HOMO_LUMO_gap": 0.32843, 
			 "cosmo_polarized_energy": -12.17, 
			 "cosmo_cavitation_energy": 13.87, 
			 "cosmo_dispersion_energy": -10.98, 
			 "cosmo_repulsion_energy": 0.97, 
			 "cosmo_total_nonelectrostatic_energy": 3.86, 
			 "SMD_solvation_energy": 4.63 
		},
		"coords": [
			{
				"x": -0.1490042157,
				"y": 2.1160792608,
				"z": -0.0465188382,
				"element": "O" 
			},
			{
				"x": 0.2755406625,
				"y": 1.0147150967,
				"z": -0.2321947152,
				"element": "C" 
			},
			{
				"x": -0.4914689246,
				"y": -0.1050816149,
				"z": -0.3609995931,
				"element": "O" 
			},
			{
				"x": 0.3355238869,
				"y": -1.2087714911,
				"z": -0.7531959294,
				"element": "C" 
			},
			{
				"x": 1.7446035628,
				"y": -0.7285114077,
				"z": -0.3802500492,
				"element": "C" 
			},
			{
				"x": 1.5965677806,
				"y": 0.6972450323,
				"z": -0.3458628007,
				"element": "O" 
			},
			{
				"x": 0.2198863497,
				"y": -1.3759133804,
				"z": -1.8295849925,
				"element": "H" 
			},
			{
				"x": 0.0176884384,
				"y": -2.1003759731,
				"z": -0.2096765374,
				"element": "H" 
			},
			{
				"x": 2.0594268015,
				"y": -1.0781056643,
				"z": 0.6089881628,
				"element": "H" 
			},
			{
				"x": 2.5061356578,
				"y": -0.9879798583,
				"z": -1.1179047071,
				"element": "H" 
			}
		],
		 "valence_orbital": [ 
			{
				"type": "occ",
				"energy": -0.38463,
				"method": "rhf"
			},
			{
				"type": "occ",
				"energy": -0.37979,
				"method": "rhf"
			},
			{
				"type": "occ",
				"energy": -0.31453,
				"method": "rhf"
			},
			{
				"type": "occ",
				"energy": -0.30917,
				"method": "rhf"
			},
			{
				"type": "occ",
				"energy": -0.29339,
				"method": "rhf"
			},
			{
				"type": "unocc",
				"energy": 0.03504,
				"method": "rhf"
			},
			{
				"type": "unocc",
				"energy": 0.06057,
				"method": "rhf"
			},
			{
				"type": "unocc",
				"energy": 0.08411,
				"method": "rhf"
			},
			{
				"type": "unocc",
				"energy": 0.10037,
				"method": "rhf"
			},
			{
				"type": "unocc",
				"energy": 0.12914,
				"method": "rhf"
			}
		],
		"cosmo_sigma_profile": { 
			"-0.025": 0.0,
			"-0.024": 0.0,
			"-0.023": 0.0,
			"-0.022": 0.0,
			"-0.021": 0.0,
			"-0.02": 0.0,
			"-0.019": 0.0,
			"-0.018": 0.0,
			"-0.017": 0.0,
			"-0.016": 0.0,
			"-0.015": 0.0,
			"-0.014": 0.0,
			"-0.013": 0.0,
			"-0.012": 0.0,
			"-0.011": 0.0,
			"-0.01": 0.0,
			"-0.009": 0.201699274535,
			"-0.008": 12.7138496557,
			"-0.007": 16.207553423,
			"-0.006": 9.835610613,
			"-0.005": 7.43530830913,
			"-0.004": 4.71154810596,
			"-0.003": 3.58231606593,
			"-0.002": 2.56660099292,
			"-0.001": 2.19236912256,
			"0.0": 3.00978409656,
			"0.001": 2.94586824841,
			"0.002": 2.93406190324,
			"0.003": 2.30927531003,
			"0.004": 2.99123480663,
			"0.005": 2.5963369955,
			"0.006": 4.21167956148,
			"0.007": 3.83924862508,
			"0.008": 6.3518574823,
			"0.009": 5.79858480476,
			"0.01": 3.75726582104,
			"0.011": 6.74658242237,
			"0.012": 3.40228024319,
			"0.013": 0.0314561046201,
			"0.014": 0.0,
			"0.015": 0.0,
			"0.016": 0.0,
			"0.017": 0.0,
			"0.018": 0.0,
			"0.019": 0.0,
			"0.02": 0.0,
			"0.021": 0.0,
			"0.022": 0.0,
			"0.023": 0.0,
			"0.024": 0.0,
			"0.025": 0.0
		}
	}
}
