{
	 "smiles": "OC(=O)CCC1=CC(O)=CC=C1", 
	 "Tm": 385.15, 
	 "num_atms": 22, 
	 "gaussian": { 
		 "optdone": 1, 
		 "sigma_profile": "yes", 
		 "theory": "DFT", 
		 "functional": "B3LYP", 
		 "basiset": "6-31G**", 
		 "properties": { 
			 "R2extent": 2498.0247, 
			 "electric_dipole_moment_norm": 4.87375212644, 
			 "electric_quadrupole_moment_norm": 14.7406120117, 
			 "total_energy": -574.662409927, 
			 "HOMO_LUMO_gap": 0.21559, 
			 "cosmo_polarized_energy": -20.8, 
			 "cosmo_cavitation_energy": 26.11, 
			 "cosmo_dispersion_energy": -18.66, 
			 "cosmo_repulsion_energy": 1.51, 
			 "cosmo_total_nonelectrostatic_energy": 8.96, 
			 "SMD_solvation_energy": 5.61 
		},
		"coords": [
			{
				"x": -1.4306427326,
				"y": 2.8380608183,
				"z": -0.7850636637,
				"element": "O" 
			},
			{
				"x": -0.2058992568,
				"y": 2.3954601821,
				"z": -0.3727859665,
				"element": "C" 
			},
			{
				"x": 0.2372860627,
				"y": 2.7605911743,
				"z": 0.6848494491,
				"element": "O" 
			},
			{
				"x": 0.526616732,
				"y": 1.4733499845,
				"z": -1.3415821375,
				"element": "C" 
			},
			{
				"x": -0.2766783668,
				"y": 0.2379700871,
				"z": -1.8157658089,
				"element": "C" 
			},
			{
				"x": -0.632112677,
				"y": -0.727813054,
				"z": -0.7032709529,
				"element": "C" 
			},
			{
				"x": 0.2061142097,
				"y": -1.8162500408,
				"z": -0.4313178702,
				"element": "C" 
			},
			{
				"x": -0.0902828698,
				"y": -2.7016040464,
				"z": 0.6095395645,
				"element": "C" 
			},
			{
				"x": 0.6978428963,
				"y": -3.7773450578,
				"z": 0.9057613825,
				"element": "O" 
			},
			{
				"x": -1.2349552104,
				"y": -2.507532227,
				"z": 1.3904092532,
				"element": "C" 
			},
			{
				"x": -2.0674870059,
				"y": -1.4259507415,
				"z": 1.1190845737,
				"element": "C" 
			},
			{
				"x": -1.776392428,
				"y": -0.5382185846,
				"z": 0.0803859522,
				"element": "C" 
			},
			{
				"x": -1.6383492089,
				"y": 2.4827228356,
				"z": -1.6606433905,
				"element": "H" 
			},
			{
				"x": 1.4426323935,
				"y": 1.1586685733,
				"z": -0.8381818051,
				"element": "H" 
			},
			{
				"x": 0.8180832073,
				"y": 2.0705767294,
				"z": -2.216990761,
				"element": "H" 
			},
			{
				"x": -1.1924820747,
				"y": 0.5559205869,
				"z": -2.3330725409,
				"element": "H" 
			},
			{
				"x": 0.323518904,
				"y": -0.276575913,
				"z": -2.573893129,
				"element": "H" 
			},
			{
				"x": 1.0962672365,
				"y": -1.9781561674,
				"z": -1.0381631024,
				"element": "H" 
			},
			{
				"x": 1.4571692371,
				"y": -3.7892851365,
				"z": 0.3088817125,
				"element": "H" 
			},
			{
				"x": -1.4500183332,
				"y": -3.2061893842,
				"z": 2.1918369193,
				"element": "H" 
			},
			{
				"x": -2.9564175713,
				"y": -1.272318512,
				"z": 1.723911087,
				"element": "H" 
			},
			{
				"x": -2.4332131436,
				"y": 0.3047178937,
				"z": -0.1121287653,
				"element": "H" 
			}
		],
		 "valence_orbital": [ 
			{
				"type": "occ",
				"energy": -0.33132,
				"method": "rhf"
			},
			{
				"type": "occ",
				"energy": -0.31391,
				"method": "rhf"
			},
			{
				"type": "occ",
				"energy": -0.26776,
				"method": "rhf"
			},
			{
				"type": "occ",
				"energy": -0.25112,
				"method": "rhf"
			},
			{
				"type": "occ",
				"energy": -0.22419,
				"method": "rhf"
			},
			{
				"type": "unocc",
				"energy": -0.0086,
				"method": "rhf"
			},
			{
				"type": "unocc",
				"energy": 0.00119,
				"method": "rhf"
			},
			{
				"type": "unocc",
				"energy": 0.01611,
				"method": "rhf"
			},
			{
				"type": "unocc",
				"energy": 0.04476,
				"method": "rhf"
			},
			{
				"type": "unocc",
				"energy": 0.06701,
				"method": "rhf"
			}
		],
		"cosmo_sigma_profile": { 
			"-0.025": 0.0,
			"-0.024": 0.0,
			"-0.023": 0.0,
			"-0.022": 0.0,
			"-0.021": 0.0,
			"-0.02": 0.0,
			"-0.019": 0.135518255737,
			"-0.018": 1.07249577949,
			"-0.017": 1.89999282786,
			"-0.016": 2.48040394123,
			"-0.015": 1.63546401418,
			"-0.014": 2.34520162197,
			"-0.013": 1.22545177012,
			"-0.012": 2.13523390938,
			"-0.011": 2.29118416325,
			"-0.01": 3.41719380422,
			"-0.009": 2.33320816584,
			"-0.008": 2.68979424045,
			"-0.007": 4.88258996414,
			"-0.006": 8.58322772402,
			"-0.005": 14.4959910822,
			"-0.004": 16.0873529106,
			"-0.003": 13.9416188039,
			"-0.002": 11.3916338022,
			"-0.001": 8.93963605179,
			"0.0": 7.0566557534,
			"0.001": 8.61672611875,
			"0.002": 8.43067098179,
			"0.003": 9.61120009371,
			"0.004": 12.561012389,
			"0.005": 11.9083342917,
			"0.006": 11.1189555538,
			"0.007": 3.8579537799,
			"0.008": 3.83434207667,
			"0.009": 4.38004539669,
			"0.01": 5.3012284748,
			"0.011": 8.87049203364,
			"0.012": 6.12338161368,
			"0.013": 2.60644997627,
			"0.014": 0.069059754552,
			"0.015": 0.0,
			"0.016": 0.0,
			"0.017": 0.0,
			"0.018": 0.0,
			"0.019": 0.0,
			"0.02": 0.0,
			"0.021": 0.0,
			"0.022": 0.0,
			"0.023": 0.0,
			"0.024": 0.0,
			"0.025": 0.0
		}
	}
}
