{
	 "smiles": "CC1=C(CSC2=C(C=CC=C2)C(O)=O)C(C)=NO1", 
	 "Tm": 466.15, 
	 "num_atms": 31, 
	 "gaussian": { 
		 "optdone": 1, 
		 "sigma_profile": "yes", 
		 "theory": "DFT", 
		 "functional": "B3LYP", 
		 "basiset": "6-31G**", 
		 "properties": { 
			 "R2extent": 4949.5157, 
			 "electric_dipole_moment_norm": 3.38639592044, 
			 "electric_quadrupole_moment_norm": 19.0196818485, 
			 "total_energy": -1181.80503394, 
			 "HOMO_LUMO_gap": 0.1686, 
			 "cosmo_polarized_energy": -15.04, 
			 "cosmo_cavitation_energy": 36.84, 
			 "cosmo_dispersion_energy": -24.82, 
			 "cosmo_repulsion_energy": 1.89, 
			 "cosmo_total_nonelectrostatic_energy": 13.9, 
			 "SMD_solvation_energy": 6.85 
		},
		"coords": [
			{
				"x": 1.0411086008,
				"y": -0.75463113,
				"z": 2.7896856387,
				"element": "C" 
			},
			{
				"x": 0.9819975219,
				"y": -1.5934390563,
				"z": 1.5598619398,
				"element": "C" 
			},
			{
				"x": 1.0745926233,
				"y": -1.3129649535,
				"z": 0.2236708753,
				"element": "C" 
			},
			{
				"x": 1.2522851687,
				"y": 0.0120709134,
				"z": -0.4281203238,
				"element": "C" 
			},
			{
				"x": -0.2888938367,
				"y": 0.7224365108,
				"z": -1.2086973956,
				"element": "S" 
			},
			{
				"x": -1.4736344874,
				"y": 0.7560599814,
				"z": 0.1411456383,
				"element": "C" 
			},
			{
				"x": -1.538779671,
				"y": 1.7722760667,
				"z": 1.1253037451,
				"element": "C" 
			},
			{
				"x": -2.6057903258,
				"y": 1.7867592074,
				"z": 2.0370281701,
				"element": "C" 
			},
			{
				"x": -3.5899608641,
				"y": 0.8015751873,
				"z": 2.0071893641,
				"element": "C" 
			},
			{
				"x": -3.5264250072,
				"y": -0.2044337564,
				"z": 1.0449143721,
				"element": "C" 
			},
			{
				"x": -2.482330831,
				"y": -0.2168398937,
				"z": 0.1191479442,
				"element": "C" 
			},
			{
				"x": -0.4864737156,
				"y": 2.8192059698,
				"z": 1.2755237403,
				"element": "C" 
			},
			{
				"x": -0.9990584803,
				"y": 4.0051900322,
				"z": 1.6836821881,
				"element": "O" 
			},
			{
				"x": 0.7084985204,
				"y": 2.6682289632,
				"z": 1.1084374761,
				"element": "O" 
			},
			{
				"x": 0.9432504234,
				"y": -2.5992617516,
				"z": -0.4001885447,
				"element": "C" 
			},
			{
				"x": 0.969525523,
				"y": -2.921634705,
				"z": -1.8616461994,
				"element": "C" 
			},
			{
				"x": 0.7913405984,
				"y": -3.5571698212,
				"z": 0.4843454281,
				"element": "N" 
			},
			{
				"x": 0.8163149595,
				"y": -2.9212437363,
				"z": 1.7362192529,
				"element": "O" 
			},
			{
				"x": 1.894765824,
				"y": -1.0388302616,
				"z": 3.4147388711,
				"element": "H" 
			},
			{
				"x": 0.134849176,
				"y": -0.8853132045,
				"z": 3.3902502202,
				"element": "H" 
			},
			{
				"x": 1.1341145737,
				"y": 0.3006804043,
				"z": 2.5263775898,
				"element": "H" 
			},
			{
				"x": 1.6332534691,
				"y": 0.7640892557,
				"z": 0.2609029953,
				"element": "H" 
			},
			{
				"x": 1.9338357217,
				"y": -0.0504499749,
				"z": -1.2825588349,
				"element": "H" 
			},
			{
				"x": -2.6504865017,
				"y": 2.5793867552,
				"z": 2.7754795516,
				"element": "H" 
			},
			{
				"x": -4.4013070648,
				"y": 0.8247887069,
				"z": 2.7282111288,
				"element": "H" 
			},
			{
				"x": -4.2873460026,
				"y": -0.9784068311,
				"z": 1.0079991893,
				"element": "H" 
			},
			{
				"x": -2.4403742437,
				"y": -0.9873440015,
				"z": -0.6426108659,
				"element": "H" 
			},
			{
				"x": -0.2363986591,
				"y": 4.5964632612,
				"z": 1.8008818325,
				"element": "H" 
			},
			{
				"x": 0.1837815583,
				"y": -2.3759868741,
				"z": -2.3939724749,
				"element": "H" 
			},
			{
				"x": 1.9280430258,
				"y": -2.6349626292,
				"z": -2.3091273991,
				"element": "H" 
			},
			{
				"x": 0.8249024029,
				"y": -3.9934986345,
				"z": -2.0110751134,
				"element": "H" 
			}
		],
		 "valence_orbital": [ 
			{
				"type": "occ",
				"energy": -0.27447,
				"method": "rhf"
			},
			{
				"type": "occ",
				"energy": -0.2705,
				"method": "rhf"
			},
			{
				"type": "occ",
				"energy": -0.26505,
				"method": "rhf"
			},
			{
				"type": "occ",
				"energy": -0.24067,
				"method": "rhf"
			},
			{
				"type": "occ",
				"energy": -0.22652,
				"method": "rhf"
			},
			{
				"type": "unocc",
				"energy": -0.05792,
				"method": "rhf"
			},
			{
				"type": "unocc",
				"energy": -0.02765,
				"method": "rhf"
			},
			{
				"type": "unocc",
				"energy": 0.00251,
				"method": "rhf"
			},
			{
				"type": "unocc",
				"energy": 0.02584,
				"method": "rhf"
			},
			{
				"type": "unocc",
				"energy": 0.03979,
				"method": "rhf"
			}
		],
		"cosmo_sigma_profile": { 
			"-0.025": 0.0,
			"-0.024": 0.0,
			"-0.023": 0.0,
			"-0.022": 0.0,
			"-0.021": 0.0,
			"-0.02": 0.0,
			"-0.019": 0.138717166605,
			"-0.018": 0.843667480292,
			"-0.017": 0.963030018997,
			"-0.016": 0.93825924005,
			"-0.015": 0.43720256574,
			"-0.014": 0.971779034653,
			"-0.013": 0.420533969536,
			"-0.012": 0.689183097219,
			"-0.011": 1.21500960549,
			"-0.01": 0.765852092537,
			"-0.009": 0.105250422759,
			"-0.008": 0.780276273713,
			"-0.007": 6.55820419695,
			"-0.006": 16.4259453483,
			"-0.005": 18.8246188167,
			"-0.004": 20.2194392735,
			"-0.003": 22.2058591897,
			"-0.002": 28.6780126025,
			"-0.001": 27.2378642862,
			"0.0": 22.595200698,
			"0.001": 23.0134558408,
			"0.002": 24.2404123042,
			"0.003": 17.0275046098,
			"0.004": 8.54565047898,
			"0.005": 7.50636534981,
			"0.006": 7.72612620942,
			"0.007": 6.15475705617,
			"0.008": 8.28018601486,
			"0.009": 8.45085686204,
			"0.01": 4.20103225185,
			"0.011": 3.73250023922,
			"0.012": 1.78256928807,
			"0.013": 1.53333441384,
			"0.014": 1.29142578037,
			"0.015": 0.813766333076,
			"0.016": 0.00423677914152,
			"0.017": 0.0,
			"0.018": 0.0,
			"0.019": 0.0,
			"0.02": 0.0,
			"0.021": 0.0,
			"0.022": 0.0,
			"0.023": 0.0,
			"0.024": 0.0,
			"0.025": 0.0
		}
	}
}
