{
	 "smiles": "CC1(C)C2CCC11CS(=O)(=O)NC1C2", 
	 "Tm": 456.15, 
	 "num_atms": 31, 
	 "gaussian": { 
		 "optdone": 1, 
		 "sigma_profile": "yes", 
		 "theory": "DFT", 
		 "functional": "B3LYP", 
		 "basiset": "6-31G**", 
		 "properties": { 
			 "R2extent": 3158.7511, 
			 "electric_dipole_moment_norm": 5.64490646867, 
			 "electric_quadrupole_moment_norm": 20.7827220823, 
			 "total_energy": -994.617663775, 
			 "HOMO_LUMO_gap": 0.30069, 
			 "cosmo_polarized_energy": -15.48, 
			 "cosmo_cavitation_energy": 30.68, 
			 "cosmo_dispersion_energy": -22.75, 
			 "cosmo_repulsion_energy": 1.68, 
			 "cosmo_total_nonelectrostatic_energy": 9.61, 
			 "SMD_solvation_energy": 2.98 
		},
		"coords": [
			{
				"x": -0.4817618189,
				"y": -0.6917711314,
				"z": -1.8868950771,
				"element": "C" 
			},
			{
				"x": 0.4132862703,
				"y": 0.1020474168,
				"z": -0.9158308797,
				"element": "C" 
			},
			{
				"x": 0.7005614184,
				"y": 1.4584160211,
				"z": -1.5858309286,
				"element": "C" 
			},
			{
				"x": 1.699935558,
				"y": -0.6859707251,
				"z": -0.4574940269,
				"element": "C" 
			},
			{
				"x": 2.3565162228,
				"y": 0.2982904049,
				"z": 0.5287011344,
				"element": "C" 
			},
			{
				"x": 1.1224863073,
				"y": 0.8466392484,
				"z": 1.3011804276,
				"element": "C" 
			},
			{
				"x": -0.0991237114,
				"y": 0.2125348806,
				"z": 0.5620487714,
				"element": "C" 
			},
			{
				"x": -1.4326659662,
				"y": 0.7885995374,
				"z": 1.0094987129,
				"element": "C" 
			},
			{
				"x": -1.7390140703,
				"y": -0.0903470467,
				"z": 2.6160121689,
				"element": "S" 
			},
			{
				"x": -3.0539070256,
				"y": -0.7497274209,
				"z": 2.5957520418,
				"element": "O" 
			},
			{
				"x": -1.3740670528,
				"y": 0.7665733413,
				"z": 3.7451592677,
				"element": "O" 
			},
			{
				"x": -0.4932810871,
				"y": -1.2952218613,
				"z": 2.3871573602,
				"element": "N" 
			},
			{
				"x": -0.187859765,
				"y": -1.2831285514,
				"z": 0.9472553682,
				"element": "C" 
			},
			{
				"x": 1.1470877542,
				"y": -1.8615355343,
				"z": 0.413480956,
				"element": "C" 
			},
			{
				"x": -1.4801953813,
				"y": -0.2447158627,
				"z": -1.9598718665,
				"element": "H" 
			},
			{
				"x": -0.6062406804,
				"y": -1.7439435585,
				"z": -1.6242459397,
				"element": "H" 
			},
			{
				"x": -0.0453202731,
				"y": -0.6640329011,
				"z": -2.8909389318,
				"element": "H" 
			},
			{
				"x": 1.2342435014,
				"y": 2.1640395061,
				"z": -0.9478063996,
				"element": "H" 
			},
			{
				"x": -0.2386797397,
				"y": 1.9356129387,
				"z": -1.8877167063,
				"element": "H" 
			},
			{
				"x": 1.2968116506,
				"y": 1.3151224962,
				"z": -2.4938533397,
				"element": "H" 
			},
			{
				"x": 2.3506733041,
				"y": -1.0135505474,
				"z": -1.2737244318,
				"element": "H" 
			},
			{
				"x": 2.8993392704,
				"y": 1.0932028822,
				"z": 0.0097052013,
				"element": "H" 
			},
			{
				"x": 3.0727669916,
				"y": -0.2029076906,
				"z": 1.1862588221,
				"element": "H" 
			},
			{
				"x": 1.1316438197,
				"y": 0.5726795933,
				"z": 2.3567078144,
				"element": "H" 
			},
			{
				"x": 1.0603396352,
				"y": 1.9380736727,
				"z": 1.2566448722,
				"element": "H" 
			},
			{
				"x": -2.2691053903,
				"y": 0.5207563629,
				"z": 0.3588527921,
				"element": "H" 
			},
			{
				"x": -1.4428135475,
				"y": 1.8574774855,
				"z": 1.2291778986,
				"element": "H" 
			},
			{
				"x": -0.9023477741,
				"y": -2.1758404145,
				"z": 2.6978292783,
				"element": "H" 
			},
			{
				"x": -1.021133589,
				"y": -1.7369506814,
				"z": 0.3954554649,
				"element": "H" 
			},
			{
				"x": 1.8377052081,
				"y": -2.1112558362,
				"z": 1.2239680576,
				"element": "H" 
			},
			{
				"x": 0.9749199606,
				"y": -2.7736660245,
				"z": -0.1648378829,
				"element": "H" 
			}
		],
		 "valence_orbital": [ 
			{
				"type": "occ",
				"energy": -0.31154,
				"method": "rhf"
			},
			{
				"type": "occ",
				"energy": -0.30479,
				"method": "rhf"
			},
			{
				"type": "occ",
				"energy": -0.29544,
				"method": "rhf"
			},
			{
				"type": "occ",
				"energy": -0.28832,
				"method": "rhf"
			},
			{
				"type": "occ",
				"energy": -0.25857,
				"method": "rhf"
			},
			{
				"type": "unocc",
				"energy": 0.04212,
				"method": "rhf"
			},
			{
				"type": "unocc",
				"energy": 0.05332,
				"method": "rhf"
			},
			{
				"type": "unocc",
				"energy": 0.06475,
				"method": "rhf"
			},
			{
				"type": "unocc",
				"energy": 0.07833,
				"method": "rhf"
			},
			{
				"type": "unocc",
				"energy": 0.07948,
				"method": "rhf"
			}
		],
		"cosmo_sigma_profile": { 
			"-0.025": 0.0,
			"-0.024": 0.0,
			"-0.023": 0.0,
			"-0.022": 0.0,
			"-0.021": 0.0,
			"-0.02": 0.0,
			"-0.019": 0.0,
			"-0.018": 0.0,
			"-0.017": 0.0,
			"-0.016": 0.0,
			"-0.015": 0.00382344435881,
			"-0.014": 0.835156101063,
			"-0.013": 1.19835365242,
			"-0.012": 1.20206876002,
			"-0.011": 1.3987061536,
			"-0.01": 0.847069635362,
			"-0.009": 0.813823877092,
			"-0.008": 2.35293631712,
			"-0.007": 3.99964284826,
			"-0.006": 5.80165708637,
			"-0.005": 15.5453361605,
			"-0.004": 19.0105617273,
			"-0.003": 28.9868017619,
			"-0.002": 28.1328429835,
			"-0.001": 27.7361650272,
			"0.0": 26.5563692271,
			"0.001": 19.9634333031,
			"0.002": 4.63293722509,
			"0.003": 2.7974420815,
			"0.004": 2.79339132867,
			"0.005": 2.70352309734,
			"0.006": 2.60396589932,
			"0.007": 2.973090531,
			"0.008": 3.60451224502,
			"0.009": 3.34488381064,
			"0.01": 7.04469488111,
			"0.011": 13.4578912212,
			"0.012": 7.18245769408,
			"0.013": 0.395608647709,
			"0.014": 0.0,
			"0.015": 0.0,
			"0.016": 0.0,
			"0.017": 0.0,
			"0.018": 0.0,
			"0.019": 0.0,
			"0.02": 0.0,
			"0.021": 0.0,
			"0.022": 0.0,
			"0.023": 0.0,
			"0.024": 0.0,
			"0.025": 0.0
		}
	}
}
