{
	 "smiles": "O=C(CC1=NC=CC=C1)C1=CN=CC=C1", 
	 "Tm": 340.15, 
	 "num_atms": 25, 
	 "gaussian": { 
		 "optdone": 1, 
		 "sigma_profile": "yes", 
		 "theory": "DFT", 
		 "functional": "B3LYP", 
		 "basiset": "6-31G**", 
		 "properties": { 
			 "R2extent": 3522.1259, 
			 "electric_dipole_moment_norm": 1.64716407501, 
			 "electric_quadrupole_moment_norm": 17.626293533, 
			 "total_energy": -648.021830543, 
			 "HOMO_LUMO_gap": 0.17803, 
			 "cosmo_polarized_energy": -11.06, 
			 "cosmo_cavitation_energy": 29.74, 
			 "cosmo_dispersion_energy": -21.24, 
			 "cosmo_repulsion_energy": 1.64, 
			 "cosmo_total_nonelectrostatic_energy": 10.14, 
			 "SMD_solvation_energy": 3.21 
		},
		"coords": [
			{
				"x": -1.62755407,
				"y": -0.1646047068,
				"z": 1.3644406284,
				"element": "O" 
			},
			{
				"x": -1.1031888404,
				"y": -0.1787149196,
				"z": 0.2602865319,
				"element": "C" 
			},
			{
				"x": -1.3556055097,
				"y": 0.9748547591,
				"z": -0.7162796489,
				"element": "C" 
			},
			{
				"x": -0.2441806533,
				"y": 2.0099166301,
				"z": -0.6605230868,
				"element": "C" 
			},
			{
				"x": 0.5667968555,
				"y": 2.0853650113,
				"z": -1.7260763807,
				"element": "N" 
			},
			{
				"x": 1.5561091018,
				"y": 2.9881648692,
				"z": -1.7005366027,
				"element": "C" 
			},
			{
				"x": 1.788256069,
				"y": 3.8484936255,
				"z": -0.6283085149,
				"element": "C" 
			},
			{
				"x": 0.9469356702,
				"y": 3.7593095277,
				"z": 0.4814207349,
				"element": "C" 
			},
			{
				"x": -0.0854349365,
				"y": 2.8252991236,
				"z": 0.4684340757,
				"element": "C" 
			},
			{
				"x": -0.2048884568,
				"y": -1.3051355159,
				"z": -0.14187331,
				"element": "C" 
			},
			{
				"x": 0.5336197231,
				"y": -1.3218442771,
				"z": -1.3359962125,
				"element": "C" 
			},
			{
				"x": 1.3349347236,
				"y": -2.3325024368,
				"z": -1.6971736563,
				"element": "N" 
			},
			{
				"x": 1.4217514739,
				"y": -3.3767214317,
				"z": -0.8647541763,
				"element": "C" 
			},
			{
				"x": 0.7388806196,
				"y": -3.4611988577,
				"z": 0.3529406678,
				"element": "C" 
			},
			{
				"x": -0.0844907382,
				"y": -2.4054676931,
				"z": 0.7200856009,
				"element": "C" 
			},
			{
				"x": -1.4456061998,
				"y": 0.6189731763,
				"z": -1.7444218718,
				"element": "H" 
			},
			{
				"x": -2.3037332256,
				"y": 1.4245656883,
				"z": -0.4096947107,
				"element": "H" 
			},
			{
				"x": 2.1921349864,
				"y": 3.0216852647,
				"z": -2.583153539,
				"element": "H" 
			},
			{
				"x": 2.6047275028,
				"y": 4.5625458833,
				"z": -0.6636073778,
				"element": "H" 
			},
			{
				"x": 1.0924562424,
				"y": 4.4063444826,
				"z": 1.3417375854,
				"element": "H" 
			},
			{
				"x": -0.7596735765,
				"y": 2.7161697669,
				"z": 1.3121410321,
				"element": "H" 
			},
			{
				"x": 0.5020726555,
				"y": -0.4762610009,
				"z": -2.0193459594,
				"element": "H" 
			},
			{
				"x": 2.0726459592,
				"y": -4.1888998958,
				"z": -1.1850273427,
				"element": "H" 
			},
			{
				"x": 0.8557956245,
				"y": -4.3338205912,
				"z": 0.9879049731,
				"element": "H" 
			},
			{
				"x": -0.6416610008,
				"y": -2.4020164821,
				"z": 1.6513805604,
				"element": "H" 
			}
		],
		 "valence_orbital": [ 
			{
				"type": "occ",
				"energy": -0.27479,
				"method": "rhf"
			},
			{
				"type": "occ",
				"energy": -0.26855,
				"method": "rhf"
			},
			{
				"type": "occ",
				"energy": -0.26467,
				"method": "rhf"
			},
			{
				"type": "occ",
				"energy": -0.25846,
				"method": "rhf"
			},
			{
				"type": "occ",
				"energy": -0.24546,
				"method": "rhf"
			},
			{
				"type": "unocc",
				"energy": -0.06743,
				"method": "rhf"
			},
			{
				"type": "unocc",
				"energy": -0.03014,
				"method": "rhf"
			},
			{
				"type": "unocc",
				"energy": -0.02448,
				"method": "rhf"
			},
			{
				"type": "unocc",
				"energy": -0.01798,
				"method": "rhf"
			},
			{
				"type": "unocc",
				"energy": 0.0308,
				"method": "rhf"
			}
		],
		"cosmo_sigma_profile": { 
			"-0.025": 0.0,
			"-0.024": 0.0,
			"-0.023": 0.0,
			"-0.022": 0.0,
			"-0.021": 0.0,
			"-0.02": 0.0,
			"-0.019": 0.0,
			"-0.018": 0.0,
			"-0.017": 0.0,
			"-0.016": 0.0,
			"-0.015": 0.0,
			"-0.014": 0.0,
			"-0.013": 0.0,
			"-0.012": 0.0,
			"-0.011": 0.0,
			"-0.01": 0.0,
			"-0.009": 0.0,
			"-0.008": 0.697099130088,
			"-0.007": 10.2114386225,
			"-0.006": 20.1975607031,
			"-0.005": 20.4611323289,
			"-0.004": 16.3683240618,
			"-0.003": 15.5331487783,
			"-0.002": 15.7248258421,
			"-0.001": 16.0315826138,
			"0.0": 22.2365585045,
			"0.001": 25.6263614579,
			"0.002": 20.5616859484,
			"0.003": 13.7712787036,
			"0.004": 6.42676663365,
			"0.005": 4.0726962104,
			"0.006": 3.8240946886,
			"0.007": 4.0414951794,
			"0.008": 3.38587294667,
			"0.009": 3.34501146398,
			"0.01": 3.45799447005,
			"0.011": 5.56011008973,
			"0.012": 3.55056577806,
			"0.013": 1.45981844097,
			"0.014": 0.969521967097,
			"0.015": 1.02176113303,
			"0.016": 0.692522681331,
			"0.017": 0.0,
			"0.018": 0.0,
			"0.019": 0.0,
			"0.02": 0.0,
			"0.021": 0.0,
			"0.022": 0.0,
			"0.023": 0.0,
			"0.024": 0.0,
			"0.025": 0.0
		}
	}
}
