{
	 "smiles": "OC(=O)C1=CC2=C(C=C1)C(=O)NNC2=O", 
	 "Tm": 524.15, 
	 "num_atms": 21, 
	 "gaussian": { 
		 "optdone": 1, 
		 "sigma_profile": "yes", 
		 "theory": "DFT", 
		 "functional": "B3LYP", 
		 "basiset": "6-31G**", 
		 "properties": { 
			 "R2extent": 3395.2745, 
			 "electric_dipole_moment_norm": 4.625814538, 
			 "electric_quadrupole_moment_norm": 9.57871294016, 
			 "total_energy": -756.972596765, 
			 "HOMO_LUMO_gap": 0.15993, 
			 "cosmo_polarized_energy": -25.57, 
			 "cosmo_cavitation_energy": 26.67, 
			 "cosmo_dispersion_energy": -19.97, 
			 "cosmo_repulsion_energy": 1.53, 
			 "cosmo_total_nonelectrostatic_energy": 8.24, 
			 "SMD_solvation_energy": 7.11 
		},
		"coords": [
			{
				"x": 1.0021284555,
				"y": 0.1227414744,
				"z": -3.4199084874,
				"element": "O" 
			},
			{
				"x": 1.7184362484,
				"y": 0.2433516169,
				"z": -2.2759904081,
				"element": "C" 
			},
			{
				"x": 2.8972831481,
				"y": 0.5033986175,
				"z": -2.3190683293,
				"element": "O" 
			},
			{
				"x": 0.9811337993,
				"y": 0.0402199105,
				"z": -0.9799572395,
				"element": "C" 
			},
			{
				"x": -0.4074508122,
				"y": 0.1186138231,
				"z": -0.8733742332,
				"element": "C" 
			},
			{
				"x": -1.0261315898,
				"y": -0.0610213081,
				"z": 0.3674959894,
				"element": "C" 
			},
			{
				"x": -0.2514873447,
				"y": -0.3296131649,
				"z": 1.5063604855,
				"element": "C" 
			},
			{
				"x": 1.1443722974,
				"y": -0.3910725072,
				"z": 1.4034318354,
				"element": "C" 
			},
			{
				"x": 1.7538973513,
				"y": -0.201313722,
				"z": 0.1715608162,
				"element": "C" 
			},
			{
				"x": -0.8911162739,
				"y": -0.5049009073,
				"z": 2.8356236437,
				"element": "C" 
			},
			{
				"x": -0.2764001496,
				"y": -0.6381474252,
				"z": 3.8852787106,
				"element": "O" 
			},
			{
				"x": -2.273736422,
				"y": -0.523708646,
				"z": 2.8215571364,
				"element": "N" 
			},
			{
				"x": -3.0309691264,
				"y": -0.0858250143,
				"z": 1.7162200749,
				"element": "N" 
			},
			{
				"x": -2.5070707313,
				"y": 0.0019964418,
				"z": 0.4424255091,
				"element": "C" 
			},
			{
				"x": -3.2403442715,
				"y": 0.13165297,
				"z": -0.5305070902,
				"element": "O" 
			},
			{
				"x": 0.1139736898,
				"y": -0.21490317,
				"z": -3.2388372937,
				"element": "H" 
			},
			{
				"x": -1.0563712094,
				"y": 0.3452767966,
				"z": -1.7149308304,
				"element": "H" 
			},
			{
				"x": 1.7207277813,
				"y": -0.5840695325,
				"z": 2.3016290695,
				"element": "H" 
			},
			{
				"x": 2.8327723949,
				"y": -0.2339420806,
				"z": 0.0661917584,
				"element": "H" 
			},
			{
				"x": -2.7001025924,
				"y": -0.3085102614,
				"z": 3.7153825306,
				"element": "H" 
			},
			{
				"x": -4.0026446427,
				"y": -0.3714239115,
				"z": 1.7500163522,
				"element": "H" 
			}
		],
		 "valence_orbital": [ 
			{
				"type": "occ",
				"energy": -0.29267,
				"method": "rhf"
			},
			{
				"type": "occ",
				"energy": -0.28679,
				"method": "rhf"
			},
			{
				"type": "occ",
				"energy": -0.28485,
				"method": "rhf"
			},
			{
				"type": "occ",
				"energy": -0.28287,
				"method": "rhf"
			},
			{
				"type": "occ",
				"energy": -0.25078,
				"method": "rhf"
			},
			{
				"type": "unocc",
				"energy": -0.09085,
				"method": "rhf"
			},
			{
				"type": "unocc",
				"energy": -0.06832,
				"method": "rhf"
			},
			{
				"type": "unocc",
				"energy": -0.00404,
				"method": "rhf"
			},
			{
				"type": "unocc",
				"energy": 0.02061,
				"method": "rhf"
			},
			{
				"type": "unocc",
				"energy": 0.04944,
				"method": "rhf"
			}
		],
		"cosmo_sigma_profile": { 
			"-0.025": 0.0,
			"-0.024": 0.0,
			"-0.023": 0.0,
			"-0.022": 0.0,
			"-0.021": 0.0,
			"-0.02": 0.075047721339,
			"-0.019": 1.0003818505,
			"-0.018": 1.75475187695,
			"-0.017": 4.32304709061,
			"-0.016": 3.46673774826,
			"-0.015": 2.41660892824,
			"-0.014": 3.55672980972,
			"-0.013": 3.12441015031,
			"-0.012": 2.13529831435,
			"-0.011": 1.59823177833,
			"-0.01": 1.83448517017,
			"-0.009": 2.24838038952,
			"-0.008": 3.94516736548,
			"-0.007": 6.68937360695,
			"-0.006": 8.30007648346,
			"-0.005": 9.10985397685,
			"-0.004": 9.37542499522,
			"-0.003": 11.475173595,
			"-0.002": 11.9278814701,
			"-0.001": 17.3634748236,
			"0.0": 16.2225619296,
			"0.001": 10.0052637127,
			"0.002": 6.73124679574,
			"0.003": 6.96652579627,
			"0.004": 5.9730971621,
			"0.005": 5.13406929426,
			"0.006": 4.48061180839,
			"0.007": 5.24571760086,
			"0.008": 5.1158827402,
			"0.009": 6.259489176,
			"0.01": 8.67432804587,
			"0.011": 9.03087143537,
			"0.012": 12.1536789851,
			"0.013": 6.5185335585,
			"0.014": 0.103603343036,
			"0.015": 0.0,
			"0.016": 0.0,
			"0.017": 0.0,
			"0.018": 0.0,
			"0.019": 0.0,
			"0.02": 0.0,
			"0.021": 0.0,
			"0.022": 0.0,
			"0.023": 0.0,
			"0.024": 0.0,
			"0.025": 0.0
		}
	}
}
