{
	 "smiles": "O=C(NC1=CC2=NN(N=C2C=C1)C1CCCCC1)C1=CC=C(C=C1)N(=O)=O", 
	 "Tm": 509.15, 
	 "num_atms": 46, 
	 "gaussian": { 
		 "optdone": 1, 
		 "sigma_profile": "yes", 
		 "theory": "DFT", 
		 "functional": "B3LYP", 
		 "basiset": "6-31G**", 
		 "properties": { 
			 "R2extent": 12230.071, 
			 "electric_dipole_moment_norm": 5.20698922411, 
			 "electric_quadrupole_moment_norm": 19.0819962921, 
			 "total_energy": -1234.79520301, 
			 "HOMO_LUMO_gap": 0.1348, 
			 "cosmo_polarized_energy": -17.99, 
			 "cosmo_cavitation_energy": 49.56, 
			 "cosmo_dispersion_energy": -34.01, 
			 "cosmo_repulsion_energy": 2.6, 
			 "cosmo_total_nonelectrostatic_energy": 18.15, 
			 "SMD_solvation_energy": 8.38 
		},
		"coords": [
			{
				"x": 3.1345386026,
				"y": -3.3339303993,
				"z": -1.6993631949,
				"element": "O" 
			},
			{
				"x": 2.4370287216,
				"y": -2.7059465671,
				"z": -0.9117751302,
				"element": "C" 
			},
			{
				"x": 2.9668264833,
				"y": -2.252821616,
				"z": 0.2809052883,
				"element": "N" 
			},
			{
				"x": 2.5555500181,
				"y": -1.1838715833,
				"z": 1.1227685741,
				"element": "C" 
			},
			{
				"x": 2.0007022045,
				"y": -0.0242428502,
				"z": 0.612441425,
				"element": "C" 
			},
			{
				"x": 1.6229944814,
				"y": 0.9665337892,
				"z": 1.5441058592,
				"element": "C" 
			},
			{
				"x": 1.0569516497,
				"y": 2.1804411932,
				"z": 1.3471090501,
				"element": "N" 
			},
			{
				"x": 0.9695272523,
				"y": 2.6720831202,
				"z": 2.5791255851,
				"element": "N" 
			},
			{
				"x": 1.4104684297,
				"y": 1.913692114,
				"z": 3.5760077766,
				"element": "N" 
			},
			{
				"x": 1.8452209331,
				"y": 0.8008029071,
				"z": 2.9407999118,
				"element": "C" 
			},
			{
				"x": 2.4431331208,
				"y": -0.3772189524,
				"z": 3.4422848939,
				"element": "C" 
			},
			{
				"x": 2.7764326661,
				"y": -1.3511161815,
				"z": 2.528841046,
				"element": "C" 
			},
			{
				"x": 0.3313629449,
				"y": 3.9739782924,
				"z": 2.8725443248,
				"element": "C" 
			},
			{
				"x": -1.1993857811,
				"y": 3.8166455115,
				"z": 2.9427672922,
				"element": "C" 
			},
			{
				"x": -1.8666368851,
				"y": 3.5866748189,
				"z": 1.573457548,
				"element": "C" 
			},
			{
				"x": -1.2574793577,
				"y": 4.4706811624,
				"z": 0.4508931195,
				"element": "C" 
			},
			{
				"x": -0.4065989658,
				"y": 5.6140964999,
				"z": 1.0201365437,
				"element": "C" 
			},
			{
				"x": 0.7646049971,
				"y": 5.0703207431,
				"z": 1.8588921522,
				"element": "C" 
			},
			{
				"x": 0.9739361958,
				"y": -2.4943641141,
				"z": -1.1951135149,
				"element": "C" 
			},
			{
				"x": -0.0098113809,
				"y": -2.5260654411,
				"z": -0.195448132,
				"element": "C" 
			},
			{
				"x": -1.3566392582,
				"y": -2.427472775,
				"z": -0.5314783459,
				"element": "C" 
			},
			{
				"x": -1.7022987893,
				"y": -2.2861330992,
				"z": -1.8740435074,
				"element": "C" 
			},
			{
				"x": -0.7471601834,
				"y": -2.2626533466,
				"z": -2.8887415215,
				"element": "C" 
			},
			{
				"x": 0.5938954577,
				"y": -2.3825620104,
				"z": -2.5402314683,
				"element": "C" 
			},
			{
				"x": -3.1263844374,
				"y": -2.1652556163,
				"z": -2.2324095774,
				"element": "N" 
			},
			{
				"x": -3.9487687519,
				"y": -2.1950285207,
				"z": -1.3176659248,
				"element": "O" 
			},
			{
				"x": -3.4053141477,
				"y": -2.0405977489,
				"z": -3.4239552859,
				"element": "O" 
			},
			{
				"x": 3.9144970433,
				"y": -2.589526779,
				"z": 0.4110480803,
				"element": "H" 
			},
			{
				"x": 1.865232844,
				"y": 0.1261256442,
				"z": -0.4517832821,
				"element": "H" 
			},
			{
				"x": 2.6192092595,
				"y": -0.5088169881,
				"z": 4.5043166715,
				"element": "H" 
			},
			{
				"x": 3.2148957332,
				"y": -2.2858941504,
				"z": 2.8658418418,
				"element": "H" 
			},
			{
				"x": 0.7051154875,
				"y": 4.2037722285,
				"z": 3.871707447,
				"element": "H" 
			},
			{
				"x": -1.4490327478,
				"y": 3.0107444868,
				"z": 3.6407369929,
				"element": "H" 
			},
			{
				"x": -1.57988244,
				"y": 4.7423654139,
				"z": 3.3908581747,
				"element": "H" 
			},
			{
				"x": -1.7784269943,
				"y": 2.5321598941,
				"z": 1.2956852886,
				"element": "H" 
			},
			{
				"x": -2.9383001723,
				"y": 3.7878204548,
				"z": 1.6821264758,
				"element": "H" 
			},
			{
				"x": -0.6170680116,
				"y": 3.8520134442,
				"z": -0.1861845563,
				"element": "H" 
			},
			{
				"x": -2.0503092529,
				"y": 4.8721560158,
				"z": -0.1892006952,
				"element": "H" 
			},
			{
				"x": -1.0309265634,
				"y": 6.2795653964,
				"z": 1.6308851252,
				"element": "H" 
			},
			{
				"x": -0.007155409,
				"y": 6.2327319165,
				"z": 0.2088294064,
				"element": "H" 
			},
			{
				"x": 1.2462640784,
				"y": 5.8873717834,
				"z": 2.4062160742,
				"element": "H" 
			},
			{
				"x": 1.5190962411,
				"y": 4.6485441832,
				"z": 1.1896690408,
				"element": "H" 
			},
			{
				"x": 0.2733229966,
				"y": -2.6388565486,
				"z": 0.844697132,
				"element": "H" 
			},
			{
				"x": -2.1360133116,
				"y": -2.4578026926,
				"z": 0.219277067,
				"element": "H" 
			},
			{
				"x": -1.0645699952,
				"y": -2.1617973566,
				"z": -3.9188714522,
				"element": "H" 
			},
			{
				"x": 1.3644549945,
				"y": -2.4018456763,
				"z": -3.3028096198,
				"element": "H" 
			}
		],
		 "valence_orbital": [ 
			{
				"type": "occ",
				"energy": -0.28892,
				"method": "rhf"
			},
			{
				"type": "occ",
				"energy": -0.28297,
				"method": "rhf"
			},
			{
				"type": "occ",
				"energy": -0.26616,
				"method": "rhf"
			},
			{
				"type": "occ",
				"energy": -0.25273,
				"method": "rhf"
			},
			{
				"type": "occ",
				"energy": -0.23229,
				"method": "rhf"
			},
			{
				"type": "unocc",
				"energy": -0.09749,
				"method": "rhf"
			},
			{
				"type": "unocc",
				"energy": -0.06129,
				"method": "rhf"
			},
			{
				"type": "unocc",
				"energy": -0.03116,
				"method": "rhf"
			},
			{
				"type": "unocc",
				"energy": -0.03092,
				"method": "rhf"
			},
			{
				"type": "unocc",
				"energy": 0.0054,
				"method": "rhf"
			}
		],
		"cosmo_sigma_profile": { 
			"-0.025": 0.0,
			"-0.024": 0.0,
			"-0.023": 0.0,
			"-0.022": 0.0,
			"-0.021": 0.0,
			"-0.02": 0.0,
			"-0.019": 0.0,
			"-0.018": 0.0,
			"-0.017": 0.0,
			"-0.016": 0.0,
			"-0.015": 0.466781719463,
			"-0.014": 1.22700765178,
			"-0.013": 0.77460373743,
			"-0.012": 0.86503070349,
			"-0.011": 1.37968692292,
			"-0.01": 1.22767888504,
			"-0.009": 1.22236765791,
			"-0.008": 4.43412286058,
			"-0.007": 13.6766823179,
			"-0.006": 15.7973778678,
			"-0.005": 16.825612042,
			"-0.004": 25.0001641823,
			"-0.003": 29.1123377188,
			"-0.002": 40.5770717756,
			"-0.001": 46.8092254335,
			"0.0": 44.8553051656,
			"0.001": 36.5034266127,
			"0.002": 22.5597402806,
			"0.003": 15.7186408916,
			"0.004": 9.091185177,
			"0.005": 7.1165198558,
			"0.006": 8.34827994022,
			"0.007": 14.0587607264,
			"0.008": 10.2494673576,
			"0.009": 7.39523491494,
			"0.01": 4.71164255655,
			"0.011": 3.22756400651,
			"0.012": 5.41890378688,
			"0.013": 4.34807542389,
			"0.014": 0.444507452128,
			"0.015": 0.0,
			"0.016": 0.0,
			"0.017": 0.0,
			"0.018": 0.0,
			"0.019": 0.0,
			"0.02": 0.0,
			"0.021": 0.0,
			"0.022": 0.0,
			"0.023": 0.0,
			"0.024": 0.0,
			"0.025": 0.0
		}
	}
}
