{
	 "smiles": "CC1=CC(=CC=C1Br)C(N)=O", 
	 "Tm": 452.65, 
	 "num_atms": 19, 
	 "gaussian": { 
		 "optdone": 1, 
		 "sigma_profile": "yes", 
		 "theory": "DFT", 
		 "functional": "B3LYP", 
		 "basiset": "6-31G**", 
		 "properties": { 
			 "R2extent": 3546.3741, 
			 "electric_dipole_moment_norm": 2.79774812483, 
			 "electric_quadrupole_moment_norm": 17.590956329, 
			 "total_energy": -3011.07962852, 
			 "HOMO_LUMO_gap": 0.20069, 
			 "cosmo_polarized_energy": -12.51, 
			 "cosmo_cavitation_energy": 25.32, 
			 "cosmo_dispersion_energy": -19.05, 
			 "cosmo_repulsion_energy": 1.53, 
			 "cosmo_total_nonelectrostatic_energy": 7.8, 
			 "SMD_solvation_energy": 4.09 
		},
		"coords": [
			{
				"x": 3.3204847822,
				"y": -0.2698163166,
				"z": 0.6760713263,
				"element": "C" 
			},
			{
				"x": 1.9207917381,
				"y": -0.013579648,
				"z": 0.1813604254,
				"element": "C" 
			},
			{
				"x": 1.0413959045,
				"y": 0.7925540614,
				"z": 0.9112666522,
				"element": "C" 
			},
			{
				"x": -0.2681208278,
				"y": 1.0463327691,
				"z": 0.4897077028,
				"element": "C" 
			},
			{
				"x": -0.7133861332,
				"y": 0.4968916039,
				"z": -0.7185943689,
				"element": "C" 
			},
			{
				"x": 0.138178508,
				"y": -0.3058139073,
				"z": -1.4738346787,
				"element": "C" 
			},
			{
				"x": 1.4312446885,
				"y": -0.5564047832,
				"z": -1.0177597446,
				"element": "C" 
			},
			{
				"x": 2.5554369395,
				"y": -1.6743479298,
				"z": -2.0916433988,
				"element": "Br" 
			},
			{
				"x": -1.114594589,
				"y": 1.925719156,
				"z": 1.3663856965,
				"element": "C" 
			},
			{
				"x": -2.4700978659,
				"y": 1.8888535046,
				"z": 1.1378093504,
				"element": "N" 
			},
			{
				"x": -0.6242107221,
				"y": 2.6515828817,
				"z": 2.2224538208,
				"element": "O" 
			},
			{
				"x": 3.4960750063,
				"y": 0.2506606829,
				"z": 1.6202190922,
				"element": "H" 
			},
			{
				"x": 3.4969815659,
				"y": -1.3394133284,
				"z": 0.8322959218,
				"element": "H" 
			},
			{
				"x": 4.0660911651,
				"y": 0.0703938917,
				"z": -0.050329226,
				"element": "H" 
			},
			{
				"x": 1.3696462687,
				"y": 1.2484175244,
				"z": 1.8399471161,
				"element": "H" 
			},
			{
				"x": -1.7060966461,
				"y": 0.715600528,
				"z": -1.0999469494,
				"element": "H" 
			},
			{
				"x": -0.1927226084,
				"y": -0.7298993713,
				"z": -2.4148698454,
				"element": "H" 
			},
			{
				"x": -3.0324985169,
				"y": 2.3909129652,
				"z": 1.8099178982,
				"element": "H" 
			},
			{
				"x": -2.8929986575,
				"y": 1.0841557157,
				"z": 0.702343209,
				"element": "H" 
			}
		],
		 "valence_orbital": [ 
			{
				"type": "occ",
				"energy": -0.29113,
				"method": "rhf"
			},
			{
				"type": "occ",
				"energy": -0.27682,
				"method": "rhf"
			},
			{
				"type": "occ",
				"energy": -0.26266,
				"method": "rhf"
			},
			{
				"type": "occ",
				"energy": -0.25466,
				"method": "rhf"
			},
			{
				"type": "occ",
				"energy": -0.24604,
				"method": "rhf"
			},
			{
				"type": "unocc",
				"energy": -0.04535,
				"method": "rhf"
			},
			{
				"type": "unocc",
				"energy": -0.01684,
				"method": "rhf"
			},
			{
				"type": "unocc",
				"energy": 0.00434,
				"method": "rhf"
			},
			{
				"type": "unocc",
				"energy": 0.04919,
				"method": "rhf"
			},
			{
				"type": "unocc",
				"energy": 0.07696,
				"method": "rhf"
			}
		],
		"cosmo_sigma_profile": { 
			"-0.025": 0.0,
			"-0.024": 0.0,
			"-0.023": 0.0,
			"-0.022": 0.0,
			"-0.021": 0.0,
			"-0.02": 0.0,
			"-0.019": 0.0,
			"-0.018": 0.0,
			"-0.017": 0.0,
			"-0.016": 0.0,
			"-0.015": 0.245624533423,
			"-0.014": 1.56486179858,
			"-0.013": 2.64260632945,
			"-0.012": 2.20937723929,
			"-0.011": 2.11524957283,
			"-0.01": 2.71682984155,
			"-0.009": 3.12364200619,
			"-0.008": 2.83136146938,
			"-0.007": 4.3362285345,
			"-0.006": 6.22154366095,
			"-0.005": 8.51890019527,
			"-0.004": 11.4801246175,
			"-0.003": 11.3579444802,
			"-0.002": 13.4711896735,
			"-0.001": 17.3363152176,
			"0.0": 18.931404832,
			"0.001": 16.7256543552,
			"0.002": 19.1479114907,
			"0.003": 20.9214464024,
			"0.004": 12.5220590867,
			"0.005": 4.81359281023,
			"0.006": 2.01521906883,
			"0.007": 2.37084857063,
			"0.008": 2.46733690327,
			"0.009": 1.11837508401,
			"0.01": 1.68108901237,
			"0.011": 1.13245592564,
			"0.012": 2.14557358921,
			"0.013": 4.95453997059,
			"0.014": 3.45910821825,
			"0.015": 0.0907670216991,
			"0.016": 0.0,
			"0.017": 0.0,
			"0.018": 0.0,
			"0.019": 0.0,
			"0.02": 0.0,
			"0.021": 0.0,
			"0.022": 0.0,
			"0.023": 0.0,
			"0.024": 0.0,
			"0.025": 0.0
		}
	}
}
