{
	 "smiles": "CC(Cl)C(=O)NCCC1=CC=CS1", 
	 "Tm": 290.15, 
	 "num_atms": 25, 
	 "gaussian": { 
		 "optdone": 1, 
		 "sigma_profile": "yes", 
		 "theory": "DFT", 
		 "functional": "B3LYP", 
		 "basiset": "6-31G**", 
		 "properties": { 
			 "R2extent": 5580.3314, 
			 "electric_dipole_moment_norm": 0.808033990622, 
			 "electric_quadrupole_moment_norm": 6.08631109951, 
			 "total_energy": -1338.55991008, 
			 "HOMO_LUMO_gap": 0.21465, 
			 "cosmo_polarized_energy": -11.03, 
			 "cosmo_cavitation_energy": 32.12, 
			 "cosmo_dispersion_energy": -23.38, 
			 "cosmo_repulsion_energy": 1.84, 
			 "cosmo_total_nonelectrostatic_energy": 10.58, 
			 "SMD_solvation_energy": 4.85 
		},
		"coords": [
			{
				"x": 2.2062882623,
				"y": -2.8913022375,
				"z": -1.3116907914,
				"element": "C" 
			},
			{
				"x": 2.4005085851,
				"y": -1.8061479786,
				"z": -0.2574394352,
				"element": "C" 
			},
			{
				"x": 2.6148501841,
				"y": -2.5735413957,
				"z": 1.4008225226,
				"element": "Cl" 
			},
			{
				"x": 1.2729045581,
				"y": -0.761673248,
				"z": -0.3268562749,
				"element": "C" 
			},
			{
				"x": 1.1499291253,
				"y": -0.1383383079,
				"z": -1.3773535957,
				"element": "O" 
			},
			{
				"x": 0.4668308481,
				"y": -0.5992760325,
				"z": 0.7475598724,
				"element": "N" 
			},
			{
				"x": -0.6116282022,
				"y": 0.3803353069,
				"z": 0.7426765468,
				"element": "C" 
			},
			{
				"x": -0.1234805057,
				"y": 1.8124130026,
				"z": 1.0599341761,
				"element": "C" 
			},
			{
				"x": -1.2369534922,
				"y": 2.8202692676,
				"z": 1.0502170959,
				"element": "C" 
			},
			{
				"x": -1.6186162407,
				"y": 3.6545749324,
				"z": 0.031718111,
				"element": "C" 
			},
			{
				"x": -2.7617104053,
				"y": 4.4538342562,
				"z": 0.3425407453,
				"element": "C" 
			},
			{
				"x": -3.246397335,
				"y": 4.218821155,
				"z": 1.5983001228,
				"element": "C" 
			},
			{
				"x": -2.3065726588,
				"y": 3.0143446578,
				"z": 2.4228302856,
				"element": "S" 
			},
			{
				"x": 2.0921706139,
				"y": -2.4043468869,
				"z": -2.283423727,
				"element": "H" 
			},
			{
				"x": 3.0680119118,
				"y": -3.5613419403,
				"z": -1.3406014049,
				"element": "H" 
			},
			{
				"x": 1.3085042514,
				"y": -3.4798995772,
				"z": -1.1043674659,
				"element": "H" 
			},
			{
				"x": 3.3344382695,
				"y": -1.2683324786,
				"z": -0.4294068337,
				"element": "H" 
			},
			{
				"x": 0.6775464194,
				"y": -1.1133363526,
				"z": 1.5906656649,
				"element": "H" 
			},
			{
				"x": -1.3634266005,
				"y": 0.0627467352,
				"z": 1.471029855,
				"element": "H" 
			},
			{
				"x": -1.0728311442,
				"y": 0.3711451193,
				"z": -0.2479362611,
				"element": "H" 
			},
			{
				"x": 0.6126797535,
				"y": 2.0932280013,
				"z": 0.3004274965,
				"element": "H" 
			},
			{
				"x": 0.3937419185,
				"y": 1.8102965829,
				"z": 2.0269769949,
				"element": "H" 
			},
			{
				"x": -1.0912193829,
				"y": 3.6962803921,
				"z": -0.9155485718,
				"element": "H" 
			},
			{
				"x": -3.19844539,
				"y": 5.1745515018,
				"z": -0.3396308063,
				"element": "H" 
			},
			{
				"x": -4.0880233434,
				"y": 4.6822955245,
				"z": 2.0938556782,
				"element": "H" 
			}
		],
		 "valence_orbital": [ 
			{
				"type": "occ",
				"energy": -0.30882,
				"method": "rhf"
			},
			{
				"type": "occ",
				"energy": -0.26654,
				"method": "rhf"
			},
			{
				"type": "occ",
				"energy": -0.25838,
				"method": "rhf"
			},
			{
				"type": "occ",
				"energy": -0.24917,
				"method": "rhf"
			},
			{
				"type": "occ",
				"energy": -0.22647,
				"method": "rhf"
			},
			{
				"type": "unocc",
				"energy": -0.01182,
				"method": "rhf"
			},
			{
				"type": "unocc",
				"energy": 0.00797,
				"method": "rhf"
			},
			{
				"type": "unocc",
				"energy": 0.01811,
				"method": "rhf"
			},
			{
				"type": "unocc",
				"energy": 0.02845,
				"method": "rhf"
			},
			{
				"type": "unocc",
				"energy": 0.06809,
				"method": "rhf"
			}
		],
		"cosmo_sigma_profile": { 
			"-0.025": 0.0,
			"-0.024": 0.0,
			"-0.023": 0.0,
			"-0.022": 0.0,
			"-0.021": 0.0,
			"-0.02": 0.0,
			"-0.019": 0.0,
			"-0.018": 0.0,
			"-0.017": 0.0,
			"-0.016": 0.0,
			"-0.015": 0.0,
			"-0.014": 0.0529714647898,
			"-0.013": 0.48923734625,
			"-0.012": 0.579121904357,
			"-0.011": 1.26451476557,
			"-0.01": 0.837578207992,
			"-0.009": 1.07761464467,
			"-0.008": 4.74368816874,
			"-0.007": 5.67491888955,
			"-0.006": 10.9119642148,
			"-0.005": 18.3093383502,
			"-0.004": 21.7756980596,
			"-0.003": 22.4998455946,
			"-0.002": 21.2927850339,
			"-0.001": 22.7186729052,
			"0.0": 17.6143942864,
			"0.001": 14.838205539,
			"0.002": 15.6285457371,
			"0.003": 14.7172256986,
			"0.004": 15.337267505,
			"0.005": 19.458947194,
			"0.006": 13.0261552458,
			"0.007": 1.64840886116,
			"0.008": 1.24832219974,
			"0.009": 1.6206935164,
			"0.01": 1.43754907388,
			"0.011": 0.89579003755,
			"0.012": 2.16361893652,
			"0.013": 4.18840565888,
			"0.014": 2.1784637966,
			"0.015": 0.0,
			"0.016": 0.0,
			"0.017": 0.0,
			"0.018": 0.0,
			"0.019": 0.0,
			"0.02": 0.0,
			"0.021": 0.0,
			"0.022": 0.0,
			"0.023": 0.0,
			"0.024": 0.0,
			"0.025": 0.0
		}
	}
}
