{
	 "smiles": "CN1C(=O)N(C)C2=C1C=CC(Br)=C2", 
	 "Tm": 437.15, 
	 "num_atms": 22, 
	 "gaussian": { 
		 "optdone": 1, 
		 "sigma_profile": "yes", 
		 "theory": "DFT", 
		 "functional": "B3LYP", 
		 "basiset": "6-31G**", 
		 "properties": { 
			 "R2extent": 6049.8698, 
			 "electric_dipole_moment_norm": 0.957655982073, 
			 "electric_quadrupole_moment_norm": 15.957702616, 
			 "total_energy": -3104.55141685, 
			 "HOMO_LUMO_gap": 0.19187, 
			 "cosmo_polarized_energy": -10.18, 
			 "cosmo_cavitation_energy": 28.06, 
			 "cosmo_dispersion_energy": -20.94, 
			 "cosmo_repulsion_energy": 1.64, 
			 "cosmo_total_nonelectrostatic_energy": 8.76, 
			 "SMD_solvation_energy": 4.42 
		},
		"coords": [
			{
				"x": -0.8765890861,
				"y": -0.3892591136,
				"z": 2.0375071933,
				"element": "C" 
			},
			{
				"x": -0.2440094984,
				"y": 0.3325553788,
				"z": 0.9543284729,
				"element": "N" 
			},
			{
				"x": 1.1344314263,
				"y": 0.5538460242,
				"z": 0.897891355,
				"element": "C" 
			},
			{
				"x": 1.9743449465,
				"y": 0.1931013935,
				"z": 1.707433673,
				"element": "O" 
			},
			{
				"x": 1.3525470208,
				"y": 1.2747135146,
				"z": -0.2805857264,
				"element": "N" 
			},
			{
				"x": 2.6688529204,
				"y": 1.7026271507,
				"z": -0.7042611606,
				"element": "C" 
			},
			{
				"x": 0.1491523673,
				"y": 1.494287182,
				"z": -0.9343475039,
				"element": "C" 
			},
			{
				"x": -0.8643050379,
				"y": 0.8970813148,
				"z": -0.1519044109,
				"element": "C" 
			},
			{
				"x": -2.1942331979,
				"y": 0.9471484858,
				"z": -0.5462390926,
				"element": "C" 
			},
			{
				"x": -2.5029284293,
				"y": 1.6078866023,
				"z": -1.7441278885,
				"element": "C" 
			},
			{
				"x": -1.4899651043,
				"y": 2.1918796948,
				"z": -2.5042278555,
				"element": "C" 
			},
			{
				"x": -1.9492514359,
				"y": 3.0853555411,
				"z": -4.1342176754,
				"element": "Br" 
			},
			{
				"x": -0.1433819844,
				"y": 2.1513159415,
				"z": -2.1222824766,
				"element": "C" 
			},
			{
				"x": -1.3903660977,
				"y": -1.2827350236,
				"z": 1.6663435102,
				"element": "H" 
			},
			{
				"x": -0.0882853866,
				"y": -0.6879698477,
				"z": 2.7297915414,
				"element": "H" 
			},
			{
				"x": -1.5986727675,
				"y": 0.2452584707,
				"z": 2.5628741871,
				"element": "H" 
			},
			{
				"x": 3.3779538834,
				"y": 1.357368704,
				"z": 0.0492605766,
				"element": "H" 
			},
			{
				"x": 2.7213261304,
				"y": 2.7942421113,
				"z": -0.7781447253,
				"element": "H" 
			},
			{
				"x": 2.9296587643,
				"y": 1.2660946455,
				"z": -1.6744462363,
				"element": "H" 
			},
			{
				"x": -2.9792463281,
				"y": 0.4915442648,
				"z": 0.0479367989,
				"element": "H" 
			},
			{
				"x": -3.5306168368,
				"y": 1.6659111456,
				"z": -2.0818243496,
				"element": "H" 
			},
			{
				"x": 0.6249837316,
				"y": 2.6126464187,
				"z": -2.7302582067,
				"element": "H" 
			}
		],
		 "valence_orbital": [ 
			{
				"type": "occ",
				"energy": -0.28606,
				"method": "rhf"
			},
			{
				"type": "occ",
				"energy": -0.28021,
				"method": "rhf"
			},
			{
				"type": "occ",
				"energy": -0.2765,
				"method": "rhf"
			},
			{
				"type": "occ",
				"energy": -0.24035,
				"method": "rhf"
			},
			{
				"type": "occ",
				"energy": -0.20848,
				"method": "rhf"
			},
			{
				"type": "unocc",
				"energy": -0.01661,
				"method": "rhf"
			},
			{
				"type": "unocc",
				"energy": -0.00066,
				"method": "rhf"
			},
			{
				"type": "unocc",
				"energy": 0.00692,
				"method": "rhf"
			},
			{
				"type": "unocc",
				"energy": 0.06081,
				"method": "rhf"
			},
			{
				"type": "unocc",
				"energy": 0.09334,
				"method": "rhf"
			}
		],
		"cosmo_sigma_profile": { 
			"-0.025": 0.0,
			"-0.024": 0.0,
			"-0.023": 0.0,
			"-0.022": 0.0,
			"-0.021": 0.0,
			"-0.02": 0.0,
			"-0.019": 0.0,
			"-0.018": 0.0,
			"-0.017": 0.0,
			"-0.016": 0.0,
			"-0.015": 0.0,
			"-0.014": 0.0,
			"-0.013": 0.0,
			"-0.012": 0.0,
			"-0.011": 0.0,
			"-0.01": 0.0,
			"-0.009": 0.0,
			"-0.008": 0.326233626143,
			"-0.007": 4.35485809259,
			"-0.006": 16.0653793959,
			"-0.005": 21.259765061,
			"-0.004": 19.3514489797,
			"-0.003": 21.0570245993,
			"-0.002": 19.4462377959,
			"-0.001": 17.1937845624,
			"0.0": 13.5707757195,
			"0.001": 12.6564190991,
			"0.002": 14.1809662339,
			"0.003": 19.2863706006,
			"0.004": 18.0952284393,
			"0.005": 12.0463487559,
			"0.006": 2.29116569681,
			"0.007": 1.65233701505,
			"0.008": 1.14730109602,
			"0.009": 1.34761263674,
			"0.01": 1.08750365102,
			"0.011": 1.45107752299,
			"0.012": 2.19387700329,
			"0.013": 5.29823118386,
			"0.014": 2.154076062,
			"0.015": 0.0,
			"0.016": 0.0,
			"0.017": 0.0,
			"0.018": 0.0,
			"0.019": 0.0,
			"0.02": 0.0,
			"0.021": 0.0,
			"0.022": 0.0,
			"0.023": 0.0,
			"0.024": 0.0,
			"0.025": 0.0
		}
	}
}
