{
	 "smiles": "CCOC1=C(OC(F)F)C(Cl)=CC(CC#N)=C1", 
	 "Tm": 353.15, 
	 "num_atms": 27, 
	 "gaussian": { 
		 "optdone": 1, 
		 "sigma_profile": "yes", 
		 "theory": "DFT", 
		 "functional": "B3LYP", 
		 "basiset": "6-31G**", 
		 "properties": { 
			 "R2extent": 5150.453, 
			 "electric_dipole_moment_norm": 1.68338688958, 
			 "electric_quadrupole_moment_norm": 20.2063751576, 
			 "total_energy": -1290.23207485, 
			 "HOMO_LUMO_gap": 0.21089, 
			 "cosmo_polarized_energy": -14.52, 
			 "cosmo_cavitation_energy": 35.12, 
			 "cosmo_dispersion_energy": -23.65, 
			 "cosmo_repulsion_energy": 1.84, 
			 "cosmo_total_nonelectrostatic_energy": 13.3, 
			 "SMD_solvation_energy": 8.57 
		},
		"coords": [
			{
				"x": -3.435965143,
				"y": 1.6713949121,
				"z": -1.2252540156,
				"element": "C" 
			},
			{
				"x": -2.7154803985,
				"y": 0.8531613698,
				"z": -0.1696399864,
				"element": "C" 
			},
			{
				"x": -1.3089605825,
				"y": 1.024239448,
				"z": -0.388536358,
				"element": "O" 
			},
			{
				"x": -0.4364299437,
				"y": 0.3713057546,
				"z": 0.4057859196,
				"element": "C" 
			},
			{
				"x": 0.930304969,
				"y": 0.5630199949,
				"z": 0.1050831968,
				"element": "C" 
			},
			{
				"x": 1.2794624303,
				"y": 1.4293111075,
				"z": -0.9119988867,
				"element": "O" 
			},
			{
				"x": 1.5263209883,
				"y": 0.853303189,
				"z": -2.1461646493,
				"element": "C" 
			},
			{
				"x": 1.9451881917,
				"y": 1.8476316901,
				"z": -2.9450512472,
				"element": "F" 
			},
			{
				"x": 0.385846193,
				"y": 0.3352569074,
				"z": -2.6734006047,
				"element": "F" 
			},
			{
				"x": 1.8950967841,
				"y": -0.061337979,
				"z": 0.8966014412,
				"element": "C" 
			},
			{
				"x": 3.5927018586,
				"y": 0.1935500605,
				"z": 0.5477217399,
				"element": "Cl" 
			},
			{
				"x": 1.5374954785,
				"y": -0.8839399311,
				"z": 1.9653055765,
				"element": "C" 
			},
			{
				"x": 0.1865542666,
				"y": -1.0755284585,
				"z": 2.2545239683,
				"element": "C" 
			},
			{
				"x": -0.1748466216,
				"y": -1.9494480588,
				"z": 3.4527790395,
				"element": "C" 
			},
			{
				"x": -1.5837893539,
				"y": -2.3438881533,
				"z": 3.5142429975,
				"element": "C" 
			},
			{
				"x": -2.7041549239,
				"y": -2.6428020534,
				"z": 3.5594093086,
				"element": "N" 
			},
			{
				"x": -0.7956105319,
				"y": -0.449951337,
				"z": 1.4822110602,
				"element": "C" 
			},
			{
				"x": -3.1768207193,
				"y": 2.7297900076,
				"z": -1.1365770788,
				"element": "H" 
			},
			{
				"x": -4.5181796506,
				"y": 1.5655748753,
				"z": -1.1039606938,
				"element": "H" 
			},
			{
				"x": -3.1607259139,
				"y": 1.3313605992,
				"z": -2.2270470309,
				"element": "H" 
			},
			{
				"x": -2.9759345286,
				"y": 1.1928683554,
				"z": 0.8418840955,
				"element": "H" 
			},
			{
				"x": -2.9737350662,
				"y": -0.2111328785,
				"z": -0.2490791216,
				"element": "H" 
			},
			{
				"x": 2.2786112098,
				"y": 0.0579227733,
				"z": -2.1031270158,
				"element": "H" 
			},
			{
				"x": 2.3131453346,
				"y": -1.3580924648,
				"z": 2.5565556639,
				"element": "H" 
			},
			{
				"x": 0.0660885658,
				"y": -1.4230156658,
				"z": 4.3858630622,
				"element": "H" 
			},
			{
				"x": 0.4346781592,
				"y": -2.8606839929,
				"z": 3.4486593232,
				"element": "H" 
			},
			{
				"x": -1.8398610517,
				"y": -0.6110700717,
				"z": 1.7177102958,
				"element": "H" 
			}
		],
		 "valence_orbital": [ 
			{
				"type": "occ",
				"energy": -0.32686,
				"method": "rhf"
			},
			{
				"type": "occ",
				"energy": -0.32375,
				"method": "rhf"
			},
			{
				"type": "occ",
				"energy": -0.321,
				"method": "rhf"
			},
			{
				"type": "occ",
				"energy": -0.26117,
				"method": "rhf"
			},
			{
				"type": "occ",
				"energy": -0.24074,
				"method": "rhf"
			},
			{
				"type": "unocc",
				"energy": -0.02985,
				"method": "rhf"
			},
			{
				"type": "unocc",
				"energy": -0.02201,
				"method": "rhf"
			},
			{
				"type": "unocc",
				"energy": 0.00485,
				"method": "rhf"
			},
			{
				"type": "unocc",
				"energy": 0.02877,
				"method": "rhf"
			},
			{
				"type": "unocc",
				"energy": 0.03068,
				"method": "rhf"
			}
		],
		"cosmo_sigma_profile": { 
			"-0.025": 0.0,
			"-0.024": 0.0,
			"-0.023": 0.0,
			"-0.022": 0.0,
			"-0.021": 0.0,
			"-0.02": 0.0,
			"-0.019": 0.0,
			"-0.018": 0.0,
			"-0.017": 0.0,
			"-0.016": 0.0,
			"-0.015": 0.0,
			"-0.014": 0.0,
			"-0.013": 0.0,
			"-0.012": 0.0,
			"-0.011": 0.0,
			"-0.01": 2.09535008571,
			"-0.009": 9.21106597242,
			"-0.008": 9.242751317,
			"-0.007": 9.74249020389,
			"-0.006": 10.9261166474,
			"-0.005": 15.3930833903,
			"-0.004": 19.1108193821,
			"-0.003": 18.4241416811,
			"-0.002": 16.0008141729,
			"-0.001": 16.5332385137,
			"0.0": 23.2492528375,
			"0.001": 22.7214475443,
			"0.002": 19.068685949,
			"0.003": 24.4479290828,
			"0.004": 24.2790688063,
			"0.005": 8.65821628388,
			"0.006": 6.19779003115,
			"0.007": 5.73216113128,
			"0.008": 5.60574558069,
			"0.009": 5.26052145664,
			"0.01": 4.21257190231,
			"0.011": 2.86290843484,
			"0.012": 2.56458152251,
			"0.013": 1.39653927621,
			"0.014": 0.0,
			"0.015": 0.0,
			"0.016": 0.0,
			"0.017": 0.0,
			"0.018": 0.0,
			"0.019": 0.0,
			"0.02": 0.0,
			"0.021": 0.0,
			"0.022": 0.0,
			"0.023": 0.0,
			"0.024": 0.0,
			"0.025": 0.0
		}
	}
}
