{
	 "smiles": "CCOC(=O)C1=CC=C(O1)C=O", 
	 "Tm": 309.15, 
	 "num_atms": 20, 
	 "gaussian": { 
		 "optdone": 1, 
		 "sigma_profile": "yes", 
		 "theory": "DFT", 
		 "functional": "B3LYP", 
		 "basiset": "6-31G**", 
		 "properties": { 
			 "R2extent": 2896.5797, 
			 "electric_dipole_moment_norm": 2.49474130723, 
			 "electric_quadrupole_moment_norm": 12.687061754, 
			 "total_energy": -610.545368336, 
			 "HOMO_LUMO_gap": 0.17253, 
			 "cosmo_polarized_energy": -10.44, 
			 "cosmo_cavitation_energy": 26.19, 
			 "cosmo_dispersion_energy": -18.73, 
			 "cosmo_repulsion_energy": 1.54, 
			 "cosmo_total_nonelectrostatic_energy": 8.99, 
			 "SMD_solvation_energy": 7.56 
		},
		"coords": [
			{
				"x": 4.2980502644,
				"y": 1.1598128701,
				"z": 1.7581964718,
				"element": "C" 
			},
			{
				"x": 3.6183492142,
				"y": -0.1943677866,
				"z": 1.7121000664,
				"element": "C" 
			},
			{
				"x": 2.3323729517,
				"y": -0.0123805129,
				"z": 1.0686154288,
				"element": "O" 
			},
			{
				"x": 1.5859783893,
				"y": -1.1207557614,
				"z": 0.9413780053,
				"element": "C" 
			},
			{
				"x": 1.9084892086,
				"y": -2.2309270634,
				"z": 1.3188214912,
				"element": "O" 
			},
			{
				"x": 0.2957323306,
				"y": -0.8589383502,
				"z": 0.2796776302,
				"element": "C" 
			},
			{
				"x": -0.7196146811,
				"y": -1.7374830049,
				"z": -0.0208549714,
				"element": "C" 
			},
			{
				"x": -1.7301952196,
				"y": -0.9730687469,
				"z": -0.6526876792,
				"element": "C" 
			},
			{
				"x": -1.2642441395,
				"y": 0.3218790646,
				"z": -0.695763313,
				"element": "C" 
			},
			{
				"x": -0.0247789044,
				"y": 0.396603306,
				"z": -0.1262988305,
				"element": "O" 
			},
			{
				"x": -1.838262903,
				"y": 1.5592068849,
				"z": -1.2177809402,
				"element": "C" 
			},
			{
				"x": -2.9342002204,
				"y": 1.6138380871,
				"z": -1.7458950018,
				"element": "O" 
			},
			{
				"x": 3.7020437797,
				"y": 1.8774873369,
				"z": 2.328757057,
				"element": "H" 
			},
			{
				"x": 4.446429946,
				"y": 1.5575892165,
				"z": 0.7504387854,
				"element": "H" 
			},
			{
				"x": 5.2766119412,
				"y": 1.0650064223,
				"z": 2.238928028,
				"element": "H" 
			},
			{
				"x": 4.1943912674,
				"y": -0.9285662286,
				"z": 1.140227631,
				"element": "H" 
			},
			{
				"x": 3.4534784696,
				"y": -0.6101522085,
				"z": 2.7110253049,
				"element": "H" 
			},
			{
				"x": -0.7128471763,
				"y": -2.7949650221,
				"z": 0.1970039546,
				"element": "H" 
			},
			{
				"x": -2.6836473715,
				"y": -1.3068737999,
				"z": -1.0346601785,
				"element": "H" 
			},
			{
				"x": -1.1909371469,
				"y": 2.4515552973,
				"z": -1.09372894,
				"element": "H" 
			}
		],
		 "valence_orbital": [ 
			{
				"type": "occ",
				"energy": -0.31329,
				"method": "rhf"
			},
			{
				"type": "occ",
				"energy": -0.30627,
				"method": "rhf"
			},
			{
				"type": "occ",
				"energy": -0.29025,
				"method": "rhf"
			},
			{
				"type": "occ",
				"energy": -0.26727,
				"method": "rhf"
			},
			{
				"type": "occ",
				"energy": -0.25721,
				"method": "rhf"
			},
			{
				"type": "unocc",
				"energy": -0.08468,
				"method": "rhf"
			},
			{
				"type": "unocc",
				"energy": -0.02319,
				"method": "rhf"
			},
			{
				"type": "unocc",
				"energy": 0.07362,
				"method": "rhf"
			},
			{
				"type": "unocc",
				"energy": 0.09483,
				"method": "rhf"
			},
			{
				"type": "unocc",
				"energy": 0.09599,
				"method": "rhf"
			}
		],
		"cosmo_sigma_profile": { 
			"-0.025": 0.0,
			"-0.024": 0.0,
			"-0.023": 0.0,
			"-0.022": 0.0,
			"-0.021": 0.0,
			"-0.02": 0.0,
			"-0.019": 0.0,
			"-0.018": 0.0,
			"-0.017": 0.0,
			"-0.016": 0.0,
			"-0.015": 0.0,
			"-0.014": 0.0,
			"-0.013": 0.0,
			"-0.012": 0.0,
			"-0.011": 0.0,
			"-0.01": 0.201257575717,
			"-0.009": 2.51744508938,
			"-0.008": 4.03406189414,
			"-0.007": 6.13853605461,
			"-0.006": 8.20748272724,
			"-0.005": 14.5766821848,
			"-0.004": 22.5734995104,
			"-0.003": 20.3874129916,
			"-0.002": 20.2666268225,
			"-0.001": 19.2299074572,
			"0.0": 18.8672523506,
			"0.001": 13.4110220702,
			"0.002": 6.48043425544,
			"0.003": 5.04500868048,
			"0.004": 4.31932779631,
			"0.005": 4.54586227819,
			"0.006": 4.94551891457,
			"0.007": 4.70713649192,
			"0.008": 5.10715977589,
			"0.009": 4.69884600362,
			"0.01": 5.66113917621,
			"0.011": 9.30705380178,
			"0.012": 3.82866529385,
			"0.013": 0.182753053383,
			"0.014": 0.0,
			"0.015": 0.0,
			"0.016": 0.0,
			"0.017": 0.0,
			"0.018": 0.0,
			"0.019": 0.0,
			"0.02": 0.0,
			"0.021": 0.0,
			"0.022": 0.0,
			"0.023": 0.0,
			"0.024": 0.0,
			"0.025": 0.0
		}
	}
}
