{
	 "smiles": "COCC(=O)C1=CC(=CC=C1)[N+]([O-])=O", 
	 "Tm": 379.15, 
	 "num_atms": 23, 
	 "gaussian": { 
		 "optdone": 1, 
		 "sigma_profile": "yes", 
		 "theory": "DFT", 
		 "functional": "B3LYP", 
		 "basiset": "6-31G**", 
		 "properties": { 
			 "R2extent": 3814.9417, 
			 "electric_dipole_moment_norm": 2.33518210211, 
			 "electric_quadrupole_moment_norm": 22.4732163835, 
			 "total_energy": -703.903273246, 
			 "HOMO_LUMO_gap": 0.15149, 
			 "cosmo_polarized_energy": -13.65, 
			 "cosmo_cavitation_energy": 28.35, 
			 "cosmo_dispersion_energy": -20.51, 
			 "cosmo_repulsion_energy": 1.61, 
			 "cosmo_total_nonelectrostatic_energy": 9.45, 
			 "SMD_solvation_energy": 8.26 
		},
		"coords": [
			{
				"x": 1.6632633964,
				"y": -0.9144480013,
				"z": -3.851150022,
				"element": "C" 
			},
			{
				"x": 0.8622852522,
				"y": 0.244060776,
				"z": -3.6614355949,
				"element": "O" 
			},
			{
				"x": 0.044328382,
				"y": 0.201171545,
				"z": -2.5301941404,
				"element": "C" 
			},
			{
				"x": 0.7921767627,
				"y": 0.4417239317,
				"z": -1.2120456896,
				"element": "C" 
			},
			{
				"x": 2.0021681148,
				"y": 0.5810743874,
				"z": -1.1884666043,
				"element": "O" 
			},
			{
				"x": -0.009088316,
				"y": 0.501944429,
				"z": 0.0601199289,
				"element": "C" 
			},
			{
				"x": -1.3976665621,
				"y": 0.3303413881,
				"z": 0.0890828852,
				"element": "C" 
			},
			{
				"x": -2.0579764849,
				"y": 0.4035872679,
				"z": 1.3124136013,
				"element": "C" 
			},
			{
				"x": -1.3872723864,
				"y": 0.6430967722,
				"z": 2.5096384386,
				"element": "C" 
			},
			{
				"x": -0.0030391075,
				"y": 0.8140337199,
				"z": 2.4731620724,
				"element": "C" 
			},
			{
				"x": 0.6790661413,
				"y": 0.7435204727,
				"z": 1.260850476,
				"element": "C" 
			},
			{
				"x": -3.5205836926,
				"y": 0.2199626449,
				"z": 1.3384783919,
				"element": "N" 
			},
			{
				"x": -4.0831210152,
				"y": 0.2907106904,
				"z": 2.4293627786,
				"element": "O" 
			},
			{
				"x": -4.0862046843,
				"y": 0.0070511673,
				"z": 0.2668709768,
				"element": "O" 
			},
			{
				"x": 2.4091332372,
				"y": -1.0290599633,
				"z": -3.0578791145,
				"element": "H" 
			},
			{
				"x": 2.1742777565,
				"y": -0.7848393048,
				"z": -4.8075298262,
				"element": "H" 
			},
			{
				"x": 1.041595893,
				"y": -1.8221803181,
				"z": -3.9024358406,
				"element": "H" 
			},
			{
				"x": -0.5033900121,
				"y": -0.7561898893,
				"z": -2.4531076801,
				"element": "H" 
			},
			{
				"x": -0.7104266818,
				"y": 0.9892344024,
				"z": -2.6496476381,
				"element": "H" 
			},
			{
				"x": -1.9840275137,
				"y": 0.1412166308,
				"z": -0.8007932919,
				"element": "H" 
			},
			{
				"x": -1.9496927118,
				"y": 0.6908293986,
				"z": 3.4337724539,
				"element": "H" 
			},
			{
				"x": 0.5396696182,
				"y": 1.0020810029,
				"z": 3.3939656492,
				"element": "H" 
			},
			{
				"x": 1.755024614,
				"y": 0.8734768495,
				"z": 1.2113677899,
				"element": "H" 
			}
		],
		 "valence_orbital": [ 
			{
				"type": "occ",
				"energy": -0.30268,
				"method": "rhf"
			},
			{
				"type": "occ",
				"energy": -0.29513,
				"method": "rhf"
			},
			{
				"type": "occ",
				"energy": -0.29378,
				"method": "rhf"
			},
			{
				"type": "occ",
				"energy": -0.28829,
				"method": "rhf"
			},
			{
				"type": "occ",
				"energy": -0.25277,
				"method": "rhf"
			},
			{
				"type": "unocc",
				"energy": -0.10128,
				"method": "rhf"
			},
			{
				"type": "unocc",
				"energy": -0.07893,
				"method": "rhf"
			},
			{
				"type": "unocc",
				"energy": -0.01976,
				"method": "rhf"
			},
			{
				"type": "unocc",
				"energy": 0.02174,
				"method": "rhf"
			},
			{
				"type": "unocc",
				"energy": 0.07142,
				"method": "rhf"
			}
		],
		"cosmo_sigma_profile": { 
			"-0.025": 0.0,
			"-0.024": 0.0,
			"-0.023": 0.0,
			"-0.022": 0.0,
			"-0.021": 0.0,
			"-0.02": 0.0,
			"-0.019": 0.0,
			"-0.018": 0.0,
			"-0.017": 0.0,
			"-0.016": 0.0,
			"-0.015": 0.0,
			"-0.014": 0.0,
			"-0.013": 0.0,
			"-0.012": 0.0,
			"-0.011": 0.0,
			"-0.01": 0.251237160806,
			"-0.009": 2.30304944779,
			"-0.008": 9.17798749883,
			"-0.007": 12.5048083202,
			"-0.006": 12.7857309409,
			"-0.005": 14.0509920556,
			"-0.004": 15.9424500049,
			"-0.003": 18.1268743771,
			"-0.002": 21.681478406,
			"-0.001": 18.5372496628,
			"0.0": 17.4117100551,
			"0.001": 12.1860158505,
			"0.002": 6.13258604011,
			"0.003": 5.50663642688,
			"0.004": 5.29633622667,
			"0.005": 5.14051399756,
			"0.006": 6.53000050517,
			"0.007": 12.3036078983,
			"0.008": 8.28238174546,
			"0.009": 7.14870578363,
			"0.01": 5.74406583778,
			"0.011": 4.75395545627,
			"0.012": 3.30940559521,
			"0.013": 1.29879981356,
			"0.014": 0.0,
			"0.015": 0.0,
			"0.016": 0.0,
			"0.017": 0.0,
			"0.018": 0.0,
			"0.019": 0.0,
			"0.02": 0.0,
			"0.021": 0.0,
			"0.022": 0.0,
			"0.023": 0.0,
			"0.024": 0.0,
			"0.025": 0.0
		}
	}
}
