{
	 "smiles": "CCOC1=CC=C(OCC2CO2)C=C1", 
	 "Tm": 327.15, 
	 "num_atms": 28, 
	 "gaussian": { 
		 "optdone": 1, 
		 "sigma_profile": "yes", 
		 "theory": "DFT", 
		 "functional": "B3LYP", 
		 "basiset": "6-31G**", 
		 "properties": { 
			 "R2extent": 5691.758, 
			 "electric_dipole_moment_norm": 1.38509150961, 
			 "electric_quadrupole_moment_norm": 10.2839912087, 
			 "total_energy": -653.211104722, 
			 "HOMO_LUMO_gap": 0.19531, 
			 "cosmo_polarized_energy": -10.04, 
			 "cosmo_cavitation_energy": 31.58, 
			 "cosmo_dispersion_energy": -23.14, 
			 "cosmo_repulsion_energy": 1.85, 
			 "cosmo_total_nonelectrostatic_energy": 10.3, 
			 "SMD_solvation_energy": 5.93 
		},
		"coords": [
			{
				"x": 3.8929239789,
				"y": -0.5676918268,
				"z": -0.3309296796,
				"element": "C" 
			},
			{
				"x": 2.4274791435,
				"y": -0.7944171763,
				"z": -0.0015840896,
				"element": "C" 
			},
			{
				"x": 1.6749712137,
				"y": 0.2161308243,
				"z": -0.6657078544,
				"element": "O" 
			},
			{
				"x": 0.3140621028,
				"y": 0.2157231806,
				"z": -0.5225281568,
				"element": "C" 
			},
			{
				"x": -0.4125632602,
				"y": -0.7016390862,
				"z": 0.2375510548,
				"element": "C" 
			},
			{
				"x": -1.8101374295,
				"y": -0.6071851006,
				"z": 0.3175927237,
				"element": "C" 
			},
			{
				"x": -2.4884820143,
				"y": 0.4019424043,
				"z": -0.3656564125,
				"element": "C" 
			},
			{
				"x": -3.8506713518,
				"y": 0.5889327082,
				"z": -0.3721978748,
				"element": "O" 
			},
			{
				"x": -4.6879845265,
				"y": -0.3337380953,
				"z": 0.314451625,
				"element": "C" 
			},
			{
				"x": -4.7970385553,
				"y": -0.0183618456,
				"z": 1.792575425,
				"element": "C" 
			},
			{
				"x": -5.9064607747,
				"y": 0.7923398149,
				"z": 2.310004619,
				"element": "C" 
			},
			{
				"x": -5.9071190321,
				"y": -0.6353850066,
				"z": 2.4548396631,
				"element": "O" 
			},
			{
				"x": -1.753582885,
				"y": 1.3239051932,
				"z": -1.1286877033,
				"element": "C" 
			},
			{
				"x": -0.3734007714,
				"y": 1.233065618,
				"z": -1.2051990332,
				"element": "C" 
			},
			{
				"x": 4.0590594415,
				"y": -0.6305037751,
				"z": -1.4099984788,
				"element": "H" 
			},
			{
				"x": 4.5117144645,
				"y": -1.3245487346,
				"z": 0.1609169735,
				"element": "H" 
			},
			{
				"x": 4.2156537826,
				"y": 0.4201008766,
				"z": 0.0097668539,
				"element": "H" 
			},
			{
				"x": 2.1007428447,
				"y": -1.789315748,
				"z": -0.3382880922,
				"element": "H" 
			},
			{
				"x": 2.2579630565,
				"y": -0.7378298557,
				"z": 1.0838270932,
				"element": "H" 
			},
			{
				"x": 0.0851900929,
				"y": -1.4965039369,
				"z": 0.780010721,
				"element": "H" 
			},
			{
				"x": -2.3409847841,
				"y": -1.333070551,
				"z": 0.9226113261,
				"element": "H" 
			},
			{
				"x": -4.3462763053,
				"y": -1.3658955219,
				"z": 0.1626548693,
				"element": "H" 
			},
			{
				"x": -5.6772245215,
				"y": -0.2422925981,
				"z": -0.1428493318,
				"element": "H" 
			},
			{
				"x": -3.8633938198,
				"y": -0.0320915282,
				"z": 2.3567236642,
				"element": "H" 
			},
			{
				"x": -5.7788348269,
				"y": 1.3556457154,
				"z": 3.2338644345,
				"element": "H" 
			},
			{
				"x": -6.6457605861,
				"y": 1.193481561,
				"z": 1.6164805303,
				"element": "H" 
			},
			{
				"x": -2.2915126408,
				"y": 2.1042810865,
				"z": -1.6570702188,
				"element": "H" 
			},
			{
				"x": 0.2004679636,
				"y": 1.9413214037,
				"z": -1.7939746506,
				"element": "H" 
			}
		],
		 "valence_orbital": [ 
			{
				"type": "occ",
				"energy": -0.3063,
				"method": "rhf"
			},
			{
				"type": "occ",
				"energy": -0.29174,
				"method": "rhf"
			},
			{
				"type": "occ",
				"energy": -0.27042,
				"method": "rhf"
			},
			{
				"type": "occ",
				"energy": -0.25023,
				"method": "rhf"
			},
			{
				"type": "occ",
				"energy": -0.19803,
				"method": "rhf"
			},
			{
				"type": "unocc",
				"energy": -0.00272,
				"method": "rhf"
			},
			{
				"type": "unocc",
				"energy": 0.02618,
				"method": "rhf"
			},
			{
				"type": "unocc",
				"energy": 0.07927,
				"method": "rhf"
			},
			{
				"type": "unocc",
				"energy": 0.09539,
				"method": "rhf"
			},
			{
				"type": "unocc",
				"energy": 0.09895,
				"method": "rhf"
			}
		],
		"cosmo_sigma_profile": { 
			"-0.025": 0.0,
			"-0.024": 0.0,
			"-0.023": 0.0,
			"-0.022": 0.0,
			"-0.021": 0.0,
			"-0.02": 0.0,
			"-0.019": 0.0,
			"-0.018": 0.0,
			"-0.017": 0.0,
			"-0.016": 0.0,
			"-0.015": 0.0,
			"-0.014": 0.0,
			"-0.013": 0.0,
			"-0.012": 0.0,
			"-0.011": 0.0,
			"-0.01": 0.0,
			"-0.009": 0.00394506470409,
			"-0.008": 0.840391496215,
			"-0.007": 5.61905856517,
			"-0.006": 16.8797985181,
			"-0.005": 20.4735620432,
			"-0.004": 25.9608836701,
			"-0.003": 27.6969051601,
			"-0.002": 20.0260166293,
			"-0.001": 16.7076546622,
			"0.0": 16.5382178396,
			"0.001": 12.8443692391,
			"0.002": 9.42419505191,
			"0.003": 12.0004938875,
			"0.004": 15.1065976364,
			"0.005": 15.889783552,
			"0.006": 9.44564863597,
			"0.007": 3.7096762628,
			"0.008": 3.91596442222,
			"0.009": 4.50691998814,
			"0.01": 5.5748998778,
			"0.011": 4.0157875098,
			"0.012": 2.12207874606,
			"0.013": 0.234203299645,
			"0.014": 0.0,
			"0.015": 0.0,
			"0.016": 0.0,
			"0.017": 0.0,
			"0.018": 0.0,
			"0.019": 0.0,
			"0.02": 0.0,
			"0.021": 0.0,
			"0.022": 0.0,
			"0.023": 0.0,
			"0.024": 0.0,
			"0.025": 0.0
		}
	}
}
