{
	 "smiles": "COC1=CC(OC)=C(Cl)C=C1NC(=O)C1=C(O)C=C2C=CC=CC2=C1", 
	 "Tm": 473.15, 
	 "num_atms": 41, 
	 "gaussian": { 
		 "optdone": 1, 
		 "sigma_profile": "yes", 
		 "theory": "DFT", 
		 "functional": "B3LYP", 
		 "basiset": "6-31G**", 
		 "properties": { 
			 "R2extent": 11358.141, 
			 "electric_dipole_moment_norm": 5.9432867035, 
			 "electric_quadrupole_moment_norm": 28.2783817576, 
			 "total_energy": -1549.50360094, 
			 "HOMO_LUMO_gap": 0.13946, 
			 "cosmo_polarized_energy": -15.7, 
			 "cosmo_cavitation_energy": 46.75, 
			 "cosmo_dispersion_energy": -32.2, 
			 "cosmo_repulsion_energy": 2.45, 
			 "cosmo_total_nonelectrostatic_energy": 17.0, 
			 "SMD_solvation_energy": 9.55 
		},
		"coords": [
			{
				"x": 0.2144941343,
				"y": -3.0671532849,
				"z": 4.5999626286,
				"element": "C" 
			},
			{
				"x": 0.9735978521,
				"y": -2.6288333525,
				"z": 3.4802066664,
				"element": "O" 
			},
			{
				"x": 0.9737049771,
				"y": -1.2981290437,
				"z": 3.1786583199,
				"element": "C" 
			},
			{
				"x": 0.2508012571,
				"y": -0.3252818751,
				"z": 3.8663924423,
				"element": "C" 
			},
			{
				"x": 0.3359277229,
				"y": 1.0243411314,
				"z": 3.5025690223,
				"element": "C" 
			},
			{
				"x": -0.3573552266,
				"y": 1.9484771102,
				"z": 4.2383453027,
				"element": "O" 
			},
			{
				"x": -1.5952241546,
				"y": 2.380971866,
				"z": 3.663763971,
				"element": "C" 
			},
			{
				"x": 1.1757774668,
				"y": 1.3870720434,
				"z": 2.4434718708,
				"element": "C" 
			},
			{
				"x": 1.3587797636,
				"y": 3.0731252527,
				"z": 2.0013655933,
				"element": "Cl" 
			},
			{
				"x": 1.9138891828,
				"y": 0.4218145218,
				"z": 1.7579471965,
				"element": "C" 
			},
			{
				"x": 1.7992915562,
				"y": -0.9279355398,
				"z": 2.0916602744,
				"element": "C" 
			},
			{
				"x": 2.5383142171,
				"y": -1.9572300766,
				"z": 1.4702066844,
				"element": "N" 
			},
			{
				"x": 3.1399850377,
				"y": -2.0656529197,
				"z": 0.2362010588,
				"element": "C" 
			},
			{
				"x": 4.1098984562,
				"y": -2.8387078607,
				"z": 0.1374164501,
				"element": "O" 
			},
			{
				"x": 2.6207408839,
				"y": -1.3468100645,
				"z": -0.9537770828,
				"element": "C" 
			},
			{
				"x": 3.5020273267,
				"y": -1.1811014302,
				"z": -2.0831282015,
				"element": "C" 
			},
			{
				"x": 4.7597905735,
				"y": -1.6583600827,
				"z": -2.0737295854,
				"element": "O" 
			},
			{
				"x": 3.0526197051,
				"y": -0.5093698945,
				"z": -3.2071893534,
				"element": "C" 
			},
			{
				"x": 1.7250637514,
				"y": -0.0386202582,
				"z": -3.3026935472,
				"element": "C" 
			},
			{
				"x": 1.2363121019,
				"y": 0.6374942544,
				"z": -4.4569063909,
				"element": "C" 
			},
			{
				"x": -0.0722848874,
				"y": 1.0547764728,
				"z": -4.5270686205,
				"element": "C" 
			},
			{
				"x": -0.9688907889,
				"y": 0.8206874584,
				"z": -3.4511304956,
				"element": "C" 
			},
			{
				"x": -0.5304352628,
				"y": 0.171867105,
				"z": -2.321701581,
				"element": "C" 
			},
			{
				"x": 0.8184126502,
				"y": -0.2693636848,
				"z": -2.213060246,
				"element": "C" 
			},
			{
				"x": 1.3037491218,
				"y": -0.9223433184,
				"z": -1.0602194138,
				"element": "C" 
			},
			{
				"x": 0.3745934219,
				"y": -4.143733493,
				"z": 4.6673884547,
				"element": "H" 
			},
			{
				"x": 0.5539904767,
				"y": -2.5884378139,
				"z": 5.5264658133,
				"element": "H" 
			},
			{
				"x": -0.854930262,
				"y": -2.8682307469,
				"z": 4.4594983683,
				"element": "H" 
			},
			{
				"x": -0.3867941289,
				"y": -0.5775655449,
				"z": 4.7042557612,
				"element": "H" 
			},
			{
				"x": -2.2860930717,
				"y": 1.5370052038,
				"z": 3.5402370527,
				"element": "H" 
			},
			{
				"x": -1.4399807666,
				"y": 2.8688004099,
				"z": 2.6955761085,
				"element": "H" 
			},
			{
				"x": -2.0221469531,
				"y": 3.0994044195,
				"z": 4.3656949073,
				"element": "H" 
			},
			{
				"x": 2.5788988836,
				"y": 0.728946489,
				"z": 0.9611746914,
				"element": "H" 
			},
			{
				"x": 2.8623046698,
				"y": -2.6817183599,
				"z": 2.101665608,
				"element": "H" 
			},
			{
				"x": 4.8266804851,
				"y": -2.2540653775,
				"z": -1.2888362737,
				"element": "H" 
			},
			{
				"x": 3.7405628477,
				"y": -0.3816230763,
				"z": -4.0369567147,
				"element": "H" 
			},
			{
				"x": 1.9170552712,
				"y": 0.8161399918,
				"z": -5.284785339,
				"element": "H" 
			},
			{
				"x": -0.4283597289,
				"y": 1.5691355107,
				"z": -5.415320303,
				"element": "H" 
			},
			{
				"x": -1.9985041987,
				"y": 1.1572635004,
				"z": -3.5258176325,
				"element": "H" 
			},
			{
				"x": -1.2073408132,
				"y": -0.0105736477,
				"z": -1.4907209469,
				"element": "H" 
			},
			{
				"x": 0.6163764491,
				"y": -1.0957819944,
				"z": -0.2393825187,
				"element": "H" 
			}
		],
		 "valence_orbital": [ 
			{
				"type": "occ",
				"energy": -0.27365,
				"method": "rhf"
			},
			{
				"type": "occ",
				"energy": -0.25273,
				"method": "rhf"
			},
			{
				"type": "occ",
				"energy": -0.23806,
				"method": "rhf"
			},
			{
				"type": "occ",
				"energy": -0.2191,
				"method": "rhf"
			},
			{
				"type": "occ",
				"energy": -0.20331,
				"method": "rhf"
			},
			{
				"type": "unocc",
				"energy": -0.06385,
				"method": "rhf"
			},
			{
				"type": "unocc",
				"energy": -0.02334,
				"method": "rhf"
			},
			{
				"type": "unocc",
				"energy": -0.01577,
				"method": "rhf"
			},
			{
				"type": "unocc",
				"energy": -0.00525,
				"method": "rhf"
			},
			{
				"type": "unocc",
				"energy": 0.02287,
				"method": "rhf"
			}
		],
		"cosmo_sigma_profile": { 
			"-0.025": 0.0,
			"-0.024": 0.0,
			"-0.023": 0.0,
			"-0.022": 0.0,
			"-0.021": 0.0,
			"-0.02": 0.0,
			"-0.019": 0.0,
			"-0.018": 0.0,
			"-0.017": 0.0,
			"-0.016": 0.0,
			"-0.015": 0.0,
			"-0.014": 0.0,
			"-0.013": 0.163161147654,
			"-0.012": 0.462778032362,
			"-0.011": 0.825256235712,
			"-0.01": 0.530018546367,
			"-0.009": 0.991965361825,
			"-0.008": 1.8573587181,
			"-0.007": 8.22207069109,
			"-0.006": 24.2248847932,
			"-0.005": 27.3165781601,
			"-0.004": 32.7340687538,
			"-0.003": 32.4411231559,
			"-0.002": 27.6869665609,
			"-0.001": 22.4587811454,
			"0.0": 24.5646887373,
			"0.001": 28.683342041,
			"0.002": 32.2069112531,
			"0.003": 30.7297400197,
			"0.004": 28.7213324663,
			"0.005": 17.6956734146,
			"0.006": 4.5649130812,
			"0.007": 5.81245431978,
			"0.008": 5.2462261908,
			"0.009": 3.7359482079,
			"0.01": 5.52604311153,
			"0.011": 5.14489317321,
			"0.012": 3.15120186848,
			"0.013": 0.384966041785,
			"0.014": 0.0,
			"0.015": 0.0,
			"0.016": 0.0,
			"0.017": 0.0,
			"0.018": 0.0,
			"0.019": 0.0,
			"0.02": 0.0,
			"0.021": 0.0,
			"0.022": 0.0,
			"0.023": 0.0,
			"0.024": 0.0,
			"0.025": 0.0
		}
	}
}
