{
	 "smiles": "O=C(CN1CCNCC1)N1CCCC2=C1C=CC=C2", 
	 "Tm": 338.15, 
	 "num_atms": 40, 
	 "gaussian": { 
		 "optdone": 1, 
		 "sigma_profile": "yes", 
		 "theory": "DFT", 
		 "functional": "B3LYP", 
		 "basiset": "6-31G**", 
		 "properties": { 
			 "R2extent": 6564.0, 
			 "electric_dipole_moment_norm": 4.18527093627, 
			 "electric_quadrupole_moment_norm": 9.78575090629, 
			 "total_energy": -823.732154153, 
			 "HOMO_LUMO_gap": 0.20583, 
			 "cosmo_polarized_energy": -13.62, 
			 "cosmo_cavitation_energy": 39.33, 
			 "cosmo_dispersion_energy": -27.94, 
			 "cosmo_repulsion_energy": 2.14, 
			 "cosmo_total_nonelectrostatic_energy": 13.53, 
			 "SMD_solvation_energy": 2.88 
		},
		"coords": [
			{
				"x": 2.1682212648,
				"y": 0.6384889916,
				"z": -0.8348615739,
				"element": "O" 
			},
			{
				"x": 1.1429154436,
				"y": 0.5499622725,
				"z": -0.1693707682,
				"element": "C" 
			},
			{
				"x": 1.2347534156,
				"y": 0.7589547845,
				"z": 1.353995005,
				"element": "C" 
			},
			{
				"x": 0.442577211,
				"y": 1.8769231985,
				"z": 1.8609023035,
				"element": "N" 
			},
			{
				"x": 0.8653372305,
				"y": 3.1629182074,
				"z": 1.2892741907,
				"element": "C" 
			},
			{
				"x": -0.0382311143,
				"y": 4.2849532159,
				"z": 1.7977483036,
				"element": "C" 
			},
			{
				"x": 0.0200214038,
				"y": 4.3217952618,
				"z": 3.2585605819,
				"element": "N" 
			},
			{
				"x": -0.4338207918,
				"y": 3.055958455,
				"z": 3.8302628407,
				"element": "C" 
			},
			{
				"x": 0.469469786,
				"y": 1.9303359289,
				"z": 3.3269971401,
				"element": "C" 
			},
			{
				"x": -0.0932750653,
				"y": 0.256609287,
				"z": -0.7222674778,
				"element": "N" 
			},
			{
				"x": -1.2902223068,
				"y": -0.0014578477,
				"z": 0.0921899271,
				"element": "C" 
			},
			{
				"x": -1.7040787465,
				"y": -1.4652516656,
				"z": -0.0554185978,
				"element": "C" 
			},
			{
				"x": -2.0866246504,
				"y": -1.7335405229,
				"z": -1.5151969575,
				"element": "C" 
			},
			{
				"x": -1.2028493024,
				"y": -0.9994891593,
				"z": -2.5103557109,
				"element": "C" 
			},
			{
				"x": -0.2428959971,
				"y": -0.0440552109,
				"z": -2.115978666,
				"element": "C" 
			},
			{
				"x": 0.5138204079,
				"y": 0.6260545194,
				"z": -3.0930641464,
				"element": "C" 
			},
			{
				"x": 0.3324468925,
				"y": 0.3418009573,
				"z": -4.4421813476,
				"element": "C" 
			},
			{
				"x": -0.6094235363,
				"y": -0.6077195656,
				"z": -4.8437841876,
				"element": "C" 
			},
			{
				"x": -1.365770266,
				"y": -1.2615077903,
				"z": -3.8772185375,
				"element": "C" 
			},
			{
				"x": 2.3129662169,
				"y": 0.8819831923,
				"z": 1.5437679132,
				"element": "H" 
			},
			{
				"x": 0.9138576374,
				"y": -0.1532870222,
				"z": 1.8738360168,
				"element": "H" 
			},
			{
				"x": 0.8025188623,
				"y": 3.1048881439,
				"z": 0.1983257365,
				"element": "H" 
			},
			{
				"x": 1.9136843516,
				"y": 3.3928245507,
				"z": 1.5540509416,
				"element": "H" 
			},
			{
				"x": -1.060234843,
				"y": 4.1130085427,
				"z": 1.4110759743,
				"element": "H" 
			},
			{
				"x": 0.3150530732,
				"y": 5.2429449241,
				"z": 1.4011960606,
				"element": "H" 
			},
			{
				"x": -0.5422368769,
				"y": 5.0896151323,
				"z": 3.6139397682,
				"element": "H" 
			},
			{
				"x": -0.3712534746,
				"y": 3.1120478723,
				"z": 4.9226374591,
				"element": "H" 
			},
			{
				"x": -1.4786110818,
				"y": 2.809673827,
				"z": 3.5617147936,
				"element": "H" 
			},
			{
				"x": 1.4946438425,
				"y": 2.0937258322,
				"z": 3.7087516692,
				"element": "H" 
			},
			{
				"x": 0.1151266437,
				"y": 0.9693597279,
				"z": 3.7187722273,
				"element": "H" 
			},
			{
				"x": -1.0934787802,
				"y": 0.2878495116,
				"z": 1.1199406518,
				"element": "H" 
			},
			{
				"x": -2.0960807487,
				"y": 0.6527207032,
				"z": -0.2667595347,
				"element": "H" 
			},
			{
				"x": -2.543501791,
				"y": -1.6945916096,
				"z": 0.6104184435,
				"element": "H" 
			},
			{
				"x": -0.8640626788,
				"y": -2.1012075963,
				"z": 0.2491039706,
				"element": "H" 
			},
			{
				"x": -2.0666288125,
				"y": -2.8087783796,
				"z": -1.7284751338,
				"element": "H" 
			},
			{
				"x": -3.1262680715,
				"y": -1.4155725366,
				"z": -1.676783753,
				"element": "H" 
			},
			{
				"x": 1.2525629814,
				"y": 1.3508988326,
				"z": -2.784775765,
				"element": "H" 
			},
			{
				"x": 0.9295411007,
				"y": 0.8685827749,
				"z": -5.1809384863,
				"element": "H" 
			},
			{
				"x": -0.7522975149,
				"y": -0.8341906043,
				"z": -5.8963073393,
				"element": "H" 
			},
			{
				"x": -2.1051713147,
				"y": -2.000729137,
				"z": -4.1780239357,
				"element": "H" 
			}
		],
		 "valence_orbital": [ 
			{
				"type": "occ",
				"energy": -0.24566,
				"method": "rhf"
			},
			{
				"type": "occ",
				"energy": -0.23184,
				"method": "rhf"
			},
			{
				"type": "occ",
				"energy": -0.22587,
				"method": "rhf"
			},
			{
				"type": "occ",
				"energy": -0.22273,
				"method": "rhf"
			},
			{
				"type": "occ",
				"energy": -0.21049,
				"method": "rhf"
			},
			{
				"type": "unocc",
				"energy": -0.00466,
				"method": "rhf"
			},
			{
				"type": "unocc",
				"energy": 0.00484,
				"method": "rhf"
			},
			{
				"type": "unocc",
				"energy": 0.03379,
				"method": "rhf"
			},
			{
				"type": "unocc",
				"energy": 0.0804,
				"method": "rhf"
			},
			{
				"type": "unocc",
				"energy": 0.0903,
				"method": "rhf"
			}
		],
		"cosmo_sigma_profile": { 
			"-0.025": 0.0,
			"-0.024": 0.0,
			"-0.023": 0.0,
			"-0.022": 0.0,
			"-0.021": 0.0,
			"-0.02": 0.0,
			"-0.019": 0.0,
			"-0.018": 0.0,
			"-0.017": 0.0,
			"-0.016": 0.0,
			"-0.015": 0.0,
			"-0.014": 0.0,
			"-0.013": 0.0,
			"-0.012": 0.0,
			"-0.011": 0.114053571789,
			"-0.01": 1.14458440257,
			"-0.009": 1.41228482504,
			"-0.008": 0.709603194597,
			"-0.007": 1.56007056495,
			"-0.006": 6.69030747613,
			"-0.005": 13.7597693108,
			"-0.004": 30.5938622059,
			"-0.003": 42.6231779066,
			"-0.002": 45.5126184643,
			"-0.001": 42.7397003979,
			"0.0": 24.3801953259,
			"0.001": 12.5997839445,
			"0.002": 11.1184928174,
			"0.003": 10.3686850313,
			"0.004": 11.3397607062,
			"0.005": 10.897557087,
			"0.006": 11.3001652742,
			"0.007": 5.14501550064,
			"0.008": 3.11761429285,
			"0.009": 2.61504032507,
			"0.01": 2.32613312659,
			"0.011": 2.62368611359,
			"0.012": 2.57124994223,
			"0.013": 4.57071854846,
			"0.014": 2.93381358034,
			"0.015": 0.702436843335,
			"0.016": 0.580028254639,
			"0.017": 0.527644647734,
			"0.018": 0.357574771413,
			"0.019": 0.0,
			"0.02": 0.0,
			"0.021": 0.0,
			"0.022": 0.0,
			"0.023": 0.0,
			"0.024": 0.0,
			"0.025": 0.0
		}
	}
}
