{
	 "smiles": "CN(C)C1=C(C)C=C(C=C1)N=NC1=CC=C(C=C1)[N+]([O-])=O", 
	 "Tm": 399.15, 
	 "num_atms": 37, 
	 "gaussian": { 
		 "optdone": 1, 
		 "sigma_profile": "yes", 
		 "theory": "DFT", 
		 "functional": "B3LYP", 
		 "basiset": "6-31G**", 
		 "properties": { 
			 "R2extent": 12576.8512, 
			 "electric_dipole_moment_norm": 8.88897859712, 
			 "electric_quadrupole_moment_norm": 25.3588149112, 
			 "total_energy": -950.549837348, 
			 "HOMO_LUMO_gap": 0.10941, 
			 "cosmo_polarized_energy": -11.58, 
			 "cosmo_cavitation_energy": 41.69, 
			 "cosmo_dispersion_energy": -29.96, 
			 "cosmo_repulsion_energy": 2.27, 
			 "cosmo_total_nonelectrostatic_energy": 14.0, 
			 "SMD_solvation_energy": 7.8 
		},
		"coords": [
			{
				"x": 0.4040691381,
				"y": 4.9569997436,
				"z": 2.3270602657,
				"element": "C" 
			},
			{
				"x": 1.5095716038,
				"y": 4.4250678362,
				"z": 1.5279055714,
				"element": "N" 
			},
			{
				"x": 2.1924680166,
				"y": 5.4771121945,
				"z": 0.7878664551,
				"element": "C" 
			},
			{
				"x": 1.2979821495,
				"y": 3.1946597319,
				"z": 0.8712763433,
				"element": "C" 
			},
			{
				"x": 1.1101038794,
				"y": 2.0022085261,
				"z": 1.6360081885,
				"element": "C" 
			},
			{
				"x": 1.1948348807,
				"y": 2.0005496638,
				"z": 3.144766376,
				"element": "C" 
			},
			{
				"x": 0.9235131361,
				"y": 0.8005727619,
				"z": 0.9663134323,
				"element": "C" 
			},
			{
				"x": 0.9308107199,
				"y": 0.7232286994,
				"z": -0.4395445619,
				"element": "C" 
			},
			{
				"x": 1.1555838472,
				"y": 1.8894562205,
				"z": -1.1812030596,
				"element": "C" 
			},
			{
				"x": 1.3359492296,
				"y": 3.1039025161,
				"z": -0.5338065876,
				"element": "C" 
			},
			{
				"x": 0.7545285846,
				"y": -0.4542298962,
				"z": -1.1830017827,
				"element": "N" 
			},
			{
				"x": 0.528028694,
				"y": -1.4977014478,
				"z": -0.5031954032,
				"element": "N" 
			},
			{
				"x": 0.3592492883,
				"y": -2.6699482848,
				"z": -1.2789722196,
				"element": "C" 
			},
			{
				"x": 0.1071463896,
				"y": -3.8435132017,
				"z": -0.550813327,
				"element": "C" 
			},
			{
				"x": -0.0762838719,
				"y": -5.0562433015,
				"z": -1.2045052758,
				"element": "C" 
			},
			{
				"x": -0.0043346399,
				"y": -5.0788164708,
				"z": -2.5966975552,
				"element": "C" 
			},
			{
				"x": 0.245268484,
				"y": -3.9245059755,
				"z": -3.3458194386,
				"element": "C" 
			},
			{
				"x": 0.4272316107,
				"y": -2.7194450274,
				"z": -2.6847806808,
				"element": "C" 
			},
			{
				"x": -0.1965676262,
				"y": -6.3542233203,
				"z": -3.2980591269,
				"element": "N" 
			},
			{
				"x": -0.4147706089,
				"y": -7.3561132631,
				"z": -2.6155572611,
				"element": "O" 
			},
			{
				"x": -0.1283498488,
				"y": -6.3473334339,
				"z": -4.5278984432,
				"element": "O" 
			},
			{
				"x": -0.3518170233,
				"y": 5.454206102,
				"z": 1.6963691924,
				"element": "H" 
			},
			{
				"x": 0.788644389,
				"y": 5.6910517777,
				"z": 3.0427350264,
				"element": "H" 
			},
			{
				"x": -0.0937741524,
				"y": 4.1656429338,
				"z": 2.8843402416,
				"element": "H" 
			},
			{
				"x": 1.5551134257,
				"y": 5.9746603829,
				"z": 0.0365298352,
				"element": "H" 
			},
			{
				"x": 2.5239925671,
				"y": 6.2423433233,
				"z": 1.4969189465,
				"element": "H" 
			},
			{
				"x": 3.073526979,
				"y": 5.0720166109,
				"z": 0.285251422,
				"element": "H" 
			},
			{
				"x": 1.5266398533,
				"y": 1.0224250467,
				"z": 3.5028726318,
				"element": "H" 
			},
			{
				"x": 1.9003892545,
				"y": 2.7589897861,
				"z": 3.4958522804,
				"element": "H" 
			},
			{
				"x": 0.2284178476,
				"y": 2.2034128447,
				"z": 3.62300486,
				"element": "H" 
			},
			{
				"x": 0.7992087624,
				"y": -0.1197942402,
				"z": 1.5271316886,
				"element": "H" 
			},
			{
				"x": 1.1700796353,
				"y": 1.821865394,
				"z": -2.2643713571,
				"element": "H" 
			},
			{
				"x": 1.486118864,
				"y": 3.9989185543,
				"z": -1.1259962775,
				"element": "H" 
			},
			{
				"x": 0.0600122652,
				"y": -3.7763377095,
				"z": 0.5308469228,
				"element": "H" 
			},
			{
				"x": -0.2717854633,
				"y": -5.9746956331,
				"z": -0.6658325708,
				"element": "H" 
			},
			{
				"x": 0.291498857,
				"y": -3.9955028441,
				"z": -4.4254174011,
				"element": "H" 
			},
			{
				"x": 0.6228008827,
				"y": -1.8040866003,
				"z": -3.2300773501,
				"element": "H" 
			}
		],
		 "valence_orbital": [ 
			{
				"type": "occ",
				"energy": -0.2731,
				"method": "rhf"
			},
			{
				"type": "occ",
				"energy": -0.25966,
				"method": "rhf"
			},
			{
				"type": "occ",
				"energy": -0.25666,
				"method": "rhf"
			},
			{
				"type": "occ",
				"energy": -0.23331,
				"method": "rhf"
			},
			{
				"type": "occ",
				"energy": -0.21158,
				"method": "rhf"
			},
			{
				"type": "unocc",
				"energy": -0.10217,
				"method": "rhf"
			},
			{
				"type": "unocc",
				"energy": -0.06018,
				"method": "rhf"
			},
			{
				"type": "unocc",
				"energy": -0.02008,
				"method": "rhf"
			},
			{
				"type": "unocc",
				"energy": -0.01088,
				"method": "rhf"
			},
			{
				"type": "unocc",
				"energy": 0.01178,
				"method": "rhf"
			}
		],
		"cosmo_sigma_profile": { 
			"-0.025": 0.0,
			"-0.024": 0.0,
			"-0.023": 0.0,
			"-0.022": 0.0,
			"-0.021": 0.0,
			"-0.02": 0.0,
			"-0.019": 0.0,
			"-0.018": 0.0,
			"-0.017": 0.0,
			"-0.016": 0.0,
			"-0.015": 0.0,
			"-0.014": 0.0,
			"-0.013": 0.0,
			"-0.012": 0.0,
			"-0.011": 0.0,
			"-0.01": 0.0,
			"-0.009": 0.0,
			"-0.008": 1.10848907857,
			"-0.007": 4.78727065193,
			"-0.006": 13.1796568443,
			"-0.005": 20.5103522293,
			"-0.004": 27.8909190517,
			"-0.003": 30.0298132757,
			"-0.002": 32.4624347332,
			"-0.001": 34.8820346565,
			"0.0": 27.7419527451,
			"0.001": 34.5701956883,
			"0.002": 23.798468695,
			"0.003": 21.3383323782,
			"0.004": 15.5653550568,
			"0.005": 8.39825025,
			"0.006": 7.06181078104,
			"0.007": 10.4187537368,
			"0.008": 10.5394818714,
			"0.009": 4.69390364536,
			"0.01": 3.16391300714,
			"0.011": 0.271501505608,
			"0.012": 0.0,
			"0.013": 0.0,
			"0.014": 0.0,
			"0.015": 0.0,
			"0.016": 0.0,
			"0.017": 0.0,
			"0.018": 0.0,
			"0.019": 0.0,
			"0.02": 0.0,
			"0.021": 0.0,
			"0.022": 0.0,
			"0.023": 0.0,
			"0.024": 0.0,
			"0.025": 0.0
		}
	}
}
