{
	 "smiles": "CC1=CC(O)=C(I)C=C1", 
	 "Tm": 336.15, 
	 "num_atms": 16, 
	 "gaussian": { 
		 "optdone": 1, 
		 "sigma_profile": "yes", 
		 "theory": "DFT", 
		 "functional": "B3LYP", 
		 "basiset": "6-31G**", 
		 "properties": { 
			 "R2extent": 1797.8373, 
			 "electric_dipole_moment_norm": 3.36097739058, 
			 "electric_quadrupole_moment_norm": 10.9740043936, 
			 "total_energy": -357.573932652, 
			 "HOMO_LUMO_gap": 0.19237, 
			 "cosmo_polarized_energy": -9.56, 
			 "cosmo_cavitation_energy": 22.83, 
			 "cosmo_dispersion_energy": -18.44, 
			 "cosmo_repulsion_energy": 1.48, 
			 "cosmo_total_nonelectrostatic_energy": 5.87, 
			 "SMD_solvation_energy": 3.52 
		},
		"coords": [
			{
				"x": 0.8460992928,
				"y": 1.895836539,
				"z": -0.9561524433,
				"element": "C" 
			},
			{
				"x": 0.471659959,
				"y": 0.4386113403,
				"z": -1.0871928276,
				"element": "C" 
			},
			{
				"x": 0.5891808997,
				"y": -0.4261218564,
				"z": 0.0045945845,
				"element": "C" 
			},
			{
				"x": 0.2785108835,
				"y": -1.7877347162,
				"z": -0.0985539705,
				"element": "C" 
			},
			{
				"x": 0.389011497,
				"y": -2.636139378,
				"z": 0.9589841812,
				"element": "O" 
			},
			{
				"x": -0.1637173758,
				"y": -2.2934372212,
				"z": -1.3294469634,
				"element": "C" 
			},
			{
				"x": -0.6485406275,
				"y": -4.3409076625,
				"z": -1.5237581219,
				"element": "I" 
			},
			{
				"x": -0.2879164806,
				"y": -1.4397230693,
				"z": -2.4248930748,
				"element": "C" 
			},
			{
				"x": 0.0253004156,
				"y": -0.0859932181,
				"z": -2.3061830615,
				"element": "C" 
			},
			{
				"x": 0.2717194168,
				"y": 2.517562157,
				"z": -1.6489094744,
				"element": "H" 
			},
			{
				"x": 1.9083241439,
				"y": 2.0520254132,
				"z": -1.182137182,
				"element": "H" 
			},
			{
				"x": 0.6711639533,
				"y": 2.2669751683,
				"z": 0.0581259059,
				"element": "H" 
			},
			{
				"x": 0.9292527284,
				"y": -0.0388603263,
				"z": 0.9642660043,
				"element": "H" 
			},
			{
				"x": 0.6995888036,
				"y": -2.1423367643,
				"z": 1.7290091964,
				"element": "H" 
			},
			{
				"x": -0.6347558415,
				"y": -1.8350597849,
				"z": -3.3733751305,
				"element": "H" 
			},
			{
				"x": -0.0808816682,
				"y": 0.5641033793,
				"z": -3.1698776224,
				"element": "H" 
			}
		],
		 "valence_orbital": [ 
			{
				"type": "occ",
				"energy": -0.33625,
				"method": "rhf"
			},
			{
				"type": "occ",
				"energy": -0.28498,
				"method": "rhf"
			},
			{
				"type": "occ",
				"energy": -0.25668,
				"method": "rhf"
			},
			{
				"type": "occ",
				"energy": -0.24272,
				"method": "rhf"
			},
			{
				"type": "occ",
				"energy": -0.22123,
				"method": "rhf"
			},
			{
				"type": "unocc",
				"energy": -0.02886,
				"method": "rhf"
			},
			{
				"type": "unocc",
				"energy": -0.01352,
				"method": "rhf"
			},
			{
				"type": "unocc",
				"energy": 0.00327,
				"method": "rhf"
			},
			{
				"type": "unocc",
				"energy": 0.04319,
				"method": "rhf"
			},
			{
				"type": "unocc",
				"energy": 0.05705,
				"method": "rhf"
			}
		],
		"cosmo_sigma_profile": { 
			"-0.025": 0.0,
			"-0.024": 0.0,
			"-0.023": 0.0,
			"-0.022": 0.0,
			"-0.021": 0.0,
			"-0.02": 0.0,
			"-0.019": 0.00331464587718,
			"-0.018": 0.97287782337,
			"-0.017": 0.922333296178,
			"-0.016": 0.815493780777,
			"-0.015": 1.25283250275,
			"-0.014": 1.41754817085,
			"-0.013": 1.26541390825,
			"-0.012": 0.687224776626,
			"-0.011": 0.519917303171,
			"-0.01": 1.03856572271,
			"-0.009": 1.41502849344,
			"-0.008": 0.747978558264,
			"-0.007": 2.17423245957,
			"-0.006": 5.31727184581,
			"-0.005": 9.561982548,
			"-0.004": 15.2926784026,
			"-0.003": 10.9131574467,
			"-0.002": 12.3430093203,
			"-0.001": 13.8939719423,
			"0.0": 14.3137971644,
			"0.001": 10.4433084507,
			"0.002": 12.7219122916,
			"0.003": 16.7912061229,
			"0.004": 19.5509543258,
			"0.005": 18.3051810862,
			"0.006": 3.94777860264,
			"0.007": 2.03283300896,
			"0.008": 1.9175674578,
			"0.009": 1.79447692524,
			"0.01": 2.2224424652,
			"0.011": 1.93138508925,
			"0.012": 0.0556568256914,
			"0.013": 0.0,
			"0.014": 0.0,
			"0.015": 0.0,
			"0.016": 0.0,
			"0.017": 0.0,
			"0.018": 0.0,
			"0.019": 0.0,
			"0.02": 0.0,
			"0.021": 0.0,
			"0.022": 0.0,
			"0.023": 0.0,
			"0.024": 0.0,
			"0.025": 0.0
		}
	}
}
