{
	 "smiles": "CN(CC(=O)NC1=CC=C(C)C=C1)C(=O)CCl", 
	 "Tm": 419.15, 
	 "num_atms": 32, 
	 "gaussian": { 
		 "optdone": 1, 
		 "sigma_profile": "yes", 
		 "theory": "DFT", 
		 "functional": "B3LYP", 
		 "basiset": "6-31G**", 
		 "properties": { 
			 "R2extent": 7423.0133, 
			 "electric_dipole_moment_norm": 4.8025480008, 
			 "electric_quadrupole_moment_norm": 20.2199311314, 
			 "total_energy": -1186.48565317, 
			 "HOMO_LUMO_gap": 0.20935, 
			 "cosmo_polarized_energy": -19.21, 
			 "cosmo_cavitation_energy": 37.52, 
			 "cosmo_dispersion_energy": -26.08, 
			 "cosmo_repulsion_energy": 2.05, 
			 "cosmo_total_nonelectrostatic_energy": 13.49, 
			 "SMD_solvation_energy": 6.96 
		},
		"coords": [
			{
				"x": -1.6610472019,
				"y": 3.5394302651,
				"z": -1.3128783536,
				"element": "C" 
			},
			{
				"x": -1.4538342705,
				"y": 2.6748534692,
				"z": -0.1545108603,
				"element": "N" 
			},
			{
				"x": -0.5920736713,
				"y": 1.5200065619,
				"z": -0.3457879789,
				"element": "C" 
			},
			{
				"x": 0.8951781935,
				"y": 1.9004326989,
				"z": -0.2601752033,
				"element": "C" 
			},
			{
				"x": 1.2769141347,
				"y": 3.0493253291,
				"z": -0.4300308875,
				"element": "O" 
			},
			{
				"x": 1.7982483955,
				"y": 0.8956650217,
				"z": 0.0093038798,
				"element": "N" 
			},
			{
				"x": 1.582702533,
				"y": -0.4683864394,
				"z": 0.3413185678,
				"element": "C" 
			},
			{
				"x": 0.8308470744,
				"y": -1.317827591,
				"z": -0.4783167029,
				"element": "C" 
			},
			{
				"x": 0.6578761383,
				"y": -2.6570872939,
				"z": -0.1296138142,
				"element": "C" 
			},
			{
				"x": 1.2516066768,
				"y": -3.1958282318,
				"z": 1.0178806696,
				"element": "C" 
			},
			{
				"x": 1.0472961573,
				"y": -4.6425718886,
				"z": 1.3999461195,
				"element": "C" 
			},
			{
				"x": 2.0302114621,
				"y": -2.3417078311,
				"z": 1.8119129345,
				"element": "C" 
			},
			{
				"x": 2.1883924081,
				"y": -0.997002087,
				"z": 1.4891263446,
				"element": "C" 
			},
			{
				"x": -1.7471853061,
				"y": 2.998193716,
				"z": 1.1440577022,
				"element": "C" 
			},
			{
				"x": -1.3798433184,
				"y": 2.3082761537,
				"z": 2.0898626326,
				"element": "O" 
			},
			{
				"x": -2.6336071297,
				"y": 4.2159811059,
				"z": 1.4116888079,
				"element": "C" 
			},
			{
				"x": -1.7457865951,
				"y": 5.7892693507,
				"z": 1.234020512,
				"element": "Cl" 
			},
			{
				"x": -2.4099388928,
				"y": 4.3008527052,
				"z": -1.1034097798,
				"element": "H" 
			},
			{
				"x": -0.7260195919,
				"y": 4.0337124829,
				"z": -1.5906976215,
				"element": "H" 
			},
			{
				"x": -2.0160407349,
				"y": 2.9343691857,
				"z": -2.1548827331,
				"element": "H" 
			},
			{
				"x": -0.7984036097,
				"y": 1.096673476,
				"z": -1.3349707945,
				"element": "H" 
			},
			{
				"x": -0.8342211402,
				"y": 0.7705212663,
				"z": 0.4083684915,
				"element": "H" 
			},
			{
				"x": 2.7308524198,
				"y": 1.2634160306,
				"z": 0.157126698,
				"element": "H" 
			},
			{
				"x": 0.4034735732,
				"y": -0.9399438444,
				"z": -1.4011842966,
				"element": "H" 
			},
			{
				"x": 0.0668351633,
				"y": -3.2995002077,
				"z": -0.7774681482,
				"element": "H" 
			},
			{
				"x": 0.7860537184,
				"y": -5.2530741359,
				"z": 0.530656919,
				"element": "H" 
			},
			{
				"x": 1.9474977778,
				"y": -5.0682074797,
				"z": 1.8541133082,
				"element": "H" 
			},
			{
				"x": 0.2351636892,
				"y": -4.7489106306,
				"z": 2.1300367737,
				"element": "H" 
			},
			{
				"x": 2.5112316894,
				"y": -2.7319907444,
				"z": 2.7052643609,
				"element": "H" 
			},
			{
				"x": 2.7752508362,
				"y": -0.3455880897,
				"z": 2.1306307324,
				"element": "H" 
			},
			{
				"x": -3.5052230839,
				"y": 4.2634685228,
				"z": 0.7569121991,
				"element": "H" 
			},
			{
				"x": -2.9489074947,
				"y": 4.1483791536,
				"z": 2.4501995212,
				"element": "H" 
			}
		],
		 "valence_orbital": [ 
			{
				"type": "occ",
				"energy": -0.26693,
				"method": "rhf"
			},
			{
				"type": "occ",
				"energy": -0.26159,
				"method": "rhf"
			},
			{
				"type": "occ",
				"energy": -0.25322,
				"method": "rhf"
			},
			{
				"type": "occ",
				"energy": -0.24325,
				"method": "rhf"
			},
			{
				"type": "occ",
				"energy": -0.22635,
				"method": "rhf"
			},
			{
				"type": "unocc",
				"energy": -0.017,
				"method": "rhf"
			},
			{
				"type": "unocc",
				"energy": -0.01445,
				"method": "rhf"
			},
			{
				"type": "unocc",
				"energy": -0.01355,
				"method": "rhf"
			},
			{
				"type": "unocc",
				"energy": 0.02744,
				"method": "rhf"
			},
			{
				"type": "unocc",
				"energy": 0.05818,
				"method": "rhf"
			}
		],
		"cosmo_sigma_profile": { 
			"-0.025": 0.0,
			"-0.024": 0.0,
			"-0.023": 0.0,
			"-0.022": 0.0,
			"-0.021": 0.0,
			"-0.02": 0.0,
			"-0.019": 0.0,
			"-0.018": 0.0,
			"-0.017": 0.0,
			"-0.016": 0.0,
			"-0.015": 0.0777422144683,
			"-0.014": 0.808601515298,
			"-0.013": 1.11974750368,
			"-0.012": 1.10572613439,
			"-0.011": 0.414937795508,
			"-0.01": 1.99747423098,
			"-0.009": 6.13318669384,
			"-0.008": 8.88442625204,
			"-0.007": 9.88448127046,
			"-0.006": 12.9789064368,
			"-0.005": 18.3424104308,
			"-0.004": 23.4530456383,
			"-0.003": 23.1398751323,
			"-0.002": 22.5416521555,
			"-0.001": 20.1047111354,
			"0.0": 20.8504605004,
			"0.001": 16.8468904971,
			"0.002": 16.2354610249,
			"0.003": 17.1509357521,
			"0.004": 17.9910533659,
			"0.005": 20.8985285458,
			"0.006": 7.99513971692,
			"0.007": 3.42322447297,
			"0.008": 2.54559785074,
			"0.009": 2.07711608373,
			"0.01": 3.64107606134,
			"0.011": 3.08078333374,
			"0.012": 5.41460521854,
			"0.013": 7.65178310703,
			"0.014": 2.16146983613,
			"0.015": 0.0,
			"0.016": 0.0,
			"0.017": 0.0,
			"0.018": 0.0,
			"0.019": 0.0,
			"0.02": 0.0,
			"0.021": 0.0,
			"0.022": 0.0,
			"0.023": 0.0,
			"0.024": 0.0,
			"0.025": 0.0
		}
	}
}
