{
	 "smiles": "FC1=C(F)C(CCl)=C(F)C(F)=C1CCl", 
	 "Tm": 350.65, 
	 "num_atms": 18, 
	 "gaussian": { 
		 "optdone": 1, 
		 "sigma_profile": "yes", 
		 "theory": "DFT", 
		 "functional": "B3LYP", 
		 "basiset": "6-31G**", 
		 "properties": { 
			 "R2extent": 4390.2685, 
			 "electric_dipole_moment_norm": 3.47733717232, 
			 "electric_quadrupole_moment_norm": 5.5994259295, 
			 "total_energy": -1626.97287098, 
			 "HOMO_LUMO_gap": 0.19406, 
			 "cosmo_polarized_energy": -7.85, 
			 "cosmo_cavitation_energy": 28.37, 
			 "cosmo_dispersion_energy": -19.77, 
			 "cosmo_repulsion_energy": 1.51, 
			 "cosmo_total_nonelectrostatic_energy": 10.11, 
			 "SMD_solvation_energy": 5.92 
		},
		"coords": [
			{
				"x": -1.787591418,
				"y": 1.118212338,
				"z": 0.7549541808,
				"element": "F" 
			},
			{
				"x": -0.4850004946,
				"y": 0.8048435601,
				"z": 0.69341712,
				"element": "C" 
			},
			{
				"x": -0.0871840296,
				"y": -0.2790804153,
				"z": -0.0819291529,
				"element": "C" 
			},
			{
				"x": -1.0172767696,
				"y": -0.9805982023,
				"z": -0.7464010294,
				"element": "F" 
			},
			{
				"x": 1.2553971207,
				"y": -0.6545739051,
				"z": -0.1704143778,
				"element": "C" 
			},
			{
				"x": 1.6837046223,
				"y": -1.8172849505,
				"z": -1.0079910849,
				"element": "C" 
			},
			{
				"x": 2.0737196943,
				"y": -1.3147905802,
				"z": -2.7210860874,
				"element": "Cl" 
			},
			{
				"x": 2.1830811348,
				"y": 0.1036191547,
				"z": 0.5478317893,
				"element": "C" 
			},
			{
				"x": 3.4833420316,
				"y": -0.2218970119,
				"z": 0.5021141505,
				"element": "F" 
			},
			{
				"x": 1.7852678212,
				"y": 1.1875611129,
				"z": 1.3231594115,
				"element": "C" 
			},
			{
				"x": 2.7130601149,
				"y": 1.8769404468,
				"z": 2.0033633965,
				"element": "F" 
			},
			{
				"x": 0.4422894447,
				"y": 1.5609693872,
				"z": 1.4143593325,
				"element": "C" 
			},
			{
				"x": 0.0150943191,
				"y": 2.729569179,
				"z": 2.2442697239,
				"element": "C" 
			},
			{
				"x": 0.0189605377,
				"y": 4.2840203112,
				"z": 1.2835227707,
				"element": "Cl" 
			},
			{
				"x": 0.8906985142,
				"y": -2.5584641687,
				"z": -1.0851847886,
				"element": "H" 
			},
			{
				"x": 2.5906122664,
				"y": -2.2717077224,
				"z": -0.6140623229,
				"element": "H" 
			},
			{
				"x": -1.0031937688,
				"y": 2.6023852095,
				"z": 2.6063143263,
				"element": "H" 
			},
			{
				"x": 0.6967188587,
				"y": 2.8892762572,
				"z": 3.0773626419,
				"element": "H" 
			}
		],
		 "valence_orbital": [ 
			{
				"type": "occ",
				"energy": -0.30982,
				"method": "rhf"
			},
			{
				"type": "occ",
				"energy": -0.30718,
				"method": "rhf"
			},
			{
				"type": "occ",
				"energy": -0.30714,
				"method": "rhf"
			},
			{
				"type": "occ",
				"energy": -0.28015,
				"method": "rhf"
			},
			{
				"type": "occ",
				"energy": -0.26321,
				"method": "rhf"
			},
			{
				"type": "unocc",
				"energy": -0.06915,
				"method": "rhf"
			},
			{
				"type": "unocc",
				"energy": -0.02266,
				"method": "rhf"
			},
			{
				"type": "unocc",
				"energy": 0.00477,
				"method": "rhf"
			},
			{
				"type": "unocc",
				"energy": 0.01787,
				"method": "rhf"
			},
			{
				"type": "unocc",
				"energy": 0.05027,
				"method": "rhf"
			}
		],
		"cosmo_sigma_profile": { 
			"-0.025": 0.0,
			"-0.024": 0.0,
			"-0.023": 0.0,
			"-0.022": 0.0,
			"-0.021": 0.0,
			"-0.02": 0.0,
			"-0.019": 0.0,
			"-0.018": 0.0,
			"-0.017": 0.0,
			"-0.016": 0.0,
			"-0.015": 0.0,
			"-0.014": 0.0,
			"-0.013": 0.0,
			"-0.012": 0.0,
			"-0.011": 0.0,
			"-0.01": 0.0,
			"-0.009": 2.65139915114,
			"-0.008": 7.62368422096,
			"-0.007": 8.50256165904,
			"-0.006": 9.19522762809,
			"-0.005": 9.55230272635,
			"-0.004": 10.5335614775,
			"-0.003": 19.779546306,
			"-0.002": 12.423082484,
			"-0.001": 14.4644154587,
			"0.0": 16.6488675514,
			"0.001": 16.2254785775,
			"0.002": 31.5498349468,
			"0.003": 33.3615010202,
			"0.004": 10.0935054129,
			"0.005": 16.1783286611,
			"0.006": 14.24559634,
			"0.007": 0.0246440493761,
			"0.008": 0.0,
			"0.009": 0.0,
			"0.01": 0.0,
			"0.011": 0.0,
			"0.012": 0.0,
			"0.013": 0.0,
			"0.014": 0.0,
			"0.015": 0.0,
			"0.016": 0.0,
			"0.017": 0.0,
			"0.018": 0.0,
			"0.019": 0.0,
			"0.02": 0.0,
			"0.021": 0.0,
			"0.022": 0.0,
			"0.023": 0.0,
			"0.024": 0.0,
			"0.025": 0.0
		}
	}
}
