{
	 "smiles": "CC1=CC=CC(=C1)C1=CC(C)=CC=C1", 
	 "Tm": 281.15, 
	 "num_atms": 28, 
	 "gaussian": { 
		 "optdone": 1, 
		 "sigma_profile": "yes", 
		 "theory": "DFT", 
		 "functional": "B3LYP", 
		 "basiset": "6-31G**", 
		 "properties": { 
			 "R2extent": 3637.4868, 
			 "electric_dipole_moment_norm": 0.191378525441, 
			 "electric_quadrupole_moment_norm": 7.82858376272, 
			 "total_energy": -541.951530163, 
			 "HOMO_LUMO_gap": 0.19448, 
			 "cosmo_polarized_energy": -5.12, 
			 "cosmo_cavitation_energy": 31.02, 
			 "cosmo_dispersion_energy": -22.49, 
			 "cosmo_repulsion_energy": 1.77, 
			 "cosmo_total_nonelectrostatic_energy": 10.3, 
			 "SMD_solvation_energy": 5.16 
		},
		"coords": [
			{
				"x": 1.6344309931,
				"y": 3.8004701519,
				"z": 2.4829666493,
				"element": "C" 
			},
			{
				"x": 1.334989502,
				"y": 3.0622015423,
				"z": 1.1985181539,
				"element": "C" 
			},
			{
				"x": 1.8001027914,
				"y": 3.5482923383,
				"z": -0.0313516408,
				"element": "C" 
			},
			{
				"x": 1.5508806571,
				"y": 2.8451793043,
				"z": -1.2091996464,
				"element": "C" 
			},
			{
				"x": 0.8327362082,
				"y": 1.6505011613,
				"z": -1.179799807,
				"element": "C" 
			},
			{
				"x": 0.3511673562,
				"y": 1.1403204474,
				"z": 0.0362766486,
				"element": "C" 
			},
			{
				"x": 0.6144493754,
				"y": 1.8639583622,
				"z": 1.2117044568,
				"element": "C" 
			},
			{
				"x": -0.4203555311,
				"y": -0.1290616784,
				"z": 0.0814883746,
				"element": "C" 
			},
			{
				"x": -0.0688353054,
				"y": -1.2127240305,
				"z": -0.7411923214,
				"element": "C" 
			},
			{
				"x": -0.7758389773,
				"y": -2.4189673926,
				"z": -0.7203183148,
				"element": "C" 
			},
			{
				"x": -0.385872437,
				"y": -3.5616680635,
				"z": -1.6294960904,
				"element": "C" 
			},
			{
				"x": -1.8628002246,
				"y": -2.540692195,
				"z": 0.1564991844,
				"element": "C" 
			},
			{
				"x": -2.2278445123,
				"y": -1.4778171537,
				"z": 0.9816975483,
				"element": "C" 
			},
			{
				"x": -1.5156389796,
				"y": -0.2797892177,
				"z": 0.9466841105,
				"element": "C" 
			},
			{
				"x": 0.9631571474,
				"y": 3.4910030243,
				"z": 3.28914387,
				"element": "H" 
			},
			{
				"x": 1.5326056049,
				"y": 4.8830867225,
				"z": 2.3546860783,
				"element": "H" 
			},
			{
				"x": 2.6611956111,
				"y": 3.6109655273,
				"z": 2.8200468325,
				"element": "H" 
			},
			{
				"x": 2.3579560219,
				"y": 4.4810827782,
				"z": -0.0643224299,
				"element": "H" 
			},
			{
				"x": 1.9072938786,
				"y": 3.2362829511,
				"z": -2.1582855975,
				"element": "H" 
			},
			{
				"x": 0.6173552273,
				"y": 1.1253320011,
				"z": -2.1054365515,
				"element": "H" 
			},
			{
				"x": 0.2679640995,
				"y": 1.4680435537,
				"z": 2.1628864914,
				"element": "H" 
			},
			{
				"x": 0.7950081272,
				"y": -1.1195306436,
				"z": -1.394339388,
				"element": "H" 
			},
			{
				"x": -1.0481711759,
				"y": -3.6175668617,
				"z": -2.5025185104,
				"element": "H" 
			},
			{
				"x": 0.6364285476,
				"y": -3.4470573508,
				"z": -2.0010689452,
				"element": "H" 
			},
			{
				"x": -0.4521120361,
				"y": -4.5249859702,
				"z": -1.1133671271,
				"element": "H" 
			},
			{
				"x": -2.4222886284,
				"y": -3.4723614157,
				"z": 0.1929057827,
				"element": "H" 
			},
			{
				"x": -3.0762021696,
				"y": -1.5808273179,
				"z": 1.6528443302,
				"element": "H" 
			},
			{
				"x": -1.8223611717,
				"y": 0.5511294253,
				"z": 1.5747478589,
				"element": "H" 
			}
		],
		 "valence_orbital": [ 
			{
				"type": "occ",
				"energy": -0.32523,
				"method": "rhf"
			},
			{
				"type": "occ",
				"energy": -0.26485,
				"method": "rhf"
			},
			{
				"type": "occ",
				"energy": -0.23956,
				"method": "rhf"
			},
			{
				"type": "occ",
				"energy": -0.23799,
				"method": "rhf"
			},
			{
				"type": "occ",
				"energy": -0.217,
				"method": "rhf"
			},
			{
				"type": "unocc",
				"energy": -0.02252,
				"method": "rhf"
			},
			{
				"type": "unocc",
				"energy": 0.00279,
				"method": "rhf"
			},
			{
				"type": "unocc",
				"energy": 0.00643,
				"method": "rhf"
			},
			{
				"type": "unocc",
				"energy": 0.03194,
				"method": "rhf"
			},
			{
				"type": "unocc",
				"energy": 0.10069,
				"method": "rhf"
			}
		],
		"cosmo_sigma_profile": { 
			"-0.025": 0.0,
			"-0.024": 0.0,
			"-0.023": 0.0,
			"-0.022": 0.0,
			"-0.021": 0.0,
			"-0.02": 0.0,
			"-0.019": 0.0,
			"-0.018": 0.0,
			"-0.017": 0.0,
			"-0.016": 0.0,
			"-0.015": 0.0,
			"-0.014": 0.0,
			"-0.013": 0.0,
			"-0.012": 0.0,
			"-0.011": 0.0,
			"-0.01": 0.0,
			"-0.009": 0.0,
			"-0.008": 0.0,
			"-0.007": 0.0,
			"-0.006": 1.50062432166,
			"-0.005": 13.2485380749,
			"-0.004": 29.9456604354,
			"-0.003": 28.538422561,
			"-0.002": 24.4956739226,
			"-0.001": 23.2609983539,
			"0.0": 26.7667091602,
			"0.001": 18.458525635,
			"0.002": 14.4672931244,
			"0.003": 14.8234100978,
			"0.004": 16.3855443568,
			"0.005": 15.993002666,
			"0.006": 16.1633119504,
			"0.007": 2.37997660904,
			"0.008": 0.0,
			"0.009": 0.0,
			"0.01": 0.0,
			"0.011": 0.0,
			"0.012": 0.0,
			"0.013": 0.0,
			"0.014": 0.0,
			"0.015": 0.0,
			"0.016": 0.0,
			"0.017": 0.0,
			"0.018": 0.0,
			"0.019": 0.0,
			"0.02": 0.0,
			"0.021": 0.0,
			"0.022": 0.0,
			"0.023": 0.0,
			"0.024": 0.0,
			"0.025": 0.0
		}
	}
}
