{
	 "smiles": "COC1=CC=C(CC2=C(N)NN=C2N)C=C1", 
	 "Tm": 426.15, 
	 "num_atms": 30, 
	 "gaussian": { 
		 "optdone": 1, 
		 "sigma_profile": "yes", 
		 "theory": "DFT", 
		 "functional": "B3LYP", 
		 "basiset": "6-31G**", 
		 "properties": { 
			 "R2extent": 4909.7063, 
			 "electric_dipole_moment_norm": 2.75926341258, 
			 "electric_quadrupole_moment_norm": 18.5967627863, 
			 "total_energy": -721.809006693, 
			 "HOMO_LUMO_gap": 0.1893, 
			 "cosmo_polarized_energy": -19.36, 
			 "cosmo_cavitation_energy": 33.82, 
			 "cosmo_dispersion_energy": -24.12, 
			 "cosmo_repulsion_energy": 1.92, 
			 "cosmo_total_nonelectrostatic_energy": 11.61, 
			 "SMD_solvation_energy": 5.05 
		},
		"coords": [
			{
				"x": -3.038685125,
				"y": 0.7654631706,
				"z": 3.9034108295,
				"element": "C" 
			},
			{
				"x": -2.2741765158,
				"y": -0.3496844059,
				"z": 3.4772540991,
				"element": "O" 
			},
			{
				"x": -1.4405200734,
				"y": -0.1883604425,
				"z": 2.4062000953,
				"element": "C" 
			},
			{
				"x": -0.709618524,
				"y": -1.3227554301,
				"z": 2.0250118252,
				"element": "C" 
			},
			{
				"x": 0.162521101,
				"y": -1.2585493078,
				"z": 0.9449435091,
				"element": "C" 
			},
			{
				"x": 0.339078212,
				"y": -0.0726033668,
				"z": 0.2137022775,
				"element": "C" 
			},
			{
				"x": 1.3381023682,
				"y": -0.0161986123,
				"z": -0.9391153342,
				"element": "C" 
			},
			{
				"x": 0.9417382113,
				"y": 0.8483907133,
				"z": -2.0989677285,
				"element": "C" 
			},
			{
				"x": 1.5530899974,
				"y": 1.9926219446,
				"z": -2.5890172267,
				"element": "C" 
			},
			{
				"x": 2.6234166231,
				"y": 2.767485659,
				"z": -2.1168593544,
				"element": "N" 
			},
			{
				"x": 0.8889591012,
				"y": 2.3466547208,
				"z": -3.7207031437,
				"element": "N" 
			},
			{
				"x": -0.1806493429,
				"y": 1.5238544648,
				"z": -3.9868544372,
				"element": "N" 
			},
			{
				"x": -0.1290724917,
				"y": 0.6204043172,
				"z": -3.0175084037,
				"element": "C" 
			},
			{
				"x": -0.9965884514,
				"y": -0.4739893357,
				"z": -2.9896714944,
				"element": "N" 
			},
			{
				"x": -0.403028953,
				"y": 1.0457166937,
				"z": 0.6029287524,
				"element": "C" 
			},
			{
				"x": -1.2853981185,
				"y": 1.0018841646,
				"z": 1.6867272576,
				"element": "C" 
			},
			{
				"x": -3.7219864355,
				"y": 1.1143487329,
				"z": 3.1179572181,
				"element": "H" 
			},
			{
				"x": -3.6228446369,
				"y": 0.4225949544,
				"z": 4.7590243284,
				"element": "H" 
			},
			{
				"x": -2.3992847093,
				"y": 1.6014666099,
				"z": 4.2160976044,
				"element": "H" 
			},
			{
				"x": -0.8474436451,
				"y": -2.2414352595,
				"z": 2.5862014121,
				"element": "H" 
			},
			{
				"x": 0.7195069316,
				"y": -2.1486358341,
				"z": 0.6608985335,
				"element": "H" 
			},
			{
				"x": 2.311329111,
				"y": 0.3233827537,
				"z": -0.5524678512,
				"element": "H" 
			},
			{
				"x": 1.510324794,
				"y": -1.0423422263,
				"z": -1.2911682396,
				"element": "H" 
			},
			{
				"x": 2.9700732241,
				"y": 2.4204979587,
				"z": -1.2303655901,
				"element": "H" 
			},
			{
				"x": 3.3943450331,
				"y": 2.8174282456,
				"z": -2.7763286287,
				"element": "H" 
			},
			{
				"x": 0.9543884557,
				"y": 3.2300150746,
				"z": -4.1992859202,
				"element": "H" 
			},
			{
				"x": -1.3398370873,
				"y": -0.6767409725,
				"z": -2.0574633818,
				"element": "H" 
			},
			{
				"x": -1.7649350226,
				"y": -0.352815176,
				"z": -3.639579727,
				"element": "H" 
			},
			{
				"x": -0.2995024942,
				"y": 1.9711816716,
				"z": 0.043112535,
				"element": "H" 
			},
			{
				"x": -1.842501537,
				"y": 1.8925185196,
				"z": 1.9532861839,
				"element": "H" 
			}
		],
		 "valence_orbital": [ 
			{
				"type": "occ",
				"energy": -0.26741,
				"method": "rhf"
			},
			{
				"type": "occ",
				"energy": -0.24739,
				"method": "rhf"
			},
			{
				"type": "occ",
				"energy": -0.2148,
				"method": "rhf"
			},
			{
				"type": "occ",
				"energy": -0.20181,
				"method": "rhf"
			},
			{
				"type": "occ",
				"energy": -0.18896,
				"method": "rhf"
			},
			{
				"type": "unocc",
				"energy": 0.00034,
				"method": "rhf"
			},
			{
				"type": "unocc",
				"energy": 0.01427,
				"method": "rhf"
			},
			{
				"type": "unocc",
				"energy": 0.04568,
				"method": "rhf"
			},
			{
				"type": "unocc",
				"energy": 0.06771,
				"method": "rhf"
			},
			{
				"type": "unocc",
				"energy": 0.08473,
				"method": "rhf"
			}
		],
		"cosmo_sigma_profile": { 
			"-0.025": 0.0,
			"-0.024": 0.0,
			"-0.023": 0.0,
			"-0.022": 0.0,
			"-0.021": 0.0,
			"-0.02": 0.0,
			"-0.019": 0.0,
			"-0.018": 0.0,
			"-0.017": 0.0,
			"-0.016": 0.0431924666831,
			"-0.015": 0.859529486558,
			"-0.014": 1.17230166111,
			"-0.013": 1.9092687991,
			"-0.012": 2.96983869019,
			"-0.011": 5.32654445058,
			"-0.01": 6.02899651153,
			"-0.009": 5.70588616673,
			"-0.008": 5.59582793074,
			"-0.007": 4.92207810457,
			"-0.006": 8.40596452133,
			"-0.005": 18.8332087473,
			"-0.004": 21.5436681612,
			"-0.003": 22.7210230778,
			"-0.002": 16.7376116627,
			"-0.001": 14.9013186151,
			"0.0": 13.9065030512,
			"0.001": 11.367117393,
			"0.002": 12.0593577046,
			"0.003": 13.1266106618,
			"0.004": 14.3590595318,
			"0.005": 14.4517124353,
			"0.006": 12.5708044262,
			"0.007": 6.31305276835,
			"0.008": 4.85572666096,
			"0.009": 3.99477590619,
			"0.01": 5.34692221944,
			"0.011": 3.80283081994,
			"0.012": 2.95314530218,
			"0.013": 2.07705095972,
			"0.014": 2.15427086842,
			"0.015": 2.80421199491,
			"0.016": 1.68507377634,
			"0.017": 0.945528412857,
			"0.018": 0.427432316696,
			"0.019": 0.0,
			"0.02": 0.0,
			"0.021": 0.0,
			"0.022": 0.0,
			"0.023": 0.0,
			"0.024": 0.0,
			"0.025": 0.0
		}
	}
}
