{
	 "smiles": "CCOC(=O)COC1=CC=C(C=C1)C(C)=O", 
	 "Tm": 326.15, 
	 "num_atms": 30, 
	 "gaussian": { 
		 "optdone": 1, 
		 "sigma_profile": "yes", 
		 "theory": "DFT", 
		 "functional": "B3LYP", 
		 "basiset": "6-31G**", 
		 "properties": { 
			 "R2extent": 6079.1125, 
			 "electric_dipole_moment_norm": 6.2426681355, 
			 "electric_quadrupole_moment_norm": 15.4453712416, 
			 "total_energy": -766.614746921, 
			 "HOMO_LUMO_gap": 0.18629, 
			 "cosmo_polarized_energy": -16.03, 
			 "cosmo_cavitation_energy": 34.77, 
			 "cosmo_dispersion_energy": -24.79, 
			 "cosmo_repulsion_energy": 1.98, 
			 "cosmo_total_nonelectrostatic_energy": 11.96, 
			 "SMD_solvation_energy": 7.97 
		},
		"coords": [
			{
				"x": -1.7519022195,
				"y": -4.5477623149,
				"z": -2.3295713338,
				"element": "C" 
			},
			{
				"x": -1.2394384803,
				"y": -3.1471074348,
				"z": -2.6020702546,
				"element": "C" 
			},
			{
				"x": -0.2929517594,
				"y": -2.8164660729,
				"z": -1.5533726085,
				"element": "O" 
			},
			{
				"x": 0.27715374,
				"y": -1.5985722026,
				"z": -1.6372220757,
				"element": "C" 
			},
			{
				"x": 0.0475826331,
				"y": -0.7805931079,
				"z": -2.4950313488,
				"element": "O" 
			},
			{
				"x": 1.2694278351,
				"y": -1.4263049212,
				"z": -0.4868423179,
				"element": "C" 
			},
			{
				"x": 1.9096455329,
				"y": -0.172403525,
				"z": -0.5002780908,
				"element": "O" 
			},
			{
				"x": 1.2462532592,
				"y": 0.9318590132,
				"z": -0.0468340211,
				"element": "C" 
			},
			{
				"x": -0.074709089,
				"y": 0.9400627446,
				"z": 0.4160317116,
				"element": "C" 
			},
			{
				"x": -0.6295948808,
				"y": 2.131970342,
				"z": 0.8814660372,
				"element": "C" 
			},
			{
				"x": 0.107366018,
				"y": 3.3229155419,
				"z": 0.8942354121,
				"element": "C" 
			},
			{
				"x": 1.4322763183,
				"y": 3.2935496452,
				"z": 0.4194905189,
				"element": "C" 
			},
			{
				"x": 1.9973235462,
				"y": 2.1189238401,
				"z": -0.0444194,
				"element": "C" 
			},
			{
				"x": -0.444271587,
				"y": 4.6206894219,
				"z": 1.383167569,
				"element": "C" 
			},
			{
				"x": -1.8789974726,
				"y": 4.6661736187,
				"z": 1.887627083,
				"element": "C" 
			},
			{
				"x": 0.2410021943,
				"y": 5.6343039058,
				"z": 1.3807821803,
				"element": "O" 
			},
			{
				"x": -2.4716757266,
				"y": -4.834274103,
				"z": -3.1024823844,
				"element": "H" 
			},
			{
				"x": -0.9332587304,
				"y": -5.272970919,
				"z": -2.3365712867,
				"element": "H" 
			},
			{
				"x": -2.2516772561,
				"y": -4.6006167237,
				"z": -1.3581229536,
				"element": "H" 
			},
			{
				"x": -0.7301790083,
				"y": -3.0733757464,
				"z": -3.5677951076,
				"element": "H" 
			},
			{
				"x": -2.0425118793,
				"y": -2.4037843626,
				"z": -2.5945086336,
				"element": "H" 
			},
			{
				"x": 2.0604191083,
				"y": -2.1730468447,
				"z": -0.6036052817,
				"element": "H" 
			},
			{
				"x": 0.7666988944,
				"y": -1.6304133497,
				"z": 0.4669830127,
				"element": "H" 
			},
			{
				"x": -0.6814891528,
				"y": 0.0426928461,
				"z": 0.4058902777,
				"element": "H" 
			},
			{
				"x": -1.6562510684,
				"y": 2.1198890058,
				"z": 1.2331940713,
				"element": "H" 
			},
			{
				"x": 1.9985627244,
				"y": 4.2187644982,
				"z": 0.4296076423,
				"element": "H" 
			},
			{
				"x": 3.0179106874,
				"y": 2.0846002005,
				"z": -0.4108844679,
				"element": "H" 
			},
			{
				"x": -2.0216558991,
				"y": 3.9862358843,
				"z": 2.7348613154,
				"element": "H" 
			},
			{
				"x": -2.5822212872,
				"y": 4.3640946357,
				"z": 1.1036208897,
				"element": "H" 
			},
			{
				"x": -2.1044369949,
				"y": 5.6857664846,
				"z": 2.2013538454,
				"element": "H" 
			}
		],
		 "valence_orbital": [ 
			{
				"type": "occ",
				"energy": -0.31349,
				"method": "rhf"
			},
			{
				"type": "occ",
				"energy": -0.28602,
				"method": "rhf"
			},
			{
				"type": "occ",
				"energy": -0.25854,
				"method": "rhf"
			},
			{
				"type": "occ",
				"energy": -0.23949,
				"method": "rhf"
			},
			{
				"type": "occ",
				"energy": -0.22951,
				"method": "rhf"
			},
			{
				"type": "unocc",
				"energy": -0.04322,
				"method": "rhf"
			},
			{
				"type": "unocc",
				"energy": -0.00916,
				"method": "rhf"
			},
			{
				"type": "unocc",
				"energy": 0.00077,
				"method": "rhf"
			},
			{
				"type": "unocc",
				"energy": 0.05212,
				"method": "rhf"
			},
			{
				"type": "unocc",
				"energy": 0.07965,
				"method": "rhf"
			}
		],
		"cosmo_sigma_profile": { 
			"-0.025": 0.0,
			"-0.024": 0.0,
			"-0.023": 0.0,
			"-0.022": 0.0,
			"-0.021": 0.0,
			"-0.02": 0.0,
			"-0.019": 0.0,
			"-0.018": 0.0,
			"-0.017": 0.0,
			"-0.016": 0.0,
			"-0.015": 0.0,
			"-0.014": 0.0,
			"-0.013": 0.0,
			"-0.012": 0.0,
			"-0.011": 0.0427848382002,
			"-0.01": 0.647198491104,
			"-0.009": 3.38618904173,
			"-0.008": 5.46478743536,
			"-0.007": 6.88918145209,
			"-0.006": 16.9197621771,
			"-0.005": 22.0573042666,
			"-0.004": 27.5436468891,
			"-0.003": 23.4982006767,
			"-0.002": 20.5941953455,
			"-0.001": 22.1376636206,
			"0.0": 19.0398877947,
			"0.001": 11.7636095671,
			"0.002": 15.1571693532,
			"0.003": 17.014623277,
			"0.004": 14.251884576,
			"0.005": 5.08303980508,
			"0.006": 6.71644955922,
			"0.007": 5.38275719396,
			"0.008": 6.23199540227,
			"0.009": 4.33842933428,
			"0.01": 4.71827142626,
			"0.011": 7.4252466852,
			"0.012": 6.12276882008,
			"0.013": 2.47811035402,
			"0.014": 0.534863592446,
			"0.015": 0.0,
			"0.016": 0.0,
			"0.017": 0.0,
			"0.018": 0.0,
			"0.019": 0.0,
			"0.02": 0.0,
			"0.021": 0.0,
			"0.022": 0.0,
			"0.023": 0.0,
			"0.024": 0.0,
			"0.025": 0.0
		}
	}
}
