{
	 "smiles": "CSC1=C(C=CC=N1)C(Cl)=O", 
	 "Tm": 367.15, 
	 "num_atms": 17, 
	 "gaussian": { 
		 "optdone": 1, 
		 "sigma_profile": "yes", 
		 "theory": "DFT", 
		 "functional": "B3LYP", 
		 "basiset": "6-31G**", 
		 "properties": { 
			 "R2extent": 2577.3099, 
			 "electric_dipole_moment_norm": 3.92931476214, 
			 "electric_quadrupole_moment_norm": 8.88928342219, 
			 "total_energy": -1258.70985376, 
			 "HOMO_LUMO_gap": 0.15311, 
			 "cosmo_polarized_energy": -7.61, 
			 "cosmo_cavitation_energy": 24.67, 
			 "cosmo_dispersion_energy": -18.84, 
			 "cosmo_repulsion_energy": 1.47, 
			 "cosmo_total_nonelectrostatic_energy": 7.3, 
			 "SMD_solvation_energy": 4.43 
		},
		"coords": [
			{
				"x": -2.7676524285,
				"y": 0.8478427387,
				"z": 2.1923683602,
				"element": "C" 
			},
			{
				"x": -1.0050352484,
				"y": 1.2986315921,
				"z": 2.0537057546,
				"element": "S" 
			},
			{
				"x": -0.493590688,
				"y": 0.2417815213,
				"z": 0.7166664536,
				"element": "C" 
			},
			{
				"x": 0.8644075061,
				"y": 0.088643633,
				"z": 0.3101506551,
				"element": "C" 
			},
			{
				"x": 1.1360450148,
				"y": -0.8505953552,
				"z": -0.69881238,
				"element": "C" 
			},
			{
				"x": 0.1086054571,
				"y": -1.5620764117,
				"z": -1.301352921,
				"element": "C" 
			},
			{
				"x": -1.1858298778,
				"y": -1.318078048,
				"z": -0.8481511532,
				"element": "C" 
			},
			{
				"x": -1.4737396284,
				"y": -0.4593989069,
				"z": 0.1311325895,
				"element": "N" 
			},
			{
				"x": 2.0838612502,
				"y": 0.7559724077,
				"z": 0.8377794655,
				"element": "C" 
			},
			{
				"x": 1.8781101336,
				"y": 2.4165923474,
				"z": 1.5288579972,
				"element": "Cl" 
			},
			{
				"x": 3.188238483,
				"y": 0.299446178,
				"z": 0.7675967966,
				"element": "O" 
			},
			{
				"x": -2.8866816696,
				"y": -0.2119706639,
				"z": 2.4178535036,
				"element": "H" 
			},
			{
				"x": -3.1423544404,
				"y": 1.4531826593,
				"z": 3.0212756508,
				"element": "H" 
			},
			{
				"x": -3.3056657614,
				"y": 1.0889643619,
				"z": 1.2762967257,
				"element": "H" 
			},
			{
				"x": 2.1690115885,
				"y": -0.9956876418,
				"z": -0.9954175181,
				"element": "H" 
			},
			{
				"x": 0.3015217217,
				"y": -2.2789085708,
				"z": -2.0915522488,
				"element": "H" 
			},
			{
				"x": -2.0367514124,
				"y": -1.8369418412,
				"z": -1.2862977314,
				"element": "H" 
			}
		],
		 "valence_orbital": [ 
			{
				"type": "occ",
				"energy": -0.30992,
				"method": "rhf"
			},
			{
				"type": "occ",
				"energy": -0.30809,
				"method": "rhf"
			},
			{
				"type": "occ",
				"energy": -0.29454,
				"method": "rhf"
			},
			{
				"type": "occ",
				"energy": -0.27508,
				"method": "rhf"
			},
			{
				"type": "occ",
				"energy": -0.23474,
				"method": "rhf"
			},
			{
				"type": "unocc",
				"energy": -0.08163,
				"method": "rhf"
			},
			{
				"type": "unocc",
				"energy": -0.03944,
				"method": "rhf"
			},
			{
				"type": "unocc",
				"energy": 0.00092,
				"method": "rhf"
			},
			{
				"type": "unocc",
				"energy": 0.02323,
				"method": "rhf"
			},
			{
				"type": "unocc",
				"energy": 0.03771,
				"method": "rhf"
			}
		],
		"cosmo_sigma_profile": { 
			"-0.025": 0.0,
			"-0.024": 0.0,
			"-0.023": 0.0,
			"-0.022": 0.0,
			"-0.021": 0.0,
			"-0.02": 0.0,
			"-0.019": 0.0,
			"-0.018": 0.0,
			"-0.017": 0.0,
			"-0.016": 0.0,
			"-0.015": 0.0,
			"-0.014": 0.0,
			"-0.013": 0.0,
			"-0.012": 0.0,
			"-0.011": 0.0,
			"-0.01": 0.0,
			"-0.009": 0.11768170904,
			"-0.008": 3.72603124596,
			"-0.007": 9.36286853531,
			"-0.006": 9.25093746386,
			"-0.005": 12.3223311578,
			"-0.004": 11.8320416915,
			"-0.003": 11.7492721719,
			"-0.002": 17.0715344527,
			"-0.001": 20.6933060815,
			"0.0": 18.8658062463,
			"0.001": 15.5977505524,
			"0.002": 12.3595907497,
			"0.003": 11.3250450109,
			"0.004": 15.3641114618,
			"0.005": 8.63610024716,
			"0.006": 7.61291892967,
			"0.007": 6.40146280103,
			"0.008": 5.216645153,
			"0.009": 3.76871951064,
			"0.01": 0.706947109861,
			"0.011": 0.0,
			"0.012": 0.0,
			"0.013": 0.0,
			"0.014": 0.0,
			"0.015": 0.0,
			"0.016": 0.0,
			"0.017": 0.0,
			"0.018": 0.0,
			"0.019": 0.0,
			"0.02": 0.0,
			"0.021": 0.0,
			"0.022": 0.0,
			"0.023": 0.0,
			"0.024": 0.0,
			"0.025": 0.0
		}
	}
}
