{
	 "smiles": "CC1=CC(N)=C(N)C=C1", 
	 "Tm": 361.95, 
	 "num_atms": 19, 
	 "gaussian": { 
		 "optdone": 1, 
		 "sigma_profile": "yes", 
		 "theory": "DFT", 
		 "functional": "B3LYP", 
		 "basiset": "6-31G**", 
		 "properties": { 
			 "R2extent": 1806.1196, 
			 "electric_dipole_moment_norm": 2.21431763982, 
			 "electric_quadrupole_moment_norm": 10.1617946919, 
			 "total_energy": -382.281900297, 
			 "HOMO_LUMO_gap": 0.19739, 
			 "cosmo_polarized_energy": -10.59, 
			 "cosmo_cavitation_energy": 21.92, 
			 "cosmo_dispersion_energy": -16.49, 
			 "cosmo_repulsion_energy": 1.37, 
			 "cosmo_total_nonelectrostatic_energy": 6.8, 
			 "SMD_solvation_energy": 3.84 
		},
		"coords": [
			{
				"x": 1.5901027935,
				"y": 1.1278524698,
				"z": 1.0628589264,
				"element": "C" 
			},
			{
				"x": 1.1608037265,
				"y": 0.428712085,
				"z": -0.2066817127,
				"element": "C" 
			},
			{
				"x": -0.0341168725,
				"y": -0.3006678846,
				"z": -0.2417335273,
				"element": "C" 
			},
			{
				"x": -0.4594073354,
				"y": -0.970351537,
				"z": -1.3957973219,
				"element": "C" 
			},
			{
				"x": -1.6903008912,
				"y": -1.6149744925,
				"z": -1.4454753019,
				"element": "N" 
			},
			{
				"x": 0.3633489811,
				"y": -0.9396823493,
				"z": -2.5484508333,
				"element": "C" 
			},
			{
				"x": -0.0830179446,
				"y": -1.6443224388,
				"z": -3.7081890396,
				"element": "N" 
			},
			{
				"x": 1.543487592,
				"y": -0.1995795553,
				"z": -2.5155452882,
				"element": "C" 
			},
			{
				"x": 1.9389631244,
				"y": 0.4900411951,
				"z": -1.3661322386,
				"element": "C" 
			},
			{
				"x": 2.4069768307,
				"y": 1.8301365991,
				"z": 0.8732552219,
				"element": "H" 
			},
			{
				"x": 1.9402568814,
				"y": 0.41219443,
				"z": 1.8175704675,
				"element": "H" 
			},
			{
				"x": 0.7634932939,
				"y": 1.6888709885,
				"z": 1.5129109643,
				"element": "H" 
			},
			{
				"x": -0.6728935698,
				"y": -0.3271668102,
				"z": 0.6393028337,
				"element": "H" 
			},
			{
				"x": -2.0407148377,
				"y": -2.0315406746,
				"z": -0.5978814568,
				"element": "H" 
			},
			{
				"x": -1.9012549629,
				"y": -2.1098195941,
				"z": -2.2974120677,
				"element": "H" 
			},
			{
				"x": 0.4797520916,
				"y": -1.4103693364,
				"z": -4.5192014099,
				"element": "H" 
			},
			{
				"x": -0.0246019218,
				"y": -2.6527252416,
				"z": -3.5763475175,
				"element": "H" 
			},
			{
				"x": 2.1710142175,
				"y": -0.1725039306,
				"z": -3.4044730736,
				"element": "H" 
			},
			{
				"x": 2.8631088033,
				"y": 1.0612960771,
				"z": -1.3710776249,
				"element": "H" 
			}
		],
		 "valence_orbital": [ 
			{
				"type": "occ",
				"energy": -0.32967,
				"method": "rhf"
			},
			{
				"type": "occ",
				"energy": -0.29188,
				"method": "rhf"
			},
			{
				"type": "occ",
				"energy": -0.2776,
				"method": "rhf"
			},
			{
				"type": "occ",
				"energy": -0.21274,
				"method": "rhf"
			},
			{
				"type": "occ",
				"energy": -0.17947,
				"method": "rhf"
			},
			{
				"type": "unocc",
				"energy": 0.01792,
				"method": "rhf"
			},
			{
				"type": "unocc",
				"energy": 0.03323,
				"method": "rhf"
			},
			{
				"type": "unocc",
				"energy": 0.07675,
				"method": "rhf"
			},
			{
				"type": "unocc",
				"energy": 0.10888,
				"method": "rhf"
			},
			{
				"type": "unocc",
				"energy": 0.11129,
				"method": "rhf"
			}
		],
		"cosmo_sigma_profile": { 
			"-0.025": 0.0,
			"-0.024": 0.0,
			"-0.023": 0.0,
			"-0.022": 0.0,
			"-0.021": 0.0,
			"-0.02": 0.0,
			"-0.019": 0.0,
			"-0.018": 0.0,
			"-0.017": 0.0,
			"-0.016": 0.0,
			"-0.015": 0.0,
			"-0.014": 0.0,
			"-0.013": 0.0,
			"-0.012": 1.21385347334,
			"-0.011": 3.08985934392,
			"-0.01": 4.72827350571,
			"-0.009": 6.22260837078,
			"-0.008": 5.25216341771,
			"-0.007": 5.02292254517,
			"-0.006": 5.26667050978,
			"-0.005": 5.64470438695,
			"-0.004": 8.97218427521,
			"-0.003": 13.829381434,
			"-0.002": 12.1974725836,
			"-0.001": 13.4249188294,
			"0.0": 12.7151097033,
			"0.001": 12.3868369643,
			"0.002": 6.44260625406,
			"0.003": 6.36802921293,
			"0.004": 6.63010386837,
			"0.005": 7.11108043679,
			"0.006": 7.21679027874,
			"0.007": 8.82350408619,
			"0.008": 8.8752801112,
			"0.009": 2.99750052808,
			"0.01": 1.69747864146,
			"0.011": 1.63431719161,
			"0.012": 1.29571535189,
			"0.013": 1.16691607961,
			"0.014": 0.970546917883,
			"0.015": 0.751832941474,
			"0.016": 0.0743958355238,
			"0.017": 0.0,
			"0.018": 0.0,
			"0.019": 0.0,
			"0.02": 0.0,
			"0.021": 0.0,
			"0.022": 0.0,
			"0.023": 0.0,
			"0.024": 0.0,
			"0.025": 0.0
		}
	}
}
