{
	 "smiles": "BrCCCCCBr", 
	 "Tm": 239.15, 
	 "num_atms": 17, 
	 "gaussian": { 
		 "optdone": 1, 
		 "sigma_profile": "yes", 
		 "theory": "DFT", 
		 "functional": "B3LYP", 
		 "basiset": "6-31G**", 
		 "properties": { 
			 "R2extent": 3181.6829, 
			 "electric_dipole_moment_norm": 2.28914765579, 
			 "electric_quadrupole_moment_norm": 8.74682587171, 
			 "total_energy": -5339.38483133, 
			 "HOMO_LUMO_gap": 0.26114, 
			 "cosmo_polarized_energy": -5.75, 
			 "cosmo_cavitation_energy": 23.14, 
			 "cosmo_dispersion_energy": -17.64, 
			 "cosmo_repulsion_energy": 1.49, 
			 "cosmo_total_nonelectrostatic_energy": 6.99, 
			 "SMD_solvation_energy": 1.38 
		},
		"coords": [
			{
				"x": 0.6500362161,
				"y": 2.5961491959,
				"z": -0.8112597084,
				"element": "Br" 
			},
			{
				"x": -0.8287299858,
				"y": 2.3742835934,
				"z": 0.5079271828,
				"element": "C" 
			},
			{
				"x": -0.5992232428,
				"y": 1.2705260099,
				"z": 1.5340354511,
				"element": "C" 
			},
			{
				"x": -0.8681587178,
				"y": -0.1756169782,
				"z": 1.0813755419,
				"element": "C" 
			},
			{
				"x": 0.1124938085,
				"y": -0.8081060746,
				"z": 0.0803897891,
				"element": "C" 
			},
			{
				"x": 1.5735723696,
				"y": -0.8383656157,
				"z": 0.5035205751,
				"element": "C" 
			},
			{
				"x": 1.8676791056,
				"y": -1.8452729127,
				"z": 2.1965295904,
				"element": "Br" 
			},
			{
				"x": -0.8947248161,
				"y": 3.3534096657,
				"z": 0.9804899227,
				"element": "H" 
			},
			{
				"x": -1.7202709473,
				"y": 2.2041871842,
				"z": -0.0970386195,
				"element": "H" 
			},
			{
				"x": -1.2983328438,
				"y": 1.4882804384,
				"z": 2.3547100019,
				"element": "H" 
			},
			{
				"x": 0.401122278,
				"y": 1.3690726361,
				"z": 1.9690240946,
				"element": "H" 
			},
			{
				"x": -0.8872908707,
				"y": -0.8026314756,
				"z": 1.9795746924,
				"element": "H" 
			},
			{
				"x": -1.8766724722,
				"y": -0.2277804082,
				"z": 0.6502640185,
				"element": "H" 
			},
			{
				"x": 0.0852823078,
				"y": -0.2649908241,
				"z": -0.8726686288,
				"element": "H" 
			},
			{
				"x": -0.2201118914,
				"y": -1.8310796297,
				"z": -0.1291687177,
				"element": "H" 
			},
			{
				"x": 1.9803788877,
				"y": 0.1545071554,
				"z": 0.6877569361,
				"element": "H" 
			},
			{
				"x": 2.1941508146,
				"y": -1.3499719603,
				"z": -0.2310621223,
				"element": "H" 
			}
		],
		 "valence_orbital": [ 
			{
				"type": "occ",
				"energy": -0.33253,
				"method": "rhf"
			},
			{
				"type": "occ",
				"energy": -0.27889,
				"method": "rhf"
			},
			{
				"type": "occ",
				"energy": -0.2754,
				"method": "rhf"
			},
			{
				"type": "occ",
				"energy": -0.2689,
				"method": "rhf"
			},
			{
				"type": "occ",
				"energy": -0.26623,
				"method": "rhf"
			},
			{
				"type": "unocc",
				"energy": -0.00509,
				"method": "rhf"
			},
			{
				"type": "unocc",
				"energy": 0.00742,
				"method": "rhf"
			},
			{
				"type": "unocc",
				"energy": 0.07639,
				"method": "rhf"
			},
			{
				"type": "unocc",
				"energy": 0.10871,
				"method": "rhf"
			},
			{
				"type": "unocc",
				"energy": 0.11312,
				"method": "rhf"
			}
		],
		"cosmo_sigma_profile": { 
			"-0.025": 0.0,
			"-0.024": 0.0,
			"-0.023": 0.0,
			"-0.022": 0.0,
			"-0.021": 0.0,
			"-0.02": 0.0,
			"-0.019": 0.0,
			"-0.018": 0.0,
			"-0.017": 0.0,
			"-0.016": 0.0,
			"-0.015": 0.0,
			"-0.014": 0.0,
			"-0.013": 0.0,
			"-0.012": 0.0,
			"-0.011": 0.0,
			"-0.01": 0.0,
			"-0.009": 0.0,
			"-0.008": 0.0,
			"-0.007": 2.72090573021,
			"-0.006": 7.45518480764,
			"-0.005": 11.8489881569,
			"-0.004": 15.9665512593,
			"-0.003": 20.5982439017,
			"-0.002": 20.1817983114,
			"-0.001": 19.2520667618,
			"0.0": 14.168740972,
			"0.001": 10.5525365759,
			"0.002": 10.1638578842,
			"0.003": 8.78323401731,
			"0.004": 9.6929880689,
			"0.005": 10.6992837231,
			"0.006": 15.6433108594,
			"0.007": 9.2097839029,
			"0.008": 0.0101446861811,
			"0.009": 0.0,
			"0.01": 0.0,
			"0.011": 0.0,
			"0.012": 0.0,
			"0.013": 0.0,
			"0.014": 0.0,
			"0.015": 0.0,
			"0.016": 0.0,
			"0.017": 0.0,
			"0.018": 0.0,
			"0.019": 0.0,
			"0.02": 0.0,
			"0.021": 0.0,
			"0.022": 0.0,
			"0.023": 0.0,
			"0.024": 0.0,
			"0.025": 0.0
		}
	}
}
