{
	 "smiles": "CC1CCC2=CC(=C(CCC(C)=O)C=C2N1C(=O)C1=CC=CC=C1)[N+]([O-])=O", 
	 "Tm": 411.15, 
	 "num_atms": 49, 
	 "gaussian": { 
		 "optdone": 1, 
		 "sigma_profile": "yes", 
		 "theory": "DFT", 
		 "functional": "B3LYP", 
		 "basiset": "6-31G**", 
		 "properties": { 
			 "R2extent": 11121.6665, 
			 "electric_dipole_moment_norm": 7.99484624555, 
			 "electric_quadrupole_moment_norm": 21.489931891, 
			 "total_energy": -1223.81862925, 
			 "HOMO_LUMO_gap": 0.15889, 
			 "cosmo_polarized_energy": -19.36, 
			 "cosmo_cavitation_energy": 50.96, 
			 "cosmo_dispersion_energy": -33.74, 
			 "cosmo_repulsion_energy": 2.55, 
			 "cosmo_total_nonelectrostatic_energy": 19.77, 
			 "SMD_solvation_energy": 10.93 
		},
		"coords": [
			{
				"x": -0.2741648474,
				"y": -1.007227112,
				"z": -3.0991762626,
				"element": "C" 
			},
			{
				"x": -1.3648766437,
				"y": -0.6774257911,
				"z": -2.0731267429,
				"element": "C" 
			},
			{
				"x": -2.1933752898,
				"y": -1.9292614866,
				"z": -1.7143365039,
				"element": "C" 
			},
			{
				"x": -2.7214397018,
				"y": -1.8687300796,
				"z": -0.2759917291,
				"element": "C" 
			},
			{
				"x": -1.5231792659,
				"y": -1.7779619243,
				"z": 0.6283879924,
				"element": "C" 
			},
			{
				"x": -1.3326666229,
				"y": -2.5859495099,
				"z": 1.7370194762,
				"element": "C" 
			},
			{
				"x": -0.1666984383,
				"y": -2.4908273496,
				"z": 2.5041826813,
				"element": "C" 
			},
			{
				"x": 0.8566332369,
				"y": -1.5718937,
				"z": 2.1947122767,
				"element": "C" 
			},
			{
				"x": 2.1241771107,
				"y": -1.3877988778,
				"z": 3.0146776626,
				"element": "C" 
			},
			{
				"x": 2.8532226678,
				"y": -0.0558676921,
				"z": 2.7977402803,
				"element": "C" 
			},
			{
				"x": 3.7457972616,
				"y": -0.0041857256,
				"z": 1.5571624872,
				"element": "C" 
			},
			{
				"x": 4.1092529206,
				"y": 1.3780331465,
				"z": 1.0502159508,
				"element": "C" 
			},
			{
				"x": 4.1464009856,
				"y": -1.0178220451,
				"z": 1.0154399521,
				"element": "O" 
			},
			{
				"x": 0.6487059064,
				"y": -0.7779669394,
				"z": 1.0590037026,
				"element": "C" 
			},
			{
				"x": -0.5104822466,
				"y": -0.8601078252,
				"z": 0.281333172,
				"element": "C" 
			},
			{
				"x": -0.7598350632,
				"y": -0.0356886931,
				"z": -0.8552401763,
				"element": "N" 
			},
			{
				"x": -0.2700961111,
				"y": 1.2685022262,
				"z": -0.927143895,
				"element": "C" 
			},
			{
				"x": 0.5862797946,
				"y": 1.7130914929,
				"z": -0.1685714337,
				"element": "O" 
			},
			{
				"x": -0.8621720309,
				"y": 2.1970945932,
				"z": -1.9576483421,
				"element": "C" 
			},
			{
				"x": -2.2402185885,
				"y": 2.4448284026,
				"z": -2.0342599143,
				"element": "C" 
			},
			{
				"x": -2.7332725028,
				"y": 3.4119904759,
				"z": -2.9104356229,
				"element": "C" 
			},
			{
				"x": -1.8560967933,
				"y": 4.1311004495,
				"z": -3.7249457737,
				"element": "C" 
			},
			{
				"x": -0.4814473682,
				"y": 3.8971700381,
				"z": -3.6440475098,
				"element": "C" 
			},
			{
				"x": 0.0147300685,
				"y": 2.9475300118,
				"z": -2.7521017646,
				"element": "C" 
			},
			{
				"x": -0.0790492079,
				"y": -3.4153465909,
				"z": 3.6416404281,
				"element": "N" 
			},
			{
				"x": 1.0297682661,
				"y": -3.6447949879,
				"z": 4.1300444799,
				"element": "O" 
			},
			{
				"x": -1.1249471301,
				"y": -3.9321624051,
				"z": 4.0424601459,
				"element": "O" 
			},
			{
				"x": 0.4677261922,
				"y": -1.6864949726,
				"z": -2.6670875678,
				"element": "H" 
			},
			{
				"x": 0.2389909409,
				"y": -0.1043573463,
				"z": -3.44162385,
				"element": "H" 
			},
			{
				"x": -0.7170631202,
				"y": -1.4957428752,
				"z": -3.9737749138,
				"element": "H" 
			},
			{
				"x": -2.0408909076,
				"y": 0.0592257571,
				"z": -2.504970614,
				"element": "H" 
			},
			{
				"x": -1.5702702164,
				"y": -2.8255422121,
				"z": -1.8146763769,
				"element": "H" 
			},
			{
				"x": -3.0076214413,
				"y": -2.0246650227,
				"z": -2.4404436844,
				"element": "H" 
			},
			{
				"x": -3.3252009916,
				"y": -2.7491581192,
				"z": -0.0381886467,
				"element": "H" 
			},
			{
				"x": -3.3675557863,
				"y": -0.9881447204,
				"z": -0.151063287,
				"element": "H" 
			},
			{
				"x": -2.0874472174,
				"y": -3.3032108723,
				"z": 2.0355054653,
				"element": "H" 
			},
			{
				"x": 2.8159359589,
				"y": -2.2055363065,
				"z": 2.7863297239,
				"element": "H" 
			},
			{
				"x": 1.8827034809,
				"y": -1.4988045522,
				"z": 4.0730495954,
				"element": "H" 
			},
			{
				"x": 3.5282518205,
				"y": 0.1130625163,
				"z": 3.6497383367,
				"element": "H" 
			},
			{
				"x": 2.1643560365,
				"y": 0.7968709024,
				"z": 2.7964461006,
				"element": "H" 
			},
			{
				"x": 4.901634508,
				"y": 1.3060547029,
				"z": 0.3035806825,
				"element": "H" 
			},
			{
				"x": 4.422584206,
				"y": 2.0318821976,
				"z": 1.8717420741,
				"element": "H" 
			},
			{
				"x": 3.2204036017,
				"y": 1.8357466254,
				"z": 0.5973093495,
				"element": "H" 
			},
			{
				"x": 1.3923228328,
				"y": -0.057483826,
				"z": 0.7710805011,
				"element": "H" 
			},
			{
				"x": -2.9233919715,
				"y": 1.8974634701,
				"z": -1.3907914627,
				"element": "H" 
			},
			{
				"x": -3.8008529473,
				"y": 3.6067687294,
				"z": -2.9532997691,
				"element": "H" 
			},
			{
				"x": -2.2416406797,
				"y": 4.8781403102,
				"z": -4.412553189,
				"element": "H" 
			},
			{
				"x": 0.2049967554,
				"y": 4.4629995748,
				"z": -4.2669552476,
				"element": "H" 
			},
			{
				"x": 1.083678579,
				"y": 2.7850039379,
				"z": -2.6569482375,
				"element": "H" 
			}
		],
		 "valence_orbital": [ 
			{
				"type": "occ",
				"energy": -0.26882,
				"method": "rhf"
			},
			{
				"type": "occ",
				"energy": -0.25908,
				"method": "rhf"
			},
			{
				"type": "occ",
				"energy": -0.25193,
				"method": "rhf"
			},
			{
				"type": "occ",
				"energy": -0.24127,
				"method": "rhf"
			},
			{
				"type": "occ",
				"energy": -0.23606,
				"method": "rhf"
			},
			{
				"type": "unocc",
				"energy": -0.07717,
				"method": "rhf"
			},
			{
				"type": "unocc",
				"energy": -0.04252,
				"method": "rhf"
			},
			{
				"type": "unocc",
				"energy": -0.02098,
				"method": "rhf"
			},
			{
				"type": "unocc",
				"energy": -0.01361,
				"method": "rhf"
			},
			{
				"type": "unocc",
				"energy": -0.00844,
				"method": "rhf"
			}
		],
		"cosmo_sigma_profile": { 
			"-0.025": 0.0,
			"-0.024": 0.0,
			"-0.023": 0.0,
			"-0.022": 0.0,
			"-0.021": 0.0,
			"-0.02": 0.0,
			"-0.019": 0.0,
			"-0.018": 0.0,
			"-0.017": 0.0,
			"-0.016": 0.0,
			"-0.015": 0.0,
			"-0.014": 0.0,
			"-0.013": 0.0,
			"-0.012": 0.0,
			"-0.011": 0.0,
			"-0.01": 0.0,
			"-0.009": 0.0,
			"-0.008": 0.0,
			"-0.007": 3.85478491987,
			"-0.006": 19.8638982556,
			"-0.005": 31.3093362744,
			"-0.004": 45.1502629034,
			"-0.003": 41.7229345416,
			"-0.002": 43.4423799379,
			"-0.001": 42.2338134712,
			"0.0": 30.3213379049,
			"0.001": 22.5858378504,
			"0.002": 21.5394276633,
			"0.003": 16.9386735101,
			"0.004": 17.1283400487,
			"0.005": 11.8365677858,
			"0.006": 6.34128849967,
			"0.007": 8.62785215003,
			"0.008": 11.4909386619,
			"0.009": 8.26508718112,
			"0.01": 7.70384219572,
			"0.011": 5.19403629723,
			"0.012": 5.40960135518,
			"0.013": 2.39218125223,
			"0.014": 0.131164191874,
			"0.015": 0.0,
			"0.016": 0.0,
			"0.017": 0.0,
			"0.018": 0.0,
			"0.019": 0.0,
			"0.02": 0.0,
			"0.021": 0.0,
			"0.022": 0.0,
			"0.023": 0.0,
			"0.024": 0.0,
			"0.025": 0.0
		}
	}
}
