{
	 "smiles": "CC1=C2OC(=O)C=C(CCl)C2=CC=C1O", 
	 "Tm": 542.15, 
	 "num_atms": 24, 
	 "gaussian": { 
		 "optdone": 1, 
		 "sigma_profile": "yes", 
		 "theory": "DFT", 
		 "functional": "B3LYP", 
		 "basiset": "6-31G**", 
		 "properties": { 
			 "R2extent": 4963.6046, 
			 "electric_dipole_moment_norm": 3.42746243305, 
			 "electric_quadrupole_moment_norm": 18.8454558677, 
			 "total_energy": -1110.47044681, 
			 "HOMO_LUMO_gap": 0.15421, 
			 "cosmo_polarized_energy": -15.82, 
			 "cosmo_cavitation_energy": 29.65, 
			 "cosmo_dispersion_energy": -21.91, 
			 "cosmo_repulsion_energy": 1.7, 
			 "cosmo_total_nonelectrostatic_energy": 9.44, 
			 "SMD_solvation_energy": 6.09 
		},
		"coords": [
			{
				"x": -0.4185455711,
				"y": 1.6928591134,
				"z": 0.3440633868,
				"element": "C" 
			},
			{
				"x": -0.6433229847,
				"y": 0.2005597953,
				"z": 0.3689317077,
				"element": "C" 
			},
			{
				"x": 0.377734274,
				"y": -0.7096497211,
				"z": 0.0599917659,
				"element": "C" 
			},
			{
				"x": 1.5902441353,
				"y": -0.1689630313,
				"z": -0.2626244059,
				"element": "O" 
			},
			{
				"x": 2.7090837816,
				"y": -0.9369938953,
				"z": -0.5866517263,
				"element": "C" 
			},
			{
				"x": 3.7333358261,
				"y": -0.3551333329,
				"z": -0.8569827119,
				"element": "O" 
			},
			{
				"x": 2.5146319419,
				"y": -2.3772845452,
				"z": -0.5578321406,
				"element": "C" 
			},
			{
				"x": 1.3222571855,
				"y": -2.9473031023,
				"z": -0.2430778275,
				"element": "C" 
			},
			{
				"x": 1.2156876922,
				"y": -4.4462502191,
				"z": -0.201092502,
				"element": "C" 
			},
			{
				"x": 0.2621036418,
				"y": -5.1164241615,
				"z": -1.6069514872,
				"element": "Cl" 
			},
			{
				"x": 0.1856114017,
				"y": -2.1082377802,
				"z": 0.0799589039,
				"element": "C" 
			},
			{
				"x": -1.0940319043,
				"y": -2.5898835639,
				"z": 0.4225712148,
				"element": "C" 
			},
			{
				"x": -2.1219559615,
				"y": -1.7207622952,
				"z": 0.7328300946,
				"element": "C" 
			},
			{
				"x": -1.8954724115,
				"y": -0.3345473539,
				"z": 0.7059987974,
				"element": "C" 
			},
			{
				"x": -2.9520692078,
				"y": 0.4602984668,
				"z": 1.0221209742,
				"element": "O" 
			},
			{
				"x": -1.0722918277,
				"y": 2.1875480258,
				"z": -0.3866680621,
				"element": "H" 
			},
			{
				"x": 0.6100483265,
				"y": 1.9244133287,
				"z": 0.0698440189,
				"element": "H" 
			},
			{
				"x": -0.6069617631,
				"y": 2.1463973502,
				"z": 1.3263699298,
				"element": "H" 
			},
			{
				"x": 3.3883895965,
				"y": -2.9687729432,
				"z": -0.8056761726,
				"element": "H" 
			},
			{
				"x": 0.7068873501,
				"y": -4.7932912366,
				"z": 0.699209071,
				"element": "H" 
			},
			{
				"x": 2.2004222087,
				"y": -4.9076388711,
				"z": -0.257463595,
				"element": "H" 
			},
			{
				"x": -1.2839373145,
				"y": -3.6571183166,
				"z": 0.4254193109,
				"element": "H" 
			},
			{
				"x": -3.1106642046,
				"y": -2.0807026105,
				"z": 0.9938076704,
				"element": "H" 
			},
			{
				"x": -2.6909842112,
				"y": 1.3888808997,
				"z": 0.966803785,
				"element": "H" 
			}
		],
		 "valence_orbital": [ 
			{
				"type": "occ",
				"energy": -0.30802,
				"method": "rhf"
			},
			{
				"type": "occ",
				"energy": -0.29739,
				"method": "rhf"
			},
			{
				"type": "occ",
				"energy": -0.27621,
				"method": "rhf"
			},
			{
				"type": "occ",
				"energy": -0.24991,
				"method": "rhf"
			},
			{
				"type": "occ",
				"energy": -0.22837,
				"method": "rhf"
			},
			{
				"type": "unocc",
				"energy": -0.07416,
				"method": "rhf"
			},
			{
				"type": "unocc",
				"energy": -0.015,
				"method": "rhf"
			},
			{
				"type": "unocc",
				"energy": -0.00726,
				"method": "rhf"
			},
			{
				"type": "unocc",
				"energy": 0.02885,
				"method": "rhf"
			},
			{
				"type": "unocc",
				"energy": 0.05338,
				"method": "rhf"
			}
		],
		"cosmo_sigma_profile": { 
			"-0.025": 0.0,
			"-0.024": 0.0,
			"-0.023": 0.0,
			"-0.022": 0.0,
			"-0.021": 0.0,
			"-0.02": 0.0,
			"-0.019": 0.0,
			"-0.018": 0.0,
			"-0.017": 0.369730687021,
			"-0.016": 1.00005917836,
			"-0.015": 0.374394009664,
			"-0.014": 1.24687388973,
			"-0.013": 0.999493941218,
			"-0.012": 1.47326219183,
			"-0.011": 1.0305180154,
			"-0.01": 1.8198419732,
			"-0.009": 5.77590152089,
			"-0.008": 7.99042447824,
			"-0.007": 9.12843559295,
			"-0.006": 10.4200213756,
			"-0.005": 11.7650410476,
			"-0.004": 11.8706329204,
			"-0.003": 12.9732164777,
			"-0.002": 14.9993858748,
			"-0.001": 17.8198515517,
			"0.0": 17.8527323644,
			"0.001": 16.8869712786,
			"0.002": 17.8098665327,
			"0.003": 15.6104445461,
			"0.004": 12.3700733388,
			"0.005": 11.5420396051,
			"0.006": 9.47589710462,
			"0.007": 3.01930379149,
			"0.008": 2.30908443001,
			"0.009": 4.20391763974,
			"0.01": 3.69128685714,
			"0.011": 4.69736777487,
			"0.012": 5.86579183683,
			"0.013": 2.70588359417,
			"0.014": 0.110505005988,
			"0.015": 0.0,
			"0.016": 0.0,
			"0.017": 0.0,
			"0.018": 0.0,
			"0.019": 0.0,
			"0.02": 0.0,
			"0.021": 0.0,
			"0.022": 0.0,
			"0.023": 0.0,
			"0.024": 0.0,
			"0.025": 0.0
		}
	}
}
