{
	 "smiles": "CCOC(=O)C1=CC=C(OC(C)=O)C=C1", 
	 "Tm": 307.15, 
	 "num_atms": 27, 
	 "gaussian": { 
		 "optdone": 1, 
		 "sigma_profile": "yes", 
		 "theory": "DFT", 
		 "functional": "B3LYP", 
		 "basiset": "6-31G**", 
		 "properties": { 
			 "R2extent": 5803.5013, 
			 "electric_dipole_moment_norm": 1.56316526318, 
			 "electric_quadrupole_moment_norm": 25.2976472195, 
			 "total_energy": -727.328687148, 
			 "HOMO_LUMO_gap": 0.20149, 
			 "cosmo_polarized_energy": -10.27, 
			 "cosmo_cavitation_energy": 32.08, 
			 "cosmo_dispersion_energy": -23.19, 
			 "cosmo_repulsion_energy": 1.85, 
			 "cosmo_total_nonelectrostatic_energy": 10.73, 
			 "SMD_solvation_energy": 8.0 
		},
		"coords": [
			{
				"x": 2.7999672543,
				"y": -2.7383893638,
				"z": -4.1357819779,
				"element": "C" 
			},
			{
				"x": 1.3466509524,
				"y": -3.1408836471,
				"z": -3.9341957919,
				"element": "C" 
			},
			{
				"x": 0.7677663547,
				"y": -2.4693854972,
				"z": -2.7907752748,
				"element": "O" 
			},
			{
				"x": 0.964095307,
				"y": -3.0523900307,
				"z": -1.5854092337,
				"element": "C" 
			},
			{
				"x": 1.5816014428,
				"y": -4.0901162552,
				"z": -1.4318969452,
				"element": "O" 
			},
			{
				"x": 0.3354672663,
				"y": -2.283934697,
				"z": -0.4756755756,
				"element": "C" 
			},
			{
				"x": 0.4640143443,
				"y": -2.7869758092,
				"z": 0.8265169619,
				"element": "C" 
			},
			{
				"x": -0.1021112523,
				"y": -2.1085059471,
				"z": 1.8978119055,
				"element": "C" 
			},
			{
				"x": -0.8007807361,
				"y": -0.9191958836,
				"z": 1.6709544874,
				"element": "C" 
			},
			{
				"x": -1.3808412846,
				"y": -0.3618738406,
				"z": 2.8058573053,
				"element": "O" 
			},
			{
				"x": -1.550582463,
				"y": 0.9900007943,
				"z": 2.9729388557,
				"element": "C" 
			},
			{
				"x": -2.1988848718,
				"y": 1.2483189747,
				"z": 4.3100909504,
				"element": "C" 
			},
			{
				"x": -1.2230311271,
				"y": 1.8283795996,
				"z": 2.1707390473,
				"element": "O" 
			},
			{
				"x": -0.9458132258,
				"y": -0.4031390795,
				"z": 0.3800461408,
				"element": "C" 
			},
			{
				"x": -0.3720024696,
				"y": -1.0930856323,
				"z": -0.6860487328,
				"element": "C" 
			},
			{
				"x": 3.410673048,
				"y": -3.0742611698,
				"z": -3.2943540356,
				"element": "H" 
			},
			{
				"x": 3.1897313083,
				"y": -3.2000442012,
				"z": -5.049223674,
				"element": "H" 
			},
			{
				"x": 2.894316382,
				"y": -1.6527344501,
				"z": -4.2321580585,
				"element": "H" 
			},
			{
				"x": 1.2529744045,
				"y": -4.2201379812,
				"z": -3.7929186881,
				"element": "H" 
			},
			{
				"x": 0.7237593164,
				"y": -2.8283092723,
				"z": -4.7758462432,
				"element": "H" 
			},
			{
				"x": 1.0114902951,
				"y": -3.711006716,
				"z": 0.9765654173,
				"element": "H" 
			},
			{
				"x": -0.0176451232,
				"y": -2.4824606564,
				"z": 2.9125788084,
				"element": "H" 
			},
			{
				"x": -2.3410279368,
				"y": 2.3204712321,
				"z": 4.4399722652,
				"element": "H" 
			},
			{
				"x": -3.1618899991,
				"y": 0.7322341858,
				"z": 4.3655370062,
				"element": "H" 
			},
			{
				"x": -1.5709091886,
				"y": 0.853476905,
				"z": 5.1141030372,
				"element": "H" 
			},
			{
				"x": -1.4812430409,
				"y": 0.5205612315,
				"z": 0.2145345785,
				"element": "H" 
			},
			{
				"x": -0.4739449573,
				"y": -0.7048127927,
				"z": -1.6926625356,
				"element": "H" 
			}
		],
		 "valence_orbital": [ 
			{
				"type": "occ",
				"energy": -0.29632,
				"method": "rhf"
			},
			{
				"type": "occ",
				"energy": -0.28514,
				"method": "rhf"
			},
			{
				"type": "occ",
				"energy": -0.27104,
				"method": "rhf"
			},
			{
				"type": "occ",
				"energy": -0.26147,
				"method": "rhf"
			},
			{
				"type": "occ",
				"energy": -0.24772,
				"method": "rhf"
			},
			{
				"type": "unocc",
				"energy": -0.04623,
				"method": "rhf"
			},
			{
				"type": "unocc",
				"energy": -0.01099,
				"method": "rhf"
			},
			{
				"type": "unocc",
				"energy": 3e-05,
				"method": "rhf"
			},
			{
				"type": "unocc",
				"energy": 0.06375,
				"method": "rhf"
			},
			{
				"type": "unocc",
				"energy": 0.09291,
				"method": "rhf"
			}
		],
		"cosmo_sigma_profile": { 
			"-0.025": 0.0,
			"-0.024": 0.0,
			"-0.023": 0.0,
			"-0.022": 0.0,
			"-0.021": 0.0,
			"-0.02": 0.0,
			"-0.019": 0.0,
			"-0.018": 0.0,
			"-0.017": 0.0,
			"-0.016": 0.0,
			"-0.015": 0.0,
			"-0.014": 0.0,
			"-0.013": 0.0,
			"-0.012": 0.0,
			"-0.011": 0.0,
			"-0.01": 0.0,
			"-0.009": 0.0,
			"-0.008": 0.174975792841,
			"-0.007": 5.51035517688,
			"-0.006": 13.8389977763,
			"-0.005": 17.5026313962,
			"-0.004": 23.4953937474,
			"-0.003": 24.5604852649,
			"-0.002": 26.9342953231,
			"-0.001": 20.1599925536,
			"0.0": 21.9879706231,
			"0.001": 20.5757975041,
			"0.002": 18.9708855544,
			"0.003": 17.1264930052,
			"0.004": 7.32729840452,
			"0.005": 6.21586850007,
			"0.006": 5.31864851,
			"0.007": 3.27060178844,
			"0.008": 3.25665579134,
			"0.009": 3.39317619676,
			"0.01": 5.1536176648,
			"0.011": 5.44494065492,
			"0.012": 4.95170690021,
			"0.013": 0.134559740024,
			"0.014": 0.0,
			"0.015": 0.0,
			"0.016": 0.0,
			"0.017": 0.0,
			"0.018": 0.0,
			"0.019": 0.0,
			"0.02": 0.0,
			"0.021": 0.0,
			"0.022": 0.0,
			"0.023": 0.0,
			"0.024": 0.0,
			"0.025": 0.0
		}
	}
}
