{
	 "smiles": "NC1=CC2=C(C=CS2(=O)=O)C=C1", 
	 "Tm": 423.15, 
	 "num_atms": 19, 
	 "gaussian": { 
		 "optdone": 1, 
		 "sigma_profile": "yes", 
		 "theory": "DFT", 
		 "functional": "B3LYP", 
		 "basiset": "6-31G**", 
		 "properties": { 
			 "R2extent": 2354.2712, 
			 "electric_dipole_moment_norm": 6.29840333497, 
			 "electric_quadrupole_moment_norm": 20.9430581812, 
			 "total_energy": -912.365076064, 
			 "HOMO_LUMO_gap": 0.15329, 
			 "cosmo_polarized_energy": -20.32, 
			 "cosmo_cavitation_energy": 24.67, 
			 "cosmo_dispersion_energy": -18.95, 
			 "cosmo_repulsion_energy": 1.45, 
			 "cosmo_total_nonelectrostatic_energy": 7.17, 
			 "SMD_solvation_energy": 3.62 
		},
		"coords": [
			{
				"x": 3.2237147555,
				"y": -2.2054955544,
				"z": -1.2666313858,
				"element": "N" 
			},
			{
				"x": 2.0908565948,
				"y": -1.6188117283,
				"z": -0.7289124477,
				"element": "C" 
			},
			{
				"x": 1.5507655816,
				"y": -0.4484942439,
				"z": -1.3130807163,
				"element": "C" 
			},
			{
				"x": 0.4529868747,
				"y": 0.1289221481,
				"z": -0.7149210956,
				"element": "C" 
			},
			{
				"x": -0.1583381438,
				"y": -0.3766542059,
				"z": 0.4408133531,
				"element": "C" 
			},
			{
				"x": -1.3137370838,
				"y": 0.421204408,
				"z": 0.8722092877,
				"element": "C" 
			},
			{
				"x": -1.5915182127,
				"y": 1.4832837868,
				"z": 0.1022714506,
				"element": "C" 
			},
			{
				"x": -0.4309417219,
				"y": 1.606582245,
				"z": -1.2596473285,
				"element": "S" 
			},
			{
				"x": -1.1058838039,
				"y": 1.3593718372,
				"z": -2.5433079011,
				"element": "O" 
			},
			{
				"x": 0.415466633,
				"y": 2.800906098,
				"z": -1.1163529337,
				"element": "O" 
			},
			{
				"x": 0.3790342547,
				"y": -1.5297812346,
				"z": 1.0144638067,
				"element": "C" 
			},
			{
				"x": 1.4893061213,
				"y": -2.1410377176,
				"z": 0.4337608397,
				"element": "C" 
			},
			{
				"x": 3.3978060892,
				"y": -3.1690656381,
				"z": -1.0216596974,
				"element": "H" 
			},
			{
				"x": 3.433186579,
				"y": -1.9918624961,
				"z": -2.2307282544,
				"element": "H" 
			},
			{
				"x": 1.9958974089,
				"y": -0.020952158,
				"z": -2.2068523869,
				"element": "H" 
			},
			{
				"x": -1.8891045722,
				"y": 0.1547983635,
				"z": 1.7537964596,
				"element": "H" 
			},
			{
				"x": -2.3756706227,
				"y": 2.2211271304,
				"z": 0.1989578699,
				"element": "H" 
			},
			{
				"x": -0.0642133084,
				"y": -1.9569189175,
				"z": 1.9099031776,
				"element": "H" 
			},
			{
				"x": 1.9059865767,
				"y": -3.0373221227,
				"z": 0.8853179026,
				"element": "H" 
			}
		],
		 "valence_orbital": [ 
			{
				"type": "occ",
				"energy": -0.3025,
				"method": "rhf"
			},
			{
				"type": "occ",
				"energy": -0.28402,
				"method": "rhf"
			},
			{
				"type": "occ",
				"energy": -0.28162,
				"method": "rhf"
			},
			{
				"type": "occ",
				"energy": -0.26789,
				"method": "rhf"
			},
			{
				"type": "occ",
				"energy": -0.21595,
				"method": "rhf"
			},
			{
				"type": "unocc",
				"energy": -0.06266,
				"method": "rhf"
			},
			{
				"type": "unocc",
				"energy": -0.02777,
				"method": "rhf"
			},
			{
				"type": "unocc",
				"energy": 0.03445,
				"method": "rhf"
			},
			{
				"type": "unocc",
				"energy": 0.06133,
				"method": "rhf"
			},
			{
				"type": "unocc",
				"energy": 0.0676,
				"method": "rhf"
			}
		],
		"cosmo_sigma_profile": { 
			"-0.025": 0.0,
			"-0.024": 0.0,
			"-0.023": 0.0,
			"-0.022": 0.0,
			"-0.021": 0.0,
			"-0.02": 0.0,
			"-0.019": 0.0,
			"-0.018": 0.0,
			"-0.017": 0.0,
			"-0.016": 0.0,
			"-0.015": 0.0,
			"-0.014": 0.988283778833,
			"-0.013": 2.30543987399,
			"-0.012": 3.74785072601,
			"-0.011": 3.34137656196,
			"-0.01": 5.23248218464,
			"-0.009": 6.98994665869,
			"-0.008": 9.29604044917,
			"-0.007": 12.2361772569,
			"-0.006": 9.03756425182,
			"-0.005": 9.26821420773,
			"-0.004": 7.54091570174,
			"-0.003": 6.88288147019,
			"-0.002": 5.98273303755,
			"-0.001": 8.08256170052,
			"0.0": 9.48109600083,
			"0.001": 12.3832444162,
			"0.002": 13.9906938501,
			"0.003": 16.9107919799,
			"0.004": 7.76533891443,
			"0.005": 3.37093326215,
			"0.006": 3.52639606284,
			"0.007": 2.49962758727,
			"0.008": 3.53622643692,
			"0.009": 3.6486999489,
			"0.01": 7.4609179364,
			"0.011": 14.2344874631,
			"0.012": 8.11779564429,
			"0.013": 0.0477011900638,
			"0.014": 0.0,
			"0.015": 0.0,
			"0.016": 0.0,
			"0.017": 0.0,
			"0.018": 0.0,
			"0.019": 0.0,
			"0.02": 0.0,
			"0.021": 0.0,
			"0.022": 0.0,
			"0.023": 0.0,
			"0.024": 0.0,
			"0.025": 0.0
		}
	}
}
