{
	 "smiles": "OCCN(CCO)C1=NC2=C(N=C(N=C2C=N1)N(CCO)CCO)N1CCCCC1", 
	 "Tm": 431.15, 
	 "num_atms": 61, 
	 "gaussian": { 
		 "optdone": 1, 
		 "sigma_profile": "yes", 
		 "theory": "DFT", 
		 "functional": "B3LYP", 
		 "basiset": "6-31G**", 
		 "properties": { 
			 "R2extent": 14786.6739, 
			 "electric_dipole_moment_norm": 4.72133143298, 
			 "electric_quadrupole_moment_norm": 21.2716454244, 
			 "total_energy": -1426.85740453, 
			 "HOMO_LUMO_gap": 0.11743, 
			 "cosmo_polarized_energy": -24.0, 
			 "cosmo_cavitation_energy": 59.19, 
			 "cosmo_dispersion_energy": -39.24, 
			 "cosmo_repulsion_energy": 2.98, 
			 "cosmo_total_nonelectrostatic_energy": 22.94, 
			 "SMD_solvation_energy": 6.48 
		},
		"coords": [
			{
				"x": 4.1934516101,
				"y": -3.5810058472,
				"z": -1.0640627985,
				"element": "O" 
			},
			{
				"x": 4.7287621769,
				"y": -3.3315303805,
				"z": -2.3468660678,
				"element": "C" 
			},
			{
				"x": 4.469105429,
				"y": -1.9038100535,
				"z": -2.8448729546,
				"element": "C" 
			},
			{
				"x": 3.0580778745,
				"y": -1.5124329255,
				"z": -2.8565807844,
				"element": "N" 
			},
			{
				"x": 2.2812556645,
				"y": -1.709406794,
				"z": -4.086126478,
				"element": "C" 
			},
			{
				"x": 1.2243745489,
				"y": -2.833486831,
				"z": -4.0604559168,
				"element": "C" 
			},
			{
				"x": -0.0480345817,
				"y": -2.4178043936,
				"z": -3.6095686372,
				"element": "O" 
			},
			{
				"x": 2.4811921325,
				"y": -0.9700949405,
				"z": -1.7381187584,
				"element": "C" 
			},
			{
				"x": 1.1979538615,
				"y": -0.6051229634,
				"z": -1.7882633207,
				"element": "N" 
			},
			{
				"x": 0.6565703075,
				"y": -0.0248617879,
				"z": -0.6882234989,
				"element": "C" 
			},
			{
				"x": -0.7406010165,
				"y": 0.3953966812,
				"z": -0.6157515242,
				"element": "C" 
			},
			{
				"x": -1.2373048522,
				"y": 0.7805254492,
				"z": 0.554860991,
				"element": "N" 
			},
			{
				"x": -0.4256528735,
				"y": 0.8556216143,
				"z": 1.6470523795,
				"element": "C" 
			},
			{
				"x": 0.8805609765,
				"y": 0.6017907931,
				"z": 1.6740378261,
				"element": "N" 
			},
			{
				"x": 1.3893146005,
				"y": 0.1377997265,
				"z": 0.5054428732,
				"element": "C" 
			},
			{
				"x": 2.742958735,
				"y": -0.2960997603,
				"z": 0.4383530388,
				"element": "C" 
			},
			{
				"x": 3.2828605929,
				"y": -0.8332322431,
				"z": -0.6316393409,
				"element": "N" 
			},
			{
				"x": -1.0193534157,
				"y": 1.2692608399,
				"z": 2.81707555,
				"element": "N" 
			},
			{
				"x": -2.4526149664,
				"y": 1.5427061839,
				"z": 2.8940057748,
				"element": "C" 
			},
			{
				"x": -3.2955309267,
				"y": 0.2881288465,
				"z": 3.1689543687,
				"element": "C" 
			},
			{
				"x": -4.6734052952,
				"y": 0.6045205179,
				"z": 3.3057850658,
				"element": "O" 
			},
			{
				"x": -0.240644699,
				"y": 1.2928912018,
				"z": 4.0591012676,
				"element": "C" 
			},
			{
				"x": 0.5351125317,
				"y": 2.6005618154,
				"z": 4.243416352,
				"element": "C" 
			},
			{
				"x": -0.3157184168,
				"y": 3.7409603673,
				"z": 4.2455249624,
				"element": "O" 
			},
			{
				"x": -1.5878735362,
				"y": 0.3344797633,
				"z": -1.6891795176,
				"element": "N" 
			},
			{
				"x": -1.1840595423,
				"y": 0.6369550286,
				"z": -3.0745569072,
				"element": "C" 
			},
			{
				"x": -1.6675486928,
				"y": 2.0373585445,
				"z": -3.488622727,
				"element": "C" 
			},
			{
				"x": -3.1768977707,
				"y": 2.2134578717,
				"z": -3.2733896298,
				"element": "C" 
			},
			{
				"x": -3.5629037244,
				"y": 1.8465500097,
				"z": -1.833095179,
				"element": "C" 
			},
			{
				"x": -3.037110808,
				"y": 0.4486328578,
				"z": -1.4801643615,
				"element": "C" 
			},
			{
				"x": 4.2446579791,
				"y": -2.7524380809,
				"z": -0.5622338484,
				"element": "H" 
			},
			{
				"x": 5.8202312184,
				"y": -3.4988570155,
				"z": -2.3777824162,
				"element": "H" 
			},
			{
				"x": 4.2729958633,
				"y": -4.059519713,
				"z": -3.0299601487,
				"element": "H" 
			},
			{
				"x": 5.0183617043,
				"y": -1.1976036224,
				"z": -2.2172030075,
				"element": "H" 
			},
			{
				"x": 4.8576002333,
				"y": -1.8025727346,
				"z": -3.8640595691,
				"element": "H" 
			},
			{
				"x": 3.010460048,
				"y": -1.9309985871,
				"z": -4.8702978769,
				"element": "H" 
			},
			{
				"x": 1.7781737748,
				"y": -0.7738997137,
				"z": -4.3601250443,
				"element": "H" 
			},
			{
				"x": 1.6198275571,
				"y": -3.67397872,
				"z": -3.4662656795,
				"element": "H" 
			},
			{
				"x": 1.0856498816,
				"y": -3.1964867324,
				"z": -5.0865622412,
				"element": "H" 
			},
			{
				"x": 0.1131326957,
				"y": -1.8545932869,
				"z": -2.8314224911,
				"element": "H" 
			},
			{
				"x": 3.3620831866,
				"y": -0.203876075,
				"z": 1.3296205692,
				"element": "H" 
			},
			{
				"x": -2.6173396655,
				"y": 2.2706649298,
				"z": 3.6929141808,
				"element": "H" 
			},
			{
				"x": -2.7757275665,
				"y": 1.9929317096,
				"z": 1.9514709502,
				"element": "H" 
			},
			{
				"x": -3.1167884267,
				"y": -0.4532173683,
				"z": 2.3766232825,
				"element": "H" 
			},
			{
				"x": -2.9935148835,
				"y": -0.1662022023,
				"z": 4.1183667511,
				"element": "H" 
			},
			{
				"x": -4.9957682783,
				"y": 0.8967616977,
				"z": 2.4435036695,
				"element": "H" 
			},
			{
				"x": 0.4572804385,
				"y": 0.4510846306,
				"z": 4.0671679576,
				"element": "H" 
			},
			{
				"x": -0.9425918836,
				"y": 1.1713980493,
				"z": 4.8896751278,
				"element": "H" 
			},
			{
				"x": 1.0351220823,
				"y": 2.5865234561,
				"z": 5.2180755426,
				"element": "H" 
			},
			{
				"x": 1.3083080854,
				"y": 2.6750075242,
				"z": 3.4673667686,
				"element": "H" 
			},
			{
				"x": -0.6458969696,
				"y": 3.8445614091,
				"z": 3.343773397,
				"element": "H" 
			},
			{
				"x": -1.6122944067,
				"y": -0.1306605049,
				"z": -3.7307667798,
				"element": "H" 
			},
			{
				"x": -0.1045378145,
				"y": 0.5599262723,
				"z": -3.1574813375,
				"element": "H" 
			},
			{
				"x": -1.4046963851,
				"y": 2.2024664178,
				"z": -4.5405267458,
				"element": "H" 
			},
			{
				"x": -1.1215409955,
				"y": 2.78762681,
				"z": -2.9011081061,
				"element": "H" 
			},
			{
				"x": -3.4801460535,
				"y": 3.2406811229,
				"z": -3.5054681917,
				"element": "H" 
			},
			{
				"x": -3.7206611373,
				"y": 1.5598126888,
				"z": -3.9700747019,
				"element": "H" 
			},
			{
				"x": -4.6519812526,
				"y": 1.8697990764,
				"z": -1.7053752659,
				"element": "H" 
			},
			{
				"x": -3.136171173,
				"y": 2.572746328,
				"z": -1.1301929793,
				"element": "H" 
			},
			{
				"x": -3.5103721231,
				"y": -0.29633443,
				"z": -2.1350989871,
				"element": "H" 
			},
			{
				"x": -3.256751657,
				"y": 0.1883374725,
				"z": -0.4462248266,
				"element": "H" 
			}
		],
		 "valence_orbital": [ 
			{
				"type": "occ",
				"energy": -0.25386,
				"method": "rhf"
			},
			{
				"type": "occ",
				"energy": -0.24237,
				"method": "rhf"
			},
			{
				"type": "occ",
				"energy": -0.23798,
				"method": "rhf"
			},
			{
				"type": "occ",
				"energy": -0.22766,
				"method": "rhf"
			},
			{
				"type": "occ",
				"energy": -0.19154,
				"method": "rhf"
			},
			{
				"type": "unocc",
				"energy": -0.07411,
				"method": "rhf"
			},
			{
				"type": "unocc",
				"energy": -0.01263,
				"method": "rhf"
			},
			{
				"type": "unocc",
				"energy": 0.01,
				"method": "rhf"
			},
			{
				"type": "unocc",
				"energy": 0.05511,
				"method": "rhf"
			},
			{
				"type": "unocc",
				"energy": 0.07024,
				"method": "rhf"
			}
		],
		"cosmo_sigma_profile": { 
			"-0.025": 0.0,
			"-0.024": 0.0,
			"-0.023": 0.0,
			"-0.022": 0.0,
			"-0.021": 0.0,
			"-0.02": 0.0,
			"-0.019": 0.0,
			"-0.018": 0.0,
			"-0.017": 0.0,
			"-0.016": 0.0121284542191,
			"-0.015": 0.883615188016,
			"-0.014": 1.35698011609,
			"-0.013": 1.73912404565,
			"-0.012": 1.64753980432,
			"-0.011": 1.6529815583,
			"-0.01": 1.96274949697,
			"-0.009": 1.38046840974,
			"-0.008": 3.20207488201,
			"-0.007": 7.06052412175,
			"-0.006": 8.6129071889,
			"-0.005": 17.4754396795,
			"-0.004": 38.991593024,
			"-0.003": 59.3410959434,
			"-0.002": 65.5809794781,
			"-0.001": 59.0641590138,
			"0.0": 45.2216397223,
			"0.001": 26.7183233471,
			"0.002": 19.9836068035,
			"0.003": 14.6916210888,
			"0.004": 10.3553191991,
			"0.005": 9.01335760432,
			"0.006": 10.5491073156,
			"0.007": 7.54259178715,
			"0.008": 6.43855389078,
			"0.009": 6.09378949753,
			"0.01": 5.16273163608,
			"0.011": 6.42313358101,
			"0.012": 4.6461401754,
			"0.013": 5.64277360922,
			"0.014": 7.80102194373,
			"0.015": 4.98954579895,
			"0.016": 0.379789481751,
			"0.017": 0.0,
			"0.018": 0.0,
			"0.019": 0.0,
			"0.02": 0.0,
			"0.021": 0.0,
			"0.022": 0.0,
			"0.023": 0.0,
			"0.024": 0.0,
			"0.025": 0.0
		}
	}
}
