{
	 "smiles": "C=CCNCC=C", 
	 "Tm": 184.95, 
	 "num_atms": 18, 
	 "gaussian": { 
		 "optdone": 1, 
		 "sigma_profile": "yes", 
		 "theory": "DFT", 
		 "functional": "B3LYP", 
		 "basiset": "6-31G**", 
		 "properties": { 
			 "R2extent": 1431.5739, 
			 "electric_dipole_moment_norm": 1.10130232906, 
			 "electric_quadrupole_moment_norm": 3.54807670718, 
			 "total_energy": -289.957956561, 
			 "HOMO_LUMO_gap": 0.2347, 
			 "cosmo_polarized_energy": -4.79, 
			 "cosmo_cavitation_energy": 21.11, 
			 "cosmo_dispersion_energy": -14.92, 
			 "cosmo_repulsion_energy": 1.27, 
			 "cosmo_total_nonelectrostatic_energy": 7.46, 
			 "SMD_solvation_energy": 3.43 
		},
		"coords": [
			{
				"x": 1.0795665412,
				"y": 1.191322328,
				"z": 1.2732001212,
				"element": "C" 
			},
			{
				"x": 1.0352004481,
				"y": 0.3355433999,
				"z": 0.2508602504,
				"element": "C" 
			},
			{
				"x": -0.2161777763,
				"y": -0.0075971995,
				"z": -0.5196624812,
				"element": "C" 
			},
			{
				"x": -0.58069173,
				"y": -1.4328784797,
				"z": -0.4904900332,
				"element": "N" 
			},
			{
				"x": 0.214388326,
				"y": -2.2978809833,
				"z": -1.3593335455,
				"element": "C" 
			},
			{
				"x": -0.2636399581,
				"y": -2.3134884033,
				"z": -2.7940060931,
				"element": "C" 
			},
			{
				"x": -1.4214063424,
				"y": -1.8165601564,
				"z": -3.2274891676,
				"element": "C" 
			},
			{
				"x": 0.191092941,
				"y": 1.7248338881,
				"z": 1.6052624185,
				"element": "H" 
			},
			{
				"x": 1.9998658857,
				"y": 1.3991619527,
				"z": 1.8115757922,
				"element": "H" 
			},
			{
				"x": 1.9487583169,
				"y": -0.1770994144,
				"z": -0.0520663216,
				"element": "H" 
			},
			{
				"x": -1.0558370649,
				"y": 0.5769843969,
				"z": -0.1234543741,
				"element": "H" 
			},
			{
				"x": -0.107056748,
				"y": 0.2746998011,
				"z": -1.5739364659,
				"element": "H" 
			},
			{
				"x": -0.53745201,
				"y": -1.7687896909,
				"z": 0.466523861,
				"element": "H" 
			},
			{
				"x": 1.2932348047,
				"y": -2.0524331823,
				"z": -1.3568824311,
				"element": "H" 
			},
			{
				"x": 0.1538314524,
				"y": -3.3216389428,
				"z": -0.963674753,
				"element": "H" 
			},
			{
				"x": 0.42041947,
				"y": -2.787359617,
				"z": -3.4987786581,
				"element": "H" 
			},
			{
				"x": -1.7048160209,
				"y": -1.8715979792,
				"z": -4.2742330412,
				"element": "H" 
			},
			{
				"x": -2.1173805355,
				"y": -1.3490217178,
				"z": -2.5380150778,
				"element": "H" 
			}
		],
		 "valence_orbital": [ 
			{
				"type": "occ",
				"energy": -0.35306,
				"method": "rhf"
			},
			{
				"type": "occ",
				"energy": -0.3355,
				"method": "rhf"
			},
			{
				"type": "occ",
				"energy": -0.26424,
				"method": "rhf"
			},
			{
				"type": "occ",
				"energy": -0.24811,
				"method": "rhf"
			},
			{
				"type": "occ",
				"energy": -0.21809,
				"method": "rhf"
			},
			{
				"type": "unocc",
				"energy": 0.01661,
				"method": "rhf"
			},
			{
				"type": "unocc",
				"energy": 0.02749,
				"method": "rhf"
			},
			{
				"type": "unocc",
				"energy": 0.09455,
				"method": "rhf"
			},
			{
				"type": "unocc",
				"energy": 0.11406,
				"method": "rhf"
			},
			{
				"type": "unocc",
				"energy": 0.12765,
				"method": "rhf"
			}
		],
		"cosmo_sigma_profile": { 
			"-0.025": 0.0,
			"-0.024": 0.0,
			"-0.023": 0.0,
			"-0.022": 0.0,
			"-0.021": 0.0,
			"-0.02": 0.0,
			"-0.019": 0.0,
			"-0.018": 0.0,
			"-0.017": 0.0,
			"-0.016": 0.0,
			"-0.015": 0.0,
			"-0.014": 0.0,
			"-0.013": 0.0,
			"-0.012": 0.0,
			"-0.011": 0.0,
			"-0.01": 0.647885136417,
			"-0.009": 1.13754859569,
			"-0.008": 0.989817264194,
			"-0.007": 1.54115446703,
			"-0.006": 1.27151708368,
			"-0.005": 6.46878013279,
			"-0.004": 15.6748076371,
			"-0.003": 20.1182368337,
			"-0.002": 21.7824879406,
			"-0.001": 18.6240740685,
			"0.0": 14.7827899818,
			"0.001": 11.4577982769,
			"0.002": 10.8387839017,
			"0.003": 8.06372327325,
			"0.004": 8.06253313975,
			"0.005": 6.74876384594,
			"0.006": 6.47689657807,
			"0.007": 4.9679568464,
			"0.008": 1.1477436064,
			"0.009": 0.815430868259,
			"0.01": 1.14566234073,
			"0.011": 0.698015930722,
			"0.012": 0.446636424653,
			"0.013": 0.459178233415,
			"0.014": 0.900412188244,
			"0.015": 0.23922538606,
			"0.016": 0.0,
			"0.017": 0.0,
			"0.018": 0.0,
			"0.019": 0.0,
			"0.02": 0.0,
			"0.021": 0.0,
			"0.022": 0.0,
			"0.023": 0.0,
			"0.024": 0.0,
			"0.025": 0.0
		}
	}
}
