{
	 "smiles": "CC(Cl)C1=NN=C(O1)C1=CC=C(F)C=C1", 
	 "Tm": 341.15, 
	 "num_atms": 23, 
	 "gaussian": { 
		 "optdone": 1, 
		 "sigma_profile": "yes", 
		 "theory": "DFT", 
		 "functional": "B3LYP", 
		 "basiset": "6-31G**", 
		 "properties": { 
			 "R2extent": 5075.7767, 
			 "electric_dipole_moment_norm": 3.00055287905, 
			 "electric_quadrupole_moment_norm": 11.7536311653, 
			 "total_energy": -1130.62183767, 
			 "HOMO_LUMO_gap": 0.18375, 
			 "cosmo_polarized_energy": -10.93, 
			 "cosmo_cavitation_energy": 30.67, 
			 "cosmo_dispersion_energy": -21.96, 
			 "cosmo_repulsion_energy": 1.7, 
			 "cosmo_total_nonelectrostatic_energy": 10.42, 
			 "SMD_solvation_energy": 3.73 
		},
		"coords": [
			{
				"x": -2.6513194165,
				"y": 1.3497108696,
				"z": -3.0070804568,
				"element": "C" 
			},
			{
				"x": -1.3214461552,
				"y": 0.75578485,
				"z": -3.4604121003,
				"element": "C" 
			},
			{
				"x": -0.2615133436,
				"y": 2.0849056181,
				"z": -4.1658364483,
				"element": "Cl" 
			},
			{
				"x": -0.5807272072,
				"y": 0.0507009552,
				"z": -2.3838571765,
				"element": "C" 
			},
			{
				"x": -0.1296448001,
				"y": -1.1641657557,
				"z": -2.401943093,
				"element": "N" 
			},
			{
				"x": 0.4675016996,
				"y": -1.3808507478,
				"z": -1.1649265258,
				"element": "N" 
			},
			{
				"x": 0.3350589436,
				"y": -0.2750726227,
				"z": -0.4886890629,
				"element": "C" 
			},
			{
				"x": -0.3303751959,
				"y": 0.6827006813,
				"z": -1.2023960397,
				"element": "O" 
			},
			{
				"x": 0.7934607986,
				"y": 0.0236340809,
				"z": 0.8610327398,
				"element": "C" 
			},
			{
				"x": 0.5911238054,
				"y": 1.2886591208,
				"z": 1.4349748206,
				"element": "C" 
			},
			{
				"x": 1.0379328373,
				"y": 1.5531456737,
				"z": 2.7265420944,
				"element": "C" 
			},
			{
				"x": 1.685424038,
				"y": 0.54297971,
				"z": 3.4307007472,
				"element": "C" 
			},
			{
				"x": 2.1184415103,
				"y": 0.794833628,
				"z": 4.6794160756,
				"element": "F" 
			},
			{
				"x": 1.900577365,
				"y": -0.7206396669,
				"z": 2.8854884154,
				"element": "C" 
			},
			{
				"x": 1.4517748303,
				"y": -0.9779596184,
				"z": 1.5956135704,
				"element": "C" 
			},
			{
				"x": -3.3000883017,
				"y": 0.5485326468,
				"z": -2.63695394,
				"element": "H" 
			},
			{
				"x": -2.500729359,
				"y": 2.0773958047,
				"z": -2.2066506878,
				"element": "H" 
			},
			{
				"x": -3.1483559673,
				"y": 1.844077962,
				"z": -3.8440362852,
				"element": "H" 
			},
			{
				"x": -1.4553162821,
				"y": 0.0391390401,
				"z": -4.2706842378,
				"element": "H" 
			},
			{
				"x": 0.087156838,
				"y": 2.0639620792,
				"z": 0.8684360266,
				"element": "H" 
			},
			{
				"x": 0.8941128136,
				"y": 2.5226357971,
				"z": 3.1902293672,
				"element": "H" 
			},
			{
				"x": 2.4107372852,
				"y": -1.4770994565,
				"z": 3.4713366238,
				"element": "H" 
			},
			{
				"x": 1.6038132637,
				"y": -1.9511106495,
				"z": 1.141795573,
				"element": "H" 
			}
		],
		 "valence_orbital": [ 
			{
				"type": "occ",
				"energy": -0.30774,
				"method": "rhf"
			},
			{
				"type": "occ",
				"energy": -0.30354,
				"method": "rhf"
			},
			{
				"type": "occ",
				"energy": -0.28607,
				"method": "rhf"
			},
			{
				"type": "occ",
				"energy": -0.2791,
				"method": "rhf"
			},
			{
				"type": "occ",
				"energy": -0.24494,
				"method": "rhf"
			},
			{
				"type": "unocc",
				"energy": -0.06119,
				"method": "rhf"
			},
			{
				"type": "unocc",
				"energy": -0.02894,
				"method": "rhf"
			},
			{
				"type": "unocc",
				"energy": -0.02195,
				"method": "rhf"
			},
			{
				"type": "unocc",
				"energy": 0.03933,
				"method": "rhf"
			},
			{
				"type": "unocc",
				"energy": 0.05476,
				"method": "rhf"
			}
		],
		"cosmo_sigma_profile": { 
			"-0.025": 0.0,
			"-0.024": 0.0,
			"-0.023": 0.0,
			"-0.022": 0.0,
			"-0.021": 0.0,
			"-0.02": 0.0,
			"-0.019": 0.0,
			"-0.018": 0.0,
			"-0.017": 0.0,
			"-0.016": 0.0,
			"-0.015": 0.0,
			"-0.014": 0.0,
			"-0.013": 0.0,
			"-0.012": 0.0,
			"-0.011": 0.0,
			"-0.01": 0.186739596645,
			"-0.009": 1.86167165204,
			"-0.008": 5.17073268985,
			"-0.007": 9.98030107114,
			"-0.006": 13.7274704983,
			"-0.005": 15.7159539563,
			"-0.004": 15.096482908,
			"-0.003": 15.467453916,
			"-0.002": 19.6647088044,
			"-0.001": 20.5500406368,
			"0.0": 22.0086325759,
			"0.001": 21.7783281577,
			"0.002": 21.8298916623,
			"0.003": 14.6680287382,
			"0.004": 15.219870743,
			"0.005": 11.6856266096,
			"0.006": 5.43312542272,
			"0.007": 1.84679823115,
			"0.008": 1.70650096218,
			"0.009": 2.82296004157,
			"0.01": 2.56290792274,
			"0.011": 3.52801491434,
			"0.012": 2.47382470379,
			"0.013": 2.16507031342,
			"0.014": 1.29444829529,
			"0.015": 0.155091511723,
			"0.016": 0.0,
			"0.017": 0.0,
			"0.018": 0.0,
			"0.019": 0.0,
			"0.02": 0.0,
			"0.021": 0.0,
			"0.022": 0.0,
			"0.023": 0.0,
			"0.024": 0.0,
			"0.025": 0.0
		}
	}
}
