{
	 "smiles": "CC(C)C1=NOC2=C1C(=CC(=N2)C1=CN=CC=C1)C(O)=O", 
	 "Tm": 553.15, 
	 "num_atms": 34, 
	 "gaussian": { 
		 "optdone": 1, 
		 "sigma_profile": "yes", 
		 "theory": "DFT", 
		 "functional": "B3LYP", 
		 "basiset": "6-31G**", 
		 "properties": { 
			 "R2extent": 7419.6517, 
			 "electric_dipole_moment_norm": 6.24173690971, 
			 "electric_quadrupole_moment_norm": 9.68700274337, 
			 "total_energy": -969.332803566, 
			 "HOMO_LUMO_gap": 0.1519, 
			 "cosmo_polarized_energy": -16.74, 
			 "cosmo_cavitation_energy": 37.99, 
			 "cosmo_dispersion_energy": -27.64, 
			 "cosmo_repulsion_energy": 2.07, 
			 "cosmo_total_nonelectrostatic_energy": 12.43, 
			 "SMD_solvation_energy": 4.84 
		},
		"coords": [
			{
				"x": 1.34203706,
				"y": -2.9008454233,
				"z": 3.6936084294,
				"element": "C" 
			},
			{
				"x": 0.8800851677,
				"y": -1.4416042874,
				"z": 3.8526768442,
				"element": "C" 
			},
			{
				"x": -0.5035104328,
				"y": -1.3084929157,
				"z": 4.5164614481,
				"element": "C" 
			},
			{
				"x": 0.993684813,
				"y": -0.6354485352,
				"z": 2.5729943011,
				"element": "C" 
			},
			{
				"x": 1.7660299487,
				"y": 0.4232724717,
				"z": 2.6683879,
				"element": "N" 
			},
			{
				"x": 1.7997040223,
				"y": 1.0802961044,
				"z": 1.4327007564,
				"element": "O" 
			},
			{
				"x": 1.0316012995,
				"y": 0.3830628308,
				"z": 0.5752568269,
				"element": "C" 
			},
			{
				"x": 0.4620579477,
				"y": -0.7367283151,
				"z": 1.2220060888,
				"element": "C" 
			},
			{
				"x": -0.3564344872,
				"y": -1.5406836355,
				"z": 0.3897128718,
				"element": "C" 
			},
			{
				"x": -0.4975306501,
				"y": -1.1535697707,
				"z": -0.9435735072,
				"element": "C" 
			},
			{
				"x": 0.1424264092,
				"y": -0.0021236905,
				"z": -1.4553624939,
				"element": "C" 
			},
			{
				"x": 0.9104608071,
				"y": 0.7760949069,
				"z": -0.6787353954,
				"element": "N" 
			},
			{
				"x": -0.0168093439,
				"y": 0.4139163657,
				"z": -2.8687451326,
				"element": "C" 
			},
			{
				"x": 0.2582913154,
				"y": 1.7421923597,
				"z": -3.2451690613,
				"element": "C" 
			},
			{
				"x": 0.1365063267,
				"y": 2.208381591,
				"z": -4.490096844,
				"element": "N" 
			},
			{
				"x": -0.2677530604,
				"y": 1.3500015787,
				"z": -5.4358548453,
				"element": "C" 
			},
			{
				"x": -0.5626934862,
				"y": 0.0102060577,
				"z": -5.1812064253,
				"element": "C" 
			},
			{
				"x": -0.4342647837,
				"y": -0.4638093588,
				"z": -3.8791394017,
				"element": "C" 
			},
			{
				"x": -1.1128963784,
				"y": -2.7403367661,
				"z": 0.8576452069,
				"element": "C" 
			},
			{
				"x": -1.5559904198,
				"y": -3.5055523378,
				"z": -0.1674426351,
				"element": "O" 
			},
			{
				"x": -1.3435346167,
				"y": -3.0295520791,
				"z": 2.0132250867,
				"element": "O" 
			},
			{
				"x": 1.385481939,
				"y": -3.3769992141,
				"z": 4.6787520108,
				"element": "H" 
			},
			{
				"x": 2.3443256187,
				"y": -2.9497459599,
				"z": 3.2554027505,
				"element": "H" 
			},
			{
				"x": 0.6562197554,
				"y": -3.4795253573,
				"z": 3.0738291225,
				"element": "H" 
			},
			{
				"x": 1.6003433538,
				"y": -0.947929819,
				"z": 4.5158488925,
				"element": "H" 
			},
			{
				"x": -0.4931268124,
				"y": -1.818020642,
				"z": 5.4860009167,
				"element": "H" 
			},
			{
				"x": -1.2870130171,
				"y": -1.7545581217,
				"z": 3.9041134468,
				"element": "H" 
			},
			{
				"x": -0.7454701874,
				"y": -0.2557800009,
				"z": 4.6939059208,
				"element": "H" 
			},
			{
				"x": -1.1380460183,
				"y": -1.7421873715,
				"z": -1.5846965232,
				"element": "H" 
			},
			{
				"x": 0.588576907,
				"y": 2.4473221241,
				"z": -2.4877128139,
				"element": "H" 
			},
			{
				"x": -0.3556946786,
				"y": 1.7520018292,
				"z": -6.4435912586,
				"element": "H" 
			},
			{
				"x": -0.8764891317,
				"y": -0.6467138258,
				"z": -5.9861470705,
				"element": "H" 
			},
			{
				"x": -0.6342717366,
				"y": -1.5087233692,
				"z": -3.6625398304,
				"element": "H" 
			},
			{
				"x": -2.0590034501,
				"y": -4.2302174233,
				"z": 0.2400844174,
				"element": "H" 
			}
		],
		 "valence_orbital": [ 
			{
				"type": "occ",
				"energy": -0.29229,
				"method": "rhf"
			},
			{
				"type": "occ",
				"energy": -0.28559,
				"method": "rhf"
			},
			{
				"type": "occ",
				"energy": -0.27612,
				"method": "rhf"
			},
			{
				"type": "occ",
				"energy": -0.25829,
				"method": "rhf"
			},
			{
				"type": "occ",
				"energy": -0.24968,
				"method": "rhf"
			},
			{
				"type": "unocc",
				"energy": -0.09778,
				"method": "rhf"
			},
			{
				"type": "unocc",
				"energy": -0.05528,
				"method": "rhf"
			},
			{
				"type": "unocc",
				"energy": -0.02805,
				"method": "rhf"
			},
			{
				"type": "unocc",
				"energy": -0.00334,
				"method": "rhf"
			},
			{
				"type": "unocc",
				"energy": 0.01657,
				"method": "rhf"
			}
		],
		"cosmo_sigma_profile": { 
			"-0.025": 0.0,
			"-0.024": 0.0,
			"-0.023": 0.0,
			"-0.022": 0.0,
			"-0.021": 0.0,
			"-0.02": 0.0,
			"-0.019": 0.586799491198,
			"-0.018": 1.03030205698,
			"-0.017": 0.830167945919,
			"-0.016": 0.982727169997,
			"-0.015": 0.531343002486,
			"-0.014": 0.868249097684,
			"-0.013": 0.730128373091,
			"-0.012": 0.731898012629,
			"-0.011": 0.574755811439,
			"-0.01": 0.973060848495,
			"-0.009": 2.53994824063,
			"-0.008": 4.13373830761,
			"-0.007": 7.52871615828,
			"-0.006": 8.05301288316,
			"-0.005": 9.21245104947,
			"-0.004": 16.4568682189,
			"-0.003": 30.1810021541,
			"-0.002": 33.5037042701,
			"-0.001": 33.0269714031,
			"0.0": 27.5646861486,
			"0.001": 33.4314548406,
			"0.002": 18.0794647172,
			"0.003": 10.2125515469,
			"0.004": 9.60439385538,
			"0.005": 7.99054868567,
			"0.006": 9.2878748816,
			"0.007": 10.2525340945,
			"0.008": 6.44493173631,
			"0.009": 5.50688977762,
			"0.01": 4.16506299901,
			"0.011": 2.79904121734,
			"0.012": 2.40442034571,
			"0.013": 1.61308591822,
			"0.014": 1.06905630942,
			"0.015": 0.918539221965,
			"0.016": 0.665686750712,
			"0.017": 0.103336605847,
			"0.018": 0.0,
			"0.019": 0.0,
			"0.02": 0.0,
			"0.021": 0.0,
			"0.022": 0.0,
			"0.023": 0.0,
			"0.024": 0.0,
			"0.025": 0.0
		}
	}
}
