{
	 "smiles": "OC(=O)CCCNC1=C(C=CC=C1)[N+]([O-])=O", 
	 "Tm": 390.15, 
	 "num_atms": 28, 
	 "gaussian": { 
		 "optdone": 1, 
		 "sigma_profile": "yes", 
		 "theory": "DFT", 
		 "functional": "B3LYP", 
		 "basiset": "6-31G**", 
		 "properties": { 
			 "R2extent": 4283.5115, 
			 "electric_dipole_moment_norm": 4.19989151646, 
			 "electric_quadrupole_moment_norm": 19.9057748201, 
			 "total_energy": -798.604069799, 
			 "HOMO_LUMO_gap": 0.14466, 
			 "cosmo_polarized_energy": -19.68, 
			 "cosmo_cavitation_energy": 32.63, 
			 "cosmo_dispersion_energy": -22.45, 
			 "cosmo_repulsion_energy": 1.78, 
			 "cosmo_total_nonelectrostatic_energy": 11.96, 
			 "SMD_solvation_energy": 7.94 
		},
		"coords": [
			{
				"x": -0.2755527828,
				"y": 0.1797025758,
				"z": -3.8190644182,
				"element": "O" 
			},
			{
				"x": -0.8962000424,
				"y": 0.9183136823,
				"z": -2.8651676988,
				"element": "C" 
			},
			{
				"x": -2.1007568996,
				"y": 0.9646296995,
				"z": -2.759500802,
				"element": "O" 
			},
			{
				"x": 0.0861206709,
				"y": 1.6860471814,
				"z": -2.00107698,
				"element": "C" 
			},
			{
				"x": 1.3877815675,
				"y": 0.9421194455,
				"z": -1.6603627212,
				"element": "C" 
			},
			{
				"x": 1.2072805352,
				"y": -0.3441952445,
				"z": -0.8456250039,
				"element": "C" 
			},
			{
				"x": 0.680842038,
				"y": -0.0555417973,
				"z": 0.4856611504,
				"element": "N" 
			},
			{
				"x": -0.259706744,
				"y": -0.7735161456,
				"z": 1.1833949157,
				"element": "C" 
			},
			{
				"x": -0.493149921,
				"y": -2.169558083,
				"z": 1.0801416259,
				"element": "C" 
			},
			{
				"x": -1.5736438915,
				"y": -2.7818711866,
				"z": 1.7352395727,
				"element": "C" 
			},
			{
				"x": -2.4016472636,
				"y": -2.0550430971,
				"z": 2.5712249898,
				"element": "C" 
			},
			{
				"x": -2.1438918577,
				"y": -0.687245822,
				"z": 2.7514179916,
				"element": "C" 
			},
			{
				"x": -1.1116975591,
				"y": -0.0677669707,
				"z": 2.0710369843,
				"element": "C" 
			},
			{
				"x": 0.4290436546,
				"y": -3.0782276999,
				"z": 0.4058934639,
				"element": "N" 
			},
			{
				"x": -0.0250215127,
				"y": -4.1331282175,
				"z": -0.0458236173,
				"element": "O" 
			},
			{
				"x": 1.6270582301,
				"y": -2.7766692862,
				"z": 0.3803299415,
				"element": "O" 
			},
			{
				"x": -0.9818509372,
				"y": -0.2546793419,
				"z": -4.3267259787,
				"element": "H" 
			},
			{
				"x": 0.3307959959,
				"y": 2.6067851189,
				"z": -2.5465893708,
				"element": "H" 
			},
			{
				"x": -0.4645070857,
				"y": 1.9887910867,
				"z": -1.1068453274,
				"element": "H" 
			},
			{
				"x": 1.9086739117,
				"y": 0.6815475467,
				"z": -2.5859928864,
				"element": "H" 
			},
			{
				"x": 2.0516701154,
				"y": 1.6255960046,
				"z": -1.113985528,
				"element": "H" 
			},
			{
				"x": 2.1621046965,
				"y": -0.8745721407,
				"z": -0.7771186843,
				"element": "H" 
			},
			{
				"x": 0.5162387561,
				"y": -1.0156529478,
				"z": -1.3690259499,
				"element": "H" 
			},
			{
				"x": 0.7249312817,
				"y": 0.9167753329,
				"z": 0.7546199144,
				"element": "H" 
			},
			{
				"x": -1.709273614,
				"y": -3.8461025503,
				"z": 1.5867433098,
				"element": "H" 
			},
			{
				"x": -3.2220559307,
				"y": -2.5398392169,
				"z": 3.088683604,
				"element": "H" 
			},
			{
				"x": -2.7718057194,
				"y": -0.0967248202,
				"z": 3.4123112897,
				"element": "H" 
			},
			{
				"x": -0.9573796922,
				"y": 1.002726894,
				"z": 2.1838062132,
				"element": "H" 
			}
		],
		 "valence_orbital": [ 
			{
				"type": "occ",
				"energy": -0.29203,
				"method": "rhf"
			},
			{
				"type": "occ",
				"energy": -0.28462,
				"method": "rhf"
			},
			{
				"type": "occ",
				"energy": -0.2802,
				"method": "rhf"
			},
			{
				"type": "occ",
				"energy": -0.26281,
				"method": "rhf"
			},
			{
				"type": "occ",
				"energy": -0.21599,
				"method": "rhf"
			},
			{
				"type": "unocc",
				"energy": -0.07133,
				"method": "rhf"
			},
			{
				"type": "unocc",
				"energy": -0.0092,
				"method": "rhf"
			},
			{
				"type": "unocc",
				"energy": -0.00047,
				"method": "rhf"
			},
			{
				"type": "unocc",
				"energy": 0.0067,
				"method": "rhf"
			},
			{
				"type": "unocc",
				"energy": 0.05488,
				"method": "rhf"
			}
		],
		"cosmo_sigma_profile": { 
			"-0.025": 0.0,
			"-0.024": 0.0,
			"-0.023": 0.0,
			"-0.022": 0.0,
			"-0.021": 0.0,
			"-0.02": 0.0,
			"-0.019": 0.0,
			"-0.018": 0.568213991013,
			"-0.017": 1.05944723575,
			"-0.016": 0.554097358514,
			"-0.015": 1.11003132127,
			"-0.014": 1.23924397849,
			"-0.013": 1.91792908681,
			"-0.012": 2.35674140876,
			"-0.011": 2.13859642429,
			"-0.01": 2.69178401924,
			"-0.009": 2.14354249473,
			"-0.008": 2.96885968346,
			"-0.007": 8.22038818477,
			"-0.006": 15.4919911941,
			"-0.005": 16.4041826844,
			"-0.004": 21.1528087726,
			"-0.003": 20.7918764659,
			"-0.002": 18.5290447348,
			"-0.001": 14.0612496895,
			"0.0": 11.3109052716,
			"0.001": 10.7601843116,
			"0.002": 15.9403638146,
			"0.003": 14.6296339981,
			"0.004": 12.920807931,
			"0.005": 6.71545582085,
			"0.006": 5.21830934615,
			"0.007": 7.16331417895,
			"0.008": 10.3326779139,
			"0.009": 10.1804021895,
			"0.01": 7.00790035735,
			"0.011": 6.16022881573,
			"0.012": 5.02072541585,
			"0.013": 1.37501045458,
			"0.014": 0.00340377787639,
			"0.015": 0.0,
			"0.016": 0.0,
			"0.017": 0.0,
			"0.018": 0.0,
			"0.019": 0.0,
			"0.02": 0.0,
			"0.021": 0.0,
			"0.022": 0.0,
			"0.023": 0.0,
			"0.024": 0.0,
			"0.025": 0.0
		}
	}
}
