{
	 "smiles": "ClC(=O)C1=CSC(=N1)C1=C(Cl)C(Cl)=CC=C1", 
	 "Tm": 383.15, 
	 "num_atms": 20, 
	 "gaussian": { 
		 "optdone": 1, 
		 "sigma_profile": "yes", 
		 "theory": "DFT", 
		 "functional": "B3LYP", 
		 "basiset": "6-31G**", 
		 "properties": { 
			 "R2extent": 7014.7549, 
			 "electric_dipole_moment_norm": 2.71711456144, 
			 "electric_quadrupole_moment_norm": 26.0655734798, 
			 "total_energy": -2292.20383453, 
			 "HOMO_LUMO_gap": 0.1692, 
			 "cosmo_polarized_energy": -8.8, 
			 "cosmo_cavitation_energy": 32.31, 
			 "cosmo_dispersion_energy": -24.69, 
			 "cosmo_repulsion_energy": 1.86, 
			 "cosmo_total_nonelectrostatic_energy": 9.48, 
			 "SMD_solvation_energy": 4.63 
		},
		"coords": [
			{
				"x": 2.9828700885,
				"y": -1.6859200351,
				"z": 4.1911103448,
				"element": "Cl" 
			},
			{
				"x": 1.4713388382,
				"y": -0.9342389555,
				"z": 3.4770889456,
				"element": "C" 
			},
			{
				"x": 0.5379374601,
				"y": -0.6965944195,
				"z": 4.1757696917,
				"element": "O" 
			},
			{
				"x": 1.5722859494,
				"y": -0.6862925961,
				"z": 2.0246132098,
				"element": "C" 
			},
			{
				"x": 2.6459163279,
				"y": -0.9578857514,
				"z": 1.2107345802,
				"element": "C" 
			},
			{
				"x": 2.2952173716,
				"y": -0.4957070706,
				"z": -0.4028288781,
				"element": "S" 
			},
			{
				"x": 0.6843766525,
				"y": 0.0499356817,
				"z": 0.1226943865,
				"element": "C" 
			},
			{
				"x": 0.4888775942,
				"y": -0.1253919156,
				"z": 1.4021901301,
				"element": "N" 
			},
			{
				"x": -0.3724574641,
				"y": 0.6448001165,
				"z": -0.7259310589,
				"element": "C" 
			},
			{
				"x": -0.2982159802,
				"y": 0.8911822603,
				"z": -2.1137843299,
				"element": "C" 
			},
			{
				"x": 1.133399288,
				"y": 0.4974916658,
				"z": -3.0342702282,
				"element": "Cl" 
			},
			{
				"x": -1.3895169756,
				"y": 1.4654065884,
				"z": -2.788770097,
				"element": "C" 
			},
			{
				"x": -1.3255631905,
				"y": 1.7815953863,
				"z": -4.5057724462,
				"element": "Cl" 
			},
			{
				"x": -2.5549378722,
				"y": 1.7985905129,
				"z": -2.10310764,
				"element": "C" 
			},
			{
				"x": -2.636124933,
				"y": 1.5585642006,
				"z": -0.7330165369,
				"element": "C" 
			},
			{
				"x": -1.5653210624,
				"y": 0.9927344731,
				"z": -0.0585379081,
				"element": "C" 
			},
			{
				"x": 3.5952478008,
				"y": -1.3948768246,
				"z": 1.481975054,
				"element": "H" 
			},
			{
				"x": -3.3814175355,
				"y": 2.2401777202,
				"z": -2.6480429452,
				"element": "H" 
			},
			{
				"x": -3.5411148193,
				"y": 1.8156560945,
				"z": -0.1923502516,
				"element": "H" 
			},
			{
				"x": -1.6162975386,
				"y": 0.8013728681,
				"z": 1.0060359773,
				"element": "H" 
			}
		],
		 "valence_orbital": [ 
			{
				"type": "occ",
				"energy": -0.30497,
				"method": "rhf"
			},
			{
				"type": "occ",
				"energy": -0.30234,
				"method": "rhf"
			},
			{
				"type": "occ",
				"energy": -0.29697,
				"method": "rhf"
			},
			{
				"type": "occ",
				"energy": -0.26677,
				"method": "rhf"
			},
			{
				"type": "occ",
				"energy": -0.25499,
				"method": "rhf"
			},
			{
				"type": "unocc",
				"energy": -0.08579,
				"method": "rhf"
			},
			{
				"type": "unocc",
				"energy": -0.0727,
				"method": "rhf"
			},
			{
				"type": "unocc",
				"energy": -0.03696,
				"method": "rhf"
			},
			{
				"type": "unocc",
				"energy": -0.01385,
				"method": "rhf"
			},
			{
				"type": "unocc",
				"energy": 0.0009,
				"method": "rhf"
			}
		],
		"cosmo_sigma_profile": { 
			"-0.025": 0.0,
			"-0.024": 0.0,
			"-0.023": 0.0,
			"-0.022": 0.0,
			"-0.021": 0.0,
			"-0.02": 0.0,
			"-0.019": 0.0,
			"-0.018": 0.0,
			"-0.017": 0.0,
			"-0.016": 0.0,
			"-0.015": 0.0,
			"-0.014": 0.0,
			"-0.013": 0.0,
			"-0.012": 0.190489022162,
			"-0.011": 1.38522137062,
			"-0.01": 1.16644039519,
			"-0.009": 2.26753030719,
			"-0.008": 4.54718934262,
			"-0.007": 5.71347600824,
			"-0.006": 8.47646060303,
			"-0.005": 9.72623068326,
			"-0.004": 11.2176309128,
			"-0.003": 19.4124738748,
			"-0.002": 23.2679222398,
			"-0.001": 30.1048944896,
			"0.0": 32.4283177225,
			"0.001": 30.7136592452,
			"0.002": 22.8222128134,
			"0.003": 20.5720768988,
			"0.004": 20.2920449315,
			"0.005": 6.60688395475,
			"0.006": 3.53128201963,
			"0.007": 4.14896956485,
			"0.008": 5.56580052519,
			"0.009": 3.8051756539,
			"0.01": 1.45930433185,
			"0.011": 0.942026642412,
			"0.012": 0.0197309028551,
			"0.013": 0.0,
			"0.014": 0.0,
			"0.015": 0.0,
			"0.016": 0.0,
			"0.017": 0.0,
			"0.018": 0.0,
			"0.019": 0.0,
			"0.02": 0.0,
			"0.021": 0.0,
			"0.022": 0.0,
			"0.023": 0.0,
			"0.024": 0.0,
			"0.025": 0.0
		}
	}
}
