{
	 "smiles": "ON1C2=C(N=C1C1=CC=CC=C1)C(=O)CCC2", 
	 "Tm": 525.15, 
	 "num_atms": 29, 
	 "gaussian": { 
		 "optdone": 1, 
		 "sigma_profile": "yes", 
		 "theory": "DFT", 
		 "functional": "B3LYP", 
		 "basiset": "6-31G**", 
		 "properties": { 
			 "R2extent": 4758.1709, 
			 "electric_dipole_moment_norm": 6.19845352003, 
			 "electric_quadrupole_moment_norm": 20.2496559995, 
			 "total_energy": -762.515518635, 
			 "HOMO_LUMO_gap": 0.18022, 
			 "cosmo_polarized_energy": -22.12, 
			 "cosmo_cavitation_energy": 32.68, 
			 "cosmo_dispersion_energy": -24.06, 
			 "cosmo_repulsion_energy": 1.86, 
			 "cosmo_total_nonelectrostatic_energy": 10.48, 
			 "SMD_solvation_energy": 4.82 
		},
		"coords": [
			{
				"x": 1.1559640943,
				"y": -1.4052253597,
				"z": -1.2459444707,
				"element": "O" 
			},
			{
				"x": 0.415740656,
				"y": -0.3053673491,
				"z": -0.841792914,
				"element": "N" 
			},
			{
				"x": 0.0600492736,
				"y": 0.7037920013,
				"z": -1.6913217267,
				"element": "C" 
			},
			{
				"x": -0.646596184,
				"y": 1.5835210459,
				"z": -0.8915284694,
				"element": "C" 
			},
			{
				"x": -0.7264514731,
				"y": 1.1209197069,
				"z": 0.4030337263,
				"element": "N" 
			},
			{
				"x": -0.0722924955,
				"y": -0.0234024081,
				"z": 0.4346166472,
				"element": "C" 
			},
			{
				"x": 0.0771032355,
				"y": -0.8775188327,
				"z": 1.6192627726,
				"element": "C" 
			},
			{
				"x": 1.0381664022,
				"y": -1.8981131929,
				"z": 1.7270489449,
				"element": "C" 
			},
			{
				"x": 1.1236689661,
				"y": -2.6602593621,
				"z": 2.8926078097,
				"element": "C" 
			},
			{
				"x": 0.262236663,
				"y": -2.4171396182,
				"z": 3.9625583999,
				"element": "C" 
			},
			{
				"x": -0.6881213257,
				"y": -1.3962943029,
				"z": 3.8650197108,
				"element": "C" 
			},
			{
				"x": -0.7827382586,
				"y": -0.6329321802,
				"z": 2.706260369,
				"element": "C" 
			},
			{
				"x": -1.1972055455,
				"y": 2.8388417004,
				"z": -1.4231265038,
				"element": "C" 
			},
			{
				"x": -1.8685736475,
				"y": 3.6270731912,
				"z": -0.7793921388,
				"element": "O" 
			},
			{
				"x": -0.810009093,
				"y": 3.10480362,
				"z": -2.8875191307,
				"element": "C" 
			},
			{
				"x": -0.6549036845,
				"y": 1.8338955017,
				"z": -3.7447886761,
				"element": "C" 
			},
			{
				"x": 0.3603744719,
				"y": 0.8389287091,
				"z": -3.1441000517,
				"element": "C" 
			},
			{
				"x": 0.5180690227,
				"y": -2.1368204212,
				"z": -1.3053920463,
				"element": "H" 
			},
			{
				"x": 1.7311529465,
				"y": -2.0799731777,
				"z": 0.9145837244,
				"element": "H" 
			},
			{
				"x": 1.8745000816,
				"y": -3.4420005479,
				"z": 2.9647492096,
				"element": "H" 
			},
			{
				"x": 0.3328638453,
				"y": -3.0138233316,
				"z": 4.8673417398,
				"element": "H" 
			},
			{
				"x": -1.3595238589,
				"y": -1.196171787,
				"z": 4.6950300181,
				"element": "H" 
			},
			{
				"x": -1.5120917796,
				"y": 0.1648404683,
				"z": 2.6188112602,
				"element": "H" 
			},
			{
				"x": -1.5589330941,
				"y": 3.7805872283,
				"z": -3.3093580873,
				"element": "H" 
			},
			{
				"x": 0.1411366795,
				"y": 3.6578369199,
				"z": -2.8711494082,
				"element": "H" 
			},
			{
				"x": -0.3506219056,
				"y": 2.1031449651,
				"z": -4.76164122,
				"element": "H" 
			},
			{
				"x": -1.6288750242,
				"y": 1.3360604281,
				"z": -3.8257409475,
				"element": "H" 
			},
			{
				"x": 0.3147536384,
				"y": -0.1311756427,
				"z": -3.6518429561,
				"element": "H" 
			},
			{
				"x": 1.3862573931,
				"y": 1.2103720279,
				"z": -3.2823855853,
				"element": "H" 
			}
		],
		 "valence_orbital": [ 
			{
				"type": "occ",
				"energy": -0.27458,
				"method": "rhf"
			},
			{
				"type": "occ",
				"energy": -0.27199,
				"method": "rhf"
			},
			{
				"type": "occ",
				"energy": -0.25566,
				"method": "rhf"
			},
			{
				"type": "occ",
				"energy": -0.23055,
				"method": "rhf"
			},
			{
				"type": "occ",
				"energy": -0.21805,
				"method": "rhf"
			},
			{
				"type": "unocc",
				"energy": -0.03783,
				"method": "rhf"
			},
			{
				"type": "unocc",
				"energy": -0.02528,
				"method": "rhf"
			},
			{
				"type": "unocc",
				"energy": -0.00652,
				"method": "rhf"
			},
			{
				"type": "unocc",
				"energy": 0.02815,
				"method": "rhf"
			},
			{
				"type": "unocc",
				"energy": 0.05406,
				"method": "rhf"
			}
		],
		"cosmo_sigma_profile": { 
			"-0.025": 0.0,
			"-0.024": 0.0,
			"-0.023": 0.0,
			"-0.022": 0.0,
			"-0.021": 0.0,
			"-0.02": 0.243622454357,
			"-0.019": 1.27062069566,
			"-0.018": 1.20322819997,
			"-0.017": 1.01008195179,
			"-0.016": 0.619129011935,
			"-0.015": 0.889676403915,
			"-0.014": 1.07729387853,
			"-0.013": 1.15568775695,
			"-0.012": 1.08371511501,
			"-0.011": 0.808191278015,
			"-0.01": 0.898843196947,
			"-0.009": 1.10604099029,
			"-0.008": 1.12216096575,
			"-0.007": 1.28585134533,
			"-0.006": 9.1738685122,
			"-0.005": 21.5314528751,
			"-0.004": 27.4085219126,
			"-0.003": 27.0237802733,
			"-0.002": 23.8564944721,
			"-0.001": 19.9716613621,
			"0.0": 13.4139543596,
			"0.001": 12.876876704,
			"0.002": 11.7815143739,
			"0.003": 14.5011117236,
			"0.004": 14.2342864197,
			"0.005": 12.9313422516,
			"0.006": 3.8583500242,
			"0.007": 3.89186122346,
			"0.008": 3.86143191718,
			"0.009": 3.28049876049,
			"0.01": 2.45722486665,
			"0.011": 2.8603986174,
			"0.012": 4.77256902043,
			"0.013": 5.64785866936,
			"0.014": 3.53117958372,
			"0.015": 2.38739658353,
			"0.016": 1.12055027456,
			"0.017": 0.0478679656789,
			"0.018": 0.0,
			"0.019": 0.0,
			"0.02": 0.0,
			"0.021": 0.0,
			"0.022": 0.0,
			"0.023": 0.0,
			"0.024": 0.0,
			"0.025": 0.0
		}
	}
}
