{
	 "smiles": "CC(O)CNCCN", 
	 "Tm": 223.15, 
	 "num_atms": 22, 
	 "gaussian": { 
		 "optdone": 1, 
		 "sigma_profile": "yes", 
		 "theory": "DFT", 
		 "functional": "B3LYP", 
		 "basiset": "6-31G**", 
		 "properties": { 
			 "R2extent": 1742.1163, 
			 "electric_dipole_moment_norm": 3.29222619211, 
			 "electric_quadrupole_moment_norm": 4.80402652366, 
			 "total_energy": -383.679683174, 
			 "HOMO_LUMO_gap": 0.29098, 
			 "cosmo_polarized_energy": -9.9, 
			 "cosmo_cavitation_energy": 23.54, 
			 "cosmo_dispersion_energy": -17.27, 
			 "cosmo_repulsion_energy": 1.49, 
			 "cosmo_total_nonelectrostatic_energy": 7.77, 
			 "SMD_solvation_energy": 2.11 
		},
		"coords": [
			{
				"x": -1.7995441535,
				"y": -1.3047853111,
				"z": -1.7656211462,
				"element": "C" 
			},
			{
				"x": -1.6177123637,
				"y": -0.3615127976,
				"z": -0.5856417237,
				"element": "C" 
			},
			{
				"x": -1.6171268864,
				"y": 0.9727281645,
				"z": -1.0998559395,
				"element": "O" 
			},
			{
				"x": -0.3258697143,
				"y": -0.6406199348,
				"z": 0.1971118832,
				"element": "C" 
			},
			{
				"x": -0.0389493139,
				"y": 0.4880080082,
				"z": 1.0950563531,
				"element": "N" 
			},
			{
				"x": 0.8283042232,
				"y": 0.2012953259,
				"z": 2.2393577831,
				"element": "C" 
			},
			{
				"x": 0.0934123872,
				"y": -0.4174316716,
				"z": 3.4341807448,
				"element": "C" 
			},
			{
				"x": -0.2753120825,
				"y": -1.8192718943,
				"z": 3.1953627916,
				"element": "N" 
			},
			{
				"x": -0.983565398,
				"y": -1.1747363954,
				"z": -2.4843444541,
				"element": "H" 
			},
			{
				"x": -1.8057051957,
				"y": -2.3476374524,
				"z": -1.4317074077,
				"element": "H" 
			},
			{
				"x": -2.7420273804,
				"y": -1.097813647,
				"z": -2.2800211909,
				"element": "H" 
			},
			{
				"x": -2.4623578788,
				"y": -0.4821584277,
				"z": 0.1123501495,
				"element": "H" 
			},
			{
				"x": -1.610829743,
				"y": 1.5447447568,
				"z": -0.319166407,
				"element": "H" 
			},
			{
				"x": 0.5028697616,
				"y": -0.8261073814,
				"z": -0.5099074484,
				"element": "H" 
			},
			{
				"x": -0.4613537394,
				"y": -1.5367679183,
				"z": 0.807040743,
				"element": "H" 
			},
			{
				"x": 0.3971128002,
				"y": 1.218724899,
				"z": 0.5404919888,
				"element": "H" 
			},
			{
				"x": 1.689524037,
				"y": -0.4431218458,
				"z": 1.9752788197,
				"element": "H" 
			},
			{
				"x": 1.2506363302,
				"y": 1.155690382,
				"z": 2.5758946695,
				"element": "H" 
			},
			{
				"x": -0.8274797693,
				"y": 0.1537823731,
				"z": 3.5932942636,
				"element": "H" 
			},
			{
				"x": 0.7244625359,
				"y": -0.2777441448,
				"z": 4.3308201867,
				"element": "H" 
			},
			{
				"x": -0.8661087449,
				"y": -2.1578866374,
				"z": 3.9504516827,
				"element": "H" 
			},
			{
				"x": 0.5610202885,
				"y": -2.3996784498,
				"z": 3.2052736584,
				"element": "H" 
			}
		],
		 "valence_orbital": [ 
			{
				"type": "occ",
				"energy": -0.33712,
				"method": "rhf"
			},
			{
				"type": "occ",
				"energy": -0.30576,
				"method": "rhf"
			},
			{
				"type": "occ",
				"energy": -0.25491,
				"method": "rhf"
			},
			{
				"type": "occ",
				"energy": -0.23579,
				"method": "rhf"
			},
			{
				"type": "occ",
				"energy": -0.21656,
				"method": "rhf"
			},
			{
				"type": "unocc",
				"energy": 0.07442,
				"method": "rhf"
			},
			{
				"type": "unocc",
				"energy": 0.09413,
				"method": "rhf"
			},
			{
				"type": "unocc",
				"energy": 0.11114,
				"method": "rhf"
			},
			{
				"type": "unocc",
				"energy": 0.12578,
				"method": "rhf"
			},
			{
				"type": "unocc",
				"energy": 0.13114,
				"method": "rhf"
			}
		],
		"cosmo_sigma_profile": { 
			"-0.025": 0.0,
			"-0.024": 0.0,
			"-0.023": 0.0,
			"-0.022": 0.0,
			"-0.021": 0.0,
			"-0.02": 0.0,
			"-0.019": 0.0,
			"-0.018": 0.0,
			"-0.017": 0.0,
			"-0.016": 0.0,
			"-0.015": 0.0,
			"-0.014": 0.0,
			"-0.013": 0.0567045967235,
			"-0.012": 0.556232126462,
			"-0.011": 0.713038268498,
			"-0.01": 1.54282846183,
			"-0.009": 4.48268253025,
			"-0.008": 4.72131500431,
			"-0.007": 4.67117052695,
			"-0.006": 4.96576571163,
			"-0.005": 5.37330934123,
			"-0.004": 7.26541157098,
			"-0.003": 14.1543626248,
			"-0.002": 25.3321813999,
			"-0.001": 26.7647843495,
			"0.0": 21.7924937785,
			"0.001": 14.3419465137,
			"0.002": 6.50028509026,
			"0.003": 3.70078304338,
			"0.004": 2.24674390349,
			"0.005": 3.16648221351,
			"0.006": 3.15418819305,
			"0.007": 3.16931390725,
			"0.008": 3.10644787917,
			"0.009": 2.14843631783,
			"0.01": 3.48021414319,
			"0.011": 3.03778416997,
			"0.012": 2.40011519153,
			"0.013": 2.90694285742,
			"0.014": 2.6652193428,
			"0.015": 1.87763316077,
			"0.016": 0.0,
			"0.017": 0.0,
			"0.018": 0.0,
			"0.019": 0.0,
			"0.02": 0.0,
			"0.021": 0.0,
			"0.022": 0.0,
			"0.023": 0.0,
			"0.024": 0.0,
			"0.025": 0.0
		}
	}
}
