{
	 "smiles": "O=C(CC#N)NN1CCCCC1=O", 
	 "Tm": 420.15, 
	 "num_atms": 24, 
	 "gaussian": { 
		 "optdone": 1, 
		 "sigma_profile": "yes", 
		 "theory": "DFT", 
		 "functional": "B3LYP", 
		 "basiset": "6-31G**", 
		 "properties": { 
			 "R2extent": 2244.8357, 
			 "electric_dipole_moment_norm": 6.00729888469, 
			 "electric_quadrupole_moment_norm": 7.51373941523, 
			 "total_energy": -626.155160017, 
			 "HOMO_LUMO_gap": 0.24783, 
			 "cosmo_polarized_energy": -20.28, 
			 "cosmo_cavitation_energy": 28.02, 
			 "cosmo_dispersion_energy": -18.9, 
			 "cosmo_repulsion_energy": 1.5, 
			 "cosmo_total_nonelectrostatic_energy": 10.62, 
			 "SMD_solvation_energy": 7.22 
		},
		"coords": [
			{
				"x": -1.2486334284,
				"y": 0.2041775808,
				"z": -2.7829268011,
				"element": "O" 
			},
			{
				"x": -0.4566706653,
				"y": 0.2632942983,
				"z": -1.8653410012,
				"element": "C" 
			},
			{
				"x": 0.4758313402,
				"y": 1.4807482946,
				"z": -1.6887234225,
				"element": "C" 
			},
			{
				"x": 0.3199097085,
				"y": 2.2280591735,
				"z": -0.4411886397,
				"element": "C" 
			},
			{
				"x": 0.2171538812,
				"y": 2.848578906,
				"z": 0.5344642651,
				"element": "N" 
			},
			{
				"x": -0.2531162031,
				"y": -0.8097435811,
				"z": -1.016155618,
				"element": "N" 
			},
			{
				"x": 0.3731636219,
				"y": -0.6451028435,
				"z": 0.2186401918,
				"element": "N" 
			},
			{
				"x": 1.6722186874,
				"y": -1.3213549937,
				"z": 0.4000736861,
				"element": "C" 
			},
			{
				"x": 2.508188074,
				"y": -0.6176978742,
				"z": 1.4909337508,
				"element": "C" 
			},
			{
				"x": 1.6240964705,
				"y": 0.0550658759,
				"z": 2.5675468161,
				"element": "C" 
			},
			{
				"x": 0.2363834447,
				"y": -0.596077088,
				"z": 2.6543518704,
				"element": "C" 
			},
			{
				"x": -0.4886303679,
				"y": -0.5498390964,
				"z": 1.3213384175,
				"element": "C" 
			},
			{
				"x": -1.6927262157,
				"y": -0.442874204,
				"z": 1.1824220167,
				"element": "O" 
			},
			{
				"x": 0.2610996813,
				"y": 2.1402170413,
				"z": -2.5330205511,
				"element": "H" 
			},
			{
				"x": 1.5193155715,
				"y": 1.1536128598,
				"z": -1.768100121,
				"element": "H" 
			},
			{
				"x": -1.031444718,
				"y": -1.4657720216,
				"z": -1.022659865,
				"element": "H" 
			},
			{
				"x": 2.1824004616,
				"y": -1.3049820795,
				"z": -0.5646406221,
				"element": "H" 
			},
			{
				"x": 1.5122328081,
				"y": -2.378542077,
				"z": 0.6574994918,
				"element": "H" 
			},
			{
				"x": 3.1569253149,
				"y": 0.1354866437,
				"z": 1.0332635428,
				"element": "H" 
			},
			{
				"x": 3.1671842146,
				"y": -1.3670580497,
				"z": 1.9421606362,
				"element": "H" 
			},
			{
				"x": 2.1179195881,
				"y": 0.017248052,
				"z": 3.5433273486,
				"element": "H" 
			},
			{
				"x": 1.4867443589,
				"y": 1.1118563286,
				"z": 2.3209403128,
				"element": "H" 
			},
			{
				"x": 0.3176735148,
				"y": -1.6500922982,
				"z": 2.9580374435,
				"element": "H" 
			},
			{
				"x": -0.407319144,
				"y": -0.1035088475,
				"z": 3.3864568513,
				"element": "H" 
			}
		],
		 "valence_orbital": [ 
			{
				"type": "occ",
				"energy": -0.32971,
				"method": "rhf"
			},
			{
				"type": "occ",
				"energy": -0.29692,
				"method": "rhf"
			},
			{
				"type": "occ",
				"energy": -0.28455,
				"method": "rhf"
			},
			{
				"type": "occ",
				"energy": -0.26949,
				"method": "rhf"
			},
			{
				"type": "occ",
				"energy": -0.26027,
				"method": "rhf"
			},
			{
				"type": "unocc",
				"energy": -0.01244,
				"method": "rhf"
			},
			{
				"type": "unocc",
				"energy": -0.00189,
				"method": "rhf"
			},
			{
				"type": "unocc",
				"energy": 0.02821,
				"method": "rhf"
			},
			{
				"type": "unocc",
				"energy": 0.03371,
				"method": "rhf"
			},
			{
				"type": "unocc",
				"energy": 0.05434,
				"method": "rhf"
			}
		],
		"cosmo_sigma_profile": { 
			"-0.025": 0.0,
			"-0.024": 0.0,
			"-0.023": 0.0,
			"-0.022": 0.0,
			"-0.021": 0.0,
			"-0.02": 0.0,
			"-0.019": 0.0,
			"-0.018": 0.0,
			"-0.017": 0.0,
			"-0.016": 0.0,
			"-0.015": 0.00210191735611,
			"-0.014": 0.690217608277,
			"-0.013": 0.872538809542,
			"-0.012": 0.844362666133,
			"-0.011": 1.03222475594,
			"-0.01": 4.1488931335,
			"-0.009": 6.55814154487,
			"-0.008": 5.88438052924,
			"-0.007": 9.0491258604,
			"-0.006": 11.986278904,
			"-0.005": 13.7853947072,
			"-0.004": 18.4996943641,
			"-0.003": 21.236661534,
			"-0.002": 17.5830013404,
			"-0.001": 14.99477128,
			"0.0": 12.9001254079,
			"0.001": 7.28984099046,
			"0.002": 6.46028102478,
			"0.003": 5.44298469339,
			"0.004": 6.68220249781,
			"0.005": 6.31837678845,
			"0.006": 3.45381926316,
			"0.007": 4.65832487097,
			"0.008": 6.2908113956,
			"0.009": 5.10465516143,
			"0.01": 5.39918033011,
			"0.011": 8.80348282526,
			"0.012": 10.1067099799,
			"0.013": 4.37028031854,
			"0.014": 0.645131416234,
			"0.015": 0.0,
			"0.016": 0.0,
			"0.017": 0.0,
			"0.018": 0.0,
			"0.019": 0.0,
			"0.02": 0.0,
			"0.021": 0.0,
			"0.022": 0.0,
			"0.023": 0.0,
			"0.024": 0.0,
			"0.025": 0.0
		}
	}
}
