{
	 "smiles": "CC1=C(F)C=CC(O)=C1", 
	 "Tm": 305.15, 
	 "num_atms": 16, 
	 "gaussian": { 
		 "optdone": 1, 
		 "sigma_profile": "yes", 
		 "theory": "DFT", 
		 "functional": "B3LYP", 
		 "basiset": "6-31G**", 
		 "properties": { 
			 "R2extent": 1575.4794, 
			 "electric_dipole_moment_norm": 1.97624223465, 
			 "electric_quadrupole_moment_norm": 7.9938096825, 
			 "total_energy": -446.022998709, 
			 "HOMO_LUMO_gap": 0.20773, 
			 "cosmo_polarized_energy": -7.9, 
			 "cosmo_cavitation_energy": 20.23, 
			 "cosmo_dispersion_energy": -14.97, 
			 "cosmo_repulsion_energy": 1.21, 
			 "cosmo_total_nonelectrostatic_energy": 6.46, 
			 "SMD_solvation_energy": 4.38 
		},
		"coords": [
			{
				"x": 1.0562764231,
				"y": -0.330332496,
				"z": -3.3659931045,
				"element": "C" 
			},
			{
				"x": 0.3164973585,
				"y": -0.4167771329,
				"z": -2.0557846024,
				"element": "C" 
			},
			{
				"x": 0.5469868508,
				"y": -1.4826164478,
				"z": -1.1853907643,
				"element": "C" 
			},
			{
				"x": 1.4486139921,
				"y": -2.4287682591,
				"z": -1.5517905373,
				"element": "F" 
			},
			{
				"x": -0.1071542491,
				"y": -1.6100123672,
				"z": 0.0326523159,
				"element": "C" 
			},
			{
				"x": -1.0341719584,
				"y": -0.6427233417,
				"z": 0.4158032733,
				"element": "C" 
			},
			{
				"x": -1.2900475094,
				"y": 0.4391240256,
				"z": -0.4319411683,
				"element": "C" 
			},
			{
				"x": -2.2084065345,
				"y": 1.3644138913,
				"z": -0.0141258775,
				"element": "O" 
			},
			{
				"x": -0.6176536456,
				"y": 0.5450733181,
				"z": -1.6547290703,
				"element": "C" 
			},
			{
				"x": 0.762181518,
				"y": 0.5608181934,
				"z": -3.9259941842,
				"element": "H" 
			},
			{
				"x": 2.1394040358,
				"y": -0.2932254805,
				"z": -3.2075030812,
				"element": "H" 
			},
			{
				"x": 0.8589726216,
				"y": -1.2080322986,
				"z": -3.990803367,
				"element": "H" 
			},
			{
				"x": 0.1138821308,
				"y": -2.4613335587,
				"z": 0.6675651046,
				"element": "H" 
			},
			{
				"x": -1.5623271383,
				"y": -0.7122825886,
				"z": 1.36035851,
				"element": "H" 
			},
			{
				"x": -2.2902508101,
				"y": 2.0539199445,
				"z": -0.6851596899,
				"element": "H" 
			},
			{
				"x": -0.8205030854,
				"y": 1.3894545984,
				"z": -2.3113637569,
				"element": "H" 
			}
		],
		 "valence_orbital": [ 
			{
				"type": "occ",
				"energy": -0.36019,
				"method": "rhf"
			},
			{
				"type": "occ",
				"energy": -0.33819,
				"method": "rhf"
			},
			{
				"type": "occ",
				"energy": -0.31968,
				"method": "rhf"
			},
			{
				"type": "occ",
				"energy": -0.25188,
				"method": "rhf"
			},
			{
				"type": "occ",
				"energy": -0.21366,
				"method": "rhf"
			},
			{
				"type": "unocc",
				"energy": -0.00593,
				"method": "rhf"
			},
			{
				"type": "unocc",
				"energy": 0.01796,
				"method": "rhf"
			},
			{
				"type": "unocc",
				"energy": 0.06835,
				"method": "rhf"
			},
			{
				"type": "unocc",
				"energy": 0.09676,
				"method": "rhf"
			},
			{
				"type": "unocc",
				"energy": 0.11026,
				"method": "rhf"
			}
		],
		"cosmo_sigma_profile": { 
			"-0.025": 0.0,
			"-0.024": 0.0,
			"-0.023": 0.0,
			"-0.022": 0.0,
			"-0.021": 0.0,
			"-0.02": 0.0,
			"-0.019": 0.0,
			"-0.018": 0.273777659553,
			"-0.017": 1.10952184684,
			"-0.016": 1.14081681363,
			"-0.015": 1.12381899352,
			"-0.014": 1.10757103479,
			"-0.013": 0.674554336525,
			"-0.012": 0.295529302027,
			"-0.011": 0.93935621588,
			"-0.01": 2.00603472339,
			"-0.009": 1.18503987371,
			"-0.008": 0.656991420921,
			"-0.007": 2.68378376002,
			"-0.006": 5.5593621815,
			"-0.005": 7.91982548205,
			"-0.004": 10.5771896808,
			"-0.003": 9.24642463154,
			"-0.002": 9.44186784456,
			"-0.001": 12.0734611929,
			"0.0": 12.4606970971,
			"0.001": 10.324914,
			"0.002": 11.7972568857,
			"0.003": 12.3575278542,
			"0.004": 18.2635121807,
			"0.005": 16.4663907612,
			"0.006": 2.14677400553,
			"0.007": 1.52718412132,
			"0.008": 1.3467356723,
			"0.009": 1.42372282501,
			"0.01": 1.59733710877,
			"0.011": 2.04802541659,
			"0.012": 0.969897417474,
			"0.013": 0.0,
			"0.014": 0.0,
			"0.015": 0.0,
			"0.016": 0.0,
			"0.017": 0.0,
			"0.018": 0.0,
			"0.019": 0.0,
			"0.02": 0.0,
			"0.021": 0.0,
			"0.022": 0.0,
			"0.023": 0.0,
			"0.024": 0.0,
			"0.025": 0.0
		}
	}
}
