{
	 "smiles": "NC1=CC=C(C=C1)N1CCNC(=O)C1", 
	 "Tm": 441.15, 
	 "num_atms": 27, 
	 "gaussian": { 
		 "optdone": 1, 
		 "sigma_profile": "yes", 
		 "theory": "DFT", 
		 "functional": "B3LYP", 
		 "basiset": "6-31G**", 
		 "properties": { 
			 "R2extent": 3170.0721, 
			 "electric_dipole_moment_norm": 3.72744855632, 
			 "electric_quadrupole_moment_norm": 18.686607598, 
			 "total_energy": -628.380311111, 
			 "HOMO_LUMO_gap": 0.17979, 
			 "cosmo_polarized_energy": -17.42, 
			 "cosmo_cavitation_energy": 29.14, 
			 "cosmo_dispersion_energy": -21.52, 
			 "cosmo_repulsion_energy": 1.7, 
			 "cosmo_total_nonelectrostatic_energy": 9.32, 
			 "SMD_solvation_energy": 2.76 
		},
		"coords": [
			{
				"x": 2.9367670285,
				"y": 1.5292597924,
				"z": -2.6824062155,
				"element": "N" 
			},
			{
				"x": 2.1293491554,
				"y": 1.2795032573,
				"z": -1.5640245879,
				"element": "C" 
			},
			{
				"x": 1.7413810429,
				"y": 2.3239291153,
				"z": -0.7062682657,
				"element": "C" 
			},
			{
				"x": 0.904146857,
				"y": 2.0846605245,
				"z": 0.3760897337,
				"element": "C" 
			},
			{
				"x": 0.3918557206,
				"y": 0.8019752937,
				"z": 0.6383070857,
				"element": "C" 
			},
			{
				"x": 0.7736671372,
				"y": -0.237574901,
				"z": -0.2233683958,
				"element": "C" 
			},
			{
				"x": 1.6361394672,
				"y": -0.0040663366,
				"z": -1.2954089898,
				"element": "C" 
			},
			{
				"x": -0.4497582969,
				"y": 0.6191011842,
				"z": 1.7791706985,
				"element": "N" 
			},
			{
				"x": -1.7319073698,
				"y": 1.3308131236,
				"z": 1.7418699975,
				"element": "C" 
			},
			{
				"x": -2.7018208608,
				"y": 0.6918631252,
				"z": 0.7414855979,
				"element": "C" 
			},
			{
				"x": -2.764386082,
				"y": -0.7531634508,
				"z": 0.9576019095,
				"element": "N" 
			},
			{
				"x": -1.7820571113,
				"y": -1.5229482701,
				"z": 1.5211275932,
				"element": "C" 
			},
			{
				"x": -1.8214838113,
				"y": -2.7469966361,
				"z": 1.5167259905,
				"element": "O" 
			},
			{
				"x": -0.6674863424,
				"y": -0.7494421529,
				"z": 2.2366228832,
				"element": "C" 
			},
			{
				"x": 3.542349934,
				"y": 2.3340968183,
				"z": -2.5893701821,
				"element": "H" 
			},
			{
				"x": 3.4522493836,
				"y": 0.7243435893,
				"z": -3.0131033536,
				"element": "H" 
			},
			{
				"x": 2.1168203333,
				"y": 3.3294011098,
				"z": -0.8821443749,
				"element": "H" 
			},
			{
				"x": 0.6575265125,
				"y": 2.9012871785,
				"z": 1.048647637,
				"element": "H" 
			},
			{
				"x": 0.4045239669,
				"y": -1.246266987,
				"z": -0.0700458545,
				"element": "H" 
			},
			{
				"x": 1.9156966948,
				"y": -0.8324913153,
				"z": -1.942091165,
				"element": "H" 
			},
			{
				"x": -1.5735190102,
				"y": 2.3782312844,
				"z": 1.47639029,
				"element": "H" 
			},
			{
				"x": -2.1627210272,
				"y": 1.3048235167,
				"z": 2.7503499205,
				"element": "H" 
			},
			{
				"x": -2.3658641017,
				"y": 0.9132464335,
				"z": -0.2815635743,
				"element": "H" 
			},
			{
				"x": -3.7047146037,
				"y": 1.1189173919,
				"z": 0.8623527442,
				"element": "H" 
			},
			{
				"x": -3.4596514325,
				"y": -1.287765799,
				"z": 0.4516013088,
				"element": "H" 
			},
			{
				"x": 0.2511209325,
				"y": -1.3326549003,
				"z": 2.1637438361,
				"element": "H" 
			},
			{
				"x": -0.9403241164,
				"y": -0.7194819896,
				"z": 3.301007733,
				"element": "H" 
			}
		],
		 "valence_orbital": [ 
			{
				"type": "occ",
				"energy": -0.26573,
				"method": "rhf"
			},
			{
				"type": "occ",
				"energy": -0.24707,
				"method": "rhf"
			},
			{
				"type": "occ",
				"energy": -0.24522,
				"method": "rhf"
			},
			{
				"type": "occ",
				"energy": -0.22712,
				"method": "rhf"
			},
			{
				"type": "occ",
				"energy": -0.17952,
				"method": "rhf"
			},
			{
				"type": "unocc",
				"energy": 0.00027,
				"method": "rhf"
			},
			{
				"type": "unocc",
				"energy": 0.02128,
				"method": "rhf"
			},
			{
				"type": "unocc",
				"energy": 0.03246,
				"method": "rhf"
			},
			{
				"type": "unocc",
				"energy": 0.08216,
				"method": "rhf"
			},
			{
				"type": "unocc",
				"energy": 0.08321,
				"method": "rhf"
			}
		],
		"cosmo_sigma_profile": { 
			"-0.025": 0.0,
			"-0.024": 0.0,
			"-0.023": 0.0,
			"-0.022": 0.0,
			"-0.021": 0.0,
			"-0.02": 0.0,
			"-0.019": 0.0,
			"-0.018": 0.0,
			"-0.017": 0.0,
			"-0.016": 0.0,
			"-0.015": 0.0,
			"-0.014": 0.138709402172,
			"-0.013": 1.23141863014,
			"-0.012": 2.84658809,
			"-0.011": 3.7192354225,
			"-0.01": 3.44956468057,
			"-0.009": 3.86611876187,
			"-0.008": 4.35286444918,
			"-0.007": 4.482052438,
			"-0.006": 12.7898957642,
			"-0.005": 20.7985370917,
			"-0.004": 21.4544981817,
			"-0.003": 21.3696314747,
			"-0.002": 15.4941867774,
			"-0.001": 11.3466867941,
			"0.0": 9.42244399707,
			"0.001": 9.82546635896,
			"0.002": 8.91240487063,
			"0.003": 7.99911756686,
			"0.004": 7.05840980285,
			"0.005": 10.473655346,
			"0.006": 10.9819200025,
			"0.007": 10.1167333326,
			"0.008": 2.81931550419,
			"0.009": 2.07561207098,
			"0.01": 2.11765721044,
			"0.011": 3.25245201774,
			"0.012": 2.70297667327,
			"0.013": 3.59636528656,
			"0.014": 6.54020686783,
			"0.015": 3.50778248826,
			"0.016": 0.368334497905,
			"0.017": 0.0,
			"0.018": 0.0,
			"0.019": 0.0,
			"0.02": 0.0,
			"0.021": 0.0,
			"0.022": 0.0,
			"0.023": 0.0,
			"0.024": 0.0,
			"0.025": 0.0
		}
	}
}
