{
	 "smiles": "CC(C)(C)OC(=O)ON=C(C#N)C1=CC=CC=C1", 
	 "Tm": 360.65, 
	 "num_atms": 32, 
	 "gaussian": { 
		 "optdone": 1, 
		 "sigma_profile": "yes", 
		 "theory": "DFT", 
		 "functional": "B3LYP", 
		 "basiset": "6-31G**", 
		 "properties": { 
			 "R2extent": 6685.6743, 
			 "electric_dipole_moment_norm": 6.45876972186, 
			 "electric_quadrupole_moment_norm": 21.9606062043, 
			 "total_energy": -838.93608811, 
			 "HOMO_LUMO_gap": 0.17668, 
			 "cosmo_polarized_energy": -12.62, 
			 "cosmo_cavitation_energy": 37.58, 
			 "cosmo_dispersion_energy": -25.86, 
			 "cosmo_repulsion_energy": 2.02, 
			 "cosmo_total_nonelectrostatic_energy": 13.74, 
			 "SMD_solvation_energy": 9.0 
		},
		"coords": [
			{
				"x": -0.720200674,
				"y": -3.5056330254,
				"z": -0.0889046866,
				"element": "C" 
			},
			{
				"x": -0.6010385928,
				"y": -2.56938443,
				"z": 1.1140388867,
				"element": "C" 
			},
			{
				"x": 0.5391083281,
				"y": -2.9998662131,
				"z": 2.0399188872,
				"element": "C" 
			},
			{
				"x": -1.9376610773,
				"y": -2.4372645713,
				"z": 1.8478405869,
				"element": "C" 
			},
			{
				"x": -0.2574485607,
				"y": -1.274934838,
				"z": 0.471681485,
				"element": "O" 
			},
			{
				"x": -0.0645460479,
				"y": -0.1899977896,
				"z": 1.2150334814,
				"element": "C" 
			},
			{
				"x": -0.1272177301,
				"y": -0.0433489708,
				"z": 2.4042485137,
				"element": "O" 
			},
			{
				"x": 0.2439683423,
				"y": 0.802244129,
				"z": 0.291325957,
				"element": "O" 
			},
			{
				"x": 0.4465238634,
				"y": 2.0335174606,
				"z": 0.9017953581,
				"element": "N" 
			},
			{
				"x": 0.7622597194,
				"y": 2.9616079767,
				"z": 0.0527611464,
				"element": "C" 
			},
			{
				"x": 0.9688449793,
				"y": 4.2171216139,
				"z": 0.749728919,
				"element": "C" 
			},
			{
				"x": 1.1410170512,
				"y": 5.2370313519,
				"z": 1.2785528691,
				"element": "N" 
			},
			{
				"x": 0.9467817122,
				"y": 2.9719179217,
				"z": -1.419253121,
				"element": "C" 
			},
			{
				"x": 0.5595268554,
				"y": 1.9101172807,
				"z": -2.2629764073,
				"element": "C" 
			},
			{
				"x": 0.7568250527,
				"y": 2.0021272891,
				"z": -3.6388071309,
				"element": "C" 
			},
			{
				"x": 1.3433793258,
				"y": 3.1364397918,
				"z": -4.2022725734,
				"element": "C" 
			},
			{
				"x": 1.7302056394,
				"y": 4.1935025537,
				"z": -3.3772598577,
				"element": "C" 
			},
			{
				"x": 1.5300813617,
				"y": 4.1153377515,
				"z": -2.0025781268,
				"element": "C" 
			},
			{
				"x": -1.5017271486,
				"y": -3.1609398462,
				"z": -0.7718212573,
				"element": "H" 
			},
			{
				"x": -0.9751800422,
				"y": -4.5140160984,
				"z": 0.2493445436,
				"element": "H" 
			},
			{
				"x": 0.2242569988,
				"y": -3.5522627417,
				"z": -0.638202988,
				"element": "H" 
			},
			{
				"x": 0.6420184716,
				"y": -2.3193124016,
				"z": 2.8858878982,
				"element": "H" 
			},
			{
				"x": 1.4852725658,
				"y": -3.0328859783,
				"z": 1.4911715821,
				"element": "H" 
			},
			{
				"x": 0.3339449694,
				"y": -4.004183382,
				"z": 2.4233608285,
				"element": "H" 
			},
			{
				"x": -1.8611461289,
				"y": -1.7496152422,
				"z": 2.6908430501,
				"element": "H" 
			},
			{
				"x": -2.2420362393,
				"y": -3.4186878739,
				"z": 2.2245918173,
				"element": "H" 
			},
			{
				"x": -2.7147879652,
				"y": -2.0799851548,
				"z": 1.1652633992,
				"element": "H" 
			},
			{
				"x": 0.1061766807,
				"y": 1.0227282737,
				"z": -1.8487945175,
				"element": "H" 
			},
			{
				"x": 0.4484746212,
				"y": 1.176971415,
				"z": -4.2737755136,
				"element": "H" 
			},
			{
				"x": 1.4958253656,
				"y": 3.1968325645,
				"z": -5.2758743682,
				"element": "H" 
			},
			{
				"x": 2.1858817325,
				"y": 5.0825668327,
				"z": -3.8021455778,
				"element": "H" 
			},
			{
				"x": 1.8291165705,
				"y": 4.9470543508,
				"z": -1.3738230834,
				"element": "H" 
			}
		],
		 "valence_orbital": [ 
			{
				"type": "occ",
				"energy": -0.30663,
				"method": "rhf"
			},
			{
				"type": "occ",
				"energy": -0.30391,
				"method": "rhf"
			},
			{
				"type": "occ",
				"energy": -0.29351,
				"method": "rhf"
			},
			{
				"type": "occ",
				"energy": -0.27003,
				"method": "rhf"
			},
			{
				"type": "occ",
				"energy": -0.25932,
				"method": "rhf"
			},
			{
				"type": "unocc",
				"energy": -0.08264,
				"method": "rhf"
			},
			{
				"type": "unocc",
				"energy": -0.02024,
				"method": "rhf"
			},
			{
				"type": "unocc",
				"energy": -0.00497,
				"method": "rhf"
			},
			{
				"type": "unocc",
				"energy": 0.01601,
				"method": "rhf"
			},
			{
				"type": "unocc",
				"energy": 0.03016,
				"method": "rhf"
			}
		],
		"cosmo_sigma_profile": { 
			"-0.025": 0.0,
			"-0.024": 0.0,
			"-0.023": 0.0,
			"-0.022": 0.0,
			"-0.021": 0.0,
			"-0.02": 0.0,
			"-0.019": 0.0,
			"-0.018": 0.0,
			"-0.017": 0.0,
			"-0.016": 0.0,
			"-0.015": 0.0,
			"-0.014": 0.0,
			"-0.013": 0.0,
			"-0.012": 0.0,
			"-0.011": 0.0,
			"-0.01": 0.0,
			"-0.009": 0.0,
			"-0.008": 0.0389984346148,
			"-0.007": 4.58506228944,
			"-0.006": 9.72088256309,
			"-0.005": 20.9474944017,
			"-0.004": 30.6727312227,
			"-0.003": 29.5491454582,
			"-0.002": 31.6178567026,
			"-0.001": 32.3832545836,
			"0.0": 33.2194530459,
			"0.001": 18.2641313428,
			"0.002": 17.9867765243,
			"0.003": 20.1334299297,
			"0.004": 9.23565852647,
			"0.005": 5.76185523642,
			"0.006": 5.89665849524,
			"0.007": 5.651433683,
			"0.008": 4.99260292604,
			"0.009": 4.70590512446,
			"0.01": 5.25438893766,
			"0.011": 5.11292076149,
			"0.012": 2.09491153445,
			"0.013": 1.23135914993,
			"0.014": 0.999347864772,
			"0.015": 0.0770325913095,
			"0.016": 0.0,
			"0.017": 0.0,
			"0.018": 0.0,
			"0.019": 0.0,
			"0.02": 0.0,
			"0.021": 0.0,
			"0.022": 0.0,
			"0.023": 0.0,
			"0.024": 0.0,
			"0.025": 0.0
		}
	}
}
