{
	 "smiles": "CC1=C(N)C=CC(=C1)C(=O)NC1CCCC1", 
	 "Tm": 420.15, 
	 "num_atms": 34, 
	 "gaussian": { 
		 "optdone": 1, 
		 "sigma_profile": "yes", 
		 "theory": "DFT", 
		 "functional": "B3LYP", 
		 "basiset": "6-31G**", 
		 "properties": { 
			 "R2extent": 4669.2163, 
			 "electric_dipole_moment_norm": 5.24759369711, 
			 "electric_quadrupole_moment_norm": 17.8705165001, 
			 "total_energy": -690.992203428, 
			 "HOMO_LUMO_gap": 0.19072, 
			 "cosmo_polarized_energy": -16.62, 
			 "cosmo_cavitation_energy": 35.73, 
			 "cosmo_dispersion_energy": -25.15, 
			 "cosmo_repulsion_energy": 2.0, 
			 "cosmo_total_nonelectrostatic_energy": 12.58, 
			 "SMD_solvation_energy": 5.43 
		},
		"coords": [
			{
				"x": -2.454721802,
				"y": -2.678684916,
				"z": 0.7402796517,
				"element": "C" 
			},
			{
				"x": -1.1967898919,
				"y": -1.9486231734,
				"z": 1.1416791594,
				"element": "C" 
			},
			{
				"x": -0.6412596228,
				"y": -2.1444557689,
				"z": 2.4284700501,
				"element": "C" 
			},
			{
				"x": -1.2397090973,
				"y": -3.0258563712,
				"z": 3.3249184308,
				"element": "N" 
			},
			{
				"x": 0.5591163999,
				"y": -1.4943994855,
				"z": 2.7673715135,
				"element": "C" 
			},
			{
				"x": 1.1981825824,
				"y": -0.6634258384,
				"z": 1.8592902812,
				"element": "C" 
			},
			{
				"x": 0.6426706257,
				"y": -0.4247191193,
				"z": 0.5948925942,
				"element": "C" 
			},
			{
				"x": -0.5457032631,
				"y": -1.0891171712,
				"z": 0.2568954905,
				"element": "C" 
			},
			{
				"x": 1.4135283667,
				"y": 0.4359000233,
				"z": -0.3546422273,
				"element": "C" 
			},
			{
				"x": 2.6425609188,
				"y": 0.4644416401,
				"z": -0.3294726055,
				"element": "O" 
			},
			{
				"x": 0.7219979904,
				"y": 1.1654407847,
				"z": -1.3058204941,
				"element": "N" 
			},
			{
				"x": -0.5883734695,
				"y": 1.7940017262,
				"z": -1.177707658,
				"element": "C" 
			},
			{
				"x": -1.4716266591,
				"y": 1.65445507,
				"z": -2.4359197433,
				"element": "C" 
			},
			{
				"x": -2.5295648397,
				"y": 2.7803222307,
				"z": -2.3190335474,
				"element": "C" 
			},
			{
				"x": -1.9896112084,
				"y": 3.7675856678,
				"z": -1.2370303388,
				"element": "C" 
			},
			{
				"x": -0.5440922814,
				"y": 3.3202881004,
				"z": -0.958332582,
				"element": "C" 
			},
			{
				"x": -2.7155628685,
				"y": -2.4687750213,
				"z": -0.3000161689,
				"element": "H" 
			},
			{
				"x": -3.3183635896,
				"y": -2.3852233015,
				"z": 1.354855752,
				"element": "H" 
			},
			{
				"x": -2.3404862386,
				"y": -3.7647845422,
				"z": 0.8458368348,
				"element": "H" 
			},
			{
				"x": -0.9502433534,
				"y": -2.9284705179,
				"z": 4.2878184122,
				"element": "H" 
			},
			{
				"x": -2.2370914832,
				"y": -3.1525181483,
				"z": 3.2320830045,
				"element": "H" 
			},
			{
				"x": 0.9923888557,
				"y": -1.6605593931,
				"z": 3.7510352819,
				"element": "H" 
			},
			{
				"x": 2.1386601465,
				"y": -0.1856068711,
				"z": 2.1125650998,
				"element": "H" 
			},
			{
				"x": -0.9614633006,
				"y": -0.9655991136,
				"z": -0.7393234645,
				"element": "H" 
			},
			{
				"x": 1.3771958641,
				"y": 1.6694256109,
				"z": -1.8948596869,
				"element": "H" 
			},
			{
				"x": -1.0929288407,
				"y": 1.3357043148,
				"z": -0.3233832668,
				"element": "H" 
			},
			{
				"x": -0.8406429199,
				"y": 1.8067042154,
				"z": -3.3203477141,
				"element": "H" 
			},
			{
				"x": -1.9100053735,
				"y": 0.6560377834,
				"z": -2.5299817748,
				"element": "H" 
			},
			{
				"x": -3.5046032642,
				"y": 2.3806714439,
				"z": -2.0232671519,
				"element": "H" 
			},
			{
				"x": -2.6781516164,
				"y": 3.2799186081,
				"z": -3.2809515835,
				"element": "H" 
			},
			{
				"x": -2.5854724468,
				"y": 3.6833165803,
				"z": -0.3212562085,
				"element": "H" 
			},
			{
				"x": -2.0492443059,
				"y": 4.8122908246,
				"z": -1.5556459956,
				"element": "H" 
			},
			{
				"x": -0.1838331825,
				"y": 3.5936652792,
				"z": 0.0381151114,
				"element": "H" 
			},
			{
				"x": 0.1448431686,
				"y": 3.7656488492,
				"z": -1.689714456,
				"element": "H" 
			}
		],
		 "valence_orbital": [ 
			{
				"type": "occ",
				"energy": -0.30322,
				"method": "rhf"
			},
			{
				"type": "occ",
				"energy": -0.24431,
				"method": "rhf"
			},
			{
				"type": "occ",
				"energy": -0.24182,
				"method": "rhf"
			},
			{
				"type": "occ",
				"energy": -0.22598,
				"method": "rhf"
			},
			{
				"type": "occ",
				"energy": -0.20253,
				"method": "rhf"
			},
			{
				"type": "unocc",
				"energy": -0.01181,
				"method": "rhf"
			},
			{
				"type": "unocc",
				"energy": 0.00405,
				"method": "rhf"
			},
			{
				"type": "unocc",
				"energy": 0.06645,
				"method": "rhf"
			},
			{
				"type": "unocc",
				"energy": 0.0722,
				"method": "rhf"
			},
			{
				"type": "unocc",
				"energy": 0.07686,
				"method": "rhf"
			}
		],
		"cosmo_sigma_profile": { 
			"-0.025": 0.0,
			"-0.024": 0.0,
			"-0.023": 0.0,
			"-0.022": 0.0,
			"-0.021": 0.0,
			"-0.02": 0.0,
			"-0.019": 0.0,
			"-0.018": 0.0,
			"-0.017": 0.0,
			"-0.016": 0.0,
			"-0.015": 0.0,
			"-0.014": 0.0,
			"-0.013": 0.608245134429,
			"-0.012": 2.37654290248,
			"-0.011": 3.60634767972,
			"-0.01": 3.87786993159,
			"-0.009": 4.47046863922,
			"-0.008": 3.97397931574,
			"-0.007": 4.23545982977,
			"-0.006": 5.00003025651,
			"-0.005": 8.4236278766,
			"-0.004": 15.3370781826,
			"-0.003": 25.7451649807,
			"-0.002": 33.2831788924,
			"-0.001": 35.4949343077,
			"0.0": 29.600064909,
			"0.001": 25.8376028842,
			"0.002": 12.010396958,
			"0.003": 8.33846829462,
			"0.004": 10.5768759044,
			"0.005": 11.7954747317,
			"0.006": 9.21894506939,
			"0.007": 2.25399999763,
			"0.008": 2.12641218355,
			"0.009": 2.60316636205,
			"0.01": 2.14904215003,
			"0.011": 2.65341948012,
			"0.012": 1.9030224857,
			"0.013": 2.97352895333,
			"0.014": 5.45711326351,
			"0.015": 3.18586866122,
			"0.016": 0.0804358440321,
			"0.017": 0.0,
			"0.018": 0.0,
			"0.019": 0.0,
			"0.02": 0.0,
			"0.021": 0.0,
			"0.022": 0.0,
			"0.023": 0.0,
			"0.024": 0.0,
			"0.025": 0.0
		}
	}
}
