{
	 "smiles": "COC1=C2C(=O)C(=O)C2=CC=C1", 
	 "Tm": 392.15, 
	 "num_atms": 18, 
	 "gaussian": { 
		 "optdone": 1, 
		 "sigma_profile": "yes", 
		 "theory": "DFT", 
		 "functional": "B3LYP", 
		 "basiset": "6-31G**", 
		 "properties": { 
			 "R2extent": 1969.8592, 
			 "electric_dipole_moment_norm": 4.71463832971, 
			 "electric_quadrupole_moment_norm": 14.2918714541, 
			 "total_energy": -572.182306738, 
			 "HOMO_LUMO_gap": 0.15263, 
			 "cosmo_polarized_energy": -10.55, 
			 "cosmo_cavitation_energy": 23.34, 
			 "cosmo_dispersion_energy": -17.05, 
			 "cosmo_repulsion_energy": 1.35, 
			 "cosmo_total_nonelectrostatic_energy": 7.65, 
			 "SMD_solvation_energy": 6.18 
		},
		"coords": [
			{
				"x": 2.1237081032,
				"y": -1.4808644395,
				"z": 0.2448465854,
				"element": "C" 
			},
			{
				"x": 0.7775104749,
				"y": -1.9748145565,
				"z": 0.2563334001,
				"element": "O" 
			},
			{
				"x": -0.2066702782,
				"y": -1.114525968,
				"z": -0.0575181658,
				"element": "C" 
			},
			{
				"x": -0.0628197306,
				"y": 0.2407281896,
				"z": -0.4023434249,
				"element": "C" 
			},
			{
				"x": 0.8974201292,
				"y": 1.3838799819,
				"z": -0.6193190418,
				"element": "C" 
			},
			{
				"x": 2.0853917375,
				"y": 1.5670103424,
				"z": -0.5629276207,
				"element": "O" 
			},
			{
				"x": -0.3795954773,
				"y": 2.2642991213,
				"z": -0.9642222767,
				"element": "C" 
			},
			{
				"x": -0.5862827152,
				"y": 3.4036264113,
				"z": -1.2831262609,
				"element": "O" 
			},
			{
				"x": -1.1976276712,
				"y": 1.0274327786,
				"z": -0.7100376104,
				"element": "C" 
			},
			{
				"x": -2.4961930697,
				"y": 0.5439580346,
				"z": -0.6971689344,
				"element": "C" 
			},
			{
				"x": -2.6275633807,
				"y": -0.8085544726,
				"z": -0.3520174306,
				"element": "C" 
			},
			{
				"x": -1.5232886844,
				"y": -1.612327578,
				"z": -0.0424865939,
				"element": "C" 
			},
			{
				"x": 2.2500859042,
				"y": -0.6669483355,
				"z": 0.9639548047,
				"element": "H" 
			},
			{
				"x": 2.4013167972,
				"y": -1.1189599738,
				"z": -0.7488862959,
				"element": "H" 
			},
			{
				"x": 2.7499408782,
				"y": -2.3281846337,
				"z": 0.5237445751,
				"element": "H" 
			},
			{
				"x": -3.355384398,
				"y": 1.1606198281,
				"z": -0.935711182,
				"element": "H" 
			},
			{
				"x": -3.6152152576,
				"y": -1.260301459,
				"z": -0.3200616907,
				"element": "H" 
			},
			{
				"x": -1.6654333616,
				"y": -2.6558732711,
				"z": 0.2202471632,
				"element": "H" 
			}
		],
		 "valence_orbital": [ 
			{
				"type": "occ",
				"energy": -0.34515,
				"method": "rhf"
			},
			{
				"type": "occ",
				"energy": -0.31772,
				"method": "rhf"
			},
			{
				"type": "occ",
				"energy": -0.28629,
				"method": "rhf"
			},
			{
				"type": "occ",
				"energy": -0.25184,
				"method": "rhf"
			},
			{
				"type": "occ",
				"energy": -0.23964,
				"method": "rhf"
			},
			{
				"type": "unocc",
				"energy": -0.08701,
				"method": "rhf"
			},
			{
				"type": "unocc",
				"energy": -0.062,
				"method": "rhf"
			},
			{
				"type": "unocc",
				"energy": 0.01542,
				"method": "rhf"
			},
			{
				"type": "unocc",
				"energy": 0.05841,
				"method": "rhf"
			},
			{
				"type": "unocc",
				"energy": 0.08011,
				"method": "rhf"
			}
		],
		"cosmo_sigma_profile": { 
			"-0.025": 0.0,
			"-0.024": 0.0,
			"-0.023": 0.0,
			"-0.022": 0.0,
			"-0.021": 0.0,
			"-0.02": 0.0,
			"-0.019": 0.0,
			"-0.018": 0.0,
			"-0.017": 0.0,
			"-0.016": 0.0,
			"-0.015": 0.0,
			"-0.014": 0.0,
			"-0.013": 0.0,
			"-0.012": 0.0,
			"-0.011": 0.0,
			"-0.01": 0.0,
			"-0.009": 0.0182144601236,
			"-0.008": 4.10134808429,
			"-0.007": 9.28006102247,
			"-0.006": 13.951147173,
			"-0.005": 15.1839443336,
			"-0.004": 14.693889263,
			"-0.003": 16.0999970004,
			"-0.002": 12.6360743996,
			"-0.001": 14.0130018724,
			"0.0": 15.1200542912,
			"0.001": 14.1029148861,
			"0.002": 9.4909793885,
			"0.003": 4.21938366284,
			"0.004": 4.76696849014,
			"0.005": 4.74106483996,
			"0.006": 4.38238534449,
			"0.007": 4.85952282894,
			"0.008": 6.08937551431,
			"0.009": 6.73936710616,
			"0.01": 9.13954084667,
			"0.011": 4.54981109053,
			"0.012": 0.251451307268,
			"0.013": 0.0,
			"0.014": 0.0,
			"0.015": 0.0,
			"0.016": 0.0,
			"0.017": 0.0,
			"0.018": 0.0,
			"0.019": 0.0,
			"0.02": 0.0,
			"0.021": 0.0,
			"0.022": 0.0,
			"0.023": 0.0,
			"0.024": 0.0,
			"0.025": 0.0
		}
	}
}
