{
	 "smiles": "OC(=O)CC1=C(N=C(S1)C1=CC=CC=C1)C1=CC=CS1", 
	 "Tm": 391.15, 
	 "num_atms": 31, 
	 "gaussian": { 
		 "optdone": 1, 
		 "sigma_profile": "yes", 
		 "theory": "DFT", 
		 "functional": "B3LYP", 
		 "basiset": "6-31G**", 
		 "properties": { 
			 "R2extent": 8687.2696, 
			 "electric_dipole_moment_norm": 1.27998076157, 
			 "electric_quadrupole_moment_norm": 16.4214669975, 
			 "total_energy": -1579.80358976, 
			 "HOMO_LUMO_gap": 0.14967, 
			 "cosmo_polarized_energy": -15.11, 
			 "cosmo_cavitation_energy": 39.16, 
			 "cosmo_dispersion_energy": -28.72, 
			 "cosmo_repulsion_energy": 2.11, 
			 "cosmo_total_nonelectrostatic_energy": 12.55, 
			 "SMD_solvation_energy": 6.34 
		},
		"coords": [
			{
				"x": -5.287592372,
				"y": -2.1391415311,
				"z": 0.1614023865,
				"element": "O" 
			},
			{
				"x": -4.3653556235,
				"y": -1.1574055447,
				"z": 0.3034747798,
				"element": "C" 
			},
			{
				"x": -4.4256215765,
				"y": -0.1028192379,
				"z": -0.2821224944,
				"element": "O" 
			},
			{
				"x": -3.2993246406,
				"y": -1.5728911522,
				"z": 1.312977465,
				"element": "C" 
			},
			{
				"x": -2.0815781964,
				"y": -0.7024774203,
				"z": 1.3161516004,
				"element": "C" 
			},
			{
				"x": -0.876145628,
				"y": -0.851906256,
				"z": 0.6558377098,
				"element": "C" 
			},
			{
				"x": 0.0601412293,
				"y": 0.1272475732,
				"z": 0.9256142833,
				"element": "N" 
			},
			{
				"x": -0.3820301952,
				"y": 1.032178858,
				"z": 1.7531026547,
				"element": "C" 
			},
			{
				"x": -2.0381400428,
				"y": 0.7441860752,
				"z": 2.281764231,
				"element": "S" 
			},
			{
				"x": 0.4027920348,
				"y": 2.1911547227,
				"z": 2.2016018134,
				"element": "C" 
			},
			{
				"x": 1.6957645418,
				"y": 2.3819637934,
				"z": 1.6828806471,
				"element": "C" 
			},
			{
				"x": 2.4636952128,
				"y": 3.4685942064,
				"z": 2.0906775423,
				"element": "C" 
			},
			{
				"x": 1.9575616138,
				"y": 4.3823965316,
				"z": 3.0191631837,
				"element": "C" 
			},
			{
				"x": 0.6742210931,
				"y": 4.2006293345,
				"z": 3.5384959169,
				"element": "C" 
			},
			{
				"x": -0.0978429324,
				"y": 3.113724081,
				"z": 3.1341733992,
				"element": "C" 
			},
			{
				"x": -0.4602945282,
				"y": -1.9113776962,
				"z": -0.2640043167,
				"element": "C" 
			},
			{
				"x": 0.834105095,
				"y": -2.1613336483,
				"z": -0.6637854677,
				"element": "C" 
			},
			{
				"x": 0.9476403084,
				"y": -3.239346892,
				"z": -1.5852724154,
				"element": "C" 
			},
			{
				"x": -0.2589941534,
				"y": -3.8046727831,
				"z": -1.8956148955,
				"element": "C" 
			},
			{
				"x": -1.5601367082,
				"y": -3.0191782963,
				"z": -1.0635166042,
				"element": "S" 
			},
			{
				"x": -5.9448810428,
				"y": -1.8048414177,
				"z": -0.4719753528,
				"element": "H" 
			},
			{
				"x": -3.0328462095,
				"y": -2.6169077785,
				"z": 1.1233210504,
				"element": "H" 
			},
			{
				"x": -3.7846087426,
				"y": -1.5691830623,
				"z": 2.2973996282,
				"element": "H" 
			},
			{
				"x": 2.0757604937,
				"y": 1.6678652777,
				"z": 0.9610796283,
				"element": "H" 
			},
			{
				"x": 3.4606219503,
				"y": 3.604829691,
				"z": 1.6814943733,
				"element": "H" 
			},
			{
				"x": 2.5584641656,
				"y": 5.2301564407,
				"z": 3.3350025759,
				"element": "H" 
			},
			{
				"x": 0.2727518734,
				"y": 4.9056017688,
				"z": 4.2604427748,
				"element": "H" 
			},
			{
				"x": -1.093773698,
				"y": 2.9846851421,
				"z": 3.5492588544,
				"element": "H" 
			},
			{
				"x": 1.6653613074,
				"y": -1.57412418,
				"z": -0.2956563181,
				"element": "H" 
			},
			{
				"x": 1.8891299233,
				"y": -3.580468292,
				"z": -2.0006131008,
				"element": "H" 
			},
			{
				"x": -0.4677445527,
				"y": -4.6324383078,
				"z": -2.5588555329,
				"element": "H" 
			}
		],
		 "valence_orbital": [ 
			{
				"type": "occ",
				"energy": -0.27394,
				"method": "rhf"
			},
			{
				"type": "occ",
				"energy": -0.25631,
				"method": "rhf"
			},
			{
				"type": "occ",
				"energy": -0.25185,
				"method": "rhf"
			},
			{
				"type": "occ",
				"energy": -0.24107,
				"method": "rhf"
			},
			{
				"type": "occ",
				"energy": -0.20452,
				"method": "rhf"
			},
			{
				"type": "unocc",
				"energy": -0.05485,
				"method": "rhf"
			},
			{
				"type": "unocc",
				"energy": -0.03139,
				"method": "rhf"
			},
			{
				"type": "unocc",
				"energy": -0.00532,
				"method": "rhf"
			},
			{
				"type": "unocc",
				"energy": 0.00203,
				"method": "rhf"
			},
			{
				"type": "unocc",
				"energy": 0.01374,
				"method": "rhf"
			}
		],
		"cosmo_sigma_profile": { 
			"-0.025": 0.0,
			"-0.024": 0.0,
			"-0.023": 0.0,
			"-0.022": 0.0,
			"-0.021": 0.0,
			"-0.02": 0.0,
			"-0.019": 0.177369255114,
			"-0.018": 0.934552509431,
			"-0.017": 0.939036001819,
			"-0.016": 0.804806237013,
			"-0.015": 0.617574471207,
			"-0.014": 0.81985758327,
			"-0.013": 1.01124586255,
			"-0.012": 0.51625892995,
			"-0.011": 0.637256424878,
			"-0.01": 0.705646401406,
			"-0.009": 3.76470959198,
			"-0.008": 5.49562208355,
			"-0.007": 8.06942650122,
			"-0.006": 16.6586094215,
			"-0.005": 19.2868224993,
			"-0.004": 22.695238037,
			"-0.003": 16.701413246,
			"-0.002": 17.4265358928,
			"-0.001": 19.543437058,
			"0.0": 23.0123424173,
			"0.001": 24.5009976952,
			"0.002": 28.7402978471,
			"0.003": 28.7706079891,
			"0.004": 29.6050898669,
			"0.005": 17.6038135915,
			"0.006": 6.26741159882,
			"0.007": 4.36705470372,
			"0.008": 4.94651711389,
			"0.009": 3.89523156687,
			"0.01": 3.30592738943,
			"0.011": 4.69010430181,
			"0.012": 2.28242648042,
			"0.013": 0.0,
			"0.014": 0.0,
			"0.015": 0.0,
			"0.016": 0.0,
			"0.017": 0.0,
			"0.018": 0.0,
			"0.019": 0.0,
			"0.02": 0.0,
			"0.021": 0.0,
			"0.022": 0.0,
			"0.023": 0.0,
			"0.024": 0.0,
			"0.0": 0.0
		}
	}
}
