{
	 "smiles": "CC(C)CCO", 
	 "Tm": 156.15, 
	 "num_atms": 18, 
	 "gaussian": { 
		 "optdone": 1, 
		 "sigma_profile": "yes", 
		 "theory": "DFT", 
		 "functional": "B3LYP", 
		 "basiset": "6-31G**", 
		 "properties": { 
			 "R2extent": 955.0477, 
			 "electric_dipole_moment_norm": 1.5577997336, 
			 "electric_quadrupole_moment_norm": 5.67392111595, 
			 "total_energy": -272.988300862, 
			 "HOMO_LUMO_gap": 0.33177, 
			 "cosmo_polarized_energy": -5.2, 
			 "cosmo_cavitation_energy": 19.22, 
			 "cosmo_dispersion_energy": -14.24, 
			 "cosmo_repulsion_energy": 1.24, 
			 "cosmo_total_nonelectrostatic_energy": 6.22, 
			 "SMD_solvation_energy": 3.5 
		},
		"coords": [
			{
				"x": -0.3060763334,
				"y": 1.1072394846,
				"z": -1.8472290944,
				"element": "C" 
			},
			{
				"x": -0.9095661646,
				"y": -0.2949038218,
				"z": -1.6718037769,
				"element": "C" 
			},
			{
				"x": -2.4455426175,
				"y": -0.2430053591,
				"z": -1.7023725783,
				"element": "C" 
			},
			{
				"x": -0.3488558796,
				"y": -1.0302006313,
				"z": -0.430837118,
				"element": "C" 
			},
			{
				"x": -0.4265454801,
				"y": -0.3104616938,
				"z": 0.9131724373,
				"element": "C" 
			},
			{
				"x": -1.7900856338,
				"y": -0.1558890991,
				"z": 1.2989962068,
				"element": "O" 
			},
			{
				"x": 0.7897976517,
				"y": 1.0842426935,
				"z": -1.8202710329,
				"element": "H" 
			},
			{
				"x": -0.6057666329,
				"y": 1.5400258579,
				"z": -2.8077495831,
				"element": "H" 
			},
			{
				"x": -0.6477700299,
				"y": 1.7916505355,
				"z": -1.0626321459,
				"element": "H" 
			},
			{
				"x": -0.5887188644,
				"y": -0.8946397446,
				"z": -2.5365143844,
				"element": "H" 
			},
			{
				"x": -2.8356983702,
				"y": 0.3404926583,
				"z": -0.8653229063,
				"element": "H" 
			},
			{
				"x": -2.7981286004,
				"y": 0.2055855158,
				"z": -2.6384346608,
				"element": "H" 
			},
			{
				"x": -2.8751160962,
				"y": -1.2482978826,
				"z": -1.6307085586,
				"element": "H" 
			},
			{
				"x": -0.8523938039,
				"y": -1.9999257819,
				"z": -0.3280577053,
				"element": "H" 
			},
			{
				"x": 0.7136616853,
				"y": -1.2485712998,
				"z": -0.6066503189,
				"element": "H" 
			},
			{
				"x": 0.0784628361,
				"y": 0.6661719733,
				"z": 0.8490129957,
				"element": "H" 
			},
			{
				"x": 0.1233599022,
				"y": -0.9068641448,
				"z": 1.6596005023,
				"element": "H" 
			},
			{
				"x": -1.8111175682,
				"y": 0.3184507398,
				"z": 2.1392017218,
				"element": "H" 
			}
		],
		 "valence_orbital": [ 
			{
				"type": "occ",
				"energy": -0.3409,
				"method": "rhf"
			},
			{
				"type": "occ",
				"energy": -0.31578,
				"method": "rhf"
			},
			{
				"type": "occ",
				"energy": -0.31416,
				"method": "rhf"
			},
			{
				"type": "occ",
				"energy": -0.29747,
				"method": "rhf"
			},
			{
				"type": "occ",
				"energy": -0.26139,
				"method": "rhf"
			},
			{
				"type": "unocc",
				"energy": 0.07038,
				"method": "rhf"
			},
			{
				"type": "unocc",
				"energy": 0.1013,
				"method": "rhf"
			},
			{
				"type": "unocc",
				"energy": 0.132,
				"method": "rhf"
			},
			{
				"type": "unocc",
				"energy": 0.14581,
				"method": "rhf"
			},
			{
				"type": "unocc",
				"energy": 0.15332,
				"method": "rhf"
			}
		],
		"cosmo_sigma_profile": { 
			"-0.025": 0.0,
			"-0.024": 0.0,
			"-0.023": 0.0,
			"-0.022": 0.0,
			"-0.021": 0.0,
			"-0.02": 0.0,
			"-0.019": 0.0,
			"-0.018": 0.0,
			"-0.017": 0.0,
			"-0.016": 0.0962147128573,
			"-0.015": 0.794279765891,
			"-0.014": 1.07701160322,
			"-0.013": 1.36138948876,
			"-0.012": 0.441580668267,
			"-0.011": 0.795109654856,
			"-0.01": 1.18296307205,
			"-0.009": 0.659960729294,
			"-0.008": 0.471519120446,
			"-0.007": 0.987013679203,
			"-0.006": 0.892316390248,
			"-0.005": 1.12440654534,
			"-0.004": 1.18375961609,
			"-0.003": 7.75183712096,
			"-0.002": 23.5649386036,
			"-0.001": 26.7218444709,
			"0.0": 22.8168782952,
			"0.001": 19.2272811972,
			"0.002": 14.4308058133,
			"0.003": 4.94306792694,
			"0.004": 2.31823751824,
			"0.005": 1.32524218227,
			"0.006": 1.32289454651,
			"0.007": 1.96911463397,
			"0.008": 2.15535485228,
			"0.009": 1.99882063441,
			"0.01": 1.09774829552,
			"0.011": 1.09198186459,
			"0.012": 0.98735260573,
			"0.013": 1.18569120029,
			"0.014": 0.830143403026,
			"0.015": 0.40866478643,
			"0.016": 0.0,
			"0.017": 0.0,
			"0.018": 0.0,
			"0.019": 0.0,
			"0.02": 0.0,
			"0.021": 0.0,
			"0.022": 0.0,
			"0.023": 0.0,
			"0.024": 0.0,
			"0.025": 0.0
		}
	}
}
