{
	 "smiles": "NC(=O)NC1=CC=C(C=C1)S(F)(=O)=O", 
	 "Tm": 451.15, 
	 "num_atms": 21, 
	 "gaussian": { 
		 "optdone": 1, 
		 "sigma_profile": "yes", 
		 "theory": "DFT", 
		 "functional": "B3LYP", 
		 "basiset": "6-31G**", 
		 "properties": { 
			 "R2extent": 5885.3, 
			 "electric_dipole_moment_norm": 8.80531183377, 
			 "electric_quadrupole_moment_norm": 27.3126034804, 
			 "total_energy": -1104.13075251, 
			 "HOMO_LUMO_gap": 0.19664, 
			 "cosmo_polarized_energy": -22.29, 
			 "cosmo_cavitation_energy": 28.04, 
			 "cosmo_dispersion_energy": -21.37, 
			 "cosmo_repulsion_energy": 1.61, 
			 "cosmo_total_nonelectrostatic_energy": 8.28, 
			 "SMD_solvation_energy": 5.12 
		},
		"coords": [
			{
				"x": -2.943295741,
				"y": -0.7675421046,
				"z": 1.7935425596,
				"element": "N" 
			},
			{
				"x": -1.8626831386,
				"y": -0.2298017311,
				"z": 1.1139088482,
				"element": "C" 
			},
			{
				"x": -1.9355682612,
				"y": 0.802207964,
				"z": 0.4673449801,
				"element": "O" 
			},
			{
				"x": -0.7173482818,
				"y": -1.0201269006,
				"z": 1.2159892033,
				"element": "N" 
			},
			{
				"x": 0.5463571654,
				"y": -0.7784152092,
				"z": 0.6683409916,
				"element": "C" 
			},
			{
				"x": 0.8701575505,
				"y": 0.3920230994,
				"z": -0.0438853818,
				"element": "C" 
			},
			{
				"x": 2.1571134682,
				"y": 0.5585316963,
				"z": -0.5419762787,
				"element": "C" 
			},
			{
				"x": 3.120858589,
				"y": -0.4320338701,
				"z": -0.3372452774,
				"element": "C" 
			},
			{
				"x": 2.8123939123,
				"y": -1.6027443752,
				"z": 0.3609419345,
				"element": "C" 
			},
			{
				"x": 1.5293481283,
				"y": -1.7694146293,
				"z": 0.85931113,
				"element": "C" 
			},
			{
				"x": 4.7543361528,
				"y": -0.2074915975,
				"z": -0.9689293,
				"element": "S" 
			},
			{
				"x": 5.4473178707,
				"y": 0.5457789897,
				"z": 0.2954522595,
				"element": "F" 
			},
			{
				"x": 4.7524229955,
				"y": 0.7668506608,
				"z": -2.0449528481,
				"element": "O" 
			},
			{
				"x": 5.4330421725,
				"y": -1.4871896842,
				"z": -1.0735451816,
				"element": "O" 
			},
			{
				"x": -3.7294351612,
				"y": -0.1352060062,
				"z": 1.8403777658,
				"element": "H" 
			},
			{
				"x": -2.7838465445,
				"y": -1.3058046852,
				"z": 2.6335002811,
				"element": "H" 
			},
			{
				"x": -0.8333287787,
				"y": -1.9290679441,
				"z": 1.6409619802,
				"element": "H" 
			},
			{
				"x": 0.1096124843,
				"y": 1.1417632299,
				"z": -0.2061176224,
				"element": "H" 
			},
			{
				"x": 2.4114443693,
				"y": 1.451351753,
				"z": -1.1025305289,
				"element": "H" 
			},
			{
				"x": 3.5653195445,
				"y": -2.3706674173,
				"z": 0.4976804456,
				"element": "H" 
			},
			{
				"x": 1.2806815037,
				"y": -2.6784012387,
				"z": 1.4013300396,
				"element": "H" 
			}
		],
		 "valence_orbital": [ 
			{
				"type": "occ",
				"energy": -0.3168,
				"method": "rhf"
			},
			{
				"type": "occ",
				"energy": -0.30193,
				"method": "rhf"
			},
			{
				"type": "occ",
				"energy": -0.28398,
				"method": "rhf"
			},
			{
				"type": "occ",
				"energy": -0.28113,
				"method": "rhf"
			},
			{
				"type": "occ",
				"energy": -0.24926,
				"method": "rhf"
			},
			{
				"type": "unocc",
				"energy": -0.05262,
				"method": "rhf"
			},
			{
				"type": "unocc",
				"energy": -0.03053,
				"method": "rhf"
			},
			{
				"type": "unocc",
				"energy": 0.02367,
				"method": "rhf"
			},
			{
				"type": "unocc",
				"energy": 0.03227,
				"method": "rhf"
			},
			{
				"type": "unocc",
				"energy": 0.04422,
				"method": "rhf"
			}
		],
		"cosmo_sigma_profile": { 
			"-0.025": 0.0,
			"-0.024": 0.0,
			"-0.023": 0.0,
			"-0.022": 0.0,
			"-0.021": 0.0,
			"-0.02": 0.0,
			"-0.019": 0.0,
			"-0.018": 0.0747389546523,
			"-0.017": 1.70741790751,
			"-0.016": 1.83340321131,
			"-0.015": 2.68627041484,
			"-0.014": 2.67863421313,
			"-0.013": 3.47036601275,
			"-0.012": 3.26108827249,
			"-0.011": 3.50246762985,
			"-0.01": 3.00709641909,
			"-0.009": 3.17652968715,
			"-0.008": 5.94395264408,
			"-0.007": 6.13110742681,
			"-0.006": 7.3869320302,
			"-0.005": 7.76201139991,
			"-0.004": 8.93260033619,
			"-0.003": 7.35094631541,
			"-0.002": 9.43554422871,
			"-0.001": 12.5237964173,
			"0.0": 16.7922677768,
			"0.001": 20.7804994205,
			"0.002": 20.7000969244,
			"0.003": 17.5104171727,
			"0.004": 7.18607649525,
			"0.005": 5.11462414392,
			"0.006": 5.91453658302,
			"0.007": 5.58018181353,
			"0.008": 9.38001280675,
			"0.009": 11.8518297712,
			"0.01": 4.85376561822,
			"0.011": 1.51783580014,
			"0.012": 2.79060758595,
			"0.013": 3.24901602818,
			"0.014": 0.777282325072,
			"0.015": 0.0,
			"0.016": 0.0,
			"0.017": 0.0,
			"0.018": 0.0,
			"0.019": 0.0,
			"0.02": 0.0,
			"0.021": 0.0,
			"0.022": 0.0,
			"0.023": 0.0,
			"0.024": 0.0,
			"0.025": 0.0
		}
	}
}
