{
	 "smiles": "O=C1CCN2CCCCC2C1", 
	 "Tm": 481.15, 
	 "num_atms": 26, 
	 "gaussian": { 
		 "optdone": 1, 
		 "sigma_profile": "yes", 
		 "theory": "DFT", 
		 "functional": "B3LYP", 
		 "basiset": "6-31G**", 
		 "properties": { 
			 "R2extent": 2146.5186, 
			 "electric_dipole_moment_norm": 2.94607920634, 
			 "electric_quadrupole_moment_norm": 9.95941580164, 
			 "total_energy": -481.96403814, 
			 "HOMO_LUMO_gap": 0.19313, 
			 "cosmo_polarized_energy": -7.85, 
			 "cosmo_cavitation_energy": 25.75, 
			 "cosmo_dispersion_energy": -19.38, 
			 "cosmo_repulsion_energy": 1.55, 
			 "cosmo_total_nonelectrostatic_energy": 7.93, 
			 "SMD_solvation_energy": 1.75 
		},
		"coords": [
			{
				"x": -2.1170990329,
				"y": -0.1720733381,
				"z": 2.3399181235,
				"element": "O" 
			},
			{
				"x": -1.4997930224,
				"y": 0.1889978923,
				"z": 1.3576478076,
				"element": "C" 
			},
			{
				"x": -1.9915857276,
				"y": -0.046396829,
				"z": -0.0657183879,
				"element": "C" 
			},
			{
				"x": -1.402065949,
				"y": 0.984181545,
				"z": -1.0312827136,
				"element": "C" 
			},
			{
				"x": 0.058742423,
				"y": 0.9040717267,
				"z": -1.0855201723,
				"element": "N" 
			},
			{
				"x": 0.6328851399,
				"y": 2.0401240996,
				"z": -1.8025833626,
				"element": "C" 
			},
			{
				"x": 2.1043451494,
				"y": 1.7874090459,
				"z": -2.1679036937,
				"element": "C" 
			},
			{
				"x": 2.8713631516,
				"y": 1.1071413059,
				"z": -1.0061292327,
				"element": "C" 
			},
			{
				"x": 2.1015551597,
				"y": 1.2509881563,
				"z": 0.3105061803,
				"element": "C" 
			},
			{
				"x": 0.7199926808,
				"y": 0.5848049021,
				"z": 0.2105979069,
				"element": "C" 
			},
			{
				"x": -0.1624815458,
				"y": 0.9132528555,
				"z": 1.4311321909,
				"element": "C" 
			},
			{
				"x": -1.6780476297,
				"y": -1.0562275482,
				"z": -0.3657320204,
				"element": "H" 
			},
			{
				"x": -3.0850451505,
				"y": -0.0337058943,
				"z": -0.072543979,
				"element": "H" 
			},
			{
				"x": -1.7968676212,
				"y": 0.8207802969,
				"z": -2.0419631584,
				"element": "H" 
			},
			{
				"x": -1.7510199895,
				"y": 1.9913908136,
				"z": -0.7256492921,
				"element": "H" 
			},
			{
				"x": 0.0469964073,
				"y": 2.1850175801,
				"z": -2.7176335836,
				"element": "H" 
			},
			{
				"x": 0.5368297375,
				"y": 2.9863716955,
				"z": -1.2334099831,
				"element": "H" 
			},
			{
				"x": 2.153721219,
				"y": 1.1578601361,
				"z": -3.062121273,
				"element": "H" 
			},
			{
				"x": 2.5667403733,
				"y": 2.7463652622,
				"z": -2.4293771307,
				"element": "H" 
			},
			{
				"x": 2.9988322984,
				"y": 0.0391693747,
				"z": -1.2197226732,
				"element": "H" 
			},
			{
				"x": 3.8785931782,
				"y": 1.5256476081,
				"z": -0.9072112334,
				"element": "H" 
			},
			{
				"x": 1.9888971544,
				"y": 2.3128759945,
				"z": 0.566826413,
				"element": "H" 
			},
			{
				"x": 2.6522148842,
				"y": 0.7895628462,
				"z": 1.137860672,
				"element": "H" 
			},
			{
				"x": 0.8943088555,
				"y": -0.5034896905,
				"z": 0.2239747333,
				"element": "H" 
			},
			{
				"x": 0.3319871165,
				"y": 0.6537958485,
				"z": 2.3722541905,
				"element": "H" 
			},
			{
				"x": -0.3664992598,
				"y": 1.9940843142,
				"z": 1.4629836716,
				"element": "H" 
			}
		],
		 "valence_orbital": [ 
			{
				"type": "occ",
				"energy": -0.32593,
				"method": "rhf"
			},
			{
				"type": "occ",
				"energy": -0.31907,
				"method": "rhf"
			},
			{
				"type": "occ",
				"energy": -0.31128,
				"method": "rhf"
			},
			{
				"type": "occ",
				"energy": -0.23633,
				"method": "rhf"
			},
			{
				"type": "occ",
				"energy": -0.20481,
				"method": "rhf"
			},
			{
				"type": "unocc",
				"energy": -0.01168,
				"method": "rhf"
			},
			{
				"type": "unocc",
				"energy": 0.06917,
				"method": "rhf"
			},
			{
				"type": "unocc",
				"energy": 0.0947,
				"method": "rhf"
			},
			{
				"type": "unocc",
				"energy": 0.10053,
				"method": "rhf"
			},
			{
				"type": "unocc",
				"energy": 0.12027,
				"method": "rhf"
			}
		],
		"cosmo_sigma_profile": { 
			"-0.025": 0.0,
			"-0.024": 0.0,
			"-0.023": 0.0,
			"-0.022": 0.0,
			"-0.021": 0.0,
			"-0.02": 0.0,
			"-0.019": 0.0,
			"-0.018": 0.0,
			"-0.017": 0.0,
			"-0.016": 0.0,
			"-0.015": 0.0,
			"-0.014": 0.0,
			"-0.013": 0.0,
			"-0.012": 0.0,
			"-0.011": 0.0,
			"-0.01": 0.0,
			"-0.009": 0.0,
			"-0.008": 0.0,
			"-0.007": 0.0,
			"-0.006": 3.67225431526,
			"-0.005": 9.34002543881,
			"-0.004": 13.385192092,
			"-0.003": 28.0899462195,
			"-0.002": 34.9104733106,
			"-0.001": 34.6892083904,
			"0.0": 24.4586185588,
			"0.001": 13.0371047712,
			"0.002": 3.87102124164,
			"0.003": 3.2163590186,
			"0.004": 1.87936635806,
			"0.005": 2.42293389804,
			"0.006": 2.5898635093,
			"0.007": 1.87166286759,
			"0.008": 2.20784572673,
			"0.009": 2.46220251515,
			"0.01": 2.25132888615,
			"0.011": 4.13372130692,
			"0.012": 4.68720667138,
			"0.013": 3.83019368197,
			"0.014": 0.737208076774,
			"0.015": 0.309342955464,
			"0.016": 0.267228879755,
			"0.017": 0.0,
			"0.018": 0.0,
			"0.019": 0.0,
			"0.02": 0.0,
			"0.021": 0.0,
			"0.022": 0.0,
			"0.023": 0.0,
			"0.024": 0.0,
			"0.025": 0.0
		}
	}
}
