{
	 "smiles": "NC1=NC=CC=C1C(O)=O", 
	 "Tm": 569.15, 
	 "num_atms": 16, 
	 "gaussian": { 
		 "optdone": 1, 
		 "sigma_profile": "yes", 
		 "theory": "DFT", 
		 "functional": "B3LYP", 
		 "basiset": "6-31G**", 
		 "properties": { 
			 "R2extent": 2145.9522, 
			 "electric_dipole_moment_norm": 3.02224778931, 
			 "electric_quadrupole_moment_norm": 7.40304877669, 
			 "total_energy": -492.224220713, 
			 "HOMO_LUMO_gap": 0.16647, 
			 "cosmo_polarized_energy": -14.53, 
			 "cosmo_cavitation_energy": 20.15, 
			 "cosmo_dispersion_energy": -15.63, 
			 "cosmo_repulsion_energy": 1.26, 
			 "cosmo_total_nonelectrostatic_energy": 5.78, 
			 "SMD_solvation_energy": 3.17 
		},
		"coords": [
			{
				"x": 2.6848280737,
				"y": -0.2238939713,
				"z": -1.9280111999,
				"element": "N" 
			},
			{
				"x": 2.5344208888,
				"y": 0.4210325599,
				"z": -0.7517300218,
				"element": "C" 
			},
			{
				"x": 3.6676360844,
				"y": 0.6414707587,
				"z": -0.0469003437,
				"element": "N" 
			},
			{
				"x": 3.5795654106,
				"y": 1.286663136,
				"z": 1.1110437421,
				"element": "C" 
			},
			{
				"x": 2.3858377635,
				"y": 1.770205339,
				"z": 1.6581980398,
				"element": "C" 
			},
			{
				"x": 1.218999505,
				"y": 1.5298275478,
				"z": 0.9453257274,
				"element": "C" 
			},
			{
				"x": 1.2474615793,
				"y": 0.8297522854,
				"z": -0.2677745855,
				"element": "C" 
			},
			{
				"x": 0.0270235793,
				"y": 0.5413725457,
				"z": -1.0566236344,
				"element": "C" 
			},
			{
				"x": -1.1743164875,
				"y": 0.7084645929,
				"z": -0.4445571907,
				"element": "O" 
			},
			{
				"x": 0.0344583886,
				"y": 0.1640425746,
				"z": -2.2162477005,
				"element": "O" 
			},
			{
				"x": 3.6253261537,
				"y": -0.4284738377,
				"z": -2.2249203176,
				"element": "H" 
			},
			{
				"x": 1.886877357,
				"y": -0.2998785484,
				"z": -2.5454975451,
				"element": "H" 
			},
			{
				"x": 4.521225066,
				"y": 1.4395395604,
				"z": 1.6372109911,
				"element": "H" 
			},
			{
				"x": 2.3797450665,
				"y": 2.3150646752,
				"z": 2.594927721,
				"element": "H" 
			},
			{
				"x": 0.2803510225,
				"y": 1.9236916887,
				"z": 1.3298462909,
				"element": "H" 
			},
			{
				"x": -1.0569394515,
				"y": 0.832119093,
				"z": 0.506610027,
				"element": "H" 
			}
		],
		 "valence_orbital": [ 
			{
				"type": "occ",
				"energy": -0.32102,
				"method": "rhf"
			},
			{
				"type": "occ",
				"energy": -0.29558,
				"method": "rhf"
			},
			{
				"type": "occ",
				"energy": -0.28266,
				"method": "rhf"
			},
			{
				"type": "occ",
				"energy": -0.26776,
				"method": "rhf"
			},
			{
				"type": "occ",
				"energy": -0.22411,
				"method": "rhf"
			},
			{
				"type": "unocc",
				"energy": -0.05764,
				"method": "rhf"
			},
			{
				"type": "unocc",
				"energy": -0.00887,
				"method": "rhf"
			},
			{
				"type": "unocc",
				"energy": 0.042,
				"method": "rhf"
			},
			{
				"type": "unocc",
				"energy": 0.05549,
				"method": "rhf"
			},
			{
				"type": "unocc",
				"energy": 0.10679,
				"method": "rhf"
			}
		],
		"cosmo_sigma_profile": { 
			"-0.025": 0.0,
			"-0.024": 0.0,
			"-0.023": 0.0,
			"-0.022": 0.0,
			"-0.021": 0.0,
			"-0.02": 0.0270669513587,
			"-0.019": 0.74491984532,
			"-0.018": 0.902651363767,
			"-0.017": 0.81188070893,
			"-0.016": 0.863990211513,
			"-0.015": 1.06020843601,
			"-0.014": 0.628817058622,
			"-0.013": 2.67040849479,
			"-0.012": 2.39492154159,
			"-0.011": 1.27573706973,
			"-0.01": 2.28499002143,
			"-0.009": 3.18952084324,
			"-0.008": 3.81755019212,
			"-0.007": 5.62047891746,
			"-0.006": 8.39597724892,
			"-0.005": 7.52904430625,
			"-0.004": 6.58952719954,
			"-0.003": 6.72815640138,
			"-0.002": 7.30549215113,
			"-0.001": 7.65858691728,
			"0.0": 10.8855448936,
			"0.001": 12.7632365898,
			"0.002": 12.966514418,
			"0.003": 10.2804745594,
			"0.004": 6.36645852072,
			"0.005": 4.75688744317,
			"0.006": 3.72654209033,
			"0.007": 3.8597381877,
			"0.008": 4.40569041225,
			"0.009": 3.32080976869,
			"0.01": 5.52131567736,
			"0.011": 4.78637538959,
			"0.012": 3.32273556129,
			"0.013": 2.50959344678,
			"0.014": 0.928888747161,
			"0.015": 0.481006363704,
			"0.016": 0.0805027510323,
			"0.017": 0.0,
			"0.018": 0.0,
			"0.019": 0.0,
			"0.02": 0.0,
			"0.021": 0.0,
			"0.022": 0.0,
			"0.023": 0.0,
			"0.024": 0.0,
			"0.025": 0.0
		}
	}
}
