{
	 "smiles": "CC1=CC=C(O)C(F)=C1F", 
	 "Tm": 310.15, 
	 "num_atms": 16, 
	 "gaussian": { 
		 "optdone": 1, 
		 "sigma_profile": "yes", 
		 "theory": "DFT", 
		 "functional": "B3LYP", 
		 "basiset": "6-31G**", 
		 "properties": { 
			 "R2extent": 2541.0513, 
			 "electric_dipole_moment_norm": 0.926955856554, 
			 "electric_quadrupole_moment_norm": 4.99336180744, 
			 "total_energy": -545.247620557, 
			 "HOMO_LUMO_gap": 0.22278, 
			 "cosmo_polarized_energy": -5.64, 
			 "cosmo_cavitation_energy": 20.88, 
			 "cosmo_dispersion_energy": -15.38, 
			 "cosmo_repulsion_energy": 1.21, 
			 "cosmo_total_nonelectrostatic_energy": 6.71, 
			 "SMD_solvation_energy": 4.96 
		},
		"coords": [
			{
				"x": -0.7756603889,
				"y": 1.3629510829,
				"z": -0.6365260632,
				"element": "C" 
			},
			{
				"x": -1.0138686697,
				"y": 0.6917351932,
				"z": 0.6923428338,
				"element": "C" 
			},
			{
				"x": -1.2443782913,
				"y": 1.3989927549,
				"z": 1.8792622797,
				"element": "C" 
			},
			{
				"x": -1.4629884158,
				"y": 0.7590939297,
				"z": 3.1002185038,
				"element": "C" 
			},
			{
				"x": -1.4557833075,
				"y": -0.6348475602,
				"z": 3.1629765504,
				"element": "C" 
			},
			{
				"x": -1.6665998692,
				"y": -1.2795525531,
				"z": 4.342431428,
				"element": "O" 
			},
			{
				"x": -1.2271646265,
				"y": -1.3529712863,
				"z": 1.9871021551,
				"element": "C" 
			},
			{
				"x": -1.2216480242,
				"y": -2.7081843636,
				"z": 2.0560891502,
				"element": "F" 
			},
			{
				"x": -1.0115394757,
				"y": -0.7016306565,
				"z": 0.7813119155,
				"element": "C" 
			},
			{
				"x": -0.7960569705,
				"y": -1.4456950618,
				"z": -0.3218898408,
				"element": "F" 
			},
			{
				"x": -0.8100009692,
				"y": 2.4499052637,
				"z": -0.5298188169,
				"element": "H" 
			},
			{
				"x": -1.5293585035,
				"y": 1.0698492299,
				"z": -1.3755369809,
				"element": "H" 
			},
			{
				"x": 0.2005788639,
				"y": 1.092890618,
				"z": -1.0537925104,
				"element": "H" 
			},
			{
				"x": -1.2525343726,
				"y": 2.4845407162,
				"z": 1.8439434951,
				"element": "H" 
			},
			{
				"x": -1.6400132498,
				"y": 1.3216190246,
				"z": 4.010161056,
				"element": "H" 
			},
			{
				"x": -1.6226837296,
				"y": -2.2321963315,
				"z": 4.1743248445,
				"element": "H" 
			}
		],
		 "valence_orbital": [ 
			{
				"type": "occ",
				"energy": -0.36611,
				"method": "rhf"
			},
			{
				"type": "occ",
				"energy": -0.35818,
				"method": "rhf"
			},
			{
				"type": "occ",
				"energy": -0.32711,
				"method": "rhf"
			},
			{
				"type": "occ",
				"energy": -0.24706,
				"method": "rhf"
			},
			{
				"type": "occ",
				"energy": -0.2254,
				"method": "rhf"
			},
			{
				"type": "unocc",
				"energy": -0.00262,
				"method": "rhf"
			},
			{
				"type": "unocc",
				"energy": 0.00469,
				"method": "rhf"
			},
			{
				"type": "unocc",
				"energy": 0.05263,
				"method": "rhf"
			},
			{
				"type": "unocc",
				"energy": 0.09843,
				"method": "rhf"
			},
			{
				"type": "unocc",
				"energy": 0.10772,
				"method": "rhf"
			}
		],
		"cosmo_sigma_profile": { 
			"-0.025": 0.0,
			"-0.024": 0.0,
			"-0.023": 0.0,
			"-0.022": 0.0,
			"-0.021": 0.0,
			"-0.02": 0.0,
			"-0.019": 0.0,
			"-0.018": 0.0,
			"-0.017": 0.258289390374,
			"-0.016": 0.59300640047,
			"-0.015": 0.461159526165,
			"-0.014": 1.05425299509,
			"-0.013": 0.897314908032,
			"-0.012": 0.336721249138,
			"-0.011": 1.09893211465,
			"-0.01": 0.867452202095,
			"-0.009": 1.0642889465,
			"-0.008": 0.919352583545,
			"-0.007": 2.20082153402,
			"-0.006": 5.02007840154,
			"-0.005": 7.16229813379,
			"-0.004": 10.6779929369,
			"-0.003": 9.08522052034,
			"-0.002": 10.7918424559,
			"-0.001": 16.8163946446,
			"0.0": 18.1826845918,
			"0.001": 13.6804141381,
			"0.002": 12.5852337857,
			"0.003": 19.9001657159,
			"0.004": 20.180655254,
			"0.005": 3.98559227729,
			"0.006": 1.39082155953,
			"0.007": 1.2457318598,
			"0.008": 1.60370875311,
			"0.009": 1.55680071099,
			"0.01": 1.7907218247,
			"0.011": 1.41669051003,
			"0.012": 0.0,
			"0.013": 0.0,
			"0.014": 0.0,
			"0.015": 0.0,
			"0.016": 0.0,
			"0.017": 0.0,
			"0.018": 0.0,
			"0.019": 0.0,
			"0.02": 0.0,
			"0.021": 0.0,
			"0.022": 0.0,
			"0.023": 0.0,
			"0.024": 0.0,
			"0.025": 0.0
		}
	}
}
