{
	 "smiles": "S=C1N=CNC2=C1NC=N2", 
	 "Tm": 587.15, 
	 "num_atms": 14, 
	 "gaussian": { 
		 "optdone": 1, 
		 "sigma_profile": "yes", 
		 "theory": "DFT", 
		 "functional": "B3LYP", 
		 "basiset": "6-31G**", 
		 "properties": { 
			 "R2extent": 1518.6058, 
			 "electric_dipole_moment_norm": 5.80397753442, 
			 "electric_quadrupole_moment_norm": 24.2260807559, 
			 "total_energy": -810.134311667, 
			 "HOMO_LUMO_gap": 0.13546, 
			 "cosmo_polarized_energy": -27.28, 
			 "cosmo_cavitation_energy": 20.46, 
			 "cosmo_dispersion_energy": -16.21, 
			 "cosmo_repulsion_energy": 1.25, 
			 "cosmo_total_nonelectrostatic_energy": 5.5, 
			 "SMD_solvation_energy": -0.45 
		},
		"coords": [
			{
				"x": -0.8959067619,
				"y": -0.3458552716,
				"z": -2.408693198,
				"element": "S" 
			},
			{
				"x": 0.2388597013,
				"y": -0.4617164287,
				"z": -1.1894893426,
				"element": "C" 
			},
			{
				"x": 1.5993210341,
				"y": -0.6772614498,
				"z": -1.422901783,
				"element": "N" 
			},
			{
				"x": 2.4466268044,
				"y": -0.7604999958,
				"z": -0.4423474323,
				"element": "C" 
			},
			{
				"x": 2.1504342749,
				"y": -0.6553318237,
				"z": 0.8928947014,
				"element": "N" 
			},
			{
				"x": 0.8349955786,
				"y": -0.4421307562,
				"z": 1.222831493,
				"element": "C" 
			},
			{
				"x": -0.0920949555,
				"y": -0.3489867072,
				"z": 0.1956850571,
				"element": "C" 
			},
			{
				"x": -1.2843553977,
				"y": -0.1395711447,
				"z": 0.8505188523,
				"element": "N" 
			},
			{
				"x": -1.0103401156,
				"y": -0.1206634178,
				"z": 2.1842323251,
				"element": "C" 
			},
			{
				"x": 0.2781038177,
				"y": -0.302424786,
				"z": 2.4539706764,
				"element": "N" 
			},
			{
				"x": 3.4978541262,
				"y": -0.9290615784,
				"z": -0.6666389538,
				"element": "H" 
			},
			{
				"x": 2.8614861049,
				"y": -0.7300551294,
				"z": 1.6078776904,
				"element": "H" 
			},
			{
				"x": -2.1721246421,
				"y": -0.0271776973,
				"z": 0.378187258,
				"element": "H" 
			},
			{
				"x": -1.7777595693,
				"y": 0.0287361867,
				"z": 2.9306726561,
				"element": "H" 
			}
		],
		 "valence_orbital": [ 
			{
				"type": "occ",
				"energy": -0.2998,
				"method": "rhf"
			},
			{
				"type": "occ",
				"energy": -0.28931,
				"method": "rhf"
			},
			{
				"type": "occ",
				"energy": -0.27789,
				"method": "rhf"
			},
			{
				"type": "occ",
				"energy": -0.21186,
				"method": "rhf"
			},
			{
				"type": "occ",
				"energy": -0.20253,
				"method": "rhf"
			},
			{
				"type": "unocc",
				"energy": -0.06707,
				"method": "rhf"
			},
			{
				"type": "unocc",
				"energy": -0.02063,
				"method": "rhf"
			},
			{
				"type": "unocc",
				"energy": 0.01953,
				"method": "rhf"
			},
			{
				"type": "unocc",
				"energy": 0.05097,
				"method": "rhf"
			},
			{
				"type": "unocc",
				"energy": 0.077,
				"method": "rhf"
			}
		],
		"cosmo_sigma_profile": { 
			"-0.025": 0.0,
			"-0.024": 0.0,
			"-0.023": 0.0,
			"-0.022": 0.0,
			"-0.021": 0.0,
			"-0.02": 0.0,
			"-0.019": 0.374459043013,
			"-0.018": 2.21531630839,
			"-0.017": 2.78922869977,
			"-0.016": 2.28709864887,
			"-0.015": 2.28703575428,
			"-0.014": 1.68903926063,
			"-0.013": 2.84038164591,
			"-0.012": 2.21298336272,
			"-0.011": 6.14170936961,
			"-0.01": 5.60147130833,
			"-0.009": 4.3710848018,
			"-0.008": 3.63296099843,
			"-0.007": 4.24201555846,
			"-0.006": 3.59345848066,
			"-0.005": 4.8428056539,
			"-0.004": 7.36673634869,
			"-0.003": 10.4202560702,
			"-0.002": 11.4308579382,
			"-0.001": 9.13194837101,
			"0.0": 5.57285193553,
			"0.001": 4.311043245,
			"0.002": 3.60563821851,
			"0.003": 3.98321453857,
			"0.004": 4.09904638173,
			"0.005": 5.34119298206,
			"0.006": 4.6874340663,
			"0.007": 5.27032977495,
			"0.008": 6.58941543554,
			"0.009": 8.33491683453,
			"0.01": 8.7217530871,
			"0.011": 4.93326278953,
			"0.012": 3.25393466057,
			"0.013": 3.97532809722,
			"0.014": 3.91238120586,
			"0.015": 2.62402615042,
			"0.016": 1.30914569523,
			"0.017": 0.216013349409,
			"0.018": 0.0,
			"0.019": 0.0,
			"0.02": 0.0,
			"0.021": 0.0,
			"0.022": 0.0,
			"0.023": 0.0,
			"0.024": 0.0,
			"0.025": 0.0
		}
	}
}
