{
	 "smiles": "CCNC(=O)CN1C=CC(N)=N1", 
	 "Tm": 398.15, 
	 "num_atms": 24, 
	 "gaussian": { 
		 "optdone": 1, 
		 "sigma_profile": "yes", 
		 "theory": "DFT", 
		 "functional": "B3LYP", 
		 "basiset": "6-31G**", 
		 "properties": { 
			 "R2extent": 2647.3981, 
			 "electric_dipole_moment_norm": 3.47455386201, 
			 "electric_quadrupole_moment_norm": 11.3798883053, 
			 "total_energy": -568.207761833, 
			 "HOMO_LUMO_gap": 0.22361, 
			 "cosmo_polarized_energy": -15.48, 
			 "cosmo_cavitation_energy": 27.91, 
			 "cosmo_dispersion_energy": -19.95, 
			 "cosmo_repulsion_energy": 1.65, 
			 "cosmo_total_nonelectrostatic_energy": 9.61, 
			 "SMD_solvation_energy": 4.62 
		},
		"coords": [
			{
				"x": 0.0560914013,
				"y": -3.4646035001,
				"z": -0.9909559197,
				"element": "C" 
			},
			{
				"x": -0.2826256582,
				"y": -2.1167822031,
				"z": -1.635339973,
				"element": "C" 
			},
			{
				"x": -0.5531820912,
				"y": -1.0686056273,
				"z": -0.660413171,
				"element": "N" 
			},
			{
				"x": -1.8142617981,
				"y": -0.7569542089,
				"z": -0.2734386062,
				"element": "C" 
			},
			{
				"x": -2.8346243689,
				"y": -1.2730685224,
				"z": -0.7173855698,
				"element": "O" 
			},
			{
				"x": -1.9277428418,
				"y": 0.2991158412,
				"z": 0.8447858746,
				"element": "C" 
			},
			{
				"x": -0.8764390233,
				"y": 1.2961452855,
				"z": 0.9010796443,
				"element": "N" 
			},
			{
				"x": -0.9568699096,
				"y": 2.6165638088,
				"z": 0.6107237607,
				"element": "C" 
			},
			{
				"x": 0.3017290388,
				"y": 3.1589102376,
				"z": 0.7845966991,
				"element": "C" 
			},
			{
				"x": 1.1054899007,
				"y": 2.0604214423,
				"z": 1.1816859584,
				"element": "C" 
			},
			{
				"x": 2.4483780088,
				"y": 2.0804482092,
				"z": 1.5484621463,
				"element": "N" 
			},
			{
				"x": 0.3959352018,
				"y": 0.9295942671,
				"z": 1.2464223007,
				"element": "N" 
			},
			{
				"x": -0.7818770578,
				"y": -3.8179322112,
				"z": -0.3833275803,
				"element": "H" 
			},
			{
				"x": 0.2630502519,
				"y": -4.2159113654,
				"z": -1.7606843148,
				"element": "H" 
			},
			{
				"x": 0.9388638818,
				"y": -3.3882189283,
				"z": -0.3469379768,
				"element": "H" 
			},
			{
				"x": 0.5385710423,
				"y": -1.7843343967,
				"z": -2.2808886307,
				"element": "H" 
			},
			{
				"x": -1.1789924788,
				"y": -2.210262387,
				"z": -2.2527888814,
				"element": "H" 
			},
			{
				"x": 0.2094983919,
				"y": -0.6362943716,
				"z": -0.146674978,
				"element": "H" 
			},
			{
				"x": -1.9676592649,
				"y": -0.2283593479,
				"z": 1.8047849839,
				"element": "H" 
			},
			{
				"x": -2.8814566462,
				"y": 0.8078175892,
				"z": 0.7005863582,
				"element": "H" 
			},
			{
				"x": -1.8922763689,
				"y": 3.071903732,
				"z": 0.3180446321,
				"element": "H" 
			},
			{
				"x": 0.5951795186,
				"y": 4.1911508631,
				"z": 0.6682640676,
				"element": "H" 
			},
			{
				"x": 3.0179442936,
				"y": 2.7038932871,
				"z": 0.9919309139,
				"element": "H" 
			},
			{
				"x": 2.8513765763,
				"y": 1.1531625068,
				"z": 1.5980682618,
				"element": "H" 
			}
		],
		 "valence_orbital": [ 
			{
				"type": "occ",
				"energy": -0.29787,
				"method": "rhf"
			},
			{
				"type": "occ",
				"energy": -0.25429,
				"method": "rhf"
			},
			{
				"type": "occ",
				"energy": -0.24697,
				"method": "rhf"
			},
			{
				"type": "occ",
				"energy": -0.23977,
				"method": "rhf"
			},
			{
				"type": "occ",
				"energy": -0.2073,
				"method": "rhf"
			},
			{
				"type": "unocc",
				"energy": 0.01631,
				"method": "rhf"
			},
			{
				"type": "unocc",
				"energy": 0.0331,
				"method": "rhf"
			},
			{
				"type": "unocc",
				"energy": 0.06954,
				"method": "rhf"
			},
			{
				"type": "unocc",
				"energy": 0.09232,
				"method": "rhf"
			},
			{
				"type": "unocc",
				"energy": 0.09954,
				"method": "rhf"
			}
		],
		"cosmo_sigma_profile": { 
			"-0.025": 0.0,
			"-0.024": 0.0,
			"-0.023": 0.0,
			"-0.022": 0.0,
			"-0.021": 0.0,
			"-0.02": 0.0,
			"-0.019": 0.0,
			"-0.018": 0.0,
			"-0.017": 0.0,
			"-0.016": 0.0,
			"-0.015": 0.0,
			"-0.014": 0.0,
			"-0.013": 0.240660343795,
			"-0.012": 2.26451119607,
			"-0.011": 2.09888238169,
			"-0.01": 3.13700026604,
			"-0.009": 5.99848558072,
			"-0.008": 7.18382974112,
			"-0.007": 8.12175021074,
			"-0.006": 9.01471104144,
			"-0.005": 10.6842251709,
			"-0.004": 14.7929586501,
			"-0.003": 18.4906424354,
			"-0.002": 17.1604269058,
			"-0.001": 16.4052090594,
			"0.0": 16.7606375162,
			"0.001": 16.1154737713,
			"0.002": 9.82397807769,
			"0.003": 7.95346339084,
			"0.004": 7.61044386336,
			"0.005": 7.08226515003,
			"0.006": 6.76377406414,
			"0.007": 3.79297738113,
			"0.008": 3.28739865113,
			"0.009": 3.19680862408,
			"0.01": 3.58527628858,
			"0.011": 2.45792465425,
			"0.012": 3.34846539772,
			"0.013": 4.06472498512,
			"0.014": 6.67111035241,
			"0.015": 1.75865847797,
			"0.016": 0.0425076989118,
			"0.017": 0.0,
			"0.018": 0.0,
			"0.019": 0.0,
			"0.02": 0.0,
			"0.021": 0.0,
			"0.022": 0.0,
			"0.023": 0.0,
			"0.024": 0.0,
			"0.025": 0.0
		}
	}
}
