{
	 "smiles": "CC1=CSC(SC2=CC(C)=C(N)C=C2)=N1", 
	 "Tm": 335.15, 
	 "num_atms": 27, 
	 "gaussian": { 
		 "optdone": 1, 
		 "sigma_profile": "yes", 
		 "theory": "DFT", 
		 "functional": "B3LYP", 
		 "basiset": "6-31G**", 
		 "properties": { 
			 "R2extent": 5531.6578, 
			 "electric_dipole_moment_norm": 3.79790368756, 
			 "electric_quadrupole_moment_norm": 14.6342261715, 
			 "total_energy": -1332.28229013, 
			 "HOMO_LUMO_gap": 0.19515, 
			 "cosmo_polarized_energy": -13.02, 
			 "cosmo_cavitation_energy": 34.32, 
			 "cosmo_dispersion_energy": -25.27, 
			 "cosmo_repulsion_energy": 1.94, 
			 "cosmo_total_nonelectrostatic_energy": 10.99, 
			 "SMD_solvation_energy": 4.08 
		},
		"coords": [
			{
				"x": 2.6020957021,
				"y": 1.7087175782,
				"z": 1.0095376065,
				"element": "C" 
			},
			{
				"x": 2.1808916371,
				"y": 0.4579188403,
				"z": 1.7229588069,
				"element": "C" 
			},
			{
				"x": 2.6409129783,
				"y": 0.0292752868,
				"z": 2.9337248143,
				"element": "C" 
			},
			{
				"x": 1.8817294445,
				"y": -1.4736405395,
				"z": 3.3811581888,
				"element": "S" 
			},
			{
				"x": 0.9795536208,
				"y": -1.4002505881,
				"z": 1.8612386201,
				"element": "C" 
			},
			{
				"x": -0.1669088449,
				"y": -2.7079199314,
				"z": 1.4903782231,
				"element": "S" 
			},
			{
				"x": -0.7754363548,
				"y": -2.2366488832,
				"z": -0.1226740403,
				"element": "C" 
			},
			{
				"x": -1.8976685366,
				"y": -1.4078899009,
				"z": -0.2402125966,
				"element": "C" 
			},
			{
				"x": -2.4303075597,
				"y": -1.0666801182,
				"z": -1.4820796482,
				"element": "C" 
			},
			{
				"x": -3.6468909944,
				"y": -0.1815270557,
				"z": -1.5923203978,
				"element": "C" 
			},
			{
				"x": -1.8121806152,
				"y": -1.57773825,
				"z": -2.6491802562,
				"element": "C" 
			},
			{
				"x": -2.3491011758,
				"y": -1.3020196271,
				"z": -3.9039409435,
				"element": "N" 
			},
			{
				"x": -0.6901428223,
				"y": -2.4149708676,
				"z": -2.528205239,
				"element": "C" 
			},
			{
				"x": -0.1762911211,
				"y": -2.7441425656,
				"z": -1.2796779999,
				"element": "C" 
			},
			{
				"x": 1.2368437589,
				"y": -0.3639668371,
				"z": 1.1261038012,
				"element": "N" 
			},
			{
				"x": 3.3465342127,
				"y": 2.2623197112,
				"z": 1.5871416067,
				"element": "H" 
			},
			{
				"x": 1.7408544816,
				"y": 2.3626452837,
				"z": 0.8347230816,
				"element": "H" 
			},
			{
				"x": 3.0296561345,
				"y": 1.4692731533,
				"z": 0.0298641873,
				"element": "H" 
			},
			{
				"x": 3.3689165263,
				"y": 0.4969809407,
				"z": 3.5812110793,
				"element": "H" 
			},
			{
				"x": -2.3657761864,
				"y": -1.0193013905,
				"z": 0.6593678732,
				"element": "H" 
			},
			{
				"x": -4.4559809079,
				"y": -0.6765192178,
				"z": -2.1439935083,
				"element": "H" 
			},
			{
				"x": -3.4258058698,
				"y": 0.7588199863,
				"z": -2.1175312341,
				"element": "H" 
			},
			{
				"x": -4.0285135862,
				"y": 0.0852903182,
				"z": -0.6039640666,
				"element": "H" 
			},
			{
				"x": -2.8600189075,
				"y": -0.4353080048,
				"z": -3.9900712347,
				"element": "H" 
			},
			{
				"x": -1.7286776256,
				"y": -1.4617912027,
				"z": -4.6850967731,
				"element": "H" 
			},
			{
				"x": -0.2219519936,
				"y": -2.8098079573,
				"z": -3.4267302402,
				"element": "H" 
			},
			{
				"x": 0.6923646048,
				"y": -3.3896181614,
				"z": -1.2018297104,
				"element": "H" 
			}
		],
		 "valence_orbital": [ 
			{
				"type": "occ",
				"energy": -0.26381,
				"method": "rhf"
			},
			{
				"type": "occ",
				"energy": -0.26292,
				"method": "rhf"
			},
			{
				"type": "occ",
				"energy": -0.24524,
				"method": "rhf"
			},
			{
				"type": "occ",
				"energy": -0.20722,
				"method": "rhf"
			},
			{
				"type": "occ",
				"energy": -0.20526,
				"method": "rhf"
			},
			{
				"type": "unocc",
				"energy": -0.01011,
				"method": "rhf"
			},
			{
				"type": "unocc",
				"energy": -0.00758,
				"method": "rhf"
			},
			{
				"type": "unocc",
				"energy": 0.00287,
				"method": "rhf"
			},
			{
				"type": "unocc",
				"energy": 0.024,
				"method": "rhf"
			},
			{
				"type": "unocc",
				"energy": 0.04798,
				"method": "rhf"
			}
		],
		"cosmo_sigma_profile": { 
			"-0.025": 0.0,
			"-0.024": 0.0,
			"-0.023": 0.0,
			"-0.022": 0.0,
			"-0.021": 0.0,
			"-0.02": 0.0,
			"-0.019": 0.0,
			"-0.018": 0.0,
			"-0.017": 0.0,
			"-0.016": 0.0,
			"-0.015": 0.0,
			"-0.014": 0.0,
			"-0.013": 0.503738728827,
			"-0.012": 2.58959248072,
			"-0.011": 2.83466259396,
			"-0.01": 2.58826301412,
			"-0.009": 4.14881998094,
			"-0.008": 4.77815236582,
			"-0.007": 5.51048560773,
			"-0.006": 7.45737096563,
			"-0.005": 14.7089302092,
			"-0.004": 18.7044777134,
			"-0.003": 18.4264047346,
			"-0.002": 19.0276838155,
			"-0.001": 21.4381230142,
			"0.0": 25.691051608,
			"0.001": 23.1393096782,
			"0.002": 22.6142421475,
			"0.003": 22.3975967394,
			"0.004": 19.6598216305,
			"0.005": 14.6963456365,
			"0.006": 6.94427189689,
			"0.007": 5.12577217967,
			"0.008": 2.89685844677,
			"0.009": 2.51204765182,
			"0.01": 2.15900455094,
			"0.011": 1.74527642939,
			"0.012": 2.18831826259,
			"0.013": 1.50737468167,
			"0.014": 1.01309795219,
			"0.015": 0.0848578493934,
			"0.016": 0.0,
			"0.017": 0.0,
			"0.018": 0.0,
			"0.019": 0.0,
			"0.02": 0.0,
			"0.021": 0.0,
			"0.022": 0.0,
			"0.023": 0.0,
			"0.024": 0.0,
			"0.025": 0.0
		}
	}
}
