{
	 "smiles": "OC(C(O)=O)C1=C(F)C=CC(F)=C1", 
	 "Tm": 384.15, 
	 "num_atms": 19, 
	 "gaussian": { 
		 "optdone": 1, 
		 "sigma_profile": "yes", 
		 "theory": "DFT", 
		 "functional": "B3LYP", 
		 "basiset": "6-31G**", 
		 "properties": { 
			 "R2extent": 3109.9769, 
			 "electric_dipole_moment_norm": 3.79938357763, 
			 "electric_quadrupole_moment_norm": 18.4848145912, 
			 "total_energy": -733.805846405, 
			 "HOMO_LUMO_gap": 0.21829, 
			 "cosmo_polarized_energy": -14.34, 
			 "cosmo_cavitation_energy": 24.66, 
			 "cosmo_dispersion_energy": -17.7, 
			 "cosmo_repulsion_energy": 1.37, 
			 "cosmo_total_nonelectrostatic_energy": 8.33, 
			 "SMD_solvation_energy": 6.29 
		},
		"coords": [
			{
				"x": -0.3160012539,
				"y": 1.2621488802,
				"z": 2.3943178311,
				"element": "O" 
			},
			{
				"x": -0.7271134918,
				"y": 0.8808148788,
				"z": 1.0773269317,
				"element": "C" 
			},
			{
				"x": -2.1563564279,
				"y": 1.4099676223,
				"z": 0.7794983118,
				"element": "C" 
			},
			{
				"x": -2.5654567868,
				"y": 2.3427622126,
				"z": 1.6540393616,
				"element": "O" 
			},
			{
				"x": -2.8081402533,
				"y": 1.0533001406,
				"z": -0.1692406377,
				"element": "O" 
			},
			{
				"x": -0.6077584664,
				"y": -0.6009228037,
				"z": 0.796729195,
				"element": "C" 
			},
			{
				"x": -1.1459735485,
				"y": -1.5396459832,
				"z": 1.6771199343,
				"element": "C" 
			},
			{
				"x": -1.755313912,
				"y": -1.0745053706,
				"z": 2.8100118818,
				"element": "F" 
			},
			{
				"x": -1.08196698,
				"y": -2.9072682257,
				"z": 1.4667223013,
				"element": "C" 
			},
			{
				"x": -0.4571125817,
				"y": -3.3778728537,
				"z": 0.3107721473,
				"element": "C" 
			},
			{
				"x": 0.0801601157,
				"y": -2.4553804243,
				"z": -0.5797824901,
				"element": "C" 
			},
			{
				"x": 0.6880803505,
				"y": -2.9016576401,
				"z": -1.6956262491,
				"element": "F" 
			},
			{
				"x": 0.0181732167,
				"y": -1.0840167144,
				"z": -0.3544653454,
				"element": "C" 
			},
			{
				"x": -0.6767003942,
				"y": 0.6032403148,
				"z": 3.0071437164,
				"element": "H" 
			},
			{
				"x": -0.0626079815,
				"y": 1.4205397529,
				"z": 0.3937056221,
				"element": "H" 
			},
			{
				"x": -1.8489730762,
				"y": 2.4290523211,
				"z": 2.3144848629,
				"element": "H" 
			},
			{
				"x": -1.5179074042,
				"y": -3.5832767312,
				"z": 2.1935123019,
				"element": "H" 
			},
			{
				"x": -0.3833589612,
				"y": -4.4383546163,
				"z": 0.0989032341,
				"element": "H" 
			},
			{
				"x": 0.451127837,
				"y": -0.4047247603,
				"z": -1.080672911,
				"element": "H" 
			}
		],
		 "valence_orbital": [ 
			{
				"type": "occ",
				"energy": -0.34186,
				"method": "rhf"
			},
			{
				"type": "occ",
				"energy": -0.31551,
				"method": "rhf"
			},
			{
				"type": "occ",
				"energy": -0.28334,
				"method": "rhf"
			},
			{
				"type": "occ",
				"energy": -0.26575,
				"method": "rhf"
			},
			{
				"type": "occ",
				"energy": -0.25793,
				"method": "rhf"
			},
			{
				"type": "unocc",
				"energy": -0.03964,
				"method": "rhf"
			},
			{
				"type": "unocc",
				"energy": -0.01777,
				"method": "rhf"
			},
			{
				"type": "unocc",
				"energy": 0.00591,
				"method": "rhf"
			},
			{
				"type": "unocc",
				"energy": 0.05441,
				"method": "rhf"
			},
			{
				"type": "unocc",
				"energy": 0.08064,
				"method": "rhf"
			}
		],
		"cosmo_sigma_profile": { 
			"-0.025": 0.0,
			"-0.024": 0.0,
			"-0.023": 0.0,
			"-0.022": 0.0,
			"-0.021": 0.0,
			"-0.02": 0.0,
			"-0.019": 0.0,
			"-0.018": 0.0,
			"-0.017": 0.0,
			"-0.016": 0.0,
			"-0.015": 0.0,
			"-0.014": 0.500513748637,
			"-0.013": 1.76066191411,
			"-0.012": 1.97020847676,
			"-0.011": 2.32130664067,
			"-0.01": 4.58715125744,
			"-0.009": 7.56575800869,
			"-0.008": 8.87937459494,
			"-0.007": 7.2005144533,
			"-0.006": 9.68004732505,
			"-0.005": 6.11168451368,
			"-0.004": 6.33698621031,
			"-0.003": 7.80814622841,
			"-0.002": 8.74041473625,
			"-0.001": 11.5540408836,
			"0.0": 16.752545471,
			"0.001": 18.5649337304,
			"0.002": 13.447258721,
			"0.003": 12.2325967228,
			"0.004": 13.4303479011,
			"0.005": 4.30772297723,
			"0.006": 3.13345433071,
			"0.007": 3.60671329532,
			"0.008": 4.27328262981,
			"0.009": 5.22532006704,
			"0.01": 5.75129291187,
			"0.011": 6.63810254739,
			"0.012": 4.49804383536,
			"0.013": 0.814164152126,
			"0.014": 0.0,
			"0.015": 0.0,
			"0.016": 0.0,
			"0.017": 0.0,
			"0.018": 0.0,
			"0.019": 0.0,
			"0.02": 0.0,
			"0.021": 0.0,
			"0.022": 0.0,
			"0.023": 0.0,
			"0.024": 0.0,
			"0.025": 0.0
		}
	}
}
