{
	 "smiles": "COC1=CC=C(OC(=O)OC2=CC=C(OC)C=C2)C=C1", 
	 "Tm": 360.15, 
	 "num_atms": 34, 
	 "gaussian": { 
		 "optdone": 1, 
		 "sigma_profile": "yes", 
		 "theory": "DFT", 
		 "functional": "B3LYP", 
		 "basiset": "6-31G**", 
		 "properties": { 
			 "R2extent": 9631.5817, 
			 "electric_dipole_moment_norm": 5.166514534, 
			 "electric_quadrupole_moment_norm": 26.8504670274, 
			 "total_energy": -956.125514073, 
			 "HOMO_LUMO_gap": 0.20352, 
			 "cosmo_polarized_energy": -14.49, 
			 "cosmo_cavitation_energy": 39.76, 
			 "cosmo_dispersion_energy": -28.16, 
			 "cosmo_repulsion_energy": 2.18, 
			 "cosmo_total_nonelectrostatic_energy": 13.79, 
			 "SMD_solvation_energy": 10.04 
		},
		"coords": [
			{
				"x": 3.8012441924,
				"y": -4.5603200151,
				"z": -2.0742842259,
				"element": "C" 
			},
			{
				"x": 2.406916197,
				"y": -4.8184428764,
				"z": -2.0598399247,
				"element": "O" 
			},
			{
				"x": 1.5546785982,
				"y": -3.7543653934,
				"z": -1.9891248615,
				"element": "C" 
			},
			{
				"x": 1.9556458961,
				"y": -2.415308389,
				"z": -1.9198094658,
				"element": "C" 
			},
			{
				"x": 0.9893185751,
				"y": -1.4077562765,
				"z": -1.8534655717,
				"element": "C" 
			},
			{
				"x": -0.3593785775,
				"y": -1.7361534316,
				"z": -1.8536657954,
				"element": "C" 
			},
			{
				"x": -1.2545910467,
				"y": -0.6688887412,
				"z": -1.6970431957,
				"element": "O" 
			},
			{
				"x": -2.3653471209,
				"y": -0.5994881441,
				"z": -2.471068485,
				"element": "C" 
			},
			{
				"x": -2.7109609056,
				"y": -1.3821204886,
				"z": -3.3143298484,
				"element": "O" 
			},
			{
				"x": -3.0933103399,
				"y": 0.502419815,
				"z": -2.1795398954,
				"element": "O" 
			},
			{
				"x": -2.6870730955,
				"y": 1.4199236798,
				"z": -1.1990736379,
				"element": "C" 
			},
			{
				"x": -2.0839932152,
				"y": 2.604166685,
				"z": -1.5974492382,
				"element": "C" 
			},
			{
				"x": -1.7560209434,
				"y": 3.574047271,
				"z": -0.6449268305,
				"element": "C" 
			},
			{
				"x": -2.0417176827,
				"y": 3.3443277392,
				"z": 0.7061067571,
				"element": "C" 
			},
			{
				"x": -1.7667578991,
				"y": 4.2182260819,
				"z": 1.7175430747,
				"element": "O" 
			},
			{
				"x": -1.1510379738,
				"y": 5.4531299762,
				"z": 1.3887437429,
				"element": "C" 
			},
			{
				"x": -2.6594786949,
				"y": 2.1440793149,
				"z": 1.0929440186,
				"element": "C" 
			},
			{
				"x": -2.9851187337,
				"y": 1.1847979407,
				"z": 0.1434941878,
				"element": "C" 
			},
			{
				"x": -0.772797675,
				"y": -3.0688546257,
				"z": -1.9147108797,
				"element": "C" 
			},
			{
				"x": 0.187159555,
				"y": -4.0701132998,
				"z": -1.9860649761,
				"element": "C" 
			},
			{
				"x": 4.0927215062,
				"y": -3.9545431252,
				"z": -2.9422526632,
				"element": "H" 
			},
			{
				"x": 4.129834676,
				"y": -4.0533033528,
				"z": -1.1575271185,
				"element": "H" 
			},
			{
				"x": 4.2880359069,
				"y": -5.5346748691,
				"z": -2.1381808329,
				"element": "H" 
			},
			{
				"x": 3.0038161888,
				"y": -2.1423175441,
				"z": -1.9175049212,
				"element": "H" 
			},
			{
				"x": 1.280621913,
				"y": -0.364305694,
				"z": -1.7954189896,
				"element": "H" 
			},
			{
				"x": -1.8771584764,
				"y": 2.7713898936,
				"z": -2.6494100687,
				"element": "H" 
			},
			{
				"x": -1.2865878208,
				"y": 4.4947968982,
				"z": -0.9692156281,
				"element": "H" 
			},
			{
				"x": -1.0257976845,
				"y": 5.9880878049,
				"z": 2.3313040645,
				"element": "H" 
			},
			{
				"x": -1.7776605825,
				"y": 6.0519891131,
				"z": 0.7150910623,
				"element": "H" 
			},
			{
				"x": -0.1669605973,
				"y": 5.304944768,
				"z": 0.9252162515,
				"element": "H" 
			},
			{
				"x": -2.8775303959,
				"y": 1.9892769389,
				"z": 2.1442297035,
				"element": "H" 
			},
			{
				"x": -3.4700069075,
				"y": 0.2586757963,
				"z": 0.4337444267,
				"element": "H" 
			},
			{
				"x": -1.8264627908,
				"y": -3.3161037056,
				"z": -1.9237265313,
				"element": "H" 
			},
			{
				"x": -0.102444045,
				"y": -5.1141197445,
				"z": -2.0403837039,
				"element": "H" 
			}
		],
		 "valence_orbital": [ 
			{
				"type": "occ",
				"energy": -0.28973,
				"method": "rhf"
			},
			{
				"type": "occ",
				"energy": -0.26098,
				"method": "rhf"
			},
			{
				"type": "occ",
				"energy": -0.25595,
				"method": "rhf"
			},
			{
				"type": "occ",
				"energy": -0.22345,
				"method": "rhf"
			},
			{
				"type": "occ",
				"energy": -0.21559,
				"method": "rhf"
			},
			{
				"type": "unocc",
				"energy": -0.01207,
				"method": "rhf"
			},
			{
				"type": "unocc",
				"energy": -0.0068,
				"method": "rhf"
			},
			{
				"type": "unocc",
				"energy": 0.00289,
				"method": "rhf"
			},
			{
				"type": "unocc",
				"energy": 0.01092,
				"method": "rhf"
			},
			{
				"type": "unocc",
				"energy": 0.0445,
				"method": "rhf"
			}
		],
		"cosmo_sigma_profile": { 
			"-0.025": 0.0,
			"-0.024": 0.0,
			"-0.023": 0.0,
			"-0.022": 0.0,
			"-0.021": 0.0,
			"-0.02": 0.0,
			"-0.019": 0.0,
			"-0.018": 0.0,
			"-0.017": 0.0,
			"-0.016": 0.0,
			"-0.015": 0.0,
			"-0.014": 0.0,
			"-0.013": 0.0,
			"-0.012": 0.0,
			"-0.011": 0.0,
			"-0.01": 0.0,
			"-0.009": 0.0,
			"-0.008": 0.582093615902,
			"-0.007": 9.65486521025,
			"-0.006": 25.8736375566,
			"-0.005": 33.8709201384,
			"-0.004": 29.6400317524,
			"-0.003": 27.114239271,
			"-0.002": 19.7054884014,
			"-0.001": 14.3032032465,
			"0.0": 13.6342319143,
			"0.001": 15.5995523635,
			"0.002": 21.7774579675,
			"0.003": 26.2694242397,
			"0.004": 27.7550213396,
			"0.005": 11.8441200918,
			"0.006": 7.80193184721,
			"0.007": 7.05087282889,
			"0.008": 5.90725866453,
			"0.009": 6.32041598096,
			"0.01": 6.11168575642,
			"0.011": 5.43115468531,
			"0.012": 1.66709023195,
			"0.013": 0.00144201986487,
			"0.014": 0.0,
			"0.015": 0.0,
			"0.016": 0.0,
			"0.017": 0.0,
			"0.018": 0.0,
			"0.019": 0.0,
			"0.02": 0.0,
			"0.021": 0.0,
			"0.022": 0.0,
			"0.023": 0.0,
			"0.024": 0.0,
			"0.025": 0.0
		}
	}
}
