{
	 "smiles": "COC(=O)C=CC=CC", 
	 "Tm": 288.15, 
	 "num_atms": 19, 
	 "gaussian": { 
		 "optdone": 1, 
		 "sigma_profile": "yes", 
		 "theory": "DFT", 
		 "functional": "B3LYP", 
		 "basiset": "6-31G**", 
		 "properties": { 
			 "R2extent": 2368.1606, 
			 "electric_dipole_moment_norm": 3.33942067281, 
			 "electric_quadrupole_moment_norm": 11.2957722516, 
			 "total_energy": -423.200705096, 
			 "HOMO_LUMO_gap": 0.17663, 
			 "cosmo_polarized_energy": -8.23, 
			 "cosmo_cavitation_energy": 23.92, 
			 "cosmo_dispersion_energy": -17.18, 
			 "cosmo_repulsion_energy": 1.45, 
			 "cosmo_total_nonelectrostatic_energy": 8.19, 
			 "SMD_solvation_energy": 6.32 
		},
		"coords": [
			{
				"x": -3.1618134295,
				"y": -0.5611815041,
				"z": -2.7640557609,
				"element": "C" 
			},
			{
				"x": -2.2511345841,
				"y": -0.3652802051,
				"z": -1.6747182482,
				"element": "O" 
			},
			{
				"x": -1.8590489249,
				"y": -1.5022331256,
				"z": -1.0425024719,
				"element": "C" 
			},
			{
				"x": -2.2473623337,
				"y": -2.6086901331,
				"z": -1.3700624591,
				"element": "O" 
			},
			{
				"x": -0.9247602783,
				"y": -1.2549916473,
				"z": 0.0688794703,
				"element": "C" 
			},
			{
				"x": -0.4828869271,
				"y": -0.0385437077,
				"z": 0.4476379323,
				"element": "C" 
			},
			{
				"x": 0.4367845725,
				"y": 0.1897903433,
				"z": 1.5435650764,
				"element": "C" 
			},
			{
				"x": 0.8674895198,
				"y": 1.4112048011,
				"z": 1.9078900007,
				"element": "C" 
			},
			{
				"x": 1.8155021538,
				"y": 1.6929841943,
				"z": 3.0313085515,
				"element": "C" 
			},
			{
				"x": -4.0820414513,
				"y": -1.0400661195,
				"z": -2.4189530893,
				"element": "H" 
			},
			{
				"x": -2.7119378629,
				"y": -1.1894148426,
				"z": -3.5374808557,
				"element": "H" 
			},
			{
				"x": -3.3733208464,
				"y": 0.4340610415,
				"z": -3.1560271655,
				"element": "H" 
			},
			{
				"x": -0.604938158,
				"y": -2.157796028,
				"z": 0.5811806473,
				"element": "H" 
			},
			{
				"x": -0.8328085315,
				"y": 0.835659775,
				"z": -0.0976947575,
				"element": "H" 
			},
			{
				"x": 0.7869395057,
				"y": -0.6864981311,
				"z": 2.0894789896,
				"element": "H" 
			},
			{
				"x": 0.5061287389,
				"y": 2.2760555458,
				"z": 1.3497767263,
				"element": "H" 
			},
			{
				"x": 2.1287160077,
				"y": 0.7754182967,
				"z": 3.537529347,
				"element": "H" 
			},
			{
				"x": 1.3572886889,
				"y": 2.3568252232,
				"z": 3.7757752851,
				"element": "H" 
			},
			{
				"x": 2.7138041404,
				"y": 2.2087962232,
				"z": 2.6681727814,
				"element": "H" 
			}
		],
		 "valence_orbital": [ 
			{
				"type": "occ",
				"energy": -0.34845,
				"method": "rhf"
			},
			{
				"type": "occ",
				"energy": -0.32278,
				"method": "rhf"
			},
			{
				"type": "occ",
				"energy": -0.29183,
				"method": "rhf"
			},
			{
				"type": "occ",
				"energy": -0.26287,
				"method": "rhf"
			},
			{
				"type": "occ",
				"energy": -0.23376,
				"method": "rhf"
			},
			{
				"type": "unocc",
				"energy": -0.05713,
				"method": "rhf"
			},
			{
				"type": "unocc",
				"energy": 0.04363,
				"method": "rhf"
			},
			{
				"type": "unocc",
				"energy": 0.10048,
				"method": "rhf"
			},
			{
				"type": "unocc",
				"energy": 0.10598,
				"method": "rhf"
			},
			{
				"type": "unocc",
				"energy": 0.10803,
				"method": "rhf"
			}
		],
		"cosmo_sigma_profile": { 
			"-0.025": 0.0,
			"-0.024": 0.0,
			"-0.023": 0.0,
			"-0.022": 0.0,
			"-0.021": 0.0,
			"-0.02": 0.0,
			"-0.019": 0.0,
			"-0.018": 0.0,
			"-0.017": 0.0,
			"-0.016": 0.0,
			"-0.015": 0.0,
			"-0.014": 0.0,
			"-0.013": 0.0,
			"-0.012": 0.0,
			"-0.011": 0.0,
			"-0.01": 0.0,
			"-0.009": 0.0,
			"-0.008": 0.0,
			"-0.007": 0.928195386317,
			"-0.006": 9.89490003906,
			"-0.005": 15.7680967745,
			"-0.004": 19.8111913308,
			"-0.003": 21.2100053593,
			"-0.002": 17.8257501792,
			"-0.001": 18.0390680806,
			"0.0": 14.180152969,
			"0.001": 12.522978574,
			"0.002": 11.7180818971,
			"0.003": 13.3874493691,
			"0.004": 8.6916025755,
			"0.005": 4.12319406517,
			"0.006": 3.62827177654,
			"0.007": 2.4664828218,
			"0.008": 1.00554522363,
			"0.009": 1.96750136239,
			"0.01": 1.50120809081,
			"0.011": 1.93547285974,
			"0.012": 4.20542935538,
			"0.013": 4.02776980667,
			"0.014": 0.394545070299,
			"0.015": 0.0,
			"0.016": 0.0,
			"0.017": 0.0,
			"0.018": 0.0,
			"0.019": 0.0,
			"0.02": 0.0,
			"0.021": 0.0,
			"0.022": 0.0,
			"0.023": 0.0,
			"0.024": 0.0,
			"0.025": 0.0
		}
	}
}
