{
	 "smiles": "CC1=CC(=CC=C1)C1=NN=C(S)N1CC(N)=O", 
	 "Tm": 290.15, 
	 "num_atms": 29, 
	 "gaussian": { 
		 "optdone": 1, 
		 "sigma_profile": "yes", 
		 "theory": "DFT", 
		 "functional": "B3LYP", 
		 "basiset": "6-31G**", 
		 "properties": { 
			 "R2extent": 4927.6498, 
			 "electric_dipole_moment_norm": 6.4309643888, 
			 "electric_quadrupole_moment_norm": 25.0407947292, 
			 "total_energy": -1118.81612855, 
			 "HOMO_LUMO_gap": 0.19322, 
			 "cosmo_polarized_energy": -25.02, 
			 "cosmo_cavitation_energy": 34.78, 
			 "cosmo_dispersion_energy": -24.89, 
			 "cosmo_repulsion_energy": 1.89, 
			 "cosmo_total_nonelectrostatic_energy": 11.78, 
			 "SMD_solvation_energy": 4.26 
		},
		"coords": [
			{
				"x": 2.7157304364,
				"y": 0.0464295725,
				"z": 2.9377170892,
				"element": "C" 
			},
			{
				"x": 2.6062667866,
				"y": -0.0347183222,
				"z": 1.4323012662,
				"element": "C" 
			},
			{
				"x": 1.3571099077,
				"y": -0.1533589191,
				"z": 0.8126256835,
				"element": "C" 
			},
			{
				"x": 1.2503002917,
				"y": -0.2459161536,
				"z": -0.5859018108,
				"element": "C" 
			},
			{
				"x": 2.413330376,
				"y": -0.2441385759,
				"z": -1.3710697495,
				"element": "C" 
			},
			{
				"x": 3.6589366696,
				"y": -0.1314213222,
				"z": -0.7581309476,
				"element": "C" 
			},
			{
				"x": 3.7551610515,
				"y": -0.0188365344,
				"z": 0.6292816214,
				"element": "C" 
			},
			{
				"x": -0.04697654,
				"y": -0.3936182359,
				"z": -1.261470152,
				"element": "C" 
			},
			{
				"x": -0.26118185,
				"y": -1.1661587789,
				"z": -2.3058276428,
				"element": "N" 
			},
			{
				"x": -1.5835305656,
				"y": -1.041637824,
				"z": -2.6779934389,
				"element": "N" 
			},
			{
				"x": -2.1301800936,
				"y": -0.1849677938,
				"z": -1.8520577884,
				"element": "C" 
			},
			{
				"x": -3.8129859356,
				"y": 0.3636550745,
				"z": -1.8823347122,
				"element": "S" 
			},
			{
				"x": -1.2206110271,
				"y": 0.2707280516,
				"z": -0.9266621358,
				"element": "N" 
			},
			{
				"x": -1.4254500592,
				"y": 1.3720791779,
				"z": 0.0006032961,
				"element": "C" 
			},
			{
				"x": -2.175151277,
				"y": 0.9393869735,
				"z": 1.2754072587,
				"element": "C" 
			},
			{
				"x": -3.3037309447,
				"y": 1.6532000612,
				"z": 1.5447776269,
				"element": "N" 
			},
			{
				"x": -1.7522264959,
				"y": 0.0529440897,
				"z": 2.0004154307,
				"element": "O" 
			},
			{
				"x": 3.3141224169,
				"y": 0.9102557494,
				"z": 3.2486640035,
				"element": "H" 
			},
			{
				"x": 1.7310032251,
				"y": 0.1302837706,
				"z": 3.4047257834,
				"element": "H" 
			},
			{
				"x": 3.2031013649,
				"y": -0.8458748844,
				"z": 3.3480744396,
				"element": "H" 
			},
			{
				"x": 0.4603366775,
				"y": -0.2133087459,
				"z": 1.4235852705,
				"element": "H" 
			},
			{
				"x": 2.3241925186,
				"y": -0.333720851,
				"z": -2.4481927124,
				"element": "H" 
			},
			{
				"x": 4.5596148696,
				"y": -0.1261578502,
				"z": -1.3654240407,
				"element": "H" 
			},
			{
				"x": 4.7331341753,
				"y": 0.0736471602,
				"z": 1.0959568277,
				"element": "H" 
			},
			{
				"x": -4.0050179347,
				"y": -0.0377754301,
				"z": -3.1523864351,
				"element": "H" 
			},
			{
				"x": -0.4440055766,
				"y": 1.7420466093,
				"z": 0.3051083868,
				"element": "H" 
			},
			{
				"x": -1.9459016147,
				"y": 2.1789355695,
				"z": -0.5253588207,
				"element": "H" 
			},
			{
				"x": -3.7327587647,
				"y": 2.2533461757,
				"z": 0.858121591,
				"element": "H" 
			},
			{
				"x": -3.8549320878,
				"y": 1.3693721858,
				"z": 2.3422448119,
				"element": "H" 
			}
		],
		 "valence_orbital": [ 
			{
				"type": "occ",
				"energy": -0.2707,
				"method": "rhf"
			},
			{
				"type": "occ",
				"energy": -0.26296,
				"method": "rhf"
			},
			{
				"type": "occ",
				"energy": -0.25215,
				"method": "rhf"
			},
			{
				"type": "occ",
				"energy": -0.24336,
				"method": "rhf"
			},
			{
				"type": "occ",
				"energy": -0.21982,
				"method": "rhf"
			},
			{
				"type": "unocc",
				"energy": -0.0266,
				"method": "rhf"
			},
			{
				"type": "unocc",
				"energy": -0.01359,
				"method": "rhf"
			},
			{
				"type": "unocc",
				"energy": 0.00172,
				"method": "rhf"
			},
			{
				"type": "unocc",
				"energy": 0.00682,
				"method": "rhf"
			},
			{
				"type": "unocc",
				"energy": 0.0246,
				"method": "rhf"
			}
		],
		"cosmo_sigma_profile": { 
			"-0.025": 0.0,
			"-0.024": 0.0,
			"-0.023": 0.0,
			"-0.022": 0.0,
			"-0.021": 0.0,
			"-0.02": 0.0,
			"-0.019": 0.0,
			"-0.018": 0.0,
			"-0.017": 0.0,
			"-0.016": 0.0,
			"-0.015": 0.961188235975,
			"-0.014": 3.19937661045,
			"-0.013": 3.17683965068,
			"-0.012": 4.36353135147,
			"-0.011": 3.95977463306,
			"-0.01": 4.33429529548,
			"-0.009": 4.11592069989,
			"-0.008": 5.83881974527,
			"-0.007": 7.25051905143,
			"-0.006": 10.1424170915,
			"-0.005": 13.3429594138,
			"-0.004": 18.0286116424,
			"-0.003": 16.9699994882,
			"-0.002": 20.6891411656,
			"-0.001": 19.7076312024,
			"0.0": 24.3227046532,
			"0.001": 16.4855625207,
			"0.002": 15.1726689167,
			"0.003": 14.5468608501,
			"0.004": 15.2048345577,
			"0.005": 14.5332371394,
			"0.006": 5.84237517718,
			"0.007": 3.83568353728,
			"0.008": 2.92157726998,
			"0.009": 4.08693337657,
			"0.01": 3.23801055863,
			"0.011": 3.9961438705,
			"0.012": 5.94134248178,
			"0.013": 5.65540176425,
			"0.014": 3.34360125615,
			"0.015": 2.35551798703,
			"0.016": 1.70438095554,
			"0.017": 0.356571980671,
			"0.018": 0.0,
			"0.019": 0.0,
			"0.02": 0.0,
			"0.021": 0.0,
			"0.022": 0.0,
			"0.023": 0.0,
			"0.024": 0.0,
			"0.025": 0.0
		}
	}
}
