{
	 "smiles": "NC1=CC(=CC=C1)C1=NNC2=C1CCC2", 
	 "Tm": 442.15, 
	 "num_atms": 28, 
	 "gaussian": { 
		 "optdone": 1, 
		 "sigma_profile": "yes", 
		 "theory": "DFT", 
		 "functional": "B3LYP", 
		 "basiset": "6-31G**", 
		 "properties": { 
			 "R2extent": 3948.0296, 
			 "electric_dipole_moment_norm": 2.3282466128, 
			 "electric_quadrupole_moment_norm": 16.596743799, 
			 "total_energy": -629.352360718, 
			 "HOMO_LUMO_gap": 0.18145, 
			 "cosmo_polarized_energy": -15.25, 
			 "cosmo_cavitation_energy": 30.59, 
			 "cosmo_dispersion_energy": -23.12, 
			 "cosmo_repulsion_energy": 1.82, 
			 "cosmo_total_nonelectrostatic_energy": 9.29, 
			 "SMD_solvation_energy": 3.46 
		},
		"coords": [
			{
				"x": -4.7550188203,
				"y": -1.2045067201,
				"z": -0.878012574,
				"element": "N" 
			},
			{
				"x": -3.753633149,
				"y": -0.2644787402,
				"z": -0.6095961286,
				"element": "C" 
			},
			{
				"x": -2.4124642822,
				"y": -0.6594200949,
				"z": -0.5244037065,
				"element": "C" 
			},
			{
				"x": -1.4044209975,
				"y": 0.2586642422,
				"z": -0.1996703239,
				"element": "C" 
			},
			{
				"x": -1.7500297281,
				"y": 1.5979738023,
				"z": 0.0434798517,
				"element": "C" 
			},
			{
				"x": -3.0844050173,
				"y": 1.993849155,
				"z": -0.0435000191,
				"element": "C" 
			},
			{
				"x": -4.0843248768,
				"y": 1.0809537817,
				"z": -0.3664558947,
				"element": "C" 
			},
			{
				"x": -0.0020436177,
				"y": -0.1844196107,
				"z": -0.1183071095,
				"element": "C" 
			},
			{
				"x": 0.3089942501,
				"y": -1.4849995571,
				"z": -0.2639411042,
				"element": "N" 
			},
			{
				"x": 1.6569775087,
				"y": -1.5542146146,
				"z": -0.1309596203,
				"element": "N" 
			},
			{
				"x": 2.2086521307,
				"y": -0.3351880948,
				"z": 0.079619176,
				"element": "C" 
			},
			{
				"x": 1.1819488989,
				"y": 0.5764969288,
				"z": 0.0963423733,
				"element": "C" 
			},
			{
				"x": 1.7084109706,
				"y": 1.961071635,
				"z": 0.3694943321,
				"element": "C" 
			},
			{
				"x": 3.2534728085,
				"y": 1.7710004673,
				"z": 0.188776967,
				"element": "C" 
			},
			{
				"x": 3.5640173552,
				"y": 0.2441249675,
				"z": 0.3433250213,
				"element": "C" 
			},
			{
				"x": -4.4358091405,
				"y": -2.0320511158,
				"z": -1.3632722633,
				"element": "H" 
			},
			{
				"x": -5.5907505938,
				"y": -0.8245367815,
				"z": -1.3014568179,
				"element": "H" 
			},
			{
				"x": -2.1367755896,
				"y": -1.6933872005,
				"z": -0.7080950992,
				"element": "H" 
			},
			{
				"x": -0.9865829463,
				"y": 2.3226129656,
				"z": 0.3028616468,
				"element": "H" 
			},
			{
				"x": -3.3507785433,
				"y": 3.0307679751,
				"z": 0.1434930076,
				"element": "H" 
			},
			{
				"x": -5.1220773801,
				"y": 1.4001487796,
				"z": -0.4258049684,
				"element": "H" 
			},
			{
				"x": 2.1049047667,
				"y": -2.4526838065,
				"z": -0.2155131368,
				"element": "H" 
			},
			{
				"x": 1.3226818073,
				"y": 2.7277412752,
				"z": -0.3114476244,
				"element": "H" 
			},
			{
				"x": 1.4638085378,
				"y": 2.2930219789,
				"z": 1.3879370063,
				"element": "H" 
			},
			{
				"x": 3.5323785818,
				"y": 2.0833045338,
				"z": -0.8225466176,
				"element": "H" 
			},
			{
				"x": 3.8339643916,
				"y": 2.3806593831,
				"z": 0.8868496067,
				"element": "H" 
			},
			{
				"x": 4.3419869776,
				"y": -0.0893193491,
				"z": -0.3526681707,
				"element": "H" 
			},
			{
				"x": 3.914415697,
				"y": 0.0012138147,
				"z": 1.3558721904,
				"element": "H" 
			}
		],
		 "valence_orbital": [ 
			{
				"type": "occ",
				"energy": -0.27178,
				"method": "rhf"
			},
			{
				"type": "occ",
				"energy": -0.26528,
				"method": "rhf"
			},
			{
				"type": "occ",
				"energy": -0.22181,
				"method": "rhf"
			},
			{
				"type": "occ",
				"energy": -0.20834,
				"method": "rhf"
			},
			{
				"type": "occ",
				"energy": -0.1896,
				"method": "rhf"
			},
			{
				"type": "unocc",
				"energy": -0.00815,
				"method": "rhf"
			},
			{
				"type": "unocc",
				"energy": 0.02795,
				"method": "rhf"
			},
			{
				"type": "unocc",
				"energy": 0.04249,
				"method": "rhf"
			},
			{
				"type": "unocc",
				"energy": 0.08652,
				"method": "rhf"
			},
			{
				"type": "unocc",
				"energy": 0.08899,
				"method": "rhf"
			}
		],
		"cosmo_sigma_profile": { 
			"-0.025": 0.0,
			"-0.024": 0.0,
			"-0.023": 0.0,
			"-0.022": 0.0,
			"-0.021": 0.0,
			"-0.02": 0.0,
			"-0.019": 0.0,
			"-0.018": 0.0,
			"-0.017": 0.0548771722812,
			"-0.016": 1.12961421176,
			"-0.015": 1.60624897702,
			"-0.014": 1.15059519523,
			"-0.013": 1.15161519892,
			"-0.012": 2.75280488545,
			"-0.011": 3.3200549057,
			"-0.01": 3.38534177352,
			"-0.009": 4.21569241534,
			"-0.008": 4.59615258329,
			"-0.007": 3.07345156908,
			"-0.006": 4.58697380686,
			"-0.005": 7.37340721976,
			"-0.004": 15.5670038512,
			"-0.003": 25.7550048364,
			"-0.002": 25.4016434241,
			"-0.001": 19.4204982342,
			"0.0": 16.687288497,
			"0.001": 11.1209226776,
			"0.002": 8.71903443187,
			"0.003": 7.77590483296,
			"0.004": 12.3289008672,
			"0.005": 16.690706462,
			"0.006": 15.1967543431,
			"0.007": 11.8308264004,
			"0.008": 3.06286692001,
			"0.009": 2.88523880935,
			"0.01": 2.65101805529,
			"0.011": 2.14520558527,
			"0.012": 2.22135974552,
			"0.013": 1.54040360094,
			"0.014": 1.89606147057,
			"0.015": 0.806859425761,
			"0.016": 0.0,
			"0.017": 0.0,
			"0.018": 0.0,
			"0.019": 0.0,
			"0.02": 0.0,
			"0.021": 0.0,
			"0.022": 0.0,
			"0.023": 0.0,
			"0.024": 0.0,
			"0.025": 0.0
		}
	}
}
