{
	 "smiles": "CCC(C(O)=O)C1=CC=C(C=C1)N1CC2=C(C=CC=C2)C1=O", 
	 "Tm": 456.15, 
	 "num_atms": 39, 
	 "gaussian": { 
		 "optdone": 1, 
		 "sigma_profile": "yes", 
		 "theory": "DFT", 
		 "functional": "B3LYP", 
		 "basiset": "6-31G**", 
		 "properties": { 
			 "R2extent": 10941.0155, 
			 "electric_dipole_moment_norm": 8.21191661794, 
			 "electric_quadrupole_moment_norm": 18.0098806206, 
			 "total_energy": -976.628464844, 
			 "HOMO_LUMO_gap": 0.16964, 
			 "cosmo_polarized_energy": -20.26, 
			 "cosmo_cavitation_energy": 42.34, 
			 "cosmo_dispersion_energy": -29.94, 
			 "cosmo_repulsion_energy": 2.26, 
			 "cosmo_total_nonelectrostatic_energy": 14.65, 
			 "SMD_solvation_energy": 8.01 
		},
		"coords": [
			{
				"x": 4.2436393926,
				"y": 0.9381137024,
				"z": 3.3105194879,
				"element": "C" 
			},
			{
				"x": 3.2554926171,
				"y": 1.9769277966,
				"z": 3.8447953076,
				"element": "C" 
			},
			{
				"x": 1.7810829629,
				"y": 1.5332101909,
				"z": 3.7363264101,
				"element": "C" 
			},
			{
				"x": 0.8771314206,
				"y": 2.4736778792,
				"z": 4.5642748623,
				"element": "C" 
			},
			{
				"x": -0.4310049842,
				"y": 2.4986918496,
				"z": 4.2143276809,
				"element": "O" 
			},
			{
				"x": 1.2679579657,
				"y": 3.1170473723,
				"z": 5.5075354922,
				"element": "O" 
			},
			{
				"x": 1.2973552502,
				"y": 1.3465624239,
				"z": 2.3064128588,
				"element": "C" 
			},
			{
				"x": 1.2407785741,
				"y": 2.4243276841,
				"z": 1.4054217796,
				"element": "C" 
			},
			{
				"x": 0.8150148851,
				"y": 2.2685093974,
				"z": 0.091553133,
				"element": "C" 
			},
			{
				"x": 0.4227418095,
				"y": 0.9978985719,
				"z": -0.3782984018,
				"element": "C" 
			},
			{
				"x": 0.4703421737,
				"y": -0.0870383526,
				"z": 0.5140917148,
				"element": "C" 
			},
			{
				"x": 0.8995104551,
				"y": 0.0927450205,
				"z": 1.8285097153,
				"element": "C" 
			},
			{
				"x": -0.012980477,
				"y": 0.7956559816,
				"z": -1.7029239925,
				"element": "N" 
			},
			{
				"x": -0.41781684,
				"y": -0.5330309017,
				"z": -2.1803265057,
				"element": "C" 
			},
			{
				"x": -0.7976619336,
				"y": -0.2904062381,
				"z": -3.6172034991,
				"element": "C" 
			},
			{
				"x": -0.6182136807,
				"y": 1.0580828954,
				"z": -3.9118442303,
				"element": "C" 
			},
			{
				"x": -0.8910051902,
				"y": 1.5797068063,
				"z": -5.1742505627,
				"element": "C" 
			},
			{
				"x": -1.3566865314,
				"y": 0.7012418376,
				"z": -6.1526967519,
				"element": "C" 
			},
			{
				"x": -1.5392648357,
				"y": -0.6586945587,
				"z": -5.8609127303,
				"element": "C" 
			},
			{
				"x": -1.2618723536,
				"y": -1.1712868935,
				"z": -4.5891545665,
				"element": "C" 
			},
			{
				"x": -0.1194328431,
				"y": 1.7693669124,
				"z": -2.7106719381,
				"element": "C" 
			},
			{
				"x": 0.14490943,
				"y": 2.957868311,
				"z": -2.6155372842,
				"element": "O" 
			},
			{
				"x": 4.1604035455,
				"y": -0.0079434449,
				"z": 3.8586054011,
				"element": "H" 
			},
			{
				"x": 4.0742867612,
				"y": 0.7244164651,
				"z": 2.2502756858,
				"element": "H" 
			},
			{
				"x": 5.2731925022,
				"y": 1.2929938218,
				"z": 3.4193797627,
				"element": "H" 
			},
			{
				"x": 3.3828935197,
				"y": 2.9251313358,
				"z": 3.3086200713,
				"element": "H" 
			},
			{
				"x": 3.4566466657,
				"y": 2.1940421184,
				"z": 4.8973019995,
				"element": "H" 
			},
			{
				"x": 1.6902542239,
				"y": 0.5601819613,
				"z": 4.2436223826,
				"element": "H" 
			},
			{
				"x": -0.5514339855,
				"y": 1.9845013379,
				"z": 3.3995971273,
				"element": "H" 
			},
			{
				"x": 1.5338688333,
				"y": 3.4172014498,
				"z": 1.7375442323,
				"element": "H" 
			},
			{
				"x": 0.7797344504,
				"y": 3.1140187878,
				"z": -0.5797443445,
				"element": "H" 
			},
			{
				"x": 0.1771990318,
				"y": -1.0805579,
				"z": 0.1967027722,
				"element": "H" 
			},
			{
				"x": 0.9298485381,
				"y": -0.7684293847,
				"z": 2.4916152459,
				"element": "H" 
			},
			{
				"x": -1.2595745607,
				"y": -0.9187965137,
				"z": -1.5903318681,
				"element": "H" 
			},
			{
				"x": 0.4096150485,
				"y": -1.2485981029,
				"z": -2.0869120575,
				"element": "H" 
			},
			{
				"x": -0.7407718771,
				"y": 2.6361600814,
				"z": -5.3724401715,
				"element": "H" 
			},
			{
				"x": -1.5809015935,
				"y": 1.0689982924,
				"z": -7.1494208969,
				"element": "H" 
			},
			{
				"x": -1.9028320534,
				"y": -1.3260792457,
				"z": -6.6368781855,
				"element": "H" 
			},
			{
				"x": -1.4076463168,
				"y": -2.2267187485,
				"z": -4.376185136,
				"element": "H" 
			}
		],
		 "valence_orbital": [ 
			{
				"type": "occ",
				"energy": -0.26818,
				"method": "rhf"
			},
			{
				"type": "occ",
				"energy": -0.26581,
				"method": "rhf"
			},
			{
				"type": "occ",
				"energy": -0.26419,
				"method": "rhf"
			},
			{
				"type": "occ",
				"energy": -0.26286,
				"method": "rhf"
			},
			{
				"type": "occ",
				"energy": -0.22564,
				"method": "rhf"
			},
			{
				"type": "unocc",
				"energy": -0.056,
				"method": "rhf"
			},
			{
				"type": "unocc",
				"energy": -0.02622,
				"method": "rhf"
			},
			{
				"type": "unocc",
				"energy": -0.01664,
				"method": "rhf"
			},
			{
				"type": "unocc",
				"energy": -0.00742,
				"method": "rhf"
			},
			{
				"type": "unocc",
				"energy": 0.01607,
				"method": "rhf"
			}
		],
		"cosmo_sigma_profile": { 
			"-0.025": 0.0,
			"-0.024": 0.0,
			"-0.023": 0.0,
			"-0.022": 0.0,
			"-0.021": 0.0,
			"-0.02": 0.0,
			"-0.019": 0.0,
			"-0.018": 0.0,
			"-0.017": 0.0,
			"-0.016": 0.0,
			"-0.015": 0.0495021772555,
			"-0.014": 0.439252142067,
			"-0.013": 0.890465685436,
			"-0.012": 0.254375971793,
			"-0.011": 1.0519457975,
			"-0.01": 1.23526577491,
			"-0.009": 1.29804505629,
			"-0.008": 2.94185157191,
			"-0.007": 17.7328514152,
			"-0.006": 25.8143755012,
			"-0.005": 22.2519987465,
			"-0.004": 21.0147769057,
			"-0.003": 22.0518277614,
			"-0.002": 24.6813526819,
			"-0.001": 24.2502509598,
			"0.0": 26.7190564611,
			"0.001": 28.6204425201,
			"0.002": 21.5160207346,
			"0.003": 23.1752458173,
			"0.004": 19.7370313397,
			"0.005": 7.06677793249,
			"0.006": 3.88376487185,
			"0.007": 3.44717949934,
			"0.008": 5.43126415062,
			"0.009": 4.52741023544,
			"0.01": 6.036821994,
			"0.011": 7.45516975174,
			"0.012": 8.53657287835,
			"0.013": 4.34342453544,
			"0.014": 0.283609965033,
			"0.015": 0.0,
			"0.016": 0.0,
			"0.017": 0.0,
			"0.018": 0.0,
			"0.019": 0.0,
			"0.02": 0.0,
			"0.021": 0.0,
			"0.022": 0.0,
			"0.023": 0.0,
			"0.024": 0.0,
			"0.025": 0.0
		}
	}
}
