{
	 "smiles": "COC1=CC=C(C=C1)C1=C(OC(F)F)C=CC(N)=C1", 
	 "Tm": 406.15, 
	 "num_atms": 32, 
	 "gaussian": { 
		 "optdone": 1, 
		 "sigma_profile": "yes", 
		 "theory": "DFT", 
		 "functional": "B3LYP", 
		 "basiset": "6-31G**", 
		 "properties": { 
			 "R2extent": 6489.3001, 
			 "electric_dipole_moment_norm": 5.12733356531, 
			 "electric_quadrupole_moment_norm": 17.4903754531, 
			 "total_energy": -946.191983211, 
			 "HOMO_LUMO_gap": 0.18021, 
			 "cosmo_polarized_energy": -13.94, 
			 "cosmo_cavitation_energy": 37.12, 
			 "cosmo_dispersion_energy": -25.93, 
			 "cosmo_repulsion_energy": 1.97, 
			 "cosmo_total_nonelectrostatic_energy": 13.16, 
			 "SMD_solvation_energy": 7.96 
		},
		"coords": [
			{
				"x": 4.5596043851,
				"y": -0.2539986477,
				"z": 3.1065720487,
				"element": "C" 
			},
			{
				"x": 3.7251661736,
				"y": -1.299641096,
				"z": 2.6353116601,
				"element": "O" 
			},
			{
				"x": 2.4772763945,
				"y": -0.9782239816,
				"z": 2.1878865005,
				"element": "C" 
			},
			{
				"x": 1.6946223542,
				"y": -2.0517712449,
				"z": 1.7358416588,
				"element": "C" 
			},
			{
				"x": 0.4112096369,
				"y": -1.8337712914,
				"z": 1.2572114098,
				"element": "C" 
			},
			{
				"x": -0.1417937239,
				"y": -0.5377993442,
				"z": 1.2175228781,
				"element": "C" 
			},
			{
				"x": 0.6560536291,
				"y": 0.52169423,
				"z": 1.6706957043,
				"element": "C" 
			},
			{
				"x": 1.951384752,
				"y": 0.3178559903,
				"z": 2.1515515606,
				"element": "C" 
			},
			{
				"x": -1.5301460751,
				"y": -0.2844236286,
				"z": 0.7486173816,
				"element": "C" 
			},
			{
				"x": -2.0699644319,
				"y": -0.8867087088,
				"z": -0.4027768495,
				"element": "C" 
			},
			{
				"x": -1.3149531465,
				"y": -1.8115012493,
				"z": -1.1384059831,
				"element": "O" 
			},
			{
				"x": -0.631334407,
				"y": -1.291890957,
				"z": -2.2082752292,
				"element": "C" 
			},
			{
				"x": -1.4845554917,
				"y": -1.0345901843,
				"z": -3.2457308491,
				"element": "F" 
			},
			{
				"x": 0.2315554535,
				"y": -2.2398675365,
				"z": -2.6207396026,
				"element": "F" 
			},
			{
				"x": -3.3675542402,
				"y": -0.6049436233,
				"z": -0.8223220861,
				"element": "C" 
			},
			{
				"x": -4.1657119758,
				"y": 0.2800692572,
				"z": -0.1066069051,
				"element": "C" 
			},
			{
				"x": -3.6639282695,
				"y": 0.9002701126,
				"z": 1.0501208844,
				"element": "C" 
			},
			{
				"x": -4.4739717267,
				"y": 1.7376508,
				"z": 1.8193140528,
				"element": "N" 
			},
			{
				"x": -2.3537829646,
				"y": 0.6045945721,
				"z": 1.4562919444,
				"element": "C" 
			},
			{
				"x": 5.4927882577,
				"y": -0.7280606226,
				"z": 3.4146444037,
				"element": "H" 
			},
			{
				"x": 4.7720482582,
				"y": 0.4814523472,
				"z": 2.3197323858,
				"element": "H" 
			},
			{
				"x": 4.1159925624,
				"y": 0.2620698779,
				"z": 3.9679789943,
				"element": "H" 
			},
			{
				"x": 2.1162949141,
				"y": -3.0508944419,
				"z": 1.7733340372,
				"element": "H" 
			},
			{
				"x": -0.176734773,
				"y": -2.6766826939,
				"z": 0.9136826132,
				"element": "H" 
			},
			{
				"x": 0.2669435593,
				"y": 1.5351400763,
				"z": 1.6316682981,
				"element": "H" 
			},
			{
				"x": 2.534628872,
				"y": 1.1688907201,
				"z": 2.4828231982,
				"element": "H" 
			},
			{
				"x": -0.0948386087,
				"y": -0.3658665959,
				"z": -1.9713325499,
				"element": "H" 
			},
			{
				"x": -3.7376152294,
				"y": -1.0860575915,
				"z": -1.7208051743,
				"element": "H" 
			},
			{
				"x": -5.1808235238,
				"y": 0.4850830025,
				"z": -0.4359228748,
				"element": "H" 
			},
			{
				"x": -5.2372859789,
				"y": 2.1739179657,
				"z": 1.3211167596,
				"element": "H" 
			},
			{
				"x": -3.9803577295,
				"y": 2.3963859587,
				"z": 2.4054177533,
				"element": "H" 
			},
			{
				"x": -1.9705169066,
				"y": 1.0528185289,
				"z": 2.3689819761,
				"element": "H" 
			}
		],
		 "valence_orbital": [ 
			{
				"type": "occ",
				"energy": -0.30091,
				"method": "rhf"
			},
			{
				"type": "occ",
				"energy": -0.25908,
				"method": "rhf"
			},
			{
				"type": "occ",
				"energy": -0.24992,
				"method": "rhf"
			},
			{
				"type": "occ",
				"energy": -0.21471,
				"method": "rhf"
			},
			{
				"type": "occ",
				"energy": -0.20179,
				"method": "rhf"
			},
			{
				"type": "unocc",
				"energy": -0.02158,
				"method": "rhf"
			},
			{
				"type": "unocc",
				"energy": -0.00079,
				"method": "rhf"
			},
			{
				"type": "unocc",
				"energy": 0.00777,
				"method": "rhf"
			},
			{
				"type": "unocc",
				"energy": 0.03499,
				"method": "rhf"
			},
			{
				"type": "unocc",
				"energy": 0.07616,
				"method": "rhf"
			}
		],
		"cosmo_sigma_profile": { 
			"-0.025": 0.0,
			"-0.024": 0.0,
			"-0.023": 0.0,
			"-0.022": 0.0,
			"-0.021": 0.0,
			"-0.02": 0.0,
			"-0.019": 0.0,
			"-0.018": 0.0,
			"-0.017": 0.0,
			"-0.016": 0.0,
			"-0.015": 0.0,
			"-0.014": 0.0,
			"-0.013": 0.420201361597,
			"-0.012": 2.59752285503,
			"-0.011": 3.11720116118,
			"-0.01": 3.19131283225,
			"-0.009": 5.02265802859,
			"-0.008": 4.47497052171,
			"-0.007": 5.112543923,
			"-0.006": 13.6234337326,
			"-0.005": 23.0001783154,
			"-0.004": 22.5860762698,
			"-0.003": 21.342104715,
			"-0.002": 14.5072471894,
			"-0.001": 13.500709862,
			"0.0": 13.9550953856,
			"0.001": 14.2663821606,
			"0.002": 17.6172515581,
			"0.003": 28.1966138937,
			"0.004": 40.2724922811,
			"0.005": 26.6287192679,
			"0.006": 7.21157065127,
			"0.007": 3.73965056024,
			"0.008": 2.84778432216,
			"0.009": 2.58440682562,
			"0.01": 2.59516621078,
			"0.011": 1.23072960525,
			"0.012": 0.499582731667,
			"0.013": 0.705350532234,
			"0.014": 0.574711726171,
			"0.015": 0.131832579199,
			"0.016": 0.0,
			"0.017": 0.0,
			"0.018": 0.0,
			"0.019": 0.0,
			"0.02": 0.0,
			"0.021": 0.0,
			"0.022": 0.0,
			"0.023": 0.0,
			"0.024": 0.0,
			"0.025": 0.0
		}
	}
}
