{
	 "smiles": "CC(C)(C)N(NC(=O)C1=CC=CC=C1)C(=O)C1=CC=CC=C1C(F)(F)F", 
	 "Tm": 445.15, 
	 "num_atms": 45, 
	 "gaussian": { 
		 "optdone": 1, 
		 "sigma_profile": "yes", 
		 "theory": "DFT", 
		 "functional": "B3LYP", 
		 "basiset": "6-31G**", 
		 "properties": { 
			 "R2extent": 8961.7163, 
			 "electric_dipole_moment_norm": 6.81059045384, 
			 "electric_quadrupole_moment_norm": 25.0896666578, 
			 "total_energy": -1294.93625336, 
			 "HOMO_LUMO_gap": 0.19173, 
			 "cosmo_polarized_energy": -18.82, 
			 "cosmo_cavitation_energy": 46.34, 
			 "cosmo_dispersion_energy": -30.14, 
			 "cosmo_repulsion_energy": 2.17, 
			 "cosmo_total_nonelectrostatic_energy": 18.38, 
			 "SMD_solvation_energy": 10.23 
		},
		"coords": [
			{
				"x": -0.3766367417,
				"y": 2.632975485,
				"z": 1.333603337,
				"element": "C" 
			},
			{
				"x": 0.043039601,
				"y": 1.1682243348,
				"z": 1.1107285847,
				"element": "C" 
			},
			{
				"x": -0.8978123608,
				"y": 0.2401713588,
				"z": 1.9041429382,
				"element": "C" 
			},
			{
				"x": 1.4699058959,
				"y": 0.9273714871,
				"z": 1.632882551,
				"element": "C" 
			},
			{
				"x": -0.0966511193,
				"y": 0.8216936465,
				"z": -0.3606757903,
				"element": "N" 
			},
			{
				"x": -1.4189291203,
				"y": 0.7566919794,
				"z": -0.8038802242,
				"element": "N" 
			},
			{
				"x": -2.1944410355,
				"y": -0.3621830615,
				"z": -1.101105661,
				"element": "C" 
			},
			{
				"x": -3.3096000028,
				"y": -0.164016303,
				"z": -1.5625573175,
				"element": "O" 
			},
			{
				"x": -1.7168815544,
				"y": -1.7422094573,
				"z": -0.7668544452,
				"element": "C" 
			},
			{
				"x": -0.4712207526,
				"y": -2.2451767773,
				"z": -1.1604216697,
				"element": "C" 
			},
			{
				"x": -0.1291647192,
				"y": -3.5657829409,
				"z": -0.8635285735,
				"element": "C" 
			},
			{
				"x": -1.0221161339,
				"y": -4.3885497208,
				"z": -0.1761148502,
				"element": "C" 
			},
			{
				"x": -2.2761789012,
				"y": -3.8962097184,
				"z": 0.1967922528,
				"element": "C" 
			},
			{
				"x": -2.6278916378,
				"y": -2.5842705,
				"z": -0.1104720256,
				"element": "C" 
			},
			{
				"x": 0.8243183274,
				"y": 0.8945873465,
				"z": -1.4035904412,
				"element": "C" 
			},
			{
				"x": 0.5032069701,
				"y": 0.5857853365,
				"z": -2.5437999667,
				"element": "O" 
			},
			{
				"x": 2.2173632208,
				"y": 1.4507485444,
				"z": -1.2063050159,
				"element": "C" 
			},
			{
				"x": 2.3522406014,
				"y": 2.8429427305,
				"z": -1.1468073035,
				"element": "C" 
			},
			{
				"x": 3.610247193,
				"y": 3.445667056,
				"z": -1.1343721216,
				"element": "C" 
			},
			{
				"x": 4.7578854947,
				"y": 2.6574251179,
				"z": -1.1859909599,
				"element": "C" 
			},
			{
				"x": 4.6386221593,
				"y": 1.2705617548,
				"z": -1.268610255,
				"element": "C" 
			},
			{
				"x": 3.3810824156,
				"y": 0.6630262788,
				"z": -1.2924227676,
				"element": "C" 
			},
			{
				"x": 3.3073851936,
				"y": -0.8389416178,
				"z": -1.430937975,
				"element": "C" 
			},
			{
				"x": 2.4533313678,
				"y": -1.3866681848,
				"z": -0.5253057765,
				"element": "F" 
			},
			{
				"x": 4.5095802624,
				"y": -1.4215392285,
				"z": -1.2338011871,
				"element": "F" 
			},
			{
				"x": 2.8744935457,
				"y": -1.2206584908,
				"z": -2.6474611444,
				"element": "F" 
			},
			{
				"x": -0.3602618699,
				"y": 2.868803599,
				"z": 2.4023178002,
				"element": "H" 
			},
			{
				"x": -1.3937720005,
				"y": 2.8086592776,
				"z": 0.9707734759,
				"element": "H" 
			},
			{
				"x": 0.3024252529,
				"y": 3.325991199,
				"z": 0.8293037491,
				"element": "H" 
			},
			{
				"x": -0.638560582,
				"y": -0.8092719455,
				"z": 1.7466074915,
				"element": "H" 
			},
			{
				"x": -1.9434464967,
				"y": 0.386727476,
				"z": 1.6300224172,
				"element": "H" 
			},
			{
				"x": -0.7949643614,
				"y": 0.4648291661,
				"z": 2.9698031145,
				"element": "H" 
			},
			{
				"x": 1.8314655445,
				"y": -0.0640902549,
				"z": 1.3548991835,
				"element": "H" 
			},
			{
				"x": 2.1853744761,
				"y": 1.6734569823,
				"z": 1.289742607,
				"element": "H" 
			},
			{
				"x": 1.4404709814,
				"y": 0.9828289169,
				"z": 2.7249702364,
				"element": "H" 
			},
			{
				"x": -1.7634921925,
				"y": 1.5854169208,
				"z": -1.2779575448,
				"element": "H" 
			},
			{
				"x": 0.2072639046,
				"y": -1.6282630758,
				"z": -1.7334454811,
				"element": "H" 
			},
			{
				"x": 0.8381487624,
				"y": -3.9479680556,
				"z": -1.175686105,
				"element": "H" 
			},
			{
				"x": -0.7485649455,
				"y": -5.4135662093,
				"z": 0.0582210189,
				"element": "H" 
			},
			{
				"x": -2.9817185635,
				"y": -4.5374551519,
				"z": 0.717297862,
				"element": "H" 
			},
			{
				"x": -3.607516278,
				"y": -2.1966767222,
				"z": 0.1499612946,
				"element": "H" 
			},
			{
				"x": 1.4604940434,
				"y": 3.4610881708,
				"z": -1.1242634981,
				"element": "H" 
			},
			{
				"x": 3.6887503765,
				"y": 4.5276720998,
				"z": -1.0885326274,
				"element": "H" 
			},
			{
				"x": 5.7418289883,
				"y": 3.1152614416,
				"z": -1.1704683542,
				"element": "H" 
			},
			{
				"x": 5.5251967913,
				"y": 0.6495897094,
				"z": -1.3171008323,
				"element": "H" 
			}
		],
		 "valence_orbital": [ 
			{
				"type": "occ",
				"energy": -0.26556,
				"method": "rhf"
			},
			{
				"type": "occ",
				"energy": -0.26019,
				"method": "rhf"
			},
			{
				"type": "occ",
				"energy": -0.25442,
				"method": "rhf"
			},
			{
				"type": "occ",
				"energy": -0.24722,
				"method": "rhf"
			},
			{
				"type": "occ",
				"energy": -0.23786,
				"method": "rhf"
			},
			{
				"type": "unocc",
				"energy": -0.04613,
				"method": "rhf"
			},
			{
				"type": "unocc",
				"energy": -0.03431,
				"method": "rhf"
			},
			{
				"type": "unocc",
				"energy": -0.0237,
				"method": "rhf"
			},
			{
				"type": "unocc",
				"energy": 0.00102,
				"method": "rhf"
			},
			{
				"type": "unocc",
				"energy": 0.00205,
				"method": "rhf"
			}
		],
		"cosmo_sigma_profile": { 
			"-0.025": 0.0,
			"-0.024": 0.0,
			"-0.023": 0.0,
			"-0.022": 0.0,
			"-0.021": 0.0,
			"-0.02": 0.0,
			"-0.019": 0.0,
			"-0.018": 0.0,
			"-0.017": 0.0,
			"-0.016": 0.0,
			"-0.015": 0.0,
			"-0.014": 0.454442313432,
			"-0.013": 0.691122757044,
			"-0.012": 0.988758894466,
			"-0.011": 1.14734517445,
			"-0.01": 1.0422783158,
			"-0.009": 1.08539010255,
			"-0.008": 3.51095633802,
			"-0.007": 10.5814054302,
			"-0.006": 16.9874616323,
			"-0.005": 20.46985128,
			"-0.004": 25.6912415518,
			"-0.003": 24.8029801597,
			"-0.002": 33.1153141146,
			"-0.001": 33.9461929605,
			"0.0": 41.3472447417,
			"0.001": 29.7284102636,
			"0.002": 34.9151699099,
			"0.003": 29.8355284396,
			"0.004": 14.6707148984,
			"0.005": 7.68805068516,
			"0.006": 3.34450793876,
			"0.007": 3.2793905961,
			"0.008": 4.10274507498,
			"0.009": 2.78753110602,
			"0.01": 3.41591317111,
			"0.011": 4.32656234117,
			"0.012": 7.33093770521,
			"0.013": 5.77309132509,
			"0.014": 0.881972467293,
			"0.015": 0.0,
			"0.016": 0.0,
			"0.017": 0.0,
			"0.018": 0.0,
			"0.019": 0.0,
			"0.02": 0.0,
			"0.021": 0.0,
			"0.022": 0.0,
			"0.023": 0.0,
			"0.024": 0.0,
			"0.025": 0.0
		}
	}
}
