{
	 "smiles": "NC1=CC(CN2CCSCC2)=CC=C1", 
	 "Tm": 361.15, 
	 "num_atms": 30, 
	 "gaussian": { 
		 "optdone": 1, 
		 "sigma_profile": "yes", 
		 "theory": "DFT", 
		 "functional": "B3LYP", 
		 "basiset": "6-31G**", 
		 "properties": { 
			 "R2extent": 3837.3277, 
			 "electric_dipole_moment_norm": 2.00889919608, 
			 "electric_quadrupole_moment_norm": 17.2330867282, 
			 "total_energy": -936.491660207, 
			 "HOMO_LUMO_gap": 0.19994, 
			 "cosmo_polarized_energy": -12.04, 
			 "cosmo_cavitation_energy": 32.2, 
			 "cosmo_dispersion_energy": -23.54, 
			 "cosmo_repulsion_energy": 1.81, 
			 "cosmo_total_nonelectrostatic_energy": 10.47, 
			 "SMD_solvation_energy": 2.03 
		},
		"coords": [
			{
				"x": 1.1772136299,
				"y": 0.4472097423,
				"z": 3.2759832529,
				"element": "N" 
			},
			{
				"x": 1.1894464411,
				"y": 0.903427203,
				"z": 1.955753072,
				"element": "C" 
			},
			{
				"x": 0.035276252,
				"y": 0.8194082294,
				"z": 1.1586157777,
				"element": "C" 
			},
			{
				"x": 0.0073048696,
				"y": 1.3265293601,
				"z": -0.1453829462,
				"element": "C" 
			},
			{
				"x": -1.2490913038,
				"y": 1.1830042516,
				"z": -0.9991128555,
				"element": "C" 
			},
			{
				"x": -1.3474697415,
				"y": 0.0002545408,
				"z": -1.8627918845,
				"element": "N" 
			},
			{
				"x": -0.3981584393,
				"y": 0.0019860701,
				"z": -2.9765817717,
				"element": "C" 
			},
			{
				"x": -0.4923105249,
				"y": -1.2808039898,
				"z": -3.7987809765,
				"element": "C" 
			},
			{
				"x": 0.1594810727,
				"y": -2.7399195733,
				"z": -2.8719876942,
				"element": "S" 
			},
			{
				"x": -0.2772318629,
				"y": -2.1892260583,
				"z": -1.1647800293,
				"element": "C" 
			},
			{
				"x": -1.5189616182,
				"y": -1.2885231704,
				"z": -1.1793169384,
				"element": "C" 
			},
			{
				"x": 1.1552001176,
				"y": 1.9510308338,
				"z": -0.6549158141,
				"element": "C" 
			},
			{
				"x": 2.3071734574,
				"y": 2.038082411,
				"z": 0.1288163009,
				"element": "C" 
			},
			{
				"x": 2.3344925179,
				"y": 1.517224725,
				"z": 1.4193817314,
				"element": "C" 
			},
			{
				"x": 0.497213634,
				"y": -0.2732757858,
				"z": 3.475992841,
				"element": "H" 
			},
			{
				"x": 2.0847693221,
				"y": 0.2238266914,
				"z": 3.6607043953,
				"element": "H" 
			},
			{
				"x": -0.861808802,
				"y": 0.3685548967,
				"z": 1.5794662715,
				"element": "H" 
			},
			{
				"x": -1.3361316234,
				"y": 2.060956698,
				"z": -1.6521211513,
				"element": "H" 
			},
			{
				"x": -2.1306591595,
				"y": 1.1882805054,
				"z": -0.3474891633,
				"element": "H" 
			},
			{
				"x": 0.6491460709,
				"y": 0.1286386433,
				"z": -2.6530212729,
				"element": "H" 
			},
			{
				"x": -0.6368743337,
				"y": 0.8614133054,
				"z": -3.620324759,
				"element": "H" 
			},
			{
				"x": -1.5264807893,
				"y": -1.4642507589,
				"z": -4.1046996165,
				"element": "H" 
			},
			{
				"x": 0.1216374131,
				"y": -1.1954389771,
				"z": -4.6986951441,
				"element": "H" 
			},
			{
				"x": 0.5724730918,
				"y": -1.6726506459,
				"z": -0.7113472644,
				"element": "H" 
			},
			{
				"x": -0.4747249176,
				"y": -3.0994812574,
				"z": -0.5910658913,
				"element": "H" 
			},
			{
				"x": -1.8270902885,
				"y": -1.0920002301,
				"z": -0.1473503251,
				"element": "H" 
			},
			{
				"x": -2.3407115221,
				"y": -1.8479778523,
				"z": -1.6481907809,
				"element": "H" 
			},
			{
				"x": 1.1416513352,
				"y": 2.3803490602,
				"z": -1.6525574007,
				"element": "H" 
			},
			{
				"x": 3.1958336971,
				"y": 2.5215810477,
				"z": -0.2679297915,
				"element": "H" 
			},
			{
				"x": 3.234392004,
				"y": 1.5974900842,
				"z": 2.0243298285,
				"element": "H" 
			}
		],
		 "valence_orbital": [ 
			{
				"type": "occ",
				"energy": -0.29158,
				"method": "rhf"
			},
			{
				"type": "occ",
				"energy": -0.24424,
				"method": "rhf"
			},
			{
				"type": "occ",
				"energy": -0.21094,
				"method": "rhf"
			},
			{
				"type": "occ",
				"energy": -0.20287,
				"method": "rhf"
			},
			{
				"type": "occ",
				"energy": -0.20024,
				"method": "rhf"
			},
			{
				"type": "unocc",
				"energy": -0.0003,
				"method": "rhf"
			},
			{
				"type": "unocc",
				"energy": 0.01476,
				"method": "rhf"
			},
			{
				"type": "unocc",
				"energy": 0.04501,
				"method": "rhf"
			},
			{
				"type": "unocc",
				"energy": 0.06874,
				"method": "rhf"
			},
			{
				"type": "unocc",
				"energy": 0.07853,
				"method": "rhf"
			}
		],
		"cosmo_sigma_profile": { 
			"-0.025": 0.0,
			"-0.024": 0.0,
			"-0.023": 0.0,
			"-0.022": 0.0,
			"-0.021": 0.0,
			"-0.02": 0.0,
			"-0.019": 0.0,
			"-0.018": 0.0,
			"-0.017": 0.0,
			"-0.016": 0.0,
			"-0.015": 0.0,
			"-0.014": 0.0,
			"-0.013": 0.0831581857593,
			"-0.012": 1.99003600107,
			"-0.011": 2.78159655553,
			"-0.01": 2.29201007274,
			"-0.009": 3.27832846616,
			"-0.008": 3.1519953953,
			"-0.007": 2.60001932787,
			"-0.006": 7.13658781587,
			"-0.005": 14.4061225319,
			"-0.004": 22.4955119395,
			"-0.003": 28.1187800353,
			"-0.002": 25.830517939,
			"-0.001": 24.4447821201,
			"0.0": 16.6905729083,
			"0.001": 12.370579917,
			"0.002": 12.4358045352,
			"0.003": 10.9963778763,
			"0.004": 10.0425711457,
			"0.005": 9.44194324049,
			"0.006": 11.6830677564,
			"0.007": 11.7226823939,
			"0.008": 4.11573071767,
			"0.009": 4.52272849131,
			"0.01": 3.1844937232,
			"0.011": 3.14624488468,
			"0.012": 2.25686468092,
			"0.013": 0.863265883422,
			"0.014": 0.998597992127,
			"0.015": 0.662164580888,
			"0.016": 0.0268726993198,
			"0.017": 0.0,
			"0.018": 0.0,
			"0.019": 0.0,
			"0.02": 0.0,
			"0.021": 0.0,
			"0.022": 0.0,
			"0.023": 0.0,
			"0.024": 0.0,
			"0.025": 0.0
		}
	}
}
