{
	 "smiles": "CCN(CC)C1=CC=C(Cl)C=C1", 
	 "Tm": 318.65, 
	 "num_atms": 26, 
	 "gaussian": { 
		 "optdone": 1, 
		 "sigma_profile": "yes", 
		 "theory": "DFT", 
		 "functional": "B3LYP", 
		 "basiset": "6-31G**", 
		 "properties": { 
			 "R2extent": 4118.9591, 
			 "electric_dipole_moment_norm": 3.98305352839, 
			 "electric_quadrupole_moment_norm": 15.0738976738, 
			 "total_energy": -904.446535855, 
			 "HOMO_LUMO_gap": 0.18696, 
			 "cosmo_polarized_energy": -5.73, 
			 "cosmo_cavitation_energy": 29.3, 
			 "cosmo_dispersion_energy": -21.53, 
			 "cosmo_repulsion_energy": 1.71, 
			 "cosmo_total_nonelectrostatic_energy": 9.47, 
			 "SMD_solvation_energy": 4.13 
		},
		"coords": [
			{
				"x": -1.1644429234,
				"y": -0.5000000406,
				"z": 2.3862392123,
				"element": "C" 
			},
			{
				"x": -1.1416505209,
				"y": -0.6913139745,
				"z": 0.8674195999,
				"element": "C" 
			},
			{
				"x": 0.1444182748,
				"y": -0.372901494,
				"z": 0.2492475689,
				"element": "N" 
			},
			{
				"x": 1.32930866,
				"y": -1.0341395381,
				"z": 0.8113103,
				"element": "C" 
			},
			{
				"x": 2.1897654954,
				"y": -0.1446570295,
				"z": 1.7175596893,
				"element": "C" 
			},
			{
				"x": 0.182389242,
				"y": 0.0444632321,
				"z": -1.0856042135,
				"element": "C" 
			},
			{
				"x": 1.3988175124,
				"y": 0.4709539544,
				"z": -1.667456152,
				"element": "C" 
			},
			{
				"x": 1.4642665431,
				"y": 0.9065886543,
				"z": -2.9866825127,
				"element": "C" 
			},
			{
				"x": 0.309901316,
				"y": 0.9374848039,
				"z": -3.7667740001,
				"element": "C" 
			},
			{
				"x": 0.3885884118,
				"y": 1.4981907296,
				"z": -5.4349899651,
				"element": "Cl" 
			},
			{
				"x": -0.9033790127,
				"y": 0.5226247717,
				"z": -3.2268174843,
				"element": "C" 
			},
			{
				"x": -0.9650591496,
				"y": 0.0744117089,
				"z": -1.9084583219,
				"element": "C" 
			},
			{
				"x": -0.9078425518,
				"y": 0.5294474358,
				"z": 2.6532672802,
				"element": "H" 
			},
			{
				"x": -2.1712682697,
				"y": -0.7106564838,
				"z": 2.761037796,
				"element": "H" 
			},
			{
				"x": -0.47657701,
				"y": -1.1720568114,
				"z": 2.9070803856,
				"element": "H" 
			},
			{
				"x": -1.8902003778,
				"y": -0.0192158932,
				"z": 0.4425198238,
				"element": "H" 
			},
			{
				"x": -1.4609472995,
				"y": -1.7204538944,
				"z": 0.6225421574,
				"element": "H" 
			},
			{
				"x": 1.9392520973,
				"y": -1.4213819318,
				"z": -0.0121266217,
				"element": "H" 
			},
			{
				"x": 0.9970400109,
				"y": -1.9149708346,
				"z": 1.374683065,
				"element": "H" 
			},
			{
				"x": 3.0605533664,
				"y": -0.7029658894,
				"z": 2.079700301,
				"element": "H" 
			},
			{
				"x": 1.62468894,
				"y": 0.2049389485,
				"z": 2.5855307396,
				"element": "H" 
			},
			{
				"x": 2.5502955343,
				"y": 0.7383380398,
				"z": 1.1818210817,
				"element": "H" 
			},
			{
				"x": 2.3067480359,
				"y": 0.4887444338,
				"z": -1.0765167908,
				"element": "H" 
			},
			{
				"x": 2.4109949259,
				"y": 1.2341313565,
				"z": -3.4028895026,
				"element": "H" 
			},
			{
				"x": -1.8005487412,
				"y": 0.5301521178,
				"z": -3.8366763528,
				"element": "H" 
			},
			{
				"x": -1.9196125096,
				"y": -0.2791563718,
				"z": -1.5398670834,
				"element": "H" 
			}
		],
		 "valence_orbital": [ 
			{
				"type": "occ",
				"energy": -0.32623,
				"method": "rhf"
			},
			{
				"type": "occ",
				"energy": -0.29989,
				"method": "rhf"
			},
			{
				"type": "occ",
				"energy": -0.2687,
				"method": "rhf"
			},
			{
				"type": "occ",
				"energy": -0.25266,
				"method": "rhf"
			},
			{
				"type": "occ",
				"energy": -0.19149,
				"method": "rhf"
			},
			{
				"type": "unocc",
				"energy": -0.00453,
				"method": "rhf"
			},
			{
				"type": "unocc",
				"energy": 0.01058,
				"method": "rhf"
			},
			{
				"type": "unocc",
				"energy": 0.04114,
				"method": "rhf"
			},
			{
				"type": "unocc",
				"energy": 0.08143,
				"method": "rhf"
			},
			{
				"type": "unocc",
				"energy": 0.10598,
				"method": "rhf"
			}
		],
		"cosmo_sigma_profile": { 
			"-0.025": 0.0,
			"-0.024": 0.0,
			"-0.023": 0.0,
			"-0.022": 0.0,
			"-0.021": 0.0,
			"-0.02": 0.0,
			"-0.019": 0.0,
			"-0.018": 0.0,
			"-0.017": 0.0,
			"-0.016": 0.0,
			"-0.015": 0.0,
			"-0.014": 0.0,
			"-0.013": 0.0,
			"-0.012": 0.0,
			"-0.011": 0.0,
			"-0.01": 0.0,
			"-0.009": 0.0,
			"-0.008": 0.0,
			"-0.007": 1.2074478031,
			"-0.006": 5.76680672878,
			"-0.005": 11.3291913659,
			"-0.004": 17.1008714757,
			"-0.003": 24.5492805599,
			"-0.002": 31.5241143544,
			"-0.001": 25.5748091075,
			"0.0": 20.90004746,
			"0.001": 20.2620548307,
			"0.002": 12.3435931055,
			"0.003": 13.8717315163,
			"0.004": 16.0138347062,
			"0.005": 22.2155322233,
			"0.006": 9.22099360857,
			"0.007": 0.808133479413,
			"0.008": 0.472620945809,
			"0.009": 0.0,
			"0.01": 0.0,
			"0.011": 0.0,
			"0.012": 0.0,
			"0.013": 0.0,
			"0.014": 0.0,
			"0.015": 0.0,
			"0.016": 0.0,
			"0.017": 0.0,
			"0.018": 0.0,
			"0.019": 0.0,
			"0.02": 0.0,
			"0.021": 0.0,
			"0.022": 0.0,
			"0.023": 0.0,
			"0.024": 0.0,
			"0.025": 0.0
		}
	}
}
