{
	 "smiles": "CC(=NOCC(O)=O)C1=CC2=C(OCO2)C=C1", 
	 "Tm": 410.15, 
	 "num_atms": 28, 
	 "gaussian": { 
		 "optdone": 1, 
		 "sigma_profile": "yes", 
		 "theory": "DFT", 
		 "functional": "B3LYP", 
		 "basiset": "6-31G**", 
		 "properties": { 
			 "R2extent": 7005.1501, 
			 "electric_dipole_moment_norm": 1.58775139742, 
			 "electric_quadrupole_moment_norm": 10.2789513565, 
			 "total_energy": -856.595333599, 
			 "HOMO_LUMO_gap": 0.1685, 
			 "cosmo_polarized_energy": -15.42, 
			 "cosmo_cavitation_energy": 33.52, 
			 "cosmo_dispersion_energy": -24.75, 
			 "cosmo_repulsion_energy": 1.95, 
			 "cosmo_total_nonelectrostatic_energy": 10.72, 
			 "SMD_solvation_energy": 7.77 
		},
		"coords": [
			{
				"x": 2.0064060059,
				"y": 2.1220097996,
				"z": 1.5457190851,
				"element": "C" 
			},
			{
				"x": 1.2935659355,
				"y": 1.0027658132,
				"z": 0.8289988384,
				"element": "C" 
			},
			{
				"x": 0.3929106397,
				"y": 1.1842525495,
				"z": -0.0770397675,
				"element": "N" 
			},
			{
				"x": 0.1452471643,
				"y": 2.5412041027,
				"z": -0.3271453755,
				"element": "O" 
			},
			{
				"x": -0.8471771286,
				"y": 2.6350015823,
				"z": -1.3257036813,
				"element": "C" 
			},
			{
				"x": -1.1077630615,
				"y": 4.1044431302,
				"z": -1.590297913,
				"element": "C" 
			},
			{
				"x": -2.0574511973,
				"y": 4.2327482706,
				"z": -2.5489447603,
				"element": "O" 
			},
			{
				"x": -0.5723868052,
				"y": 5.0412292608,
				"z": -1.0506509299,
				"element": "O" 
			},
			{
				"x": 1.6135954056,
				"y": -0.4104950502,
				"z": 1.1516796415,
				"element": "C" 
			},
			{
				"x": 0.9406924817,
				"y": -1.4610695951,
				"z": 0.4729779727,
				"element": "C" 
			},
			{
				"x": 1.2748574389,
				"y": -2.749799129,
				"z": 0.8108293642,
				"element": "C" 
			},
			{
				"x": 2.2356299871,
				"y": -3.0440627968,
				"z": 1.7802591008,
				"element": "C" 
			},
			{
				"x": 2.3668454986,
				"y": -4.401960219,
				"z": 1.9095833678,
				"element": "O" 
			},
			{
				"x": 1.4306333986,
				"y": -4.9822246901,
				"z": 0.9902232225,
				"element": "C" 
			},
			{
				"x": 0.7687903293,
				"y": -3.9204639675,
				"z": 0.2965671754,
				"element": "O" 
			},
			{
				"x": 2.9058793059,
				"y": -2.0460984592,
				"z": 2.4557459607,
				"element": "C" 
			},
			{
				"x": 2.5764529762,
				"y": -0.7195469677,
				"z": 2.1230762223,
				"element": "C" 
			},
			{
				"x": 1.6580001437,
				"y": 3.0901197441,
				"z": 1.1924211727,
				"element": "H" 
			},
			{
				"x": 1.8335371342,
				"y": 2.0560576809,
				"z": 2.6251329051,
				"element": "H" 
			},
			{
				"x": 3.0871109206,
				"y": 2.0534876464,
				"z": 1.3822450633,
				"element": "H" 
			},
			{
				"x": -0.5293600813,
				"y": 2.1523496855,
				"z": -2.2596750624,
				"element": "H" 
			},
			{
				"x": -1.783976934,
				"y": 2.1547370548,
				"z": -1.0124742922,
				"element": "H" 
			},
			{
				"x": -2.1850731539,
				"y": 5.1874406208,
				"z": -2.6781621292,
				"element": "H" 
			},
			{
				"x": 0.1952516667,
				"y": -1.2408956122,
				"z": -0.2797616077,
				"element": "H" 
			},
			{
				"x": 1.9695820281,
				"y": -5.6115171671,
				"z": 0.271651912,
				"element": "H" 
			},
			{
				"x": 0.6935371411,
				"y": -5.5743413503,
				"z": 1.5472287447,
				"element": "H" 
			},
			{
				"x": 3.6519916288,
				"y": -2.2745060878,
				"z": 3.208068187,
				"element": "H" 
			},
			{
				"x": 3.0924711316,
				"y": 0.0781341505,
				"z": 2.6438475828,
				"element": "H" 
			}
		],
		 "valence_orbital": [ 
			{
				"type": "occ",
				"energy": -0.28295,
				"method": "rhf"
			},
			{
				"type": "occ",
				"energy": -0.27073,
				"method": "rhf"
			},
			{
				"type": "occ",
				"energy": -0.26508,
				"method": "rhf"
			},
			{
				"type": "occ",
				"energy": -0.23519,
				"method": "rhf"
			},
			{
				"type": "occ",
				"energy": -0.20358,
				"method": "rhf"
			},
			{
				"type": "unocc",
				"energy": -0.03508,
				"method": "rhf"
			},
			{
				"type": "unocc",
				"energy": 0.00163,
				"method": "rhf"
			},
			{
				"type": "unocc",
				"energy": 0.00711,
				"method": "rhf"
			},
			{
				"type": "unocc",
				"energy": 0.0559,
				"method": "rhf"
			},
			{
				"type": "unocc",
				"energy": 0.07159,
				"method": "rhf"
			}
		],
		"cosmo_sigma_profile": { 
			"-0.025": 0.0,
			"-0.024": 0.0,
			"-0.023": 0.0,
			"-0.022": 0.0,
			"-0.021": 0.0,
			"-0.02": 0.0,
			"-0.019": 0.286495452664,
			"-0.018": 0.899056341434,
			"-0.017": 0.922940497959,
			"-0.016": 0.47489439054,
			"-0.015": 1.25538764549,
			"-0.014": 0.649732749107,
			"-0.013": 0.7129915207,
			"-0.012": 0.563861768784,
			"-0.011": 1.30569594506,
			"-0.01": 0.230443906034,
			"-0.009": 0.47971323374,
			"-0.008": 5.03892267251,
			"-0.007": 16.0340862016,
			"-0.006": 17.6832212277,
			"-0.005": 18.6975896357,
			"-0.004": 16.2733346942,
			"-0.003": 15.1746809252,
			"-0.002": 13.4388419315,
			"-0.001": 16.9630874374,
			"0.0": 16.0695159744,
			"0.001": 12.935317198,
			"0.002": 17.6079407605,
			"0.003": 18.4426589088,
			"0.004": 20.2785105521,
			"0.005": 10.2763035456,
			"0.006": 7.90695674556,
			"0.007": 8.47809211813,
			"0.008": 7.1923752288,
			"0.009": 7.04302790229,
			"0.01": 4.51436722225,
			"0.011": 5.58513847965,
			"0.012": 3.5223511853,
			"0.013": 0.279616136337,
			"0.014": 0.0,
			"0.015": 0.0,
			"0.016": 0.0,
			"0.017": 0.0,
			"0.018": 0.0,
			"0.019": 0.0,
			"0.02": 0.0,
			"0.021": 0.0,
			"0.022": 0.0,
			"0.023": 0.0,
			"0.024": 0.0,
			"0.025": 0.0
		}
	}
}
