{
	 "smiles": "CCC(C)C(=O)NN", 
	 "Tm": 362.15, 
	 "num_atms": 20, 
	 "gaussian": { 
		 "optdone": 1, 
		 "sigma_profile": "yes", 
		 "theory": "DFT", 
		 "functional": "B3LYP", 
		 "basiset": "6-31G**", 
		 "properties": { 
			 "R2extent": 1226.0064, 
			 "electric_dipole_moment_norm": 2.33114650333, 
			 "electric_quadrupole_moment_norm": 4.66302475546, 
			 "total_energy": -382.483795011, 
			 "HOMO_LUMO_gap": 0.2736, 
			 "cosmo_polarized_energy": -11.02, 
			 "cosmo_cavitation_energy": 22.21, 
			 "cosmo_dispersion_energy": -16.02, 
			 "cosmo_repulsion_energy": 1.36, 
			 "cosmo_total_nonelectrostatic_energy": 7.55, 
			 "SMD_solvation_energy": 4.79 
		},
		"coords": [
			{
				"x": -0.7060881091,
				"y": 2.5362859788,
				"z": 0.7668271761,
				"element": "C" 
			},
			{
				"x": 0.3403287078,
				"y": 2.0484482577,
				"z": -0.2413545436,
				"element": "C" 
			},
			{
				"x": 0.5719088372,
				"y": 0.5184793323,
				"z": -0.252335019,
				"element": "C" 
			},
			{
				"x": 1.1191647605,
				"y": -0.0168260958,
				"z": 1.0800148888,
				"element": "C" 
			},
			{
				"x": -0.6903821919,
				"y": -0.1739329429,
				"z": -0.7864341733,
				"element": "C" 
			},
			{
				"x": -1.2338533322,
				"y": 0.1885720377,
				"z": -1.8261182605,
				"element": "O" 
			},
			{
				"x": -1.192339172,
				"y": -1.2182024295,
				"z": -0.0587982977,
				"element": "N" 
			},
			{
				"x": -2.2632801161,
				"y": -1.9985373319,
				"z": -0.5446068084,
				"element": "N" 
			},
			{
				"x": -1.6831181838,
				"y": 2.07996803,
				"z": 0.5754773963,
				"element": "H" 
			},
			{
				"x": -0.8315276994,
				"y": 3.6211862567,
				"z": 0.693029157,
				"element": "H" 
			},
			{
				"x": -0.4237920508,
				"y": 2.3105853703,
				"z": 1.8006151598,
				"element": "H" 
			},
			{
				"x": 0.0327908457,
				"y": 2.3389587489,
				"z": -1.2499206792,
				"element": "H" 
			},
			{
				"x": 1.3020679696,
				"y": 2.5379497814,
				"z": -0.0425072492,
				"element": "H" 
			},
			{
				"x": 1.3276477283,
				"y": 0.3253739448,
				"z": -1.0263615417,
				"element": "H" 
			},
			{
				"x": 2.0088098963,
				"y": 0.5500789518,
				"z": 1.3719749308,
				"element": "H" 
			},
			{
				"x": 1.4225733384,
				"y": -1.067306707,
				"z": 1.0050247553,
				"element": "H" 
			},
			{
				"x": 0.3933559693,
				"y": 0.0734186575,
				"z": 1.8944872311,
				"element": "H" 
			},
			{
				"x": -0.6696148374,
				"y": -1.6416007527,
				"z": 0.6910093044,
				"element": "H" 
			},
			{
				"x": -3.1139076887,
				"y": -1.4465828445,
				"z": -0.4317100014,
				"element": "H" 
			},
			{
				"x": -2.1338446717,
				"y": -2.0688162438,
				"z": -1.5551134256,
				"element": "H" 
			}
		],
		 "valence_orbital": [ 
			{
				"type": "occ",
				"energy": -0.32831,
				"method": "rhf"
			},
			{
				"type": "occ",
				"energy": -0.32469,
				"method": "rhf"
			},
			{
				"type": "occ",
				"energy": -0.2818,
				"method": "rhf"
			},
			{
				"type": "occ",
				"energy": -0.25169,
				"method": "rhf"
			},
			{
				"type": "occ",
				"energy": -0.24655,
				"method": "rhf"
			},
			{
				"type": "unocc",
				"energy": 0.02705,
				"method": "rhf"
			},
			{
				"type": "unocc",
				"energy": 0.07508,
				"method": "rhf"
			},
			{
				"type": "unocc",
				"energy": 0.08895,
				"method": "rhf"
			},
			{
				"type": "unocc",
				"energy": 0.11623,
				"method": "rhf"
			},
			{
				"type": "unocc",
				"energy": 0.12217,
				"method": "rhf"
			}
		],
		"cosmo_sigma_profile": { 
			"-0.025": 0.0,
			"-0.024": 0.0,
			"-0.023": 0.0,
			"-0.022": 0.0,
			"-0.021": 0.0,
			"-0.02": 0.0,
			"-0.019": 0.0,
			"-0.018": 0.0,
			"-0.017": 0.0,
			"-0.016": 0.0,
			"-0.015": 0.0,
			"-0.014": 0.049441962548,
			"-0.013": 0.614886407827,
			"-0.012": 0.868732055454,
			"-0.011": 2.28970751202,
			"-0.01": 2.97690073622,
			"-0.009": 4.54158806378,
			"-0.008": 2.84444669651,
			"-0.007": 2.64094874101,
			"-0.006": 2.84738429267,
			"-0.005": 4.96626226892,
			"-0.004": 9.93114747111,
			"-0.003": 17.5007600068,
			"-0.002": 20.2322581352,
			"-0.001": 20.0604441805,
			"0.0": 22.3863793194,
			"0.001": 16.9881476256,
			"0.002": 6.63668129304,
			"0.003": 2.74395147347,
			"0.004": 2.16125033398,
			"0.005": 2.15600822949,
			"0.006": 2.42878795957,
			"0.007": 2.48234160402,
			"0.008": 1.6561909499,
			"0.009": 2.22450671619,
			"0.01": 2.25369313596,
			"0.011": 1.16248403893,
			"0.012": 2.5264394746,
			"0.013": 3.34856649162,
			"0.014": 5.16818544293,
			"0.015": 2.05299962161,
			"0.016": 0.614408483315,
			"0.017": 0.301629856766,
			"0.018": 0.0,
			"0.019": 0.0,
			"0.02": 0.0,
			"0.021": 0.0,
			"0.022": 0.0,
			"0.023": 0.0,
			"0.024": 0.0,
			"0.025": 0.0
		}
	}
}
