{
	 "smiles": "CC1=C(OCCC(O)=O)C=CC=C1", 
	 "Tm": 366.15, 
	 "num_atms": 25, 
	 "gaussian": { 
		 "optdone": 1, 
		 "sigma_profile": "yes", 
		 "theory": "DFT", 
		 "functional": "B3LYP", 
		 "basiset": "6-31G**", 
		 "properties": { 
			 "R2extent": 3142.2796, 
			 "electric_dipole_moment_norm": 5.04728587362, 
			 "electric_quadrupole_moment_norm": 19.7873790356, 
			 "total_energy": -613.979936804, 
			 "HOMO_LUMO_gap": 0.22406, 
			 "cosmo_polarized_energy": -13.97, 
			 "cosmo_cavitation_energy": 28.56, 
			 "cosmo_dispersion_energy": -20.41, 
			 "cosmo_repulsion_energy": 1.61, 
			 "cosmo_total_nonelectrostatic_energy": 9.76, 
			 "SMD_solvation_energy": 6.09 
		},
		"coords": [
			{
				"x": -0.755805791,
				"y": 1.3866184902,
				"z": -1.9099554137,
				"element": "C" 
			},
			{
				"x": -1.6574887393,
				"y": 0.7360608255,
				"z": -0.8910402534,
				"element": "C" 
			},
			{
				"x": -1.1141609295,
				"y": 0.0226622921,
				"z": 0.195477562,
				"element": "C" 
			},
			{
				"x": 0.2671298852,
				"y": -0.0264373134,
				"z": 0.2375446761,
				"element": "O" 
			},
			{
				"x": 0.9101590772,
				"y": -0.7658381365,
				"z": 1.2836233485,
				"element": "C" 
			},
			{
				"x": 2.4174558085,
				"y": -0.6707469041,
				"z": 1.0603831171,
				"element": "C" 
			},
			{
				"x": 3.0236780279,
				"y": 0.7272001965,
				"z": 1.2177094634,
				"element": "C" 
			},
			{
				"x": 2.3034568711,
				"y": 1.7420974771,
				"z": 0.6932064573,
				"element": "O" 
			},
			{
				"x": 4.0898766539,
				"y": 0.9219581916,
				"z": 1.7481179234,
				"element": "O" 
			},
			{
				"x": -1.9324368145,
				"y": -0.5886645013,
				"z": 1.1463833385,
				"element": "C" 
			},
			{
				"x": -3.3220326589,
				"y": -0.4918003179,
				"z": 1.0225445123,
				"element": "C" 
			},
			{
				"x": -3.8838887915,
				"y": 0.2081853667,
				"z": -0.040363644,
				"element": "C" 
			},
			{
				"x": -3.0482513521,
				"y": 0.8125574673,
				"z": -0.9840304908,
				"element": "C" 
			},
			{
				"x": -0.1636697208,
				"y": 2.1985526246,
				"z": -1.4698441567,
				"element": "H" 
			},
			{
				"x": -1.341759577,
				"y": 1.8122091537,
				"z": -2.7282572784,
				"element": "H" 
			},
			{
				"x": -0.0450579027,
				"y": 0.6690006057,
				"z": -2.3331256732,
				"element": "H" 
			},
			{
				"x": 0.5875514685,
				"y": -1.8132016146,
				"z": 1.245786123,
				"element": "H" 
			},
			{
				"x": 0.6281016477,
				"y": -0.3534966183,
				"z": 2.2614020911,
				"element": "H" 
			},
			{
				"x": 2.6465209487,
				"y": -1.0292142662,
				"z": 0.0488061092,
				"element": "H" 
			},
			{
				"x": 2.9354626174,
				"y": -1.3252959367,
				"z": 1.7643534108,
				"element": "H" 
			},
			{
				"x": 1.4722777145,
				"y": 1.3906873579,
				"z": 0.3202265995,
				"element": "H" 
			},
			{
				"x": -1.5072568719,
				"y": -1.135471532,
				"z": 1.9793733653,
				"element": "H" 
			},
			{
				"x": -3.9557586938,
				"y": -0.9680536726,
				"z": 1.7646900972,
				"element": "H" 
			},
			{
				"x": -4.9620723777,
				"y": 0.2849065038,
				"z": -0.1399901973,
				"element": "H" 
			},
			{
				"x": -3.4829305,
				"y": 1.358024261,
				"z": -1.8177210873,
				"element": "H" 
			}
		],
		 "valence_orbital": [ 
			{
				"type": "occ",
				"energy": -0.33371,
				"method": "rhf"
			},
			{
				"type": "occ",
				"energy": -0.30438,
				"method": "rhf"
			},
			{
				"type": "occ",
				"energy": -0.2623,
				"method": "rhf"
			},
			{
				"type": "occ",
				"energy": -0.25669,
				"method": "rhf"
			},
			{
				"type": "occ",
				"energy": -0.23479,
				"method": "rhf"
			},
			{
				"type": "unocc",
				"energy": -0.01073,
				"method": "rhf"
			},
			{
				"type": "unocc",
				"energy": -0.00168,
				"method": "rhf"
			},
			{
				"type": "unocc",
				"energy": 0.01471,
				"method": "rhf"
			},
			{
				"type": "unocc",
				"energy": 0.07278,
				"method": "rhf"
			},
			{
				"type": "unocc",
				"energy": 0.08369,
				"method": "rhf"
			}
		],
		"cosmo_sigma_profile": { 
			"-0.025": 0.0,
			"-0.024": 0.0,
			"-0.023": 0.0,
			"-0.022": 0.0,
			"-0.021": 0.0,
			"-0.02": 0.0,
			"-0.019": 0.0,
			"-0.018": 0.0,
			"-0.017": 0.0,
			"-0.016": 0.0,
			"-0.015": 0.0,
			"-0.014": 0.0,
			"-0.013": 0.0,
			"-0.012": 0.0,
			"-0.011": 0.0,
			"-0.01": 0.0,
			"-0.009": 0.423871103667,
			"-0.008": 2.02069035866,
			"-0.007": 12.7030593851,
			"-0.006": 21.0001465342,
			"-0.005": 20.9127536172,
			"-0.004": 20.8352730155,
			"-0.003": 16.3982354117,
			"-0.002": 14.6310892892,
			"-0.001": 12.5465386497,
			"0.0": 13.8576613952,
			"0.001": 12.1515570144,
			"0.002": 9.80304692316,
			"0.003": 11.0626119617,
			"0.004": 9.77915012888,
			"0.005": 10.6339674074,
			"0.006": 9.65953158804,
			"0.007": 2.66479197611,
			"0.008": 2.33440204552,
			"0.009": 2.65465973449,
			"0.01": 3.79509178464,
			"0.011": 6.09512693473,
			"0.012": 6.30166495583,
			"0.013": 3.48153518028,
			"0.014": 0.365359658736,
			"0.015": 0.0,
			"0.016": 0.0,
			"0.017": 0.0,
			"0.018": 0.0,
			"0.019": 0.0,
			"0.02": 0.0,
			"0.021": 0.0,
			"0.022": 0.0,
			"0.023": 0.0,
			"0.024": 0.0,
			"0.0": 0.0
		}
	}
}
