{
	 "smiles": "ClC1=CC(=NC=C1)C1=NCCO1", 
	 "Tm": 347.15, 
	 "num_atms": 19, 
	 "gaussian": { 
		 "optdone": 1, 
		 "sigma_profile": "yes", 
		 "theory": "DFT", 
		 "functional": "B3LYP", 
		 "basiset": "6-31G**", 
		 "properties": { 
			 "R2extent": 3614.7126, 
			 "electric_dipole_moment_norm": 1.12016958538, 
			 "electric_quadrupole_moment_norm": 13.4827361585, 
			 "total_energy": -953.968677629, 
			 "HOMO_LUMO_gap": 0.18656, 
			 "cosmo_polarized_energy": -10.04, 
			 "cosmo_cavitation_energy": 25.25, 
			 "cosmo_dispersion_energy": -19.32, 
			 "cosmo_repulsion_energy": 1.55, 
			 "cosmo_total_nonelectrostatic_energy": 7.49, 
			 "SMD_solvation_energy": 0.23 
		},
		"coords": [
			{
				"x": -3.8280091637,
				"y": -1.4927788524,
				"z": 3.1580020041,
				"element": "Cl" 
			},
			{
				"x": -2.4945190647,
				"y": -0.5190907765,
				"z": 2.5752514513,
				"element": "C" 
			},
			{
				"x": -1.8918941503,
				"y": -0.8218541863,
				"z": 1.361387146,
				"element": "C" 
			},
			{
				"x": -0.8287633599,
				"y": -0.0069176004,
				"z": 0.9461495704,
				"element": "C" 
			},
			{
				"x": -0.369642173,
				"y": 1.035974809,
				"z": 1.6509876296,
				"element": "N" 
			},
			{
				"x": -0.9719590156,
				"y": 1.2994322256,
				"z": 2.8141646775,
				"element": "C" 
			},
			{
				"x": -2.0376262254,
				"y": 0.5606225484,
				"z": 3.3302164183,
				"element": "C" 
			},
			{
				"x": -0.1699828472,
				"y": -0.3114659379,
				"z": -0.3469185689,
				"element": "C" 
			},
			{
				"x": -0.5095635466,
				"y": -1.2766392066,
				"z": -1.1133055213,
				"element": "N" 
			},
			{
				"x": 0.3884324397,
				"y": -1.2194035321,
				"z": -2.2738098734,
				"element": "C" 
			},
			{
				"x": 1.3158928764,
				"y": -0.0061030324,
				"z": -1.9954989028,
				"element": "C" 
			},
			{
				"x": 0.8539381887,
				"y": 0.4989633282,
				"z": -0.7179809582,
				"element": "O" 
			},
			{
				"x": -2.213354427,
				"y": -1.6500244431,
				"z": 0.7426165905,
				"element": "H" 
			},
			{
				"x": -0.585711722,
				"y": 2.1498517801,
				"z": 3.3725911616,
				"element": "H" 
			},
			{
				"x": -2.492031475,
				"y": 0.8161742668,
				"z": 4.2803278206,
				"element": "H" 
			},
			{
				"x": -0.1977459802,
				"y": -1.1003666467,
				"z": -3.1921745271,
				"element": "H" 
			},
			{
				"x": 0.9415120571,
				"y": -2.1613477941,
				"z": -2.3631092243,
				"element": "H" 
			},
			{
				"x": 1.2223413272,
				"y": 0.7972883989,
				"z": -2.7317057771,
				"element": "H" 
			},
			{
				"x": 2.3713862614,
				"y": -0.2737153485,
				"z": -1.892791117,
				"element": "H" 
			}
		],
		 "valence_orbital": [ 
			{
				"type": "occ",
				"energy": -0.28282,
				"method": "rhf"
			},
			{
				"type": "occ",
				"energy": -0.28263,
				"method": "rhf"
			},
			{
				"type": "occ",
				"energy": -0.27841,
				"method": "rhf"
			},
			{
				"type": "occ",
				"energy": -0.26778,
				"method": "rhf"
			},
			{
				"type": "occ",
				"energy": -0.24332,
				"method": "rhf"
			},
			{
				"type": "unocc",
				"energy": -0.05676,
				"method": "rhf"
			},
			{
				"type": "unocc",
				"energy": -0.03323,
				"method": "rhf"
			},
			{
				"type": "unocc",
				"energy": 0.01995,
				"method": "rhf"
			},
			{
				"type": "unocc",
				"energy": 0.05225,
				"method": "rhf"
			},
			{
				"type": "unocc",
				"energy": 0.08947,
				"method": "rhf"
			}
		],
		"cosmo_sigma_profile": { 
			"-0.025": 0.0,
			"-0.024": 0.0,
			"-0.023": 0.0,
			"-0.022": 0.0,
			"-0.021": 0.0,
			"-0.02": 0.0,
			"-0.019": 0.0,
			"-0.018": 0.0,
			"-0.017": 0.0,
			"-0.016": 0.0,
			"-0.015": 0.0,
			"-0.014": 0.0,
			"-0.013": 0.0,
			"-0.012": 0.0,
			"-0.011": 0.0,
			"-0.01": 0.0,
			"-0.009": 0.869762201498,
			"-0.008": 3.01914842691,
			"-0.007": 6.42375552817,
			"-0.006": 11.8108262868,
			"-0.005": 19.2742922379,
			"-0.004": 15.3418477214,
			"-0.003": 13.4249236589,
			"-0.002": 14.4630342068,
			"-0.001": 20.6711998631,
			"0.0": 24.0667914919,
			"0.001": 13.3568781957,
			"0.002": 9.3064361573,
			"0.003": 13.3462826847,
			"0.004": 10.3189423843,
			"0.005": 3.63496516056,
			"0.006": 3.20315502135,
			"0.007": 3.20993550398,
			"0.008": 2.4988461971,
			"0.009": 2.20775392973,
			"0.01": 2.49917201745,
			"0.011": 2.89817028825,
			"0.012": 2.69801026371,
			"0.013": 1.89372726004,
			"0.014": 1.90465160174,
			"0.015": 1.38659545648,
			"0.016": 1.11463388086,
			"0.017": 0.169698673531,
			"0.018": 0.0,
			"0.019": 0.0,
			"0.02": 0.0,
			"0.021": 0.0,
			"0.022": 0.0,
			"0.023": 0.0,
			"0.024": 0.0,
			"0.025": 0.0
		}
	}
}
