{
	 "smiles": "CC(=O)C1=C(O)C=C(OCC=C)C=C1O", 
	 "Tm": 419.15, 
	 "num_atms": 27, 
	 "gaussian": { 
		 "optdone": 1, 
		 "sigma_profile": "yes", 
		 "theory": "DFT", 
		 "functional": "B3LYP", 
		 "basiset": "6-31G**", 
		 "properties": { 
			 "R2extent": 5002.423, 
			 "electric_dipole_moment_norm": 1.58075448125, 
			 "electric_quadrupole_moment_norm": 18.5604155651, 
			 "total_energy": -727.2701345, 
			 "HOMO_LUMO_gap": 0.16319, 
			 "cosmo_polarized_energy": -13.26, 
			 "cosmo_cavitation_energy": 30.93, 
			 "cosmo_dispersion_energy": -22.97, 
			 "cosmo_repulsion_energy": 1.78, 
			 "cosmo_total_nonelectrostatic_energy": 9.74, 
			 "SMD_solvation_energy": 7.21 
		},
		"coords": [
			{
				"x": 0.3295395195,
				"y": 4.2356949669,
				"z": -1.7042071245,
				"element": "C" 
			},
			{
				"x": 0.3852366897,
				"y": 3.5970309663,
				"z": -0.3225790964,
				"element": "C" 
			},
			{
				"x": 0.2212784967,
				"y": 4.3759240356,
				"z": 0.6399959403,
				"element": "O" 
			},
			{
				"x": 0.6327401199,
				"y": 2.1754570045,
				"z": -0.1147710078,
				"element": "C" 
			},
			{
				"x": 0.7990548986,
				"y": 1.1888977798,
				"z": -1.1425395136,
				"element": "C" 
			},
			{
				"x": 0.6788703271,
				"y": 1.4504216217,
				"z": -2.4746865832,
				"element": "O" 
			},
			{
				"x": 1.1076506331,
				"y": -0.1257100406,
				"z": -0.8425309567,
				"element": "C" 
			},
			{
				"x": 1.2533272847,
				"y": -0.5294564754,
				"z": 0.4949022707,
				"element": "C" 
			},
			{
				"x": 1.5540650017,
				"y": -1.8380009226,
				"z": 0.6685846715,
				"element": "O" 
			},
			{
				"x": 1.7377771328,
				"y": -2.335329337,
				"z": 2.0019523336,
				"element": "C" 
			},
			{
				"x": 2.1342396967,
				"y": -3.7767929447,
				"z": 1.9031962331,
				"element": "C" 
			},
			{
				"x": 1.5334880101,
				"y": -4.7592615458,
				"z": 2.5720422265,
				"element": "C" 
			},
			{
				"x": 1.0766916855,
				"y": 0.3790235177,
				"z": 1.5375045624,
				"element": "C" 
			},
			{
				"x": 0.7661622379,
				"y": 1.7101688881,
				"z": 1.2415538737,
				"element": "C" 
			},
			{
				"x": 0.6097656874,
				"y": 2.5362298035,
				"z": 2.2767803784,
				"element": "O" 
			},
			{
				"x": -0.5812024825,
				"y": 3.9403775473,
				"z": -2.2443787779,
				"element": "H" 
			},
			{
				"x": 0.2851139523,
				"y": 5.3166257948,
				"z": -1.566600832,
				"element": "H" 
			},
			{
				"x": 1.2076470032,
				"y": 3.9919891248,
				"z": -2.311472808,
				"element": "H" 
			},
			{
				"x": 0.2998346901,
				"y": 2.3216442772,
				"z": -2.6252085289,
				"element": "H" 
			},
			{
				"x": 1.2221802309,
				"y": -0.8466361842,
				"z": -1.642013751,
				"element": "H" 
			},
			{
				"x": 0.8137445322,
				"y": -2.2197051473,
				"z": 2.5827231307,
				"element": "H" 
			},
			{
				"x": 2.5276534336,
				"y": -1.7506301072,
				"z": 2.4962391855,
				"element": "H" 
			},
			{
				"x": 2.9839998707,
				"y": -3.9857595758,
				"z": 1.2556258775,
				"element": "H" 
			},
			{
				"x": 1.8766271611,
				"y": -5.78695739,
				"z": 2.5040776039,
				"element": "H" 
			},
			{
				"x": 0.6785653382,
				"y": -4.5722011631,
				"z": 3.2175213085,
				"element": "H" 
			},
			{
				"x": 1.1648906852,
				"y": 0.1076308605,
				"z": 2.5803550892,
				"element": "H" 
			},
			{
				"x": 0.4062581636,
				"y": 3.4357246448,
				"z": 1.8854342943,
				"element": "H" 
			}
		],
		 "valence_orbital": [ 
			{
				"type": "occ",
				"energy": -0.28613,
				"method": "rhf"
			},
			{
				"type": "occ",
				"energy": -0.27485,
				"method": "rhf"
			},
			{
				"type": "occ",
				"energy": -0.26419,
				"method": "rhf"
			},
			{
				"type": "occ",
				"energy": -0.23313,
				"method": "rhf"
			},
			{
				"type": "occ",
				"energy": -0.2158,
				"method": "rhf"
			},
			{
				"type": "unocc",
				"energy": -0.05261,
				"method": "rhf"
			},
			{
				"type": "unocc",
				"energy": -7e-05,
				"method": "rhf"
			},
			{
				"type": "unocc",
				"energy": 0.01586,
				"method": "rhf"
			},
			{
				"type": "unocc",
				"energy": 0.04063,
				"method": "rhf"
			},
			{
				"type": "unocc",
				"energy": 0.0707,
				"method": "rhf"
			}
		],
		"cosmo_sigma_profile": { 
			"-0.025": 0.0,
			"-0.024": 0.0,
			"-0.023": 0.0,
			"-0.022": 0.0,
			"-0.021": 0.0,
			"-0.02": 0.0,
			"-0.019": 0.0,
			"-0.018": 0.0,
			"-0.017": 0.0,
			"-0.016": 0.032358700851,
			"-0.015": 0.880677955147,
			"-0.014": 1.49361843876,
			"-0.013": 1.22422388778,
			"-0.012": 1.50728095163,
			"-0.011": 0.863105632173,
			"-0.01": 1.77470732104,
			"-0.009": 1.33023469586,
			"-0.008": 2.50914020792,
			"-0.007": 5.68736739814,
			"-0.006": 16.9787514731,
			"-0.005": 18.6861270168,
			"-0.004": 17.2806984341,
			"-0.003": 17.5641058573,
			"-0.002": 16.8400390687,
			"-0.001": 15.3506722738,
			"0.0": 12.9009842976,
			"0.001": 14.3735446816,
			"0.002": 18.5412627538,
			"0.003": 18.111274337,
			"0.004": 15.6832522809,
			"0.005": 10.3107637873,
			"0.006": 7.62200146145,
			"0.007": 5.08493165136,
			"0.008": 6.66431291153,
			"0.009": 5.42210349276,
			"0.01": 5.5069669066,
			"0.011": 3.37606307722,
			"0.012": 2.38225556249,
			"0.013": 0.292141107277,
			"0.014": 0.0,
			"0.015": 0.0,
			"0.016": 0.0,
			"0.017": 0.0,
			"0.018": 0.0,
			"0.019": 0.0,
			"0.02": 0.0,
			"0.021": 0.0,
			"0.022": 0.0,
			"0.023": 0.0,
			"0.024": 0.0,
			"0.025": 0.0
		}
	}
}
