{
	 "smiles": "CC(C)C1=C(C)C=C(OC(C)C(O)=O)C=C1", 
	 "Tm": 366.15, 
	 "num_atms": 34, 
	 "gaussian": { 
		 "optdone": 1, 
		 "sigma_profile": "yes", 
		 "theory": "DFT", 
		 "functional": "B3LYP", 
		 "basiset": "6-31G**", 
		 "properties": { 
			 "R2extent": 5812.5757, 
			 "electric_dipole_moment_norm": 4.95867478062, 
			 "electric_quadrupole_moment_norm": 23.7841978284, 
			 "total_energy": -731.923740616, 
			 "HOMO_LUMO_gap": 0.21445, 
			 "cosmo_polarized_energy": -12.04, 
			 "cosmo_cavitation_energy": 35.77, 
			 "cosmo_dispersion_energy": -25.19, 
			 "cosmo_repulsion_energy": 1.98, 
			 "cosmo_total_nonelectrostatic_energy": 12.55, 
			 "SMD_solvation_energy": 7.77 
		},
		"coords": [
			{
				"x": 1.4941169231,
				"y": 0.2665520078,
				"z": -3.7069083105,
				"element": "C" 
			},
			{
				"x": 2.0732412724,
				"y": 0.8335031292,
				"z": -2.3963015551,
				"element": "C" 
			},
			{
				"x": 2.0475099864,
				"y": 2.3761860342,
				"z": -2.3821729809,
				"element": "C" 
			},
			{
				"x": 1.4967176175,
				"y": 0.2190198612,
				"z": -1.117834234,
				"element": "C" 
			},
			{
				"x": 0.1287883682,
				"y": 0.1884396322,
				"z": -0.7673220366,
				"element": "C" 
			},
			{
				"x": -0.9787881999,
				"y": 0.7244292701,
				"z": -1.6522606345,
				"element": "C" 
			},
			{
				"x": -0.2614397205,
				"y": -0.3850046309,
				"z": 0.4551120964,
				"element": "C" 
			},
			{
				"x": 0.672187419,
				"y": -0.9353660614,
				"z": 1.3327652968,
				"element": "C" 
			},
			{
				"x": 0.362771436,
				"y": -1.5240215246,
				"z": 2.5421514186,
				"element": "O" 
			},
			{
				"x": -0.9999904026,
				"y": -1.6642364263,
				"z": 2.9670340725,
				"element": "C" 
			},
			{
				"x": -1.5216839685,
				"y": -0.4070716181,
				"z": 3.6591193278,
				"element": "C" 
			},
			{
				"x": -1.0584888842,
				"y": -2.876413669,
				"z": 3.9155020503,
				"element": "C" 
			},
			{
				"x": 0.0750253586,
				"y": -3.58760957,
				"z": 4.0151498426,
				"element": "O" 
			},
			{
				"x": -2.0691160586,
				"y": -3.1650879368,
				"z": 4.508730859,
				"element": "O" 
			},
			{
				"x": 2.026566553,
				"y": -0.9066689931,
				"z": 0.99971093,
				"element": "C" 
			},
			{
				"x": 2.4113824089,
				"y": -0.3364662634,
				"z": -0.2071455658,
				"element": "C" 
			},
			{
				"x": 1.4958251059,
				"y": -0.8280983962,
				"z": -3.6988545953,
				"element": "H" 
			},
			{
				"x": 0.4709163152,
				"y": 0.6012551362,
				"z": -3.8942350543,
				"element": "H" 
			},
			{
				"x": 2.1030426226,
				"y": 0.5970348375,
				"z": -4.5555805527,
				"element": "H" 
			},
			{
				"x": 3.1341235714,
				"y": 0.5518627667,
				"z": -2.3943119263,
				"element": "H" 
			},
			{
				"x": 2.5349011881,
				"y": 2.7670077215,
				"z": -1.4837509147,
				"element": "H" 
			},
			{
				"x": 1.0292111442,
				"y": 2.7758102289,
				"z": -2.4074711246,
				"element": "H" 
			},
			{
				"x": 2.5767255224,
				"y": 2.7733672211,
				"z": -3.2556354227,
				"element": "H" 
			},
			{
				"x": -1.2166238077,
				"y": 0.0253755663,
				"z": -2.4621289321,
				"element": "H" 
			},
			{
				"x": -1.8949380352,
				"y": 0.8719511026,
				"z": -1.0735311798,
				"element": "H" 
			},
			{
				"x": -0.7245891461,
				"y": 1.6800855325,
				"z": -2.1149068407,
				"element": "H" 
			},
			{
				"x": -1.3166940106,
				"y": -0.3831440407,
				"z": 0.7036154616,
				"element": "H" 
			},
			{
				"x": -1.6306691786,
				"y": -1.9245924991,
				"z": 2.1074917036,
				"element": "H" 
			},
			{
				"x": -1.5592504296,
				"y": 0.4357961026,
				"z": 2.9651747061,
				"element": "H" 
			},
			{
				"x": -2.5233284586,
				"y": -0.6008663325,
				"z": 4.0478742192,
				"element": "H" 
			},
			{
				"x": -0.8674373715,
				"y": -0.1402255988,
				"z": 4.4938388279,
				"element": "H" 
			},
			{
				"x": 0.741101878,
				"y": -3.1410116678,
				"z": 3.4598574536,
				"element": "H" 
			},
			{
				"x": 2.7561996322,
				"y": -1.3276994071,
				"z": 1.6838777427,
				"element": "H" 
			},
			{
				"x": 3.4694833488,
				"y": -0.3208915146,
				"z": -0.4563541482,
				"element": "H" 
			}
		],
		 "valence_orbital": [ 
			{
				"type": "occ",
				"energy": -0.32223,
				"method": "rhf"
			},
			{
				"type": "occ",
				"energy": -0.30873,
				"method": "rhf"
			},
			{
				"type": "occ",
				"energy": -0.27009,
				"method": "rhf"
			},
			{
				"type": "occ",
				"energy": -0.25325,
				"method": "rhf"
			},
			{
				"type": "occ",
				"energy": -0.2259,
				"method": "rhf"
			},
			{
				"type": "unocc",
				"energy": -0.01145,
				"method": "rhf"
			},
			{
				"type": "unocc",
				"energy": 0.00074,
				"method": "rhf"
			},
			{
				"type": "unocc",
				"energy": 0.01076,
				"method": "rhf"
			},
			{
				"type": "unocc",
				"energy": 0.07583,
				"method": "rhf"
			},
			{
				"type": "unocc",
				"energy": 0.08603,
				"method": "rhf"
			}
		],
		"cosmo_sigma_profile": { 
			"-0.025": 0.0,
			"-0.024": 0.0,
			"-0.023": 0.0,
			"-0.022": 0.0,
			"-0.021": 0.0,
			"-0.02": 0.0,
			"-0.019": 0.0,
			"-0.018": 0.0,
			"-0.017": 0.0,
			"-0.016": 0.0,
			"-0.015": 0.0216732452124,
			"-0.014": 0.261359894824,
			"-0.013": 0.595491704671,
			"-0.012": 0.603252225757,
			"-0.011": 0.746680824787,
			"-0.01": 0.57702007822,
			"-0.009": 1.73906979687,
			"-0.008": 5.41259165844,
			"-0.007": 4.65051232908,
			"-0.006": 7.86150371795,
			"-0.005": 14.7117209606,
			"-0.004": 18.1115199176,
			"-0.003": 26.8502009904,
			"-0.002": 29.0260496801,
			"-0.001": 31.8161106534,
			"0.0": 30.6248356302,
			"0.001": 26.371897551,
			"0.002": 17.3692575851,
			"0.003": 9.25275186151,
			"0.004": 10.0855523275,
			"0.005": 10.172005843,
			"0.006": 8.52103661341,
			"0.007": 3.04529802203,
			"0.008": 3.17099877024,
			"0.009": 3.77248475156,
			"0.01": 5.08188332734,
			"0.011": 4.1252125766,
			"0.012": 5.03072284323,
			"0.013": 1.24868374411,
			"0.014": 0.00772862229256,
			"0.015": 0.0,
			"0.016": 0.0,
			"0.017": 0.0,
			"0.018": 0.0,
			"0.019": 0.0,
			"0.02": 0.0,
			"0.021": 0.0,
			"0.022": 0.0,
			"0.023": 0.0,
			"0.024": 0.0,
			"0.025": 0.0
		}
	}
}
