{
	 "smiles": "[O-][N+](=O)C1=C2C=CC=NC2=CC=C1Cl", 
	 "Tm": 393.15, 
	 "num_atms": 19, 
	 "gaussian": { 
		 "optdone": 1, 
		 "sigma_profile": "yes", 
		 "theory": "DFT", 
		 "functional": "B3LYP", 
		 "basiset": "6-31G**", 
		 "properties": { 
			 "R2extent": 3246.3266, 
			 "electric_dipole_moment_norm": 2.96296955266, 
			 "electric_quadrupole_moment_norm": 15.4712985673, 
			 "total_energy": -1066.00025159, 
			 "HOMO_LUMO_gap": 0.17256, 
			 "cosmo_polarized_energy": -9.14, 
			 "cosmo_cavitation_energy": 26.49, 
			 "cosmo_dispersion_energy": -19.12, 
			 "cosmo_repulsion_energy": 1.47, 
			 "cosmo_total_nonelectrostatic_energy": 8.84, 
			 "SMD_solvation_energy": 5.31 
		},
		"coords": [
			{
				"x": -0.6949360423,
				"y": 2.5070185495,
				"z": 1.0163107496,
				"element": "O" 
			},
			{
				"x": -0.2268281208,
				"y": 1.6681269755,
				"z": 1.7782512441,
				"element": "N" 
			},
			{
				"x": 0.376267575,
				"y": 1.8917039942,
				"z": 2.8221356742,
				"element": "O" 
			},
			{
				"x": -0.3617664882,
				"y": 0.2531773723,
				"z": 1.3761742115,
				"element": "C" 
			},
			{
				"x": 0.6664288205,
				"y": -0.3063041763,
				"z": 0.5745994312,
				"element": "C" 
			},
			{
				"x": 1.8121149667,
				"y": 0.4075465704,
				"z": 0.1370454988,
				"element": "C" 
			},
			{
				"x": 2.7403155296,
				"y": -0.2460725007,
				"z": -0.6371277924,
				"element": "C" 
			},
			{
				"x": 2.5241708666,
				"y": -1.6066931655,
				"z": -0.9722225808,
				"element": "C" 
			},
			{
				"x": 1.4748083263,
				"y": -2.3042362758,
				"z": -0.5864052058,
				"element": "N" 
			},
			{
				"x": 0.5412918413,
				"y": -1.6766410195,
				"z": 0.18203646,
				"element": "C" 
			},
			{
				"x": -0.5946176356,
				"y": -2.4183474761,
				"z": 0.6041582661,
				"element": "C" 
			},
			{
				"x": -1.5693329091,
				"y": -1.8396755001,
				"z": 1.3804192936,
				"element": "C" 
			},
			{
				"x": -1.4529023788,
				"y": -0.4836369273,
				"z": 1.7733601861,
				"element": "C" 
			},
			{
				"x": -2.7049334717,
				"y": 0.225230905,
				"z": 2.7588186033,
				"element": "Cl" 
			},
			{
				"x": 1.9488013085,
				"y": 1.4489744786,
				"z": 0.410580594,
				"element": "H" 
			},
			{
				"x": 3.6300142573,
				"y": 0.2632134275,
				"z": -0.9922840461,
				"element": "H" 
			},
			{
				"x": 3.2549987417,
				"y": -2.1318853372,
				"z": -1.5853511666,
				"element": "H" 
			},
			{
				"x": -0.6634117961,
				"y": -3.4546488898,
				"z": 0.2919304875,
				"element": "H" 
			},
			{
				"x": -2.437383391,
				"y": -2.4024510045,
				"z": 1.7043700918,
				"element": "H" 
			}
		],
		 "valence_orbital": [ 
			{
				"type": "occ",
				"energy": -0.31872,
				"method": "rhf"
			},
			{
				"type": "occ",
				"energy": -0.30907,
				"method": "rhf"
			},
			{
				"type": "occ",
				"energy": -0.27764,
				"method": "rhf"
			},
			{
				"type": "occ",
				"energy": -0.27409,
				"method": "rhf"
			},
			{
				"type": "occ",
				"energy": -0.25655,
				"method": "rhf"
			},
			{
				"type": "unocc",
				"energy": -0.08399,
				"method": "rhf"
			},
			{
				"type": "unocc",
				"energy": -0.08192,
				"method": "rhf"
			},
			{
				"type": "unocc",
				"energy": -0.04605,
				"method": "rhf"
			},
			{
				"type": "unocc",
				"energy": -0.00984,
				"method": "rhf"
			},
			{
				"type": "unocc",
				"energy": 0.00552,
				"method": "rhf"
			}
		],
		"cosmo_sigma_profile": { 
			"-0.025": 0.0,
			"-0.024": 0.0,
			"-0.023": 0.0,
			"-0.022": 0.0,
			"-0.021": 0.0,
			"-0.02": 0.0,
			"-0.019": 0.0,
			"-0.018": 0.0,
			"-0.017": 0.0,
			"-0.016": 0.0,
			"-0.015": 0.0,
			"-0.014": 0.0,
			"-0.013": 0.0,
			"-0.012": 0.0,
			"-0.011": 0.0,
			"-0.01": 0.0805809378835,
			"-0.009": 2.09073333032,
			"-0.008": 7.55723476372,
			"-0.007": 11.7890325311,
			"-0.006": 10.6047406301,
			"-0.005": 7.80993771306,
			"-0.004": 8.22601621471,
			"-0.003": 8.55601787865,
			"-0.002": 16.9326585274,
			"-0.001": 28.2758725332,
			"0.0": 24.6102943347,
			"0.001": 21.0826167119,
			"0.002": 14.5358596237,
			"0.003": 11.4494443796,
			"0.004": 4.20669274683,
			"0.005": 5.81346396607,
			"0.006": 10.8103856523,
			"0.007": 9.83666158713,
			"0.008": 5.69189774492,
			"0.009": 2.16926727594,
			"0.01": 0.69725437423,
			"0.011": 1.00570470265,
			"0.012": 0.769515062247,
			"0.013": 0.546536996161,
			"0.014": 1.07388257337,
			"0.015": 0.294070390096,
			"0.016": 0.0,
			"0.017": 0.0,
			"0.018": 0.0,
			"0.019": 0.0,
			"0.02": 0.0,
			"0.021": 0.0,
			"0.022": 0.0,
			"0.023": 0.0,
			"0.024": 0.0,
			"0.025": 0.0
		}
	}
}
