{
	 "smiles": "NC1=CC2=NNC=C2C=C1", 
	 "Tm": 478.15, 
	 "num_atms": 17, 
	 "gaussian": { 
		 "optdone": 1, 
		 "sigma_profile": "yes", 
		 "theory": "DFT", 
		 "functional": "B3LYP", 
		 "basiset": "6-31G**", 
		 "properties": { 
			 "R2extent": 1482.2542, 
			 "electric_dipole_moment_norm": 1.97852186493, 
			 "electric_quadrupole_moment_norm": 19.6313497412, 
			 "total_energy": -435.194998955, 
			 "HOMO_LUMO_gap": 0.16248, 
			 "cosmo_polarized_energy": -15.47, 
			 "cosmo_cavitation_energy": 20.88, 
			 "cosmo_dispersion_energy": -16.09, 
			 "cosmo_repulsion_energy": 1.3, 
			 "cosmo_total_nonelectrostatic_energy": 6.09, 
			 "SMD_solvation_energy": 2.65 
		},
		"coords": [
			{
				"x": -2.6116196532,
				"y": -0.1060635481,
				"z": -0.1329295629,
				"element": "N" 
			},
			{
				"x": -1.2190508012,
				"y": -0.180525709,
				"z": -0.0014297761,
				"element": "C" 
			},
			{
				"x": -0.3850722386,
				"y": -0.2032624643,
				"z": -1.1035596804,
				"element": "C" 
			},
			{
				"x": 1.009053791,
				"y": -0.3499972549,
				"z": -0.8923557708,
				"element": "C" 
			},
			{
				"x": 1.9820005467,
				"y": -0.3960822301,
				"z": -1.8254215783,
				"element": "N" 
			},
			{
				"x": 3.1084556119,
				"y": -0.5339938311,
				"z": -1.0904706139,
				"element": "N" 
			},
			{
				"x": 2.9235831556,
				"y": -0.5789768688,
				"z": 0.2485061019,
				"element": "C" 
			},
			{
				"x": 1.5453670783,
				"y": -0.4604716777,
				"z": 0.4386172014,
				"element": "C" 
			},
			{
				"x": 0.6693687012,
				"y": -0.430078279,
				"z": 1.5538446863,
				"element": "C" 
			},
			{
				"x": -0.6764156411,
				"y": -0.2966800769,
				"z": 1.3261694567,
				"element": "C" 
			},
			{
				"x": -3.0841551636,
				"y": 0.3514945832,
				"z": 0.6352101074,
				"element": "H" 
			},
			{
				"x": -2.9301815504,
				"y": 0.2494044315,
				"z": -1.0244641549,
				"element": "H" 
			},
			{
				"x": -0.7765873285,
				"y": -0.1153269234,
				"z": -2.1126330517,
				"element": "H" 
			},
			{
				"x": 3.9896520424,
				"y": -0.5944853996,
				"z": -1.577968078,
				"element": "H" 
			},
			{
				"x": 3.7476788121,
				"y": -0.6877277535,
				"z": 0.9379098468,
				"element": "H" 
			},
			{
				"x": 1.0500831372,
				"y": -0.5124739504,
				"z": 2.5678472359,
				"element": "H" 
			},
			{
				"x": -1.3685604998,
				"y": -0.285953048,
				"z": 2.1646276308,
				"element": "H" 
			}
		],
		 "valence_orbital": [ 
			{
				"type": "occ",
				"energy": -0.29648,
				"method": "rhf"
			},
			{
				"type": "occ",
				"energy": -0.27451,
				"method": "rhf"
			},
			{
				"type": "occ",
				"energy": -0.27042,
				"method": "rhf"
			},
			{
				"type": "occ",
				"energy": -0.21465,
				"method": "rhf"
			},
			{
				"type": "occ",
				"energy": -0.18412,
				"method": "rhf"
			},
			{
				"type": "unocc",
				"energy": -0.02164,
				"method": "rhf"
			},
			{
				"type": "unocc",
				"energy": 0.04711,
				"method": "rhf"
			},
			{
				"type": "unocc",
				"energy": 0.0603,
				"method": "rhf"
			},
			{
				"type": "unocc",
				"energy": 0.08335,
				"method": "rhf"
			},
			{
				"type": "unocc",
				"energy": 0.08981,
				"method": "rhf"
			}
		],
		"cosmo_sigma_profile": { 
			"-0.025": 0.0,
			"-0.024": 0.0,
			"-0.023": 0.0,
			"-0.022": 0.0,
			"-0.021": 0.0,
			"-0.02": 0.0,
			"-0.019": 0.0,
			"-0.018": 0.0,
			"-0.017": 0.512839701715,
			"-0.016": 1.7702161585,
			"-0.015": 1.62669613962,
			"-0.014": 0.546103301309,
			"-0.013": 1.15776645805,
			"-0.012": 3.58612868528,
			"-0.011": 3.28874995921,
			"-0.01": 3.69412129474,
			"-0.009": 5.9293414156,
			"-0.008": 6.33889782022,
			"-0.007": 4.78007261274,
			"-0.006": 6.59257014035,
			"-0.005": 9.51579458924,
			"-0.004": 9.25533731457,
			"-0.003": 6.49700552038,
			"-0.002": 6.35469106367,
			"-0.001": 5.98594493323,
			"0.0": 5.46816812337,
			"0.001": 6.57099643282,
			"0.002": 7.19821825341,
			"0.003": 7.85393775698,
			"0.004": 9.72695227591,
			"0.005": 13.0952779538,
			"0.006": 15.2666164078,
			"0.007": 5.60901565886,
			"0.008": 2.36525702697,
			"0.009": 2.52763224662,
			"0.01": 2.31683477587,
			"0.011": 1.74101519087,
			"0.012": 2.01553132516,
			"0.013": 1.87774261997,
			"0.014": 1.72171650248,
			"0.015": 1.6733225764,
			"0.016": 1.19386692607,
			"0.017": 0.914493171613,
			"0.018": 0.0226494536098,
			"0.019": 0.0,
			"0.02": 0.0,
			"0.021": 0.0,
			"0.022": 0.0,
			"0.023": 0.0,
			"0.024": 0.0,
			"0.025": 0.0
		}
	}
}
