{
	 "smiles": "O=S(=O)(N1C=CN=C1)N1C=CN=C1", 
	 "Tm": 409.15, 
	 "num_atms": 19, 
	 "gaussian": { 
		 "optdone": 1, 
		 "sigma_profile": "yes", 
		 "theory": "DFT", 
		 "functional": "B3LYP", 
		 "basiset": "6-31G**", 
		 "properties": { 
			 "R2extent": 2720.9922, 
			 "electric_dipole_moment_norm": 0.789611125808, 
			 "electric_quadrupole_moment_norm": 15.0984503808, 
			 "total_energy": -999.769534823, 
			 "HOMO_LUMO_gap": 0.21821, 
			 "cosmo_polarized_energy": -14.22, 
			 "cosmo_cavitation_energy": 25.9, 
			 "cosmo_dispersion_energy": -18.78, 
			 "cosmo_repulsion_energy": 1.4, 
			 "cosmo_total_nonelectrostatic_energy": 8.53, 
			 "SMD_solvation_energy": 2.2 
		},
		"coords": [
			{
				"x": -1.3365271156,
				"y": -0.3222602231,
				"z": -1.6721232896,
				"element": "O" 
			},
			{
				"x": 0.0142797271,
				"y": 0.1928643811,
				"z": -1.7655889465,
				"element": "S" 
			},
			{
				"x": 0.7705207869,
				"y": 0.3454326895,
				"z": -2.9917961445,
				"element": "O" 
			},
			{
				"x": 0.9502626372,
				"y": -0.7638900548,
				"z": -0.7183056129,
				"element": "N" 
			},
			{
				"x": 2.3462544278,
				"y": -0.8144909997,
				"z": -0.66723777,
				"element": "C" 
			},
			{
				"x": 2.6237783479,
				"y": -1.6368019371,
				"z": 0.3846040726,
				"element": "C" 
			},
			{
				"x": 1.4612506797,
				"y": -2.0904354985,
				"z": 0.9894220244,
				"element": "N" 
			},
			{
				"x": 0.4768452976,
				"y": -1.5553443871,
				"z": 0.324581532,
				"element": "C" 
			},
			{
				"x": 0.0171009271,
				"y": 1.7221222919,
				"z": -1.0242931758,
				"element": "N" 
			},
			{
				"x": -0.7949201694,
				"y": 2.1297710291,
				"z": 0.0379795232,
				"element": "C" 
			},
			{
				"x": -0.3605581877,
				"y": 3.3860694279,
				"z": 0.3423425303,
				"element": "C" 
			},
			{
				"x": 0.6882801894,
				"y": 3.769174305,
				"z": -0.4799953467,
				"element": "N" 
			},
			{
				"x": 0.9033838675,
				"y": 2.7645402171,
				"z": -1.2811353196,
				"element": "C" 
			},
			{
				"x": 2.9590167476,
				"y": -0.2957400867,
				"z": -1.3862854422,
				"element": "H" 
			},
			{
				"x": 3.596287564,
				"y": -1.9434674706,
				"z": 0.7427800845,
				"element": "H" 
			},
			{
				"x": -0.5810839302,
				"y": -1.691110724,
				"z": 0.4942187037,
				"element": "H" 
			},
			{
				"x": -1.5845590465,
				"y": 1.503874038,
				"z": 0.4205130083,
				"element": "H" 
			},
			{
				"x": -0.7466328291,
				"y": 4.0509838608,
				"z": 1.1019105563,
				"element": "H" 
			},
			{
				"x": 1.6351200786,
				"y": 2.7005091413,
				"z": -2.0728909873,
				"element": "H" 
			}
		],
		 "valence_orbital": [ 
			{
				"type": "occ",
				"energy": -0.30726,
				"method": "rhf"
			},
			{
				"type": "occ",
				"energy": -0.29708,
				"method": "rhf"
			},
			{
				"type": "occ",
				"energy": -0.29455,
				"method": "rhf"
			},
			{
				"type": "occ",
				"energy": -0.26569,
				"method": "rhf"
			},
			{
				"type": "occ",
				"energy": -0.26218,
				"method": "rhf"
			},
			{
				"type": "unocc",
				"energy": -0.04397,
				"method": "rhf"
			},
			{
				"type": "unocc",
				"energy": -0.01299,
				"method": "rhf"
			},
			{
				"type": "unocc",
				"energy": 0.01272,
				"method": "rhf"
			},
			{
				"type": "unocc",
				"energy": 0.0324,
				"method": "rhf"
			},
			{
				"type": "unocc",
				"energy": 0.04464,
				"method": "rhf"
			}
		],
		"cosmo_sigma_profile": { 
			"-0.025": 0.0,
			"-0.024": 0.0,
			"-0.023": 0.0,
			"-0.022": 0.0,
			"-0.021": 0.0,
			"-0.02": 0.0,
			"-0.019": 0.0,
			"-0.018": 0.0,
			"-0.017": 0.0,
			"-0.016": 0.0,
			"-0.015": 0.0,
			"-0.014": 0.0,
			"-0.013": 0.0,
			"-0.012": 0.0,
			"-0.011": 0.804613787534,
			"-0.01": 5.88164398112,
			"-0.009": 7.38557374436,
			"-0.008": 10.0684521662,
			"-0.007": 8.8338292675,
			"-0.006": 10.2199396622,
			"-0.005": 13.2081402999,
			"-0.004": 11.4197337222,
			"-0.003": 13.1246544044,
			"-0.002": 11.4873906322,
			"-0.001": 11.7776093713,
			"0.0": 12.0656526874,
			"0.001": 11.8731010328,
			"0.002": 12.7685260708,
			"0.003": 12.988464968,
			"0.004": 7.22373296145,
			"0.005": 5.34503645382,
			"0.006": 7.07263508675,
			"0.007": 11.3111355303,
			"0.008": 8.46066074818,
			"0.009": 2.64986815605,
			"0.01": 1.9733567238,
			"0.011": 2.59966594682,
			"0.012": 2.33983304031,
			"0.013": 1.99402603612,
			"0.014": 2.09852819352,
			"0.015": 2.09816748139,
			"0.016": 1.02515123664,
			"0.017": 0.0,
			"0.018": 0.0,
			"0.019": 0.0,
			"0.02": 0.0,
			"0.021": 0.0,
			"0.022": 0.0,
			"0.023": 0.0,
			"0.024": 0.0,
			"0.025": 0.0
		}
	}
}
