{
	 "smiles": "O=CC(C=O)C1=NC2=C(O1)C=CC=C2", 
	 "Tm": 499.15, 
	 "num_atms": 21, 
	 "gaussian": { 
		 "optdone": 1, 
		 "sigma_profile": "yes", 
		 "theory": "DFT", 
		 "functional": "B3LYP", 
		 "basiset": "6-31G**", 
		 "properties": { 
			 "R2extent": 3310.2818, 
			 "electric_dipole_moment_norm": 2.68920211959, 
			 "electric_quadrupole_moment_norm": 7.2968443563, 
			 "total_energy": -665.667029219, 
			 "HOMO_LUMO_gap": 0.18347, 
			 "cosmo_polarized_energy": -12.07, 
			 "cosmo_cavitation_energy": 27.06, 
			 "cosmo_dispersion_energy": -19.38, 
			 "cosmo_repulsion_energy": 1.52, 
			 "cosmo_total_nonelectrostatic_energy": 9.2, 
			 "SMD_solvation_energy": 5.4 
		},
		"coords": [
			{
				"x": 1.9461584658,
				"y": -0.9550856874,
				"z": 0.4788215168,
				"element": "O" 
			},
			{
				"x": 1.3577176485,
				"y": -0.7048519905,
				"z": 1.4985675772,
				"element": "C" 
			},
			{
				"x": -0.1175096438,
				"y": -0.2405559604,
				"z": 1.5550065792,
				"element": "C" 
			},
			{
				"x": -0.2218011127,
				"y": 0.9378176695,
				"z": 2.5324130477,
				"element": "C" 
			},
			{
				"x": 0.1678769374,
				"y": 0.8445025166,
				"z": 3.6737156251,
				"element": "O" 
			},
			{
				"x": -0.6825578989,
				"y": 0.0624428025,
				"z": 0.2125714789,
				"element": "C" 
			},
			{
				"x": -0.7605496744,
				"y": 1.2214911457,
				"z": -0.3561134361,
				"element": "N" 
			},
			{
				"x": -1.3482051887,
				"y": 0.9555566028,
				"z": -1.5966760282,
				"element": "C" 
			},
			{
				"x": -1.5943194717,
				"y": -0.4209030091,
				"z": -1.6881278116,
				"element": "C" 
			},
			{
				"x": -1.1662378458,
				"y": -0.9956185571,
				"z": -0.5136372106,
				"element": "O" 
			},
			{
				"x": -2.1734345729,
				"y": -1.032000797,
				"z": -2.7900679017,
				"element": "C" 
			},
			{
				"x": -2.5113076431,
				"y": -0.1785398548,
				"z": -3.8430649049,
				"element": "C" 
			},
			{
				"x": -2.2749998838,
				"y": 1.2076526378,
				"z": -3.7770239618,
				"element": "C" 
			},
			{
				"x": -1.691541278,
				"y": 1.7981798986,
				"z": -2.6567986641,
				"element": "C" 
			},
			{
				"x": 1.819223369,
				"y": -0.7872029696,
				"z": 2.5024765629,
				"element": "H" 
			},
			{
				"x": -0.6592992453,
				"y": -1.0809025314,
				"z": 2.0132107714,
				"element": "H" 
			},
			{
				"x": -0.6487132321,
				"y": 1.8685403613,
				"z": 2.1146947465,
				"element": "H" 
			},
			{
				"x": -2.3493597421,
				"y": -2.1009434733,
				"z": -2.8305485765,
				"element": "H" 
			},
			{
				"x": -2.9670650874,
				"y": -0.5962939654,
				"z": -4.7354539065,
				"element": "H" 
			},
			{
				"x": -2.5543039168,
				"y": 1.8293851416,
				"z": -4.6220812092,
				"element": "H" 
			},
			{
				"x": -1.5059709834,
				"y": 2.8654300195,
				"z": -2.6022842944,
				"element": "H" 
			}
		],
		 "valence_orbital": [ 
			{
				"type": "occ",
				"energy": -0.30811,
				"method": "rhf"
			},
			{
				"type": "occ",
				"energy": -0.29089,
				"method": "rhf"
			},
			{
				"type": "occ",
				"energy": -0.27002,
				"method": "rhf"
			},
			{
				"type": "occ",
				"energy": -0.25404,
				"method": "rhf"
			},
			{
				"type": "occ",
				"energy": -0.24398,
				"method": "rhf"
			},
			{
				"type": "unocc",
				"energy": -0.06051,
				"method": "rhf"
			},
			{
				"type": "unocc",
				"energy": -0.03913,
				"method": "rhf"
			},
			{
				"type": "unocc",
				"energy": -0.03203,
				"method": "rhf"
			},
			{
				"type": "unocc",
				"energy": -0.00113,
				"method": "rhf"
			},
			{
				"type": "unocc",
				"energy": 0.02627,
				"method": "rhf"
			}
		],
		"cosmo_sigma_profile": { 
			"-0.025": 0.0,
			"-0.024": 0.0,
			"-0.023": 0.0,
			"-0.022": 0.0,
			"-0.021": 0.0,
			"-0.02": 0.0,
			"-0.019": 0.0,
			"-0.018": 0.0,
			"-0.017": 0.0,
			"-0.016": 0.0,
			"-0.015": 0.0,
			"-0.014": 0.0,
			"-0.013": 0.0,
			"-0.012": 0.576556084994,
			"-0.011": 3.02597497109,
			"-0.01": 2.43674461297,
			"-0.009": 3.39095625406,
			"-0.008": 7.53546077932,
			"-0.007": 11.6825030726,
			"-0.006": 14.4235651535,
			"-0.005": 13.4097418359,
			"-0.004": 13.975382525,
			"-0.003": 10.2802488136,
			"-0.002": 10.150519784,
			"-0.001": 11.2101670114,
			"0.0": 11.7570450165,
			"0.001": 13.8552959057,
			"0.002": 14.4781873556,
			"0.003": 14.5833310621,
			"0.004": 15.0998039007,
			"0.005": 9.79601099181,
			"0.006": 5.83137936554,
			"0.007": 5.6487752222,
			"0.008": 5.18196015235,
			"0.009": 8.3929044978,
			"0.01": 7.60922836725,
			"0.011": 2.54413487172,
			"0.012": 0.635947662536,
			"0.013": 0.585207372463,
			"0.014": 0.0940335642935,
			"0.015": 0.0,
			"0.016": 0.0,
			"0.017": 0.0,
			"0.018": 0.0,
			"0.019": 0.0,
			"0.02": 0.0,
			"0.021": 0.0,
			"0.022": 0.0,
			"0.023": 0.0,
			"0.024": 0.0,
			"0.025": 0.0
		}
	}
}
