{
	 "smiles": "COC1=C(OC)C=C(C=C1)C1=NN=C(N)O1", 
	 "Tm": 509.15, 
	 "num_atms": 27, 
	 "gaussian": { 
		 "optdone": 1, 
		 "sigma_profile": "yes", 
		 "theory": "DFT", 
		 "functional": "B3LYP", 
		 "basiset": "6-31G**", 
		 "properties": { 
			 "R2extent": 5016.0767, 
			 "electric_dipole_moment_norm": 5.79892889593, 
			 "electric_quadrupole_moment_norm": 21.5438161575, 
			 "total_energy": -777.564476562, 
			 "HOMO_LUMO_gap": 0.16961, 
			 "cosmo_polarized_energy": -19.39, 
			 "cosmo_cavitation_energy": 31.98, 
			 "cosmo_dispersion_energy": -23.37, 
			 "cosmo_repulsion_energy": 1.84, 
			 "cosmo_total_nonelectrostatic_energy": 10.45, 
			 "SMD_solvation_energy": 5.58 
		},
		"coords": [
			{
				"x": 2.225056984,
				"y": -0.2618644231,
				"z": 3.3551727067,
				"element": "C" 
			},
			{
				"x": 2.3277198316,
				"y": 0.910465663,
				"z": 2.5413338094,
				"element": "O" 
			},
			{
				"x": 1.732537177,
				"y": 0.8545247747,
				"z": 1.3088392315,
				"element": "C" 
			},
			{
				"x": 0.3287285716,
				"y": 0.759522116,
				"z": 1.1575564108,
				"element": "C" 
			},
			{
				"x": -0.3965486036,
				"y": 0.6845047425,
				"z": 2.3124459431,
				"element": "O" 
			},
			{
				"x": -1.811892318,
				"y": 0.643495797,
				"z": 2.2152017019,
				"element": "C" 
			},
			{
				"x": -0.2272687533,
				"y": 0.7614116046,
				"z": -0.1215445082,
				"element": "C" 
			},
			{
				"x": 0.5968622637,
				"y": 0.8734939286,
				"z": -1.2556923704,
				"element": "C" 
			},
			{
				"x": 1.9842182615,
				"y": 0.9859940738,
				"z": -1.103330301,
				"element": "C" 
			},
			{
				"x": 2.5355223694,
				"y": 0.9706643596,
				"z": 0.1748158491,
				"element": "C" 
			},
			{
				"x": 0.021464118,
				"y": 0.8813395256,
				"z": -2.5929955946,
				"element": "C" 
			},
			{
				"x": 0.6130891043,
				"y": 0.99565401,
				"z": -3.7403886274,
				"element": "N" 
			},
			{
				"x": -0.3741769273,
				"y": 0.9252714265,
				"z": -4.7285274734,
				"element": "N" 
			},
			{
				"x": -1.4960750988,
				"y": 0.7872554975,
				"z": -4.0867109485,
				"element": "C" 
			},
			{
				"x": -2.7686772711,
				"y": 0.7495931871,
				"z": -4.5910474842,
				"element": "N" 
			},
			{
				"x": -1.3497860788,
				"y": 0.7457637208,
				"z": -2.7377122202,
				"element": "O" 
			},
			{
				"x": 1.18742196,
				"y": -0.4765385446,
				"z": 3.6242224751,
				"element": "H" 
			},
			{
				"x": 2.8020398329,
				"y": -0.0522532694,
				"z": 4.25805317,
				"element": "H" 
			},
			{
				"x": 2.6596142849,
				"y": -1.1302708226,
				"z": 2.8434199257,
				"element": "H" 
			},
			{
				"x": -2.1566546283,
				"y": -0.2510279581,
				"z": 1.6804330048,
				"element": "H" 
			},
			{
				"x": -2.2067468147,
				"y": 1.5360481037,
				"z": 1.7138510093,
				"element": "H" 
			},
			{
				"x": -2.1822706886,
				"y": 0.6136393101,
				"z": 3.2409129965,
				"element": "H" 
			},
			{
				"x": -1.2987529456,
				"y": 0.6895968322,
				"z": -0.2549490052,
				"element": "H" 
			},
			{
				"x": 2.6118892463,
				"y": 1.0766106192,
				"z": -1.982382707,
				"element": "H" 
			},
			{
				"x": 3.6070803437,
				"y": 1.0560269557,
				"z": 0.323068362,
				"element": "H" 
			},
			{
				"x": -2.7883234145,
				"y": 0.5972343345,
				"z": -5.590237883,
				"element": "H" 
			},
			{
				"x": -3.421970806,
				"y": 0.1748444351,
				"z": -4.0764074727,
				"element": "H" 
			}
		],
		 "valence_orbital": [ 
			{
				"type": "occ",
				"energy": -0.28058,
				"method": "rhf"
			},
			{
				"type": "occ",
				"energy": -0.26639,
				"method": "rhf"
			},
			{
				"type": "occ",
				"energy": -0.25737,
				"method": "rhf"
			},
			{
				"type": "occ",
				"energy": -0.23647,
				"method": "rhf"
			},
			{
				"type": "occ",
				"energy": -0.2055,
				"method": "rhf"
			},
			{
				"type": "unocc",
				"energy": -0.03589,
				"method": "rhf"
			},
			{
				"type": "unocc",
				"energy": 0.00355,
				"method": "rhf"
			},
			{
				"type": "unocc",
				"energy": 0.04006,
				"method": "rhf"
			},
			{
				"type": "unocc",
				"energy": 0.06592,
				"method": "rhf"
			},
			{
				"type": "unocc",
				"energy": 0.0747,
				"method": "rhf"
			}
		],
		"cosmo_sigma_profile": { 
			"-0.025": 0.0,
			"-0.024": 0.0,
			"-0.023": 0.0,
			"-0.022": 0.0,
			"-0.021": 0.0,
			"-0.02": 0.0,
			"-0.019": 0.0,
			"-0.018": 0.0,
			"-0.017": 0.0,
			"-0.016": 0.0690159858196,
			"-0.015": 1.86480253326,
			"-0.014": 2.94811385775,
			"-0.013": 2.49309789149,
			"-0.012": 2.58944907776,
			"-0.011": 2.60078870152,
			"-0.01": 1.98240132684,
			"-0.009": 1.9733222104,
			"-0.008": 1.67362839035,
			"-0.007": 3.58393725971,
			"-0.006": 12.3859072539,
			"-0.005": 16.0890324628,
			"-0.004": 22.2475779034,
			"-0.003": 22.8523460922,
			"-0.002": 17.8071595096,
			"-0.001": 15.2767200619,
			"0.0": 15.0443895582,
			"0.001": 14.9537413469,
			"0.002": 19.0110689993,
			"0.003": 19.0854166062,
			"0.004": 11.8242176507,
			"0.005": 5.86174032464,
			"0.006": 5.14134787281,
			"0.007": 4.34268246657,
			"0.008": 3.64245222891,
			"0.009": 4.96374287461,
			"0.01": 5.45810461159,
			"0.011": 4.18581712328,
			"0.012": 4.46646588249,
			"0.013": 3.38223528942,
			"0.014": 2.45034454134,
			"0.015": 1.89014133765,
			"0.016": 0.967217082353,
			"0.017": 0.0106648952022,
			"0.018": 0.0,
			"0.019": 0.0,
			"0.02": 0.0,
			"0.021": 0.0,
			"0.022": 0.0,
			"0.023": 0.0,
			"0.024": 0.0,
			"0.025": 0.0
		}
	}
}
