{
	 "smiles": "BrCC=C", 
	 "Tm": 154.15, 
	 "num_atms": 9, 
	 "gaussian": { 
		 "optdone": 1, 
		 "sigma_profile": "yes", 
		 "theory": "DFT", 
		 "functional": "B3LYP", 
		 "basiset": "6-31G**", 
		 "properties": { 
			 "R2extent": 1663.1423, 
			 "electric_dipole_moment_norm": 2.17901009865, 
			 "electric_quadrupole_moment_norm": 5.86617738651, 
			 "total_energy": -2688.71483339, 
			 "HOMO_LUMO_gap": 0.2357, 
			 "cosmo_polarized_energy": -4.39, 
			 "cosmo_cavitation_energy": 14.92, 
			 "cosmo_dispersion_energy": -11.32, 
			 "cosmo_repulsion_energy": 1.03, 
			 "cosmo_total_nonelectrostatic_energy": 4.63, 
			 "SMD_solvation_energy": 2.26 
		},
		"coords": [
			{
				"x": 1.8927809326,
				"y": -2.5443213323,
				"z": 1.0118034329,
				"element": "Br" 
			},
			{
				"x": 0.4160696466,
				"y": -1.1994952591,
				"z": 0.8560878315,
				"element": "C" 
			},
			{
				"x": -0.1001541573,
				"y": -1.1292249545,
				"z": -0.5367697808,
				"element": "C" 
			},
			{
				"x": -0.0166262086,
				"y": -0.0372769952,
				"z": -1.2990780626,
				"element": "C" 
			},
			{
				"x": -0.3286224545,
				"y": -1.5542663235,
				"z": 1.568713435,
				"element": "H" 
			},
			{
				"x": 0.843797217,
				"y": -0.2575234492,
				"z": 1.196621786,
				"element": "H" 
			},
			{
				"x": -0.5770373714,
				"y": -2.0298272408,
				"z": -0.9182566314,
				"element": "H" 
			},
			{
				"x": 0.4648757733,
				"y": 0.8711436536,
				"z": -0.9453940059,
				"element": "H" 
			},
			{
				"x": -0.4284833777,
				"y": -0.013008099,
				"z": -2.3031280047,
				"element": "H" 
			}
		],
		 "valence_orbital": [ 
			{
				"type": "occ",
				"energy": -0.38093,
				"method": "rhf"
			},
			{
				"type": "occ",
				"energy": -0.3711,
				"method": "rhf"
			},
			{
				"type": "occ",
				"energy": -0.28124,
				"method": "rhf"
			},
			{
				"type": "occ",
				"energy": -0.26982,
				"method": "rhf"
			},
			{
				"type": "occ",
				"energy": -0.26483,
				"method": "rhf"
			},
			{
				"type": "unocc",
				"energy": -0.02913,
				"method": "rhf"
			},
			{
				"type": "unocc",
				"energy": 0.03595,
				"method": "rhf"
			},
			{
				"type": "unocc",
				"energy": 0.10901,
				"method": "rhf"
			},
			{
				"type": "unocc",
				"energy": 0.11548,
				"method": "rhf"
			},
			{
				"type": "unocc",
				"energy": 0.13893,
				"method": "rhf"
			}
		],
		"cosmo_sigma_profile": { 
			"-0.025": 0.0,
			"-0.024": 0.0,
			"-0.023": 0.0,
			"-0.022": 0.0,
			"-0.021": 0.0,
			"-0.02": 0.0,
			"-0.019": 0.0,
			"-0.018": 0.0,
			"-0.017": 0.0,
			"-0.016": 0.0,
			"-0.015": 0.0,
			"-0.014": 0.0,
			"-0.013": 0.0,
			"-0.012": 0.0,
			"-0.011": 0.0,
			"-0.01": 0.0,
			"-0.009": 0.0,
			"-0.008": 1.07179778826,
			"-0.007": 4.69571152159,
			"-0.006": 9.19927062085,
			"-0.005": 10.0491770842,
			"-0.004": 9.69085728761,
			"-0.003": 8.26985224596,
			"-0.002": 8.37237178503,
			"-0.001": 7.77704834108,
			"0.0": 6.97500434677,
			"0.001": 6.81847751524,
			"0.002": 7.21828065608,
			"0.003": 6.18979358655,
			"0.004": 7.76700606016,
			"0.005": 9.06410012082,
			"0.006": 12.383623722,
			"0.007": 6.13967350979,
			"0.008": 0.0,
			"0.009": 0.0,
			"0.01": 0.0,
			"0.011": 0.0,
			"0.012": 0.0,
			"0.013": 0.0,
			"0.014": 0.0,
			"0.015": 0.0,
			"0.016": 0.0,
			"0.017": 0.0,
			"0.018": 0.0,
			"0.019": 0.0,
			"0.02": 0.0,
			"0.021": 0.0,
			"0.022": 0.0,
			"0.023": 0.0,
			"0.024": 0.0,
			"0.025": 0.0
		}
	}
}
