{
	 "smiles": "[O-][N+](=O)C1=C(Cl)C=CC(=C1)C(=O)N1CCCCC1", 
	 "Tm": 348.15, 
	 "num_atms": 31, 
	 "gaussian": { 
		 "optdone": 1, 
		 "sigma_profile": "yes", 
		 "theory": "DFT", 
		 "functional": "B3LYP", 
		 "basiset": "6-31G**", 
		 "properties": { 
			 "R2extent": 6855.1815, 
			 "electric_dipole_moment_norm": 4.48095777039, 
			 "electric_quadrupole_moment_norm": 20.7860925063, 
			 "total_energy": -1260.382155, 
			 "HOMO_LUMO_gap": 0.15175, 
			 "cosmo_polarized_energy": -13.73, 
			 "cosmo_cavitation_energy": 35.85, 
			 "cosmo_dispersion_energy": -25.82, 
			 "cosmo_repulsion_energy": 2.0, 
			 "cosmo_total_nonelectrostatic_energy": 12.02, 
			 "SMD_solvation_energy": 7.22 
		},
		"coords": [
			{
				"x": 1.0108284411,
				"y": -2.054320733,
				"z": -4.3825132811,
				"element": "O" 
			},
			{
				"x": 1.0661691848,
				"y": -1.4480902516,
				"z": -3.3188155367,
				"element": "N" 
			},
			{
				"x": 1.6260861831,
				"y": -0.3634389227,
				"z": -3.1495419851,
				"element": "O" 
			},
			{
				"x": 0.3872645408,
				"y": -2.0288531332,
				"z": -2.1463829024,
				"element": "C" 
			},
			{
				"x": 0.2290077366,
				"y": -3.409166653,
				"z": -1.951922333,
				"element": "C" 
			},
			{
				"x": 0.9057969089,
				"y": -4.6212009465,
				"z": -3.0015125159,
				"element": "Cl" 
			},
			{
				"x": -0.4696214869,
				"y": -3.8472960757,
				"z": -0.8211217651,
				"element": "C" 
			},
			{
				"x": -1.0045458763,
				"y": -2.9355382248,
				"z": 0.080070782,
				"element": "C" 
			},
			{
				"x": -0.8130442183,
				"y": -1.5570224168,
				"z": -0.0915914056,
				"element": "C" 
			},
			{
				"x": -0.1162996372,
				"y": -1.1171481514,
				"z": -1.215620259,
				"element": "C" 
			},
			{
				"x": -1.4980254935,
				"y": -0.6326381662,
				"z": 0.8855401904,
				"element": "C" 
			},
			{
				"x": -2.6054297072,
				"y": -0.9492390532,
				"z": 1.3215188318,
				"element": "O" 
			},
			{
				"x": -0.8956700134,
				"y": 0.5455189013,
				"z": 1.2350388615,
				"element": "N" 
			},
			{
				"x": -1.6907932225,
				"y": 1.4438289587,
				"z": 2.095585325,
				"element": "C" 
			},
			{
				"x": -1.0507844868,
				"y": 2.830645887,
				"z": 2.1480705254,
				"element": "C" 
			},
			{
				"x": 0.374767339,
				"y": 2.7859944094,
				"z": 2.7409649765,
				"element": "C" 
			},
			{
				"x": 1.0814206999,
				"y": 1.4538805124,
				"z": 2.3985039668,
				"element": "C" 
			},
			{
				"x": 0.5416305155,
				"y": 0.8423070505,
				"z": 1.1000346389,
				"element": "C" 
			},
			{
				"x": -0.5905041356,
				"y": -4.9133069758,
				"z": -0.6653025669,
				"element": "H" 
			},
			{
				"x": -1.5849037859,
				"y": -3.2785331246,
				"z": 0.9296268334,
				"element": "H" 
			},
			{
				"x": 0.0359341253,
				"y": -0.0642591182,
				"z": -1.4143144409,
				"element": "H" 
			},
			{
				"x": -2.7043708728,
				"y": 1.4830087418,
				"z": 1.6905559294,
				"element": "H" 
			},
			{
				"x": -1.7780297195,
				"y": 1.0155535828,
				"z": 3.1041397807,
				"element": "H" 
			},
			{
				"x": -1.6925533041,
				"y": 3.497179673,
				"z": 2.7330342087,
				"element": "H" 
			},
			{
				"x": -1.0238568911,
				"y": 3.2420525721,
				"z": 1.1318627754,
				"element": "H" 
			},
			{
				"x": 0.9542282451,
				"y": 3.6333125647,
				"z": 2.3585291732,
				"element": "H" 
			},
			{
				"x": 0.3348265859,
				"y": 2.9046744878,
				"z": 3.8292511948,
				"element": "H" 
			},
			{
				"x": 2.1625916573,
				"y": 1.5981054016,
				"z": 2.3017490717,
				"element": "H" 
			},
			{
				"x": 0.9328709558,
				"y": 0.7268594429,
				"z": 3.2053338985,
				"element": "H" 
			},
			{
				"x": 0.7181939153,
				"y": 1.5335392418,
				"z": 0.2635810346,
				"element": "H" 
			},
			{
				"x": 1.0746158164,
				"y": -0.0816094808,
				"z": 0.8719469928,
				"element": "H" 
			}
		],
		 "valence_orbital": [ 
			{
				"type": "occ",
				"energy": -0.30124,
				"method": "rhf"
			},
			{
				"type": "occ",
				"energy": -0.28472,
				"method": "rhf"
			},
			{
				"type": "occ",
				"energy": -0.27587,
				"method": "rhf"
			},
			{
				"type": "occ",
				"energy": -0.25707,
				"method": "rhf"
			},
			{
				"type": "occ",
				"energy": -0.2457,
				"method": "rhf"
			},
			{
				"type": "unocc",
				"energy": -0.09395,
				"method": "rhf"
			},
			{
				"type": "unocc",
				"energy": -0.05483,
				"method": "rhf"
			},
			{
				"type": "unocc",
				"energy": -0.02201,
				"method": "rhf"
			},
			{
				"type": "unocc",
				"energy": 0.00928,
				"method": "rhf"
			},
			{
				"type": "unocc",
				"energy": 0.03722,
				"method": "rhf"
			}
		],
		"cosmo_sigma_profile": { 
			"-0.025": 0.0,
			"-0.024": 0.0,
			"-0.023": 0.0,
			"-0.022": 0.0,
			"-0.021": 0.0,
			"-0.02": 0.0,
			"-0.019": 0.0,
			"-0.018": 0.0,
			"-0.017": 0.0,
			"-0.016": 0.0,
			"-0.015": 0.0,
			"-0.014": 0.0,
			"-0.013": 0.0,
			"-0.012": 0.0,
			"-0.011": 0.0,
			"-0.01": 0.0,
			"-0.009": 0.903420633776,
			"-0.008": 4.64014928069,
			"-0.007": 7.67888935764,
			"-0.006": 7.33429119476,
			"-0.005": 10.3909498357,
			"-0.004": 23.2262862077,
			"-0.003": 39.5218199411,
			"-0.002": 42.2256630268,
			"-0.001": 31.1319890554,
			"0.0": 25.9963609118,
			"0.001": 14.7058539831,
			"0.002": 10.3118291813,
			"0.003": 10.1064437544,
			"0.004": 7.27060947161,
			"0.005": 4.97582044989,
			"0.006": 5.88534205367,
			"0.007": 12.1154733628,
			"0.008": 9.38897105955,
			"0.009": 4.78019578186,
			"0.01": 2.40425508825,
			"0.011": 1.14821900773,
			"0.012": 2.20733660367,
			"0.013": 3.65605472928,
			"0.014": 3.73456389519,
			"0.015": 0.076032836276,
			"0.016": 0.0,
			"0.017": 0.0,
			"0.018": 0.0,
			"0.019": 0.0,
			"0.02": 0.0,
			"0.021": 0.0,
			"0.022": 0.0,
			"0.023": 0.0,
			"0.024": 0.0,
			"0.025": 0.0
		}
	}
}
