{
	 "smiles": "OC(=O)C1=C(O)C=C(NC(=O)CCC2CCCCC2)C=C1", 
	 "Tm": 483.15, 
	 "num_atms": 42, 
	 "gaussian": { 
		 "optdone": 1, 
		 "sigma_profile": "yes", 
		 "theory": "DFT", 
		 "functional": "B3LYP", 
		 "basiset": "6-31G**", 
		 "properties": { 
			 "R2extent": 10075.9583, 
			 "electric_dipole_moment_norm": 2.71760779731, 
			 "electric_quadrupole_moment_norm": 24.7358534132, 
			 "total_energy": -978.075306492, 
			 "HOMO_LUMO_gap": 0.17397, 
			 "cosmo_polarized_energy": -15.76, 
			 "cosmo_cavitation_energy": 43.28, 
			 "cosmo_dispersion_energy": -30.56, 
			 "cosmo_repulsion_energy": 2.34, 
			 "cosmo_total_nonelectrostatic_energy": 15.06, 
			 "SMD_solvation_energy": 8.1 
		},
		"coords": [
			{
				"x": -5.0235352199,
				"y": -0.451631219,
				"z": -4.1821122078,
				"element": "O" 
			},
			{
				"x": -3.9247052446,
				"y": -0.8236573685,
				"z": -3.4948394653,
				"element": "C" 
			},
			{
				"x": -3.7322626842,
				"y": -2.0103786594,
				"z": -3.212295141,
				"element": "O" 
			},
			{
				"x": -3.0241697973,
				"y": 0.2657589991,
				"z": -3.1334839304,
				"element": "C" 
			},
			{
				"x": -1.8423857351,
				"y": -0.0359397164,
				"z": -2.4057876288,
				"element": "C" 
			},
			{
				"x": -1.5171929478,
				"y": -1.2856531154,
				"z": -2.0475917335,
				"element": "O" 
			},
			{
				"x": -0.9536533621,
				"y": 0.9906977098,
				"z": -2.0582010002,
				"element": "C" 
			},
			{
				"x": -1.23819478,
				"y": 2.3153461236,
				"z": -2.392232143,
				"element": "C" 
			},
			{
				"x": -0.38373277,
				"y": 3.3812574639,
				"z": -2.0784033307,
				"element": "N" 
			},
			{
				"x": 0.5014640974,
				"y": 3.6274975583,
				"z": -1.030871087,
				"element": "C" 
			},
			{
				"x": 1.196487418,
				"y": 4.6317437347,
				"z": -1.0845396483,
				"element": "O" 
			},
			{
				"x": 0.5491167723,
				"y": 2.6965222569,
				"z": 0.1682138467,
				"element": "C" 
			},
			{
				"x": 1.8941555412,
				"y": 1.9412069,
				"z": 0.23084457,
				"element": "C" 
			},
			{
				"x": 2.1282240729,
				"y": 1.0928544453,
				"z": 1.497314088,
				"element": "C" 
			},
			{
				"x": 2.1891487284,
				"y": 1.929747437,
				"z": 2.7901106149,
				"element": "C" 
			},
			{
				"x": 2.5226277399,
				"y": 1.0607402032,
				"z": 4.01361242,
				"element": "C" 
			},
			{
				"x": 1.5330717064,
				"y": -0.1049289647,
				"z": 4.1631194213,
				"element": "C" 
			},
			{
				"x": 1.4532574973,
				"y": -0.940076391,
				"z": 2.8762232223,
				"element": "C" 
			},
			{
				"x": 1.123168601,
				"y": -0.065196723,
				"z": 1.6560283518,
				"element": "C" 
			},
			{
				"x": -2.4091543198,
				"y": 2.6167423614,
				"z": -3.128401788,
				"element": "C" 
			},
			{
				"x": -3.2757092163,
				"y": 1.6054252214,
				"z": -3.4893626043,
				"element": "C" 
			},
			{
				"x": -5.5226643885,
				"y": -1.2673677069,
				"z": -4.352794084,
				"element": "H" 
			},
			{
				"x": -2.2360119867,
				"y": -1.8773100986,
				"z": -2.3803635962,
				"element": "H" 
			},
			{
				"x": -0.0348938261,
				"y": 0.7103361627,
				"z": -1.56134874,
				"element": "H" 
			},
			{
				"x": -0.4159576983,
				"y": 4.1740488388,
				"z": -2.709122668,
				"element": "H" 
			},
			{
				"x": -0.3008822182,
				"y": 2.0127032921,
				"z": 0.1904660221,
				"element": "H" 
			},
			{
				"x": 0.4670352107,
				"y": 3.3589205835,
				"z": 1.035576447,
				"element": "H" 
			},
			{
				"x": 2.692996525,
				"y": 2.6864639234,
				"z": 0.1415927946,
				"element": "H" 
			},
			{
				"x": 1.9845531679,
				"y": 1.2880226721,
				"z": -0.6482435014,
				"element": "H" 
			},
			{
				"x": 3.122444316,
				"y": 0.636371348,
				"z": 1.3676598887,
				"element": "H" 
			},
			{
				"x": 1.2202091182,
				"y": 2.4201434575,
				"z": 2.9598099574,
				"element": "H" 
			},
			{
				"x": 2.9293223408,
				"y": 2.7326733533,
				"z": 2.6811362215,
				"element": "H" 
			},
			{
				"x": 3.5401353563,
				"y": 0.6591751761,
				"z": 3.904002678,
				"element": "H" 
			},
			{
				"x": 2.5276914903,
				"y": 1.6751092501,
				"z": 4.9219959718,
				"element": "H" 
			},
			{
				"x": 1.8175912038,
				"y": -0.7391616395,
				"z": 5.0113415321,
				"element": "H" 
			},
			{
				"x": 0.5358727292,
				"y": 0.2963265213,
				"z": 4.3948643386,
				"element": "H" 
			},
			{
				"x": 2.4177810606,
				"y": -1.440757007,
				"z": 2.710031749,
				"element": "H" 
			},
			{
				"x": 0.7053709728,
				"y": -1.7348145469,
				"z": 2.9831779549,
				"element": "H" 
			},
			{
				"x": 0.1085203728,
				"y": 0.3402976242,
				"z": 1.7759234103,
				"element": "H" 
			},
			{
				"x": 1.1068082644,
				"y": -0.6780459999,
				"z": 0.7454381358,
				"element": "H" 
			},
			{
				"x": -2.6274719795,
				"y": 3.648007326,
				"z": -3.3876513146,
				"element": "H" 
			},
			{
				"x": -4.176276129,
				"y": 1.8350792128,
				"z": -4.0477380244,
				"element": "H" 
			}
		],
		 "valence_orbital": [ 
			{
				"type": "occ",
				"energy": -0.29443,
				"method": "rhf"
			},
			{
				"type": "occ",
				"energy": -0.29151,
				"method": "rhf"
			},
			{
				"type": "occ",
				"energy": -0.25753,
				"method": "rhf"
			},
			{
				"type": "occ",
				"energy": -0.24437,
				"method": "rhf"
			},
			{
				"type": "occ",
				"energy": -0.23224,
				"method": "rhf"
			},
			{
				"type": "unocc",
				"energy": -0.05827,
				"method": "rhf"
			},
			{
				"type": "unocc",
				"energy": -0.00703,
				"method": "rhf"
			},
			{
				"type": "unocc",
				"energy": 0.01068,
				"method": "rhf"
			},
			{
				"type": "unocc",
				"energy": 0.05413,
				"method": "rhf"
			},
			{
				"type": "unocc",
				"energy": 0.0665,
				"method": "rhf"
			}
		],
		"cosmo_sigma_profile": { 
			"-0.025": 0.0,
			"-0.024": 0.0,
			"-0.023": 0.0,
			"-0.022": 0.0,
			"-0.021": 0.0,
			"-0.02": 0.0,
			"-0.019": 0.129084539565,
			"-0.018": 0.901803672314,
			"-0.017": 1.13468878872,
			"-0.016": 0.561097922771,
			"-0.015": 0.942461281294,
			"-0.014": 2.28065994829,
			"-0.013": 1.52741200709,
			"-0.012": 1.67613788603,
			"-0.011": 1.56505718505,
			"-0.01": 2.46178735575,
			"-0.009": 1.38105493082,
			"-0.008": 2.15128944154,
			"-0.007": 5.34886783381,
			"-0.006": 6.28305469568,
			"-0.005": 9.00271164904,
			"-0.004": 12.3883010839,
			"-0.003": 22.1429190489,
			"-0.002": 40.6679608361,
			"-0.001": 51.1059884005,
			"0.0": 45.4847520908,
			"0.001": 40.1340915916,
			"0.002": 23.9911660566,
			"0.003": 12.438532654,
			"0.004": 7.02123639425,
			"0.005": 6.22449066725,
			"0.006": 4.87440151312,
			"0.007": 5.57590044996,
			"0.008": 4.60417894181,
			"0.009": 4.73889331066,
			"0.01": 4.31967391028,
			"0.011": 5.0567618778,
			"0.012": 2.71837728094,
			"0.013": 5.58967114363,
			"0.014": 2.02017637909,
			"0.015": 0.211632232035,
			"0.016": 0.0,
			"0.017": 0.0,
			"0.018": 0.0,
			"0.019": 0.0,
			"0.02": 0.0,
			"0.021": 0.0,
			"0.022": 0.0,
			"0.023": 0.0,
			"0.024": 0.0,
			"0.025": 0.0
		}
	}
}
