{
	 "smiles": "NS(=O)(=O)C1=C(Cl)C(Cl)=CC=C1", 
	 "Tm": 492.65, 
	 "num_atms": 17, 
	 "gaussian": { 
		 "optdone": 1, 
		 "sigma_profile": "yes", 
		 "theory": "DFT", 
		 "functional": "B3LYP", 
		 "basiset": "6-31G**", 
		 "properties": { 
			 "R2extent": 3374.3321, 
			 "electric_dipole_moment_norm": 5.30677021737, 
			 "electric_quadrupole_moment_norm": 13.8633491837, 
			 "total_energy": -1755.33761975, 
			 "HOMO_LUMO_gap": 0.21107, 
			 "cosmo_polarized_energy": -16.46, 
			 "cosmo_cavitation_energy": 26.06, 
			 "cosmo_dispersion_energy": -20.14, 
			 "cosmo_repulsion_energy": 1.55, 
			 "cosmo_total_nonelectrostatic_energy": 7.48, 
			 "SMD_solvation_energy": 3.72 
		},
		"coords": [
			{
				"x": 0.9840527972,
				"y": -2.8161587183,
				"z": -1.8419744881,
				"element": "N" 
			},
			{
				"x": 1.7659780548,
				"y": -2.0394995358,
				"z": -0.5582295778,
				"element": "S" 
			},
			{
				"x": 2.9775990012,
				"y": -1.425476893,
				"z": -1.1017296497,
				"element": "O" 
			},
			{
				"x": 1.8005117127,
				"y": -2.9842713008,
				"z": 0.5583062008,
				"element": "O" 
			},
			{
				"x": 0.6007318496,
				"y": -0.7150695215,
				"z": -0.140949246,
				"element": "C" 
			},
			{
				"x": 0.9043809485,
				"y": 0.1733717501,
				"z": 0.9082081345,
				"element": "C" 
			},
			{
				"x": 2.3774010681,
				"y": 0.0288889901,
				"z": 1.817147999,
				"element": "Cl" 
			},
			{
				"x": -0.0124422216,
				"y": 1.1914979717,
				"z": 1.2137458102,
				"element": "C" 
			},
			{
				"x": 0.2986333399,
				"y": 2.3278580514,
				"z": 2.5008968343,
				"element": "Cl" 
			},
			{
				"x": -1.2010688211,
				"y": 1.3201779182,
				"z": 0.4917814408,
				"element": "C" 
			},
			{
				"x": -1.4864265076,
				"y": 0.4350260012,
				"z": -0.5412288516,
				"element": "C" 
			},
			{
				"x": -0.5880845096,
				"y": -0.5823095833,
				"z": -0.8591171068,
				"element": "C" 
			},
			{
				"x": 1.5698685151,
				"y": -2.7562847511,
				"z": -2.6704818034,
				"element": "H" 
			},
			{
				"x": 0.7969600645,
				"y": -3.7803481676,
				"z": -1.5801908659,
				"element": "H" 
			},
			{
				"x": -1.8890644077,
				"y": 2.1167565544,
				"z": 0.7516287068,
				"element": "H" 
			},
			{
				"x": -2.410324176,
				"y": 0.5363279242,
				"z": -1.1011432057,
				"element": "H" 
			},
			{
				"x": -0.7944067081,
				"y": -1.2800866898,
				"z": -1.6601703313,
				"element": "H" 
			}
		],
		 "valence_orbital": [ 
			{
				"type": "occ",
				"energy": -0.31733,
				"method": "rhf"
			},
			{
				"type": "occ",
				"energy": -0.31539,
				"method": "rhf"
			},
			{
				"type": "occ",
				"energy": -0.29632,
				"method": "rhf"
			},
			{
				"type": "occ",
				"energy": -0.27544,
				"method": "rhf"
			},
			{
				"type": "occ",
				"energy": -0.26283,
				"method": "rhf"
			},
			{
				"type": "unocc",
				"energy": -0.05176,
				"method": "rhf"
			},
			{
				"type": "unocc",
				"energy": -0.03834,
				"method": "rhf"
			},
			{
				"type": "unocc",
				"energy": -0.01292,
				"method": "rhf"
			},
			{
				"type": "unocc",
				"energy": 0.04543,
				"method": "rhf"
			},
			{
				"type": "unocc",
				"energy": 0.05026,
				"method": "rhf"
			}
		],
		"cosmo_sigma_profile": { 
			"-0.025": 0.0,
			"-0.024": 0.0,
			"-0.023": 0.0,
			"-0.022": 0.0,
			"-0.021": 0.0,
			"-0.02": 0.0,
			"-0.019": 0.0,
			"-0.018": 0.0,
			"-0.017": 0.0,
			"-0.016": 0.275308745091,
			"-0.015": 2.14562246093,
			"-0.014": 2.02343923762,
			"-0.013": 3.14306200259,
			"-0.012": 2.45117138221,
			"-0.011": 1.72388139392,
			"-0.01": 1.9630571423,
			"-0.009": 2.77776232352,
			"-0.008": 5.90911454284,
			"-0.007": 8.39008275905,
			"-0.006": 6.98999347815,
			"-0.005": 5.73927145529,
			"-0.004": 7.8077136921,
			"-0.003": 9.25013051864,
			"-0.002": 13.0412659538,
			"-0.001": 20.8454318165,
			"0.0": 20.7226513741,
			"0.001": 17.7690980415,
			"0.002": 12.8151689696,
			"0.003": 17.3504800866,
			"0.004": 11.0561325949,
			"0.005": 3.70149682186,
			"0.006": 3.3772390429,
			"0.007": 4.18602492475,
			"0.008": 4.43093084235,
			"0.009": 3.65644259659,
			"0.01": 11.7096626034,
			"0.011": 7.79145254802,
			"0.012": 0.326218589883,
			"0.013": 0.0,
			"0.014": 0.0,
			"0.015": 0.0,
			"0.016": 0.0,
			"0.017": 0.0,
			"0.018": 0.0,
			"0.019": 0.0,
			"0.02": 0.0,
			"0.021": 0.0,
			"0.022": 0.0,
			"0.023": 0.0,
			"0.024": 0.0,
			"0.025": 0.0
		}
	}
}
