{
	 "smiles": "CC1=CC=C(C=C1)C1C2=C(OC(N)=C1C#N)N(N=C2C(F)(F)F)C1=CC=CC=C1", 
	 "Tm": 478.15, 
	 "num_atms": 44, 
	 "gaussian": { 
		 "optdone": 1, 
		 "sigma_profile": "yes", 
		 "theory": "DFT", 
		 "functional": "B3LYP", 
		 "basiset": "6-31G**", 
		 "properties": { 
			 "R2extent": 11795.8873, 
			 "electric_dipole_moment_norm": 5.44171153682, 
			 "electric_quadrupole_moment_norm": 30.5700932473, 
			 "total_energy": -1402.9837446, 
			 "HOMO_LUMO_gap": 0.18369, 
			 "cosmo_polarized_energy": -19.51, 
			 "cosmo_cavitation_energy": 50.68, 
			 "cosmo_dispersion_energy": -33.35, 
			 "cosmo_repulsion_energy": 2.48, 
			 "cosmo_total_nonelectrostatic_energy": 19.8, 
			 "SMD_solvation_energy": 10.22 
		},
		"coords": [
			{
				"x": 2.5378120111,
				"y": -1.1083911765,
				"z": 5.135901022,
				"element": "C" 
			},
			{
				"x": 1.4786868524,
				"y": -0.8648572472,
				"z": 4.0868870581,
				"element": "C" 
			},
			{
				"x": 1.495036475,
				"y": -1.5686728072,
				"z": 2.8728246767,
				"element": "C" 
			},
			{
				"x": 0.5336066266,
				"y": -1.3368795184,
				"z": 1.8939253745,
				"element": "C" 
			},
			{
				"x": -0.4803029005,
				"y": -0.3919505437,
				"z": 2.096765564,
				"element": "C" 
			},
			{
				"x": -0.5029742273,
				"y": 0.3107238006,
				"z": 3.303328679,
				"element": "C" 
			},
			{
				"x": 0.4626805151,
				"y": 0.0756395049,
				"z": 4.2839774096,
				"element": "C" 
			},
			{
				"x": -1.5374380782,
				"y": -0.1178346219,
				"z": 1.0225934192,
				"element": "C" 
			},
			{
				"x": -0.973928712,
				"y": 0.5539194511,
				"z": -0.2010325485,
				"element": "C" 
			},
			{
				"x": -0.9677299621,
				"y": -0.050417372,
				"z": -1.4311154925,
				"element": "C" 
			},
			{
				"x": -1.4780805172,
				"y": -1.2685615461,
				"z": -1.7549900477,
				"element": "O" 
			},
			{
				"x": -2.1480274067,
				"y": -1.8970931307,
				"z": -0.7295372549,
				"element": "C" 
			},
			{
				"x": -2.6453380213,
				"y": -3.0922236514,
				"z": -1.1686355024,
				"element": "N" 
			},
			{
				"x": -2.241193825,
				"y": -1.3904976241,
				"z": 0.5364219875,
				"element": "C" 
			},
			{
				"x": -3.037916685,
				"y": -2.1247935385,
				"z": 1.4541930552,
				"element": "C" 
			},
			{
				"x": -3.7132328711,
				"y": -2.7469631658,
				"z": 2.1743930353,
				"element": "N" 
			},
			{
				"x": -0.4044739727,
				"y": 0.7848528214,
				"z": -2.350691608,
				"element": "N" 
			},
			{
				"x": -0.0423277324,
				"y": 1.9515351665,
				"z": -1.7504959572,
				"element": "N" 
			},
			{
				"x": -0.3842512483,
				"y": 1.8122286503,
				"z": -0.4745491646,
				"element": "C" 
			},
			{
				"x": -0.0910860151,
				"y": 2.9082003058,
				"z": 0.5034944951,
				"element": "C" 
			},
			{
				"x": 0.0426326605,
				"y": 4.0999574567,
				"z": -0.0981957767,
				"element": "F" 
			},
			{
				"x": -1.098308446,
				"y": 3.0072989932,
				"z": 1.4084641643,
				"element": "F" 
			},
			{
				"x": 1.0389986036,
				"y": 2.6698255054,
				"z": 1.2006742051,
				"element": "F" 
			},
			{
				"x": -0.213805145,
				"y": 0.6114190293,
				"z": -3.752549436,
				"element": "C" 
			},
			{
				"x": -0.2157229933,
				"y": 1.7439746452,
				"z": -4.5733625747,
				"element": "C" 
			},
			{
				"x": -0.0186473665,
				"y": 1.5927062809,
				"z": -5.9438956712,
				"element": "C" 
			},
			{
				"x": 0.1689268877,
				"y": 0.3243406214,
				"z": -6.4983593727,
				"element": "C" 
			},
			{
				"x": 0.1711685998,
				"y": -0.7975304916,
				"z": -5.6688275602,
				"element": "C" 
			},
			{
				"x": -0.0107708756,
				"y": -0.6627434895,
				"z": -4.2922081597,
				"element": "C" 
			},
			{
				"x": 2.2449279414,
				"y": -0.692207114,
				"z": 6.1038417999,
				"element": "H" 
			},
			{
				"x": 2.7282939819,
				"y": -2.1781980747,
				"z": 5.2717808881,
				"element": "H" 
			},
			{
				"x": 3.4908199247,
				"y": -0.6446004707,
				"z": 4.852600876,
				"element": "H" 
			},
			{
				"x": 2.2699512363,
				"y": -2.3109542432,
				"z": 2.6959879162,
				"element": "H" 
			},
			{
				"x": 0.5655530048,
				"y": -1.9030371589,
				"z": 0.9665362119,
				"element": "H" 
			},
			{
				"x": -1.2785728359,
				"y": 1.0509770674,
				"z": 3.479791923,
				"element": "H" 
			},
			{
				"x": 0.4217661606,
				"y": 0.6317580291,
				"z": 5.2171867416,
				"element": "H" 
			},
			{
				"x": -2.2911121411,
				"y": 0.5391396299,
				"z": 1.4733180226,
				"element": "H" 
			},
			{
				"x": -2.9021506683,
				"y": -3.131434305,
				"z": -2.1452799499,
				"element": "H" 
			},
			{
				"x": -3.2716051353,
				"y": -3.5689013341,
				"z": -0.5342191836,
				"element": "H" 
			},
			{
				"x": -0.3613013545,
				"y": 2.720036347,
				"z": -4.1268739333,
				"element": "H" 
			},
			{
				"x": -0.0180060042,
				"y": 2.4719775482,
				"z": -6.5809497822,
				"element": "H" 
			},
			{
				"x": 0.3169427103,
				"y": 0.2122795821,
				"z": -7.5680169631,
				"element": "H" 
			},
			{
				"x": 0.329192471,
				"y": -1.7863993157,
				"z": -6.088692628,
				"element": "H" 
			},
			{
				"x": 0.0148084778,
				"y": -1.5335484956,
				"z": -3.6488099578,
				"element": "H" 
			}
		],
		 "valence_orbital": [ 
			{
				"type": "occ",
				"energy": -0.25881,
				"method": "rhf"
			},
			{
				"type": "occ",
				"energy": -0.24799,
				"method": "rhf"
			},
			{
				"type": "occ",
				"energy": -0.24582,
				"method": "rhf"
			},
			{
				"type": "occ",
				"energy": -0.23492,
				"method": "rhf"
			},
			{
				"type": "occ",
				"energy": -0.22649,
				"method": "rhf"
			},
			{
				"type": "unocc",
				"energy": -0.0428,
				"method": "rhf"
			},
			{
				"type": "unocc",
				"energy": -0.02215,
				"method": "rhf"
			},
			{
				"type": "unocc",
				"energy": -0.01862,
				"method": "rhf"
			},
			{
				"type": "unocc",
				"energy": -0.00055,
				"method": "rhf"
			},
			{
				"type": "unocc",
				"energy": 0.00322,
				"method": "rhf"
			}
		],
		"cosmo_sigma_profile": { 
			"-0.025": 0.0,
			"-0.024": 0.0,
			"-0.023": 0.0,
			"-0.022": 0.0,
			"-0.021": 0.0,
			"-0.02": 0.0,
			"-0.019": 0.0,
			"-0.018": 0.0,
			"-0.017": 0.0,
			"-0.016": 0.226307006745,
			"-0.015": 1.26267392498,
			"-0.014": 2.04683850397,
			"-0.013": 2.11069182259,
			"-0.012": 2.52586753976,
			"-0.011": 1.94426413533,
			"-0.01": 1.95661448235,
			"-0.009": 1.81476623264,
			"-0.008": 2.22070856028,
			"-0.007": 4.76051615324,
			"-0.006": 16.4322149785,
			"-0.005": 25.6156605165,
			"-0.004": 32.1527799158,
			"-0.003": 29.4395494725,
			"-0.002": 28.8584261856,
			"-0.001": 30.7499386914,
			"0.0": 33.9149584885,
			"0.001": 28.7937881529,
			"0.002": 39.0220002501,
			"0.003": 40.5081510415,
			"0.004": 27.0614201644,
			"0.005": 17.2768094168,
			"0.006": 8.27332353314,
			"0.007": 4.444441158,
			"0.008": 4.362932685,
			"0.009": 4.24252012166,
			"0.01": 4.68922312959,
			"0.011": 3.85498914769,
			"0.012": 2.84504605845,
			"0.013": 2.45226460322,
			"0.014": 1.25079541282,
			"0.015": 0.00128032310096,
			"0.016": 0.0,
			"0.017": 0.0,
			"0.018": 0.0,
			"0.019": 0.0,
			"0.02": 0.0,
			"0.021": 0.0,
			"0.022": 0.0,
			"0.023": 0.0,
			"0.024": 0.0,
			"0.025": 0.0
		}
	}
}
