{
	 "smiles": "CC(O)(C(O)=O)C1=CC=CC=C1", 
	 "Tm": 389.15, 
	 "num_atms": 22, 
	 "gaussian": { 
		 "optdone": 1, 
		 "sigma_profile": "yes", 
		 "theory": "DFT", 
		 "functional": "B3LYP", 
		 "basiset": "6-31G**", 
		 "properties": { 
			 "R2extent": 2131.9469, 
			 "electric_dipole_moment_norm": 3.58222216089, 
			 "electric_quadrupole_moment_norm": 12.9194897705, 
			 "total_energy": -574.66323057, 
			 "HOMO_LUMO_gap": 0.22685, 
			 "cosmo_polarized_energy": -12.12, 
			 "cosmo_cavitation_energy": 25.1, 
			 "cosmo_dispersion_energy": -18.29, 
			 "cosmo_repulsion_energy": 1.45, 
			 "cosmo_total_nonelectrostatic_energy": 8.26, 
			 "SMD_solvation_energy": 5.48 
		},
		"coords": [
			{
				"x": 0.7279525328,
				"y": 1.904649075,
				"z": -0.3924452017,
				"element": "C" 
			},
			{
				"x": 1.1361320876,
				"y": 0.4245317724,
				"z": -0.5692887575,
				"element": "C" 
			},
			{
				"x": 1.6551268261,
				"y": 0.2400289015,
				"z": -1.8700370902,
				"element": "O" 
			},
			{
				"x": 2.2998750448,
				"y": 0.1441924567,
				"z": 0.4239163544,
				"element": "C" 
			},
			{
				"x": 1.9870671934,
				"y": -0.0908474269,
				"z": 1.707095273,
				"element": "O" 
			},
			{
				"x": 3.4517753414,
				"y": 0.1969669843,
				"z": 0.0525426526,
				"element": "O" 
			},
			{
				"x": -0.0126080081,
				"y": -0.5599942765,
				"z": -0.3351021068,
				"element": "C" 
			},
			{
				"x": -0.0130737739,
				"y": -1.7855934316,
				"z": -1.0166373819,
				"element": "C" 
			},
			{
				"x": -1.0101966465,
				"y": -2.72925743,
				"z": -0.7781949928,
				"element": "C" 
			},
			{
				"x": -2.0231297723,
				"y": -2.4700403137,
				"z": 0.1491087444,
				"element": "C" 
			},
			{
				"x": -2.0360693767,
				"y": -1.2537441429,
				"z": 0.829237477,
				"element": "C" 
			},
			{
				"x": -1.0399656916,
				"y": -0.3022679984,
				"z": 0.5867608542,
				"element": "C" 
			},
			{
				"x": 1.5868351438,
				"y": 2.5346544836,
				"z": -0.6371483208,
				"element": "H" 
			},
			{
				"x": -0.0856032741,
				"y": 2.1378320335,
				"z": -1.0835037702,
				"element": "H" 
			},
			{
				"x": 0.4115014727,
				"y": 2.1447615595,
				"z": 0.6265070555,
				"element": "H" 
			},
			{
				"x": 2.6221566012,
				"y": 0.2984768546,
				"z": -1.7656709422,
				"element": "H" 
			},
			{
				"x": 1.0303357132,
				"y": -0.2483535155,
				"z": 1.7826596941,
				"element": "H" 
			},
			{
				"x": 0.7677989103,
				"y": -1.9740659196,
				"z": -1.7440824928,
				"element": "H" 
			},
			{
				"x": -0.997461389,
				"y": -3.6711835242,
				"z": -1.3191505771,
				"element": "H" 
			},
			{
				"x": -2.7986146916,
				"y": -3.2076151285,
				"z": 0.3332715463,
				"element": "H" 
			},
			{
				"x": -2.8258387075,
				"y": -1.0335532575,
				"z": 1.5416562139,
				"element": "H" 
			},
			{
				"x": -1.0938955358,
				"y": 0.653422244,
				"z": 1.1005057686,
				"element": "H" 
			}
		],
		 "valence_orbital": [ 
			{
				"type": "occ",
				"energy": -0.32828,
				"method": "rhf"
			},
			{
				"type": "occ",
				"energy": -0.29618,
				"method": "rhf"
			},
			{
				"type": "occ",
				"energy": -0.28433,
				"method": "rhf"
			},
			{
				"type": "occ",
				"energy": -0.26621,
				"method": "rhf"
			},
			{
				"type": "occ",
				"energy": -0.25314,
				"method": "rhf"
			},
			{
				"type": "unocc",
				"energy": -0.02629,
				"method": "rhf"
			},
			{
				"type": "unocc",
				"energy": -0.0193,
				"method": "rhf"
			},
			{
				"type": "unocc",
				"energy": 0.0039,
				"method": "rhf"
			},
			{
				"type": "unocc",
				"energy": 0.06937,
				"method": "rhf"
			},
			{
				"type": "unocc",
				"energy": 0.09133,
				"method": "rhf"
			}
		],
		"cosmo_sigma_profile": { 
			"-0.025": 0.0,
			"-0.024": 0.0,
			"-0.023": 0.0,
			"-0.022": 0.0,
			"-0.021": 0.0,
			"-0.02": 0.0,
			"-0.019": 0.0,
			"-0.018": 0.0,
			"-0.017": 0.0,
			"-0.016": 0.00316392761946,
			"-0.015": 0.134137133962,
			"-0.014": 1.09014621783,
			"-0.013": 1.05977238058,
			"-0.012": 1.32785577104,
			"-0.011": 1.46683694581,
			"-0.01": 2.15333408448,
			"-0.009": 2.21282895493,
			"-0.008": 2.47260778608,
			"-0.007": 3.04558657838,
			"-0.006": 9.65153719637,
			"-0.005": 14.6363510204,
			"-0.004": 18.5932282747,
			"-0.003": 17.1739723375,
			"-0.002": 15.0993132247,
			"-0.001": 14.3944756304,
			"0.0": 12.2012023578,
			"0.001": 8.69592372071,
			"0.002": 9.56123614099,
			"0.003": 10.1224175787,
			"0.004": 12.619591132,
			"0.005": 9.20731300203,
			"0.006": 4.08740092497,
			"0.007": 3.93415700434,
			"0.008": 4.98464061137,
			"0.009": 6.15051710379,
			"0.01": 4.42084899833,
			"0.011": 4.54615844521,
			"0.012": 2.51556497885,
			"0.013": 1.15761010616,
			"0.014": 0.296414612915,
			"0.015": 0.0,
			"0.016": 0.0,
			"0.017": 0.0,
			"0.018": 0.0,
			"0.019": 0.0,
			"0.02": 0.0,
			"0.021": 0.0,
			"0.022": 0.0,
			"0.023": 0.0,
			"0.024": 0.0,
			"0.025": 0.0
		}
	}
}
