{
	 "smiles": "CC1=C(NC(=O)NC2=CC=CC=C2)C=C(C=C1)C(O)=O", 
	 "Tm": 583.15, 
	 "num_atms": 34, 
	 "gaussian": { 
		 "optdone": 1, 
		 "sigma_profile": "yes", 
		 "theory": "DFT", 
		 "functional": "B3LYP", 
		 "basiset": "6-31G**", 
		 "properties": { 
			 "R2extent": 8575.3446, 
			 "electric_dipole_moment_norm": 5.71665880826, 
			 "electric_quadrupole_moment_norm": 20.5162209953, 
			 "total_energy": -915.250748325, 
			 "HOMO_LUMO_gap": 0.1561, 
			 "cosmo_polarized_energy": -24.29, 
			 "cosmo_cavitation_energy": 38.73, 
			 "cosmo_dispersion_energy": -27.18, 
			 "cosmo_repulsion_energy": 2.08, 
			 "cosmo_total_nonelectrostatic_energy": 13.63, 
			 "SMD_solvation_energy": 8.74 
		},
		"coords": [
			{
				"x": 1.3638041086,
				"y": -0.5060279819,
				"z": -0.1584763664,
				"element": "C" 
			},
			{
				"x": 0.315444966,
				"y": 0.4321510042,
				"z": 0.3827245693,
				"element": "C" 
			},
			{
				"x": -0.5861055826,
				"y": 1.1100640441,
				"z": -0.473675132,
				"element": "C" 
			},
			{
				"x": -0.530251445,
				"y": 0.9103373341,
				"z": -1.8799521139,
				"element": "N" 
			},
			{
				"x": -0.931608624,
				"y": -0.2157998542,
				"z": -2.6083647216,
				"element": "C" 
			},
			{
				"x": -0.8583577385,
				"y": -0.2182488686,
				"z": -3.8288309388,
				"element": "O" 
			},
			{
				"x": -1.3897807278,
				"y": -1.2605175625,
				"z": -1.8327061271,
				"element": "N" 
			},
			{
				"x": -1.8175596051,
				"y": -2.536636074,
				"z": -2.2591359371,
				"element": "C" 
			},
			{
				"x": -1.7328456043,
				"y": -2.9790258147,
				"z": -3.5881214882,
				"element": "C" 
			},
			{
				"x": -2.1670073452,
				"y": -4.2658427148,
				"z": -3.9078180791,
				"element": "C" 
			},
			{
				"x": -2.6841158894,
				"y": -5.1216815068,
				"z": -2.9344829736,
				"element": "C" 
			},
			{
				"x": -2.767468611,
				"y": -4.6758133631,
				"z": -1.6142734168,
				"element": "C" 
			},
			{
				"x": -2.3379281347,
				"y": -3.3951617575,
				"z": -1.2771704559,
				"element": "C" 
			},
			{
				"x": -1.5009627782,
				"y": 2.0265715068,
				"z": 0.0512977153,
				"element": "C" 
			},
			{
				"x": -1.5466358992,
				"y": 2.2973322402,
				"z": 1.4223905864,
				"element": "C" 
			},
			{
				"x": -0.6890029232,
				"y": 1.595853412,
				"z": 2.279438922,
				"element": "C" 
			},
			{
				"x": 0.2209044557,
				"y": 0.6789443239,
				"z": 1.758740724,
				"element": "C" 
			},
			{
				"x": -2.5588296233,
				"y": 3.2971825826,
				"z": 1.8974533879,
				"element": "C" 
			},
			{
				"x": -2.3574085398,
				"y": 3.8343758558,
				"z": 3.1298996777,
				"element": "O" 
			},
			{
				"x": -3.5170320042,
				"y": 3.6308980754,
				"z": 1.2413322655,
				"element": "O" 
			},
			{
				"x": 1.8157158287,
				"y": -0.0966703778,
				"z": -1.0666276659,
				"element": "H" 
			},
			{
				"x": 0.9407343278,
				"y": -1.4793260755,
				"z": -0.431097034,
				"element": "H" 
			},
			{
				"x": 2.1491005344,
				"y": -0.6774510544,
				"z": 0.5816687911,
				"element": "H" 
			},
			{
				"x": -0.490748183,
				"y": 1.7297921214,
				"z": -2.4709130164,
				"element": "H" 
			},
			{
				"x": -1.5394185872,
				"y": -1.0620252158,
				"z": -0.8533377903,
				"element": "H" 
			},
			{
				"x": -1.3414784383,
				"y": -2.3143980858,
				"z": -4.344954667,
				"element": "H" 
			},
			{
				"x": -2.0986703625,
				"y": -4.5983009086,
				"z": -4.9399125138,
				"element": "H" 
			},
			{
				"x": -3.0192217217,
				"y": -6.1196359884,
				"z": -3.1997766349,
				"element": "H" 
			},
			{
				"x": -3.1686346527,
				"y": -5.3239932825,
				"z": -0.8403942442,
				"element": "H" 
			},
			{
				"x": -2.4076097674,
				"y": -3.0547001525,
				"z": -0.2459759959,
				"element": "H" 
			},
			{
				"x": -2.1957085794,
				"y": 2.5420252484,
				"z": -0.60391982,
				"element": "H" 
			},
			{
				"x": -0.7377582052,
				"y": 1.7313345268,
				"z": 3.3571335366,
				"element": "H" 
			},
			{
				"x": 0.8919378069,
				"y": 0.1530074697,
				"z": 2.4321298511,
				"element": "H" 
			},
			{
				"x": -1.4776924551,
				"y": 3.6031868939,
				"z": 3.4583071061,
				"element": "H" 
			}
		],
		 "valence_orbital": [ 
			{
				"type": "occ",
				"energy": -0.27238,
				"method": "rhf"
			},
			{
				"type": "occ",
				"energy": -0.26816,
				"method": "rhf"
			},
			{
				"type": "occ",
				"energy": -0.25451,
				"method": "rhf"
			},
			{
				"type": "occ",
				"energy": -0.24904,
				"method": "rhf"
			},
			{
				"type": "occ",
				"energy": -0.21791,
				"method": "rhf"
			},
			{
				"type": "unocc",
				"energy": -0.06181,
				"method": "rhf"
			},
			{
				"type": "unocc",
				"energy": -0.03981,
				"method": "rhf"
			},
			{
				"type": "unocc",
				"energy": -0.00017,
				"method": "rhf"
			},
			{
				"type": "unocc",
				"energy": 0.0004,
				"method": "rhf"
			},
			{
				"type": "unocc",
				"energy": 0.03394,
				"method": "rhf"
			}
		],
		"cosmo_sigma_profile": { 
			"-0.025": 0.0,
			"-0.024": 0.0,
			"-0.023": 0.0,
			"-0.022": 0.0,
			"-0.021": 0.0,
			"-0.02": 0.0,
			"-0.019": 0.234818003883,
			"-0.018": 1.13311984836,
			"-0.017": 0.865757830006,
			"-0.016": 1.07507628611,
			"-0.015": 0.915788237179,
			"-0.014": 1.57105990156,
			"-0.013": 3.28866557915,
			"-0.012": 3.14716404564,
			"-0.011": 3.36309767087,
			"-0.01": 3.51062633216,
			"-0.009": 3.72701917107,
			"-0.008": 4.84480332321,
			"-0.007": 6.35851791945,
			"-0.006": 12.7965977893,
			"-0.005": 17.486442712,
			"-0.004": 20.4730855006,
			"-0.003": 21.9889534328,
			"-0.002": 21.3338740531,
			"-0.001": 24.7828045187,
			"0.0": 19.5032114497,
			"0.001": 19.3377572511,
			"0.002": 20.7057318976,
			"0.003": 16.4539169117,
			"0.004": 13.3107489132,
			"0.005": 13.3318394756,
			"0.006": 12.0758446098,
			"0.007": 4.94786631969,
			"0.008": 4.79281484026,
			"0.009": 4.91899470306,
			"0.01": 5.81587683444,
			"0.011": 7.24072003264,
			"0.012": 6.69129774721,
			"0.013": 5.05145350144,
			"0.014": 2.30217298711,
			"0.015": 0.0235824743663,
			"0.016": 0.0,
			"0.017": 0.0,
			"0.018": 0.0,
			"0.019": 0.0,
			"0.02": 0.0,
			"0.021": 0.0,
			"0.022": 0.0,
			"0.023": 0.0,
			"0.024": 0.0,
			"0.025": 0.0
		}
	}
}
