{
	 "smiles": "OC(=O)C1=CC(=CC=C1)S(F)(=O)=O", 
	 "Tm": 426.15, 
	 "num_atms": 18, 
	 "gaussian": { 
		 "optdone": 1, 
		 "sigma_profile": "yes", 
		 "theory": "DFT", 
		 "functional": "B3LYP", 
		 "basiset": "6-31G**", 
		 "properties": { 
			 "R2extent": 3123.0664, 
			 "electric_dipole_moment_norm": 6.6840687115, 
			 "electric_quadrupole_moment_norm": 20.0266617465, 
			 "total_energy": -1068.61827753, 
			 "HOMO_LUMO_gap": 0.20513, 
			 "cosmo_polarized_energy": -19.66, 
			 "cosmo_cavitation_energy": 25.39, 
			 "cosmo_dispersion_energy": -19.13, 
			 "cosmo_repulsion_energy": 1.44, 
			 "cosmo_total_nonelectrostatic_energy": 7.7, 
			 "SMD_solvation_energy": 5.09 
		},
		"coords": [
			{
				"x": -2.615997163,
				"y": -3.6615630822,
				"z": -1.64365833,
				"element": "O" 
			},
			{
				"x": -2.099597141,
				"y": -2.9613885312,
				"z": -0.6021817024,
				"element": "C" 
			},
			{
				"x": -2.0181132011,
				"y": -3.4629888482,
				"z": 0.4919554305,
				"element": "O" 
			},
			{
				"x": -1.6500919506,
				"y": -1.5538716996,
				"z": -0.8857028702,
				"element": "C" 
			},
			{
				"x": -0.7453897425,
				"y": -0.9784453024,
				"z": 0.0144197469,
				"element": "C" 
			},
			{
				"x": -0.3145880941,
				"y": 0.3253388794,
				"z": -0.2091248571,
				"element": "C" 
			},
			{
				"x": -0.7800351371,
				"y": 1.0902240364,
				"z": -1.2826271161,
				"element": "C" 
			},
			{
				"x": -1.7009119407,
				"y": 0.5186901137,
				"z": -2.1579976867,
				"element": "C" 
			},
			{
				"x": -2.1293712222,
				"y": -0.7955864536,
				"z": -1.9628297493,
				"element": "C" 
			},
			{
				"x": 0.8576037714,
				"y": 1.0537287114,
				"z": 0.9179164421,
				"element": "S" 
			},
			{
				"x": 2.2312066614,
				"y": 0.6044684624,
				"z": 0.1815573776,
				"element": "F" 
			},
			{
				"x": 0.8061249507,
				"y": 2.4996004201,
				"z": 0.8128195213,
				"element": "O" 
			},
			{
				"x": 0.8359744323,
				"y": 0.3528755896,
				"z": 2.1860710584,
				"element": "O" 
			},
			{
				"x": -2.4527669776,
				"y": -3.2054517279,
				"z": -2.4806342458,
				"element": "H" 
			},
			{
				"x": -0.4045901429,
				"y": -1.5495007932,
				"z": 0.8707540427,
				"element": "H" 
			},
			{
				"x": -0.4380664745,
				"y": 2.1111445388,
				"z": -1.4104311578,
				"element": "H" 
			},
			{
				"x": -2.092398503,
				"y": 1.1000926626,
				"z": -2.9862333125,
				"element": "H" 
			},
			{
				"x": -2.8739921255,
				"y": -1.2081669763,
				"z": -2.6387725916,
				"element": "H" 
			}
		],
		 "valence_orbital": [ 
			{
				"type": "occ",
				"energy": -0.33888,
				"method": "rhf"
			},
			{
				"type": "occ",
				"energy": -0.33496,
				"method": "rhf"
			},
			{
				"type": "occ",
				"energy": -0.31164,
				"method": "rhf"
			},
			{
				"type": "occ",
				"energy": -0.30645,
				"method": "rhf"
			},
			{
				"type": "occ",
				"energy": -0.29216,
				"method": "rhf"
			},
			{
				"type": "unocc",
				"energy": -0.08703,
				"method": "rhf"
			},
			{
				"type": "unocc",
				"energy": -0.07025,
				"method": "rhf"
			},
			{
				"type": "unocc",
				"energy": 0.00347,
				"method": "rhf"
			},
			{
				"type": "unocc",
				"energy": 0.01702,
				"method": "rhf"
			},
			{
				"type": "unocc",
				"energy": 0.04059,
				"method": "rhf"
			}
		],
		"cosmo_sigma_profile": { 
			"-0.025": 0.0,
			"-0.024": 0.0,
			"-0.023": 0.0,
			"-0.022": 0.0,
			"-0.021": 0.0,
			"-0.02": 0.183992124189,
			"-0.019": 1.14357844108,
			"-0.018": 0.703943531147,
			"-0.017": 1.53249092042,
			"-0.016": 0.979910198658,
			"-0.015": 0.836807256084,
			"-0.014": 0.63155534568,
			"-0.013": 1.73018105334,
			"-0.012": 1.21944824072,
			"-0.011": 1.29104676151,
			"-0.01": 1.53473169033,
			"-0.009": 4.09488760524,
			"-0.008": 7.64205011805,
			"-0.007": 8.13457341452,
			"-0.006": 9.02705616519,
			"-0.005": 8.55424487051,
			"-0.004": 9.84159942331,
			"-0.003": 9.40403611643,
			"-0.002": 13.925107103,
			"-0.001": 16.967798929,
			"0.0": 14.9917935099,
			"0.001": 8.60261740609,
			"0.002": 13.8705051321,
			"0.003": 9.40574313007,
			"0.004": 5.06461811649,
			"0.005": 4.4099772405,
			"0.006": 5.732112854,
			"0.007": 7.57401072281,
			"0.008": 13.3983923357,
			"0.009": 9.6883169237,
			"0.01": 5.19972723728,
			"0.011": 4.97979006474,
			"0.012": 2.36555386067,
			"0.013": 0.285183227523,
			"0.014": 0.0,
			"0.015": 0.0,
			"0.016": 0.0,
			"0.017": 0.0,
			"0.018": 0.0,
			"0.019": 0.0,
			"0.02": 0.0,
			"0.021": 0.0,
			"0.022": 0.0,
			"0.023": 0.0,
			"0.024": 0.0,
			"0.025": 0.0
		}
	}
}
