{
	 "smiles": "COC1=CC=CC(F)=C1CBr", 
	 "Tm": 292.65, 
	 "num_atms": 19, 
	 "gaussian": { 
		 "optdone": 1, 
		 "sigma_profile": "yes", 
		 "theory": "DFT", 
		 "functional": "B3LYP", 
		 "basiset": "6-31G**", 
		 "properties": { 
			 "R2extent": 5010.0447, 
			 "electric_dipole_moment_norm": 4.14779544578, 
			 "electric_quadrupole_moment_norm": 12.4055748746, 
			 "total_energy": -3056.12899486, 
			 "HOMO_LUMO_gap": 0.1956, 
			 "cosmo_polarized_energy": -7.77, 
			 "cosmo_cavitation_energy": 25.46, 
			 "cosmo_dispersion_energy": -18.59, 
			 "cosmo_repulsion_energy": 1.49, 
			 "cosmo_total_nonelectrostatic_energy": 8.36, 
			 "SMD_solvation_energy": 4.41 
		},
		"coords": [
			{
				"x": 0.3565097782,
				"y": -1.0227334644,
				"z": 1.9657432486,
				"element": "C" 
			},
			{
				"x": 0.0638943452,
				"y": 0.3519056139,
				"z": 1.7565766554,
				"element": "O" 
			},
			{
				"x": -0.5730619665,
				"y": 0.7178054218,
				"z": 0.6128394026,
				"element": "C" 
			},
			{
				"x": -0.9406607799,
				"y": -0.1695866103,
				"z": -0.4049283577,
				"element": "C" 
			},
			{
				"x": -1.5921508417,
				"y": 0.3161781983,
				"z": -1.5416903004,
				"element": "C" 
			},
			{
				"x": -1.8799671447,
				"y": 1.6707677413,
				"z": -1.6855358621,
				"element": "C" 
			},
			{
				"x": -1.5030889638,
				"y": 2.5262980148,
				"z": -0.6569553638,
				"element": "C" 
			},
			{
				"x": -1.7732394541,
				"y": 3.8431369978,
				"z": -0.7823725487,
				"element": "F" 
			},
			{
				"x": -0.8482470148,
				"y": 2.0998874352,
				"z": 0.4981473483,
				"element": "C" 
			},
			{
				"x": -0.4629395468,
				"y": 3.061438252,
				"z": 1.5624776764,
				"element": "C" 
			},
			{
				"x": -1.8475988773,
				"y": 3.1847006096,
				"z": 3.0190973254,
				"element": "Br" 
			},
			{
				"x": 1.0348399916,
				"y": -1.4118371278,
				"z": 1.1962366837,
				"element": "H" 
			},
			{
				"x": -0.5576711901,
				"y": -1.6281384533,
				"z": 1.9833289734,
				"element": "H" 
			},
			{
				"x": 0.8446418352,
				"y": -1.0789742026,
				"z": 2.939346261,
				"element": "H" 
			},
			{
				"x": -0.7295556163,
				"y": -1.2280198124,
				"z": -0.3202691977,
				"element": "H" 
			},
			{
				"x": -1.8763764009,
				"y": -0.3779758255,
				"z": -2.3266868394,
				"element": "H" 
			},
			{
				"x": -2.3827222353,
				"y": 2.0685317117,
				"z": -2.559121522,
				"element": "H" 
			},
			{
				"x": 0.4384926268,
				"y": 2.7582895237,
				"z": 2.0867925992,
				"element": "H" 
			},
			{
				"x": -0.3828985447,
				"y": 4.0773259761,
				"z": 1.1870738178,
				"element": "H" 
			}
		],
		 "valence_orbital": [ 
			{
				"type": "occ",
				"energy": -0.32782,
				"method": "rhf"
			},
			{
				"type": "occ",
				"energy": -0.26566,
				"method": "rhf"
			},
			{
				"type": "occ",
				"energy": -0.25974,
				"method": "rhf"
			},
			{
				"type": "occ",
				"energy": -0.24751,
				"method": "rhf"
			},
			{
				"type": "occ",
				"energy": -0.23186,
				"method": "rhf"
			},
			{
				"type": "unocc",
				"energy": -0.03626,
				"method": "rhf"
			},
			{
				"type": "unocc",
				"energy": 0.00445,
				"method": "rhf"
			},
			{
				"type": "unocc",
				"energy": 0.02966,
				"method": "rhf"
			},
			{
				"type": "unocc",
				"energy": 0.07854,
				"method": "rhf"
			},
			{
				"type": "unocc",
				"energy": 0.09494,
				"method": "rhf"
			}
		],
		"cosmo_sigma_profile": { 
			"-0.025": 0.0,
			"-0.024": 0.0,
			"-0.023": 0.0,
			"-0.022": 0.0,
			"-0.021": 0.0,
			"-0.02": 0.0,
			"-0.019": 0.0,
			"-0.018": 0.0,
			"-0.017": 0.0,
			"-0.016": 0.0,
			"-0.015": 0.0,
			"-0.014": 0.0,
			"-0.013": 0.0,
			"-0.012": 0.0,
			"-0.011": 0.0,
			"-0.01": 0.0,
			"-0.009": 0.0,
			"-0.008": 0.350597372163,
			"-0.007": 6.54720316638,
			"-0.006": 15.3618218808,
			"-0.005": 18.0234804718,
			"-0.004": 18.1378857274,
			"-0.003": 13.380228581,
			"-0.002": 10.3818759231,
			"-0.001": 9.90648655784,
			"0.0": 12.570319795,
			"0.001": 14.4159635517,
			"0.002": 17.1602930911,
			"0.003": 18.4506550866,
			"0.004": 21.0711109957,
			"0.005": 9.15573809332,
			"0.006": 12.2163286353,
			"0.007": 7.66856686427,
			"0.008": 1.64696545188,
			"0.009": 0.0400833897276,
			"0.01": 0.0,
			"0.011": 0.0,
			"0.012": 0.0,
			"0.013": 0.0,
			"0.014": 0.0,
			"0.015": 0.0,
			"0.016": 0.0,
			"0.017": 0.0,
			"0.018": 0.0,
			"0.019": 0.0,
			"0.02": 0.0,
			"0.021": 0.0,
			"0.022": 0.0,
			"0.023": 0.0,
			"0.024": 0.0,
			"0.025": 0.0
		}
	}
}
