{
	 "smiles": "CC1=CC=CN2C=C(COC3=CC=C(C=O)C=C3)N=C12", 
	 "Tm": 396.15, 
	 "num_atms": 34, 
	 "gaussian": { 
		 "optdone": 1, 
		 "sigma_profile": "yes", 
		 "theory": "DFT", 
		 "functional": "B3LYP", 
		 "basiset": "6-31G**", 
		 "properties": { 
			 "R2extent": 10416.5168, 
			 "electric_dipole_moment_norm": 5.47216587925, 
			 "electric_quadrupole_moment_norm": 29.0535837638, 
			 "total_energy": -878.079938706, 
			 "HOMO_LUMO_gap": 0.16144, 
			 "cosmo_polarized_energy": -15.44, 
			 "cosmo_cavitation_energy": 39.26, 
			 "cosmo_dispersion_energy": -28.35, 
			 "cosmo_repulsion_energy": 2.13, 
			 "cosmo_total_nonelectrostatic_energy": 13.04, 
			 "SMD_solvation_energy": 6.72 
		},
		"coords": [
			{
				"x": -2.5045529894,
				"y": 2.8333762652,
				"z": -3.3519105998,
				"element": "C" 
			},
			{
				"x": -1.2067582103,
				"y": 2.2042807839,
				"z": -3.7743876296,
				"element": "C" 
			},
			{
				"x": -0.6735555887,
				"y": 2.3258803842,
				"z": -5.0387911566,
				"element": "C" 
			},
			{
				"x": 0.5614980796,
				"y": 1.7082347247,
				"z": -5.3861743393,
				"element": "C" 
			},
			{
				"x": 1.2527443127,
				"y": 0.9741513352,
				"z": -4.4656674333,
				"element": "C" 
			},
			{
				"x": 0.7345111319,
				"y": 0.8429907067,
				"z": -3.1993523942,
				"element": "N" 
			},
			{
				"x": 1.2075148245,
				"y": 0.1730444473,
				"z": -2.0880260352,
				"element": "C" 
			},
			{
				"x": 0.2649673214,
				"y": 0.3945325575,
				"z": -1.1054654564,
				"element": "C" 
			},
			{
				"x": 0.2744163899,
				"y": -0.102587022,
				"z": 0.3056242281,
				"element": "C" 
			},
			{
				"x": 1.4572756468,
				"y": -0.8764051059,
				"z": 0.4986906747,
				"element": "O" 
			},
			{
				"x": 1.6849288286,
				"y": -1.4357375316,
				"z": 1.7139134789,
				"element": "C" 
			},
			{
				"x": 2.8741873094,
				"y": -2.1839121968,
				"z": 1.8223558279,
				"element": "C" 
			},
			{
				"x": 3.2005912065,
				"y": -2.7955282336,
				"z": 3.01799233,
				"element": "C" 
			},
			{
				"x": 2.351456005,
				"y": -2.6775424086,
				"z": 4.1349787324,
				"element": "C" 
			},
			{
				"x": 2.6958843567,
				"y": -3.3280143478,
				"z": 5.4109452286,
				"element": "C" 
			},
			{
				"x": 3.6972343218,
				"y": -3.9942177412,
				"z": 5.6058315449,
				"element": "O" 
			},
			{
				"x": 1.1734157072,
				"y": -1.9327795646,
				"z": 4.0173186922,
				"element": "C" 
			},
			{
				"x": 0.8296529171,
				"y": -1.3097370968,
				"z": 2.8186905299,
				"element": "C" 
			},
			{
				"x": -0.76863472,
				"y": 1.1670157229,
				"z": -1.5486662112,
				"element": "N" 
			},
			{
				"x": -0.4807689387,
				"y": 1.4378898562,
				"z": -2.8207783339,
				"element": "C" 
			},
			{
				"x": -2.9581916243,
				"y": 3.3901855366,
				"z": -4.1755960218,
				"element": "H" 
			},
			{
				"x": -3.2127602537,
				"y": 2.071607144,
				"z": -3.0090486239,
				"element": "H" 
			},
			{
				"x": -2.3502681914,
				"y": 3.514824128,
				"z": -2.5085444428,
				"element": "H" 
			},
			{
				"x": -1.2046636348,
				"y": 2.9047120349,
				"z": -5.7884989054,
				"element": "H" 
			},
			{
				"x": 0.9659605602,
				"y": 1.8146574727,
				"z": -6.3862367408,
				"element": "H" 
			},
			{
				"x": 2.1955897413,
				"y": 0.4776726774,
				"z": -4.6593469607,
				"element": "H" 
			},
			{
				"x": 2.1326602263,
				"y": -0.3787216727,
				"z": -2.0922049006,
				"element": "H" 
			},
			{
				"x": -0.6191108709,
				"y": -0.7132255557,
				"z": 0.4968198043,
				"element": "H" 
			},
			{
				"x": 0.2519987725,
				"y": 0.7451292191,
				"z": 1.0046835626,
				"element": "H" 
			},
			{
				"x": 3.5139084416,
				"y": -2.2619170348,
				"z": 0.9494010108,
				"element": "H" 
			},
			{
				"x": 4.1119648745,
				"y": -3.3759844514,
				"z": 3.1212173133,
				"element": "H" 
			},
			{
				"x": 1.9524275952,
				"y": -3.167462254,
				"z": 6.224833817,
				"element": "H" 
			},
			{
				"x": 0.513077262,
				"y": -1.8376697348,
				"z": 4.8765450313,
				"element": "H" 
			},
			{
				"x": -0.0880008106,
				"y": -0.7384430443,
				"z": 2.7526543786,
				"element": "H" 
			}
		],
		 "valence_orbital": [ 
			{
				"type": "occ",
				"energy": -0.26536,
				"method": "rhf"
			},
			{
				"type": "occ",
				"energy": -0.2463,
				"method": "rhf"
			},
			{
				"type": "occ",
				"energy": -0.24055,
				"method": "rhf"
			},
			{
				"type": "occ",
				"energy": -0.23398,
				"method": "rhf"
			},
			{
				"type": "occ",
				"energy": -0.21245,
				"method": "rhf"
			},
			{
				"type": "unocc",
				"energy": -0.05101,
				"method": "rhf"
			},
			{
				"type": "unocc",
				"energy": -0.03278,
				"method": "rhf"
			},
			{
				"type": "unocc",
				"energy": -0.01309,
				"method": "rhf"
			},
			{
				"type": "unocc",
				"energy": 0.00226,
				"method": "rhf"
			},
			{
				"type": "unocc",
				"energy": 0.05102,
				"method": "rhf"
			}
		],
		"cosmo_sigma_profile": { 
			"-0.025": 0.0,
			"-0.024": 0.0,
			"-0.023": 0.0,
			"-0.022": 0.0,
			"-0.021": 0.0,
			"-0.02": 0.0,
			"-0.019": 0.0,
			"-0.018": 0.0,
			"-0.017": 0.0,
			"-0.016": 0.0,
			"-0.015": 0.0,
			"-0.014": 0.0,
			"-0.013": 0.0,
			"-0.012": 0.0,
			"-0.011": 0.0,
			"-0.01": 0.339697214211,
			"-0.009": 3.54640652277,
			"-0.008": 5.22747947793,
			"-0.007": 13.710458778,
			"-0.006": 22.7438897637,
			"-0.005": 21.7889428069,
			"-0.004": 21.4103821842,
			"-0.003": 18.9514101306,
			"-0.002": 17.4435813804,
			"-0.001": 19.9772622909,
			"0.0": 26.2119938484,
			"0.001": 26.1979120649,
			"0.002": 27.2562762307,
			"0.003": 30.762210251,
			"0.004": 18.9081438623,
			"0.005": 6.49566096197,
			"0.006": 5.0105334231,
			"0.007": 3.65581281704,
			"0.008": 2.69260928574,
			"0.009": 2.81165781718,
			"0.01": 4.17455288253,
			"0.011": 3.83853368302,
			"0.012": 5.43612973551,
			"0.013": 2.719431207,
			"0.014": 1.38550698147,
			"0.015": 0.384565936553,
			"0.016": 0.924255450737,
			"0.017": 0.36523102499,
			"0.018": 0.0466886832725,
			"0.019": 0.0,
			"0.02": 0.0,
			"0.021": 0.0,
			"0.022": 0.0,
			"0.023": 0.0,
			"0.024": 0.0,
			"0.025": 0.0
		}
	}
}
