{
	 "smiles": "C1COCCOCCOCCO1", 
	 "Tm": 289.15, 
	 "num_atms": 28, 
	 "gaussian": { 
		 "optdone": 1, 
		 "sigma_profile": "yes", 
		 "theory": "DFT", 
		 "functional": "B3LYP", 
		 "basiset": "6-31G**", 
		 "properties": { 
			 "R2extent": 2257.9566, 
			 "electric_dipole_moment_norm": 2.649059686, 
			 "electric_quadrupole_moment_norm": 6.50991362692, 
			 "total_energy": -615.321632754, 
			 "HOMO_LUMO_gap": 0.31468, 
			 "cosmo_polarized_energy": -11.94, 
			 "cosmo_cavitation_energy": 27.53, 
			 "cosmo_dispersion_energy": -20.63, 
			 "cosmo_repulsion_energy": 1.65, 
			 "cosmo_total_nonelectrostatic_energy": 8.54, 
			 "SMD_solvation_energy": 4.47 
		},
		"coords": [
			{
				"x": 0.5749341605,
				"y": -2.0357560946,
				"z": -0.8710755133,
				"element": "C" 
			},
			{
				"x": 1.6552126092,
				"y": -0.9923356883,
				"z": -0.624085225,
				"element": "C" 
			},
			{
				"x": 1.0716370871,
				"y": 0.2924651377,
				"z": -0.7372180575,
				"element": "O" 
			},
			{
				"x": 1.7040161571,
				"y": 1.3033356532,
				"z": 0.0190763143,
				"element": "C" 
			},
			{
				"x": 0.8285131293,
				"y": 2.5536703587,
				"z": 0.0120763402,
				"element": "C" 
			},
			{
				"x": -0.4951994967,
				"y": 2.3718649131,
				"z": 0.4692562312,
				"element": "O" 
			},
			{
				"x": -0.6592326267,
				"y": 2.0373817112,
				"z": 1.840725294,
				"element": "C" 
			},
			{
				"x": -0.9698163299,
				"y": 0.5592805521,
				"z": 2.0502018363,
				"element": "C" 
			},
			{
				"x": -2.2477383639,
				"y": 0.2981859719,
				"z": 1.486631674,
				"element": "O" 
			},
			{
				"x": -2.4592423436,
				"y": -1.0172779859,
				"z": 1.0050524905,
				"element": "C" 
			},
			{
				"x": -1.6464410227,
				"y": -1.3709148829,
				"z": -0.2415251992,
				"element": "C" 
			},
			{
				"x": -0.4144247035,
				"y": -1.9835212808,
				"z": 0.1456226935,
				"element": "O" 
			},
			{
				"x": 1.0333021966,
				"y": -3.0336593181,
				"z": -0.8533869035,
				"element": "H" 
			},
			{
				"x": 0.132451097,
				"y": -1.8878169424,
				"z": -1.8653412023,
				"element": "H" 
			},
			{
				"x": 2.0629801065,
				"y": -1.143337868,
				"z": 0.3874332557,
				"element": "H" 
			},
			{
				"x": 2.4832953577,
				"y": -1.1201885358,
				"z": -1.342312572,
				"element": "H" 
			},
			{
				"x": 2.6914762752,
				"y": 1.5668803575,
				"z": -0.3990847018,
				"element": "H" 
			},
			{
				"x": 1.8756252304,
				"y": 0.9561474886,
				"z": 1.0513441499,
				"element": "H" 
			},
			{
				"x": 1.3503841486,
				"y": 3.3325086869,
				"z": 0.5954504494,
				"element": "H" 
			},
			{
				"x": 0.730366522,
				"y": 2.9142314627,
				"z": -1.0168260325,
				"element": "H" 
			},
			{
				"x": 0.2270861883,
				"y": 2.3162485997,
				"z": 2.431871929,
				"element": "H" 
			},
			{
				"x": -1.5068606563,
				"y": 2.6264075547,
				"z": 2.2112819725,
				"element": "H" 
			},
			{
				"x": -0.9776098865,
				"y": 0.3412561968,
				"z": 3.133022947,
				"element": "H" 
			},
			{
				"x": -0.2034599373,
				"y": -0.0646089725,
				"z": 1.5836873898,
				"element": "H" 
			},
			{
				"x": -2.2680744035,
				"y": -1.7755663594,
				"z": 1.7812450804,
				"element": "H" 
			},
			{
				"x": -3.524612786,
				"y": -1.055429554,
				"z": 0.7546870162,
				"element": "H" 
			},
			{
				"x": -1.4668058371,
				"y": -0.4514996638,
				"z": -0.8108929297,
				"element": "H" 
			},
			{
				"x": -2.2206618719,
				"y": -2.0721514982,
				"z": -0.869718727,
				"element": "H" 
			}
		],
		 "valence_orbital": [ 
			{
				"type": "occ",
				"energy": -0.29763,
				"method": "rhf"
			},
			{
				"type": "occ",
				"energy": -0.26593,
				"method": "rhf"
			},
			{
				"type": "occ",
				"energy": -0.25561,
				"method": "rhf"
			},
			{
				"type": "occ",
				"energy": -0.24346,
				"method": "rhf"
			},
			{
				"type": "occ",
				"energy": -0.23333,
				"method": "rhf"
			},
			{
				"type": "unocc",
				"energy": 0.08135,
				"method": "rhf"
			},
			{
				"type": "unocc",
				"energy": 0.10214,
				"method": "rhf"
			},
			{
				"type": "unocc",
				"energy": 0.1056,
				"method": "rhf"
			},
			{
				"type": "unocc",
				"energy": 0.11678,
				"method": "rhf"
			},
			{
				"type": "unocc",
				"energy": 0.12064,
				"method": "rhf"
			}
		],
		"cosmo_sigma_profile": { 
			"-0.025": 0.0,
			"-0.024": 0.0,
			"-0.023": 0.0,
			"-0.022": 0.0,
			"-0.021": 0.0,
			"-0.02": 0.0,
			"-0.019": 0.0,
			"-0.018": 0.0,
			"-0.017": 0.0,
			"-0.016": 0.0,
			"-0.015": 0.0,
			"-0.014": 0.0,
			"-0.013": 0.0,
			"-0.012": 0.0,
			"-0.011": 0.0,
			"-0.01": 0.0,
			"-0.009": 0.0,
			"-0.008": 0.0,
			"-0.007": 0.0,
			"-0.006": 0.855634399067,
			"-0.005": 15.3782117912,
			"-0.004": 42.4100322419,
			"-0.003": 39.227078542,
			"-0.002": 29.9864376733,
			"-0.001": 14.1657627778,
			"0.0": 9.01848104292,
			"0.001": 5.74874214564,
			"0.002": 4.63738350854,
			"0.003": 5.01667776503,
			"0.004": 5.57258518792,
			"0.005": 3.32417827459,
			"0.006": 3.95972811299,
			"0.007": 3.99454573069,
			"0.008": 3.87017646524,
			"0.009": 3.61292893471,
			"0.01": 4.76015458928,
			"0.011": 5.38402288052,
			"0.012": 4.84202954089,
			"0.013": 4.73123432813,
			"0.014": 2.1167446429,
			"0.015": 0.0464896316893,
			"0.016": 0.0,
			"0.017": 0.0,
			"0.018": 0.0,
			"0.019": 0.0,
			"0.02": 0.0,
			"0.021": 0.0,
			"0.022": 0.0,
			"0.023": 0.0,
			"0.024": 0.0,
			"0.025": 0.0
		}
	}
}
