{
	 "smiles": "CC1=C(C)C2=C(C=CC3=C2C=CC=C3)C2=C1C=CC=C2", 
	 "Tm": 402.15, 
	 "num_atms": 36, 
	 "gaussian": { 
		 "optdone": 1, 
		 "sigma_profile": "yes", 
		 "theory": "DFT", 
		 "functional": "B3LYP", 
		 "basiset": "6-31G**", 
		 "properties": { 
			 "R2extent": 5981.7052, 
			 "electric_dipole_moment_norm": 0.579749609745, 
			 "electric_quadrupole_moment_norm": 10.9089987089, 
			 "total_energy": -771.805063921, 
			 "HOMO_LUMO_gap": 0.14948, 
			 "cosmo_polarized_energy": -7.1, 
			 "cosmo_cavitation_energy": 36.5, 
			 "cosmo_dispersion_energy": -27.31, 
			 "cosmo_repulsion_energy": 1.99, 
			 "cosmo_total_nonelectrostatic_energy": 11.17, 
			 "SMD_solvation_energy": 5.2 
		},
		"coords": [
			{
				"x": -1.1605289106,
				"y": 3.302225167,
				"z": -2.8129671578,
				"element": "C" 
			},
			{
				"x": -0.4765795258,
				"y": 2.255367762,
				"z": -1.9584601552,
				"element": "C" 
			},
			{
				"x": -0.8679628197,
				"y": 2.0200266482,
				"z": -0.6526662601,
				"element": "C" 
			},
			{
				"x": -1.8218717188,
				"y": 3.0028021312,
				"z": 0.0111212958,
				"element": "C" 
			},
			{
				"x": -0.2588330408,
				"y": 0.9440952358,
				"z": 0.1106167516,
				"element": "C" 
			},
			{
				"x": 0.9325991107,
				"y": 0.3515318403,
				"z": -0.3796416755,
				"element": "C" 
			},
			{
				"x": 1.7073929123,
				"y": -0.4851404516,
				"z": 0.486602731,
				"element": "C" 
			},
			{
				"x": 1.2999090054,
				"y": -0.7861322122,
				"z": 1.7504638548,
				"element": "C" 
			},
			{
				"x": 0.0164140201,
				"y": -0.3745900967,
				"z": 2.2141801511,
				"element": "C" 
			},
			{
				"x": -0.7989323819,
				"y": 0.4487100872,
				"z": 1.3742378007,
				"element": "C" 
			},
			{
				"x": -2.1411395906,
				"y": 0.6506163931,
				"z": 1.7950109344,
				"element": "C" 
			},
			{
				"x": -2.6106676159,
				"y": 0.168485174,
				"z": 3.0028732578,
				"element": "C" 
			},
			{
				"x": -1.7635360446,
				"y": -0.5526856554,
				"z": 3.8655398267,
				"element": "C" 
			},
			{
				"x": -0.474649215,
				"y": -0.8294768779,
				"z": 3.4620958478,
				"element": "C" 
			},
			{
				"x": 1.3673303959,
				"y": 0.6142610531,
				"z": -1.7362860524,
				"element": "C" 
			},
			{
				"x": 0.6216270013,
				"y": 1.5252398561,
				"z": -2.5407407251,
				"element": "C" 
			},
			{
				"x": 1.0315552311,
				"y": 1.7409570891,
				"z": -3.883125084,
				"element": "C" 
			},
			{
				"x": 2.125885079,
				"y": 1.0925507685,
				"z": -4.4175520309,
				"element": "C" 
			},
			{
				"x": 2.8607267393,
				"y": 0.1922881801,
				"z": -3.6244283056,
				"element": "C" 
			},
			{
				"x": 2.4863745661,
				"y": -0.0363953236,
				"z": -2.3157983976,
				"element": "C" 
			},
			{
				"x": -0.4912929421,
				"y": 4.138852716,
				"z": -3.0507843818,
				"element": "H" 
			},
			{
				"x": -2.0516533859,
				"y": 3.7123046767,
				"z": -2.3411478607,
				"element": "H" 
			},
			{
				"x": -1.4800444841,
				"y": 2.8700984625,
				"z": -3.7673975142,
				"element": "H" 
			},
			{
				"x": -1.7018657529,
				"y": 2.999895813,
				"z": 1.0943453773,
				"element": "H" 
			},
			{
				"x": -1.6088892627,
				"y": 4.0186479493,
				"z": -0.3299250321,
				"element": "H" 
			},
			{
				"x": -2.8801192603,
				"y": 2.8089705827,
				"z": -0.2054153815,
				"element": "H" 
			},
			{
				"x": 2.6641151975,
				"y": -0.860999928,
				"z": 0.1458847723,
				"element": "H" 
			},
			{
				"x": 1.9242501092,
				"y": -1.3912240532,
				"z": 2.4024760415,
				"element": "H" 
			},
			{
				"x": -2.840402894,
				"y": 1.150961738,
				"z": 1.140947554,
				"element": "H" 
			},
			{
				"x": -3.6478614027,
				"y": 0.3372909238,
				"z": 3.2781799135,
				"element": "H" 
			},
			{
				"x": -2.1330535317,
				"y": -0.9155718685,
				"z": 4.8201556723,
				"element": "H" 
			},
			{
				"x": 0.1812869223,
				"y": -1.4313892448,
				"z": 4.0860423995,
				"element": "H" 
			},
			{
				"x": 0.4787672893,
				"y": 2.4345144213,
				"z": -4.5053352393,
				"element": "H" 
			},
			{
				"x": 2.4167021103,
				"y": 1.2755306238,
				"z": -5.448011969,
				"element": "H" 
			},
			{
				"x": 3.7179822383,
				"y": -0.3284987125,
				"z": -4.0410754037,
				"element": "H" 
			},
			{
				"x": 3.0571658518,
				"y": -0.7512208684,
				"z": -1.7355155555,
				"element": "H" 
			}
		],
		 "valence_orbital": [ 
			{
				"type": "occ",
				"energy": -0.26896,
				"method": "rhf"
			},
			{
				"type": "occ",
				"energy": -0.26432,
				"method": "rhf"
			},
			{
				"type": "occ",
				"energy": -0.23273,
				"method": "rhf"
			},
			{
				"type": "occ",
				"energy": -0.21655,
				"method": "rhf"
			},
			{
				"type": "occ",
				"energy": -0.19571,
				"method": "rhf"
			},
			{
				"type": "unocc",
				"energy": -0.04623,
				"method": "rhf"
			},
			{
				"type": "unocc",
				"energy": -0.02961,
				"method": "rhf"
			},
			{
				"type": "unocc",
				"energy": -0.01219,
				"method": "rhf"
			},
			{
				"type": "unocc",
				"energy": 0.02378,
				"method": "rhf"
			},
			{
				"type": "unocc",
				"energy": 0.03193,
				"method": "rhf"
			}
		],
		"cosmo_sigma_profile": { 
			"-0.025": 0.0,
			"-0.024": 0.0,
			"-0.023": 0.0,
			"-0.022": 0.0,
			"-0.021": 0.0,
			"-0.02": 0.0,
			"-0.019": 0.0,
			"-0.018": 0.0,
			"-0.017": 0.0,
			"-0.016": 0.0,
			"-0.015": 0.0,
			"-0.014": 0.0,
			"-0.013": 0.0,
			"-0.012": 0.0,
			"-0.011": 0.0,
			"-0.01": 0.0,
			"-0.009": 0.00926118319352,
			"-0.008": 1.18401150235,
			"-0.007": 1.64292285041,
			"-0.006": 9.86551490282,
			"-0.005": 21.3158925407,
			"-0.004": 28.4643657628,
			"-0.003": 28.5728287175,
			"-0.002": 23.549230989,
			"-0.001": 23.6516120058,
			"0.0": 21.5525143112,
			"0.001": 19.2780813562,
			"0.002": 17.3244808042,
			"0.003": 23.8270435686,
			"0.004": 39.5292959009,
			"0.005": 25.3658509049,
			"0.006": 7.25325490029,
			"0.007": 0.0,
			"0.008": 0.0,
			"0.009": 0.0,
			"0.01": 0.0,
			"0.011": 0.0,
			"0.012": 0.0,
			"0.013": 0.0,
			"0.014": 0.0,
			"0.015": 0.0,
			"0.016": 0.0,
			"0.017": 0.0,
			"0.018": 0.0,
			"0.019": 0.0,
			"0.02": 0.0,
			"0.021": 0.0,
			"0.022": 0.0,
			"0.023": 0.0,
			"0.024": 0.0,
			"0.025": 0.0
		}
	}
}
