{
	 "smiles": "CC1=NC2=C(C(=NO2)C2=CC=CO2)C(=C1)C(O)=O", 
	 "Tm": 506.15, 
	 "num_atms": 26, 
	 "gaussian": { 
		 "optdone": 1, 
		 "sigma_profile": "yes", 
		 "theory": "DFT", 
		 "functional": "B3LYP", 
		 "basiset": "6-31G**", 
		 "properties": { 
			 "R2extent": 4514.443, 
			 "electric_dipole_moment_norm": 3.47293939193, 
			 "electric_quadrupole_moment_norm": 20.4991867026, 
			 "total_energy": -872.439145125, 
			 "HOMO_LUMO_gap": 0.14843, 
			 "cosmo_polarized_energy": -15.36, 
			 "cosmo_cavitation_energy": 32.09, 
			 "cosmo_dispersion_energy": -22.99, 
			 "cosmo_repulsion_energy": 1.75, 
			 "cosmo_total_nonelectrostatic_energy": 10.85, 
			 "SMD_solvation_energy": 5.87 
		},
		"coords": [
			{
				"x": 3.5549630339,
				"y": 0.3271286232,
				"z": -2.1587142658,
				"element": "C" 
			},
			{
				"x": 2.3722489287,
				"y": 0.2645713813,
				"z": -1.2279228804,
				"element": "C" 
			},
			{
				"x": 2.6221396043,
				"y": 0.0028814496,
				"z": 0.0614225522,
				"element": "N" 
			},
			{
				"x": 1.5516547062,
				"y": -0.0192715035,
				"z": 0.841253246,
				"element": "C" 
			},
			{
				"x": 0.2087457867,
				"y": 0.1809760615,
				"z": 0.4876876947,
				"element": "C" 
			},
			{
				"x": -0.478819519,
				"y": 0.0923881069,
				"z": 1.7535638183,
				"element": "C" 
			},
			{
				"x": 0.3714750096,
				"y": -0.1612656847,
				"z": 2.7289502506,
				"element": "N" 
			},
			{
				"x": 1.6499298154,
				"y": -0.2584444045,
				"z": 2.1685433849,
				"element": "O" 
			},
			{
				"x": -1.879320785,
				"y": 0.281430645,
				"z": 2.0952816907,
				"element": "C" 
			},
			{
				"x": -2.6694893396,
				"y": -0.2535182963,
				"z": 3.0749811327,
				"element": "C" 
			},
			{
				"x": -3.9430491067,
				"y": 0.3844047933,
				"z": 2.9563266614,
				"element": "C" 
			},
			{
				"x": -3.8326367838,
				"y": 1.2633709735,
				"z": 1.9203145166,
				"element": "C" 
			},
			{
				"x": -2.5819924578,
				"y": 1.2172543516,
				"z": 1.3850232226,
				"element": "O" 
			},
			{
				"x": -0.0461035228,
				"y": 0.3884427038,
				"z": -0.8828910412,
				"element": "C" 
			},
			{
				"x": 1.0603444028,
				"y": 0.459505227,
				"z": -1.7226030262,
				"element": "C" 
			},
			{
				"x": -1.3981787839,
				"y": 0.4755487125,
				"z": -1.5174958885,
				"element": "C" 
			},
			{
				"x": -2.2796239496,
				"y": -0.3724035559,
				"z": -0.9499410971,
				"element": "O" 
			},
			{
				"x": -1.6604825646,
				"y": 1.169985297,
				"z": -2.4753309198,
				"element": "O" 
			},
			{
				"x": 3.6030364809,
				"y": 1.2967779953,
				"z": -2.6664785599,
				"element": "H" 
			},
			{
				"x": 3.4837322756,
				"y": -0.44185035,
				"z": -2.9362793219,
				"element": "H" 
			},
			{
				"x": 4.4766171041,
				"y": 0.1747039616,
				"z": -1.5959707948,
				"element": "H" 
			},
			{
				"x": -2.3700002321,
				"y": -1.0107570251,
				"z": 3.7839836538,
				"element": "H" 
			},
			{
				"x": -4.8209431161,
				"y": 0.2103723729,
				"z": 3.5614031401,
				"element": "H" 
			},
			{
				"x": -4.5127978899,
				"y": 1.9650715383,
				"z": 1.4629382123,
				"element": "H" 
			},
			{
				"x": 0.9029649386,
				"y": 0.6413553836,
				"z": -2.7800321694,
				"element": "H" 
			},
			{
				"x": -3.1232140363,
				"y": -0.2468587579,
				"z": -1.416313212,
				"element": "H" 
			}
		],
		 "valence_orbital": [ 
			{
				"type": "occ",
				"energy": -0.2913,
				"method": "rhf"
			},
			{
				"type": "occ",
				"energy": -0.28742,
				"method": "rhf"
			},
			{
				"type": "occ",
				"energy": -0.27878,
				"method": "rhf"
			},
			{
				"type": "occ",
				"energy": -0.26521,
				"method": "rhf"
			},
			{
				"type": "occ",
				"energy": -0.23012,
				"method": "rhf"
			},
			{
				"type": "unocc",
				"energy": -0.08169,
				"method": "rhf"
			},
			{
				"type": "unocc",
				"energy": -0.03345,
				"method": "rhf"
			},
			{
				"type": "unocc",
				"energy": -0.01686,
				"method": "rhf"
			},
			{
				"type": "unocc",
				"energy": 0.0231,
				"method": "rhf"
			},
			{
				"type": "unocc",
				"energy": 0.03556,
				"method": "rhf"
			}
		],
		"cosmo_sigma_profile": { 
			"-0.025": 0.0,
			"-0.024": 0.0,
			"-0.023": 0.0,
			"-0.022": 0.0,
			"-0.021": 0.0,
			"-0.02": 0.0121450357359,
			"-0.019": 0.614011467934,
			"-0.018": 0.846370295245,
			"-0.017": 0.80705069144,
			"-0.016": 0.722688838865,
			"-0.015": 0.580175330639,
			"-0.014": 0.895823935011,
			"-0.013": 0.634908896827,
			"-0.012": 0.470797027004,
			"-0.011": 0.724372332513,
			"-0.01": 1.09680647389,
			"-0.009": 2.67044259892,
			"-0.008": 5.19876029236,
			"-0.007": 7.20762853289,
			"-0.006": 10.7724999064,
			"-0.005": 15.0594013221,
			"-0.004": 16.4593162259,
			"-0.003": 20.2344561377,
			"-0.002": 24.5237628383,
			"-0.001": 23.7173746736,
			"0.0": 17.0275237441,
			"0.001": 13.5061454686,
			"0.002": 15.0822861526,
			"0.003": 12.1255531601,
			"0.004": 14.0877980328,
			"0.005": 9.24268580796,
			"0.006": 9.42729408726,
			"0.007": 9.63591412306,
			"0.008": 5.27983132875,
			"0.009": 4.14370621828,
			"0.01": 5.60468925653,
			"0.011": 6.57842400264,
			"0.012": 2.39306385333,
			"0.013": 1.17921826375,
			"0.014": 0.115644304936,
			"0.015": 0.0,
			"0.016": 0.0,
			"0.017": 0.0,
			"0.018": 0.0,
			"0.019": 0.0,
			"0.02": 0.0,
			"0.021": 0.0,
			"0.022": 0.0,
			"0.023": 0.0,
			"0.024": 0.0,
			"0.025": 0.0
		}
	}
}
