{
	 "smiles": "NC1=C(Cl)C=C(C=C1Cl)C(O)=O", 
	 "Tm": 565.15, 
	 "num_atms": 17, 
	 "gaussian": { 
		 "optdone": 1, 
		 "sigma_profile": "yes", 
		 "theory": "DFT", 
		 "functional": "B3LYP", 
		 "basiset": "6-31G**", 
		 "properties": { 
			 "R2extent": 3050.0244, 
			 "electric_dipole_moment_norm": 5.3935378825, 
			 "electric_quadrupole_moment_norm": 8.52995646882, 
			 "total_energy": -1395.35669955, 
			 "HOMO_LUMO_gap": 0.18319, 
			 "cosmo_polarized_energy": -16.27, 
			 "cosmo_cavitation_energy": 25.21, 
			 "cosmo_dispersion_energy": -19.19, 
			 "cosmo_repulsion_energy": 1.53, 
			 "cosmo_total_nonelectrostatic_energy": 7.54, 
			 "SMD_solvation_energy": 4.86 
		},
		"coords": [
			{
				"x": 1.7598412375,
				"y": -2.3470740091,
				"z": 0.7788571197,
				"element": "N" 
			},
			{
				"x": 0.8739342685,
				"y": -1.4059318336,
				"z": 0.347710541,
				"element": "C" 
			},
			{
				"x": 1.2118672826,
				"y": -0.4513553257,
				"z": -0.64417468,
				"element": "C" 
			},
			{
				"x": 2.8498310877,
				"y": -0.4663290045,
				"z": -1.2859906229,
				"element": "Cl" 
			},
			{
				"x": 0.3067227134,
				"y": 0.4795841484,
				"z": -1.1181319056,
				"element": "C" 
			},
			{
				"x": -0.9972558355,
				"y": 0.5236604596,
				"z": -0.6055743659,
				"element": "C" 
			},
			{
				"x": -1.370271749,
				"y": -0.4104350485,
				"z": 0.3694182053,
				"element": "C" 
			},
			{
				"x": -0.4543318808,
				"y": -1.3444057867,
				"z": 0.8295537654,
				"element": "C" 
			},
			{
				"x": -0.9555039141,
				"y": -2.5078398922,
				"z": 2.0515636348,
				"element": "Cl" 
			},
			{
				"x": -1.9247596564,
				"y": 1.5506117831,
				"z": -1.1680370079,
				"element": "C" 
			},
			{
				"x": -3.0511788436,
				"y": 1.8230495612,
				"z": -0.4538308864,
				"element": "O" 
			},
			{
				"x": -1.7153625781,
				"y": 2.1324161196,
				"z": -2.2070972351,
				"element": "O" 
			},
			{
				"x": 1.5373513214,
				"y": -2.8749811939,
				"z": 1.6074979539,
				"element": "H" 
			},
			{
				"x": 2.7324005342,
				"y": -2.2340758309,
				"z": 0.5411190245,
				"element": "H" 
			},
			{
				"x": 0.5920164236,
				"y": 1.1873379214,
				"z": -1.8873383438,
				"element": "H" 
			},
			{
				"x": -2.3820525342,
				"y": -0.4561866908,
				"z": 0.759717532,
				"element": "H" 
			},
			{
				"x": -2.9942478774,
				"y": 1.4362546226,
				"z": 0.4303372711,
				"element": "H" 
			}
		],
		 "valence_orbital": [ 
			{
				"type": "occ",
				"energy": -0.3348,
				"method": "rhf"
			},
			{
				"type": "occ",
				"energy": -0.31543,
				"method": "rhf"
			},
			{
				"type": "occ",
				"energy": -0.27684,
				"method": "rhf"
			},
			{
				"type": "occ",
				"energy": -0.26707,
				"method": "rhf"
			},
			{
				"type": "occ",
				"energy": -0.23403,
				"method": "rhf"
			},
			{
				"type": "unocc",
				"energy": -0.05084,
				"method": "rhf"
			},
			{
				"type": "unocc",
				"energy": -0.03669,
				"method": "rhf"
			},
			{
				"type": "unocc",
				"energy": -0.00835,
				"method": "rhf"
			},
			{
				"type": "unocc",
				"energy": 0.03333,
				"method": "rhf"
			},
			{
				"type": "unocc",
				"energy": 0.04606,
				"method": "rhf"
			}
		],
		"cosmo_sigma_profile": { 
			"-0.025": 0.0,
			"-0.024": 0.0,
			"-0.023": 0.0,
			"-0.022": 0.0,
			"-0.021": 0.0,
			"-0.02": 0.0157469357081,
			"-0.019": 0.422245804847,
			"-0.018": 0.96242975776,
			"-0.017": 1.40999406974,
			"-0.016": 0.576635890634,
			"-0.015": 1.4254379197,
			"-0.014": 0.903547323074,
			"-0.013": 3.28741107452,
			"-0.012": 3.07263813761,
			"-0.011": 3.16188829555,
			"-0.01": 3.32440043677,
			"-0.009": 2.69379245231,
			"-0.008": 3.54607841041,
			"-0.007": 4.51604177122,
			"-0.006": 4.95718811091,
			"-0.005": 4.34757757895,
			"-0.004": 5.851221039,
			"-0.003": 9.77929301429,
			"-0.002": 11.5552339226,
			"-0.001": 14.2989122854,
			"0.0": 22.0969028773,
			"0.001": 25.6962750093,
			"0.002": 16.960213554,
			"0.003": 15.1858313072,
			"0.004": 14.0985258491,
			"0.005": 3.8821731296,
			"0.006": 2.82573894559,
			"0.007": 2.39530299996,
			"0.008": 3.631913632,
			"0.009": 3.19140042907,
			"0.01": 4.50421642661,
			"0.011": 5.10626192128,
			"0.012": 5.08008410438,
			"0.013": 1.84261604526,
			"0.014": 0.126182232266,
			"0.015": 0.0,
			"0.016": 0.0,
			"0.017": 0.0,
			"0.018": 0.0,
			"0.019": 0.0,
			"0.02": 0.0,
			"0.021": 0.0,
			"0.022": 0.0,
			"0.023": 0.0,
			"0.024": 0.0,
			"0.025": 0.0
		}
	}
}
