{
	 "smiles": "CC(C)C12CCC(C)(O1)C(=O)OC2=O", 
	 "Tm": 382.15, 
	 "num_atms": 28, 
	 "gaussian": { 
		 "optdone": 1, 
		 "sigma_profile": "yes", 
		 "theory": "DFT", 
		 "functional": "B3LYP", 
		 "basiset": "6-31G**", 
		 "properties": { 
			 "R2extent": 3083.1796, 
			 "electric_dipole_moment_norm": 4.73069957934, 
			 "electric_quadrupole_moment_norm": 14.9733051098, 
			 "total_energy": -690.414797876, 
			 "HOMO_LUMO_gap": 0.23407, 
			 "cosmo_polarized_energy": -11.24, 
			 "cosmo_cavitation_energy": 29.02, 
			 "cosmo_dispersion_energy": -20.89, 
			 "cosmo_repulsion_energy": 1.63, 
			 "cosmo_total_nonelectrostatic_energy": 9.76, 
			 "SMD_solvation_energy": 6.46 
		},
		"coords": [
			{
				"x": 1.680519284,
				"y": -1.6717317001,
				"z": -0.5703213814,
				"element": "C" 
			},
			{
				"x": 0.4153459919,
				"y": -1.1185929235,
				"z": 0.1048842461,
				"element": "C" 
			},
			{
				"x": 0.7253280703,
				"y": -0.5400814018,
				"z": 1.4943067266,
				"element": "C" 
			},
			{
				"x": -0.3659334225,
				"y": -0.1230387041,
				"z": -0.7767363423,
				"element": "C" 
			},
			{
				"x": -0.7901769203,
				"y": -0.6664296722,
				"z": -2.1752341454,
				"element": "C" 
			},
			{
				"x": -2.167678468,
				"y": -0.0085395783,
				"z": -2.4208892166,
				"element": "C" 
			},
			{
				"x": -2.4237907884,
				"y": 0.8052720017,
				"z": -1.1165104828,
				"element": "C" 
			},
			{
				"x": -3.8672619208,
				"y": 0.8460393616,
				"z": -0.6472263309,
				"element": "C" 
			},
			{
				"x": -1.6156527871,
				"y": 0.1551221206,
				"z": -0.1309207405,
				"element": "O" 
			},
			{
				"x": -1.8611402199,
				"y": 2.216562449,
				"z": -1.2934499812,
				"element": "C" 
			},
			{
				"x": -2.4962345943,
				"y": 3.2088830763,
				"z": -1.5180810425,
				"element": "O" 
			},
			{
				"x": -0.4781474766,
				"y": 2.3149146324,
				"z": -1.2034816318,
				"element": "O" 
			},
			{
				"x": 0.3508321508,
				"y": 1.2187494546,
				"z": -0.9815506883,
				"element": "C" 
			},
			{
				"x": 1.5370251959,
				"y": 1.4016273296,
				"z": -1.0002933028,
				"element": "O" 
			},
			{
				"x": 2.1252413707,
				"y": -2.4436591066,
				"z": 0.0657709596,
				"element": "H" 
			},
			{
				"x": 2.4208560171,
				"y": -0.884212184,
				"z": -0.7231974265,
				"element": "H" 
			},
			{
				"x": 1.4636136005,
				"y": -2.1323603975,
				"z": -1.5395908704,
				"element": "H" 
			},
			{
				"x": -0.2938944236,
				"y": -1.9476000753,
				"z": 0.2362612265,
				"element": "H" 
			},
			{
				"x": 1.1473130403,
				"y": -1.3187156177,
				"z": 2.1374863528,
				"element": "H" 
			},
			{
				"x": -0.1793894865,
				"y": -0.1568363937,
				"z": 1.973195912,
				"element": "H" 
			},
			{
				"x": 1.4568220848,
				"y": 0.2710011729,
				"z": 1.4294793984,
				"element": "H" 
			},
			{
				"x": -0.8813621484,
				"y": -1.7538631028,
				"z": -2.1125653424,
				"element": "H" 
			},
			{
				"x": -0.0557579139,
				"y": -0.4387746605,
				"z": -2.9516072688,
				"element": "H" 
			},
			{
				"x": -2.1920905293,
				"y": 0.6254634094,
				"z": -3.3113882907,
				"element": "H" 
			},
			{
				"x": -2.953236372,
				"y": -0.7603809867,
				"z": -2.5307350957,
				"element": "H" 
			},
			{
				"x": -3.9489236089,
				"y": 1.3826706328,
				"z": 0.3009011612,
				"element": "H" 
			},
			{
				"x": -4.2330039285,
				"y": -0.1745130089,
				"z": -0.509391616,
				"element": "H" 
			},
			{
				"x": -4.4881217971,
				"y": 1.3590238728,
				"z": -1.3844147858,
				"element": "H" 
			}
		],
		 "valence_orbital": [ 
			{
				"type": "occ",
				"energy": -0.33788,
				"method": "rhf"
			},
			{
				"type": "occ",
				"energy": -0.33055,
				"method": "rhf"
			},
			{
				"type": "occ",
				"energy": -0.32603,
				"method": "rhf"
			},
			{
				"type": "occ",
				"energy": -0.28076,
				"method": "rhf"
			},
			{
				"type": "occ",
				"energy": -0.27111,
				"method": "rhf"
			},
			{
				"type": "unocc",
				"energy": -0.03704,
				"method": "rhf"
			},
			{
				"type": "unocc",
				"energy": -0.00167,
				"method": "rhf"
			},
			{
				"type": "unocc",
				"energy": 0.06116,
				"method": "rhf"
			},
			{
				"type": "unocc",
				"energy": 0.0844,
				"method": "rhf"
			},
			{
				"type": "unocc",
				"energy": 0.09297,
				"method": "rhf"
			}
		],
		"cosmo_sigma_profile": { 
			"-0.025": 0.0,
			"-0.024": 0.0,
			"-0.023": 0.0,
			"-0.022": 0.0,
			"-0.021": 0.0,
			"-0.02": 0.0,
			"-0.019": 0.0,
			"-0.018": 0.0,
			"-0.017": 0.0,
			"-0.016": 0.0,
			"-0.015": 0.0,
			"-0.014": 0.0,
			"-0.013": 0.0,
			"-0.012": 0.0,
			"-0.011": 0.0,
			"-0.01": 0.235223983958,
			"-0.009": 0.880434852773,
			"-0.008": 1.46141331504,
			"-0.007": 2.9933297125,
			"-0.006": 8.42714069118,
			"-0.005": 19.6831234826,
			"-0.004": 21.672431248,
			"-0.003": 24.0954346315,
			"-0.002": 25.6156748336,
			"-0.001": 22.0179436397,
			"0.0": 19.4411236755,
			"0.001": 17.9111619261,
			"0.002": 7.50451177237,
			"0.003": 4.8268113055,
			"0.004": 5.53672807707,
			"0.005": 5.24431298201,
			"0.006": 4.88718215483,
			"0.007": 6.33507142279,
			"0.008": 8.33293548041,
			"0.009": 7.86186708485,
			"0.01": 9.02135303948,
			"0.011": 2.50579924511,
			"0.012": 0.0,
			"0.013": 0.0,
			"0.014": 0.0,
			"0.015": 0.0,
			"0.016": 0.0,
			"0.017": 0.0,
			"0.018": 0.0,
			"0.019": 0.0,
			"0.02": 0.0,
			"0.021": 0.0,
			"0.022": 0.0,
			"0.023": 0.0,
			"0.024": 0.0,
			"0.025": 0.0
		}
	}
}
