{
	 "smiles": "OC(C1CCCN1)(C1=CC=CC=C1)C1=CC=CC=C1", 
	 "Tm": 352.15, 
	 "num_atms": 38, 
	 "gaussian": { 
		 "optdone": 1, 
		 "sigma_profile": "yes", 
		 "theory": "DFT", 
		 "functional": "B3LYP", 
		 "basiset": "6-31G**", 
		 "properties": { 
			 "R2extent": 4847.6043, 
			 "electric_dipole_moment_norm": 1.14606084917, 
			 "electric_quadrupole_moment_norm": 3.42017579519, 
			 "total_energy": -789.220298808, 
			 "HOMO_LUMO_gap": 0.21729, 
			 "cosmo_polarized_energy": -8.5, 
			 "cosmo_cavitation_energy": 37.91, 
			 "cosmo_dispersion_energy": -26.69, 
			 "cosmo_repulsion_energy": 2.06, 
			 "cosmo_total_nonelectrostatic_energy": 13.28, 
			 "SMD_solvation_energy": 5.09 
		},
		"coords": [
			{
				"x": -1.9208866504,
				"y": 0.2657192705,
				"z": 1.0218624787,
				"element": "O" 
			},
			{
				"x": -0.6347772354,
				"y": -0.0161823774,
				"z": 0.4222865443,
				"element": "C" 
			},
			{
				"x": -0.8832692112,
				"y": -1.1453234335,
				"z": -0.630121699,
				"element": "C" 
			},
			{
				"x": 0.2667752824,
				"y": -1.5147761407,
				"z": -1.6058020186,
				"element": "C" 
			},
			{
				"x": -0.4420341883,
				"y": -1.8441357426,
				"z": -2.9491560608,
				"element": "C" 
			},
			{
				"x": -1.9380679677,
				"y": -1.846348418,
				"z": -2.5938463235,
				"element": "C" 
			},
			{
				"x": -2.0142677415,
				"y": -0.8454145829,
				"z": -1.525487541,
				"element": "N" 
			},
			{
				"x": -0.0713167708,
				"y": 1.3145893812,
				"z": -0.1093862184,
				"element": "C" 
			},
			{
				"x": 0.5743889289,
				"y": 2.1917807402,
				"z": 0.7785136826,
				"element": "C" 
			},
			{
				"x": 1.0136684328,
				"y": 3.4467385313,
				"z": 0.3599157803,
				"element": "C" 
			},
			{
				"x": 0.8126080498,
				"y": 3.8582019156,
				"z": -0.959247843,
				"element": "C" 
			},
			{
				"x": 0.1560119406,
				"y": 3.0067746469,
				"z": -1.8467318706,
				"element": "C" 
			},
			{
				"x": -0.2896815428,
				"y": 1.750781207,
				"z": -1.4263358651,
				"element": "C" 
			},
			{
				"x": 0.245377765,
				"y": -0.6157748393,
				"z": 1.5272788086,
				"element": "C" 
			},
			{
				"x": 1.6192903072,
				"y": -0.8139635074,
				"z": 1.3243826575,
				"element": "C" 
			},
			{
				"x": 2.406193888,
				"y": -1.4200742382,
				"z": 2.3036227949,
				"element": "C" 
			},
			{
				"x": 1.8333012198,
				"y": -1.8375550215,
				"z": 3.5067032025,
				"element": "C" 
			},
			{
				"x": 0.469048349,
				"y": -1.6402265687,
				"z": 3.719186903,
				"element": "C" 
			},
			{
				"x": -0.3196857854,
				"y": -1.0358623339,
				"z": 2.7373359612,
				"element": "C" 
			},
			{
				"x": -2.343835565,
				"y": 0.9201906487,
				"z": 0.4509304717,
				"element": "H" 
			},
			{
				"x": -1.110867815,
				"y": -2.037235564,
				"z": -0.0211868144,
				"element": "H" 
			},
			{
				"x": 0.834700859,
				"y": -2.3646188054,
				"z": -1.2203550487,
				"element": "H" 
			},
			{
				"x": 0.9674258441,
				"y": -0.6866842794,
				"z": -1.7335509216,
				"element": "H" 
			},
			{
				"x": -0.1191278018,
				"y": -2.7972603559,
				"z": -3.3768176494,
				"element": "H" 
			},
			{
				"x": -0.2351943938,
				"y": -1.06548186,
				"z": -3.6896669797,
				"element": "H" 
			},
			{
				"x": -2.2393917703,
				"y": -2.8538476207,
				"z": -2.2531326184,
				"element": "H" 
			},
			{
				"x": -2.5834207955,
				"y": -1.5718872826,
				"z": -3.4349727246,
				"element": "H" 
			},
			{
				"x": -2.8882971244,
				"y": -0.9046247898,
				"z": -1.0110878032,
				"element": "H" 
			},
			{
				"x": 0.7354355944,
				"y": 1.8859067631,
				"z": 1.8066603111,
				"element": "H" 
			},
			{
				"x": 1.5131940108,
				"y": 4.1037834846,
				"z": 1.0665663761,
				"element": "H" 
			},
			{
				"x": 1.1585496785,
				"y": 4.8342066378,
				"z": -1.2881146675,
				"element": "H" 
			},
			{
				"x": -0.0177984913,
				"y": 3.3186737938,
				"z": -2.873136279,
				"element": "H" 
			},
			{
				"x": -0.8350033278,
				"y": 1.1115793005,
				"z": -2.1103253104,
				"element": "H" 
			},
			{
				"x": 2.0828500601,
				"y": -0.47572519,
				"z": 0.4031100206,
				"element": "H" 
			},
			{
				"x": 3.469254862,
				"y": -1.5598398053,
				"z": 2.1276684421,
				"element": "H" 
			},
			{
				"x": 2.445986774,
				"y": -2.3069584946,
				"z": 4.2712068368,
				"element": "H" 
			},
			{
				"x": 0.0125114315,
				"y": -1.9552587663,
				"z": 4.6536556334,
				"element": "H" 
			},
			{
				"x": -1.3781490996,
				"y": -0.878766303,
				"z": 2.9055753514,
				"element": "H" 
			}
		],
		 "valence_orbital": [ 
			{
				"type": "occ",
				"energy": -0.24652,
				"method": "rhf"
			},
			{
				"type": "occ",
				"energy": -0.24259,
				"method": "rhf"
			},
			{
				"type": "occ",
				"energy": -0.24132,
				"method": "rhf"
			},
			{
				"type": "occ",
				"energy": -0.23452,
				"method": "rhf"
			},
			{
				"type": "occ",
				"energy": -0.22129,
				"method": "rhf"
			},
			{
				"type": "unocc",
				"energy": -0.004,
				"method": "rhf"
			},
			{
				"type": "unocc",
				"energy": -0.00148,
				"method": "rhf"
			},
			{
				"type": "unocc",
				"energy": 0.00386,
				"method": "rhf"
			},
			{
				"type": "unocc",
				"energy": 0.01084,
				"method": "rhf"
			},
			{
				"type": "unocc",
				"energy": 0.07803,
				"method": "rhf"
			}
		],
		"cosmo_sigma_profile": { 
			"-0.025": 0.0,
			"-0.024": 0.0,
			"-0.023": 0.0,
			"-0.022": 0.0,
			"-0.021": 0.0,
			"-0.02": 0.0,
			"-0.019": 0.0,
			"-0.018": 0.0,
			"-0.017": 0.0,
			"-0.016": 0.0,
			"-0.015": 0.0563561880431,
			"-0.014": 0.242906386974,
			"-0.013": 0.805571259626,
			"-0.012": 0.316683738579,
			"-0.011": 1.09227270504,
			"-0.01": 0.720382118621,
			"-0.009": 1.07931209225,
			"-0.008": 1.22891658888,
			"-0.007": 2.21758220282,
			"-0.006": 6.03587860513,
			"-0.005": 16.2677498957,
			"-0.004": 20.3506871647,
			"-0.003": 29.5349479971,
			"-0.002": 34.056113781,
			"-0.001": 36.6189306478,
			"0.0": 28.2139087817,
			"0.001": 22.3930095942,
			"0.002": 17.9419397547,
			"0.003": 17.3846518028,
			"0.004": 17.7519052708,
			"0.005": 17.5992387521,
			"0.006": 14.6705973373,
			"0.007": 3.33640207603,
			"0.008": 2.1341623153,
			"0.009": 2.08500249677,
			"0.01": 2.46659401717,
			"0.011": 1.32748543891,
			"0.012": 0.705703103772,
			"0.013": 0.0,
			"0.014": 0.0,
			"0.015": 0.0,
			"0.016": 0.0,
			"0.017": 0.0,
			"0.018": 0.0,
			"0.019": 0.0,
			"0.02": 0.0,
			"0.021": 0.0,
			"0.022": 0.0,
			"0.023": 0.0,
			"0.024": 0.0,
			"0.025": 0.0
		}
	}
}
