{
	 "smiles": "CNC1=CC=C(OC)C=C1", 
	 "Tm": 307.65, 
	 "num_atms": 21, 
	 "gaussian": { 
		 "optdone": 1, 
		 "sigma_profile": "yes", 
		 "theory": "DFT", 
		 "functional": "B3LYP", 
		 "basiset": "6-31G**", 
		 "properties": { 
			 "R2extent": 2082.0385, 
			 "electric_dipole_moment_norm": 1.64197796879, 
			 "electric_quadrupole_moment_norm": 9.51022141225, 
			 "total_energy": -441.43874799, 
			 "HOMO_LUMO_gap": 0.18452, 
			 "cosmo_polarized_energy": -8.26, 
			 "cosmo_cavitation_energy": 23.97, 
			 "cosmo_dispersion_energy": -17.98, 
			 "cosmo_repulsion_energy": 1.45, 
			 "cosmo_total_nonelectrostatic_energy": 7.45, 
			 "SMD_solvation_energy": 4.08 
		},
		"coords": [
			{
				"x": 0.811659275,
				"y": -2.7295298549,
				"z": 1.407630162,
				"element": "C" 
			},
			{
				"x": 1.2748847997,
				"y": -1.3664180116,
				"z": 1.2350298146,
				"element": "N" 
			},
			{
				"x": 0.393192832,
				"y": -0.3603315766,
				"z": 0.822914858,
				"element": "C" 
			},
			{
				"x": 0.7737426134,
				"y": 0.9918897613,
				"z": 0.9539602909,
				"element": "C" 
			},
			{
				"x": -0.0522647042,
				"y": 2.0161753798,
				"z": 0.5203063229,
				"element": "C" 
			},
			{
				"x": -1.2934685216,
				"y": 1.731016775,
				"z": -0.0690714121,
				"element": "C" 
			},
			{
				"x": -2.0323200317,
				"y": 2.8180027845,
				"z": -0.4655315788,
				"element": "O" 
			},
			{
				"x": -3.2900493594,
				"y": 2.5752951177,
				"z": -1.0658385405,
				"element": "C" 
			},
			{
				"x": -1.6849925907,
				"y": 0.3992790874,
				"z": -0.2067902027,
				"element": "C" 
			},
			{
				"x": -0.8512970183,
				"y": -0.634150072,
				"z": 0.2405890252,
				"element": "C" 
			},
			{
				"x": -0.0628601881,
				"y": -2.821550485,
				"z": 2.0732772516,
				"element": "H" 
			},
			{
				"x": 0.5426252823,
				"y": -3.1683169589,
				"z": 0.440142461,
				"element": "H" 
			},
			{
				"x": 1.6260306003,
				"y": -3.3289012184,
				"z": 1.8218588798,
				"element": "H" 
			},
			{
				"x": 1.9150557305,
				"y": -1.0606275517,
				"z": 1.9544838551,
				"element": "H" 
			},
			{
				"x": 1.7366549162,
				"y": 1.2329742837,
				"z": 1.3989675686,
				"element": "H" 
			},
			{
				"x": 0.245399684,
				"y": 3.0545514421,
				"z": 0.6265683316,
				"element": "H" 
			},
			{
				"x": -3.7077817323,
				"y": 3.554766266,
				"z": -1.3062874349,
				"element": "H" 
			},
			{
				"x": -3.1953617484,
				"y": 1.9889085381,
				"z": -1.990223668,
				"element": "H" 
			},
			{
				"x": -3.9742270527,
				"y": 2.0512472321,
				"z": -0.3841541998,
				"element": "H" 
			},
			{
				"x": -2.6383855468,
				"y": 0.14125281,
				"z": -0.653327008,
				"element": "H" 
			},
			{
				"x": -1.1879372391,
				"y": -1.6584337485,
				"z": 0.1246952234,
				"element": "H" 
			}
		],
		 "valence_orbital": [ 
			{
				"type": "occ",
				"energy": -0.32177,
				"method": "rhf"
			},
			{
				"type": "occ",
				"energy": -0.31429,
				"method": "rhf"
			},
			{
				"type": "occ",
				"energy": -0.25977,
				"method": "rhf"
			},
			{
				"type": "occ",
				"energy": -0.2398,
				"method": "rhf"
			},
			{
				"type": "occ",
				"energy": -0.17625,
				"method": "rhf"
			},
			{
				"type": "unocc",
				"energy": 0.00827,
				"method": "rhf"
			},
			{
				"type": "unocc",
				"energy": 0.03661,
				"method": "rhf"
			},
			{
				"type": "unocc",
				"energy": 0.08774,
				"method": "rhf"
			},
			{
				"type": "unocc",
				"energy": 0.10171,
				"method": "rhf"
			},
			{
				"type": "unocc",
				"energy": 0.1155,
				"method": "rhf"
			}
		],
		"cosmo_sigma_profile": { 
			"-0.025": 0.0,
			"-0.024": 0.0,
			"-0.023": 0.0,
			"-0.022": 0.0,
			"-0.021": 0.0,
			"-0.02": 0.0,
			"-0.019": 0.0,
			"-0.018": 0.0,
			"-0.017": 0.0,
			"-0.016": 0.0,
			"-0.015": 0.0,
			"-0.014": 0.0,
			"-0.013": 0.0294914979704,
			"-0.012": 0.894134339798,
			"-0.011": 1.46193661874,
			"-0.01": 1.03159538295,
			"-0.009": 1.49485670002,
			"-0.008": 1.57055384759,
			"-0.007": 1.58285062512,
			"-0.006": 4.84351555514,
			"-0.005": 15.2161491683,
			"-0.004": 20.5809244798,
			"-0.003": 21.4885478382,
			"-0.002": 18.7314594856,
			"-0.001": 17.0326832815,
			"0.0": 9.72744607723,
			"0.001": 7.25957884255,
			"0.002": 6.57252092083,
			"0.003": 7.27073756596,
			"0.004": 9.25745390174,
			"0.005": 10.3162015731,
			"0.006": 12.195809734,
			"0.007": 10.8312031291,
			"0.008": 1.81419061547,
			"0.009": 1.55415083887,
			"0.01": 2.74742906011,
			"0.011": 2.3197529188,
			"0.012": 0.827459684364,
			"0.013": 0.467935758372,
			"0.014": 0.0513335916841,
			"0.015": 0.0,
			"0.016": 0.0,
			"0.017": 0.0,
			"0.018": 0.0,
			"0.019": 0.0,
			"0.02": 0.0,
			"0.021": 0.0,
			"0.022": 0.0,
			"0.023": 0.0,
			"0.024": 0.0,
			"0.025": 0.0
		}
	}
}
