{
	 "smiles": "CS(=O)(=O)C(CC1=CC=CC=C1)C(O)=O", 
	 "Tm": 390.15, 
	 "num_atms": 27, 
	 "gaussian": { 
		 "optdone": 1, 
		 "sigma_profile": "yes", 
		 "theory": "DFT", 
		 "functional": "B3LYP", 
		 "basiset": "6-31G**", 
		 "properties": { 
			 "R2extent": 3905.0832, 
			 "electric_dipole_moment_norm": 6.43217408657, 
			 "electric_quadrupole_moment_norm": 13.8638756656, 
			 "total_energy": -1087.33283299, 
			 "HOMO_LUMO_gap": 0.23495, 
			 "cosmo_polarized_energy": -18.58, 
			 "cosmo_cavitation_energy": 31.22, 
			 "cosmo_dispersion_energy": -22.41, 
			 "cosmo_repulsion_energy": 1.69, 
			 "cosmo_total_nonelectrostatic_energy": 10.5, 
			 "SMD_solvation_energy": 6.1 
		},
		"coords": [
			{
				"x": -1.692644392,
				"y": -0.0414415544,
				"z": -2.2627035174,
				"element": "C" 
			},
			{
				"x": -0.7831994882,
				"y": -1.5281005768,
				"z": -1.8006073121,
				"element": "S" 
			},
			{
				"x": 0.5878511183,
				"y": -1.4403388126,
				"z": -2.3204160609,
				"element": "O" 
			},
			{
				"x": -1.6558726738,
				"y": -2.6645220177,
				"z": -2.216728322,
				"element": "O" 
			},
			{
				"x": -0.736411084,
				"y": -1.5597870443,
				"z": 0.0513143009,
				"element": "C" 
			},
			{
				"x": 0.378474174,
				"y": -0.6550693724,
				"z": 0.6106985892,
				"element": "C" 
			},
			{
				"x": 0.146701578,
				"y": 0.8343479791,
				"z": 0.4663154866,
				"element": "C" 
			},
			{
				"x": 0.9201370713,
				"y": 1.6007621307,
				"z": -0.4166187142,
				"element": "C" 
			},
			{
				"x": 0.7070469439,
				"y": 2.9761001664,
				"z": -0.5432117182,
				"element": "C" 
			},
			{
				"x": -0.2834327027,
				"y": 3.604990458,
				"z": 0.2126220129,
				"element": "C" 
			},
			{
				"x": -1.055998781,
				"y": 2.8524411888,
				"z": 1.1008455199,
				"element": "C" 
			},
			{
				"x": -0.8397041045,
				"y": 1.4802490852,
				"z": 1.2271893118,
				"element": "C" 
			},
			{
				"x": -0.6201863666,
				"y": -3.0044334965,
				"z": 0.6469279927,
				"element": "C" 
			},
			{
				"x": -1.1340051744,
				"y": -4.0177627563,
				"z": -0.0398876413,
				"element": "O" 
			},
			{
				"x": -0.1260238384,
				"y": -3.1478676341,
				"z": 1.7396472452,
				"element": "O" 
			},
			{
				"x": -1.1379304366,
				"y": 0.8408852773,
				"z": -1.9465815654,
				"element": "H" 
			},
			{
				"x": -1.7694293122,
				"y": -0.0874180328,
				"z": -3.3512331249,
				"element": "H" 
			},
			{
				"x": -2.685843977,
				"y": -0.0781918378,
				"z": -1.8137236111,
				"element": "H" 
			},
			{
				"x": -1.7280167443,
				"y": -1.1922105363,
				"z": 0.3450540731,
				"element": "H" 
			},
			{
				"x": 1.3203065253,
				"y": -0.9424772609,
				"z": 0.1349806898,
				"element": "H" 
			},
			{
				"x": 0.4618760977,
				"y": -0.9268173196,
				"z": 1.6663899215,
				"element": "H" 
			},
			{
				"x": 1.6874911083,
				"y": 1.112671901,
				"z": -1.0113057469,
				"element": "H" 
			},
			{
				"x": 1.3181398606,
				"y": 3.5543911998,
				"z": -1.2303319311,
				"element": "H" 
			},
			{
				"x": -0.4482902184,
				"y": 4.6741228092,
				"z": 0.1165598027,
				"element": "H" 
			},
			{
				"x": -1.8210155135,
				"y": 3.3359634592,
				"z": 1.701678685,
				"element": "H" 
			},
			{
				"x": -1.4343038959,
				"y": 0.9061685815,
				"z": 1.934852053,
				"element": "H" 
			},
			{
				"x": -1.4536157739,
				"y": -3.7226559837,
				"z": -0.9297264188,
				"element": "H" 
			}
		],
		 "valence_orbital": [ 
			{
				"type": "occ",
				"energy": -0.31705,
				"method": "rhf"
			},
			{
				"type": "occ",
				"energy": -0.30983,
				"method": "rhf"
			},
			{
				"type": "occ",
				"energy": -0.28365,
				"method": "rhf"
			},
			{
				"type": "occ",
				"energy": -0.26819,
				"method": "rhf"
			},
			{
				"type": "occ",
				"energy": -0.25988,
				"method": "rhf"
			},
			{
				"type": "unocc",
				"energy": -0.02493,
				"method": "rhf"
			},
			{
				"type": "unocc",
				"energy": -0.01972,
				"method": "rhf"
			},
			{
				"type": "unocc",
				"energy": -0.00816,
				"method": "rhf"
			},
			{
				"type": "unocc",
				"energy": 0.03488,
				"method": "rhf"
			},
			{
				"type": "unocc",
				"energy": 0.04397,
				"method": "rhf"
			}
		],
		"cosmo_sigma_profile": { 
			"-0.025": 0.0,
			"-0.024": 0.0,
			"-0.023": 0.0,
			"-0.022": 0.0,
			"-0.021": 0.0,
			"-0.02": 0.0,
			"-0.019": 0.0,
			"-0.018": 0.0,
			"-0.017": 0.0,
			"-0.016": 0.0,
			"-0.015": 0.0181740630766,
			"-0.014": 0.439101940698,
			"-0.013": 1.00012724215,
			"-0.012": 1.58414521518,
			"-0.011": 2.81936888904,
			"-0.01": 3.72161209013,
			"-0.009": 5.64421940716,
			"-0.008": 4.90457964508,
			"-0.007": 8.22122803178,
			"-0.006": 11.9269862161,
			"-0.005": 22.014089077,
			"-0.004": 21.7348131709,
			"-0.003": 17.5917900031,
			"-0.002": 15.0115298026,
			"-0.001": 13.9222616492,
			"0.0": 11.2488735246,
			"0.001": 11.3805407509,
			"0.002": 12.4136286718,
			"0.003": 10.8995138959,
			"0.004": 12.185432615,
			"0.005": 9.71778321461,
			"0.006": 7.0452306071,
			"0.007": 5.17752393786,
			"0.008": 4.92231320316,
			"0.009": 8.63894245249,
			"0.01": 11.5885187466,
			"0.011": 10.0434376704,
			"0.012": 2.21062401437,
			"0.013": 0.204340389113,
			"0.014": 0.0,
			"0.015": 0.0,
			"0.016": 0.0,
			"0.017": 0.0,
			"0.018": 0.0,
			"0.019": 0.0,
			"0.02": 0.0,
			"0.021": 0.0,
			"0.022": 0.0,
			"0.023": 0.0,
			"0.024": 0.0,
			"0.025": 0.0
		}
	}
}
