{
	 "smiles": "NC(=N)C1=NC=C(C=C1)N1CCCC1", 
	 "Tm": 483.15, 
	 "num_atms": 28, 
	 "gaussian": { 
		 "optdone": 1, 
		 "sigma_profile": "yes", 
		 "theory": "DFT", 
		 "functional": "B3LYP", 
		 "basiset": "6-31G**", 
		 "properties": { 
			 "R2extent": 3939.2448, 
			 "electric_dipole_moment_norm": 6.98247604937, 
			 "electric_quadrupole_moment_norm": 15.3861256803, 
			 "total_energy": -608.506641606, 
			 "HOMO_LUMO_gap": 0.17333, 
			 "cosmo_polarized_energy": -16.54, 
			 "cosmo_cavitation_energy": 30.17, 
			 "cosmo_dispersion_energy": -22.65, 
			 "cosmo_repulsion_energy": 1.78, 
			 "cosmo_total_nonelectrostatic_energy": 9.31, 
			 "SMD_solvation_energy": 1.88 
		},
		"coords": [
			{
				"x": -3.9358485428,
				"y": 2.5051164983,
				"z": 0.3918004371,
				"element": "N" 
			},
			{
				"x": -3.2689258121,
				"y": 1.8793726541,
				"z": -0.6657083736,
				"element": "C" 
			},
			{
				"x": -3.7379251075,
				"y": 1.9672114228,
				"z": -1.8534606082,
				"element": "N" 
			},
			{
				"x": -2.0588020047,
				"y": 1.0857173062,
				"z": -0.2824693754,
				"element": "C" 
			},
			{
				"x": -1.2697893678,
				"y": 0.6889504709,
				"z": -1.2962806813,
				"element": "N" 
			},
			{
				"x": -0.1845311752,
				"y": -0.0269680922,
				"z": -1.0379225973,
				"element": "C" 
			},
			{
				"x": 0.2207288934,
				"y": -0.4134483374,
				"z": 0.267476292,
				"element": "C" 
			},
			{
				"x": -0.6233372961,
				"y": -0.0083244069,
				"z": 1.3224201294,
				"element": "C" 
			},
			{
				"x": -1.7614675343,
				"y": 0.7368823031,
				"z": 1.0411140382,
				"element": "C" 
			},
			{
				"x": 1.3611335053,
				"y": -1.1449992998,
				"z": 0.4782251055,
				"element": "N" 
			},
			{
				"x": 1.7585643585,
				"y": -1.659699381,
				"z": 1.7882424413,
				"element": "C" 
			},
			{
				"x": 2.9066612181,
				"y": -2.6277032863,
				"z": 1.4645128028,
				"element": "C" 
			},
			{
				"x": 3.5264792416,
				"y": -2.0296116802,
				"z": 0.1913984592,
				"element": "C" 
			},
			{
				"x": 2.3083984216,
				"y": -1.4997891697,
				"z": -0.5797012912,
				"element": "C" 
			},
			{
				"x": -3.3349404683,
				"y": 2.9752103432,
				"z": 1.0572224223,
				"element": "H" 
			},
			{
				"x": -4.67016697,
				"y": 3.1113276522,
				"z": 0.0453081464,
				"element": "H" 
			},
			{
				"x": -3.1606023437,
				"y": 1.3894924233,
				"z": -2.4687885909,
				"element": "H" 
			},
			{
				"x": 0.405563406,
				"y": -0.3255338331,
				"z": -1.9008848705,
				"element": "H" 
			},
			{
				"x": -0.3926035131,
				"y": -0.2752551727,
				"z": 2.3477573863,
				"element": "H" 
			},
			{
				"x": -2.4316924361,
				"y": 1.0229848341,
				"z": 1.8445913717,
				"element": "H" 
			},
			{
				"x": 2.0919986923,
				"y": -0.8456731069,
				"z": 2.4515053434,
				"element": "H" 
			},
			{
				"x": 0.9205504113,
				"y": -2.1642906449,
				"z": 2.2850720836,
				"element": "H" 
			},
			{
				"x": 2.5038687442,
				"y": -3.6248579363,
				"z": 1.2551369015,
				"element": "H" 
			},
			{
				"x": 3.6180559416,
				"y": -2.72061073,
				"z": 2.2891585741,
				"element": "H" 
			},
			{
				"x": 4.1924798094,
				"y": -1.1989725849,
				"z": 0.450255801,
				"element": "H" 
			},
			{
				"x": 4.1041631537,
				"y": -2.7535285157,
				"z": -0.3890605066,
				"element": "H" 
			},
			{
				"x": 1.8905819597,
				"y": -2.2679850886,
				"z": -1.2491667709,
				"element": "H" 
			},
			{
				"x": 2.556104815,
				"y": -0.6274146417,
				"z": -1.19615407,
				"element": "H" 
			}
		],
		 "valence_orbital": [ 
			{
				"type": "occ",
				"energy": -0.2728,
				"method": "rhf"
			},
			{
				"type": "occ",
				"energy": -0.25207,
				"method": "rhf"
			},
			{
				"type": "occ",
				"energy": -0.24041,
				"method": "rhf"
			},
			{
				"type": "occ",
				"energy": -0.22614,
				"method": "rhf"
			},
			{
				"type": "occ",
				"energy": -0.19634,
				"method": "rhf"
			},
			{
				"type": "unocc",
				"energy": -0.02301,
				"method": "rhf"
			},
			{
				"type": "unocc",
				"energy": -0.01185,
				"method": "rhf"
			},
			{
				"type": "unocc",
				"energy": 0.06936,
				"method": "rhf"
			},
			{
				"type": "unocc",
				"energy": 0.0756,
				"method": "rhf"
			},
			{
				"type": "unocc",
				"energy": 0.09523,
				"method": "rhf"
			}
		],
		"cosmo_sigma_profile": { 
			"-0.025": 0.0,
			"-0.024": 0.0,
			"-0.023": 0.0,
			"-0.022": 0.0,
			"-0.021": 0.0,
			"-0.02": 0.0,
			"-0.019": 0.0,
			"-0.018": 0.0,
			"-0.017": 0.0,
			"-0.016": 0.0,
			"-0.015": 0.0,
			"-0.014": 0.0,
			"-0.013": 0.256245287471,
			"-0.012": 1.51366348804,
			"-0.011": 2.35304762963,
			"-0.01": 2.15991943284,
			"-0.009": 2.83035455235,
			"-0.008": 2.36812682251,
			"-0.007": 3.74491149111,
			"-0.006": 7.52468420409,
			"-0.005": 11.748554621,
			"-0.004": 23.6667367343,
			"-0.003": 31.8414550908,
			"-0.002": 27.3201031446,
			"-0.001": 17.2192439901,
			"0.0": 15.8713549832,
			"0.001": 9.66224580709,
			"0.002": 13.1714529956,
			"0.003": 16.8526916633,
			"0.004": 8.52674580918,
			"0.005": 4.19828941377,
			"0.006": 4.15958929729,
			"0.007": 5.04657389209,
			"0.008": 4.58951698911,
			"0.009": 3.37554688083,
			"0.01": 3.20830377356,
			"0.011": 2.90652639069,
			"0.012": 1.84020143904,
			"0.013": 2.56129166189,
			"0.014": 1.25378143549,
			"0.015": 1.25331125188,
			"0.016": 1.08340850576,
			"0.017": 1.42216359931,
			"0.018": 0.770207814719,
			"0.019": 1.06021910123,
			"0.02": 0.122450837035,
			"0.021": 0.0,
			"0.022": 0.0,
			"0.023": 0.0,
			"0.024": 0.0,
			"0.025": 0.0
		}
	}
}
