{
	 "smiles": "ClCCC#N", 
	 "Tm": 222.65, 
	 "num_atms": 9, 
	 "gaussian": { 
		 "optdone": 1, 
		 "sigma_profile": "yes", 
		 "theory": "DFT", 
		 "functional": "B3LYP", 
		 "basiset": "6-31G**", 
		 "properties": { 
			 "R2extent": 803.4501, 
			 "electric_dipole_moment_norm": 4.36385162443, 
			 "electric_quadrupole_moment_norm": 10.3940850598, 
			 "total_energy": -631.656255816, 
			 "HOMO_LUMO_gap": 0.31534, 
			 "cosmo_polarized_energy": -11.8, 
			 "cosmo_cavitation_energy": 15.38, 
			 "cosmo_dispersion_energy": -11.0, 
			 "cosmo_repulsion_energy": 1.0, 
			 "cosmo_total_nonelectrostatic_energy": 5.38, 
			 "SMD_solvation_energy": 3.93 
		},
		"coords": [
			{
				"x": -0.082741074,
				"y": -2.1652843913,
				"z": 0.5340653379,
				"element": "Cl" 
			},
			{
				"x": 0.345794396,
				"y": -0.9821875,
				"z": 1.8295892788,
				"element": "C" 
			},
			{
				"x": 0.2434707733,
				"y": 0.4675983408,
				"z": 1.3441382507,
				"element": "C" 
			},
			{
				"x": 1.2416421646,
				"y": 0.8239708399,
				"z": 0.3321894397,
				"element": "C" 
			},
			{
				"x": 2.0418222419,
				"y": 1.1165233905,
				"z": -0.4550484745,
				"element": "N" 
			},
			{
				"x": 1.3571671637,
				"y": -1.221021356,
				"z": 2.1593287007,
				"element": "H" 
			},
			{
				"x": -0.3521966766,
				"y": -1.1447870173,
				"z": 2.6515441738,
				"element": "H" 
			},
			{
				"x": 0.378618062,
				"y": 1.129300351,
				"z": 2.209396528,
				"element": "H" 
			},
			{
				"x": -0.7568770508,
				"y": 0.6592873424,
				"z": 0.9421967649,
				"element": "H" 
			}
		],
		 "valence_orbital": [ 
			{
				"type": "occ",
				"energy": -0.36402,
				"method": "rhf"
			},
			{
				"type": "occ",
				"energy": -0.33829,
				"method": "rhf"
			},
			{
				"type": "occ",
				"energy": -0.33301,
				"method": "rhf"
			},
			{
				"type": "occ",
				"energy": -0.31363,
				"method": "rhf"
			},
			{
				"type": "occ",
				"energy": -0.31148,
				"method": "rhf"
			},
			{
				"type": "unocc",
				"energy": 0.00386,
				"method": "rhf"
			},
			{
				"type": "unocc",
				"energy": 0.02457,
				"method": "rhf"
			},
			{
				"type": "unocc",
				"energy": 0.02912,
				"method": "rhf"
			},
			{
				"type": "unocc",
				"energy": 0.08128,
				"method": "rhf"
			},
			{
				"type": "unocc",
				"energy": 0.1104,
				"method": "rhf"
			}
		],
		"cosmo_sigma_profile": { 
			"-0.025": 0.0,
			"-0.024": 0.0,
			"-0.023": 0.0,
			"-0.022": 0.0,
			"-0.021": 0.0,
			"-0.02": 0.0,
			"-0.019": 0.0,
			"-0.018": 0.0,
			"-0.017": 0.0,
			"-0.016": 0.0,
			"-0.015": 0.0,
			"-0.014": 0.0,
			"-0.013": 0.0,
			"-0.012": 0.0,
			"-0.011": 0.0,
			"-0.01": 1.80764849526,
			"-0.009": 9.14433644687,
			"-0.008": 12.9405002943,
			"-0.007": 8.37737555236,
			"-0.006": 8.10377460927,
			"-0.005": 5.24470804895,
			"-0.004": 3.18536248883,
			"-0.003": 2.39144834484,
			"-0.002": 2.93587962786,
			"-0.001": 4.56387416625,
			"0.0": 4.32881180316,
			"0.001": 3.41723222096,
			"0.002": 4.31705060391,
			"0.003": 6.56187858422,
			"0.004": 8.22184370808,
			"0.005": 10.1316223259,
			"0.006": 9.70362369975,
			"0.007": 2.94627816741,
			"0.008": 3.48780743379,
			"0.009": 3.34448874103,
			"0.01": 3.28509744471,
			"0.011": 2.7509428354,
			"0.012": 2.44815472138,
			"0.013": 1.47883225575,
			"0.014": 0.108679689763,
			"0.015": 0.0,
			"0.016": 0.0,
			"0.017": 0.0,
			"0.018": 0.0,
			"0.019": 0.0,
			"0.02": 0.0,
			"0.021": 0.0,
			"0.022": 0.0,
			"0.023": 0.0,
			"0.024": 0.0,
			"0.025": 0.0
		}
	}
}
