{
	 "smiles": "OS(=O)(=O)C1=CC2=C(NC=N2)C=C1", 
	 "Tm": 633.15, 
	 "num_atms": 19, 
	 "gaussian": { 
		 "optdone": 1, 
		 "sigma_profile": "yes", 
		 "theory": "DFT", 
		 "functional": "B3LYP", 
		 "basiset": "6-31G**", 
		 "properties": { 
			 "R2extent": 3986.8289, 
			 "electric_dipole_moment_norm": 7.08303746002, 
			 "electric_quadrupole_moment_norm": 21.8489836439, 
			 "total_energy": -1003.65917968, 
			 "HOMO_LUMO_gap": 0.20782, 
			 "cosmo_polarized_energy": -23.46, 
			 "cosmo_cavitation_energy": 25.28, 
			 "cosmo_dispersion_energy": -19.69, 
			 "cosmo_repulsion_energy": 1.49, 
			 "cosmo_total_nonelectrostatic_energy": 7.08, 
			 "SMD_solvation_energy": 1.67 
		},
		"coords": [
			{
				"x": 0.356087984,
				"y": -3.3951569215,
				"z": -0.5940443604,
				"element": "O" 
			},
			{
				"x": 0.8136739141,
				"y": -3.3272652782,
				"z": 0.9906453591,
				"element": "S" 
			},
			{
				"x": 2.1481447216,
				"y": -3.9262085828,
				"z": 1.0612785706,
				"element": "O" 
			},
			{
				"x": -0.2775742893,
				"y": -3.840407138,
				"z": 1.8104944899,
				"element": "O" 
			},
			{
				"x": 0.9175384293,
				"y": -1.5620098849,
				"z": 1.1839176212,
				"element": "C" 
			},
			{
				"x": -0.1921409053,
				"y": -0.8824753372,
				"z": 1.6766876955,
				"element": "C" 
			},
			{
				"x": -0.07377712,
				"y": 0.5038743295,
				"z": 1.8097168756,
				"element": "C" 
			},
			{
				"x": 1.1390687709,
				"y": 1.1481390035,
				"z": 1.4529844668,
				"element": "C" 
			},
			{
				"x": 0.9066682896,
				"y": 2.4828693274,
				"z": 1.7124358602,
				"element": "N" 
			},
			{
				"x": -0.3832731726,
				"y": 2.5779103402,
				"z": 2.1937493393,
				"element": "C" 
			},
			{
				"x": -1.0008307119,
				"y": 1.4295591858,
				"z": 2.2685801319,
				"element": "N" 
			},
			{
				"x": 2.2513307887,
				"y": 0.4542956117,
				"z": 0.9664419631,
				"element": "C" 
			},
			{
				"x": 2.1248428943,
				"y": -0.9220480686,
				"z": 0.8342883956,
				"element": "C" 
			},
			{
				"x": 0.7423279402,
				"y": -4.2124239141,
				"z": -0.9538260658,
				"element": "H" 
			},
			{
				"x": -1.1003416184,
				"y": -1.4049579281,
				"z": 1.9527638376,
				"element": "H" 
			},
			{
				"x": 1.5522311335,
				"y": 3.2459259174,
				"z": 1.5787081177,
				"element": "H" 
			},
			{
				"x": -0.8078335354,
				"y": 3.5339232331,
				"z": 2.4724572203,
				"element": "H" 
			},
			{
				"x": 3.1775837363,
				"y": 0.9570885188,
				"z": 0.7075376776,
				"element": "H" 
			},
			{
				"x": 2.9561727501,
				"y": -1.5196324141,
				"z": 0.4784828041,
				"element": "H" 
			}
		],
		 "valence_orbital": [ 
			{
				"type": "occ",
				"energy": -0.31693,
				"method": "rhf"
			},
			{
				"type": "occ",
				"energy": -0.29499,
				"method": "rhf"
			},
			{
				"type": "occ",
				"energy": -0.29128,
				"method": "rhf"
			},
			{
				"type": "occ",
				"energy": -0.25789,
				"method": "rhf"
			},
			{
				"type": "occ",
				"energy": -0.25024,
				"method": "rhf"
			},
			{
				"type": "unocc",
				"energy": -0.04242,
				"method": "rhf"
			},
			{
				"type": "unocc",
				"energy": -0.0247,
				"method": "rhf"
			},
			{
				"type": "unocc",
				"energy": 0.03209,
				"method": "rhf"
			},
			{
				"type": "unocc",
				"energy": 0.04535,
				"method": "rhf"
			},
			{
				"type": "unocc",
				"energy": 0.05743,
				"method": "rhf"
			}
		],
		"cosmo_sigma_profile": { 
			"-0.025": 0.0,
			"-0.024": 0.0,
			"-0.023": 0.0,
			"-0.022": 0.0,
			"-0.021": 0.0,
			"-0.02": 0.553164708931,
			"-0.019": 1.06392920178,
			"-0.018": 1.04922648383,
			"-0.017": 2.88755161769,
			"-0.016": 2.95552858691,
			"-0.015": 1.61637305794,
			"-0.014": 1.98165414074,
			"-0.013": 2.50246723437,
			"-0.012": 2.08726030747,
			"-0.011": 2.66122624445,
			"-0.01": 4.26969563898,
			"-0.009": 3.62264917127,
			"-0.008": 6.12214532636,
			"-0.007": 5.78435608237,
			"-0.006": 8.20052576531,
			"-0.005": 6.38145708327,
			"-0.004": 6.15552028406,
			"-0.003": 7.26407979773,
			"-0.002": 8.31215050574,
			"-0.001": 9.46384904288,
			"0.0": 14.9186691027,
			"0.001": 15.5218195019,
			"0.002": 15.9201798995,
			"0.003": 9.72149761289,
			"0.004": 6.43316544943,
			"0.005": 5.27545507528,
			"0.006": 4.77044747588,
			"0.007": 6.76968397476,
			"0.008": 7.34174765618,
			"0.009": 8.63313802179,
			"0.01": 11.2820779763,
			"0.011": 6.45399951385,
			"0.012": 0.796360793967,
			"0.013": 1.21666602803,
			"0.014": 1.12088459757,
			"0.015": 1.09298406962,
			"0.016": 0.79469264383,
			"0.017": 0.368835993394,
			"0.018": 0.0,
			"0.019": 0.0,
			"0.02": 0.0,
			"0.021": 0.0,
			"0.022": 0.0,
			"0.023": 0.0,
			"0.024": 0.0,
			"0.025": 0.0
		}
	}
}
