{
	 "smiles": "OCC(O)C(O)C(O)C(O)C(O)=O", 
	 "Tm": 404.15, 
	 "num_atms": 25, 
	 "gaussian": { 
		 "optdone": 1, 
		 "sigma_profile": "yes", 
		 "theory": "DFT", 
		 "functional": "B3LYP", 
		 "basiset": "6-31G**", 
		 "properties": { 
			 "R2extent": 2507.2734, 
			 "electric_dipole_moment_norm": 4.54609836783, 
			 "electric_quadrupole_moment_norm": 15.3090326981, 
			 "total_energy": -762.417368047, 
			 "HOMO_LUMO_gap": 0.27564, 
			 "cosmo_polarized_energy": -18.9, 
			 "cosmo_cavitation_energy": 26.69, 
			 "cosmo_dispersion_energy": -19.81, 
			 "cosmo_repulsion_energy": 1.59, 
			 "cosmo_total_nonelectrostatic_energy": 8.46, 
			 "SMD_solvation_energy": 5.41 
		},
		"coords": [
			{
				"x": -0.8594372983,
				"y": 1.8610082718,
				"z": 2.9354690624,
				"element": "O" 
			},
			{
				"x": -0.1690167956,
				"y": 2.2092097698,
				"z": 1.7370813156,
				"element": "C" 
			},
			{
				"x": -0.0159658631,
				"y": 0.9039928188,
				"z": 0.9522894459,
				"element": "C" 
			},
			{
				"x": -1.2882001695,
				"y": 0.2630813053,
				"z": 0.8585435855,
				"element": "O" 
			},
			{
				"x": 0.4495587029,
				"y": 1.171157889,
				"z": -0.4879715382,
				"element": "C" 
			},
			{
				"x": -0.6613129903,
				"y": 1.6710073826,
				"z": -1.2407878893,
				"element": "O" 
			},
			{
				"x": 1.0354956691,
				"y": -0.0215246354,
				"z": -1.2886132857,
				"element": "C" 
			},
			{
				"x": -0.0021629133,
				"y": -0.8704053356,
				"z": -1.7885723174,
				"element": "O" 
			},
			{
				"x": 2.0432562143,
				"y": -0.9154920272,
				"z": -0.549922565,
				"element": "C" 
			},
			{
				"x": 3.0386177873,
				"y": -0.1030638341,
				"z": 0.0219723258,
				"element": "O" 
			},
			{
				"x": 1.4637158858,
				"y": -1.8476055326,
				"z": 0.535530419,
				"element": "C" 
			},
			{
				"x": 0.3320927265,
				"y": -2.4859937734,
				"z": 0.2643197631,
				"element": "O" 
			},
			{
				"x": 2.0894848123,
				"y": -2.0143419032,
				"z": 1.5660311411,
				"element": "O" 
			},
			{
				"x": -1.1731974346,
				"y": 2.6655693802,
				"z": 3.3645545662,
				"element": "H" 
			},
			{
				"x": 0.8215821515,
				"y": 2.6362476113,
				"z": 1.9480035686,
				"element": "H" 
			},
			{
				"x": -0.7420560908,
				"y": 2.9311894173,
				"z": 1.1382464955,
				"element": "H" 
			},
			{
				"x": 0.7007494568,
				"y": 0.2686397463,
				"z": 1.4840576922,
				"element": "H" 
			},
			{
				"x": -1.7014341319,
				"y": 0.3828044683,
				"z": 1.729040355,
				"element": "H" 
			},
			{
				"x": 1.2255216135,
				"y": 1.9432695955,
				"z": -0.4593053976,
				"element": "H" 
			},
			{
				"x": -1.4413475926,
				"y": 1.3709388754,
				"z": -0.7383315211,
				"element": "H" 
			},
			{
				"x": 1.5647604306,
				"y": 0.4244878253,
				"z": -2.1423156349,
				"element": "H" 
			},
			{
				"x": -0.7199821063,
				"y": -0.2639866369,
				"z": -2.0370518029,
				"element": "H" 
			},
			{
				"x": 2.4696127972,
				"y": -1.599415223,
				"z": -1.3063619646,
				"element": "H" 
			},
			{
				"x": 3.2723791586,
				"y": -0.5589369936,
				"z": 0.8524369572,
				"element": "H" 
			},
			{
				"x": -0.0653140201,
				"y": -2.0759384619,
				"z": -0.5425427765,
				"element": "H" 
			}
		],
		 "valence_orbital": [ 
			{
				"type": "occ",
				"energy": -0.29951,
				"method": "rhf"
			},
			{
				"type": "occ",
				"energy": -0.29427,
				"method": "rhf"
			},
			{
				"type": "occ",
				"energy": -0.28602,
				"method": "rhf"
			},
			{
				"type": "occ",
				"energy": -0.28316,
				"method": "rhf"
			},
			{
				"type": "occ",
				"energy": -0.26794,
				"method": "rhf"
			},
			{
				"type": "unocc",
				"energy": 0.0077,
				"method": "rhf"
			},
			{
				"type": "unocc",
				"energy": 0.04293,
				"method": "rhf"
			},
			{
				"type": "unocc",
				"energy": 0.06205,
				"method": "rhf"
			},
			{
				"type": "unocc",
				"energy": 0.08929,
				"method": "rhf"
			},
			{
				"type": "unocc",
				"energy": 0.10453,
				"method": "rhf"
			}
		],
		"cosmo_sigma_profile": { 
			"-0.025": 0.0,
			"-0.024": 0.0,
			"-0.023": 0.0,
			"-0.022": 0.0,
			"-0.021": 0.0,
			"-0.02": 0.0,
			"-0.019": 0.0,
			"-0.018": 0.0,
			"-0.017": 0.359567495429,
			"-0.016": 1.40564580152,
			"-0.015": 0.690724997504,
			"-0.014": 1.63407373618,
			"-0.013": 1.09538480645,
			"-0.012": 2.24411804772,
			"-0.011": 3.12808904514,
			"-0.01": 3.31100914844,
			"-0.009": 3.22608620367,
			"-0.008": 5.46526709432,
			"-0.007": 8.09868681465,
			"-0.006": 12.5722628628,
			"-0.005": 16.7031005861,
			"-0.004": 15.7419250696,
			"-0.003": 15.7714620644,
			"-0.002": 11.0504183698,
			"-0.001": 7.7690229407,
			"0.0": 9.05073299976,
			"0.001": 7.69876174005,
			"0.002": 7.10918210897,
			"0.003": 5.85066797901,
			"0.004": 6.18111426232,
			"0.005": 5.52831627599,
			"0.006": 7.66200301669,
			"0.007": 6.8619837499,
			"0.008": 7.18968163173,
			"0.009": 9.61025441175,
			"0.01": 7.91326508802,
			"0.011": 6.5305135544,
			"0.012": 5.66410889797,
			"0.013": 3.71200499401,
			"0.014": 0.245793909069,
			"0.015": 0.0,
			"0.016": 0.0,
			"0.017": 0.0,
			"0.018": 0.0,
			"0.019": 0.0,
			"0.02": 0.0,
			"0.021": 0.0,
			"0.022": 0.0,
			"0.023": 0.0,
			"0.024": 0.0,
			"0.025": 0.0
		}
	}
}
