{
	 "smiles": "CCCCC(=O)C1=CC=C(Cl)C=C1", 
	 "Tm": 304.15, 
	 "num_atms": 26, 
	 "gaussian": { 
		 "optdone": 1, 
		 "sigma_profile": "yes", 
		 "theory": "DFT", 
		 "functional": "B3LYP", 
		 "basiset": "6-31G**", 
		 "properties": { 
			 "R2extent": 4167.612, 
			 "electric_dipole_moment_norm": 2.26610853447, 
			 "electric_quadrupole_moment_norm": 6.93178527365, 
			 "total_energy": -962.43394786, 
			 "HOMO_LUMO_gap": 0.18576, 
			 "cosmo_polarized_energy": -7.55, 
			 "cosmo_cavitation_energy": 30.54, 
			 "cosmo_dispersion_energy": -21.88, 
			 "cosmo_repulsion_energy": 1.75, 
			 "cosmo_total_nonelectrostatic_energy": 10.42, 
			 "SMD_solvation_energy": 5.07 
		},
		"coords": [
			{
				"x": -0.5715867941,
				"y": -0.4176484153,
				"z": 3.2571320843,
				"element": "C" 
			},
			{
				"x": 0.6178768874,
				"y": -1.3340241364,
				"z": 2.9473995113,
				"element": "C" 
			},
			{
				"x": 1.0282722614,
				"y": -1.4116257771,
				"z": 1.4665280336,
				"element": "C" 
			},
			{
				"x": 0.0109171363,
				"y": -2.1115237275,
				"z": 0.5264141146,
				"element": "C" 
			},
			{
				"x": -1.1560082909,
				"y": -1.2503969393,
				"z": 0.0580070954,
				"element": "C" 
			},
			{
				"x": -2.2831228489,
				"y": -1.4267985116,
				"z": 0.50038398,
				"element": "O" 
			},
			{
				"x": -0.9172308256,
				"y": -0.1768623458,
				"z": -0.9663871057,
				"element": "C" 
			},
			{
				"x": 0.3118357717,
				"y": 0.0161334192,
				"z": -1.6152490213,
				"element": "C" 
			},
			{
				"x": 0.4688884855,
				"y": 1.0233941325,
				"z": -2.5661325106,
				"element": "C" 
			},
			{
				"x": -0.6164353792,
				"y": 1.8456852213,
				"z": -2.8676685038,
				"element": "C" 
			},
			{
				"x": -0.4264639804,
				"y": 3.116921636,
				"z": -4.0614991373,
				"element": "Cl" 
			},
			{
				"x": -1.8520393089,
				"y": 1.6752580963,
				"z": -2.2379978492,
				"element": "C" 
			},
			{
				"x": -1.9926318661,
				"y": 0.6648107215,
				"z": -1.2941521233,
				"element": "C" 
			},
			{
				"x": -0.7344316179,
				"y": -0.3506122107,
				"z": 4.3379155829,
				"element": "H" 
			},
			{
				"x": -1.4954035499,
				"y": -0.7824624494,
				"z": 2.8019817179,
				"element": "H" 
			},
			{
				"x": -0.3931907093,
				"y": 0.5993401964,
				"z": 2.8875443153,
				"element": "H" 
			},
			{
				"x": 1.4918550285,
				"y": -0.990923427,
				"z": 3.5162709844,
				"element": "H" 
			},
			{
				"x": 0.4024134463,
				"y": -2.3487649993,
				"z": 3.3084237554,
				"element": "H" 
			},
			{
				"x": 1.2480709647,
				"y": -0.4025873251,
				"z": 1.095123077,
				"element": "H" 
			},
			{
				"x": 1.9701568945,
				"y": -1.9699104515,
				"z": 1.4029103339,
				"element": "H" 
			},
			{
				"x": 0.5428674017,
				"y": -2.4831923384,
				"z": -0.3577997771,
				"element": "H" 
			},
			{
				"x": -0.4253785569,
				"y": -2.9788631515,
				"z": 1.0304675667,
				"element": "H" 
			},
			{
				"x": 1.1609190207,
				"y": -0.6200088408,
				"z": -1.390023981,
				"element": "H" 
			},
			{
				"x": 1.4181878328,
				"y": 1.1700701083,
				"z": -3.0689570939,
				"element": "H" 
			},
			{
				"x": -2.6831120841,
				"y": 2.3252015607,
				"z": -2.4885238462,
				"element": "H" 
			},
			{
				"x": -2.9396253194,
				"y": 0.5028899544,
				"z": -0.7905112035,
				"element": "H" 
			}
		],
		 "valence_orbital": [ 
			{
				"type": "occ",
				"energy": -0.32099,
				"method": "rhf"
			},
			{
				"type": "occ",
				"energy": -0.31907,
				"method": "rhf"
			},
			{
				"type": "occ",
				"energy": -0.27419,
				"method": "rhf"
			},
			{
				"type": "occ",
				"energy": -0.25663,
				"method": "rhf"
			},
			{
				"type": "occ",
				"energy": -0.2507,
				"method": "rhf"
			},
			{
				"type": "unocc",
				"energy": -0.06494,
				"method": "rhf"
			},
			{
				"type": "unocc",
				"energy": -0.02367,
				"method": "rhf"
			},
			{
				"type": "unocc",
				"energy": 0.02215,
				"method": "rhf"
			},
			{
				"type": "unocc",
				"energy": 0.02618,
				"method": "rhf"
			},
			{
				"type": "unocc",
				"energy": 0.08496,
				"method": "rhf"
			}
		],
		"cosmo_sigma_profile": { 
			"-0.025": 0.0,
			"-0.024": 0.0,
			"-0.023": 0.0,
			"-0.022": 0.0,
			"-0.021": 0.0,
			"-0.02": 0.0,
			"-0.019": 0.0,
			"-0.018": 0.0,
			"-0.017": 0.0,
			"-0.016": 0.0,
			"-0.015": 0.0,
			"-0.014": 0.0,
			"-0.013": 0.0,
			"-0.012": 0.0,
			"-0.011": 0.0,
			"-0.01": 0.0,
			"-0.009": 0.0,
			"-0.008": 2.34009221822,
			"-0.007": 6.42281596323,
			"-0.006": 8.77859459614,
			"-0.005": 9.49485038111,
			"-0.004": 10.1925626988,
			"-0.003": 20.0291513955,
			"-0.002": 27.2459777139,
			"-0.001": 28.0640262258,
			"0.0": 26.4946640978,
			"0.001": 30.5222059794,
			"0.002": 27.2254258698,
			"0.003": 14.3433277152,
			"0.004": 12.978538049,
			"0.005": 4.38093319277,
			"0.006": 1.77340809609,
			"0.007": 1.72289810309,
			"0.008": 1.45100116245,
			"0.009": 1.74774203644,
			"0.01": 1.51067214042,
			"0.011": 2.89915646954,
			"0.012": 2.91666161843,
			"0.013": 0.976911716713,
			"0.014": 0.0660344832047,
			"0.015": 0.0,
			"0.016": 0.0,
			"0.017": 0.0,
			"0.018": 0.0,
			"0.019": 0.0,
			"0.02": 0.0,
			"0.021": 0.0,
			"0.022": 0.0,
			"0.023": 0.0,
			"0.024": 0.0,
			"0.025": 0.0
		}
	}
}
