{
	 "smiles": "NC1=CC2=C(C=C1)N=CNC2=O", 
	 "Tm": 583.15, 
	 "num_atms": 19, 
	 "gaussian": { 
		 "optdone": 1, 
		 "sigma_profile": "yes", 
		 "theory": "DFT", 
		 "functional": "B3LYP", 
		 "basiset": "6-31G**", 
		 "properties": { 
			 "R2extent": 2361.6129, 
			 "electric_dipole_moment_norm": 1.7353556235, 
			 "electric_quadrupole_moment_norm": 18.289037677, 
			 "total_energy": -548.577976489, 
			 "HOMO_LUMO_gap": 0.16379, 
			 "cosmo_polarized_energy": -17.76, 
			 "cosmo_cavitation_energy": 23.39, 
			 "cosmo_dispersion_energy": -17.81, 
			 "cosmo_repulsion_energy": 1.4, 
			 "cosmo_total_nonelectrostatic_energy": 6.99, 
			 "SMD_solvation_energy": 3.38 
		},
		"coords": [
			{
				"x": 1.583710231,
				"y": 1.252972859,
				"z": -1.4828606208,
				"element": "N" 
			},
			{
				"x": 0.8835440231,
				"y": 0.5705518395,
				"z": -0.4919804636,
				"element": "C" 
			},
			{
				"x": -0.4476676834,
				"y": 0.8770993946,
				"z": -0.2015899582,
				"element": "C" 
			},
			{
				"x": -1.1148068342,
				"y": 0.2193846799,
				"z": 0.8371972389,
				"element": "C" 
			},
			{
				"x": -0.4658995632,
				"y": -0.7694228895,
				"z": 1.6160566393,
				"element": "C" 
			},
			{
				"x": 0.8762724433,
				"y": -1.0707069842,
				"z": 1.3125693978,
				"element": "C" 
			},
			{
				"x": 1.5343326309,
				"y": -0.4178284916,
				"z": 0.2869945045,
				"element": "C" 
			},
			{
				"x": -1.0934278967,
				"y": -1.448916,
				"z": 2.6556472688,
				"element": "N" 
			},
			{
				"x": -2.3212730401,
				"y": -1.1377924119,
				"z": 2.8919388046,
				"element": "C" 
			},
			{
				"x": -3.0358837621,
				"y": -0.1931932664,
				"z": 2.1897344045,
				"element": "N" 
			},
			{
				"x": -2.5170917182,
				"y": 0.5530998779,
				"z": 1.124409062,
				"element": "C" 
			},
			{
				"x": -3.2066677478,
				"y": 1.3770718818,
				"z": 0.5370784886,
				"element": "O" 
			},
			{
				"x": 1.0157160742,
				"y": 1.7081936888,
				"z": -2.1834308753,
				"element": "H" 
			},
			{
				"x": 2.370287656,
				"y": 0.7615952839,
				"z": -1.8833025363,
				"element": "H" 
			},
			{
				"x": -0.9912824672,
				"y": 1.6275029459,
				"z": -0.7677528813,
				"element": "H" 
			},
			{
				"x": 1.3776851723,
				"y": -1.8286077666,
				"z": 1.9055184737,
				"element": "H" 
			},
			{
				"x": 2.5725903407,
				"y": -0.6596901948,
				"z": 0.0723549597,
				"element": "H" 
			},
			{
				"x": -2.8652256201,
				"y": -1.6337287983,
				"z": 3.6931557602,
				"element": "H" 
			},
			{
				"x": -4.0005122385,
				"y": 0.002014352,
				"z": 2.4280623328,
				"element": "H" 
			}
		],
		 "valence_orbital": [ 
			{
				"type": "occ",
				"energy": -0.27213,
				"method": "rhf"
			},
			{
				"type": "occ",
				"energy": -0.26519,
				"method": "rhf"
			},
			{
				"type": "occ",
				"energy": -0.25804,
				"method": "rhf"
			},
			{
				"type": "occ",
				"energy": -0.25742,
				"method": "rhf"
			},
			{
				"type": "occ",
				"energy": -0.20056,
				"method": "rhf"
			},
			{
				"type": "unocc",
				"energy": -0.03677,
				"method": "rhf"
			},
			{
				"type": "unocc",
				"energy": -0.02298,
				"method": "rhf"
			},
			{
				"type": "unocc",
				"energy": 0.03522,
				"method": "rhf"
			},
			{
				"type": "unocc",
				"energy": 0.07149,
				"method": "rhf"
			},
			{
				"type": "unocc",
				"energy": 0.07848,
				"method": "rhf"
			}
		],
		"cosmo_sigma_profile": { 
			"-0.025": 0.0,
			"-0.024": 0.0,
			"-0.023": 0.0,
			"-0.022": 0.0,
			"-0.021": 0.0,
			"-0.02": 0.0,
			"-0.019": 0.0,
			"-0.018": 0.0,
			"-0.017": 0.154781378998,
			"-0.016": 1.30396527552,
			"-0.015": 1.73444546583,
			"-0.014": 1.26858453311,
			"-0.013": 2.49964379969,
			"-0.012": 3.88159413118,
			"-0.011": 4.14137933703,
			"-0.01": 5.23534011027,
			"-0.009": 6.40651320674,
			"-0.008": 5.16248082824,
			"-0.007": 6.01261768326,
			"-0.006": 6.83888284707,
			"-0.005": 7.16844561413,
			"-0.004": 7.16258788974,
			"-0.003": 6.96560472735,
			"-0.002": 9.81823605613,
			"-0.001": 12.1336255139,
			"0.0": 8.4805995412,
			"0.001": 8.28625707328,
			"0.002": 9.51348060606,
			"0.003": 14.7793169141,
			"0.004": 16.2595467974,
			"0.005": 6.06231638396,
			"0.006": 3.34396106724,
			"0.007": 4.95207574101,
			"0.008": 2.86509854725,
			"0.009": 2.45017574693,
			"0.01": 2.99909249869,
			"0.011": 4.09600110189,
			"0.012": 3.815489298,
			"0.013": 7.39196659417,
			"0.014": 2.74409648676,
			"0.015": 0.781234708346,
			"0.016": 0.430824797435,
			"0.017": 0.0,
			"0.018": 0.0,
			"0.019": 0.0,
			"0.02": 0.0,
			"0.021": 0.0,
			"0.022": 0.0,
			"0.023": 0.0,
			"0.024": 0.0,
			"0.025": 0.0
		}
	}
}
