{
	 "smiles": "FC1=CC(Br)=C(CS(Cl)(=O)=O)C=C1", 
	 "Tm": 319.15, 
	 "num_atms": 18, 
	 "gaussian": { 
		 "optdone": 1, 
		 "sigma_profile": "yes", 
		 "theory": "DFT", 
		 "functional": "B3LYP", 
		 "basiset": "6-31G**", 
		 "properties": { 
			 "R2extent": 5095.5177, 
			 "electric_dipole_moment_norm": 4.12339234369, 
			 "electric_quadrupole_moment_norm": 9.89631159069, 
			 "total_energy": -3949.75758975, 
			 "HOMO_LUMO_gap": 0.17506, 
			 "cosmo_polarized_energy": -10.96, 
			 "cosmo_cavitation_energy": 28.89, 
			 "cosmo_dispersion_energy": -21.22, 
			 "cosmo_repulsion_energy": 1.61, 
			 "cosmo_total_nonelectrostatic_energy": 9.28, 
			 "SMD_solvation_energy": 2.96 
		},
		"coords": [
			{
				"x": 2.106856974,
				"y": 0.1079314089,
				"z": 3.1082320503,
				"element": "F" 
			},
			{
				"x": 1.6629169354,
				"y": 0.2185031269,
				"z": 1.8463828223,
				"element": "C" 
			},
			{
				"x": 1.1251203734,
				"y": 1.4323722267,
				"z": 1.4355167626,
				"element": "C" 
			},
			{
				"x": 0.6637649027,
				"y": 1.5466504016,
				"z": 0.1260538453,
				"element": "C" 
			},
			{
				"x": -0.0664312185,
				"y": 3.2300784515,
				"z": -0.3977075166,
				"element": "Br" 
			},
			{
				"x": 0.7470964225,
				"y": 0.4718348015,
				"z": -0.7769025632,
				"element": "C" 
			},
			{
				"x": 0.2671137337,
				"y": 0.5571678099,
				"z": -2.1936646684,
				"element": "C" 
			},
			{
				"x": -1.3826760722,
				"y": -0.2465283136,
				"z": -2.3724808985,
				"element": "S" 
			},
			{
				"x": -1.70284189,
				"y": 0.1437109121,
				"z": -4.4518626996,
				"element": "Cl" 
			},
			{
				"x": -1.2302243578,
				"y": -1.6906524725,
				"z": -2.2312616208,
				"element": "O" 
			},
			{
				"x": -2.3927186299,
				"y": 0.4951944922,
				"z": -1.6309147985,
				"element": "O" 
			},
			{
				"x": 1.2962245704,
				"y": -0.7346460866,
				"z": -0.3094533499,
				"element": "C" 
			},
			{
				"x": 1.7573363732,
				"y": -0.8762987212,
				"z": 0.9938815308,
				"element": "C" 
			},
			{
				"x": 1.0693478165,
				"y": 2.2624683304,
				"z": 2.1281843009,
				"element": "H" 
			},
			{
				"x": 0.1282914213,
				"y": 1.5811428008,
				"z": -2.5398825507,
				"element": "H" 
			},
			{
				"x": 0.9044467425,
				"y": 0.0082423854,
				"z": -2.8896013749,
				"element": "H" 
			},
			{
				"x": 1.349649821,
				"y": -1.5801994959,
				"z": -0.9879424731,
				"element": "H" 
			},
			{
				"x": 2.1807260819,
				"y": -1.8073720579,
				"z": 1.3521232021,
				"element": "H" 
			}
		],
		 "valence_orbital": [ 
			{
				"type": "occ",
				"energy": -0.33275,
				"method": "rhf"
			},
			{
				"type": "occ",
				"energy": -0.31763,
				"method": "rhf"
			},
			{
				"type": "occ",
				"energy": -0.31115,
				"method": "rhf"
			},
			{
				"type": "occ",
				"energy": -0.28086,
				"method": "rhf"
			},
			{
				"type": "occ",
				"energy": -0.26752,
				"method": "rhf"
			},
			{
				"type": "unocc",
				"energy": -0.09246,
				"method": "rhf"
			},
			{
				"type": "unocc",
				"energy": -0.04489,
				"method": "rhf"
			},
			{
				"type": "unocc",
				"energy": -0.03432,
				"method": "rhf"
			},
			{
				"type": "unocc",
				"energy": -0.01881,
				"method": "rhf"
			},
			{
				"type": "unocc",
				"energy": 0.03407,
				"method": "rhf"
			}
		],
		"cosmo_sigma_profile": { 
			"-0.025": 0.0,
			"-0.024": 0.0,
			"-0.023": 0.0,
			"-0.022": 0.0,
			"-0.021": 0.0,
			"-0.02": 0.0,
			"-0.019": 0.0,
			"-0.018": 0.0,
			"-0.017": 0.0,
			"-0.016": 0.0,
			"-0.015": 0.0,
			"-0.014": 0.0,
			"-0.013": 0.0,
			"-0.012": 0.0,
			"-0.011": 1.49273306519,
			"-0.01": 3.28156180243,
			"-0.009": 4.50541133463,
			"-0.008": 8.56245935721,
			"-0.007": 9.22262793483,
			"-0.006": 8.36433544157,
			"-0.005": 8.96527756807,
			"-0.004": 8.80103491521,
			"-0.003": 9.3832097359,
			"-0.002": 12.0506755183,
			"-0.001": 22.0285714986,
			"0.0": 25.7889570012,
			"0.001": 21.3646251122,
			"0.002": 19.8623509239,
			"0.003": 27.9847078615,
			"0.004": 16.7803520202,
			"0.005": 4.96326135318,
			"0.006": 3.51717752064,
			"0.007": 5.46058883508,
			"0.008": 9.91685133081,
			"0.009": 5.59647163693,
			"0.01": 0.0658921934521,
			"0.011": 0.0,
			"0.012": 0.0,
			"0.013": 0.0,
			"0.014": 0.0,
			"0.015": 0.0,
			"0.016": 0.0,
			"0.017": 0.0,
			"0.018": 0.0,
			"0.019": 0.0,
			"0.02": 0.0,
			"0.021": 0.0,
			"0.022": 0.0,
			"0.023": 0.0,
			"0.024": 0.0,
			"0.025": 0.0
		}
	}
}
