{
	 "smiles": "OC1=C(C=NN2C(=S)NN=C2C2=CC=CC=C2)C=CC=C1", 
	 "Tm": 483.15, 
	 "num_atms": 33, 
	 "gaussian": { 
		 "optdone": 1, 
		 "sigma_profile": "yes", 
		 "theory": "DFT", 
		 "functional": "B3LYP", 
		 "basiset": "6-31G**", 
		 "properties": { 
			 "R2extent": 7462.7941, 
			 "electric_dipole_moment_norm": 6.00546456071, 
			 "electric_quadrupole_moment_norm": 21.1385796722, 
			 "total_energy": -1271.19088691, 
			 "HOMO_LUMO_gap": 0.12536, 
			 "cosmo_polarized_energy": -23.37, 
			 "cosmo_cavitation_energy": 39.75, 
			 "cosmo_dispersion_energy": -27.92, 
			 "cosmo_repulsion_energy": 2.07, 
			 "cosmo_total_nonelectrostatic_energy": 13.9, 
			 "SMD_solvation_energy": 4.37 
		},
		"coords": [
			{
				"x": -0.2284013394,
				"y": 2.7360849573,
				"z": 0.2920289178,
				"element": "O" 
			},
			{
				"x": -1.4586844987,
				"y": 2.5420193556,
				"z": 0.8555452783,
				"element": "C" 
			},
			{
				"x": -2.1437915078,
				"y": 1.3078312228,
				"z": 0.8050905234,
				"element": "C" 
			},
			{
				"x": -1.5965262862,
				"y": 0.2014664943,
				"z": 0.0275390541,
				"element": "C" 
			},
			{
				"x": -1.9362552335,
				"y": -1.017845294,
				"z": 0.2637697872,
				"element": "N" 
			},
			{
				"x": -1.3385948685,
				"y": -1.9682910719,
				"z": -0.5557413022,
				"element": "N" 
			},
			{
				"x": -2.0889849626,
				"y": -3.0026285212,
				"z": -1.1122035612,
				"element": "C" 
			},
			{
				"x": -3.7235282836,
				"y": -3.2920010165,
				"z": -1.0402592266,
				"element": "S" 
			},
			{
				"x": -1.1253439571,
				"y": -3.7046006337,
				"z": -1.7771160152,
				"element": "N" 
			},
			{
				"x": 0.1386191046,
				"y": -3.2113573682,
				"z": -1.648197218,
				"element": "N" 
			},
			{
				"x": 0.0041162417,
				"y": -2.146536967,
				"z": -0.8990600063,
				"element": "C" 
			},
			{
				"x": 1.1469935514,
				"y": -1.3205042296,
				"z": -0.4739224813,
				"element": "C" 
			},
			{
				"x": 2.1899378245,
				"y": -1.0972319998,
				"z": -1.3865747411,
				"element": "C" 
			},
			{
				"x": 3.2994450532,
				"y": -0.3394465516,
				"z": -1.0152360539,
				"element": "C" 
			},
			{
				"x": 3.380107942,
				"y": 0.20893451,
				"z": 0.2663730977,
				"element": "C" 
			},
			{
				"x": 2.3521567363,
				"y": -0.02133779,
				"z": 1.185245251,
				"element": "C" 
			},
			{
				"x": 1.2420405628,
				"y": -0.7862747947,
				"z": 0.823518964,
				"element": "C" 
			},
			{
				"x": -3.3832109949,
				"y": 1.1861517837,
				"z": 1.4653221594,
				"element": "C" 
			},
			{
				"x": -3.9480350675,
				"y": 2.2721589843,
				"z": 2.1176199213,
				"element": "C" 
			},
			{
				"x": -3.275901271,
				"y": 3.5026480553,
				"z": 2.1222278233,
				"element": "C" 
			},
			{
				"x": -2.0386982515,
				"y": 3.6384861017,
				"z": 1.5015797491,
				"element": "C" 
			},
			{
				"x": 0.254846011,
				"y": 1.9009191093,
				"z": 0.2291200365,
				"element": "H" 
			},
			{
				"x": -0.9002842021,
				"y": 0.4493682123,
				"z": -0.7788693199,
				"element": "H" 
			},
			{
				"x": -1.2970515597,
				"y": -4.5494060678,
				"z": -2.2998739281,
				"element": "H" 
			},
			{
				"x": 2.1176022699,
				"y": -1.5213612359,
				"z": -2.3823019285,
				"element": "H" 
			},
			{
				"x": 4.0980745016,
				"y": -0.1708101461,
				"z": -1.7312521046,
				"element": "H" 
			},
			{
				"x": 4.2407681071,
				"y": 0.8063294423,
				"z": 0.5514508969,
				"element": "H" 
			},
			{
				"x": 2.4205059036,
				"y": 0.3803902754,
				"z": 2.1918726905,
				"element": "H" 
			},
			{
				"x": 0.4618205032,
				"y": -0.984213732,
				"z": 1.5504734864,
				"element": "H" 
			},
			{
				"x": -3.8926640562,
				"y": 0.2291810862,
				"z": 1.4204351875,
				"element": "H" 
			},
			{
				"x": -4.9106193575,
				"y": 2.1722602392,
				"z": 2.6083958667,
				"element": "H" 
			},
			{
				"x": -3.716197115,
				"y": 4.3592669435,
				"z": 2.6243841296,
				"element": "H" 
			},
			{
				"x": -1.4922615003,
				"y": 4.5753506466,
				"z": 1.5197150661,
				"element": "H" 
			}
		],
		 "valence_orbital": [ 
			{
				"type": "occ",
				"energy": -0.2693,
				"method": "rhf"
			},
			{
				"type": "occ",
				"energy": -0.25584,
				"method": "rhf"
			},
			{
				"type": "occ",
				"energy": -0.23953,
				"method": "rhf"
			},
			{
				"type": "occ",
				"energy": -0.20536,
				"method": "rhf"
			},
			{
				"type": "occ",
				"energy": -0.20041,
				"method": "rhf"
			},
			{
				"type": "unocc",
				"energy": -0.07505,
				"method": "rhf"
			},
			{
				"type": "unocc",
				"energy": -0.04999,
				"method": "rhf"
			},
			{
				"type": "unocc",
				"energy": -0.02904,
				"method": "rhf"
			},
			{
				"type": "unocc",
				"energy": -0.00582,
				"method": "rhf"
			},
			{
				"type": "unocc",
				"energy": 0.00445,
				"method": "rhf"
			}
		],
		"cosmo_sigma_profile": { 
			"-0.025": 0.0,
			"-0.024": 0.0,
			"-0.023": 0.0,
			"-0.022": 0.0,
			"-0.021": 0.0,
			"-0.02": 0.0,
			"-0.019": 0.0,
			"-0.018": 0.599760014031,
			"-0.017": 1.25544766044,
			"-0.016": 1.01454032015,
			"-0.015": 1.15800952537,
			"-0.014": 0.608641087633,
			"-0.013": 1.81563991366,
			"-0.012": 1.31843326374,
			"-0.011": 1.37613243954,
			"-0.01": 3.00863736577,
			"-0.009": 3.98110341471,
			"-0.008": 4.44812587418,
			"-0.007": 9.0849264422,
			"-0.006": 22.7647579404,
			"-0.005": 26.1087201014,
			"-0.004": 23.0500595127,
			"-0.003": 19.4161504988,
			"-0.002": 18.4641276867,
			"-0.001": 16.7853777756,
			"0.0": 19.6045777327,
			"0.001": 17.8977838855,
			"0.002": 21.6178822986,
			"0.003": 26.255343341,
			"0.004": 18.763793522,
			"0.005": 8.27041221031,
			"0.006": 5.67595658918,
			"0.007": 6.41686863674,
			"0.008": 6.89366149578,
			"0.009": 7.09611540651,
			"0.01": 10.7488638423,
			"0.011": 10.2134540247,
			"0.012": 4.61323015735,
			"0.013": 1.83048570605,
			"0.014": 0.592497332395,
			"0.015": 0.00324776793273,
			"0.016": 0.0,
			"0.017": 0.0,
			"0.018": 0.0,
			"0.019": 0.0,
			"0.02": 0.0,
			"0.021": 0.0,
			"0.022": 0.0,
			"0.023": 0.0,
			"0.024": 0.0,
			"0.025": 0.0
		}
	}
}
