{
	 "smiles": "OCC(O)CN1CCN(CC1)C1=CC=CC=C1", 
	 "Tm": 378.15, 
	 "num_atms": 37, 
	 "gaussian": { 
		 "optdone": 1, 
		 "sigma_profile": "yes", 
		 "theory": "DFT", 
		 "functional": "B3LYP", 
		 "basiset": "6-31G**", 
		 "properties": { 
			 "R2extent": 6774.6975, 
			 "electric_dipole_moment_norm": 1.37966202021, 
			 "electric_quadrupole_moment_norm": 16.0646894091, 
			 "total_energy": -767.35536666, 
			 "HOMO_LUMO_gap": 0.19467, 
			 "cosmo_polarized_energy": -12.09, 
			 "cosmo_cavitation_energy": 36.91, 
			 "cosmo_dispersion_energy": -26.97, 
			 "cosmo_repulsion_energy": 2.08, 
			 "cosmo_total_nonelectrostatic_energy": 12.02, 
			 "SMD_solvation_energy": 4.18 
		},
		"coords": [
			{
				"x": 2.5425076564,
				"y": 0.6476948884,
				"z": 4.582825717,
				"element": "O" 
			},
			{
				"x": 1.1671648053,
				"y": 0.361443074,
				"z": 4.7588290961,
				"element": "C" 
			},
			{
				"x": 0.3694550304,
				"y": 0.7424190977,
				"z": 3.5086459604,
				"element": "C" 
			},
			{
				"x": 0.6580889699,
				"y": 2.1102136556,
				"z": 3.240138505,
				"element": "O" 
			},
			{
				"x": 0.778226054,
				"y": -0.1049833466,
				"z": 2.2892461351,
				"element": "C" 
			},
			{
				"x": 0.3412134314,
				"y": 0.5475358387,
				"z": 1.0522496286,
				"element": "N" 
			},
			{
				"x": 1.1143428063,
				"y": 0.2005693323,
				"z": -0.1546085949,
				"element": "C" 
			},
			{
				"x": 0.421432643,
				"y": -0.8234040857,
				"z": -1.0604951617,
				"element": "C" 
			},
			{
				"x": -0.874341005,
				"y": -0.3041427104,
				"z": -1.4845634705,
				"element": "N" 
			},
			{
				"x": -1.5010446119,
				"y": 0.6830442268,
				"z": -0.615390926,
				"element": "C" 
			},
			{
				"x": -1.1125239753,
				"y": 0.4321634723,
				"z": 0.8409310414,
				"element": "C" 
			},
			{
				"x": -1.4408279307,
				"y": -0.6681286088,
				"z": -2.7008111468,
				"element": "C" 
			},
			{
				"x": -2.4883162435,
				"y": 0.0840060237,
				"z": -3.2781030077,
				"element": "C" 
			},
			{
				"x": -3.0534443485,
				"y": -0.2971050727,
				"z": -4.4930660973,
				"element": "C" 
			},
			{
				"x": -2.5970189645,
				"y": -1.4228827341,
				"z": -5.1798953872,
				"element": "C" 
			},
			{
				"x": -1.5586571154,
				"y": -2.1690859735,
				"z": -4.6203559878,
				"element": "C" 
			},
			{
				"x": -0.9885071234,
				"y": -1.8086100866,
				"z": -3.4018186897,
				"element": "C" 
			},
			{
				"x": 2.5533366469,
				"y": 1.5484853823,
				"z": 4.2216354009,
				"element": "H" 
			},
			{
				"x": 1.0740703891,
				"y": -0.7116808916,
				"z": 4.9613057513,
				"element": "H" 
			},
			{
				"x": 0.7514040557,
				"y": 0.9042843227,
				"z": 5.6220041342,
				"element": "H" 
			},
			{
				"x": -0.7054285165,
				"y": 0.6117197179,
				"z": 3.7182613671,
				"element": "H" 
			},
			{
				"x": 0.6389169734,
				"y": 2.1676148941,
				"z": 2.2650313377,
				"element": "H" 
			},
			{
				"x": 1.8705292806,
				"y": -0.1600309731,
				"z": 2.2857592169,
				"element": "H" 
			},
			{
				"x": 0.3819202738,
				"y": -1.13059487,
				"z": 2.3982099412,
				"element": "H" 
			},
			{
				"x": 1.2940094612,
				"y": 1.1098271268,
				"z": -0.7427859884,
				"element": "H" 
			},
			{
				"x": 2.0926666664,
				"y": -0.1816339566,
				"z": 0.1490320627,
				"element": "H" 
			},
			{
				"x": 1.0522729814,
				"y": -0.9892845055,
				"z": -1.9411451706,
				"element": "H" 
			},
			{
				"x": 0.3309425908,
				"y": -1.7925887464,
				"z": -0.5419375579,
				"element": "H" 
			},
			{
				"x": -2.5888668381,
				"y": 0.5900426839,
				"z": -0.6926528348,
				"element": "H" 
			},
			{
				"x": -1.245353849,
				"y": 1.7180833283,
				"z": -0.8988126131,
				"element": "H" 
			},
			{
				"x": -1.6339152063,
				"y": 1.1540678156,
				"z": 1.4801356216,
				"element": "H" 
			},
			{
				"x": -1.4720731854,
				"y": -0.5723488829,
				"z": 1.125583309,
				"element": "H" 
			},
			{
				"x": -2.8460484696,
				"y": 0.9847625609,
				"z": -2.7925314162,
				"element": "H" 
			},
			{
				"x": -3.8547854637,
				"y": 0.3067615544,
				"z": -4.9108837862,
				"element": "H" 
			},
			{
				"x": -3.0393133528,
				"y": -1.7115058057,
				"z": -6.1280676074,
				"element": "H" 
			},
			{
				"x": -1.1894268144,
				"y": -3.0548853474,
				"z": -5.1306508657,
				"element": "H" 
			},
			{
				"x": -0.207507702,
				"y": -2.4319423988,
				"z": -2.9812479165,
				"element": "H" 
			}
		],
		 "valence_orbital": [ 
			{
				"type": "occ",
				"energy": -0.27257,
				"method": "rhf"
			},
			{
				"type": "occ",
				"energy": -0.25951,
				"method": "rhf"
			},
			{
				"type": "occ",
				"energy": -0.24267,
				"method": "rhf"
			},
			{
				"type": "occ",
				"energy": -0.23362,
				"method": "rhf"
			},
			{
				"type": "occ",
				"energy": -0.18914,
				"method": "rhf"
			},
			{
				"type": "unocc",
				"energy": 0.00553,
				"method": "rhf"
			},
			{
				"type": "unocc",
				"energy": 0.02101,
				"method": "rhf"
			},
			{
				"type": "unocc",
				"energy": 0.06474,
				"method": "rhf"
			},
			{
				"type": "unocc",
				"energy": 0.09031,
				"method": "rhf"
			},
			{
				"type": "unocc",
				"energy": 0.09654,
				"method": "rhf"
			}
		],
		"cosmo_sigma_profile": { 
			"-0.025": 0.0,
			"-0.024": 0.0,
			"-0.023": 0.0,
			"-0.022": 0.0,
			"-0.021": 0.0,
			"-0.02": 0.0,
			"-0.019": 0.0,
			"-0.018": 0.0,
			"-0.017": 0.0,
			"-0.016": 0.0,
			"-0.015": 0.0,
			"-0.014": 0.0,
			"-0.013": 0.0,
			"-0.012": 0.0,
			"-0.011": 0.611775569476,
			"-0.01": 0.250845454233,
			"-0.009": 0.730734888261,
			"-0.008": 0.763012470499,
			"-0.007": 1.37380523472,
			"-0.006": 1.89838038852,
			"-0.005": 17.9687505124,
			"-0.004": 33.7308577101,
			"-0.003": 58.1145152566,
			"-0.002": 36.7786705149,
			"-0.001": 22.1304883376,
			"0.0": 16.9466731907,
			"0.001": 10.6397610123,
			"0.002": 11.7197794993,
			"0.003": 9.18521168272,
			"0.004": 11.1208355498,
			"0.005": 10.6313592765,
			"0.006": 11.3618644022,
			"0.007": 9.8869510492,
			"0.008": 6.20724746156,
			"0.009": 1.81598815429,
			"0.01": 2.15097196305,
			"0.011": 2.04278127773,
			"0.012": 2.52549660333,
			"0.013": 2.21845172667,
			"0.014": 3.36832623895,
			"0.015": 1.56064103836,
			"0.016": 0.0,
			"0.017": 0.0,
			"0.018": 0.0,
			"0.019": 0.0,
			"0.02": 0.0,
			"0.021": 0.0,
			"0.022": 0.0,
			"0.023": 0.0,
			"0.024": 0.0,
			"0.025": 0.0
		}
	}
}
