{
	 "smiles": "NC1=NNC2=C1C=CC(N)=C2", 
	 "Tm": 483.15, 
	 "num_atms": 19, 
	 "gaussian": { 
		 "optdone": 1, 
		 "sigma_profile": "yes", 
		 "theory": "DFT", 
		 "functional": "B3LYP", 
		 "basiset": "6-31G**", 
		 "properties": { 
			 "R2extent": 1826.5625, 
			 "electric_dipole_moment_norm": 3.13528753067, 
			 "electric_quadrupole_moment_norm": 11.5887982997, 
			 "total_energy": -490.561911774, 
			 "HOMO_LUMO_gap": 0.17539, 
			 "cosmo_polarized_energy": -17.24, 
			 "cosmo_cavitation_energy": 23.0, 
			 "cosmo_dispersion_energy": -17.53, 
			 "cosmo_repulsion_energy": 1.42, 
			 "cosmo_total_nonelectrostatic_energy": 6.89, 
			 "SMD_solvation_energy": 2.62 
		},
		"coords": [
			{
				"x": 2.3202019349,
				"y": -0.9695578102,
				"z": 1.4813187854,
				"element": "N" 
			},
			{
				"x": 1.1298558702,
				"y": -0.244089684,
				"z": 1.4084402021,
				"element": "C" 
			},
			{
				"x": 0.5694041038,
				"y": 0.2753721143,
				"z": 2.4846819035,
				"element": "N" 
			},
			{
				"x": -0.5252109266,
				"y": 0.977770654,
				"z": 2.0237523093,
				"element": "N" 
			},
			{
				"x": -0.6730748825,
				"y": 0.8935879088,
				"z": 0.6723329438,
				"element": "C" 
			},
			{
				"x": 0.4063059628,
				"y": 0.0962245,
				"z": 0.215010367,
				"element": "C" 
			},
			{
				"x": 0.5348916507,
				"y": -0.1575757056,
				"z": -1.1600604545,
				"element": "C" 
			},
			{
				"x": -0.4024333634,
				"y": 0.3662169857,
				"z": -2.0312492267,
				"element": "C" 
			},
			{
				"x": -1.4907232127,
				"y": 1.1579655864,
				"z": -1.5624470434,
				"element": "C" 
			},
			{
				"x": -2.3757886322,
				"y": 1.7072392332,
				"z": -2.4944699951,
				"element": "N" 
			},
			{
				"x": -1.632858914,
				"y": 1.4276599689,
				"z": -0.2003806286,
				"element": "C" 
			},
			{
				"x": 2.5566863686,
				"y": -1.1915398542,
				"z": 2.4416888526,
				"element": "H" 
			},
			{
				"x": 2.3112526456,
				"y": -1.8090537651,
				"z": 0.9140640246,
				"element": "H" 
			},
			{
				"x": -1.0902699724,
				"y": 1.4788795909,
				"z": 2.6872733774,
				"element": "H" 
			},
			{
				"x": 1.3615956172,
				"y": -0.7495324668,
				"z": -1.5432209963,
				"element": "H" 
			},
			{
				"x": -0.3105548637,
				"y": 0.1896097746,
				"z": -3.0996070399,
				"element": "H" 
			},
			{
				"x": -2.4609440698,
				"y": 1.1889498484,
				"z": -3.3579341322,
				"element": "H" 
			},
			{
				"x": -3.2794134027,
				"y": 1.9695422605,
				"z": -2.1252837872,
				"element": "H" 
			},
			{
				"x": -2.456221914,
				"y": 2.03673086,
				"z": 0.1625905382,
				"element": "H" 
			}
		],
		 "valence_orbital": [ 
			{
				"type": "occ",
				"energy": -0.29309,
				"method": "rhf"
			},
			{
				"type": "occ",
				"energy": -0.27713,
				"method": "rhf"
			},
			{
				"type": "occ",
				"energy": -0.24305,
				"method": "rhf"
			},
			{
				"type": "occ",
				"energy": -0.2012,
				"method": "rhf"
			},
			{
				"type": "occ",
				"energy": -0.18231,
				"method": "rhf"
			},
			{
				"type": "unocc",
				"energy": -0.00692,
				"method": "rhf"
			},
			{
				"type": "unocc",
				"energy": 0.03424,
				"method": "rhf"
			},
			{
				"type": "unocc",
				"energy": 0.07792,
				"method": "rhf"
			},
			{
				"type": "unocc",
				"energy": 0.08259,
				"method": "rhf"
			},
			{
				"type": "unocc",
				"energy": 0.09564,
				"method": "rhf"
			}
		],
		"cosmo_sigma_profile": { 
			"-0.025": 0.0,
			"-0.024": 0.0,
			"-0.023": 0.0,
			"-0.022": 0.0,
			"-0.021": 0.0,
			"-0.02": 0.0,
			"-0.019": 0.0,
			"-0.018": 0.0,
			"-0.017": 0.0,
			"-0.016": 0.00605778909858,
			"-0.015": 1.16426748212,
			"-0.014": 1.27338862913,
			"-0.013": 1.6875998745,
			"-0.012": 4.89322003131,
			"-0.011": 5.84381558593,
			"-0.01": 6.19351113631,
			"-0.009": 6.5444850918,
			"-0.008": 6.75802437645,
			"-0.007": 7.71763159062,
			"-0.006": 9.01898055663,
			"-0.005": 8.3092804696,
			"-0.004": 6.71335712981,
			"-0.003": 8.53859921461,
			"-0.002": 5.53849980407,
			"-0.001": 4.69013184301,
			"0.0": 7.13048542662,
			"0.001": 5.03374441191,
			"0.002": 6.85900751781,
			"0.003": 7.56591517801,
			"0.004": 10.9605518011,
			"0.005": 13.9719599377,
			"0.006": 15.3087213048,
			"0.007": 6.9043579663,
			"0.008": 4.00030227883,
			"0.009": 2.56157464155,
			"0.01": 3.0503343552,
			"0.011": 3.42972086602,
			"0.012": 2.41366575707,
			"0.013": 1.87720047543,
			"0.014": 2.7880522709,
			"0.015": 1.77617493991,
			"0.016": 1.42987494743,
			"0.017": 0.378267222386,
			"0.018": 0.0,
			"0.019": 0.0,
			"0.02": 0.0,
			"0.021": 0.0,
			"0.022": 0.0,
			"0.023": 0.0,
			"0.024": 0.0,
			"0.025": 0.0
		}
	}
}
