{
	 "smiles": "[O-][N+](=O)C1=CNC=N1", 
	 "Tm": 576.15, 
	 "num_atms": 11, 
	 "gaussian": { 
		 "optdone": 1, 
		 "sigma_profile": "yes", 
		 "theory": "DFT", 
		 "functional": "B3LYP", 
		 "basiset": "6-31G**", 
		 "properties": { 
			 "R2extent": 969.4958, 
			 "electric_dipole_moment_norm": 7.40852667269, 
			 "electric_quadrupole_moment_norm": 4.84858985995, 
			 "total_energy": -430.711695774, 
			 "HOMO_LUMO_gap": 0.1942, 
			 "cosmo_polarized_energy": -20.58, 
			 "cosmo_cavitation_energy": 16.54, 
			 "cosmo_dispersion_energy": -12.46, 
			 "cosmo_repulsion_energy": 1.05, 
			 "cosmo_total_nonelectrostatic_energy": 5.13, 
			 "SMD_solvation_energy": 4.53 
		},
		"coords": [
			{
				"x": -1.0990962729,
				"y": -2.0011160252,
				"z": 1.9764275598,
				"element": "O" 
			},
			{
				"x": -0.7613965338,
				"y": -0.852730937,
				"z": 1.716683756,
				"element": "N" 
			},
			{
				"x": -1.0162468066,
				"y": 0.1474903931,
				"z": 2.3982863092,
				"element": "O" 
			},
			{
				"x": 0.0055053756,
				"y": -0.6175813244,
				"z": 0.5147851426,
				"element": "C" 
			},
			{
				"x": 0.4517403691,
				"y": 0.6166365881,
				"z": 0.1004527502,
				"element": "C" 
			},
			{
				"x": 1.117028393,
				"y": 0.3472630026,
				"z": -1.0651043292,
				"element": "N" 
			},
			{
				"x": 1.0375893518,
				"y": -1.0077804983,
				"z": -1.2864128299,
				"element": "C" 
			},
			{
				"x": 0.366080517,
				"y": -1.6169804006,
				"z": -0.3386281149,
				"element": "N" 
			},
			{
				"x": 0.3488384146,
				"y": 1.600865912,
				"z": 0.525570436,
				"element": "H" 
			},
			{
				"x": 1.5804797549,
				"y": 1.0260658825,
				"z": -1.6520215839,
				"element": "H" 
			},
			{
				"x": 1.4866774374,
				"y": -1.4800325929,
				"z": -2.1487390958,
				"element": "H" 
			}
		],
		 "valence_orbital": [ 
			{
				"type": "occ",
				"energy": -0.30879,
				"method": "rhf"
			},
			{
				"type": "occ",
				"energy": -0.2988,
				"method": "rhf"
			},
			{
				"type": "occ",
				"energy": -0.29821,
				"method": "rhf"
			},
			{
				"type": "occ",
				"energy": -0.28197,
				"method": "rhf"
			},
			{
				"type": "occ",
				"energy": -0.26793,
				"method": "rhf"
			},
			{
				"type": "unocc",
				"energy": -0.07373,
				"method": "rhf"
			},
			{
				"type": "unocc",
				"energy": -0.00406,
				"method": "rhf"
			},
			{
				"type": "unocc",
				"energy": 0.04454,
				"method": "rhf"
			},
			{
				"type": "unocc",
				"energy": 0.06663,
				"method": "rhf"
			},
			{
				"type": "unocc",
				"energy": 0.11061,
				"method": "rhf"
			}
		],
		"cosmo_sigma_profile": { 
			"-0.025": 0.0,
			"-0.024": 0.0,
			"-0.023": 0.0,
			"-0.022": 0.0,
			"-0.021": 0.0,
			"-0.02": 0.0,
			"-0.019": 0.0371980076879,
			"-0.018": 2.2796952597,
			"-0.017": 2.07121866949,
			"-0.016": 1.67286688215,
			"-0.015": 0.83004693398,
			"-0.014": 1.73641798097,
			"-0.013": 1.2288327148,
			"-0.012": 1.12492356335,
			"-0.011": 4.51906199515,
			"-0.01": 5.11817535335,
			"-0.009": 3.5004054516,
			"-0.008": 3.16227959393,
			"-0.007": 2.47194414467,
			"-0.006": 3.82001348893,
			"-0.005": 4.34721237424,
			"-0.004": 3.27694695846,
			"-0.003": 5.4506460835,
			"-0.002": 7.28521194596,
			"-0.001": 12.4159488601,
			"0.0": 6.39518542413,
			"0.001": 3.35386586179,
			"0.002": 3.94759208431,
			"0.003": 3.34060408986,
			"0.004": 3.31327582776,
			"0.005": 3.18814432391,
			"0.006": 3.68283103651,
			"0.007": 6.38062241516,
			"0.008": 11.2333536684,
			"0.009": 7.79745039181,
			"0.01": 4.84295484235,
			"0.011": 3.2329562819,
			"0.012": 1.64350059383,
			"0.013": 0.884806282509,
			"0.014": 1.68808994357,
			"0.015": 1.48454714787,
			"0.016": 0.478167580242,
			"0.017": 0.0,
			"0.018": 0.0,
			"0.019": 0.0,
			"0.02": 0.0,
			"0.021": 0.0,
			"0.022": 0.0,
			"0.023": 0.0,
			"0.024": 0.0,
			"0.025": 0.0
		}
	}
}
