{
	 "smiles": "C1CNC2=C(NC1)N=CC=C2", 
	 "Tm": 358.15, 
	 "num_atms": 22, 
	 "gaussian": { 
		 "optdone": 1, 
		 "sigma_profile": "yes", 
		 "theory": "DFT", 
		 "functional": "B3LYP", 
		 "basiset": "6-31G**", 
		 "properties": { 
			 "R2extent": 1802.2328, 
			 "electric_dipole_moment_norm": 2.58001887784, 
			 "electric_quadrupole_moment_norm": 8.07198677588, 
			 "total_energy": -475.732266272, 
			 "HOMO_LUMO_gap": 0.17838, 
			 "cosmo_polarized_energy": -9.64, 
			 "cosmo_cavitation_energy": 23.66, 
			 "cosmo_dispersion_energy": -18.34, 
			 "cosmo_repulsion_energy": 1.46, 
			 "cosmo_total_nonelectrostatic_energy": 6.78, 
			 "SMD_solvation_energy": 0.55 
		},
		"coords": [
			{
				"x": 0.8331562425,
				"y": -1.4263951246,
				"z": 2.4798779349,
				"element": "C" 
			},
			{
				"x": 1.2622478964,
				"y": -1.6715914333,
				"z": 1.0252775831,
				"element": "C" 
			},
			{
				"x": 1.1489596606,
				"y": -0.4529984711,
				"z": 0.211834963,
				"element": "N" 
			},
			{
				"x": -0.0819399616,
				"y": -0.1595337457,
				"z": -0.403939108,
				"element": "C" 
			},
			{
				"x": -1.3306467149,
				"y": -0.3758520832,
				"z": 0.2512330592,
				"element": "C" 
			},
			{
				"x": -1.4106451526,
				"y": -0.9101365337,
				"z": 1.5400862211,
				"element": "N" 
			},
			{
				"x": -0.4202459002,
				"y": -0.5415865665,
				"z": 2.5551197169,
				"element": "C" 
			},
			{
				"x": -2.5018624962,
				"y": -0.1145998874,
				"z": -0.335034356,
				"element": "N" 
			},
			{
				"x": -2.5177701243,
				"y": 0.3919130951,
				"z": -1.5760855711,
				"element": "C" 
			},
			{
				"x": -1.3609463814,
				"y": 0.6829282507,
				"z": -2.286083921,
				"element": "C" 
			},
			{
				"x": -0.1335559033,
				"y": 0.3910049863,
				"z": -1.6843686167,
				"element": "C" 
			},
			{
				"x": 0.6447984496,
				"y": -2.3959878326,
				"z": 2.9560057616,
				"element": "H" 
			},
			{
				"x": 1.6405793784,
				"y": -0.9372167038,
				"z": 3.0376693667,
				"element": "H" 
			},
			{
				"x": 2.307385829,
				"y": -1.9951310563,
				"z": 0.9979215086,
				"element": "H" 
			},
			{
				"x": 0.6629327081,
				"y": -2.4859521816,
				"z": 0.5958307674,
				"element": "H" 
			},
			{
				"x": 1.9165309828,
				"y": -0.3492995906,
				"z": -0.4388385877,
				"element": "H" 
			},
			{
				"x": -2.3733321829,
				"y": -0.8748531139,
				"z": 1.8514388671,
				"element": "H" 
			},
			{
				"x": -0.8927724678,
				"y": -0.6530729009,
				"z": 3.5355163087,
				"element": "H" 
			},
			{
				"x": -0.1311577699,
				"y": 0.513787556,
				"z": 2.4580161745,
				"element": "H" 
			},
			{
				"x": -3.5011280909,
				"y": 0.5808760235,
				"z": -2.001775676,
				"element": "H" 
			},
			{
				"x": -1.4072963496,
				"y": 1.1089085405,
				"z": -3.2828066786,
				"element": "H" 
			},
			{
				"x": 0.7972083481,
				"y": 0.5772887729,
				"z": -2.2167957175,
				"element": "H" 
			}
		],
		 "valence_orbital": [ 
			{
				"type": "occ",
				"energy": -0.30054,
				"method": "rhf"
			},
			{
				"type": "occ",
				"energy": -0.28601,
				"method": "rhf"
			},
			{
				"type": "occ",
				"energy": -0.24583,
				"method": "rhf"
			},
			{
				"type": "occ",
				"energy": -0.23468,
				"method": "rhf"
			},
			{
				"type": "occ",
				"energy": -0.17855,
				"method": "rhf"
			},
			{
				"type": "unocc",
				"energy": -0.00017,
				"method": "rhf"
			},
			{
				"type": "unocc",
				"energy": 0.02101,
				"method": "rhf"
			},
			{
				"type": "unocc",
				"energy": 0.07327,
				"method": "rhf"
			},
			{
				"type": "unocc",
				"energy": 0.09988,
				"method": "rhf"
			},
			{
				"type": "unocc",
				"energy": 0.1183,
				"method": "rhf"
			}
		],
		"cosmo_sigma_profile": { 
			"-0.025": 0.0,
			"-0.024": 0.0,
			"-0.023": 0.0,
			"-0.022": 0.0,
			"-0.021": 0.0,
			"-0.02": 0.0,
			"-0.019": 0.0,
			"-0.018": 0.0,
			"-0.017": 0.0,
			"-0.016": 0.0,
			"-0.015": 0.0,
			"-0.014": 0.0,
			"-0.013": 0.0,
			"-0.012": 1.00732009859,
			"-0.011": 2.47318721231,
			"-0.01": 2.39605714644,
			"-0.009": 2.92890872228,
			"-0.008": 2.96140322147,
			"-0.007": 3.0506889194,
			"-0.006": 4.75116628428,
			"-0.005": 10.7324704717,
			"-0.004": 11.1462000785,
			"-0.003": 17.6673710405,
			"-0.002": 21.2088381743,
			"-0.001": 20.343425725,
			"0.0": 14.1576713739,
			"0.001": 7.94856220769,
			"0.002": 7.98655073231,
			"0.003": 7.21827265965,
			"0.004": 10.5357156059,
			"0.005": 11.3684630694,
			"0.006": 6.62702702462,
			"0.007": 4.55582709805,
			"0.008": 2.71729583916,
			"0.009": 3.22807007781,
			"0.01": 1.93694593526,
			"0.011": 2.27832290124,
			"0.012": 1.64731528588,
			"0.013": 0.87612803879,
			"0.014": 0.880537715815,
			"0.015": 0.735954966092,
			"0.016": 0.574056404695,
			"0.017": 0.0,
			"0.018": 0.0,
			"0.019": 0.0,
			"0.02": 0.0,
			"0.021": 0.0,
			"0.022": 0.0,
			"0.023": 0.0,
			"0.024": 0.0,
			"0.025": 0.0
		}
	}
}
