{
	 "smiles": "CCC(=O)OCC1=CC=CC=C1", 
	 "Tm": 495.15, 
	 "num_atms": 24, 
	 "gaussian": { 
		 "optdone": 1, 
		 "sigma_profile": "yes", 
		 "theory": "DFT", 
		 "functional": "B3LYP", 
		 "basiset": "6-31G**", 
		 "properties": { 
			 "R2extent": 3085.243, 
			 "electric_dipole_moment_norm": 2.2450283339, 
			 "electric_quadrupole_moment_norm": 8.75545574885, 
			 "total_energy": -538.760954041, 
			 "HOMO_LUMO_gap": 0.2358, 
			 "cosmo_polarized_energy": -8.39, 
			 "cosmo_cavitation_energy": 28.22, 
			 "cosmo_dispersion_energy": -19.94, 
			 "cosmo_repulsion_energy": 1.64, 
			 "cosmo_total_nonelectrostatic_energy": 9.92, 
			 "SMD_solvation_energy": 5.83 
		},
		"coords": [
			{
				"x": 1.5318391139,
				"y": 2.0883736771,
				"z": -1.3848876914,
				"element": "C" 
			},
			{
				"x": 0.0970795152,
				"y": 2.6101284777,
				"z": -1.2172971576,
				"element": "C" 
			},
			{
				"x": -0.9254020844,
				"y": 1.5160333567,
				"z": -0.9743650719,
				"element": "C" 
			},
			{
				"x": -1.9397106846,
				"y": 1.3473393953,
				"z": -1.6174355195,
				"element": "O" 
			},
			{
				"x": -0.5719064543,
				"y": 0.7386882693,
				"z": 0.0761974304,
				"element": "O" 
			},
			{
				"x": -1.4927904917,
				"y": -0.3390785607,
				"z": 0.3927580232,
				"element": "C" 
			},
			{
				"x": -0.9156775203,
				"y": -1.127394747,
				"z": 1.536390183,
				"element": "C" 
			},
			{
				"x": -1.3011781208,
				"y": -0.8581902245,
				"z": 2.8548533677,
				"element": "C" 
			},
			{
				"x": -0.7546383466,
				"y": -1.5798376451,
				"z": 3.9169911543,
				"element": "C" 
			},
			{
				"x": 0.1874459806,
				"y": -2.5798110427,
				"z": 3.6696405259,
				"element": "C" 
			},
			{
				"x": 0.5793866124,
				"y": -2.8558469347,
				"z": 2.3575658409,
				"element": "C" 
			},
			{
				"x": 0.0292729951,
				"y": -2.1339470317,
				"z": 1.2988218192,
				"element": "C" 
			},
			{
				"x": 1.8575475334,
				"y": 1.5497005107,
				"z": -0.4920818738,
				"element": "H" 
			},
			{
				"x": 2.2209331035,
				"y": 2.9203277167,
				"z": -1.5574280576,
				"element": "H" 
			},
			{
				"x": 1.6072894161,
				"y": 1.4085299869,
				"z": -2.2395484932,
				"element": "H" 
			},
			{
				"x": -0.2341624268,
				"y": 3.1591752213,
				"z": -2.1017079761,
				"element": "H" 
			},
			{
				"x": 0.054750838,
				"y": 3.2980484067,
				"z": -0.3634743634,
				"element": "H" 
			},
			{
				"x": -2.4648290221,
				"y": 0.0941222372,
				"z": 0.646152261,
				"element": "H" 
			},
			{
				"x": -1.627860278,
				"y": -0.9538140855,
				"z": -0.5019863634,
				"element": "H" 
			},
			{
				"x": -2.0350291091,
				"y": -0.0798808843,
				"z": 3.048736397,
				"element": "H" 
			},
			{
				"x": -1.0652174284,
				"y": -1.3633742657,
				"z": 4.9351241498,
				"element": "H" 
			},
			{
				"x": 0.6118625953,
				"y": -3.1445145991,
				"z": 4.4948468577,
				"element": "H" 
			},
			{
				"x": 1.309263144,
				"y": -3.6356967674,
				"z": 2.1598780403,
				"element": "H" 
			},
			{
				"x": 0.3329311196,
				"y": -2.351380467,
				"z": 0.2778565176,
				"element": "H" 
			}
		],
		 "valence_orbital": [ 
			{
				"type": "occ",
				"energy": -0.33927,
				"method": "rhf"
			},
			{
				"type": "occ",
				"energy": -0.29715,
				"method": "rhf"
			},
			{
				"type": "occ",
				"energy": -0.26886,
				"method": "rhf"
			},
			{
				"type": "occ",
				"energy": -0.25462,
				"method": "rhf"
			},
			{
				"type": "occ",
				"energy": -0.24893,
				"method": "rhf"
			},
			{
				"type": "unocc",
				"energy": -0.01313,
				"method": "rhf"
			},
			{
				"type": "unocc",
				"energy": -0.0061,
				"method": "rhf"
			},
			{
				"type": "unocc",
				"energy": 0.01606,
				"method": "rhf"
			},
			{
				"type": "unocc",
				"energy": 0.08769,
				"method": "rhf"
			},
			{
				"type": "unocc",
				"energy": 0.10472,
				"method": "rhf"
			}
		],
		"cosmo_sigma_profile": { 
			"-0.025": 0.0,
			"-0.024": 0.0,
			"-0.023": 0.0,
			"-0.022": 0.0,
			"-0.021": 0.0,
			"-0.02": 0.0,
			"-0.019": 0.0,
			"-0.018": 0.0,
			"-0.017": 0.0,
			"-0.016": 0.0,
			"-0.015": 0.0,
			"-0.014": 0.0,
			"-0.013": 0.0,
			"-0.012": 0.0,
			"-0.011": 0.0,
			"-0.01": 0.0,
			"-0.009": 0.0,
			"-0.008": 0.0,
			"-0.007": 0.0311754490447,
			"-0.006": 13.1881828062,
			"-0.005": 19.7873779011,
			"-0.004": 23.5566342535,
			"-0.003": 24.9418984758,
			"-0.002": 22.2979629303,
			"-0.001": 18.5672668353,
			"0.0": 16.1195147518,
			"0.001": 13.0357010993,
			"0.002": 10.0031359387,
			"0.003": 11.0067945075,
			"0.004": 10.6849911397,
			"0.005": 13.4036606671,
			"0.006": 7.87521870513,
			"0.007": 2.7628280113,
			"0.008": 2.77011188487,
			"0.009": 2.16986741555,
			"0.01": 1.72078396907,
			"0.011": 2.33905576414,
			"0.012": 5.23348055563,
			"0.013": 1.68871717931,
			"0.014": 0.0338558726844,
			"0.015": 0.0,
			"0.016": 0.0,
			"0.017": 0.0,
			"0.018": 0.0,
			"0.019": 0.0,
			"0.02": 0.0,
			"0.021": 0.0,
			"0.022": 0.0,
			"0.023": 0.0,
			"0.024": 0.0,
			"0.025": 0.0
		}
	}
}
