{
	 "smiles": "CC(=O)C1=CC=C(C=C1)S(=O)(=O)N1CCCCC1", 
	 "Tm": 413.15, 
	 "num_atms": 35, 
	 "gaussian": { 
		 "optdone": 1, 
		 "sigma_profile": "yes", 
		 "theory": "DFT", 
		 "functional": "B3LYP", 
		 "basiset": "6-31G**", 
		 "properties": { 
			 "R2extent": 6348.974, 
			 "electric_dipole_moment_norm": 4.98305729548, 
			 "electric_quadrupole_moment_norm": 28.0768543042, 
			 "total_energy": -1184.18407589, 
			 "HOMO_LUMO_gap": 0.17833, 
			 "cosmo_polarized_energy": -16.83, 
			 "cosmo_cavitation_energy": 37.89, 
			 "cosmo_dispersion_energy": -27.4, 
			 "cosmo_repulsion_energy": 2.07, 
			 "cosmo_total_nonelectrostatic_energy": 12.57, 
			 "SMD_solvation_energy": 4.59 
		},
		"coords": [
			{
				"x": 1.5326454265,
				"y": 0.1991405503,
				"z": 4.918384906,
				"element": "C" 
			},
			{
				"x": 1.4909252158,
				"y": 1.0776491426,
				"z": 3.6812127217,
				"element": "C" 
			},
			{
				"x": 2.2313612521,
				"y": 2.0420114423,
				"z": 3.5730136892,
				"element": "O" 
			},
			{
				"x": 0.5190375812,
				"y": 0.7423853846,
				"z": 2.5828455394,
				"element": "C" 
			},
			{
				"x": 0.476833684,
				"y": 1.586414932,
				"z": 1.461862329,
				"element": "C" 
			},
			{
				"x": -0.4001881587,
				"y": 1.3301789398,
				"z": 0.4136625057,
				"element": "C" 
			},
			{
				"x": -1.2412387558,
				"y": 0.2138700362,
				"z": 0.4857258953,
				"element": "C" 
			},
			{
				"x": -1.2220133895,
				"y": -0.6335842416,
				"z": 1.5958141513,
				"element": "C" 
			},
			{
				"x": -0.3408307752,
				"y": -0.3641623226,
				"z": 2.642209336,
				"element": "C" 
			},
			{
				"x": -2.3418029404,
				"y": -0.1601685269,
				"z": -0.8925149719,
				"element": "S" 
			},
			{
				"x": -3.4206604286,
				"y": -0.9986309813,
				"z": -0.3655539526,
				"element": "O" 
			},
			{
				"x": -2.6021683688,
				"y": 1.1003658172,
				"z": -1.5900616143,
				"element": "O" 
			},
			{
				"x": -1.464981883,
				"y": -1.1248539395,
				"z": -1.9595862254,
				"element": "N" 
			},
			{
				"x": -1.171937693,
				"y": -2.5043845107,
				"z": -1.5299615993,
				"element": "C" 
			},
			{
				"x": -0.8591445294,
				"y": -3.3666491444,
				"z": -2.7582952552,
				"element": "C" 
			},
			{
				"x": 0.2743016044,
				"y": -2.7564268996,
				"z": -3.5934670968,
				"element": "C" 
			},
			{
				"x": -0.0549979209,
				"y": -1.3037979164,
				"z": -3.962265933,
				"element": "C" 
			},
			{
				"x": -0.379440644,
				"y": -0.4732003589,
				"z": -2.715530914,
				"element": "C" 
			},
			{
				"x": 0.5599375022,
				"y": 0.1840917781,
				"z": 5.4224074969,
				"element": "H" 
			},
			{
				"x": 2.2873646386,
				"y": 0.5922747541,
				"z": 5.5997268729,
				"element": "H" 
			},
			{
				"x": 1.7818959959,
				"y": -0.8356817003,
				"z": 4.6584241552,
				"element": "H" 
			},
			{
				"x": 1.139744804,
				"y": 2.4447505977,
				"z": 1.4417595685,
				"element": "H" 
			},
			{
				"x": -0.4599527798,
				"y": 1.9950416717,
				"z": -0.4409092408,
				"element": "H" 
			},
			{
				"x": -1.9083329204,
				"y": -1.4715442138,
				"z": 1.6445537079,
				"element": "H" 
			},
			{
				"x": -0.3346465259,
				"y": -1.0195501518,
				"z": 3.5067556572,
				"element": "H" 
			},
			{
				"x": -0.3138597276,
				"y": -2.519619413,
				"z": -0.8356747626,
				"element": "H" 
			},
			{
				"x": -2.0478175962,
				"y": -2.8867493754,
				"z": -1.0043017204,
				"element": "H" 
			},
			{
				"x": -1.7667259695,
				"y": -3.4502127107,
				"z": -3.3677862147,
				"element": "H" 
			},
			{
				"x": -0.5963893767,
				"y": -4.3762862919,
				"z": -2.4222563209,
				"element": "H" 
			},
			{
				"x": 1.2090784632,
				"y": -2.7834635289,
				"z": -3.0155953994,
				"element": "H" 
			},
			{
				"x": 0.4461947603,
				"y": -3.3511036628,
				"z": -4.4973435064,
				"element": "H" 
			},
			{
				"x": -0.9199804246,
				"y": -1.2778042881,
				"z": -4.6355301596,
				"element": "H" 
			},
			{
				"x": 0.7841107221,
				"y": -0.8351180613,
				"z": -4.488982563,
				"element": "H" 
			},
			{
				"x": 0.5234724439,
				"y": -0.3740230021,
				"z": -2.0884774926,
				"element": "H" 
			},
			{
				"x": -0.7163932864,
				"y": 0.5256401954,
				"z": -2.9955635892,
				"element": "H" 
			}
		],
		 "valence_orbital": [ 
			{
				"type": "occ",
				"energy": -0.30202,
				"method": "rhf"
			},
			{
				"type": "occ",
				"energy": -0.28305,
				"method": "rhf"
			},
			{
				"type": "occ",
				"energy": -0.2787,
				"method": "rhf"
			},
			{
				"type": "occ",
				"energy": -0.26153,
				"method": "rhf"
			},
			{
				"type": "occ",
				"energy": -0.25604,
				"method": "rhf"
			},
			{
				"type": "unocc",
				"energy": -0.07771,
				"method": "rhf"
			},
			{
				"type": "unocc",
				"energy": -0.02977,
				"method": "rhf"
			},
			{
				"type": "unocc",
				"energy": 0.00966,
				"method": "rhf"
			},
			{
				"type": "unocc",
				"energy": 0.05446,
				"method": "rhf"
			},
			{
				"type": "unocc",
				"energy": 0.08341,
				"method": "rhf"
			}
		],
		"cosmo_sigma_profile": { 
			"-0.025": 0.0,
			"-0.024": 0.0,
			"-0.023": 0.0,
			"-0.022": 0.0,
			"-0.021": 0.0,
			"-0.02": 0.0,
			"-0.019": 0.0,
			"-0.018": 0.0,
			"-0.017": 0.0,
			"-0.016": 0.0,
			"-0.015": 0.0,
			"-0.014": 0.0,
			"-0.013": 0.0,
			"-0.012": 0.0,
			"-0.011": 0.0,
			"-0.01": 0.0,
			"-0.009": 0.0,
			"-0.008": 1.25978567858,
			"-0.007": 9.87643224038,
			"-0.006": 13.5143431035,
			"-0.005": 13.639280736,
			"-0.004": 27.6757885176,
			"-0.003": 41.4623577916,
			"-0.002": 39.4876680336,
			"-0.001": 29.7824802179,
			"0.0": 23.396320136,
			"0.001": 20.0144696123,
			"0.002": 12.7208611065,
			"0.003": 5.42574238452,
			"0.004": 4.76938914617,
			"0.005": 6.23784668574,
			"0.006": 4.88959786762,
			"0.007": 6.25656063503,
			"0.008": 5.25781868076,
			"0.009": 5.90647076367,
			"0.01": 8.88861929968,
			"0.011": 11.7072225115,
			"0.012": 5.64221042066,
			"0.013": 0.709517838646,
			"0.014": 0.0,
			"0.015": 0.0,
			"0.016": 0.0,
			"0.017": 0.0,
			"0.018": 0.0,
			"0.019": 0.0,
			"0.02": 0.0,
			"0.021": 0.0,
			"0.022": 0.0,
			"0.023": 0.0,
			"0.024": 0.0,
			"0.025": 0.0
		}
	}
}
