{
	 "smiles": "CC1CCC(CC1)=CC(O)=O", 
	 "Tm": 335.15, 
	 "num_atms": 25, 
	 "gaussian": { 
		 "optdone": 1, 
		 "sigma_profile": "yes", 
		 "theory": "DFT", 
		 "functional": "B3LYP", 
		 "basiset": "6-31G**", 
		 "properties": { 
			 "R2extent": 3281.1815, 
			 "electric_dipole_moment_norm": 1.80921544875, 
			 "electric_quadrupole_moment_norm": 6.09633088833, 
			 "total_energy": -501.86033391, 
			 "HOMO_LUMO_gap": 0.21689, 
			 "cosmo_polarized_energy": -8.12, 
			 "cosmo_cavitation_energy": 26.66, 
			 "cosmo_dispersion_energy": -19.52, 
			 "cosmo_repulsion_energy": 1.59, 
			 "cosmo_total_nonelectrostatic_energy": 8.73, 
			 "SMD_solvation_energy": 5.14 
		},
		"coords": [
			{
				"x": 1.937142424,
				"y": -0.8185107553,
				"z": 1.1289231379,
				"element": "C" 
			},
			{
				"x": 0.8596819911,
				"y": -0.4615802486,
				"z": 0.099876516,
				"element": "C" 
			},
			{
				"x": 0.2414840825,
				"y": 0.9340936969,
				"z": 0.3823806334,
				"element": "C" 
			},
			{
				"x": -0.2255526463,
				"y": 1.669417435,
				"z": -0.9009497472,
				"element": "C" 
			},
			{
				"x": -0.7534092371,
				"y": 0.7229808791,
				"z": -1.9487551422,
				"element": "C" 
			},
			{
				"x": 0.2095598015,
				"y": -0.3799303377,
				"z": -2.3435906217,
				"element": "C" 
			},
			{
				"x": 1.374224502,
				"y": -0.528259796,
				"z": -1.3475640511,
				"element": "C" 
			},
			{
				"x": -1.9894893441,
				"y": 0.8889717837,
				"z": -2.4642080131,
				"element": "C" 
			},
			{
				"x": -2.5854805801,
				"y": 0.0307596974,
				"z": -3.4961284097,
				"element": "C" 
			},
			{
				"x": -3.8587564409,
				"y": 0.420402823,
				"z": -3.7850756478,
				"element": "O" 
			},
			{
				"x": -2.0689199274,
				"y": -0.9189465307,
				"z": -4.0621126782,
				"element": "O" 
			},
			{
				"x": 2.3112800232,
				"y": -1.836999419,
				"z": 0.9784820984,
				"element": "H" 
			},
			{
				"x": 1.5487563594,
				"y": -0.7526771409,
				"z": 2.1514449897,
				"element": "H" 
			},
			{
				"x": 2.7909811767,
				"y": -0.1339700419,
				"z": 1.0544384249,
				"element": "H" 
			},
			{
				"x": 0.055706792,
				"y": -1.2079916588,
				"z": 0.1817861951,
				"element": "H" 
			},
			{
				"x": -0.6036067564,
				"y": 0.8260995135,
				"z": 1.071304201,
				"element": "H" 
			},
			{
				"x": 0.9773960281,
				"y": 1.5679522074,
				"z": 0.8924154099,
				"element": "H" 
			},
			{
				"x": 0.6396907879,
				"y": 2.1898938888,
				"z": -1.3363170317,
				"element": "H" 
			},
			{
				"x": -0.9631062229,
				"y": 2.4405410341,
				"z": -0.6596116519,
				"element": "H" 
			},
			{
				"x": 0.583248741,
				"y": -0.1855378315,
				"z": -3.3574674262,
				"element": "H" 
			},
			{
				"x": -0.3428787073,
				"y": -1.3200285781,
				"z": -2.431772101,
				"element": "H" 
			},
			{
				"x": 1.8843161863,
				"y": -1.4812796888,
				"z": -1.5283571497,
				"element": "H" 
			},
			{
				"x": 2.1276910356,
				"y": 0.256156957,
				"z": -1.5050513146,
				"element": "H" 
			},
			{
				"x": -2.6150737364,
				"y": 1.7048175359,
				"z": -2.1144910834,
				"element": "H" 
			},
			{
				"x": -4.1684863324,
				"y": -0.1944754247,
				"z": -4.4701995369,
				"element": "H" 
			}
		],
		 "valence_orbital": [ 
			{
				"type": "occ",
				"energy": -0.31487,
				"method": "rhf"
			},
			{
				"type": "occ",
				"energy": -0.3086,
				"method": "rhf"
			},
			{
				"type": "occ",
				"energy": -0.30518,
				"method": "rhf"
			},
			{
				"type": "occ",
				"energy": -0.26064,
				"method": "rhf"
			},
			{
				"type": "occ",
				"energy": -0.25191,
				"method": "rhf"
			},
			{
				"type": "unocc",
				"energy": -0.03502,
				"method": "rhf"
			},
			{
				"type": "unocc",
				"energy": 0.07893,
				"method": "rhf"
			},
			{
				"type": "unocc",
				"energy": 0.09005,
				"method": "rhf"
			},
			{
				"type": "unocc",
				"energy": 0.09272,
				"method": "rhf"
			},
			{
				"type": "unocc",
				"energy": 0.10989,
				"method": "rhf"
			}
		],
		"cosmo_sigma_profile": { 
			"-0.025": 0.0,
			"-0.024": 0.0,
			"-0.023": 0.0,
			"-0.022": 0.0,
			"-0.021": 0.0,
			"-0.02": 0.0,
			"-0.019": 0.0,
			"-0.018": 0.0175449301752,
			"-0.017": 0.883608721094,
			"-0.016": 0.807469312161,
			"-0.015": 0.703877731094,
			"-0.014": 1.23458229623,
			"-0.013": 0.453531904641,
			"-0.012": 0.13720434861,
			"-0.011": 0.788478157476,
			"-0.01": 1.24529150147,
			"-0.009": 0.732224869614,
			"-0.008": 0.49607130831,
			"-0.007": 0.412013506002,
			"-0.006": 1.12752513745,
			"-0.005": 3.6273912971,
			"-0.004": 9.81000113468,
			"-0.003": 17.5130813708,
			"-0.002": 35.4004644353,
			"-0.001": 33.7630831691,
			"0.0": 26.8167705714,
			"0.001": 21.4289737253,
			"0.002": 12.5872128138,
			"0.003": 5.95574539118,
			"0.004": 4.72449128766,
			"0.005": 3.07610945671,
			"0.006": 2.68061061943,
			"0.007": 2.59804618135,
			"0.008": 2.7208730673,
			"0.009": 3.21509829423,
			"0.01": 3.28868128197,
			"0.011": 2.1802068199,
			"0.012": 3.72546202242,
			"0.013": 2.62320280862,
			"0.014": 0.00854292435694,
			"0.015": 0.0,
			"0.016": 0.0,
			"0.017": 0.0,
			"0.018": 0.0,
			"0.019": 0.0,
			"0.02": 0.0,
			"0.021": 0.0,
			"0.022": 0.0,
			"0.023": 0.0,
			"0.024": 0.0,
			"0.025": 0.0
		}
	}
}
