{
	 "smiles": "OC(=O)C1=CN2N=NN=C2C=C1", 
	 "Tm": 490.15, 
	 "num_atms": 16, 
	 "gaussian": { 
		 "optdone": 1, 
		 "sigma_profile": "yes", 
		 "theory": "DFT", 
		 "functional": "B3LYP", 
		 "basiset": "6-31G**", 
		 "properties": { 
			 "R2extent": 4049.2687, 
			 "electric_dipole_moment_norm": 2.33585299195, 
			 "electric_quadrupole_moment_norm": 30.6660230025, 
			 "total_energy": -600.437759225, 
			 "HOMO_LUMO_gap": 0.18024, 
			 "cosmo_polarized_energy": -22.74, 
			 "cosmo_cavitation_energy": 21.86, 
			 "cosmo_dispersion_energy": -16.4, 
			 "cosmo_repulsion_energy": 1.27, 
			 "cosmo_total_nonelectrostatic_energy": 6.73, 
			 "SMD_solvation_energy": 3.27 
		},
		"coords": [
			{
				"x": -0.0067211959,
				"y": -2.0124101813,
				"z": 2.6834508946,
				"element": "O" 
			},
			{
				"x": 0.7379261688,
				"y": -1.2376823805,
				"z": 1.8553013817,
				"element": "C" 
			},
			{
				"x": 1.1128761224,
				"y": -0.1460330323,
				"z": 2.2059180483,
				"element": "O" 
			},
			{
				"x": 1.0526232639,
				"y": -1.793223619,
				"z": 0.497333892,
				"element": "C" 
			},
			{
				"x": 0.2752355757,
				"y": -2.7553911519,
				"z": -0.0982602689,
				"element": "C" 
			},
			{
				"x": 0.6180426991,
				"y": -3.1645607341,
				"z": -1.3530172984,
				"element": "N" 
			},
			{
				"x": -0.01093718,
				"y": -4.1016157905,
				"z": -2.1186700117,
				"element": "N" 
			},
			{
				"x": 0.6718567252,
				"y": -4.1532590574,
				"z": -3.224268469,
				"element": "N" 
			},
			{
				"x": 1.7170128687,
				"y": -3.3027561645,
				"z": -3.2393527065,
				"element": "N" 
			},
			{
				"x": 1.691991582,
				"y": -2.6733058357,
				"z": -2.0652709889,
				"element": "C" 
			},
			{
				"x": 2.4935945089,
				"y": -1.6658995476,
				"z": -1.4716725698,
				"element": "C" 
			},
			{
				"x": 2.1642774065,
				"y": -1.2330897921,
				"z": -0.2147222148,
				"element": "C" 
			},
			{
				"x": -0.0432485139,
				"y": -2.9258772566,
				"z": 2.3674675692,
				"element": "H" 
			},
			{
				"x": -0.6196660083,
				"y": -3.205707672,
				"z": 0.3145185408,
				"element": "H" 
			},
			{
				"x": 3.3322010907,
				"y": -1.2638418617,
				"z": -2.0269215829,
				"element": "H" 
			},
			{
				"x": 2.7300348863,
				"y": -0.4518459227,
				"z": 0.2796657844,
				"element": "H" 
			}
		],
		 "valence_orbital": [ 
			{
				"type": "occ",
				"energy": -0.32107,
				"method": "rhf"
			},
			{
				"type": "occ",
				"energy": -0.31784,
				"method": "rhf"
			},
			{
				"type": "occ",
				"energy": -0.30359,
				"method": "rhf"
			},
			{
				"type": "occ",
				"energy": -0.29615,
				"method": "rhf"
			},
			{
				"type": "occ",
				"energy": -0.27452,
				"method": "rhf"
			},
			{
				"type": "unocc",
				"energy": -0.09428,
				"method": "rhf"
			},
			{
				"type": "unocc",
				"energy": -0.06745,
				"method": "rhf"
			},
			{
				"type": "unocc",
				"energy": -0.01166,
				"method": "rhf"
			},
			{
				"type": "unocc",
				"energy": 0.02689,
				"method": "rhf"
			},
			{
				"type": "unocc",
				"energy": 0.03405,
				"method": "rhf"
			}
		],
		"cosmo_sigma_profile": { 
			"-0.025": 0.0,
			"-0.024": 0.0,
			"-0.023": 0.0,
			"-0.022": 0.0,
			"-0.021": 0.274431729658,
			"-0.02": 1.35302015916,
			"-0.019": 1.08715136195,
			"-0.018": 0.977028821035,
			"-0.017": 1.1321322764,
			"-0.016": 1.20874333421,
			"-0.015": 1.24059638639,
			"-0.014": 1.61497600673,
			"-0.013": 2.10254986849,
			"-0.012": 1.56719308877,
			"-0.011": 1.58236363761,
			"-0.01": 2.32489383373,
			"-0.009": 4.65734696458,
			"-0.008": 5.57340069775,
			"-0.007": 8.73629744533,
			"-0.006": 9.28309750207,
			"-0.005": 10.9475261005,
			"-0.004": 9.14236042531,
			"-0.003": 9.51539246732,
			"-0.002": 10.7253160345,
			"-0.001": 8.73995000852,
			"0.0": 5.67411962546,
			"0.001": 3.57874400666,
			"0.002": 4.59511587312,
			"0.003": 4.47187982678,
			"0.004": 4.49530013678,
			"0.005": 5.15321620574,
			"0.006": 5.31496571056,
			"0.007": 6.99685166759,
			"0.008": 8.25219985648,
			"0.009": 9.14677005023,
			"0.01": 10.2102727848,
			"0.011": 7.67464195832,
			"0.012": 4.5173201495,
			"0.013": 1.92007833794,
			"0.014": 1.10648127434,
			"0.015": 0.402512716687,
			"0.016": 0.0,
			"0.017": 0.0,
			"0.018": 0.0,
			"0.019": 0.0,
			"0.02": 0.0,
			"0.021": 0.0,
			"0.022": 0.0,
			"0.023": 0.0,
			"0.024": 0.0,
			"0.025": 0.0
		}
	}
}
