{
	 "smiles": "NS(=O)(=O)C1=CC=C(SCCCO)C(=C1)[N+]([O-])=O", 
	 "Tm": 436.15, 
	 "num_atms": 30, 
	 "gaussian": { 
		 "optdone": 1, 
		 "sigma_profile": "yes", 
		 "theory": "DFT", 
		 "functional": "B3LYP", 
		 "basiset": "6-31G**", 
		 "properties": { 
			 "R2extent": 8119.9453, 
			 "electric_dipole_moment_norm": 5.86815221002, 
			 "electric_quadrupole_moment_norm": 24.0106535975, 
			 "total_energy": -1631.99164031, 
			 "HOMO_LUMO_gap": 0.14822, 
			 "cosmo_polarized_energy": -26.75, 
			 "cosmo_cavitation_energy": 37.46, 
			 "cosmo_dispersion_energy": -27.1, 
			 "cosmo_repulsion_energy": 2.05, 
			 "cosmo_total_nonelectrostatic_energy": 12.41, 
			 "SMD_solvation_energy": 7.6 
		},
		"coords": [
			{
				"x": 0.6244117258,
				"y": 5.011964844,
				"z": -0.1699199471,
				"element": "N" 
			},
			{
				"x": 2.1232952883,
				"y": 4.4261415016,
				"z": 0.2901211006,
				"element": "S" 
			},
			{
				"x": 3.0585123146,
				"y": 4.8720039732,
				"z": -0.7390198107,
				"element": "O" 
			},
			{
				"x": 2.2607515201,
				"y": 4.752950486,
				"z": 1.7061768969,
				"element": "O" 
			},
			{
				"x": 2.0393278405,
				"y": 2.6277973799,
				"z": 0.1703126223,
				"element": "C" 
			},
			{
				"x": 2.3975533666,
				"y": 1.9935626589,
				"z": -1.0221636162,
				"element": "C" 
			},
			{
				"x": 2.339161621,
				"y": 0.6051222944,
				"z": -1.0992866788,
				"element": "C" 
			},
			{
				"x": 1.8861276494,
				"y": -0.1770465665,
				"z": -0.0233315001,
				"element": "C" 
			},
			{
				"x": 1.9690552908,
				"y": -1.9630023448,
				"z": -0.1360432175,
				"element": "S" 
			},
			{
				"x": 0.6499101474,
				"y": -2.3131103364,
				"z": -1.3850505618,
				"element": "C" 
			},
			{
				"x": -0.783835137,
				"y": -2.2495765975,
				"z": -0.8540569645,
				"element": "C" 
			},
			{
				"x": -1.1135631545,
				"y": -3.3664699753,
				"z": 0.1290099644,
				"element": "C" 
			},
			{
				"x": -0.9295474435,
				"y": -4.6074104997,
				"z": -0.5502018104,
				"element": "O" 
			},
			{
				"x": 1.525107165,
				"y": 0.504421199,
				"z": 1.1506470515,
				"element": "C" 
			},
			{
				"x": 1.6315489983,
				"y": 1.8884918563,
				"z": 1.2760052848,
				"element": "C" 
			},
			{
				"x": 0.9910324775,
				"y": -0.1991168382,
				"z": 2.3355167229,
				"element": "N" 
			},
			{
				"x": 1.4995275369,
				"y": 0.0769835689,
				"z": 3.4178641448,
				"element": "O" 
			},
			{
				"x": 0.0451699622,
				"y": -0.96281887,
				"z": 2.1642992011,
				"element": "O" 
			},
			{
				"x": 0.3994606181,
				"y": 4.8550364216,
				"z": -1.1462563535,
				"element": "H" 
			},
			{
				"x": -0.1246245258,
				"y": 4.7835220018,
				"z": 0.4745808945,
				"element": "H" 
			},
			{
				"x": 2.765031827,
				"y": 2.5822064226,
				"z": -1.8559851004,
				"element": "H" 
			},
			{
				"x": 2.6775300059,
				"y": 0.1016376374,
				"z": -1.9989912644,
				"element": "H" 
			},
			{
				"x": 0.7978716719,
				"y": -1.636174055,
				"z": -2.2306368025,
				"element": "H" 
			},
			{
				"x": 0.8746709036,
				"y": -3.3286774967,
				"z": -1.7207788562,
				"element": "H" 
			},
			{
				"x": -1.4592892485,
				"y": -2.3328682801,
				"z": -1.7159297714,
				"element": "H" 
			},
			{
				"x": -0.9772132152,
				"y": -1.2850666844,
				"z": -0.3742992708,
				"element": "H" 
			},
			{
				"x": -2.1530806742,
				"y": -3.2502241079,
				"z": 0.472435486,
				"element": "H" 
			},
			{
				"x": -0.4618475595,
				"y": -3.2885503851,
				"z": 1.0092343134,
				"element": "H" 
			},
			{
				"x": -0.9816575626,
				"y": -5.317383458,
				"z": 0.1006512852,
				"element": "H" 
			},
			{
				"x": 1.4066005899,
				"y": 2.3703542502,
				"z": 2.2206965579,
				"element": "H" 
			}
		],
		 "valence_orbital": [ 
			{
				"type": "occ",
				"energy": -0.3152,
				"method": "rhf"
			},
			{
				"type": "occ",
				"energy": -0.29388,
				"method": "rhf"
			},
			{
				"type": "occ",
				"energy": -0.28604,
				"method": "rhf"
			},
			{
				"type": "occ",
				"energy": -0.27129,
				"method": "rhf"
			},
			{
				"type": "occ",
				"energy": -0.24558,
				"method": "rhf"
			},
			{
				"type": "unocc",
				"energy": -0.09736,
				"method": "rhf"
			},
			{
				"type": "unocc",
				"energy": -0.06957,
				"method": "rhf"
			},
			{
				"type": "unocc",
				"energy": -0.04214,
				"method": "rhf"
			},
			{
				"type": "unocc",
				"energy": 0.02016,
				"method": "rhf"
			},
			{
				"type": "unocc",
				"energy": 0.03645,
				"method": "rhf"
			}
		],
		"cosmo_sigma_profile": { 
			"-0.025": 0.0,
			"-0.024": 0.0,
			"-0.023": 0.0,
			"-0.022": 0.0,
			"-0.021": 0.0,
			"-0.02": 0.0,
			"-0.019": 0.0,
			"-0.018": 0.0,
			"-0.017": 0.0,
			"-0.016": 1.47090699864,
			"-0.015": 3.79319098065,
			"-0.014": 3.65328043828,
			"-0.013": 4.44190885204,
			"-0.012": 3.89840918945,
			"-0.011": 3.86525712324,
			"-0.01": 1.73685935961,
			"-0.009": 5.1528646607,
			"-0.008": 8.66921199437,
			"-0.007": 10.8386201531,
			"-0.006": 9.71564565184,
			"-0.005": 9.78663265364,
			"-0.004": 13.674079367,
			"-0.003": 20.968855964,
			"-0.002": 27.6009162943,
			"-0.001": 23.4078018395,
			"0.0": 17.8867856021,
			"0.001": 12.0123735878,
			"0.002": 10.1802070402,
			"0.003": 10.5123592207,
			"0.004": 11.2375920928,
			"0.005": 11.4802705197,
			"0.006": 12.0879332447,
			"0.007": 15.8008027964,
			"0.008": 11.1916288127,
			"0.009": 7.96094041521,
			"0.01": 11.0300952141,
			"0.011": 10.1364643033,
			"0.012": 1.62539965065,
			"0.013": 1.25296281946,
			"0.014": 1.03427322112,
			"0.015": 0.302792660686,
			"0.016": 0.0,
			"0.017": 0.0,
			"0.018": 0.0,
			"0.019": 0.0,
			"0.02": 0.0,
			"0.021": 0.0,
			"0.022": 0.0,
			"0.023": 0.0,
			"0.024": 0.0,
			"0.025": 0.0
		}
	}
}
