{
	 "smiles": "FC1=CC=C(C=C1)C(=O)CN1C=CN=C1", 
	 "Tm": 424.15, 
	 "num_atms": 24, 
	 "gaussian": { 
		 "optdone": 1, 
		 "sigma_profile": "yes", 
		 "theory": "DFT", 
		 "functional": "B3LYP", 
		 "basiset": "6-31G**", 
		 "properties": { 
			 "R2extent": 3668.8388, 
			 "electric_dipole_moment_norm": 2.43473612123, 
			 "electric_quadrupole_moment_norm": 13.1528024858, 
			 "total_energy": -709.136909366, 
			 "HOMO_LUMO_gap": 0.15676, 
			 "cosmo_polarized_energy": -14.52, 
			 "cosmo_cavitation_energy": 29.38, 
			 "cosmo_dispersion_energy": -20.52, 
			 "cosmo_repulsion_energy": 1.56, 
			 "cosmo_total_nonelectrostatic_energy": 10.42, 
			 "SMD_solvation_energy": 5.06 
		},
		"coords": [
			{
				"x": 2.2001099656,
				"y": 3.9953868732,
				"z": 0.4029649762,
				"element": "F" 
			},
			{
				"x": 1.9908370104,
				"y": 2.6688196173,
				"z": 0.448999938,
				"element": "C" 
			},
			{
				"x": 2.6948107334,
				"y": 1.908626197,
				"z": 1.3811423022,
				"element": "C" 
			},
			{
				"x": 2.4725687993,
				"y": 0.5386942858,
				"z": 1.4211789328,
				"element": "C" 
			},
			{
				"x": 1.5591703657,
				"y": -0.071594591,
				"z": 0.5421216558,
				"element": "C" 
			},
			{
				"x": 0.8659259977,
				"y": 0.7265005078,
				"z": -0.3834403046,
				"element": "C" 
			},
			{
				"x": 1.0782756834,
				"y": 2.1015098878,
				"z": -0.4349512777,
				"element": "C" 
			},
			{
				"x": 1.395922625,
				"y": -1.5491025663,
				"z": 0.6355488715,
				"element": "C" 
			},
			{
				"x": 2.0391270214,
				"y": -2.2143864005,
				"z": 1.4334662618,
				"element": "O" 
			},
			{
				"x": 0.4122142494,
				"y": -2.2855477201,
				"z": -0.2958034496,
				"element": "C" 
			},
			{
				"x": -0.9793945562,
				"y": -1.9403054665,
				"z": -0.0447044144,
				"element": "N" 
			},
			{
				"x": -1.6285683924,
				"y": -1.9747858101,
				"z": 1.1760899397,
				"element": "C" 
			},
			{
				"x": -2.9264096977,
				"y": -1.6135918503,
				"z": 0.9112872085,
				"element": "C" 
			},
			{
				"x": -3.0994308147,
				"y": -1.3631487321,
				"z": -0.4315839972,
				"element": "N" 
			},
			{
				"x": -1.9193472056,
				"y": -1.5703118164,
				"z": -0.9722258757,
				"element": "C" 
			},
			{
				"x": 3.395590243,
				"y": 2.396137295,
				"z": 2.0499754489,
				"element": "H" 
			},
			{
				"x": 3.0011811085,
				"y": -0.0902267822,
				"z": 2.1291580378,
				"element": "H" 
			},
			{
				"x": 0.1432041267,
				"y": 0.2866956988,
				"z": -1.0604900188,
				"element": "H" 
			},
			{
				"x": 0.5494920228,
				"y": 2.7342758999,
				"z": -1.1388913864,
				"element": "H" 
			},
			{
				"x": 0.5793168688,
				"y": -3.3535477057,
				"z": -0.1313596726,
				"element": "H" 
			},
			{
				"x": 0.6314380796,
				"y": -2.05691497,
				"z": -1.3435842652,
				"element": "H" 
			},
			{
				"x": -1.1138612956,
				"y": -2.2474360977,
				"z": 2.0848471889,
				"element": "H" 
			},
			{
				"x": -3.7442919337,
				"y": -1.5190890742,
				"z": 1.6121467975,
				"element": "H" 
			},
			{
				"x": -1.6763810051,
				"y": -1.4836566794,
				"z": -2.0237928975,
				"element": "H" 
			}
		],
		 "valence_orbital": [ 
			{
				"type": "occ",
				"energy": -0.28031,
				"method": "rhf"
			},
			{
				"type": "occ",
				"energy": -0.27047,
				"method": "rhf"
			},
			{
				"type": "occ",
				"energy": -0.26516,
				"method": "rhf"
			},
			{
				"type": "occ",
				"energy": -0.26002,
				"method": "rhf"
			},
			{
				"type": "occ",
				"energy": -0.23098,
				"method": "rhf"
			},
			{
				"type": "unocc",
				"energy": -0.07422,
				"method": "rhf"
			},
			{
				"type": "unocc",
				"energy": -0.029,
				"method": "rhf"
			},
			{
				"type": "unocc",
				"energy": 0.01818,
				"method": "rhf"
			},
			{
				"type": "unocc",
				"energy": 0.02184,
				"method": "rhf"
			},
			{
				"type": "unocc",
				"energy": 0.05842,
				"method": "rhf"
			}
		],
		"cosmo_sigma_profile": { 
			"-0.025": 0.0,
			"-0.024": 0.0,
			"-0.023": 0.0,
			"-0.022": 0.0,
			"-0.021": 0.0,
			"-0.02": 0.0,
			"-0.019": 0.0,
			"-0.018": 0.0,
			"-0.017": 0.0,
			"-0.016": 0.0,
			"-0.015": 0.0,
			"-0.014": 0.0,
			"-0.013": 0.0,
			"-0.012": 0.223833826737,
			"-0.011": 1.30224427004,
			"-0.01": 2.2510889538,
			"-0.009": 5.22073531495,
			"-0.008": 8.60563243616,
			"-0.007": 11.282580807,
			"-0.006": 15.6896569368,
			"-0.005": 15.6256975636,
			"-0.004": 12.4993182116,
			"-0.003": 12.0568526078,
			"-0.002": 10.417758814,
			"-0.001": 14.9959238256,
			"0.0": 18.2817693756,
			"0.001": 19.5737355799,
			"0.002": 21.2061330784,
			"0.003": 14.8035546032,
			"0.004": 12.8477738685,
			"0.005": 7.3354942622,
			"0.006": 4.08730913073,
			"0.007": 3.18954314033,
			"0.008": 3.18229519727,
			"0.009": 3.4632183691,
			"0.01": 3.67108954852,
			"0.011": 5.35244550275,
			"0.012": 2.82591872586,
			"0.013": 1.63792019913,
			"0.014": 0.740780623141,
			"0.015": 1.11421307415,
			"0.016": 1.29252504575,
			"0.017": 1.12204852128,
			"0.018": 0.608698069983,
			"0.019": 0.0,
			"0.02": 0.0,
			"0.021": 0.0,
			"0.022": 0.0,
			"0.023": 0.0,
			"0.024": 0.0,
			"0.025": 0.0
		}
	}
}
