{
	 "smiles": "CC(C)COC(=O)C1=C(C)NC(=S)NC1C1=CC=CC=C1", 
	 "Tm": 426.15, 
	 "num_atms": 41, 
	 "gaussian": { 
		 "optdone": 1, 
		 "sigma_profile": "yes", 
		 "theory": "DFT", 
		 "functional": "B3LYP", 
		 "basiset": "6-31G**", 
		 "properties": { 
			 "R2extent": 7349.1062, 
			 "electric_dipole_moment_norm": 4.89622948094, 
			 "electric_quadrupole_moment_norm": 17.3234564435, 
			 "total_energy": -1279.9356275, 
			 "HOMO_LUMO_gap": 0.15682, 
			 "cosmo_polarized_energy": -17.68, 
			 "cosmo_cavitation_energy": 44.58, 
			 "cosmo_dispersion_energy": -29.96, 
			 "cosmo_repulsion_energy": 2.27, 
			 "cosmo_total_nonelectrostatic_energy": 16.88, 
			 "SMD_solvation_energy": 6.38 
		},
		"coords": [
			{
				"x": -0.0281585346,
				"y": 2.4512531605,
				"z": -3.1582760937,
				"element": "C" 
			},
			{
				"x": 0.3540078657,
				"y": 1.2420542341,
				"z": -4.0241769818,
				"element": "C" 
			},
			{
				"x": -0.8877056626,
				"y": 0.4897783345,
				"z": -4.5240045085,
				"element": "C" 
			},
			{
				"x": 1.3434621305,
				"y": 0.3098358009,
				"z": -3.3163990591,
				"element": "C" 
			},
			{
				"x": 0.7534579834,
				"y": -0.3121169625,
				"z": -2.1475584695,
				"element": "O" 
			},
			{
				"x": 1.151857166,
				"y": 0.1351063766,
				"z": -0.9288716702,
				"element": "C" 
			},
			{
				"x": 1.9598152391,
				"y": 1.041006905,
				"z": -0.7829699696,
				"element": "O" 
			},
			{
				"x": 0.5372178219,
				"y": -0.5725599288,
				"z": 0.2032317692,
				"element": "C" 
			},
			{
				"x": -0.2051789375,
				"y": -1.711567961,
				"z": 0.1280721391,
				"element": "C" 
			},
			{
				"x": -0.6651782269,
				"y": -2.4310189636,
				"z": -1.1149170844,
				"element": "C" 
			},
			{
				"x": -0.5887989358,
				"y": -2.3323867804,
				"z": 1.3095700443,
				"element": "N" 
			},
			{
				"x": -0.0550969876,
				"y": -2.0657387328,
				"z": 2.5557749622,
				"element": "C" 
			},
			{
				"x": -0.3885637223,
				"y": -3.0564440966,
				"z": 3.8656693157,
				"element": "S" 
			},
			{
				"x": 0.7513211844,
				"y": -0.9875709096,
				"z": 2.5971279616,
				"element": "N" 
			},
			{
				"x": 0.8189297081,
				"y": 0.055093976,
				"z": 1.5654487564,
				"element": "C" 
			},
			{
				"x": -0.105997627,
				"y": 1.2392826919,
				"z": 1.8745052765,
				"element": "C" 
			},
			{
				"x": -1.3319770199,
				"y": 1.063336712,
				"z": 2.5297465361,
				"element": "C" 
			},
			{
				"x": -2.1636952441,
				"y": 2.1560222996,
				"z": 2.7804511586,
				"element": "C" 
			},
			{
				"x": -1.7818160063,
				"y": 3.437588572,
				"z": 2.3807803126,
				"element": "C" 
			},
			{
				"x": -0.5597649533,
				"y": 3.6209185078,
				"z": 1.7311360687,
				"element": "C" 
			},
			{
				"x": 0.274430177,
				"y": 2.530539528,
				"z": 1.4821935139,
				"element": "C" 
			},
			{
				"x": -0.5969051007,
				"y": 2.1405270336,
				"z": -2.2756325715,
				"element": "H" 
			},
			{
				"x": 0.8570160688,
				"y": 2.9903172094,
				"z": -2.8085121839,
				"element": "H" 
			},
			{
				"x": -0.653826804,
				"y": 3.1478254226,
				"z": -3.7258621011,
				"element": "H" 
			},
			{
				"x": 0.9035641171,
				"y": 1.6122311742,
				"z": -4.9029695837,
				"element": "H" 
			},
			{
				"x": -1.5450368654,
				"y": 1.156302458,
				"z": -5.0915735156,
				"element": "H" 
			},
			{
				"x": -0.6158930355,
				"y": -0.3482667988,
				"z": -5.1755937955,
				"element": "H" 
			},
			{
				"x": -1.4650011688,
				"y": 0.0899471695,
				"z": -3.6838020573,
				"element": "H" 
			},
			{
				"x": 1.6211196013,
				"y": -0.5219626704,
				"z": -3.9715491664,
				"element": "H" 
			},
			{
				"x": 2.2416048369,
				"y": 0.8480721211,
				"z": -3.008902487,
				"element": "H" 
			},
			{
				"x": -1.2700990128,
				"y": -1.7772872062,
				"z": -1.745100992,
				"element": "H" 
			},
			{
				"x": 0.1875470272,
				"y": -2.7513331374,
				"z": -1.7171914909,
				"element": "H" 
			},
			{
				"x": -1.2554520386,
				"y": -3.3134335603,
				"z": -0.8523383883,
				"element": "H" 
			},
			{
				"x": -1.1418666201,
				"y": -3.1762987295,
				"z": 1.2707805263,
				"element": "H" 
			},
			{
				"x": 1.1124024875,
				"y": -0.7679071917,
				"z": 3.5153244197,
				"element": "H" 
			},
			{
				"x": 1.8459936947,
				"y": 0.4291409486,
				"z": 1.5461352138,
				"element": "H" 
			},
			{
				"x": -1.6384898988,
				"y": 0.0770144637,
				"z": 2.8640219965,
				"element": "H" 
			},
			{
				"x": -3.1086447485,
				"y": 2.0039588903,
				"z": 3.2943974971,
				"element": "H" 
			},
			{
				"x": -2.4285636663,
				"y": 4.2873305573,
				"z": 2.5798948414,
				"element": "H" 
			},
			{
				"x": -0.2500595689,
				"y": 4.6156874996,
				"z": 1.4230598302,
				"element": "H" 
			},
			{
				"x": 1.2201232765,
				"y": 2.6706215826,
				"z": 0.9686800299,
				"element": "H" 
			}
		],
		 "valence_orbital": [ 
			{
				"type": "occ",
				"energy": -0.25048,
				"method": "rhf"
			},
			{
				"type": "occ",
				"energy": -0.24812,
				"method": "rhf"
			},
			{
				"type": "occ",
				"energy": -0.24077,
				"method": "rhf"
			},
			{
				"type": "occ",
				"energy": -0.21864,
				"method": "rhf"
			},
			{
				"type": "occ",
				"energy": -0.21382,
				"method": "rhf"
			},
			{
				"type": "unocc",
				"energy": -0.057,
				"method": "rhf"
			},
			{
				"type": "unocc",
				"energy": -0.00431,
				"method": "rhf"
			},
			{
				"type": "unocc",
				"energy": -0.00276,
				"method": "rhf"
			},
			{
				"type": "unocc",
				"energy": 0.01244,
				"method": "rhf"
			},
			{
				"type": "unocc",
				"energy": 0.0544,
				"method": "rhf"
			}
		],
		"cosmo_sigma_profile": { 
			"-0.025": 0.0,
			"-0.024": 0.0,
			"-0.023": 0.0,
			"-0.022": 0.0,
			"-0.021": 0.0,
			"-0.02": 0.0,
			"-0.019": 0.0,
			"-0.018": 0.0,
			"-0.017": 0.0,
			"-0.016": 0.344463142328,
			"-0.015": 1.77897926897,
			"-0.014": 2.27280314475,
			"-0.013": 1.77271964817,
			"-0.012": 2.56569262133,
			"-0.011": 1.66342769735,
			"-0.01": 1.40056389719,
			"-0.009": 1.64104563303,
			"-0.008": 2.87134090556,
			"-0.007": 2.93885047995,
			"-0.006": 7.41415093744,
			"-0.005": 15.3309286518,
			"-0.004": 24.9066580334,
			"-0.003": 37.9962237869,
			"-0.002": 40.5888918497,
			"-0.001": 36.1201954962,
			"0.0": 31.0429009716,
			"0.001": 30.9736932248,
			"0.002": 20.3105139087,
			"0.003": 15.6397459855,
			"0.004": 12.7862988665,
			"0.005": 14.4637265651,
			"0.006": 10.9107548319,
			"0.007": 4.93964941855,
			"0.008": 5.86924696166,
			"0.009": 5.95438908046,
			"0.01": 9.19690662521,
			"0.011": 6.57418678645,
			"0.012": 3.68171300371,
			"0.013": 0.398363282783,
			"0.014": 0.0,
			"0.015": 0.0,
			"0.016": 0.0,
			"0.017": 0.0,
			"0.018": 0.0,
			"0.019": 0.0,
			"0.02": 0.0,
			"0.021": 0.0,
			"0.022": 0.0,
			"0.023": 0.0,
			"0.024": 0.0,
			"0.025": 0.0
		}
	}
}
