{
	 "smiles": "NC(=O)C1=CC(N)=C(Cl)C=C1", 
	 "Tm": 438.15, 
	 "num_atms": 18, 
	 "gaussian": { 
		 "optdone": 1, 
		 "sigma_profile": "yes", 
		 "theory": "DFT", 
		 "functional": "B3LYP", 
		 "basiset": "6-31G**", 
		 "properties": { 
			 "R2extent": 2514.858, 
			 "electric_dipole_moment_norm": 1.52656464324, 
			 "electric_quadrupole_moment_norm": 19.5986495976, 
			 "total_energy": -915.907736963, 
			 "HOMO_LUMO_gap": 0.17804, 
			 "cosmo_polarized_energy": -15.55, 
			 "cosmo_cavitation_energy": 24.04, 
			 "cosmo_dispersion_energy": -18.19, 
			 "cosmo_repulsion_energy": 1.47, 
			 "cosmo_total_nonelectrostatic_energy": 7.32, 
			 "SMD_solvation_energy": 4.57 
		},
		"coords": [
			{
				"x": 2.2640452092,
				"y": -2.0161288207,
				"z": -1.8313874615,
				"element": "N" 
			},
			{
				"x": 1.7046757847,
				"y": -1.6533621469,
				"z": -0.6296354808,
				"element": "C" 
			},
			{
				"x": 2.1428896453,
				"y": -2.067791958,
				"z": 0.4369260821,
				"element": "O" 
			},
			{
				"x": 0.5414182182,
				"y": -0.7032094204,
				"z": -0.7000294282,
				"element": "C" 
			},
			{
				"x": -0.2582080945,
				"y": -0.6065490764,
				"z": 0.4377237981,
				"element": "C" 
			},
			{
				"x": -1.3752940473,
				"y": 0.2432355175,
				"z": 0.4883062202,
				"element": "C" 
			},
			{
				"x": -2.1950857439,
				"y": 0.2783460386,
				"z": 1.601596761,
				"element": "N" 
			},
			{
				"x": -1.6451288795,
				"y": 1.0114844005,
				"z": -0.6632015459,
				"element": "C" 
			},
			{
				"x": -3.0229261042,
				"y": 2.1103969687,
				"z": -0.654609132,
				"element": "Cl" 
			},
			{
				"x": -0.8448211724,
				"y": 0.9383303655,
				"z": -1.7993672034,
				"element": "C" 
			},
			{
				"x": 0.2515267257,
				"y": 0.0800008703,
				"z": -1.8271577069,
				"element": "C" 
			},
			{
				"x": 2.9614265941,
				"y": -2.7446911675,
				"z": -1.7807116961,
				"element": "H" 
			},
			{
				"x": 1.728389729,
				"y": -1.9534201936,
				"z": -2.6828019446,
				"element": "H" 
			},
			{
				"x": 0.0037333573,
				"y": -1.2126706446,
				"z": 1.2995723628,
				"element": "H" 
			},
			{
				"x": -1.7786220822,
				"y": -0.0410893631,
				"z": 2.4636274932,
				"element": "H" 
			},
			{
				"x": -2.7771587326,
				"y": 1.0970551323,
				"z": 1.7041927504,
				"element": "H" 
			},
			{
				"x": -1.0806653814,
				"y": 1.5647816331,
				"z": -2.6527032807,
				"element": "H" 
			},
			{
				"x": 0.8912049745,
				"y": 0.0635818649,
				"z": -2.7030405876,
				"element": "H" 
			}
		],
		 "valence_orbital": [ 
			{
				"type": "occ",
				"energy": -0.32062,
				"method": "rhf"
			},
			{
				"type": "occ",
				"energy": -0.27311,
				"method": "rhf"
			},
			{
				"type": "occ",
				"energy": -0.25651,
				"method": "rhf"
			},
			{
				"type": "occ",
				"energy": -0.24735,
				"method": "rhf"
			},
			{
				"type": "occ",
				"energy": -0.21579,
				"method": "rhf"
			},
			{
				"type": "unocc",
				"energy": -0.03775,
				"method": "rhf"
			},
			{
				"type": "unocc",
				"energy": -0.00421,
				"method": "rhf"
			},
			{
				"type": "unocc",
				"energy": 0.02623,
				"method": "rhf"
			},
			{
				"type": "unocc",
				"energy": 0.05966,
				"method": "rhf"
			},
			{
				"type": "unocc",
				"energy": 0.08015,
				"method": "rhf"
			}
		],
		"cosmo_sigma_profile": { 
			"-0.025": 0.0,
			"-0.024": 0.0,
			"-0.023": 0.0,
			"-0.022": 0.0,
			"-0.021": 0.0,
			"-0.02": 0.0,
			"-0.019": 0.0,
			"-0.018": 0.0,
			"-0.017": 0.0,
			"-0.016": 0.0,
			"-0.015": 0.110663742426,
			"-0.014": 1.39668771667,
			"-0.013": 4.18280413661,
			"-0.012": 3.83383369438,
			"-0.011": 4.92614525761,
			"-0.01": 5.48389818495,
			"-0.009": 4.68440757565,
			"-0.008": 4.74436650138,
			"-0.007": 6.43031347494,
			"-0.006": 7.90951024446,
			"-0.005": 5.7862279768,
			"-0.004": 6.09590074681,
			"-0.003": 6.33000159041,
			"-0.002": 8.3718496022,
			"-0.001": 9.36754738922,
			"0.0": 10.8088945121,
			"0.001": 13.705886107,
			"0.002": 16.8191531614,
			"0.003": 17.9985989795,
			"0.004": 19.7780136866,
			"0.005": 7.69822021102,
			"0.006": 4.14139104907,
			"0.007": 2.68124323258,
			"0.008": 2.48139868764,
			"0.009": 2.11606986908,
			"0.01": 1.88991678231,
			"0.011": 2.13132485363,
			"0.012": 2.95784217175,
			"0.013": 4.73089419922,
			"0.014": 3.77785809066,
			"0.015": 0.24557634792,
			"0.016": 0.0,
			"0.017": 0.0,
			"0.018": 0.0,
			"0.019": 0.0,
			"0.02": 0.0,
			"0.021": 0.0,
			"0.022": 0.0,
			"0.023": 0.0,
			"0.024": 0.0,
			"0.025": 0.0
		}
	}
}
