{
	 "smiles": "FC1=C2SC=C(CBr)C2=CC=C1", 
	 "Tm": 348.15, 
	 "num_atms": 18, 
	 "gaussian": { 
		 "optdone": 1, 
		 "sigma_profile": "yes", 
		 "theory": "DFT", 
		 "functional": "B3LYP", 
		 "basiset": "6-31G**", 
		 "properties": { 
			 "R2extent": 3692.2651, 
			 "electric_dipole_moment_norm": 1.75768250262, 
			 "electric_quadrupole_moment_norm": 12.3263866356, 
			 "total_energy": -3416.00459114, 
			 "HOMO_LUMO_gap": 0.18018, 
			 "cosmo_polarized_energy": -7.13, 
			 "cosmo_cavitation_energy": 26.33, 
			 "cosmo_dispersion_energy": -19.98, 
			 "cosmo_repulsion_energy": 1.52, 
			 "cosmo_total_nonelectrostatic_energy": 7.87, 
			 "SMD_solvation_energy": 3.41 
		},
		"coords": [
			{
				"x": 0.9785870646,
				"y": -1.521384664,
				"z": -3.2672506655,
				"element": "F" 
			},
			{
				"x": 0.7892293182,
				"y": -0.6303846472,
				"z": -2.2730006007,
				"element": "C" 
			},
			{
				"x": 0.1040398598,
				"y": -1.0327954742,
				"z": -1.1283203932,
				"element": "C" 
			},
			{
				"x": -0.5721253347,
				"y": -2.6130468048,
				"z": -0.7959240186,
				"element": "S" 
			},
			{
				"x": -1.1448889584,
				"y": -2.0486532124,
				"z": 0.7517514141,
				"element": "C" 
			},
			{
				"x": -0.8525303941,
				"y": -0.7418913761,
				"z": 1.0137355726,
				"element": "C" 
			},
			{
				"x": -1.2848985328,
				"y": -0.0376497585,
				"z": 2.2463493278,
				"element": "C" 
			},
			{
				"x": 0.2356823772,
				"y": 0.328261603,
				"z": 3.5109572928,
				"element": "Br" 
			},
			{
				"x": -0.113009639,
				"y": -0.1216855202,
				"z": -0.0692970077,
				"element": "C" 
			},
			{
				"x": 0.3794126081,
				"y": 1.191885566,
				"z": -0.1814139989,
				"element": "C" 
			},
			{
				"x": 1.0588013929,
				"y": 1.5685764368,
				"z": -1.3327842768,
				"element": "C" 
			},
			{
				"x": 1.2677860285,
				"y": 0.6625603589,
				"z": -2.3882328097,
				"element": "C" 
			},
			{
				"x": -1.6819183403,
				"y": -2.7344688343,
				"z": 1.3942756502,
				"element": "H" 
			},
			{
				"x": -1.6945112297,
				"y": 0.95137212,
				"z": 2.0450515849,
				"element": "H" 
			},
			{
				"x": -1.9936393976,
				"y": -0.6204823919,
				"z": 2.8304234214,
				"element": "H" 
			},
			{
				"x": 0.2455384733,
				"y": 1.8956389881,
				"z": 0.6332920007,
				"element": "H" 
			},
			{
				"x": 1.443283666,
				"y": 2.5794977296,
				"z": -1.4244988487,
				"element": "H" 
			},
			{
				"x": 1.798961038,
				"y": 0.9518498813,
				"z": -3.2883136446,
				"element": "H" 
			}
		],
		 "valence_orbital": [ 
			{
				"type": "occ",
				"energy": -0.28707,
				"method": "rhf"
			},
			{
				"type": "occ",
				"energy": -0.27435,
				"method": "rhf"
			},
			{
				"type": "occ",
				"energy": -0.27059,
				"method": "rhf"
			},
			{
				"type": "occ",
				"energy": -0.25076,
				"method": "rhf"
			},
			{
				"type": "occ",
				"energy": -0.22613,
				"method": "rhf"
			},
			{
				"type": "unocc",
				"energy": -0.04595,
				"method": "rhf"
			},
			{
				"type": "unocc",
				"energy": -0.01704,
				"method": "rhf"
			},
			{
				"type": "unocc",
				"energy": -0.00792,
				"method": "rhf"
			},
			{
				"type": "unocc",
				"energy": 0.01574,
				"method": "rhf"
			},
			{
				"type": "unocc",
				"energy": 0.05121,
				"method": "rhf"
			}
		],
		"cosmo_sigma_profile": { 
			"-0.025": 0.0,
			"-0.024": 0.0,
			"-0.023": 0.0,
			"-0.022": 0.0,
			"-0.021": 0.0,
			"-0.02": 0.0,
			"-0.019": 0.0,
			"-0.018": 0.0,
			"-0.017": 0.0,
			"-0.016": 0.0,
			"-0.015": 0.0,
			"-0.014": 0.0,
			"-0.013": 0.0,
			"-0.012": 0.0,
			"-0.011": 0.0,
			"-0.01": 0.528518750782,
			"-0.009": 3.79508426997,
			"-0.008": 6.94689015173,
			"-0.007": 8.68907964926,
			"-0.006": 10.6807185681,
			"-0.005": 11.5888453198,
			"-0.004": 9.69861976415,
			"-0.003": 8.91590449359,
			"-0.002": 8.17348984025,
			"-0.001": 11.9064949609,
			"0.0": 18.0703823769,
			"0.001": 23.8057303318,
			"0.002": 22.9358213896,
			"0.003": 24.8792336289,
			"0.004": 24.2945602027,
			"0.005": 9.50349220055,
			"0.006": 10.2457015773,
			"0.007": 2.63134066985,
			"0.008": 0.0,
			"0.009": 0.0,
			"0.01": 0.0,
			"0.011": 0.0,
			"0.012": 0.0,
			"0.013": 0.0,
			"0.014": 0.0,
			"0.015": 0.0,
			"0.016": 0.0,
			"0.017": 0.0,
			"0.018": 0.0,
			"0.019": 0.0,
			"0.02": 0.0,
			"0.021": 0.0,
			"0.022": 0.0,
			"0.023": 0.0,
			"0.024": 0.0,
			"0.025": 0.0
		}
	}
}
