{
	 "smiles": "CC(C)(C)C(O)C(CC1=CC=C(Cl)C=C1)N1C=NC=N1", 
	 "Tm": 439.15, 
	 "num_atms": 40, 
	 "gaussian": { 
		 "optdone": 1, 
		 "sigma_profile": "yes", 
		 "theory": "DFT", 
		 "functional": "B3LYP", 
		 "basiset": "6-31G**", 
		 "properties": { 
			 "R2extent": 8231.1361, 
			 "electric_dipole_moment_norm": 4.66414155553, 
			 "electric_quadrupole_moment_norm": 14.6541985533, 
			 "total_energy": -1283.30891076, 
			 "HOMO_LUMO_gap": 0.2261, 
			 "cosmo_polarized_energy": -14.24, 
			 "cosmo_cavitation_energy": 42.58, 
			 "cosmo_dispersion_energy": -28.63, 
			 "cosmo_repulsion_energy": 2.17, 
			 "cosmo_total_nonelectrostatic_energy": 16.12, 
			 "SMD_solvation_energy": 5.57 
		},
		"coords": [
			{
				"x": -2.7952162228,
				"y": -1.2845655516,
				"z": -1.3471803413,
				"element": "C" 
			},
			{
				"x": -2.2729573954,
				"y": -1.5275684987,
				"z": 0.0817706249,
				"element": "C" 
			},
			{
				"x": -2.6986189844,
				"y": -0.3702587801,
				"z": 1.0042683586,
				"element": "C" 
			},
			{
				"x": -2.930018555,
				"y": -2.8292612759,
				"z": 0.6058057674,
				"element": "C" 
			},
			{
				"x": -0.7284058866,
				"y": -1.7730971311,
				"z": 0.0775580385,
				"element": "C" 
			},
			{
				"x": -0.2442068503,
				"y": -2.120852672,
				"z": 1.3777393411,
				"element": "O" 
			},
			{
				"x": 0.3117320679,
				"y": -0.6940507944,
				"z": -0.3617790248,
				"element": "C" 
			},
			{
				"x": 0.3668214262,
				"y": 0.5949834492,
				"z": 0.4848526435,
				"element": "C" 
			},
			{
				"x": 1.7141582895,
				"y": 1.2848109718,
				"z": 0.414098403,
				"element": "C" 
			},
			{
				"x": 2.7634529439,
				"y": 0.8738627932,
				"z": 1.2481718737,
				"element": "C" 
			},
			{
				"x": 4.0160524777,
				"y": 1.4840890016,
				"z": 1.192480549,
				"element": "C" 
			},
			{
				"x": 4.2210721742,
				"y": 2.5243109024,
				"z": 0.2868989324,
				"element": "C" 
			},
			{
				"x": 5.796055364,
				"y": 3.3064456978,
				"z": 0.2098972836,
				"element": "Cl" 
			},
			{
				"x": 3.1977348451,
				"y": 2.9558744435,
				"z": -0.5548435088,
				"element": "C" 
			},
			{
				"x": 1.951301463,
				"y": 2.3322242528,
				"z": -0.4851233972,
				"element": "C" 
			},
			{
				"x": 0.2816624394,
				"y": -0.3894422622,
				"z": -1.7966344405,
				"element": "N" 
			},
			{
				"x": 0.8995376157,
				"y": -1.0571797178,
				"z": -2.7986413404,
				"element": "C" 
			},
			{
				"x": 0.6559131792,
				"y": -0.487413704,
				"z": -3.9672896127,
				"element": "N" 
			},
			{
				"x": -0.1349629258,
				"y": 0.5623476862,
				"z": -3.6160985156,
				"element": "C" 
			},
			{
				"x": -0.3906521672,
				"y": 0.6712943153,
				"z": -2.3186705249,
				"element": "N" 
			},
			{
				"x": -2.4372156509,
				"y": -0.3394255312,
				"z": -1.7574640937,
				"element": "H" 
			},
			{
				"x": -3.8903545053,
				"y": -1.2571636724,
				"z": -1.3403998858,
				"element": "H" 
			},
			{
				"x": -2.4920378215,
				"y": -2.0890872378,
				"z": -2.0280475252,
				"element": "H" 
			},
			{
				"x": -3.7870505695,
				"y": -0.3739134282,
				"z": 1.1285400914,
				"element": "H" 
			},
			{
				"x": -2.4231592687,
				"y": 0.6035738804,
				"z": 0.593243433,
				"element": "H" 
			},
			{
				"x": -2.246481643,
				"y": -0.4705461863,
				"z": 1.9954046375,
				"element": "H" 
			},
			{
				"x": -4.0180492418,
				"y": -2.762451734,
				"z": 0.5103092665,
				"element": "H" 
			},
			{
				"x": -2.6046022571,
				"y": -3.7076419872,
				"z": 0.0348780732,
				"element": "H" 
			},
			{
				"x": -2.7214749593,
				"y": -3.0054809074,
				"z": 1.667828542,
				"element": "H" 
			},
			{
				"x": -0.5646555672,
				"y": -2.6168539515,
				"z": -0.6156718785,
				"element": "H" 
			},
			{
				"x": -0.7070735046,
				"y": -2.9139781518,
				"z": 1.6715149805,
				"element": "H" 
			},
			{
				"x": 1.2629492317,
				"y": -1.2140489684,
				"z": -0.2068029385,
				"element": "H" 
			},
			{
				"x": -0.4198891425,
				"y": 1.2772804845,
				"z": 0.1608055733,
				"element": "H" 
			},
			{
				"x": 0.1591075448,
				"y": 0.3013113277,
				"z": 1.5162671597,
				"element": "H" 
			},
			{
				"x": 2.5980565087,
				"y": 0.0668112084,
				"z": 1.9580819296,
				"element": "H" 
			},
			{
				"x": 4.8207509962,
				"y": 1.1636232664,
				"z": 1.8450956822,
				"element": "H" 
			},
			{
				"x": 3.3734149333,
				"y": 3.7670273196,
				"z": -1.2529075426,
				"element": "H" 
			},
			{
				"x": 1.1528093197,
				"y": 2.6582095786,
				"z": -1.1446136481,
				"element": "H" 
			},
			{
				"x": 1.5126351813,
				"y": -1.9318226269,
				"z": -2.6282255072,
				"element": "H" 
			},
			{
				"x": -0.5312348826,
				"y": 1.2711241914,
				"z": -4.3304174585,
				"element": "H" 
			}
		],
		 "valence_orbital": [ 
			{
				"type": "occ",
				"energy": -0.283,
				"method": "rhf"
			},
			{
				"type": "occ",
				"energy": -0.27717,
				"method": "rhf"
			},
			{
				"type": "occ",
				"energy": -0.26664,
				"method": "rhf"
			},
			{
				"type": "occ",
				"energy": -0.25902,
				"method": "rhf"
			},
			{
				"type": "occ",
				"energy": -0.23799,
				"method": "rhf"
			},
			{
				"type": "unocc",
				"energy": -0.01189,
				"method": "rhf"
			},
			{
				"type": "unocc",
				"energy": -0.00972,
				"method": "rhf"
			},
			{
				"type": "unocc",
				"energy": 0.00014,
				"method": "rhf"
			},
			{
				"type": "unocc",
				"energy": 0.03372,
				"method": "rhf"
			},
			{
				"type": "unocc",
				"energy": 0.04851,
				"method": "rhf"
			}
		],
		"cosmo_sigma_profile": { 
			"-0.025": 0.0,
			"-0.024": 0.0,
			"-0.023": 0.0,
			"-0.022": 0.0,
			"-0.021": 0.0,
			"-0.02": 0.0,
			"-0.019": 0.0,
			"-0.018": 0.0,
			"-0.017": 0.0,
			"-0.016": 0.0,
			"-0.015": 0.233933868214,
			"-0.014": 0.597226050699,
			"-0.013": 0.597494595978,
			"-0.012": 0.88046362551,
			"-0.011": 1.44275739931,
			"-0.01": 4.39780279251,
			"-0.009": 3.16824679056,
			"-0.008": 5.45515859178,
			"-0.007": 7.17737421286,
			"-0.006": 10.4644718562,
			"-0.005": 13.1386231558,
			"-0.004": 20.0392040117,
			"-0.003": 28.0450443863,
			"-0.002": 27.2782899281,
			"-0.001": 29.5807432971,
			"0.0": 28.9971364955,
			"0.001": 38.2842742992,
			"0.002": 33.3897524871,
			"0.003": 20.4359111117,
			"0.004": 22.858241385,
			"0.005": 14.6231807228,
			"0.006": 3.82204328454,
			"0.007": 3.81303602843,
			"0.008": 3.36242203278,
			"0.009": 2.19566353451,
			"0.01": 2.74508236255,
			"0.011": 3.47681127248,
			"0.012": 2.08938528772,
			"0.013": 0.942069171574,
			"0.014": 1.36382363465,
			"0.015": 1.01735517989,
			"0.016": 1.06824544576,
			"0.017": 0.412566911187,
			"0.018": 0.0,
			"0.019": 0.0,
			"0.02": 0.0,
			"0.021": 0.0,
			"0.022": 0.0,
			"0.023": 0.0,
			"0.024": 0.0,
			"0.025": 0.0
		}
	}
}
