{
	 "smiles": "CN(C)C(=O)C1=C(C=CC=C1)C(O)=O", 
	 "Tm": 398.15, 
	 "num_atms": 25, 
	 "gaussian": { 
		 "optdone": 1, 
		 "sigma_profile": "yes", 
		 "theory": "DFT", 
		 "functional": "B3LYP", 
		 "basiset": "6-31G**", 
		 "properties": { 
			 "R2extent": 2751.0955, 
			 "electric_dipole_moment_norm": 3.75326441515, 
			 "electric_quadrupole_moment_norm": 12.0879641119, 
			 "total_energy": -668.140207699, 
			 "HOMO_LUMO_gap": 0.17621, 
			 "cosmo_polarized_energy": -15.7, 
			 "cosmo_cavitation_energy": 28.92, 
			 "cosmo_dispersion_energy": -20.34, 
			 "cosmo_repulsion_energy": 1.6, 
			 "cosmo_total_nonelectrostatic_energy": 10.19, 
			 "SMD_solvation_energy": 6.54 
		},
		"coords": [
			{
				"x": -1.6019807209,
				"y": -1.5004141721,
				"z": 2.0322288275,
				"element": "C" 
			},
			{
				"x": -2.1621496151,
				"y": -0.2196272328,
				"z": 1.6346838519,
				"element": "N" 
			},
			{
				"x": -2.8833478167,
				"y": 0.5059914591,
				"z": 2.6713083359,
				"element": "C" 
			},
			{
				"x": -1.7267522922,
				"y": 0.4851554335,
				"z": 0.5452660406,
				"element": "C" 
			},
			{
				"x": -2.0357147133,
				"y": 1.6517744981,
				"z": 0.3253212109,
				"element": "O" 
			},
			{
				"x": -0.9403523697,
				"y": -0.2605485825,
				"z": -0.5193027003,
				"element": "C" 
			},
			{
				"x": 0.4676146377,
				"y": -0.2522426107,
				"z": -0.589492774,
				"element": "C" 
			},
			{
				"x": 1.1155765706,
				"y": -0.8123273222,
				"z": -1.7011530808,
				"element": "C" 
			},
			{
				"x": 0.3807364656,
				"y": -1.3905219238,
				"z": -2.7322010987,
				"element": "C" 
			},
			{
				"x": -1.0136471295,
				"y": -1.4037261867,
				"z": -2.6630077826,
				"element": "C" 
			},
			{
				"x": -1.6655107062,
				"y": -0.834892153,
				"z": -1.5690009307,
				"element": "C" 
			},
			{
				"x": 1.258328218,
				"y": 0.3198998733,
				"z": 0.5320200292,
				"element": "C" 
			},
			{
				"x": 2.5686912889,
				"y": 0.4888675688,
				"z": 0.2272133197,
				"element": "O" 
			},
			{
				"x": 0.8161562136,
				"y": 0.6045588593,
				"z": 1.6290522085,
				"element": "O" 
			},
			{
				"x": -1.1739500647,
				"y": -2.012528465,
				"z": 1.1706463999,
				"element": "H" 
			},
			{
				"x": -2.3927000729,
				"y": -2.1333991098,
				"z": 2.4500239157,
				"element": "H" 
			},
			{
				"x": -0.8161731002,
				"y": -1.3714300183,
				"z": 2.7878113179,
				"element": "H" 
			},
			{
				"x": -3.6952110652,
				"y": -0.1166414328,
				"z": 3.0623906678,
				"element": "H" 
			},
			{
				"x": -3.2893006723,
				"y": 1.4187237211,
				"z": 2.2380315265,
				"element": "H" 
			},
			{
				"x": -2.2143475329,
				"y": 0.7740693528,
				"z": 3.5002177378,
				"element": "H" 
			},
			{
				"x": 2.1984331249,
				"y": -0.7933830676,
				"z": -1.7425867276,
				"element": "H" 
			},
			{
				"x": 0.8921486767,
				"y": -1.8264937874,
				"z": -3.5848557891,
				"element": "H" 
			},
			{
				"x": -1.5956422634,
				"y": -1.8494080892,
				"z": -3.4646120733,
				"element": "H" 
			},
			{
				"x": -2.7505276983,
				"y": -0.8249036097,
				"z": -1.5281992169,
				"element": "H" 
			},
			{
				"x": 2.9796226374,
				"y": 0.8504469975,
				"z": 1.029596784,
				"element": "H" 
			}
		],
		 "valence_orbital": [ 
			{
				"type": "occ",
				"energy": -0.28134,
				"method": "rhf"
			},
			{
				"type": "occ",
				"energy": -0.27137,
				"method": "rhf"
			},
			{
				"type": "occ",
				"energy": -0.26713,
				"method": "rhf"
			},
			{
				"type": "occ",
				"energy": -0.23887,
				"method": "rhf"
			},
			{
				"type": "occ",
				"energy": -0.22938,
				"method": "rhf"
			},
			{
				"type": "unocc",
				"energy": -0.05317,
				"method": "rhf"
			},
			{
				"type": "unocc",
				"energy": -0.01572,
				"method": "rhf"
			},
			{
				"type": "unocc",
				"energy": 0.03354,
				"method": "rhf"
			},
			{
				"type": "unocc",
				"energy": 0.0505,
				"method": "rhf"
			},
			{
				"type": "unocc",
				"energy": 0.0749,
				"method": "rhf"
			}
		],
		"cosmo_sigma_profile": { 
			"-0.025": 0.0,
			"-0.024": 0.0,
			"-0.023": 0.0,
			"-0.022": 0.0,
			"-0.021": 0.0,
			"-0.02": 0.0,
			"-0.019": 0.07925088389,
			"-0.018": 0.70187943853,
			"-0.017": 1.09075883801,
			"-0.016": 0.720766049056,
			"-0.015": 1.07020511811,
			"-0.014": 0.515104891917,
			"-0.013": 0.537704144062,
			"-0.012": 0.718825354433,
			"-0.011": 0.670359891314,
			"-0.01": 1.11525210548,
			"-0.009": 0.420325823496,
			"-0.008": 0.508756965828,
			"-0.007": 5.84805189818,
			"-0.006": 9.656653014,
			"-0.005": 17.4084370297,
			"-0.004": 17.218503622,
			"-0.003": 22.5265712109,
			"-0.002": 26.4673739631,
			"-0.001": 19.0259926976,
			"0.0": 13.6689130132,
			"0.001": 11.5419553907,
			"0.002": 14.0778469762,
			"0.003": 15.0109446656,
			"0.004": 7.19494079737,
			"0.005": 4.69273085287,
			"0.006": 4.9379806877,
			"0.007": 4.67998088656,
			"0.008": 3.74816242172,
			"0.009": 3.53061506291,
			"0.01": 4.1369768522,
			"0.011": 3.97282577854,
			"0.012": 3.27785259482,
			"0.013": 4.48588582104,
			"0.014": 3.48642991319,
			"0.015": 0.74276385272,
			"0.016": 0.0,
			"0.017": 0.0,
			"0.018": 0.0,
			"0.019": 0.0,
			"0.02": 0.0,
			"0.021": 0.0,
			"0.022": 0.0,
			"0.023": 0.0,
			"0.024": 0.0,
			"0.025": 0.0
		}
	}
}
