{
	 "smiles": "[O-][N+](=O)C1=CC=C(C=CC=O)C=C1", 
	 "Tm": 415.15, 
	 "num_atms": 20, 
	 "gaussian": { 
		 "optdone": 1, 
		 "sigma_profile": "yes", 
		 "theory": "DFT", 
		 "functional": "B3LYP", 
		 "basiset": "6-31G**", 
		 "properties": { 
			 "R2extent": 4134.8363, 
			 "electric_dipole_moment_norm": 2.54665698711, 
			 "electric_quadrupole_moment_norm": 29.486066541, 
			 "total_energy": -627.471880535, 
			 "HOMO_LUMO_gap": 0.14895, 
			 "cosmo_polarized_energy": -13.01, 
			 "cosmo_cavitation_energy": 26.33, 
			 "cosmo_dispersion_energy": -18.95, 
			 "cosmo_repulsion_energy": 1.48, 
			 "cosmo_total_nonelectrostatic_energy": 8.86, 
			 "SMD_solvation_energy": 8.03 
		},
		"coords": [
			{
				"x": -2.0903557137,
				"y": 0.0691483489,
				"z": 4.7948932484,
				"element": "O" 
			},
			{
				"x": -2.1636949375,
				"y": 0.9400672304,
				"z": 3.9286656106,
				"element": "N" 
			},
			{
				"x": -2.8896038598,
				"y": 1.9316547651,
				"z": 3.9870103707,
				"element": "O" 
			},
			{
				"x": -1.3197355814,
				"y": 0.7834747865,
				"z": 2.7335316169,
				"element": "C" 
			},
			{
				"x": -1.3780482784,
				"y": 1.7506266333,
				"z": 1.7333116197,
				"element": "C" 
			},
			{
				"x": -0.5757685743,
				"y": 1.5911174098,
				"z": 0.6091769757,
				"element": "C" 
			},
			{
				"x": 0.2810130126,
				"y": 0.4809698536,
				"z": 0.4728418539,
				"element": "C" 
			},
			{
				"x": 1.09745879,
				"y": 0.3752516812,
				"z": -0.7349480662,
				"element": "C" 
			},
			{
				"x": 1.9743424009,
				"y": -0.5962413769,
				"z": -1.0603897677,
				"element": "C" 
			},
			{
				"x": 2.7192010148,
				"y": -0.5389770645,
				"z": -2.3363416398,
				"element": "C" 
			},
			{
				"x": 2.605614846,
				"y": 0.3516882032,
				"z": -3.1603259052,
				"element": "O" 
			},
			{
				"x": 0.3100241198,
				"y": -0.4758809356,
				"z": 1.509005637,
				"element": "C" 
			},
			{
				"x": -0.4845171389,
				"y": -0.3309957464,
				"z": 2.637039263,
				"element": "C" 
			},
			{
				"x": -2.0401195763,
				"y": 2.5994194902,
				"z": 1.8490285476,
				"element": "H" 
			},
			{
				"x": -0.6082569789,
				"y": 2.3355205257,
				"z": -0.1807902047,
				"element": "H" 
			},
			{
				"x": 0.9849276326,
				"y": 1.1786061903,
				"z": -1.4619143694,
				"element": "H" 
			},
			{
				"x": 2.1706542414,
				"y": -1.4483408941,
				"z": -0.414474529,
				"element": "H" 
			},
			{
				"x": 3.4163567927,
				"y": -1.3853430026,
				"z": -2.511384896,
				"element": "H" 
			},
			{
				"x": 0.9598153444,
				"y": -1.3409054266,
				"z": 1.4316696215,
				"element": "H" 
			},
			{
				"x": -0.4733075561,
				"y": -1.0567606715,
				"z": 3.4403950131,
				"element": "H" 
			}
		],
		 "valence_orbital": [ 
			{
				"type": "occ",
				"energy": -0.31484,
				"method": "rhf"
			},
			{
				"type": "occ",
				"energy": -0.29872,
				"method": "rhf"
			},
			{
				"type": "occ",
				"energy": -0.29127,
				"method": "rhf"
			},
			{
				"type": "occ",
				"energy": -0.26605,
				"method": "rhf"
			},
			{
				"type": "occ",
				"energy": -0.26419,
				"method": "rhf"
			},
			{
				"type": "unocc",
				"energy": -0.11524,
				"method": "rhf"
			},
			{
				"type": "unocc",
				"energy": -0.07008,
				"method": "rhf"
			},
			{
				"type": "unocc",
				"energy": -0.03909,
				"method": "rhf"
			},
			{
				"type": "unocc",
				"energy": 0.00057,
				"method": "rhf"
			},
			{
				"type": "unocc",
				"energy": 0.06485,
				"method": "rhf"
			}
		],
		"cosmo_sigma_profile": { 
			"-0.025": 0.0,
			"-0.024": 0.0,
			"-0.023": 0.0,
			"-0.022": 0.0,
			"-0.021": 0.0,
			"-0.02": 0.0,
			"-0.019": 0.0,
			"-0.018": 0.0,
			"-0.017": 0.0,
			"-0.016": 0.0,
			"-0.015": 0.0,
			"-0.014": 0.0,
			"-0.013": 0.0,
			"-0.012": 0.0,
			"-0.011": 0.0,
			"-0.01": 0.454661336808,
			"-0.009": 2.88053558138,
			"-0.008": 8.56566521355,
			"-0.007": 13.7009282497,
			"-0.006": 13.8026147353,
			"-0.005": 11.6632847141,
			"-0.004": 11.8401968318,
			"-0.003": 11.3623543437,
			"-0.002": 13.8603786791,
			"-0.001": 16.2677461921,
			"0.0": 22.7462593914,
			"0.001": 20.4005295654,
			"0.002": 8.15969248313,
			"0.003": 4.46791144139,
			"0.004": 3.62931567738,
			"0.005": 5.1572703812,
			"0.006": 5.12834425211,
			"0.007": 10.3646940628,
			"0.008": 8.36968168412,
			"0.009": 6.65542185717,
			"0.01": 4.66750057405,
			"0.011": 4.08508769248,
			"0.012": 3.00915098943,
			"0.013": 0.866249547352,
			"0.014": 0.0,
			"0.015": 0.0,
			"0.016": 0.0,
			"0.017": 0.0,
			"0.018": 0.0,
			"0.019": 0.0,
			"0.02": 0.0,
			"0.021": 0.0,
			"0.022": 0.0,
			"0.023": 0.0,
			"0.024": 0.0,
			"0.025": 0.0
		}
	}
}
