{
	 "smiles": "CCOC1=CC(=CC=C1O)C(=S)N1CCCCC1", 
	 "Tm": 396.15, 
	 "num_atms": 37, 
	 "gaussian": { 
		 "optdone": 1, 
		 "sigma_profile": "yes", 
		 "theory": "DFT", 
		 "functional": "B3LYP", 
		 "basiset": "6-31G**", 
		 "properties": { 
			 "R2extent": 6560.3051, 
			 "electric_dipole_moment_norm": 6.478896991, 
			 "electric_quadrupole_moment_norm": 16.990881438, 
			 "total_energy": -1148.32785071, 
			 "HOMO_LUMO_gap": 0.15114, 
			 "cosmo_polarized_energy": -17.34, 
			 "cosmo_cavitation_energy": 39.42, 
			 "cosmo_dispersion_energy": -28.06, 
			 "cosmo_repulsion_energy": 2.19, 
			 "cosmo_total_nonelectrostatic_energy": 13.54, 
			 "SMD_solvation_energy": 5.11 
		},
		"coords": [
			{
				"x": 1.5790545816,
				"y": 3.229605452,
				"z": 1.6154962805,
				"element": "C" 
			},
			{
				"x": 0.3536318135,
				"y": 3.4185309854,
				"z": 0.7289291201,
				"element": "C" 
			},
			{
				"x": 0.6804547369,
				"y": 3.460964625,
				"z": -0.6646468395,
				"element": "O" 
			},
			{
				"x": 1.001410576,
				"y": 2.2988646858,
				"z": -1.3298990659,
				"element": "C" 
			},
			{
				"x": 0.8395181647,
				"y": 1.0017802445,
				"z": -0.8582431067,
				"element": "C" 
			},
			{
				"x": 1.2154592828,
				"y": -0.0974864491,
				"z": -1.6579188652,
				"element": "C" 
			},
			{
				"x": 1.7494136464,
				"y": 0.1376197074,
				"z": -2.9298289802,
				"element": "C" 
			},
			{
				"x": 1.8854335308,
				"y": 1.4375557406,
				"z": -3.4153011104,
				"element": "C" 
			},
			{
				"x": 1.520256279,
				"y": 2.5225135656,
				"z": -2.6231520404,
				"element": "C" 
			},
			{
				"x": 1.6655807042,
				"y": 3.7914905597,
				"z": -3.0865035256,
				"element": "O" 
			},
			{
				"x": 1.1212072154,
				"y": -1.486025544,
				"z": -1.1174534065,
				"element": "C" 
			},
			{
				"x": 2.4758224012,
				"y": -2.4795715995,
				"z": -1.1322610529,
				"element": "S" 
			},
			{
				"x": -0.0684455984,
				"y": -1.8726160881,
				"z": -0.5881478968,
				"element": "N" 
			},
			{
				"x": -0.1650039174,
				"y": -3.1691183233,
				"z": 0.1106341885,
				"element": "C" 
			},
			{
				"x": -1.4902373181,
				"y": -3.2860421559,
				"z": 0.8643065852,
				"element": "C" 
			},
			{
				"x": -2.7043826395,
				"y": -3.2060518854,
				"z": -0.0835139674,
				"element": "C" 
			},
			{
				"x": -2.4200396807,
				"y": -2.2401936759,
				"z": -1.2571078436,
				"element": "C" 
			},
			{
				"x": -1.3511164694,
				"y": -1.2030229394,
				"z": -0.8941292112,
				"element": "C" 
			},
			{
				"x": 2.3025921759,
				"y": 4.0308692404,
				"z": 1.4404378937,
				"element": "H" 
			},
			{
				"x": 2.0735762372,
				"y": 2.2740422324,
				"z": 1.4232261633,
				"element": "H" 
			},
			{
				"x": 1.2835746094,
				"y": 3.2565074963,
				"z": 2.6695996593,
				"element": "H" 
			},
			{
				"x": -0.1188787765,
				"y": 4.3848642645,
				"z": 0.9250195097,
				"element": "H" 
			},
			{
				"x": -0.4009153356,
				"y": 2.6427935186,
				"z": 0.910838514,
				"element": "H" 
			},
			{
				"x": 0.4557539092,
				"y": 0.8231779583,
				"z": 0.1393985595,
				"element": "H" 
			},
			{
				"x": 2.066126661,
				"y": -0.7060463758,
				"z": -3.5324236912,
				"element": "H" 
			},
			{
				"x": 2.2873544581,
				"y": 1.6298289222,
				"z": -4.4044933421,
				"element": "H" 
			},
			{
				"x": 1.3776814666,
				"y": 4.3843577861,
				"z": -2.3744188311,
				"element": "H" 
			},
			{
				"x": 0.6902322154,
				"y": -3.2482169519,
				"z": 0.7866303043,
				"element": "H" 
			},
			{
				"x": -0.050935776,
				"y": -3.9849157199,
				"z": -0.6162984367,
				"element": "H" 
			},
			{
				"x": -1.5432548147,
				"y": -2.4878209395,
				"z": 1.6147531203,
				"element": "H" 
			},
			{
				"x": -1.4931275605,
				"y": -4.2290399521,
				"z": 1.4203632172,
				"element": "H" 
			},
			{
				"x": -2.9402310745,
				"y": -4.2005156262,
				"z": -0.477676758,
				"element": "H" 
			},
			{
				"x": -3.5859152673,
				"y": -2.8786403708,
				"z": 0.478650376,
				"element": "H" 
			},
			{
				"x": -3.3307983675,
				"y": -1.715148611,
				"z": -1.5645265814,
				"element": "H" 
			},
			{
				"x": -2.0696038779,
				"y": -2.797216214,
				"z": -2.1333756101,
				"element": "H" 
			},
			{
				"x": -1.6843154593,
				"y": -0.6049519082,
				"z": -0.0345915447,
				"element": "H" 
			},
			{
				"x": -1.1895327322,
				"y": -0.5142256549,
				"z": -1.7218717844,
				"element": "H" 
			}
		],
		 "valence_orbital": [ 
			{
				"type": "occ",
				"energy": -0.29807,
				"method": "rhf"
			},
			{
				"type": "occ",
				"energy": -0.24151,
				"method": "rhf"
			},
			{
				"type": "occ",
				"energy": -0.21749,
				"method": "rhf"
			},
			{
				"type": "occ",
				"energy": -0.21083,
				"method": "rhf"
			},
			{
				"type": "occ",
				"energy": -0.18512,
				"method": "rhf"
			},
			{
				"type": "unocc",
				"energy": -0.03398,
				"method": "rhf"
			},
			{
				"type": "unocc",
				"energy": 0.00361,
				"method": "rhf"
			},
			{
				"type": "unocc",
				"energy": 0.02682,
				"method": "rhf"
			},
			{
				"type": "unocc",
				"energy": 0.0621,
				"method": "rhf"
			},
			{
				"type": "unocc",
				"energy": 0.07698,
				"method": "rhf"
			}
		],
		"cosmo_sigma_profile": { 
			"-0.025": 0.0,
			"-0.024": 0.0,
			"-0.023": 0.0,
			"-0.022": 0.0,
			"-0.021": 0.0,
			"-0.02": 0.0,
			"-0.019": 0.0,
			"-0.018": 0.0,
			"-0.017": 0.0,
			"-0.016": 0.0,
			"-0.015": 0.00793103918061,
			"-0.014": 0.486034342842,
			"-0.013": 0.747107967397,
			"-0.012": 0.27413922558,
			"-0.011": 0.410271049911,
			"-0.01": 1.23573541558,
			"-0.009": 0.442788240831,
			"-0.008": 1.11522772036,
			"-0.007": 3.25332068175,
			"-0.006": 7.52578583596,
			"-0.005": 16.1308382753,
			"-0.004": 33.7859292361,
			"-0.003": 46.7993600987,
			"-0.002": 38.5050959772,
			"-0.001": 27.331052019,
			"0.0": 26.9427576291,
			"0.001": 16.4354499308,
			"0.002": 12.6994938347,
			"0.003": 12.2686717288,
			"0.004": 9.54523255338,
			"0.005": 9.06884847188,
			"0.006": 7.22623827101,
			"0.007": 6.72915073466,
			"0.008": 5.26523347546,
			"0.009": 8.60784536421,
			"0.01": 8.29545116841,
			"0.011": 6.2608549764,
			"0.012": 2.24140814081,
			"0.013": 1.68966199858,
			"0.014": 0.353387777053,
			"0.015": 0.0,
			"0.016": 0.0,
			"0.017": 0.0,
			"0.018": 0.0,
			"0.019": 0.0,
			"0.02": 0.0,
			"0.021": 0.0,
			"0.022": 0.0,
			"0.023": 0.0,
			"0.024": 0.0,
			"0.025": 0.0
		}
	}
}
