{
	 "smiles": "CC1=CC2=C(C=C1)C(=CN2)C1CCNCC1", 
	 "Tm": 450.15, 
	 "num_atms": 34, 
	 "gaussian": { 
		 "optdone": 1, 
		 "sigma_profile": "yes", 
		 "theory": "DFT", 
		 "functional": "B3LYP", 
		 "basiset": "6-31G**", 
		 "properties": { 
			 "R2extent": 5221.065, 
			 "electric_dipole_moment_norm": 2.35614730864, 
			 "electric_quadrupole_moment_norm": 8.98974802595, 
			 "total_energy": -653.843789384, 
			 "HOMO_LUMO_gap": 0.19096, 
			 "cosmo_polarized_energy": -10.93, 
			 "cosmo_cavitation_energy": 34.62, 
			 "cosmo_dispersion_energy": -25.26, 
			 "cosmo_repulsion_energy": 1.95, 
			 "cosmo_total_nonelectrostatic_energy": 11.31, 
			 "SMD_solvation_energy": 2.51 
		},
		"coords": [
			{
				"x": -5.3532479784,
				"y": 2.3052833406,
				"z": -0.1994349775,
				"element": "C" 
			},
			{
				"x": -3.8828172678,
				"y": 2.0128034078,
				"z": -0.0069086629,
				"element": "C" 
			},
			{
				"x": -3.4620838552,
				"y": 1.0317024922,
				"z": 0.8875891854,
				"element": "C" 
			},
			{
				"x": -2.0885997885,
				"y": 0.7988113332,
				"z": 1.0268091245,
				"element": "C" 
			},
			{
				"x": -1.1132218898,
				"y": 1.5236318288,
				"z": 0.2921178662,
				"element": "C" 
			},
			{
				"x": -1.5568135934,
				"y": 2.512172644,
				"z": -0.6051985397,
				"element": "C" 
			},
			{
				"x": -2.9174919036,
				"y": 2.7436675777,
				"z": -0.7432898371,
				"element": "C" 
			},
			{
				"x": 0.1876731185,
				"y": 1.0368055121,
				"z": 0.6930329194,
				"element": "C" 
			},
			{
				"x": -0.0469661253,
				"y": 0.0579578836,
				"z": 1.6279553313,
				"element": "C" 
			},
			{
				"x": -1.4104616053,
				"y": -0.0925861522,
				"z": 1.8297083223,
				"element": "N" 
			},
			{
				"x": 1.510360811,
				"y": 1.5012301352,
				"z": 0.1347803173,
				"element": "C" 
			},
			{
				"x": 2.7387339759,
				"y": 1.1492930376,
				"z": 1.0231680475,
				"element": "C" 
			},
			{
				"x": 3.4638944431,
				"y": -0.1065909373,
				"z": 0.5339082187,
				"element": "C" 
			},
			{
				"x": 4.0548357963,
				"y": 0.1453622464,
				"z": -0.790557419,
				"element": "N" 
			},
			{
				"x": 3.2244354123,
				"y": 0.9907263666,
				"z": -1.6708080705,
				"element": "C" 
			},
			{
				"x": 1.7344383606,
				"y": 0.9576016706,
				"z": -1.3090723151,
				"element": "C" 
			},
			{
				"x": -5.6633366327,
				"y": 2.1346786859,
				"z": -1.2374313381,
				"element": "H" 
			},
			{
				"x": -5.9752580594,
				"y": 1.6730578051,
				"z": 0.4407953804,
				"element": "H" 
			},
			{
				"x": -5.5881441942,
				"y": 3.3503351487,
				"z": 0.0354874041,
				"element": "H" 
			},
			{
				"x": -4.1877697936,
				"y": 0.4620523908,
				"z": 1.463323435,
				"element": "H" 
			},
			{
				"x": -0.8437796496,
				"y": 3.0925051138,
				"z": -1.1847254228,
				"element": "H" 
			},
			{
				"x": -3.2606096578,
				"y": 3.508024448,
				"z": -1.4363924488,
				"element": "H" 
			},
			{
				"x": 0.650776811,
				"y": -0.5576847067,
				"z": 2.1770906611,
				"element": "H" 
			},
			{
				"x": -1.8333527769,
				"y": -0.7277663027,
				"z": 2.4858188124,
				"element": "H" 
			},
			{
				"x": 1.4642694455,
				"y": 2.5965891395,
				"z": 0.0627407552,
				"element": "H" 
			},
			{
				"x": 3.4548824762,
				"y": 1.9785948531,
				"z": 1.0008886708,
				"element": "H" 
			},
			{
				"x": 2.4351262483,
				"y": 1.0316631077,
				"z": 2.0679232286,
				"element": "H" 
			},
			{
				"x": 2.7511674445,
				"y": -0.9512599054,
				"z": 0.5341722075,
				"element": "H" 
			},
			{
				"x": 4.2671094216,
				"y": -0.375075843,
				"z": 1.232042926,
				"element": "H" 
			},
			{
				"x": 4.2391842763,
				"y": -0.741137542,
				"z": -1.2480940992,
				"element": "H" 
			},
			{
				"x": 3.3795488667,
				"y": 0.6710022766,
				"z": -2.7069589672,
				"element": "H" 
			},
			{
				"x": 3.5807272512,
				"y": 2.0305493096,
				"z": -1.6174150635,
				"element": "H" 
			},
			{
				"x": 1.3680835402,
				"y": -0.0744048227,
				"z": -1.3699434412,
				"element": "H" 
			},
			{
				"x": 1.1465070723,
				"y": 1.5389044568,
				"z": -2.028122211,
				"element": "H" 
			}
		],
		 "valence_orbital": [ 
			{
				"type": "occ",
				"energy": -0.30248,
				"method": "rhf"
			},
			{
				"type": "occ",
				"energy": -0.25813,
				"method": "rhf"
			},
			{
				"type": "occ",
				"energy": -0.21036,
				"method": "rhf"
			},
			{
				"type": "occ",
				"energy": -0.20349,
				"method": "rhf"
			},
			{
				"type": "occ",
				"energy": -0.19102,
				"method": "rhf"
			},
			{
				"type": "unocc",
				"energy": -6e-05,
				"method": "rhf"
			},
			{
				"type": "unocc",
				"energy": 0.03075,
				"method": "rhf"
			},
			{
				"type": "unocc",
				"energy": 0.07344,
				"method": "rhf"
			},
			{
				"type": "unocc",
				"energy": 0.07976,
				"method": "rhf"
			},
			{
				"type": "unocc",
				"energy": 0.08521,
				"method": "rhf"
			}
		],
		"cosmo_sigma_profile": { 
			"-0.025": 0.0,
			"-0.024": 0.0,
			"-0.023": 0.0,
			"-0.022": 0.0,
			"-0.021": 0.0,
			"-0.02": 0.0,
			"-0.019": 0.0,
			"-0.018": 0.0,
			"-0.017": 0.0,
			"-0.016": 0.00712107299775,
			"-0.015": 0.963772429591,
			"-0.014": 1.57087271524,
			"-0.013": 1.31176257349,
			"-0.012": 0.904434271252,
			"-0.011": 1.32782805151,
			"-0.01": 1.53347487298,
			"-0.009": 2.20490582299,
			"-0.008": 2.6567517432,
			"-0.007": 3.92862816748,
			"-0.006": 4.84437205103,
			"-0.005": 7.12577252089,
			"-0.004": 15.6244188375,
			"-0.003": 23.0179554215,
			"-0.002": 33.4353072321,
			"-0.001": 38.1694235871,
			"0.0": 30.7354091159,
			"0.001": 21.81799604,
			"0.002": 11.2081738718,
			"0.003": 9.74713234884,
			"0.004": 10.3963480852,
			"0.005": 11.316044132,
			"0.006": 13.919517062,
			"0.007": 11.8817702347,
			"0.008": 4.3651060531,
			"0.009": 0.535390255544,
			"0.01": 0.812990815133,
			"0.011": 0.347666829646,
			"0.012": 0.88983698681,
			"0.013": 0.708433849216,
			"0.014": 0.570585161547,
			"0.015": 0.342407855482,
			"0.016": 0.617096894124,
			"0.017": 0.70543923719,
			"0.018": 0.505815083039,
			"0.019": 0.346913953297,
			"0.02": 0.0563885884623,
			"0.021": 0.0,
			"0.022": 0.0,
			"0.023": 0.0,
			"0.024": 0.0,
			"0.025": 0.0
		}
	}
}
