{
	 "smiles": "OC(=O)C1=C(F)C(Cl)=C(F)C=C1", 
	 "Tm": 448.65, 
	 "num_atms": 15, 
	 "gaussian": { 
		 "optdone": 1, 
		 "sigma_profile": "yes", 
		 "theory": "DFT", 
		 "functional": "B3LYP", 
		 "basiset": "6-31G**", 
		 "properties": { 
			 "R2extent": 3007.5582, 
			 "electric_dipole_moment_norm": 0.874100503375, 
			 "electric_quadrupole_moment_norm": 7.88319394154, 
			 "total_energy": -1078.86664499, 
			 "HOMO_LUMO_gap": 0.20293, 
			 "cosmo_polarized_energy": -8.64, 
			 "cosmo_cavitation_energy": 23.02, 
			 "cosmo_dispersion_energy": -17.07, 
			 "cosmo_repulsion_energy": 1.32, 
			 "cosmo_total_nonelectrostatic_energy": 7.27, 
			 "SMD_solvation_energy": 5.96 
		},
		"coords": [
			{
				"x": -2.6282824368,
				"y": -0.7780006798,
				"z": -2.8880896952,
				"element": "O" 
			},
			{
				"x": -1.8002546407,
				"y": 0.2775098295,
				"z": -2.7520228856,
				"element": "C" 
			},
			{
				"x": -2.0110632209,
				"y": 1.3450387777,
				"z": -3.2941109462,
				"element": "O" 
			},
			{
				"x": -0.6134834641,
				"y": 0.023912917,
				"z": -1.8864100768,
				"element": "C" 
			},
			{
				"x": -0.3279435548,
				"y": -1.1883102619,
				"z": -1.2410379777,
				"element": "C" 
			},
			{
				"x": -1.1323775534,
				"y": -2.2437031488,
				"z": -1.361953124,
				"element": "F" 
			},
			{
				"x": 0.8136631362,
				"y": -1.3351308017,
				"z": -0.4453130883,
				"element": "C" 
			},
			{
				"x": 1.152112738,
				"y": -2.8407131169,
				"z": 0.3455543734,
				"element": "Cl" 
			},
			{
				"x": 1.6739747803,
				"y": -0.2448477427,
				"z": -0.3015535672,
				"element": "C" 
			},
			{
				"x": 2.7660713389,
				"y": -0.3771847598,
				"z": 0.4564621662,
				"element": "F" 
			},
			{
				"x": 1.4184794597,
				"y": 0.9709890631,
				"z": -0.9288091166,
				"element": "C" 
			},
			{
				"x": 0.2805303589,
				"y": 1.0929726807,
				"z": -1.7128282779,
				"element": "C" 
			},
			{
				"x": -3.3457696703,
				"y": -0.4730908649,
				"z": -3.4689572885,
				"element": "H" 
			},
			{
				"x": 2.1126261461,
				"y": 1.7917528157,
				"z": -0.7904450794,
				"element": "H" 
			},
			{
				"x": 0.0473165826,
				"y": 2.0235052927,
				"z": -2.2172854162,
				"element": "H" 
			}
		],
		 "valence_orbital": [ 
			{
				"type": "occ",
				"energy": -0.33205,
				"method": "rhf"
			},
			{
				"type": "occ",
				"energy": -0.32843,
				"method": "rhf"
			},
			{
				"type": "occ",
				"energy": -0.29205,
				"method": "rhf"
			},
			{
				"type": "occ",
				"energy": -0.27382,
				"method": "rhf"
			},
			{
				"type": "occ",
				"energy": -0.26611,
				"method": "rhf"
			},
			{
				"type": "unocc",
				"energy": -0.06318,
				"method": "rhf"
			},
			{
				"type": "unocc",
				"energy": -0.03264,
				"method": "rhf"
			},
			{
				"type": "unocc",
				"energy": 0.0043,
				"method": "rhf"
			},
			{
				"type": "unocc",
				"energy": 0.04,
				"method": "rhf"
			},
			{
				"type": "unocc",
				"energy": 0.07199,
				"method": "rhf"
			}
		],
		"cosmo_sigma_profile": { 
			"-0.025": 0.0,
			"-0.024": 0.0,
			"-0.023": 0.0,
			"-0.022": 0.0,
			"-0.021": 0.0,
			"-0.02": 0.0,
			"-0.019": 0.330139511921,
			"-0.018": 1.09929032278,
			"-0.017": 0.537496770881,
			"-0.016": 0.796442544149,
			"-0.015": 1.06601425636,
			"-0.014": 0.357952925996,
			"-0.013": 0.777849239829,
			"-0.012": 0.653488477408,
			"-0.011": 1.12628751754,
			"-0.01": 0.478407378697,
			"-0.009": 1.70800604076,
			"-0.008": 3.2717907204,
			"-0.007": 4.79781929815,
			"-0.006": 3.89082443846,
			"-0.005": 3.78656711076,
			"-0.004": 6.03424602024,
			"-0.003": 16.6132661194,
			"-0.002": 21.8664931915,
			"-0.001": 16.1805993787,
			"0.0": 14.1863796358,
			"0.001": 14.4566460006,
			"0.002": 14.9631458511,
			"0.003": 24.9962087132,
			"0.004": 11.1152659393,
			"0.005": 3.27415360403,
			"0.006": 2.66860566997,
			"0.007": 2.68364940168,
			"0.008": 4.36967320065,
			"0.009": 1.89833163147,
			"0.01": 2.08642986873,
			"0.011": 4.93619467948,
			"0.012": 1.21800628408,
			"0.013": 0.0,
			"0.014": 0.0,
			"0.015": 0.0,
			"0.016": 0.0,
			"0.017": 0.0,
			"0.018": 0.0,
			"0.019": 0.0,
			"0.02": 0.0,
			"0.021": 0.0,
			"0.022": 0.0,
			"0.023": 0.0,
			"0.024": 0.0,
			"0.025": 0.0
		}
	}
}
