{
	 "smiles": "CCOC(=O)CNC(C1=CC=CC=C1)(C1=CC=CC=C1)C1=CC=CC=C1", 
	 "Tm": 387.15, 
	 "num_atms": 49, 
	 "gaussian": { 
		 "optdone": 1, 
		 "sigma_profile": "yes", 
		 "theory": "DFT", 
		 "functional": "B3LYP", 
		 "basiset": "6-31G**", 
		 "properties": { 
			 "R2extent": 8627.8477, 
			 "electric_dipole_moment_norm": 1.39028434861, 
			 "electric_quadrupole_moment_norm": 9.28519393766, 
			 "total_energy": -1095.50125327, 
			 "HOMO_LUMO_gap": 0.21033, 
			 "cosmo_polarized_energy": -13.55, 
			 "cosmo_cavitation_energy": 49.15, 
			 "cosmo_dispersion_energy": -32.39, 
			 "cosmo_repulsion_energy": 2.47, 
			 "cosmo_total_nonelectrostatic_energy": 19.23, 
			 "SMD_solvation_energy": 8.44 
		},
		"coords": [
			{
				"x": 2.957429857,
				"y": -4.5067332919,
				"z": -0.8680314853,
				"element": "C" 
			},
			{
				"x": 3.4468405989,
				"y": -3.5625813293,
				"z": -1.9539146597,
				"element": "C" 
			},
			{
				"x": 3.18772468,
				"y": -2.1758186782,
				"z": -1.6221065203,
				"element": "O" 
			},
			{
				"x": 2.012359192,
				"y": -1.6574146323,
				"z": -2.040856377,
				"element": "C" 
			},
			{
				"x": 1.1583248413,
				"y": -2.2911585155,
				"z": -2.624586502,
				"element": "O" 
			},
			{
				"x": 1.9417002905,
				"y": -0.1556979907,
				"z": -1.767421008,
				"element": "C" 
			},
			{
				"x": 1.5712062481,
				"y": 0.212276352,
				"z": -0.3951874679,
				"element": "N" 
			},
			{
				"x": 0.1300286861,
				"y": 0.2539023625,
				"z": -0.0032761029,
				"element": "C" 
			},
			{
				"x": -0.6861704934,
				"y": 0.9624364744,
				"z": -1.1091693532,
				"element": "C" 
			},
			{
				"x": -1.2218164273,
				"y": 0.2450202814,
				"z": -2.1916295003,
				"element": "C" 
			},
			{
				"x": -1.8479988224,
				"y": 0.9040999898,
				"z": -3.252652369,
				"element": "C" 
			},
			{
				"x": -1.9426785635,
				"y": 2.2951354796,
				"z": -3.2631313129,
				"element": "C" 
			},
			{
				"x": -1.3884817646,
				"y": 3.0237546962,
				"z": -2.2092223084,
				"element": "C" 
			},
			{
				"x": -0.7636597431,
				"y": 2.3645428114,
				"z": -1.1505867299,
				"element": "C" 
			},
			{
				"x": -0.3763614462,
				"y": -1.1706516449,
				"z": 0.3332021035,
				"element": "C" 
			},
			{
				"x": 0.5180619895,
				"y": -2.1318378083,
				"z": 0.8207328186,
				"element": "C" 
			},
			{
				"x": 0.0633215698,
				"y": -3.3763324459,
				"z": 1.2595458389,
				"element": "C" 
			},
			{
				"x": -1.2966069935,
				"y": -3.6853572591,
				"z": 1.2230245669,
				"element": "C" 
			},
			{
				"x": -2.1978609425,
				"y": -2.7321285763,
				"z": 0.7484638645,
				"element": "C" 
			},
			{
				"x": -1.7427619334,
				"y": -1.4865332362,
				"z": 0.3150257226,
				"element": "C" 
			},
			{
				"x": 0.0547050929,
				"y": 1.0123350572,
				"z": 1.3497320483,
				"element": "C" 
			},
			{
				"x": 1.1722379739,
				"y": 1.124400172,
				"z": 2.1887627767,
				"element": "C" 
			},
			{
				"x": 1.0765699914,
				"y": 1.7542865698,
				"z": 3.4326035124,
				"element": "C" 
			},
			{
				"x": -0.1404532936,
				"y": 2.2725790639,
				"z": 3.8702316511,
				"element": "C" 
			},
			{
				"x": -1.2659142298,
				"y": 2.1485640498,
				"z": 3.0525267686,
				"element": "C" 
			},
			{
				"x": -1.1687987669,
				"y": 1.523674655,
				"z": 1.8108591787,
				"element": "C" 
			},
			{
				"x": 3.4105535989,
				"y": -4.2604407925,
				"z": 0.0970855095,
				"element": "H" 
			},
			{
				"x": 3.233975945,
				"y": -5.535439494,
				"z": -1.1235449344,
				"element": "H" 
			},
			{
				"x": 1.8710571757,
				"y": -4.4537055182,
				"z": -0.7718279461,
				"element": "H" 
			},
			{
				"x": 2.97002722,
				"y": -3.7863166458,
				"z": -2.9112042203,
				"element": "H" 
			},
			{
				"x": 4.5327949101,
				"y": -3.6145785024,
				"z": -2.0674312145,
				"element": "H" 
			},
			{
				"x": 2.9474965787,
				"y": 0.2421967246,
				"z": -1.928560651,
				"element": "H" 
			},
			{
				"x": 1.2766237724,
				"y": 0.2614567931,
				"z": -2.5330186448,
				"element": "H" 
			},
			{
				"x": 1.9465672779,
				"y": 1.1403472353,
				"z": -0.2275054418,
				"element": "H" 
			},
			{
				"x": -1.1280230564,
				"y": -0.8348920168,
				"z": -2.2209947297,
				"element": "H" 
			},
			{
				"x": -2.2546207794,
				"y": 0.3224083446,
				"z": -4.0751873168,
				"element": "H" 
			},
			{
				"x": -2.4336926261,
				"y": 2.8068132367,
				"z": -4.0860329521,
				"element": "H" 
			},
			{
				"x": -1.4427840557,
				"y": 4.1089914528,
				"z": -2.2074512598,
				"element": "H" 
			},
			{
				"x": -0.3392908427,
				"y": 2.9501921221,
				"z": -0.3415404897,
				"element": "H" 
			},
			{
				"x": 1.5749631641,
				"y": -1.8926896148,
				"z": 0.855853161,
				"element": "H" 
			},
			{
				"x": 0.7766433284,
				"y": -4.1039621066,
				"z": 1.6367941851,
				"element": "H" 
			},
			{
				"x": -1.6502855082,
				"y": -4.654110604,
				"z": 1.5642071487,
				"element": "H" 
			},
			{
				"x": -3.2611043384,
				"y": -2.9536101913,
				"z": 0.7170150062,
				"element": "H" 
			},
			{
				"x": -2.4628353413,
				"y": -0.7578941283,
				"z": -0.0412215973,
				"element": "H" 
			},
			{
				"x": 2.1203063973,
				"y": 0.6995027764,
				"z": 1.8798113781,
				"element": "H" 
			},
			{
				"x": 1.9599102751,
				"y": 1.8305666267,
				"z": 4.0607579304,
				"element": "H" 
			},
			{
				"x": -0.2152622232,
				"y": 2.7608983612,
				"z": 4.8375755636,
				"element": "H" 
			},
			{
				"x": -2.2249469029,
				"y": 2.5395042712,
				"z": 3.3809443833,
				"element": "H" 
			},
			{
				"x": -2.0546215605,
				"y": 1.4385990637,
				"z": 1.1905379784,
				"element": "H" 
			}
		],
		 "valence_orbital": [ 
			{
				"type": "occ",
				"energy": -0.24732,
				"method": "rhf"
			},
			{
				"type": "occ",
				"energy": -0.2438,
				"method": "rhf"
			},
			{
				"type": "occ",
				"energy": -0.23813,
				"method": "rhf"
			},
			{
				"type": "occ",
				"energy": -0.22804,
				"method": "rhf"
			},
			{
				"type": "occ",
				"energy": -0.22413,
				"method": "rhf"
			},
			{
				"type": "unocc",
				"energy": -0.0138,
				"method": "rhf"
			},
			{
				"type": "unocc",
				"energy": -0.00803,
				"method": "rhf"
			},
			{
				"type": "unocc",
				"energy": -0.0032,
				"method": "rhf"
			},
			{
				"type": "unocc",
				"energy": -0.00227,
				"method": "rhf"
			},
			{
				"type": "unocc",
				"energy": 0.01126,
				"method": "rhf"
			}
		],
		"cosmo_sigma_profile": { 
			"-0.025": 0.0,
			"-0.024": 0.0,
			"-0.023": 0.0,
			"-0.022": 0.0,
			"-0.021": 0.0,
			"-0.02": 0.0,
			"-0.019": 0.0,
			"-0.018": 0.0,
			"-0.017": 0.0,
			"-0.016": 0.0,
			"-0.015": 0.0,
			"-0.014": 0.0,
			"-0.013": 0.0,
			"-0.012": 0.0248876054069,
			"-0.011": 0.669874065049,
			"-0.01": 1.22049112837,
			"-0.009": 0.944875135889,
			"-0.008": 1.16943836371,
			"-0.007": 3.08445930588,
			"-0.006": 10.8252847929,
			"-0.005": 30.8355928774,
			"-0.004": 41.4680652109,
			"-0.003": 45.0567542235,
			"-0.002": 32.6416760675,
			"-0.001": 31.1951789502,
			"0.0": 29.4409050773,
			"0.001": 23.985685318,
			"0.002": 22.6765634012,
			"0.003": 22.9993880103,
			"0.004": 23.3879051424,
			"0.005": 25.5893787393,
			"0.006": 21.3988368311,
			"0.007": 6.0364284293,
			"0.008": 4.40606586977,
			"0.009": 3.41669223967,
			"0.01": 2.39283305079,
			"0.011": 2.71536453615,
			"0.012": 2.29203385417,
			"0.013": 0.0194985627809,
			"0.014": 0.0,
			"0.015": 0.0,
			"0.016": 0.0,
			"0.017": 0.0,
			"0.018": 0.0,
			"0.019": 0.0,
			"0.02": 0.0,
			"0.021": 0.0,
			"0.022": 0.0,
			"0.023": 0.0,
			"0.024": 0.0,
			"0.025": 0.0
		}
	}
}
