{
	 "smiles": "CC1=C(N)C=CC(=C1)N1CCSCC1", 
	 "Tm": 353.15, 
	 "num_atms": 30, 
	 "gaussian": { 
		 "optdone": 1, 
		 "sigma_profile": "yes", 
		 "theory": "DFT", 
		 "functional": "B3LYP", 
		 "basiset": "6-31G**", 
		 "properties": { 
			 "R2extent": 3956.6705, 
			 "electric_dipole_moment_norm": 2.07717062852, 
			 "electric_quadrupole_moment_norm": 16.377634955, 
			 "total_energy": -936.505704784, 
			 "HOMO_LUMO_gap": 0.17655, 
			 "cosmo_polarized_energy": -11.67, 
			 "cosmo_cavitation_energy": 31.9, 
			 "cosmo_dispersion_energy": -24.09, 
			 "cosmo_repulsion_energy": 1.83, 
			 "cosmo_total_nonelectrostatic_energy": 9.65, 
			 "SMD_solvation_energy": 3.19 
		},
		"coords": [
			{
				"x": 2.0809072729,
				"y": -2.8975973524,
				"z": -1.7503134236,
				"element": "C" 
			},
			{
				"x": 1.7829948617,
				"y": -1.8706727595,
				"z": -0.6855188876,
				"element": "C" 
			},
			{
				"x": 2.3967032267,
				"y": -1.9721482067,
				"z": 0.5830868046,
				"element": "C" 
			},
			{
				"x": 3.3147146255,
				"y": -3.0060603171,
				"z": 0.8494656522,
				"element": "N" 
			},
			{
				"x": 2.126069938,
				"y": -0.9826202982,
				"z": 1.5314432352,
				"element": "C" 
			},
			{
				"x": 1.2600281965,
				"y": 0.0767067218,
				"z": 1.2580734877,
				"element": "C" 
			},
			{
				"x": 0.6332666017,
				"y": 0.1942730218,
				"z": 0.0068288332,
				"element": "C" 
			},
			{
				"x": 0.929893191,
				"y": -0.8001558968,
				"z": -0.9467785402,
				"element": "C" 
			},
			{
				"x": -0.2021298125,
				"y": 1.2855212985,
				"z": -0.341137221,
				"element": "N" 
			},
			{
				"x": -0.2869899906,
				"y": 2.4402265273,
				"z": 0.5448707712,
				"element": "C" 
			},
			{
				"x": -1.3282529751,
				"y": 2.3170839684,
				"z": 1.6701946595,
				"element": "C" 
			},
			{
				"x": -3.0249138623,
				"y": 2.0704965249,
				"z": 1.00585265,
				"element": "S" 
			},
			{
				"x": -2.6337042752,
				"y": 0.6970364772,
				"z": -0.1499479483,
				"element": "C" 
			},
			{
				"x": -1.4469758136,
				"y": 1.0316718131,
				"z": -1.0664415449,
				"element": "C" 
			},
			{
				"x": 3.1601955501,
				"y": -2.9912149321,
				"z": -1.9212244894,
				"element": "H" 
			},
			{
				"x": 1.7141713374,
				"y": -3.8966466069,
				"z": -1.4729372621,
				"element": "H" 
			},
			{
				"x": 1.6078720901,
				"y": -2.6336258204,
				"z": -2.6995745946,
				"element": "H" 
			},
			{
				"x": 3.0826761617,
				"y": -3.890774622,
				"z": 0.4158111957,
				"element": "H" 
			},
			{
				"x": 3.4962520558,
				"y": -3.1369319283,
				"z": 1.8365940959,
				"element": "H" 
			},
			{
				"x": 2.5923811787,
				"y": -1.0429206325,
				"z": 2.5126660974,
				"element": "H" 
			},
			{
				"x": 1.0748963242,
				"y": 0.8004018472,
				"z": 2.0429826137,
				"element": "H" 
			},
			{
				"x": 0.5088535416,
				"y": -0.7241924847,
				"z": -1.9447969155,
				"element": "H" 
			},
			{
				"x": 0.7037661623,
				"y": 2.6298441423,
				"z": 0.969950161,
				"element": "H" 
			},
			{
				"x": -0.5470139395,
				"y": 3.3122052037,
				"z": -0.0692769311,
				"element": "H" 
			},
			{
				"x": -1.3684635553,
				"y": 3.2395834141,
				"z": 2.2573969142,
				"element": "H" 
			},
			{
				"x": -1.0865247764,
				"y": 1.4922313952,
				"z": 2.3469083908,
				"element": "H" 
			},
			{
				"x": -2.4272788632,
				"y": -0.2151383025,
				"z": 0.4200524874,
				"element": "H" 
			},
			{
				"x": -3.5420606397,
				"y": 0.5347299834,
				"z": -0.7382031107,
				"element": "H" 
			},
			{
				"x": -1.6900167012,
				"y": 1.9236319858,
				"z": -1.657482832,
				"element": "H" 
			},
			{
				"x": -1.2987171114,
				"y": 0.2079558354,
				"z": -1.7678443486,
				"element": "H" 
			}
		],
		 "valence_orbital": [ 
			{
				"type": "occ",
				"energy": -0.29892,
				"method": "rhf"
			},
			{
				"type": "occ",
				"energy": -0.24377,
				"method": "rhf"
			},
			{
				"type": "occ",
				"energy": -0.23356,
				"method": "rhf"
			},
			{
				"type": "occ",
				"energy": -0.21642,
				"method": "rhf"
			},
			{
				"type": "occ",
				"energy": -0.16818,
				"method": "rhf"
			},
			{
				"type": "unocc",
				"energy": 0.00837,
				"method": "rhf"
			},
			{
				"type": "unocc",
				"energy": 0.02979,
				"method": "rhf"
			},
			{
				"type": "unocc",
				"energy": 0.0411,
				"method": "rhf"
			},
			{
				"type": "unocc",
				"energy": 0.07796,
				"method": "rhf"
			},
			{
				"type": "unocc",
				"energy": 0.07991,
				"method": "rhf"
			}
		],
		"cosmo_sigma_profile": { 
			"-0.025": 0.0,
			"-0.024": 0.0,
			"-0.023": 0.0,
			"-0.022": 0.0,
			"-0.021": 0.0,
			"-0.02": 0.0,
			"-0.019": 0.0,
			"-0.018": 0.0,
			"-0.017": 0.0,
			"-0.016": 0.0,
			"-0.015": 0.0,
			"-0.014": 0.0,
			"-0.013": 0.0,
			"-0.012": 0.163911291016,
			"-0.011": 1.9354122579,
			"-0.01": 2.69735119226,
			"-0.009": 2.61078063781,
			"-0.008": 3.87056851591,
			"-0.007": 3.5412575729,
			"-0.006": 8.31907576743,
			"-0.005": 17.1395738091,
			"-0.004": 23.9930135153,
			"-0.003": 29.3189056129,
			"-0.002": 25.7426412001,
			"-0.001": 19.3296073859,
			"0.0": 16.8865668135,
			"0.001": 13.7541391304,
			"0.002": 9.78496547175,
			"0.003": 8.09954704094,
			"0.004": 9.65399168413,
			"0.005": 9.66597316168,
			"0.006": 10.8226245095,
			"0.007": 11.6754082175,
			"0.008": 8.91229155954,
			"0.009": 3.99988515639,
			"0.01": 3.64926734428,
			"0.011": 2.77071210662,
			"0.012": 1.62274526422,
			"0.013": 0.339850734882,
			"0.014": 0.426868467933,
			"0.015": 0.832615129924,
			"0.016": 0.396114502323,
			"0.017": 0.0,
			"0.018": 0.0,
			"0.019": 0.0,
			"0.02": 0.0,
			"0.021": 0.0,
			"0.022": 0.0,
			"0.023": 0.0,
			"0.024": 0.0,
			"0.025": 0.0
		}
	}
}
