{
	 "smiles": "CN1N(C(=O)C(NC(=O)C2=CC=CN=C2)=C1C)C1=CC=CC=C1", 
	 "Tm": 526.15, 
	 "num_atms": 39, 
	 "gaussian": { 
		 "optdone": 1, 
		 "sigma_profile": "yes", 
		 "theory": "DFT", 
		 "functional": "B3LYP", 
		 "basiset": "6-31G**", 
		 "properties": { 
			 "R2extent": 8490.092, 
			 "electric_dipole_moment_norm": 6.25406949993, 
			 "electric_quadrupole_moment_norm": 17.0110001161, 
			 "total_energy": -1026.88634304, 
			 "HOMO_LUMO_gap": 0.16505, 
			 "cosmo_polarized_energy": -21.32, 
			 "cosmo_cavitation_energy": 43.05, 
			 "cosmo_dispersion_energy": -29.06, 
			 "cosmo_repulsion_energy": 2.19, 
			 "cosmo_total_nonelectrostatic_energy": 16.18, 
			 "SMD_solvation_energy": 6.8 
		},
		"coords": [
			{
				"x": 0.2796162609,
				"y": -0.2452688918,
				"z": 2.7742504392,
				"element": "C" 
			},
			{
				"x": 0.7192740762,
				"y": 0.6940577399,
				"z": 1.7265178039,
				"element": "N" 
			},
			{
				"x": 1.6045452358,
				"y": 0.1106681989,
				"z": 0.7912836905,
				"element": "N" 
			},
			{
				"x": 1.2290981851,
				"y": 0.4658912919,
				"z": -0.5194876995,
				"element": "C" 
			},
			{
				"x": 1.8571706385,
				"y": 0.2268093011,
				"z": -1.54230252,
				"element": "O" 
			},
			{
				"x": -0.0117975821,
				"y": 1.2230561064,
				"z": -0.348849288,
				"element": "C" 
			},
			{
				"x": -0.6521758439,
				"y": 1.7908536666,
				"z": -1.4571654502,
				"element": "N" 
			},
			{
				"x": -1.9826488746,
				"y": 1.8165003479,
				"z": -1.8274783994,
				"element": "C" 
			},
			{
				"x": -2.3555934806,
				"y": 2.5446223012,
				"z": -2.7394196,
				"element": "O" 
			},
			{
				"x": -2.9632995233,
				"y": 0.927538825,
				"z": -1.1166237245,
				"element": "C" 
			},
			{
				"x": -4.2821675692,
				"y": 1.3792334339,
				"z": -0.9887425792,
				"element": "C" 
			},
			{
				"x": -5.2254519963,
				"y": 0.5483862635,
				"z": -0.3932377716,
				"element": "C" 
			},
			{
				"x": -4.8199605286,
				"y": -0.7186678207,
				"z": 0.0322993817,
				"element": "C" 
			},
			{
				"x": -3.5746045333,
				"y": -1.1877350123,
				"z": -0.1191139073,
				"element": "N" 
			},
			{
				"x": -2.6746920863,
				"y": -0.3753094271,
				"z": -0.6858268488,
				"element": "C" 
			},
			{
				"x": -0.2705099267,
				"y": 1.3460491212,
				"z": 0.9832926356,
				"element": "C" 
			},
			{
				"x": -1.3986614409,
				"y": 2.0330080912,
				"z": 1.6783490493,
				"element": "C" 
			},
			{
				"x": 2.9253724475,
				"y": -0.2170985971,
				"z": 1.1950794162,
				"element": "C" 
			},
			{
				"x": 3.6632406595,
				"y": -1.1286710033,
				"z": 0.4268738483,
				"element": "C" 
			},
			{
				"x": 4.9620238806,
				"y": -1.4540601604,
				"z": 0.8130215679,
				"element": "C" 
			},
			{
				"x": 5.5265015941,
				"y": -0.8997889518,
				"z": 1.9641430517,
				"element": "C" 
			},
			{
				"x": 4.7844249748,
				"y": 0.0043041969,
				"z": 2.7249102176,
				"element": "C" 
			},
			{
				"x": 3.4904250116,
				"y": 0.3571684996,
				"z": 2.3418996595,
				"element": "C" 
			},
			{
				"x": 1.1558591518,
				"y": -0.6211599444,
				"z": 3.3032319971,
				"element": "H" 
			},
			{
				"x": -0.3469831511,
				"y": 0.2971583853,
				"z": 3.4836803049,
				"element": "H" 
			},
			{
				"x": -0.2822967989,
				"y": -1.0880783314,
				"z": 2.3527537541,
				"element": "H" 
			},
			{
				"x": -0.0492941819,
				"y": 2.2430846667,
				"z": -2.1366863459,
				"element": "H" 
			},
			{
				"x": -4.5411201944,
				"y": 2.3635587791,
				"z": -1.3653433765,
				"element": "H" 
			},
			{
				"x": -6.2554284146,
				"y": 0.8667581142,
				"z": -0.2670856984,
				"element": "H" 
			},
			{
				"x": -5.5301451736,
				"y": -1.3931279559,
				"z": 0.5077289757,
				"element": "H" 
			},
			{
				"x": -1.6794058742,
				"y": -0.789916337,
				"z": -0.8208260207,
				"element": "H" 
			},
			{
				"x": -1.0476767111,
				"y": 2.5258859198,
				"z": 2.5896226995,
				"element": "H" 
			},
			{
				"x": -1.8279035953,
				"y": 2.7901232438,
				"z": 1.0183500784,
				"element": "H" 
			},
			{
				"x": -2.2026217942,
				"y": 1.3388953357,
				"z": 1.9495842578,
				"element": "H" 
			},
			{
				"x": 3.2234860097,
				"y": -1.5515704585,
				"z": -0.4668465568,
				"element": "H" 
			},
			{
				"x": 5.532582573,
				"y": -2.1549510983,
				"z": 0.2107377101,
				"element": "H" 
			},
			{
				"x": 6.5354664717,
				"y": -1.167467949,
				"z": 2.2627266527,
				"element": "H" 
			},
			{
				"x": 5.2155093414,
				"y": 0.4514545003,
				"z": 3.6160627977,
				"element": "H" 
			},
			{
				"x": 2.924542763,
				"y": 1.0868056089,
				"z": 2.9103357977,
				"element": "H" 
			}
		],
		 "valence_orbital": [ 
			{
				"type": "occ",
				"energy": -0.26008,
				"method": "rhf"
			},
			{
				"type": "occ",
				"energy": -0.2542,
				"method": "rhf"
			},
			{
				"type": "occ",
				"energy": -0.24944,
				"method": "rhf"
			},
			{
				"type": "occ",
				"energy": -0.23308,
				"method": "rhf"
			},
			{
				"type": "occ",
				"energy": -0.21503,
				"method": "rhf"
			},
			{
				"type": "unocc",
				"energy": -0.04998,
				"method": "rhf"
			},
			{
				"type": "unocc",
				"energy": -0.03433,
				"method": "rhf"
			},
			{
				"type": "unocc",
				"energy": -0.02932,
				"method": "rhf"
			},
			{
				"type": "unocc",
				"energy": -0.00666,
				"method": "rhf"
			},
			{
				"type": "unocc",
				"energy": 0.0024,
				"method": "rhf"
			}
		],
		"cosmo_sigma_profile": { 
			"-0.025": 0.0,
			"-0.024": 0.0,
			"-0.023": 0.0,
			"-0.022": 0.0,
			"-0.021": 0.0,
			"-0.02": 0.0,
			"-0.019": 0.0,
			"-0.018": 0.0,
			"-0.017": 0.0,
			"-0.016": 0.0,
			"-0.015": 0.0,
			"-0.014": 0.492204784554,
			"-0.013": 0.718144040912,
			"-0.012": 1.04314787913,
			"-0.011": 0.897044277563,
			"-0.01": 0.187701259288,
			"-0.009": 0.457428390492,
			"-0.008": 1.97003337552,
			"-0.007": 8.72362188524,
			"-0.006": 23.9373346449,
			"-0.005": 32.0382875023,
			"-0.004": 36.523851286,
			"-0.003": 30.9560023885,
			"-0.002": 28.547184135,
			"-0.001": 23.1881624543,
			"0.0": 20.7182881109,
			"0.001": 25.0537356919,
			"0.002": 18.8703474157,
			"0.003": 12.6527900499,
			"0.004": 13.8010798683,
			"0.005": 13.8607709483,
			"0.006": 6.27699675339,
			"0.007": 4.3350729182,
			"0.008": 3.92867141709,
			"0.009": 2.82812196801,
			"0.01": 5.19221212837,
			"0.011": 4.15730138014,
			"0.012": 6.02590530453,
			"0.013": 10.735351887,
			"0.014": 4.25347712006,
			"0.015": 0.75958441517,
			"0.016": 0.665658624871,
			"0.017": 0.0539260023626,
			"0.018": 0.0,
			"0.019": 0.0,
			"0.02": 0.0,
			"0.021": 0.0,
			"0.022": 0.0,
			"0.023": 0.0,
			"0.024": 0.0,
			"0.025": 0.0
		}
	}
}
