{
	 "smiles": "O=CC1=C(OCC#C)C=CC=C1", 
	 "Tm": 344.15, 
	 "num_atms": 20, 
	 "gaussian": { 
		 "optdone": 1, 
		 "sigma_profile": "yes", 
		 "theory": "DFT", 
		 "functional": "B3LYP", 
		 "basiset": "6-31G**", 
		 "properties": { 
			 "R2extent": 2747.0889, 
			 "electric_dipole_moment_norm": 4.72054591017, 
			 "electric_quadrupole_moment_norm": 16.6482940949, 
			 "total_energy": -536.230585545, 
			 "HOMO_LUMO_gap": 0.17945, 
			 "cosmo_polarized_energy": -10.69, 
			 "cosmo_cavitation_energy": 25.67, 
			 "cosmo_dispersion_energy": -17.92, 
			 "cosmo_repulsion_energy": 1.42, 
			 "cosmo_total_nonelectrostatic_energy": 9.18, 
			 "SMD_solvation_energy": 7.19 
		},
		"coords": [
			{
				"x": 3.7399238577,
				"y": -2.5276164902,
				"z": 0.858923089,
				"element": "O" 
			},
			{
				"x": 2.7247596106,
				"y": -2.2162135377,
				"z": 0.2584575118,
				"element": "C" 
			},
			{
				"x": 2.0978285726,
				"y": -0.8776748898,
				"z": 0.3557808957,
				"element": "C" 
			},
			{
				"x": 0.9184670211,
				"y": -0.5545204949,
				"z": -0.3534860315,
				"element": "C" 
			},
			{
				"x": 0.3900300367,
				"y": -1.5525730371,
				"z": -1.1243113458,
				"element": "O" 
			},
			{
				"x": -0.8740593727,
				"y": -1.3545281746,
				"z": -1.7612635011,
				"element": "C" 
			},
			{
				"x": -0.812356409,
				"y": -0.4999943242,
				"z": -2.9492728791,
				"element": "C" 
			},
			{
				"x": -0.7758386981,
				"y": 0.1944265251,
				"z": -3.9359343171,
				"element": "C" 
			},
			{
				"x": 0.3610118531,
				"y": 0.7243443593,
				"z": -0.2349978103,
				"element": "C" 
			},
			{
				"x": 0.9713648666,
				"y": 1.6676216419,
				"z": 0.5931836967,
				"element": "C" 
			},
			{
				"x": 2.1338192266,
				"y": 1.3604491806,
				"z": 1.3053283181,
				"element": "C" 
			},
			{
				"x": 2.6881226444,
				"y": 0.0923197249,
				"z": 1.1776273831,
				"element": "C" 
			},
			{
				"x": 2.2130914513,
				"y": -2.9389579705,
				"z": -0.4032943549,
				"element": "H" 
			},
			{
				"x": -1.6031294465,
				"y": -0.9597937135,
				"z": -1.0408201387,
				"element": "H" 
			},
			{
				"x": -1.1982284006,
				"y": -2.360436805,
				"z": -2.0441593159,
				"element": "H" 
			},
			{
				"x": -0.7345787374,
				"y": 0.8066512734,
				"z": -4.8074658795,
				"element": "H" 
			},
			{
				"x": -0.5216122382,
				"y": 1.0006567637,
				"z": -0.7982095025,
				"element": "H" 
			},
			{
				"x": 0.5302003692,
				"y": 2.6571267797,
				"z": 0.6742797239,
				"element": "H" 
			},
			{
				"x": 2.5984694892,
				"y": 2.1041046983,
				"z": 1.9447435543,
				"element": "H" 
			},
			{
				"x": 3.5914143034,
				"y": -0.1916915096,
				"z": 1.7084909038,
				"element": "H" 
			}
		],
		 "valence_orbital": [ 
			{
				"type": "occ",
				"energy": -0.29379,
				"method": "rhf"
			},
			{
				"type": "occ",
				"energy": -0.28649,
				"method": "rhf"
			},
			{
				"type": "occ",
				"energy": -0.26041,
				"method": "rhf"
			},
			{
				"type": "occ",
				"energy": -0.24414,
				"method": "rhf"
			},
			{
				"type": "occ",
				"energy": -0.23678,
				"method": "rhf"
			},
			{
				"type": "unocc",
				"energy": -0.05733,
				"method": "rhf"
			},
			{
				"type": "unocc",
				"energy": -0.00101,
				"method": "rhf"
			},
			{
				"type": "unocc",
				"energy": 0.01208,
				"method": "rhf"
			},
			{
				"type": "unocc",
				"energy": 0.03249,
				"method": "rhf"
			},
			{
				"type": "unocc",
				"energy": 0.0453,
				"method": "rhf"
			}
		],
		"cosmo_sigma_profile": { 
			"-0.025": 0.0,
			"-0.024": 0.0,
			"-0.023": 0.0,
			"-0.022": 0.0,
			"-0.021": 0.0,
			"-0.02": 0.0,
			"-0.019": 0.0,
			"-0.018": 0.0,
			"-0.017": 0.0,
			"-0.016": 0.0,
			"-0.015": 0.0,
			"-0.014": 0.0,
			"-0.013": 0.0333539043018,
			"-0.012": 1.07252420765,
			"-0.011": 1.28466509619,
			"-0.01": 1.43957136208,
			"-0.009": 1.62578325331,
			"-0.008": 6.89272940283,
			"-0.007": 8.02417246568,
			"-0.006": 13.2562165955,
			"-0.005": 13.6111264907,
			"-0.004": 12.7329332138,
			"-0.003": 11.8846265806,
			"-0.002": 9.60209438433,
			"-0.001": 11.989508224,
			"0.0": 12.51350589,
			"0.001": 14.680624776,
			"0.002": 17.0003579794,
			"0.003": 18.911230265,
			"0.004": 17.8790729946,
			"0.005": 10.6703250111,
			"0.006": 6.33744141942,
			"0.007": 1.35263137638,
			"0.008": 1.41493249227,
			"0.009": 1.98932652869,
			"0.01": 2.58937516294,
			"0.011": 3.76682352769,
			"0.012": 3.48667908362,
			"0.013": 1.2917706996,
			"0.014": 0.0734904893508,
			"0.015": 0.0,
			"0.016": 0.0,
			"0.017": 0.0,
			"0.018": 0.0,
			"0.019": 0.0,
			"0.02": 0.0,
			"0.021": 0.0,
			"0.022": 0.0,
			"0.023": 0.0,
			"0.024": 0.0,
			"0.025": 0.0
		}
	}
}
