{
	 "smiles": "NC1=CC(C(=O)NC2=CC=CC=C2)=C(Cl)C=C1", 
	 "Tm": 389.15, 
	 "num_atms": 28, 
	 "gaussian": { 
		 "optdone": 1, 
		 "sigma_profile": "yes", 
		 "theory": "DFT", 
		 "functional": "B3LYP", 
		 "basiset": "6-31G**", 
		 "properties": { 
			 "R2extent": 6106.8885, 
			 "electric_dipole_moment_norm": 3.97048889433, 
			 "electric_quadrupole_moment_norm": 19.8904757266, 
			 "total_energy": -1146.95366672, 
			 "HOMO_LUMO_gap": 0.16841, 
			 "cosmo_polarized_energy": -14.84, 
			 "cosmo_cavitation_energy": 33.98, 
			 "cosmo_dispersion_energy": -25.04, 
			 "cosmo_repulsion_energy": 1.91, 
			 "cosmo_total_nonelectrostatic_energy": 10.85, 
			 "SMD_solvation_energy": 5.75 
		},
		"coords": [
			{
				"x": 1.0016442,
				"y": 1.9627391536,
				"z": -3.8727141923,
				"element": "N" 
			},
			{
				"x": 0.4892402638,
				"y": 2.1346660021,
				"z": -2.5920739827,
				"element": "C" 
			},
			{
				"x": 0.6044360368,
				"y": 1.1219158742,
				"z": -1.6317469333,
				"element": "C" 
			},
			{
				"x": 0.1444311553,
				"y": 1.2674720395,
				"z": -0.3160825407,
				"element": "C" 
			},
			{
				"x": 0.3675983613,
				"y": 0.0318013798,
				"z": 0.5407197541,
				"element": "C" 
			},
			{
				"x": 1.2547621403,
				"y": -0.7617899157,
				"z": 0.2394322518,
				"element": "O" 
			},
			{
				"x": -0.5011211988,
				"y": -0.1631712366,
				"z": 1.580965614,
				"element": "N" 
			},
			{
				"x": -0.540796574,
				"y": -1.2261648165,
				"z": 2.5087346121,
				"element": "C" 
			},
			{
				"x": 0.3512478596,
				"y": -2.3102442846,
				"z": 2.4947782826,
				"element": "C" 
			},
			{
				"x": 0.2241292923,
				"y": -3.3111682133,
				"z": 3.4587290599,
				"element": "C" 
			},
			{
				"x": -0.7708793452,
				"y": -3.2570718323,
				"z": 4.435210866,
				"element": "C" 
			},
			{
				"x": -1.6559793064,
				"y": -2.1769116843,
				"z": 4.4449668093,
				"element": "C" 
			},
			{
				"x": -1.5438256566,
				"y": -1.1697394011,
				"z": 3.4914600094,
				"element": "C" 
			},
			{
				"x": -0.4346799327,
				"y": 2.5000942382,
				"z": 0.0370274301,
				"element": "C" 
			},
			{
				"x": -0.9991385582,
				"y": 2.8860159534,
				"z": 1.6738226328,
				"element": "Cl" 
			},
			{
				"x": -0.5520080801,
				"y": 3.524307624,
				"z": -0.903471226,
				"element": "C" 
			},
			{
				"x": -0.1052638415,
				"y": 3.3483374792,
				"z": -2.2063015473,
				"element": "C" 
			},
			{
				"x": 1.1369180643,
				"y": 1.0067432812,
				"z": -4.1686781518,
				"element": "H" 
			},
			{
				"x": 0.5985615144,
				"y": 2.5423481235,
				"z": -4.5947040345,
				"element": "H" 
			},
			{
				"x": 1.0783512777,
				"y": 0.1782996511,
				"z": -1.8814751837,
				"element": "H" 
			},
			{
				"x": -1.1842794545,
				"y": 0.56361731,
				"z": 1.7402089663,
				"element": "H" 
			},
			{
				"x": 1.1222000648,
				"y": -2.3531867026,
				"z": 1.739641669,
				"element": "H" 
			},
			{
				"x": 0.9196349957,
				"y": -4.1456622381,
				"z": 3.4401792481,
				"element": "H" 
			},
			{
				"x": -0.8567163781,
				"y": -4.0440727419,
				"z": 5.1782502267,
				"element": "H" 
			},
			{
				"x": -2.4377420671,
				"y": -2.1150230562,
				"z": 5.1965869471,
				"element": "H" 
			},
			{
				"x": -2.2367029903,
				"y": -0.3314156359,
				"z": 3.5043766456,
				"element": "H" 
			},
			{
				"x": -0.9931495672,
				"y": 4.4688196504,
				"z": -0.6046709197,
				"element": "H" 
			},
			{
				"x": -0.2049722757,
				"y": 4.1593439988,
				"z": -2.9226723129,
				"element": "H" 
			}
		],
		 "valence_orbital": [ 
			{
				"type": "occ",
				"energy": -0.26945,
				"method": "rhf"
			},
			{
				"type": "occ",
				"energy": -0.25311,
				"method": "rhf"
			},
			{
				"type": "occ",
				"energy": -0.24619,
				"method": "rhf"
			},
			{
				"type": "occ",
				"energy": -0.21773,
				"method": "rhf"
			},
			{
				"type": "occ",
				"energy": -0.21312,
				"method": "rhf"
			},
			{
				"type": "unocc",
				"energy": -0.04471,
				"method": "rhf"
			},
			{
				"type": "unocc",
				"energy": -0.00688,
				"method": "rhf"
			},
			{
				"type": "unocc",
				"energy": 0.00355,
				"method": "rhf"
			},
			{
				"type": "unocc",
				"energy": 0.0097,
				"method": "rhf"
			},
			{
				"type": "unocc",
				"energy": 0.01914,
				"method": "rhf"
			}
		],
		"cosmo_sigma_profile": { 
			"-0.025": 0.0,
			"-0.024": 0.0,
			"-0.023": 0.0,
			"-0.022": 0.0,
			"-0.021": 0.0,
			"-0.02": 0.0,
			"-0.019": 0.0,
			"-0.018": 0.0,
			"-0.017": 0.0,
			"-0.016": 0.0,
			"-0.015": 0.0,
			"-0.014": 0.0117391338244,
			"-0.013": 1.88446670291,
			"-0.012": 3.21014662257,
			"-0.011": 3.76353760237,
			"-0.01": 4.3266014313,
			"-0.009": 5.0827882044,
			"-0.008": 4.36978777593,
			"-0.007": 7.71202789377,
			"-0.006": 11.3633409207,
			"-0.005": 15.3017645043,
			"-0.004": 14.3613451264,
			"-0.003": 15.2095792784,
			"-0.002": 15.0882058063,
			"-0.001": 14.458294196,
			"0.0": 18.4433575897,
			"0.001": 20.4777861438,
			"0.002": 22.5008247132,
			"0.003": 27.2993546401,
			"0.004": 27.9436130681,
			"0.005": 15.3003518419,
			"0.006": 8.11718416455,
			"0.007": 2.68023214875,
			"0.008": 2.48105834856,
			"0.009": 2.37339594139,
			"0.01": 2.61736407035,
			"0.011": 2.3569889879,
			"0.012": 3.55535670212,
			"0.013": 2.28761107772,
			"0.014": 0.100663139761,
			"0.015": 0.0,
			"0.016": 0.0,
			"0.017": 0.0,
			"0.018": 0.0,
			"0.019": 0.0,
			"0.02": 0.0,
			"0.021": 0.0,
			"0.022": 0.0,
			"0.023": 0.0,
			"0.024": 0.0,
			"0.025": 0.0
		}
	}
}
