{
	 "smiles": "CC(Cl)C(=O)N(C1CCCCC1)C1=NC=CS1", 
	 "Tm": 356.15, 
	 "num_atms": 34, 
	 "gaussian": { 
		 "optdone": 1, 
		 "sigma_profile": "yes", 
		 "theory": "DFT", 
		 "functional": "B3LYP", 
		 "basiset": "6-31G**", 
		 "properties": { 
			 "R2extent": 5470.0716, 
			 "electric_dipole_moment_norm": 4.28164392961, 
			 "electric_quadrupole_moment_norm": 15.0875511479, 
			 "total_energy": -1510.63621223, 
			 "HOMO_LUMO_gap": 0.19969, 
			 "cosmo_polarized_energy": -12.04, 
			 "cosmo_cavitation_energy": 37.63, 
			 "cosmo_dispersion_energy": -26.36, 
			 "cosmo_repulsion_energy": 2.03, 
			 "cosmo_total_nonelectrostatic_energy": 13.29, 
			 "SMD_solvation_energy": 4.37 
		},
		"coords": [
			{
				"x": -0.9077065496,
				"y": -2.9033611742,
				"z": 2.1328543029,
				"element": "C" 
			},
			{
				"x": 0.2214151182,
				"y": -3.1372663986,
				"z": 1.1361999628,
				"element": "C" 
			},
			{
				"x": -0.2612559944,
				"y": -4.3909292342,
				"z": -0.1044863308,
				"element": "Cl" 
			},
			{
				"x": 0.880791211,
				"y": -1.9294002777,
				"z": 0.4330343586,
				"element": "C" 
			},
			{
				"x": 2.101998928,
				"y": -1.924897098,
				"z": 0.3639344694,
				"element": "O" 
			},
			{
				"x": 0.1339963765,
				"y": -0.8644115294,
				"z": -0.0507557002,
				"element": "N" 
			},
			{
				"x": 0.831854214,
				"y": 0.290760256,
				"z": -0.7112080782,
				"element": "C" 
			},
			{
				"x": 1.7662120394,
				"y": 1.0577871017,
				"z": 0.2389936104,
				"element": "C" 
			},
			{
				"x": 2.3613855301,
				"y": 2.2830324556,
				"z": -0.4762072392,
				"element": "C" 
			},
			{
				"x": 3.0758050787,
				"y": 1.8862945337,
				"z": -1.7772748715,
				"element": "C" 
			},
			{
				"x": 2.1367486825,
				"y": 1.1087932096,
				"z": -2.7121403869,
				"element": "C" 
			},
			{
				"x": 1.536699097,
				"y": -0.1236966108,
				"z": -2.0145184835,
				"element": "C" 
			},
			{
				"x": -1.2674792675,
				"y": -0.8628399702,
				"z": -0.1386040885,
				"element": "C" 
			},
			{
				"x": -1.9787536844,
				"y": -1.6383295911,
				"z": -0.9002283736,
				"element": "N" 
			},
			{
				"x": -3.3209938173,
				"y": -1.3701715702,
				"z": -0.7666993379,
				"element": "C" 
			},
			{
				"x": -3.6520007517,
				"y": -0.3564726926,
				"z": 0.0866454797,
				"element": "C" 
			},
			{
				"x": -2.2189971314,
				"y": 0.301865511,
				"z": 0.802543429,
				"element": "S" 
			},
			{
				"x": -0.6257733004,
				"y": -2.1085108189,
				"z": 2.8324313825,
				"element": "H" 
			},
			{
				"x": -1.8471555528,
				"y": -2.6343449839,
				"z": 1.6515648286,
				"element": "H" 
			},
			{
				"x": -1.0717593042,
				"y": -3.8193306696,
				"z": 2.7064687024,
				"element": "H" 
			},
			{
				"x": 1.0709029938,
				"y": -3.591913398,
				"z": 1.6446128249,
				"element": "H" 
			},
			{
				"x": 0.0155366931,
				"y": 0.969203121,
				"z": -0.9837638787,
				"element": "H" 
			},
			{
				"x": 1.2080071855,
				"y": 1.3701558263,
				"z": 1.130379288,
				"element": "H" 
			},
			{
				"x": 2.5674662881,
				"y": 0.3923838333,
				"z": 0.5696703205,
				"element": "H" 
			},
			{
				"x": 1.5594457762,
				"y": 2.9989998266,
				"z": -0.7082599122,
				"element": "H" 
			},
			{
				"x": 3.0531189628,
				"y": 2.8009554381,
				"z": 0.1981502606,
				"element": "H" 
			},
			{
				"x": 3.9453646246,
				"y": 1.2599304676,
				"z": -1.5353809351,
				"element": "H" 
			},
			{
				"x": 3.4620821651,
				"y": 2.7787556828,
				"z": -2.2838101023,
				"element": "H" 
			},
			{
				"x": 1.326501735,
				"y": 1.7738588035,
				"z": -3.0449729581,
				"element": "H" 
			},
			{
				"x": 2.6703830934,
				"y": 0.794915213,
				"z": -3.6166091971,
				"element": "H" 
			},
			{
				"x": 0.8172902942,
				"y": -0.6276718814,
				"z": -2.6697870332,
				"element": "H" 
			},
			{
				"x": 2.3265241767,
				"y": -0.8418920767,
				"z": -1.7787791499,
				"element": "H" 
			},
			{
				"x": -4.0316538985,
				"y": -1.949936993,
				"z": -1.3434671669,
				"element": "H" 
			},
			{
				"x": -4.632201012,
				"y": 0.0364856886,
				"z": 0.3173700035,
				"element": "H" 
			}
		],
		 "valence_orbital": [ 
			{
				"type": "occ",
				"energy": -0.29437,
				"method": "rhf"
			},
			{
				"type": "occ",
				"energy": -0.27929,
				"method": "rhf"
			},
			{
				"type": "occ",
				"energy": -0.27429,
				"method": "rhf"
			},
			{
				"type": "occ",
				"energy": -0.25686,
				"method": "rhf"
			},
			{
				"type": "occ",
				"energy": -0.24494,
				"method": "rhf"
			},
			{
				"type": "unocc",
				"energy": -0.04525,
				"method": "rhf"
			},
			{
				"type": "unocc",
				"energy": -0.01754,
				"method": "rhf"
			},
			{
				"type": "unocc",
				"energy": 0.00272,
				"method": "rhf"
			},
			{
				"type": "unocc",
				"energy": 0.03776,
				"method": "rhf"
			},
			{
				"type": "unocc",
				"energy": 0.05502,
				"method": "rhf"
			}
		],
		"cosmo_sigma_profile": { 
			"-0.025": 0.0,
			"-0.024": 0.0,
			"-0.023": 0.0,
			"-0.022": 0.0,
			"-0.021": 0.0,
			"-0.02": 0.0,
			"-0.019": 0.0,
			"-0.018": 0.0,
			"-0.017": 0.0,
			"-0.016": 0.0,
			"-0.015": 0.0,
			"-0.014": 0.0,
			"-0.013": 0.0,
			"-0.012": 0.0,
			"-0.011": 0.0,
			"-0.01": 0.709046199397,
			"-0.009": 2.04836786572,
			"-0.008": 3.38584197806,
			"-0.007": 6.96998585403,
			"-0.006": 9.05944930626,
			"-0.005": 12.7651346634,
			"-0.004": 14.9827258794,
			"-0.003": 24.7139356193,
			"-0.002": 34.034784275,
			"-0.001": 40.8837689975,
			"0.0": 39.8300343283,
			"0.001": 31.7207644015,
			"0.002": 17.1057037241,
			"0.003": 10.6084198071,
			"0.004": 8.26820967825,
			"0.005": 10.0417449113,
			"0.006": 9.65095980952,
			"0.007": 3.47193704261,
			"0.008": 3.25458249872,
			"0.009": 3.24181255001,
			"0.01": 2.69810515242,
			"0.011": 3.23084803819,
			"0.012": 3.30150079369,
			"0.013": 2.58663691664,
			"0.014": 0.732674133629,
			"0.015": 0.0,
			"0.016": 0.0,
			"0.017": 0.0,
			"0.018": 0.0,
			"0.019": 0.0,
			"0.02": 0.0,
			"0.021": 0.0,
			"0.022": 0.0,
			"0.023": 0.0,
			"0.024": 0.0,
			"0.025": 0.0
		}
	}
}
