{
	 "smiles": "C(N1CN(CC2=CC=CC=C2)CN(CC2=CC=CC=C2)C1)C1=CC=CC=C1", 
	 "Tm": 323.15, 
	 "num_atms": 54, 
	 "gaussian": { 
		 "optdone": 1, 
		 "sigma_profile": "yes", 
		 "theory": "DFT", 
		 "functional": "B3LYP", 
		 "basiset": "6-31G**", 
		 "properties": { 
			 "R2extent": 13438.4316, 
			 "electric_dipole_moment_norm": 0.975218221733, 
			 "electric_quadrupole_moment_norm": 7.18610071666, 
			 "total_energy": -1095.04710016, 
			 "HOMO_LUMO_gap": 0.20004, 
			 "cosmo_polarized_energy": -11.18, 
			 "cosmo_cavitation_energy": 55.1, 
			 "cosmo_dispersion_energy": -36.4, 
			 "cosmo_repulsion_energy": 2.79, 
			 "cosmo_total_nonelectrostatic_energy": 21.49, 
			 "SMD_solvation_energy": 5.21 
		},
		"coords": [
			{
				"x": -0.701698614,
				"y": -1.6818933722,
				"z": 1.6901668246,
				"element": "C" 
			},
			{
				"x": -1.1555230421,
				"y": -0.552497386,
				"z": 0.8858327424,
				"element": "N" 
			},
			{
				"x": -2.3698110068,
				"y": -0.8705498346,
				"z": 0.1352328657,
				"element": "C" 
			},
			{
				"x": -2.6386991341,
				"y": 0.2030420796,
				"z": -0.8280770412,
				"element": "N" 
			},
			{
				"x": -4.0508802835,
				"y": 0.3103402661,
				"z": -1.1735412271,
				"element": "C" 
			},
			{
				"x": -4.5717139875,
				"y": -0.8964401502,
				"z": -1.9362576905,
				"element": "C" 
			},
			{
				"x": -5.8202389808,
				"y": -1.4489290923,
				"z": -1.6318915055,
				"element": "C" 
			},
			{
				"x": -6.3227254397,
				"y": -2.5269379878,
				"z": -2.3647407719,
				"element": "C" 
			},
			{
				"x": -5.574672954,
				"y": -3.0708105513,
				"z": -3.4090475565,
				"element": "C" 
			},
			{
				"x": -4.3225494705,
				"y": -2.5304746638,
				"z": -3.7154824617,
				"element": "C" 
			},
			{
				"x": -3.8262975476,
				"y": -1.4510182956,
				"z": -2.985923267,
				"element": "C" 
			},
			{
				"x": -2.0180425805,
				"y": 1.4560128096,
				"z": -0.3816130933,
				"element": "C" 
			},
			{
				"x": -0.5625864246,
				"y": 1.3541896892,
				"z": -0.4205285228,
				"element": "N" 
			},
			{
				"x": 0.0210452145,
				"y": 1.6909619196,
				"z": -1.7185510847,
				"element": "C" 
			},
			{
				"x": 1.5271243342,
				"y": 1.8796713531,
				"z": -1.6533149597,
				"element": "C" 
			},
			{
				"x": 2.1169938144,
				"y": 2.5516124725,
				"z": -0.5739202399,
				"element": "C" 
			},
			{
				"x": 3.4944938706,
				"y": 2.7666386342,
				"z": -0.5389951117,
				"element": "C" 
			},
			{
				"x": 4.3040066233,
				"y": 2.3168472957,
				"z": -1.5853823208,
				"element": "C" 
			},
			{
				"x": 3.7260441749,
				"y": 1.6449351622,
				"z": -2.6631438002,
				"element": "C" 
			},
			{
				"x": 2.3472033671,
				"y": 1.4248155355,
				"z": -2.6919421407,
				"element": "C" 
			},
			{
				"x": -0.1278674984,
				"y": 0.0177210392,
				"z": 0.02965154,
				"element": "C" 
			},
			{
				"x": 0.2848160044,
				"y": -1.2952424532,
				"z": 2.7770444711,
				"element": "C" 
			},
			{
				"x": 0.0921562492,
				"y": -0.1344066262,
				"z": 3.5383089977,
				"element": "C" 
			},
			{
				"x": 0.9707444265,
				"y": 0.1888807706,
				"z": 4.5717476752,
				"element": "C" 
			},
			{
				"x": 2.0531412626,
				"y": -0.6455805826,
				"z": 4.8629250483,
				"element": "C" 
			},
			{
				"x": 2.2539173657,
				"y": -1.8019887227,
				"z": 4.108677584,
				"element": "C" 
			},
			{
				"x": 1.3761720735,
				"y": -2.1204284425,
				"z": 3.0700690334,
				"element": "C" 
			},
			{
				"x": -1.5962256641,
				"y": -2.1141372213,
				"z": 2.1598789648,
				"element": "H" 
			},
			{
				"x": -0.2674600366,
				"y": -2.4879415729,
				"z": 1.0681687553,
				"element": "H" 
			},
			{
				"x": -2.2862873965,
				"y": -1.8263304874,
				"z": -0.4156599221,
				"element": "H" 
			},
			{
				"x": -3.1934136923,
				"y": -0.9835407375,
				"z": 0.8666698705,
				"element": "H" 
			},
			{
				"x": -4.6884964291,
				"y": 0.4721924167,
				"z": -0.2823211462,
				"element": "H" 
			},
			{
				"x": -4.1636553796,
				"y": 1.2044679651,
				"z": -1.8015942901,
				"element": "H" 
			},
			{
				"x": -6.4041217828,
				"y": -1.0325606121,
				"z": -0.8141623908,
				"element": "H" 
			},
			{
				"x": -7.2943374044,
				"y": -2.9439939196,
				"z": -2.1146777103,
				"element": "H" 
			},
			{
				"x": -5.9610082823,
				"y": -3.9117474866,
				"z": -3.9779968955,
				"element": "H" 
			},
			{
				"x": -3.7326441973,
				"y": -2.9516455305,
				"z": -4.5250920968,
				"element": "H" 
			},
			{
				"x": -2.849565478,
				"y": -1.0329525897,
				"z": -3.2108982511,
				"element": "H" 
			},
			{
				"x": -2.3349105698,
				"y": 2.2581389458,
				"z": -1.0543508389,
				"element": "H" 
			},
			{
				"x": -2.3329886682,
				"y": 1.7271799205,
				"z": 0.6388492109,
				"element": "H" 
			},
			{
				"x": -0.217384931,
				"y": 0.9363457715,
				"z": -2.4908788172,
				"element": "H" 
			},
			{
				"x": -0.4357040576,
				"y": 2.6334684986,
				"z": -2.0479627402,
				"element": "H" 
			},
			{
				"x": 1.4816742965,
				"y": 2.8885746038,
				"z": 0.2397667492,
				"element": "H" 
			},
			{
				"x": 3.9380533389,
				"y": 3.2854158675,
				"z": 0.3065994367,
				"element": "H" 
			},
			{
				"x": 5.3770871955,
				"y": 2.4842302789,
				"z": -1.5574082116,
				"element": "H" 
			},
			{
				"x": 4.3478108622,
				"y": 1.2847102901,
				"z": -3.4782362443,
				"element": "H" 
			},
			{
				"x": 1.902333942,
				"y": 0.8925545263,
				"z": -3.5297263722,
				"element": "H" 
			},
			{
				"x": 0.076043249,
				"y": -0.638766145,
				"z": -0.8469865042,
				"element": "H" 
			},
			{
				"x": 0.8023359635,
				"y": 0.0985966247,
				"z": 0.5989604408,
				"element": "H" 
			},
			{
				"x": -0.7436011264,
				"y": 0.5157230274,
				"z": 3.2987714415,
				"element": "H" 
			},
			{
				"x": 0.8111065134,
				"y": 1.0938725265,
				"z": 5.1516691014,
				"element": "H" 
			},
			{
				"x": 2.737012617,
				"y": -0.3927994127,
				"z": 5.6682805656,
				"element": "H" 
			},
			{
				"x": 3.0971796893,
				"y": -2.453085636,
				"z": 4.3218053428,
				"element": "H" 
			},
			{
				"x": 1.5413156117,
				"y": -3.0189407784,
				"z": 2.4798285648,
				"element": "H" 
			}
		],
		 "valence_orbital": [ 
			{
				"type": "occ",
				"energy": -0.24002,
				"method": "rhf"
			},
			{
				"type": "occ",
				"energy": -0.23599,
				"method": "rhf"
			},
			{
				"type": "occ",
				"energy": -0.22824,
				"method": "rhf"
			},
			{
				"type": "occ",
				"energy": -0.21569,
				"method": "rhf"
			},
			{
				"type": "occ",
				"energy": -0.20212,
				"method": "rhf"
			},
			{
				"type": "unocc",
				"energy": -0.00208,
				"method": "rhf"
			},
			{
				"type": "unocc",
				"energy": 0.00108,
				"method": "rhf"
			},
			{
				"type": "unocc",
				"energy": 0.00145,
				"method": "rhf"
			},
			{
				"type": "unocc",
				"energy": 0.00387,
				"method": "rhf"
			},
			{
				"type": "unocc",
				"energy": 0.00443,
				"method": "rhf"
			}
		],
		"cosmo_sigma_profile": { 
			"-0.025": 0.0,
			"-0.024": 0.0,
			"-0.023": 0.0,
			"-0.022": 0.0,
			"-0.021": 0.0,
			"-0.02": 0.0,
			"-0.019": 0.0,
			"-0.018": 0.0,
			"-0.017": 0.0,
			"-0.016": 0.0,
			"-0.015": 0.0,
			"-0.014": 0.0,
			"-0.013": 0.0,
			"-0.012": 0.0,
			"-0.011": 0.0,
			"-0.01": 0.0,
			"-0.009": 0.0,
			"-0.008": 0.0,
			"-0.007": 0.0,
			"-0.006": 7.16114331495,
			"-0.005": 34.1214964957,
			"-0.004": 39.9270566035,
			"-0.003": 55.330420885,
			"-0.002": 49.3866969813,
			"-0.001": 41.1945326812,
			"0.0": 30.2145600216,
			"0.001": 28.2185906292,
			"0.002": 26.7514065595,
			"0.003": 27.4073038722,
			"0.004": 27.2701395222,
			"0.005": 25.8613061795,
			"0.006": 27.3419535071,
			"0.007": 9.49978623371,
			"0.008": 2.28460673084,
			"0.009": 1.09885286203,
			"0.01": 0.955799161684,
			"0.011": 0.419785353194,
			"0.012": 0.48095233364,
			"0.013": 0.0,
			"0.014": 0.0,
			"0.015": 0.0,
			"0.016": 0.0,
			"0.017": 0.0,
			"0.018": 0.0,
			"0.019": 0.0,
			"0.02": 0.0,
			"0.021": 0.0,
			"0.022": 0.0,
			"0.023": 0.0,
			"0.024": 0.0,
			"0.025": 0.0
		}
	}
}
