{
	 "smiles": "CN1C(=O)C(C2=NNC(=O)C2=C/C2=CC=CC(Cl)=C2)=C(O)C2=CC=CC=C12", 
	 "Tm": 538.15, 
	 "num_atms": 41, 
	 "gaussian": { 
		 "optdone": 1, 
		 "sigma_profile": "yes", 
		 "theory": "DFT", 
		 "functional": "B3LYP", 
		 "basiset": "6-31G**", 
		 "properties": { 
			 "R2extent": 14866.6271, 
			 "electric_dipole_moment_norm": 5.66252634872, 
			 "electric_quadrupole_moment_norm": 19.3949862168, 
			 "total_energy": -1620.693474, 
			 "HOMO_LUMO_gap": 0.11733, 
			 "cosmo_polarized_energy": -16.89, 
			 "cosmo_cavitation_energy": 46.49, 
			 "cosmo_dispersion_energy": -34.15, 
			 "cosmo_repulsion_energy": 2.49, 
			 "cosmo_total_nonelectrostatic_energy": 14.83, 
			 "SMD_solvation_energy": 8.01 
		},
		"coords": [
			{
				"x": 0.1222223664,
				"y": 0.1658103466,
				"z": 3.652403388,
				"element": "C" 
			},
			{
				"x": 0.259913322,
				"y": 0.7682674772,
				"z": 2.3259429999,
				"element": "N" 
			},
			{
				"x": -0.5365486512,
				"y": 0.2312203071,
				"z": 1.295633672,
				"element": "C" 
			},
			{
				"x": -1.3136952834,
				"y": -0.6941841328,
				"z": 1.5594083969,
				"element": "O" 
			},
			{
				"x": -0.3998821927,
				"y": 0.8168606868,
				"z": -0.0360103019,
				"element": "C" 
			},
			{
				"x": -1.1303777647,
				"y": 0.2722160267,
				"z": -1.1994778117,
				"element": "C" 
			},
			{
				"x": -1.3529698747,
				"y": 1.1032027953,
				"z": -2.1984404825,
				"element": "N" 
			},
			{
				"x": -1.9144546583,
				"y": 0.4059717706,
				"z": -3.2346542318,
				"element": "N" 
			},
			{
				"x": -2.1214943692,
				"y": -0.927354845,
				"z": -2.9633593025,
				"element": "C" 
			},
			{
				"x": -2.6567992598,
				"y": -1.7119304519,
				"z": -3.7411759353,
				"element": "O" 
			},
			{
				"x": -1.5585484811,
				"y": -1.0923846284,
				"z": -1.586140533,
				"element": "C" 
			},
			{
				"x": -1.3842660266,
				"y": -2.2323793441,
				"z": -0.8555536669,
				"element": "C" 
			},
			{
				"x": -1.6469577628,
				"y": -3.6455489428,
				"z": -1.0908050542,
				"element": "C" 
			},
			{
				"x": -1.2835962594,
				"y": -4.5126380937,
				"z": -0.0337067036,
				"element": "C" 
			},
			{
				"x": -1.4737105341,
				"y": -5.8854040006,
				"z": -0.1331548442,
				"element": "C" 
			},
			{
				"x": -2.0319179438,
				"y": -6.4338622037,
				"z": -1.2890421794,
				"element": "C" 
			},
			{
				"x": -2.3945216552,
				"y": -5.579438798,
				"z": -2.3324805354,
				"element": "C" 
			},
			{
				"x": -3.1020987066,
				"y": -6.2723447834,
				"z": -3.7860841378,
				"element": "Cl" 
			},
			{
				"x": -2.216620706,
				"y": -4.2032879034,
				"z": -2.2570165221,
				"element": "C" 
			},
			{
				"x": 0.3783398507,
				"y": 1.9630953885,
				"z": -0.1967765901,
				"element": "C" 
			},
			{
				"x": 0.4484666251,
				"y": 2.6555630076,
				"z": -1.3309042472,
				"element": "O" 
			},
			{
				"x": 1.1940026184,
				"y": 2.4699252036,
				"z": 0.8830482403,
				"element": "C" 
			},
			{
				"x": 2.0477628295,
				"y": 3.5733726521,
				"z": 0.696092903,
				"element": "C" 
			},
			{
				"x": 2.8345891158,
				"y": 4.0436480052,
				"z": 1.7343172893,
				"element": "C" 
			},
			{
				"x": 2.7680673847,
				"y": 3.4136338761,
				"z": 2.9850488363,
				"element": "C" 
			},
			{
				"x": 1.9265771589,
				"y": 2.329638092,
				"z": 3.1965217942,
				"element": "C" 
			},
			{
				"x": 1.1240569127,
				"y": 1.838961058,
				"z": 2.1464798654,
				"element": "C" 
			},
			{
				"x": 1.07271922,
				"y": -0.2680023354,
				"z": 3.9790885164,
				"element": "H" 
			},
			{
				"x": -0.1994885007,
				"y": 0.9149667409,
				"z": 4.3821369246,
				"element": "H" 
			},
			{
				"x": -0.6295279253,
				"y": -0.6153313518,
				"z": 3.5758553468,
				"element": "H" 
			},
			{
				"x": -2.2438173458,
				"y": 0.8938466049,
				"z": -4.0527361838,
				"element": "H" 
			},
			{
				"x": -0.9748445167,
				"y": -2.0490633296,
				"z": 0.1307248806,
				"element": "H" 
			},
			{
				"x": -0.8535392665,
				"y": -4.0904801021,
				"z": 0.8694895592,
				"element": "H" 
			},
			{
				"x": -1.1902257461,
				"y": -6.5364576544,
				"z": 0.6880000362,
				"element": "H" 
			},
			{
				"x": -2.1875048564,
				"y": -7.503055767,
				"z": -1.3825620478,
				"element": "H" 
			},
			{
				"x": -2.5145388842,
				"y": -3.5569560443,
				"z": -3.0734623304,
				"element": "H" 
			},
			{
				"x": -0.2374065636,
				"y": 2.27358471,
				"z": -1.9526334676,
				"element": "H" 
			},
			{
				"x": 2.0727958598,
				"y": 4.0406904458,
				"z": -0.2811680013,
				"element": "H" 
			},
			{
				"x": 3.493357386,
				"y": 4.8923106818,
				"z": 1.5818403889,
				"element": "H" 
			},
			{
				"x": 3.3791838497,
				"y": 3.7745406679,
				"z": 3.80727523,
				"element": "H" 
			},
			{
				"x": 1.8938992354,
				"y": 1.8654781678,
				"z": 4.1734368425,
				"element": "H" 
			}
		],
		 "valence_orbital": [ 
			{
				"type": "occ",
				"energy": -0.25643,
				"method": "rhf"
			},
			{
				"type": "occ",
				"energy": -0.25267,
				"method": "rhf"
			},
			{
				"type": "occ",
				"energy": -0.2409,
				"method": "rhf"
			},
			{
				"type": "occ",
				"energy": -0.2299,
				"method": "rhf"
			},
			{
				"type": "occ",
				"energy": -0.21369,
				"method": "rhf"
			},
			{
				"type": "unocc",
				"energy": -0.09636,
				"method": "rhf"
			},
			{
				"type": "unocc",
				"energy": -0.05697,
				"method": "rhf"
			},
			{
				"type": "unocc",
				"energy": -0.01588,
				"method": "rhf"
			},
			{
				"type": "unocc",
				"energy": -0.01448,
				"method": "rhf"
			},
			{
				"type": "unocc",
				"energy": 0.0043,
				"method": "rhf"
			}
		],
		"cosmo_sigma_profile": { 
			"-0.025": 0.0,
			"-0.024": 0.0,
			"-0.023": 0.0,
			"-0.022": 0.0,
			"-0.021": 0.0,
			"-0.02": 0.0,
			"-0.019": 0.0,
			"-0.018": 0.0,
			"-0.017": 0.379108015386,
			"-0.016": 1.56849609236,
			"-0.015": 0.895849048185,
			"-0.014": 1.12285854517,
			"-0.013": 0.536759798179,
			"-0.012": 0.975916849639,
			"-0.011": 1.0680510793,
			"-0.01": 0.8134159972,
			"-0.009": 0.615813034239,
			"-0.008": 2.80504107904,
			"-0.007": 10.5939704728,
			"-0.006": 20.3275490505,
			"-0.005": 22.0570771579,
			"-0.004": 19.9048159036,
			"-0.003": 21.2344574115,
			"-0.002": 28.3296281625,
			"-0.001": 32.9017437974,
			"0.0": 37.2782735807,
			"0.001": 40.1049152628,
			"0.002": 37.6117444621,
			"0.003": 25.8566343354,
			"0.004": 25.6086688494,
			"0.005": 11.5817754462,
			"0.006": 5.52495025919,
			"0.007": 4.73336078254,
			"0.008": 5.52114268212,
			"0.009": 3.16341838088,
			"0.01": 3.18841503466,
			"0.011": 2.56456316284,
			"0.012": 4.55020814805,
			"0.013": 3.7614748312,
			"0.014": 0.519026982106,
			"0.015": 0.0,
			"0.016": 0.0,
			"0.017": 0.0,
			"0.018": 0.0,
			"0.019": 0.0,
			"0.02": 0.0,
			"0.021": 0.0,
			"0.022": 0.0,
			"0.023": 0.0,
			"0.024": 0.0,
			"0.025": 0.0
		}
	}
}
