{
	 "smiles": "CCCC1CCCCC1", 
	 "Tm": 178.15, 
	 "num_atms": 27, 
	 "gaussian": { 
		 "optdone": 1, 
		 "sigma_profile": "yes", 
		 "theory": "DFT", 
		 "functional": "B3LYP", 
		 "basiset": "6-31G**", 
		 "properties": { 
			 "R2extent": 1634.6399, 
			 "electric_dipole_moment_norm": 0.068566318262, 
			 "electric_quadrupole_moment_norm": 0.403157103373, 
			 "total_energy": -353.824105167, 
			 "HOMO_LUMO_gap": 0.35614, 
			 "cosmo_polarized_energy": -0.55, 
			 "cosmo_cavitation_energy": 25.66, 
			 "cosmo_dispersion_energy": -18.93, 
			 "cosmo_repulsion_energy": 1.55, 
			 "cosmo_total_nonelectrostatic_energy": 8.29, 
			 "SMD_solvation_energy": 3.32 
		},
		"coords": [
			{
				"x": -2.955993555,
				"y": 1.082217149,
				"z": -1.4037312252,
				"element": "C" 
			},
			{
				"x": -2.5662288031,
				"y": 1.1342523484,
				"z": 0.0791440981,
				"element": "C" 
			},
			{
				"x": -1.8074670964,
				"y": -0.0827968536,
				"z": 0.6467388048,
				"element": "C" 
			},
			{
				"x": -0.3767840959,
				"y": -0.3705272043,
				"z": 0.130832401,
				"element": "C" 
			},
			{
				"x": 0.5130940006,
				"y": 0.8808505865,
				"z": 0.0295329329,
				"element": "C" 
			},
			{
				"x": 1.9974366857,
				"y": 0.502254113,
				"z": -0.188109362,
				"element": "C" 
			},
			{
				"x": 2.1624355324,
				"y": -0.783632596,
				"z": -1.0361356624,
				"element": "C" 
			},
			{
				"x": 0.9742264768,
				"y": -0.9725301267,
				"z": -1.9877570728,
				"element": "C" 
			},
			{
				"x": -0.3414997169,
				"y": -1.1721261402,
				"z": -1.2017719102,
				"element": "C" 
			},
			{
				"x": -3.5084998625,
				"y": 0.16529685,
				"z": -1.6398883579,
				"element": "H" 
			},
			{
				"x": -3.5993075658,
				"y": 1.9304230857,
				"z": -1.662676989,
				"element": "H" 
			},
			{
				"x": -2.0842745612,
				"y": 1.1237316973,
				"z": -2.0637679062,
				"element": "H" 
			},
			{
				"x": -3.4838251876,
				"y": 1.2462022195,
				"z": 0.6715829728,
				"element": "H" 
			},
			{
				"x": -1.9845039357,
				"y": 2.045714728,
				"z": 0.2660660313,
				"element": "H" 
			},
			{
				"x": -2.419355912,
				"y": -0.9850627877,
				"z": 0.5026235413,
				"element": "H" 
			},
			{
				"x": -1.7455460297,
				"y": 0.0625752051,
				"z": 1.7337786891,
				"element": "H" 
			},
			{
				"x": 0.0861544532,
				"y": -1.0133696595,
				"z": 0.8941987895,
				"element": "H" 
			},
			{
				"x": 0.1656713492,
				"y": 1.5084017012,
				"z": -0.8011807594,
				"element": "H" 
			},
			{
				"x": 0.414945171,
				"y": 1.4949826873,
				"z": 0.9331909627,
				"element": "H" 
			},
			{
				"x": 2.4893288115,
				"y": 0.3626844846,
				"z": 0.7821662536,
				"element": "H" 
			},
			{
				"x": 2.5137916969,
				"y": 1.3388674269,
				"z": -0.6740444642,
				"element": "H" 
			},
			{
				"x": 3.105597696,
				"y": -0.7509343274,
				"z": -1.5932246065,
				"element": "H" 
			},
			{
				"x": 2.2287358904,
				"y": -1.6596384969,
				"z": -0.3774555644,
				"element": "H" 
			},
			{
				"x": 1.1442612042,
				"y": -1.8228207536,
				"z": -2.658272055,
				"element": "H" 
			},
			{
				"x": 0.8927707203,
				"y": -0.0883819995,
				"z": -2.6342609028,
				"element": "H" 
			},
			{
				"x": -0.4730332767,
				"y": -2.2366281989,
				"z": -0.9685602631,
				"element": "H" 
			},
			{
				"x": -1.1880300895,
				"y": -0.8981051381,
				"z": -1.8383183758,
				"element": "H" 
			}
		],
		 "valence_orbital": [ 
			{
				"type": "occ",
				"energy": -0.32136,
				"method": "rhf"
			},
			{
				"type": "occ",
				"energy": -0.31969,
				"method": "rhf"
			},
			{
				"type": "occ",
				"energy": -0.28612,
				"method": "rhf"
			},
			{
				"type": "occ",
				"energy": -0.28556,
				"method": "rhf"
			},
			{
				"type": "occ",
				"energy": -0.28309,
				"method": "rhf"
			},
			{
				"type": "unocc",
				"energy": 0.07305,
				"method": "rhf"
			},
			{
				"type": "unocc",
				"energy": 0.0987,
				"method": "rhf"
			},
			{
				"type": "unocc",
				"energy": 0.10822,
				"method": "rhf"
			},
			{
				"type": "unocc",
				"energy": 0.12574,
				"method": "rhf"
			},
			{
				"type": "unocc",
				"energy": 0.13486,
				"method": "rhf"
			}
		],
		"cosmo_sigma_profile": { 
			"-0.025": 0.0,
			"-0.024": 0.0,
			"-0.023": 0.0,
			"-0.022": 0.0,
			"-0.021": 0.0,
			"-0.02": 0.0,
			"-0.019": 0.0,
			"-0.018": 0.0,
			"-0.017": 0.0,
			"-0.016": 0.0,
			"-0.015": 0.0,
			"-0.014": 0.0,
			"-0.013": 0.0,
			"-0.012": 0.0,
			"-0.011": 0.0,
			"-0.01": 0.0,
			"-0.009": 0.0,
			"-0.008": 0.0,
			"-0.007": 0.0,
			"-0.006": 0.0,
			"-0.005": 0.0,
			"-0.004": 0.0,
			"-0.003": 0.915832379158,
			"-0.002": 20.4404881482,
			"-0.001": 48.7656130534,
			"0.0": 57.6750307663,
			"0.001": 43.2384350819,
			"0.002": 23.9856159249,
			"0.003": 0.680869514225,
			"0.004": 0.0,
			"0.005": 0.0,
			"0.006": 0.0,
			"0.007": 0.0,
			"0.008": 0.0,
			"0.009": 0.0,
			"0.01": 0.0,
			"0.011": 0.0,
			"0.012": 0.0,
			"0.013": 0.0,
			"0.014": 0.0,
			"0.015": 0.0,
			"0.016": 0.0,
			"0.017": 0.0,
			"0.018": 0.0,
			"0.019": 0.0,
			"0.02": 0.0,
			"0.021": 0.0,
			"0.022": 0.0,
			"0.023": 0.0,
			"0.024": 0.0,
			"0.025": 0.0
		}
	}
}
