{
	 "smiles": "OC(=O)C1=CC(Br)=C(Cl)N1", 
	 "Tm": 453.15, 
	 "num_atms": 13, 
	 "gaussian": { 
		 "optdone": 1, 
		 "sigma_profile": "yes", 
		 "theory": "DFT", 
		 "functional": "B3LYP", 
		 "basiset": "6-31G**", 
		 "properties": { 
			 "R2extent": 4592.9887, 
			 "electric_dipole_moment_norm": 1.95774006702, 
			 "electric_quadrupole_moment_norm": 10.4160516507, 
			 "total_energy": -3429.12777185, 
			 "HOMO_LUMO_gap": 0.18908, 
			 "cosmo_polarized_energy": -14.41, 
			 "cosmo_cavitation_energy": 22.61, 
			 "cosmo_dispersion_energy": -17.32, 
			 "cosmo_repulsion_energy": 1.42, 
			 "cosmo_total_nonelectrostatic_energy": 6.72, 
			 "SMD_solvation_energy": 3.73 
		},
		"coords": [
			{
				"x": 0.8119841963,
				"y": 0.3712892598,
				"z": 1.8118966815,
				"element": "O" 
			},
			{
				"x": 0.1452141621,
				"y": 0.9308874496,
				"z": 0.7751431983,
				"element": "C" 
			},
			{
				"x": 0.2343267577,
				"y": 2.1191535878,
				"z": 0.5457701907,
				"element": "O" 
			},
			{
				"x": -0.6821413125,
				"y": 0.0420569853,
				"z": -0.0521926728,
				"element": "C" 
			},
			{
				"x": -0.9784640114,
				"y": -1.3150115518,
				"z": -0.0468948159,
				"element": "C" 
			},
			{
				"x": -1.8559102229,
				"y": -1.5534511795,
				"z": -1.1289163635,
				"element": "C" 
			},
			{
				"x": -2.6002358081,
				"y": -3.2046144359,
				"z": -1.6263332967,
				"element": "Br" 
			},
			{
				"x": -2.0705860379,
				"y": -0.3370007405,
				"z": -1.76402609,
				"element": "C" 
			},
			{
				"x": -3.0315470393,
				"y": 0.0387700955,
				"z": -3.1342540335,
				"element": "Cl" 
			},
			{
				"x": -1.3582613994,
				"y": 0.6144246359,
				"z": -1.1057296721,
				"element": "N" 
			},
			{
				"x": 0.6381758633,
				"y": -0.579281516,
				"z": 1.8603789767,
				"element": "H" 
			},
			{
				"x": -0.6212203574,
				"y": -2.0687263549,
				"z": 0.6407013169,
				"element": "H" 
			},
			{
				"x": -1.3002347906,
				"y": 1.6022037648,
				"z": -1.3165434197,
				"element": "H" 
			}
		],
		 "valence_orbital": [ 
			{
				"type": "occ",
				"energy": -0.3263,
				"method": "rhf"
			},
			{
				"type": "occ",
				"energy": -0.30423,
				"method": "rhf"
			},
			{
				"type": "occ",
				"energy": -0.2907,
				"method": "rhf"
			},
			{
				"type": "occ",
				"energy": -0.27325,
				"method": "rhf"
			},
			{
				"type": "occ",
				"energy": -0.23986,
				"method": "rhf"
			},
			{
				"type": "unocc",
				"energy": -0.05078,
				"method": "rhf"
			},
			{
				"type": "unocc",
				"energy": -0.01045,
				"method": "rhf"
			},
			{
				"type": "unocc",
				"energy": 0.02247,
				"method": "rhf"
			},
			{
				"type": "unocc",
				"energy": 0.02709,
				"method": "rhf"
			},
			{
				"type": "unocc",
				"energy": 0.04807,
				"method": "rhf"
			}
		],
		"cosmo_sigma_profile": { 
			"-0.025": 0.0,
			"-0.024": 0.0,
			"-0.023": 0.0,
			"-0.022": 0.0,
			"-0.021": 0.0,
			"-0.02": 0.000275214089591,
			"-0.019": 0.777787385002,
			"-0.018": 1.22418093322,
			"-0.017": 1.39043522265,
			"-0.016": 1.71053130691,
			"-0.015": 2.50552152356,
			"-0.014": 1.98182655037,
			"-0.013": 1.15233711571,
			"-0.012": 2.23694316443,
			"-0.011": 1.83634269506,
			"-0.01": 2.53278323377,
			"-0.009": 2.89253661671,
			"-0.008": 2.35415994513,
			"-0.007": 2.7799516288,
			"-0.006": 3.52626507437,
			"-0.005": 4.41719899629,
			"-0.004": 6.67506017088,
			"-0.003": 8.34641038376,
			"-0.002": 10.4182340839,
			"-0.001": 12.0869312453,
			"0.0": 18.1444557617,
			"0.001": 16.3202267854,
			"0.002": 21.5008886849,
			"0.003": 18.7981071281,
			"0.004": 14.777181275,
			"0.005": 2.33108826935,
			"0.006": 1.92258705818,
			"0.007": 2.6895669749,
			"0.008": 2.40220563699,
			"0.009": 3.43862689984,
			"0.01": 4.8792815968,
			"0.011": 4.62463531021,
			"0.012": 3.3321360558,
			"0.013": 1.51111162227,
			"0.014": 0.0352246837181,
			"0.015": 0.0,
			"0.016": 0.0,
			"0.017": 0.0,
			"0.018": 0.0,
			"0.019": 0.0,
			"0.02": 0.0,
			"0.021": 0.0,
			"0.022": 0.0,
			"0.023": 0.0,
			"0.024": 0.0,
			"0.025": 0.0
		}
	}
}
