{
	 "smiles": "NC1=C(N=CN1CC=C)C1=CC=CC=C1", 
	 "Tm": 346.15, 
	 "num_atms": 28, 
	 "gaussian": { 
		 "optdone": 1, 
		 "sigma_profile": "yes", 
		 "theory": "DFT", 
		 "functional": "B3LYP", 
		 "basiset": "6-31G**", 
		 "properties": { 
			 "R2extent": 5469.4354, 
			 "electric_dipole_moment_norm": 4.40281498703, 
			 "electric_quadrupole_moment_norm": 11.6805604506, 
			 "total_energy": -629.339230587, 
			 "HOMO_LUMO_gap": 0.18056, 
			 "cosmo_polarized_energy": -16.46, 
			 "cosmo_cavitation_energy": 31.88, 
			 "cosmo_dispersion_energy": -22.79, 
			 "cosmo_repulsion_energy": 1.77, 
			 "cosmo_total_nonelectrostatic_energy": 10.87, 
			 "SMD_solvation_energy": 4.73 
		},
		"coords": [
			{
				"x": 0.332665414,
				"y": -0.3496763948,
				"z": -1.7530026493,
				"element": "N" 
			},
			{
				"x": -0.8318920572,
				"y": -0.2947441716,
				"z": -0.9712892528,
				"element": "C" 
			},
			{
				"x": -1.9392025937,
				"y": -1.1237273657,
				"z": -0.8583482073,
				"element": "C" 
			},
			{
				"x": -2.8096587727,
				"y": -0.5971919896,
				"z": 0.086913923,
				"element": "N" 
			},
			{
				"x": -2.2415715311,
				"y": 0.4896955012,
				"z": 0.5363802129,
				"element": "C" 
			},
			{
				"x": -1.0284030878,
				"y": 0.7344355616,
				"z": -0.0708232492,
				"element": "N" 
			},
			{
				"x": -0.0841253074,
				"y": 1.7985361898,
				"z": 0.2639168601,
				"element": "C" 
			},
			{
				"x": 1.0617686736,
				"y": 1.3203742399,
				"z": 1.1206621745,
				"element": "C" 
			},
			{
				"x": 1.3834109572,
				"y": 1.8608564635,
				"z": 2.2945014805,
				"element": "C" 
			},
			{
				"x": -2.2524585473,
				"y": -2.3487811195,
				"z": -1.6004756488,
				"element": "C" 
			},
			{
				"x": -1.249605072,
				"y": -3.1975211335,
				"z": -2.1056452057,
				"element": "C" 
			},
			{
				"x": -1.5783074498,
				"y": -4.3391731688,
				"z": -2.8385652962,
				"element": "C" 
			},
			{
				"x": -2.9143930073,
				"y": -4.6701124292,
				"z": -3.0645358655,
				"element": "C" 
			},
			{
				"x": -3.9203637731,
				"y": -3.8524591822,
				"z": -2.5397174953,
				"element": "C" 
			},
			{
				"x": -3.5961023132,
				"y": -2.7068868767,
				"z": -1.8187382343,
				"element": "C" 
			},
			{
				"x": 0.5191125861,
				"y": 0.5270008867,
				"z": -2.2342128295,
				"element": "H" 
			},
			{
				"x": 0.2568168669,
				"y": -1.083337661,
				"z": -2.4484763928,
				"element": "H" 
			},
			{
				"x": -2.639760067,
				"y": 1.1570936744,
				"z": 1.2890592908,
				"element": "H" 
			},
			{
				"x": -0.6443097765,
				"y": 2.5872735694,
				"z": 0.774237459,
				"element": "H" 
			},
			{
				"x": 0.2942188984,
				"y": 2.2356962996,
				"z": -0.6699208093,
				"element": "H" 
			},
			{
				"x": 1.6344897064,
				"y": 0.4893500382,
				"z": 0.7138201066,
				"element": "H" 
			},
			{
				"x": 2.224729722,
				"y": 1.4977848936,
				"z": 2.8768643717,
				"element": "H" 
			},
			{
				"x": 0.8193396549,
				"y": 2.6887854558,
				"z": 2.7185810521,
				"element": "H" 
			},
			{
				"x": -0.2057262665,
				"y": -3.000898946,
				"z": -1.8750680197,
				"element": "H" 
			},
			{
				"x": -0.7864060395,
				"y": -4.981186263,
				"z": -3.2151471184,
				"element": "H" 
			},
			{
				"x": -3.1705844378,
				"y": -5.5607081158,
				"z": -3.6311270145,
				"element": "H" 
			},
			{
				"x": -4.9646248133,
				"y": -4.1085349512,
				"z": -2.698184316,
				"element": "H" 
			},
			{
				"x": -4.3727575662,
				"y": -2.0692430051,
				"z": -1.4098593267,
				"element": "H" 
			}
		],
		 "valence_orbital": [ 
			{
				"type": "occ",
				"energy": -0.27261,
				"method": "rhf"
			},
			{
				"type": "occ",
				"energy": -0.25801,
				"method": "rhf"
			},
			{
				"type": "occ",
				"energy": -0.23868,
				"method": "rhf"
			},
			{
				"type": "occ",
				"energy": -0.23602,
				"method": "rhf"
			},
			{
				"type": "occ",
				"energy": -0.18322,
				"method": "rhf"
			},
			{
				"type": "unocc",
				"energy": -0.00266,
				"method": "rhf"
			},
			{
				"type": "unocc",
				"energy": 0.00355,
				"method": "rhf"
			},
			{
				"type": "unocc",
				"energy": 0.00894,
				"method": "rhf"
			},
			{
				"type": "unocc",
				"energy": 0.04059,
				"method": "rhf"
			},
			{
				"type": "unocc",
				"energy": 0.05997,
				"method": "rhf"
			}
		],
		"cosmo_sigma_profile": { 
			"-0.025": 0.0,
			"-0.024": 0.0,
			"-0.023": 0.0,
			"-0.022": 0.0,
			"-0.021": 0.0,
			"-0.02": 0.0,
			"-0.019": 0.0,
			"-0.018": 0.0,
			"-0.017": 0.0,
			"-0.016": 0.0,
			"-0.015": 0.0,
			"-0.014": 0.0,
			"-0.013": 1.24648711128,
			"-0.012": 2.41009742075,
			"-0.011": 2.95745142941,
			"-0.01": 2.87326225088,
			"-0.009": 4.13428353598,
			"-0.008": 6.04752386288,
			"-0.007": 7.15861300701,
			"-0.006": 10.1601470058,
			"-0.005": 18.2614219552,
			"-0.004": 17.8101219772,
			"-0.003": 19.3636878721,
			"-0.002": 16.5552631149,
			"-0.001": 15.3542292261,
			"0.0": 13.1911107518,
			"0.001": 13.6485333183,
			"0.002": 15.8032151374,
			"0.003": 15.4722359019,
			"0.004": 15.1156649363,
			"0.005": 17.8623737633,
			"0.006": 15.7414758233,
			"0.007": 6.72295187172,
			"0.008": 2.83857904281,
			"0.009": 2.20352019211,
			"0.01": 2.26794579744,
			"0.011": 2.50861484043,
			"0.012": 1.61372447671,
			"0.013": 1.05334491887,
			"0.014": 1.13501000279,
			"0.015": 1.28444681231,
			"0.016": 0.624857805206,
			"0.017": 0.802745557813,
			"0.018": 0.153199754978,
			"0.019": 0.0,
			"0.02": 0.0,
			"0.021": 0.0,
			"0.022": 0.0,
			"0.023": 0.0,
			"0.024": 0.0,
			"0.025": 0.0
		}
	}
}
