{
	 "smiles": "[O-][N+](=O)C1=CC=C(F)C=C1", 
	 "Tm": 295.15, 
	 "num_atms": 14, 
	 "gaussian": { 
		 "optdone": 1, 
		 "sigma_profile": "yes", 
		 "theory": "DFT", 
		 "functional": "B3LYP", 
		 "basiset": "6-31G**", 
		 "properties": { 
			 "R2extent": 1814.2924, 
			 "electric_dipole_moment_norm": 3.32336095241, 
			 "electric_quadrupole_moment_norm": 10.2696892952, 
			 "total_energy": -535.980361398, 
			 "HOMO_LUMO_gap": 0.18696, 
			 "cosmo_polarized_energy": -7.41, 
			 "cosmo_cavitation_energy": 19.76, 
			 "cosmo_dispersion_energy": -14.56, 
			 "cosmo_repulsion_energy": 1.15, 
			 "cosmo_total_nonelectrostatic_energy": 6.35, 
			 "SMD_solvation_energy": 6.31 
		},
		"coords": [
			{
				"x": 0.0287357131,
				"y": 3.219964546,
				"z": 0.4700012293,
				"element": "O" 
			},
			{
				"x": -0.1867194172,
				"y": 2.0605769367,
				"z": 0.8225865309,
				"element": "N" 
			},
			{
				"x": -1.0088955735,
				"y": 1.7277386126,
				"z": 1.6759128105,
				"element": "O" 
			},
			{
				"x": 0.5942682493,
				"y": 0.9967483012,
				"z": 0.1781810504,
				"element": "C" 
			},
			{
				"x": 0.372531846,
				"y": -0.3276089786,
				"z": 0.5569390478,
				"element": "C" 
			},
			{
				"x": 1.111922194,
				"y": -1.3355159358,
				"z": -0.05301808,
				"element": "C" 
			},
			{
				"x": 2.0496864997,
				"y": -0.9857522443,
				"z": -1.0226251835,
				"element": "C" 
			},
			{
				"x": 2.7634705338,
				"y": -1.9580326274,
				"z": -1.6115633086,
				"element": "F" 
			},
			{
				"x": 2.2740710968,
				"y": 0.3357404906,
				"z": -1.4036476169,
				"element": "C" 
			},
			{
				"x": 1.5341504405,
				"y": 1.3428914902,
				"z": -0.7930826873,
				"element": "C" 
			},
			{
				"x": -0.3680634187,
				"y": -0.5462298246,
				"z": 1.3157697125,
				"element": "H" 
			},
			{
				"x": 0.974593008,
				"y": -2.3785714276,
				"z": 0.2083938333,
				"element": "H" 
			},
			{
				"x": 3.015327674,
				"y": 0.5561616012,
				"z": -2.1633235723,
				"element": "H" 
			},
			{
				"x": 1.6702211541,
				"y": 2.3849890599,
				"z": -1.0531237661,
				"element": "H" 
			}
		],
		 "valence_orbital": [ 
			{
				"type": "occ",
				"energy": -0.3136,
				"method": "rhf"
			},
			{
				"type": "occ",
				"energy": -0.31143,
				"method": "rhf"
			},
			{
				"type": "occ",
				"energy": -0.29456,
				"method": "rhf"
			},
			{
				"type": "occ",
				"energy": -0.29123,
				"method": "rhf"
			},
			{
				"type": "occ",
				"energy": -0.27887,
				"method": "rhf"
			},
			{
				"type": "unocc",
				"energy": -0.09191,
				"method": "rhf"
			},
			{
				"type": "unocc",
				"energy": -0.03993,
				"method": "rhf"
			},
			{
				"type": "unocc",
				"energy": -0.00034,
				"method": "rhf"
			},
			{
				"type": "unocc",
				"energy": 0.06745,
				"method": "rhf"
			},
			{
				"type": "unocc",
				"energy": 0.12165,
				"method": "rhf"
			}
		],
		"cosmo_sigma_profile": { 
			"-0.025": 0.0,
			"-0.024": 0.0,
			"-0.023": 0.0,
			"-0.022": 0.0,
			"-0.021": 0.0,
			"-0.02": 0.0,
			"-0.019": 0.0,
			"-0.018": 0.0,
			"-0.017": 0.0,
			"-0.016": 0.0,
			"-0.015": 0.0,
			"-0.014": 0.0,
			"-0.013": 0.0,
			"-0.012": 0.0,
			"-0.011": 0.0,
			"-0.01": 0.0,
			"-0.009": 1.84112069534,
			"-0.008": 6.28221042273,
			"-0.007": 6.81339033346,
			"-0.006": 8.92653719335,
			"-0.005": 6.84008187908,
			"-0.004": 7.85857010825,
			"-0.003": 7.43450621145,
			"-0.002": 12.7344914182,
			"-0.001": 18.9754737279,
			"0.0": 17.3927189374,
			"0.001": 13.2306194105,
			"0.002": 5.44780141802,
			"0.003": 11.3308443497,
			"0.004": 4.95991606976,
			"0.005": 3.15216604829,
			"0.006": 3.69879539464,
			"0.007": 7.75247419017,
			"0.008": 7.69305476671,
			"0.009": 4.27230223118,
			"0.01": 2.82512660486,
			"0.011": 0.12132269297,
			"0.012": 0.0,
			"0.013": 0.0,
			"0.014": 0.0,
			"0.015": 0.0,
			"0.016": 0.0,
			"0.017": 0.0,
			"0.018": 0.0,
			"0.019": 0.0,
			"0.02": 0.0,
			"0.021": 0.0,
			"0.022": 0.0,
			"0.023": 0.0,
			"0.024": 0.0,
			"0.025": 0.0
		}
	}
}
