{
	 "smiles": "NC(=O)C1=C(OCCO)C=CC=C1", 
	 "Tm": 386.15, 
	 "num_atms": 24, 
	 "gaussian": { 
		 "optdone": 1, 
		 "sigma_profile": "yes", 
		 "theory": "DFT", 
		 "functional": "B3LYP", 
		 "basiset": "6-31G**", 
		 "properties": { 
			 "R2extent": 3448.1051, 
			 "electric_dipole_moment_norm": 4.62818733631, 
			 "electric_quadrupole_moment_norm": 19.5863681281, 
			 "total_energy": -630.011833114, 
			 "HOMO_LUMO_gap": 0.1918, 
			 "cosmo_polarized_energy": -16.42, 
			 "cosmo_cavitation_energy": 27.14, 
			 "cosmo_dispersion_energy": -20.02, 
			 "cosmo_repulsion_energy": 1.6, 
			 "cosmo_total_nonelectrostatic_energy": 8.72, 
			 "SMD_solvation_energy": 5.32 
		},
		"coords": [
			{
				"x": 2.6769228912,
				"y": -3.9068537822,
				"z": -0.5208872746,
				"element": "N" 
			},
			{
				"x": 2.2121515666,
				"y": -2.6283957845,
				"z": -0.6546341416,
				"element": "C" 
			},
			{
				"x": 2.8214661513,
				"y": -1.8028722957,
				"z": -1.3338781382,
				"element": "O" 
			},
			{
				"x": 0.9742975336,
				"y": -2.3184216839,
				"z": 0.1365983517,
				"element": "C" 
			},
			{
				"x": -0.0571782659,
				"y": -1.5314309756,
				"z": -0.4178069051,
				"element": "C" 
			},
			{
				"x": 0.0267843548,
				"y": -1.2200020677,
				"z": -1.7368481727,
				"element": "O" 
			},
			{
				"x": -0.2798586147,
				"y": 0.1162017236,
				"z": -2.1796541837,
				"element": "C" 
			},
			{
				"x": 0.9753321482,
				"y": 0.6909448853,
				"z": -2.8283247738,
				"element": "C" 
			},
			{
				"x": 2.0174259829,
				"y": 0.851848696,
				"z": -1.9006944525,
				"element": "O" 
			},
			{
				"x": -1.1619123517,
				"y": -1.1824009817,
				"z": 0.370015518,
				"element": "C" 
			},
			{
				"x": -1.2401731251,
				"y": -1.6025188219,
				"z": 1.6968526219,
				"element": "C" 
			},
			{
				"x": -0.2299518176,
				"y": -2.3894947186,
				"z": 2.2522340938,
				"element": "C" 
			},
			{
				"x": 0.864454581,
				"y": -2.7473370736,
				"z": 1.4671054997,
				"element": "C" 
			},
			{
				"x": 2.0801180936,
				"y": -4.640160114,
				"z": -0.1730257821,
				"element": "H" 
			},
			{
				"x": 3.4813835278,
				"y": -4.161712685,
				"z": -1.0753906515,
				"element": "H" 
			},
			{
				"x": -1.1124726324,
				"y": 0.0600777845,
				"z": -2.8921789152,
				"element": "H" 
			},
			{
				"x": -0.5732313767,
				"y": 0.738442114,
				"z": -1.3281905384,
				"element": "H" 
			},
			{
				"x": 1.2617308924,
				"y": 0.0449620399,
				"z": -3.6739782057,
				"element": "H" 
			},
			{
				"x": 0.7319149252,
				"y": 1.6802195599,
				"z": -3.238027735,
				"element": "H" 
			},
			{
				"x": 2.33487397,
				"y": -0.0410876687,
				"z": -1.6594227242,
				"element": "H" 
			},
			{
				"x": -1.9665645145,
				"y": -0.6013316168,
				"z": -0.0679551473,
				"element": "H" 
			},
			{
				"x": -2.1026532347,
				"y": -1.3214616043,
				"z": 2.2944938199,
				"element": "H" 
			},
			{
				"x": -0.2897899209,
				"y": -2.7144618281,
				"z": 3.2859750262,
				"element": "H" 
			},
			{
				"x": 1.6712292355,
				"y": -3.3331531009,
				"z": 1.8981228104,
				"element": "H" 
			}
		],
		 "valence_orbital": [ 
			{
				"type": "occ",
				"energy": -0.2787,
				"method": "rhf"
			},
			{
				"type": "occ",
				"energy": -0.267,
				"method": "rhf"
			},
			{
				"type": "occ",
				"energy": -0.25732,
				"method": "rhf"
			},
			{
				"type": "occ",
				"energy": -0.24567,
				"method": "rhf"
			},
			{
				"type": "occ",
				"energy": -0.22528,
				"method": "rhf"
			},
			{
				"type": "unocc",
				"energy": -0.03348,
				"method": "rhf"
			},
			{
				"type": "unocc",
				"energy": -0.00582,
				"method": "rhf"
			},
			{
				"type": "unocc",
				"energy": 0.03888,
				"method": "rhf"
			},
			{
				"type": "unocc",
				"energy": 0.07713,
				"method": "rhf"
			},
			{
				"type": "unocc",
				"energy": 0.09172,
				"method": "rhf"
			}
		],
		"cosmo_sigma_profile": { 
			"-0.025": 0.0,
			"-0.024": 0.0,
			"-0.023": 0.0,
			"-0.022": 0.0,
			"-0.021": 0.0,
			"-0.02": 0.0,
			"-0.019": 0.0,
			"-0.018": 0.0,
			"-0.017": 0.0,
			"-0.016": 0.0,
			"-0.015": 0.293448129681,
			"-0.014": 2.14683290867,
			"-0.013": 2.38578984491,
			"-0.012": 1.8727355355,
			"-0.011": 2.48639271006,
			"-0.01": 1.95619433064,
			"-0.009": 2.80929179117,
			"-0.008": 1.74863771466,
			"-0.007": 3.23075625754,
			"-0.006": 11.484452461,
			"-0.005": 18.4537941646,
			"-0.004": 21.3809337015,
			"-0.003": 15.4406506975,
			"-0.002": 11.2987913179,
			"-0.001": 11.407445687,
			"0.0": 9.5789160145,
			"0.001": 10.9385273207,
			"0.002": 13.4108253755,
			"0.003": 16.320294425,
			"0.004": 13.3803757358,
			"0.005": 9.30731208803,
			"0.006": 4.58624757258,
			"0.007": 3.81842599232,
			"0.008": 3.57108217727,
			"0.009": 3.67270487734,
			"0.01": 4.45221329713,
			"0.011": 3.28114181352,
			"0.012": 2.96247820101,
			"0.013": 2.4250579409,
			"0.014": 1.57779460434,
			"0.015": 2.62504750127,
			"0.016": 0.514655151512,
			"0.017": 0.0,
			"0.018": 0.0,
			"0.019": 0.0,
			"0.02": 0.0,
			"0.021": 0.0,
			"0.022": 0.0,
			"0.023": 0.0,
			"0.024": 0.0,
			"0.025": 0.0
		}
	}
}
