{
	 "smiles": "CS(=O)(=O)C1=CC(Br)=C(N)C=C1", 
	 "Tm": 481.15, 
	 "num_atms": 20, 
	 "gaussian": { 
		 "optdone": 1, 
		 "sigma_profile": "yes", 
		 "theory": "DFT", 
		 "functional": "B3LYP", 
		 "basiset": "6-31G**", 
		 "properties": { 
			 "R2extent": 4109.6543, 
			 "electric_dipole_moment_norm": 6.69084674686, 
			 "electric_quadrupole_moment_norm": 9.6794245206, 
			 "total_energy": -3446.29933392, 
			 "HOMO_LUMO_gap": 0.19939, 
			 "cosmo_polarized_energy": -18.62, 
			 "cosmo_cavitation_energy": 27.59, 
			 "cosmo_dispersion_energy": -21.1, 
			 "cosmo_repulsion_energy": 1.64, 
			 "cosmo_total_nonelectrostatic_energy": 8.13, 
			 "SMD_solvation_energy": 3.36 
		},
		"coords": [
			{
				"x": -0.8252376481,
				"y": 1.7875633615,
				"z": 2.8601458582,
				"element": "C" 
			},
			{
				"x": -1.5395936529,
				"y": 1.4464510149,
				"z": 1.2322899576,
				"element": "S" 
			},
			{
				"x": -1.5694301082,
				"y": 2.7201886108,
				"z": 0.4956683949,
				"element": "O" 
			},
			{
				"x": -2.7643224807,
				"y": 0.6608266122,
				"z": 1.4519768982,
				"element": "O" 
			},
			{
				"x": -0.3354177288,
				"y": 0.3844219841,
				"z": 0.4422244573,
				"element": "C" 
			},
			{
				"x": -0.4443108457,
				"y": -1.000117547,
				"z": 0.5843385595,
				"element": "C" 
			},
			{
				"x": 0.4952310995,
				"y": -1.8195315665,
				"z": -0.0233214561,
				"element": "C" 
			},
			{
				"x": 0.3427332462,
				"y": -3.7178389257,
				"z": 0.1843095661,
				"element": "Br" 
			},
			{
				"x": 1.5570667531,
				"y": -1.2936876741,
				"z": -0.7946777671,
				"element": "C" 
			},
			{
				"x": 2.4600990638,
				"y": -2.1028823215,
				"z": -1.434410412,
				"element": "N" 
			},
			{
				"x": 1.6285249019,
				"y": 0.1113682653,
				"z": -0.9231537825,
				"element": "C" 
			},
			{
				"x": 0.6973757218,
				"y": 0.9411696554,
				"z": -0.3184215546,
				"element": "C" 
			},
			{
				"x": -1.5341568461,
				"y": 2.4392931874,
				"z": 3.3751131334,
				"element": "H" 
			},
			{
				"x": 0.1328552525,
				"y": 2.2934977744,
				"z": 2.7336739355,
				"element": "H" 
			},
			{
				"x": -0.7071238203,
				"y": 0.8497049159,
				"z": 3.4045452503,
				"element": "H" 
			},
			{
				"x": -1.2649105637,
				"y": -1.4269130564,
				"z": 1.1493210683,
				"element": "H" 
			},
			{
				"x": 2.5047668223,
				"y": -3.0718293039,
				"z": -1.1567461155,
				"element": "H" 
			},
			{
				"x": 3.3218906893,
				"y": -1.6909191733,
				"z": -1.754715522,
				"element": "H" 
			},
			{
				"x": 2.4254572174,
				"y": 0.53890348,
				"z": -1.5255404656,
				"element": "H" 
			},
			{
				"x": 0.7503029266,
				"y": 2.0169307067,
				"z": -0.4474200039,
				"element": "H" 
			}
		],
		 "valence_orbital": [ 
			{
				"type": "occ",
				"energy": -0.3056,
				"method": "rhf"
			},
			{
				"type": "occ",
				"energy": -0.29117,
				"method": "rhf"
			},
			{
				"type": "occ",
				"energy": -0.28292,
				"method": "rhf"
			},
			{
				"type": "occ",
				"energy": -0.26411,
				"method": "rhf"
			},
			{
				"type": "occ",
				"energy": -0.2295,
				"method": "rhf"
			},
			{
				"type": "unocc",
				"energy": -0.03011,
				"method": "rhf"
			},
			{
				"type": "unocc",
				"energy": -0.02743,
				"method": "rhf"
			},
			{
				"type": "unocc",
				"energy": -0.0076,
				"method": "rhf"
			},
			{
				"type": "unocc",
				"energy": 0.06462,
				"method": "rhf"
			},
			{
				"type": "unocc",
				"energy": 0.07834,
				"method": "rhf"
			}
		],
		"cosmo_sigma_profile": { 
			"-0.025": 0.0,
			"-0.024": 0.0,
			"-0.023": 0.0,
			"-0.022": 0.0,
			"-0.021": 0.0,
			"-0.02": 0.0,
			"-0.019": 0.0,
			"-0.018": 0.0,
			"-0.017": 0.0,
			"-0.016": 0.0,
			"-0.015": 0.0901811481055,
			"-0.014": 1.43575091568,
			"-0.013": 1.57062591221,
			"-0.012": 2.13375216482,
			"-0.011": 2.67325474185,
			"-0.01": 2.61817991722,
			"-0.009": 3.37404917906,
			"-0.008": 8.66348588282,
			"-0.007": 11.8865265438,
			"-0.006": 11.9653536671,
			"-0.005": 12.4547645962,
			"-0.004": 14.4535351477,
			"-0.003": 11.0551748183,
			"-0.002": 9.51717429813,
			"-0.001": 9.18777626255,
			"0.0": 12.0428674499,
			"0.001": 16.7119811621,
			"0.002": 21.5654684973,
			"0.003": 16.4022325624,
			"0.004": 11.6032333576,
			"0.005": 4.553215503,
			"0.006": 2.36627034312,
			"0.007": 3.14889299269,
			"0.008": 3.3567882347,
			"0.009": 4.34836968809,
			"0.01": 4.21373382737,
			"0.011": 8.13472258935,
			"0.012": 9.58281236898,
			"0.013": 2.19763920201,
			"0.014": 0.0,
			"0.015": 0.0,
			"0.016": 0.0,
			"0.017": 0.0,
			"0.018": 0.0,
			"0.019": 0.0,
			"0.02": 0.0,
			"0.021": 0.0,
			"0.022": 0.0,
			"0.023": 0.0,
			"0.024": 0.0,
			"0.025": 0.0
		}
	}
}
