{
	 "smiles": "CC=NO", 
	 "Tm": 318.15, 
	 "num_atms": 9, 
	 "gaussian": { 
		 "optdone": 1, 
		 "sigma_profile": "yes", 
		 "theory": "DFT", 
		 "functional": "B3LYP", 
		 "basiset": "6-31G**", 
		 "properties": { 
			 "R2extent": 575.2168, 
			 "electric_dipole_moment_norm": 0.599827800289, 
			 "electric_quadrupole_moment_norm": 6.66833247971, 
			 "total_energy": -209.137632678, 
			 "HOMO_LUMO_gap": 0.25806, 
			 "cosmo_polarized_energy": -6.46, 
			 "cosmo_cavitation_energy": 12.86, 
			 "cosmo_dispersion_energy": -9.6, 
			 "cosmo_repulsion_energy": 0.91, 
			 "cosmo_total_nonelectrostatic_energy": 4.17, 
			 "SMD_solvation_energy": 3.15 
		},
		"coords": [
			{
				"x": -1.127763641,
				"y": 2.6727825046,
				"z": -1.398532644,
				"element": "C" 
			},
			{
				"x": -0.4258771712,
				"y": 1.5087643978,
				"z": -0.7729621478,
				"element": "C" 
			},
			{
				"x": -0.6512004073,
				"y": 0.3260347463,
				"z": -1.1958429827,
				"element": "N" 
			},
			{
				"x": 0.1051918641,
				"y": -0.6190661362,
				"z": -0.4775624472,
				"element": "O" 
			},
			{
				"x": -0.4055490381,
				"y": 3.3840446355,
				"z": -1.8171416952,
				"element": "H" 
			},
			{
				"x": -1.7188065721,
				"y": 3.2179496165,
				"z": -0.6527563847,
				"element": "H" 
			},
			{
				"x": -1.7918729509,
				"y": 2.3326571377,
				"z": -2.1960556664,
				"element": "H" 
			},
			{
				"x": 0.2786616631,
				"y": 1.679923976,
				"z": 0.0460842862,
				"element": "H" 
			},
			{
				"x": -0.1579837466,
				"y": -1.4506908781,
				"z": -0.8931303182,
				"element": "H" 
			}
		],
		 "valence_orbital": [ 
			{
				"type": "occ",
				"energy": -0.40186,
				"method": "rhf"
			},
			{
				"type": "occ",
				"energy": -0.38352,
				"method": "rhf"
			},
			{
				"type": "occ",
				"energy": -0.38266,
				"method": "rhf"
			},
			{
				"type": "occ",
				"energy": -0.2729,
				"method": "rhf"
			},
			{
				"type": "occ",
				"energy": -0.24828,
				"method": "rhf"
			},
			{
				"type": "unocc",
				"energy": 0.00978,
				"method": "rhf"
			},
			{
				"type": "unocc",
				"energy": 0.08087,
				"method": "rhf"
			},
			{
				"type": "unocc",
				"energy": 0.11395,
				"method": "rhf"
			},
			{
				"type": "unocc",
				"energy": 0.13668,
				"method": "rhf"
			},
			{
				"type": "unocc",
				"energy": 0.16544,
				"method": "rhf"
			}
		],
		"cosmo_sigma_profile": { 
			"-0.025": 0.0,
			"-0.024": 0.0,
			"-0.023": 0.0,
			"-0.022": 0.0,
			"-0.021": 0.0,
			"-0.02": 0.0,
			"-0.019": 0.0,
			"-0.018": 0.0,
			"-0.017": 0.531432037474,
			"-0.016": 1.20791336494,
			"-0.015": 0.628072689475,
			"-0.014": 0.994677365099,
			"-0.013": 0.854594667139,
			"-0.012": 0.643323300207,
			"-0.011": 0.287419323163,
			"-0.01": 0.669266056887,
			"-0.009": 0.913884200008,
			"-0.008": 0.523920862555,
			"-0.007": 1.55018079391,
			"-0.006": 3.19132888134,
			"-0.005": 6.76738782576,
			"-0.004": 9.03275686534,
			"-0.003": 9.66086989363,
			"-0.002": 9.29029219073,
			"-0.001": 8.74938711018,
			"0.0": 6.40625820948,
			"0.001": 3.70790298642,
			"0.002": 3.14001358738,
			"0.003": 3.10680213416,
			"0.004": 3.54756932778,
			"0.005": 3.39113450363,
			"0.006": 4.2941047063,
			"0.007": 2.90998279368,
			"0.008": 3.05791332125,
			"0.009": 3.39212232742,
			"0.01": 2.27897936815,
			"0.011": 3.56244295774,
			"0.012": 1.3838278731,
			"0.013": 1.03529415479,
			"0.014": 0.298495265893,
			"0.015": 0.0,
			"0.016": 0.0,
			"0.017": 0.0,
			"0.018": 0.0,
			"0.019": 0.0,
			"0.02": 0.0,
			"0.021": 0.0,
			"0.022": 0.0,
			"0.023": 0.0,
			"0.024": 0.0,
			"0.025": 0.0
		}
	}
}
