{
	 "smiles": "COC(=O)C1=CC2=C(N1)C=CC=C2", 
	 "Tm": 425.15, 
	 "num_atms": 22, 
	 "gaussian": { 
		 "optdone": 1, 
		 "sigma_profile": "yes", 
		 "theory": "DFT", 
		 "functional": "B3LYP", 
		 "basiset": "6-31G**", 
		 "properties": { 
			 "R2extent": 3554.9364, 
			 "electric_dipole_moment_norm": 0.544622603277, 
			 "electric_quadrupole_moment_norm": 10.0479749403, 
			 "total_energy": -591.706341082, 
			 "HOMO_LUMO_gap": 0.16619, 
			 "cosmo_polarized_energy": -9.23, 
			 "cosmo_cavitation_energy": 26.64, 
			 "cosmo_dispersion_energy": -19.83, 
			 "cosmo_repulsion_energy": 1.56, 
			 "cosmo_total_nonelectrostatic_energy": 8.37, 
			 "SMD_solvation_energy": 5.77 
		},
		"coords": [
			{
				"x": -0.3944537358,
				"y": 4.6392639708,
				"z": -3.0926751286,
				"element": "C" 
			},
			{
				"x": -0.7133779702,
				"y": 3.5111051547,
				"z": -2.2633865052,
				"element": "O" 
			},
			{
				"x": 0.2597598714,
				"y": 3.1371430056,
				"z": -1.4073061484,
				"element": "C" 
			},
			{
				"x": 1.3429702582,
				"y": 3.6926320198,
				"z": -1.31737458,
				"element": "O" 
			},
			{
				"x": -0.1229080297,
				"y": 1.9840192399,
				"z": -0.5912799151,
				"element": "C" 
			},
			{
				"x": -1.2699761935,
				"y": 1.2202815297,
				"z": -0.5318297883,
				"element": "C" 
			},
			{
				"x": -1.0536938246,
				"y": 0.2228674985,
				"z": 0.4683621378,
				"element": "C" 
			},
			{
				"x": 0.2599827245,
				"y": 0.4329076199,
				"z": 0.9891613948,
				"element": "C" 
			},
			{
				"x": 0.7964698353,
				"y": 1.5068257053,
				"z": 0.3263109809,
				"element": "N" 
			},
			{
				"x": 0.7993589982,
				"y": -0.3780640802,
				"z": 1.9979054223,
				"element": "C" 
			},
			{
				"x": 0.00527462,
				"y": -1.407190159,
				"z": 2.4823270382,
				"element": "C" 
			},
			{
				"x": -1.298042558,
				"y": -1.6338421869,
				"z": 1.9818217895,
				"element": "C" 
			},
			{
				"x": -1.8314587986,
				"y": -0.8328685137,
				"z": 0.9852033185,
				"element": "C" 
			},
			{
				"x": 0.4791763629,
				"y": 4.4266512699,
				"z": -3.7141687011,
				"element": "H" 
			},
			{
				"x": -0.1853130985,
				"y": 5.5208019876,
				"z": -2.4812478903,
				"element": "H" 
			},
			{
				"x": -1.2747302438,
				"y": 4.8042709249,
				"z": -3.7135368424,
				"element": "H" 
			},
			{
				"x": -2.152221403,
				"y": 1.3674205544,
				"z": -1.1370316434,
				"element": "H" 
			},
			{
				"x": 1.7071304879,
				"y": 1.9236951138,
				"z": 0.4468834665,
				"element": "H" 
			},
			{
				"x": 1.7996601333,
				"y": -0.2070750472,
				"z": 2.3846867104,
				"element": "H" 
			},
			{
				"x": 0.392442938,
				"y": -2.0543143209,
				"z": 3.2639493765,
				"element": "H" 
			},
			{
				"x": -1.8857287661,
				"y": -2.4509178369,
				"z": 2.3894731622,
				"element": "H" 
			},
			{
				"x": -2.8332216075,
				"y": -1.0123134501,
				"z": 0.6051523451,
				"element": "H" 
			}
		],
		 "valence_orbital": [ 
			{
				"type": "occ",
				"energy": -0.30349,
				"method": "rhf"
			},
			{
				"type": "occ",
				"energy": -0.2832,
				"method": "rhf"
			},
			{
				"type": "occ",
				"energy": -0.2798,
				"method": "rhf"
			},
			{
				"type": "occ",
				"energy": -0.22632,
				"method": "rhf"
			},
			{
				"type": "occ",
				"energy": -0.21211,
				"method": "rhf"
			},
			{
				"type": "unocc",
				"energy": -0.04592,
				"method": "rhf"
			},
			{
				"type": "unocc",
				"energy": 0.01734,
				"method": "rhf"
			},
			{
				"type": "unocc",
				"energy": 0.03004,
				"method": "rhf"
			},
			{
				"type": "unocc",
				"energy": 0.09668,
				"method": "rhf"
			},
			{
				"type": "unocc",
				"energy": 0.10259,
				"method": "rhf"
			}
		],
		"cosmo_sigma_profile": { 
			"-0.025": 0.0,
			"-0.024": 0.0,
			"-0.023": 0.0,
			"-0.022": 0.0,
			"-0.021": 0.0,
			"-0.02": 0.0,
			"-0.019": 0.0,
			"-0.018": 0.0,
			"-0.017": 0.0,
			"-0.016": 0.0718564246504,
			"-0.015": 0.633890926542,
			"-0.014": 0.742812554256,
			"-0.013": 1.05459337841,
			"-0.012": 0.952348792829,
			"-0.011": 0.942341518381,
			"-0.01": 0.861916534868,
			"-0.009": 1.00813222257,
			"-0.008": 1.11277215052,
			"-0.007": 3.44607890685,
			"-0.006": 11.4629050829,
			"-0.005": 16.6003423736,
			"-0.004": 18.6012604378,
			"-0.003": 19.6017422184,
			"-0.002": 13.8425645826,
			"-0.001": 12.4626042499,
			"0.0": 12.6254142743,
			"0.001": 11.1263287248,
			"0.002": 13.5535442944,
			"0.003": 16.1864496386,
			"0.004": 16.9389235759,
			"0.005": 13.9580251045,
			"0.006": 10.2861736795,
			"0.007": 3.66253194344,
			"0.008": 1.71448642985,
			"0.009": 1.23366839605,
			"0.01": 1.42982408369,
			"0.011": 3.3689941682,
			"0.012": 3.43707139442,
			"0.013": 0.263497206195,
			"0.014": 0.0,
			"0.015": 0.0,
			"0.016": 0.0,
			"0.017": 0.0,
			"0.018": 0.0,
			"0.019": 0.0,
			"0.02": 0.0,
			"0.021": 0.0,
			"0.022": 0.0,
			"0.023": 0.0,
			"0.024": 0.0,
			"0.025": 0.0
		}
	}
}
