{
	 "smiles": "CC(OC1=C(Br)C=CC=C1)C(O)=O", 
	 "Tm": 412.15, 
	 "num_atms": 22, 
	 "gaussian": { 
		 "optdone": 1, 
		 "sigma_profile": "yes", 
		 "theory": "DFT", 
		 "functional": "B3LYP", 
		 "basiset": "6-31G**", 
		 "properties": { 
			 "R2extent": 3895.3579, 
			 "electric_dipole_moment_norm": 1.08278360257, 
			 "electric_quadrupole_moment_norm": 12.0819972269, 
			 "total_energy": -3145.45988824, 
			 "HOMO_LUMO_gap": 0.20793, 
			 "cosmo_polarized_energy": -12.05, 
			 "cosmo_cavitation_energy": 28.77, 
			 "cosmo_dispersion_energy": -20.57, 
			 "cosmo_repulsion_energy": 1.66, 
			 "cosmo_total_nonelectrostatic_energy": 9.87, 
			 "SMD_solvation_energy": 5.25 
		},
		"coords": [
			{
				"x": -1.3526594596,
				"y": -2.0161405372,
				"z": 0.6275113437,
				"element": "C" 
			},
			{
				"x": -1.5257813626,
				"y": -0.5590405051,
				"z": 0.1986171697,
				"element": "C" 
			},
			{
				"x": -0.3388593541,
				"y": -0.1977345328,
				"z": -0.4946520235,
				"element": "O" 
			},
			{
				"x": -0.301359625,
				"y": 0.9705504193,
				"z": -1.1969863662,
				"element": "C" 
			},
			{
				"x": 0.8771313279,
				"y": 1.2401570405,
				"z": -1.9162375399,
				"element": "C" 
			},
			{
				"x": 2.3213292998,
				"y": -0.0039023794,
				"z": -1.8685881895,
				"element": "Br" 
			},
			{
				"x": 1.0047069309,
				"y": 2.403375703,
				"z": -2.6670898558,
				"element": "C" 
			},
			{
				"x": -0.0443195775,
				"y": 3.3242565391,
				"z": -2.7172714424,
				"element": "C" 
			},
			{
				"x": -1.214922309,
				"y": 3.0674324061,
				"z": -2.0087832194,
				"element": "C" 
			},
			{
				"x": -1.3477666991,
				"y": 1.9005480299,
				"z": -1.2523884854,
				"element": "C" 
			},
			{
				"x": -1.796688459,
				"y": 0.3164370677,
				"z": 1.426042624,
				"element": "C" 
			},
			{
				"x": -0.6682460269,
				"y": 0.6951246634,
				"z": 2.0539146622,
				"element": "O" 
			},
			{
				"x": -2.9102793239,
				"y": 0.5938182727,
				"z": 1.8143897104,
				"element": "O" 
			},
			{
				"x": -0.4788527042,
				"y": -2.1158035531,
				"z": 1.2760132782,
				"element": "H" 
			},
			{
				"x": -1.2065331801,
				"y": -2.6405922808,
				"z": -0.256846444,
				"element": "H" 
			},
			{
				"x": -2.2413644871,
				"y": -2.3586450679,
				"z": 1.1639670953,
				"element": "H" 
			},
			{
				"x": -2.4018884809,
				"y": -0.4602303898,
				"z": -0.4525480279,
				"element": "H" 
			},
			{
				"x": 1.9259027533,
				"y": 2.5815837369,
				"z": -3.2104307529,
				"element": "H" 
			},
			{
				"x": 0.060649202,
				"y": 4.2305321239,
				"z": -3.3048759025,
				"element": "H" 
			},
			{
				"x": -2.0383619101,
				"y": 3.774602097,
				"z": -2.0358716199,
				"element": "H" 
			},
			{
				"x": -2.2665550338,
				"y": 1.7283356557,
				"z": -0.7040689976,
				"element": "H" 
			},
			{
				"x": -0.945781521,
				"y": 1.219535491,
				"z": 2.8243829834,
				"element": "H" 
			}
		],
		 "valence_orbital": [ 
			{
				"type": "occ",
				"energy": -0.30936,
				"method": "rhf"
			},
			{
				"type": "occ",
				"energy": -0.28616,
				"method": "rhf"
			},
			{
				"type": "occ",
				"energy": -0.27745,
				"method": "rhf"
			},
			{
				"type": "occ",
				"energy": -0.24944,
				"method": "rhf"
			},
			{
				"type": "occ",
				"energy": -0.22678,
				"method": "rhf"
			},
			{
				"type": "unocc",
				"energy": -0.01885,
				"method": "rhf"
			},
			{
				"type": "unocc",
				"energy": -0.00381,
				"method": "rhf"
			},
			{
				"type": "unocc",
				"energy": -3e-05,
				"method": "rhf"
			},
			{
				"type": "unocc",
				"energy": 0.01163,
				"method": "rhf"
			},
			{
				"type": "unocc",
				"energy": 0.06394,
				"method": "rhf"
			}
		],
		"cosmo_sigma_profile": { 
			"-0.025": 0.0,
			"-0.024": 0.0,
			"-0.023": 0.0,
			"-0.022": 0.0,
			"-0.021": 0.0,
			"-0.02": 0.0,
			"-0.019": 0.385568687588,
			"-0.018": 1.15464688291,
			"-0.017": 0.66236711572,
			"-0.016": 1.00188798718,
			"-0.015": 0.789354780266,
			"-0.014": 1.08262657131,
			"-0.013": 0.688060067021,
			"-0.012": 0.181020878998,
			"-0.011": 0.743835051282,
			"-0.01": 0.880330414843,
			"-0.009": 0.384974362599,
			"-0.008": 1.51805905758,
			"-0.007": 6.8990730781,
			"-0.006": 12.5882881052,
			"-0.005": 15.4956405128,
			"-0.004": 18.765165179,
			"-0.003": 16.110207748,
			"-0.002": 15.4940405347,
			"-0.001": 15.2674502912,
			"0.0": 11.9884826876,
			"0.001": 12.6666953222,
			"0.002": 16.2620494853,
			"0.003": 19.6262034938,
			"0.004": 20.8873711661,
			"0.005": 11.9388550553,
			"0.006": 4.53084892245,
			"0.007": 5.21841356771,
			"0.008": 3.70893232318,
			"0.009": 4.61626241353,
			"0.01": 3.64752259218,
			"0.011": 4.87269195808,
			"0.012": 1.97808089951,
			"0.013": 0.0532441145122,
			"0.014": 0.0,
			"0.015": 0.0,
			"0.016": 0.0,
			"0.017": 0.0,
			"0.018": 0.0,
			"0.019": 0.0,
			"0.02": 0.0,
			"0.021": 0.0,
			"0.022": 0.0,
			"0.023": 0.0,
			"0.024": 0.0,
			"0.025": 0.0
		}
	}
}
