{
	 "smiles": "CCOC(=O)C1=C(C)NC(C(O)=O)=C1C", 
	 "Tm": 478.15, 
	 "num_atms": 28, 
	 "gaussian": { 
		 "optdone": 1, 
		 "sigma_profile": "yes", 
		 "theory": "DFT", 
		 "functional": "B3LYP", 
		 "basiset": "6-31G**", 
		 "properties": { 
			 "R2extent": 4929.3081, 
			 "electric_dipole_moment_norm": 6.72806516838, 
			 "electric_quadrupole_moment_norm": 22.9795504214, 
			 "total_energy": -744.581918479, 
			 "HOMO_LUMO_gap": 0.19939, 
			 "cosmo_polarized_energy": -22.46, 
			 "cosmo_cavitation_energy": 32.06, 
			 "cosmo_dispersion_energy": -22.71, 
			 "cosmo_repulsion_energy": 1.8, 
			 "cosmo_total_nonelectrostatic_energy": 11.15, 
			 "SMD_solvation_energy": 7.58 
		},
		"coords": [
			{
				"x": -1.5728218443,
				"y": -2.0675253808,
				"z": 2.5469373094,
				"element": "C" 
			},
			{
				"x": -1.7622245823,
				"y": -2.3154687454,
				"z": 1.0576662041,
				"element": "C" 
			},
			{
				"x": -1.8474702619,
				"y": -1.0739142714,
				"z": 0.3199520578,
				"element": "O" 
			},
			{
				"x": -0.6631381431,
				"y": -0.5086316782,
				"z": -0.0456467071,
				"element": "C" 
			},
			{
				"x": 0.4177250658,
				"y": -1.0036367302,
				"z": 0.2197652709,
				"element": "O" 
			},
			{
				"x": -0.8521793997,
				"y": 0.7425108408,
				"z": -0.7883986365,
				"element": "C" 
			},
			{
				"x": -2.0670231514,
				"y": 1.3486824092,
				"z": -1.1293855698,
				"element": "C" 
			},
			{
				"x": -3.4897431357,
				"y": 0.9367640806,
				"z": -0.9223371166,
				"element": "C" 
			},
			{
				"x": -1.7622985534,
				"y": 2.5077601386,
				"z": -1.7727080402,
				"element": "N" 
			},
			{
				"x": -0.3776653448,
				"y": 2.6489710827,
				"z": -1.905729264,
				"element": "C" 
			},
			{
				"x": 0.2218057576,
				"y": 3.8174533066,
				"z": -2.5572951409,
				"element": "C" 
			},
			{
				"x": -0.5956325104,
				"y": 4.9234970759,
				"z": -2.6393913727,
				"element": "O" 
			},
			{
				"x": 1.3349390344,
				"y": 3.8608240082,
				"z": -3.0281123552,
				"element": "O" 
			},
			{
				"x": 0.2167184008,
				"y": 1.5571720469,
				"z": -1.2915083639,
				"element": "C" 
			},
			{
				"x": 1.686314183,
				"y": 1.305792431,
				"z": -1.1522942997,
				"element": "C" 
			},
			{
				"x": -0.6124598779,
				"y": -1.5816213075,
				"z": 2.7343194007,
				"element": "H" 
			},
			{
				"x": -1.5875584686,
				"y": -3.0198643746,
				"z": 3.0875736697,
				"element": "H" 
			},
			{
				"x": -2.3739110567,
				"y": -1.4360793262,
				"z": 2.9431332466,
				"element": "H" 
			},
			{
				"x": -2.7109194923,
				"y": -2.8184929645,
				"z": 0.8535546687,
				"element": "H" 
			},
			{
				"x": -0.9411873185,
				"y": -2.9109756764,
				"z": 0.6520038795,
				"element": "H" 
			},
			{
				"x": -4.1742584708,
				"y": 1.6743789931,
				"z": -1.3530213203,
				"element": "H" 
			},
			{
				"x": -3.6897003634,
				"y": -0.0349459597,
				"z": -1.3818119964,
				"element": "H" 
			},
			{
				"x": -3.7168274643,
				"y": 0.832764124,
				"z": 0.1420468052,
				"element": "H" 
			},
			{
				"x": -2.437691325,
				"y": 3.0453011739,
				"z": -2.2970289721,
				"element": "H" 
			},
			{
				"x": -1.2611843766,
				"y": 4.8887547351,
				"z": -1.9375616287,
				"element": "H" 
			},
			{
				"x": 1.9685344992,
				"y": 1.2196725847,
				"z": -0.0988102929,
				"element": "H" 
			},
			{
				"x": 2.2564699604,
				"y": 2.1033619502,
				"z": -1.6283773957,
				"element": "H" 
			},
			{
				"x": 1.9546882399,
				"y": 0.3510954335,
				"z": -1.6144340401,
				"element": "H" 
			}
		],
		 "valence_orbital": [ 
			{
				"type": "occ",
				"energy": -0.29664,
				"method": "rhf"
			},
			{
				"type": "occ",
				"energy": -0.27431,
				"method": "rhf"
			},
			{
				"type": "occ",
				"energy": -0.26845,
				"method": "rhf"
			},
			{
				"type": "occ",
				"energy": -0.26105,
				"method": "rhf"
			},
			{
				"type": "occ",
				"energy": -0.23133,
				"method": "rhf"
			},
			{
				"type": "unocc",
				"energy": -0.03194,
				"method": "rhf"
			},
			{
				"type": "unocc",
				"energy": -0.02192,
				"method": "rhf"
			},
			{
				"type": "unocc",
				"energy": 0.03902,
				"method": "rhf"
			},
			{
				"type": "unocc",
				"energy": 0.08415,
				"method": "rhf"
			},
			{
				"type": "unocc",
				"energy": 0.08582,
				"method": "rhf"
			}
		],
		"cosmo_sigma_profile": { 
			"-0.025": 0.0,
			"-0.024": 0.0,
			"-0.023": 0.0,
			"-0.022": 0.0,
			"-0.021": 0.0,
			"-0.02": 0.00302943468863,
			"-0.019": 0.820977996096,
			"-0.018": 1.51636856371,
			"-0.017": 2.01304605795,
			"-0.016": 2.67126625109,
			"-0.015": 1.77447767577,
			"-0.014": 1.1655355924,
			"-0.013": 2.12373978779,
			"-0.012": 2.109796849,
			"-0.011": 1.53902565854,
			"-0.01": 1.82151377164,
			"-0.009": 1.71265434296,
			"-0.008": 2.29654196895,
			"-0.007": 1.24382720115,
			"-0.006": 3.73988641406,
			"-0.005": 8.84606172355,
			"-0.004": 16.4203997177,
			"-0.003": 21.1608037513,
			"-0.002": 23.9219388936,
			"-0.001": 25.8002797023,
			"0.0": 27.2363676328,
			"0.001": 20.5166881761,
			"0.002": 13.7285717253,
			"0.003": 12.8166855221,
			"0.004": 8.52546701965,
			"0.005": 4.02681640263,
			"0.006": 5.46514291897,
			"0.007": 4.11884880802,
			"0.008": 4.12555904596,
			"0.009": 4.47384282305,
			"0.01": 6.03813158775,
			"0.011": 6.98970633913,
			"0.012": 8.21480504755,
			"0.013": 3.70595458446,
			"0.014": 0.262749647393,
			"0.015": 0.0,
			"0.016": 0.0,
			"0.017": 0.0,
			"0.018": 0.0,
			"0.019": 0.0,
			"0.02": 0.0,
			"0.021": 0.0,
			"0.022": 0.0,
			"0.023": 0.0,
			"0.024": 0.0,
			"0.0": 0.0
		}
	}
}
