{
	 "smiles": "COC1=C(OC)C(OC)=C2CCNCCC2=C1", 
	 "Tm": 334.15, 
	 "num_atms": 36, 
	 "gaussian": { 
		 "optdone": 1, 
		 "sigma_profile": "yes", 
		 "theory": "DFT", 
		 "functional": "B3LYP", 
		 "basiset": "6-31G**", 
		 "properties": { 
			 "R2extent": 5173.4299, 
			 "electric_dipole_moment_norm": 0.799027677869, 
			 "electric_quadrupole_moment_norm": 9.12079440016, 
			 "total_energy": -787.206728264, 
			 "HOMO_LUMO_gap": 0.20709, 
			 "cosmo_polarized_energy": -9.43, 
			 "cosmo_cavitation_energy": 36.61, 
			 "cosmo_dispersion_energy": -25.6, 
			 "cosmo_repulsion_energy": 2.01, 
			 "cosmo_total_nonelectrostatic_energy": 13.01, 
			 "SMD_solvation_energy": 5.42 
		},
		"coords": [
			{
				"x": -0.7054213103,
				"y": -4.5492699482,
				"z": 1.9845613468,
				"element": "C" 
			},
			{
				"x": -0.48563711,
				"y": -3.3655594559,
				"z": 2.7572736591,
				"element": "O" 
			},
			{
				"x": -0.4868640288,
				"y": -2.1846490244,
				"z": 2.0531439971,
				"element": "C" 
			},
			{
				"x": -1.6456200805,
				"y": -1.6916120108,
				"z": 1.4417851914,
				"element": "C" 
			},
			{
				"x": -2.815027769,
				"y": -2.4248813533,
				"z": 1.4720862271,
				"element": "O" 
			},
			{
				"x": -3.7036904833,
				"y": -2.0434249698,
				"z": 2.5293791799,
				"element": "C" 
			},
			{
				"x": -1.606791837,
				"y": -0.4458758879,
				"z": 0.7906216277,
				"element": "C" 
			},
			{
				"x": -2.7722685253,
				"y": 0.0552931547,
				"z": 0.2446359975,
				"element": "O" 
			},
			{
				"x": -3.2236924731,
				"y": -0.609625144,
				"z": -0.939960055,
				"element": "C" 
			},
			{
				"x": -0.432770647,
				"y": 0.3259469849,
				"z": 0.7489763339,
				"element": "C" 
			},
			{
				"x": -0.4360611766,
				"y": 1.6668869933,
				"z": 0.0448301029,
				"element": "C" 
			},
			{
				"x": 0.5638082742,
				"y": 1.7923293685,
				"z": -1.1308002942,
				"element": "C" 
			},
			{
				"x": 1.9735493701,
				"y": 1.9748588394,
				"z": -0.798182048,
				"element": "N" 
			},
			{
				"x": 2.6038022769,
				"y": 0.9056808113,
				"z": -0.0313021921,
				"element": "C" 
			},
			{
				"x": 2.0243942738,
				"y": 0.6016864223,
				"z": 1.3731360843,
				"element": "C" 
			},
			{
				"x": 0.7244281314,
				"y": -0.1779137183,
				"z": 1.3808783359,
				"element": "C" 
			},
			{
				"x": 0.683454229,
				"y": -1.4252074878,
				"z": 2.0098170495,
				"element": "C" 
			},
			{
				"x": -0.6540382149,
				"y": -5.3842855184,
				"z": 2.6867767033,
				"element": "H" 
			},
			{
				"x": 0.0782107043,
				"y": -4.6700964438,
				"z": 1.2250905532,
				"element": "H" 
			},
			{
				"x": -1.6856016807,
				"y": -4.534142858,
				"z": 1.499881845,
				"element": "H" 
			},
			{
				"x": -4.0122773919,
				"y": -0.9981509369,
				"z": 2.4199266876,
				"element": "H" 
			},
			{
				"x": -3.230087079,
				"y": -2.1903902709,
				"z": 3.5069276265,
				"element": "H" 
			},
			{
				"x": -4.5780251497,
				"y": -2.6931114295,
				"z": 2.4478898315,
				"element": "H" 
			},
			{
				"x": -4.1396163407,
				"y": -0.0995137955,
				"z": -1.2465630371,
				"element": "H" 
			},
			{
				"x": -2.4795856156,
				"y": -0.5273149998,
				"z": -1.7428669643,
				"element": "H" 
			},
			{
				"x": -3.4372005126,
				"y": -1.6643796153,
				"z": -0.7444571975,
				"element": "H" 
			},
			{
				"x": -1.4460561607,
				"y": 1.856997069,
				"z": -0.3269729893,
				"element": "H" 
			},
			{
				"x": -0.2191481106,
				"y": 2.4685274807,
				"z": 0.7672102506,
				"element": "H" 
			},
			{
				"x": 0.4782146466,
				"y": 0.9045748982,
				"z": -1.7714454616,
				"element": "H" 
			},
			{
				"x": 0.2662209847,
				"y": 2.6515014228,
				"z": -1.7446567673,
				"element": "H" 
			},
			{
				"x": 2.0901228314,
				"y": 2.856751096,
				"z": -0.3037517105,
				"element": "H" 
			},
			{
				"x": 2.5754367972,
				"y": -0.0108706986,
				"z": -0.6349578403,
				"element": "H" 
			},
			{
				"x": 3.6615447373,
				"y": 1.1727695212,
				"z": 0.0842107953,
				"element": "H" 
			},
			{
				"x": 1.8966448376,
				"y": 1.5566263694,
				"z": 1.9053076892,
				"element": "H" 
			},
			{
				"x": 2.7728979315,
				"y": 0.0362132628,
				"z": 1.9404764757,
				"element": "H" 
			},
			{
				"x": 1.5654516712,
				"y": -1.8266681271,
				"z": 2.4997929665,
				"element": "H" 
			}
		],
		 "valence_orbital": [ 
			{
				"type": "occ",
				"energy": -0.27487,
				"method": "rhf"
			},
			{
				"type": "occ",
				"energy": -0.25584,
				"method": "rhf"
			},
			{
				"type": "occ",
				"energy": -0.22717,
				"method": "rhf"
			},
			{
				"type": "occ",
				"energy": -0.22366,
				"method": "rhf"
			},
			{
				"type": "occ",
				"energy": -0.20306,
				"method": "rhf"
			},
			{
				"type": "unocc",
				"energy": 0.00403,
				"method": "rhf"
			},
			{
				"type": "unocc",
				"energy": 0.00958,
				"method": "rhf"
			},
			{
				"type": "unocc",
				"energy": 0.07683,
				"method": "rhf"
			},
			{
				"type": "unocc",
				"energy": 0.0883,
				"method": "rhf"
			},
			{
				"type": "unocc",
				"energy": 0.11122,
				"method": "rhf"
			}
		],
		"cosmo_sigma_profile": { 
			"-0.025": 0.0,
			"-0.024": 0.0,
			"-0.023": 0.0,
			"-0.022": 0.0,
			"-0.021": 0.0,
			"-0.02": 0.0,
			"-0.019": 0.0,
			"-0.018": 0.0,
			"-0.017": 0.0,
			"-0.016": 0.0,
			"-0.015": 0.0,
			"-0.014": 0.0,
			"-0.013": 0.0,
			"-0.012": 0.0,
			"-0.011": 0.0,
			"-0.01": 0.152945904457,
			"-0.009": 1.12936473261,
			"-0.008": 1.74035629926,
			"-0.007": 1.26629362677,
			"-0.006": 3.45316039523,
			"-0.005": 12.9705748141,
			"-0.004": 24.3013924077,
			"-0.003": 40.1166991348,
			"-0.002": 45.5994821495,
			"-0.001": 30.7780601004,
			"0.0": 24.9258358583,
			"0.001": 18.1654471189,
			"0.002": 13.4355655027,
			"0.003": 15.1279572629,
			"0.004": 14.26173586,
			"0.005": 10.9332211333,
			"0.006": 5.60445486073,
			"0.007": 3.90902801348,
			"0.008": 3.81190534978,
			"0.009": 3.09830492801,
			"0.01": 3.05837794165,
			"0.011": 2.32914671266,
			"0.012": 2.09343530434,
			"0.013": 0.687148202806,
			"0.014": 0.917899000848,
			"0.015": 0.487306853876,
			"0.016": 0.727398854312,
			"0.017": 0.413819618197,
			"0.018": 0.456541583403,
			"0.019": 0.0799548068349,
			"0.02": 0.0,
			"0.021": 0.0,
			"0.022": 0.0,
			"0.023": 0.0,
			"0.024": 0.0,
			"0.025": 0.0
		}
	}
}
