{
	 "smiles": "NNC(=O)NC1=CC(F)=CC(F)=C1", 
	 "Tm": 450.15, 
	 "num_atms": 20, 
	 "gaussian": { 
		 "optdone": 1, 
		 "sigma_profile": "yes", 
		 "theory": "DFT", 
		 "functional": "B3LYP", 
		 "basiset": "6-31G**", 
		 "properties": { 
			 "R2extent": 3593.1591, 
			 "electric_dipole_moment_norm": 0.771001413747, 
			 "electric_quadrupole_moment_norm": 4.67181112204, 
			 "total_energy": -710.098233565, 
			 "HOMO_LUMO_gap": 0.21298, 
			 "cosmo_polarized_energy": -13.17, 
			 "cosmo_cavitation_energy": 25.91, 
			 "cosmo_dispersion_energy": -18.8, 
			 "cosmo_repulsion_energy": 1.46, 
			 "cosmo_total_nonelectrostatic_energy": 8.56, 
			 "SMD_solvation_energy": 6.79 
		},
		"coords": [
			{
				"x": -3.2305210076,
				"y": -1.2271087532,
				"z": -0.2009918317,
				"element": "N" 
			},
			{
				"x": -2.1252556327,
				"y": -0.4202264084,
				"z": 0.1618879816,
				"element": "N" 
			},
			{
				"x": -1.4711694,
				"y": 0.2697226597,
				"z": -0.8422053913,
				"element": "C" 
			},
			{
				"x": -1.9019999831,
				"y": 0.3408872858,
				"z": -1.98607065,
				"element": "O" 
			},
			{
				"x": -0.2646426559,
				"y": 0.8792401375,
				"z": -0.5040680556,
				"element": "N" 
			},
			{
				"x": 0.3734991439,
				"y": 1.0947425319,
				"z": 0.7262658823,
				"element": "C" 
			},
			{
				"x": 1.7667862707,
				"y": 1.2821082667,
				"z": 0.7123203601,
				"element": "C" 
			},
			{
				"x": 2.4242447221,
				"y": 1.5365555215,
				"z": 1.9069902693,
				"element": "C" 
			},
			{
				"x": 3.7579807218,
				"y": 1.7130653029,
				"z": 1.8789108442,
				"element": "F" 
			},
			{
				"x": 1.7715048972,
				"y": 1.601094776,
				"z": 3.1334851562,
				"element": "C" 
			},
			{
				"x": 0.3955390177,
				"y": 1.4135281671,
				"z": 3.1073226874,
				"element": "C" 
			},
			{
				"x": -0.2831227712,
				"y": 1.4858403255,
				"z": 4.2674833168,
				"element": "F" 
			},
			{
				"x": -0.3248797805,
				"y": 1.1728630335,
				"z": 1.9427382729,
				"element": "C" 
			},
			{
				"x": -3.1069423116,
				"y": -1.4813970533,
				"z": -1.1821973475,
				"element": "H" 
			},
			{
				"x": -4.0563960211,
				"y": -0.631446677,
				"z": -0.1764840203,
				"element": "H" 
			},
			{
				"x": -1.5582034988,
				"y": -0.8343562092,
				"z": 0.8906940832,
				"element": "H" 
			},
			{
				"x": 0.2102701349,
				"y": 1.2168376621,
				"z": -1.329749179,
				"element": "H" 
			},
			{
				"x": 2.3355025868,
				"y": 1.219510112,
				"z": -0.2087106281,
				"element": "H" 
			},
			{
				"x": 2.305266459,
				"y": 1.791195226,
				"z": 4.0554966833,
				"element": "H" 
			},
			{
				"x": -1.4022608915,
				"y": 1.0916440929,
				"z": 1.9905815662,
				"element": "H" 
			}
		],
		 "valence_orbital": [ 
			{
				"type": "occ",
				"energy": -0.29426,
				"method": "rhf"
			},
			{
				"type": "occ",
				"energy": -0.28059,
				"method": "rhf"
			},
			{
				"type": "occ",
				"energy": -0.26128,
				"method": "rhf"
			},
			{
				"type": "occ",
				"energy": -0.2595,
				"method": "rhf"
			},
			{
				"type": "occ",
				"energy": -0.23767,
				"method": "rhf"
			},
			{
				"type": "unocc",
				"energy": -0.02469,
				"method": "rhf"
			},
			{
				"type": "unocc",
				"energy": -0.01465,
				"method": "rhf"
			},
			{
				"type": "unocc",
				"energy": 0.04808,
				"method": "rhf"
			},
			{
				"type": "unocc",
				"energy": 0.07152,
				"method": "rhf"
			},
			{
				"type": "unocc",
				"energy": 0.08459,
				"method": "rhf"
			}
		],
		"cosmo_sigma_profile": { 
			"-0.025": 0.0,
			"-0.024": 0.0,
			"-0.023": 0.0,
			"-0.022": 0.0,
			"-0.021": 0.0,
			"-0.02": 0.0,
			"-0.019": 0.0,
			"-0.018": 0.0,
			"-0.017": 0.0,
			"-0.016": 0.0,
			"-0.015": 0.627213511215,
			"-0.014": 1.45322271196,
			"-0.013": 1.724877482,
			"-0.012": 1.93680660244,
			"-0.011": 3.54903755844,
			"-0.01": 4.49740638925,
			"-0.009": 6.02600606696,
			"-0.008": 6.44184587066,
			"-0.007": 6.67914353642,
			"-0.006": 5.41893031392,
			"-0.005": 8.73990212248,
			"-0.004": 7.80592390121,
			"-0.003": 9.11650737864,
			"-0.002": 7.46456539489,
			"-0.001": 10.0277883177,
			"0.0": 19.4099789804,
			"0.001": 24.3650350718,
			"0.002": 20.285284291,
			"0.003": 14.0380088669,
			"0.004": 20.9208489297,
			"0.005": 2.79256748947,
			"0.006": 1.28373411045,
			"0.007": 1.67133937964,
			"0.008": 1.699374671,
			"0.009": 2.3815932842,
			"0.01": 2.04700069995,
			"0.011": 1.58830264497,
			"0.012": 2.37435963352,
			"0.013": 6.43951406185,
			"0.014": 2.6387185514,
			"0.015": 0.663082044033,
			"0.016": 0.392753131195,
			"0.017": 0.3110705313,
			"0.018": 0.0,
			"0.019": 0.0,
			"0.02": 0.0,
			"0.021": 0.0,
			"0.022": 0.0,
			"0.023": 0.0,
			"0.024": 0.0,
			"0.025": 0.0
		}
	}
}
