{
	 "smiles": "BrC1=C2N=CNC(=O)C2=CC=C1", 
	 "Tm": 591.15, 
	 "num_atms": 17, 
	 "gaussian": { 
		 "optdone": 1, 
		 "sigma_profile": "yes", 
		 "theory": "DFT", 
		 "functional": "B3LYP", 
		 "basiset": "6-31G**", 
		 "properties": { 
			 "R2extent": 3400.8502, 
			 "electric_dipole_moment_norm": 1.0168623014, 
			 "electric_quadrupole_moment_norm": 16.8075852004, 
			 "total_energy": -3064.01760536, 
			 "HOMO_LUMO_gap": 0.1835, 
			 "cosmo_polarized_energy": -14.3, 
			 "cosmo_cavitation_energy": 23.9, 
			 "cosmo_dispersion_energy": -18.51, 
			 "cosmo_repulsion_energy": 1.45, 
			 "cosmo_total_nonelectrostatic_energy": 6.85, 
			 "SMD_solvation_energy": 2.76 
		},
		"coords": [
			{
				"x": -1.3465271426,
				"y": 1.4330944096,
				"z": 1.3710430867,
				"element": "Br" 
			},
			{
				"x": -1.5414705954,
				"y": 0.3378874102,
				"z": -0.1725785193,
				"element": "C" 
			},
			{
				"x": -0.9157296134,
				"y": -0.9292936919,
				"z": -0.225929207,
				"element": "C" 
			},
			{
				"x": -0.158842034,
				"y": -1.3765702613,
				"z": 0.8460857817,
				"element": "N" 
			},
			{
				"x": 0.3850318334,
				"y": -2.5397356394,
				"z": 0.7351143931,
				"element": "C" 
			},
			{
				"x": 0.2683297863,
				"y": -3.3581819779,
				"z": -0.3592113485,
				"element": "N" 
			},
			{
				"x": -0.4669395143,
				"y": -3.0238238512,
				"z": -1.505556287,
				"element": "C" 
			},
			{
				"x": -0.5376658392,
				"y": -3.7915635795,
				"z": -2.4533867257,
				"element": "O" 
			},
			{
				"x": -1.0989884467,
				"y": -1.6989299638,
				"z": -1.4047334547,
				"element": "C" 
			},
			{
				"x": -1.869220503,
				"y": -1.2240174897,
				"z": -2.4750729839,
				"element": "C" 
			},
			{
				"x": -2.4682709771,
				"y": 0.0226582048,
				"z": -2.3889263692,
				"element": "C" 
			},
			{
				"x": -2.3029656797,
				"y": 0.8035365578,
				"z": -1.2348491978,
				"element": "C" 
			},
			{
				"x": 0.9881805819,
				"y": -2.9325708683,
				"z": 1.5512536941,
				"element": "H" 
			},
			{
				"x": 0.7245510148,
				"y": -4.2624531732,
				"z": -0.377515458,
				"element": "H" 
			},
			{
				"x": -1.975253397,
				"y": -1.8545744877,
				"z": -3.3510682546,
				"element": "H" 
			},
			{
				"x": -3.067633935,
				"y": 0.4039162428,
				"z": -3.2095892438,
				"element": "H" 
			},
			{
				"x": -2.7700855388,
				"y": 1.7794221587,
				"z": -1.1637799062,
				"element": "H" 
			}
		],
		 "valence_orbital": [ 
			{
				"type": "occ",
				"energy": -0.29628,
				"method": "rhf"
			},
			{
				"type": "occ",
				"energy": -0.27996,
				"method": "rhf"
			},
			{
				"type": "occ",
				"energy": -0.26894,
				"method": "rhf"
			},
			{
				"type": "occ",
				"energy": -0.25834,
				"method": "rhf"
			},
			{
				"type": "occ",
				"energy": -0.23679,
				"method": "rhf"
			},
			{
				"type": "unocc",
				"energy": -0.05329,
				"method": "rhf"
			},
			{
				"type": "unocc",
				"energy": -0.05005,
				"method": "rhf"
			},
			{
				"type": "unocc",
				"energy": 0.00889,
				"method": "rhf"
			},
			{
				"type": "unocc",
				"energy": 0.01675,
				"method": "rhf"
			},
			{
				"type": "unocc",
				"energy": 0.06157,
				"method": "rhf"
			}
		],
		"cosmo_sigma_profile": { 
			"-0.025": 0.0,
			"-0.024": 0.0,
			"-0.023": 0.0,
			"-0.022": 0.0,
			"-0.021": 0.0,
			"-0.02": 0.0,
			"-0.019": 0.0,
			"-0.018": 0.0,
			"-0.017": 1.27008144485,
			"-0.016": 1.95493449756,
			"-0.015": 0.707880137665,
			"-0.014": 1.63003207816,
			"-0.013": 1.11138759233,
			"-0.012": 1.48313368335,
			"-0.011": 1.78579033123,
			"-0.01": 2.6761702825,
			"-0.009": 2.48192751758,
			"-0.008": 3.03369747715,
			"-0.007": 6.59049535754,
			"-0.006": 7.9401067539,
			"-0.005": 9.59858899049,
			"-0.004": 10.0845790798,
			"-0.003": 10.9857526932,
			"-0.002": 12.7630376934,
			"-0.001": 10.3034118632,
			"0.0": 14.2613083455,
			"0.001": 20.4525266196,
			"0.002": 16.1130980341,
			"0.003": 11.2895050719,
			"0.004": 11.1037669956,
			"0.005": 6.7546241879,
			"0.006": 3.91004684486,
			"0.007": 3.00497924137,
			"0.008": 2.46844853288,
			"0.009": 2.20122934708,
			"0.01": 4.03582716206,
			"0.011": 2.8764245228,
			"0.012": 5.97071062381,
			"0.013": 4.42652241518,
			"0.014": 0.766819737904,
			"0.015": 0.155934114545,
			"0.016": 0.0,
			"0.017": 0.0,
			"0.018": 0.0,
			"0.019": 0.0,
			"0.02": 0.0,
			"0.021": 0.0,
			"0.022": 0.0,
			"0.023": 0.0,
			"0.024": 0.0,
			"0.025": 0.0
		}
	}
}
