{
	 "smiles": "C1CN(CCN1)C1=NC=CC2=C1C=CO2", 
	 "Tm": 332.15, 
	 "num_atms": 28, 
	 "gaussian": { 
		 "optdone": 1, 
		 "sigma_profile": "yes", 
		 "theory": "DFT", 
		 "functional": "B3LYP", 
		 "basiset": "6-31G**", 
		 "properties": { 
			 "R2extent": 3700.4331, 
			 "electric_dipole_moment_norm": 2.04293540769, 
			 "electric_quadrupole_moment_norm": 7.93767053045, 
			 "total_energy": -666.449634076, 
			 "HOMO_LUMO_gap": 0.17982, 
			 "cosmo_polarized_energy": -10.26, 
			 "cosmo_cavitation_energy": 29.55, 
			 "cosmo_dispersion_energy": -22.48, 
			 "cosmo_repulsion_energy": 1.73, 
			 "cosmo_total_nonelectrostatic_energy": 8.8, 
			 "SMD_solvation_energy": 1.29 
		},
		"coords": [
			{
				"x": 0.6280634787,
				"y": 3.1906536677,
				"z": 0.372818211,
				"element": "C" 
			},
			{
				"x": 1.5619246727,
				"y": 1.983375745,
				"z": 0.4922576785,
				"element": "C" 
			},
			{
				"x": 0.89287562,
				"y": 0.8037335264,
				"z": -0.0641023939,
				"element": "N" 
			},
			{
				"x": -0.0079067264,
				"y": 1.0254785242,
				"z": -1.1953149335,
				"element": "C" 
			},
			{
				"x": 0.3479720951,
				"y": 2.3279029041,
				"z": -1.9126027978,
				"element": "C" 
			},
			{
				"x": 0.1916894439,
				"y": 3.4706737497,
				"z": -1.0082620263,
				"element": "N" 
			},
			{
				"x": 1.276818932,
				"y": -0.4536317538,
				"z": 0.3441018262,
				"element": "C" 
			},
			{
				"x": 2.3628157255,
				"y": -0.5197450923,
				"z": 1.1313993065,
				"element": "N" 
			},
			{
				"x": 2.8078638907,
				"y": -1.7097781559,
				"z": 1.5715307224,
				"element": "C" 
			},
			{
				"x": 2.2388185676,
				"y": -2.9387329575,
				"z": 1.2683762225,
				"element": "C" 
			},
			{
				"x": 1.1007591743,
				"y": -2.8539098925,
				"z": 0.4678244758,
				"element": "C" 
			},
			{
				"x": 0.5704342442,
				"y": -1.6443109887,
				"z": -0.0083081876,
				"element": "C" 
			},
			{
				"x": -0.6374379849,
				"y": -2.017958312,
				"z": -0.7166306526,
				"element": "C" 
			},
			{
				"x": -0.7244178261,
				"y": -3.3668433783,
				"z": -0.6315802537,
				"element": "C" 
			},
			{
				"x": 0.323612588,
				"y": -3.9032514912,
				"z": 0.0803675862,
				"element": "O" 
			},
			{
				"x": -0.2538221198,
				"y": 3.0061621532,
				"z": 1.0019408103,
				"element": "H" 
			},
			{
				"x": 1.1257961449,
				"y": 4.0752755803,
				"z": 0.7834409447,
				"element": "H" 
			},
			{
				"x": 2.5191760639,
				"y": 2.1765278828,
				"z": -0.0157784706,
				"element": "H" 
			},
			{
				"x": 1.8018075769,
				"y": 1.7818391371,
				"z": 1.5377581084,
				"element": "H" 
			},
			{
				"x": -1.060007963,
				"y": 1.0665168781,
				"z": -0.873116778,
				"element": "H" 
			},
			{
				"x": 0.0928641991,
				"y": 0.2011329437,
				"z": -1.90630848,
				"element": "H" 
			},
			{
				"x": 1.3699797831,
				"y": 2.2227010485,
				"z": -2.3164382785,
				"element": "H" 
			},
			{
				"x": -0.3238026125,
				"y": 2.4501694152,
				"z": -2.7712306058,
				"element": "H" 
			},
			{
				"x": 0.6974746483,
				"y": 4.2667223324,
				"z": -1.3805610953,
				"element": "H" 
			},
			{
				"x": 3.6901875488,
				"y": -1.6671153516,
				"z": 2.2077240833,
				"element": "H" 
			},
			{
				"x": 2.6313133238,
				"y": -3.8783954591,
				"z": 1.6358950039,
				"element": "H" 
			},
			{
				"x": -1.3527812748,
				"y": -1.3790057457,
				"z": -1.2094494738,
				"element": "H" 
			},
			{
				"x": -1.4425712139,
				"y": -4.0802869097,
				"z": -1.0049505524,
				"element": "H" 
			}
		],
		 "valence_orbital": [ 
			{
				"type": "occ",
				"energy": -0.26783,
				"method": "rhf"
			},
			{
				"type": "occ",
				"energy": -0.24773,
				"method": "rhf"
			},
			{
				"type": "occ",
				"energy": -0.24459,
				"method": "rhf"
			},
			{
				"type": "occ",
				"energy": -0.21837,
				"method": "rhf"
			},
			{
				"type": "occ",
				"energy": -0.18627,
				"method": "rhf"
			},
			{
				"type": "unocc",
				"energy": -0.00645,
				"method": "rhf"
			},
			{
				"type": "unocc",
				"energy": 0.01369,
				"method": "rhf"
			},
			{
				"type": "unocc",
				"energy": 0.05295,
				"method": "rhf"
			},
			{
				"type": "unocc",
				"energy": 0.07358,
				"method": "rhf"
			},
			{
				"type": "unocc",
				"energy": 0.09954,
				"method": "rhf"
			}
		],
		"cosmo_sigma_profile": { 
			"-0.025": 0.0,
			"-0.024": 0.0,
			"-0.023": 0.0,
			"-0.022": 0.0,
			"-0.021": 0.0,
			"-0.02": 0.0,
			"-0.019": 0.0,
			"-0.018": 0.0,
			"-0.017": 0.0,
			"-0.016": 0.0,
			"-0.015": 0.0,
			"-0.014": 0.0,
			"-0.013": 0.0,
			"-0.012": 0.0,
			"-0.011": 0.0699309296604,
			"-0.01": 1.32989263126,
			"-0.009": 3.09810673383,
			"-0.008": 3.19548143795,
			"-0.007": 5.92158523753,
			"-0.006": 8.37206560736,
			"-0.005": 13.9873817052,
			"-0.004": 18.2846272075,
			"-0.003": 28.8724632702,
			"-0.002": 22.6830717487,
			"-0.001": 16.8989115558,
			"0.0": 11.8007794418,
			"0.001": 12.4258805622,
			"0.002": 19.3491697512,
			"0.003": 19.3859609891,
			"0.004": 13.7966108323,
			"0.005": 8.58865093265,
			"0.006": 4.6313316219,
			"0.007": 4.55879473604,
			"0.008": 3.89474023771,
			"0.009": 2.63356594234,
			"0.01": 1.73606688363,
			"0.011": 1.65936559572,
			"0.012": 1.47006206589,
			"0.013": 1.6869627973,
			"0.014": 1.31543275297,
			"0.015": 0.538178557812,
			"0.016": 0.405514041411,
			"0.017": 0.708897668318,
			"0.018": 0.453978995682,
			"0.019": 0.0,
			"0.02": 0.0,
			"0.021": 0.0,
			"0.022": 0.0,
			"0.023": 0.0,
			"0.024": 0.0,
			"0.025": 0.0
		}
	}
}
