{
	 "smiles": "COC(=O)CC1CCCCC1=NO", 
	 "Tm": 348.15, 
	 "num_atms": 28, 
	 "gaussian": { 
		 "optdone": 1, 
		 "sigma_profile": "yes", 
		 "theory": "DFT", 
		 "functional": "B3LYP", 
		 "basiset": "6-31G**", 
		 "properties": { 
			 "R2extent": 3904.251, 
			 "electric_dipole_moment_norm": 1.80156974608, 
			 "electric_quadrupole_moment_norm": 12.4836840464, 
			 "total_energy": -632.378927837, 
			 "HOMO_LUMO_gap": 0.24484, 
			 "cosmo_polarized_energy": -11.51, 
			 "cosmo_cavitation_energy": 29.96, 
			 "cosmo_dispersion_energy": -21.64, 
			 "cosmo_repulsion_energy": 1.76, 
			 "cosmo_total_nonelectrostatic_energy": 10.08, 
			 "SMD_solvation_energy": 6.0 
		},
		"coords": [
			{
				"x": -0.0482816309,
				"y": -4.8022707084,
				"z": 1.415819208,
				"element": "C" 
			},
			{
				"x": -0.1638442536,
				"y": -3.4072928176,
				"z": 1.089660645,
				"element": "O" 
			},
			{
				"x": 1.0031868731,
				"y": -2.7757375144,
				"z": 0.8276663032,
				"element": "C" 
			},
			{
				"x": 2.0796657782,
				"y": -3.3346146793,
				"z": 0.8404171728,
				"element": "O" 
			},
			{
				"x": 0.7685046419,
				"y": -1.3018587349,
				"z": 0.5555531623,
				"element": "C" 
			},
			{
				"x": 1.9869433716,
				"y": -0.6079832818,
				"z": -0.0888487096,
				"element": "C" 
			},
			{
				"x": 2.2710585742,
				"y": -1.0732373662,
				"z": -1.5313354308,
				"element": "C" 
			},
			{
				"x": 1.1624000763,
				"y": -0.684602671,
				"z": -2.5380485057,
				"element": "C" 
			},
			{
				"x": 0.4523638353,
				"y": 0.6450227858,
				"z": -2.1798372396,
				"element": "C" 
			},
			{
				"x": 1.3258444683,
				"y": 1.5866512612,
				"z": -1.3365459852,
				"element": "C" 
			},
			{
				"x": 1.8331874885,
				"y": 0.9081487542,
				"z": -0.083756588,
				"element": "C" 
			},
			{
				"x": 2.1795657451,
				"y": 1.5076090462,
				"z": 0.9938950643,
				"element": "N" 
			},
			{
				"x": 2.0234283807,
				"y": 2.9092956224,
				"z": 0.8935169889,
				"element": "O" 
			},
			{
				"x": 0.4051859073,
				"y": -5.3551794679,
				"z": 0.589292118,
				"element": "H" 
			},
			{
				"x": 0.5663355958,
				"y": -4.9403481017,
				"z": 2.309010942,
				"element": "H" 
			},
			{
				"x": -1.06620772,
				"y": -5.1483825805,
				"z": 1.5949605871,
				"element": "H" 
			},
			{
				"x": 0.554386533,
				"y": -0.8272484865,
				"z": 1.5212977471,
				"element": "H" 
			},
			{
				"x": -0.1442039151,
				"y": -1.1994966999,
				"z": -0.0393012998,
				"element": "H" 
			},
			{
				"x": 2.8495497847,
				"y": -0.8584238063,
				"z": 0.5351831319,
				"element": "H" 
			},
			{
				"x": 2.4401959612,
				"y": -2.1537188782,
				"z": -1.5404771724,
				"element": "H" 
			},
			{
				"x": 3.2181055709,
				"y": -0.615286977,
				"z": -1.8414413033,
				"element": "H" 
			},
			{
				"x": 0.4137042842,
				"y": -1.4823490085,
				"z": -2.6047079315,
				"element": "H" 
			},
			{
				"x": 1.6096543409,
				"y": -0.6128078434,
				"z": -3.5359149704,
				"element": "H" 
			},
			{
				"x": -0.4656081426,
				"y": 0.435390213,
				"z": -1.6175429535,
				"element": "H" 
			},
			{
				"x": 0.131043046,
				"y": 1.1605600355,
				"z": -3.0911147876,
				"element": "H" 
			},
			{
				"x": 0.7810914494,
				"y": 2.4933596048,
				"z": -1.0601818161,
				"element": "H" 
			},
			{
				"x": 2.1939340014,
				"y": 1.9261362321,
				"z": -1.9210175963,
				"element": "H" 
			},
			{
				"x": 2.2996099542,
				"y": 3.2006660682,
				"z": 1.7719992194,
				"element": "H" 
			}
		],
		 "valence_orbital": [ 
			{
				"type": "occ",
				"energy": -0.31213,
				"method": "rhf"
			},
			{
				"type": "occ",
				"energy": -0.30056,
				"method": "rhf"
			},
			{
				"type": "occ",
				"energy": -0.27231,
				"method": "rhf"
			},
			{
				"type": "occ",
				"energy": -0.26059,
				"method": "rhf"
			},
			{
				"type": "occ",
				"energy": -0.23868,
				"method": "rhf"
			},
			{
				"type": "unocc",
				"energy": 0.00616,
				"method": "rhf"
			},
			{
				"type": "unocc",
				"energy": 0.01712,
				"method": "rhf"
			},
			{
				"type": "unocc",
				"energy": 0.07469,
				"method": "rhf"
			},
			{
				"type": "unocc",
				"energy": 0.08296,
				"method": "rhf"
			},
			{
				"type": "unocc",
				"energy": 0.10382,
				"method": "rhf"
			}
		],
		"cosmo_sigma_profile": { 
			"-0.025": 0.0,
			"-0.024": 0.0,
			"-0.023": 0.0,
			"-0.022": 0.0,
			"-0.021": 0.0,
			"-0.02": 0.0,
			"-0.019": 0.0,
			"-0.018": 0.0,
			"-0.017": 0.266184607298,
			"-0.016": 1.23808131057,
			"-0.015": 0.623554692961,
			"-0.014": 0.831739677339,
			"-0.013": 0.836290279662,
			"-0.012": 0.722900110693,
			"-0.011": 0.931654920222,
			"-0.01": 0.601803843594,
			"-0.009": 0.368568685119,
			"-0.008": 0.560325715744,
			"-0.007": 1.25712197984,
			"-0.006": 7.37196745811,
			"-0.005": 13.5364070463,
			"-0.004": 19.3368128888,
			"-0.003": 29.5150048672,
			"-0.002": 29.7912507215,
			"-0.001": 26.3025033322,
			"0.0": 19.2393178679,
			"0.001": 12.7504271079,
			"0.002": 8.16329653151,
			"0.003": 5.79137590301,
			"0.004": 6.31178552838,
			"0.005": 6.51709246424,
			"0.006": 6.57006392812,
			"0.007": 6.27552895113,
			"0.008": 6.43526822934,
			"0.009": 5.56442492649,
			"0.01": 3.98494156449,
			"0.011": 4.36014829045,
			"0.012": 5.08830135807,
			"0.013": 1.01615067344,
			"0.014": 0.735659300404,
			"0.015": 0.0,
			"0.016": 0.0,
			"0.017": 0.0,
			"0.018": 0.0,
			"0.019": 0.0,
			"0.02": 0.0,
			"0.021": 0.0,
			"0.022": 0.0,
			"0.023": 0.0,
			"0.024": 0.0,
			"0.025": 0.0
		}
	}
}
