{
	 "smiles": "CC(=O)NBr", 
	 "Tm": 377.15, 
	 "num_atms": 9, 
	 "gaussian": { 
		 "optdone": 1, 
		 "sigma_profile": "yes", 
		 "theory": "DFT", 
		 "functional": "B3LYP", 
		 "basiset": "6-31G**", 
		 "properties": { 
			 "R2extent": 3442.0218, 
			 "electric_dipole_moment_norm": 3.68515418673, 
			 "electric_quadrupole_moment_norm": 9.40025111207, 
			 "total_energy": -2779.97872288, 
			 "HOMO_LUMO_gap": 0.19796, 
			 "cosmo_polarized_energy": -12.08, 
			 "cosmo_cavitation_energy": 15.49, 
			 "cosmo_dispersion_energy": -12.02, 
			 "cosmo_repulsion_energy": 1.08, 
			 "cosmo_total_nonelectrostatic_energy": 4.55, 
			 "SMD_solvation_energy": 2.61 
		},
		"coords": [
			{
				"x": 0.6804896705,
				"y": -0.3523674511,
				"z": 0.1702168627,
				"element": "C" 
			},
			{
				"x": 1.376275597,
				"y": -1.4348232407,
				"z": -0.6490210972,
				"element": "C" 
			},
			{
				"x": 2.0528199668,
				"y": -1.1981226533,
				"z": -1.6272766554,
				"element": "O" 
			},
			{
				"x": 1.192157048,
				"y": -2.7038926086,
				"z": -0.1244147615,
				"element": "N" 
			},
			{
				"x": 1.7067151057,
				"y": -4.2045033419,
				"z": -1.134067109,
				"element": "Br" 
			},
			{
				"x": 1.4096008838,
				"y": 0.4335411823,
				"z": 0.3784188173,
				"element": "H" 
			},
			{
				"x": 0.2580271533,
				"y": -0.7071001332,
				"z": 1.1134257558,
				"element": "H" 
			},
			{
				"x": -0.1168578844,
				"y": 0.0839161599,
				"z": -0.4387691904,
				"element": "H" 
			},
			{
				"x": 0.3890724593,
				"y": -2.8961479133,
				"z": 0.4604873778,
				"element": "H" 
			}
		],
		 "valence_orbital": [ 
			{
				"type": "occ",
				"energy": -0.39014,
				"method": "rhf"
			},
			{
				"type": "occ",
				"energy": -0.32875,
				"method": "rhf"
			},
			{
				"type": "occ",
				"energy": -0.30038,
				"method": "rhf"
			},
			{
				"type": "occ",
				"energy": -0.26791,
				"method": "rhf"
			},
			{
				"type": "occ",
				"energy": -0.25598,
				"method": "rhf"
			},
			{
				"type": "unocc",
				"energy": -0.05802,
				"method": "rhf"
			},
			{
				"type": "unocc",
				"energy": 0.01479,
				"method": "rhf"
			},
			{
				"type": "unocc",
				"energy": 0.06958,
				"method": "rhf"
			},
			{
				"type": "unocc",
				"energy": 0.12078,
				"method": "rhf"
			},
			{
				"type": "unocc",
				"energy": 0.14725,
				"method": "rhf"
			}
		],
		"cosmo_sigma_profile": { 
			"-0.025": 0.0,
			"-0.024": 0.0,
			"-0.023": 0.0,
			"-0.022": 0.0,
			"-0.021": 0.0,
			"-0.02": 0.0,
			"-0.019": 0.0,
			"-0.018": 0.0,
			"-0.017": 0.395500177691,
			"-0.016": 1.42580759002,
			"-0.015": 1.01629008826,
			"-0.014": 1.00535731565,
			"-0.013": 1.07443854608,
			"-0.012": 1.61006619766,
			"-0.011": 1.38550290227,
			"-0.01": 1.21060567075,
			"-0.009": 1.37470339608,
			"-0.008": 1.91558542313,
			"-0.007": 4.15842778016,
			"-0.006": 8.27757237981,
			"-0.005": 7.4143132933,
			"-0.004": 8.13325843469,
			"-0.003": 7.11951965753,
			"-0.002": 11.0171012201,
			"-0.001": 6.69342720998,
			"0.0": 3.80502136461,
			"0.001": 4.7258515724,
			"0.002": 5.9820637346,
			"0.003": 8.24366543883,
			"0.004": 11.523598237,
			"0.005": 3.57190107147,
			"0.006": 2.74080660134,
			"0.007": 2.08076911057,
			"0.008": 1.72044531047,
			"0.009": 1.80150273997,
			"0.01": 1.97143855407,
			"0.011": 2.4193575489,
			"0.012": 4.96693424341,
			"0.013": 4.73915946448,
			"0.014": 0.705055367765,
			"0.015": 0.0,
			"0.016": 0.0,
			"0.017": 0.0,
			"0.018": 0.0,
			"0.019": 0.0,
			"0.02": 0.0,
			"0.021": 0.0,
			"0.022": 0.0,
			"0.023": 0.0,
			"0.024": 0.0,
			"0.025": 0.0
		}
	}
}
