{
	 "smiles": "CC1=C(C)C=C(C=C1)C(N)=O", 
	 "Tm": 381.15, 
	 "num_atms": 22, 
	 "gaussian": { 
		 "optdone": 1, 
		 "sigma_profile": "yes", 
		 "theory": "DFT", 
		 "functional": "B3LYP", 
		 "basiset": "6-31G**", 
		 "properties": { 
			 "R2extent": 2268.4372, 
			 "electric_dipole_moment_norm": 4.06242740366, 
			 "electric_quadrupole_moment_norm": 19.2828561069, 
			 "total_energy": -479.597186341, 
			 "HOMO_LUMO_gap": 0.20606, 
			 "cosmo_polarized_energy": -13.03, 
			 "cosmo_cavitation_energy": 25.33, 
			 "cosmo_dispersion_energy": -18.55, 
			 "cosmo_repulsion_energy": 1.49, 
			 "cosmo_total_nonelectrostatic_energy": 8.27, 
			 "SMD_solvation_energy": 5.17 
		},
		"coords": [
			{
				"x": -1.1436173114,
				"y": -2.4265448231,
				"z": 0.8219587492,
				"element": "C" 
			},
			{
				"x": -0.2295646895,
				"y": -1.3613108749,
				"z": 0.2672496199,
				"element": "C" 
			},
			{
				"x": -0.756561665,
				"y": -0.2046910149,
				"z": -0.3486954582,
				"element": "C" 
			},
			{
				"x": -2.2485060523,
				"y": -0.0096639772,
				"z": -0.4808253566,
				"element": "C" 
			},
			{
				"x": 0.1243284345,
				"y": 0.7599962165,
				"z": -0.8454804005,
				"element": "C" 
			},
			{
				"x": 1.5146299628,
				"y": 0.6088576849,
				"z": -0.7508689739,
				"element": "C" 
			},
			{
				"x": 2.027710288,
				"y": -0.5479862831,
				"z": -0.1574569087,
				"element": "C" 
			},
			{
				"x": 1.1606032392,
				"y": -1.5115009402,
				"z": 0.3483834036,
				"element": "C" 
			},
			{
				"x": 2.4954088253,
				"y": 1.6175914718,
				"z": -1.2729837096,
				"element": "C" 
			},
			{
				"x": 1.9997918751,
				"y": 2.8768623961,
				"z": -1.5295647104,
				"element": "N" 
			},
			{
				"x": 3.6699204321,
				"y": 1.3371981931,
				"z": -1.48137727,
				"element": "O" 
			},
			{
				"x": -0.5713635509,
				"y": -3.2475815058,
				"z": 1.2611001534,
				"element": "H" 
			},
			{
				"x": -1.806520852,
				"y": -2.0266805117,
				"z": 1.5989963346,
				"element": "H" 
			},
			{
				"x": -1.7913810185,
				"y": -2.8484869509,
				"z": 0.0438340193,
				"element": "H" 
			},
			{
				"x": -2.480701695,
				"y": 0.9312611466,
				"z": -0.9866700532,
				"element": "H" 
			},
			{
				"x": -2.7140718742,
				"y": -0.8198638366,
				"z": -1.0549345091,
				"element": "H" 
			},
			{
				"x": -2.743546948,
				"y": 0.0064664975,
				"z": 0.4978210976,
				"element": "H" 
			},
			{
				"x": -0.293494135,
				"y": 1.6282620535,
				"z": -1.3488970373,
				"element": "H" 
			},
			{
				"x": 3.1041095554,
				"y": -0.6699982677,
				"z": -0.1041812007,
				"element": "H" 
			},
			{
				"x": 1.5673040533,
				"y": -2.4047269397,
				"z": 0.815995313,
				"element": "H" 
			},
			{
				"x": 1.1741534228,
				"y": 3.2021670534,
				"z": -1.0513555886,
				"element": "H" 
			},
			{
				"x": 2.6978697031,
				"y": 3.5715732125,
				"z": -1.753547514,
				"element": "H" 
			}
		],
		 "valence_orbital": [ 
			{
				"type": "occ",
				"energy": -0.33697,
				"method": "rhf"
			},
			{
				"type": "occ",
				"energy": -0.2676,
				"method": "rhf"
			},
			{
				"type": "occ",
				"energy": -0.24968,
				"method": "rhf"
			},
			{
				"type": "occ",
				"energy": -0.24706,
				"method": "rhf"
			},
			{
				"type": "occ",
				"energy": -0.23679,
				"method": "rhf"
			},
			{
				"type": "unocc",
				"energy": -0.03073,
				"method": "rhf"
			},
			{
				"type": "unocc",
				"energy": -0.00168,
				"method": "rhf"
			},
			{
				"type": "unocc",
				"energy": 0.06212,
				"method": "rhf"
			},
			{
				"type": "unocc",
				"energy": 0.08238,
				"method": "rhf"
			},
			{
				"type": "unocc",
				"energy": 0.08983,
				"method": "rhf"
			}
		],
		"cosmo_sigma_profile": { 
			"-0.025": 0.0,
			"-0.024": 0.0,
			"-0.023": 0.0,
			"-0.022": 0.0,
			"-0.021": 0.0,
			"-0.02": 0.0,
			"-0.019": 0.0,
			"-0.018": 0.0,
			"-0.017": 0.0,
			"-0.016": 0.0,
			"-0.015": 0.0,
			"-0.014": 0.868843096018,
			"-0.013": 2.19141222005,
			"-0.012": 2.63453420163,
			"-0.011": 2.21544178463,
			"-0.01": 2.28648117737,
			"-0.009": 2.3605515039,
			"-0.008": 2.3564030231,
			"-0.007": 2.32103018936,
			"-0.006": 3.5635764288,
			"-0.005": 8.63923521807,
			"-0.004": 20.0516684698,
			"-0.003": 15.1022215719,
			"-0.002": 16.6675964863,
			"-0.001": 17.7599327338,
			"0.0": 20.5739228866,
			"0.001": 14.9340287568,
			"0.002": 10.1348562769,
			"0.003": 9.51965684257,
			"0.004": 10.7999297487,
			"0.005": 10.9950780683,
			"0.006": 3.14321399268,
			"0.007": 1.75418360474,
			"0.008": 2.99358605325,
			"0.009": 1.79527603292,
			"0.01": 1.27709007029,
			"0.011": 1.73360277319,
			"0.012": 1.62480352697,
			"0.013": 3.86684449443,
			"0.014": 4.99589393834,
			"0.015": 0.654588539559,
			"0.016": 0.0,
			"0.017": 0.0,
			"0.018": 0.0,
			"0.019": 0.0,
			"0.02": 0.0,
			"0.021": 0.0,
			"0.022": 0.0,
			"0.023": 0.0,
			"0.024": 0.0,
			"0.025": 0.0
		}
	}
}
