{
	 "smiles": "CC1=NC(=NC=C1C(=O)NN)C1=CC=CC=C1", 
	 "Tm": 459.15, 
	 "num_atms": 29, 
	 "gaussian": { 
		 "optdone": 1, 
		 "sigma_profile": "yes", 
		 "theory": "DFT", 
		 "functional": "B3LYP", 
		 "basiset": "6-31G**", 
		 "properties": { 
			 "R2extent": 6655.5989, 
			 "electric_dipole_moment_norm": 1.17985533435, 
			 "electric_quadrupole_moment_norm": 7.7119480373, 
			 "total_energy": -758.734522972, 
			 "HOMO_LUMO_gap": 0.17097, 
			 "cosmo_polarized_energy": -14.24, 
			 "cosmo_cavitation_energy": 33.62, 
			 "cosmo_dispersion_energy": -24.62, 
			 "cosmo_repulsion_energy": 1.9, 
			 "cosmo_total_nonelectrostatic_energy": 10.9, 
			 "SMD_solvation_energy": 4.66 
		},
		"coords": [
			{
				"x": 0.6615851737,
				"y": 3.6922574221,
				"z": -0.8256181423,
				"element": "C" 
			},
			{
				"x": -0.2597713672,
				"y": 2.6538937464,
				"z": -0.246409571,
				"element": "C" 
			},
			{
				"x": 0.0734559765,
				"y": 1.3773098916,
				"z": -0.4599420456,
				"element": "N" 
			},
			{
				"x": -0.7096919997,
				"y": 0.4055825848,
				"z": 0.0436243354,
				"element": "C" 
			},
			{
				"x": -1.8198433219,
				"y": 0.6152285341,
				"z": 0.7747837715,
				"element": "N" 
			},
			{
				"x": -2.1542839835,
				"y": 1.886093995,
				"z": 0.9846443517,
				"element": "C" 
			},
			{
				"x": -1.4277278804,
				"y": 2.9727033436,
				"z": 0.4865262878,
				"element": "C" 
			},
			{
				"x": -1.8383576137,
				"y": 4.3812889484,
				"z": 0.7691335307,
				"element": "C" 
			},
			{
				"x": -1.0446524153,
				"y": 5.3103928163,
				"z": 0.8934151606,
				"element": "O" 
			},
			{
				"x": -3.1955977728,
				"y": 4.5776510152,
				"z": 0.899827817,
				"element": "N" 
			},
			{
				"x": -3.7068761128,
				"y": 5.8866837857,
				"z": 1.0418638272,
				"element": "N" 
			},
			{
				"x": -0.3168185343,
				"y": -0.9984163793,
				"z": -0.2227589537,
				"element": "C" 
			},
			{
				"x": 0.8271511294,
				"y": -1.2847305397,
				"z": -0.9855946282,
				"element": "C" 
			},
			{
				"x": 1.1922881694,
				"y": -2.6053836045,
				"z": -1.2350181678,
				"element": "C" 
			},
			{
				"x": 0.4222519967,
				"y": -3.655179809,
				"z": -0.7276167539,
				"element": "C" 
			},
			{
				"x": -0.7170114261,
				"y": -3.3774117245,
				"z": 0.0323648063,
				"element": "C" 
			},
			{
				"x": -1.0860451431,
				"y": -2.0584709734,
				"z": 0.2847541198,
				"element": "C" 
			},
			{
				"x": 1.1523546606,
				"y": 4.2531788041,
				"z": -0.025784558,
				"element": "H" 
			},
			{
				"x": 0.1118695535,
				"y": 4.4300697728,
				"z": -1.4171999762,
				"element": "H" 
			},
			{
				"x": 1.4083481141,
				"y": 3.1967474232,
				"z": -1.44706861,
				"element": "H" 
			},
			{
				"x": -3.0354285389,
				"y": 2.0545352257,
				"z": 1.6025749173,
				"element": "H" 
			},
			{
				"x": -3.8294615279,
				"y": 3.9395944408,
				"z": 0.439048762,
				"element": "H" 
			},
			{
				"x": -3.0290355447,
				"y": 6.5101110426,
				"z": 0.5994393697,
				"element": "H" 
			},
			{
				"x": -3.6759580299,
				"y": 6.117960684,
				"z": 2.0344285926,
				"element": "H" 
			},
			{
				"x": 1.4149479116,
				"y": -0.4604342145,
				"z": -1.3725663599,
				"element": "H" 
			},
			{
				"x": 2.0787629655,
				"y": -2.8171127224,
				"z": -1.8259704056,
				"element": "H" 
			},
			{
				"x": 0.7087625464,
				"y": -4.6847585992,
				"z": -0.9231310439,
				"element": "H" 
			},
			{
				"x": -1.3178493129,
				"y": -4.1906657875,
				"z": 0.4292432157,
				"element": "H" 
			},
			{
				"x": -1.9664676724,
				"y": -1.8289191224,
				"z": 0.8739063506,
				"element": "H" 
			}
		],
		 "valence_orbital": [ 
			{
				"type": "occ",
				"energy": -0.26772,
				"method": "rhf"
			},
			{
				"type": "occ",
				"energy": -0.2618,
				"method": "rhf"
			},
			{
				"type": "occ",
				"energy": -0.2516,
				"method": "rhf"
			},
			{
				"type": "occ",
				"energy": -0.25133,
				"method": "rhf"
			},
			{
				"type": "occ",
				"energy": -0.23907,
				"method": "rhf"
			},
			{
				"type": "unocc",
				"energy": -0.0681,
				"method": "rhf"
			},
			{
				"type": "unocc",
				"energy": -0.04283,
				"method": "rhf"
			},
			{
				"type": "unocc",
				"energy": -0.00039,
				"method": "rhf"
			},
			{
				"type": "unocc",
				"energy": 0.00128,
				"method": "rhf"
			},
			{
				"type": "unocc",
				"energy": 0.04781,
				"method": "rhf"
			}
		],
		"cosmo_sigma_profile": { 
			"-0.025": 0.0,
			"-0.024": 0.0,
			"-0.023": 0.0,
			"-0.022": 0.0,
			"-0.021": 0.0,
			"-0.02": 0.0,
			"-0.019": 0.0,
			"-0.018": 0.0,
			"-0.017": 0.0,
			"-0.016": 0.0,
			"-0.015": 0.256409290754,
			"-0.014": 1.19492147801,
			"-0.013": 1.32534673471,
			"-0.012": 1.73549301165,
			"-0.011": 2.51195395817,
			"-0.01": 4.33300747145,
			"-0.009": 4.13198953598,
			"-0.008": 3.10446842459,
			"-0.007": 3.64898551212,
			"-0.006": 10.3048573692,
			"-0.005": 15.5014139454,
			"-0.004": 20.7512393758,
			"-0.003": 20.321398779,
			"-0.002": 21.5678820206,
			"-0.001": 22.6974287857,
			"0.0": 17.5958649647,
			"0.001": 15.8578309531,
			"0.002": 17.4938778229,
			"0.003": 18.4839900965,
			"0.004": 17.9867209162,
			"0.005": 12.5371978568,
			"0.006": 5.70022718783,
			"0.007": 5.67283018423,
			"0.008": 5.56779542601,
			"0.009": 3.01247588575,
			"0.01": 2.86827414423,
			"0.011": 3.33447377326,
			"0.012": 3.6702068696,
			"0.013": 3.2064656502,
			"0.014": 0.710375998282,
			"0.015": 0.545259897372,
			"0.016": 0.574269422677,
			"0.017": 0.170619717311,
			"0.018": 0.0,
			"0.019": 0.0,
			"0.02": 0.0,
			"0.021": 0.0,
			"0.022": 0.0,
			"0.023": 0.0,
			"0.024": 0.0,
			"0.025": 0.0
		}
	}
}
