{
	 "smiles": "C[Si](C)(C)C", 
	 "Tm": 173.65, 
	 "num_atms": 17, 
	 "gaussian": { 
		 "optdone": 1, 
		 "sigma_profile": "yes", 
		 "theory": "DFT", 
		 "functional": "B3LYP", 
		 "basiset": "6-31G**", 
		 "properties": { 
			 "R2extent": 763.4026, 
			 "electric_dipole_moment_norm": 0.00022360679775, 
			 "electric_quadrupole_moment_norm": 0.000663324958071, 
			 "total_energy": -449.206275581, 
			 "HOMO_LUMO_gap": 0.36449, 
			 "cosmo_polarized_energy": -0.95, 
			 "cosmo_cavitation_energy": 20.4, 
			 "cosmo_dispersion_energy": -12.36, 
			 "cosmo_repulsion_energy": 1.22, 
			 "cosmo_total_nonelectrostatic_energy": 9.26, 
			 "SMD_solvation_energy": 5.66 
		},
		"coords": [
			{
				"x": -0.6823166051,
				"y": -1.2164722487,
				"z": -0.3329419936,
				"element": "C" 
			},
			{
				"x": 0.7175406495,
				"y": -0.0025247018,
				"z": 0.0667913906,
				"element": "Si" 
			},
			{
				"x": 1.1445408095,
				"y": -0.1154028819,
				"z": 1.9101799448,
				"element": "C" 
			},
			{
				"x": 2.2469773737,
				"y": -0.4400806549,
				"z": -0.964019259,
				"element": "C" 
			},
			{
				"x": 0.1610021767,
				"y": 1.7618196944,
				"z": -0.3459966078,
				"element": "C" 
			},
			{
				"x": -0.391758138,
				"y": -2.2478714176,
				"z": -0.1049146498,
				"element": "H" 
			},
			{
				"x": -0.9535915592,
				"y": -1.175691347,
				"z": -1.3935831396,
				"element": "H" 
			},
			{
				"x": -1.5831144542,
				"y": -0.990171295,
				"z": 0.2480745104,
				"element": "H" 
			},
			{
				"x": 0.2792829648,
				"y": 0.1323161224,
				"z": 2.5348212321,
				"element": "H" 
			},
			{
				"x": 1.9523828852,
				"y": 0.5758036,
				"z": 2.1744471344,
				"element": "H" 
			},
			{
				"x": 1.4707637259,
				"y": -1.1253342484,
				"z": 2.181865723,
				"element": "H" 
			},
			{
				"x": 3.0763059695,
				"y": 0.2447906504,
				"z": -0.7557606892,
				"element": "H" 
			},
			{
				"x": 2.5946572487,
				"y": -1.4563360603,
				"z": -0.7482805648,
				"element": "H" 
			},
			{
				"x": 2.0328782391,
				"y": -0.3841702383,
				"z": -2.0369795371,
				"element": "H" 
			},
			{
				"x": 0.9496982044,
				"y": 2.4895846148,
				"z": -0.1257097293,
				"element": "H" 
			},
			{
				"x": -0.0937618292,
				"y": 1.8606739619,
				"z": -1.4069071624,
				"element": "H" 
			},
			{
				"x": -0.7233876611,
				"y": 2.04616645,
				"z": 0.2347133975,
				"element": "H" 
			}
		],
		 "valence_orbital": [ 
			{
				"type": "occ",
				"energy": -0.37319,
				"method": "rhf"
			},
			{
				"type": "occ",
				"energy": -0.37319,
				"method": "rhf"
			},
			{
				"type": "occ",
				"energy": -0.28886,
				"method": "rhf"
			},
			{
				"type": "occ",
				"energy": -0.28886,
				"method": "rhf"
			},
			{
				"type": "occ",
				"energy": -0.28885,
				"method": "rhf"
			},
			{
				"type": "unocc",
				"energy": 0.07564,
				"method": "rhf"
			},
			{
				"type": "unocc",
				"energy": 0.10292,
				"method": "rhf"
			},
			{
				"type": "unocc",
				"energy": 0.10292,
				"method": "rhf"
			},
			{
				"type": "unocc",
				"energy": 0.10293,
				"method": "rhf"
			},
			{
				"type": "unocc",
				"energy": 0.14049,
				"method": "rhf"
			}
		],
		"cosmo_sigma_profile": { 
			"-0.025": 0.0,
			"-0.024": 0.0,
			"-0.023": 0.0,
			"-0.022": 0.0,
			"-0.021": 0.0,
			"-0.02": 0.0,
			"-0.019": 0.0,
			"-0.018": 0.0,
			"-0.017": 0.0,
			"-0.016": 0.0,
			"-0.015": 0.0,
			"-0.014": 0.0,
			"-0.013": 0.0,
			"-0.012": 0.0,
			"-0.011": 0.0,
			"-0.01": 0.0,
			"-0.009": 0.0,
			"-0.008": 0.0,
			"-0.007": 0.0,
			"-0.006": 0.0,
			"-0.005": 0.0,
			"-0.004": 0.73173822735,
			"-0.003": 15.0003694938,
			"-0.002": 21.2219303938,
			"-0.001": 28.206156947,
			"0.0": 25.131410938,
			"0.001": 22.0608432371,
			"0.002": 29.7132213243,
			"0.003": 10.2473408456,
			"0.004": 2.084102674,
			"0.005": 0.0,
			"0.006": 0.0,
			"0.007": 0.0,
			"0.008": 0.0,
			"0.009": 0.0,
			"0.01": 0.0,
			"0.011": 0.0,
			"0.012": 0.0,
			"0.013": 0.0,
			"0.014": 0.0,
			"0.015": 0.0,
			"0.016": 0.0,
			"0.017": 0.0,
			"0.018": 0.0,
			"0.019": 0.0,
			"0.02": 0.0,
			"0.021": 0.0,
			"0.022": 0.0,
			"0.023": 0.0,
			"0.024": 0.0,
			"0.025": 0.0
		}
	}
}
