{
	 "smiles": "N#CC1(CCOCC1)N1CCN(CC2=CC=CC=C2)CC1", 
	 "Tm": 379.15, 
	 "num_atms": 44, 
	 "gaussian": { 
		 "optdone": 1, 
		 "sigma_profile": "no", 
		 "theory": "DFT", 
		 "functional": "B3LYP", 
		 "basiset": "6-31G**", 
		 "properties": { 
			 "R2extent": 8182.2176, 
			 "electric_dipole_moment_norm": 3.43709002646, 
			 "electric_quadrupole_moment_norm": 15.4830041026, 
			 "total_energy": -901.078854695, 
			 "HOMO_LUMO_gap": 0.19485, 
			 "cosmo_polarized_energy": -15.44, 
			 "cosmo_cavitation_energy": 42.93, 
			 "cosmo_dispersion_energy": -29.61, 
			 "cosmo_repulsion_energy": 2.25, 
			 "cosmo_total_nonelectrostatic_energy": 15.58, 
			 "SMD_solvation_energy": 3.22 
		},
		"coords": [
			{
				"x": -2.7600197756,
				"y": -1.3711960388,
				"z": 2.4151920049,
				"element": "N" 
			},
			{
				"x": -2.714683834,
				"y": -0.6971641983,
				"z": 1.469067585,
				"element": "C" 
			},
			{
				"x": -2.5711527941,
				"y": 0.1744118884,
				"z": 0.2603597835,
				"element": "C" 
			},
			{
				"x": -3.386864029,
				"y": 1.4919227326,
				"z": 0.49507997,
				"element": "C" 
			},
			{
				"x": -4.0428658552,
				"y": 1.9723615911,
				"z": -0.7957965733,
				"element": "C" 
			},
			{
				"x": -5.0203098206,
				"y": 1.0543066969,
				"z": -1.280633006,
				"element": "O" 
			},
			{
				"x": -4.712993857,
				"y": -0.3155487235,
				"z": -1.0294224224,
				"element": "C" 
			},
			{
				"x": -3.2089280084,
				"y": -0.5658738206,
				"z": -0.9562637258,
				"element": "C" 
			},
			{
				"x": -1.1548015447,
				"y": 0.4720710377,
				"z": 0.0012075183,
				"element": "N" 
			},
			{
				"x": -0.3715696037,
				"y": -0.6568444493,
				"z": -0.5371769169,
				"element": "C" 
			},
			{
				"x": 1.1020764127,
				"y": -0.2687462226,
				"z": -0.6213450394,
				"element": "C" 
			},
			{
				"x": 1.6689338782,
				"y": -0.1430591588,
				"z": 0.7189396632,
				"element": "N" 
			},
			{
				"x": 3.0028583354,
				"y": 0.4622793254,
				"z": 0.7702014368,
				"element": "C" 
			},
			{
				"x": 3.1118063704,
				"y": 1.9391969603,
				"z": 0.4056069029,
				"element": "C" 
			},
			{
				"x": 3.3087098746,
				"y": 2.3430385667,
				"z": -0.9235506705,
				"element": "C" 
			},
			{
				"x": 3.3676312137,
				"y": 3.6956954754,
				"z": -1.2641381973,
				"element": "C" 
			},
			{
				"x": 3.2383200164,
				"y": 4.6727470741,
				"z": -0.2756912035,
				"element": "C" 
			},
			{
				"x": 3.0605467897,
				"y": 4.2876350162,
				"z": 1.054707138,
				"element": "C" 
			},
			{
				"x": 3.0015642314,
				"y": 2.9338654159,
				"z": 1.3891738155,
				"element": "C" 
			},
			{
				"x": 0.6888127658,
				"y": 0.3158259361,
				"z": 1.7111995789,
				"element": "C" 
			},
			{
				"x": -0.4384072953,
				"y": 1.1665908053,
				"z": 1.1065759139,
				"element": "C" 
			},
			{
				"x": -4.1658460284,
				"y": 1.3137006485,
				"z": 1.2431784696,
				"element": "H" 
			},
			{
				"x": -2.7351865192,
				"y": 2.2731290167,
				"z": 0.8908505986,
				"element": "H" 
			},
			{
				"x": -3.2693665301,
				"y": 2.1555720001,
				"z": -1.5574051726,
				"element": "H" 
			},
			{
				"x": -4.5672228364,
				"y": 2.9178518186,
				"z": -0.6252045199,
				"element": "H" 
			},
			{
				"x": -5.1970719172,
				"y": -0.6528279807,
				"z": -0.0987215166,
				"element": "H" 
			},
			{
				"x": -5.1518702551,
				"y": -0.8912548079,
				"z": -1.8507941015,
				"element": "H" 
			},
			{
				"x": -2.7454046199,
				"y": -0.1719971136,
				"z": -1.8656892656,
				"element": "H" 
			},
			{
				"x": -3.0066083196,
				"y": -1.6392889013,
				"z": -0.9138476859,
				"element": "H" 
			},
			{
				"x": -0.4700047604,
				"y": -1.5716440294,
				"z": 0.0729284377,
				"element": "H" 
			},
			{
				"x": -0.7246808303,
				"y": -0.8949936967,
				"z": -1.5434827556,
				"element": "H" 
			},
			{
				"x": 1.1697536685,
				"y": 0.6628790699,
				"z": -1.2104658103,
				"element": "H" 
			},
			{
				"x": 1.6513947629,
				"y": -1.0421389118,
				"z": -1.1756555245,
				"element": "H" 
			},
			{
				"x": 3.394033513,
				"y": 0.31105341,
				"z": 1.7830092807,
				"element": "H" 
			},
			{
				"x": 3.6441426859,
				"y": -0.1205954184,
				"z": 0.0963698213,
				"element": "H" 
			},
			{
				"x": 3.4343940502,
				"y": 1.5893459488,
				"z": -1.6971205059,
				"element": "H" 
			},
			{
				"x": 3.5230092037,
				"y": 3.985926435,
				"z": -2.2995940178,
				"element": "H" 
			},
			{
				"x": 3.2884707958,
				"y": 5.7256753473,
				"z": -0.5378168187,
				"element": "H" 
			},
			{
				"x": 2.978613604,
				"y": 5.0409943316,
				"z": 1.8333976528,
				"element": "H" 
			},
			{
				"x": 2.8862041236,
				"y": 2.6453607589,
				"z": 2.4314271032,
				"element": "H" 
			},
			{
				"x": 1.1937368008,
				"y": 0.9026454878,
				"z": 2.4839631333,
				"element": "H" 
			},
			{
				"x": 0.2428416558,
				"y": -0.5504327126,
				"z": 2.2181478413,
				"element": "H" 
			},
			{
				"x": -0.0256299158,
				"y": 2.1102812481,
				"z": 0.7301685357,
				"element": "H" 
			},
			{
				"x": -1.1372658023,
				"y": 1.415442141,
				"z": 1.9107632648,
				"element": "H" 
			}
		],
		 "valence_orbital": [ 
			{
				"type": "occ",
				"energy": -0.25383,
				"method": "rhf"
			},
			{
				"type": "occ",
				"energy": -0.25007,
				"method": "rhf"
			},
			{
				"type": "occ",
				"energy": -0.24958,
				"method": "rhf"
			},
			{
				"type": "occ",
				"energy": -0.2269,
				"method": "rhf"
			},
			{
				"type": "occ",
				"energy": -0.20201,
				"method": "rhf"
			},
			{
				"type": "unocc",
				"energy": -0.00716,
				"method": "rhf"
			},
			{
				"type": "unocc",
				"energy": -0.00652,
				"method": "rhf"
			},
			{
				"type": "unocc",
				"energy": 0.02806,
				"method": "rhf"
			},
			{
				"type": "unocc",
				"energy": 0.03925,
				"method": "rhf"
			},
			{
				"type": "unocc",
				"energy": 0.07093,
				"method": "rhf"
			}
		],
		"cosmo_sigma_profile": { 
			"0.0": 0.0,
			"0.0": 0.0,
			"0.0": 0.0,
			"0.0": 0.0,
			"0.0": 0.0,
			"0.0": 0.0,
			"0.0": 0.0,
			"0.0": 0.0,
			"0.0": 0.0,
			"0.0": 0.0,
			"0.0": 0.0,
			"0.0": 0.0,
			"0.0": 0.0,
			"0.0": 0.0,
			"0.0": 0.0,
			"0.0": 0.0,
			"0.0": 0.0,
			"0.0": 0.0,
			"0.0": 0.0,
			"0.0": 0.0,
			"0.0": 0.0,
			"0.0": 0.0,
			"0.0": 0.0,
			"0.0": 0.0,
			"0.0": 0.0,
			"0.0": 0.0,
			"0.0": 0.0,
			"0.0": 0.0,
			"0.0": 0.0,
			"0.0": 0.0,
			"0.0": 0.0,
			"0.0": 0.0,
			"0.0": 0.0,
			"0.0": 0.0,
			"0.0": 0.0,
			"0.0": 0.0,
			"0.0": 0.0,
			"0.0": 0.0,
			"0.0": 0.0,
			"0.0": 0.0,
			"0.0": 0.0,
			"0.0": 0.0,
			"0.0": 0.0,
			"0.0": 0.0,
			"0.0": 0.0,
			"0.0": 0.0,
			"0.0": 0.0,
			"0.0": 0.0,
			"0.0": 0.0,
			"0.0": 0.0,
			"0.0": 0.0
		}
	}
}
