{
	 "smiles": "CCOC(=O)C1=CC=CC(=C1)[N+]([O-])=O", 
	 "Tm": 317.65, 
	 "num_atms": 23, 
	 "gaussian": { 
		 "optdone": 1, 
		 "sigma_profile": "yes", 
		 "theory": "DFT", 
		 "functional": "B3LYP", 
		 "basiset": "6-31G**", 
		 "properties": { 
			 "R2extent": 5585.2562, 
			 "electric_dipole_moment_norm": 5.861516918, 
			 "electric_quadrupole_moment_norm": 20.9150692791, 
			 "total_energy": -703.946824805, 
			 "HOMO_LUMO_gap": 0.19108, 
			 "cosmo_polarized_energy": -10.8, 
			 "cosmo_cavitation_energy": 28.56, 
			 "cosmo_dispersion_energy": -20.67, 
			 "cosmo_repulsion_energy": 1.64, 
			 "cosmo_total_nonelectrostatic_energy": 9.53, 
			 "SMD_solvation_energy": 8.37 
		},
		"coords": [
			{
				"x": 1.4113844566,
				"y": 0.564512315,
				"z": -2.7873057687,
				"element": "C" 
			},
			{
				"x": 1.594466993,
				"y": 1.4260763769,
				"z": -1.5475564648,
				"element": "C" 
			},
			{
				"x": 0.9895228028,
				"y": 0.808362841,
				"z": -0.3828280768,
				"element": "O" 
			},
			{
				"x": 1.745219706,
				"y": -0.0884780847,
				"z": 0.2838821501,
				"element": "C" 
			},
			{
				"x": 2.8792452011,
				"y": -0.3929786028,
				"z": -0.0283327279,
				"element": "O" 
			},
			{
				"x": 1.0260519959,
				"y": -0.6650500073,
				"z": 1.4618245583,
				"element": "C" 
			},
			{
				"x": -0.2845575647,
				"y": -0.2980040897,
				"z": 1.7990280536,
				"element": "C" 
			},
			{
				"x": -0.9103272523,
				"y": -0.8666845321,
				"z": 2.9094786064,
				"element": "C" 
			},
			{
				"x": -0.2381368991,
				"y": -1.8035519572,
				"z": 3.6919439574,
				"element": "C" 
			},
			{
				"x": 1.0647604864,
				"y": -2.1550055717,
				"z": 3.3391694406,
				"element": "C" 
			},
			{
				"x": 1.7105698336,
				"y": -1.60449401,
				"z": 2.2390313354,
				"element": "C" 
			},
			{
				"x": 1.7805298478,
				"y": -3.1464496052,
				"z": 4.1637911535,
				"element": "N" 
			},
			{
				"x": 2.9270587517,
				"y": -3.4406685539,
				"z": 3.8335990682,
				"element": "O" 
			},
			{
				"x": 1.1831204374,
				"y": -3.6166150533,
				"z": 5.1313461742,
				"element": "O" 
			},
			{
				"x": 1.9482601544,
				"y": -0.3812113885,
				"z": -2.6817452941,
				"element": "H" 
			},
			{
				"x": 1.8093155021,
				"y": 1.0885607655,
				"z": -3.6625072459,
				"element": "H" 
			},
			{
				"x": 0.352492806,
				"y": 0.3550158888,
				"z": -2.9648937808,
				"element": "H" 
			},
			{
				"x": 2.652269561,
				"y": 1.6015348916,
				"z": -1.3395687455,
				"element": "H" 
			},
			{
				"x": 1.0772979452,
				"y": 2.383574843,
				"z": -1.6422137372,
				"element": "H" 
			},
			{
				"x": -0.8044219484,
				"y": 0.4306935962,
				"z": 1.1882430272,
				"element": "H" 
			},
			{
				"x": -1.9247298579,
				"y": -0.5796243308,
				"z": 3.1668280591,
				"element": "H" 
			},
			{
				"x": -0.6955651327,
				"y": -2.2628359909,
				"z": 4.5592868747,
				"element": "H" 
			},
			{
				"x": 2.722472174,
				"y": -1.89327974,
				"z": 1.9851993826,
				"element": "H" 
			}
		],
		 "valence_orbital": [ 
			{
				"type": "occ",
				"energy": -0.31036,
				"method": "rhf"
			},
			{
				"type": "occ",
				"energy": -0.29452,
				"method": "rhf"
			},
			{
				"type": "occ",
				"energy": -0.29004,
				"method": "rhf"
			},
			{
				"type": "occ",
				"energy": -0.28778,
				"method": "rhf"
			},
			{
				"type": "occ",
				"energy": -0.2847,
				"method": "rhf"
			},
			{
				"type": "unocc",
				"energy": -0.09362,
				"method": "rhf"
			},
			{
				"type": "unocc",
				"energy": -0.06338,
				"method": "rhf"
			},
			{
				"type": "unocc",
				"energy": -0.01205,
				"method": "rhf"
			},
			{
				"type": "unocc",
				"energy": 0.04645,
				"method": "rhf"
			},
			{
				"type": "unocc",
				"energy": 0.07813,
				"method": "rhf"
			}
		],
		"cosmo_sigma_profile": { 
			"-0.025": 0.0,
			"-0.024": 0.0,
			"-0.023": 0.0,
			"-0.022": 0.0,
			"-0.021": 0.0,
			"-0.02": 0.0,
			"-0.019": 0.0,
			"-0.018": 0.0,
			"-0.017": 0.0,
			"-0.016": 0.0,
			"-0.015": 0.0,
			"-0.014": 0.0,
			"-0.013": 0.0,
			"-0.012": 0.0,
			"-0.011": 0.0,
			"-0.01": 0.0,
			"-0.009": 0.134320999988,
			"-0.008": 3.15985256006,
			"-0.007": 7.82483665311,
			"-0.006": 9.06020007213,
			"-0.005": 11.3861142177,
			"-0.004": 19.8993717091,
			"-0.003": 22.7488334477,
			"-0.002": 23.4114195345,
			"-0.001": 27.3655650804,
			"0.0": 25.1852481831,
			"0.001": 14.3900363891,
			"0.002": 7.61970182761,
			"0.003": 5.37520929889,
			"0.004": 6.9209330161,
			"0.005": 5.63126469716,
			"0.006": 5.18929386245,
			"0.007": 10.7464940668,
			"0.008": 7.72035588963,
			"0.009": 5.65011361239,
			"0.01": 3.6361453178,
			"0.011": 3.64707061088,
			"0.012": 1.48146010239,
			"0.013": 0.0,
			"0.014": 0.0,
			"0.015": 0.0,
			"0.016": 0.0,
			"0.017": 0.0,
			"0.018": 0.0,
			"0.019": 0.0,
			"0.02": 0.0,
			"0.021": 0.0,
			"0.022": 0.0,
			"0.023": 0.0,
			"0.024": 0.0,
			"0.025": 0.0
		}
	}
}
