{
	 "smiles": "CCOC1=C(C=CC=C1F)C(O)=O", 
	 "Tm": 317.15, 
	 "num_atms": 22, 
	 "gaussian": { 
		 "optdone": 1, 
		 "sigma_profile": "yes", 
		 "theory": "DFT", 
		 "functional": "B3LYP", 
		 "basiset": "6-31G**", 
		 "properties": { 
			 "R2extent": 2659.5264, 
			 "electric_dipole_moment_norm": 5.53988459176, 
			 "electric_quadrupole_moment_norm": 15.9847885128, 
			 "total_energy": -673.891333221, 
			 "HOMO_LUMO_gap": 0.19565, 
			 "cosmo_polarized_energy": -12.04, 
			 "cosmo_cavitation_energy": 26.29, 
			 "cosmo_dispersion_energy": -19.25, 
			 "cosmo_repulsion_energy": 1.49, 
			 "cosmo_total_nonelectrostatic_energy": 8.53, 
			 "SMD_solvation_energy": 6.41 
		},
		"coords": [
			{
				"x": -2.9135303737,
				"y": -0.7883344135,
				"z": -0.4865395551,
				"element": "C" 
			},
			{
				"x": -1.8389795415,
				"y": -0.7280244033,
				"z": 0.5821462049,
				"element": "C" 
			},
			{
				"x": -0.7083938209,
				"y": -0.0359484893,
				"z": -0.0028256594,
				"element": "O" 
			},
			{
				"x": 0.4631610354,
				"y": 0.213845092,
				"z": 0.6607237012,
				"element": "C" 
			},
			{
				"x": 1.4767982432,
				"y": 0.901497569,
				"z": -0.0493764232,
				"element": "C" 
			},
			{
				"x": 2.6939691244,
				"y": 1.1803657589,
				"z": 0.5863194362,
				"element": "C" 
			},
			{
				"x": 2.9332621288,
				"y": 0.798312426,
				"z": 1.9008268731,
				"element": "C" 
			},
			{
				"x": 1.9389652256,
				"y": 0.1212196311,
				"z": 2.6050088412,
				"element": "C" 
			},
			{
				"x": 0.7301676591,
				"y": -0.1604702726,
				"z": 1.9864602687,
				"element": "C" 
			},
			{
				"x": -0.2085749733,
				"y": -0.8217071846,
				"z": 2.7116587787,
				"element": "F" 
			},
			{
				"x": 1.3643331226,
				"y": 1.3805083088,
				"z": -1.4817547814,
				"element": "C" 
			},
			{
				"x": 0.2189243908,
				"y": 1.1400978415,
				"z": -2.1421689675,
				"element": "O" 
			},
			{
				"x": 2.2786274319,
				"y": 1.9625311354,
				"z": -2.0243091309,
				"element": "O" 
			},
			{
				"x": -3.2165947153,
				"y": 0.2162010697,
				"z": -0.7958409844,
				"element": "H" 
			},
			{
				"x": -3.7934049903,
				"y": -1.3050275735,
				"z": -0.0914653392,
				"element": "H" 
			},
			{
				"x": -2.5619601957,
				"y": -1.3348850329,
				"z": -1.3664758646,
				"element": "H" 
			},
			{
				"x": -2.1786214225,
				"y": -0.1785775363,
				"z": 1.4637127595,
				"element": "H" 
			},
			{
				"x": -1.5252761587,
				"y": -1.7273910248,
				"z": 0.8940864019,
				"element": "H" 
			},
			{
				"x": 3.4395844282,
				"y": 1.7083150862,
				"z": 0.0034719058,
				"element": "H" 
			},
			{
				"x": 3.8815726994,
				"y": 1.022525063,
				"z": 2.3772752321,
				"element": "H" 
			},
			{
				"x": 2.0733887832,
				"y": -0.1995294726,
				"z": 3.6327140015,
				"element": "H" 
			},
			{
				"x": -0.4000180807,
				"y": 0.6645764217,
				"z": -1.5557476992,
				"element": "H" 
			}
		],
		 "valence_orbital": [ 
			{
				"type": "occ",
				"energy": -0.3357,
				"method": "rhf"
			},
			{
				"type": "occ",
				"energy": -0.30091,
				"method": "rhf"
			},
			{
				"type": "occ",
				"energy": -0.26407,
				"method": "rhf"
			},
			{
				"type": "occ",
				"energy": -0.26401,
				"method": "rhf"
			},
			{
				"type": "occ",
				"energy": -0.24461,
				"method": "rhf"
			},
			{
				"type": "unocc",
				"energy": -0.04896,
				"method": "rhf"
			},
			{
				"type": "unocc",
				"energy": -0.00917,
				"method": "rhf"
			},
			{
				"type": "unocc",
				"energy": 0.0534,
				"method": "rhf"
			},
			{
				"type": "unocc",
				"energy": 0.05962,
				"method": "rhf"
			},
			{
				"type": "unocc",
				"energy": 0.08507,
				"method": "rhf"
			}
		],
		"cosmo_sigma_profile": { 
			"-0.025": 0.0,
			"-0.024": 0.0,
			"-0.023": 0.0,
			"-0.022": 0.0,
			"-0.021": 0.0,
			"-0.02": 0.0,
			"-0.019": 0.0,
			"-0.018": 0.0,
			"-0.017": 0.0,
			"-0.016": 0.0,
			"-0.015": 0.0,
			"-0.014": 0.0,
			"-0.013": 0.0,
			"-0.012": 0.0,
			"-0.011": 0.0,
			"-0.01": 0.0,
			"-0.009": 0.12714641046,
			"-0.008": 1.60204521949,
			"-0.007": 5.15487635483,
			"-0.006": 9.2077725558,
			"-0.005": 20.0210241323,
			"-0.004": 22.4076540181,
			"-0.003": 18.4052031084,
			"-0.002": 17.7986077932,
			"-0.001": 18.952175354,
			"0.0": 18.2972796388,
			"0.001": 14.8857508656,
			"0.002": 12.9618733615,
			"0.003": 12.6718186828,
			"0.004": 7.22861238728,
			"0.005": 2.09874344873,
			"0.006": 2.6205974052,
			"0.007": 2.42758616323,
			"0.008": 1.90285803523,
			"0.009": 2.96120166691,
			"0.01": 3.67353887114,
			"0.011": 5.50367490607,
			"0.012": 5.63688126212,
			"0.013": 2.6520188352,
			"0.014": 0.718001471479,
			"0.015": 0.0,
			"0.016": 0.0,
			"0.017": 0.0,
			"0.018": 0.0,
			"0.019": 0.0,
			"0.02": 0.0,
			"0.021": 0.0,
			"0.022": 0.0,
			"0.023": 0.0,
			"0.024": 0.0,
			"0.025": 0.0
		}
	}
}
