{
	 "smiles": "[O-][N+](=O)C1=CC=C(C=C1)S(=O)(=O)OCC1=CC=CC=C1OS(=O)(=O)C1=CC=C(C=C1)[N+]([O-])=O", 
	 "Tm": 478.15, 
	 "num_atms": 47, 
	 "gaussian": { 
		 "optdone": 1, 
		 "sigma_profile": "yes", 
		 "theory": "DFT", 
		 "functional": "B3LYP", 
		 "basiset": "6-31G**", 
		 "properties": { 
			 "R2extent": 16794.3146, 
			 "electric_dipole_moment_norm": 3.81875130115, 
			 "electric_quadrupole_moment_norm": 30.8125286658, 
			 "total_energy": -2390.21879476, 
			 "HOMO_LUMO_gap": 0.15238, 
			 "cosmo_polarized_energy": -23.95, 
			 "cosmo_cavitation_energy": 56.59, 
			 "cosmo_dispersion_energy": -37.19, 
			 "cosmo_repulsion_energy": 2.63, 
			 "cosmo_total_nonelectrostatic_energy": 22.03, 
			 "SMD_solvation_energy": 11.81 
		},
		"coords": [
			{
				"x": 5.3479134443,
				"y": 1.4432233448,
				"z": 3.4614605455,
				"element": "O" 
			},
			{
				"x": 4.7443021577,
				"y": 2.4192819748,
				"z": 3.0234908759,
				"element": "N" 
			},
			{
				"x": 5.2085338043,
				"y": 3.5527732642,
				"z": 2.9230503119,
				"element": "O" 
			},
			{
				"x": 3.3495286221,
				"y": 2.2139796441,
				"z": 2.5784323949,
				"element": "C" 
			},
			{
				"x": 2.6435461177,
				"y": 3.3050783765,
				"z": 2.075241907,
				"element": "C" 
			},
			{
				"x": 1.3316797871,
				"y": 3.1106644076,
				"z": 1.652231006,
				"element": "C" 
			},
			{
				"x": 0.7739249151,
				"y": 1.8331351258,
				"z": 1.7441187083,
				"element": "C" 
			},
			{
				"x": 1.4805607152,
				"y": 0.7460428602,
				"z": 2.2623451934,
				"element": "C" 
			},
			{
				"x": 2.7942508765,
				"y": 0.9410717741,
				"z": 2.684577721,
				"element": "C" 
			},
			{
				"x": -0.9176372913,
				"y": 1.601675175,
				"z": 1.2044682611,
				"element": "S" 
			},
			{
				"x": -1.4961896517,
				"y": 0.456464079,
				"z": 1.9051125572,
				"element": "O" 
			},
			{
				"x": -1.6092371111,
				"y": 2.8897081268,
				"z": 1.1931052132,
				"element": "O" 
			},
			{
				"x": -0.5923697606,
				"y": 1.1662161747,
				"z": -0.346607913,
				"element": "O" 
			},
			{
				"x": -1.7079538566,
				"y": 1.291848038,
				"z": -1.2893590881,
				"element": "C" 
			},
			{
				"x": -1.1513486095,
				"y": 1.0671525236,
				"z": -2.6697881651,
				"element": "C" 
			},
			{
				"x": -0.0569961936,
				"y": 1.8202991822,
				"z": -3.1170899556,
				"element": "C" 
			},
			{
				"x": 0.4565873353,
				"y": 1.6536285391,
				"z": -4.4002013744,
				"element": "C" 
			},
			{
				"x": -0.1346041296,
				"y": 0.7362458628,
				"z": -5.2727076819,
				"element": "C" 
			},
			{
				"x": -1.2327357225,
				"y": -0.0134810808,
				"z": -4.8596985855,
				"element": "C" 
			},
			{
				"x": -1.7218419356,
				"y": 0.1470333556,
				"z": -3.5612160557,
				"element": "C" 
			},
			{
				"x": -2.8735564548,
				"y": -0.542860781,
				"z": -3.1590480642,
				"element": "O" 
			},
			{
				"x": -2.8704075791,
				"y": -2.212804257,
				"z": -3.0204108527,
				"element": "S" 
			},
			{
				"x": -1.9158475842,
				"y": -2.7699804196,
				"z": -3.9709304862,
				"element": "O" 
			},
			{
				"x": -4.2828286947,
				"y": -2.5521612144,
				"z": -3.0332506165,
				"element": "O" 
			},
			{
				"x": -2.2270565774,
				"y": -2.4294270265,
				"z": -1.3651267034,
				"element": "C" 
			},
			{
				"x": -0.8442076717,
				"y": -2.5033848743,
				"z": -1.1803246498,
				"element": "C" 
			},
			{
				"x": -0.3455621769,
				"y": -2.6064867746,
				"z": 0.1154025661,
				"element": "C" 
			},
			{
				"x": -1.246672052,
				"y": -2.6468951903,
				"z": 1.1761788477,
				"element": "C" 
			},
			{
				"x": -2.6272401089,
				"y": -2.6058589513,
				"z": 0.9969775343,
				"element": "C" 
			},
			{
				"x": -3.1263084298,
				"y": -2.4871267114,
				"z": -0.2966760339,
				"element": "C" 
			},
			{
				"x": -0.7170655883,
				"y": -2.7236094943,
				"z": 2.5492741294,
				"element": "N" 
			},
			{
				"x": 0.4927359273,
				"y": -2.5344363894,
				"z": 2.701329857,
				"element": "O" 
			},
			{
				"x": -1.5065231734,
				"y": -2.9731519959,
				"z": 3.4522543066,
				"element": "O" 
			},
			{
				"x": 3.1213633203,
				"y": 4.2752650849,
				"z": 2.0270500386,
				"element": "H" 
			},
			{
				"x": 0.7408637708,
				"y": 3.935102975,
				"z": 1.2697237455,
				"element": "H" 
			},
			{
				"x": 1.0171073591,
				"y": -0.2306113223,
				"z": 2.3482899824,
				"element": "H" 
			},
			{
				"x": 3.3832408125,
				"y": 0.1306082382,
				"z": 3.094779701,
				"element": "H" 
			},
			{
				"x": -2.4766692355,
				"y": 0.5604395714,
				"z": -1.0388495441,
				"element": "H" 
			},
			{
				"x": -2.1254100463,
				"y": 2.2982779131,
				"z": -1.1885577694,
				"element": "H" 
			},
			{
				"x": 0.3955108526,
				"y": 2.5350339369,
				"z": -2.4367569869,
				"element": "H" 
			},
			{
				"x": 1.3083494454,
				"y": 2.2440089423,
				"z": -4.7231567884,
				"element": "H" 
			},
			{
				"x": 0.2511653457,
				"y": 0.610193755,
				"z": -6.2795128946,
				"element": "H" 
			},
			{
				"x": -1.7114252708,
				"y": -0.7229344486,
				"z": -5.5227327171,
				"element": "H" 
			},
			{
				"x": -0.1766536074,
				"y": -2.4869059662,
				"z": -2.033864362,
				"element": "H" 
			},
			{
				"x": 0.7178166106,
				"y": -2.6541819016,
				"z": 0.3116379029,
				"element": "H" 
			},
			{
				"x": -3.28089915,
				"y": -2.6485990964,
				"z": 1.8586429829,
				"element": "H" 
			},
			{
				"x": -4.1933335561,
				"y": -2.44405435,
				"z": -0.4828090014,
				"element": "H" 
			}
		],
		 "valence_orbital": [ 
			{
				"type": "occ",
				"energy": -0.30619,
				"method": "rhf"
			},
			{
				"type": "occ",
				"energy": -0.30372,
				"method": "rhf"
			},
			{
				"type": "occ",
				"energy": -0.30234,
				"method": "rhf"
			},
			{
				"type": "occ",
				"energy": -0.27564,
				"method": "rhf"
			},
			{
				"type": "occ",
				"energy": -0.27005,
				"method": "rhf"
			},
			{
				"type": "unocc",
				"energy": -0.11767,
				"method": "rhf"
			},
			{
				"type": "unocc",
				"energy": -0.11367,
				"method": "rhf"
			},
			{
				"type": "unocc",
				"energy": -0.05579,
				"method": "rhf"
			},
			{
				"type": "unocc",
				"energy": -0.05188,
				"method": "rhf"
			},
			{
				"type": "unocc",
				"energy": -0.05056,
				"method": "rhf"
			}
		],
		"cosmo_sigma_profile": { 
			"-0.025": 0.0,
			"-0.024": 0.0,
			"-0.023": 0.0,
			"-0.022": 0.0,
			"-0.021": 0.0,
			"-0.02": 0.0,
			"-0.019": 0.0,
			"-0.018": 0.0,
			"-0.017": 0.0,
			"-0.016": 0.0,
			"-0.015": 0.0,
			"-0.014": 0.0,
			"-0.013": 0.0,
			"-0.012": 0.0,
			"-0.011": 0.0,
			"-0.01": 0.865060104787,
			"-0.009": 7.51957561659,
			"-0.008": 14.1773543473,
			"-0.007": 17.4629688588,
			"-0.006": 27.3092576183,
			"-0.005": 31.6474993102,
			"-0.004": 26.53720039,
			"-0.003": 32.6342718314,
			"-0.002": 42.4949477718,
			"-0.001": 38.0120878465,
			"0.0": 28.6385501239,
			"0.001": 22.0265090763,
			"0.002": 22.6648583185,
			"0.003": 22.2552418485,
			"0.004": 17.874898885,
			"0.005": 14.5312209289,
			"0.006": 20.4487875229,
			"0.007": 22.5217878101,
			"0.008": 19.9349315954,
			"0.009": 20.045686318,
			"0.01": 6.63610668807,
			"0.011": 0.420194855792,
			"0.012": 0.0,
			"0.013": 0.0,
			"0.014": 0.0,
			"0.015": 0.0,
			"0.016": 0.0,
			"0.017": 0.0,
			"0.018": 0.0,
			"0.019": 0.0,
			"0.02": 0.0,
			"0.021": 0.0,
			"0.022": 0.0,
			"0.023": 0.0,
			"0.024": 0.0,
			"0.025": 0.0
		}
	}
}
