{
	 "smiles": "ClC1=CC2=C(N=CC=C2)C2=C1C=CC=N2", 
	 "Tm": 396.15, 
	 "num_atms": 22, 
	 "gaussian": { 
		 "optdone": 1, 
		 "sigma_profile": "yes", 
		 "theory": "DFT", 
		 "functional": "B3LYP", 
		 "basiset": "6-31G**", 
		 "properties": { 
			 "R2extent": 4490.0077, 
			 "electric_dipole_moment_norm": 1.63608644637, 
			 "electric_quadrupole_moment_norm": 17.2306557647, 
			 "total_energy": -1031.19938523, 
			 "HOMO_LUMO_gap": 0.17168, 
			 "cosmo_polarized_energy": -12.35, 
			 "cosmo_cavitation_energy": 27.91, 
			 "cosmo_dispersion_energy": -21.21, 
			 "cosmo_repulsion_energy": 1.61, 
			 "cosmo_total_nonelectrostatic_energy": 8.3, 
			 "SMD_solvation_energy": 1.64 
		},
		"coords": [
			{
				"x": 2.6952863306,
				"y": 2.6347609536,
				"z": -0.6049940447,
				"element": "Cl" 
			},
			{
				"x": 1.1462092784,
				"y": 1.9635838879,
				"z": -1.106322482,
				"element": "C" 
			},
			{
				"x": 0.3465696799,
				"y": 2.7038009795,
				"z": -1.9201338196,
				"element": "C" 
			},
			{
				"x": -0.9208168533,
				"y": 2.194624978,
				"z": -2.3506861716,
				"element": "C" 
			},
			{
				"x": -1.3600558908,
				"y": 0.9076128144,
				"z": -1.9327004765,
				"element": "C" 
			},
			{
				"x": -2.5479093023,
				"y": 0.3880870155,
				"z": -2.3146309514,
				"element": "N" 
			},
			{
				"x": -3.3207164648,
				"y": 1.1138338823,
				"z": -3.1063801994,
				"element": "C" 
			},
			{
				"x": -2.9827451437,
				"y": 2.3993269395,
				"z": -3.5787411817,
				"element": "C" 
			},
			{
				"x": -1.7735366157,
				"y": 2.9397824033,
				"z": -3.1958868614,
				"element": "C" 
			},
			{
				"x": -0.495294637,
				"y": 0.1208639512,
				"z": -1.0596106289,
				"element": "C" 
			},
			{
				"x": 0.7643071651,
				"y": 0.6537554403,
				"z": -0.6453998135,
				"element": "C" 
			},
			{
				"x": 1.5670528974,
				"y": -0.1437962587,
				"z": 0.199477382,
				"element": "C" 
			},
			{
				"x": 1.1138190578,
				"y": -1.3869694553,
				"z": 0.587582424,
				"element": "C" 
			},
			{
				"x": -0.1437742834,
				"y": -1.8184846691,
				"z": 0.1227128433,
				"element": "C" 
			},
			{
				"x": -0.9222438551,
				"y": -1.0999656058,
				"z": -0.6686018745,
				"element": "N" 
			},
			{
				"x": 0.6622737058,
				"y": 3.6879176633,
				"z": -2.2507299954,
				"element": "H" 
			},
			{
				"x": -4.2703566927,
				"y": 0.6644163038,
				"z": -3.3942879007,
				"element": "H" 
			},
			{
				"x": -3.6646123459,
				"y": 2.9407649567,
				"z": -4.2267799624,
				"element": "H" 
			},
			{
				"x": -1.4656419528,
				"y": 3.9264826565,
				"z": -3.5320406099,
				"element": "H" 
			},
			{
				"x": 2.5285735199,
				"y": 0.2299871397,
				"z": 0.5325093597,
				"element": "H" 
			},
			{
				"x": 1.7070398133,
				"y": -2.0236268195,
				"z": 1.236104337,
				"element": "H" 
			},
			{
				"x": -0.5254274107,
				"y": -2.7962591572,
				"z": 0.4142406277,
				"element": "H" 
			}
		],
		 "valence_orbital": [ 
			{
				"type": "occ",
				"energy": -0.29638,
				"method": "rhf"
			},
			{
				"type": "occ",
				"energy": -0.26271,
				"method": "rhf"
			},
			{
				"type": "occ",
				"energy": -0.25149,
				"method": "rhf"
			},
			{
				"type": "occ",
				"energy": -0.24684,
				"method": "rhf"
			},
			{
				"type": "occ",
				"energy": -0.23432,
				"method": "rhf"
			},
			{
				"type": "unocc",
				"energy": -0.06264,
				"method": "rhf"
			},
			{
				"type": "unocc",
				"energy": -0.05706,
				"method": "rhf"
			},
			{
				"type": "unocc",
				"energy": -0.01409,
				"method": "rhf"
			},
			{
				"type": "unocc",
				"energy": 0.01467,
				"method": "rhf"
			},
			{
				"type": "unocc",
				"energy": 0.02311,
				"method": "rhf"
			}
		],
		"cosmo_sigma_profile": { 
			"-0.025": 0.0,
			"-0.024": 0.0,
			"-0.023": 0.0,
			"-0.022": 0.0,
			"-0.021": 0.0,
			"-0.02": 0.0,
			"-0.019": 0.0,
			"-0.018": 0.0,
			"-0.017": 0.0,
			"-0.016": 0.0,
			"-0.015": 0.0,
			"-0.014": 0.0,
			"-0.013": 0.0,
			"-0.012": 0.0,
			"-0.011": 0.0,
			"-0.01": 0.0,
			"-0.009": 0.772799402435,
			"-0.008": 4.70375424051,
			"-0.007": 12.155754692,
			"-0.006": 16.2957633518,
			"-0.005": 12.0442421211,
			"-0.004": 11.372314351,
			"-0.003": 9.83955294603,
			"-0.002": 11.5348910284,
			"-0.001": 19.8642103634,
			"0.0": 29.923327455,
			"0.001": 35.8947703723,
			"0.002": 20.0703164209,
			"0.003": 10.1516588582,
			"0.004": 10.4235067956,
			"0.005": 3.40822961018,
			"0.006": 2.03999349623,
			"0.007": 1.92468120677,
			"0.008": 1.58822779838,
			"0.009": 1.37311674949,
			"0.01": 2.11628381976,
			"0.011": 1.03312811419,
			"0.012": 1.50116302404,
			"0.013": 1.18049747702,
			"0.014": 0.802745555475,
			"0.015": 1.04691402911,
			"0.016": 0.912086262659,
			"0.017": 1.49752342767,
			"0.018": 0.566754475798,
			"0.019": 0.945895865014,
			"0.02": 0.85536964178,
			"0.021": 0.512941395248,
			"0.022": 0.0490930094444,
			"0.023": 0.0,
			"0.024": 0.0,
			"0.025": 0.0
		}
	}
}
