{
	 "smiles": "CC(=O)OC1C2CC(OC(C)=O)C3C1(C(CC1C4(C)CCCC31C(O)OC4)OC(C)=O)C(=O)C2=C", 
	 "Tm": 499.15, 
	 "num_atms": 69, 
	 "gaussian": { 
		 "optdone": 1, 
		 "sigma_profile": "yes", 
		 "theory": "DFT", 
		 "functional": "B3LYP", 
		 "basiset": "6-31G**", 
		 "properties": { 
			 "R2extent": 14144.5586, 
			 "electric_dipole_moment_norm": 1.10062464537, 
			 "electric_quadrupole_moment_norm": 26.7806936238, 
			 "total_energy": -1688.27015728, 
			 "HOMO_LUMO_gap": 0.17972, 
			 "cosmo_polarized_energy": -24.14, 
			 "cosmo_cavitation_energy": 62.84, 
			 "cosmo_dispersion_energy": -39.06, 
			 "cosmo_repulsion_energy": 2.89, 
			 "cosmo_total_nonelectrostatic_energy": 26.68, 
			 "SMD_solvation_energy": 13.7 
		},
		"coords": [
			{
				"x": 2.3909170447,
				"y": -2.7965559863,
				"z": -4.4855745154,
				"element": "C" 
			},
			{
				"x": 1.1275695701,
				"y": -2.0801666427,
				"z": -4.0743012364,
				"element": "C" 
			},
			{
				"x": 0.0200017248,
				"y": -2.2878070182,
				"z": -4.5187375704,
				"element": "O" 
			},
			{
				"x": 1.3945798933,
				"y": -1.1510355426,
				"z": -3.1213121681,
				"element": "O" 
			},
			{
				"x": 0.2690723645,
				"y": -0.4015327397,
				"z": -2.6166701238,
				"element": "C" 
			},
			{
				"x": -0.0642762139,
				"y": 0.7748065192,
				"z": -3.5624268591,
				"element": "C" 
			},
			{
				"x": -1.3725279025,
				"y": 1.460746826,
				"z": -3.0691448963,
				"element": "C" 
			},
			{
				"x": -1.7624233722,
				"y": 1.0750528738,
				"z": -1.6282981642,
				"element": "C" 
			},
			{
				"x": -2.6124025514,
				"y": 2.1329251608,
				"z": -1.0946255788,
				"element": "O" 
			},
			{
				"x": -3.9362690102,
				"y": 2.070933479,
				"z": -1.3838419357,
				"element": "C" 
			},
			{
				"x": -4.6656316337,
				"y": 3.2592713674,
				"z": -0.8037439848,
				"element": "C" 
			},
			{
				"x": -4.4502584719,
				"y": 1.1725090601,
				"z": -2.015439495,
				"element": "O" 
			},
			{
				"x": -0.6088284527,
				"y": 0.8864859198,
				"z": -0.601945267,
				"element": "C" 
			},
			{
				"x": 0.7012130857,
				"y": 0.3258270871,
				"z": -1.3179565543,
				"element": "C" 
			},
			{
				"x": 1.6684874477,
				"y": -0.513018751,
				"z": -0.4190808937,
				"element": "C" 
			},
			{
				"x": 1.3835221078,
				"y": -0.3849890786,
				"z": 1.076331955,
				"element": "C" 
			},
			{
				"x": -0.0546576276,
				"y": -0.8831644664,
				"z": 1.2498261919,
				"element": "C" 
			},
			{
				"x": -0.4782346653,
				"y": -1.3878637292,
				"z": 2.660321541,
				"element": "C" 
			},
			{
				"x": 0.4618742332,
				"y": -2.491019249,
				"z": 3.1754048355,
				"element": "C" 
			},
			{
				"x": -0.5256577735,
				"y": -0.2264165045,
				"z": 3.6764209271,
				"element": "C" 
			},
			{
				"x": -1.481763961,
				"y": 0.8972440217,
				"z": 3.2538154917,
				"element": "C" 
			},
			{
				"x": -1.2319414048,
				"y": 1.3191354455,
				"z": 1.7984702046,
				"element": "C" 
			},
			{
				"x": -1.0782293159,
				"y": 0.1723030069,
				"z": 0.7470899926,
				"element": "C" 
			},
			{
				"x": -2.4181004629,
				"y": -0.5995329005,
				"z": 0.6153695784,
				"element": "C" 
			},
			{
				"x": -2.2609186103,
				"y": -1.5968663715,
				"z": -0.3860022249,
				"element": "O" 
			},
			{
				"x": -2.8291879638,
				"y": -1.1748709447,
				"z": 1.8357363478,
				"element": "O" 
			},
			{
				"x": -1.8696786041,
				"y": -2.029597648,
				"z": 2.4716288665,
				"element": "C" 
			},
			{
				"x": 3.0253358869,
				"y": -0.2716063552,
				"z": -0.8768207513,
				"element": "O" 
			},
			{
				"x": 4.0053971668,
				"y": 0.3267693747,
				"z": -0.1524449372,
				"element": "C" 
			},
			{
				"x": 5.1687135593,
				"y": 0.6526791446,
				"z": -1.062390517,
				"element": "C" 
			},
			{
				"x": 3.9770370928,
				"y": 0.5652067982,
				"z": 1.032543579,
				"element": "O" 
			},
			{
				"x": 1.4353366847,
				"y": 1.583290166,
				"z": -1.8710679626,
				"element": "C" 
			},
			{
				"x": 2.1118510337,
				"y": 2.3538681155,
				"z": -1.2181468581,
				"element": "O" 
			},
			{
				"x": 1.0931928754,
				"y": 1.7122486611,
				"z": -3.3199883299,
				"element": "C" 
			},
			{
				"x": 1.7298477076,
				"y": 2.5365115389,
				"z": -4.1543217756,
				"element": "C" 
			},
			{
				"x": 2.1545813593,
				"y": -3.5435703337,
				"z": -5.24255569,
				"element": "H" 
			},
			{
				"x": 3.114759619,
				"y": -2.0780254188,
				"z": -4.881333439,
				"element": "H" 
			},
			{
				"x": 2.8515146346,
				"y": -3.2744675367,
				"z": -3.6161475532,
				"element": "H" 
			},
			{
				"x": -0.5659172803,
				"y": -1.0881919796,
				"z": -2.4688049001,
				"element": "H" 
			},
			{
				"x": -0.1624946161,
				"y": 0.4491712307,
				"z": -4.5990112768,
				"element": "H" 
			},
			{
				"x": -1.2591041967,
				"y": 2.5474795077,
				"z": -3.1287190682,
				"element": "H" 
			},
			{
				"x": -2.2114115185,
				"y": 1.1881809405,
				"z": -3.7153861235,
				"element": "H" 
			},
			{
				"x": -2.359828016,
				"y": 0.1697748515,
				"z": -1.6826729866,
				"element": "H" 
			},
			{
				"x": -4.2337197097,
				"y": 4.1883863604,
				"z": -1.186499206,
				"element": "H" 
			},
			{
				"x": -5.7210374912,
				"y": 3.2005444034,
				"z": -1.0675378682,
				"element": "H" 
			},
			{
				"x": -4.5545756071,
				"y": 3.273669989,
				"z": 0.2847057544,
				"element": "H" 
			},
			{
				"x": -0.3326489491,
				"y": 1.8978216958,
				"z": -0.2918793293,
				"element": "H" 
			},
			{
				"x": 1.5158176074,
				"y": -1.5634263305,
				"z": -0.6841903118,
				"element": "H" 
			},
			{
				"x": 1.5266158995,
				"y": 0.6378544356,
				"z": 1.4261971327,
				"element": "H" 
			},
			{
				"x": 2.0930553372,
				"y": -1.005057518,
				"z": 1.6250771158,
				"element": "H" 
			},
			{
				"x": -0.1574688351,
				"y": -1.7589505149,
				"z": 0.5950204256,
				"element": "H" 
			},
			{
				"x": 0.6032412552,
				"y": -3.2809231435,
				"z": 2.4286026721,
				"element": "H" 
			},
			{
				"x": 1.4463612263,
				"y": -2.0932602626,
				"z": 3.4366795928,
				"element": "H" 
			},
			{
				"x": 0.0500339401,
				"y": -2.9556763278,
				"z": 4.0790101174,
				"element": "H" 
			},
			{
				"x": -0.810013434,
				"y": -0.6158122399,
				"z": 4.6628121657,
				"element": "H" 
			},
			{
				"x": 0.4903364282,
				"y": 0.1760182969,
				"z": 3.7868622898,
				"element": "H" 
			},
			{
				"x": -2.5168729023,
				"y": 0.5747803124,
				"z": 3.3839259329,
				"element": "H" 
			},
			{
				"x": -1.3363860451,
				"y": 1.7698706868,
				"z": 3.9026842375,
				"element": "H" 
			},
			{
				"x": -0.3024139231,
				"y": 1.9001417092,
				"z": 1.7719118387,
				"element": "H" 
			},
			{
				"x": -2.0175921336,
				"y": 2.0023038043,
				"z": 1.456389033,
				"element": "H" 
			},
			{
				"x": -3.2455796195,
				"y": 0.0698321624,
				"z": 0.3586186257,
				"element": "H" 
			},
			{
				"x": -3.1180120732,
				"y": -2.0321613914,
				"z": -0.4939133868,
				"element": "H" 
			},
			{
				"x": -1.7643057131,
				"y": -2.9559202378,
				"z": 1.88922717,
				"element": "H" 
			},
			{
				"x": -2.3151150217,
				"y": -2.2849546648,
				"z": 3.4385671581,
				"element": "H" 
			},
			{
				"x": 6.057674443,
				"y": 0.842846722,
				"z": -0.4608772176,
				"element": "H" 
			},
			{
				"x": 4.9176545624,
				"y": 1.5557131541,
				"z": -1.6282609351,
				"element": "H" 
			},
			{
				"x": 5.3504569036,
				"y": -0.1528675931,
				"z": -1.7772916126,
				"element": "H" 
			},
			{
				"x": 1.4794280899,
				"y": 2.6051020934,
				"z": -5.2090953321,
				"element": "H" 
			},
			{
				"x": 2.5328042985,
				"y": 3.1665024987,
				"z": -3.7817919368,
				"element": "H" 
			}
		],
		 "valence_orbital": [ 
			{
				"type": "occ",
				"energy": -0.27253,
				"method": "rhf"
			},
			{
				"type": "occ",
				"energy": -0.27086,
				"method": "rhf"
			},
			{
				"type": "occ",
				"energy": -0.25894,
				"method": "rhf"
			},
			{
				"type": "occ",
				"energy": -0.25223,
				"method": "rhf"
			},
			{
				"type": "occ",
				"energy": -0.244,
				"method": "rhf"
			},
			{
				"type": "unocc",
				"energy": -0.06428,
				"method": "rhf"
			},
			{
				"type": "unocc",
				"energy": 0.0039,
				"method": "rhf"
			},
			{
				"type": "unocc",
				"energy": 0.00693,
				"method": "rhf"
			},
			{
				"type": "unocc",
				"energy": 0.02417,
				"method": "rhf"
			},
			{
				"type": "unocc",
				"energy": 0.0573,
				"method": "rhf"
			}
		],
		"cosmo_sigma_profile": { 
			"-0.025": 0.0,
			"-0.024": 0.0,
			"-0.023": 0.0,
			"-0.022": 0.0,
			"-0.021": 0.0,
			"-0.02": 0.0,
			"-0.019": 0.0,
			"-0.018": 0.0,
			"-0.017": 0.0530059087862,
			"-0.016": 0.805964329393,
			"-0.015": 1.02325446754,
			"-0.014": 0.807467726192,
			"-0.013": 0.607524469192,
			"-0.012": 0.697139828685,
			"-0.011": 0.776371220611,
			"-0.01": 0.572406292653,
			"-0.009": 0.62096833063,
			"-0.008": 1.19051248766,
			"-0.007": 4.17013578126,
			"-0.006": 19.2085582993,
			"-0.005": 31.4178277591,
			"-0.004": 44.1658227575,
			"-0.003": 59.642109403,
			"-0.002": 65.0229006752,
			"-0.001": 50.4743955129,
			"0.0": 39.4852065712,
			"0.001": 34.2448213381,
			"0.002": 20.6532175269,
			"0.003": 14.0587358913,
			"0.004": 12.6942370522,
			"0.005": 11.3058562103,
			"0.006": 10.4688698794,
			"0.007": 8.24251310576,
			"0.008": 8.40690370786,
			"0.009": 9.38710955071,
			"0.01": 9.36657484979,
			"0.011": 12.5016114089,
			"0.012": 12.9360556834,
			"0.013": 3.6455621652,
			"0.014": 0.0724770702731,
			"0.015": 0.0,
			"0.016": 0.0,
			"0.017": 0.0,
			"0.018": 0.0,
			"0.019": 0.0,
			"0.02": 0.0,
			"0.021": 0.0,
			"0.022": 0.0,
			"0.023": 0.0,
			"0.024": 0.0,
			"0.025": 0.0
		}
	}
}
