{
	 "smiles": "CCN1N=C(N)C=C1C(F)(F)F", 
	 "Tm": 328.15, 
	 "num_atms": 20, 
	 "gaussian": { 
		 "optdone": 1, 
		 "sigma_profile": "yes", 
		 "theory": "DFT", 
		 "functional": "B3LYP", 
		 "basiset": "6-31G**", 
		 "properties": { 
			 "R2extent": 2550.7241, 
			 "electric_dipole_moment_norm": 1.74669489322, 
			 "electric_quadrupole_moment_norm": 12.0745409557, 
			 "total_energy": -697.225628462, 
			 "HOMO_LUMO_gap": 0.20791, 
			 "cosmo_polarized_energy": -8.67, 
			 "cosmo_cavitation_energy": 25.02, 
			 "cosmo_dispersion_energy": -17.8, 
			 "cosmo_repulsion_energy": 1.39, 
			 "cosmo_total_nonelectrostatic_energy": 8.6, 
			 "SMD_solvation_energy": 4.45 
		},
		"coords": [
			{
				"x": 1.8998103473,
				"y": 0.0398517881,
				"z": -0.534370724,
				"element": "C" 
			},
			{
				"x": 1.2204080711,
				"y": 0.7458046325,
				"z": 0.6404453311,
				"element": "C" 
			},
			{
				"x": 0.3437378406,
				"y": -0.1404157672,
				"z": 1.4006745896,
				"element": "N" 
			},
			{
				"x": 0.8897466294,
				"y": -0.9780477616,
				"z": 2.3191228842,
				"element": "N" 
			},
			{
				"x": -0.126169521,
				"y": -1.7150103917,
				"z": 2.7745100926,
				"element": "C" 
			},
			{
				"x": 0.0632493052,
				"y": -2.6285733152,
				"z": 3.8097021119,
				"element": "N" 
			},
			{
				"x": -1.342647447,
				"y": -1.3767319045,
				"z": 2.1332518764,
				"element": "C" 
			},
			{
				"x": -0.9886867652,
				"y": -0.3692375377,
				"z": 1.2546072401,
				"element": "C" 
			},
			{
				"x": -1.849167328,
				"y": 0.3774810796,
				"z": 0.295987775,
				"element": "C" 
			},
			{
				"x": -3.1249328142,
				"y": -0.0388845075,
				"z": 0.3760745861,
				"element": "F" 
			},
			{
				"x": -1.4440889569,
				"y": 0.2137596081,
				"z": -0.9899675655,
				"element": "F" 
			},
			{
				"x": -1.8357655956,
				"y": 1.7140687716,
				"z": 0.5271456933,
				"element": "F" 
			},
			{
				"x": 2.4791626843,
				"y": -0.8164407299,
				"z": -0.1794517491,
				"element": "H" 
			},
			{
				"x": 2.5774601177,
				"y": 0.7311196623,
				"z": -1.0454732225,
				"element": "H" 
			},
			{
				"x": 1.15599761,
				"y": -0.3109364622,
				"z": -1.2544667667,
				"element": "H" 
			},
			{
				"x": 0.6203370132,
				"y": 1.592150774,
				"z": 0.2998992046,
				"element": "H" 
			},
			{
				"x": 1.9615820202,
				"y": 1.1230098165,
				"z": 1.3492947966,
				"element": "H" 
			},
			{
				"x": 1.0439781467,
				"y": -2.8339084295,
				"z": 3.9572752161,
				"element": "H" 
			},
			{
				"x": -0.4769197005,
				"y": -3.4779912312,
				"z": 3.70794193,
				"element": "H" 
			},
			{
				"x": -2.3294916575,
				"y": -1.7796680949,
				"z": 2.2991967001,
				"element": "H" 
			}
		],
		 "valence_orbital": [ 
			{
				"type": "occ",
				"energy": -0.36085,
				"method": "rhf"
			},
			{
				"type": "occ",
				"energy": -0.32052,
				"method": "rhf"
			},
			{
				"type": "occ",
				"energy": -0.29266,
				"method": "rhf"
			},
			{
				"type": "occ",
				"energy": -0.25439,
				"method": "rhf"
			},
			{
				"type": "occ",
				"energy": -0.20968,
				"method": "rhf"
			},
			{
				"type": "unocc",
				"energy": -0.00177,
				"method": "rhf"
			},
			{
				"type": "unocc",
				"energy": 0.06907,
				"method": "rhf"
			},
			{
				"type": "unocc",
				"energy": 0.09131,
				"method": "rhf"
			},
			{
				"type": "unocc",
				"energy": 0.10478,
				"method": "rhf"
			},
			{
				"type": "unocc",
				"energy": 0.11957,
				"method": "rhf"
			}
		],
		"cosmo_sigma_profile": { 
			"-0.025": 0.0,
			"-0.024": 0.0,
			"-0.023": 0.0,
			"-0.022": 0.0,
			"-0.021": 0.0,
			"-0.02": 0.0,
			"-0.019": 0.0,
			"-0.018": 0.0,
			"-0.017": 0.0,
			"-0.016": 0.0,
			"-0.015": 0.0,
			"-0.014": 0.0,
			"-0.013": 0.593036665718,
			"-0.012": 2.11281339934,
			"-0.011": 2.7364308199,
			"-0.01": 2.16445413857,
			"-0.009": 2.56390791822,
			"-0.008": 2.99547493815,
			"-0.007": 4.39063854145,
			"-0.006": 5.48088755409,
			"-0.005": 5.83739236842,
			"-0.004": 11.7359116068,
			"-0.003": 14.0757830527,
			"-0.002": 14.3930445108,
			"-0.001": 18.0752757104,
			"0.0": 19.1981584641,
			"0.001": 15.062604588,
			"0.002": 29.2618978364,
			"0.003": 18.9570248137,
			"0.004": 5.884011366,
			"0.005": 4.43604687412,
			"0.006": 2.09785347442,
			"0.007": 2.5336131234,
			"0.008": 2.3024423362,
			"0.009": 2.41228139287,
			"0.01": 1.81749175214,
			"0.011": 1.35840871798,
			"0.012": 1.63496118054,
			"0.013": 1.43324253578,
			"0.014": 1.34162258252,
			"0.015": 1.31515460409,
			"0.016": 0.0781689251767,
			"0.017": 0.0,
			"0.018": 0.0,
			"0.019": 0.0,
			"0.02": 0.0,
			"0.021": 0.0,
			"0.022": 0.0,
			"0.023": 0.0,
			"0.024": 0.0,
			"0.025": 0.0
		}
	}
}
