{
	 "smiles": "CCCNS(=O)(=O)C1=CC=C(C=CC(O)=O)C=C1", 
	 "Tm": 509.15, 
	 "num_atms": 33, 
	 "gaussian": { 
		 "optdone": 1, 
		 "sigma_profile": "yes", 
		 "theory": "DFT", 
		 "functional": "B3LYP", 
		 "basiset": "6-31G**", 
		 "properties": { 
			 "R2extent": 8793.8531, 
			 "electric_dipole_moment_norm": 5.98933432779, 
			 "electric_quadrupole_moment_norm": 24.6872723179, 
			 "total_energy": -1220.08015009, 
			 "HOMO_LUMO_gap": 0.16639, 
			 "cosmo_polarized_energy": -26.03, 
			 "cosmo_cavitation_energy": 39.36, 
			 "cosmo_dispersion_energy": -27.6, 
			 "cosmo_repulsion_energy": 2.13, 
			 "cosmo_total_nonelectrostatic_energy": 13.89, 
			 "SMD_solvation_energy": 6.85 
		},
		"coords": [
			{
				"x": 3.0208468435,
				"y": 1.726670629,
				"z": -1.657985688,
				"element": "C" 
			},
			{
				"x": 3.9439303396,
				"y": 1.5374708042,
				"z": -0.4507657999,
				"element": "C" 
			},
			{
				"x": 3.2200787414,
				"y": 1.1187706725,
				"z": 0.8326302831,
				"element": "C" 
			},
			{
				"x": 2.286504481,
				"y": 2.1777227834,
				"z": 1.2613762169,
				"element": "N" 
			},
			{
				"x": 1.3265373356,
				"y": 1.8825200126,
				"z": 2.6202468476,
				"element": "S" 
			},
			{
				"x": 1.9616104202,
				"y": 0.9039792353,
				"z": 3.5111581659,
				"element": "O" 
			},
			{
				"x": 0.9364138213,
				"y": 3.2123357215,
				"z": 3.0983017498,
				"element": "O" 
			},
			{
				"x": -0.1106580507,
				"y": 1.0823331177,
				"z": 1.9005587938,
				"element": "C" 
			},
			{
				"x": -1.0288546402,
				"y": 1.8465128781,
				"z": 1.1785073236,
				"element": "C" 
			},
			{
				"x": -2.146702662,
				"y": 1.2216992456,
				"z": 0.6375182764,
				"element": "C" 
			},
			{
				"x": -2.3668403584,
				"y": -0.1588838423,
				"z": 0.8092178803,
				"element": "C" 
			},
			{
				"x": -3.5636353293,
				"y": -0.7573520135,
				"z": 0.2075554558,
				"element": "C" 
			},
			{
				"x": -3.9701781081,
				"y": -2.0368244749,
				"z": 0.2971276327,
				"element": "C" 
			},
			{
				"x": -5.2321524995,
				"y": -2.5689972374,
				"z": -0.2834044213,
				"element": "C" 
			},
			{
				"x": -5.7737437504,
				"y": -1.8968617856,
				"z": -1.3373062612,
				"element": "O" 
			},
			{
				"x": -5.7794913885,
				"y": -3.5518477459,
				"z": 0.1584580618,
				"element": "O" 
			},
			{
				"x": -1.4281152396,
				"y": -0.9007978028,
				"z": 1.5495108554,
				"element": "C" 
			},
			{
				"x": -0.3061956576,
				"y": -0.2865962518,
				"z": 2.0966465108,
				"element": "C" 
			},
			{
				"x": 3.5902651257,
				"y": 2.0292918743,
				"z": -2.5421190708,
				"element": "H" 
			},
			{
				"x": 2.4973760107,
				"y": 0.7950145774,
				"z": -1.9005108916,
				"element": "H" 
			},
			{
				"x": 2.2636961476,
				"y": 2.4908130438,
				"z": -1.4617516038,
				"element": "H" 
			},
			{
				"x": 4.5071532801,
				"y": 2.4615199941,
				"z": -0.2589875333,
				"element": "H" 
			},
			{
				"x": 4.6954073343,
				"y": 0.7690745647,
				"z": -0.66907312,
				"element": "H" 
			},
			{
				"x": 3.9420795885,
				"y": 0.8765628067,
				"z": 1.6221817524,
				"element": "H" 
			},
			{
				"x": 2.6277318617,
				"y": 0.2160873659,
				"z": 0.6447254094,
				"element": "H" 
			},
			{
				"x": 2.7337237854,
				"y": 3.0809604937,
				"z": 1.4117192212,
				"element": "H" 
			},
			{
				"x": -0.8716918087,
				"y": 2.9123383891,
				"z": 1.0549038069,
				"element": "H" 
			},
			{
				"x": -2.8682341349,
				"y": 1.8099783404,
				"z": 0.0770424386,
				"element": "H" 
			},
			{
				"x": -4.1839252307,
				"y": -0.0503014812,
				"z": -0.3444783409,
				"element": "H" 
			},
			{
				"x": -3.4353871193,
				"y": -2.7682783572,
				"z": 0.8941700943,
				"element": "H" 
			},
			{
				"x": -5.1357068809,
				"y": -1.2604735893,
				"z": -1.6883286816,
				"element": "H" 
			},
			{
				"x": -1.5735301717,
				"y": -1.9645575743,
				"z": 1.7050304188,
				"element": "H" 
			},
			{
				"x": 0.411287914,
				"y": -0.8493843937,
				"z": 2.6833242168,
				"element": "H" 
			}
		],
		 "valence_orbital": [ 
			{
				"type": "occ",
				"energy": -0.30644,
				"method": "rhf"
			},
			{
				"type": "occ",
				"energy": -0.28675,
				"method": "rhf"
			},
			{
				"type": "occ",
				"energy": -0.28325,
				"method": "rhf"
			},
			{
				"type": "occ",
				"energy": -0.2777,
				"method": "rhf"
			},
			{
				"type": "occ",
				"energy": -0.25854,
				"method": "rhf"
			},
			{
				"type": "unocc",
				"energy": -0.09215,
				"method": "rhf"
			},
			{
				"type": "unocc",
				"energy": -0.03499,
				"method": "rhf"
			},
			{
				"type": "unocc",
				"energy": -0.01538,
				"method": "rhf"
			},
			{
				"type": "unocc",
				"energy": 0.04677,
				"method": "rhf"
			},
			{
				"type": "unocc",
				"energy": 0.05192,
				"method": "rhf"
			}
		],
		"cosmo_sigma_profile": { 
			"-0.025": 0.0,
			"-0.024": 0.0,
			"-0.023": 0.0,
			"-0.022": 0.0,
			"-0.021": 0.0,
			"-0.02": 0.0,
			"-0.019": 0.0717833433334,
			"-0.018": 0.92235074865,
			"-0.017": 1.1631342247,
			"-0.016": 0.999498952554,
			"-0.015": 1.55419233044,
			"-0.014": 0.999998226037,
			"-0.013": 1.79728611199,
			"-0.012": 2.8481066297,
			"-0.011": 2.28794234074,
			"-0.01": 3.49795271799,
			"-0.009": 5.65856188426,
			"-0.008": 8.34331128454,
			"-0.007": 10.404827152,
			"-0.006": 11.7506773951,
			"-0.005": 10.711990635,
			"-0.004": 17.4158580376,
			"-0.003": 27.1440302414,
			"-0.002": 24.140133915,
			"-0.001": 24.0649972951,
			"0.0": 24.3246728675,
			"0.001": 29.3731632511,
			"0.002": 22.3674989785,
			"0.003": 6.72348330898,
			"0.004": 6.35033058855,
			"0.005": 5.63045768896,
			"0.006": 5.44914635151,
			"0.007": 5.35927497196,
			"0.008": 6.38312334859,
			"0.009": 6.40014510694,
			"0.01": 12.0430058514,
			"0.011": 14.3372378915,
			"0.012": 8.86627658597,
			"0.013": 2.4718898199,
			"0.014": 0.121763443628,
			"0.015": 0.0,
			"0.016": 0.0,
			"0.017": 0.0,
			"0.018": 0.0,
			"0.019": 0.0,
			"0.02": 0.0,
			"0.021": 0.0,
			"0.022": 0.0,
			"0.023": 0.0,
			"0.024": 0.0,
			"0.025": 0.0
		}
	}
}
