{
	 "smiles": "N#CC1=CC=C(CN2CCOCC2)C=C1", 
	 "Tm": 359.65, 
	 "num_atms": 29, 
	 "gaussian": { 
		 "optdone": 1, 
		 "sigma_profile": "yes", 
		 "theory": "DFT", 
		 "functional": "B3LYP", 
		 "basiset": "6-31G**", 
		 "properties": { 
			 "R2extent": 4968.8199, 
			 "electric_dipole_moment_norm": 4.52374065238, 
			 "electric_quadrupole_moment_norm": 39.9385131535, 
			 "total_energy": -650.393397693, 
			 "HOMO_LUMO_gap": 0.17226, 
			 "cosmo_polarized_energy": -12.45, 
			 "cosmo_cavitation_energy": 32.24, 
			 "cosmo_dispersion_energy": -22.8, 
			 "cosmo_repulsion_energy": 1.79, 
			 "cosmo_total_nonelectrostatic_energy": 11.24, 
			 "SMD_solvation_energy": 5.19 
		},
		"coords": [
			{
				"x": -6.290829863,
				"y": -2.0354266008,
				"z": 1.8066764154,
				"element": "N" 
			},
			{
				"x": -5.3148232117,
				"y": -1.6024678832,
				"z": 1.3444103374,
				"element": "C" 
			},
			{
				"x": -4.1122251788,
				"y": -1.0685019893,
				"z": 0.7745401116,
				"element": "C" 
			},
			{
				"x": -3.2098985005,
				"y": -0.3460220222,
				"z": 1.5751886959,
				"element": "C" 
			},
			{
				"x": -2.0444759996,
				"y": 0.1674120465,
				"z": 1.0174508626,
				"element": "C" 
			},
			{
				"x": -1.7519203747,
				"y": -0.0256389108,
				"z": -0.3401909316,
				"element": "C" 
			},
			{
				"x": -0.5057780239,
				"y": 0.5841233164,
				"z": -0.9569407614,
				"element": "C" 
			},
			{
				"x": 0.6442698484,
				"y": 0.5796182428,
				"z": -0.0626185348,
				"element": "N" 
			},
			{
				"x": 1.6786904157,
				"y": 1.5307364268,
				"z": -0.4909627079,
				"element": "C" 
			},
			{
				"x": 2.9912234991,
				"y": 1.2271482974,
				"z": 0.2200478521,
				"element": "C" 
			},
			{
				"x": 3.5158066918,
				"y": -0.0517364627,
				"z": -0.134278742,
				"element": "O" 
			},
			{
				"x": 2.5234491831,
				"y": -1.0044586531,
				"z": -0.5101224481,
				"element": "C" 
			},
			{
				"x": 1.1985709602,
				"y": -0.7653558899,
				"z": 0.2122082249,
				"element": "C" 
			},
			{
				"x": -2.6529888124,
				"y": -0.7526637553,
				"z": -1.128305073,
				"element": "C" 
			},
			{
				"x": -3.8260999889,
				"y": -1.2694028341,
				"z": -0.5854652624,
				"element": "C" 
			},
			{
				"x": -3.4311172139,
				"y": -0.1943901374,
				"z": 2.6266144063,
				"element": "H" 
			},
			{
				"x": -1.3368355696,
				"y": 0.7174085362,
				"z": 1.6290694976,
				"element": "H" 
			},
			{
				"x": -0.7217841655,
				"y": 1.6340528569,
				"z": -1.1995380673,
				"element": "H" 
			},
			{
				"x": -0.2996804429,
				"y": 0.088953876,
				"z": -1.9261093098,
				"element": "H" 
			},
			{
				"x": 1.3542681248,
				"y": 2.5520513711,
				"z": -0.2532924249,
				"element": "H" 
			},
			{
				"x": 1.8569362704,
				"y": 1.4948989034,
				"z": -1.5820200595,
				"element": "H" 
			},
			{
				"x": 3.7491672688,
				"y": 1.9687490922,
				"z": -0.0525021081,
				"element": "H" 
			},
			{
				"x": 2.8368941446,
				"y": 1.2880691983,
				"z": 1.3087265222,
				"element": "H" 
			},
			{
				"x": 2.9226559281,
				"y": -1.9933068094,
				"z": -0.2595227233,
				"element": "H" 
			},
			{
				"x": 2.3662584484,
				"y": -0.9792462583,
				"z": -1.600766591,
				"element": "H" 
			},
			{
				"x": 0.4726487436,
				"y": -1.5287415422,
				"z": -0.0853710843,
				"element": "H" 
			},
			{
				"x": 1.3568628555,
				"y": -0.8846888432,
				"z": 1.2918673776,
				"element": "H" 
			},
			{
				"x": -2.4339414446,
				"y": -0.91788771,
				"z": -2.1800850134,
				"element": "H" 
			},
			{
				"x": -4.5185035926,
				"y": -1.8325858623,
				"z": -1.2023084605,
				"element": "H" 
			}
		],
		 "valence_orbital": [ 
			{
				"type": "occ",
				"energy": -0.30755,
				"method": "rhf"
			},
			{
				"type": "occ",
				"energy": -0.27411,
				"method": "rhf"
			},
			{
				"type": "occ",
				"energy": -0.26034,
				"method": "rhf"
			},
			{
				"type": "occ",
				"energy": -0.2531,
				"method": "rhf"
			},
			{
				"type": "occ",
				"energy": -0.22286,
				"method": "rhf"
			},
			{
				"type": "unocc",
				"energy": -0.0506,
				"method": "rhf"
			},
			{
				"type": "unocc",
				"energy": -0.02412,
				"method": "rhf"
			},
			{
				"type": "unocc",
				"energy": 0.03911,
				"method": "rhf"
			},
			{
				"type": "unocc",
				"energy": 0.066,
				"method": "rhf"
			},
			{
				"type": "unocc",
				"energy": 0.07364,
				"method": "rhf"
			}
		],
		"cosmo_sigma_profile": { 
			"-0.025": 0.0,
			"-0.024": 0.0,
			"-0.023": 0.0,
			"-0.022": 0.0,
			"-0.021": 0.0,
			"-0.02": 0.0,
			"-0.019": 0.0,
			"-0.018": 0.0,
			"-0.017": 0.0,
			"-0.016": 0.0,
			"-0.015": 0.0,
			"-0.014": 0.0,
			"-0.013": 0.0,
			"-0.012": 0.0,
			"-0.011": 0.0,
			"-0.01": 0.0,
			"-0.009": 0.0,
			"-0.008": 1.4880236381,
			"-0.007": 5.20711047759,
			"-0.006": 8.61928591973,
			"-0.005": 16.678272124,
			"-0.004": 29.6206746765,
			"-0.003": 33.9452047227,
			"-0.002": 32.4205720074,
			"-0.001": 20.7257198749,
			"0.0": 15.4404529233,
			"0.001": 14.1648126044,
			"0.002": 14.9220441233,
			"0.003": 14.7252364034,
			"0.004": 4.80181393629,
			"0.005": 4.92024442093,
			"0.006": 4.5702776634,
			"0.007": 4.64958513244,
			"0.008": 4.8555128169,
			"0.009": 5.33153157236,
			"0.01": 5.02370354074,
			"0.011": 3.56376471971,
			"0.012": 4.30890433821,
			"0.013": 3.30679811233,
			"0.014": 1.78282288967,
			"0.015": 0.0146510697955,
			"0.016": 0.0,
			"0.017": 0.0,
			"0.018": 0.0,
			"0.019": 0.0,
			"0.02": 0.0,
			"0.021": 0.0,
			"0.022": 0.0,
			"0.023": 0.0,
			"0.024": 0.0,
			"0.025": 0.0
		}
	}
}
