{
	 "smiles": "O=CC1=CC=CC(NS(=O)(=O)C2=CC=CC=C2)=C1", 
	 "Tm": 379.15, 
	 "num_atms": 29, 
	 "gaussian": { 
		 "optdone": 1, 
		 "sigma_profile": "yes", 
		 "theory": "DFT", 
		 "functional": "B3LYP", 
		 "basiset": "6-31G**", 
		 "properties": { 
			 "R2extent": 6357.9216, 
			 "electric_dipole_moment_norm": 5.94188915834, 
			 "electric_quadrupole_moment_norm": 18.7728570721, 
			 "total_energy": -1180.54435725, 
			 "HOMO_LUMO_gap": 0.17596, 
			 "cosmo_polarized_energy": -18.92, 
			 "cosmo_cavitation_energy": 35.55, 
			 "cosmo_dispersion_energy": -24.8, 
			 "cosmo_repulsion_energy": 1.87, 
			 "cosmo_total_nonelectrostatic_energy": 12.62, 
			 "SMD_solvation_energy": 6.26 
		},
		"coords": [
			{
				"x": 2.4895444005,
				"y": 2.7409556062,
				"z": 4.6980439692,
				"element": "O" 
			},
			{
				"x": 2.8155639832,
				"y": 2.1398585449,
				"z": 3.6926889924,
				"element": "C" 
			},
			{
				"x": 1.9960401961,
				"y": 1.0863473791,
				"z": 3.0443719892,
				"element": "C" 
			},
			{
				"x": 0.7661013853,
				"y": 0.7089175402,
				"z": 3.6038214489,
				"element": "C" 
			},
			{
				"x": 0.0159453443,
				"y": -0.2874649081,
				"z": 2.9897003051,
				"element": "C" 
			},
			{
				"x": 0.4739561993,
				"y": -0.8908258971,
				"z": 1.8153658667,
				"element": "C" 
			},
			{
				"x": 1.706777739,
				"y": -0.5223981022,
				"z": 1.2587455841,
				"element": "C" 
			},
			{
				"x": 2.1859236641,
				"y": -1.1935716098,
				"z": 0.1027689051,
				"element": "N" 
			},
			{
				"x": 2.682335341,
				"y": -0.39140793,
				"z": -1.3155797878,
				"element": "S" 
			},
			{
				"x": 2.9921634947,
				"y": -1.4825704476,
				"z": -2.2381156514,
				"element": "O" 
			},
			{
				"x": 3.667884281,
				"y": 0.611073205,
				"z": -0.9142972364,
				"element": "O" 
			},
			{
				"x": 1.2410930468,
				"y": 0.4778153429,
				"z": -1.9393021556,
				"element": "C" 
			},
			{
				"x": 0.9679033586,
				"y": 1.7706483745,
				"z": -1.4849845924,
				"element": "C" 
			},
			{
				"x": -0.1723908409,
				"y": 2.4226601263,
				"z": -1.9549288847,
				"element": "C" 
			},
			{
				"x": -1.0178318492,
				"y": 1.7883265388,
				"z": -2.8681448993,
				"element": "C" 
			},
			{
				"x": -0.7262220325,
				"y": 0.4993847322,
				"z": -3.3220532088,
				"element": "C" 
			},
			{
				"x": 0.4079333332,
				"y": -0.1663530926,
				"z": -2.8578974162,
				"element": "C" 
			},
			{
				"x": 2.4760244234,
				"y": 0.4658607216,
				"z": 1.8869415866,
				"element": "C" 
			},
			{
				"x": 3.7803659452,
				"y": 2.3556273873,
				"z": 3.1833729079,
				"element": "H" 
			},
			{
				"x": 0.4311470355,
				"y": 1.2029452188,
				"z": 4.5096547291,
				"element": "H" 
			},
			{
				"x": -0.9368750006,
				"y": -0.5945733924,
				"z": 3.410276258,
				"element": "H" 
			},
			{
				"x": -0.1266436705,
				"y": -1.6549095421,
				"z": 1.3280095906,
				"element": "H" 
			},
			{
				"x": 1.6824157229,
				"y": -2.0389948408,
				"z": -0.1463415165,
				"element": "H" 
			},
			{
				"x": 1.6469992476,
				"y": 2.2574994855,
				"z": -0.7946222677,
				"element": "H" 
			},
			{
				"x": -0.3949346791,
				"y": 3.4288277675,
				"z": -1.613275554,
				"element": "H" 
			},
			{
				"x": -1.9015489648,
				"y": 2.3028462239,
				"z": -3.2337107401,
				"element": "H" 
			},
			{
				"x": -1.3770052116,
				"y": 0.0147742242,
				"z": -4.0434835599,
				"element": "H" 
			},
			{
				"x": 0.6635549519,
				"y": -1.1583386748,
				"z": -3.2144640007,
				"element": "H" 
			},
			{
				"x": 3.4393791557,
				"y": 0.7404400187,
				"z": 1.4707393387,
				"element": "H" 
			}
		],
		 "valence_orbital": [ 
			{
				"type": "occ",
				"energy": -0.28131,
				"method": "rhf"
			},
			{
				"type": "occ",
				"energy": -0.27903,
				"method": "rhf"
			},
			{
				"type": "occ",
				"energy": -0.27444,
				"method": "rhf"
			},
			{
				"type": "occ",
				"energy": -0.2592,
				"method": "rhf"
			},
			{
				"type": "occ",
				"energy": -0.24561,
				"method": "rhf"
			},
			{
				"type": "unocc",
				"energy": -0.06965,
				"method": "rhf"
			},
			{
				"type": "unocc",
				"energy": -0.04975,
				"method": "rhf"
			},
			{
				"type": "unocc",
				"energy": -0.02983,
				"method": "rhf"
			},
			{
				"type": "unocc",
				"energy": -0.02229,
				"method": "rhf"
			},
			{
				"type": "unocc",
				"energy": 0.02804,
				"method": "rhf"
			}
		],
		"cosmo_sigma_profile": { 
			"-0.025": 0.0,
			"-0.024": 0.0,
			"-0.023": 0.0,
			"-0.022": 0.0,
			"-0.021": 0.0,
			"-0.02": 0.0,
			"-0.019": 0.0,
			"-0.018": 0.0,
			"-0.017": 0.0278341789,
			"-0.016": 0.755847475072,
			"-0.015": 0.997777621643,
			"-0.014": 1.30326309355,
			"-0.013": 1.28555052807,
			"-0.012": 1.50335850878,
			"-0.011": 1.09219352614,
			"-0.01": 1.3856863585,
			"-0.009": 1.61080272931,
			"-0.008": 3.83783893021,
			"-0.007": 15.0718297768,
			"-0.006": 20.7157080515,
			"-0.005": 20.694624712,
			"-0.004": 15.833708242,
			"-0.003": 15.5849399476,
			"-0.002": 17.1028057734,
			"-0.001": 14.2821127957,
			"0.0": 18.3391018163,
			"0.001": 21.733665635,
			"0.002": 27.9136174141,
			"0.003": 23.9881778158,
			"0.004": 7.87768185995,
			"0.005": 5.6055569077,
			"0.006": 5.86385730158,
			"0.007": 5.15529689943,
			"0.008": 5.47749742044,
			"0.009": 6.13417276845,
			"0.01": 10.3192733236,
			"0.011": 10.8386833161,
			"0.012": 2.87791750776,
			"0.013": 0.517102823598,
			"0.014": 0.0,
			"0.015": 0.0,
			"0.016": 0.0,
			"0.017": 0.0,
			"0.018": 0.0,
			"0.019": 0.0,
			"0.02": 0.0,
			"0.021": 0.0,
			"0.022": 0.0,
			"0.023": 0.0,
			"0.024": 0.0,
			"0.025": 0.0
		}
	}
}
