{
	 "smiles": "CSCC1=CC(=CC=C1)C(O)=O", 
	 "Tm": 352.15, 
	 "num_atms": 22, 
	 "gaussian": { 
		 "optdone": 1, 
		 "sigma_profile": "yes", 
		 "theory": "DFT", 
		 "functional": "B3LYP", 
		 "basiset": "6-31G**", 
		 "properties": { 
			 "R2extent": 3140.6814, 
			 "electric_dipole_moment_norm": 3.58904994393, 
			 "electric_quadrupole_moment_norm": 21.7037825846, 
			 "total_energy": -897.63316814, 
			 "HOMO_LUMO_gap": 0.1713, 
			 "cosmo_polarized_energy": -15.66, 
			 "cosmo_cavitation_energy": 27.72, 
			 "cosmo_dispersion_energy": -20.08, 
			 "cosmo_repulsion_energy": 1.56, 
			 "cosmo_total_nonelectrostatic_energy": 9.2, 
			 "SMD_solvation_energy": 5.76 
		},
		"coords": [
			{
				"x": 1.1166685799,
				"y": 2.5534561928,
				"z": 0.2961731961,
				"element": "C" 
			},
			{
				"x": 1.4122581001,
				"y": 1.9866251523,
				"z": -1.4137673462,
				"element": "S" 
			},
			{
				"x": 1.1173538183,
				"y": 0.1760937192,
				"z": -1.2209532301,
				"element": "C" 
			},
			{
				"x": -0.2978184571,
				"y": -0.1944452553,
				"z": -0.8480741009,
				"element": "C" 
			},
			{
				"x": -0.5868999695,
				"y": -0.7138546311,
				"z": 0.4147152783,
				"element": "C" 
			},
			{
				"x": -1.8952823165,
				"y": -1.0740646247,
				"z": 0.7692164617,
				"element": "C" 
			},
			{
				"x": -2.9342346977,
				"y": -0.8844640093,
				"z": -0.1496640441,
				"element": "C" 
			},
			{
				"x": -2.6577554751,
				"y": -0.3552834143,
				"z": -1.4121973201,
				"element": "C" 
			},
			{
				"x": -1.352477761,
				"y": -0.0170809823,
				"z": -1.7588486819,
				"element": "C" 
			},
			{
				"x": -2.1110799203,
				"y": -1.6177838524,
				"z": 2.1501470018,
				"element": "C" 
			},
			{
				"x": -3.2474565876,
				"y": -2.3368661638,
				"z": 2.3546903991,
				"element": "O" 
			},
			{
				"x": -1.3341701035,
				"y": -1.4459498681,
				"z": 3.0601304275,
				"element": "O" 
			},
			{
				"x": 1.8453555955,
				"y": 2.1214499957,
				"z": 0.9872997419,
				"element": "H" 
			},
			{
				"x": 1.2365560935,
				"y": 3.6389295005,
				"z": 0.289396308,
				"element": "H" 
			},
			{
				"x": 0.1037998956,
				"y": 2.3100153765,
				"z": 0.6249884344,
				"element": "H" 
			},
			{
				"x": 1.3840665491,
				"y": -0.2384259809,
				"z": -2.1981534974,
				"element": "H" 
			},
			{
				"x": 1.8265397338,
				"y": -0.223135715,
				"z": -0.48986992,
				"element": "H" 
			},
			{
				"x": 0.1984476088,
				"y": -0.8570217176,
				"z": 1.1504535226,
				"element": "H" 
			},
			{
				"x": -3.9653825386,
				"y": -1.1033786857,
				"z": 0.1173006038,
				"element": "H" 
			},
			{
				"x": -3.464818098,
				"y": -0.2002692868,
				"z": -2.1218319116,
				"element": "H" 
			},
			{
				"x": -1.1443700494,
				"y": 0.4035952503,
				"z": -2.7387480221,
				"element": "H" 
			},
			{
				"x": -3.6784000004,
				"y": -2.5260409998,
				"z": 1.5097966992,
				"element": "H" 
			}
		],
		 "valence_orbital": [ 
			{
				"type": "occ",
				"energy": -0.31738,
				"method": "rhf"
			},
			{
				"type": "occ",
				"energy": -0.27947,
				"method": "rhf"
			},
			{
				"type": "occ",
				"energy": -0.26747,
				"method": "rhf"
			},
			{
				"type": "occ",
				"energy": -0.26636,
				"method": "rhf"
			},
			{
				"type": "occ",
				"energy": -0.22662,
				"method": "rhf"
			},
			{
				"type": "unocc",
				"energy": -0.05532,
				"method": "rhf"
			},
			{
				"type": "unocc",
				"energy": -0.02631,
				"method": "rhf"
			},
			{
				"type": "unocc",
				"energy": 0.02995,
				"method": "rhf"
			},
			{
				"type": "unocc",
				"energy": 0.04688,
				"method": "rhf"
			},
			{
				"type": "unocc",
				"energy": 0.05977,
				"method": "rhf"
			}
		],
		"cosmo_sigma_profile": { 
			"-0.025": 0.0,
			"-0.024": 0.0,
			"-0.023": 0.0,
			"-0.022": 0.0,
			"-0.021": 0.0,
			"-0.02": 0.0,
			"-0.019": 0.0873781223783,
			"-0.018": 0.837327524721,
			"-0.017": 0.999762000818,
			"-0.016": 0.885155500986,
			"-0.015": 1.54045597754,
			"-0.014": 0.39297353166,
			"-0.013": 1.01257397037,
			"-0.012": 0.989965023268,
			"-0.011": 1.3166458441,
			"-0.01": 1.42854507483,
			"-0.009": 1.22958691376,
			"-0.008": 1.89692348571,
			"-0.007": 5.19607834223,
			"-0.006": 14.6545645474,
			"-0.005": 16.9154696432,
			"-0.004": 16.6617180747,
			"-0.003": 15.2956511901,
			"-0.002": 17.7514181046,
			"-0.001": 18.2638910279,
			"0.0": 11.006966262,
			"0.001": 10.4220449188,
			"0.002": 12.9414861445,
			"0.003": 14.6057252955,
			"0.004": 7.93168508666,
			"0.005": 5.70354672467,
			"0.006": 7.33513065253,
			"0.007": 4.09470446388,
			"0.008": 5.0707601899,
			"0.009": 6.16366706433,
			"0.01": 6.46347204262,
			"0.011": 6.14773664863,
			"0.012": 5.07645864178,
			"0.013": 1.8211678397,
			"0.014": 0.109076606328,
			"0.015": 0.0,
			"0.016": 0.0,
			"0.017": 0.0,
			"0.018": 0.0,
			"0.019": 0.0,
			"0.02": 0.0,
			"0.021": 0.0,
			"0.022": 0.0,
			"0.023": 0.0,
			"0.024": 0.0,
			"0.025": 0.0
		}
	}
}
