{
	 "smiles": "CN(C)C(=O)C1=CC(Br)=CC=C1", 
	 "Tm": 326.15, 
	 "num_atms": 22, 
	 "gaussian": { 
		 "optdone": 1, 
		 "sigma_profile": "yes", 
		 "theory": "DFT", 
		 "functional": "B3LYP", 
		 "basiset": "6-31G**", 
		 "properties": { 
			 "R2extent": 4648.4721, 
			 "electric_dipole_moment_norm": 2.6827082976, 
			 "electric_quadrupole_moment_norm": 14.2259437947, 
			 "total_energy": -3050.37268362, 
			 "HOMO_LUMO_gap": 0.20106, 
			 "cosmo_polarized_energy": -10.01, 
			 "cosmo_cavitation_energy": 27.91, 
			 "cosmo_dispersion_energy": -20.45, 
			 "cosmo_repulsion_energy": 1.64, 
			 "cosmo_total_nonelectrostatic_energy": 9.1, 
			 "SMD_solvation_energy": 4.23 
		},
		"coords": [
			{
				"x": 1.1308100662,
				"y": 3.3400870787,
				"z": 1.0822864735,
				"element": "C" 
			},
			{
				"x": 0.7942999246,
				"y": 2.7893784655,
				"z": -0.2242649265,
				"element": "N" 
			},
			{
				"x": 1.3374931055,
				"y": 3.5250156893,
				"z": -1.3597139389,
				"element": "C" 
			},
			{
				"x": -0.225250277,
				"y": 1.8969348048,
				"z": -0.4686918059,
				"element": "C" 
			},
			{
				"x": -0.7199806858,
				"y": 1.7592143578,
				"z": -1.5853909357,
				"element": "O" 
			},
			{
				"x": -0.7092503833,
				"y": 1.0232540503,
				"z": 0.6624291498,
				"element": "C" 
			},
			{
				"x": 0.1697714032,
				"y": 0.3701355388,
				"z": 1.5367810205,
				"element": "C" 
			},
			{
				"x": -0.3411465802,
				"y": -0.5071601599,
				"z": 2.4910330539,
				"element": "C" 
			},
			{
				"x": 0.8662420859,
				"y": -1.4066651214,
				"z": 3.6720270896,
				"element": "Br" 
			},
			{
				"x": -1.7094466574,
				"y": -0.7455318027,
				"z": 2.6009817797,
				"element": "C" 
			},
			{
				"x": -2.5781096173,
				"y": -0.0999329862,
				"z": 1.7176449813,
				"element": "C" 
			},
			{
				"x": -2.0838835501,
				"y": 0.7663159666,
				"z": 0.7454190333,
				"element": "C" 
			},
			{
				"x": 2.1934776679,
				"y": 3.1915052724,
				"z": 1.3117242016,
				"element": "H" 
			},
			{
				"x": 0.5358690552,
				"y": 2.8760088946,
				"z": 1.8661431474,
				"element": "H" 
			},
			{
				"x": 0.9308787948,
				"y": 4.4199983108,
				"z": 1.0952408578,
				"element": "H" 
			},
			{
				"x": 1.1121141284,
				"y": 2.9805321162,
				"z": -2.2748264592,
				"element": "H" 
			},
			{
				"x": 0.898588761,
				"y": 4.5296271076,
				"z": -1.4322591519,
				"element": "H" 
			},
			{
				"x": 2.4215587369,
				"y": 3.629121661,
				"z": -1.2416500528,
				"element": "H" 
			},
			{
				"x": 1.2399165513,
				"y": 0.5246111009,
				"z": 1.4625157912,
				"element": "H" 
			},
			{
				"x": -2.0860243608,
				"y": -1.4278486869,
				"z": 3.3544168884,
				"element": "H" 
			},
			{
				"x": -3.6455856054,
				"y": -0.28643567,
				"z": 1.7879489782,
				"element": "H" 
			},
			{
				"x": -2.7479425639,
				"y": 1.2441340118,
				"z": 0.0335048248,
				"element": "H" 
			}
		],
		 "valence_orbital": [ 
			{
				"type": "occ",
				"energy": -0.29181,
				"method": "rhf"
			},
			{
				"type": "occ",
				"energy": -0.27155,
				"method": "rhf"
			},
			{
				"type": "occ",
				"energy": -0.25655,
				"method": "rhf"
			},
			{
				"type": "occ",
				"energy": -0.24554,
				"method": "rhf"
			},
			{
				"type": "occ",
				"energy": -0.23906,
				"method": "rhf"
			},
			{
				"type": "unocc",
				"energy": -0.038,
				"method": "rhf"
			},
			{
				"type": "unocc",
				"energy": -0.01951,
				"method": "rhf"
			},
			{
				"type": "unocc",
				"energy": 0.00227,
				"method": "rhf"
			},
			{
				"type": "unocc",
				"energy": 0.04336,
				"method": "rhf"
			},
			{
				"type": "unocc",
				"energy": 0.08664,
				"method": "rhf"
			}
		],
		"cosmo_sigma_profile": { 
			"-0.025": 0.0,
			"-0.024": 0.0,
			"-0.023": 0.0,
			"-0.022": 0.0,
			"-0.021": 0.0,
			"-0.02": 0.0,
			"-0.019": 0.0,
			"-0.018": 0.0,
			"-0.017": 0.0,
			"-0.016": 0.0,
			"-0.015": 0.0,
			"-0.014": 0.0,
			"-0.013": 0.0,
			"-0.012": 0.0,
			"-0.011": 0.0,
			"-0.01": 0.0,
			"-0.009": 0.0,
			"-0.008": 0.447112046899,
			"-0.007": 4.71314843166,
			"-0.006": 7.13864337249,
			"-0.005": 18.2935381108,
			"-0.004": 23.6401259293,
			"-0.003": 25.8004615815,
			"-0.002": 24.2628050996,
			"-0.001": 16.0750307984,
			"0.0": 13.3031080566,
			"0.001": 15.7645808492,
			"0.002": 18.7628802576,
			"0.003": 16.1939457648,
			"0.004": 14.6989419908,
			"0.005": 6.83058759752,
			"0.006": 1.98793415915,
			"0.007": 1.10115748774,
			"0.008": 1.74940487458,
			"0.009": 1.7473921262,
			"0.01": 1.56536814178,
			"0.011": 1.52625441768,
			"0.012": 2.08496220284,
			"0.013": 3.80839612763,
			"0.014": 3.69216523462,
			"0.015": 0.26302815762,
			"0.016": 0.0,
			"0.017": 0.0,
			"0.018": 0.0,
			"0.019": 0.0,
			"0.02": 0.0,
			"0.021": 0.0,
			"0.022": 0.0,
			"0.023": 0.0,
			"0.024": 0.0,
			"0.025": 0.0
		}
	}
}
