{
	 "smiles": "CC1=CC(F)=CC=C1[N+]([O-])=O", 
	 "Tm": 293.15, 
	 "num_atms": 17, 
	 "gaussian": { 
		 "optdone": 1, 
		 "sigma_profile": "yes", 
		 "theory": "DFT", 
		 "functional": "B3LYP", 
		 "basiset": "6-31G**", 
		 "properties": { 
			 "R2extent": 2729.6248, 
			 "electric_dipole_moment_norm": 3.08973834005, 
			 "electric_quadrupole_moment_norm": 16.2753063876, 
			 "total_energy": -575.297172516, 
			 "HOMO_LUMO_gap": 0.18567, 
			 "cosmo_polarized_energy": -7.21, 
			 "cosmo_cavitation_energy": 22.0, 
			 "cosmo_dispersion_energy": -16.23, 
			 "cosmo_repulsion_energy": 1.26, 
			 "cosmo_total_nonelectrostatic_energy": 7.04, 
			 "SMD_solvation_energy": 6.46 
		},
		"coords": [
			{
				"x": 0.0437115477,
				"y": -0.8516698365,
				"z": 2.6623725691,
				"element": "C" 
			},
			{
				"x": 0.0195453419,
				"y": 0.3164869182,
				"z": 1.7072568544,
				"element": "C" 
			},
			{
				"x": -1.0505347042,
				"y": 0.4109451327,
				"z": 0.807957551,
				"element": "C" 
			},
			{
				"x": -1.1372681565,
				"y": 1.4592144537,
				"z": -0.099334392,
				"element": "C" 
			},
			{
				"x": -2.1847920667,
				"y": 1.4998831989,
				"z": -0.9384295454,
				"element": "F" 
			},
			{
				"x": -0.1776281919,
				"y": 2.4637708573,
				"z": -0.1660723529,
				"element": "C" 
			},
			{
				"x": 0.8919899511,
				"y": 2.3930248211,
				"z": 0.7142087603,
				"element": "C" 
			},
			{
				"x": 0.9896417157,
				"y": 1.3414443762,
				"z": 1.6323638279,
				"element": "C" 
			},
			{
				"x": 2.1657237781,
				"y": 1.3682350146,
				"z": 2.516266089,
				"element": "N" 
			},
			{
				"x": 2.3019058352,
				"y": 0.4629047081,
				"z": 3.3408622121,
				"element": "O" 
			},
			{
				"x": 2.9597118784,
				"y": 2.3009704147,
				"z": 2.3855436101,
				"element": "O" 
			},
			{
				"x": 0.9453532203,
				"y": -1.4550636112,
				"z": 2.5339074535,
				"element": "H" 
			},
			{
				"x": 0.0489691587,
				"y": -0.5181082206,
				"z": 3.702707426,
				"element": "H" 
			},
			{
				"x": -0.8334557482,
				"y": -1.4814591754,
				"z": 2.4945983718,
				"element": "H" 
			},
			{
				"x": -1.8315011442,
				"y": -0.3415846235,
				"z": 0.810252018,
				"element": "H" 
			},
			{
				"x": -0.2752763537,
				"y": 3.2678478865,
				"z": -0.8860790906,
				"element": "H" 
			},
			{
				"x": 1.6703039384,
				"y": 3.1447576849,
				"z": 0.7110186377,
				"element": "H" 
			}
		],
		 "valence_orbital": [ 
			{
				"type": "occ",
				"energy": -0.30909,
				"method": "rhf"
			},
			{
				"type": "occ",
				"energy": -0.30688,
				"method": "rhf"
			},
			{
				"type": "occ",
				"energy": -0.2885,
				"method": "rhf"
			},
			{
				"type": "occ",
				"energy": -0.28048,
				"method": "rhf"
			},
			{
				"type": "occ",
				"energy": -0.27351,
				"method": "rhf"
			},
			{
				"type": "unocc",
				"energy": -0.08784,
				"method": "rhf"
			},
			{
				"type": "unocc",
				"energy": -0.03323,
				"method": "rhf"
			},
			{
				"type": "unocc",
				"energy": -0.00016,
				"method": "rhf"
			},
			{
				"type": "unocc",
				"energy": 0.07431,
				"method": "rhf"
			},
			{
				"type": "unocc",
				"energy": 0.10661,
				"method": "rhf"
			}
		],
		"cosmo_sigma_profile": { 
			"-0.025": 0.0,
			"-0.024": 0.0,
			"-0.023": 0.0,
			"-0.022": 0.0,
			"-0.021": 0.0,
			"-0.02": 0.0,
			"-0.019": 0.0,
			"-0.018": 0.0,
			"-0.017": 0.0,
			"-0.016": 0.0,
			"-0.015": 0.0,
			"-0.014": 0.0,
			"-0.013": 0.0,
			"-0.012": 0.0,
			"-0.011": 0.0,
			"-0.01": 0.0,
			"-0.009": 0.384620629671,
			"-0.008": 4.30798755692,
			"-0.007": 6.24477684904,
			"-0.006": 6.7525798272,
			"-0.005": 8.42926851041,
			"-0.004": 12.1013616935,
			"-0.003": 12.342264513,
			"-0.002": 15.3082564386,
			"-0.001": 22.6239981043,
			"0.0": 21.3969553666,
			"0.001": 14.6013652524,
			"0.002": 6.78373980949,
			"0.003": 10.404204013,
			"0.004": 7.06530084851,
			"0.005": 2.80288504143,
			"0.006": 3.62739241607,
			"0.007": 4.86325266473,
			"0.008": 7.24594726007,
			"0.009": 4.56425942066,
			"0.01": 3.86552721129,
			"0.011": 0.65590771419,
			"0.012": 0.0,
			"0.013": 0.0,
			"0.014": 0.0,
			"0.015": 0.0,
			"0.016": 0.0,
			"0.017": 0.0,
			"0.018": 0.0,
			"0.019": 0.0,
			"0.02": 0.0,
			"0.021": 0.0,
			"0.022": 0.0,
			"0.023": 0.0,
			"0.024": 0.0,
			"0.025": 0.0
		}
	}
}
