{
	 "smiles": "CC1=C(C)C=C2N(CC3=CC=C(Cl)C=C3)C=NC2=C1", 
	 "Tm": 417.15, 
	 "num_atms": 34, 
	 "gaussian": { 
		 "optdone": 1, 
		 "sigma_profile": "yes", 
		 "theory": "DFT", 
		 "functional": "B3LYP", 
		 "basiset": "6-31G**", 
		 "properties": { 
			 "R2extent": 7430.697, 
			 "electric_dipole_moment_norm": 2.77848253729, 
			 "electric_quadrupole_moment_norm": 19.4266128607, 
			 "total_energy": -1188.46258188, 
			 "HOMO_LUMO_gap": 0.18973, 
			 "cosmo_polarized_energy": -13.56, 
			 "cosmo_cavitation_energy": 39.33, 
			 "cosmo_dispersion_energy": -27.52, 
			 "cosmo_repulsion_energy": 2.11, 
			 "cosmo_total_nonelectrostatic_energy": 13.92, 
			 "SMD_solvation_energy": 4.44 
		},
		"coords": [
			{
				"x": -3.9532206116,
				"y": -2.161220988,
				"z": -1.3108429685,
				"element": "C" 
			},
			{
				"x": -2.6950667972,
				"y": -1.3282541,
				"z": -1.4051672226,
				"element": "C" 
			},
			{
				"x": -1.6067872977,
				"y": -1.5763277047,
				"z": -0.5151187869,
				"element": "C" 
			},
			{
				"x": -1.7114806021,
				"y": -2.669200319,
				"z": 0.5232971234,
				"element": "C" 
			},
			{
				"x": -0.4409061144,
				"y": -0.8132512455,
				"z": -0.5909814844,
				"element": "C" 
			},
			{
				"x": -0.3732255828,
				"y": 0.1899890862,
				"z": -1.5596996647,
				"element": "C" 
			},
			{
				"x": 0.6145712242,
				"y": 1.1036584664,
				"z": -1.9056282456,
				"element": "N" 
			},
			{
				"x": 1.9349199026,
				"y": 1.2404920952,
				"z": -1.3171614266,
				"element": "C" 
			},
			{
				"x": 1.9384535598,
				"y": 1.757906736,
				"z": 0.1130855809,
				"element": "C" 
			},
			{
				"x": 1.0248720173,
				"y": 2.7287340112,
				"z": 0.5390231028,
				"element": "C" 
			},
			{
				"x": 1.0680000913,
				"y": 3.2305277575,
				"z": 1.8387824024,
				"element": "C" 
			},
			{
				"x": 2.0401750884,
				"y": 2.7568061958,
				"z": 2.7199211069,
				"element": "C" 
			},
			{
				"x": 2.1007634558,
				"y": 3.3840985259,
				"z": 4.36042577,
				"element": "Cl" 
			},
			{
				"x": 2.960203179,
				"y": 1.789016369,
				"z": 2.321053027,
				"element": "C" 
			},
			{
				"x": 2.8986834282,
				"y": 1.2937061358,
				"z": 1.0182037301,
				"element": "C" 
			},
			{
				"x": 0.0955062981,
				"y": 1.8389717874,
				"z": -2.9541066001,
				"element": "C" 
			},
			{
				"x": -1.1143123114,
				"y": 1.4919913475,
				"z": -3.3077355349,
				"element": "N" 
			},
			{
				"x": -1.4395287509,
				"y": 0.450155063,
				"z": -2.4464367524,
				"element": "C" 
			},
			{
				"x": -2.606175418,
				"y": -0.3190743078,
				"z": -2.3618517322,
				"element": "C" 
			},
			{
				"x": -4.6861728235,
				"y": -1.8470064792,
				"z": -2.0583810611,
				"element": "H" 
			},
			{
				"x": -3.7509139351,
				"y": -3.2274524819,
				"z": -1.4714049863,
				"element": "H" 
			},
			{
				"x": -4.426853139,
				"y": -2.0765794974,
				"z": -0.3249073485,
				"element": "H" 
			},
			{
				"x": -0.8005080158,
				"y": -2.7300194035,
				"z": 1.1247571516,
				"element": "H" 
			},
			{
				"x": -1.8741239601,
				"y": -3.6523732458,
				"z": 0.0647292859,
				"element": "H" 
			},
			{
				"x": -2.5513035723,
				"y": -2.5005804303,
				"z": 1.2084734406,
				"element": "H" 
			},
			{
				"x": 0.3792788302,
				"y": -0.9969925564,
				"z": 0.0967427721,
				"element": "H" 
			},
			{
				"x": 2.4499882042,
				"y": 0.2733156881,
				"z": -1.3590405605,
				"element": "H" 
			},
			{
				"x": 2.4994392497,
				"y": 1.922998167,
				"z": -1.9637181568,
				"element": "H" 
			},
			{
				"x": 0.2632951849,
				"y": 3.0898735326,
				"z": -0.1456225086,
				"element": "H" 
			},
			{
				"x": 0.3554782964,
				"y": 3.9791075606,
				"z": 2.1670288405,
				"element": "H" 
			},
			{
				"x": 3.705257476,
				"y": 1.4243642003,
				"z": 3.0193884602,
				"element": "H" 
			},
			{
				"x": 3.6116136764,
				"y": 0.5337796403,
				"z": 0.7073753132,
				"element": "H" 
			},
			{
				"x": 0.6812347131,
				"y": 2.6249387251,
				"z": -3.4164842308,
				"element": "H" 
			},
			{
				"x": -3.4302549439,
				"y": -0.1243983312,
				"z": -3.041897836,
				"element": "H" 
			}
		],
		 "valence_orbital": [ 
			{
				"type": "occ",
				"energy": -0.2721,
				"method": "rhf"
			},
			{
				"type": "occ",
				"energy": -0.26604,
				"method": "rhf"
			},
			{
				"type": "occ",
				"energy": -0.25087,
				"method": "rhf"
			},
			{
				"type": "occ",
				"energy": -0.21707,
				"method": "rhf"
			},
			{
				"type": "occ",
				"energy": -0.21453,
				"method": "rhf"
			},
			{
				"type": "unocc",
				"energy": -0.0248,
				"method": "rhf"
			},
			{
				"type": "unocc",
				"energy": -0.02376,
				"method": "rhf"
			},
			{
				"type": "unocc",
				"energy": -0.0094,
				"method": "rhf"
			},
			{
				"type": "unocc",
				"energy": 0.02108,
				"method": "rhf"
			},
			{
				"type": "unocc",
				"energy": 0.02622,
				"method": "rhf"
			}
		],
		"cosmo_sigma_profile": { 
			"-0.025": 0.0,
			"-0.024": 0.0,
			"-0.023": 0.0,
			"-0.022": 0.0,
			"-0.021": 0.0,
			"-0.02": 0.0,
			"-0.019": 0.0,
			"-0.018": 0.0,
			"-0.017": 0.0,
			"-0.016": 0.0,
			"-0.015": 0.0,
			"-0.014": 0.0,
			"-0.013": 0.0,
			"-0.012": 0.0,
			"-0.011": 0.00429833641402,
			"-0.01": 1.01415349219,
			"-0.009": 3.26523159347,
			"-0.008": 4.0692597489,
			"-0.007": 11.3214254769,
			"-0.006": 14.7449506486,
			"-0.005": 18.928015596,
			"-0.004": 24.3668103354,
			"-0.003": 24.194097475,
			"-0.002": 21.5009656258,
			"-0.001": 23.3072990499,
			"0.0": 27.7141383982,
			"0.001": 26.1783987635,
			"0.002": 23.5774238751,
			"0.003": 25.7820619044,
			"0.004": 21.8710246598,
			"0.005": 19.4044893037,
			"0.006": 9.32150801722,
			"0.007": 1.93397827169,
			"0.008": 1.64976302087,
			"0.009": 2.21566978795,
			"0.01": 0.389974863393,
			"0.011": 1.36050435557,
			"0.012": 1.46028173187,
			"0.013": 1.13619933678,
			"0.014": 1.07970411285,
			"0.015": 0.958951882035,
			"0.016": 1.29691966282,
			"0.017": 0.850450991431,
			"0.018": 0.671570371218,
			"0.019": 0.0,
			"0.02": 0.0,
			"0.021": 0.0,
			"0.022": 0.0,
			"0.023": 0.0,
			"0.024": 0.0,
			"0.025": 0.0
		}
	}
}
