{
	 "smiles": "IC1=CC=CC(CN2C=CC=N2)=C1", 
	 "Tm": 325.65, 
	 "num_atms": 22, 
	 "gaussian": { 
		 "optdone": 1, 
		 "sigma_profile": "no", 
		 "theory": "DFT", 
		 "functional": "B3LYP", 
		 "basiset": "6-31G**", 
		 "properties": { 
			 "R2extent": 3339.7335, 
			 "electric_dipole_moment_norm": 0.861803718952, 
			 "electric_quadrupole_moment_norm": 9.59184627431, 
			 "total_energy": -507.352366995, 
			 "HOMO_LUMO_gap": 0.19955, 
			 "cosmo_polarized_energy": -102398.34, 
			 "cosmo_cavitation_energy": 29.55, 
			 "cosmo_dispersion_energy": -22.6, 
			 "cosmo_repulsion_energy": 1.75, 
			 "cosmo_total_nonelectrostatic_energy": 8.71, 
			 "SMD_solvation_energy": 3.78 
		},
		"coords": [
			{
				"x": 3.4025070195,
				"y": -3.1374887174,
				"z": 3.657632786,
				"element": "I" 
			},
			{
				"x": 1.8673993084,
				"y": -1.8711894108,
				"z": 2.9163121193,
				"element": "C" 
			},
			{
				"x": 1.6289364962,
				"y": -0.644269685,
				"z": 3.5333386665,
				"element": "C" 
			},
			{
				"x": 0.6172573975,
				"y": 0.1774916687,
				"z": 3.0271691875,
				"element": "C" 
			},
			{
				"x": -0.1418446272,
				"y": -0.2202150993,
				"z": 1.9291588814,
				"element": "C" 
			},
			{
				"x": 0.10606817,
				"y": -1.4541279277,
				"z": 1.3142874716,
				"element": "C" 
			},
			{
				"x": -0.7324628594,
				"y": -1.9113081152,
				"z": 0.1314451569,
				"element": "C" 
			},
			{
				"x": -0.8348376785,
				"y": -0.9225520575,
				"z": -0.9327420627,
				"element": "N" 
			},
			{
				"x": 0.0428716823,
				"y": -0.6874265782,
				"z": -1.9456519327,
				"element": "C" 
			},
			{
				"x": -0.4323455374,
				"y": 0.4084401747,
				"z": -2.640161757,
				"element": "C" 
			},
			{
				"x": -1.6108437948,
				"y": 0.7741259289,
				"z": -1.9541526746,
				"element": "C" 
			},
			{
				"x": -1.8526873013,
				"y": -0.0297240492,
				"z": -0.9178301565,
				"element": "N" 
			},
			{
				"x": 1.1184526191,
				"y": -2.2813185353,
				"z": 1.8111747247,
				"element": "C" 
			},
			{
				"x": 2.2162772974,
				"y": -0.3305244507,
				"z": 4.3887739192,
				"element": "H" 
			},
			{
				"x": 0.4241821113,
				"y": 1.1354948763,
				"z": 3.5012323627,
				"element": "H" 
			},
			{
				"x": -0.9245110161,
				"y": 0.4206984998,
				"z": 1.5350257516,
				"element": "H" 
			},
			{
				"x": -0.3193406827,
				"y": -2.831323969,
				"z": -0.2921488819,
				"element": "H" 
			},
			{
				"x": -1.7586673241,
				"y": -2.1199997083,
				"z": 0.4466694221,
				"element": "H" 
			},
			{
				"x": 0.915557475,
				"y": -1.3074965306,
				"z": -2.0916774039,
				"element": "H" 
			},
			{
				"x": 0.001540135,
				"y": 0.8660403415,
				"z": -3.5165338875,
				"element": "H" 
			},
			{
				"x": -2.2976413336,
				"y": 1.5802187361,
				"z": -2.175707444,
				"element": "H" 
			},
			{
				"x": 1.3193324434,
				"y": -3.2377453917,
				"z": 1.3389857513,
				"element": "H" 
			}
		],
		 "valence_orbital": [ 
			{
				"type": "occ",
				"energy": -0.27064,
				"method": "rhf"
			},
			{
				"type": "occ",
				"energy": -0.26631,
				"method": "rhf"
			},
			{
				"type": "occ",
				"energy": -0.25058,
				"method": "rhf"
			},
			{
				"type": "occ",
				"energy": -0.24633,
				"method": "rhf"
			},
			{
				"type": "occ",
				"energy": -0.24063,
				"method": "rhf"
			},
			{
				"type": "unocc",
				"energy": -0.04108,
				"method": "rhf"
			},
			{
				"type": "unocc",
				"energy": -0.02411,
				"method": "rhf"
			},
			{
				"type": "unocc",
				"energy": -0.01875,
				"method": "rhf"
			},
			{
				"type": "unocc",
				"energy": 0.01662,
				"method": "rhf"
			},
			{
				"type": "unocc",
				"energy": 0.04027,
				"method": "rhf"
			}
		],
		"cosmo_sigma_profile": { 
			"0.0": 0.0,
			"0.0": 0.0,
			"0.0": 0.0,
			"0.0": 0.0,
			"0.0": 0.0,
			"0.0": 0.0,
			"0.0": 0.0,
			"0.0": 0.0,
			"0.0": 0.0,
			"0.0": 0.0,
			"0.0": 0.0,
			"0.0": 0.0,
			"0.0": 0.0,
			"0.0": 0.0,
			"0.0": 0.0,
			"0.0": 0.0,
			"0.0": 0.0,
			"0.0": 0.0,
			"0.0": 0.0,
			"0.0": 0.0,
			"0.0": 0.0,
			"0.0": 0.0,
			"0.0": 0.0,
			"0.0": 0.0,
			"0.0": 0.0,
			"0.0": 0.0,
			"0.0": 0.0,
			"0.0": 0.0,
			"0.0": 0.0,
			"0.0": 0.0,
			"0.0": 0.0,
			"0.0": 0.0,
			"0.0": 0.0,
			"0.0": 0.0,
			"0.0": 0.0,
			"0.0": 0.0,
			"0.0": 0.0,
			"0.0": 0.0,
			"0.0": 0.0,
			"0.0": 0.0,
			"0.0": 0.0,
			"0.0": 0.0,
			"0.0": 0.0,
			"0.0": 0.0,
			"0.0": 0.0,
			"0.0": 0.0,
			"0.0": 0.0,
			"0.0": 0.0,
			"0.0": 0.0,
			"0.0": 0.0,
			"0.0": 0.0
		}
	}
}
