{
	 "smiles": "OC1=CC2=C(C=C1)C(CCl)=CC(=O)O2", 
	 "Tm": 409.15, 
	 "num_atms": 21, 
	 "gaussian": { 
		 "optdone": 1, 
		 "sigma_profile": "yes", 
		 "theory": "DFT", 
		 "functional": "B3LYP", 
		 "basiset": "6-31G**", 
		 "properties": { 
			 "R2extent": 3479.5222, 
			 "electric_dipole_moment_norm": 5.68764529924, 
			 "electric_quadrupole_moment_norm": 18.815819237, 
			 "total_energy": -1071.14963932, 
			 "HOMO_LUMO_gap": 0.15628, 
			 "cosmo_polarized_energy": -17.73, 
			 "cosmo_cavitation_energy": 27.45, 
			 "cosmo_dispersion_energy": -20.43, 
			 "cosmo_repulsion_energy": 1.6, 
			 "cosmo_total_nonelectrostatic_energy": 8.63, 
			 "SMD_solvation_energy": 5.86 
		},
		"coords": [
			{
				"x": -0.8939411572,
				"y": 3.8294618343,
				"z": -0.5580961951,
				"element": "O" 
			},
			{
				"x": -0.7517886639,
				"y": 2.489670759,
				"z": -0.3852022213,
				"element": "C" 
			},
			{
				"x": -1.3481273898,
				"y": 1.9246477043,
				"z": 0.7413205696,
				"element": "C" 
			},
			{
				"x": -1.2253536413,
				"y": 0.5549831878,
				"z": 0.9552610667,
				"element": "C" 
			},
			{
				"x": -0.5167786447,
				"y": -0.2821945825,
				"z": 0.0641492103,
				"element": "C" 
			},
			{
				"x": 0.0747584703,
				"y": 0.3223039481,
				"z": -1.0615768824,
				"element": "C" 
			},
			{
				"x": -0.0367204303,
				"y": 1.6839504802,
				"z": -1.2905212294,
				"element": "C" 
			},
			{
				"x": -0.4630533055,
				"y": -1.6976707895,
				"z": 0.3731380727,
				"element": "C" 
			},
			{
				"x": 0.2259194891,
				"y": -2.6684881692,
				"z": -0.5438236816,
				"element": "C" 
			},
			{
				"x": 2.0454730812,
				"y": -2.519512624,
				"z": -0.4785455432,
				"element": "Cl" 
			},
			{
				"x": -1.0763357697,
				"y": -2.1598002896,
				"z": 1.493016285,
				"element": "C" 
			},
			{
				"x": -1.7976742906,
				"y": -1.2899636133,
				"z": 2.4123884974,
				"element": "C" 
			},
			{
				"x": -2.3618249935,
				"y": -1.6352840268,
				"z": 3.4232360446,
				"element": "O" 
			},
			{
				"x": -1.831639867,
				"y": 0.0621616137,
				"z": 2.0729166294,
				"element": "O" 
			},
			{
				"x": -0.4341156435,
				"y": 4.1023613321,
				"z": -1.3629280318,
				"element": "H" 
			},
			{
				"x": -1.8995457653,
				"y": 2.53896205,
				"z": 1.4426472425,
				"element": "H" 
			},
			{
				"x": 0.6460303905,
				"y": -0.282647357,
				"z": -1.7567140266,
				"element": "H" 
			},
			{
				"x": 0.4313998664,
				"y": 2.1308590506,
				"z": -2.1638715115,
				"element": "H" 
			},
			{
				"x": -0.0500483054,
				"y": -2.5084174883,
				"z": -1.587144312,
				"element": "H" 
			},
			{
				"x": -0.0026701977,
				"y": -3.6961283144,
				"z": -0.2655780289,
				"element": "H" 
			},
			{
				"x": -1.0627632323,
				"y": -3.2088547054,
				"z": 1.7654280455,
				"element": "H" 
			}
		],
		 "valence_orbital": [ 
			{
				"type": "occ",
				"energy": -0.31041,
				"method": "rhf"
			},
			{
				"type": "occ",
				"energy": -0.30109,
				"method": "rhf"
			},
			{
				"type": "occ",
				"energy": -0.27615,
				"method": "rhf"
			},
			{
				"type": "occ",
				"energy": -0.25733,
				"method": "rhf"
			},
			{
				"type": "occ",
				"energy": -0.23241,
				"method": "rhf"
			},
			{
				"type": "unocc",
				"energy": -0.07613,
				"method": "rhf"
			},
			{
				"type": "unocc",
				"energy": -0.01953,
				"method": "rhf"
			},
			{
				"type": "unocc",
				"energy": -0.00932,
				"method": "rhf"
			},
			{
				"type": "unocc",
				"energy": 0.02723,
				"method": "rhf"
			},
			{
				"type": "unocc",
				"energy": 0.05282,
				"method": "rhf"
			}
		],
		"cosmo_sigma_profile": { 
			"-0.025": 0.0,
			"-0.024": 0.0,
			"-0.023": 0.0,
			"-0.022": 0.0,
			"-0.021": 0.0,
			"-0.02": 0.0,
			"-0.019": 0.227971212267,
			"-0.018": 1.42302368244,
			"-0.017": 1.23662249168,
			"-0.016": 1.10005872198,
			"-0.015": 1.10625892815,
			"-0.014": 0.798129334573,
			"-0.013": 0.629080921432,
			"-0.012": 0.871395454351,
			"-0.011": 1.4068635776,
			"-0.01": 1.9204339156,
			"-0.009": 5.92000063509,
			"-0.008": 8.97593059976,
			"-0.007": 9.48221750942,
			"-0.006": 9.7266543977,
			"-0.005": 10.6000445475,
			"-0.004": 9.45688659706,
			"-0.003": 8.68466041655,
			"-0.002": 9.64571345163,
			"-0.001": 12.4577885012,
			"0.0": 14.6756737639,
			"0.001": 17.503538823,
			"0.002": 19.9907096817,
			"0.003": 14.3421663517,
			"0.004": 11.1094265318,
			"0.005": 11.80839501,
			"0.006": 8.93110576778,
			"0.007": 3.13082533736,
			"0.008": 4.05624421235,
			"0.009": 3.94198161731,
			"0.01": 4.3349208441,
			"0.011": 4.84885119734,
			"0.012": 5.8856665482,
			"0.013": 2.17979633772,
			"0.014": 0.0314028928619,
			"0.015": 0.0,
			"0.016": 0.0,
			"0.017": 0.0,
			"0.018": 0.0,
			"0.019": 0.0,
			"0.02": 0.0,
			"0.021": 0.0,
			"0.022": 0.0,
			"0.023": 0.0,
			"0.024": 0.0,
			"0.025": 0.0
		}
	}
}
