{
	 "smiles": "CS(=O)(=O)NC1=NN=C(N)S1", 
	 "Tm": 525.15, 
	 "num_atms": 17, 
	 "gaussian": { 
		 "optdone": 1, 
		 "sigma_profile": "yes", 
		 "theory": "DFT", 
		 "functional": "B3LYP", 
		 "basiset": "6-31G**", 
		 "properties": { 
			 "R2extent": 3102.0541, 
			 "electric_dipole_moment_norm": 4.53154920419, 
			 "electric_quadrupole_moment_norm": 17.228006084, 
			 "total_energy": -1283.66062823, 
			 "HOMO_LUMO_gap": 0.19679, 
			 "cosmo_polarized_energy": -23.08, 
			 "cosmo_cavitation_energy": 24.92, 
			 "cosmo_dispersion_energy": -19.38, 
			 "cosmo_repulsion_energy": 1.48, 
			 "cosmo_total_nonelectrostatic_energy": 7.02, 
			 "SMD_solvation_energy": 2.01 
		},
		"coords": [
			{
				"x": -0.8572024849,
				"y": 3.3572252334,
				"z": 0.8214258628,
				"element": "C" 
			},
			{
				"x": -0.1050858167,
				"y": 2.2753561696,
				"z": -0.3968787038,
				"element": "S" 
			},
			{
				"x": 0.1965205057,
				"y": 3.0131191304,
				"z": -1.624347545,
				"element": "O" 
			},
			{
				"x": 0.9060519537,
				"y": 1.457573961,
				"z": 0.269834033,
				"element": "O" 
			},
			{
				"x": -1.4648066143,
				"y": 1.3000284288,
				"z": -0.8439631993,
				"element": "N" 
			},
			{
				"x": -1.830399134,
				"y": 0.2151276846,
				"z": -0.0500499766,
				"element": "C" 
			},
			{
				"x": -2.2659799292,
				"y": 0.3484132874,
				"z": 1.1638717456,
				"element": "N" 
			},
			{
				"x": -2.5288973742,
				"y": -0.8363729089,
				"z": 1.7910935464,
				"element": "N" 
			},
			{
				"x": -2.2998519578,
				"y": -1.8743514811,
				"z": 1.0322710722,
				"element": "C" 
			},
			{
				"x": -2.4669144273,
				"y": -3.1694410703,
				"z": 1.4521166684,
				"element": "N" 
			},
			{
				"x": -1.6736447755,
				"y": -1.4777811942,
				"z": -0.5694659208,
				"element": "S" 
			},
			{
				"x": -1.6010432554,
				"y": 3.9750599415,
				"z": 0.3187909353,
				"element": "H" 
			},
			{
				"x": -0.0543681546,
				"y": 3.9668330982,
				"z": 1.2396845302,
				"element": "H" 
			},
			{
				"x": -1.3180864686,
				"y": 2.7266496899,
				"z": 1.5832492381,
				"element": "H" 
			},
			{
				"x": -1.4566939407,
				"y": 1.1658619056,
				"z": -1.8497975428,
				"element": "H" 
			},
			{
				"x": -2.9929128387,
				"y": -3.2406395422,
				"z": 2.3140620126,
				"element": "H" 
			},
			{
				"x": -2.7151852876,
				"y": -3.8556623338,
				"z": 0.7546032438,
				"element": "H" 
			}
		],
		 "valence_orbital": [ 
			{
				"type": "occ",
				"energy": -0.31238,
				"method": "rhf"
			},
			{
				"type": "occ",
				"energy": -0.30515,
				"method": "rhf"
			},
			{
				"type": "occ",
				"energy": -0.29373,
				"method": "rhf"
			},
			{
				"type": "occ",
				"energy": -0.27143,
				"method": "rhf"
			},
			{
				"type": "occ",
				"energy": -0.23381,
				"method": "rhf"
			},
			{
				"type": "unocc",
				"energy": -0.03702,
				"method": "rhf"
			},
			{
				"type": "unocc",
				"energy": -0.02306,
				"method": "rhf"
			},
			{
				"type": "unocc",
				"energy": 0.0232,
				"method": "rhf"
			},
			{
				"type": "unocc",
				"energy": 0.05374,
				"method": "rhf"
			},
			{
				"type": "unocc",
				"energy": 0.06443,
				"method": "rhf"
			}
		],
		"cosmo_sigma_profile": { 
			"-0.025": 0.0,
			"-0.024": 0.0,
			"-0.023": 0.0,
			"-0.022": 0.0,
			"-0.021": 0.0,
			"-0.02": 0.0,
			"-0.019": 0.0,
			"-0.018": 0.0,
			"-0.017": 0.623605371594,
			"-0.016": 1.59420080486,
			"-0.015": 3.09116776205,
			"-0.014": 4.01555983772,
			"-0.013": 3.9744228,
			"-0.012": 3.32360959824,
			"-0.011": 3.98148879144,
			"-0.01": 3.7392548292,
			"-0.009": 6.60115803623,
			"-0.008": 6.90977109127,
			"-0.007": 6.151351204,
			"-0.006": 7.51600967191,
			"-0.005": 9.04286744296,
			"-0.004": 8.7695908604,
			"-0.003": 7.11385523007,
			"-0.002": 9.07887904372,
			"-0.001": 10.3600159348,
			"0.0": 10.5303718349,
			"0.001": 9.10550927768,
			"0.002": 8.62020122726,
			"0.003": 7.01580600424,
			"0.004": 6.49677611259,
			"0.005": 6.96334443894,
			"0.006": 5.32229522593,
			"0.007": 7.699007313,
			"0.008": 5.60815315093,
			"0.009": 6.19749876154,
			"0.01": 15.2597444853,
			"0.011": 10.6692503986,
			"0.012": 2.56645353608,
			"0.013": 1.50188755304,
			"0.014": 1.08012199908,
			"0.015": 0.590388740465,
			"0.016": 0.0,
			"0.017": 0.0,
			"0.018": 0.0,
			"0.019": 0.0,
			"0.02": 0.0,
			"0.021": 0.0,
			"0.022": 0.0,
			"0.023": 0.0,
			"0.024": 0.0,
			"0.025": 0.0
		}
	}
}
