{
	 "smiles": "OC(=O)C1=CNC2=C(C=CC=C2)C1=O", 
	 "Tm": 524.15, 
	 "num_atms": 21, 
	 "gaussian": { 
		 "optdone": 1, 
		 "sigma_profile": "yes", 
		 "theory": "DFT", 
		 "functional": "B3LYP", 
		 "basiset": "6-31G**", 
		 "properties": { 
			 "R2extent": 3239.5758, 
			 "electric_dipole_moment_norm": 8.80013966537, 
			 "electric_quadrupole_moment_norm": 23.9524523091, 
			 "total_energy": -665.745669424, 
			 "HOMO_LUMO_gap": 0.1728, 
			 "cosmo_polarized_energy": -22.54, 
			 "cosmo_cavitation_energy": 25.42, 
			 "cosmo_dispersion_energy": -19.45, 
			 "cosmo_repulsion_energy": 1.48, 
			 "cosmo_total_nonelectrostatic_energy": 7.45, 
			 "SMD_solvation_energy": 5.92 
		},
		"coords": [
			{
				"x": -3.4858920915,
				"y": -1.1159011431,
				"z": -2.8491387809,
				"element": "O" 
			},
			{
				"x": -2.8479086773,
				"y": 0.0534284944,
				"z": -2.7757097798,
				"element": "C" 
			},
			{
				"x": -3.0918810501,
				"y": 0.9856411291,
				"z": -3.5182016272,
				"element": "O" 
			},
			{
				"x": -1.7966014346,
				"y": 0.145453193,
				"z": -1.7078101259,
				"element": "C" 
			},
			{
				"x": -1.1164806589,
				"y": 1.3282423815,
				"z": -1.5982415325,
				"element": "C" 
			},
			{
				"x": -0.1484966723,
				"y": 1.5277962162,
				"z": -0.674618786,
				"element": "N" 
			},
			{
				"x": 0.2243601936,
				"y": 0.5423552032,
				"z": 0.230924005,
				"element": "C" 
			},
			{
				"x": -0.4318609592,
				"y": -0.7063954202,
				"z": 0.1808014486,
				"element": "C" 
			},
			{
				"x": -0.0565012063,
				"y": -1.7060142977,
				"z": 1.0961032954,
				"element": "C" 
			},
			{
				"x": 0.9386669333,
				"y": -1.4712392894,
				"z": 2.0303722535,
				"element": "C" 
			},
			{
				"x": 1.5836218345,
				"y": -0.2218578975,
				"z": 2.0682293465,
				"element": "C" 
			},
			{
				"x": 1.2343860347,
				"y": 0.7817393323,
				"z": 1.1785228816,
				"element": "C" 
			},
			{
				"x": -1.4913697419,
				"y": -0.9580223737,
				"z": -0.8128939196,
				"element": "C" 
			},
			{
				"x": -2.0816286155,
				"y": -2.0584750093,
				"z": -0.8707901586,
				"element": "O" 
			},
			{
				"x": -3.1163110422,
				"y": -1.7174152631,
				"z": -2.1450279609,
				"element": "H" 
			},
			{
				"x": -1.3489131965,
				"y": 2.1484643569,
				"z": -2.2691422406,
				"element": "H" 
			},
			{
				"x": 0.3216851932,
				"y": 2.4209599278,
				"z": -0.637182665,
				"element": "H" 
			},
			{
				"x": -0.5748699812,
				"y": -2.657022144,
				"z": 1.0381438762,
				"element": "H" 
			},
			{
				"x": 1.2229042517,
				"y": -2.2474911597,
				"z": 2.733530601,
				"element": "H" 
			},
			{
				"x": 2.3638070826,
				"y": -0.0374205858,
				"z": 2.8004811071,
				"element": "H" 
			},
			{
				"x": 1.7325838039,
				"y": 1.7473743493,
				"z": 1.2073487621,
				"element": "H" 
			}
		],
		 "valence_orbital": [ 
			{
				"type": "occ",
				"energy": -0.2816,
				"method": "rhf"
			},
			{
				"type": "occ",
				"energy": -0.28008,
				"method": "rhf"
			},
			{
				"type": "occ",
				"energy": -0.26804,
				"method": "rhf"
			},
			{
				"type": "occ",
				"energy": -0.25555,
				"method": "rhf"
			},
			{
				"type": "occ",
				"energy": -0.24189,
				"method": "rhf"
			},
			{
				"type": "unocc",
				"energy": -0.06909,
				"method": "rhf"
			},
			{
				"type": "unocc",
				"energy": -0.05152,
				"method": "rhf"
			},
			{
				"type": "unocc",
				"energy": -0.0099,
				"method": "rhf"
			},
			{
				"type": "unocc",
				"energy": 0.02952,
				"method": "rhf"
			},
			{
				"type": "unocc",
				"energy": 0.03814,
				"method": "rhf"
			}
		],
		"cosmo_sigma_profile": { 
			"-0.025": 0.0,
			"-0.024": 0.0,
			"-0.023": 0.0,
			"-0.022": 0.0,
			"-0.021": 0.0,
			"-0.02": 0.0,
			"-0.019": 0.0,
			"-0.018": 1.18506132934,
			"-0.017": 2.10572445256,
			"-0.016": 1.80542267137,
			"-0.015": 1.4430917885,
			"-0.014": 1.7688943779,
			"-0.013": 1.33922548029,
			"-0.012": 1.38944296684,
			"-0.011": 1.83655707826,
			"-0.01": 2.4403283997,
			"-0.009": 2.18267095587,
			"-0.008": 3.07282695462,
			"-0.007": 6.13574948908,
			"-0.006": 8.51171131942,
			"-0.005": 10.9668914284,
			"-0.004": 9.75941696292,
			"-0.003": 12.6156296303,
			"-0.002": 17.9301367824,
			"-0.001": 15.7259182877,
			"0.0": 12.4187765492,
			"0.001": 13.5345501113,
			"0.002": 14.5582493385,
			"0.003": 13.6524570319,
			"0.004": 4.69645751784,
			"0.005": 3.47270026658,
			"0.006": 3.49210440759,
			"0.007": 3.83094176493,
			"0.008": 3.23771986782,
			"0.009": 3.88705043909,
			"0.01": 5.40562504855,
			"0.011": 6.14398700712,
			"0.012": 8.11306129949,
			"0.013": 4.2982134817,
			"0.014": 1.79806209908,
			"0.015": 0.167576877933,
			"0.016": 0.0,
			"0.017": 0.0,
			"0.018": 0.0,
			"0.019": 0.0,
			"0.02": 0.0,
			"0.021": 0.0,
			"0.022": 0.0,
			"0.023": 0.0,
			"0.024": 0.0,
			"0.025": 0.0
		}
	}
}
