{
	 "smiles": "CN1C(=O)C(C2=NNC(=O)C2=N/NC2=CC=CN=C2)=C(O)C2=CC=CC=C12", 
	 "Tm": 503.15, 
	 "num_atms": 41, 
	 "gaussian": { 
		 "optdone": 1, 
		 "sigma_profile": "yes", 
		 "theory": "DFT", 
		 "functional": "B3LYP", 
		 "basiset": "6-31G**", 
		 "properties": { 
			 "R2extent": 12006.0488, 
			 "electric_dipole_moment_norm": 2.24308902632, 
			 "electric_quadrupole_moment_norm": 25.6967335833, 
			 "total_energy": -1248.50330637, 
			 "HOMO_LUMO_gap": 0.1014, 
			 "cosmo_polarized_energy": -24.84, 
			 "cosmo_cavitation_energy": 45.63, 
			 "cosmo_dispersion_energy": -33.22, 
			 "cosmo_repulsion_energy": 2.41, 
			 "cosmo_total_nonelectrostatic_energy": 14.81, 
			 "SMD_solvation_energy": 6.2 
		},
		"coords": [
			{
				"x": -0.5263820013,
				"y": -1.1010736345,
				"z": 5.4909575993,
				"element": "C" 
			},
			{
				"x": -0.6603710193,
				"y": -0.7001474226,
				"z": 4.0910236596,
				"element": "N" 
			},
			{
				"x": 0.2671130779,
				"y": 0.2552697987,
				"z": 3.6140509861,
				"element": "C" 
			},
			{
				"x": 1.1471616665,
				"y": 0.6683271541,
				"z": 4.3607764708,
				"element": "O" 
			},
			{
				"x": 0.1137259859,
				"y": 0.6874968053,
				"z": 2.2083275534,
				"element": "C" 
			},
			{
				"x": 0.9736739081,
				"y": 1.7996102978,
				"z": 1.7627641559,
				"element": "C" 
			},
			{
				"x": 1.3751769211,
				"y": 2.731384369,
				"z": 2.5975676766,
				"element": "N" 
			},
			{
				"x": 2.19714754,
				"y": 3.6043414875,
				"z": 1.9022242321,
				"element": "N" 
			},
			{
				"x": 2.3937553066,
				"y": 3.2727272904,
				"z": 0.5972828063,
				"element": "C" 
			},
			{
				"x": 3.0727304246,
				"y": 3.8409169565,
				"z": -0.2699614356,
				"element": "O" 
			},
			{
				"x": 1.5543148089,
				"y": 2.0626017879,
				"z": 0.4445130804,
				"element": "C" 
			},
			{
				"x": 1.3490263483,
				"y": 1.4237276893,
				"z": -0.6771026739,
				"element": "N" 
			},
			{
				"x": 1.9809437955,
				"y": 1.8315944228,
				"z": -1.7625138374,
				"element": "N" 
			},
			{
				"x": 1.80821751,
				"y": 1.2054412963,
				"z": -3.0003198143,
				"element": "C" 
			},
			{
				"x": 2.4738197422,
				"y": 1.7296240956,
				"z": -4.1153018475,
				"element": "C" 
			},
			{
				"x": 2.3032246751,
				"y": 1.1022472243,
				"z": -5.3439007389,
				"element": "C" 
			},
			{
				"x": 1.4773807195,
				"y": -0.021218343,
				"z": -5.4169170536,
				"element": "C" 
			},
			{
				"x": 0.8393254363,
				"y": -0.5296953027,
				"z": -4.3548486032,
				"element": "N" 
			},
			{
				"x": 1.0011453908,
				"y": 0.0671814885,
				"z": -3.1735841905,
				"element": "C" 
			},
			{
				"x": -0.8063218489,
				"y": 0.0523748842,
				"z": 1.3952089654,
				"element": "C" 
			},
			{
				"x": -0.9861239608,
				"y": 0.2969615378,
				"z": 0.0850929114,
				"element": "O" 
			},
			{
				"x": -1.7218926252,
				"y": -0.9333270844,
				"z": 1.9300580462,
				"element": "C" 
			},
			{
				"x": -2.696113885,
				"y": -1.5405459827,
				"z": 1.1152538549,
				"element": "C" 
			},
			{
				"x": -3.5871631354,
				"y": -2.4635455164,
				"z": 1.6385047809,
				"element": "C" 
			},
			{
				"x": -3.5098940683,
				"y": -2.7959868002,
				"z": 2.9976129121,
				"element": "C" 
			},
			{
				"x": -2.5534964241,
				"y": -2.217230942,
				"z": 3.8211065147,
				"element": "C" 
			},
			{
				"x": -1.6401604888,
				"y": -1.2772701799,
				"z": 3.3006656642,
				"element": "C" 
			},
			{
				"x": -0.3374495513,
				"y": -2.1765278997,
				"z": 5.5678821438,
				"element": "H" 
			},
			{
				"x": -1.4342833047,
				"y": -0.8556977403,
				"z": 6.0512792654,
				"element": "H" 
			},
			{
				"x": 0.3170617353,
				"y": -0.5515349453,
				"z": 5.9015942314,
				"element": "H" 
			},
			{
				"x": 2.6302661298,
				"y": 4.3642075796,
				"z": 2.4042987356,
				"element": "H" 
			},
			{
				"x": 2.6027548662,
				"y": 2.6446275516,
				"z": -1.6553708542,
				"element": "H" 
			},
			{
				"x": 3.1064604873,
				"y": 2.6076217424,
				"z": -4.0152502596,
				"element": "H" 
			},
			{
				"x": 2.801721259,
				"y": 1.478860656,
				"z": -6.2311358412,
				"element": "H" 
			},
			{
				"x": 1.3222410452,
				"y": -0.5341260175,
				"z": -6.3633693433,
				"element": "H" 
			},
			{
				"x": 0.4757368759,
				"y": -0.3679788451,
				"z": -2.3284402547,
				"element": "H" 
			},
			{
				"x": -0.1932670424,
				"y": 0.7157765942,
				"z": -0.3192755901,
				"element": "H" 
			},
			{
				"x": -2.7323049568,
				"y": -1.264482807,
				"z": 0.0684951962,
				"element": "H" 
			},
			{
				"x": -4.3353122774,
				"y": -2.9242083253,
				"z": 1.001609164,
				"element": "H" 
			},
			{
				"x": -4.2026502569,
				"y": -3.5179990886,
				"z": 3.4204736253,
				"element": "H" 
			},
			{
				"x": -2.5140388093,
				"y": -2.4950258326,
				"z": 4.8661681058,
				"element": "H" 
			}
		],
		 "valence_orbital": [ 
			{
				"type": "occ",
				"energy": -0.26437,
				"method": "rhf"
			},
			{
				"type": "occ",
				"energy": -0.24326,
				"method": "rhf"
			},
			{
				"type": "occ",
				"energy": -0.23547,
				"method": "rhf"
			},
			{
				"type": "occ",
				"energy": -0.22199,
				"method": "rhf"
			},
			{
				"type": "occ",
				"energy": -0.2072,
				"method": "rhf"
			},
			{
				"type": "unocc",
				"energy": -0.1058,
				"method": "rhf"
			},
			{
				"type": "unocc",
				"energy": -0.04874,
				"method": "rhf"
			},
			{
				"type": "unocc",
				"energy": -0.03984,
				"method": "rhf"
			},
			{
				"type": "unocc",
				"energy": -0.00971,
				"method": "rhf"
			},
			{
				"type": "unocc",
				"energy": -0.0042,
				"method": "rhf"
			}
		],
		"cosmo_sigma_profile": { 
			"-0.025": 0.0,
			"-0.024": 0.0,
			"-0.023": 0.0,
			"-0.022": 0.0,
			"-0.021": 0.0,
			"-0.02": 0.0,
			"-0.019": 0.0,
			"-0.018": 0.0,
			"-0.017": 0.819519887119,
			"-0.016": 1.34847853556,
			"-0.015": 1.15755457523,
			"-0.014": 1.3632728143,
			"-0.013": 0.937987177847,
			"-0.012": 1.7409965354,
			"-0.011": 2.67671968679,
			"-0.01": 2.13530164867,
			"-0.009": 2.02450945467,
			"-0.008": 4.71076850026,
			"-0.007": 9.23134150128,
			"-0.006": 22.1004863639,
			"-0.005": 25.982364562,
			"-0.004": 29.0229082483,
			"-0.003": 26.259737231,
			"-0.002": 28.4999331211,
			"-0.001": 29.1023659225,
			"0.0": 30.2671480791,
			"0.001": 26.0709637948,
			"0.002": 24.3396064052,
			"0.003": 17.805119736,
			"0.004": 19.0502766471,
			"0.005": 8.58458441001,
			"0.006": 4.78206070962,
			"0.007": 6.17924144443,
			"0.008": 5.20401458065,
			"0.009": 4.24542080981,
			"0.01": 5.09285126065,
			"0.011": 5.75604494296,
			"0.012": 4.96625596436,
			"0.013": 5.41860322545,
			"0.014": 4.12948155057,
			"0.015": 2.55543256636,
			"0.016": 2.45739187724,
			"0.017": 1.32330640037,
			"0.018": 0.844687466857,
			"0.019": 0.0271632264806,
			"0.02": 0.0,
			"0.021": 0.0,
			"0.022": 0.0,
			"0.023": 0.0,
			"0.024": 0.0,
			"0.025": 0.0
		}
	}
}
