{
	 "smiles": "OC(=O)C1=NN(C(=N1)C1=CC=CS1)C1=CC=CC=C1", 
	 "Tm": 473.15, 
	 "num_atms": 28, 
	 "gaussian": { 
		 "optdone": 1, 
		 "sigma_profile": "yes", 
		 "theory": "DFT", 
		 "functional": "B3LYP", 
		 "basiset": "6-31G**", 
		 "properties": { 
			 "R2extent": 7213.5187, 
			 "electric_dipole_moment_norm": 9.14164641462, 
			 "electric_quadrupole_moment_norm": 31.0646097722, 
			 "total_energy": -1213.67922174, 
			 "HOMO_LUMO_gap": 0.17116, 
			 "cosmo_polarized_energy": -18.95, 
			 "cosmo_cavitation_energy": 35.48, 
			 "cosmo_dispersion_energy": -25.66, 
			 "cosmo_repulsion_energy": 1.94, 
			 "cosmo_total_nonelectrostatic_energy": 11.76, 
			 "SMD_solvation_energy": 5.08 
		},
		"coords": [
			{
				"x": -0.5596621048,
				"y": 2.3560096286,
				"z": 4.3178539754,
				"element": "O" 
			},
			{
				"x": -0.3708794243,
				"y": 3.2778451789,
				"z": 3.3453817364,
				"element": "C" 
			},
			{
				"x": -0.4231818844,
				"y": 4.4618325555,
				"z": 3.557897348,
				"element": "O" 
			},
			{
				"x": -0.0947100867,
				"y": 2.6782526887,
				"z": 2.0026414384,
				"element": "C" 
			},
			{
				"x": -0.0602101628,
				"y": 1.3579005537,
				"z": 1.8581905007,
				"element": "N" 
			},
			{
				"x": 0.2204661395,
				"y": 1.2001592827,
				"z": 0.539202745,
				"element": "N" 
			},
			{
				"x": 0.3214834373,
				"y": 2.4409544236,
				"z": -0.0501455092,
				"element": "C" 
			},
			{
				"x": 0.1326271208,
				"y": 3.3819760305,
				"z": 0.8692448475,
				"element": "N" 
			},
			{
				"x": 0.5571011708,
				"y": 2.7288602468,
				"z": -1.4536836293,
				"element": "C" 
			},
			{
				"x": 0.4593945778,
				"y": 1.9319120953,
				"z": -2.5756431179,
				"element": "C" 
			},
			{
				"x": 0.7310186803,
				"y": 2.6366949723,
				"z": -3.7801547478,
				"element": "C" 
			},
			{
				"x": 1.0285794191,
				"y": 3.9568480848,
				"z": -3.5626165322,
				"element": "C" 
			},
			{
				"x": 0.9749743413,
				"y": 4.3712914386,
				"z": -1.8869609291,
				"element": "S" 
			},
			{
				"x": 0.4015559799,
				"y": -0.1177606219,
				"z": 0.0105968361,
				"element": "C" 
			},
			{
				"x": 1.6201768789,
				"y": -0.4722927241,
				"z": -0.573084716,
				"element": "C" 
			},
			{
				"x": 1.7877085152,
				"y": -1.7665561382,
				"z": -1.065203022,
				"element": "C" 
			},
			{
				"x": 0.7535408165,
				"y": -2.6993900682,
				"z": -0.9584236543,
				"element": "C" 
			},
			{
				"x": -0.4546759046,
				"y": -2.3378887443,
				"z": -0.35821807,
				"element": "C" 
			},
			{
				"x": -0.637669261,
				"y": -1.0432229129,
				"z": 0.1268770743,
				"element": "C" 
			},
			{
				"x": -0.4656021108,
				"y": 1.4686634137,
				"z": 3.9296042689,
				"element": "H" 
			},
			{
				"x": 0.1900543528,
				"y": 0.8845111374,
				"z": -2.5439314971,
				"element": "H" 
			},
			{
				"x": 0.7015164425,
				"y": 2.1813900481,
				"z": -4.763122741,
				"element": "H" 
			},
			{
				"x": 1.2730992312,
				"y": 4.7136965623,
				"z": -4.2954966347,
				"element": "H" 
			},
			{
				"x": 2.4212088726,
				"y": 0.2563826615,
				"z": -0.6358844714,
				"element": "H" 
			},
			{
				"x": 2.7322602702,
				"y": -2.0481225255,
				"z": -1.5202417818,
				"element": "H" 
			},
			{
				"x": 0.8910752694,
				"y": -3.7074771795,
				"z": -1.3374113744,
				"element": "H" 
			},
			{
				"x": -1.2582259753,
				"y": -3.0623655157,
				"z": -0.2691156883,
				"element": "H" 
			},
			{
				"x": -1.5681246012,
				"y": -0.7445045727,
				"z": 0.5972473454,
				"element": "H" 
			}
		],
		 "valence_orbital": [ 
			{
				"type": "occ",
				"energy": -0.282,
				"method": "rhf"
			},
			{
				"type": "occ",
				"energy": -0.27453,
				"method": "rhf"
			},
			{
				"type": "occ",
				"energy": -0.26788,
				"method": "rhf"
			},
			{
				"type": "occ",
				"energy": -0.26527,
				"method": "rhf"
			},
			{
				"type": "occ",
				"energy": -0.23623,
				"method": "rhf"
			},
			{
				"type": "unocc",
				"energy": -0.06507,
				"method": "rhf"
			},
			{
				"type": "unocc",
				"energy": -0.03896,
				"method": "rhf"
			},
			{
				"type": "unocc",
				"energy": -0.03245,
				"method": "rhf"
			},
			{
				"type": "unocc",
				"energy": -0.02784,
				"method": "rhf"
			},
			{
				"type": "unocc",
				"energy": 0.01929,
				"method": "rhf"
			}
		],
		"cosmo_sigma_profile": { 
			"-0.025": 0.0,
			"-0.024": 0.0,
			"-0.023": 0.0,
			"-0.022": 0.0,
			"-0.021": 0.0,
			"-0.02": 0.0,
			"-0.019": 0.0,
			"-0.018": 0.0,
			"-0.017": 0.0,
			"-0.016": 0.173755832531,
			"-0.015": 0.39049139477,
			"-0.014": 0.429278560201,
			"-0.013": 0.484818200606,
			"-0.012": 0.892098445641,
			"-0.011": 0.624084990546,
			"-0.01": 1.21903191585,
			"-0.009": 2.48238220711,
			"-0.008": 3.77465590693,
			"-0.007": 12.8603419883,
			"-0.006": 20.0944717135,
			"-0.005": 22.600185033,
			"-0.004": 20.6877121516,
			"-0.003": 19.3339674236,
			"-0.002": 16.3322278471,
			"-0.001": 17.2206797012,
			"0.0": 17.5581284375,
			"0.001": 19.0481972478,
			"0.002": 25.4759023346,
			"0.003": 26.966680806,
			"0.004": 14.7367765781,
			"0.005": 5.53256459696,
			"0.006": 4.62070926307,
			"0.007": 4.41773143229,
			"0.008": 4.16815794091,
			"0.009": 5.70834479401,
			"0.01": 6.0693205622,
			"0.011": 6.69090988794,
			"0.012": 4.93699560857,
			"0.013": 2.51107819587,
			"0.014": 0.719810555355,
			"0.015": 0.00311882620799,
			"0.016": 0.0,
			"0.017": 0.0,
			"0.018": 0.0,
			"0.019": 0.0,
			"0.02": 0.0,
			"0.021": 0.0,
			"0.022": 0.0,
			"0.023": 0.0,
			"0.024": 0.0,
			"0.025": 0.0
		}
	}
}
