{
	 "smiles": "CC(C(C(O)=O)C1=CC=CC=C1)C1=CC=CC=C1", 
	 "Tm": 402.15, 
	 "num_atms": 34, 
	 "gaussian": { 
		 "optdone": 1, 
		 "sigma_profile": "yes", 
		 "theory": "DFT", 
		 "functional": "B3LYP", 
		 "basiset": "6-31G**", 
		 "properties": { 
			 "R2extent": 4690.4709, 
			 "electric_dipole_moment_norm": 1.42752415391, 
			 "electric_quadrupole_moment_norm": 5.95928857247, 
			 "total_energy": -769.81458429, 
			 "HOMO_LUMO_gap": 0.22972, 
			 "cosmo_polarized_energy": -11.46, 
			 "cosmo_cavitation_energy": 36.09, 
			 "cosmo_dispersion_energy": -24.56, 
			 "cosmo_repulsion_energy": 1.92, 
			 "cosmo_total_nonelectrostatic_energy": 13.45, 
			 "SMD_solvation_energy": 7.02 
		},
		"coords": [
			{
				"x": 1.191064797,
				"y": 1.5852027798,
				"z": 0.4564920144,
				"element": "C" 
			},
			{
				"x": 1.5297652503,
				"y": 0.2859004865,
				"z": -0.292566247,
				"element": "C" 
			},
			{
				"x": 0.9597234886,
				"y": -0.9513714512,
				"z": 0.4895837147,
				"element": "C" 
			},
			{
				"x": 1.7258034786,
				"y": -2.2273287163,
				"z": 0.1381982653,
				"element": "C" 
			},
			{
				"x": 1.089479381,
				"y": -3.3457966834,
				"z": 0.5519614623,
				"element": "O" 
			},
			{
				"x": 2.8229188076,
				"y": -2.270911673,
				"z": -0.3790266901,
				"element": "O" 
			},
			{
				"x": -0.5525782116,
				"y": -1.1034741453,
				"z": 0.4632457391,
				"element": "C" 
			},
			{
				"x": -1.2217232297,
				"y": -1.6553471886,
				"z": -0.6395896983,
				"element": "C" 
			},
			{
				"x": -2.6118642767,
				"y": -1.7595802631,
				"z": -0.6502165507,
				"element": "C" 
			},
			{
				"x": -3.3615970869,
				"y": -1.308818008,
				"z": 0.4386924635,
				"element": "C" 
			},
			{
				"x": -2.7091316031,
				"y": -0.7577215719,
				"z": 1.5412409808,
				"element": "C" 
			},
			{
				"x": -1.3162280265,
				"y": -0.6600163496,
				"z": 1.5508778547,
				"element": "C" 
			},
			{
				"x": 1.1441098358,
				"y": 0.3303326776,
				"z": -1.7687928728,
				"element": "C" 
			},
			{
				"x": -0.0125936024,
				"y": 0.9847776726,
				"z": -2.2190492913,
				"element": "C" 
			},
			{
				"x": -0.3350852917,
				"y": 1.023980637,
				"z": -3.576757492,
				"element": "C" 
			},
			{
				"x": 0.4934867125,
				"y": 0.4074630195,
				"z": -4.5150288692,
				"element": "C" 
			},
			{
				"x": 1.6485674972,
				"y": -0.2462775909,
				"z": -4.0827429573,
				"element": "C" 
			},
			{
				"x": 1.9703599213,
				"y": -0.2814587809,
				"z": -2.7251651834,
				"element": "C" 
			},
			{
				"x": 1.6351968775,
				"y": 1.5763988271,
				"z": 1.4580597914,
				"element": "H" 
			},
			{
				"x": 1.5858741614,
				"y": 2.452534857,
				"z": -0.0802829964,
				"element": "H" 
			},
			{
				"x": 0.1129770409,
				"y": 1.7259123146,
				"z": 0.5780128378,
				"element": "H" 
			},
			{
				"x": 2.6160461908,
				"y": 0.1566344167,
				"z": -0.2564123912,
				"element": "H" 
			},
			{
				"x": 1.2409247952,
				"y": -0.7863032723,
				"z": 1.5409202687,
				"element": "H" 
			},
			{
				"x": 1.6849399074,
				"y": -4.0839564932,
				"z": 0.3373046311,
				"element": "H" 
			},
			{
				"x": -0.6525897301,
				"y": -2.0103288527,
				"z": -1.4928137341,
				"element": "H" 
			},
			{
				"x": -3.1104844334,
				"y": -2.1938532444,
				"z": -1.5121224338,
				"element": "H" 
			},
			{
				"x": -4.4446617261,
				"y": -1.3914667265,
				"z": 0.4284644152,
				"element": "H" 
			},
			{
				"x": -3.280151485,
				"y": -0.4091917465,
				"z": 2.3971993669,
				"element": "H" 
			},
			{
				"x": -0.8148755914,
				"y": -0.2390693151,
				"z": 2.4190633069,
				"element": "H" 
			},
			{
				"x": -0.6726347173,
				"y": 1.4707352845,
				"z": -1.5080547666,
				"element": "H" 
			},
			{
				"x": -1.2357892924,
				"y": 1.5389714912,
				"z": -3.8997124483,
				"element": "H" 
			},
			{
				"x": 0.2442462957,
				"y": 0.4403821454,
				"z": -5.5719901895,
				"element": "H" 
			},
			{
				"x": 2.3064905184,
				"y": -0.7246821032,
				"z": -4.8032575958,
				"element": "H" 
			},
			{
				"x": 2.868013347,
				"y": -0.7934724335,
				"z": -2.3939347049,
				"element": "H" 
			}
		],
		 "valence_orbital": [ 
			{
				"type": "occ",
				"energy": -0.27881,
				"method": "rhf"
			},
			{
				"type": "occ",
				"energy": -0.2512,
				"method": "rhf"
			},
			{
				"type": "occ",
				"energy": -0.24564,
				"method": "rhf"
			},
			{
				"type": "occ",
				"energy": -0.23626,
				"method": "rhf"
			},
			{
				"type": "occ",
				"energy": -0.23425,
				"method": "rhf"
			},
			{
				"type": "unocc",
				"energy": -0.00453,
				"method": "rhf"
			},
			{
				"type": "unocc",
				"energy": -0.00369,
				"method": "rhf"
			},
			{
				"type": "unocc",
				"energy": 0.0036,
				"method": "rhf"
			},
			{
				"type": "unocc",
				"energy": 0.00631,
				"method": "rhf"
			},
			{
				"type": "unocc",
				"energy": 0.01084,
				"method": "rhf"
			}
		],
		"cosmo_sigma_profile": { 
			"-0.025": 0.0,
			"-0.024": 0.0,
			"-0.023": 0.0,
			"-0.022": 0.0,
			"-0.021": 0.0,
			"-0.02": 0.0,
			"-0.019": 0.0490917381463,
			"-0.018": 0.534347050806,
			"-0.017": 0.973328314595,
			"-0.016": 0.803092652261,
			"-0.015": 0.919727993301,
			"-0.014": 0.826130565638,
			"-0.013": 0.556460744838,
			"-0.012": 0.595019470733,
			"-0.011": 0.440081237819,
			"-0.01": 1.05511050627,
			"-0.009": 0.59129435591,
			"-0.008": 0.69196250162,
			"-0.007": 3.59999708893,
			"-0.006": 8.98641366299,
			"-0.005": 19.821088909,
			"-0.004": 23.1307991116,
			"-0.003": 30.0860581681,
			"-0.002": 23.979550685,
			"-0.001": 23.6504629339,
			"0.0": 21.0263721851,
			"0.001": 19.9396162835,
			"0.002": 15.9846647042,
			"0.003": 15.0936381495,
			"0.004": 17.478915013,
			"0.005": 19.1962560013,
			"0.006": 15.0676154603,
			"0.007": 5.56092542168,
			"0.008": 3.228279604,
			"0.009": 3.48288694232,
			"0.01": 3.4647733908,
			"0.011": 2.73328140961,
			"0.012": 2.04681744434,
			"0.013": 0.0430903837936,
			"0.014": 0.0,
			"0.015": 0.0,
			"0.016": 0.0,
			"0.017": 0.0,
			"0.018": 0.0,
			"0.019": 0.0,
			"0.02": 0.0,
			"0.021": 0.0,
			"0.022": 0.0,
			"0.023": 0.0,
			"0.024": 0.0,
			"0.025": 0.0
		}
	}
}
