{
	 "smiles": "OC(=O)C1=NC=CN2CCS(=O)(=O)N=C12", 
	 "Tm": 458.15, 
	 "num_atms": 22, 
	 "gaussian": { 
		 "optdone": 1, 
		 "sigma_profile": "yes", 
		 "theory": "DFT", 
		 "functional": "B3LYP", 
		 "basiset": "6-31G**", 
		 "properties": { 
			 "R2extent": 3517.2757, 
			 "electric_dipole_moment_norm": 7.77724463162, 
			 "electric_quadrupole_moment_norm": 27.7456800227, 
			 "total_energy": -1134.20417452, 
			 "HOMO_LUMO_gap": 0.15219, 
			 "cosmo_polarized_energy": -33.79, 
			 "cosmo_cavitation_energy": 28.14, 
			 "cosmo_dispersion_energy": -21.26, 
			 "cosmo_repulsion_energy": 1.63, 
			 "cosmo_total_nonelectrostatic_energy": 8.52, 
			 "SMD_solvation_energy": 3.09 
		},
		"coords": [
			{
				"x": 2.5053861844,
				"y": 1.4522463621,
				"z": 0.0105769267,
				"element": "O" 
			},
			{
				"x": 1.9639522657,
				"y": 0.7553909071,
				"z": -1.0003297807,
				"element": "C" 
			},
			{
				"x": 2.2750700745,
				"y": 0.862004465,
				"z": -2.1612991439,
				"element": "O" 
			},
			{
				"x": 0.9258323047,
				"y": -0.2309836608,
				"z": -0.50658499,
				"element": "C" 
			},
			{
				"x": 1.2752300984,
				"y": -1.4777782863,
				"z": -0.4160224715,
				"element": "N" 
			},
			{
				"x": 0.3257855843,
				"y": -2.3866025095,
				"z": -0.0234777162,
				"element": "C" 
			},
			{
				"x": -0.9479517229,
				"y": -2.0065450334,
				"z": 0.2557931389,
				"element": "C" 
			},
			{
				"x": -1.3311829476,
				"y": -0.6885264346,
				"z": 0.1560752283,
				"element": "N" 
			},
			{
				"x": -2.7163934932,
				"y": -0.3151512051,
				"z": 0.5110782289,
				"element": "C" 
			},
			{
				"x": -3.2144522834,
				"y": 0.8335584091,
				"z": -0.3542898041,
				"element": "C" 
			},
			{
				"x": -2.1127038266,
				"y": 2.2479391153,
				"z": -0.068655847,
				"element": "S" 
			},
			{
				"x": -2.2149746685,
				"y": 2.5731353245,
				"z": 1.3599709894,
				"element": "O" 
			},
			{
				"x": -2.3674480852,
				"y": 3.2650327451,
				"z": -1.0836968939,
				"element": "O" 
			},
			{
				"x": -0.6232574681,
				"y": 1.5691361657,
				"z": -0.3803247318,
				"element": "N" 
			},
			{
				"x": -0.4130530834,
				"y": 0.2887406994,
				"z": -0.2257962703,
				"element": "C" 
			},
			{
				"x": 3.1384966644,
				"y": 2.0772555475,
				"z": -0.3838568045,
				"element": "H" 
			},
			{
				"x": 0.6309344658,
				"y": -3.4234570984,
				"z": 0.0509412502,
				"element": "H" 
			},
			{
				"x": -1.7190075865,
				"y": -2.7022978772,
				"z": 0.5651509047,
				"element": "H" 
			},
			{
				"x": -2.7437740113,
				"y": -0.0165033117,
				"z": 1.5645678334,
				"element": "H" 
			},
			{
				"x": -3.3444642205,
				"y": -1.1994730792,
				"z": 0.3797553203,
				"element": "H" 
			},
			{
				"x": -3.19870603,
				"y": 0.6002775033,
				"z": -1.4217107263,
				"element": "H" 
			},
			{
				"x": -4.2208182152,
				"y": 1.1348012522,
				"z": -0.0565646409,
				"element": "H" 
			}
		],
		 "valence_orbital": [ 
			{
				"type": "occ",
				"energy": -0.31258,
				"method": "rhf"
			},
			{
				"type": "occ",
				"energy": -0.29938,
				"method": "rhf"
			},
			{
				"type": "occ",
				"energy": -0.29207,
				"method": "rhf"
			},
			{
				"type": "occ",
				"energy": -0.27525,
				"method": "rhf"
			},
			{
				"type": "occ",
				"energy": -0.24404,
				"method": "rhf"
			},
			{
				"type": "unocc",
				"energy": -0.09185,
				"method": "rhf"
			},
			{
				"type": "unocc",
				"energy": -0.04002,
				"method": "rhf"
			},
			{
				"type": "unocc",
				"energy": -0.00391,
				"method": "rhf"
			},
			{
				"type": "unocc",
				"energy": 0.04264,
				"method": "rhf"
			},
			{
				"type": "unocc",
				"energy": 0.06462,
				"method": "rhf"
			}
		],
		"cosmo_sigma_profile": { 
			"-0.025": 0.0,
			"-0.024": 0.0,
			"-0.023": 0.0,
			"-0.022": 0.0,
			"-0.021": 0.0,
			"-0.02": 0.0665682141258,
			"-0.019": 0.918324541589,
			"-0.018": 1.01176327228,
			"-0.017": 1.1686173367,
			"-0.016": 0.782535687213,
			"-0.015": 0.494652217234,
			"-0.014": 0.352197505898,
			"-0.013": 2.21668612543,
			"-0.012": 3.54729792767,
			"-0.011": 4.14509961961,
			"-0.01": 8.61049693065,
			"-0.009": 13.8624478845,
			"-0.008": 15.2285907203,
			"-0.007": 13.6954587841,
			"-0.006": 10.4210888508,
			"-0.005": 8.66360269866,
			"-0.004": 5.79454775486,
			"-0.003": 6.90422984278,
			"-0.002": 7.32808903904,
			"-0.001": 7.57512896117,
			"0.0": 6.83192033614,
			"0.001": 6.39750196958,
			"0.002": 5.81520075113,
			"0.003": 5.75141015346,
			"0.004": 6.46197970131,
			"0.005": 7.23006514214,
			"0.006": 6.90601304991,
			"0.007": 7.57196763901,
			"0.008": 9.32839021585,
			"0.009": 9.57955453148,
			"0.01": 13.5284443178,
			"0.011": 17.5415029279,
			"0.012": 9.39075297276,
			"0.013": 0.297116725967,
			"0.014": 0.0,
			"0.015": 0.0,
			"0.016": 0.0,
			"0.017": 0.0,
			"0.018": 0.0,
			"0.019": 0.0,
			"0.02": 0.0,
			"0.021": 0.0,
			"0.022": 0.0,
			"0.023": 0.0,
			"0.024": 0.0,
			"0.025": 0.0
		}
	}
}
