{
	 "smiles": "OC(=O)C1=CC=CC(I)=C1C(O)=O", 
	 "Tm": 453.15, 
	 "num_atms": 18, 
	 "gaussian": { 
		 "optdone": 1, 
		 "sigma_profile": "no", 
		 "theory": "DFT", 
		 "functional": "B3LYP", 
		 "basiset": "6-31G**", 
		 "properties": { 
			 "R2extent": 2402.74, 
			 "electric_dipole_moment_norm": 4.26732952091, 
			 "electric_quadrupole_moment_norm": 14.5838221955, 
			 "total_energy": -620.15484868, 
			 "HOMO_LUMO_gap": 0.18565, 
			 "cosmo_polarized_energy": -84965.72, 
			 "cosmo_cavitation_energy": 26.74, 
			 "cosmo_dispersion_energy": -20.3, 
			 "cosmo_repulsion_energy": 1.58, 
			 "cosmo_total_nonelectrostatic_energy": 8.02, 
			 "SMD_solvation_energy": 6.0 
		},
		"coords": [
			{
				"x": 0.2419889443,
				"y": 0.95314515,
				"z": 1.7017948317,
				"element": "O" 
			},
			{
				"x": 0.3362965066,
				"y": -0.3217033694,
				"z": 1.2677586855,
				"element": "C" 
			},
			{
				"x": 0.6652722045,
				"y": -1.2396275042,
				"z": 1.988968958,
				"element": "O" 
			},
			{
				"x": 0.0408188111,
				"y": -0.4660970599,
				"z": -0.1917377348,
				"element": "C" 
			},
			{
				"x": 0.5120261981,
				"y": -1.6363114761,
				"z": -0.7959494415,
				"element": "C" 
			},
			{
				"x": 0.3187551542,
				"y": -1.8553844898,
				"z": -2.1554138145,
				"element": "C" 
			},
			{
				"x": -0.3547207257,
				"y": -0.9067309203,
				"z": -2.9229393853,
				"element": "C" 
			},
			{
				"x": -0.8422707828,
				"y": 0.256211507,
				"z": -2.319765678,
				"element": "C" 
			},
			{
				"x": -1.8951736301,
				"y": 1.626286506,
				"z": -3.556642636,
				"element": "I" 
			},
			{
				"x": -0.6566143266,
				"y": 0.5012083833,
				"z": -0.9504391018,
				"element": "C" 
			},
			{
				"x": -1.319515032,
				"y": 1.7016708838,
				"z": -0.2935912756,
				"element": "C" 
			},
			{
				"x": -0.6588258759,
				"y": 2.874870631,
				"z": -0.398388652,
				"element": "O" 
			},
			{
				"x": -2.3895650981,
				"y": 1.6278881951,
				"z": 0.2503267548,
				"element": "O" 
			},
			{
				"x": 0.4011553484,
				"y": 0.9396775612,
				"z": 2.660147442,
				"element": "H" 
			},
			{
				"x": 1.0289756211,
				"y": -2.3587052075,
				"z": -0.1743925187,
				"element": "H" 
			},
			{
				"x": 0.6894939261,
				"y": -2.7619163533,
				"z": -2.6232903644,
				"element": "H" 
			},
			{
				"x": -0.5102098223,
				"y": -1.0716902637,
				"z": -3.9831001106,
				"element": "H" 
			},
			{
				"x": 0.1969125794,
				"y": 2.7365078268,
				"z": -0.8297459589,
				"element": "H" 
			}
		],
		 "valence_orbital": [ 
			{
				"type": "occ",
				"energy": -0.30137,
				"method": "rhf"
			},
			{
				"type": "occ",
				"energy": -0.29231,
				"method": "rhf"
			},
			{
				"type": "occ",
				"energy": -0.28012,
				"method": "rhf"
			},
			{
				"type": "occ",
				"energy": -0.27515,
				"method": "rhf"
			},
			{
				"type": "occ",
				"energy": -0.25804,
				"method": "rhf"
			},
			{
				"type": "unocc",
				"energy": -0.07239,
				"method": "rhf"
			},
			{
				"type": "unocc",
				"energy": -0.05441,
				"method": "rhf"
			},
			{
				"type": "unocc",
				"energy": -0.04356,
				"method": "rhf"
			},
			{
				"type": "unocc",
				"energy": -0.0002,
				"method": "rhf"
			},
			{
				"type": "unocc",
				"energy": 0.02698,
				"method": "rhf"
			}
		],
		"cosmo_sigma_profile": { 
			"0.0": 0.0,
			"0.0": 0.0,
			"0.0": 0.0,
			"0.0": 0.0,
			"0.0": 0.0,
			"0.0": 0.0,
			"0.0": 0.0,
			"0.0": 0.0,
			"0.0": 0.0,
			"0.0": 0.0,
			"0.0": 0.0,
			"0.0": 0.0,
			"0.0": 0.0,
			"0.0": 0.0,
			"0.0": 0.0,
			"0.0": 0.0,
			"0.0": 0.0,
			"0.0": 0.0,
			"0.0": 0.0,
			"0.0": 0.0,
			"0.0": 0.0,
			"0.0": 0.0,
			"0.0": 0.0,
			"0.0": 0.0,
			"0.0": 0.0,
			"0.0": 0.0,
			"0.0": 0.0,
			"0.0": 0.0,
			"0.0": 0.0,
			"0.0": 0.0,
			"0.0": 0.0,
			"0.0": 0.0,
			"0.0": 0.0,
			"0.0": 0.0,
			"0.0": 0.0,
			"0.0": 0.0,
			"0.0": 0.0,
			"0.0": 0.0,
			"0.0": 0.0,
			"0.0": 0.0,
			"0.0": 0.0,
			"0.0": 0.0,
			"0.0": 0.0,
			"0.0": 0.0,
			"0.0": 0.0,
			"0.0": 0.0,
			"0.0": 0.0,
			"0.0": 0.0,
			"0.0": 0.0,
			"0.0": 0.0,
			"0.0": 0.0
		}
	}
}
