{
	 "smiles": "COC(=O)C1=C(ON=C1C)C1=NOC(C)=C1", 
	 "Tm": 358.15, 
	 "num_atms": 26, 
	 "gaussian": { 
		 "optdone": 1, 
		 "sigma_profile": "yes", 
		 "theory": "DFT", 
		 "functional": "B3LYP", 
		 "basiset": "6-31G**", 
		 "properties": { 
			 "R2extent": 4524.7461, 
			 "electric_dipole_moment_norm": 5.36180755809, 
			 "electric_quadrupole_moment_norm": 12.1533897411, 
			 "total_energy": -797.405029143, 
			 "HOMO_LUMO_gap": 0.18601, 
			 "cosmo_polarized_energy": -12.97, 
			 "cosmo_cavitation_energy": 31.33, 
			 "cosmo_dispersion_energy": -22.84, 
			 "cosmo_repulsion_energy": 1.77, 
			 "cosmo_total_nonelectrostatic_energy": 10.26, 
			 "SMD_solvation_energy": 7.02 
		},
		"coords": [
			{
				"x": 1.3481658362,
				"y": 2.7661289589,
				"z": 4.0195546319,
				"element": "C" 
			},
			{
				"x": 1.4770433472,
				"y": 2.4181652106,
				"z": 2.6309194003,
				"element": "O" 
			},
			{
				"x": 0.7263131258,
				"y": 1.3672721177,
				"z": 2.2269382255,
				"element": "C" 
			},
			{
				"x": -0.0060341596,
				"y": 0.7612731561,
				"z": 2.9890895606,
				"element": "O" 
			},
			{
				"x": 0.9227252387,
				"y": 1.0858728454,
				"z": 0.7979509678,
				"element": "C" 
			},
			{
				"x": 0.3369460751,
				"y": 0.0971934898,
				"z": 0.0236049401,
				"element": "C" 
			},
			{
				"x": 0.7983777311,
				"y": 0.1983383536,
				"z": -1.2323684404,
				"element": "O" 
			},
			{
				"x": 1.7045656133,
				"y": 1.2581308547,
				"z": -1.3268263042,
				"element": "N" 
			},
			{
				"x": 1.7787832026,
				"y": 1.7830640699,
				"z": -0.1283972366,
				"element": "C" 
			},
			{
				"x": 2.6851185378,
				"y": 2.9553107685,
				"z": 0.0853929207,
				"element": "C" 
			},
			{
				"x": -0.6234685558,
				"y": -0.9815331778,
				"z": 0.2470168265,
				"element": "C" 
			},
			{
				"x": -0.9480558145,
				"y": -1.7522095149,
				"z": -0.7826375929,
				"element": "N" 
			},
			{
				"x": -1.8559247701,
				"y": -2.664608671,
				"z": -0.2810889465,
				"element": "O" 
			},
			{
				"x": -2.0658763808,
				"y": -2.4331416815,
				"z": 1.0384901762,
				"element": "C" 
			},
			{
				"x": -3.0243628486,
				"y": -3.3346748416,
				"z": 1.7348228562,
				"element": "C" 
			},
			{
				"x": -1.3097594811,
				"y": -1.3734290939,
				"z": 1.4360296896,
				"element": "C" 
			},
			{
				"x": 1.647619197,
				"y": 1.9293665739,
				"z": 4.6551068468,
				"element": "H" 
			},
			{
				"x": 0.3157483727,
				"y": 3.0360328796,
				"z": 4.2541895718,
				"element": "H" 
			},
			{
				"x": 2.0110709922,
				"y": 3.6180460081,
				"z": 4.1688161462,
				"element": "H" 
			},
			{
				"x": 3.4435070075,
				"y": 2.7296579854,
				"z": 0.8393813827,
				"element": "H" 
			},
			{
				"x": 3.174791644,
				"y": 3.204102395,
				"z": -0.857997494,
				"element": "H" 
			},
			{
				"x": 2.1236902161,
				"y": 3.8224404973,
				"z": 0.4424499037,
				"element": "H" 
			},
			{
				"x": -3.1074274422,
				"y": -3.0507309243,
				"z": 2.7854647221,
				"element": "H" 
			},
			{
				"x": -4.0177078085,
				"y": -3.278172565,
				"z": 1.2774948089,
				"element": "H" 
			},
			{
				"x": -2.6927085447,
				"y": -4.3767625471,
				"z": 1.6791127825,
				"element": "H" 
			},
			{
				"x": -1.2292403314,
				"y": -0.9191331472,
				"z": 2.4079896543,
				"element": "H" 
			}
		],
		 "valence_orbital": [ 
			{
				"type": "occ",
				"energy": -0.30564,
				"method": "rhf"
			},
			{
				"type": "occ",
				"energy": -0.29655,
				"method": "rhf"
			},
			{
				"type": "occ",
				"energy": -0.28766,
				"method": "rhf"
			},
			{
				"type": "occ",
				"energy": -0.26454,
				"method": "rhf"
			},
			{
				"type": "occ",
				"energy": -0.25455,
				"method": "rhf"
			},
			{
				"type": "unocc",
				"energy": -0.06854,
				"method": "rhf"
			},
			{
				"type": "unocc",
				"energy": -0.01063,
				"method": "rhf"
			},
			{
				"type": "unocc",
				"energy": 0.00631,
				"method": "rhf"
			},
			{
				"type": "unocc",
				"energy": 0.06211,
				"method": "rhf"
			},
			{
				"type": "unocc",
				"energy": 0.08417,
				"method": "rhf"
			}
		],
		"cosmo_sigma_profile": { 
			"-0.025": 0.0,
			"-0.024": 0.0,
			"-0.023": 0.0,
			"-0.022": 0.0,
			"-0.021": 0.0,
			"-0.02": 0.0,
			"-0.019": 0.0,
			"-0.018": 0.0,
			"-0.017": 0.0,
			"-0.016": 0.0,
			"-0.015": 0.0,
			"-0.014": 0.0,
			"-0.013": 0.0,
			"-0.012": 0.0,
			"-0.011": 0.0,
			"-0.01": 0.0,
			"-0.009": 0.0,
			"-0.008": 0.0,
			"-0.007": 2.92164908918,
			"-0.006": 15.3259620106,
			"-0.005": 19.1785900493,
			"-0.004": 23.806740434,
			"-0.003": 33.3934723251,
			"-0.002": 30.3832166875,
			"-0.001": 22.622792523,
			"0.0": 14.7735279028,
			"0.001": 12.7506361772,
			"0.002": 12.302056604,
			"0.003": 8.52258831488,
			"0.004": 5.45629740616,
			"0.005": 5.10042138221,
			"0.006": 8.60219082932,
			"0.007": 9.53170396331,
			"0.008": 6.66031532114,
			"0.009": 5.21245230833,
			"0.01": 4.81762430861,
			"0.011": 4.23217117992,
			"0.012": 2.79201119403,
			"0.013": 2.08461544088,
			"0.014": 0.334768694399,
			"0.015": 0.0,
			"0.016": 0.0,
			"0.017": 0.0,
			"0.018": 0.0,
			"0.019": 0.0,
			"0.02": 0.0,
			"0.021": 0.0,
			"0.022": 0.0,
			"0.023": 0.0,
			"0.024": 0.0,
			"0.025": 0.0
		}
	}
}
