{
	 "smiles": "C(=C/C1=CC=CC=C1)C1=CC=CC=C1", 
	 "Tm": 397.15, 
	 "num_atms": 26, 
	 "gaussian": { 
		 "optdone": 1, 
		 "sigma_profile": "yes", 
		 "theory": "DFT", 
		 "functional": "B3LYP", 
		 "basiset": "6-31G**", 
		 "properties": { 
			 "R2extent": 5052.7167, 
			 "electric_dipole_moment_norm": 0.0, 
			 "electric_quadrupole_moment_norm": 10.8386500677, 
			 "total_energy": -540.717123411, 
			 "HOMO_LUMO_gap": 0.15217, 
			 "cosmo_polarized_energy": -6.48, 
			 "cosmo_cavitation_energy": 30.03, 
			 "cosmo_dispersion_energy": -22.08, 
			 "cosmo_repulsion_energy": 1.7, 
			 "cosmo_total_nonelectrostatic_energy": 9.65, 
			 "SMD_solvation_energy": 4.97 
		},
		"coords": [
			{
				"x": -0.8520777977,
				"y": -0.330034146,
				"z": -0.1149312267,
				"element": "C" 
			},
			{
				"x": -1.2711570568,
				"y": -1.5761956352,
				"z": -0.4151351175,
				"element": "C" 
			},
			{
				"x": -0.9651644178,
				"y": -2.8122242758,
				"z": 0.3115253465,
				"element": "C" 
			},
			{
				"x": -0.1583732411,
				"y": -2.8598915758,
				"z": 1.4663004042,
				"element": "C" 
			},
			{
				"x": 0.0955822575,
				"y": -4.0655583452,
				"z": 2.1121568589,
				"element": "C" 
			},
			{
				"x": -0.4470085682,
				"y": -5.2595827579,
				"z": 1.6262135654,
				"element": "C" 
			},
			{
				"x": -1.2481457443,
				"y": -5.2324375797,
				"z": 0.4841647284,
				"element": "C" 
			},
			{
				"x": -1.5021334307,
				"y": -4.0243210659,
				"z": -0.1623143391,
				"element": "C" 
			},
			{
				"x": -1.1580646072,
				"y": 0.9059935816,
				"z": -0.8415953094,
				"element": "C" 
			},
			{
				"x": -1.9648039485,
				"y": 0.9536517513,
				"z": -1.9964071649,
				"element": "C" 
			},
			{
				"x": -2.2187629393,
				"y": 2.1593186954,
				"z": -2.6422614774,
				"element": "C" 
			},
			{
				"x": -1.6762253962,
				"y": 3.3533523591,
				"z": -2.1562807343,
				"element": "C" 
			},
			{
				"x": -0.8751359455,
				"y": 3.3262155237,
				"z": -1.0141984275,
				"element": "C" 
			},
			{
				"x": -0.6211452892,
				"y": 2.1180985546,
				"z": -0.3677209685,
				"element": "C" 
			},
			{
				"x": -0.2147194157,
				"y": -0.1881951319,
				"z": 0.7562751718,
				"element": "H" 
			},
			{
				"x": -1.9085219946,
				"y": -1.7180339719,
				"z": -1.2863368484,
				"element": "H" 
			},
			{
				"x": 0.2746002148,
				"y": -1.9469845319,
				"z": 1.8632978512,
				"element": "H" 
			},
			{
				"x": 0.7207462336,
				"y": -4.0761116566,
				"z": 3.0007307214,
				"element": "H" 
			},
			{
				"x": -0.246031119,
				"y": -6.1984898725,
				"z": 2.1337159648,
				"element": "H" 
			},
			{
				"x": -1.67618564,
				"y": -6.152203531,
				"z": 0.0955003717,
				"element": "H" 
			},
			{
				"x": -2.1273865218,
				"y": -4.0112149106,
				"z": -1.0517609972,
				"element": "H" 
			},
			{
				"x": -2.3977285591,
				"y": 0.0407361642,
				"z": -2.3934382719,
				"element": "H" 
			},
			{
				"x": -2.8438864513,
				"y": 2.1698653858,
				"z": -3.5308638936,
				"element": "H" 
			},
			{
				"x": -1.8772045905,
				"y": 4.2922594618,
				"z": -2.6637824904,
				"element": "H" 
			},
			{
				"x": -0.4471358049,
				"y": 4.2459882023,
				"z": -0.6255062044,
				"element": "H" 
			},
			{
				"x": 0.0040697735,
				"y": 2.1049993079,
				"z": 0.5217524869,
				"element": "H" 
			}
		],
		 "valence_orbital": [ 
			{
				"type": "occ",
				"energy": -0.30768,
				"method": "rhf"
			},
			{
				"type": "occ",
				"energy": -0.26166,
				"method": "rhf"
			},
			{
				"type": "occ",
				"energy": -0.25004,
				"method": "rhf"
			},
			{
				"type": "occ",
				"energy": -0.2499,
				"method": "rhf"
			},
			{
				"type": "occ",
				"energy": -0.2027,
				"method": "rhf"
			},
			{
				"type": "unocc",
				"energy": -0.05053,
				"method": "rhf"
			},
			{
				"type": "unocc",
				"energy": 0.00039,
				"method": "rhf"
			},
			{
				"type": "unocc",
				"energy": 0.00102,
				"method": "rhf"
			},
			{
				"type": "unocc",
				"energy": 0.01704,
				"method": "rhf"
			},
			{
				"type": "unocc",
				"energy": 0.0761,
				"method": "rhf"
			}
		],
		"cosmo_sigma_profile": { 
			"-0.025": 0.0,
			"-0.024": 0.0,
			"-0.023": 0.0,
			"-0.022": 0.0,
			"-0.021": 0.0,
			"-0.02": 0.0,
			"-0.019": 0.0,
			"-0.018": 0.0,
			"-0.017": 0.0,
			"-0.016": 0.0,
			"-0.015": 0.0,
			"-0.014": 0.0,
			"-0.013": 0.0,
			"-0.012": 0.0,
			"-0.011": 0.0,
			"-0.01": 0.0,
			"-0.009": 0.0,
			"-0.008": 0.0176265797225,
			"-0.007": 2.89375946864,
			"-0.006": 14.1576251117,
			"-0.005": 23.6637725572,
			"-0.004": 22.7276054643,
			"-0.003": 21.5338618174,
			"-0.002": 15.5089765428,
			"-0.001": 13.895622447,
			"0.0": 12.8856157281,
			"0.001": 13.2414770009,
			"0.002": 16.0104289058,
			"0.003": 18.9261162024,
			"0.004": 24.4452388948,
			"0.005": 25.7798955897,
			"0.006": 15.3117615271,
			"0.007": 0.0684420642995,
			"0.008": 0.0,
			"0.009": 0.0,
			"0.01": 0.0,
			"0.011": 0.0,
			"0.012": 0.0,
			"0.013": 0.0,
			"0.014": 0.0,
			"0.015": 0.0,
			"0.016": 0.0,
			"0.017": 0.0,
			"0.018": 0.0,
			"0.019": 0.0,
			"0.02": 0.0,
			"0.021": 0.0,
			"0.022": 0.0,
			"0.023": 0.0,
			"0.024": 0.0,
			"0.025": 0.0
		}
	}
}
