{
	 "smiles": "COC1=C(C=C(C)C=C1)C1=NN(CC(C)C)C=C1C(O)=O", 
	 "Tm": 455.15, 
	 "num_atms": 41, 
	 "gaussian": { 
		 "optdone": 1, 
		 "sigma_profile": "yes", 
		 "theory": "DFT", 
		 "functional": "B3LYP", 
		 "basiset": "6-31G**", 
		 "properties": { 
			 "R2extent": 7466.6637, 
			 "electric_dipole_moment_norm": 2.77015764172, 
			 "electric_quadrupole_moment_norm": 14.5052410463, 
			 "total_energy": -956.937652444, 
			 "HOMO_LUMO_gap": 0.20134, 
			 "cosmo_polarized_energy": -16.48, 
			 "cosmo_cavitation_energy": 44.44, 
			 "cosmo_dispersion_energy": -29.45, 
			 "cosmo_repulsion_energy": 2.32, 
			 "cosmo_total_nonelectrostatic_energy": 17.3, 
			 "SMD_solvation_energy": 8.75 
		},
		"coords": [
			{
				"x": 4.2035184499,
				"y": -0.5391758113,
				"z": 0.5595396872,
				"element": "C" 
			},
			{
				"x": 3.7009912488,
				"y": 0.1513899309,
				"z": -0.5837985496,
				"element": "O" 
			},
			{
				"x": 3.0131385234,
				"y": 1.31101686,
				"z": -0.2828192652,
				"element": "C" 
			},
			{
				"x": 1.6289549689,
				"y": 1.2806166547,
				"z": -0.0367594578,
				"element": "C" 
			},
			{
				"x": 0.9793033435,
				"y": 2.4819594164,
				"z": 0.2779073146,
				"element": "C" 
			},
			{
				"x": 1.6593348164,
				"y": 3.7029830147,
				"z": 0.3354371812,
				"element": "C" 
			},
			{
				"x": 0.9342142892,
				"y": 4.9777482183,
				"z": 0.7005052813,
				"element": "C" 
			},
			{
				"x": 3.032623759,
				"y": 3.7057193559,
				"z": 0.0599671933,
				"element": "C" 
			},
			{
				"x": 3.7043578276,
				"y": 2.5213367762,
				"z": -0.2389645807,
				"element": "C" 
			},
			{
				"x": 0.862899157,
				"y": 0.0167399498,
				"z": -0.0714364686,
				"element": "C" 
			},
			{
				"x": 0.079337394,
				"y": -0.3019972518,
				"z": 0.964037048,
				"element": "N" 
			},
			{
				"x": -0.4634624821,
				"y": -1.5080021402,
				"z": 0.6539830115,
				"element": "N" 
			},
			{
				"x": -1.4187612588,
				"y": -2.1329379395,
				"z": 1.5622805123,
				"element": "C" 
			},
			{
				"x": -2.8946115868,
				"y": -1.876210668,
				"z": 1.1979681586,
				"element": "C" 
			},
			{
				"x": -3.7964318597,
				"y": -2.7065510363,
				"z": 2.1227305037,
				"element": "C" 
			},
			{
				"x": -3.2522615611,
				"y": -0.3857717312,
				"z": 1.2551238041,
				"element": "C" 
			},
			{
				"x": -0.0414737902,
				"y": -1.9643470312,
				"z": -0.5433639762,
				"element": "C" 
			},
			{
				"x": 0.8167692101,
				"y": -1.0078886892,
				"z": -1.0656380282,
				"element": "C" 
			},
			{
				"x": 1.4266090687,
				"y": -1.1351035336,
				"z": -2.3943882961,
				"element": "C" 
			},
			{
				"x": 1.8801872913,
				"y": 0.0358973086,
				"z": -2.8949214377,
				"element": "O" 
			},
			{
				"x": 1.4854830413,
				"y": -2.1781441211,
				"z": -3.0216912762,
				"element": "O" 
			},
			{
				"x": 4.9113221735,
				"y": 0.0837019962,
				"z": 1.1226272344,
				"element": "H" 
			},
			{
				"x": 3.3915873281,
				"y": -0.8476113506,
				"z": 1.2303269421,
				"element": "H" 
			},
			{
				"x": 4.7202340389,
				"y": -1.4259888784,
				"z": 0.1861313449,
				"element": "H" 
			},
			{
				"x": -0.0886683968,
				"y": 2.4504220247,
				"z": 0.4740471047,
				"element": "H" 
			},
			{
				"x": 1.3914035327,
				"y": 5.8492711338,
				"z": 0.2218385123,
				"element": "H" 
			},
			{
				"x": -0.117211217,
				"y": 4.9405495463,
				"z": 0.4000824113,
				"element": "H" 
			},
			{
				"x": 0.9564940344,
				"y": 5.1528926758,
				"z": 1.7836576765,
				"element": "H" 
			},
			{
				"x": 3.5833739365,
				"y": 4.6430559274,
				"z": 0.0803733417,
				"element": "H" 
			},
			{
				"x": 4.7694463015,
				"y": 2.5188258866,
				"z": -0.4499752761,
				"element": "H" 
			},
			{
				"x": -1.2162326153,
				"y": -3.2092203265,
				"z": 1.5679894669,
				"element": "H" 
			},
			{
				"x": -1.1951810872,
				"y": -1.740756885,
				"z": 2.5581234608,
				"element": "H" 
			},
			{
				"x": -3.041579542,
				"y": -2.2293832835,
				"z": 0.1672285922,
				"element": "H" 
			},
			{
				"x": -3.5730404577,
				"y": -3.7770932108,
				"z": 2.0547572089,
				"element": "H" 
			},
			{
				"x": -4.8503314603,
				"y": -2.5679836998,
				"z": 1.8627353577,
				"element": "H" 
			},
			{
				"x": -3.6717661623,
				"y": -2.4033339935,
				"z": 3.1692046671,
				"element": "H" 
			},
			{
				"x": -3.1415244862,
				"y": 0.0026819605,
				"z": 2.2743442853,
				"element": "H" 
			},
			{
				"x": -2.6076543959,
				"y": 0.2097428562,
				"z": 0.6037869579,
				"element": "H" 
			},
			{
				"x": -4.2908320944,
				"y": -0.2278795921,
				"z": 0.9464128582,
				"element": "H" 
			},
			{
				"x": -0.3640591425,
				"y": -2.9068304558,
				"z": -0.9606428995,
				"element": "H" 
			},
			{
				"x": 2.2830998618,
				"y": -0.1835398635,
				"z": -3.7509476066,
				"element": "H" 
			}
		],
		 "valence_orbital": [ 
			{
				"type": "occ",
				"energy": -0.26266,
				"method": "rhf"
			},
			{
				"type": "occ",
				"energy": -0.26162,
				"method": "rhf"
			},
			{
				"type": "occ",
				"energy": -0.24752,
				"method": "rhf"
			},
			{
				"type": "occ",
				"energy": -0.23443,
				"method": "rhf"
			},
			{
				"type": "occ",
				"energy": -0.21977,
				"method": "rhf"
			},
			{
				"type": "unocc",
				"energy": -0.01843,
				"method": "rhf"
			},
			{
				"type": "unocc",
				"energy": -0.00607,
				"method": "rhf"
			},
			{
				"type": "unocc",
				"energy": 0.00864,
				"method": "rhf"
			},
			{
				"type": "unocc",
				"energy": 0.03288,
				"method": "rhf"
			},
			{
				"type": "unocc",
				"energy": 0.07691,
				"method": "rhf"
			}
		],
		"cosmo_sigma_profile": { 
			"-0.025": 0.0,
			"-0.024": 0.0,
			"-0.023": 0.0,
			"-0.022": 0.0,
			"-0.021": 0.0,
			"-0.02": 0.0,
			"-0.019": 0.0,
			"-0.018": 0.367762664043,
			"-0.017": 0.913122676712,
			"-0.016": 0.7902039577,
			"-0.015": 0.662773737869,
			"-0.014": 1.04219738852,
			"-0.013": 0.593237843378,
			"-0.012": 0.441050087403,
			"-0.011": 0.919508121314,
			"-0.01": 1.18078753405,
			"-0.009": 2.82473893998,
			"-0.008": 2.48460299788,
			"-0.007": 3.19754664147,
			"-0.006": 8.35001810333,
			"-0.005": 15.6608729645,
			"-0.004": 29.1437255131,
			"-0.003": 38.28882213,
			"-0.002": 37.7342571353,
			"-0.001": 37.1324813347,
			"0.0": 34.4517853801,
			"0.001": 30.7531099458,
			"0.002": 18.41803537,
			"0.003": 14.3742235833,
			"0.004": 12.1571859493,
			"0.005": 13.442677984,
			"0.006": 7.60652856958,
			"0.007": 6.21920311066,
			"0.008": 5.4411441657,
			"0.009": 5.88482668734,
			"0.01": 4.33149270051,
			"0.011": 3.91261380732,
			"0.012": 6.68229527396,
			"0.013": 3.28515974204,
			"0.014": 0.477534673192,
			"0.015": 0.424875709928,
			"0.016": 0.0,
			"0.017": 0.0,
			"0.018": 0.0,
			"0.019": 0.0,
			"0.02": 0.0,
			"0.021": 0.0,
			"0.022": 0.0,
			"0.023": 0.0,
			"0.024": 0.0,
			"0.025": 0.0
		}
	}
}
