{
	 "smiles": "OC(=O)C1CCN(CC1)C(=O)C1=CC=C(Br)C=C1", 
	 "Tm": 476.15, 
	 "num_atms": 32, 
	 "gaussian": { 
		 "optdone": 1, 
		 "sigma_profile": "yes", 
		 "theory": "DFT", 
		 "functional": "B3LYP", 
		 "basiset": "6-31G**", 
		 "properties": { 
			 "R2extent": 11658.5865, 
			 "electric_dipole_moment_norm": 2.08862025988, 
			 "electric_quadrupole_moment_norm": 21.3868357905, 
			 "total_energy": -3355.675748, 
			 "HOMO_LUMO_gap": 0.19836, 
			 "cosmo_polarized_energy": -17.75, 
			 "cosmo_cavitation_energy": 37.25, 
			 "cosmo_dispersion_energy": -27.09, 
			 "cosmo_repulsion_energy": 2.11, 
			 "cosmo_total_nonelectrostatic_energy": 12.27, 
			 "SMD_solvation_energy": 5.61 
		},
		"coords": [
			{
				"x": -3.1282930047,
				"y": -2.1063630476,
				"z": 1.0738088095,
				"element": "O" 
			},
			{
				"x": -3.6722997059,
				"y": -1.1363991448,
				"z": 0.2926197597,
				"element": "C" 
			},
			{
				"x": -4.8691179413,
				"y": -0.9804054768,
				"z": 0.1964316468,
				"element": "O" 
			},
			{
				"x": -2.613627178,
				"y": -0.3071259746,
				"z": -0.4093780576,
				"element": "C" 
			},
			{
				"x": -1.8058739166,
				"y": 0.5351095357,
				"z": 0.613953493,
				"element": "C" 
			},
			{
				"x": -0.4464809609,
				"y": 0.9455145267,
				"z": 0.0386956704,
				"element": "C" 
			},
			{
				"x": 0.3781085906,
				"y": -0.2434483972,
				"z": -0.2244948451,
				"element": "N" 
			},
			{
				"x": -0.3337835237,
				"y": -1.4892425099,
				"z": -0.5631710215,
				"element": "C" 
			},
			{
				"x": -1.6499630109,
				"y": -1.1744134726,
				"z": -1.2727136739,
				"element": "C" 
			},
			{
				"x": 1.693457846,
				"y": -0.386321276,
				"z": 0.1489136819,
				"element": "C" 
			},
			{
				"x": 2.2138606513,
				"y": -1.4983659223,
				"z": 0.2352513657,
				"element": "O" 
			},
			{
				"x": 2.5177979723,
				"y": 0.8447944559,
				"z": 0.4197453355,
				"element": "C" 
			},
			{
				"x": 2.4554476987,
				"y": 2.0058796085,
				"z": -0.3620477196,
				"element": "C" 
			},
			{
				"x": 3.315554744,
				"y": 3.0775105581,
				"z": -0.1202760375,
				"element": "C" 
			},
			{
				"x": 4.237841717,
				"y": 2.9847515885,
				"z": 0.9201818316,
				"element": "C" 
			},
			{
				"x": 5.4067001802,
				"y": 4.4546307029,
				"z": 1.2702399677,
				"element": "Br" 
			},
			{
				"x": 4.3289968452,
				"y": 1.8340495635,
				"z": 1.7042637142,
				"element": "C" 
			},
			{
				"x": 3.4774913921,
				"y": 0.7652532842,
				"z": 1.4385256895,
				"element": "C" 
			},
			{
				"x": -3.874250942,
				"y": -2.5804819701,
				"z": 1.4783188222,
				"element": "H" 
			},
			{
				"x": -3.1730319534,
				"y": 0.3645919147,
				"z": -1.0654932196,
				"element": "H" 
			},
			{
				"x": -1.6399160554,
				"y": -0.0444366781,
				"z": 1.5276702017,
				"element": "H" 
			},
			{
				"x": -2.3711875901,
				"y": 1.4295112799,
				"z": 0.8944405862,
				"element": "H" 
			},
			{
				"x": 0.0754516232,
				"y": 1.5918985156,
				"z": 0.7456568776,
				"element": "H" 
			},
			{
				"x": -0.5996622618,
				"y": 1.5300977186,
				"z": -0.880732054,
				"element": "H" 
			},
			{
				"x": -0.5155792922,
				"y": -2.0848155466,
				"z": 0.3398968594,
				"element": "H" 
			},
			{
				"x": 0.3215772548,
				"y": -2.0846917075,
				"z": -1.2021519012,
				"element": "H" 
			},
			{
				"x": -2.1287843669,
				"y": -2.1131474953,
				"z": -1.5666535999,
				"element": "H" 
			},
			{
				"x": -1.4334025871,
				"y": -0.6331039962,
				"z": -2.2002964907,
				"element": "H" 
			},
			{
				"x": 1.7506634474,
				"y": 2.072513939,
				"z": -1.1847033065,
				"element": "H" 
			},
			{
				"x": 3.2734007935,
				"y": 3.9695398825,
				"z": -0.7347337624,
				"element": "H" 
			},
			{
				"x": 5.0606156524,
				"y": 1.7742718472,
				"z": 2.501885668,
				"element": "H" 
			},
			{
				"x": 3.5537878822,
				"y": -0.1526563057,
				"z": 2.0116457091,
				"element": "H" 
			}
		],
		 "valence_orbital": [ 
			{
				"type": "occ",
				"energy": -0.27876,
				"method": "rhf"
			},
			{
				"type": "occ",
				"energy": -0.27091,
				"method": "rhf"
			},
			{
				"type": "occ",
				"energy": -0.25892,
				"method": "rhf"
			},
			{
				"type": "occ",
				"energy": -0.24423,
				"method": "rhf"
			},
			{
				"type": "occ",
				"energy": -0.23845,
				"method": "rhf"
			},
			{
				"type": "unocc",
				"energy": -0.04009,
				"method": "rhf"
			},
			{
				"type": "unocc",
				"energy": -0.02053,
				"method": "rhf"
			},
			{
				"type": "unocc",
				"energy": -0.00085,
				"method": "rhf"
			},
			{
				"type": "unocc",
				"energy": 0.00277,
				"method": "rhf"
			},
			{
				"type": "unocc",
				"energy": 0.04381,
				"method": "rhf"
			}
		],
		"cosmo_sigma_profile": { 
			"-0.025": 0.0,
			"-0.024": 0.0,
			"-0.023": 0.0,
			"-0.022": 0.0,
			"-0.021": 0.0,
			"-0.02": 0.0,
			"-0.019": 0.0,
			"-0.018": 0.690438435522,
			"-0.017": 0.792791092499,
			"-0.016": 0.929879714054,
			"-0.015": 1.06493337813,
			"-0.014": 0.478560964009,
			"-0.013": 0.778973016909,
			"-0.012": 0.523941660858,
			"-0.011": 0.787460051419,
			"-0.01": 0.992837327787,
			"-0.009": 0.267772167728,
			"-0.008": 0.87676854159,
			"-0.007": 7.05028012001,
			"-0.006": 10.6867966075,
			"-0.005": 26.5139771472,
			"-0.004": 31.2102400337,
			"-0.003": 28.0105101309,
			"-0.002": 26.1819885414,
			"-0.001": 18.7799235031,
			"0.0": 15.8408266158,
			"0.001": 19.2606884259,
			"0.002": 22.5622256852,
			"0.003": 19.6158418463,
			"0.004": 16.0976319973,
			"0.005": 8.71646442293,
			"0.006": 4.07404674245,
			"0.007": 4.0804936785,
			"0.008": 3.37976986528,
			"0.009": 2.7140900376,
			"0.01": 3.18387975559,
			"0.011": 5.62975984348,
			"0.012": 6.62841227996,
			"0.013": 4.07748017095,
			"0.014": 4.49798352719,
			"0.015": 0.591951338337,
			"0.016": 0.0,
			"0.017": 0.0,
			"0.018": 0.0,
			"0.019": 0.0,
			"0.02": 0.0,
			"0.021": 0.0,
			"0.022": 0.0,
			"0.023": 0.0,
			"0.024": 0.0,
			"0.025": 0.0
		}
	}
}
