{
	 "smiles": "ClC1=CC2=C(OCCC2=O)C=C1", 
	 "Tm": 374.65, 
	 "num_atms": 19, 
	 "gaussian": { 
		 "optdone": 1, 
		 "sigma_profile": "yes", 
		 "theory": "DFT", 
		 "functional": "B3LYP", 
		 "basiset": "6-31G**", 
		 "properties": { 
			 "R2extent": 2727.6918, 
			 "electric_dipole_moment_norm": 3.63405909418, 
			 "electric_quadrupole_moment_norm": 4.42934047912, 
			 "total_energy": -957.81372303, 
			 "HOMO_LUMO_gap": 0.16732, 
			 "cosmo_polarized_energy": -9.14, 
			 "cosmo_cavitation_energy": 24.61, 
			 "cosmo_dispersion_energy": -18.72, 
			 "cosmo_repulsion_energy": 1.49, 
			 "cosmo_total_nonelectrostatic_energy": 7.38, 
			 "SMD_solvation_energy": 4.5 
		},
		"coords": [
			{
				"x": 3.4422405369,
				"y": 2.5597469216,
				"z": -0.1889482262,
				"element": "Cl" 
			},
			{
				"x": 2.3739858204,
				"y": 1.1919203806,
				"z": 0.0910777745,
				"element": "C" 
			},
			{
				"x": 1.1532192427,
				"y": 1.1210746997,
				"z": -0.5577405568,
				"element": "C" 
			},
			{
				"x": 0.3049616921,
				"y": 0.0244729219,
				"z": -0.3310836759,
				"element": "C" 
			},
			{
				"x": 0.6985564805,
				"y": -0.9864679343,
				"z": 0.5686389199,
				"element": "C" 
			},
			{
				"x": -0.0778213188,
				"y": -2.0678097881,
				"z": 0.8472141842,
				"element": "O" 
			},
			{
				"x": -1.4762753053,
				"y": -1.9182434095,
				"z": 0.5520682653,
				"element": "C" 
			},
			{
				"x": -1.7033074482,
				"y": -1.4120909833,
				"z": -0.8673374243,
				"element": "C" 
			},
			{
				"x": -0.9617756142,
				"y": -0.1006461694,
				"z": -1.0943120189,
				"element": "C" 
			},
			{
				"x": -1.3576333607,
				"y": 0.7522393957,
				"z": -1.8718901405,
				"element": "O" 
			},
			{
				"x": 1.9425539038,
				"y": -0.9072253856,
				"z": 1.2092127615,
				"element": "C" 
			},
			{
				"x": 2.7778334956,
				"y": 0.1759957841,
				"z": 0.9699864316,
				"element": "C" 
			},
			{
				"x": 0.8300865033,
				"y": 1.8853272517,
				"z": -1.2556796633,
				"element": "H" 
			},
			{
				"x": -1.9143731479,
				"y": -2.9053982641,
				"z": 0.7105946741,
				"element": "H" 
			},
			{
				"x": -1.9129154918,
				"y": -1.2215105963,
				"z": 1.2818247958,
				"element": "H" 
			},
			{
				"x": -1.3200270412,
				"y": -2.145558713,
				"z": -1.5898649841,
				"element": "H" 
			},
			{
				"x": -2.7669916667,
				"y": -1.2667187944,
				"z": -1.0744852085,
				"element": "H" 
			},
			{
				"x": 2.2298039434,
				"y": -1.6959570232,
				"z": 1.8960713699,
				"element": "H" 
			},
			{
				"x": 3.7391787762,
				"y": 0.2450497057,
				"z": 1.4673527215,
				"element": "H" 
			}
		],
		 "valence_orbital": [ 
			{
				"type": "occ",
				"energy": -0.3158,
				"method": "rhf"
			},
			{
				"type": "occ",
				"energy": -0.31104,
				"method": "rhf"
			},
			{
				"type": "occ",
				"energy": -0.27415,
				"method": "rhf"
			},
			{
				"type": "occ",
				"energy": -0.25645,
				"method": "rhf"
			},
			{
				"type": "occ",
				"energy": -0.2349,
				"method": "rhf"
			},
			{
				"type": "unocc",
				"energy": -0.06758,
				"method": "rhf"
			},
			{
				"type": "unocc",
				"energy": -0.01429,
				"method": "rhf"
			},
			{
				"type": "unocc",
				"energy": 0.02575,
				"method": "rhf"
			},
			{
				"type": "unocc",
				"energy": 0.02917,
				"method": "rhf"
			},
			{
				"type": "unocc",
				"energy": 0.09166,
				"method": "rhf"
			}
		],
		"cosmo_sigma_profile": { 
			"-0.025": 0.0,
			"-0.024": 0.0,
			"-0.023": 0.0,
			"-0.022": 0.0,
			"-0.021": 0.0,
			"-0.02": 0.0,
			"-0.019": 0.0,
			"-0.018": 0.0,
			"-0.017": 0.0,
			"-0.016": 0.0,
			"-0.015": 0.0,
			"-0.014": 0.0,
			"-0.013": 0.0,
			"-0.012": 0.0,
			"-0.011": 0.0,
			"-0.01": 0.0,
			"-0.009": 0.0553547296328,
			"-0.008": 2.04436674861,
			"-0.007": 11.2147074049,
			"-0.006": 18.0354915665,
			"-0.005": 15.1763199252,
			"-0.004": 11.6385138334,
			"-0.003": 11.7237718787,
			"-0.002": 10.2365631106,
			"-0.001": 10.7273863033,
			"0.0": 13.4251050249,
			"0.001": 21.0424783411,
			"0.002": 21.2290383074,
			"0.003": 9.95183296279,
			"0.004": 11.4896230916,
			"0.005": 8.99663080309,
			"0.006": 3.71099940642,
			"0.007": 2.2554802239,
			"0.008": 2.37577584398,
			"0.009": 2.9002625499,
			"0.01": 2.57937571127,
			"0.011": 3.62467329394,
			"0.012": 3.63943866071,
			"0.013": 1.09558900711,
			"0.014": 0.0183834600236,
			"0.015": 0.0,
			"0.016": 0.0,
			"0.017": 0.0,
			"0.018": 0.0,
			"0.019": 0.0,
			"0.02": 0.0,
			"0.021": 0.0,
			"0.022": 0.0,
			"0.023": 0.0,
			"0.024": 0.0,
			"0.025": 0.0
		}
	}
}
