{
	 "smiles": "COC(=O)C1=CC2=C(C=C1)C(=O)NC(CCl)=N2", 
	 "Tm": 484.15, 
	 "num_atms": 26, 
	 "gaussian": { 
		 "optdone": 1, 
		 "sigma_profile": "yes", 
		 "theory": "DFT", 
		 "functional": "B3LYP", 
		 "basiset": "6-31G**", 
		 "properties": { 
			 "R2extent": 6897.4929, 
			 "electric_dipole_moment_norm": 1.61644799793, 
			 "electric_quadrupole_moment_norm": 21.0785462808, 
			 "total_energy": -1220.00682307, 
			 "HOMO_LUMO_gap": 0.17077, 
			 "cosmo_polarized_energy": -15.57, 
			 "cosmo_cavitation_energy": 33.24, 
			 "cosmo_dispersion_energy": -24.6, 
			 "cosmo_repulsion_energy": 1.9, 
			 "cosmo_total_nonelectrostatic_energy": 10.54, 
			 "SMD_solvation_energy": 5.95 
		},
		"coords": [
			{
				"x": -5.2869497141,
				"y": 0.3969692557,
				"z": -1.138100689,
				"element": "C" 
			},
			{
				"x": -3.9244423042,
				"y": 0.6077881687,
				"z": -0.7331694292,
				"element": "O" 
			},
			{
				"x": -3.0034329704,
				"y": -0.1010088884,
				"z": -1.4212271063,
				"element": "C" 
			},
			{
				"x": -3.2855980396,
				"y": -0.8662134533,
				"z": -2.3213401464,
				"element": "O" 
			},
			{
				"x": -1.6105752351,
				"y": 0.1672082662,
				"z": -0.9467214754,
				"element": "C" 
			},
			{
				"x": -0.5753072584,
				"y": -0.5117727353,
				"z": -1.5819946613,
				"element": "C" 
			},
			{
				"x": 0.756296346,
				"y": -0.303811477,
				"z": -1.1852452457,
				"element": "C" 
			},
			{
				"x": 1.0213158834,
				"y": 0.6047127001,
				"z": -0.1323142253,
				"element": "C" 
			},
			{
				"x": -0.0286100815,
				"y": 1.2830040548,
				"z": 0.5040092128,
				"element": "C" 
			},
			{
				"x": -1.3372804015,
				"y": 1.0698920732,
				"z": 0.1024715491,
				"element": "C" 
			},
			{
				"x": 2.4102771085,
				"y": 0.8256584194,
				"z": 0.2971498294,
				"element": "C" 
			},
			{
				"x": 2.7848093991,
				"y": 1.5627086777,
				"z": 1.195802237,
				"element": "O" 
			},
			{
				"x": 3.3299232168,
				"y": 0.0778164818,
				"z": -0.453902969,
				"element": "N" 
			},
			{
				"x": 2.9795897344,
				"y": -0.7860437058,
				"z": -1.4621322081,
				"element": "C" 
			},
			{
				"x": 4.0884477384,
				"y": -1.4609339176,
				"z": -2.2281153626,
				"element": "C" 
			},
			{
				"x": 5.4015470487,
				"y": -2.1129371729,
				"z": -1.1567487623,
				"element": "Cl" 
			},
			{
				"x": 1.7637401173,
				"y": -1.004728494,
				"z": -1.8421539578,
				"element": "N" 
			},
			{
				"x": -5.4227990748,
				"y": 0.6744113998,
				"z": -2.1862627529,
				"element": "H" 
			},
			{
				"x": -5.8877407521,
				"y": 1.0352480703,
				"z": -0.4906400066,
				"element": "H" 
			},
			{
				"x": -5.5664859148,
				"y": -0.651849996,
				"z": -1.0120389864,
				"element": "H" 
			},
			{
				"x": -0.7922564083,
				"y": -1.2045514572,
				"z": -2.3866828782,
				"element": "H" 
			},
			{
				"x": 0.2144808822,
				"y": 1.9690940077,
				"z": 1.3083813942,
				"element": "H" 
			},
			{
				"x": -2.1558007698,
				"y": 1.5891604427,
				"z": 0.5859529682,
				"element": "H" 
			},
			{
				"x": 4.2994024902,
				"y": 0.1521038185,
				"z": -0.1649825878,
				"element": "H" 
			},
			{
				"x": 3.6648432077,
				"y": -2.2883971992,
				"z": -2.7926451784,
				"element": "H" 
			},
			{
				"x": 4.5753057518,
				"y": -0.75792734,
				"z": -2.9083485621,
				"element": "H" 
			}
		],
		 "valence_orbital": [ 
			{
				"type": "occ",
				"energy": -0.29181,
				"method": "rhf"
			},
			{
				"type": "occ",
				"energy": -0.28279,
				"method": "rhf"
			},
			{
				"type": "occ",
				"energy": -0.27507,
				"method": "rhf"
			},
			{
				"type": "occ",
				"energy": -0.27331,
				"method": "rhf"
			},
			{
				"type": "occ",
				"energy": -0.24458,
				"method": "rhf"
			},
			{
				"type": "unocc",
				"energy": -0.07381,
				"method": "rhf"
			},
			{
				"type": "unocc",
				"energy": -0.05608,
				"method": "rhf"
			},
			{
				"type": "unocc",
				"energy": -0.00067,
				"method": "rhf"
			},
			{
				"type": "unocc",
				"energy": 0.01107,
				"method": "rhf"
			},
			{
				"type": "unocc",
				"energy": 0.02413,
				"method": "rhf"
			}
		],
		"cosmo_sigma_profile": { 
			"-0.025": 0.0,
			"-0.024": 0.0,
			"-0.023": 0.0,
			"-0.022": 0.0,
			"-0.021": 0.0,
			"-0.02": 0.0,
			"-0.019": 0.0,
			"-0.018": 0.0,
			"-0.017": 0.0,
			"-0.016": 0.0,
			"-0.015": 0.270894005974,
			"-0.014": 0.852356462644,
			"-0.013": 0.907653283469,
			"-0.012": 1.20761200217,
			"-0.011": 1.36305303511,
			"-0.01": 3.34946448034,
			"-0.009": 4.43685659901,
			"-0.008": 3.9847291779,
			"-0.007": 6.76514523559,
			"-0.006": 16.1246279565,
			"-0.005": 15.4759132252,
			"-0.004": 18.7848491067,
			"-0.003": 20.6563837637,
			"-0.002": 18.8789950643,
			"-0.001": 17.7637536505,
			"0.0": 23.7416043648,
			"0.001": 24.2765451513,
			"0.002": 15.7399333495,
			"0.003": 10.6432598763,
			"0.004": 11.0005851462,
			"0.005": 14.1344129108,
			"0.006": 5.57051694972,
			"0.007": 2.56558060193,
			"0.008": 3.60817940875,
			"0.009": 3.82966001792,
			"0.01": 4.95519981001,
			"0.011": 7.12948374899,
			"0.012": 8.16093753857,
			"0.013": 2.53805260639,
			"0.014": 0.0211455876849,
			"0.015": 0.0,
			"0.016": 0.0,
			"0.017": 0.0,
			"0.018": 0.0,
			"0.019": 0.0,
			"0.02": 0.0,
			"0.021": 0.0,
			"0.022": 0.0,
			"0.023": 0.0,
			"0.024": 0.0,
			"0.025": 0.0
		}
	}
}
