{
	 "smiles": "CC1=C(C(C)=C(N)C=C1)S(=O)(=O)NC1CC1", 
	 "Tm": 370.15, 
	 "num_atms": 32, 
	 "gaussian": { 
		 "optdone": 1, 
		 "sigma_profile": "yes", 
		 "theory": "DFT", 
		 "functional": "B3LYP", 
		 "basiset": "6-31G**", 
		 "properties": { 
			 "R2extent": 4287.9436, 
			 "electric_dipole_moment_norm": 5.78521046981, 
			 "electric_quadrupole_moment_norm": 9.05726773978, 
			 "total_energy": -1086.85307715, 
			 "HOMO_LUMO_gap": 0.18022, 
			 "cosmo_polarized_energy": -18.33, 
			 "cosmo_cavitation_energy": 34.74, 
			 "cosmo_dispersion_energy": -25.04, 
			 "cosmo_repulsion_energy": 1.89, 
			 "cosmo_total_nonelectrostatic_energy": 11.6, 
			 "SMD_solvation_energy": 4.78 
		},
		"coords": [
			{
				"x": -0.7439797348,
				"y": -3.4216382307,
				"z": -1.131075107,
				"element": "C" 
			},
			{
				"x": 0.1296104315,
				"y": -2.1878456873,
				"z": -1.2410203536,
				"element": "C" 
			},
			{
				"x": -0.1295597767,
				"y": -0.9121981869,
				"z": -0.6828297713,
				"element": "C" 
			},
			{
				"x": 0.7225597219,
				"y": 0.2002340177,
				"z": -0.8821293889,
				"element": "C" 
			},
			{
				"x": 0.4594158722,
				"y": 1.606819524,
				"z": -0.3905248186,
				"element": "C" 
			},
			{
				"x": 1.9180173186,
				"y": 0.0027011153,
				"z": -1.6132322917,
				"element": "C" 
			},
			{
				"x": 2.7854415444,
				"y": 1.0727501348,
				"z": -1.8509498498,
				"element": "N" 
			},
			{
				"x": 2.195091762,
				"y": -1.2555739278,
				"z": -2.1579990764,
				"element": "C" 
			},
			{
				"x": 1.311511024,
				"y": -2.308447759,
				"z": -1.9844999904,
				"element": "C" 
			},
			{
				"x": -1.6099550539,
				"y": -0.6659578585,
				"z": 0.3424139702,
				"element": "S" 
			},
			{
				"x": -2.3159412306,
				"y": -1.9405611481,
				"z": 0.5353841244,
				"element": "O" 
			},
			{
				"x": -2.3894314653,
				"y": 0.4872653819,
				"z": -0.1233928216,
				"element": "O" 
			},
			{
				"x": -0.8463129439,
				"y": -0.2044904459,
				"z": 1.812155455,
				"element": "N" 
			},
			{
				"x": -1.767322529,
				"y": -0.032609132,
				"z": 2.9220423735,
				"element": "C" 
			},
			{
				"x": -1.3295006711,
				"y": 0.9163069708,
				"z": 4.0116497143,
				"element": "C" 
			},
			{
				"x": -2.4370883605,
				"y": 1.3067567639,
				"z": 3.0686433593,
				"element": "C" 
			},
			{
				"x": -0.8454172872,
				"y": -3.7723996522,
				"z": -0.1015552032,
				"element": "H" 
			},
			{
				"x": -0.2997913196,
				"y": -4.2235855007,
				"z": -1.7271606749,
				"element": "H" 
			},
			{
				"x": -1.7589924909,
				"y": -3.2451590527,
				"z": -1.4920669167,
				"element": "H" 
			},
			{
				"x": 0.680899022,
				"y": 2.3143655322,
				"z": -1.197523408,
				"element": "H" 
			},
			{
				"x": -0.5689993192,
				"y": 1.7625180536,
				"z": -0.0815037612,
				"element": "H" 
			},
			{
				"x": 1.1085626398,
				"y": 1.8585664436,
				"z": 0.4595174991,
				"element": "H" 
			},
			{
				"x": 3.704803006,
				"y": 0.8013388736,
				"z": -2.1712455759,
				"element": "H" 
			},
			{
				"x": 2.8337846731,
				"y": 1.7716230568,
				"z": -1.1234467165,
				"element": "H" 
			},
			{
				"x": 3.1076844786,
				"y": -1.4024258079,
				"z": -2.731011702,
				"element": "H" 
			},
			{
				"x": 1.5446048069,
				"y": -3.2702553229,
				"z": -2.4321553058,
				"element": "H" 
			},
			{
				"x": -0.1519576266,
				"y": -0.9225899024,
				"z": 2.0207888254,
				"element": "H" 
			},
			{
				"x": -2.3373131237,
				"y": -0.9128255228,
				"z": 3.2156953698,
				"element": "H" 
			},
			{
				"x": -1.5761273383,
				"y": 0.6530345963,
				"z": 5.0355574746,
				"element": "H" 
			},
			{
				"x": -0.3666511436,
				"y": 1.4002035916,
				"z": 3.8830228671,
				"element": "H" 
			},
			{
				"x": -3.4587475935,
				"y": 1.314171979,
				"z": 3.4338569755,
				"element": "H" 
			},
			{
				"x": -2.2211972927,
				"y": 2.0478071026,
				"z": 2.3083947253,
				"element": "H" 
			}
		],
		 "valence_orbital": [ 
			{
				"type": "occ",
				"energy": -0.29426,
				"method": "rhf"
			},
			{
				"type": "occ",
				"energy": -0.28238,
				"method": "rhf"
			},
			{
				"type": "occ",
				"energy": -0.26019,
				"method": "rhf"
			},
			{
				"type": "occ",
				"energy": -0.25414,
				"method": "rhf"
			},
			{
				"type": "occ",
				"energy": -0.21016,
				"method": "rhf"
			},
			{
				"type": "unocc",
				"energy": -0.02994,
				"method": "rhf"
			},
			{
				"type": "unocc",
				"energy": 0.00491,
				"method": "rhf"
			},
			{
				"type": "unocc",
				"energy": 0.06603,
				"method": "rhf"
			},
			{
				"type": "unocc",
				"energy": 0.07155,
				"method": "rhf"
			},
			{
				"type": "unocc",
				"energy": 0.07763,
				"method": "rhf"
			}
		],
		"cosmo_sigma_profile": { 
			"-0.025": 0.0,
			"-0.024": 0.0,
			"-0.023": 0.0,
			"-0.022": 0.0,
			"-0.021": 0.0,
			"-0.02": 0.0,
			"-0.019": 0.0,
			"-0.018": 0.0,
			"-0.017": 0.0,
			"-0.016": 0.0,
			"-0.015": 0.136511489553,
			"-0.014": 0.952172208507,
			"-0.013": 1.71369804615,
			"-0.012": 3.08027503919,
			"-0.011": 3.69217779741,
			"-0.01": 4.27143283965,
			"-0.009": 3.81268554002,
			"-0.008": 3.99195624908,
			"-0.007": 4.88420721665,
			"-0.006": 8.26835358165,
			"-0.005": 15.6915514065,
			"-0.004": 19.1254596234,
			"-0.003": 19.4678352236,
			"-0.002": 20.2250104651,
			"-0.001": 22.9597658034,
			"0.0": 23.9975018298,
			"0.001": 20.2689498334,
			"0.002": 15.2143552101,
			"0.003": 15.983610109,
			"0.004": 16.1176744771,
			"0.005": 10.937919118,
			"0.006": 4.72549412717,
			"0.007": 4.95257228252,
			"0.008": 3.83427163552,
			"0.009": 3.87520490695,
			"0.01": 6.19946664656,
			"0.011": 7.45362836036,
			"0.012": 5.94359164461,
			"0.013": 1.39148539401,
			"0.014": 0.290382139047,
			"0.015": 0.0,
			"0.016": 0.0,
			"0.017": 0.0,
			"0.018": 0.0,
			"0.019": 0.0,
			"0.02": 0.0,
			"0.021": 0.0,
			"0.022": 0.0,
			"0.023": 0.0,
			"0.024": 0.0,
			"0.025": 0.0
		}
	}
}
