{
	 "smiles": "CC1=C(C=CC=C1N)C(=O)NC1=CC=CC=C1", 
	 "Tm": 435.15, 
	 "num_atms": 31, 
	 "gaussian": { 
		 "optdone": 1, 
		 "sigma_profile": "yes", 
		 "theory": "DFT", 
		 "functional": "B3LYP", 
		 "basiset": "6-31G**", 
		 "properties": { 
			 "R2extent": 4361.3561, 
			 "electric_dipole_moment_norm": 4.77870584364, 
			 "electric_quadrupole_moment_norm": 15.412513201, 
			 "total_energy": -726.674584078, 
			 "HOMO_LUMO_gap": 0.17972, 
			 "cosmo_polarized_energy": -16.46, 
			 "cosmo_cavitation_energy": 34.08, 
			 "cosmo_dispersion_energy": -23.63, 
			 "cosmo_repulsion_energy": 1.84, 
			 "cosmo_total_nonelectrostatic_energy": 12.29, 
			 "SMD_solvation_energy": 6.29 
		},
		"coords": [
			{
				"x": 0.4213960284,
				"y": -0.441922972,
				"z": 1.2988890181,
				"element": "C" 
			},
			{
				"x": -1.0837470871,
				"y": -0.4569582833,
				"z": 1.1746250061,
				"element": "C" 
			},
			{
				"x": -1.7761249055,
				"y": -1.2928429759,
				"z": 0.2812239204,
				"element": "C" 
			},
			{
				"x": -3.1777812274,
				"y": -1.3478699211,
				"z": 0.2749445733,
				"element": "C" 
			},
			{
				"x": -3.9049494404,
				"y": -0.5215856218,
				"z": 1.1262070407,
				"element": "C" 
			},
			{
				"x": -3.2420427798,
				"y": 0.3434864476,
				"z": 1.991758229,
				"element": "C" 
			},
			{
				"x": -1.8400462965,
				"y": 0.3782238631,
				"z": 2.0322961755,
				"element": "C" 
			},
			{
				"x": -1.1867997478,
				"y": 1.1898599553,
				"z": 2.965857588,
				"element": "N" 
			},
			{
				"x": -1.0820432487,
				"y": -2.2401759267,
				"z": -0.6599406994,
				"element": "C" 
			},
			{
				"x": -1.3073442195,
				"y": -3.443993398,
				"z": -0.6329473368,
				"element": "O" 
			},
			{
				"x": -0.1704013449,
				"y": -1.7445478207,
				"z": -1.5792729235,
				"element": "N" 
			},
			{
				"x": 0.1168562857,
				"y": -0.4340797314,
				"z": -2.0252820618,
				"element": "C" 
			},
			{
				"x": -0.84050099,
				"y": 0.5913836571,
				"z": -2.0442463004,
				"element": "C" 
			},
			{
				"x": -0.4935436262,
				"y": 1.8551715426,
				"z": -2.5213415693,
				"element": "C" 
			},
			{
				"x": 0.7892660263,
				"y": 2.1113248344,
				"z": -3.0089413401,
				"element": "C" 
			},
			{
				"x": 1.7347688087,
				"y": 1.0840838251,
				"z": -3.0124572167,
				"element": "C" 
			},
			{
				"x": 1.4060197669,
				"y": -0.1760295185,
				"z": -2.5173582647,
				"element": "C" 
			},
			{
				"x": 0.7147638494,
				"y": -0.5239439544,
				"z": 2.3518305476,
				"element": "H" 
			},
			{
				"x": 0.8867023683,
				"y": -1.2647787126,
				"z": 0.7564280755,
				"element": "H" 
			},
			{
				"x": 0.8566534034,
				"y": 0.4882156171,
				"z": 0.907237083,
				"element": "H" 
			},
			{
				"x": -3.6768877173,
				"y": -2.0388071807,
				"z": -0.3955627101,
				"element": "H" 
			},
			{
				"x": -4.9907065311,
				"y": -0.5487191831,
				"z": 1.1177116968,
				"element": "H" 
			},
			{
				"x": -3.8082456101,
				"y": 0.9916516707,
				"z": 2.6568190006,
				"element": "H" 
			},
			{
				"x": -1.7668456679,
				"y": 1.9122605605,
				"z": 3.3703184427,
				"element": "H" 
			},
			{
				"x": -0.2898004238,
				"y": 1.5536047422,
				"z": 2.6755255443,
				"element": "H" 
			},
			{
				"x": 0.2943597259,
				"y": -2.4976855164,
				"z": -2.0728976286,
				"element": "H" 
			},
			{
				"x": -1.8484242373,
				"y": 0.3979012416,
				"z": -1.6986516777,
				"element": "H" 
			},
			{
				"x": -1.2444485213,
				"y": 2.6402424481,
				"z": -2.5287172406,
				"element": "H" 
			},
			{
				"x": 1.0461838937,
				"y": 3.0954661995,
				"z": -3.3886022881,
				"element": "H" 
			},
			{
				"x": 2.7361529281,
				"y": 1.263423153,
				"z": -3.3932775483,
				"element": "H" 
			},
			{
				"x": 2.1487605377,
				"y": -0.9695590414,
				"z": -2.5044751353,
				"element": "H" 
			}
		],
		 "valence_orbital": [ 
			{
				"type": "occ",
				"energy": -0.25945,
				"method": "rhf"
			},
			{
				"type": "occ",
				"energy": -0.25407,
				"method": "rhf"
			},
			{
				"type": "occ",
				"energy": -0.2366,
				"method": "rhf"
			},
			{
				"type": "occ",
				"energy": -0.22216,
				"method": "rhf"
			},
			{
				"type": "occ",
				"energy": -0.2044,
				"method": "rhf"
			},
			{
				"type": "unocc",
				"energy": -0.02468,
				"method": "rhf"
			},
			{
				"type": "unocc",
				"energy": -0.00841,
				"method": "rhf"
			},
			{
				"type": "unocc",
				"energy": 0.00068,
				"method": "rhf"
			},
			{
				"type": "unocc",
				"energy": 0.01442,
				"method": "rhf"
			},
			{
				"type": "unocc",
				"energy": 0.05047,
				"method": "rhf"
			}
		],
		"cosmo_sigma_profile": { 
			"-0.025": 0.0,
			"-0.024": 0.0,
			"-0.023": 0.0,
			"-0.022": 0.0,
			"-0.021": 0.0,
			"-0.02": 0.0,
			"-0.019": 0.0,
			"-0.018": 0.0,
			"-0.017": 0.0,
			"-0.016": 0.0,
			"-0.015": 0.0116663798786,
			"-0.014": 0.698467105505,
			"-0.013": 0.979945023828,
			"-0.012": 3.1896312785,
			"-0.011": 3.62332559516,
			"-0.01": 3.94567827254,
			"-0.009": 4.48693875681,
			"-0.008": 4.23734917067,
			"-0.007": 5.18987889561,
			"-0.006": 9.68432563899,
			"-0.005": 14.7639634244,
			"-0.004": 22.0621205171,
			"-0.003": 23.5545875791,
			"-0.002": 18.2471250062,
			"-0.001": 19.3675174035,
			"0.0": 16.2531749276,
			"0.001": 17.6520048173,
			"0.002": 16.6762034327,
			"0.003": 13.9409591967,
			"0.004": 19.645320069,
			"0.005": 17.5427871927,
			"0.006": 9.72461083368,
			"0.007": 2.91232919743,
			"0.008": 2.69753443887,
			"0.009": 2.10241308694,
			"0.01": 1.69582358107,
			"0.011": 2.70222724864,
			"0.012": 3.33835254539,
			"0.013": 6.11718810902,
			"0.014": 3.03993372493,
			"0.015": 0.548599631162,
			"0.016": 0.0,
			"0.017": 0.0,
			"0.018": 0.0,
			"0.019": 0.0,
			"0.02": 0.0,
			"0.021": 0.0,
			"0.022": 0.0,
			"0.023": 0.0,
			"0.024": 0.0,
			"0.025": 0.0
		}
	}
}
