{
	 "smiles": "COC1=C(OC)C=C(C(O)=O)C(Cl)=C1", 
	 "Tm": 453.15, 
	 "num_atms": 23, 
	 "gaussian": { 
		 "optdone": 1, 
		 "sigma_profile": "yes", 
		 "theory": "DFT", 
		 "functional": "B3LYP", 
		 "basiset": "6-31G**", 
		 "properties": { 
			 "R2extent": 4003.9583, 
			 "electric_dipole_moment_norm": 5.04282230304, 
			 "electric_quadrupole_moment_norm": 13.5941035023, 
			 "total_energy": -1109.44798462, 
			 "HOMO_LUMO_gap": 0.17553, 
			 "cosmo_polarized_energy": -12.99, 
			 "cosmo_cavitation_energy": 29.17, 
			 "cosmo_dispersion_energy": -21.38, 
			 "cosmo_repulsion_energy": 1.7, 
			 "cosmo_total_nonelectrostatic_energy": 9.48, 
			 "SMD_solvation_energy": 7.61 
		},
		"coords": [
			{
				"x": 2.7603738468,
				"y": 1.5770087943,
				"z": 0.4927444654,
				"element": "C" 
			},
			{
				"x": 1.5146421603,
				"y": 1.4696096556,
				"z": 1.1946892016,
				"element": "O" 
			},
			{
				"x": 0.4195482797,
				"y": 1.0800887674,
				"z": 0.4825161309,
				"element": "C" 
			},
			{
				"x": 0.3331681968,
				"y": -0.1672571624,
				"z": -0.1820659464,
				"element": "C" 
			},
			{
				"x": 1.4301483152,
				"y": -0.9746896051,
				"z": -0.1083142406,
				"element": "O" 
			},
			{
				"x": 1.3644031606,
				"y": -2.254311916,
				"z": -0.7238295538,
				"element": "C" 
			},
			{
				"x": -0.8461277933,
				"y": -0.4971591717,
				"z": -0.8387413306,
				"element": "C" 
			},
			{
				"x": -1.968813705,
				"y": 0.3577580919,
				"z": -0.8502513435,
				"element": "C" 
			},
			{
				"x": -3.1922208122,
				"y": -0.0824940022,
				"z": -1.5744942983,
				"element": "C" 
			},
			{
				"x": -3.0340091199,
				"y": -1.3111624301,
				"z": -2.1484617146,
				"element": "O" 
			},
			{
				"x": -4.2350909166,
				"y": 0.5262269993,
				"z": -1.6820417483,
				"element": "O" 
			},
			{
				"x": -1.8710232995,
				"y": 1.5820638995,
				"z": -0.1670687718,
				"element": "C" 
			},
			{
				"x": -3.1699110075,
				"y": 2.7511211085,
				"z": -0.0796147149,
				"element": "Cl" 
			},
			{
				"x": -0.6836675305,
				"y": 1.9278727295,
				"z": 0.4809634403,
				"element": "C" 
			},
			{
				"x": 3.1083404946,
				"y": 0.6050146637,
				"z": 0.1373866306,
				"element": "H" 
			},
			{
				"x": 2.6675394533,
				"y": 2.2690080684,
				"z": -0.3532813571,
				"element": "H" 
			},
			{
				"x": 3.4702887394,
				"y": 1.9850187872,
				"z": 1.2140860664,
				"element": "H" 
			},
			{
				"x": 0.5621235247,
				"y": -2.8653757197,
				"z": -0.2925134545,
				"element": "H" 
			},
			{
				"x": 2.3259531139,
				"y": -2.7300112554,
				"z": -0.5270691231,
				"element": "H" 
			},
			{
				"x": 1.2139702057,
				"y": -2.1742912847,
				"z": -1.8077058312,
				"element": "H" 
			},
			{
				"x": -0.9348776901,
				"y": -1.4426253321,
				"z": -1.3537561817,
				"element": "H" 
			},
			{
				"x": -3.8816858719,
				"y": -1.4931209686,
				"z": -2.5852879783,
				"element": "H" 
			},
			{
				"x": -0.6020717444,
				"y": 2.8728072827,
				"z": 1.0044116536,
				"element": "H" 
			}
		],
		 "valence_orbital": [ 
			{
				"type": "occ",
				"energy": -0.30663,
				"method": "rhf"
			},
			{
				"type": "occ",
				"energy": -0.29417,
				"method": "rhf"
			},
			{
				"type": "occ",
				"energy": -0.26509,
				"method": "rhf"
			},
			{
				"type": "occ",
				"energy": -0.25404,
				"method": "rhf"
			},
			{
				"type": "occ",
				"energy": -0.22622,
				"method": "rhf"
			},
			{
				"type": "unocc",
				"energy": -0.05069,
				"method": "rhf"
			},
			{
				"type": "unocc",
				"energy": -0.009,
				"method": "rhf"
			},
			{
				"type": "unocc",
				"energy": 0.03456,
				"method": "rhf"
			},
			{
				"type": "unocc",
				"energy": 0.05695,
				"method": "rhf"
			},
			{
				"type": "unocc",
				"energy": 0.07922,
				"method": "rhf"
			}
		],
		"cosmo_sigma_profile": { 
			"-0.025": 0.0,
			"-0.024": 0.0,
			"-0.023": 0.0,
			"-0.022": 0.0,
			"-0.021": 0.0,
			"-0.02": 0.0,
			"-0.019": 0.0257066982345,
			"-0.018": 0.800586106125,
			"-0.017": 0.779850118276,
			"-0.016": 0.841938746132,
			"-0.015": 0.897930898598,
			"-0.014": 0.623011617634,
			"-0.013": 0.141422109771,
			"-0.012": 0.679326015638,
			"-0.011": 1.16063344012,
			"-0.01": 0.548103888056,
			"-0.009": 0.313779239963,
			"-0.008": 0.849956391408,
			"-0.007": 5.15263530231,
			"-0.006": 12.8526757699,
			"-0.005": 15.1235080954,
			"-0.004": 18.2707863429,
			"-0.003": 20.2549658632,
			"-0.002": 15.1929234087,
			"-0.001": 15.4374442998,
			"0.0": 17.509432201,
			"0.001": 26.0274388151,
			"0.002": 16.8381198916,
			"0.003": 11.8036275642,
			"0.004": 10.8919228936,
			"0.005": 8.90116177236,
			"0.006": 5.94815510367,
			"0.007": 5.76304342492,
			"0.008": 4.73463796179,
			"0.009": 3.09135999533,
			"0.01": 4.0811257603,
			"0.011": 4.40645280079,
			"0.012": 4.50370280519,
			"0.013": 0.152321098004,
			"0.014": 0.0,
			"0.015": 0.0,
			"0.016": 0.0,
			"0.017": 0.0,
			"0.018": 0.0,
			"0.019": 0.0,
			"0.02": 0.0,
			"0.021": 0.0,
			"0.022": 0.0,
			"0.023": 0.0,
			"0.024": 0.0,
			"0.025": 0.0
		}
	}
}
