{
	 "smiles": "CS(=O)(=O)C1=CC=C(O)C=C1", 
	 "Tm": 366.15, 
	 "num_atms": 19, 
	 "gaussian": { 
		 "optdone": 1, 
		 "sigma_profile": "yes", 
		 "theory": "DFT", 
		 "functional": "B3LYP", 
		 "basiset": "6-31G**", 
		 "properties": { 
			 "R2extent": 3402.9399, 
			 "electric_dipole_moment_norm": 5.54277249849, 
			 "electric_quadrupole_moment_norm": 28.034819131, 
			 "total_energy": -895.357838563, 
			 "HOMO_LUMO_gap": 0.21881, 
			 "cosmo_polarized_energy": -19.04, 
			 "cosmo_cavitation_energy": 24.55, 
			 "cosmo_dispersion_energy": -18.51, 
			 "cosmo_repulsion_energy": 1.43, 
			 "cosmo_total_nonelectrostatic_energy": 7.47, 
			 "SMD_solvation_energy": 4.42 
		},
		"coords": [
			{
				"x": -2.8021193841,
				"y": 1.9455080441,
				"z": 1.1649262202,
				"element": "C" 
			},
			{
				"x": -3.2014525468,
				"y": 0.9996029319,
				"z": -0.3256755573,
				"element": "S" 
			},
			{
				"x": -3.9217637775,
				"y": 1.9047369906,
				"z": -1.2359233158,
				"element": "O" 
			},
			{
				"x": -3.7960724421,
				"y": -0.2728685809,
				"z": 0.1134927355,
				"element": "O" 
			},
			{
				"x": -1.6029036453,
				"y": 0.64314308,
				"z": -1.053053314,
				"element": "C" 
			},
			{
				"x": -1.0708752397,
				"y": 1.515800174,
				"z": -2.0038086277,
				"element": "C" 
			},
			{
				"x": 0.1718327139,
				"y": 1.2411933047,
				"z": -2.568105026,
				"element": "C" 
			},
			{
				"x": 0.8758136479,
				"y": 0.0924280442,
				"z": -2.1815156403,
				"element": "C" 
			},
			{
				"x": 2.0925826385,
				"y": -0.228616161,
				"z": -2.6956497802,
				"element": "O" 
			},
			{
				"x": 0.3302458522,
				"y": -0.7868292517,
				"z": -1.2346761521,
				"element": "C" 
			},
			{
				"x": -0.9104291278,
				"y": -0.5121494124,
				"z": -0.6735977265,
				"element": "C" 
			},
			{
				"x": -2.282226543,
				"y": 2.8615194004,
				"z": 0.8811683628,
				"element": "H" 
			},
			{
				"x": -3.7556068741,
				"y": 2.1814933001,
				"z": 1.642027934,
				"element": "H" 
			},
			{
				"x": -2.1882308575,
				"y": 1.3326186607,
				"z": 1.8263084005,
				"element": "H" 
			},
			{
				"x": -1.6384398697,
				"y": 2.3881081692,
				"z": -2.3102053741,
				"element": "H" 
			},
			{
				"x": 0.591499136,
				"y": 1.9115376005,
				"z": -3.3147899843,
				"element": "H" 
			},
			{
				"x": 2.3563429102,
				"y": 0.4368327651,
				"z": -3.3448777492,
				"element": "H" 
			},
			{
				"x": 0.8875875026,
				"y": -1.6773961134,
				"z": -0.9651798919,
				"element": "H" 
			},
			{
				"x": -1.3576840937,
				"y": -1.1963629461,
				"z": 0.0398344863,
				"element": "H" 
			}
		],
		 "valence_orbital": [ 
			{
				"type": "occ",
				"energy": -0.30716,
				"method": "rhf"
			},
			{
				"type": "occ",
				"energy": -0.29107,
				"method": "rhf"
			},
			{
				"type": "occ",
				"energy": -0.28384,
				"method": "rhf"
			},
			{
				"type": "occ",
				"energy": -0.276,
				"method": "rhf"
			},
			{
				"type": "occ",
				"energy": -0.24812,
				"method": "rhf"
			},
			{
				"type": "unocc",
				"energy": -0.02931,
				"method": "rhf"
			},
			{
				"type": "unocc",
				"energy": -0.02543,
				"method": "rhf"
			},
			{
				"type": "unocc",
				"energy": 0.05147,
				"method": "rhf"
			},
			{
				"type": "unocc",
				"energy": 0.06878,
				"method": "rhf"
			},
			{
				"type": "unocc",
				"energy": 0.08501,
				"method": "rhf"
			}
		],
		"cosmo_sigma_profile": { 
			"-0.025": 0.0,
			"-0.024": 0.0,
			"-0.023": 0.0,
			"-0.022": 0.0,
			"-0.021": 0.0,
			"-0.02": 0.0,
			"-0.019": 0.0878806063284,
			"-0.018": 1.12103968535,
			"-0.017": 1.26359904643,
			"-0.016": 1.27561489215,
			"-0.015": 1.028952875,
			"-0.014": 1.27210035477,
			"-0.013": 0.754467975033,
			"-0.012": 1.0250633415,
			"-0.011": 0.513913198271,
			"-0.01": 1.97401569791,
			"-0.009": 1.83932674107,
			"-0.008": 7.36097727656,
			"-0.007": 11.6500982712,
			"-0.006": 13.0174896005,
			"-0.005": 13.6597841904,
			"-0.004": 12.3819269523,
			"-0.003": 11.2392865654,
			"-0.002": 6.8659673693,
			"-0.001": 6.91762390555,
			"0.0": 8.16054274917,
			"0.001": 10.3017019114,
			"0.002": 15.4609842241,
			"0.003": 14.8348502192,
			"0.004": 4.84347981373,
			"0.005": 3.91004301359,
			"0.006": 3.76230536291,
			"0.007": 3.801118489,
			"0.008": 4.25672698086,
			"0.009": 4.30767181266,
			"0.01": 5.90539496363,
			"0.011": 8.75519445388,
			"0.012": 9.90202182873,
			"0.013": 2.18747048007,
			"0.014": 0.0,
			"0.015": 0.0,
			"0.016": 0.0,
			"0.017": 0.0,
			"0.018": 0.0,
			"0.019": 0.0,
			"0.02": 0.0,
			"0.021": 0.0,
			"0.022": 0.0,
			"0.023": 0.0,
			"0.024": 0.0,
			"0.025": 0.0
		}
	}
}
