{
	 "smiles": "CC1(C)C(CCC1(C)C(O)=O)C(O)=O", 
	 "Tm": 461.15, 
	 "num_atms": 30, 
	 "gaussian": { 
		 "optdone": 1, 
		 "sigma_profile": "yes", 
		 "theory": "DFT", 
		 "functional": "B3LYP", 
		 "basiset": "6-31G**", 
		 "properties": { 
			 "R2extent": 3187.5412, 
			 "electric_dipole_moment_norm": 0.838142386471, 
			 "electric_quadrupole_moment_norm": 15.4503465084, 
			 "total_energy": -691.640304376, 
			 "HOMO_LUMO_gap": 0.2659, 
			 "cosmo_polarized_energy": -13.62, 
			 "cosmo_cavitation_energy": 29.5, 
			 "cosmo_dispersion_energy": -21.06, 
			 "cosmo_repulsion_energy": 1.62, 
			 "cosmo_total_nonelectrostatic_energy": 10.06, 
			 "SMD_solvation_energy": 6.92 
		},
		"coords": [
			{
				"x": 2.0553780981,
				"y": -1.1485845933,
				"z": -1.5770376697,
				"element": "C" 
			},
			{
				"x": 0.8223414873,
				"y": -0.8880467451,
				"z": -0.6997764359,
				"element": "C" 
			},
			{
				"x": 1.0252134789,
				"y": -1.6478519297,
				"z": 0.6345099823,
				"element": "C" 
			},
			{
				"x": 0.6163783248,
				"y": 0.6303373247,
				"z": -0.3278869103,
				"element": "C" 
			},
			{
				"x": -0.8616196191,
				"y": 0.714616711,
				"z": 0.0960167102,
				"element": "C" 
			},
			{
				"x": -1.6182502267,
				"y": -0.2945825429,
				"z": -0.7933867777,
				"element": "C" 
			},
			{
				"x": -0.5702761155,
				"y": -1.293929766,
				"z": -1.3773381828,
				"element": "C" 
			},
			{
				"x": -0.5548065633,
				"y": -1.2038240568,
				"z": -2.922654611,
				"element": "C" 
			},
			{
				"x": -0.938482265,
				"y": -2.7320823185,
				"z": -1.0035623316,
				"element": "C" 
			},
			{
				"x": -0.141396865,
				"y": -3.6447656815,
				"z": -1.6221020446,
				"element": "O" 
			},
			{
				"x": -1.8212487645,
				"y": -3.0827841536,
				"z": -0.2500396041,
				"element": "O" 
			},
			{
				"x": 1.0289029075,
				"y": 1.6009731515,
				"z": -1.4210444787,
				"element": "C" 
			},
			{
				"x": 0.0011719354,
				"y": 2.0321396968,
				"z": -2.2013685339,
				"element": "O" 
			},
			{
				"x": 2.1643825411,
				"y": 1.9852213402,
				"z": -1.6033344919,
				"element": "O" 
			},
			{
				"x": 2.9601528119,
				"y": -0.8145529417,
				"z": -1.060114846,
				"element": "H" 
			},
			{
				"x": 2.0201687528,
				"y": -0.6205096662,
				"z": -2.5318722638,
				"element": "H" 
			},
			{
				"x": 2.1523818272,
				"y": -2.2185076125,
				"z": -1.7825804431,
				"element": "H" 
			},
			{
				"x": 1.195267043,
				"y": -2.7124826923,
				"z": 0.4517123726,
				"element": "H" 
			},
			{
				"x": 1.9072173121,
				"y": -1.2598823002,
				"z": 1.1538270432,
				"element": "H" 
			},
			{
				"x": 0.1671626693,
				"y": -1.5582032498,
				"z": 1.3058830129,
				"element": "H" 
			},
			{
				"x": 1.2946113035,
				"y": 0.8748994015,
				"z": 0.495110169,
				"element": "H" 
			},
			{
				"x": -1.2634562414,
				"y": 1.7265292218,
				"z": 0.0069363261,
				"element": "H" 
			},
			{
				"x": -0.9399790268,
				"y": 0.4333011231,
				"z": 1.1503899197,
				"element": "H" 
			},
			{
				"x": -2.3886559514,
				"y": -0.8274638763,
				"z": -0.2340261054,
				"element": "H" 
			},
			{
				"x": -2.1112916594,
				"y": 0.227261047,
				"z": -1.6175542867,
				"element": "H" 
			},
			{
				"x": -0.3210966818,
				"y": -0.1868152475,
				"z": -3.2423846314,
				"element": "H" 
			},
			{
				"x": 0.1597180812,
				"y": -1.894859935,
				"z": -3.3716088564,
				"element": "H" 
			},
			{
				"x": -1.5489428351,
				"y": -1.4487738723,
				"z": -3.312585648,
				"element": "H" 
			},
			{
				"x": -0.4487360678,
				"y": -4.5139496404,
				"z": -1.3137226266,
				"element": "H" 
			},
			{
				"x": 0.399190309,
				"y": 2.642373804,
				"z": -2.8455037566,
				"element": "H" 
			}
		],
		 "valence_orbital": [ 
			{
				"type": "occ",
				"energy": -0.31826,
				"method": "rhf"
			},
			{
				"type": "occ",
				"energy": -0.31656,
				"method": "rhf"
			},
			{
				"type": "occ",
				"energy": -0.31014,
				"method": "rhf"
			},
			{
				"type": "occ",
				"energy": -0.27532,
				"method": "rhf"
			},
			{
				"type": "occ",
				"energy": -0.26717,
				"method": "rhf"
			},
			{
				"type": "unocc",
				"energy": -0.00127,
				"method": "rhf"
			},
			{
				"type": "unocc",
				"energy": 0.01071,
				"method": "rhf"
			},
			{
				"type": "unocc",
				"energy": 0.06034,
				"method": "rhf"
			},
			{
				"type": "unocc",
				"energy": 0.07463,
				"method": "rhf"
			},
			{
				"type": "unocc",
				"energy": 0.09724,
				"method": "rhf"
			}
		],
		"cosmo_sigma_profile": { 
			"-0.025": 0.0,
			"-0.024": 0.0,
			"-0.023": 0.0,
			"-0.022": 0.0,
			"-0.021": 0.0,
			"-0.02": 0.0,
			"-0.019": 0.0,
			"-0.018": 0.911596676151,
			"-0.017": 1.87698350421,
			"-0.016": 1.45595820009,
			"-0.015": 1.76235741267,
			"-0.014": 1.4270160049,
			"-0.013": 1.4919357858,
			"-0.012": 1.2863552397,
			"-0.011": 1.75249104494,
			"-0.01": 1.43462850437,
			"-0.009": 0.668290011351,
			"-0.008": 0.807739901961,
			"-0.007": 1.90043900857,
			"-0.006": 2.56844752939,
			"-0.005": 5.83354205856,
			"-0.004": 15.2837754863,
			"-0.003": 22.8910020742,
			"-0.002": 24.1964677728,
			"-0.001": 27.5818002857,
			"0.0": 27.3820349819,
			"0.001": 19.9611451801,
			"0.002": 8.46237484644,
			"0.003": 6.5904400753,
			"0.004": 7.78375489725,
			"0.005": 6.54495873363,
			"0.006": 4.93651060129,
			"0.007": 4.82184487994,
			"0.008": 4.1054264483,
			"0.009": 2.78638096162,
			"0.01": 3.36717746095,
			"0.011": 6.6626189281,
			"0.012": 8.41678743226,
			"0.013": 1.18798890709,
			"0.014": 0.0,
			"0.015": 0.0,
			"0.016": 0.0,
			"0.017": 0.0,
			"0.018": 0.0,
			"0.019": 0.0,
			"0.02": 0.0,
			"0.021": 0.0,
			"0.022": 0.0,
			"0.023": 0.0,
			"0.024": 0.0,
			"0.025": 0.0
		}
	}
}
