{
	 "smiles": "CCN1C(=O)NC(=O)C2=C1N=CC(=C2)C(O)=O", 
	 "Tm": 590.15, 
	 "num_atms": 26, 
	 "gaussian": { 
		 "optdone": 1, 
		 "sigma_profile": "yes", 
		 "theory": "DFT", 
		 "functional": "B3LYP", 
		 "basiset": "6-31G**", 
		 "properties": { 
			 "R2extent": 4485.2842, 
			 "electric_dipole_moment_norm": 2.34061931548, 
			 "electric_quadrupole_moment_norm": 21.7412072167, 
			 "total_energy": -851.705302148, 
			 "HOMO_LUMO_gap": 0.17693, 
			 "cosmo_polarized_energy": -21.64, 
			 "cosmo_cavitation_energy": 31.11, 
			 "cosmo_dispersion_energy": -22.7, 
			 "cosmo_repulsion_energy": 1.73, 
			 "cosmo_total_nonelectrostatic_energy": 10.14, 
			 "SMD_solvation_energy": 7.06 
		},
		"coords": [
			{
				"x": 0.3826999511,
				"y": 0.2624182862,
				"z": -3.4725084642,
				"element": "C" 
			},
			{
				"x": 1.470160556,
				"y": 0.5983202705,
				"z": -2.4538002235,
				"element": "C" 
			},
			{
				"x": 0.9139945465,
				"y": 1.1301714652,
				"z": -1.1891511698,
				"element": "N" 
			},
			{
				"x": 0.7475266785,
				"y": 2.5152228296,
				"z": -1.1028069436,
				"element": "C" 
			},
			{
				"x": 1.0401879802,
				"y": 3.2773893574,
				"z": -2.0058516208,
				"element": "O" 
			},
			{
				"x": 0.2230915197,
				"y": 2.9828224709,
				"z": 0.1017988207,
				"element": "N" 
			},
			{
				"x": -0.1735996631,
				"y": 2.2489868082,
				"z": 1.2134846359,
				"element": "C" 
			},
			{
				"x": -0.6263717816,
				"y": 2.7810880003,
				"z": 2.2144719203,
				"element": "O" 
			},
			{
				"x": 0.003827686,
				"y": 0.7990638568,
				"z": 1.0354481583,
				"element": "C" 
			},
			{
				"x": 0.5382026781,
				"y": 0.2781615954,
				"z": -0.1631142311,
				"element": "C" 
			},
			{
				"x": 0.7125213107,
				"y": -1.039747213,
				"z": -0.3594880222,
				"element": "N" 
			},
			{
				"x": 0.3686773137,
				"y": -1.8653129284,
				"z": 0.6233375621,
				"element": "C" 
			},
			{
				"x": -0.1842637215,
				"y": -1.4577237478,
				"z": 1.852926348,
				"element": "C" 
			},
			{
				"x": -0.3543286062,
				"y": -0.0878792106,
				"z": 2.046265402,
				"element": "C" 
			},
			{
				"x": -0.507203206,
				"y": -2.5182682276,
				"z": 2.8572273356,
				"element": "C" 
			},
			{
				"x": -1.2762714475,
				"y": -2.1597203155,
				"z": 3.9157117985,
				"element": "O" 
			},
			{
				"x": -0.1099486497,
				"y": -3.655229643,
				"z": 2.7534936825,
				"element": "O" 
			},
			{
				"x": -0.288527552,
				"y": -0.5105942784,
				"z": -3.0885673472,
				"element": "H" 
			},
			{
				"x": 0.84410615,
				"y": -0.1132414957,
				"z": -4.3911633497,
				"element": "H" 
			},
			{
				"x": -0.2009784265,
				"y": 1.1519570038,
				"z": -3.7248624869,
				"element": "H" 
			},
			{
				"x": 2.0503304377,
				"y": -0.2870274213,
				"z": -2.1965231804,
				"element": "H" 
			},
			{
				"x": 2.1354050447,
				"y": 1.3706786454,
				"z": -2.8392961633,
				"element": "H" 
			},
			{
				"x": 0.1154222561,
				"y": 3.9891087652,
				"z": 0.1530096915,
				"element": "H" 
			},
			{
				"x": 0.52777259,
				"y": -2.926722484,
				"z": 0.4523448424,
				"element": "H" 
			},
			{
				"x": -0.7374272011,
				"y": 0.3503895678,
				"z": 2.9647426396,
				"element": "H" 
			},
			{
				"x": -1.6298064438,
				"y": -1.2663119573,
				"z": 3.8075703654,
				"element": "H" 
			}
		],
		 "valence_orbital": [ 
			{
				"type": "occ",
				"energy": -0.30741,
				"method": "rhf"
			},
			{
				"type": "occ",
				"energy": -0.30441,
				"method": "rhf"
			},
			{
				"type": "occ",
				"energy": -0.28664,
				"method": "rhf"
			},
			{
				"type": "occ",
				"energy": -0.281,
				"method": "rhf"
			},
			{
				"type": "occ",
				"energy": -0.26058,
				"method": "rhf"
			},
			{
				"type": "unocc",
				"energy": -0.08365,
				"method": "rhf"
			},
			{
				"type": "unocc",
				"energy": -0.07356,
				"method": "rhf"
			},
			{
				"type": "unocc",
				"energy": -0.00554,
				"method": "rhf"
			},
			{
				"type": "unocc",
				"energy": 0.00893,
				"method": "rhf"
			},
			{
				"type": "unocc",
				"energy": 0.0435,
				"method": "rhf"
			}
		],
		"cosmo_sigma_profile": { 
			"-0.025": 0.0,
			"-0.024": 0.0,
			"-0.023": 0.0,
			"-0.022": 0.0,
			"-0.021": 0.0,
			"-0.02": 0.557276132497,
			"-0.019": 1.11720691181,
			"-0.018": 1.24725085487,
			"-0.017": 1.24017160072,
			"-0.016": 1.77293941566,
			"-0.015": 1.72783272201,
			"-0.014": 1.85481576769,
			"-0.013": 2.23045422697,
			"-0.012": 1.83755459107,
			"-0.011": 1.75588611276,
			"-0.01": 1.61672604416,
			"-0.009": 1.85298581014,
			"-0.008": 3.65030689115,
			"-0.007": 5.28489918832,
			"-0.006": 6.30171133227,
			"-0.005": 11.4837221772,
			"-0.004": 20.4604951538,
			"-0.003": 30.5018444159,
			"-0.002": 28.0840237482,
			"-0.001": 16.2816142911,
			"0.0": 15.0058245926,
			"0.001": 8.77795806057,
			"0.002": 6.498984101,
			"0.003": 6.36794191791,
			"0.004": 6.53773486309,
			"0.005": 6.10021674983,
			"0.006": 5.23129591031,
			"0.007": 5.51803938504,
			"0.008": 6.56370568566,
			"0.009": 7.71261988671,
			"0.01": 8.8058132356,
			"0.011": 12.3191426885,
			"0.012": 11.3043572891,
			"0.013": 1.22236035388,
			"0.014": 0.0,
			"0.015": 0.0,
			"0.016": 0.0,
			"0.017": 0.0,
			"0.018": 0.0,
			"0.019": 0.0,
			"0.02": 0.0,
			"0.021": 0.0,
			"0.022": 0.0,
			"0.023": 0.0,
			"0.024": 0.0,
			"0.025": 0.0
		}
	}
}
