{
	 "smiles": "NC1=NC2=C(C=CC=C2)N1C1=CC=C(F)C=C1", 
	 "Tm": 438.15, 
	 "num_atms": 27, 
	 "gaussian": { 
		 "optdone": 1, 
		 "sigma_profile": "yes", 
		 "theory": "DFT", 
		 "functional": "B3LYP", 
		 "basiset": "6-31G**", 
		 "properties": { 
			 "R2extent": 4417.4391, 
			 "electric_dipole_moment_norm": 2.98013766964, 
			 "electric_quadrupole_moment_norm": 11.04088326, 
			 "total_energy": -765.515762878, 
			 "HOMO_LUMO_gap": 0.17057, 
			 "cosmo_polarized_energy": -13.56, 
			 "cosmo_cavitation_energy": 31.6, 
			 "cosmo_dispersion_energy": -22.89, 
			 "cosmo_repulsion_energy": 1.73, 
			 "cosmo_total_nonelectrostatic_energy": 10.44, 
			 "SMD_solvation_energy": 3.8 
		},
		"coords": [
			{
				"x": -3.0016905828,
				"y": 1.2141346853,
				"z": 0.3756205028,
				"element": "N" 
			},
			{
				"x": -2.2667524215,
				"y": 0.0640978555,
				"z": 0.5849794883,
				"element": "C" 
			},
			{
				"x": -2.7415081905,
				"y": -1.0346783738,
				"z": 1.113745411,
				"element": "N" 
			},
			{
				"x": -1.683091849,
				"y": -1.9354537867,
				"z": 1.0714216845,
				"element": "C" 
			},
			{
				"x": -0.5355052612,
				"y": -1.3328301648,
				"z": 0.5057110441,
				"element": "C" 
			},
			{
				"x": 0.6644070797,
				"y": -2.0162904137,
				"z": 0.3324203423,
				"element": "C" 
			},
			{
				"x": 0.7002597147,
				"y": -3.3467514602,
				"z": 0.75927937,
				"element": "C" 
			},
			{
				"x": -0.4263294979,
				"y": -3.9595781826,
				"z": 1.331928428,
				"element": "C" 
			},
			{
				"x": -1.626907801,
				"y": -3.2668330807,
				"z": 1.4917859684,
				"element": "C" 
			},
			{
				"x": -0.9350644175,
				"y": -0.0253195456,
				"z": 0.1843729335,
				"element": "N" 
			},
			{
				"x": -0.1390539767,
				"y": 0.9977790272,
				"z": -0.3975965562,
				"element": "C" 
			},
			{
				"x": -0.5853979675,
				"y": 1.679079552,
				"z": -1.5388952373,
				"element": "C" 
			},
			{
				"x": 0.1951567793,
				"y": 2.686345604,
				"z": -2.1040284171,
				"element": "C" 
			},
			{
				"x": 1.4276371862,
				"y": 2.9836183701,
				"z": -1.5327282862,
				"element": "C" 
			},
			{
				"x": 2.188825478,
				"y": 3.9492970602,
				"z": -2.0841753707,
				"element": "F" 
			},
			{
				"x": 1.8971094688,
				"y": 2.3139370066,
				"z": -0.4076798768,
				"element": "C" 
			},
			{
				"x": 1.1025296222,
				"y": 1.3235661846,
				"z": 0.1663870252,
				"element": "C" 
			},
			{
				"x": -3.8691968104,
				"y": 1.1934409462,
				"z": 0.895815183,
				"element": "H" 
			},
			{
				"x": -2.4944160185,
				"y": 2.0833348462,
				"z": 0.4827480127,
				"element": "H" 
			},
			{
				"x": 1.5319510433,
				"y": -1.5465765769,
				"z": -0.1195663847,
				"element": "H" 
			},
			{
				"x": 1.6176568114,
				"y": -3.9157591983,
				"z": 0.6416383069,
				"element": "H" 
			},
			{
				"x": -0.3607961051,
				"y": -4.9951698878,
				"z": 1.6528458715,
				"element": "H" 
			},
			{
				"x": -2.5028086377,
				"y": -3.7381198651,
				"z": 1.9258902579,
				"element": "H" 
			},
			{
				"x": -1.5416691592,
				"y": 1.4163378619,
				"z": -1.977575132,
				"element": "H" 
			},
			{
				"x": -0.1317573407,
				"y": 3.2269979692,
				"z": -2.9854370194,
				"element": "H" 
			},
			{
				"x": 2.8617642213,
				"y": 2.5789821299,
				"z": 0.0108928357,
				"element": "H" 
			},
			{
				"x": 1.4383486323,
				"y": 0.8016114371,
				"z": 1.0559996144,
				"element": "H" 
			}
		],
		 "valence_orbital": [ 
			{
				"type": "occ",
				"energy": -0.27871,
				"method": "rhf"
			},
			{
				"type": "occ",
				"energy": -0.27187,
				"method": "rhf"
			},
			{
				"type": "occ",
				"energy": -0.25556,
				"method": "rhf"
			},
			{
				"type": "occ",
				"energy": -0.2151,
				"method": "rhf"
			},
			{
				"type": "occ",
				"energy": -0.2004,
				"method": "rhf"
			},
			{
				"type": "unocc",
				"energy": -0.02983,
				"method": "rhf"
			},
			{
				"type": "unocc",
				"energy": -0.02214,
				"method": "rhf"
			},
			{
				"type": "unocc",
				"energy": 0.00221,
				"method": "rhf"
			},
			{
				"type": "unocc",
				"energy": 0.03051,
				"method": "rhf"
			},
			{
				"type": "unocc",
				"energy": 0.06884,
				"method": "rhf"
			}
		],
		"cosmo_sigma_profile": { 
			"-0.025": 0.0,
			"-0.024": 0.0,
			"-0.023": 0.0,
			"-0.022": 0.0,
			"-0.021": 0.0,
			"-0.02": 0.0,
			"-0.019": 0.0,
			"-0.018": 0.0,
			"-0.017": 0.0,
			"-0.016": 0.0,
			"-0.015": 0.0,
			"-0.014": 0.628527166518,
			"-0.013": 2.18214959692,
			"-0.012": 2.24785376019,
			"-0.011": 2.63604308814,
			"-0.01": 1.88337311817,
			"-0.009": 2.49305263317,
			"-0.008": 3.68625529902,
			"-0.007": 8.00958431097,
			"-0.006": 10.3330739439,
			"-0.005": 15.8413460193,
			"-0.004": 16.0665769063,
			"-0.003": 18.0919175164,
			"-0.002": 14.1275215713,
			"-0.001": 15.9154710632,
			"0.0": 20.6725933281,
			"0.001": 18.5999591883,
			"0.002": 22.3833583214,
			"0.003": 15.0725069304,
			"0.004": 18.8864348653,
			"0.005": 13.1956888728,
			"0.006": 11.0574948111,
			"0.007": 6.33093514446,
			"0.008": 2.4536009497,
			"0.009": 1.6824597023,
			"0.01": 1.82886259571,
			"0.011": 1.05269222904,
			"0.012": 1.56298051994,
			"0.013": 1.02616135956,
			"0.014": 0.840629267564,
			"0.015": 1.24101405388,
			"0.016": 0.833131773912,
			"0.017": 0.78308334398,
			"0.018": 0.314557370124,
			"0.019": 0.0,
			"0.02": 0.0,
			"0.021": 0.0,
			"0.022": 0.0,
			"0.023": 0.0,
			"0.024": 0.0,
			"0.025": 0.0
		}
	}
}
