{
	 "smiles": "FC1=CC2=C(OC(Cl)=N2)C=C1", 
	 "Tm": 307.15, 
	 "num_atms": 14, 
	 "gaussian": { 
		 "optdone": 1, 
		 "sigma_profile": "yes", 
		 "theory": "DFT", 
		 "functional": "B3LYP", 
		 "basiset": "6-31G**", 
		 "properties": { 
			 "R2extent": 2664.3203, 
			 "electric_dipole_moment_norm": 1.83825691893, 
			 "electric_quadrupole_moment_norm": 2.46041869201, 
			 "total_energy": -958.537569236, 
			 "HOMO_LUMO_gap": 0.20288, 
			 "cosmo_polarized_energy": -5.0, 
			 "cosmo_cavitation_energy": 21.46, 
			 "cosmo_dispersion_energy": -16.4, 
			 "cosmo_repulsion_energy": 1.28, 
			 "cosmo_total_nonelectrostatic_energy": 6.35, 
			 "SMD_solvation_energy": 2.42 
		},
		"coords": [
			{
				"x": 4.1446438871,
				"y": -0.9990676505,
				"z": 1.6641448747,
				"element": "F" 
			},
			{
				"x": 3.0224414441,
				"y": -0.5738702775,
				"z": 1.0472697392,
				"element": "C" 
			},
			{
				"x": 2.3968616169,
				"y": 0.571124066,
				"z": 1.5244207158,
				"element": "C" 
			},
			{
				"x": 1.2406125101,
				"y": 0.9600253867,
				"z": 0.8443383701,
				"element": "C" 
			},
			{
				"x": 0.7766472863,
				"y": 0.2117929867,
				"z": -0.2462430475,
				"element": "C" 
			},
			{
				"x": -0.3692884072,
				"y": 0.8288734654,
				"z": -0.7109170976,
				"element": "O" 
			},
			{
				"x": -0.5063513533,
				"y": 1.893776345,
				"z": 0.1298060581,
				"element": "C" 
			},
			{
				"x": -1.8572488279,
				"y": 2.897391305,
				"z": -0.1684443907,
				"element": "Cl" 
			},
			{
				"x": 0.3790437279,
				"y": 2.0415734126,
				"z": 1.0533867099,
				"element": "N" 
			},
			{
				"x": 1.3994256763,
				"y": -0.9302778724,
				"z": -0.7232577166,
				"element": "C" 
			},
			{
				"x": 2.5555454073,
				"y": -1.3201470628,
				"z": -0.0441632217,
				"element": "C" 
			},
			{
				"x": 2.7898192476,
				"y": 1.1199824145,
				"z": 2.3713783816,
				"element": "H" 
			},
			{
				"x": 1.0165598183,
				"y": -1.4883807768,
				"z": -1.5696004485,
				"element": "H" 
			},
			{
				"x": 3.1107879665,
				"y": -2.2010957418,
				"z": -0.3453189268,
				"element": "H" 
			}
		],
		 "valence_orbital": [ 
			{
				"type": "occ",
				"energy": -0.35087,
				"method": "rhf"
			},
			{
				"type": "occ",
				"energy": -0.33355,
				"method": "rhf"
			},
			{
				"type": "occ",
				"energy": -0.31416,
				"method": "rhf"
			},
			{
				"type": "occ",
				"energy": -0.26011,
				"method": "rhf"
			},
			{
				"type": "occ",
				"energy": -0.24846,
				"method": "rhf"
			},
			{
				"type": "unocc",
				"energy": -0.04558,
				"method": "rhf"
			},
			{
				"type": "unocc",
				"energy": -0.00506,
				"method": "rhf"
			},
			{
				"type": "unocc",
				"energy": 0.0163,
				"method": "rhf"
			},
			{
				"type": "unocc",
				"energy": 0.02026,
				"method": "rhf"
			},
			{
				"type": "unocc",
				"energy": 0.08103,
				"method": "rhf"
			}
		],
		"cosmo_sigma_profile": { 
			"-0.025": 0.0,
			"-0.024": 0.0,
			"-0.023": 0.0,
			"-0.022": 0.0,
			"-0.021": 0.0,
			"-0.02": 0.0,
			"-0.019": 0.0,
			"-0.018": 0.0,
			"-0.017": 0.0,
			"-0.016": 0.0,
			"-0.015": 0.0,
			"-0.014": 0.0,
			"-0.013": 0.0,
			"-0.012": 0.0,
			"-0.011": 0.0,
			"-0.01": 0.0,
			"-0.009": 1.24199765012,
			"-0.008": 5.23934836963,
			"-0.007": 4.51677155411,
			"-0.006": 6.95664597058,
			"-0.005": 7.86725136966,
			"-0.004": 9.22376092997,
			"-0.003": 9.29820912261,
			"-0.002": 10.8630981328,
			"-0.001": 14.2076923811,
			"0.0": 20.8232231805,
			"0.001": 28.7332406376,
			"0.002": 21.76162538,
			"0.003": 8.92804051602,
			"0.004": 12.8874731036,
			"0.005": 4.32625421348,
			"0.006": 2.20935440396,
			"0.007": 1.06391446501,
			"0.008": 1.29266796057,
			"0.009": 1.15671866773,
			"0.01": 1.05895774622,
			"0.011": 0.826554278262,
			"0.012": 0.971587645655,
			"0.013": 1.02485515033,
			"0.014": 0.369565831556,
			"0.015": 0.0,
			"0.016": 0.0,
			"0.017": 0.0,
			"0.018": 0.0,
			"0.019": 0.0,
			"0.02": 0.0,
			"0.021": 0.0,
			"0.022": 0.0,
			"0.023": 0.0,
			"0.024": 0.0,
			"0.025": 0.0
		}
	}
}
