{
	 "smiles": "ClCCC1=NN=NN1C1=CC=CC=C1", 
	 "Tm": 319.15, 
	 "num_atms": 23, 
	 "gaussian": { 
		 "optdone": 1, 
		 "sigma_profile": "yes", 
		 "theory": "DFT", 
		 "functional": "B3LYP", 
		 "basiset": "6-31G**", 
		 "properties": { 
			 "R2extent": 3538.2883, 
			 "electric_dipole_moment_norm": 7.22666598855, 
			 "electric_quadrupole_moment_norm": 23.0572417268, 
			 "total_energy": -1027.52926279, 
			 "HOMO_LUMO_gap": 0.21935, 
			 "cosmo_polarized_energy": -18.08, 
			 "cosmo_cavitation_energy": 29.45, 
			 "cosmo_dispersion_energy": -20.44, 
			 "cosmo_repulsion_energy": 1.62, 
			 "cosmo_total_nonelectrostatic_energy": 10.62, 
			 "SMD_solvation_energy": 2.58 
		},
		"coords": [
			{
				"x": 0.370122273,
				"y": 0.5851232428,
				"z": -3.3808253806,
				"element": "Cl" 
			},
			{
				"x": 0.7557721391,
				"y": 0.9899405337,
				"z": -1.6588926359,
				"element": "C" 
			},
			{
				"x": -0.3489087974,
				"y": 1.8121461375,
				"z": -0.9894010602,
				"element": "C" 
			},
			{
				"x": -1.6876286928,
				"y": 1.1471864692,
				"z": -0.9099864071,
				"element": "C" 
			},
			{
				"x": -2.7888183954,
				"y": 1.6169942111,
				"z": -1.4662799944,
				"element": "N" 
			},
			{
				"x": -3.7689907718,
				"y": 0.7143163573,
				"z": -1.2017726257,
				"element": "N" 
			},
			{
				"x": -3.3185743114,
				"y": -0.2791950444,
				"z": -0.5154330493,
				"element": "N" 
			},
			{
				"x": -1.992548417,
				"y": -0.0321439838,
				"z": -0.3038383589,
				"element": "N" 
			},
			{
				"x": -1.1934157987,
				"y": -0.9578683001,
				"z": 0.4325940055,
				"element": "C" 
			},
			{
				"x": -0.4395898277,
				"y": -0.519971429,
				"z": 1.5248320141,
				"element": "C" 
			},
			{
				"x": 0.336470403,
				"y": -1.4395938005,
				"z": 2.2310135086,
				"element": "C" 
			},
			{
				"x": 0.3414180681,
				"y": -2.7857493031,
				"z": 1.8607250633,
				"element": "C" 
			},
			{
				"x": -0.4322709451,
				"y": -3.2154257168,
				"z": 0.779813857,
				"element": "C" 
			},
			{
				"x": -1.1999694477,
				"y": -2.3038171185,
				"z": 0.0567482339,
				"element": "C" 
			},
			{
				"x": 0.9270461848,
				"y": 0.0427651294,
				"z": -1.1471804942,
				"element": "H" 
			},
			{
				"x": 1.6859810279,
				"y": 1.5593484528,
				"z": -1.6720902628,
				"element": "H" 
			},
			{
				"x": 0.0088383856,
				"y": 2.076651915,
				"z": 0.0139750123,
				"element": "H" 
			},
			{
				"x": -0.502292996,
				"y": 2.7461659203,
				"z": -1.5345603724,
				"element": "H" 
			},
			{
				"x": -0.4807914541,
				"y": 0.5198997705,
				"z": 1.8320434847,
				"element": "H" 
			},
			{
				"x": 0.9236988854,
				"y": -1.1043267141,
				"z": 3.0803315729,
				"element": "H" 
			},
			{
				"x": 0.941563616,
				"y": -3.4992765848,
				"z": 2.41689252,
				"element": "H" 
			},
			{
				"x": -0.4353791946,
				"y": -4.2625205889,
				"z": 0.4935240477,
				"element": "H" 
			},
			{
				"x": -1.804231933,
				"y": -2.6175495557,
				"z": -0.7869326787,
				"element": "H" 
			}
		],
		 "valence_orbital": [ 
			{
				"type": "occ",
				"energy": -0.29407,
				"method": "rhf"
			},
			{
				"type": "occ",
				"energy": -0.29335,
				"method": "rhf"
			},
			{
				"type": "occ",
				"energy": -0.28661,
				"method": "rhf"
			},
			{
				"type": "occ",
				"energy": -0.28105,
				"method": "rhf"
			},
			{
				"type": "occ",
				"energy": -0.26575,
				"method": "rhf"
			},
			{
				"type": "unocc",
				"energy": -0.0464,
				"method": "rhf"
			},
			{
				"type": "unocc",
				"energy": -0.03246,
				"method": "rhf"
			},
			{
				"type": "unocc",
				"energy": -0.00661,
				"method": "rhf"
			},
			{
				"type": "unocc",
				"energy": 0.01511,
				"method": "rhf"
			},
			{
				"type": "unocc",
				"energy": 0.02502,
				"method": "rhf"
			}
		],
		"cosmo_sigma_profile": { 
			"-0.025": 0.0,
			"-0.024": 0.0,
			"-0.023": 0.0,
			"-0.022": 0.0,
			"-0.021": 0.0,
			"-0.02": 0.0,
			"-0.019": 0.0,
			"-0.018": 0.0,
			"-0.017": 0.0,
			"-0.016": 0.0,
			"-0.015": 0.0,
			"-0.014": 0.0,
			"-0.013": 0.0,
			"-0.012": 0.0,
			"-0.011": 0.0,
			"-0.01": 0.0,
			"-0.009": 1.46348435345,
			"-0.008": 10.0272769008,
			"-0.007": 16.6257745953,
			"-0.006": 19.3006026106,
			"-0.005": 20.6524138542,
			"-0.004": 17.9896715558,
			"-0.003": 12.3087795274,
			"-0.002": 10.7922984406,
			"-0.001": 10.0379949398,
			"0.0": 11.778554341,
			"0.001": 11.9572058472,
			"0.002": 14.8195471756,
			"0.003": 16.4080761151,
			"0.004": 11.0147622619,
			"0.005": 9.63462824894,
			"0.006": 12.4556853945,
			"0.007": 5.09962863675,
			"0.008": 4.77626843182,
			"0.009": 4.30051289244,
			"0.01": 5.15797841453,
			"0.011": 4.32572902526,
			"0.012": 2.7627992454,
			"0.013": 2.60810490557,
			"0.014": 1.31479351048,
			"0.015": 0.609087573694,
			"0.016": 0.0264553079659,
			"0.017": 0.0,
			"0.018": 0.0,
			"0.019": 0.0,
			"0.02": 0.0,
			"0.021": 0.0,
			"0.022": 0.0,
			"0.023": 0.0,
			"0.024": 0.0,
			"0.025": 0.0
		}
	}
}
