{
	 "smiles": "[O-][N+](=O)C1=C(F)C=CC(C=O)=C1", 
	 "Tm": 319.15, 
	 "num_atms": 16, 
	 "gaussian": { 
		 "optdone": 1, 
		 "sigma_profile": "yes", 
		 "theory": "DFT", 
		 "functional": "B3LYP", 
		 "basiset": "6-31G**", 
		 "properties": { 
			 "R2extent": 2852.6936, 
			 "electric_dipole_moment_norm": 5.41528654274, 
			 "electric_quadrupole_moment_norm": 13.4484556299, 
			 "total_energy": -649.288759293, 
			 "HOMO_LUMO_gap": 0.17584, 
			 "cosmo_polarized_energy": -12.81, 
			 "cosmo_cavitation_energy": 22.67, 
			 "cosmo_dispersion_energy": -16.31, 
			 "cosmo_repulsion_energy": 1.27, 
			 "cosmo_total_nonelectrostatic_energy": 7.62, 
			 "SMD_solvation_energy": 7.76 
		},
		"coords": [
			{
				"x": -3.1022988897,
				"y": -2.33690821,
				"z": 1.1238435242,
				"element": "O" 
			},
			{
				"x": -1.9378025193,
				"y": -2.1412228355,
				"z": 0.7905408804,
				"element": "N" 
			},
			{
				"x": -0.9669526085,
				"y": -2.7836108997,
				"z": 1.1862496977,
				"element": "O" 
			},
			{
				"x": -1.6709075994,
				"y": -1.0616861933,
				"z": -0.1750569023,
				"element": "C" 
			},
			{
				"x": -2.6201345383,
				"y": -0.0625501792,
				"z": -0.4566380006,
				"element": "C" 
			},
			{
				"x": -3.7965006518,
				"y": -0.0175773755,
				"z": 0.1614578555,
				"element": "F" 
			},
			{
				"x": -2.3342727367,
				"y": 0.9356587124,
				"z": -1.3858861321,
				"element": "C" 
			},
			{
				"x": -1.1075569604,
				"y": 0.9345980918,
				"z": -2.0399236326,
				"element": "C" 
			},
			{
				"x": -0.1542892053,
				"y": -0.0556980746,
				"z": -1.7639922225,
				"element": "C" 
			},
			{
				"x": 1.1554388229,
				"y": -0.054898698,
				"z": -2.4613714184,
				"element": "C" 
			},
			{
				"x": 2.0263572485,
				"y": -0.8805322115,
				"z": -2.2778487508,
				"element": "O" 
			},
			{
				"x": -0.4417407379,
				"y": -1.0493007443,
				"z": -0.8235795829,
				"element": "C" 
			},
			{
				"x": -3.0859182674,
				"y": 1.6944653822,
				"z": -1.5723749419,
				"element": "H" 
			},
			{
				"x": -0.8841948819,
				"y": 1.7096310127,
				"z": -2.7686448405,
				"element": "H" 
			},
			{
				"x": 1.2930740569,
				"y": 0.7769059723,
				"z": -3.1864589941,
				"element": "H" 
			},
			{
				"x": 0.2926994683,
				"y": -1.8134737497,
				"z": -0.5977165391,
				"element": "H" 
			}
		],
		 "valence_orbital": [ 
			{
				"type": "occ",
				"energy": -0.31841,
				"method": "rhf"
			},
			{
				"type": "occ",
				"energy": -0.31215,
				"method": "rhf"
			},
			{
				"type": "occ",
				"energy": -0.29864,
				"method": "rhf"
			},
			{
				"type": "occ",
				"energy": -0.28835,
				"method": "rhf"
			},
			{
				"type": "occ",
				"energy": -0.27797,
				"method": "rhf"
			},
			{
				"type": "unocc",
				"energy": -0.10213,
				"method": "rhf"
			},
			{
				"type": "unocc",
				"energy": -0.0867,
				"method": "rhf"
			},
			{
				"type": "unocc",
				"energy": -0.02977,
				"method": "rhf"
			},
			{
				"type": "unocc",
				"energy": 0.01945,
				"method": "rhf"
			},
			{
				"type": "unocc",
				"energy": 0.05396,
				"method": "rhf"
			}
		],
		"cosmo_sigma_profile": { 
			"-0.025": 0.0,
			"-0.024": 0.0,
			"-0.023": 0.0,
			"-0.022": 0.0,
			"-0.021": 0.0,
			"-0.02": 0.0,
			"-0.019": 0.0,
			"-0.018": 0.0,
			"-0.017": 0.0,
			"-0.016": 0.0,
			"-0.015": 0.0,
			"-0.014": 0.0,
			"-0.013": 0.0,
			"-0.012": 0.0,
			"-0.011": 0.00058984100838,
			"-0.01": 1.34630898966,
			"-0.009": 6.6335344007,
			"-0.008": 7.22030269714,
			"-0.007": 9.12417757484,
			"-0.006": 7.98578680371,
			"-0.005": 9.42706877679,
			"-0.004": 11.6650263409,
			"-0.003": 16.190781602,
			"-0.002": 15.2949042178,
			"-0.001": 16.0746620327,
			"0.0": 8.523836587,
			"0.001": 5.37195540634,
			"0.002": 9.12335054482,
			"0.003": 7.00176210876,
			"0.004": 5.44096395125,
			"0.005": 4.26891155239,
			"0.006": 7.09363086634,
			"0.007": 12.3441305526,
			"0.008": 8.47027845194,
			"0.009": 5.67883793939,
			"0.01": 4.22883739675,
			"0.011": 3.46206472751,
			"0.012": 1.22481375407,
			"0.013": 0.048486374635,
			"0.014": 0.0,
			"0.015": 0.0,
			"0.016": 0.0,
			"0.017": 0.0,
			"0.018": 0.0,
			"0.019": 0.0,
			"0.02": 0.0,
			"0.021": 0.0,
			"0.022": 0.0,
			"0.023": 0.0,
			"0.024": 0.0,
			"0.025": 0.0
		}
	}
}
