{
	 "smiles": "CC(N1CCSCC1)C(O)=O", 
	 "Tm": 473.15, 
	 "num_atms": 24, 
	 "gaussian": { 
		 "optdone": 1, 
		 "sigma_profile": "yes", 
		 "theory": "DFT", 
		 "functional": "B3LYP", 
		 "basiset": "6-31G**", 
		 "properties": { 
			 "R2extent": 2465.3917, 
			 "electric_dipole_moment_norm": 3.7746212459, 
			 "electric_quadrupole_moment_norm": 13.9802029524, 
			 "total_energy": -877.971948518, 
			 "HOMO_LUMO_gap": 0.23841, 
			 "cosmo_polarized_energy": -14.41, 
			 "cosmo_cavitation_energy": 26.17, 
			 "cosmo_dispersion_energy": -19.7, 
			 "cosmo_repulsion_energy": 1.51, 
			 "cosmo_total_nonelectrostatic_energy": 7.98, 
			 "SMD_solvation_energy": 4.39 
		},
		"coords": [
			{
				"x": -0.5738194829,
				"y": -1.1942087346,
				"z": 1.5472313951,
				"element": "C" 
			},
			{
				"x": 0.047242545,
				"y": -0.2151897462,
				"z": 0.5389115787,
				"element": "C" 
			},
			{
				"x": -0.4490041155,
				"y": -0.3628593933,
				"z": -0.8472685488,
				"element": "N" 
			},
			{
				"x": 0.4133353221,
				"y": 0.3224435571,
				"z": -1.8336522106,
				"element": "C" 
			},
			{
				"x": 1.7285007195,
				"y": -0.3943756792,
				"z": -2.1624113791,
				"element": "C" 
			},
			{
				"x": 1.4492430867,
				"y": -2.0637422421,
				"z": -2.873943503,
				"element": "S" 
			},
			{
				"x": 0.3057989531,
				"y": -2.6782835081,
				"z": -1.5761984804,
				"element": "C" 
			},
			{
				"x": -0.8479394571,
				"y": -1.7012624256,
				"z": -1.3098301459,
				"element": "C" 
			},
			{
				"x": -0.2971713892,
				"y": 1.2123905901,
				"z": 1.029537764,
				"element": "C" 
			},
			{
				"x": -1.3285716231,
				"y": 1.7716263939,
				"z": 0.3747611058,
				"element": "O" 
			},
			{
				"x": 0.2743811708,
				"y": 1.7454893347,
				"z": 1.9502258922,
				"element": "O" 
			},
			{
				"x": -0.2716857292,
				"y": -2.227487901,
				"z": 1.3592310134,
				"element": "H" 
			},
			{
				"x": -0.2313076989,
				"y": -0.9163164068,
				"z": 2.5464163766,
				"element": "H" 
			},
			{
				"x": -1.6671020176,
				"y": -1.138853678,
				"z": 1.5347036307,
				"element": "H" 
			},
			{
				"x": 1.1396832571,
				"y": -0.3045216944,
				"z": 0.6085251338,
				"element": "H" 
			},
			{
				"x": 0.6324897546,
				"y": 1.327416524,
				"z": -1.4551162408,
				"element": "H" 
			},
			{
				"x": -0.1661732389,
				"y": 0.4419069708,
				"z": -2.7561494129,
				"element": "H" 
			},
			{
				"x": 2.2800420369,
				"y": 0.1689571795,
				"z": -2.9203498359,
				"element": "H" 
			},
			{
				"x": 2.3730376062,
				"y": -0.4767209252,
				"z": -1.2811096055,
				"element": "H" 
			},
			{
				"x": -0.0868921651,
				"y": -3.629429974,
				"z": -1.9475199748,
				"element": "H" 
			},
			{
				"x": 0.8712860607,
				"y": -2.8862618094,
				"z": -0.6612974038,
				"element": "H" 
			},
			{
				"x": -1.4118818903,
				"y": -1.5634058192,
				"z": -2.2395907046,
				"element": "H" 
			},
			{
				"x": -1.5359196222,
				"y": -2.1369836264,
				"z": -0.5807539919,
				"element": "H" 
			},
			{
				"x": -1.5514720827,
				"y": 1.1162730135,
				"z": -0.3287524523,
				"element": "H" 
			}
		],
		 "valence_orbital": [ 
			{
				"type": "occ",
				"energy": -0.32181,
				"method": "rhf"
			},
			{
				"type": "occ",
				"energy": -0.30491,
				"method": "rhf"
			},
			{
				"type": "occ",
				"energy": -0.27251,
				"method": "rhf"
			},
			{
				"type": "occ",
				"energy": -0.25163,
				"method": "rhf"
			},
			{
				"type": "occ",
				"energy": -0.22593,
				"method": "rhf"
			},
			{
				"type": "unocc",
				"energy": 0.01248,
				"method": "rhf"
			},
			{
				"type": "unocc",
				"energy": 0.0241,
				"method": "rhf"
			},
			{
				"type": "unocc",
				"energy": 0.05894,
				"method": "rhf"
			},
			{
				"type": "unocc",
				"energy": 0.06851,
				"method": "rhf"
			},
			{
				"type": "unocc",
				"energy": 0.08446,
				"method": "rhf"
			}
		],
		"cosmo_sigma_profile": { 
			"-0.025": 0.0,
			"-0.024": 0.0,
			"-0.023": 0.0,
			"-0.022": 0.0,
			"-0.021": 0.0,
			"-0.02": 0.0,
			"-0.019": 0.0,
			"-0.018": 0.0,
			"-0.017": 0.0,
			"-0.016": 0.0,
			"-0.015": 0.0,
			"-0.014": 0.0,
			"-0.013": 0.0,
			"-0.012": 0.0,
			"-0.011": 0.280294530308,
			"-0.01": 0.429886845213,
			"-0.009": 0.534085996084,
			"-0.008": 1.04113223063,
			"-0.007": 3.64961586751,
			"-0.006": 15.8888244284,
			"-0.005": 24.7230140464,
			"-0.004": 26.7571790501,
			"-0.003": 22.7461607178,
			"-0.002": 19.2367123974,
			"-0.001": 13.3663346174,
			"0.0": 8.96546657824,
			"0.001": 6.06914647608,
			"0.002": 4.58795122873,
			"0.003": 4.39050545732,
			"0.004": 4.2901711547,
			"0.005": 5.16716105502,
			"0.006": 6.3387968335,
			"0.007": 4.64405005482,
			"0.008": 4.33886628344,
			"0.009": 5.23525196664,
			"0.01": 6.99321644693,
			"0.011": 6.12296766458,
			"0.012": 5.59791290864,
			"0.013": 3.93365878189,
			"0.014": 0.602544818217,
			"0.015": 0.0,
			"0.016": 0.0,
			"0.017": 0.0,
			"0.018": 0.0,
			"0.019": 0.0,
			"0.02": 0.0,
			"0.021": 0.0,
			"0.022": 0.0,
			"0.023": 0.0,
			"0.024": 0.0,
			"0.025": 0.0
		}
	}
}
