{
	 "smiles": "CC1=NOC(N)=C1C(O)=O", 
	 "Tm": 425.15, 
	 "num_atms": 16, 
	 "gaussian": { 
		 "optdone": 1, 
		 "sigma_profile": "yes", 
		 "theory": "DFT", 
		 "functional": "B3LYP", 
		 "basiset": "6-31G**", 
		 "properties": { 
			 "R2extent": 1797.1187, 
			 "electric_dipole_moment_norm": 4.10434835388, 
			 "electric_quadrupole_moment_norm": 23.7813824495, 
			 "total_energy": -529.289753834, 
			 "HOMO_LUMO_gap": 0.22103, 
			 "cosmo_polarized_energy": -19.66, 
			 "cosmo_cavitation_energy": 20.81, 
			 "cosmo_dispersion_energy": -15.54, 
			 "cosmo_repulsion_energy": 1.27, 
			 "cosmo_total_nonelectrostatic_energy": 6.54, 
			 "SMD_solvation_energy": 4.94 
		},
		"coords": [
			{
				"x": 1.5545427754,
				"y": 0.6199833326,
				"z": -0.8326869188,
				"element": "C" 
			},
			{
				"x": 1.0289141131,
				"y": 0.4052119073,
				"z": 0.5497008917,
				"element": "C" 
			},
			{
				"x": 1.7887777437,
				"y": -0.1450877095,
				"z": 1.4649636406,
				"element": "N" 
			},
			{
				"x": 0.9831952879,
				"y": -0.1849942905,
				"z": 2.6501847438,
				"element": "O" 
			},
			{
				"x": -0.2152658917,
				"y": 0.3246771147,
				"z": 2.3686615171,
				"element": "C" 
			},
			{
				"x": -1.1591682524,
				"y": 0.3527677346,
				"z": 3.3746803691,
				"element": "N" 
			},
			{
				"x": -0.2815410248,
				"y": 0.713885826,
				"z": 1.0489254288,
				"element": "C" 
			},
			{
				"x": -1.417974696,
				"y": 1.2743033028,
				"z": 0.3092798404,
				"element": "C" 
			},
			{
				"x": -2.6361899866,
				"y": 1.1586484711,
				"z": 0.923186288,
				"element": "O" 
			},
			{
				"x": -1.3284503028,
				"y": 1.8194542943,
				"z": -0.7672057171,
				"element": "O" 
			},
			{
				"x": 1.5039237355,
				"y": 1.6796174012,
				"z": -1.0958921594,
				"element": "H" 
			},
			{
				"x": 0.9408437824,
				"y": 0.0842709366,
				"z": -1.5626400759,
				"element": "H" 
			},
			{
				"x": 2.586461088,
				"y": 0.2702258347,
				"z": -0.8978318617,
				"element": "H" 
			},
			{
				"x": -0.8145203629,
				"y": 0.0060123382,
				"z": 4.2622196494,
				"element": "H" 
			},
			{
				"x": -1.6394384051,
				"y": 1.2404148311,
				"z": 3.4706236354,
				"element": "H" 
			},
			{
				"x": -2.5945096038,
				"y": 0.4990086747,
				"z": 1.6345307286,
				"element": "H" 
			}
		],
		 "valence_orbital": [ 
			{
				"type": "occ",
				"energy": -0.31993,
				"method": "rhf"
			},
			{
				"type": "occ",
				"energy": -0.31532,
				"method": "rhf"
			},
			{
				"type": "occ",
				"energy": -0.29926,
				"method": "rhf"
			},
			{
				"type": "occ",
				"energy": -0.27613,
				"method": "rhf"
			},
			{
				"type": "occ",
				"energy": -0.25172,
				"method": "rhf"
			},
			{
				"type": "unocc",
				"energy": -0.03069,
				"method": "rhf"
			},
			{
				"type": "unocc",
				"energy": -0.00136,
				"method": "rhf"
			},
			{
				"type": "unocc",
				"energy": 0.03598,
				"method": "rhf"
			},
			{
				"type": "unocc",
				"energy": 0.08019,
				"method": "rhf"
			},
			{
				"type": "unocc",
				"energy": 0.08535,
				"method": "rhf"
			}
		],
		"cosmo_sigma_profile": { 
			"-0.025": 0.0,
			"-0.024": 0.0,
			"-0.023": 0.0,
			"-0.022": 0.0,
			"-0.021": 0.0,
			"-0.02": 0.0,
			"-0.019": 0.0,
			"-0.018": 0.0,
			"-0.017": 0.0,
			"-0.016": 0.931450909961,
			"-0.015": 3.05716266326,
			"-0.014": 3.69097413285,
			"-0.013": 4.14445659592,
			"-0.012": 3.64925684765,
			"-0.011": 4.30952287659,
			"-0.01": 2.8677683707,
			"-0.009": 1.92538253162,
			"-0.008": 2.51309655473,
			"-0.007": 3.26636543373,
			"-0.006": 4.15866165617,
			"-0.005": 7.54368887609,
			"-0.004": 8.33312912095,
			"-0.003": 9.6543914549,
			"-0.002": 12.2575711063,
			"-0.001": 12.7450325511,
			"0.0": 9.88406953072,
			"0.001": 6.28060557203,
			"0.002": 4.88399749446,
			"0.003": 3.98955875942,
			"0.004": 4.58083565972,
			"0.005": 5.21641650259,
			"0.006": 5.11055074132,
			"0.007": 7.76923876774,
			"0.008": 5.06434608286,
			"0.009": 4.50281792518,
			"0.01": 5.56811809782,
			"0.011": 6.40763901537,
			"0.012": 6.45405901543,
			"0.013": 3.51282199364,
			"0.014": 1.18574800958,
			"0.015": 0.0350251966161,
			"0.016": 0.0,
			"0.017": 0.0,
			"0.018": 0.0,
			"0.019": 0.0,
			"0.02": 0.0,
			"0.021": 0.0,
			"0.022": 0.0,
			"0.023": 0.0,
			"0.024": 0.0,
			"0.025": 0.0
		}
	}
}
