{
	 "smiles": "CC(C)C1=CC(=CC=C1)S(N)(=O)=O", 
	 "Tm": 348.15, 
	 "num_atms": 26, 
	 "gaussian": { 
		 "optdone": 1, 
		 "sigma_profile": "yes", 
		 "theory": "DFT", 
		 "functional": "B3LYP", 
		 "basiset": "6-31G**", 
		 "properties": { 
			 "R2extent": 3321.904, 
			 "electric_dipole_moment_norm": 6.21955481847, 
			 "electric_quadrupole_moment_norm": 19.2717570164, 
			 "total_energy": -954.123477456, 
			 "HOMO_LUMO_gap": 0.22377, 
			 "cosmo_polarized_energy": -17.92, 
			 "cosmo_cavitation_energy": 30.51, 
			 "cosmo_dispersion_energy": -21.91, 
			 "cosmo_repulsion_energy": 1.72, 
			 "cosmo_total_nonelectrostatic_energy": 10.32, 
			 "SMD_solvation_energy": 4.96 
		},
		"coords": [
			{
				"x": -0.0954185695,
				"y": -0.2156533202,
				"z": 3.1348716821,
				"element": "C" 
			},
			{
				"x": -1.1842488198,
				"y": -0.3851603322,
				"z": 2.0581758784,
				"element": "C" 
			},
			{
				"x": -1.4164466358,
				"y": -1.8726728862,
				"z": 1.7329699189,
				"element": "C" 
			},
			{
				"x": -0.8687611099,
				"y": 0.426836859,
				"z": 0.808791195,
				"element": "C" 
			},
			{
				"x": 0.263574671,
				"y": 0.1468212017,
				"z": 0.030306482,
				"element": "C" 
			},
			{
				"x": 0.5404759832,
				"y": 0.9111567174,
				"z": -1.1027581615,
				"element": "C" 
			},
			{
				"x": -0.278528543,
				"y": 1.975669459,
				"z": -1.4876341326,
				"element": "C" 
			},
			{
				"x": -1.4056416222,
				"y": 2.2554091694,
				"z": -0.7177750739,
				"element": "C" 
			},
			{
				"x": -1.6958022442,
				"y": 1.4860110215,
				"z": 0.4116597936,
				"element": "C" 
			},
			{
				"x": 1.9812413727,
				"y": 0.5039952293,
				"z": -2.1027787565,
				"element": "S" 
			},
			{
				"x": 1.4589712756,
				"y": -0.574156928,
				"z": -3.2863856941,
				"element": "N" 
			},
			{
				"x": 2.3741085964,
				"y": 1.7142788753,
				"z": -2.8224585961,
				"element": "O" 
			},
			{
				"x": 2.9024033829,
				"y": -0.2568776819,
				"z": -1.2598393837,
				"element": "O" 
			},
			{
				"x": 0.0446631976,
				"y": 0.8377128724,
				"z": 3.3957744993,
				"element": "H" 
			},
			{
				"x": 0.8687013816,
				"y": -0.6049609836,
				"z": 2.790393882,
				"element": "H" 
			},
			{
				"x": -0.3681307958,
				"y": -0.7599260765,
				"z": 4.0452777897,
				"element": "H" 
			},
			{
				"x": -2.1211625919,
				"y": 0.012953453,
				"z": 2.4690634387,
				"element": "H" 
			},
			{
				"x": -2.2115011284,
				"y": -1.9992574675,
				"z": 0.9913799663,
				"element": "H" 
			},
			{
				"x": -0.5086141835,
				"y": -2.340030816,
				"z": 1.3359190511,
				"element": "H" 
			},
			{
				"x": -1.7024106166,
				"y": -2.4225485163,
				"z": 2.6357600762,
				"element": "H" 
			},
			{
				"x": 0.9497318946,
				"y": -0.6466312317,
				"z": 0.3088058119,
				"element": "H" 
			},
			{
				"x": -0.0186021414,
				"y": 2.5773024854,
				"z": -2.3518520839,
				"element": "H" 
			},
			{
				"x": -2.0558119806,
				"y": 3.0809915431,
				"z": -0.9919078675,
				"element": "H" 
			},
			{
				"x": -2.5773569968,
				"y": 1.7189233116,
				"z": 1.0037085078,
				"element": "H" 
			},
			{
				"x": 0.7923127429,
				"y": -0.1570274767,
				"z": -3.928432037,
				"element": "H" 
			},
			{
				"x": 1.136353481,
				"y": -1.4549584811,
				"z": -2.8981361859,
				"element": "H" 
			}
		],
		 "valence_orbital": [ 
			{
				"type": "occ",
				"energy": -0.31463,
				"method": "rhf"
			},
			{
				"type": "occ",
				"energy": -0.3015,
				"method": "rhf"
			},
			{
				"type": "occ",
				"energy": -0.29852,
				"method": "rhf"
			},
			{
				"type": "occ",
				"energy": -0.26808,
				"method": "rhf"
			},
			{
				"type": "occ",
				"energy": -0.26135,
				"method": "rhf"
			},
			{
				"type": "unocc",
				"energy": -0.03758,
				"method": "rhf"
			},
			{
				"type": "unocc",
				"energy": -0.02236,
				"method": "rhf"
			},
			{
				"type": "unocc",
				"energy": 0.05216,
				"method": "rhf"
			},
			{
				"type": "unocc",
				"energy": 0.07588,
				"method": "rhf"
			},
			{
				"type": "unocc",
				"energy": 0.08734,
				"method": "rhf"
			}
		],
		"cosmo_sigma_profile": { 
			"-0.025": 0.0,
			"-0.024": 0.0,
			"-0.023": 0.0,
			"-0.022": 0.0,
			"-0.021": 0.0,
			"-0.02": 0.0,
			"-0.019": 0.0,
			"-0.018": 0.0,
			"-0.017": 0.0,
			"-0.016": 0.0394736181733,
			"-0.015": 1.94737736015,
			"-0.014": 2.59625538383,
			"-0.013": 2.34590172665,
			"-0.012": 2.9300795937,
			"-0.011": 3.26650584182,
			"-0.01": 1.86346158717,
			"-0.009": 1.87290729561,
			"-0.008": 1.93488526598,
			"-0.007": 3.91872794648,
			"-0.006": 9.6325698864,
			"-0.005": 12.183602567,
			"-0.004": 12.7886791721,
			"-0.003": 17.432314513,
			"-0.002": 20.6441203388,
			"-0.001": 23.3024272924,
			"0.0": 19.8124057305,
			"0.001": 23.392374204,
			"0.002": 13.9586292945,
			"0.003": 12.3240445893,
			"0.004": 8.1002772524,
			"0.005": 2.99266215875,
			"0.006": 3.68572139064,
			"0.007": 3.47588622745,
			"0.008": 5.03617168814,
			"0.009": 4.54643318331,
			"0.01": 7.24569626863,
			"0.011": 10.2070646564,
			"0.012": 6.45108154957,
			"0.013": 0.400889248787,
			"0.014": 5.12202413025e-05,
			"0.015": 0.0,
			"0.016": 0.0,
			"0.017": 0.0,
			"0.018": 0.0,
			"0.019": 0.0,
			"0.02": 0.0,
			"0.021": 0.0,
			"0.022": 0.0,
			"0.023": 0.0,
			"0.024": 0.0,
			"0.025": 0.0
		}
	}
}
