{
	 "smiles": "OC(=O)C1=CC=C(NS(=O)(=O)C=CC2=CC=CC=C2)C=C1", 
	 "Tm": 528.15, 
	 "num_atms": 34, 
	 "gaussian": { 
		 "optdone": 1, 
		 "sigma_profile": "yes", 
		 "theory": "DFT", 
		 "functional": "B3LYP", 
		 "basiset": "6-31G**", 
		 "properties": { 
			 "R2extent": 8846.0184, 
			 "electric_dipole_moment_norm": 4.19903207656, 
			 "electric_quadrupole_moment_norm": 46.441185334, 
			 "total_energy": -1333.19068991, 
			 "HOMO_LUMO_gap": 0.16427, 
			 "cosmo_polarized_energy": -26.79, 
			 "cosmo_cavitation_energy": 41.17, 
			 "cosmo_dispersion_energy": -29.36, 
			 "cosmo_repulsion_energy": 2.21, 
			 "cosmo_total_nonelectrostatic_energy": 14.02, 
			 "SMD_solvation_energy": 7.46 
		},
		"coords": [
			{
				"x": -4.65046672,
				"y": 0.4008128162,
				"z": -1.7674898801,
				"element": "O" 
			},
			{
				"x": -3.789321329,
				"y": 1.4481645094,
				"z": -1.6435989358,
				"element": "C" 
			},
			{
				"x": -4.2213800318,
				"y": 2.561084752,
				"z": -1.4496328652,
				"element": "O" 
			},
			{
				"x": -2.3304967878,
				"y": 1.141906984,
				"z": -1.7583848651,
				"element": "C" 
			},
			{
				"x": -1.4576821189,
				"y": 2.2084491765,
				"z": -2.0172840289,
				"element": "C" 
			},
			{
				"x": -0.0909655717,
				"y": 1.9967523663,
				"z": -2.1185062134,
				"element": "C" 
			},
			{
				"x": 0.4432119819,
				"y": 0.7053124247,
				"z": -1.9613723731,
				"element": "C" 
			},
			{
				"x": 1.8317360641,
				"y": 0.5310739921,
				"z": -2.1093026423,
				"element": "N" 
			},
			{
				"x": 2.8129835355,
				"y": -0.588287593,
				"z": -1.2891361038,
				"element": "S" 
			},
			{
				"x": 4.1588309642,
				"y": -0.2289903769,
				"z": -1.7331948841,
				"element": "O" 
			},
			{
				"x": 2.2510519809,
				"y": -1.9226356694,
				"z": -1.5000603612,
				"element": "O" 
			},
			{
				"x": 2.6559116833,
				"y": -0.1712055587,
				"z": 0.4227285161,
				"element": "C" 
			},
			{
				"x": 2.0938738319,
				"y": -1.0271741982,
				"z": 1.2901152366,
				"element": "C" 
			},
			{
				"x": 1.9173056584,
				"y": -0.8421999201,
				"z": 2.7318857598,
				"element": "C" 
			},
			{
				"x": 1.3196820899,
				"y": -1.8806545178,
				"z": 3.468218158,
				"element": "C" 
			},
			{
				"x": 1.12428428,
				"y": -1.7629272973,
				"z": 4.8428444649,
				"element": "C" 
			},
			{
				"x": 1.5235744717,
				"y": -0.6018319099,
				"z": 5.505625454,
				"element": "C" 
			},
			{
				"x": 2.1194092522,
				"y": 0.4400588081,
				"z": 4.7865641756,
				"element": "C" 
			},
			{
				"x": 2.3148736655,
				"y": 0.3229379604,
				"z": 3.4149450121,
				"element": "C" 
			},
			{
				"x": -0.4198926604,
				"y": -0.3690494625,
				"z": -1.6945169603,
				"element": "C" 
			},
			{
				"x": -1.7881043416,
				"y": -0.1394242208,
				"z": -1.5875654366,
				"element": "C" 
			},
			{
				"x": -4.1818545361,
				"y": -0.380935089,
				"z": -2.0904030097,
				"element": "H" 
			},
			{
				"x": -1.8755083087,
				"y": 3.2032646767,
				"z": -2.1272623096,
				"element": "H" 
			},
			{
				"x": 0.5742758185,
				"y": 2.8331926326,
				"z": -2.3173006599,
				"element": "H" 
			},
			{
				"x": 2.3692844081,
				"y": 1.3502470846,
				"z": -2.3688345532,
				"element": "H" 
			},
			{
				"x": 3.0811013991,
				"y": 0.7953219445,
				"z": 0.6708681228,
				"element": "H" 
			},
			{
				"x": 1.7352408905,
				"y": -1.9712954281,
				"z": 0.8846665156,
				"element": "H" 
			},
			{
				"x": 1.0093858398,
				"y": -2.7856171352,
				"z": 2.9526710004,
				"element": "H" 
			},
			{
				"x": 0.6614945881,
				"y": -2.5754334152,
				"z": 5.3947180493,
				"element": "H" 
			},
			{
				"x": 1.3725336246,
				"y": -0.5059249768,
				"z": 6.5767006438,
				"element": "H" 
			},
			{
				"x": 2.4309063143,
				"y": 1.3450515734,
				"z": 5.299469569,
				"element": "H" 
			},
			{
				"x": 2.7780664576,
				"y": 1.1408905019,
				"z": 2.8717863844,
				"element": "H" 
			},
			{
				"x": -0.0186533119,
				"y": -1.3688356872,
				"z": -1.5871826553,
				"element": "H" 
			},
			{
				"x": -2.4266930821,
				"y": -0.9849997476,
				"z": -1.3423783246,
				"element": "H" 
			}
		],
		 "valence_orbital": [ 
			{
				"type": "occ",
				"energy": -0.2774,
				"method": "rhf"
			},
			{
				"type": "occ",
				"energy": -0.27449,
				"method": "rhf"
			},
			{
				"type": "occ",
				"energy": -0.27226,
				"method": "rhf"
			},
			{
				"type": "occ",
				"energy": -0.25803,
				"method": "rhf"
			},
			{
				"type": "occ",
				"energy": -0.2413,
				"method": "rhf"
			},
			{
				"type": "unocc",
				"energy": -0.07703,
				"method": "rhf"
			},
			{
				"type": "unocc",
				"energy": -0.04937,
				"method": "rhf"
			},
			{
				"type": "unocc",
				"energy": -0.02692,
				"method": "rhf"
			},
			{
				"type": "unocc",
				"energy": -0.02317,
				"method": "rhf"
			},
			{
				"type": "unocc",
				"energy": 0.01889,
				"method": "rhf"
			}
		],
		"cosmo_sigma_profile": { 
			"-0.025": 0.0,
			"-0.024": 0.0,
			"-0.023": 0.0,
			"-0.022": 0.0,
			"-0.021": 0.0,
			"-0.02": 0.0,
			"-0.019": 0.27629256433,
			"-0.018": 0.675220441253,
			"-0.017": 0.830608263435,
			"-0.016": 2.08523183988,
			"-0.015": 2.3320657116,
			"-0.014": 2.61807897323,
			"-0.013": 1.72829024719,
			"-0.012": 2.51129740404,
			"-0.011": 2.97804686034,
			"-0.01": 5.4403915742,
			"-0.009": 4.7569827849,
			"-0.008": 6.74682261066,
			"-0.007": 11.306901491,
			"-0.006": 17.549870164,
			"-0.005": 18.7461369544,
			"-0.004": 19.0200712945,
			"-0.003": 14.9822376883,
			"-0.002": 18.90143688,
			"-0.001": 17.3424744755,
			"0.0": 17.9007998579,
			"0.001": 23.8773285877,
			"0.002": 27.8281857574,
			"0.003": 26.1429822062,
			"0.004": 18.7469362748,
			"0.005": 7.28787991903,
			"0.006": 5.8811778359,
			"0.007": 5.73393852649,
			"0.008": 5.97600951954,
			"0.009": 6.65240982462,
			"0.01": 12.6471654556,
			"0.011": 13.0776285324,
			"0.012": 5.76053489013,
			"0.013": 2.13600212944,
			"0.014": 0.188805986164,
			"0.015": 0.0,
			"0.016": 0.0,
			"0.017": 0.0,
			"0.018": 0.0,
			"0.019": 0.0,
			"0.02": 0.0,
			"0.021": 0.0,
			"0.022": 0.0,
			"0.023": 0.0,
			"0.024": 0.0,
			"0.025": 0.0
		}
	}
}
