{
	 "smiles": "OC(=O)C1=CC=C(S1)C(O)=O", 
	 "Tm": 631.15, 
	 "num_atms": 15, 
	 "gaussian": { 
		 "optdone": 1, 
		 "sigma_profile": "yes", 
		 "theory": "DFT", 
		 "functional": "B3LYP", 
		 "basiset": "6-31G**", 
		 "properties": { 
			 "R2extent": 3554.2408, 
			 "electric_dipole_moment_norm": 2.44993732573, 
			 "electric_quadrupole_moment_norm": 25.5524923626, 
			 "total_energy": -930.124247601, 
			 "HOMO_LUMO_gap": 0.17801, 
			 "cosmo_polarized_energy": -21.37, 
			 "cosmo_cavitation_energy": 22.38, 
			 "cosmo_dispersion_energy": -17.13, 
			 "cosmo_repulsion_energy": 1.33, 
			 "cosmo_total_nonelectrostatic_energy": 6.57, 
			 "SMD_solvation_energy": 6.26 
		},
		"coords": [
			{
				"x": 4.4235997497,
				"y": -0.6011263603,
				"z": 0.7254402159,
				"element": "O" 
			},
			{
				"x": 3.463943722,
				"y": 0.255819335,
				"z": 1.1540951298,
				"element": "C" 
			},
			{
				"x": 3.4995360839,
				"y": 0.6998857265,
				"z": 2.2764072103,
				"element": "O" 
			},
			{
				"x": 2.378595705,
				"y": 0.6265817883,
				"z": 0.2071781041,
				"element": "C" 
			},
			{
				"x": 1.3470588221,
				"y": 1.4845122069,
				"z": 0.5167488333,
				"element": "C" 
			},
			{
				"x": 0.4400274113,
				"y": 1.6789031957,
				"z": -0.5508377857,
				"element": "C" 
			},
			{
				"x": 0.7715418725,
				"y": 0.971071248,
				"z": -1.6844284577,
				"element": "C" 
			},
			{
				"x": 2.2306687164,
				"y": 0.0455916739,
				"z": -1.4327677894,
				"element": "S" 
			},
			{
				"x": -0.0180345746,
				"y": 1.0021781246,
				"z": -2.9444720114,
				"element": "C" 
			},
			{
				"x": 0.4159512925,
				"y": 0.2574508403,
				"z": -3.9914135238,
				"element": "O" 
			},
			{
				"x": -1.0205360162,
				"y": 1.6679706576,
				"z": -3.0432567887,
				"element": "O" 
			},
			{
				"x": 4.2859398829,
				"y": -0.8861346203,
				"z": -0.1889355419,
				"element": "H" 
			},
			{
				"x": 1.2728727886,
				"y": 1.9453403344,
				"z": 1.4939577904,
				"element": "H" 
			},
			{
				"x": -0.438058394,
				"y": 2.311992314,
				"z": -0.5198213912,
				"element": "H" 
			},
			{
				"x": 1.226692938,
				"y": -0.2306364648,
				"z": -3.789593994,
				"element": "H" 
			}
		],
		 "valence_orbital": [ 
			{
				"type": "occ",
				"energy": -0.33621,
				"method": "rhf"
			},
			{
				"type": "occ",
				"energy": -0.30414,
				"method": "rhf"
			},
			{
				"type": "occ",
				"energy": -0.29806,
				"method": "rhf"
			},
			{
				"type": "occ",
				"energy": -0.29174,
				"method": "rhf"
			},
			{
				"type": "occ",
				"energy": -0.2788,
				"method": "rhf"
			},
			{
				"type": "unocc",
				"energy": -0.10079,
				"method": "rhf"
			},
			{
				"type": "unocc",
				"energy": -0.04234,
				"method": "rhf"
			},
			{
				"type": "unocc",
				"energy": -0.02198,
				"method": "rhf"
			},
			{
				"type": "unocc",
				"energy": 0.01634,
				"method": "rhf"
			},
			{
				"type": "unocc",
				"energy": 0.05381,
				"method": "rhf"
			}
		],
		"cosmo_sigma_profile": { 
			"-0.025": 0.0,
			"-0.024": 0.0,
			"-0.023": 0.0,
			"-0.022": 0.0,
			"-0.021": 0.0,
			"-0.02": 0.00518765477715,
			"-0.019": 0.75065128912,
			"-0.018": 2.20024590103,
			"-0.017": 1.97614407757,
			"-0.016": 1.3530338845,
			"-0.015": 2.02383826493,
			"-0.014": 2.22238849651,
			"-0.013": 2.79072471792,
			"-0.012": 2.44164036342,
			"-0.011": 1.79267402078,
			"-0.01": 1.26343892866,
			"-0.009": 2.9586587917,
			"-0.008": 5.56236685641,
			"-0.007": 6.02003336603,
			"-0.006": 5.42933557959,
			"-0.005": 7.49781995345,
			"-0.004": 8.17203791575,
			"-0.003": 8.2065417383,
			"-0.002": 8.79674316172,
			"-0.001": 16.092413146,
			"0.0": 16.4427316628,
			"0.001": 10.5768792046,
			"0.002": 4.82368316879,
			"0.003": 3.97596721988,
			"0.004": 4.19860151012,
			"0.005": 4.56400540073,
			"0.006": 5.27352175961,
			"0.007": 4.20040511823,
			"0.008": 6.43287270214,
			"0.009": 9.30551478159,
			"0.01": 9.18074429877,
			"0.011": 11.0868519799,
			"0.012": 4.1593606673,
			"0.013": 0.388345017355,
			"0.014": 0.0,
			"0.015": 0.0,
			"0.016": 0.0,
			"0.017": 0.0,
			"0.018": 0.0,
			"0.019": 0.0,
			"0.02": 0.0,
			"0.021": 0.0,
			"0.022": 0.0,
			"0.023": 0.0,
			"0.024": 0.0,
			"0.025": 0.0
		}
	}
}
