{
	 "smiles": "CC1=NC2=C(C(N)=C(S2)C(O)=O)C(C)=C1", 
	 "Tm": 419.15, 
	 "num_atms": 25, 
	 "gaussian": { 
		 "optdone": 1, 
		 "sigma_profile": "yes", 
		 "theory": "DFT", 
		 "functional": "B3LYP", 
		 "basiset": "6-31G**", 
		 "properties": { 
			 "R2extent": 4417.7936, 
			 "electric_dipole_moment_norm": 5.60504157076, 
			 "electric_quadrupole_moment_norm": 14.4907193576, 
			 "total_energy": -1045.2614581, 
			 "HOMO_LUMO_gap": 0.14624, 
			 "cosmo_polarized_energy": -16.74, 
			 "cosmo_cavitation_energy": 29.83, 
			 "cosmo_dispersion_energy": -23.03, 
			 "cosmo_repulsion_energy": 1.73, 
			 "cosmo_total_nonelectrostatic_energy": 8.53, 
			 "SMD_solvation_energy": 3.98 
		},
		"coords": [
			{
				"x": -2.192493083,
				"y": 1.0990150318,
				"z": 3.2854584783,
				"element": "C" 
			},
			{
				"x": -1.2835211869,
				"y": 0.8125762331,
				"z": 2.1183017041,
				"element": "C" 
			},
			{
				"x": 0.0271167663,
				"y": 0.9977406024,
				"z": 2.315635157,
				"element": "N" 
			},
			{
				"x": 0.8193456213,
				"y": 0.7756796613,
				"z": 1.2719656513,
				"element": "C" 
			},
			{
				"x": 0.4162520779,
				"y": 0.3616126715,
				"z": -0.0214901996,
				"element": "C" 
			},
			{
				"x": 1.5489410107,
				"y": 0.2048013191,
				"z": -0.917860405,
				"element": "C" 
			},
			{
				"x": 1.4634091238,
				"y": -0.2237935416,
				"z": -2.2129486222,
				"element": "N" 
			},
			{
				"x": 2.7584151245,
				"y": 0.4981018981,
				"z": -0.2942316983,
				"element": "C" 
			},
			{
				"x": 2.5615145594,
				"y": 0.9402762512,
				"z": 1.4117877448,
				"element": "S" 
			},
			{
				"x": 4.0369229095,
				"y": 0.5086161302,
				"z": -0.9900921894,
				"element": "C" 
			},
			{
				"x": 5.1406806841,
				"y": 0.92291628,
				"z": -0.3137834402,
				"element": "O" 
			},
			{
				"x": 4.1649240507,
				"y": 0.1704012407,
				"z": -2.1606471393,
				"element": "O" 
			},
			{
				"x": -0.9699987938,
				"y": 0.1499360379,
				"z": -0.2151784553,
				"element": "C" 
			},
			{
				"x": -1.5624217465,
				"y": -0.3189334661,
				"z": -1.5216325584,
				"element": "C" 
			},
			{
				"x": -1.7986560399,
				"y": 0.3862302001,
				"z": 0.878351943,
				"element": "C" 
			},
			{
				"x": -1.6916182411,
				"y": 0.8447361957,
				"z": 4.2221377768,
				"element": "H" 
			},
			{
				"x": -3.1314126906,
				"y": 0.5435006628,
				"z": 3.2130993599,
				"element": "H" 
			},
			{
				"x": -2.4382233703,
				"y": 2.1673938542,
				"z": 3.3250511857,
				"element": "H" 
			},
			{
				"x": 0.6223513016,
				"y": -0.0290355748,
				"z": -2.7296681616,
				"element": "H" 
			},
			{
				"x": 2.3477161607,
				"y": -0.1784027523,
				"z": -2.7151637737,
				"element": "H" 
			},
			{
				"x": 4.9171384329,
				"y": 1.2333434077,
				"z": 0.5754711827,
				"element": "H" 
			},
			{
				"x": -1.4792054852,
				"y": 0.4514635055,
				"z": -2.2991067268,
				"element": "H" 
			},
			{
				"x": -1.0633842349,
				"y": -1.221614266,
				"z": -1.8875780421,
				"element": "H" 
			},
			{
				"x": -2.6253029978,
				"y": -0.5423951808,
				"z": -1.4043023058,
				"element": "H" 
			},
			{
				"x": -2.8689899535,
				"y": 0.2325335983,
				"z": 0.7774235342,
				"element": "H" 
			}
		],
		 "valence_orbital": [ 
			{
				"type": "occ",
				"energy": -0.28882,
				"method": "rhf"
			},
			{
				"type": "occ",
				"energy": -0.27688,
				"method": "rhf"
			},
			{
				"type": "occ",
				"energy": -0.26804,
				"method": "rhf"
			},
			{
				"type": "occ",
				"energy": -0.25132,
				"method": "rhf"
			},
			{
				"type": "occ",
				"energy": -0.20741,
				"method": "rhf"
			},
			{
				"type": "unocc",
				"energy": -0.06117,
				"method": "rhf"
			},
			{
				"type": "unocc",
				"energy": -0.02623,
				"method": "rhf"
			},
			{
				"type": "unocc",
				"energy": -0.00131,
				"method": "rhf"
			},
			{
				"type": "unocc",
				"energy": 0.01215,
				"method": "rhf"
			},
			{
				"type": "unocc",
				"energy": 0.06709,
				"method": "rhf"
			}
		],
		"cosmo_sigma_profile": { 
			"-0.025": 0.0,
			"-0.024": 0.0,
			"-0.023": 0.0,
			"-0.022": 0.0,
			"-0.021": 0.0,
			"-0.02": 0.0,
			"-0.019": 0.0,
			"-0.018": 0.0271310626927,
			"-0.017": 0.690582257888,
			"-0.016": 0.971912245196,
			"-0.015": 0.615294522139,
			"-0.014": 0.652018338064,
			"-0.013": 1.4685773528,
			"-0.012": 2.47964709582,
			"-0.011": 2.7942478416,
			"-0.01": 2.7532761468,
			"-0.009": 3.97346741351,
			"-0.008": 3.00239158328,
			"-0.007": 3.60089188392,
			"-0.006": 9.65320712511,
			"-0.005": 13.3716849289,
			"-0.004": 14.4134516739,
			"-0.003": 13.83522407,
			"-0.002": 18.4017198563,
			"-0.001": 20.7282776678,
			"0.0": 22.4615689698,
			"0.001": 23.0990152562,
			"0.002": 15.6935157121,
			"0.003": 12.3230612745,
			"0.004": 8.86589522415,
			"0.005": 7.64370154945,
			"0.006": 4.7999052575,
			"0.007": 4.34826760606,
			"0.008": 4.29423936878,
			"0.009": 4.12742394362,
			"0.01": 5.06162389937,
			"0.011": 5.10323428139,
			"0.012": 3.78955260135,
			"0.013": 3.37372064496,
			"0.014": 1.52967905712,
			"0.015": 0.0154225899046,
			"0.016": 0.0,
			"0.017": 0.0,
			"0.018": 0.0,
			"0.019": 0.0,
			"0.02": 0.0,
			"0.021": 0.0,
			"0.022": 0.0,
			"0.023": 0.0,
			"0.024": 0.0,
			"0.025": 0.0
		}
	}
}
