{
	 "smiles": "COC1=NC(Cl)=C(C=O)N1C", 
	 "Tm": 379.15, 
	 "num_atms": 18, 
	 "gaussian": { 
		 "optdone": 1, 
		 "sigma_profile": "yes", 
		 "theory": "DFT", 
		 "functional": "B3LYP", 
		 "basiset": "6-31G**", 
		 "properties": { 
			 "R2extent": 4192.7757, 
			 "electric_dipole_moment_norm": 6.28766594373, 
			 "electric_quadrupole_moment_norm": 26.4068981569, 
			 "total_energy": -952.972617567, 
			 "HOMO_LUMO_gap": 0.17256, 
			 "cosmo_polarized_energy": -14.11, 
			 "cosmo_cavitation_energy": 24.56, 
			 "cosmo_dispersion_energy": -18.02, 
			 "cosmo_repulsion_energy": 1.46, 
			 "cosmo_total_nonelectrostatic_energy": 8.01, 
			 "SMD_solvation_energy": 4.77 
		},
		"coords": [
			{
				"x": 0.2890221932,
				"y": -2.2236473381,
				"z": 2.6532129887,
				"element": "C" 
			},
			{
				"x": 0.2026365291,
				"y": -1.1622073813,
				"z": 1.6853521413,
				"element": "O" 
			},
			{
				"x": 1.3565939871,
				"y": -0.8107969205,
				"z": 1.1160217191,
				"element": "C" 
			},
			{
				"x": 2.5472401254,
				"y": -1.3393509064,
				"z": 1.3565419013,
				"element": "N" 
			},
			{
				"x": 3.3827427578,
				"y": -0.6501423962,
				"z": 0.5403556956,
				"element": "C" 
			},
			{
				"x": 5.0669168669,
				"y": -0.9989433103,
				"z": 0.5098808664,
				"element": "Cl" 
			},
			{
				"x": 2.7184638951,
				"y": 0.3104763918,
				"z": -0.212387025,
				"element": "C" 
			},
			{
				"x": 3.1693653343,
				"y": 1.2704094393,
				"z": -1.1994352509,
				"element": "C" 
			},
			{
				"x": 4.3253938738,
				"y": 1.4056415863,
				"z": -1.5683276119,
				"element": "O" 
			},
			{
				"x": 1.373391046,
				"y": 0.179240596,
				"z": 0.1926446474,
				"element": "N" 
			},
			{
				"x": 0.2233961486,
				"y": 0.9411017852,
				"z": -0.2733199078,
				"element": "C" 
			},
			{
				"x": 0.6748849306,
				"y": -3.1342310705,
				"z": 2.1885545873,
				"element": "H" 
			},
			{
				"x": 0.9461629779,
				"y": -1.936680714,
				"z": 3.4776980948,
				"element": "H" 
			},
			{
				"x": -0.730280163,
				"y": -2.3742165877,
				"z": 3.007581693,
				"element": "H" 
			},
			{
				"x": 2.3613227373,
				"y": 1.908533651,
				"z": -1.6225497489,
				"element": "H" 
			},
			{
				"x": 0.352015994,
				"y": 2.0056692274,
				"z": -0.0585504616,
				"element": "H" 
			},
			{
				"x": -0.659001257,
				"y": 0.5763016855,
				"z": 0.2512820289,
				"element": "H" 
			},
			{
				"x": 0.080532023,
				"y": 0.8064422626,
				"z": -1.3491563578,
				"element": "H" 
			}
		],
		 "valence_orbital": [ 
			{
				"type": "occ",
				"energy": -0.31407,
				"method": "rhf"
			},
			{
				"type": "occ",
				"energy": -0.30748,
				"method": "rhf"
			},
			{
				"type": "occ",
				"energy": -0.28524,
				"method": "rhf"
			},
			{
				"type": "occ",
				"energy": -0.24714,
				"method": "rhf"
			},
			{
				"type": "occ",
				"energy": -0.22477,
				"method": "rhf"
			},
			{
				"type": "unocc",
				"energy": -0.05221,
				"method": "rhf"
			},
			{
				"type": "unocc",
				"energy": 0.04383,
				"method": "rhf"
			},
			{
				"type": "unocc",
				"energy": 0.04673,
				"method": "rhf"
			},
			{
				"type": "unocc",
				"energy": 0.07629,
				"method": "rhf"
			},
			{
				"type": "unocc",
				"energy": 0.09327,
				"method": "rhf"
			}
		],
		"cosmo_sigma_profile": { 
			"-0.025": 0.0,
			"-0.024": 0.0,
			"-0.023": 0.0,
			"-0.022": 0.0,
			"-0.021": 0.0,
			"-0.02": 0.0,
			"-0.019": 0.0,
			"-0.018": 0.0,
			"-0.017": 0.0,
			"-0.016": 0.0,
			"-0.015": 0.0,
			"-0.014": 0.0,
			"-0.013": 0.0,
			"-0.012": 0.0,
			"-0.011": 0.0,
			"-0.01": 0.0,
			"-0.009": 0.0250373072642,
			"-0.008": 3.40210804252,
			"-0.007": 12.3699571955,
			"-0.006": 14.6002901232,
			"-0.005": 14.7058900771,
			"-0.004": 20.2937940964,
			"-0.003": 17.7046737562,
			"-0.002": 12.4718274489,
			"-0.001": 10.5479297896,
			"0.0": 12.6380745599,
			"0.001": 10.8021137885,
			"0.002": 8.33273754152,
			"0.003": 11.6549001081,
			"0.004": 10.1292012398,
			"0.005": 6.71123847646,
			"0.006": 4.95394965811,
			"0.007": 3.25736588236,
			"0.008": 3.5027305193,
			"0.009": 3.17702096063,
			"0.01": 3.16850957125,
			"0.011": 4.56005271565,
			"0.012": 6.42957031362,
			"0.013": 2.70598140412,
			"0.014": 0.422888400008,
			"0.015": 0.0,
			"0.016": 0.0,
			"0.017": 0.0,
			"0.018": 0.0,
			"0.019": 0.0,
			"0.02": 0.0,
			"0.021": 0.0,
			"0.022": 0.0,
			"0.023": 0.0,
			"0.024": 0.0,
			"0.025": 0.0
		}
	}
}
