{
	 "smiles": "C1=NN=C2C=CC3=C(C=CC=C3)N12", 
	 "Tm": 449.15, 
	 "num_atms": 20, 
	 "gaussian": { 
		 "optdone": 1, 
		 "sigma_profile": "yes", 
		 "theory": "DFT", 
		 "functional": "B3LYP", 
		 "basiset": "6-31G**", 
		 "properties": { 
			 "R2extent": 2330.0578, 
			 "electric_dipole_moment_norm": 6.0309314861, 
			 "electric_quadrupole_moment_norm": 18.8907011069, 
			 "total_energy": -549.51966621, 
			 "HOMO_LUMO_gap": 0.16727, 
			 "cosmo_polarized_energy": -15.8, 
			 "cosmo_cavitation_energy": 24.07, 
			 "cosmo_dispersion_energy": -18.23, 
			 "cosmo_repulsion_energy": 1.37, 
			 "cosmo_total_nonelectrostatic_energy": 7.21, 
			 "SMD_solvation_energy": 2.31 
		},
		"coords": [
			{
				"x": -1.5044342405,
				"y": 2.0462861246,
				"z": -1.0944291099,
				"element": "C" 
			},
			{
				"x": -2.7562799548,
				"y": 2.2439617761,
				"z": -1.4417829586,
				"element": "N" 
			},
			{
				"x": -3.4598230142,
				"y": 1.0912367707,
				"z": -1.204239963,
				"element": "N" 
			},
			{
				"x": -2.606149135,
				"y": 0.2087276183,
				"z": -0.7111538395,
				"element": "C" 
			},
			{
				"x": -2.8096948184,
				"y": -1.1425651616,
				"z": -0.293743725,
				"element": "C" 
			},
			{
				"x": -1.7542540183,
				"y": -1.8513975364,
				"z": 0.1849024458,
				"element": "C" 
			},
			{
				"x": -0.435024156,
				"y": -1.2694767833,
				"z": 0.2803358863,
				"element": "C" 
			},
			{
				"x": -0.2224134629,
				"y": 0.0720485018,
				"z": -0.1316890616,
				"element": "C" 
			},
			{
				"x": 1.0470033733,
				"y": 0.6588615461,
				"z": -0.0490076751,
				"element": "C" 
			},
			{
				"x": 2.1137116911,
				"y": -0.0821245766,
				"z": 0.44317675,
				"element": "C" 
			},
			{
				"x": 1.9277509605,
				"y": -1.4100114227,
				"z": 0.8564494842,
				"element": "C" 
			},
			{
				"x": 0.6714338733,
				"y": -1.9900024625,
				"z": 0.7743852519,
				"element": "C" 
			},
			{
				"x": -1.3342332398,
				"y": 0.7684664299,
				"z": -0.6186880666,
				"element": "N" 
			},
			{
				"x": -0.7128100307,
				"y": 2.7755020459,
				"z": -1.1673398592,
				"element": "H" 
			},
			{
				"x": -3.8079522221,
				"y": -1.5552456231,
				"z": -0.3754265161,
				"element": "H" 
			},
			{
				"x": -1.8816762937,
				"y": -2.8799723821,
				"z": 0.5087741988,
				"element": "H" 
			},
			{
				"x": 1.1968272391,
				"y": 1.6848371506,
				"z": -0.3669145053,
				"element": "H" 
			},
			{
				"x": 3.0962571109,
				"y": 0.375129273,
				"z": 0.506118845,
				"element": "H" 
			},
			{
				"x": 2.7667027343,
				"y": -1.9819609306,
				"z": 1.2398223714,
				"element": "H" 
			},
			{
				"x": 0.5206576041,
				"y": -3.0178003582,
				"z": 1.0927500465,
				"element": "H" 
			}
		],
		 "valence_orbital": [ 
			{
				"type": "occ",
				"energy": -0.31032,
				"method": "rhf"
			},
			{
				"type": "occ",
				"energy": -0.28139,
				"method": "rhf"
			},
			{
				"type": "occ",
				"energy": -0.25461,
				"method": "rhf"
			},
			{
				"type": "occ",
				"energy": -0.2515,
				"method": "rhf"
			},
			{
				"type": "occ",
				"energy": -0.22714,
				"method": "rhf"
			},
			{
				"type": "unocc",
				"energy": -0.05987,
				"method": "rhf"
			},
			{
				"type": "unocc",
				"energy": -0.03306,
				"method": "rhf"
			},
			{
				"type": "unocc",
				"energy": 0.00694,
				"method": "rhf"
			},
			{
				"type": "unocc",
				"energy": 0.0405,
				"method": "rhf"
			},
			{
				"type": "unocc",
				"energy": 0.07397,
				"method": "rhf"
			}
		],
		"cosmo_sigma_profile": { 
			"-0.025": 0.0,
			"-0.024": 0.0,
			"-0.023": 0.0,
			"-0.022": 0.0,
			"-0.021": 0.0,
			"-0.02": 0.0,
			"-0.019": 0.0,
			"-0.018": 0.0,
			"-0.017": 0.0,
			"-0.016": 0.0,
			"-0.015": 0.0,
			"-0.014": 0.0,
			"-0.013": 0.0,
			"-0.012": 0.276787695902,
			"-0.011": 2.18224798454,
			"-0.01": 2.82979692623,
			"-0.009": 1.78587935223,
			"-0.008": 5.3917598569,
			"-0.007": 11.5108175874,
			"-0.006": 12.9278947064,
			"-0.005": 13.3929689746,
			"-0.004": 10.3742640472,
			"-0.003": 12.6758203052,
			"-0.002": 13.3374729187,
			"-0.001": 12.8846879535,
			"0.0": 12.4122915842,
			"0.001": 15.5441985646,
			"0.002": 17.9688050302,
			"0.003": 12.9178147493,
			"0.004": 6.31321951031,
			"0.005": 1.98922037261,
			"0.006": 2.1719197961,
			"0.007": 1.80586379228,
			"0.008": 2.06596415204,
			"0.009": 1.80370042342,
			"0.01": 2.10911489805,
			"0.011": 2.77806012963,
			"0.012": 2.2906213679,
			"0.013": 3.57038193372,
			"0.014": 3.20953445619,
			"0.015": 3.04180238108,
			"0.016": 2.21669809508,
			"0.017": 1.24759179971,
			"0.018": 0.0,
			"0.019": 0.0,
			"0.02": 0.0,
			"0.021": 0.0,
			"0.022": 0.0,
			"0.023": 0.0,
			"0.024": 0.0,
			"0.025": 0.0
		}
	}
}
