{
	 "smiles": "CC(=O)OCC1OCC(OC(C)=O)(C1OC(C)=O)C1C=NC2=C1N=CN(C2=O)C1(COC(COC(C)=O)C1OC(C)=O)OC(C)=O", 
	 "Tm": 349.15, 
	 "num_atms": 79, 
	 "gaussian": { 
		 "optdone": 1, 
		 "sigma_profile": "yes", 
		 "theory": "DFT", 
		 "functional": "B3LYP", 
		 "basiset": "6-31G**", 
		 "properties": { 
			 "R2extent": 27842.7606, 
			 "electric_dipole_moment_norm": 4.69104139184, 
			 "electric_quadrupole_moment_norm": 54.4323704172, 
			 "total_energy": -2379.48189062, 
			 "HOMO_LUMO_gap": 0.16521, 
			 "cosmo_polarized_energy": -38.88, 
			 "cosmo_cavitation_energy": 79.77, 
			 "cosmo_dispersion_energy": -46.98, 
			 "cosmo_repulsion_energy": 3.47, 
			 "cosmo_total_nonelectrostatic_energy": 36.26, 
			 "SMD_solvation_energy": 16.31 
		},
		"coords": [
			{
				"x": -1.3533017554,
				"y": -1.0553096061,
				"z": 5.715978756,
				"element": "C" 
			},
			{
				"x": -0.5970684728,
				"y": -2.1684176326,
				"z": 5.0312393542,
				"element": "C" 
			},
			{
				"x": 0.5594483606,
				"y": -2.4620811417,
				"z": 5.2474411226,
				"element": "O" 
			},
			{
				"x": -1.3975110148,
				"y": -2.8061517136,
				"z": 4.1462193802,
				"element": "O" 
			},
			{
				"x": -0.8552066952,
				"y": -3.9195694271,
				"z": 3.4022549671,
				"element": "C" 
			},
			{
				"x": -1.0340775206,
				"y": -3.6309503637,
				"z": 1.9101447997,
				"element": "C" 
			},
			{
				"x": -0.9506813839,
				"y": -4.8483576147,
				"z": 1.1638617684,
				"element": "O" 
			},
			{
				"x": 0.1451824917,
				"y": -4.8273569509,
				"z": 0.2482805603,
				"element": "C" 
			},
			{
				"x": 0.373621811,
				"y": -3.3369756301,
				"z": -0.0793600839,
				"element": "C" 
			},
			{
				"x": 1.7390275475,
				"y": -2.9911363065,
				"z": -0.3308696837,
				"element": "O" 
			},
			{
				"x": 2.3978145764,
				"y": -3.6085174928,
				"z": -1.3463303927,
				"element": "C" 
			},
			{
				"x": 3.7715460672,
				"y": -3.0171782735,
				"z": -1.5122643882,
				"element": "C" 
			},
			{
				"x": 1.9149883758,
				"y": -4.4926578764,
				"z": -2.0203569658,
				"element": "O" 
			},
			{
				"x": -0.0699914714,
				"y": -2.6123022715,
				"z": 1.2388391386,
				"element": "C" 
			},
			{
				"x": 0.9925207719,
				"y": -2.0678332286,
				"z": 2.0402731511,
				"element": "O" 
			},
			{
				"x": 2.0442584335,
				"y": -2.8137292404,
				"z": 2.4862762966,
				"element": "C" 
			},
			{
				"x": 3.0424576962,
				"y": -1.9348347412,
				"z": 3.1920946433,
				"element": "C" 
			},
			{
				"x": 2.1326832643,
				"y": -4.0127559402,
				"z": 2.352460976,
				"element": "O" 
			},
			{
				"x": -0.5067154432,
				"y": -2.8694887482,
				"z": -1.2831633302,
				"element": "C" 
			},
			{
				"x": -2.0026419524,
				"y": -2.9309797802,
				"z": -1.0290475937,
				"element": "C" 
			},
			{
				"x": -2.6218859988,
				"y": -1.806298697,
				"z": -1.1781777394,
				"element": "N" 
			},
			{
				"x": -1.6371399001,
				"y": -0.8662074576,
				"z": -1.5606279408,
				"element": "C" 
			},
			{
				"x": -0.3823350245,
				"y": -1.4140923164,
				"z": -1.6542857638,
				"element": "C" 
			},
			{
				"x": 0.7407838866,
				"y": -0.7408987828,
				"z": -2.0227372601,
				"element": "N" 
			},
			{
				"x": 0.5538068725,
				"y": 0.5221476,
				"z": -2.2967819316,
				"element": "C" 
			},
			{
				"x": -0.6521175787,
				"y": 1.1864513469,
				"z": -2.2540636644,
				"element": "N" 
			},
			{
				"x": -1.8673818881,
				"y": 0.5405284279,
				"z": -1.7947436499,
				"element": "C" 
			},
			{
				"x": -2.9020404017,
				"y": 1.1633621772,
				"z": -1.6389322094,
				"element": "O" 
			},
			{
				"x": -0.7016603431,
				"y": 2.650176765,
				"z": -2.5353924448,
				"element": "C" 
			},
			{
				"x": -1.9642937291,
				"y": 3.1193049999,
				"z": -3.3211329458,
				"element": "C" 
			},
			{
				"x": -2.7583136552,
				"y": 3.875583257,
				"z": -2.4395986937,
				"element": "O" 
			},
			{
				"x": -1.9686107352,
				"y": 4.42113574,
				"z": -1.3855669885,
				"element": "C" 
			},
			{
				"x": -2.887328688,
				"y": 4.5268040299,
				"z": -0.1720801611,
				"element": "C" 
			},
			{
				"x": -2.2069779164,
				"y": 5.1620266559,
				"z": 0.9301533972,
				"element": "O" 
			},
			{
				"x": -2.2718657088,
				"y": 6.5176328057,
				"z": 0.9866998957,
				"element": "C" 
			},
			{
				"x": -1.5429930362,
				"y": 7.032173375,
				"z": 2.2055260065,
				"element": "C" 
			},
			{
				"x": -2.8436816915,
				"y": 7.2027591617,
				"z": 0.1689020341,
				"element": "O" 
			},
			{
				"x": -0.7343835156,
				"y": 3.5046559647,
				"z": -1.2130589752,
				"element": "C" 
			},
			{
				"x": -0.8556703509,
				"y": 2.6847529716,
				"z": -0.0451755242,
				"element": "O" 
			},
			{
				"x": 0.3054078584,
				"y": 2.3145073875,
				"z": 0.5595819404,
				"element": "C" 
			},
			{
				"x": 0.0429619427,
				"y": 1.5623281829,
				"z": 1.8399870862,
				"element": "C" 
			},
			{
				"x": 1.4022828732,
				"y": 2.5660307816,
				"z": 0.1082575754,
				"element": "O" 
			},
			{
				"x": 0.4826044658,
				"y": 2.8710241678,
				"z": -3.3235404984,
				"element": "O" 
			},
			{
				"x": 0.8952681189,
				"y": 4.1304575201,
				"z": -3.6532303186,
				"element": "C" 
			},
			{
				"x": 2.1642382237,
				"y": 4.0612166773,
				"z": -4.4630663156,
				"element": "C" 
			},
			{
				"x": 0.3166756867,
				"y": 5.1394559124,
				"z": -3.326540391,
				"element": "O" 
			},
			{
				"x": -1.7875296018,
				"y": -0.3792876231,
				"z": 4.9740919898,
				"element": "H" 
			},
			{
				"x": -0.6794257048,
				"y": -0.5099090857,
				"z": 6.3757555321,
				"element": "H" 
			},
			{
				"x": -2.1809344233,
				"y": -1.4736004981,
				"z": 6.2968480399,
				"element": "H" 
			},
			{
				"x": -1.4671743749,
				"y": -4.7933315803,
				"z": 3.6416023662,
				"element": "H" 
			},
			{
				"x": 0.1752749259,
				"y": -4.108859728,
				"z": 3.6909960296,
				"element": "H" 
			},
			{
				"x": -2.0563938194,
				"y": -3.2502949289,
				"z": 1.7895975034,
				"element": "H" 
			},
			{
				"x": 1.0500298261,
				"y": -5.2415873248,
				"z": 0.6983195314,
				"element": "H" 
			},
			{
				"x": -0.1384403761,
				"y": -5.4175512743,
				"z": -0.6241329414,
				"element": "H" 
			},
			{
				"x": 4.3267947408,
				"y": -3.588128527,
				"z": -2.2555432657,
				"element": "H" 
			},
			{
				"x": 3.662883776,
				"y": -1.9783693646,
				"z": -1.8386859105,
				"element": "H" 
			},
			{
				"x": 4.3041615514,
				"y": -3.0152548975,
				"z": -0.557688276,
				"element": "H" 
			},
			{
				"x": -0.6268790208,
				"y": -1.7095200878,
				"z": 0.9885357101,
				"element": "H" 
			},
			{
				"x": 3.2580660552,
				"y": -1.0401549738,
				"z": 2.6030567347,
				"element": "H" 
			},
			{
				"x": 2.6114867552,
				"y": -1.6270596492,
				"z": 4.1491703836,
				"element": "H" 
			},
			{
				"x": 3.9540900341,
				"y": -2.5039557095,
				"z": 3.372722655,
				"element": "H" 
			},
			{
				"x": -0.2319807997,
				"y": -3.5101983944,
				"z": -2.1312115753,
				"element": "H" 
			},
			{
				"x": -2.5277145672,
				"y": -3.8358515209,
				"z": -0.7377620236,
				"element": "H" 
			},
			{
				"x": 1.4042361704,
				"y": 1.1209905867,
				"z": -2.5848629635,
				"element": "H" 
			},
			{
				"x": -2.5569221833,
				"y": 2.2848086501,
				"z": -3.6942921975,
				"element": "H" 
			},
			{
				"x": -1.6238441037,
				"y": 3.7288401806,
				"z": -4.1669188196,
				"element": "H" 
			},
			{
				"x": -1.611039568,
				"y": 5.4190249703,
				"z": -1.6641628848,
				"element": "H" 
			},
			{
				"x": -3.1778224051,
				"y": 3.5365550743,
				"z": 0.1745557412,
				"element": "H" 
			},
			{
				"x": -3.7670927433,
				"y": 5.1075739925,
				"z": -0.4533010325,
				"element": "H" 
			},
			{
				"x": -1.582055054,
				"y": 8.1207965526,
				"z": 2.2178621351,
				"element": "H" 
			},
			{
				"x": -2.0050820179,
				"y": 6.6325443608,
				"z": 3.1132316374,
				"element": "H" 
			},
			{
				"x": -0.5023891032,
				"y": 6.6950518432,
				"z": 2.1934644996,
				"element": "H" 
			},
			{
				"x": 0.1871824868,
				"y": 4.0749423022,
				"z": -1.1272834332,
				"element": "H" 
			},
			{
				"x": 0.4738169771,
				"y": 2.1303307709,
				"z": 2.6699760949,
				"element": "H" 
			},
			{
				"x": -1.023915204,
				"y": 1.4193085871,
				"z": 2.011777554,
				"element": "H" 
			},
			{
				"x": 0.5551806699,
				"y": 0.5963921489,
				"z": 1.8059828325,
				"element": "H" 
			},
			{
				"x": 2.4098974248,
				"y": 5.0581621478,
				"z": -4.8269340789,
				"element": "H" 
			},
			{
				"x": 2.9801724491,
				"y": 3.6896554345,
				"z": -3.8348438153,
				"element": "H" 
			},
			{
				"x": 2.0486577749,
				"y": 3.368002891,
				"z": -5.3002707476,
				"element": "H" 
			}
		],
		 "valence_orbital": [ 
			{
				"type": "occ",
				"energy": -0.27197,
				"method": "rhf"
			},
			{
				"type": "occ",
				"energy": -0.27166,
				"method": "rhf"
			},
			{
				"type": "occ",
				"energy": -0.26318,
				"method": "rhf"
			},
			{
				"type": "occ",
				"energy": -0.25535,
				"method": "rhf"
			},
			{
				"type": "occ",
				"energy": -0.2393,
				"method": "rhf"
			},
			{
				"type": "unocc",
				"energy": -0.07409,
				"method": "rhf"
			},
			{
				"type": "unocc",
				"energy": -0.02427,
				"method": "rhf"
			},
			{
				"type": "unocc",
				"energy": -0.01923,
				"method": "rhf"
			},
			{
				"type": "unocc",
				"energy": -0.01089,
				"method": "rhf"
			},
			{
				"type": "unocc",
				"energy": -0.0083,
				"method": "rhf"
			}
		],
		"cosmo_sigma_profile": { 
			"-0.025": 0.0,
			"-0.024": 0.0,
			"-0.023": 0.0,
			"-0.022": 0.0,
			"-0.021": 0.0,
			"-0.02": 0.0,
			"-0.019": 0.0,
			"-0.018": 0.0,
			"-0.017": 0.0,
			"-0.016": 0.0,
			"-0.015": 0.0,
			"-0.014": 0.0,
			"-0.013": 0.0,
			"-0.012": 0.0,
			"-0.011": 0.0,
			"-0.01": 0.0,
			"-0.009": 0.750801336508,
			"-0.008": 6.35272204009,
			"-0.007": 23.2223980924,
			"-0.006": 47.9671027596,
			"-0.005": 56.9002186979,
			"-0.004": 58.3053266123,
			"-0.003": 64.8342916847,
			"-0.002": 68.9884447508,
			"-0.001": 43.637350929,
			"0.0": 29.8291093461,
			"0.001": 25.390891005,
			"0.002": 25.074069454,
			"0.003": 22.8902338911,
			"0.004": 20.9350730529,
			"0.005": 19.1519891381,
			"0.006": 17.5247341252,
			"0.007": 14.5914215724,
			"0.008": 13.8818226226,
			"0.009": 13.578401195,
			"0.01": 14.7805261525,
			"0.011": 18.3022813581,
			"0.012": 14.1888584454,
			"0.013": 6.10432543753,
			"0.014": 2.15812257525,
			"0.015": 0.928443359342,
			"0.016": 0.1170115612,
			"0.017": 0.0,
			"0.018": 0.0,
			"0.019": 0.0,
			"0.02": 0.0,
			"0.021": 0.0,
			"0.022": 0.0,
			"0.023": 0.0,
			"0.024": 0.0,
			"0.025": 0.0
		}
	}
}
