{
	 "smiles": "OC(=O)C1CCCN(C1)S(=O)(=O)C1=CN=CC=C1", 
	 "Tm": 488.15, 
	 "num_atms": 32, 
	 "gaussian": { 
		 "optdone": 1, 
		 "sigma_profile": "yes", 
		 "theory": "DFT", 
		 "functional": "B3LYP", 
		 "basiset": "6-31G**", 
		 "properties": { 
			 "R2extent": 5550.6457, 
			 "electric_dipole_moment_norm": 4.53156415601, 
			 "electric_quadrupole_moment_norm": 20.1952306112, 
			 "total_energy": -1236.12428589, 
			 "HOMO_LUMO_gap": 0.19697, 
			 "cosmo_polarized_energy": -20.01, 
			 "cosmo_cavitation_energy": 36.26, 
			 "cosmo_dispersion_energy": -25.69, 
			 "cosmo_repulsion_energy": 1.95, 
			 "cosmo_total_nonelectrostatic_energy": 12.51, 
			 "SMD_solvation_energy": 3.69 
		},
		"coords": [
			{
				"x": 0.2005046704,
				"y": -4.0270386973,
				"z": -1.7370805157,
				"element": "O" 
			},
			{
				"x": 0.2736758068,
				"y": -3.1379560982,
				"z": -0.7183193218,
				"element": "C" 
			},
			{
				"x": 0.6106481483,
				"y": -3.4547679393,
				"z": 0.4024413056,
				"element": "O" 
			},
			{
				"x": -0.1200891028,
				"y": -1.7452101559,
				"z": -1.1613144356,
				"element": "C" 
			},
			{
				"x": -1.5706754568,
				"y": -1.7069669215,
				"z": -1.7290128199,
				"element": "C" 
			},
			{
				"x": -2.2339984223,
				"y": -0.3393427214,
				"z": -1.4593770455,
				"element": "C" 
			},
			{
				"x": -1.2303490725,
				"y": 0.809923935,
				"z": -1.5456710618,
				"element": "C" 
			},
			{
				"x": -0.2104744997,
				"y": 0.6431683518,
				"z": -0.4709359657,
				"element": "N" 
			},
			{
				"x": 0.0359809359,
				"y": -0.7429552741,
				"z": -0.0116152153,
				"element": "C" 
			},
			{
				"x": 1.1717581519,
				"y": 1.5938278207,
				"z": -0.6861425159,
				"element": "S" 
			},
			{
				"x": 2.2736882297,
				"y": 0.817216645,
				"z": -1.2745007274,
				"element": "O" 
			},
			{
				"x": 0.7065924361,
				"y": 2.8278688116,
				"z": -1.3261383816,
				"element": "O" 
			},
			{
				"x": 1.636326909,
				"y": 1.9621712692,
				"z": 1.0069956989,
				"element": "C" 
			},
			{
				"x": 2.8249933048,
				"y": 1.4549994622,
				"z": 1.5361188385,
				"element": "C" 
			},
			{
				"x": 3.2342876594,
				"y": 1.7273675693,
				"z": 2.7818729514,
				"element": "N" 
			},
			{
				"x": 2.4592534928,
				"y": 2.5255810389,
				"z": 3.5244123401,
				"element": "C" 
			},
			{
				"x": 1.2602393761,
				"y": 3.0890241704,
				"z": 3.075062395,
				"element": "C" 
			},
			{
				"x": 0.8358317175,
				"y": 2.8037069364,
				"z": 1.7819863654,
				"element": "C" 
			},
			{
				"x": 0.4624765667,
				"y": -4.8873129913,
				"z": -1.3673768994,
				"element": "H" 
			},
			{
				"x": 0.5802216851,
				"y": -1.4560807697,
				"z": -1.9544546145,
				"element": "H" 
			},
			{
				"x": -1.5407794427,
				"y": -1.915126842,
				"z": -2.8024226696,
				"element": "H" 
			},
			{
				"x": -2.1775393293,
				"y": -2.4982387413,
				"z": -1.2762215828,
				"element": "H" 
			},
			{
				"x": -2.7016971261,
				"y": -0.3305686894,
				"z": -0.4682428362,
				"element": "H" 
			},
			{
				"x": -3.0360619045,
				"y": -0.1605422953,
				"z": -2.1827262685,
				"element": "H" 
			},
			{
				"x": -1.7190955701,
				"y": 1.7765604774,
				"z": -1.4094793878,
				"element": "H" 
			},
			{
				"x": -0.7679363378,
				"y": 0.8170726697,
				"z": -2.5421582821,
				"element": "H" 
			},
			{
				"x": 1.0367224112,
				"y": -0.8119608398,
				"z": 0.4155870292,
				"element": "H" 
			},
			{
				"x": -0.6645227384,
				"y": -0.9786490661,
				"z": 0.7961173046,
				"element": "H" 
			},
			{
				"x": 3.4612480097,
				"y": 0.8170886731,
				"z": 0.9289359236,
				"element": "H" 
			},
			{
				"x": 2.8143229998,
				"y": 2.730518033,
				"z": 4.5327332207,
				"element": "H" 
			},
			{
				"x": 0.6807506609,
				"y": 3.736771588,
				"z": 3.7247646418,
				"element": "H" 
			},
			{
				"x": -0.080704169,
				"y": 3.2197505906,
				"z": 1.3771625321,
				"element": "H" 
			}
		],
		 "valence_orbital": [ 
			{
				"type": "occ",
				"energy": -0.30211,
				"method": "rhf"
			},
			{
				"type": "occ",
				"energy": -0.28629,
				"method": "rhf"
			},
			{
				"type": "occ",
				"energy": -0.28243,
				"method": "rhf"
			},
			{
				"type": "occ",
				"energy": -0.26799,
				"method": "rhf"
			},
			{
				"type": "occ",
				"energy": -0.24988,
				"method": "rhf"
			},
			{
				"type": "unocc",
				"energy": -0.05291,
				"method": "rhf"
			},
			{
				"type": "unocc",
				"energy": -0.03674,
				"method": "rhf"
			},
			{
				"type": "unocc",
				"energy": 0.00069,
				"method": "rhf"
			},
			{
				"type": "unocc",
				"energy": 0.05374,
				"method": "rhf"
			},
			{
				"type": "unocc",
				"energy": 0.06974,
				"method": "rhf"
			}
		],
		"cosmo_sigma_profile": { 
			"-0.025": 0.0,
			"-0.024": 0.0,
			"-0.023": 0.0,
			"-0.022": 0.0,
			"-0.021": 0.0,
			"-0.02": 0.0,
			"-0.019": 0.0620830964923,
			"-0.018": 1.05733296752,
			"-0.017": 0.582117823387,
			"-0.016": 0.799998911353,
			"-0.015": 0.993805525953,
			"-0.014": 0.660152590982,
			"-0.013": 0.376642430077,
			"-0.012": 0.762846875375,
			"-0.011": 0.655884815299,
			"-0.01": 0.85276491753,
			"-0.009": 1.4104945181,
			"-0.008": 5.36488027989,
			"-0.007": 9.83098777975,
			"-0.006": 13.6405850932,
			"-0.005": 23.6057180085,
			"-0.004": 28.2852483031,
			"-0.003": 26.1518549564,
			"-0.002": 23.1950511125,
			"-0.001": 21.4744799065,
			"0.0": 20.5102071178,
			"0.001": 14.2135567461,
			"0.002": 9.57313137067,
			"0.003": 9.11004716644,
			"0.004": 7.12129411562,
			"0.005": 6.68343097972,
			"0.006": 6.77885735542,
			"0.007": 7.0353831468,
			"0.008": 5.92752261379,
			"0.009": 8.23894342572,
			"0.01": 10.5572467181,
			"0.011": 12.071124891,
			"0.012": 6.18573867086,
			"0.013": 0.800047361221,
			"0.014": 0.802921435369,
			"0.015": 0.885026222167,
			"0.016": 0.0390839102447,
			"0.017": 0.0,
			"0.018": 0.0,
			"0.019": 0.0,
			"0.02": 0.0,
			"0.021": 0.0,
			"0.022": 0.0,
			"0.023": 0.0,
			"0.024": 0.0,
			"0.025": 0.0
		}
	}
}
