{
	 "smiles": "OCC1=NC2=C(C=CC=C2)C=C1", 
	 "Tm": 456.15, 
	 "num_atms": 21, 
	 "gaussian": { 
		 "optdone": 1, 
		 "sigma_profile": "yes", 
		 "theory": "DFT", 
		 "functional": "B3LYP", 
		 "basiset": "6-31G**", 
		 "properties": { 
			 "R2extent": 2472.8473, 
			 "electric_dipole_moment_norm": 0.662036985372, 
			 "electric_quadrupole_moment_norm": 13.4757607941, 
			 "total_energy": -516.460817165, 
			 "HOMO_LUMO_gap": 0.1777, 
			 "cosmo_polarized_energy": -9.79, 
			 "cosmo_cavitation_energy": 24.69, 
			 "cosmo_dispersion_energy": -18.76, 
			 "cosmo_repulsion_energy": 1.49, 
			 "cosmo_total_nonelectrostatic_energy": 7.43, 
			 "SMD_solvation_energy": 2.71 
		},
		"coords": [
			{
				"x": 3.0387506545,
				"y": 3.3952373376,
				"z": -0.1774339131,
				"element": "O" 
			},
			{
				"x": 3.1914285877,
				"y": 1.9955697916,
				"z": -0.0011089419,
				"element": "C" 
			},
			{
				"x": 1.8732225349,
				"y": 1.2960346904,
				"z": -0.2628507847,
				"element": "C" 
			},
			{
				"x": 1.8954906862,
				"y": -0.0170381194,
				"z": -0.1277685192,
				"element": "N" 
			},
			{
				"x": 0.7429581218,
				"y": -0.710953949,
				"z": -0.3485729183,
				"element": "C" 
			},
			{
				"x": -0.4812002289,
				"y": -0.0677677386,
				"z": -0.7192153297,
				"element": "C" 
			},
			{
				"x": -1.6428678506,
				"y": -0.8557998359,
				"z": -0.9329969507,
				"element": "C" 
			},
			{
				"x": -1.5951470383,
				"y": -2.2238798313,
				"z": -0.7860596362,
				"element": "C" 
			},
			{
				"x": -0.3830194679,
				"y": -2.8615735154,
				"z": -0.4189785292,
				"element": "C" 
			},
			{
				"x": 0.7599068779,
				"y": -2.1244542905,
				"z": -0.2048814171,
				"element": "C" 
			},
			{
				"x": -0.45620161,
				"y": 1.3435697299,
				"z": -0.8521643427,
				"element": "C" 
			},
			{
				"x": 0.7130059434,
				"y": 2.0298449867,
				"z": -0.6264112358,
				"element": "C" 
			},
			{
				"x": 3.8903257666,
				"y": 3.8128099997,
				"z": -0.0051216959,
				"element": "H" 
			},
			{
				"x": 3.9438338128,
				"y": 1.5754511246,
				"z": -0.6866388584,
				"element": "H" 
			},
			{
				"x": 3.5154688209,
				"y": 1.7438357595,
				"z": 1.0207366996,
				"element": "H" 
			},
			{
				"x": -2.5691419939,
				"y": -0.3607178591,
				"z": -1.2142925869,
				"element": "H" 
			},
			{
				"x": -2.4870945997,
				"y": -2.8212692622,
				"z": -0.9509456249,
				"element": "H" 
			},
			{
				"x": -0.3611001335,
				"y": -3.9418820232,
				"z": -0.3069028334,
				"element": "H" 
			},
			{
				"x": 1.6985880126,
				"y": -2.5906650442,
				"z": 0.0767011845,
				"element": "H" 
			},
			{
				"x": -1.3659022414,
				"y": 1.8695894033,
				"z": -1.1323743657,
				"element": "H" 
			},
			{
				"x": 0.7759953451,
				"y": 3.1069586456,
				"z": -0.7168194003,
				"element": "H" 
			}
		],
		 "valence_orbital": [ 
			{
				"type": "occ",
				"energy": -0.3003,
				"method": "rhf"
			},
			{
				"type": "occ",
				"energy": -0.27563,
				"method": "rhf"
			},
			{
				"type": "occ",
				"energy": -0.24968,
				"method": "rhf"
			},
			{
				"type": "occ",
				"energy": -0.24133,
				"method": "rhf"
			},
			{
				"type": "occ",
				"energy": -0.225,
				"method": "rhf"
			},
			{
				"type": "unocc",
				"energy": -0.0473,
				"method": "rhf"
			},
			{
				"type": "unocc",
				"energy": -0.00809,
				"method": "rhf"
			},
			{
				"type": "unocc",
				"energy": 0.0254,
				"method": "rhf"
			},
			{
				"type": "unocc",
				"energy": 0.07252,
				"method": "rhf"
			},
			{
				"type": "unocc",
				"energy": 0.09332,
				"method": "rhf"
			}
		],
		"cosmo_sigma_profile": { 
			"-0.025": 0.0,
			"-0.024": 0.0,
			"-0.023": 0.0,
			"-0.022": 0.0,
			"-0.021": 0.0,
			"-0.02": 0.0,
			"-0.019": 0.0,
			"-0.018": 0.0,
			"-0.017": 0.145875696233,
			"-0.016": 0.877438497169,
			"-0.015": 1.32530883192,
			"-0.014": 0.735620605156,
			"-0.013": 0.843322969676,
			"-0.012": 1.14792860455,
			"-0.011": 0.898304501388,
			"-0.01": 0.358634890983,
			"-0.009": 1.10948697665,
			"-0.008": 0.76866771708,
			"-0.007": 3.84359428288,
			"-0.006": 10.3806348761,
			"-0.005": 15.0478568959,
			"-0.004": 17.8417748118,
			"-0.003": 13.3899788276,
			"-0.002": 11.125029789,
			"-0.001": 10.7029577956,
			"0.0": 9.97348671328,
			"0.001": 11.9579479907,
			"0.002": 20.2664290649,
			"0.003": 19.4700782781,
			"0.004": 15.4662756708,
			"0.005": 8.57764826892,
			"0.006": 3.47593076917,
			"0.007": 3.1131703127,
			"0.008": 2.55335482728,
			"0.009": 2.61539670231,
			"0.01": 2.76953219565,
			"0.011": 2.25051211239,
			"0.012": 1.68894842246,
			"0.013": 1.11338063732,
			"0.014": 0.589155226379,
			"0.015": 0.431165974163,
			"0.016": 0.319327869692,
			"0.017": 0.0,
			"0.018": 0.0,
			"0.019": 0.0,
			"0.02": 0.0,
			"0.021": 0.0,
			"0.022": 0.0,
			"0.023": 0.0,
			"0.024": 0.0,
			"0.025": 0.0
		}
	}
}
