{
	 "smiles": "OCCNC1=C(C=CC=C1)C(O)=O", 
	 "Tm": 416.15, 
	 "num_atms": 24, 
	 "gaussian": { 
		 "optdone": 1, 
		 "sigma_profile": "yes", 
		 "theory": "DFT", 
		 "functional": "B3LYP", 
		 "basiset": "6-31G**", 
		 "properties": { 
			 "R2extent": 2521.632, 
			 "electric_dipole_moment_norm": 6.68875722836, 
			 "electric_quadrupole_moment_norm": 10.0079603801, 
			 "total_energy": -630.016274555, 
			 "HOMO_LUMO_gap": 0.20868, 
			 "cosmo_polarized_energy": -17.3, 
			 "cosmo_cavitation_energy": 26.5, 
			 "cosmo_dispersion_energy": -19.61, 
			 "cosmo_repulsion_energy": 1.54, 
			 "cosmo_total_nonelectrostatic_energy": 8.43, 
			 "SMD_solvation_energy": 5.31 
		},
		"coords": [
			{
				"x": -1.3537406992,
				"y": 2.8507551131,
				"z": 0.6086894128,
				"element": "O" 
			},
			{
				"x": -1.511436825,
				"y": 1.5153682991,
				"z": 1.0377872058,
				"element": "C" 
			},
			{
				"x": -0.2242461034,
				"y": 0.9022016815,
				"z": 1.5985350646,
				"element": "C" 
			},
			{
				"x": 0.8120758237,
				"y": 0.6378680007,
				"z": 0.5589215089,
				"element": "N" 
			},
			{
				"x": 0.5807889046,
				"y": -0.5420520005,
				"z": -0.2532213522,
				"element": "C" 
			},
			{
				"x": 0.1550772154,
				"y": -0.3982063459,
				"z": -1.5884588702,
				"element": "C" 
			},
			{
				"x": -0.0756191313,
				"y": -1.548484299,
				"z": -2.3563557205,
				"element": "C" 
			},
			{
				"x": 0.1266010031,
				"y": -2.8176092262,
				"z": -1.8242025459,
				"element": "C" 
			},
			{
				"x": 0.5660000723,
				"y": -2.9546746716,
				"z": -0.5048415427,
				"element": "C" 
			},
			{
				"x": 0.7854506017,
				"y": -1.820889941,
				"z": 0.2757087807,
				"element": "C" 
			},
			{
				"x": -0.0480686426,
				"y": 0.931456831,
				"z": -2.2792919766,
				"element": "C" 
			},
			{
				"x": 0.3272925423,
				"y": 2.0256316672,
				"z": -1.587699584,
				"element": "O" 
			},
			{
				"x": -0.5140695212,
				"y": 1.0119049964,
				"z": -3.3944951093,
				"element": "O" 
			},
			{
				"x": -0.9999747356,
				"y": 2.8442484545,
				"z": -0.2938904048,
				"element": "H" 
			},
			{
				"x": -1.9248719134,
				"y": 0.8693217858,
				"z": 0.2483848302,
				"element": "H" 
			},
			{
				"x": -2.24585658,
				"y": 1.5256938754,
				"z": 1.8517905958,
				"element": "H" 
			},
			{
				"x": 0.2105414186,
				"y": 1.6145503283,
				"z": 2.3059919019,
				"element": "H" 
			},
			{
				"x": -0.4695108917,
				"y": -0.0211973615,
				"z": 2.1444882408,
				"element": "H" 
			},
			{
				"x": 1.7161804173,
				"y": 0.5519697967,
				"z": 1.0165280364,
				"element": "H" 
			},
			{
				"x": -0.4073891431,
				"y": -1.4093586032,
				"z": -3.3794828921,
				"element": "H" 
			},
			{
				"x": -0.0504773048,
				"y": -3.6975680083,
				"z": -2.4348975521,
				"element": "H" 
			},
			{
				"x": 0.7353476806,
				"y": -3.9411111537,
				"z": -0.0831705023,
				"element": "H" 
			},
			{
				"x": 1.1193058076,
				"y": -1.9225055498,
				"z": 1.3053903924,
				"element": "H" 
			},
			{
				"x": 0.692700004,
				"y": 1.7155863307,
				"z": -0.6978079175,
				"element": "H" 
			}
		],
		 "valence_orbital": [ 
			{
				"type": "occ",
				"energy": -0.29061,
				"method": "rhf"
			},
			{
				"type": "occ",
				"energy": -0.27296,
				"method": "rhf"
			},
			{
				"type": "occ",
				"energy": -0.26898,
				"method": "rhf"
			},
			{
				"type": "occ",
				"energy": -0.26768,
				"method": "rhf"
			},
			{
				"type": "occ",
				"energy": -0.26197,
				"method": "rhf"
			},
			{
				"type": "unocc",
				"energy": -0.05329,
				"method": "rhf"
			},
			{
				"type": "unocc",
				"energy": -0.02811,
				"method": "rhf"
			},
			{
				"type": "unocc",
				"energy": 0.0507,
				"method": "rhf"
			},
			{
				"type": "unocc",
				"energy": 0.06399,
				"method": "rhf"
			},
			{
				"type": "unocc",
				"energy": 0.08143,
				"method": "rhf"
			}
		],
		"cosmo_sigma_profile": { 
			"-0.025": 0.0,
			"-0.024": 0.0,
			"-0.023": 0.0,
			"-0.022": 0.0,
			"-0.021": 0.0,
			"-0.02": 0.0,
			"-0.019": 0.0,
			"-0.018": 0.0,
			"-0.017": 0.0,
			"-0.016": 0.0,
			"-0.015": 0.0,
			"-0.014": 0.307968309386,
			"-0.013": 1.44711822348,
			"-0.012": 1.45927963145,
			"-0.011": 1.31585753388,
			"-0.01": 1.81607073602,
			"-0.009": 1.50002251981,
			"-0.008": 2.59610436609,
			"-0.007": 7.11224165016,
			"-0.006": 12.1422364923,
			"-0.005": 18.4735037715,
			"-0.004": 24.6681071017,
			"-0.003": 19.0612356533,
			"-0.002": 13.7847148111,
			"-0.001": 10.9533826135,
			"0.0": 9.37112228764,
			"0.001": 10.4122317972,
			"0.002": 11.6094921439,
			"0.003": 13.1296608538,
			"0.004": 7.90796573278,
			"0.005": 2.88055329079,
			"0.006": 3.42575661648,
			"0.007": 2.52571665874,
			"0.008": 4.05475790617,
			"0.009": 3.23051228102,
			"0.01": 3.71134938269,
			"0.011": 6.33031337677,
			"0.012": 6.78607735563,
			"0.013": 4.18468124112,
			"0.014": 2.70890885581,
			"0.015": 1.00403304982,
			"0.016": 0.0,
			"0.017": 0.0,
			"0.018": 0.0,
			"0.019": 0.0,
			"0.02": 0.0,
			"0.021": 0.0,
			"0.022": 0.0,
			"0.023": 0.0,
			"0.024": 0.0,
			"0.0": 0.0
		}
	}
}
