{
	 "smiles": "CC(C)C1=CC=C(C=C1)C1=NOC(N)=C1", 
	 "Tm": 387.15, 
	 "num_atms": 29, 
	 "gaussian": { 
		 "optdone": 1, 
		 "sigma_profile": "yes", 
		 "theory": "DFT", 
		 "functional": "B3LYP", 
		 "basiset": "6-31G**", 
		 "properties": { 
			 "R2extent": 4993.3615, 
			 "electric_dipole_moment_norm": 3.43130324221, 
			 "electric_quadrupole_moment_norm": 23.7761926689, 
			 "total_energy": -650.410100541, 
			 "HOMO_LUMO_gap": 0.188, 
			 "cosmo_polarized_energy": -14.52, 
			 "cosmo_cavitation_energy": 32.56, 
			 "cosmo_dispersion_energy": -23.62, 
			 "cosmo_repulsion_energy": 1.85, 
			 "cosmo_total_nonelectrostatic_energy": 10.79, 
			 "SMD_solvation_energy": 5.69 
		},
		"coords": [
			{
				"x": -0.4989186976,
				"y": 0.7200562107,
				"z": 4.0644303664,
				"element": "C" 
			},
			{
				"x": -0.64500287,
				"y": 1.6826369457,
				"z": 2.8705005445,
				"element": "C" 
			},
			{
				"x": 0.275253473,
				"y": 2.9076012446,
				"z": 3.031622901,
				"element": "C" 
			},
			{
				"x": -0.419076888,
				"y": 0.9750144876,
				"z": 1.5415995891,
				"element": "C" 
			},
			{
				"x": -1.4458861396,
				"y": 0.8882228956,
				"z": 0.5907924183,
				"element": "C" 
			},
			{
				"x": -1.2561320384,
				"y": 0.2461175043,
				"z": -0.6293142604,
				"element": "C" 
			},
			{
				"x": -0.0191404255,
				"y": -0.3386596089,
				"z": -0.9417898054,
				"element": "C" 
			},
			{
				"x": 1.0124380083,
				"y": -0.2571776057,
				"z": 0.0048898432,
				"element": "C" 
			},
			{
				"x": 0.8140684748,
				"y": 0.3886132541,
				"z": 1.2228505189,
				"element": "C" 
			},
			{
				"x": 0.1844584697,
				"y": -1.0211319768,
				"z": -2.2326848644,
				"element": "C" 
			},
			{
				"x": -0.8336932447,
				"y": -1.1831221876,
				"z": -3.0591108563,
				"element": "N" 
			},
			{
				"x": -0.2955514593,
				"y": -1.8553502683,
				"z": -4.1814625832,
				"element": "O" 
			},
			{
				"x": 1.0153002093,
				"y": -2.0680997944,
				"z": -3.9754581657,
				"element": "C" 
			},
			{
				"x": 1.6747836464,
				"y": -2.766636703,
				"z": -4.9585832287,
				"element": "N" 
			},
			{
				"x": 1.3942661728,
				"y": -1.5652091232,
				"z": -2.7600099561,
				"element": "C" 
			},
			{
				"x": -0.7242831201,
				"y": 1.2342126846,
				"z": 5.0052561443,
				"element": "H" 
			},
			{
				"x": 0.5216467061,
				"y": 0.3281202403,
				"z": 4.1366485546,
				"element": "H" 
			},
			{
				"x": -1.1774871992,
				"y": -0.1334072472,
				"z": 3.9707622513,
				"element": "H" 
			},
			{
				"x": -1.6805421538,
				"y": 2.0474879046,
				"z": 2.867032267,
				"element": "H" 
			},
			{
				"x": 0.0547956483,
				"y": 3.4365577888,
				"z": 3.9653786219,
				"element": "H" 
			},
			{
				"x": 1.3298263323,
				"y": 2.6117583445,
				"z": 3.058970825,
				"element": "H" 
			},
			{
				"x": 0.1479856236,
				"y": 3.6108191027,
				"z": 2.2027686027,
				"element": "H" 
			},
			{
				"x": -2.4127890128,
				"y": 1.3345340727,
				"z": 0.8109916821,
				"element": "H" 
			},
			{
				"x": -2.0624407078,
				"y": 0.1911999066,
				"z": -1.3528701668,
				"element": "H" 
			},
			{
				"x": 1.9784625701,
				"y": -0.7062942947,
				"z": -0.2051030258,
				"element": "H" 
			},
			{
				"x": 1.6344131423,
				"y": 0.43270809,
				"z": 1.9343325153,
				"element": "H" 
			},
			{
				"x": 1.225080114,
				"y": -2.7377706494,
				"z": -5.8640557497,
				"element": "H" 
			},
			{
				"x": 2.6710138078,
				"y": -2.6081200017,
				"z": -5.0021324134,
				"element": "H" 
			},
			{
				"x": 2.377651558,
				"y": -1.5806812164,
				"z": -2.3190525698,
				"element": "H" 
			}
		],
		 "valence_orbital": [ 
			{
				"type": "occ",
				"energy": -0.29699,
				"method": "rhf"
			},
			{
				"type": "occ",
				"energy": -0.29001,
				"method": "rhf"
			},
			{
				"type": "occ",
				"energy": -0.24728,
				"method": "rhf"
			},
			{
				"type": "occ",
				"energy": -0.22764,
				"method": "rhf"
			},
			{
				"type": "occ",
				"energy": -0.21338,
				"method": "rhf"
			},
			{
				"type": "unocc",
				"energy": -0.02538,
				"method": "rhf"
			},
			{
				"type": "unocc",
				"energy": 0.00219,
				"method": "rhf"
			},
			{
				"type": "unocc",
				"energy": 0.03589,
				"method": "rhf"
			},
			{
				"type": "unocc",
				"energy": 0.06336,
				"method": "rhf"
			},
			{
				"type": "unocc",
				"energy": 0.08866,
				"method": "rhf"
			}
		],
		"cosmo_sigma_profile": { 
			"-0.025": 0.0,
			"-0.024": 0.0,
			"-0.023": 0.0,
			"-0.022": 0.0,
			"-0.021": 0.0,
			"-0.02": 0.0,
			"-0.019": 0.0,
			"-0.018": 0.0,
			"-0.017": 0.0,
			"-0.016": 0.0,
			"-0.015": 0.707905683334,
			"-0.014": 2.1636003221,
			"-0.013": 3.3100596304,
			"-0.012": 2.29163571277,
			"-0.011": 2.93098025934,
			"-0.01": 2.4250179937,
			"-0.009": 1.75377020147,
			"-0.008": 3.68009707167,
			"-0.007": 5.44901345089,
			"-0.006": 5.03179756198,
			"-0.005": 9.38517571023,
			"-0.004": 14.3711252112,
			"-0.003": 19.7779912281,
			"-0.002": 20.736464901,
			"-0.001": 22.0541107203,
			"0.0": 21.0172013989,
			"0.001": 25.3831878088,
			"0.002": 18.2090102732,
			"0.003": 17.8950159625,
			"0.004": 16.2047248873,
			"0.005": 14.4802847881,
			"0.006": 5.35324325721,
			"0.007": 4.01939877134,
			"0.008": 3.83729385611,
			"0.009": 4.80579768725,
			"0.01": 2.83303714096,
			"0.011": 2.74491678394,
			"0.012": 1.26888198748,
			"0.013": 1.88015261754,
			"0.014": 1.14229670117,
			"0.015": 0.218819233652,
			"0.016": 0.0,
			"0.017": 0.0,
			"0.018": 0.0,
			"0.019": 0.0,
			"0.02": 0.0,
			"0.021": 0.0,
			"0.022": 0.0,
			"0.023": 0.0,
			"0.024": 0.0,
			"0.025": 0.0
		}
	}
}
