{
	 "smiles": "C1OCOCO1", 
	 "Tm": 333.75, 
	 "num_atms": 12, 
	 "gaussian": { 
		 "optdone": 1, 
		 "sigma_profile": "yes", 
		 "theory": "DFT", 
		 "functional": "B3LYP", 
		 "basiset": "6-31G**", 
		 "properties": { 
			 "R2extent": 1013.8901, 
			 "electric_dipole_moment_norm": 0.743587237653, 
			 "electric_quadrupole_moment_norm": 3.59276062103, 
			 "total_energy": -343.559856093, 
			 "HOMO_LUMO_gap": 0.35149, 
			 "cosmo_polarized_energy": -6.01, 
			 "cosmo_cavitation_energy": 14.57, 
			 "cosmo_dispersion_energy": -11.83, 
			 "cosmo_repulsion_energy": 1.03, 
			 "cosmo_total_nonelectrostatic_energy": 3.76, 
			 "SMD_solvation_energy": 3.39 
		},
		"coords": [
			{
				"x": -0.5708157435,
				"y": 0.3785950484,
				"z": -0.6868767781,
				"element": "C" 
			},
			{
				"x": -0.5809923541,
				"y": 1.7271021493,
				"z": -0.251406138,
				"element": "O" 
			},
			{
				"x": -1.7854240569,
				"y": 2.0199441533,
				"z": 0.4354681715,
				"element": "C" 
			},
			{
				"x": -2.858569428,
				"y": 1.2613099089,
				"z": -0.0787785944,
				"element": "O" 
			},
			{
				"x": -2.6667849899,
				"y": -0.1165866272,
				"z": 0.1875857952,
				"element": "C" 
			},
			{
				"x": -1.2893863296,
				"y": -0.4464777723,
				"z": 0.2044805616,
				"element": "O" 
			},
			{
				"x": 0.4651439397,
				"y": 0.0336151274,
				"z": -0.6877823585,
				"element": "H" 
			},
			{
				"x": -0.9941542686,
				"y": 0.3074833908,
				"z": -1.7019987293,
				"element": "H" 
			},
			{
				"x": -2.0203297205,
				"y": 3.0730042171,
				"z": 0.2678152197,
				"element": "H" 
			},
			{
				"x": -1.6606270584,
				"y": 1.8270920359,
				"z": 1.5134160445,
				"element": "H" 
			},
			{
				"x": -3.0560602553,
				"y": -0.4000356684,
				"z": 1.175621277,
				"element": "H" 
			},
			{
				"x": -3.2061997349,
				"y": -0.6540459632,
				"z": -0.6050444712,
				"element": "H" 
			}
		],
		 "valence_orbital": [ 
			{
				"type": "occ",
				"energy": -0.36687,
				"method": "rhf"
			},
			{
				"type": "occ",
				"energy": -0.35054,
				"method": "rhf"
			},
			{
				"type": "occ",
				"energy": -0.29709,
				"method": "rhf"
			},
			{
				"type": "occ",
				"energy": -0.27459,
				"method": "rhf"
			},
			{
				"type": "occ",
				"energy": -0.25912,
				"method": "rhf"
			},
			{
				"type": "unocc",
				"energy": 0.09237,
				"method": "rhf"
			},
			{
				"type": "unocc",
				"energy": 0.11777,
				"method": "rhf"
			},
			{
				"type": "unocc",
				"energy": 0.13112,
				"method": "rhf"
			},
			{
				"type": "unocc",
				"energy": 0.13643,
				"method": "rhf"
			},
			{
				"type": "unocc",
				"energy": 0.14549,
				"method": "rhf"
			}
		],
		"cosmo_sigma_profile": { 
			"-0.025": 0.0,
			"-0.024": 0.0,
			"-0.023": 0.0,
			"-0.022": 0.0,
			"-0.021": 0.0,
			"-0.02": 0.0,
			"-0.019": 0.0,
			"-0.018": 0.0,
			"-0.017": 0.0,
			"-0.016": 0.0,
			"-0.015": 0.0,
			"-0.014": 0.0,
			"-0.013": 0.0,
			"-0.012": 0.0,
			"-0.011": 0.0,
			"-0.01": 0.0,
			"-0.009": 0.0,
			"-0.008": 0.107949428219,
			"-0.007": 4.2573545305,
			"-0.006": 12.4018233811,
			"-0.005": 17.2525519482,
			"-0.004": 13.9813074765,
			"-0.003": 7.65523759533,
			"-0.002": 5.37636158439,
			"-0.001": 4.88673681416,
			"0.0": 3.18678298216,
			"0.001": 3.59951622954,
			"0.002": 4.64529179464,
			"0.003": 3.80885095747,
			"0.004": 4.14777851331,
			"0.005": 3.956558302,
			"0.006": 3.84857718538,
			"0.007": 3.40155528208,
			"0.008": 2.84515344175,
			"0.009": 4.59603377157,
			"0.01": 3.108110206,
			"0.011": 4.96970346876,
			"0.012": 2.24356707698,
			"0.013": 0.0,
			"0.014": 0.0,
			"0.015": 0.0,
			"0.016": 0.0,
			"0.017": 0.0,
			"0.018": 0.0,
			"0.019": 0.0,
			"0.02": 0.0,
			"0.021": 0.0,
			"0.022": 0.0,
			"0.023": 0.0,
			"0.024": 0.0,
			"0.025": 0.0
		}
	}
}
