{
	 "smiles": "COC(=O)C=CC(=O)OC", 
	 "Tm": 376.15, 
	 "num_atms": 18, 
	 "gaussian": { 
		 "optdone": 1, 
		 "sigma_profile": "yes", 
		 "theory": "DFT", 
		 "functional": "B3LYP", 
		 "basiset": "6-31G**", 
		 "properties": { 
			 "R2extent": 2710.2224, 
			 "electric_dipole_moment_norm": 3.42674406835, 
			 "electric_quadrupole_moment_norm": 14.1533333325, 
			 "total_energy": -534.346230583, 
			 "HOMO_LUMO_gap": 0.19586, 
			 "cosmo_polarized_energy": -10.01, 
			 "cosmo_cavitation_energy": 23.79, 
			 "cosmo_dispersion_energy": -17.15, 
			 "cosmo_repulsion_energy": 1.42, 
			 "cosmo_total_nonelectrostatic_energy": 8.06, 
			 "SMD_solvation_energy": 7.83 
		},
		"coords": [
			{
				"x": -1.3378985414,
				"y": 2.8352775081,
				"z": -3.3669617252,
				"element": "C" 
			},
			{
				"x": -1.0621479395,
				"y": 2.1431366415,
				"z": -2.1383394957,
				"element": "O" 
			},
			{
				"x": 0.233610117,
				"y": 1.8132013805,
				"z": -1.9429905745,
				"element": "C" 
			},
			{
				"x": 1.1240725233,
				"y": 2.0682884919,
				"z": -2.7284073524,
				"element": "O" 
			},
			{
				"x": 0.3992874801,
				"y": 1.1049024502,
				"z": -0.6468422961,
				"element": "C" 
			},
			{
				"x": 1.6085595705,
				"y": 0.6866198363,
				"z": -0.2541175621,
				"element": "C" 
			},
			{
				"x": 1.8832975906,
				"y": -0.0276164794,
				"z": 1.0169373215,
				"element": "C" 
			},
			{
				"x": 2.9923440344,
				"y": -0.3962094792,
				"z": 1.3482117999,
				"element": "O" 
			},
			{
				"x": 0.7730971498,
				"y": -0.22385564,
				"z": 1.7624372585,
				"element": "O" 
			},
			{
				"x": 0.986767504,
				"y": -0.9128352579,
				"z": 3.0048435303,
				"element": "C" 
			},
			{
				"x": -2.4112353917,
				"y": 3.0228347109,
				"z": -3.3656935182,
				"element": "H" 
			},
			{
				"x": -1.0547729593,
				"y": 2.2206596833,
				"z": -4.225282113,
				"element": "H" 
			},
			{
				"x": -0.7821399103,
				"y": 3.7754173778,
				"z": -3.4105988951,
				"element": "H" 
			},
			{
				"x": -0.4863882249,
				"y": 0.9438829019,
				"z": -0.0425170718,
				"element": "H" 
			},
			{
				"x": 2.4786203256,
				"y": 0.8612904372,
				"z": -0.8792350602,
				"element": "H" 
			},
			{
				"x": 0.0055611967,
				"y": -0.9865555746,
				"z": 3.4729850713,
				"element": "H" 
			},
			{
				"x": 1.6760381918,
				"y": -0.3523148747,
				"z": 3.6414340007,
				"element": "H" 
			},
			{
				"x": 1.4038272831,
				"y": -1.9071241138,
				"z": 2.826036682,
				"element": "H" 
			}
		],
		 "valence_orbital": [ 
			{
				"type": "occ",
				"energy": -0.30967,
				"method": "rhf"
			},
			{
				"type": "occ",
				"energy": -0.30854,
				"method": "rhf"
			},
			{
				"type": "occ",
				"energy": -0.29312,
				"method": "rhf"
			},
			{
				"type": "occ",
				"energy": -0.28739,
				"method": "rhf"
			},
			{
				"type": "occ",
				"energy": -0.27795,
				"method": "rhf"
			},
			{
				"type": "unocc",
				"energy": -0.08209,
				"method": "rhf"
			},
			{
				"type": "unocc",
				"energy": 0.03501,
				"method": "rhf"
			},
			{
				"type": "unocc",
				"energy": 0.09743,
				"method": "rhf"
			},
			{
				"type": "unocc",
				"energy": 0.10541,
				"method": "rhf"
			},
			{
				"type": "unocc",
				"energy": 0.10817,
				"method": "rhf"
			}
		],
		"cosmo_sigma_profile": { 
			"-0.025": 0.0,
			"-0.024": 0.0,
			"-0.023": 0.0,
			"-0.022": 0.0,
			"-0.021": 0.0,
			"-0.02": 0.0,
			"-0.019": 0.0,
			"-0.018": 0.0,
			"-0.017": 0.0,
			"-0.016": 0.0,
			"-0.015": 0.0,
			"-0.014": 0.0,
			"-0.013": 0.0,
			"-0.012": 0.0,
			"-0.011": 0.0,
			"-0.01": 0.0,
			"-0.009": 0.0,
			"-0.008": 0.754672166699,
			"-0.007": 4.15869518479,
			"-0.006": 13.466335508,
			"-0.005": 15.7086580588,
			"-0.004": 24.158454563,
			"-0.003": 23.6464355309,
			"-0.002": 16.3979297268,
			"-0.001": 12.4080067909,
			"0.0": 12.2914443194,
			"0.001": 8.22182033267,
			"0.002": 6.90849990698,
			"0.003": 4.80343816674,
			"0.004": 7.30876200093,
			"0.005": 4.7286690313,
			"0.006": 4.59175724605,
			"0.007": 4.34497465536,
			"0.008": 3.94318306835,
			"0.009": 2.94772533701,
			"0.01": 4.39048525887,
			"0.011": 8.66694226158,
			"0.012": 5.11260135019,
			"0.013": 0.159176402654,
			"0.014": 0.0,
			"0.015": 0.0,
			"0.016": 0.0,
			"0.017": 0.0,
			"0.018": 0.0,
			"0.019": 0.0,
			"0.02": 0.0,
			"0.021": 0.0,
			"0.022": 0.0,
			"0.023": 0.0,
			"0.024": 0.0,
			"0.025": 0.0
		}
	}
}
