{
	 "smiles": "CC1=C(C=CC=C1O)C(=O)N[C@@H](CSC1=CC=CC=C1)[C@H](O)CN1C[C@H]2CCCC[C@H]2C[C@H]1C(=O)NC(C)(C)C", 
	 "Tm": 622.99, 
	 "num_atms": 85, 
	 "gaussian": { 
		 "optdone": 1, 
		 "sigma_profile": "yes", 
		 "theory": "DFT", 
		 "functional": "B3LYP", 
		 "basiset": "6-31G**", 
		 "properties": { 
			 "R2extent": 22969.012, 
			 "electric_dipole_moment_norm": 8.57088103173, 
			 "electric_quadrupole_moment_norm": 24.8839084613, 
			 "total_energy": -2109.91550221, 
			 "HOMO_LUMO_gap": 0.18576, 
			 "cosmo_polarized_energy": -23.75, 
			 "cosmo_cavitation_energy": 78.51, 
			 "cosmo_dispersion_energy": -47.68, 
			 "cosmo_repulsion_energy": 3.48, 
			 "cosmo_total_nonelectrostatic_energy": 34.31, 
			 "SMD_solvation_energy": 10.75 
		},
		"coords": [
			{
				"x": 4.1042615073,
				"y": 0.0481357775,
				"z": 0.689929566,
				"element": "C" 
			},
			{
				"x": 3.5361861126,
				"y": -0.4890572159,
				"z": -0.6041127667,
				"element": "C" 
			},
			{
				"x": 3.0809844154,
				"y": -1.8191167396,
				"z": -0.7125610057,
				"element": "C" 
			},
			{
				"x": 2.692622213,
				"y": -2.3563852256,
				"z": -1.9456791715,
				"element": "C" 
			},
			{
				"x": 2.7371975687,
				"y": -1.5612586824,
				"z": -3.0922470535,
				"element": "C" 
			},
			{
				"x": 3.0983585898,
				"y": -0.2209475432,
				"z": -2.9929731523,
				"element": "C" 
			},
			{
				"x": 3.4624109066,
				"y": 0.328535392,
				"z": -1.754554975,
				"element": "C" 
			},
			{
				"x": 3.7530758497,
				"y": 1.6583273251,
				"z": -1.7219996014,
				"element": "O" 
			},
			{
				"x": 3.0200187895,
				"y": -2.6753136845,
				"z": 0.5304892785,
				"element": "C" 
			},
			{
				"x": 4.0204231276,
				"y": -3.0713107449,
				"z": 1.116627095,
				"element": "O" 
			},
			{
				"x": 1.7631297765,
				"y": -2.9887367095,
				"z": 1.0080812626,
				"element": "N" 
			},
			{
				"x": 0.4599095766,
				"y": -2.5218339734,
				"z": 0.5280513287,
				"element": "C" 
			},
			{
				"x": -0.6352846255,
				"y": -3.5210069714,
				"z": 0.9409455599,
				"element": "C" 
			},
			{
				"x": -0.6028583701,
				"y": -4.0037849964,
				"z": 2.7401354601,
				"element": "S" 
			},
			{
				"x": -2.325062054,
				"y": -3.830126269,
				"z": 3.2254504984,
				"element": "C" 
			},
			{
				"x": -2.9637954797,
				"y": -2.5816727289,
				"z": 3.2312428648,
				"element": "C" 
			},
			{
				"x": -4.2915289129,
				"y": -2.4892329552,
				"z": 3.6498892402,
				"element": "C" 
			},
			{
				"x": -4.9775101648,
				"y": -3.6257608354,
				"z": 4.0859115036,
				"element": "C" 
			},
			{
				"x": -4.3337012359,
				"y": -4.8637340212,
				"z": 4.0959965268,
				"element": "C" 
			},
			{
				"x": -3.011491109,
				"y": -4.9707566114,
				"z": 3.6596422043,
				"element": "C" 
			},
			{
				"x": 0.169513399,
				"y": -1.0339193318,
				"z": 0.8864698659,
				"element": "C" 
			},
			{
				"x": -0.3397057674,
				"y": -0.8236428779,
				"z": 2.201548447,
				"element": "O" 
			},
			{
				"x": -0.8248993059,
				"y": -0.3998498007,
				"z": -0.0981915129,
				"element": "C" 
			},
			{
				"x": -0.8541653051,
				"y": 1.0626304589,
				"z": -0.0082646792,
				"element": "N" 
			},
			{
				"x": -2.0817386203,
				"y": 1.6761523527,
				"z": -0.5305817906,
				"element": "C" 
			},
			{
				"x": -2.1825603102,
				"y": 1.7258136522,
				"z": -2.0695177795,
				"element": "C" 
			},
			{
				"x": -3.330454292,
				"y": 2.6480279762,
				"z": -2.5104626566,
				"element": "C" 
			},
			{
				"x": -3.5039780638,
				"y": 2.6798745943,
				"z": -4.0420613899,
				"element": "C" 
			},
			{
				"x": -2.1434737554,
				"y": 2.6757011316,
				"z": -4.788473485,
				"element": "C" 
			},
			{
				"x": -0.9971335592,
				"y": 3.1349461214,
				"z": -3.8778164515,
				"element": "C" 
			},
			{
				"x": -0.8114669511,
				"y": 2.1662281447,
				"z": -2.6931156457,
				"element": "C" 
			},
			{
				"x": 0.1216690656,
				"y": 2.7430131341,
				"z": -1.6188057403,
				"element": "C" 
			},
			{
				"x": 0.3824450516,
				"y": 1.7042721612,
				"z": -0.5061388339,
				"element": "C" 
			},
			{
				"x": 1.2148921622,
				"y": 2.3495016816,
				"z": 0.6204155784,
				"element": "C" 
			},
			{
				"x": 2.3579582821,
				"y": 2.7847254967,
				"z": 0.3860491567,
				"element": "O" 
			},
			{
				"x": 0.5895647919,
				"y": 2.4167522664,
				"z": 1.8051795718,
				"element": "N" 
			},
			{
				"x": 1.1048693164,
				"y": 2.9942321905,
				"z": 3.066092595,
				"element": "C" 
			},
			{
				"x": -0.0126750521,
				"y": 2.8107409522,
				"z": 4.1046924283,
				"element": "C" 
			},
			{
				"x": 1.4071622385,
				"y": 4.489696301,
				"z": 2.8615825933,
				"element": "C" 
			},
			{
				"x": 2.3717727812,
				"y": 2.2456370079,
				"z": 3.5186987326,
				"element": "C" 
			},
			{
				"x": 4.7407336011,
				"y": -0.7065599918,
				"z": 1.155533241,
				"element": "H" 
			},
			{
				"x": 3.3287140027,
				"y": 0.3184570936,
				"z": 1.4147826626,
				"element": "H" 
			},
			{
				"x": 4.6952362363,
				"y": 0.9462566931,
				"z": 0.5015375484,
				"element": "H" 
			},
			{
				"x": 2.3774758206,
				"y": -3.394351674,
				"z": -2.0077762504,
				"element": "H" 
			},
			{
				"x": 2.4650157347,
				"y": -1.9798230059,
				"z": -4.0570582786,
				"element": "H" 
			},
			{
				"x": 3.0956627352,
				"y": 0.4329189796,
				"z": -3.8593131714,
				"element": "H" 
			},
			{
				"x": 3.3685508975,
				"y": 2.0786559596,
				"z": -0.9158361846,
				"element": "H" 
			},
			{
				"x": 1.8029601812,
				"y": -3.5123493008,
				"z": 1.8751966628,
				"element": "H" 
			},
			{
				"x": 0.4961303976,
				"y": -2.5540196206,
				"z": -0.5653976748,
				"element": "H" 
			},
			{
				"x": -1.6238494154,
				"y": -3.1073265848,
				"z": 0.7365257506,
				"element": "H" 
			},
			{
				"x": -0.5190467873,
				"y": -4.4406919757,
				"z": 0.3628974936,
				"element": "H" 
			},
			{
				"x": -2.4155809561,
				"y": -1.6990504324,
				"z": 2.9165353379,
				"element": "H" 
			},
			{
				"x": -4.7864327565,
				"y": -1.522019575,
				"z": 3.6503699665,
				"element": "H" 
			},
			{
				"x": -6.0080692805,
				"y": -3.5453561377,
				"z": 4.4192800815,
				"element": "H" 
			},
			{
				"x": -4.8614210565,
				"y": -5.7512237071,
				"z": 4.4331715863,
				"element": "H" 
			},
			{
				"x": -2.5111284852,
				"y": -5.9337827312,
				"z": 3.6502997903,
				"element": "H" 
			},
			{
				"x": 1.1316752925,
				"y": -0.5178734608,
				"z": 0.7810896401,
				"element": "H" 
			},
			{
				"x": 0.0943525974,
				"y": -1.4462596155,
				"z": 2.8040332516,
				"element": "H" 
			},
			{
				"x": -1.828155452,
				"y": -0.7725683391,
				"z": 0.1351562572,
				"element": "H" 
			},
			{
				"x": -0.571591479,
				"y": -0.7420122818,
				"z": -1.1171455286,
				"element": "H" 
			},
			{
				"x": -2.1410804938,
				"y": 2.6977079611,
				"z": -0.133791362,
				"element": "H" 
			},
			{
				"x": -2.9368352511,
				"y": 1.1377626009,
				"z": -0.1077263266,
				"element": "H" 
			},
			{
				"x": -2.4128298809,
				"y": 0.7134566568,
				"z": -2.4294053524,
				"element": "H" 
			},
			{
				"x": -3.126874601,
				"y": 3.6621914591,
				"z": -2.1405250606,
				"element": "H" 
			},
			{
				"x": -4.2686792453,
				"y": 2.3385542207,
				"z": -2.032997694,
				"element": "H" 
			},
			{
				"x": -4.1014423699,
				"y": 1.8183158378,
				"z": -4.3630990428,
				"element": "H" 
			},
			{
				"x": -4.0832516207,
				"y": 3.5696331355,
				"z": -4.3147645677,
				"element": "H" 
			},
			{
				"x": -1.9169744709,
				"y": 1.6619276248,
				"z": -5.1438523462,
				"element": "H" 
			},
			{
				"x": -2.1982189884,
				"y": 3.3048170169,
				"z": -5.6834523644,
				"element": "H" 
			},
			{
				"x": -1.2023740409,
				"y": 4.1483620121,
				"z": -3.5060554432,
				"element": "H" 
			},
			{
				"x": -0.059761232,
				"y": 3.2025197192,
				"z": -4.4419569488,
				"element": "H" 
			},
			{
				"x": -0.3224362666,
				"y": 1.2645789632,
				"z": -3.0890718356,
				"element": "H" 
			},
			{
				"x": -0.3068144736,
				"y": 3.6602321803,
				"z": -1.1942033327,
				"element": "H" 
			},
			{
				"x": 1.0875383189,
				"y": 3.0195251319,
				"z": -2.0503569819,
				"element": "H" 
			},
			{
				"x": 1.0265790492,
				"y": 0.9354276275,
				"z": -0.9482540705,
				"element": "H" 
			},
			{
				"x": -0.2790020553,
				"y": 1.8842326284,
				"z": 1.8184251407,
				"element": "H" 
			},
			{
				"x": -0.2590885779,
				"y": 1.7502208308,
				"z": 4.2263769211,
				"element": "H" 
			},
			{
				"x": -0.920926766,
				"y": 3.344789354,
				"z": 3.80440629,
				"element": "H" 
			},
			{
				"x": 0.3047850324,
				"y": 3.2016866477,
				"z": 5.0753859947,
				"element": "H" 
			},
			{
				"x": 2.1679711216,
				"y": 4.6240306479,
				"z": 2.090197731,
				"element": "H" 
			},
			{
				"x": 0.5029202795,
				"y": 5.0276552193,
				"z": 2.5586746696,
				"element": "H" 
			},
			{
				"x": 1.7716887343,
				"y": 4.930662929,
				"z": 3.7950797911,
				"element": "H" 
			},
			{
				"x": 2.1588142561,
				"y": 1.1802878483,
				"z": 3.6544562222,
				"element": "H" 
			},
			{
				"x": 3.1659437111,
				"y": 2.3543559089,
				"z": 2.7781040727,
				"element": "H" 
			},
			{
				"x": 2.7272754152,
				"y": 2.6479493463,
				"z": 4.4730600472,
				"element": "H" 
			}
		],
		 "valence_orbital": [ 
			{
				"type": "occ",
				"energy": -0.25105,
				"method": "rhf"
			},
			{
				"type": "occ",
				"energy": -0.23347,
				"method": "rhf"
			},
			{
				"type": "occ",
				"energy": -0.23165,
				"method": "rhf"
			},
			{
				"type": "occ",
				"energy": -0.21921,
				"method": "rhf"
			},
			{
				"type": "occ",
				"energy": -0.21421,
				"method": "rhf"
			},
			{
				"type": "unocc",
				"energy": -0.02845,
				"method": "rhf"
			},
			{
				"type": "unocc",
				"energy": -0.01552,
				"method": "rhf"
			},
			{
				"type": "unocc",
				"energy": -0.01005,
				"method": "rhf"
			},
			{
				"type": "unocc",
				"energy": 0.00639,
				"method": "rhf"
			},
			{
				"type": "unocc",
				"energy": 0.01914,
				"method": "rhf"
			}
		],
		"cosmo_sigma_profile": { 
			"-0.025": 0.0,
			"-0.024": 0.0,
			"-0.023": 0.0,
			"-0.022": 0.0,
			"-0.021": 0.0,
			"-0.02": 0.0,
			"-0.019": 0.0,
			"-0.018": 0.0,
			"-0.017": 0.0,
			"-0.016": 0.0,
			"-0.015": 0.0,
			"-0.014": 0.0,
			"-0.013": 0.0,
			"-0.012": 0.014133784649,
			"-0.011": 0.800613255639,
			"-0.01": 1.97416698801,
			"-0.009": 2.28596781789,
			"-0.008": 2.40028357696,
			"-0.007": 2.99246518596,
			"-0.006": 20.2929822797,
			"-0.005": 28.3636877234,
			"-0.004": 38.044815938,
			"-0.003": 54.4621691571,
			"-0.002": 75.6132960935,
			"-0.001": 77.1085518327,
			"0.0": 79.3410682717,
			"0.001": 66.1670795715,
			"0.002": 39.2988412938,
			"0.003": 26.3145036834,
			"0.004": 25.716813717,
			"0.005": 23.9983406812,
			"0.006": 7.86737235408,
			"0.007": 7.10668463124,
			"0.008": 5.56669601075,
			"0.009": 5.22754304051,
			"0.01": 4.59957323102,
			"0.011": 3.51115736414,
			"0.012": 4.64993250243,
			"0.013": 5.77295824322,
			"0.014": 3.4216999631,
			"0.015": 0.275371121302,
			"0.016": 0.0,
			"0.017": 0.0,
			"0.018": 0.0,
			"0.019": 0.0,
			"0.02": 0.0,
			"0.021": 0.0,
			"0.022": 0.0,
			"0.023": 0.0,
			"0.024": 0.0,
			"0.025": 0.0
		}
	}
}
