{
	 "smiles": "BrC(Br)C(=O)C(Br)(Br)Br", 
	 "Tm": 352.65, 
	 "num_atms": 10, 
	 "gaussian": { 
		 "optdone": 1, 
		 "sigma_profile": "yes", 
		 "theory": "DFT", 
		 "functional": "B3LYP", 
		 "basiset": "6-31G**", 
		 "properties": { 
			 "R2extent": 7092.8375, 
			 "electric_dipole_moment_norm": 0.985648862425, 
			 "electric_quadrupole_moment_norm": 3.70149679994, 
			 "total_energy": -13047.1065601, 
			 "HOMO_LUMO_gap": 0.17445, 
			 "cosmo_polarized_energy": -5.48, 
			 "cosmo_cavitation_energy": 25.4, 
			 "cosmo_dispersion_energy": -19.72, 
			 "cosmo_repulsion_energy": 1.59, 
			 "cosmo_total_nonelectrostatic_energy": 7.27, 
			 "SMD_solvation_energy": -0.34 
		},
		"coords": [
			{
				"x": -1.1385804129,
				"y": -4.0174440646,
				"z": -0.4942534872,
				"element": "Br" 
			},
			{
				"x": 0.1907326771,
				"y": -2.6358153331,
				"z": -0.1421278188,
				"element": "C" 
			},
			{
				"x": 0.4025848254,
				"y": -2.2361168558,
				"z": 1.7745083249,
				"element": "Br" 
			},
			{
				"x": 0.0582509114,
				"y": -1.310054118,
				"z": -0.9107910169,
				"element": "C" 
			},
			{
				"x": 1.0684512139,
				"y": -0.8623394784,
				"z": -1.391653854,
				"element": "O" 
			},
			{
				"x": -1.2875827218,
				"y": -0.5487257463,
				"z": -1.1126326581,
				"element": "C" 
			},
			{
				"x": -1.9961530873,
				"y": -1.2297313139,
				"z": -2.8314782823,
				"element": "Br" 
			},
			{
				"x": -0.9166863073,
				"y": 1.3650868194,
				"z": -1.2863925687,
				"element": "Br" 
			},
			{
				"x": -2.6059202721,
				"y": -0.8124962402,
				"z": 0.3014908221,
				"element": "Br" 
			},
			{
				"x": 1.1452031736,
				"y": -3.052463669,
				"z": -0.445969461,
				"element": "H" 
			}
		],
		 "valence_orbital": [ 
			{
				"type": "occ",
				"energy": -0.30358,
				"method": "rhf"
			},
			{
				"type": "occ",
				"energy": -0.29991,
				"method": "rhf"
			},
			{
				"type": "occ",
				"energy": -0.29391,
				"method": "rhf"
			},
			{
				"type": "occ",
				"energy": -0.28469,
				"method": "rhf"
			},
			{
				"type": "occ",
				"energy": -0.27794,
				"method": "rhf"
			},
			{
				"type": "unocc",
				"energy": -0.10349,
				"method": "rhf"
			},
			{
				"type": "unocc",
				"energy": -0.08152,
				"method": "rhf"
			},
			{
				"type": "unocc",
				"energy": -0.05725,
				"method": "rhf"
			},
			{
				"type": "unocc",
				"energy": -0.03112,
				"method": "rhf"
			},
			{
				"type": "unocc",
				"energy": -0.02497,
				"method": "rhf"
			}
		],
		"cosmo_sigma_profile": { 
			"-0.025": 0.0,
			"-0.024": 0.0,
			"-0.023": 0.0,
			"-0.022": 0.0,
			"-0.021": 0.0,
			"-0.02": 0.0,
			"-0.019": 0.0,
			"-0.018": 0.0,
			"-0.017": 0.0,
			"-0.016": 0.0,
			"-0.015": 0.0,
			"-0.014": 0.0,
			"-0.013": 0.0,
			"-0.012": 1.15740934207,
			"-0.011": 1.60183374763,
			"-0.01": 1.54409216395,
			"-0.009": 1.33373246612,
			"-0.008": 1.74439271729,
			"-0.007": 5.36266196428,
			"-0.006": 8.68576111229,
			"-0.005": 8.98153550734,
			"-0.004": 10.0891532292,
			"-0.003": 11.6404065356,
			"-0.002": 12.0449374883,
			"-0.001": 15.7889955701,
			"0.0": 17.8402543541,
			"0.001": 23.4771030248,
			"0.002": 42.0037600761,
			"0.003": 38.0661773103,
			"0.004": 4.95654283003,
			"0.005": 2.55786536309,
			"0.006": 2.08361736138,
			"0.007": 3.51626200031,
			"0.008": 3.87131182297,
			"0.009": 0.380881967918,
			"0.01": 0.0,
			"0.011": 0.0,
			"0.012": 0.0,
			"0.013": 0.0,
			"0.014": 0.0,
			"0.015": 0.0,
			"0.016": 0.0,
			"0.017": 0.0,
			"0.018": 0.0,
			"0.019": 0.0,
			"0.02": 0.0,
			"0.021": 0.0,
			"0.022": 0.0,
			"0.023": 0.0,
			"0.024": 0.0,
			"0.025": 0.0
		}
	}
}
