{
	 "smiles": "CC(=O)NC1=CC(=C(C=CC2=CC=C(C=C2)[N+]([O-])=O)C=C1)[N+]([O-])=O", 
	 "Tm": 509.15, 
	 "num_atms": 37, 
	 "gaussian": { 
		 "optdone": 1, 
		 "sigma_profile": "yes", 
		 "theory": "DFT", 
		 "functional": "B3LYP", 
		 "basiset": "6-31G**", 
		 "properties": { 
			 "R2extent": 14656.5909, 
			 "electric_dipole_moment_norm": 10.6638153796, 
			 "electric_quadrupole_moment_norm": 25.4593936438, 
			 "total_energy": -1157.71574873, 
			 "HOMO_LUMO_gap": 0.12842, 
			 "cosmo_polarized_energy": -25.9, 
			 "cosmo_cavitation_energy": 44.45, 
			 "cosmo_dispersion_energy": -31.15, 
			 "cosmo_repulsion_energy": 2.34, 
			 "cosmo_total_nonelectrostatic_energy": 15.63, 
			 "SMD_solvation_energy": 12.79 
		},
		"coords": [
			{
				"x": -7.2588603468,
				"y": 2.303428838,
				"z": -1.9687337277,
				"element": "C" 
			},
			{
				"x": -5.7406442655,
				"y": 2.2301715199,
				"z": -1.9557606445,
				"element": "C" 
			},
			{
				"x": -5.0438085719,
				"y": 3.1006359031,
				"z": -2.451031054,
				"element": "O" 
			},
			{
				"x": -5.2299401378,
				"y": 1.0869006067,
				"z": -1.3612970547,
				"element": "N" 
			},
			{
				"x": -3.8890895139,
				"y": 0.6969940938,
				"z": -1.2274976693,
				"element": "C" 
			},
			{
				"x": -2.8132789531,
				"y": 1.4729006476,
				"z": -1.6844021685,
				"element": "C" 
			},
			{
				"x": -1.520167525,
				"y": 0.9927196879,
				"z": -1.5230025632,
				"element": "C" 
			},
			{
				"x": -1.2023787652,
				"y": -0.2143288132,
				"z": -0.8714655444,
				"element": "C" 
			},
			{
				"x": 0.1401597487,
				"y": -0.712392063,
				"z": -0.5608516814,
				"element": "C" 
			},
			{
				"x": 1.2487749613,
				"y": 0.0241853347,
				"z": -0.343208181,
				"element": "C" 
			},
			{
				"x": 2.5738676008,
				"y": -0.4916935203,
				"z": 0.0036405399,
				"element": "C" 
			},
			{
				"x": 3.5649755994,
				"y": 0.4211901659,
				"z": 0.4182470804,
				"element": "C" 
			},
			{
				"x": 4.8379060074,
				"y": -0.0040899142,
				"z": 0.777585432,
				"element": "C" 
			},
			{
				"x": 5.1293445602,
				"y": -1.365342406,
				"z": 0.7169047787,
				"element": "C" 
			},
			{
				"x": 4.1804448096,
				"y": -2.3003555467,
				"z": 0.2987741277,
				"element": "C" 
			},
			{
				"x": 2.9144376848,
				"y": -1.8598223942,
				"z": -0.0577358811,
				"element": "C" 
			},
			{
				"x": 6.469294588,
				"y": -1.8283015891,
				"z": 1.0947173625,
				"element": "N" 
			},
			{
				"x": 6.6961681473,
				"y": -3.0373125728,
				"z": 1.029002672,
				"element": "O" 
			},
			{
				"x": 7.2864090695,
				"y": -0.9811602106,
				"z": 1.4569178996,
				"element": "O" 
			},
			{
				"x": -2.3110884168,
				"y": -0.9679740516,
				"z": -0.4393964558,
				"element": "C" 
			},
			{
				"x": -3.6172534726,
				"y": -0.5361027492,
				"z": -0.6117103686,
				"element": "C" 
			},
			{
				"x": -0.4659639942,
				"y": 1.8183061528,
				"z": -2.1497294052,
				"element": "N" 
			},
			{
				"x": -0.406685049,
				"y": 3.000434754,
				"z": -1.815581703,
				"element": "O" 
			},
			{
				"x": 0.2561974397,
				"y": 1.272747001,
				"z": -2.9777602322,
				"element": "O" 
			},
			{
				"x": -7.555319099,
				"y": 3.3340962899,
				"z": -1.7664018327,
				"element": "H" 
			},
			{
				"x": -7.7408030774,
				"y": 1.6399957845,
				"z": -1.2450560385,
				"element": "H" 
			},
			{
				"x": -7.6187308331,
				"y": 2.0465536412,
				"z": -2.9704921093,
				"element": "H" 
			},
			{
				"x": -5.9051141838,
				"y": 0.4358357025,
				"z": -0.9874485331,
				"element": "H" 
			},
			{
				"x": -2.9925937125,
				"y": 2.4189647644,
				"z": -2.1743041755,
				"element": "H" 
			},
			{
				"x": 0.19071543,
				"y": -1.7914865212,
				"z": -0.4304276307,
				"element": "H" 
			},
			{
				"x": 1.183940959,
				"y": 1.1085536591,
				"z": -0.3864787584,
				"element": "H" 
			},
			{
				"x": 3.3255099272,
				"y": 1.4797036859,
				"z": 0.4602077303,
				"element": "H" 
			},
			{
				"x": 5.6026660807,
				"y": 0.6911269529,
				"z": 1.1002341686,
				"element": "H" 
			},
			{
				"x": 4.4527164597,
				"y": -3.3473373532,
				"z": 0.2533991405,
				"element": "H" 
			},
			{
				"x": 2.1870731094,
				"y": -2.5860404098,
				"z": -0.4044119967,
				"element": "H" 
			},
			{
				"x": -2.129632984,
				"y": -1.9116134539,
				"z": 0.066785638,
				"element": "H" 
			},
			{
				"x": -4.437149281,
				"y": -1.1563916167,
				"z": -0.2581311606,
				"element": "H" 
			}
		],
		 "valence_orbital": [ 
			{
				"type": "occ",
				"energy": -0.27804,
				"method": "rhf"
			},
			{
				"type": "occ",
				"energy": -0.27658,
				"method": "rhf"
			},
			{
				"type": "occ",
				"energy": -0.2757,
				"method": "rhf"
			},
			{
				"type": "occ",
				"energy": -0.27032,
				"method": "rhf"
			},
			{
				"type": "occ",
				"energy": -0.22767,
				"method": "rhf"
			},
			{
				"type": "unocc",
				"energy": -0.09925,
				"method": "rhf"
			},
			{
				"type": "unocc",
				"energy": -0.08005,
				"method": "rhf"
			},
			{
				"type": "unocc",
				"energy": -0.05334,
				"method": "rhf"
			},
			{
				"type": "unocc",
				"energy": -0.0308,
				"method": "rhf"
			},
			{
				"type": "unocc",
				"energy": -0.02611,
				"method": "rhf"
			}
		],
		"cosmo_sigma_profile": { 
			"-0.025": 0.0,
			"-0.024": 0.0,
			"-0.023": 0.0,
			"-0.022": 0.0,
			"-0.021": 0.0,
			"-0.02": 0.0,
			"-0.019": 0.0,
			"-0.018": 0.0,
			"-0.017": 0.00996152201538,
			"-0.016": 1.04911862621,
			"-0.015": 1.52383996591,
			"-0.014": 1.64531432632,
			"-0.013": 1.40922511908,
			"-0.012": 1.57555807395,
			"-0.011": 1.69551254158,
			"-0.01": 1.5815136665,
			"-0.009": 3.05021767653,
			"-0.008": 11.4191618874,
			"-0.007": 16.4532399873,
			"-0.006": 21.6719482776,
			"-0.005": 19.9142541355,
			"-0.004": 18.852408413,
			"-0.003": 18.9868701495,
			"-0.002": 22.1857877978,
			"-0.001": 23.979080493,
			"0.0": 25.8623170018,
			"0.001": 35.6993067228,
			"0.002": 29.264809671,
			"0.003": 11.3006685176,
			"0.004": 8.28336030486,
			"0.005": 7.31075725982,
			"0.006": 10.3250602786,
			"0.007": 18.6621304694,
			"0.008": 18.6101772732,
			"0.009": 10.1194940419,
			"0.01": 6.21619121027,
			"0.011": 2.70519008756,
			"0.012": 2.67500934066,
			"0.013": 2.00859152942,
			"0.014": 0.734529593116,
			"0.015": 0.0,
			"0.016": 0.0,
			"0.017": 0.0,
			"0.018": 0.0,
			"0.019": 0.0,
			"0.02": 0.0,
			"0.021": 0.0,
			"0.022": 0.0,
			"0.023": 0.0,
			"0.024": 0.0,
			"0.025": 0.0
		}
	}
}
