{
	 "smiles": "CC1(C)N(CC#N)C(=O)NC1=O", 
	 "Tm": 421.15, 
	 "num_atms": 21, 
	 "gaussian": { 
		 "optdone": 1, 
		 "sigma_profile": "yes", 
		 "theory": "DFT", 
		 "functional": "B3LYP", 
		 "basiset": "6-31G**", 
		 "properties": { 
			 "R2extent": 2352.0527, 
			 "electric_dipole_moment_norm": 3.09844051258, 
			 "electric_quadrupole_moment_norm": 14.4520565554, 
			 "total_energy": -586.892909204, 
			 "HOMO_LUMO_gap": 0.25298, 
			 "cosmo_polarized_energy": -18.52, 
			 "cosmo_cavitation_energy": 25.71, 
			 "cosmo_dispersion_energy": -17.4, 
			 "cosmo_repulsion_energy": 1.38, 
			 "cosmo_total_nonelectrostatic_energy": 9.7, 
			 "SMD_solvation_energy": 7.39 
		},
		"coords": [
			{
				"x": -0.5743215043,
				"y": 0.8049064025,
				"z": 0.8892480304,
				"element": "C" 
			},
			{
				"x": -0.0107612894,
				"y": 0.2491365661,
				"z": -0.4285302468,
				"element": "C" 
			},
			{
				"x": -0.8258545718,
				"y": 0.7359556685,
				"z": -1.6382590066,
				"element": "C" 
			},
			{
				"x": 1.4361785349,
				"y": 0.4978785237,
				"z": -0.5703725013,
				"element": "N" 
			},
			{
				"x": 2.0937560978,
				"y": 1.7850003764,
				"z": -0.5568475935,
				"element": "C" 
			},
			{
				"x": 1.908791658,
				"y": 2.5669449346,
				"z": -1.7956633389,
				"element": "C" 
			},
			{
				"x": 1.7566505243,
				"y": 3.1961544808,
				"z": -2.758423262,
				"element": "N" 
			},
			{
				"x": 2.1864973306,
				"y": -0.6589355735,
				"z": -0.5920595512,
				"element": "C" 
			},
			{
				"x": 3.3952763691,
				"y": -0.7594479693,
				"z": -0.6596069846,
				"element": "O" 
			},
			{
				"x": 1.2670903544,
				"y": -1.7160332891,
				"z": -0.5028397496,
				"element": "N" 
			},
			{
				"x": -0.0406997413,
				"y": -1.2950602499,
				"z": -0.3866533749,
				"element": "C" 
			},
			{
				"x": -1.0273397436,
				"y": -1.9896400244,
				"z": -0.274012503,
				"element": "O" 
			},
			{
				"x": 0.0295038881,
				"y": 0.4856854259,
				"z": 1.7439210976,
				"element": "H" 
			},
			{
				"x": -0.608702988,
				"y": 1.8986880959,
				"z": 0.8701685952,
				"element": "H" 
			},
			{
				"x": -1.5927314725,
				"y": 0.4339942624,
				"z": 1.0276653727,
				"element": "H" 
			},
			{
				"x": -1.8492606151,
				"y": 0.3624154099,
				"z": -1.5508478118,
				"element": "H" 
			},
			{
				"x": -0.3975000027,
				"y": 0.3672595723,
				"z": -2.5739199835,
				"element": "H" 
			},
			{
				"x": -0.8519977678,
				"y": 1.8279341917,
				"z": -1.6799570249,
				"element": "H" 
			},
			{
				"x": 1.7534814329,
				"y": 2.3938849821,
				"z": 0.2894155736,
				"element": "H" 
			},
			{
				"x": 3.1630549693,
				"y": 1.5890648269,
				"z": -0.4244327405,
				"element": "H" 
			},
			{
				"x": 1.5594885371,
				"y": -2.6829866134,
				"z": -0.4983929964,
				"element": "H" 
			}
		],
		 "valence_orbital": [ 
			{
				"type": "occ",
				"energy": -0.33972,
				"method": "rhf"
			},
			{
				"type": "occ",
				"energy": -0.30752,
				"method": "rhf"
			},
			{
				"type": "occ",
				"energy": -0.30342,
				"method": "rhf"
			},
			{
				"type": "occ",
				"energy": -0.27733,
				"method": "rhf"
			},
			{
				"type": "occ",
				"energy": -0.27538,
				"method": "rhf"
			},
			{
				"type": "unocc",
				"energy": -0.0224,
				"method": "rhf"
			},
			{
				"type": "unocc",
				"energy": 0.00854,
				"method": "rhf"
			},
			{
				"type": "unocc",
				"energy": 0.0236,
				"method": "rhf"
			},
			{
				"type": "unocc",
				"energy": 0.0452,
				"method": "rhf"
			},
			{
				"type": "unocc",
				"energy": 0.06393,
				"method": "rhf"
			}
		],
		"cosmo_sigma_profile": { 
			"-0.025": 0.0,
			"-0.024": 0.0,
			"-0.023": 0.0,
			"-0.022": 0.0,
			"-0.021": 0.0,
			"-0.02": 0.0,
			"-0.019": 0.0,
			"-0.018": 0.0376820058071,
			"-0.017": 0.902524480623,
			"-0.016": 1.19779783854,
			"-0.015": 1.44808219153,
			"-0.014": 0.609512203851,
			"-0.013": 0.514817362677,
			"-0.012": 0.574687003659,
			"-0.011": 1.61663306078,
			"-0.01": 3.3873517306,
			"-0.009": 6.42017802416,
			"-0.008": 6.40133029551,
			"-0.007": 7.96783135989,
			"-0.006": 9.22221309389,
			"-0.005": 13.0807169591,
			"-0.004": 15.6875142529,
			"-0.003": 17.0068936667,
			"-0.002": 16.3812811753,
			"-0.001": 16.1809151097,
			"0.0": 8.45917711054,
			"0.001": 5.460171245,
			"0.002": 5.58204909743,
			"0.003": 5.30879911919,
			"0.004": 4.20896720055,
			"0.005": 5.19043258306,
			"0.006": 4.60074100476,
			"0.007": 4.64609581807,
			"0.008": 5.66332974767,
			"0.009": 6.31202708273,
			"0.01": 6.04621426155,
			"0.011": 9.1015406399,
			"0.012": 12.2742461788,
			"0.013": 2.4752615385,
			"0.014": 0.0,
			"0.015": 0.0,
			"0.016": 0.0,
			"0.017": 0.0,
			"0.018": 0.0,
			"0.019": 0.0,
			"0.02": 0.0,
			"0.021": 0.0,
			"0.022": 0.0,
			"0.023": 0.0,
			"0.024": 0.0,
			"0.025": 0.0
		}
	}
}
