{
	 "smiles": "OC(=O)C1=CC=C(OC2=NC=C(C=C2)C(F)(F)F)C=C1", 
	 "Tm": 492.15, 
	 "num_atms": 28, 
	 "gaussian": { 
		 "optdone": 1, 
		 "sigma_profile": "yes", 
		 "theory": "DFT", 
		 "functional": "B3LYP", 
		 "basiset": "6-31G**", 
		 "properties": { 
			 "R2extent": 10000.8409, 
			 "electric_dipole_moment_norm": 4.72228510893, 
			 "electric_quadrupole_moment_norm": 38.9013976539, 
			 "total_energy": -1080.15482031, 
			 "HOMO_LUMO_gap": 0.19223, 
			 "cosmo_polarized_energy": -17.06, 
			 "cosmo_cavitation_energy": 35.76, 
			 "cosmo_dispersion_energy": -25.47, 
			 "cosmo_repulsion_energy": 1.88, 
			 "cosmo_total_nonelectrostatic_energy": 12.16, 
			 "SMD_solvation_energy": 7.94 
		},
		"coords": [
			{
				"x": -1.824567788,
				"y": -0.6640925248,
				"z": -4.9690844964,
				"element": "O" 
			},
			{
				"x": -1.0716897015,
				"y": 0.4583713923,
				"z": -4.809071924,
				"element": "C" 
			},
			{
				"x": -0.5620923652,
				"y": 0.9831143706,
				"z": -5.7713752529,
				"element": "O" 
			},
			{
				"x": -0.9248451266,
				"y": 0.9821728443,
				"z": -3.4135371829,
				"element": "C" 
			},
			{
				"x": -0.5102295502,
				"y": 2.3119163537,
				"z": -3.258967027,
				"element": "C" 
			},
			{
				"x": -0.3479995179,
				"y": 2.8579206863,
				"z": -1.9912342616,
				"element": "C" 
			},
			{
				"x": -0.5853024767,
				"y": 2.0677980928,
				"z": -0.8649698524,
				"element": "C" 
			},
			{
				"x": -0.4985193445,
				"y": 2.7131908167,
				"z": 0.3588509898,
				"element": "O" 
			},
			{
				"x": 0.1545425338,
				"y": 2.17857506,
				"z": 1.4294692039,
				"element": "C" 
			},
			{
				"x": 0.8918701001,
				"y": 1.0884373963,
				"z": 1.28366225,
				"element": "N" 
			},
			{
				"x": 1.5361031765,
				"y": 0.6266640674,
				"z": 2.3647028153,
				"element": "C" 
			},
			{
				"x": 1.4661045326,
				"y": 1.2361414957,
				"z": 3.6134540832,
				"element": "C" 
			},
			{
				"x": 0.6808690438,
				"y": 2.3920327115,
				"z": 3.745236802,
				"element": "C" 
			},
			{
				"x": 0.0087709224,
				"y": 2.8796453009,
				"z": 2.6394225358,
				"element": "C" 
			},
			{
				"x": 2.1710083636,
				"y": 0.6600771395,
				"z": 4.8062849871,
				"element": "C" 
			},
			{
				"x": 3.1297861096,
				"y": -0.2198981609,
				"z": 4.4501259253,
				"element": "F" 
			},
			{
				"x": 2.7546657233,
				"y": 1.6283217966,
				"z": 5.5484707744,
				"element": "F" 
			},
			{
				"x": 1.3136531087,
				"y": 0.008133956,
				"z": 5.625867028,
				"element": "F" 
			},
			{
				"x": -0.9857574927,
				"y": 0.736332324,
				"z": -0.9933020913,
				"element": "C" 
			},
			{
				"x": -1.1496422404,
				"y": 0.2029060257,
				"z": -2.2688100895,
				"element": "C" 
			},
			{
				"x": -2.2992970625,
				"y": -0.8686930276,
				"z": -4.1519911206,
				"element": "H" 
			},
			{
				"x": -0.3188369204,
				"y": 2.9011205808,
				"z": -4.1489725677,
				"element": "H" 
			},
			{
				"x": -0.0395765393,
				"y": 3.8888982723,
				"z": -1.8553744045,
				"element": "H" 
			},
			{
				"x": 2.1402534238,
				"y": -0.2643076976,
				"z": 2.2196939449,
				"element": "H" 
			},
			{
				"x": 0.6094770579,
				"y": 2.8986623085,
				"z": 4.7022814825,
				"element": "H" 
			},
			{
				"x": -0.6080976443,
				"y": 3.7694848227,
				"z": 2.6790926851,
				"element": "H" 
			},
			{
				"x": -1.1488433836,
				"y": 0.1260683789,
				"z": -0.1145946029,
				"element": "H" 
			},
			{
				"x": -1.4210069424,
				"y": -0.8465947823,
				"z": -2.3537306337,
				"element": "H" 
			}
		],
		 "valence_orbital": [ 
			{
				"type": "occ",
				"energy": -0.29641,
				"method": "rhf"
			},
			{
				"type": "occ",
				"energy": -0.28302,
				"method": "rhf"
			},
			{
				"type": "occ",
				"energy": -0.27692,
				"method": "rhf"
			},
			{
				"type": "occ",
				"energy": -0.27218,
				"method": "rhf"
			},
			{
				"type": "occ",
				"energy": -0.2504,
				"method": "rhf"
			},
			{
				"type": "unocc",
				"energy": -0.05817,
				"method": "rhf"
			},
			{
				"type": "unocc",
				"energy": -0.04843,
				"method": "rhf"
			},
			{
				"type": "unocc",
				"energy": -0.0349,
				"method": "rhf"
			},
			{
				"type": "unocc",
				"energy": -0.02654,
				"method": "rhf"
			},
			{
				"type": "unocc",
				"energy": 0.04605,
				"method": "rhf"
			}
		],
		"cosmo_sigma_profile": { 
			"-0.025": 0.0,
			"-0.024": 0.0,
			"-0.023": 0.0,
			"-0.022": 0.0,
			"-0.021": 0.0,
			"-0.02": 0.0,
			"-0.019": 0.260176624941,
			"-0.018": 0.952438750477,
			"-0.017": 0.82410949747,
			"-0.016": 1.17523208962,
			"-0.015": 1.09817458723,
			"-0.014": 1.05848208272,
			"-0.013": 0.802762665988,
			"-0.012": 0.903604258347,
			"-0.011": 1.57071484472,
			"-0.01": 1.35416405162,
			"-0.009": 1.96538436795,
			"-0.008": 7.14870652158,
			"-0.007": 11.8904934815,
			"-0.006": 13.2214467112,
			"-0.005": 11.9285167092,
			"-0.004": 12.2925020119,
			"-0.003": 13.6582986676,
			"-0.002": 16.2687770522,
			"-0.001": 23.7520815065,
			"0.0": 25.7256919323,
			"0.001": 25.113054285,
			"0.002": 36.2486778696,
			"0.003": 33.0701668982,
			"0.004": 6.0743665984,
			"0.005": 4.30194662446,
			"0.006": 4.42011698441,
			"0.007": 5.14910791492,
			"0.008": 3.15930064049,
			"0.009": 4.59578664079,
			"0.01": 5.02677291009,
			"0.011": 6.29518053948,
			"0.012": 5.43050622189,
			"0.013": 1.62259918719,
			"0.014": 0.0802756262138,
			"0.015": 0.0,
			"0.016": 0.0,
			"0.017": 0.0,
			"0.018": 0.0,
			"0.019": 0.0,
			"0.02": 0.0,
			"0.021": 0.0,
			"0.022": 0.0,
			"0.023": 0.0,
			"0.024": 0.0,
			"0.025": 0.0
		}
	}
}
