{
	 "smiles": "CCOC1=C(OC)C=CC(C=CC(O)=O)=C1", 
	 "Tm": 438.15, 
	 "num_atms": 30, 
	 "gaussian": { 
		 "optdone": 1, 
		 "sigma_profile": "yes", 
		 "theory": "DFT", 
		 "functional": "B3LYP", 
		 "basiset": "6-31G**", 
		 "properties": { 
			 "R2extent": 5572.4282, 
			 "electric_dipole_moment_norm": 4.3751625307, 
			 "electric_quadrupole_moment_norm": 15.7355477436, 
			 "total_energy": -766.581577436, 
			 "HOMO_LUMO_gap": 0.15438, 
			 "cosmo_polarized_energy": -14.14, 
			 "cosmo_cavitation_energy": 34.43, 
			 "cosmo_dispersion_energy": -24.57, 
			 "cosmo_repulsion_energy": 1.96, 
			 "cosmo_total_nonelectrostatic_energy": 11.82, 
			 "SMD_solvation_energy": 8.36 
		},
		"coords": [
			{
				"x": 3.6460537313,
				"y": 2.6928475466,
				"z": 2.6451740435,
				"element": "C" 
			},
			{
				"x": 2.691108763,
				"y": 1.7045537973,
				"z": 2.0009494133,
				"element": "C" 
			},
			{
				"x": 1.5139461499,
				"y": 2.4335761874,
				"z": 1.6088801742,
				"element": "O" 
			},
			{
				"x": 0.5304176993,
				"y": 1.70467691,
				"z": 0.9891377686,
				"element": "C" 
			},
			{
				"x": -0.2680918838,
				"y": 0.784160081,
				"z": 1.7081397096,
				"element": "C" 
			},
			{
				"x": 0.03339079,
				"y": 0.6293797539,
				"z": 3.0260570633,
				"element": "O" 
			},
			{
				"x": -0.7691492371,
				"y": -0.2484871691,
				"z": 3.8034581104,
				"element": "C" 
			},
			{
				"x": -1.3060104531,
				"y": 0.1216604618,
				"z": 1.0425652134,
				"element": "C" 
			},
			{
				"x": -1.5522715033,
				"y": 0.3534952527,
				"z": -0.309349693,
				"element": "C" 
			},
			{
				"x": -0.770633797,
				"y": 1.2610235563,
				"z": -1.0412271344,
				"element": "C" 
			},
			{
				"x": -0.9723192791,
				"y": 1.6252081413,
				"z": -2.4462530373,
				"element": "C" 
			},
			{
				"x": -1.5525640358,
				"y": 1.0412446482,
				"z": -3.5215066589,
				"element": "C" 
			},
			{
				"x": -2.1481377016,
				"y": -0.2846892401,
				"z": -3.7557519247,
				"element": "C" 
			},
			{
				"x": -2.0081812725,
				"y": -1.1963861308,
				"z": -2.7559737916,
				"element": "O" 
			},
			{
				"x": -2.7029847899,
				"y": -0.5795844454,
				"z": -4.7994919228,
				"element": "O" 
			},
			{
				"x": 0.2603016416,
				"y": 1.9360301308,
				"z": -0.3510358494,
				"element": "C" 
			},
			{
				"x": 4.5654980662,
				"y": 2.1841642573,
				"z": 2.9519702005,
				"element": "H" 
			},
			{
				"x": 3.1886871716,
				"y": 3.1467913611,
				"z": 3.5289149406,
				"element": "H" 
			},
			{
				"x": 3.9076622284,
				"y": 3.49141326,
				"z": 1.9449223824,
				"element": "H" 
			},
			{
				"x": 2.419305567,
				"y": 0.9067841964,
				"z": 2.7007932856,
				"element": "H" 
			},
			{
				"x": 3.1423492821,
				"y": 1.2430364879,
				"z": 1.1109017816,
				"element": "H" 
			},
			{
				"x": -0.7153014702,
				"y": -1.2800272897,
				"z": 3.4334937855,
				"element": "H" 
			},
			{
				"x": -1.8172845078,
				"y": 0.0744993069,
				"z": 3.8196206652,
				"element": "H" 
			},
			{
				"x": -0.3639268691,
				"y": -0.2068982698,
				"z": 4.815320668,
				"element": "H" 
			},
			{
				"x": -1.9406223394,
				"y": -0.5739025037,
				"z": 1.5789276811,
				"element": "H" 
			},
			{
				"x": -2.3655338014,
				"y": -0.1693454023,
				"z": -0.7917189182,
				"element": "H" 
			},
			{
				"x": -0.5510841999,
				"y": 2.6055775067,
				"z": -2.6721148766,
				"element": "H" 
			},
			{
				"x": -1.577663729,
				"y": 1.6238460624,
				"z": -4.4370697131,
				"element": "H" 
			},
			{
				"x": -2.4194415989,
				"y": -2.0073434334,
				"z": -3.0991602175,
				"element": "H" 
			},
			{
				"x": 0.8774813785,
				"y": 2.6682949783,
				"z": -0.8635731496,
				"element": "H" 
			}
		],
		 "valence_orbital": [ 
			{
				"type": "occ",
				"energy": -0.28162,
				"method": "rhf"
			},
			{
				"type": "occ",
				"energy": -0.2743,
				"method": "rhf"
			},
			{
				"type": "occ",
				"energy": -0.26786,
				"method": "rhf"
			},
			{
				"type": "occ",
				"energy": -0.24426,
				"method": "rhf"
			},
			{
				"type": "occ",
				"energy": -0.21324,
				"method": "rhf"
			},
			{
				"type": "unocc",
				"energy": -0.05886,
				"method": "rhf"
			},
			{
				"type": "unocc",
				"energy": -0.00174,
				"method": "rhf"
			},
			{
				"type": "unocc",
				"energy": 0.02432,
				"method": "rhf"
			},
			{
				"type": "unocc",
				"energy": 0.07723,
				"method": "rhf"
			},
			{
				"type": "unocc",
				"energy": 0.08619,
				"method": "rhf"
			}
		],
		"cosmo_sigma_profile": { 
			"-0.025": 0.0,
			"-0.024": 0.0,
			"-0.023": 0.0,
			"-0.022": 0.0,
			"-0.021": 0.0,
			"-0.02": 0.0,
			"-0.019": 0.0,
			"-0.018": 0.318701558335,
			"-0.017": 1.04273257723,
			"-0.016": 0.553345965575,
			"-0.015": 0.783307481481,
			"-0.014": 1.03708539585,
			"-0.013": 0.683311290481,
			"-0.012": 0.180408525783,
			"-0.011": 0.72460591949,
			"-0.01": 0.9505561432,
			"-0.009": 0.322537841943,
			"-0.008": 0.725598839132,
			"-0.007": 5.7744622865,
			"-0.006": 15.9688136494,
			"-0.005": 16.1979395711,
			"-0.004": 21.7721207348,
			"-0.003": 26.1025824935,
			"-0.002": 23.1445822015,
			"-0.001": 21.7366992788,
			"0.0": 21.9911060983,
			"0.001": 19.054271363,
			"0.002": 16.094869705,
			"0.003": 18.8550971622,
			"0.004": 15.5053903847,
			"0.005": 6.78664421315,
			"0.006": 4.95541834431,
			"0.007": 4.53177459284,
			"0.008": 5.19713106862,
			"0.009": 4.04903647114,
			"0.01": 3.40079419337,
			"0.011": 5.24520751724,
			"0.012": 6.11676345503,
			"0.013": 2.74743521686,
			"0.014": 0.207215588096,
			"0.015": 0.0,
			"0.016": 0.0,
			"0.017": 0.0,
			"0.018": 0.0,
			"0.019": 0.0,
			"0.02": 0.0,
			"0.021": 0.0,
			"0.022": 0.0,
			"0.023": 0.0,
			"0.024": 0.0,
			"0.025": 0.0
		}
	}
}
