{
	 "smiles": "NC1=NC(=O)NC11CCCC1", 
	 "Tm": 524.15, 
	 "num_atms": 22, 
	 "gaussian": { 
		 "optdone": 1, 
		 "sigma_profile": "yes", 
		 "theory": "DFT", 
		 "functional": "B3LYP", 
		 "basiset": "6-31G**", 
		 "properties": { 
			 "R2extent": 1980.3102, 
			 "electric_dipole_moment_norm": 7.48358939146, 
			 "electric_quadrupole_moment_norm": 23.6875657876, 
			 "total_energy": -512.876534027, 
			 "HOMO_LUMO_gap": 0.23008, 
			 "cosmo_polarized_energy": -24.18, 
			 "cosmo_cavitation_energy": 24.29, 
			 "cosmo_dispersion_energy": -17.94, 
			 "cosmo_repulsion_energy": 1.46, 
			 "cosmo_total_nonelectrostatic_energy": 7.8, 
			 "SMD_solvation_energy": 2.29 
		},
		"coords": [
			{
				"x": -2.1071388869,
				"y": -1.5690360055,
				"z": -1.4182205112,
				"element": "N" 
			},
			{
				"x": -0.7562702903,
				"y": -1.4881745473,
				"z": -1.4525316195,
				"element": "C" 
			},
			{
				"x": -0.0141111928,
				"y": -2.2597571072,
				"z": -2.1787989365,
				"element": "N" 
			},
			{
				"x": 1.3328555857,
				"y": -1.8929181013,
				"z": -1.9108150139,
				"element": "C" 
			},
			{
				"x": 2.3202772865,
				"y": -2.3282509276,
				"z": -2.4642361568,
				"element": "O" 
			},
			{
				"x": 1.3394863513,
				"y": -0.9433478342,
				"z": -0.8822284146,
				"element": "N" 
			},
			{
				"x": -0.0037285905,
				"y": -0.4768685489,
				"z": -0.5873402983,
				"element": "C" 
			},
			{
				"x": -0.3543933491,
				"y": -0.5159914075,
				"z": 0.9425014239,
				"element": "C" 
			},
			{
				"x": -0.6335782744,
				"y": 0.9453373529,
				"z": 1.3713282266,
				"element": "C" 
			},
			{
				"x": 0.0255670046,
				"y": 1.805285033,
				"z": 0.2789122979,
				"element": "C" 
			},
			{
				"x": -0.257667742,
				"y": 1.004882535,
				"z": -0.99971716,
				"element": "C" 
			},
			{
				"x": -2.5553646404,
				"y": -2.1778564323,
				"z": -2.0863215315,
				"element": "H" 
			},
			{
				"x": -2.6592687932,
				"y": -0.8421826975,
				"z": -0.9945096198,
				"element": "H" 
			},
			{
				"x": 2.1545834322,
				"y": -0.3595630598,
				"z": -0.7658081355,
				"element": "H" 
			},
			{
				"x": -1.2023433722,
				"y": -1.176762009,
				"z": 1.1455651232,
				"element": "H" 
			},
			{
				"x": 0.5059830971,
				"y": -0.9348626562,
				"z": 1.4701625935,
				"element": "H" 
			},
			{
				"x": -1.7135391261,
				"y": 1.1398616903,
				"z": 1.3839600544,
				"element": "H" 
			},
			{
				"x": -0.2596390469,
				"y": 1.16510462,
				"z": 2.3754274373,
				"element": "H" 
			},
			{
				"x": 1.1078802985,
				"y": 1.8744395646,
				"z": 0.44927898,
				"element": "H" 
			},
			{
				"x": -0.3618632211,
				"y": 2.8278045194,
				"z": 0.2396145358,
				"element": "H" 
			},
			{
				"x": 0.3489164657,
				"y": 1.2863863533,
				"z": -1.8645980235,
				"element": "H" 
			},
			{
				"x": -1.3109429958,
				"y": 1.1366696656,
				"z": -1.2825252515,
				"element": "H" 
			}
		],
		 "valence_orbital": [ 
			{
				"type": "occ",
				"energy": -0.33852,
				"method": "rhf"
			},
			{
				"type": "occ",
				"energy": -0.27236,
				"method": "rhf"
			},
			{
				"type": "occ",
				"energy": -0.25016,
				"method": "rhf"
			},
			{
				"type": "occ",
				"energy": -0.24525,
				"method": "rhf"
			},
			{
				"type": "occ",
				"energy": -0.23666,
				"method": "rhf"
			},
			{
				"type": "unocc",
				"energy": -0.00658,
				"method": "rhf"
			},
			{
				"type": "unocc",
				"energy": 0.04098,
				"method": "rhf"
			},
			{
				"type": "unocc",
				"energy": 0.0767,
				"method": "rhf"
			},
			{
				"type": "unocc",
				"energy": 0.08071,
				"method": "rhf"
			},
			{
				"type": "unocc",
				"energy": 0.09836,
				"method": "rhf"
			}
		],
		"cosmo_sigma_profile": { 
			"-0.025": 0.0,
			"-0.024": 0.0,
			"-0.023": 0.0,
			"-0.022": 0.0,
			"-0.021": 0.0,
			"-0.02": 0.0,
			"-0.019": 0.0,
			"-0.018": 0.0,
			"-0.017": 0.0,
			"-0.016": 0.0,
			"-0.015": 0.586929345012,
			"-0.014": 2.71996805632,
			"-0.013": 3.17084253307,
			"-0.012": 4.09670334564,
			"-0.011": 4.02430765,
			"-0.01": 3.47084038027,
			"-0.009": 3.52878043899,
			"-0.008": 3.51295890238,
			"-0.007": 3.12544451893,
			"-0.006": 4.06585790363,
			"-0.005": 5.38805292096,
			"-0.004": 10.7494318486,
			"-0.003": 20.3356371875,
			"-0.002": 20.6305642472,
			"-0.001": 20.1472147722,
			"0.0": 18.9207485459,
			"0.001": 9.08805986977,
			"0.002": 3.37686965526,
			"0.003": 3.36139112235,
			"0.004": 3.63127448079,
			"0.005": 3.46654323212,
			"0.006": 3.09831166645,
			"0.007": 3.56121159634,
			"0.008": 1.41404370698,
			"0.009": 2.00710441194,
			"0.01": 2.1802269885,
			"0.011": 1.56061035605,
			"0.012": 3.13689537768,
			"0.013": 4.5496479762,
			"0.014": 7.71792268194,
			"0.015": 5.22005885601,
			"0.016": 2.58540621746,
			"0.017": 0.983362859733,
			"0.018": 0.156564206894,
			"0.019": 0.0,
			"0.02": 0.0,
			"0.021": 0.0,
			"0.022": 0.0,
			"0.023": 0.0,
			"0.024": 0.0,
			"0.025": 0.0
		}
	}
}
