{
	 "smiles": "COC1=CC=CC(C(O)=O)=C1O", 
	 "Tm": 425.15, 
	 "num_atms": 20, 
	 "gaussian": { 
		 "optdone": 1, 
		 "sigma_profile": "yes", 
		 "theory": "DFT", 
		 "functional": "B3LYP", 
		 "basiset": "6-31G**", 
		 "properties": { 
			 "R2extent": 2269.1087, 
			 "electric_dipole_moment_norm": 7.93458719468, 
			 "electric_quadrupole_moment_norm": 11.2428010802, 
			 "total_energy": -610.568135674, 
			 "HOMO_LUMO_gap": 0.18944, 
			 "cosmo_polarized_energy": -15.12, 
			 "cosmo_cavitation_energy": 24.0, 
			 "cosmo_dispersion_energy": -18.33, 
			 "cosmo_repulsion_energy": 1.45, 
			 "cosmo_total_nonelectrostatic_energy": 7.12, 
			 "SMD_solvation_energy": 6.35 
		},
		"coords": [
			{
				"x": 1.5357075502,
				"y": -2.2659547489,
				"z": 1.94001419,
				"element": "C" 
			},
			{
				"x": 0.4966429715,
				"y": -1.8997817535,
				"z": 1.0409329692,
				"element": "O" 
			},
			{
				"x": 0.5497043468,
				"y": -0.6568083823,
				"z": 0.45783888,
				"element": "C" 
			},
			{
				"x": 1.5301511335,
				"y": 0.3078608444,
				"z": 0.6531833992,
				"element": "C" 
			},
			{
				"x": 1.4314909419,
				"y": 1.5320901844,
				"z": -0.0253301542,
				"element": "C" 
			},
			{
				"x": 0.3689355971,
				"y": 1.7777789168,
				"z": -0.8808311586,
				"element": "C" 
			},
			{
				"x": -0.6330360091,
				"y": 0.8124530112,
				"z": -1.0905606811,
				"element": "C" 
			},
			{
				"x": -1.7473088848,
				"y": 1.1724532499,
				"z": -2.0386504289,
				"element": "C" 
			},
			{
				"x": -2.7158189908,
				"y": 0.2592616914,
				"z": -2.2496574842,
				"element": "O" 
			},
			{
				"x": -1.7831015609,
				"y": 2.245844291,
				"z": -2.5998755991,
				"element": "O" 
			},
			{
				"x": -0.529967469,
				"y": -0.4058377037,
				"z": -0.4119735548,
				"element": "C" 
			},
			{
				"x": -1.4735169544,
				"y": -1.3865479386,
				"z": -0.5737532869,
				"element": "O" 
			},
			{
				"x": 1.3010613126,
				"y": -3.2748210969,
				"z": 2.2812118791,
				"element": "H" 
			},
			{
				"x": 2.5109290021,
				"y": -2.2682376094,
				"z": 1.4385599578,
				"element": "H" 
			},
			{
				"x": 1.570965869,
				"y": -1.5886260477,
				"z": 2.801698066,
				"element": "H" 
			},
			{
				"x": 2.3632185415,
				"y": 0.1210330263,
				"z": 1.3210614338,
				"element": "H" 
			},
			{
				"x": 2.1962354274,
				"y": 2.2869605029,
				"z": 0.1258483386,
				"element": "H" 
			},
			{
				"x": 0.2723494784,
				"y": 2.7156977787,
				"z": -1.4151942281,
				"element": "H" 
			},
			{
				"x": -2.5480957191,
				"y": -0.5477967232,
				"z": -1.7309807325,
				"element": "H" 
			},
			{
				"x": -1.216146584,
				"y": -2.1411214928,
				"z": -0.0199418053,
				"element": "H" 
			}
		],
		 "valence_orbital": [ 
			{
				"type": "occ",
				"energy": -0.33809,
				"method": "rhf"
			},
			{
				"type": "occ",
				"energy": -0.29645,
				"method": "rhf"
			},
			{
				"type": "occ",
				"energy": -0.25976,
				"method": "rhf"
			},
			{
				"type": "occ",
				"energy": -0.25677,
				"method": "rhf"
			},
			{
				"type": "occ",
				"energy": -0.23045,
				"method": "rhf"
			},
			{
				"type": "unocc",
				"energy": -0.04101,
				"method": "rhf"
			},
			{
				"type": "unocc",
				"energy": -0.00144,
				"method": "rhf"
			},
			{
				"type": "unocc",
				"energy": 0.05096,
				"method": "rhf"
			},
			{
				"type": "unocc",
				"energy": 0.06557,
				"method": "rhf"
			},
			{
				"type": "unocc",
				"energy": 0.07891,
				"method": "rhf"
			}
		],
		"cosmo_sigma_profile": { 
			"-0.025": 0.0,
			"-0.024": 0.0,
			"-0.023": 0.0,
			"-0.022": 0.0,
			"-0.021": 0.0,
			"-0.02": 0.0,
			"-0.019": 0.0,
			"-0.018": 0.0,
			"-0.017": 0.0,
			"-0.016": 0.233893261022,
			"-0.015": 0.470939414124,
			"-0.014": 0.988002607923,
			"-0.013": 0.525823577584,
			"-0.012": 0.430827705571,
			"-0.011": 0.565168639482,
			"-0.01": 0.624709350369,
			"-0.009": 1.19312123078,
			"-0.008": 2.22849687788,
			"-0.007": 5.72351618329,
			"-0.006": 14.8091174731,
			"-0.005": 16.6778094295,
			"-0.004": 16.9422528668,
			"-0.003": 13.4841873013,
			"-0.002": 9.46956132142,
			"-0.001": 12.1990630596,
			"0.0": 13.1271527095,
			"0.001": 14.0242310236,
			"0.002": 13.9387358677,
			"0.003": 11.8739770391,
			"0.004": 9.91964181734,
			"0.005": 3.39766868872,
			"0.006": 2.87186337323,
			"0.007": 2.49267331244,
			"0.008": 2.10659308629,
			"0.009": 2.85651393606,
			"0.01": 3.57354469054,
			"0.011": 5.32279163859,
			"0.012": 5.98032623299,
			"0.013": 3.08166595973,
			"0.014": 0.629494476288,
			"0.015": 0.0,
			"0.016": 0.0,
			"0.017": 0.0,
			"0.018": 0.0,
			"0.019": 0.0,
			"0.02": 0.0,
			"0.021": 0.0,
			"0.022": 0.0,
			"0.023": 0.0,
			"0.024": 0.0,
			"0.025": 0.0
		}
	}
}
