{
	 "smiles": "COC(=O)C1=C(O)C=C(O)C=C1O", 
	 "Tm": 450.15, 
	 "num_atms": 21, 
	 "gaussian": { 
		 "optdone": 1, 
		 "sigma_profile": "yes", 
		 "theory": "DFT", 
		 "functional": "B3LYP", 
		 "basiset": "6-31G**", 
		 "properties": { 
			 "R2extent": 2645.4108, 
			 "electric_dipole_moment_norm": 3.42313698674, 
			 "electric_quadrupole_moment_norm": 21.3815025571, 
			 "total_energy": -685.777576547, 
			 "HOMO_LUMO_gap": 0.20987, 
			 "cosmo_polarized_energy": -24.76, 
			 "cosmo_cavitation_energy": 26.2, 
			 "cosmo_dispersion_energy": -19.24, 
			 "cosmo_repulsion_energy": 1.55, 
			 "cosmo_total_nonelectrostatic_energy": 8.5, 
			 "SMD_solvation_energy": 7.16 
		},
		"coords": [
			{
				"x": 0.5339550509,
				"y": -3.2456845956,
				"z": 0.996447501,
				"element": "C" 
			},
			{
				"x": 0.6277024438,
				"y": -1.8835438338,
				"z": 0.557192869,
				"element": "O" 
			},
			{
				"x": -0.3868544956,
				"y": -1.0841263369,
				"z": 0.9589287943,
				"element": "C" 
			},
			{
				"x": -1.280378265,
				"y": -1.4612349259,
				"z": 1.6871100987,
				"element": "O" 
			},
			{
				"x": -0.2517093553,
				"y": 0.2994374879,
				"z": 0.4116996268,
				"element": "C" 
			},
			{
				"x": -0.3816773148,
				"y": 1.4096138785,
				"z": 1.2667345288,
				"element": "C" 
			},
			{
				"x": -0.5529103863,
				"y": 1.164801068,
				"z": 2.5920818314,
				"element": "O" 
			},
			{
				"x": -0.2990773603,
				"y": 2.7184573791,
				"z": 0.7793358379,
				"element": "C" 
			},
			{
				"x": -0.098831339,
				"y": 2.9299159019,
				"z": -0.5865947838,
				"element": "C" 
			},
			{
				"x": -0.0149669335,
				"y": 4.1781013121,
				"z": -1.1261325825,
				"element": "O" 
			},
			{
				"x": 0.0243431359,
				"y": 1.851157635,
				"z": -1.4622602017,
				"element": "C" 
			},
			{
				"x": -0.0496942448,
				"y": 0.5502511141,
				"z": -0.9606377736,
				"element": "C" 
			},
			{
				"x": 0.0329584788,
				"y": -0.5227141131,
				"z": -1.7929000527,
				"element": "O" 
			},
			{
				"x": 1.4022287829,
				"y": -3.7514091533,
				"z": 0.5732879423,
				"element": "H" 
			},
			{
				"x": 0.5508554905,
				"y": -3.302871432,
				"z": 2.0881154571,
				"element": "H" 
			},
			{
				"x": -0.3902500224,
				"y": -3.7061944933,
				"z": 0.6371854892,
				"element": "H" 
			},
			{
				"x": -0.6235196203,
				"y": 2.0044108273,
				"z": 3.0635971054,
				"element": "H" 
			},
			{
				"x": -0.38415126,
				"y": 3.5611241573,
				"z": 1.4626322519,
				"element": "H" 
			},
			{
				"x": -0.1257580768,
				"y": 4.8365450934,
				"z": -0.4282403912,
				"element": "H" 
			},
			{
				"x": 0.1670899669,
				"y": 2.0409111171,
				"z": -2.5215101853,
				"element": "H" 
			},
			{
				"x": 0.1342453243,
				"y": -0.2057480878,
				"z": -2.6996733632,
				"element": "H" 
			}
		],
		 "valence_orbital": [ 
			{
				"type": "occ",
				"energy": -0.29205,
				"method": "rhf"
			},
			{
				"type": "occ",
				"energy": -0.28224,
				"method": "rhf"
			},
			{
				"type": "occ",
				"energy": -0.25853,
				"method": "rhf"
			},
			{
				"type": "occ",
				"energy": -0.22491,
				"method": "rhf"
			},
			{
				"type": "occ",
				"energy": -0.22064,
				"method": "rhf"
			},
			{
				"type": "unocc",
				"energy": -0.01077,
				"method": "rhf"
			},
			{
				"type": "unocc",
				"energy": 0.01233,
				"method": "rhf"
			},
			{
				"type": "unocc",
				"energy": 0.04893,
				"method": "rhf"
			},
			{
				"type": "unocc",
				"energy": 0.05581,
				"method": "rhf"
			},
			{
				"type": "unocc",
				"energy": 0.06369,
				"method": "rhf"
			}
		],
		"cosmo_sigma_profile": { 
			"-0.025": 0.0,
			"-0.024": 0.0,
			"-0.023": 0.0,
			"-0.022": 0.0,
			"-0.021": 0.0,
			"-0.02": 0.0,
			"-0.019": 0.202472129525,
			"-0.018": 3.17500699162,
			"-0.017": 3.20374289616,
			"-0.016": 3.4991833917,
			"-0.015": 3.42810473049,
			"-0.014": 2.35311818373,
			"-0.013": 2.18746783378,
			"-0.012": 2.39958724717,
			"-0.011": 3.38223662391,
			"-0.01": 3.59672139494,
			"-0.009": 3.69158056179,
			"-0.008": 2.88065827519,
			"-0.007": 4.07641364414,
			"-0.006": 7.72676194747,
			"-0.005": 9.28333860156,
			"-0.004": 9.88684817869,
			"-0.003": 11.2097148209,
			"-0.002": 7.14352144816,
			"-0.001": 6.89316877977,
			"0.0": 6.95293943243,
			"0.001": 9.1443179165,
			"0.002": 12.437200592,
			"0.003": 17.4386243247,
			"0.004": 14.9931391926,
			"0.005": 6.76270549461,
			"0.006": 5.93770457759,
			"0.007": 6.16049242063,
			"0.008": 7.10485785689,
			"0.009": 5.60391249852,
			"0.01": 6.19114563293,
			"0.011": 6.17612299859,
			"0.012": 6.44329633146,
			"0.013": 3.62558702977,
			"0.014": 1.99693040561,
			"0.015": 0.535892323405,
			"0.016": 0.0,
			"0.017": 0.0,
			"0.018": 0.0,
			"0.019": 0.0,
			"0.02": 0.0,
			"0.021": 0.0,
			"0.022": 0.0,
			"0.023": 0.0,
			"0.024": 0.0,
			"0.025": 0.0
		}
	}
}
