{
	 "smiles": "OC(=O)CCC1=NN=NN1C1=CC=CC=C1", 
	 "Tm": 393.15, 
	 "num_atms": 26, 
	 "gaussian": { 
		 "optdone": 1, 
		 "sigma_profile": "yes", 
		 "theory": "DFT", 
		 "functional": "B3LYP", 
		 "basiset": "6-31G**", 
		 "properties": { 
			 "R2extent": 4189.617, 
			 "electric_dipole_moment_norm": 6.63599438366, 
			 "electric_quadrupole_moment_norm": 16.2260908561, 
			 "total_energy": -756.506356718, 
			 "HOMO_LUMO_gap": 0.2191, 
			 "cosmo_polarized_energy": -21.64, 
			 "cosmo_cavitation_energy": 31.25, 
			 "cosmo_dispersion_energy": -21.99, 
			 "cosmo_repulsion_energy": 1.72, 
			 "cosmo_total_nonelectrostatic_energy": 10.99, 
			 "SMD_solvation_energy": 4.6 
		},
		"coords": [
			{
				"x": -2.7516581033,
				"y": 1.914553956,
				"z": -1.6784991976,
				"element": "O" 
			},
			{
				"x": -2.8806220794,
				"y": 0.683914578,
				"z": -1.1320781801,
				"element": "C" 
			},
			{
				"x": -3.88133615,
				"y": 0.3094618319,
				"z": -0.5666366825,
				"element": "O" 
			},
			{
				"x": -1.6388787452,
				"y": -0.1595742332,
				"z": -1.3587278593,
				"element": "C" 
			},
			{
				"x": -0.3259361343,
				"y": 0.5216277227,
				"z": -0.911581241,
				"element": "C" 
			},
			{
				"x": -0.2653258917,
				"y": 0.8017556044,
				"z": 0.5581259999,
				"element": "C" 
			},
			{
				"x": -0.9198738497,
				"y": 1.7709941867,
				"z": 1.1729496892,
				"element": "N" 
			},
			{
				"x": -0.5621353343,
				"y": 1.7083222453,
				"z": 2.4817001336,
				"element": "N" 
			},
			{
				"x": 0.2785674728,
				"y": 0.7545032782,
				"z": 2.6926317166,
				"element": "N" 
			},
			{
				"x": 0.4849178725,
				"y": 0.1476710323,
				"z": 1.4867344622,
				"element": "N" 
			},
			{
				"x": 1.4051634893,
				"y": -0.9358660753,
				"z": 1.3725047742,
				"element": "C" 
			},
			{
				"x": 2.6572895276,
				"y": -0.8223167722,
				"z": 1.9838988374,
				"element": "C" 
			},
			{
				"x": 3.5605813299,
				"y": -1.8787610433,
				"z": 1.8868595796,
				"element": "C" 
			},
			{
				"x": 3.2230263432,
				"y": -3.0342266325,
				"z": 1.1775363848,
				"element": "C" 
			},
			{
				"x": 1.9684653118,
				"y": -3.1396745702,
				"z": 0.5754680221,
				"element": "C" 
			},
			{
				"x": 1.0488215201,
				"y": -2.0953374966,
				"z": 0.678826903,
				"element": "C" 
			},
			{
				"x": -3.5587045653,
				"y": 2.4040701196,
				"z": -1.4475048617,
				"element": "H" 
			},
			{
				"x": -1.8003622407,
				"y": -1.1078296467,
				"z": -0.8416041268,
				"element": "H" 
			},
			{
				"x": -1.568496877,
				"y": -0.368226546,
				"z": -2.4329753131,
				"element": "H" 
			},
			{
				"x": 0.5218372082,
				"y": -0.1036417962,
				"z": -1.2036489345,
				"element": "H" 
			},
			{
				"x": -0.2316564675,
				"y": 1.4775706726,
				"z": -1.433108144,
				"element": "H" 
			},
			{
				"x": 2.9025575774,
				"y": 0.0821418658,
				"z": 2.5287453267,
				"element": "H" 
			},
			{
				"x": 4.5327885863,
				"y": -1.7956371949,
				"z": 2.3627026878,
				"element": "H" 
			},
			{
				"x": 3.9329486248,
				"y": -3.8519689878,
				"z": 1.1006473182,
				"element": "H" 
			},
			{
				"x": 1.6945439768,
				"y": -4.0416371503,
				"z": 0.0369841505,
				"element": "H" 
			},
			{
				"x": 0.0571775979,
				"y": -2.1903889482,
				"z": 0.2499485547,
				"element": "H" 
			}
		],
		 "valence_orbital": [ 
			{
				"type": "occ",
				"energy": -0.29207,
				"method": "rhf"
			},
			{
				"type": "occ",
				"energy": -0.28487,
				"method": "rhf"
			},
			{
				"type": "occ",
				"energy": -0.27871,
				"method": "rhf"
			},
			{
				"type": "occ",
				"energy": -0.27569,
				"method": "rhf"
			},
			{
				"type": "occ",
				"energy": -0.26336,
				"method": "rhf"
			},
			{
				"type": "unocc",
				"energy": -0.04426,
				"method": "rhf"
			},
			{
				"type": "unocc",
				"energy": -0.02967,
				"method": "rhf"
			},
			{
				"type": "unocc",
				"energy": -0.00058,
				"method": "rhf"
			},
			{
				"type": "unocc",
				"energy": 0.0009,
				"method": "rhf"
			},
			{
				"type": "unocc",
				"energy": 0.02297,
				"method": "rhf"
			}
		],
		"cosmo_sigma_profile": { 
			"-0.025": 0.0,
			"-0.024": 0.0,
			"-0.023": 0.0,
			"-0.022": 0.0,
			"-0.021": 0.0,
			"-0.02": 0.0,
			"-0.019": 0.0362025965409,
			"-0.018": 0.904088720597,
			"-0.017": 0.866686242435,
			"-0.016": 0.749938174941,
			"-0.015": 0.962070337423,
			"-0.014": 0.683643343629,
			"-0.013": 0.83121797639,
			"-0.012": 0.377497049358,
			"-0.011": 0.79295396763,
			"-0.01": 1.85237960878,
			"-0.009": 1.72271468902,
			"-0.008": 4.50125693786,
			"-0.007": 14.2201440974,
			"-0.006": 22.6184586026,
			"-0.005": 24.4996068735,
			"-0.004": 18.837393544,
			"-0.003": 13.9281220289,
			"-0.002": 9.77753354296,
			"-0.001": 9.6526577625,
			"0.0": 11.3707428625,
			"0.001": 12.1909427493,
			"0.002": 12.4364194719,
			"0.003": 16.2040034271,
			"0.004": 10.0790950848,
			"0.005": 4.80867683551,
			"0.006": 6.41020427594,
			"0.007": 6.84613565901,
			"0.008": 8.50318404272,
			"0.009": 7.03533935374,
			"0.01": 6.91122753493,
			"0.011": 8.24215941933,
			"0.012": 7.26791351795,
			"0.013": 2.58851615467,
			"0.014": 1.19387418809,
			"0.015": 0.0,
			"0.016": 0.0,
			"0.017": 0.0,
			"0.018": 0.0,
			"0.019": 0.0,
			"0.02": 0.0,
			"0.021": 0.0,
			"0.022": 0.0,
			"0.023": 0.0,
			"0.024": 0.0,
			"0.025": 0.0
		}
	}
}
