{
	 "smiles": "NC1=C(C=CC=C1)C(=NO)C1=CC=CC=C1", 
	 "Tm": 431.15, 
	 "num_atms": 28, 
	 "gaussian": { 
		 "optdone": 1, 
		 "sigma_profile": "yes", 
		 "theory": "DFT", 
		 "functional": "B3LYP", 
		 "basiset": "6-31G**", 
		 "properties": { 
			 "R2extent": 4543.8157, 
			 "electric_dipole_moment_norm": 1.69442087452, 
			 "electric_quadrupole_moment_norm": 7.6825381906, 
			 "total_energy": -687.288360601, 
			 "HOMO_LUMO_gap": 0.16115, 
			 "cosmo_polarized_energy": -13.15, 
			 "cosmo_cavitation_energy": 31.81, 
			 "cosmo_dispersion_energy": -22.6, 
			 "cosmo_repulsion_energy": 1.79, 
			 "cosmo_total_nonelectrostatic_energy": 10.99, 
			 "SMD_solvation_energy": 5.34 
		},
		"coords": [
			{
				"x": 0.9151496717,
				"y": 2.4709299183,
				"z": -0.1908783151,
				"element": "N" 
			},
			{
				"x": 1.8375372416,
				"y": 1.4943966353,
				"z": 0.1757488032,
				"element": "C" 
			},
			{
				"x": 1.6912408675,
				"y": 0.7472268852,
				"z": 1.3705049707,
				"element": "C" 
			},
			{
				"x": 2.6952564249,
				"y": -0.1597272104,
				"z": 1.7384173767,
				"element": "C" 
			},
			{
				"x": 3.8224571721,
				"y": -0.3615344205,
				"z": 0.9475514301,
				"element": "C" 
			},
			{
				"x": 3.958249902,
				"y": 0.369872125,
				"z": -0.2357703818,
				"element": "C" 
			},
			{
				"x": 2.9824280931,
				"y": 1.2837233731,
				"z": -0.6155355343,
				"element": "C" 
			},
			{
				"x": 0.4881381146,
				"y": 0.9095765768,
				"z": 2.2384752941,
				"element": "C" 
			},
			{
				"x": 0.5172230927,
				"y": 1.3030193611,
				"z": 3.4679555855,
				"element": "N" 
			},
			{
				"x": 1.800497478,
				"y": 1.6363476178,
				"z": 3.9079682222,
				"element": "O" 
			},
			{
				"x": -0.8664115097,
				"y": 0.5770492523,
				"z": 1.7104287358,
				"element": "C" 
			},
			{
				"x": -2.0257607176,
				"y": 1.1089866501,
				"z": 2.3055688119,
				"element": "C" 
			},
			{
				"x": -3.2874279626,
				"y": 0.7736586656,
				"z": 1.8225659129,
				"element": "C" 
			},
			{
				"x": -3.4196549287,
				"y": -0.0927096184,
				"z": 0.7329344116,
				"element": "C" 
			},
			{
				"x": -2.2772092532,
				"y": -0.6210808403,
				"z": 0.1310699835,
				"element": "C" 
			},
			{
				"x": -1.0106307545,
				"y": -0.2890643369,
				"z": 0.613389853,
				"element": "C" 
			},
			{
				"x": -0.0207503961,
				"y": 2.3578639344,
				"z": 0.1733172753,
				"element": "H" 
			},
			{
				"x": 0.9189768856,
				"y": 2.71496317,
				"z": -1.1712367381,
				"element": "H" 
			},
			{
				"x": 2.5739411285,
				"y": -0.7135651629,
				"z": 2.6638708328,
				"element": "H" 
			},
			{
				"x": 4.5826387783,
				"y": -1.0752603952,
				"z": 1.2483496358,
				"element": "H" 
			},
			{
				"x": 4.8300111142,
				"y": 0.2282211381,
				"z": -0.8687847363,
				"element": "H" 
			},
			{
				"x": 3.0997495997,
				"y": 1.8570976432,
				"z": -1.5321981144,
				"element": "H" 
			},
			{
				"x": 1.6340305006,
				"y": 1.897872699,
				"z": 4.8236721561,
				"element": "H" 
			},
			{
				"x": -1.9174563602,
				"y": 1.783196674,
				"z": 3.1478208481,
				"element": "H" 
			},
			{
				"x": -4.1717748675,
				"y": 1.194625494,
				"z": 2.2927087207,
				"element": "H" 
			},
			{
				"x": -4.4052846855,
				"y": -0.3493133773,
				"z": 0.3552878686,
				"element": "H" 
			},
			{
				"x": -2.3691371446,
				"y": -1.2973984375,
				"z": -0.7140905655,
				"element": "H" 
			},
			{
				"x": -0.125027485,
				"y": -0.7105740138,
				"z": 0.1486876567,
				"element": "H" 
			}
		],
		 "valence_orbital": [ 
			{
				"type": "occ",
				"energy": -0.26899,
				"method": "rhf"
			},
			{
				"type": "occ",
				"energy": -0.25266,
				"method": "rhf"
			},
			{
				"type": "occ",
				"energy": -0.24513,
				"method": "rhf"
			},
			{
				"type": "occ",
				"energy": -0.22181,
				"method": "rhf"
			},
			{
				"type": "occ",
				"energy": -0.19914,
				"method": "rhf"
			},
			{
				"type": "unocc",
				"energy": -0.03799,
				"method": "rhf"
			},
			{
				"type": "unocc",
				"energy": -0.00386,
				"method": "rhf"
			},
			{
				"type": "unocc",
				"energy": -0.0009,
				"method": "rhf"
			},
			{
				"type": "unocc",
				"energy": 0.01981,
				"method": "rhf"
			},
			{
				"type": "unocc",
				"energy": 0.05369,
				"method": "rhf"
			}
		],
		"cosmo_sigma_profile": { 
			"-0.025": 0.0,
			"-0.024": 0.0,
			"-0.023": 0.0,
			"-0.022": 0.0,
			"-0.021": 0.0,
			"-0.02": 0.0,
			"-0.019": 0.0,
			"-0.018": 0.16705662521,
			"-0.017": 0.778653904471,
			"-0.016": 1.05702262321,
			"-0.015": 0.944464149356,
			"-0.014": 1.15625805109,
			"-0.013": 0.568990457263,
			"-0.012": 1.52866201623,
			"-0.011": 2.49751851819,
			"-0.01": 2.20110008868,
			"-0.009": 4.11365787665,
			"-0.008": 2.48648549705,
			"-0.007": 3.26982539464,
			"-0.006": 9.33894340851,
			"-0.005": 17.5769812535,
			"-0.004": 20.7966973423,
			"-0.003": 18.8659407289,
			"-0.002": 15.1985356568,
			"-0.001": 15.7210152341,
			"0.0": 15.3603633177,
			"0.001": 15.2250742673,
			"0.002": 15.1152030447,
			"0.003": 16.348504672,
			"0.004": 18.3190390053,
			"0.005": 19.679545245,
			"0.006": 12.1828591385,
			"0.007": 6.99151054613,
			"0.008": 3.99969108307,
			"0.009": 3.89342195712,
			"0.01": 2.80882125639,
			"0.011": 3.3159993924,
			"0.012": 1.09399924816,
			"0.013": 0.781757076556,
			"0.014": 0.27096840756,
			"0.015": 0.0,
			"0.016": 0.0,
			"0.017": 0.0,
			"0.018": 0.0,
			"0.019": 0.0,
			"0.02": 0.0,
			"0.021": 0.0,
			"0.022": 0.0,
			"0.023": 0.0,
			"0.024": 0.0,
			"0.025": 0.0
		}
	}
}
