{
	 "smiles": "OC(=O)COC1=CC=C(Cl)C=C1Cl", 
	 "Tm": 412.15, 
	 "num_atms": 19, 
	 "gaussian": { 
		 "optdone": 1, 
		 "sigma_profile": "yes", 
		 "theory": "DFT", 
		 "functional": "B3LYP", 
		 "basiset": "6-31G**", 
		 "properties": { 
			 "R2extent": 4315.8483, 
			 "electric_dipole_moment_norm": 3.15533857137, 
			 "electric_quadrupole_moment_norm": 22.1578445267, 
			 "total_energy": -1454.51614575, 
			 "HOMO_LUMO_gap": 0.20655, 
			 "cosmo_polarized_energy": -13.55, 
			 "cosmo_cavitation_energy": 27.93, 
			 "cosmo_dispersion_energy": -20.58, 
			 "cosmo_repulsion_energy": 1.64, 
			 "cosmo_total_nonelectrostatic_energy": 8.99, 
			 "SMD_solvation_energy": 5.85 
		},
		"coords": [
			{
				"x": 3.0087985793,
				"y": 0.3278752559,
				"z": 1.8086063372,
				"element": "O" 
			},
			{
				"x": 2.9204240444,
				"y": -1.0076323725,
				"z": 1.7338689272,
				"element": "C" 
			},
			{
				"x": 3.7118290827,
				"y": -1.7536674981,
				"z": 2.2524049265,
				"element": "O" 
			},
			{
				"x": 1.7345339557,
				"y": -1.5567978541,
				"z": 0.9358865425,
				"element": "C" 
			},
			{
				"x": 0.9736259234,
				"y": -0.4606562239,
				"z": 0.4415853849,
				"element": "O" 
			},
			{
				"x": -0.1436269211,
				"y": -0.686911814,
				"z": -0.3065760428,
				"element": "C" 
			},
			{
				"x": -0.6236616038,
				"y": -1.9556817271,
				"z": -0.6420938098,
				"element": "C" 
			},
			{
				"x": -1.7782058038,
				"y": -2.0970689148,
				"z": -1.4141458238,
				"element": "C" 
			},
			{
				"x": -2.4551201987,
				"y": -0.963363186,
				"z": -1.8522107503,
				"element": "C" 
			},
			{
				"x": -3.906041321,
				"y": -1.1306579193,
				"z": -2.8223301927,
				"element": "Cl" 
			},
			{
				"x": -1.9945052227,
				"y": 0.3141419824,
				"z": -1.5295398184,
				"element": "C" 
			},
			{
				"x": -0.8439161143,
				"y": 0.4454338268,
				"z": -0.760241045,
				"element": "C" 
			},
			{
				"x": -0.2593264179,
				"y": 2.0425658182,
				"z": -0.3510295105,
				"element": "Cl" 
			},
			{
				"x": 2.2653341418,
				"y": 0.7212099691,
				"z": 1.3173888277,
				"element": "H" 
			},
			{
				"x": 2.1250222527,
				"y": -2.1740465496,
				"z": 0.1180073001,
				"element": "H" 
			},
			{
				"x": 1.136370759,
				"y": -2.1921661359,
				"z": 1.5998921018,
				"element": "H" 
			},
			{
				"x": -0.1029945598,
				"y": -2.8440895557,
				"z": -0.3053592453,
				"element": "H" 
			},
			{
				"x": -2.1440739544,
				"y": -3.084676735,
				"z": -1.6701176423,
				"element": "H" 
			},
			{
				"x": -2.5210666214,
				"y": 1.1971896334,
				"z": -1.8702964669,
				"element": "H" 
			}
		],
		 "valence_orbital": [ 
			{
				"type": "occ",
				"energy": -0.32759,
				"method": "rhf"
			},
			{
				"type": "occ",
				"energy": -0.32014,
				"method": "rhf"
			},
			{
				"type": "occ",
				"energy": -0.28437,
				"method": "rhf"
			},
			{
				"type": "occ",
				"energy": -0.27904,
				"method": "rhf"
			},
			{
				"type": "occ",
				"energy": -0.24883,
				"method": "rhf"
			},
			{
				"type": "unocc",
				"energy": -0.04228,
				"method": "rhf"
			},
			{
				"type": "unocc",
				"energy": -0.02863,
				"method": "rhf"
			},
			{
				"type": "unocc",
				"energy": -0.00722,
				"method": "rhf"
			},
			{
				"type": "unocc",
				"energy": 0.00044,
				"method": "rhf"
			},
			{
				"type": "unocc",
				"energy": 0.03533,
				"method": "rhf"
			}
		],
		"cosmo_sigma_profile": { 
			"-0.025": 0.0,
			"-0.024": 0.0,
			"-0.023": 0.0,
			"-0.022": 0.0,
			"-0.021": 0.0,
			"-0.02": 0.0,
			"-0.019": 0.0,
			"-0.018": 0.0,
			"-0.017": 0.0,
			"-0.016": 0.0,
			"-0.015": 0.0,
			"-0.014": 0.0,
			"-0.013": 0.0,
			"-0.012": 0.0,
			"-0.011": 0.310858708804,
			"-0.01": 2.05345381316,
			"-0.009": 10.6434284945,
			"-0.008": 11.3019198465,
			"-0.007": 12.4219276246,
			"-0.006": 9.10243775408,
			"-0.005": 8.12444159766,
			"-0.004": 8.80892145248,
			"-0.003": 7.56295682364,
			"-0.002": 10.4749636814,
			"-0.001": 13.3558188129,
			"0.0": 19.697034352,
			"0.001": 25.4697692041,
			"0.002": 22.2001988711,
			"0.003": 15.5114451689,
			"0.004": 18.2266676104,
			"0.005": 6.43187703141,
			"0.006": 2.00955143252,
			"0.007": 3.15440555547,
			"0.008": 2.83137299907,
			"0.009": 4.37081053074,
			"0.01": 4.27135536843,
			"0.011": 5.40897682742,
			"0.012": 4.28631364882,
			"0.013": 0.637433282069,
			"0.014": 0.0,
			"0.015": 0.0,
			"0.016": 0.0,
			"0.017": 0.0,
			"0.018": 0.0,
			"0.019": 0.0,
			"0.02": 0.0,
			"0.021": 0.0,
			"0.022": 0.0,
			"0.023": 0.0,
			"0.024": 0.0,
			"0.025": 0.0
		}
	}
}
