{
	 "smiles": "CCC(C)=NO", 
	 "Tm": 243.35, 
	 "num_atms": 15, 
	 "gaussian": { 
		 "optdone": 1, 
		 "sigma_profile": "yes", 
		 "theory": "DFT", 
		 "functional": "B3LYP", 
		 "basiset": "6-31G**", 
		 "properties": { 
			 "R2extent": 1233.0978, 
			 "electric_dipole_moment_norm": 0.661462153112, 
			 "electric_quadrupole_moment_norm": 2.28950664336, 
			 "total_energy": -287.776082501, 
			 "HOMO_LUMO_gap": 0.25508, 
			 "cosmo_polarized_energy": -6.54, 
			 "cosmo_cavitation_energy": 18.09, 
			 "cosmo_dispersion_energy": -13.24, 
			 "cosmo_repulsion_energy": 1.17, 
			 "cosmo_total_nonelectrostatic_energy": 6.03, 
			 "SMD_solvation_energy": 3.44 
		},
		"coords": [
			{
				"x": 0.6769230793,
				"y": 0.6470790981,
				"z": -1.3012952834,
				"element": "C" 
			},
			{
				"x": -0.0642238102,
				"y": 0.596590475,
				"z": 0.0459546231,
				"element": "C" 
			},
			{
				"x": -1.5500385054,
				"y": 0.8279168063,
				"z": -0.0847537318,
				"element": "C" 
			},
			{
				"x": -2.4096028635,
				"y": -0.1672988072,
				"z": -0.820690982,
				"element": "C" 
			},
			{
				"x": -2.0039846674,
				"y": 1.9000333826,
				"z": 0.4535827472,
				"element": "N" 
			},
			{
				"x": -3.398369228,
				"y": 2.0229552118,
				"z": 0.2546847777,
				"element": "O" 
			},
			{
				"x": 1.7452601946,
				"y": 0.4551306111,
				"z": -1.160358334,
				"element": "H" 
			},
			{
				"x": 0.29540093,
				"y": -0.1020526426,
				"z": -2.0030713686,
				"element": "H" 
			},
			{
				"x": 0.5674013927,
				"y": 1.6309997568,
				"z": -1.7680177221,
				"element": "H" 
			},
			{
				"x": 0.1003083248,
				"y": -0.3848754621,
				"z": 0.5124352951,
				"element": "H" 
			},
			{
				"x": 0.3404946635,
				"y": 1.352609907,
				"z": 0.7251084622,
				"element": "H" 
			},
			{
				"x": -3.2770899655,
				"y": -0.4389912863,
				"z": -0.211664361,
				"element": "H" 
			},
			{
				"x": -1.8485128622,
				"y": -1.0697556878,
				"z": -1.073718873,
				"element": "H" 
			},
			{
				"x": -2.8044664271,
				"y": 0.2705546683,
				"z": -1.7443415839,
				"element": "H" 
			},
			{
				"x": -3.5935002555,
				"y": 2.8431039691,
				"z": 0.7260463346,
				"element": "H" 
			}
		],
		 "valence_orbital": [ 
			{
				"type": "occ",
				"energy": -0.36428,
				"method": "rhf"
			},
			{
				"type": "occ",
				"energy": -0.34871,
				"method": "rhf"
			},
			{
				"type": "occ",
				"energy": -0.34185,
				"method": "rhf"
			},
			{
				"type": "occ",
				"energy": -0.2633,
				"method": "rhf"
			},
			{
				"type": "occ",
				"energy": -0.23883,
				"method": "rhf"
			},
			{
				"type": "unocc",
				"energy": 0.01625,
				"method": "rhf"
			},
			{
				"type": "unocc",
				"energy": 0.08339,
				"method": "rhf"
			},
			{
				"type": "unocc",
				"energy": 0.09723,
				"method": "rhf"
			},
			{
				"type": "unocc",
				"energy": 0.13986,
				"method": "rhf"
			},
			{
				"type": "unocc",
				"energy": 0.1452,
				"method": "rhf"
			}
		],
		"cosmo_sigma_profile": { 
			"-0.025": 0.0,
			"-0.024": 0.0,
			"-0.023": 0.0,
			"-0.022": 0.0,
			"-0.021": 0.0,
			"-0.02": 0.0,
			"-0.019": 0.0,
			"-0.018": 0.0,
			"-0.017": 0.216696666918,
			"-0.016": 1.04129222577,
			"-0.015": 0.886730258141,
			"-0.014": 0.923698002146,
			"-0.013": 0.670130000386,
			"-0.012": 0.692398991045,
			"-0.011": 0.388845528106,
			"-0.01": 0.478019641484,
			"-0.009": 0.793336578232,
			"-0.008": 0.78584267022,
			"-0.007": 0.679731404602,
			"-0.006": 0.666220753431,
			"-0.005": 2.75555185421,
			"-0.004": 11.2983937414,
			"-0.003": 16.3911874003,
			"-0.002": 16.1144493252,
			"-0.001": 22.6489465355,
			"0.0": 17.1464839687,
			"0.001": 10.1331069385,
			"0.002": 3.72239531853,
			"0.003": 2.88309508846,
			"0.004": 3.39931384554,
			"0.005": 3.11909421415,
			"0.006": 3.86163583451,
			"0.007": 3.98640415804,
			"0.008": 3.39140821496,
			"0.009": 2.66062202678,
			"0.01": 3.84663661099,
			"0.011": 2.19553851231,
			"0.012": 1.03449612375,
			"0.013": 0.782198652625,
			"0.014": 0.723752149509,
			"0.015": 0.276537244443,
			"0.016": 0.0,
			"0.017": 0.0,
			"0.018": 0.0,
			"0.019": 0.0,
			"0.02": 0.0,
			"0.021": 0.0,
			"0.022": 0.0,
			"0.023": 0.0,
			"0.024": 0.0,
			"0.025": 0.0
		}
	}
}
