{
	 "smiles": "CN1C(=CC2=C1C=CC=C2)C(O)=O", 
	 "Tm": 485.15, 
	 "num_atms": 22, 
	 "gaussian": { 
		 "optdone": 1, 
		 "sigma_profile": "yes", 
		 "theory": "DFT", 
		 "functional": "B3LYP", 
		 "basiset": "6-31G**", 
		 "properties": { 
			 "R2extent": 2653.3156, 
			 "electric_dipole_moment_norm": 3.37053017936, 
			 "electric_quadrupole_moment_norm": 19.0673714392, 
			 "total_energy": -591.701213323, 
			 "HOMO_LUMO_gap": 0.16571, 
			 "cosmo_polarized_energy": -12.78, 
			 "cosmo_cavitation_energy": 25.76, 
			 "cosmo_dispersion_energy": -19.22, 
			 "cosmo_repulsion_energy": 1.49, 
			 "cosmo_total_nonelectrostatic_energy": 8.03, 
			 "SMD_solvation_energy": 5.34 
		},
		"coords": [
			{
				"x": 0.838311375,
				"y": 1.2551179838,
				"z": 1.5132910294,
				"element": "C" 
			},
			{
				"x": 0.0827170244,
				"y": 0.8379656585,
				"z": 0.3381606898,
				"element": "N" 
			},
			{
				"x": -0.7879240142,
				"y": 1.6011534006,
				"z": -0.4342704946,
				"element": "C" 
			},
			{
				"x": -1.3513051808,
				"y": 0.8013652547,
				"z": -1.415046627,
				"element": "C" 
			},
			{
				"x": -0.8290580777,
				"y": -0.5131302255,
				"z": -1.2489747359,
				"element": "C" 
			},
			{
				"x": 0.0565046198,
				"y": -0.4551143132,
				"z": -0.1354651006,
				"element": "C" 
			},
			{
				"x": 0.7417929065,
				"y": -1.5899098133,
				"z": 0.3257670675,
				"element": "C" 
			},
			{
				"x": 0.5365803268,
				"y": -2.7807939302,
				"z": -0.3559173779,
				"element": "C" 
			},
			{
				"x": -0.3302351703,
				"y": -2.8556025715,
				"z": -1.4705582999,
				"element": "C" 
			},
			{
				"x": -1.0116748339,
				"y": -1.7371426392,
				"z": -1.9219448485,
				"element": "C" 
			},
			{
				"x": -0.9894344859,
				"y": 3.0524621954,
				"z": -0.2379138081,
				"element": "C" 
			},
			{
				"x": -2.1109754863,
				"y": 3.5562655025,
				"z": -0.8177109665,
				"element": "O" 
			},
			{
				"x": -0.2410592965,
				"y": 3.7920171727,
				"z": 0.3659089016,
				"element": "O" 
			},
			{
				"x": 0.428413889,
				"y": 0.7938710796,
				"z": 2.41881375,
				"element": "H" 
			},
			{
				"x": 0.7930831849,
				"y": 2.3380179519,
				"z": 1.5939641316,
				"element": "H" 
			},
			{
				"x": 1.8827436523,
				"y": 0.9481627574,
				"z": 1.4031830664,
				"element": "H" 
			},
			{
				"x": -2.0108376281,
				"y": 1.1300416715,
				"z": -2.2076336813,
				"element": "H" 
			},
			{
				"x": 1.4080731586,
				"y": -1.542013917,
				"z": 1.1808125667,
				"element": "H" 
			},
			{
				"x": 1.054303924,
				"y": -3.6769304188,
				"z": -0.0267392024,
				"element": "H" 
			},
			{
				"x": -0.4615313474,
				"y": -3.8076326666,
				"z": -1.9759090155,
				"element": "H" 
			},
			{
				"x": -1.678811599,
				"y": -1.800062459,
				"z": -2.776931589,
				"element": "H" 
			},
			{
				"x": -2.6774769415,
				"y": 2.8307923256,
				"z": -1.1165854558,
				"element": "H" 
			}
		],
		 "valence_orbital": [ 
			{
				"type": "occ",
				"energy": -0.31682,
				"method": "rhf"
			},
			{
				"type": "occ",
				"energy": -0.28784,
				"method": "rhf"
			},
			{
				"type": "occ",
				"energy": -0.27778,
				"method": "rhf"
			},
			{
				"type": "occ",
				"energy": -0.23399,
				"method": "rhf"
			},
			{
				"type": "occ",
				"energy": -0.21871,
				"method": "rhf"
			},
			{
				"type": "unocc",
				"energy": -0.053,
				"method": "rhf"
			},
			{
				"type": "unocc",
				"energy": 0.00978,
				"method": "rhf"
			},
			{
				"type": "unocc",
				"energy": 0.01954,
				"method": "rhf"
			},
			{
				"type": "unocc",
				"energy": 0.06685,
				"method": "rhf"
			},
			{
				"type": "unocc",
				"energy": 0.09232,
				"method": "rhf"
			}
		],
		"cosmo_sigma_profile": { 
			"-0.025": 0.0,
			"-0.024": 0.0,
			"-0.023": 0.0,
			"-0.022": 0.0,
			"-0.021": 0.0,
			"-0.02": 0.0,
			"-0.019": 0.0,
			"-0.018": 0.458739772253,
			"-0.017": 0.856521001102,
			"-0.016": 1.06874308141,
			"-0.015": 0.842648338876,
			"-0.014": 1.52891081854,
			"-0.013": 0.746798125359,
			"-0.012": 0.736614903802,
			"-0.011": 1.35282363656,
			"-0.01": 1.1462070087,
			"-0.009": 1.14973466969,
			"-0.008": 1.83684145549,
			"-0.007": 2.1192375044,
			"-0.006": 9.87720202601,
			"-0.005": 16.9330147246,
			"-0.004": 17.276500281,
			"-0.003": 18.8718554453,
			"-0.002": 15.3424669645,
			"-0.001": 11.0807282456,
			"0.0": 9.10922063643,
			"0.001": 11.4572095182,
			"0.002": 12.6433966471,
			"0.003": 12.7204448286,
			"0.004": 13.5892388164,
			"0.005": 12.9501440549,
			"0.006": 8.07888217407,
			"0.007": 2.24085853046,
			"0.008": 3.03511098521,
			"0.009": 3.24873250615,
			"0.01": 5.00159853329,
			"0.011": 4.60594055557,
			"0.012": 2.96778498211,
			"0.013": 1.44734110428,
			"0.014": 0.0182943309741,
			"0.015": 0.0,
			"0.016": 0.0,
			"0.017": 0.0,
			"0.018": 0.0,
			"0.019": 0.0,
			"0.02": 0.0,
			"0.021": 0.0,
			"0.022": 0.0,
			"0.023": 0.0,
			"0.024": 0.0,
			"0.025": 0.0
		}
	}
}
