{
	 "smiles": "CC(=O)OC1=CC=CC(I)=C1", 
	 "Tm": 311.15, 
	 "num_atms": 18, 
	 "gaussian": { 
		 "optdone": 1, 
		 "sigma_profile": "no", 
		 "theory": "DFT", 
		 "functional": "B3LYP", 
		 "basiset": "6-31G**", 
		 "properties": { 
			 "R2extent": 2441.2438, 
			 "electric_dipole_moment_norm": 1.79167977608, 
			 "electric_quadrupole_moment_norm": 11.1872008858, 
			 "total_energy": -470.910943368, 
			 "HOMO_LUMO_gap": 0.19982, 
			 "cosmo_polarized_energy": -102212.63, 
			 "cosmo_cavitation_energy": 26.04, 
			 "cosmo_dispersion_energy": -20.48, 
			 "cosmo_repulsion_energy": 1.63, 
			 "cosmo_total_nonelectrostatic_energy": 7.19, 
			 "SMD_solvation_energy": 4.95 
		},
		"coords": [
			{
				"x": -2.6629602554,
				"y": -1.1150532875,
				"z": 0.3042606195,
				"element": "C" 
			},
			{
				"x": -1.3662018359,
				"y": -0.7752202326,
				"z": 0.9946800899,
				"element": "C" 
			},
			{
				"x": -1.1236603295,
				"y": -0.9253765865,
				"z": 2.165839267,
				"element": "O" 
			},
			{
				"x": -0.4849970399,
				"y": -0.2557187472,
				"z": 0.0776048085,
				"element": "O" 
			},
			{
				"x": 0.7906840108,
				"y": 0.1686623939,
				"z": 0.4413342223,
				"element": "C" 
			},
			{
				"x": 1.6115295123,
				"y": -0.5193138355,
				"z": 1.3357767905,
				"element": "C" 
			},
			{
				"x": 2.8994235218,
				"y": -0.0343230132,
				"z": 1.564668779,
				"element": "C" 
			},
			{
				"x": 3.3738595617,
				"y": 1.108137641,
				"z": 0.9174344191,
				"element": "C" 
			},
			{
				"x": 2.5304993934,
				"y": 1.7701819196,
				"z": 0.0237389697,
				"element": "C" 
			},
			{
				"x": 3.2223404465,
				"y": 3.5044698481,
				"z": -0.9836175323,
				"element": "I" 
			},
			{
				"x": 1.2373805825,
				"y": 1.3131279089,
				"z": -0.2223713205,
				"element": "C" 
			},
			{
				"x": -2.4802391476,
				"y": -1.8214647185,
				"z": -0.510723855,
				"element": "H" 
			},
			{
				"x": -3.3534197194,
				"y": -1.5472184,
				"z": 1.0274445672,
				"element": "H" 
			},
			{
				"x": -3.0990300464,
				"y": -0.2141058672,
				"z": -0.1373079499,
				"element": "H" 
			},
			{
				"x": 1.2502343729,
				"y": -1.3999560757,
				"z": 1.8479112065,
				"element": "H" 
			},
			{
				"x": 3.5476752303,
				"y": -0.5578689464,
				"z": 2.2609969273,
				"element": "H" 
			},
			{
				"x": 4.3776047612,
				"y": 1.4707169487,
				"z": 1.105421731,
				"element": "H" 
			},
			{
				"x": 0.5728769808,
				"y": 1.8152230499,
				"z": -0.9148917399,
				"element": "H" 
			}
		],
		 "valence_orbital": [ 
			{
				"type": "occ",
				"energy": -0.29688,
				"method": "rhf"
			},
			{
				"type": "occ",
				"energy": -0.28531,
				"method": "rhf"
			},
			{
				"type": "occ",
				"energy": -0.27026,
				"method": "rhf"
			},
			{
				"type": "occ",
				"energy": -0.25659,
				"method": "rhf"
			},
			{
				"type": "occ",
				"energy": -0.24122,
				"method": "rhf"
			},
			{
				"type": "unocc",
				"energy": -0.0414,
				"method": "rhf"
			},
			{
				"type": "unocc",
				"energy": -0.02494,
				"method": "rhf"
			},
			{
				"type": "unocc",
				"energy": -0.0207,
				"method": "rhf"
			},
			{
				"type": "unocc",
				"energy": 0.00814,
				"method": "rhf"
			},
			{
				"type": "unocc",
				"energy": 0.04278,
				"method": "rhf"
			}
		],
		"cosmo_sigma_profile": { 
			"0.0": 0.0,
			"0.0": 0.0,
			"0.0": 0.0,
			"0.0": 0.0,
			"0.0": 0.0,
			"0.0": 0.0,
			"0.0": 0.0,
			"0.0": 0.0,
			"0.0": 0.0,
			"0.0": 0.0,
			"0.0": 0.0,
			"0.0": 0.0,
			"0.0": 0.0,
			"0.0": 0.0,
			"0.0": 0.0,
			"0.0": 0.0,
			"0.0": 0.0,
			"0.0": 0.0,
			"0.0": 0.0,
			"0.0": 0.0,
			"0.0": 0.0,
			"0.0": 0.0,
			"0.0": 0.0,
			"0.0": 0.0,
			"0.0": 0.0,
			"0.0": 0.0,
			"0.0": 0.0,
			"0.0": 0.0,
			"0.0": 0.0,
			"0.0": 0.0,
			"0.0": 0.0,
			"0.0": 0.0,
			"0.0": 0.0,
			"0.0": 0.0,
			"0.0": 0.0,
			"0.0": 0.0,
			"0.0": 0.0,
			"0.0": 0.0,
			"0.0": 0.0,
			"0.0": 0.0,
			"0.0": 0.0,
			"0.0": 0.0,
			"0.0": 0.0,
			"0.0": 0.0,
			"0.0": 0.0,
			"0.0": 0.0,
			"0.0": 0.0,
			"0.0": 0.0,
			"0.0": 0.0,
			"0.0": 0.0,
			"0.0": 0.0
		}
	}
}
