{
	 "smiles": "OC(=O)CCC(=O)C1=CC2=C(CCC2)C=C1", 
	 "Tm": 397.15, 
	 "num_atms": 30, 
	 "gaussian": { 
		 "optdone": 1, 
		 "sigma_profile": "yes", 
		 "theory": "DFT", 
		 "functional": "B3LYP", 
		 "basiset": "6-31G**", 
		 "properties": { 
			 "R2extent": 5587.6526, 
			 "electric_dipole_moment_norm": 5.41805666822, 
			 "electric_quadrupole_moment_norm": 22.6662157093, 
			 "total_energy": -729.525501276, 
			 "HOMO_LUMO_gap": 0.1888, 
			 "cosmo_polarized_energy": -15.35, 
			 "cosmo_cavitation_energy": 33.32, 
			 "cosmo_dispersion_energy": -24.18, 
			 "cosmo_repulsion_energy": 1.92, 
			 "cosmo_total_nonelectrostatic_energy": 11.06, 
			 "SMD_solvation_energy": 6.32 
		},
		"coords": [
			{
				"x": 2.1127326971,
				"y": 0.3693625755,
				"z": 4.2930184337,
				"element": "O" 
			},
			{
				"x": 0.9443697852,
				"y": 0.5055611181,
				"z": 4.9723173738,
				"element": "C" 
			},
			{
				"x": 0.8117762762,
				"y": 0.1299353671,
				"z": 6.1142264824,
				"element": "O" 
			},
			{
				"x": -0.1113128986,
				"y": 1.2397368963,
				"z": 4.1698405129,
				"element": "C" 
			},
			{
				"x": -0.0131701831,
				"y": 1.0865477041,
				"z": 2.6515504395,
				"element": "C" 
			},
			{
				"x": -0.2105127523,
				"y": -0.3589989106,
				"z": 2.2001093692,
				"element": "C" 
			},
			{
				"x": -0.3867619081,
				"y": -1.2392734016,
				"z": 3.0315308121,
				"element": "O" 
			},
			{
				"x": -0.1873549143,
				"y": -0.6720896204,
				"z": 0.738221123,
				"element": "C" 
			},
			{
				"x": 0.0213811226,
				"y": 0.3111536744,
				"z": -0.2457041507,
				"element": "C" 
			},
			{
				"x": 0.0408523209,
				"y": -0.0538947912,
				"z": -1.5879385156,
				"element": "C" 
			},
			{
				"x": -0.1511647342,
				"y": -1.3922126056,
				"z": -1.9632466259,
				"element": "C" 
			},
			{
				"x": -0.1042891129,
				"y": -1.5300745718,
				"z": -3.4695110974,
				"element": "C" 
			},
			{
				"x": 0.5678951041,
				"y": -0.2094716871,
				"z": -3.9244550671,
				"element": "C" 
			},
			{
				"x": 0.2315214427,
				"y": 0.8175120218,
				"z": -2.8129619385,
				"element": "C" 
			},
			{
				"x": -0.3639202599,
				"y": -2.3740634438,
				"z": -0.9941118413,
				"element": "C" 
			},
			{
				"x": -0.3784636842,
				"y": -2.0099273974,
				"z": 0.3499734304,
				"element": "C" 
			},
			{
				"x": 2.714203778,
				"y": -0.0986809733,
				"z": 4.8958171037,
				"element": "H" 
			},
			{
				"x": -0.0235798207,
				"y": 2.3017401655,
				"z": 4.432384702,
				"element": "H" 
			},
			{
				"x": -1.0771057379,
				"y": 0.8939449724,
				"z": 4.5426099563,
				"element": "H" 
			},
			{
				"x": 0.9596432214,
				"y": 1.4394314999,
				"z": 2.2912047094,
				"element": "H" 
			},
			{
				"x": -0.7687562747,
				"y": 1.7174622339,
				"z": 2.1667564433,
				"element": "H" 
			},
			{
				"x": 0.176309226,
				"y": 1.3489081836,
				"z": 0.0342348247,
				"element": "H" 
			},
			{
				"x": -1.1251032871,
				"y": -1.6102126399,
				"z": -3.8700950025,
				"element": "H" 
			},
			{
				"x": 0.4352055742,
				"y": -2.4222933515,
				"z": -3.8042120166,
				"element": "H" 
			},
			{
				"x": 0.2422454969,
				"y": 0.1144262004,
				"z": -4.9166522393,
				"element": "H" 
			},
			{
				"x": 1.6532276013,
				"y": -0.353643423,
				"z": -3.9657516483,
				"element": "H" 
			},
			{
				"x": 1.010231568,
				"y": 1.5770381035,
				"z": -2.6867177701,
				"element": "H" 
			},
			{
				"x": -0.6994841243,
				"y": 1.35425749,
				"z": -3.0445781687,
				"element": "H" 
			},
			{
				"x": -0.509304136,
				"y": -3.4127137539,
				"z": -1.2796530146,
				"element": "H" 
			},
			{
				"x": -0.5320113862,
				"y": -2.7475676355,
				"z": 1.1303933802,
				"element": "H" 
			}
		],
		 "valence_orbital": [ 
			{
				"type": "occ",
				"energy": -0.30723,
				"method": "rhf"
			},
			{
				"type": "occ",
				"energy": -0.2632,
				"method": "rhf"
			},
			{
				"type": "occ",
				"energy": -0.25676,
				"method": "rhf"
			},
			{
				"type": "occ",
				"energy": -0.25,
				"method": "rhf"
			},
			{
				"type": "occ",
				"energy": -0.24254,
				"method": "rhf"
			},
			{
				"type": "unocc",
				"energy": -0.05374,
				"method": "rhf"
			},
			{
				"type": "unocc",
				"energy": -0.00978,
				"method": "rhf"
			},
			{
				"type": "unocc",
				"energy": 0.0226,
				"method": "rhf"
			},
			{
				"type": "unocc",
				"energy": 0.04114,
				"method": "rhf"
			},
			{
				"type": "unocc",
				"energy": 0.07958,
				"method": "rhf"
			}
		],
		"cosmo_sigma_profile": { 
			"-0.025": 0.0,
			"-0.024": 0.0,
			"-0.023": 0.0,
			"-0.022": 0.0,
			"-0.021": 0.0,
			"-0.02": 0.0,
			"-0.019": 0.0,
			"-0.018": 0.519764809951,
			"-0.017": 0.945568090539,
			"-0.016": 0.713984529754,
			"-0.015": 1.22273240748,
			"-0.014": 0.371627743586,
			"-0.013": 0.350097841814,
			"-0.012": 0.799725536359,
			"-0.011": 0.980880408776,
			"-0.01": 0.756786544336,
			"-0.009": 0.447852550712,
			"-0.008": 0.292449660115,
			"-0.007": 4.00912237101,
			"-0.006": 13.1326442273,
			"-0.005": 14.8760697099,
			"-0.004": 22.3288471152,
			"-0.003": 27.9480036743,
			"-0.002": 30.4813242224,
			"-0.001": 24.0090700939,
			"0.0": 19.3078443153,
			"0.001": 14.0587310416,
			"0.002": 12.0341580727,
			"0.003": 11.5574753724,
			"0.004": 13.14878786,
			"0.005": 10.4421350549,
			"0.006": 5.70063391991,
			"0.007": 3.97683555932,
			"0.008": 3.79947459888,
			"0.009": 4.44969172446,
			"0.01": 4.01829599845,
			"0.011": 5.94493947141,
			"0.012": 8.09663098601,
			"0.013": 1.85735933961,
			"0.014": 0.0694519875707,
			"0.015": 0.0,
			"0.016": 0.0,
			"0.017": 0.0,
			"0.018": 0.0,
			"0.019": 0.0,
			"0.02": 0.0,
			"0.021": 0.0,
			"0.022": 0.0,
			"0.023": 0.0,
			"0.024": 0.0,
			"0.025": 0.0
		}
	}
}
