{
	 "smiles": "COC1=CC=C(C=C1)C1NN2C(S1)=NN=C2C1=CC=CC(=C1)[N+]([O-])=O", 
	 "Tm": 479.15, 
	 "num_atms": 38, 
	 "gaussian": { 
		 "optdone": 1, 
		 "sigma_profile": "yes", 
		 "theory": "DFT", 
		 "functional": "B3LYP", 
		 "basiset": "6-31G**", 
		 "properties": { 
			 "R2extent": 12481.5407, 
			 "electric_dipole_moment_norm": 10.469348974, 
			 "electric_quadrupole_moment_norm": 33.7515224372, 
			 "total_energy": -1514.96904983, 
			 "HOMO_LUMO_gap": 0.13783, 
			 "cosmo_polarized_energy": -27.76, 
			 "cosmo_cavitation_energy": 45.22, 
			 "cosmo_dispersion_energy": -32.27, 
			 "cosmo_repulsion_energy": 2.36, 
			 "cosmo_total_nonelectrostatic_energy": 15.32, 
			 "SMD_solvation_energy": 7.97 
		},
		"coords": [
			{
				"x": 1.8495355214,
				"y": 2.4586789824,
				"z": 5.1772866098,
				"element": "C" 
			},
			{
				"x": 0.8295096157,
				"y": 2.0554841882,
				"z": 4.2745187032,
				"element": "O" 
			},
			{
				"x": 1.1403155739,
				"y": 1.1509932037,
				"z": 3.3070130377,
				"element": "C" 
			},
			{
				"x": 2.4018690172,
				"y": 0.5625871229,
				"z": 3.1397214177,
				"element": "C" 
			},
			{
				"x": 2.6035929111,
				"y": -0.3494501895,
				"z": 2.1053939451,
				"element": "C" 
			},
			{
				"x": 1.5723771113,
				"y": -0.7001109475,
				"z": 1.2284874203,
				"element": "C" 
			},
			{
				"x": 0.3130934734,
				"y": -0.1110322329,
				"z": 1.4128146708,
				"element": "C" 
			},
			{
				"x": 0.0990614914,
				"y": 0.8057080767,
				"z": 2.4343805112,
				"element": "C" 
			},
			{
				"x": 1.8219159216,
				"y": -1.7306013151,
				"z": 0.1507648681,
				"element": "C" 
			},
			{
				"x": 0.6765650889,
				"y": -1.9362878138,
				"z": -0.7426357577,
				"element": "N" 
			},
			{
				"x": 0.8193609654,
				"y": -0.9767172749,
				"z": -1.7647128791,
				"element": "N" 
			},
			{
				"x": 2.0811979709,
				"y": -0.5292380045,
				"z": -2.0555903833,
				"element": "C" 
			},
			{
				"x": 3.2903893234,
				"y": -1.2396737436,
				"z": -0.9981058514,
				"element": "S" 
			},
			{
				"x": 2.055707091,
				"y": 0.3347942281,
				"z": -3.0382815782,
				"element": "N" 
			},
			{
				"x": 0.728895363,
				"y": 0.447098298,
				"z": -3.4160322786,
				"element": "N" 
			},
			{
				"x": -0.0178705325,
				"y": -0.3266892378,
				"z": -2.6461253206,
				"element": "C" 
			},
			{
				"x": -1.474145313,
				"y": -0.443424668,
				"z": -2.7397329802,
				"element": "C" 
			},
			{
				"x": -2.2315152441,
				"y": -1.2554253784,
				"z": -1.8783855508,
				"element": "C" 
			},
			{
				"x": -3.6201517021,
				"y": -1.3252624051,
				"z": -2.0072425151,
				"element": "C" 
			},
			{
				"x": -4.2783173518,
				"y": -0.5951321178,
				"z": -2.9924148644,
				"element": "C" 
			},
			{
				"x": -3.510497615,
				"y": 0.2047963571,
				"z": -3.8396591052,
				"element": "C" 
			},
			{
				"x": -2.1300904756,
				"y": 0.2975546004,
				"z": -3.7365127035,
				"element": "C" 
			},
			{
				"x": -4.1964449627,
				"y": 0.9840351861,
				"z": -4.8894113209,
				"element": "N" 
			},
			{
				"x": -5.4212881067,
				"y": 0.8849186657,
				"z": -4.9583874162,
				"element": "O" 
			},
			{
				"x": -3.504947631,
				"y": 1.6810785995,
				"z": -5.6276251165,
				"element": "O" 
			},
			{
				"x": 2.6871829418,
				"y": 2.9354362833,
				"z": 4.6529713451,
				"element": "H" 
			},
			{
				"x": 2.2267981454,
				"y": 1.6123551079,
				"z": 5.7653148484,
				"element": "H" 
			},
			{
				"x": 1.3868463344,
				"y": 3.1834371411,
				"z": 5.8483661898,
				"element": "H" 
			},
			{
				"x": 3.2266073892,
				"y": 0.8100958971,
				"z": 3.7968574838,
				"element": "H" 
			},
			{
				"x": 3.5925691269,
				"y": -0.7823776817,
				"z": 1.9788617432,
				"element": "H" 
			},
			{
				"x": -0.5069784877,
				"y": -0.3757705563,
				"z": 0.755675024,
				"element": "H" 
			},
			{
				"x": -0.8713460465,
				"y": 1.2693592182,
				"z": 2.5767003055,
				"element": "H" 
			},
			{
				"x": 2.093742711,
				"y": -2.6993442565,
				"z": 0.5764724113,
				"element": "H" 
			},
			{
				"x": 0.7668470161,
				"y": -2.8536518069,
				"z": -1.1840941751,
				"element": "H" 
			},
			{
				"x": -1.7341883564,
				"y": -1.8282629969,
				"z": -1.1035177568,
				"element": "H" 
			},
			{
				"x": -4.1908831878,
				"y": -1.9554975303,
				"z": -1.3326536261,
				"element": "H" 
			},
			{
				"x": -5.3528011456,
				"y": -0.6299997433,
				"z": -3.1180140698,
				"element": "H" 
			},
			{
				"x": -1.5667139457,
				"y": 0.9305387446,
				"z": -4.4099652859,
				"element": "H" 
			}
		],
		 "valence_orbital": [ 
			{
				"type": "occ",
				"energy": -0.28102,
				"method": "rhf"
			},
			{
				"type": "occ",
				"energy": -0.26802,
				"method": "rhf"
			},
			{
				"type": "occ",
				"energy": -0.26224,
				"method": "rhf"
			},
			{
				"type": "occ",
				"energy": -0.23664,
				"method": "rhf"
			},
			{
				"type": "occ",
				"energy": -0.22694,
				"method": "rhf"
			},
			{
				"type": "unocc",
				"energy": -0.08911,
				"method": "rhf"
			},
			{
				"type": "unocc",
				"energy": -0.05574,
				"method": "rhf"
			},
			{
				"type": "unocc",
				"energy": -0.03816,
				"method": "rhf"
			},
			{
				"type": "unocc",
				"energy": -0.0174,
				"method": "rhf"
			},
			{
				"type": "unocc",
				"energy": -0.00938,
				"method": "rhf"
			}
		],
		"cosmo_sigma_profile": { 
			"-0.025": 0.0,
			"-0.024": 0.0,
			"-0.023": 0.0,
			"-0.022": 0.0,
			"-0.021": 0.0,
			"-0.02": 0.0,
			"-0.019": 0.0,
			"-0.018": 0.0,
			"-0.017": 0.0,
			"-0.016": 0.831313309736,
			"-0.015": 2.45187673296,
			"-0.014": 1.97942855334,
			"-0.013": 1.90867561559,
			"-0.012": 1.59276658919,
			"-0.011": 1.57425839884,
			"-0.01": 4.2837960946,
			"-0.009": 4.00410126056,
			"-0.008": 4.69157395519,
			"-0.007": 10.325399732,
			"-0.006": 19.2744673908,
			"-0.005": 24.9564829989,
			"-0.004": 26.3649433261,
			"-0.003": 25.2884991689,
			"-0.002": 22.8637167589,
			"-0.001": 24.4047824095,
			"0.0": 29.9389237324,
			"0.001": 25.1027527979,
			"0.002": 19.9916104954,
			"0.003": 17.6334122911,
			"0.004": 20.5665717082,
			"0.005": 16.9414870727,
			"0.006": 9.52297169246,
			"0.007": 11.8372890366,
			"0.008": 10.2849284226,
			"0.009": 7.46858693363,
			"0.01": 5.0947654585,
			"0.011": 2.78933852627,
			"0.012": 3.02814859533,
			"0.013": 3.66779430943,
			"0.014": 2.50664896997,
			"0.015": 1.62246317749,
			"0.016": 0.858646504507,
			"0.017": 0.0397371415163,
			"0.018": 0.0,
			"0.019": 0.0,
			"0.02": 0.0,
			"0.021": 0.0,
			"0.022": 0.0,
			"0.023": 0.0,
			"0.024": 0.0,
			"0.025": 0.0
		}
	}
}
