{
	 "smiles": "CC1(C)OC(C)(CCC1C(O)=O)C(O)(CC1=CC=CC=C1)CC1=CC=CC=C1", 
	 "Tm": 411.15, 
	 "num_atms": 58, 
	 "gaussian": { 
		 "optdone": 1, 
		 "sigma_profile": "yes", 
		 "theory": "DFT", 
		 "functional": "B3LYP", 
		 "basiset": "6-31G**", 
		 "properties": { 
			 "R2extent": 11866.3842, 
			 "electric_dipole_moment_norm": 2.86270332553, 
			 "electric_quadrupole_moment_norm": 13.0688201491, 
			 "total_energy": -1233.55704909, 
			 "HOMO_LUMO_gap": 0.22295, 
			 "cosmo_polarized_energy": -16.7, 
			 "cosmo_cavitation_energy": 54.8, 
			 "cosmo_dispersion_energy": -35.42, 
			 "cosmo_repulsion_energy": 2.61, 
			 "cosmo_total_nonelectrostatic_energy": 21.99, 
			 "SMD_solvation_energy": 9.43 
		},
		"coords": [
			{
				"x": 1.1775286288,
				"y": -3.6601007591,
				"z": -1.125999366,
				"element": "C" 
			},
			{
				"x": 1.6352792602,
				"y": -2.2047463424,
				"z": -0.9221465156,
				"element": "C" 
			},
			{
				"x": 2.2417820469,
				"y": -1.6778709292,
				"z": -2.2280754961,
				"element": "C" 
			},
			{
				"x": 0.5072155551,
				"y": -1.3304951863,
				"z": -0.7033131194,
				"element": "O" 
			},
			{
				"x": -0.2027091045,
				"y": -1.2134303386,
				"z": 0.5524375432,
				"element": "C" 
			},
			{
				"x": -1.1432775852,
				"y": -2.4080418096,
				"z": 0.7851783436,
				"element": "C" 
			},
			{
				"x": 0.8178423462,
				"y": -1.0785123257,
				"z": 1.7012913191,
				"element": "C" 
			},
			{
				"x": 1.9304957558,
				"y": -2.1285535537,
				"z": 1.6207249406,
				"element": "C" 
			},
			{
				"x": 2.644783201,
				"y": -2.0447603603,
				"z": 0.2640206298,
				"element": "C" 
			},
			{
				"x": 3.8151580514,
				"y": -3.0020572822,
				"z": 0.1229309429,
				"element": "C" 
			},
			{
				"x": 3.688493595,
				"y": -4.1182654152,
				"z": 0.8845927021,
				"element": "O" 
			},
			{
				"x": 4.7753186741,
				"y": -2.82756549,
				"z": -0.5976467389,
				"element": "O" 
			},
			{
				"x": -1.0022094039,
				"y": 0.1432733359,
				"z": 0.3386760055,
				"element": "C" 
			},
			{
				"x": -0.0632301532,
				"y": 1.1276920643,
				"z": -0.0832094545,
				"element": "O" 
			},
			{
				"x": -2.1592659648,
				"y": 0.0288516606,
				"z": -0.7081552473,
				"element": "C" 
			},
			{
				"x": -1.7955136749,
				"y": -0.224965901,
				"z": -2.1570270671,
				"element": "C" 
			},
			{
				"x": -1.1791923441,
				"y": 0.7757218609,
				"z": -2.9253736601,
				"element": "C" 
			},
			{
				"x": -0.8614868324,
				"y": 0.5574610493,
				"z": -4.2665738618,
				"element": "C" 
			},
			{
				"x": -1.1696742436,
				"y": -0.6610426602,
				"z": -4.8752940733,
				"element": "C" 
			},
			{
				"x": -1.8086448979,
				"y": -1.6547504117,
				"z": -4.1311115999,
				"element": "C" 
			},
			{
				"x": -2.1184143493,
				"y": -1.4340088616,
				"z": -2.7881348285,
				"element": "C" 
			},
			{
				"x": -1.5868728219,
				"y": 0.6563387512,
				"z": 1.6854137329,
				"element": "C" 
			},
			{
				"x": -2.3952042574,
				"y": 1.9390337027,
				"z": 1.622434605,
				"element": "C" 
			},
			{
				"x": -3.7750288776,
				"y": 1.925011757,
				"z": 1.8679696252,
				"element": "C" 
			},
			{
				"x": -4.5241280653,
				"y": 3.103493183,
				"z": 1.8466914891,
				"element": "C" 
			},
			{
				"x": -3.9002047192,
				"y": 4.3218662975,
				"z": 1.5789034,
				"element": "C" 
			},
			{
				"x": -2.5248889486,
				"y": 4.3506289006,
				"z": 1.3345171239,
				"element": "C" 
			},
			{
				"x": -1.7787675483,
				"y": 3.1726883261,
				"z": 1.3584230346,
				"element": "C" 
			},
			{
				"x": 1.9914853124,
				"y": -4.2581696776,
				"z": -1.5471102543,
				"element": "H" 
			},
			{
				"x": 0.3449842561,
				"y": -3.6722030111,
				"z": -1.8337420069,
				"element": "H" 
			},
			{
				"x": 0.8573583627,
				"y": -4.1446724662,
				"z": -0.2022084157,
				"element": "H" 
			},
			{
				"x": 3.1368849307,
				"y": -2.2420145467,
				"z": -2.4979591822,
				"element": "H" 
			},
			{
				"x": 1.5061339469,
				"y": -1.7531103511,
				"z": -3.0332927625,
				"element": "H" 
			},
			{
				"x": 2.5229412798,
				"y": -0.6262467903,
				"z": -2.1187182173,
				"element": "H" 
			},
			{
				"x": -1.9022406578,
				"y": -2.1662544949,
				"z": 1.5350228225,
				"element": "H" 
			},
			{
				"x": -1.6485723012,
				"y": -2.6916698618,
				"z": -0.1386922981,
				"element": "H" 
			},
			{
				"x": -0.6008509571,
				"y": -3.2815016173,
				"z": 1.1532471761,
				"element": "H" 
			},
			{
				"x": 1.2612342887,
				"y": -0.078417129,
				"z": 1.6499719759,
				"element": "H" 
			},
			{
				"x": 0.3055946108,
				"y": -1.163256675,
				"z": 2.665223186,
				"element": "H" 
			},
			{
				"x": 1.5365924331,
				"y": -3.1370615043,
				"z": 1.7793713762,
				"element": "H" 
			},
			{
				"x": 2.6525855856,
				"y": -1.958558687,
				"z": 2.4266706046,
				"element": "H" 
			},
			{
				"x": 3.0811006371,
				"y": -1.0448080539,
				"z": 0.157633586,
				"element": "H" 
			},
			{
				"x": 4.4793765202,
				"y": -4.6536790418,
				"z": 0.7015667004,
				"element": "H" 
			},
			{
				"x": 0.4624880296,
				"y": 0.6840556224,
				"z": -0.7692025357,
				"element": "H" 
			},
			{
				"x": -2.6865964994,
				"y": 0.9859066297,
				"z": -0.6568851803,
				"element": "H" 
			},
			{
				"x": -2.8736989479,
				"y": -0.7294774568,
				"z": -0.3710044906,
				"element": "H" 
			},
			{
				"x": -0.9526828934,
				"y": 1.7313711871,
				"z": -2.4625200362,
				"element": "H" 
			},
			{
				"x": -0.3824391655,
				"y": 1.3459957631,
				"z": -4.8409015984,
				"element": "H" 
			},
			{
				"x": -0.9292791772,
				"y": -0.8283348388,
				"z": -5.9214129016,
				"element": "H" 
			},
			{
				"x": -2.0733120203,
				"y": -2.5999551134,
				"z": -4.5977336105,
				"element": "H" 
			},
			{
				"x": -2.6284363159,
				"y": -2.2113004604,
				"z": -2.2240708704,
				"element": "H" 
			},
			{
				"x": -2.211732737,
				"y": -0.1282417887,
				"z": 2.1238852325,
				"element": "H" 
			},
			{
				"x": -0.7465088787,
				"y": 0.8131932758,
				"z": 2.3668077352,
				"element": "H" 
			},
			{
				"x": -4.2690076135,
				"y": 0.9799703238,
				"z": 2.0826344837,
				"element": "H" 
			},
			{
				"x": -5.5924322367,
				"y": 3.0676797395,
				"z": 2.0418955077,
				"element": "H" 
			},
			{
				"x": -4.4784794659,
				"y": 5.2414018083,
				"z": 1.5633655752,
				"element": "H" 
			},
			{
				"x": -2.0299586158,
				"y": 5.2957100464,
				"z": 1.1276734222,
				"element": "H" 
			},
			{
				"x": -0.712915033,
				"y": 3.1965559079,
				"z": 1.1594405672,
				"element": "H" 
			}
		],
		 "valence_orbital": [ 
			{
				"type": "occ",
				"energy": -0.26031,
				"method": "rhf"
			},
			{
				"type": "occ",
				"energy": -0.24187,
				"method": "rhf"
			},
			{
				"type": "occ",
				"energy": -0.24027,
				"method": "rhf"
			},
			{
				"type": "occ",
				"energy": -0.23752,
				"method": "rhf"
			},
			{
				"type": "occ",
				"energy": -0.22382,
				"method": "rhf"
			},
			{
				"type": "unocc",
				"energy": -0.00087,
				"method": "rhf"
			},
			{
				"type": "unocc",
				"energy": 0.00239,
				"method": "rhf"
			},
			{
				"type": "unocc",
				"energy": 0.00586,
				"method": "rhf"
			},
			{
				"type": "unocc",
				"energy": 0.00664,
				"method": "rhf"
			},
			{
				"type": "unocc",
				"energy": 0.01067,
				"method": "rhf"
			}
		],
		"cosmo_sigma_profile": { 
			"-0.025": 0.0,
			"-0.024": 0.0,
			"-0.023": 0.0,
			"-0.022": 0.0,
			"-0.021": 0.0,
			"-0.02": 0.0,
			"-0.019": 0.0,
			"-0.018": 0.675288162502,
			"-0.017": 0.804844829623,
			"-0.016": 0.973530024462,
			"-0.015": 0.979136640293,
			"-0.014": 0.537104050483,
			"-0.013": 0.310547824791,
			"-0.012": 0.696262016333,
			"-0.011": 1.03224004631,
			"-0.01": 0.850790525232,
			"-0.009": 0.348271684636,
			"-0.008": 0.93911656881,
			"-0.007": 2.10886903888,
			"-0.006": 5.8389974819,
			"-0.005": 28.6287315967,
			"-0.004": 42.0996583361,
			"-0.003": 47.1630982642,
			"-0.002": 42.8982058998,
			"-0.001": 40.8182382609,
			"0.0": 38.3685111532,
			"0.001": 34.1377111715,
			"0.002": 24.5797848214,
			"0.003": 22.4132246686,
			"0.004": 21.9690937563,
			"0.005": 19.2586159625,
			"0.006": 19.7448893014,
			"0.007": 10.1211058684,
			"0.008": 4.48264022547,
			"0.009": 3.74595924055,
			"0.01": 3.49641138644,
			"0.011": 3.86235293918,
			"0.012": 4.1969534073,
			"0.013": 0.728897671611,
			"0.014": 0.0,
			"0.015": 0.0,
			"0.016": 0.0,
			"0.017": 0.0,
			"0.018": 0.0,
			"0.019": 0.0,
			"0.02": 0.0,
			"0.021": 0.0,
			"0.022": 0.0,
			"0.023": 0.0,
			"0.024": 0.0,
			"0.025": 0.0
		}
	}
}
