{
	 "smiles": "ClC1=C(Cl)C=C(C=C1)C1=NN=NN1", 
	 "Tm": 434.15, 
	 "num_atms": 17, 
	 "gaussian": { 
		 "optdone": 1, 
		 "sigma_profile": "yes", 
		 "theory": "DFT", 
		 "functional": "B3LYP", 
		 "basiset": "6-31G**", 
		 "properties": { 
			 "R2extent": 4278.9111, 
			 "electric_dipole_moment_norm": 5.23377954255, 
			 "electric_quadrupole_moment_norm": 14.5241189354, 
			 "total_energy": -1408.48872439, 
			 "HOMO_LUMO_gap": 0.18734, 
			 "cosmo_polarized_energy": -18.69, 
			 "cosmo_cavitation_energy": 26.13, 
			 "cosmo_dispersion_energy": -19.73, 
			 "cosmo_repulsion_energy": 1.54, 
			 "cosmo_total_nonelectrostatic_energy": 7.94, 
			 "SMD_solvation_energy": 2.13 
		},
		"coords": [
			{
				"x": 1.7511627698,
				"y": -3.2896596991,
				"z": 2.2994629783,
				"element": "Cl" 
			},
			{
				"x": 0.8305379363,
				"y": -2.1236910288,
				"z": 1.3913505786,
				"element": "C" 
			},
			{
				"x": -0.5504495974,
				"y": -2.2748534776,
				"z": 1.1865633918,
				"element": "C" 
			},
			{
				"x": -1.4184983596,
				"y": -3.641121275,
				"z": 1.832093422,
				"element": "Cl" 
			},
			{
				"x": -1.2531383699,
				"y": -1.3213790004,
				"z": 0.4547906697,
				"element": "C" 
			},
			{
				"x": -0.592468596,
				"y": -0.2077711393,
				"z": -0.0814677142,
				"element": "C" 
			},
			{
				"x": 0.7864198397,
				"y": -0.0624539075,
				"z": 0.1263858225,
				"element": "C" 
			},
			{
				"x": 1.4891766645,
				"y": -1.0136575703,
				"z": 0.8568023822,
				"element": "C" 
			},
			{
				"x": -1.3793414528,
				"y": 0.763428187,
				"z": -0.8420628906,
				"element": "C" 
			},
			{
				"x": -2.6817403853,
				"y": 0.6937722602,
				"z": -1.0793369101,
				"element": "N" 
			},
			{
				"x": -3.0015045719,
				"y": 1.7878863043,
				"z": -1.8140168047,
				"element": "N" 
			},
			{
				"x": -1.9619306752,
				"y": 2.5225923886,
				"z": -2.0392527632,
				"element": "N" 
			},
			{
				"x": -0.9270364643,
				"y": 1.8941777526,
				"z": -1.4338108956,
				"element": "N" 
			},
			{
				"x": -2.3187533309,
				"y": -1.43552904,
				"z": 0.2952737196,
				"element": "H" 
			},
			{
				"x": 1.3278876578,
				"y": 0.7885007939,
				"z": -0.2755414935,
				"element": "H" 
			},
			{
				"x": 2.5553053679,
				"y": -0.9053739223,
				"z": 1.0200144174,
				"element": "H" 
			},
			{
				"x": -0.0026284325,
				"y": 2.2961323739,
				"z": -1.4803479102,
				"element": "H" 
			}
		],
		 "valence_orbital": [ 
			{
				"type": "occ",
				"energy": -0.31973,
				"method": "rhf"
			},
			{
				"type": "occ",
				"energy": -0.30865,
				"method": "rhf"
			},
			{
				"type": "occ",
				"energy": -0.29418,
				"method": "rhf"
			},
			{
				"type": "occ",
				"energy": -0.27979,
				"method": "rhf"
			},
			{
				"type": "occ",
				"energy": -0.26166,
				"method": "rhf"
			},
			{
				"type": "unocc",
				"energy": -0.07432,
				"method": "rhf"
			},
			{
				"type": "unocc",
				"energy": -0.04558,
				"method": "rhf"
			},
			{
				"type": "unocc",
				"energy": -0.01202,
				"method": "rhf"
			},
			{
				"type": "unocc",
				"energy": -0.01146,
				"method": "rhf"
			},
			{
				"type": "unocc",
				"energy": 0.03425,
				"method": "rhf"
			}
		],
		"cosmo_sigma_profile": { 
			"-0.025": 0.0,
			"-0.024": 0.0,
			"-0.023": 0.0,
			"-0.022": 0.0,
			"-0.021": 0.0,
			"-0.02": 0.239567940462,
			"-0.019": 1.63680248661,
			"-0.018": 1.99410804634,
			"-0.017": 1.05995779044,
			"-0.016": 1.59986558772,
			"-0.015": 1.65870712305,
			"-0.014": 1.23781831156,
			"-0.013": 0.619474949326,
			"-0.012": 1.34908889492,
			"-0.011": 1.4411385443,
			"-0.01": 1.53561935056,
			"-0.009": 2.5436067369,
			"-0.008": 4.24615172953,
			"-0.007": 5.46429805081,
			"-0.006": 4.6530426649,
			"-0.005": 5.57991126399,
			"-0.004": 8.86859424613,
			"-0.003": 10.7891693154,
			"-0.002": 12.7096494645,
			"-0.001": 21.5979355167,
			"0.0": 26.7288010123,
			"0.001": 16.076259297,
			"0.002": 13.1233068731,
			"0.003": 19.3174654435,
			"0.004": 12.8779794204,
			"0.005": 5.20675930073,
			"0.006": 2.99344644266,
			"0.007": 4.41673813321,
			"0.008": 5.22501646464,
			"0.009": 4.32695416794,
			"0.01": 5.25882506692,
			"0.011": 3.73213796187,
			"0.012": 3.30259537511,
			"0.013": 2.13946231482,
			"0.014": 0.495455598651,
			"0.015": 0.0,
			"0.016": 0.0,
			"0.017": 0.0,
			"0.018": 0.0,
			"0.019": 0.0,
			"0.02": 0.0,
			"0.021": 0.0,
			"0.022": 0.0,
			"0.023": 0.0,
			"0.024": 0.0,
			"0.025": 0.0
		}
	}
}
