{
	 "smiles": "NC(=O)C1=NC(=CC=C1)C(O)=O", 
	 "Tm": 523.15, 
	 "num_atms": 18, 
	 "gaussian": { 
		 "optdone": 1, 
		 "sigma_profile": "yes", 
		 "theory": "DFT", 
		 "functional": "B3LYP", 
		 "basiset": "6-31G**", 
		 "properties": { 
			 "R2extent": 2623.6321, 
			 "electric_dipole_moment_norm": 2.04365379162, 
			 "electric_quadrupole_moment_norm": 27.9785892173, 
			 "total_energy": -605.570594011, 
			 "HOMO_LUMO_gap": 0.19139, 
			 "cosmo_polarized_energy": -18.02, 
			 "cosmo_cavitation_energy": 23.54, 
			 "cosmo_dispersion_energy": -17.47, 
			 "cosmo_repulsion_energy": 1.4, 
			 "cosmo_total_nonelectrostatic_energy": 7.47, 
			 "SMD_solvation_energy": 5.65 
		},
		"coords": [
			{
				"x": 1.7122872057,
				"y": 0.59673177,
				"z": -1.2893723213,
				"element": "N" 
			},
			{
				"x": 0.7212461005,
				"y": 0.1178993547,
				"z": -2.0819106116,
				"element": "C" 
			},
			{
				"x": 0.6642113359,
				"y": 0.2924798357,
				"z": -3.2933190963,
				"element": "O" 
			},
			{
				"x": -0.3497554879,
				"y": -0.6729207232,
				"z": -1.3616617046,
				"element": "C" 
			},
			{
				"x": -0.256596176,
				"y": -0.844857846,
				"z": -0.0347174279,
				"element": "N" 
			},
			{
				"x": -1.2183078426,
				"y": -1.5496399243,
				"z": 0.5811794959,
				"element": "C" 
			},
			{
				"x": -2.3067747814,
				"y": -2.1105906651,
				"z": -0.0883905522,
				"element": "C" 
			},
			{
				"x": -2.3966284944,
				"y": -1.9276837226,
				"z": -1.4668670939,
				"element": "C" 
			},
			{
				"x": -1.4037014847,
				"y": -1.197678249,
				"z": -2.1161889335,
				"element": "C" 
			},
			{
				"x": -1.080355408,
				"y": -1.7225235347,
				"z": 2.0745314364,
				"element": "C" 
			},
			{
				"x": 0.0092916371,
				"y": -1.1353912115,
				"z": 2.5959983173,
				"element": "O" 
			},
			{
				"x": -1.8814842405,
				"y": -2.3360385907,
				"z": 2.7409768528,
				"element": "O" 
			},
			{
				"x": 1.7067146798,
				"y": 0.4214311787,
				"z": -0.2981423094,
				"element": "H" 
			},
			{
				"x": 2.453529897,
				"y": 1.1312253103,
				"z": -1.713657003,
				"element": "H" 
			},
			{
				"x": -3.0424010382,
				"y": -2.6667103105,
				"z": 0.4807145648,
				"element": "H" 
			},
			{
				"x": -3.2271129807,
				"y": -2.347282378,
				"z": -2.0263821109,
				"element": "H" 
			},
			{
				"x": -1.4106009744,
				"y": -1.0169237608,
				"z": -3.1844811278,
				"element": "H" 
			},
			{
				"x": 0.4778380528,
				"y": -0.7147265331,
				"z": 1.8489896252,
				"element": "H" 
			}
		],
		 "valence_orbital": [ 
			{
				"type": "occ",
				"energy": -0.32012,
				"method": "rhf"
			},
			{
				"type": "occ",
				"energy": -0.28995,
				"method": "rhf"
			},
			{
				"type": "occ",
				"energy": -0.28115,
				"method": "rhf"
			},
			{
				"type": "occ",
				"energy": -0.27854,
				"method": "rhf"
			},
			{
				"type": "occ",
				"energy": -0.26786,
				"method": "rhf"
			},
			{
				"type": "unocc",
				"energy": -0.07647,
				"method": "rhf"
			},
			{
				"type": "unocc",
				"energy": -0.07127,
				"method": "rhf"
			},
			{
				"type": "unocc",
				"energy": 0.01891,
				"method": "rhf"
			},
			{
				"type": "unocc",
				"energy": 0.05223,
				"method": "rhf"
			},
			{
				"type": "unocc",
				"energy": 0.07231,
				"method": "rhf"
			}
		],
		"cosmo_sigma_profile": { 
			"-0.025": 0.0,
			"-0.024": 0.0,
			"-0.023": 0.0,
			"-0.022": 0.0,
			"-0.021": 0.0,
			"-0.02": 0.0,
			"-0.019": 0.0,
			"-0.018": 0.0,
			"-0.017": 0.0,
			"-0.016": 0.0,
			"-0.015": 0.526012950073,
			"-0.014": 2.40177858723,
			"-0.013": 3.31513825438,
			"-0.012": 2.35812249566,
			"-0.011": 2.66337155189,
			"-0.01": 2.85909867705,
			"-0.009": 2.9787690085,
			"-0.008": 6.13091290518,
			"-0.007": 8.75136917471,
			"-0.006": 8.84700362346,
			"-0.005": 8.78885619243,
			"-0.004": 8.15045474054,
			"-0.003": 9.47089301386,
			"-0.002": 15.3158407297,
			"-0.001": 18.7909863997,
			"0.0": 16.4329670147,
			"0.001": 8.75927348888,
			"0.002": 5.02159997532,
			"0.003": 5.56621723794,
			"0.004": 4.04731027299,
			"0.005": 4.25809696514,
			"0.006": 2.97872293705,
			"0.007": 4.25054663022,
			"0.008": 4.03833344109,
			"0.009": 5.24679445714,
			"0.01": 7.05239378126,
			"0.011": 6.69334340561,
			"0.012": 5.69884563932,
			"0.013": 5.73076299156,
			"0.014": 1.74233199367,
			"0.015": 0.087408975729,
			"0.016": 0.0,
			"0.017": 0.0,
			"0.018": 0.0,
			"0.019": 0.0,
			"0.02": 0.0,
			"0.021": 0.0,
			"0.022": 0.0,
			"0.023": 0.0,
			"0.024": 0.0,
			"0.025": 0.0
		}
	}
}
