{
	 "smiles": "CCCCCCCCOC1OC(CO)C(O)C(O)C1O", 
	 "Tm": 378.15, 
	 "num_atms": 48, 
	 "gaussian": { 
		 "optdone": 1, 
		 "sigma_profile": "yes", 
		 "theory": "DFT", 
		 "functional": "B3LYP", 
		 "basiset": "6-31G**", 
		 "properties": { 
			 "R2extent": 10037.6192, 
			 "electric_dipole_moment_norm": 2.14043925866, 
			 "electric_quadrupole_moment_norm": 17.05807057, 
			 "total_energy": -1001.67496965, 
			 "HOMO_LUMO_gap": 0.29979, 
			 "cosmo_polarized_energy": -19.06, 
			 "cosmo_cavitation_energy": 47.04, 
			 "cosmo_dispersion_energy": -32.01, 
			 "cosmo_repulsion_energy": 2.56, 
			 "cosmo_total_nonelectrostatic_energy": 17.6, 
			 "SMD_solvation_energy": 6.72 
		},
		"coords": [
			{
				"x": -3.2472996046,
				"y": 1.5496912967,
				"z": 4.208955247,
				"element": "C" 
			},
			{
				"x": -2.1303771767,
				"y": 0.6958564874,
				"z": 3.5998416941,
				"element": "C" 
			},
			{
				"x": -2.4610003465,
				"y": -0.804937103,
				"z": 3.5946716881,
				"element": "C" 
			},
			{
				"x": -1.3673275347,
				"y": -1.7197923177,
				"z": 2.9997682616,
				"element": "C" 
			},
			{
				"x": -1.4897458343,
				"y": -2.0317843666,
				"z": 1.497137787,
				"element": "C" 
			},
			{
				"x": -1.3523631561,
				"y": -0.83553572,
				"z": 0.5460609568,
				"element": "C" 
			},
			{
				"x": -1.3427800523,
				"y": -1.253469051,
				"z": -0.9302484927,
				"element": "C" 
			},
			{
				"x": -1.2726912019,
				"y": -0.0722948104,
				"z": -1.9022878014,
				"element": "C" 
			},
			{
				"x": -0.1922528792,
				"y": 0.8267185168,
				"z": -1.6201233117,
				"element": "O" 
			},
			{
				"x": 1.0784885185,
				"y": 0.3909396949,
				"z": -2.0391991347,
				"element": "C" 
			},
			{
				"x": 1.2324279762,
				"y": 0.4720388879,
				"z": -3.4494411652,
				"element": "O" 
			},
			{
				"x": 1.6855377748,
				"y": 1.7163973084,
				"z": -3.9768100149,
				"element": "C" 
			},
			{
				"x": 0.6370762839,
				"y": 2.8270853091,
				"z": -3.8197985243,
				"element": "C" 
			},
			{
				"x": 1.1106736411,
				"y": 3.9433638006,
				"z": -4.5659633971,
				"element": "O" 
			},
			{
				"x": 3.067793519,
				"y": 2.1152469206,
				"z": -3.4203177613,
				"element": "C" 
			},
			{
				"x": 4.0531535542,
				"y": 1.7039203898,
				"z": -4.3820253865,
				"element": "O" 
			},
			{
				"x": 3.3781036104,
				"y": 1.4386165428,
				"z": -2.059548706,
				"element": "C" 
			},
			{
				"x": 3.9874853372,
				"y": 0.1672898699,
				"z": -2.2452466323,
				"element": "O" 
			},
			{
				"x": 2.1116110868,
				"y": 1.2116946179,
				"z": -1.2367837858,
				"element": "C" 
			},
			{
				"x": 2.4175338366,
				"y": 0.5648018942,
				"z": -0.0129122463,
				"element": "O" 
			},
			{
				"x": -4.1795736671,
				"y": 1.447647352,
				"z": 3.6411370877,
				"element": "H" 
			},
			{
				"x": -3.4582004055,
				"y": 1.2492730802,
				"z": 5.2420607898,
				"element": "H" 
			},
			{
				"x": -2.9803734909,
				"y": 2.61172776,
				"z": 4.2199276545,
				"element": "H" 
			},
			{
				"x": -1.9207907859,
				"y": 1.0422584306,
				"z": 2.581484576,
				"element": "H" 
			},
			{
				"x": -1.2019167038,
				"y": 0.8505975854,
				"z": 4.1661294583,
				"element": "H" 
			},
			{
				"x": -2.6528910068,
				"y": -1.1081022416,
				"z": 4.6328871869,
				"element": "H" 
			},
			{
				"x": -3.4078112737,
				"y": -0.9705878687,
				"z": 3.0598346287,
				"element": "H" 
			},
			{
				"x": -1.3833486317,
				"y": -2.6785029572,
				"z": 3.5334221348,
				"element": "H" 
			},
			{
				"x": -0.3791032791,
				"y": -1.2831438683,
				"z": 3.2012400769,
				"element": "H" 
			},
			{
				"x": -2.4542152362,
				"y": -2.5288169751,
				"z": 1.3156700305,
				"element": "H" 
			},
			{
				"x": -0.7193321856,
				"y": -2.7723516682,
				"z": 1.239378734,
				"element": "H" 
			},
			{
				"x": -0.4267943365,
				"y": -0.28942357,
				"z": 0.7628138028,
				"element": "H" 
			},
			{
				"x": -2.176840614,
				"y": -0.128848286,
				"z": 0.70910888,
				"element": "H" 
			},
			{
				"x": -0.5043710624,
				"y": -1.9396807967,
				"z": -1.1101076737,
				"element": "H" 
			},
			{
				"x": -2.2507740902,
				"y": -1.8242502961,
				"z": -1.1715805704,
				"element": "H" 
			},
			{
				"x": -2.1766671152,
				"y": 0.5395575062,
				"z": -1.8111821095,
				"element": "H" 
			},
			{
				"x": -1.2065924778,
				"y": -0.420446948,
				"z": -2.9411778736,
				"element": "H" 
			},
			{
				"x": 1.2220916274,
				"y": -0.6717076824,
				"z": -1.8173452078,
				"element": "H" 
			},
			{
				"x": 1.8147843371,
				"y": 1.5445330548,
				"z": -5.0491387184,
				"element": "H" 
			},
			{
				"x": -0.3182878944,
				"y": 2.4462358682,
				"z": -4.2065607436,
				"element": "H" 
			},
			{
				"x": 0.4827877668,
				"y": 3.0825536298,
				"z": -2.7629424855,
				"element": "H" 
			},
			{
				"x": 0.4921193307,
				"y": 4.6728788397,
				"z": -4.4410641486,
				"element": "H" 
			},
			{
				"x": 3.0901995026,
				"y": 3.2051150324,
				"z": -3.3093930557,
				"element": "H" 
			},
			{
				"x": 4.8700658379,
				"y": 2.1895595021,
				"z": -4.2038546525,
				"element": "H" 
			},
			{
				"x": 4.0605102921,
				"y": 2.0799444757,
				"z": -1.4792653593,
				"element": "H" 
			},
			{
				"x": 4.2406280746,
				"y": 0.13339041,
				"z": -3.1830009044,
				"element": "H" 
			},
			{
				"x": 1.6576182318,
				"y": 2.1716555899,
				"z": -0.9684196483,
				"element": "H" 
			},
			{
				"x": 3.0207319037,
				"y": -0.1582131273,
				"z": -0.2450911644,
				"element": "H" 
			}
		],
		 "valence_orbital": [ 
			{
				"type": "occ",
				"energy": -0.27817,
				"method": "rhf"
			},
			{
				"type": "occ",
				"energy": -0.27664,
				"method": "rhf"
			},
			{
				"type": "occ",
				"energy": -0.27221,
				"method": "rhf"
			},
			{
				"type": "occ",
				"energy": -0.25797,
				"method": "rhf"
			},
			{
				"type": "occ",
				"energy": -0.24821,
				"method": "rhf"
			},
			{
				"type": "unocc",
				"energy": 0.05158,
				"method": "rhf"
			},
			{
				"type": "unocc",
				"energy": 0.06531,
				"method": "rhf"
			},
			{
				"type": "unocc",
				"energy": 0.08305,
				"method": "rhf"
			},
			{
				"type": "unocc",
				"energy": 0.08832,
				"method": "rhf"
			},
			{
				"type": "unocc",
				"energy": 0.09812,
				"method": "rhf"
			}
		],
		"cosmo_sigma_profile": { 
			"-0.025": 0.0,
			"-0.024": 0.0,
			"-0.023": 0.0,
			"-0.022": 0.0,
			"-0.021": 0.0,
			"-0.02": 0.0,
			"-0.019": 0.0,
			"-0.018": 0.0,
			"-0.017": 0.50003325771,
			"-0.016": 2.18729632378,
			"-0.015": 2.01211768392,
			"-0.014": 2.02527649652,
			"-0.013": 1.71042108746,
			"-0.012": 3.08286185589,
			"-0.011": 2.19935388177,
			"-0.01": 2.98672582861,
			"-0.009": 2.84263100208,
			"-0.008": 3.66749267041,
			"-0.007": 5.3578864313,
			"-0.006": 9.81899750347,
			"-0.005": 11.891472896,
			"-0.004": 14.2987912625,
			"-0.003": 20.4117998344,
			"-0.002": 39.4389227071,
			"-0.001": 47.7408227696,
			"0.0": 46.5138603433,
			"0.001": 39.8024914728,
			"0.002": 22.9911925708,
			"0.003": 8.54119934885,
			"0.004": 9.14310655244,
			"0.005": 6.88473636113,
			"0.006": 9.40111428414,
			"0.007": 9.24681271567,
			"0.008": 7.2407339585,
			"0.009": 7.05603081436,
			"0.01": 5.43963596592,
			"0.011": 6.4185356128,
			"0.012": 5.18247185722,
			"0.013": 3.24152024541,
			"0.014": 1.2807544645,
			"0.015": 0.00400778060057,
			"0.016": 0.0,
			"0.017": 0.0,
			"0.018": 0.0,
			"0.019": 0.0,
			"0.02": 0.0,
			"0.021": 0.0,
			"0.022": 0.0,
			"0.023": 0.0,
			"0.024": 0.0,
			"0.025": 0.0
		}
	}
}
