{
	 "smiles": "[O-][N+](=O)C1=CN=C(Br)C=C1", 
	 "Tm": 411.15, 
	 "num_atms": 13, 
	 "gaussian": { 
		 "optdone": 1, 
		 "sigma_profile": "yes", 
		 "theory": "DFT", 
		 "functional": "B3LYP", 
		 "basiset": "6-31G**", 
		 "properties": { 
			 "R2extent": 3385.2018, 
			 "electric_dipole_moment_norm": 2.70155549453, 
			 "electric_quadrupole_moment_norm": 7.69408188025, 
			 "total_energy": -3023.58048198, 
			 "HOMO_LUMO_gap": 0.17354, 
			 "cosmo_polarized_energy": -8.87, 
			 "cosmo_cavitation_energy": 21.08, 
			 "cosmo_dispersion_energy": -16.16, 
			 "cosmo_repulsion_energy": 1.31, 
			 "cosmo_total_nonelectrostatic_energy": 6.23, 
			 "SMD_solvation_energy": 3.46 
		},
		"coords": [
			{
				"x": 0.8294370681,
				"y": -2.6330265151,
				"z": 0.1143004667,
				"element": "O" 
			},
			{
				"x": 0.7953816147,
				"y": -1.5369193063,
				"z": 0.6701137788,
				"element": "N" 
			},
			{
				"x": 1.3800233056,
				"y": -1.2505535923,
				"z": 1.7137731389,
				"element": "O" 
			},
			{
				"x": -0.0074107896,
				"y": -0.4846374464,
				"z": 0.0381513422,
				"element": "C" 
			},
			{
				"x": -0.6917598184,
				"y": -0.7526360024,
				"z": -1.1458353169,
				"element": "C" 
			},
			{
				"x": -1.4347725293,
				"y": 0.1774552242,
				"z": -1.7548371017,
				"element": "N" 
			},
			{
				"x": -1.5021925165,
				"y": 1.3740675607,
				"z": -1.1939776389,
				"element": "C" 
			},
			{
				"x": -2.5707704248,
				"y": 2.6817264719,
				"z": -2.0860246095,
				"element": "Br" 
			},
			{
				"x": -0.8531631707,
				"y": 1.7421510895,
				"z": -0.0081773425,
				"element": "C" 
			},
			{
				"x": -0.0814674757,
				"y": 0.7778828294,
				"z": 0.6253766805,
				"element": "C" 
			},
			{
				"x": -0.6351405528,
				"y": -1.7342643787,
				"z": -1.6039844455,
				"element": "H" 
			},
			{
				"x": -0.9547521251,
				"y": 2.7429184977,
				"z": 0.3923783404,
				"element": "H" 
			},
			{
				"x": 0.4534874145,
				"y": 0.9785355677,
				"z": 1.5459427075,
				"element": "H" 
			}
		],
		 "valence_orbital": [ 
			{
				"type": "occ",
				"energy": -0.32324,
				"method": "rhf"
			},
			{
				"type": "occ",
				"energy": -0.31155,
				"method": "rhf"
			},
			{
				"type": "occ",
				"energy": -0.30714,
				"method": "rhf"
			},
			{
				"type": "occ",
				"energy": -0.29664,
				"method": "rhf"
			},
			{
				"type": "occ",
				"energy": -0.28298,
				"method": "rhf"
			},
			{
				"type": "unocc",
				"energy": -0.10944,
				"method": "rhf"
			},
			{
				"type": "unocc",
				"energy": -0.06508,
				"method": "rhf"
			},
			{
				"type": "unocc",
				"energy": -0.026,
				"method": "rhf"
			},
			{
				"type": "unocc",
				"energy": -0.01118,
				"method": "rhf"
			},
			{
				"type": "unocc",
				"energy": 0.07927,
				"method": "rhf"
			}
		],
		"cosmo_sigma_profile": { 
			"-0.025": 0.0,
			"-0.024": 0.0,
			"-0.023": 0.0,
			"-0.022": 0.0,
			"-0.021": 0.0,
			"-0.02": 0.0,
			"-0.019": 0.0,
			"-0.018": 0.0,
			"-0.017": 0.0,
			"-0.016": 0.0,
			"-0.015": 0.0,
			"-0.014": 0.0,
			"-0.013": 0.0,
			"-0.012": 0.0,
			"-0.011": 0.0,
			"-0.01": 1.2752292928,
			"-0.009": 4.62901456257,
			"-0.008": 5.88752010063,
			"-0.007": 6.41400683999,
			"-0.006": 6.80111045911,
			"-0.005": 8.25038814741,
			"-0.004": 14.142582867,
			"-0.003": 15.8146234582,
			"-0.002": 15.3534956431,
			"-0.001": 10.8847121171,
			"0.0": 8.26445542877,
			"0.001": 7.10499287454,
			"0.002": 9.97288449948,
			"0.003": 13.4355467654,
			"0.004": 9.20115035112,
			"0.005": 5.60756340606,
			"0.006": 6.68660269078,
			"0.007": 10.1202911627,
			"0.008": 6.0230806537,
			"0.009": 4.25243396168,
			"0.01": 1.86888414591,
			"0.011": 0.790738457899,
			"0.012": 0.772964718853,
			"0.013": 0.454448139242,
			"0.014": 0.0,
			"0.015": 0.0,
			"0.016": 0.0,
			"0.017": 0.0,
			"0.018": 0.0,
			"0.019": 0.0,
			"0.02": 0.0,
			"0.021": 0.0,
			"0.022": 0.0,
			"0.023": 0.0,
			"0.024": 0.0,
			"0.025": 0.0
		}
	}
}
