{
	 "smiles": "CC1=NNC(=N1)C1=CC(Cl)=C(Cl)C=C1", 
	 "Tm": 474.15, 
	 "num_atms": 21, 
	 "gaussian": { 
		 "optdone": 1, 
		 "sigma_profile": "yes", 
		 "theory": "DFT", 
		 "functional": "B3LYP", 
		 "basiset": "6-31G**", 
		 "properties": { 
			 "R2extent": 5705.6258, 
			 "electric_dipole_moment_norm": 0.717036240367, 
			 "electric_quadrupole_moment_norm": 8.9177799715, 
			 "total_energy": -1431.8153914, 
			 "HOMO_LUMO_gap": 0.17957, 
			 "cosmo_polarized_energy": -12.36, 
			 "cosmo_cavitation_energy": 29.5, 
			 "cosmo_dispersion_energy": -22.21, 
			 "cosmo_repulsion_energy": 1.75, 
			 "cosmo_total_nonelectrostatic_energy": 9.04, 
			 "SMD_solvation_energy": 1.98 
		},
		"coords": [
			{
				"x": 0.6479833925,
				"y": -3.5672944565,
				"z": -1.5576228796,
				"element": "C" 
			},
			{
				"x": 0.2364931338,
				"y": -2.1309014069,
				"z": -1.4787176542,
				"element": "C" 
			},
			{
				"x": -0.2683234265,
				"y": -1.4698463647,
				"z": -2.5178774934,
				"element": "N" 
			},
			{
				"x": -0.4882433157,
				"y": -0.2377387352,
				"z": -1.9963605307,
				"element": "N" 
			},
			{
				"x": -0.1189455712,
				"y": -0.1929239499,
				"z": -0.6912806751,
				"element": "C" 
			},
			{
				"x": 0.3457043915,
				"y": -1.3880049663,
				"z": -0.3400443946,
				"element": "N" 
			},
			{
				"x": -0.2138891467,
				"y": 0.9739574768,
				"z": 0.1886861806,
				"element": "C" 
			},
			{
				"x": -0.7161348675,
				"y": 2.2043609669,
				"z": -0.2532630867,
				"element": "C" 
			},
			{
				"x": -0.792293497,
				"y": 3.2951995971,
				"z": 0.6120920498,
				"element": "C" 
			},
			{
				"x": -1.4282692477,
				"y": 4.8021253009,
				"z": -0.0001447464,
				"element": "Cl" 
			},
			{
				"x": -0.3634526147,
				"y": 3.1665191695,
				"z": 1.9400699566,
				"element": "C" 
			},
			{
				"x": -0.4396752548,
				"y": 4.5024323735,
				"z": 3.0577371497,
				"element": "Cl" 
			},
			{
				"x": 0.1382946603,
				"y": 1.9385957816,
				"z": 2.3830563135,
				"element": "C" 
			},
			{
				"x": 0.2135698364,
				"y": 0.8534698829,
				"z": 1.5205336125,
				"element": "C" 
			},
			{
				"x": 1.030023343,
				"y": -3.8896591153,
				"z": -0.5879600062,
				"element": "H" 
			},
			{
				"x": -0.1981547173,
				"y": -4.2038507917,
				"z": -1.8337410039,
				"element": "H" 
			},
			{
				"x": 1.4283857621,
				"y": -3.7116792824,
				"z": -2.3109630096,
				"element": "H" 
			},
			{
				"x": -0.8786358761,
				"y": 0.4832370049,
				"z": -2.5836311162,
				"element": "H" 
			},
			{
				"x": -1.0579022085,
				"y": 2.3441017257,
				"z": -1.2730541694,
				"element": "H" 
			},
			{
				"x": 0.4678900137,
				"y": 1.8477525383,
				"z": 3.4120787837,
				"element": "H" 
			},
			{
				"x": 0.6017752104,
				"y": -0.0999527493,
				"z": 1.8597067195,
				"element": "H" 
			}
		],
		 "valence_orbital": [ 
			{
				"type": "occ",
				"energy": -0.30336,
				"method": "rhf"
			},
			{
				"type": "occ",
				"energy": -0.28523,
				"method": "rhf"
			},
			{
				"type": "occ",
				"energy": -0.28033,
				"method": "rhf"
			},
			{
				"type": "occ",
				"energy": -0.26884,
				"method": "rhf"
			},
			{
				"type": "occ",
				"energy": -0.23856,
				"method": "rhf"
			},
			{
				"type": "unocc",
				"energy": -0.05899,
				"method": "rhf"
			},
			{
				"type": "unocc",
				"energy": -0.0336,
				"method": "rhf"
			},
			{
				"type": "unocc",
				"energy": -0.00637,
				"method": "rhf"
			},
			{
				"type": "unocc",
				"energy": 0.02438,
				"method": "rhf"
			},
			{
				"type": "unocc",
				"energy": 0.05366,
				"method": "rhf"
			}
		],
		"cosmo_sigma_profile": { 
			"-0.025": 0.0,
			"-0.024": 0.0,
			"-0.023": 0.0,
			"-0.022": 0.0,
			"-0.021": 0.0,
			"-0.02": 0.0,
			"-0.019": 0.0,
			"-0.018": 0.749999933592,
			"-0.017": 1.53579826516,
			"-0.016": 1.64984138584,
			"-0.015": 1.18707976266,
			"-0.014": 1.0922122242,
			"-0.013": 1.58073026241,
			"-0.012": 1.77280759882,
			"-0.011": 0.753565902733,
			"-0.01": 1.16530546648,
			"-0.009": 1.74453057362,
			"-0.008": 2.78827565557,
			"-0.007": 4.26709677296,
			"-0.006": 5.35980418552,
			"-0.005": 8.98577722925,
			"-0.004": 10.192129006,
			"-0.003": 12.6733540118,
			"-0.002": 16.3025623685,
			"-0.001": 23.4541485338,
			"0.0": 31.5317157157,
			"0.001": 28.4167015221,
			"0.002": 20.5102093433,
			"0.003": 17.9066300886,
			"0.004": 17.8078334185,
			"0.005": 7.21965875303,
			"0.006": 2.83547608681,
			"0.007": 2.85673712149,
			"0.008": 2.15540237474,
			"0.009": 1.94640284789,
			"0.01": 2.75231664326,
			"0.011": 2.0246514637,
			"0.012": 1.83854514111,
			"0.013": 2.00132371183,
			"0.014": 1.75036409088,
			"0.015": 0.751361948314,
			"0.016": 0.0493210559686,
			"0.017": 0.0,
			"0.018": 0.0,
			"0.019": 0.0,
			"0.02": 0.0,
			"0.021": 0.0,
			"0.022": 0.0,
			"0.023": 0.0,
			"0.024": 0.0,
			"0.025": 0.0
		}
	}
}
