{
	 "smiles": "CCCOC1=CC2=C(C=C1)C=C(CO2)C=O", 
	 "Tm": 329.15, 
	 "num_atms": 30, 
	 "gaussian": { 
		 "optdone": 1, 
		 "sigma_profile": "yes", 
		 "theory": "DFT", 
		 "functional": "B3LYP", 
		 "basiset": "6-31G**", 
		 "properties": { 
			 "R2extent": 5926.5045, 
			 "electric_dipole_moment_norm": 4.87553619718, 
			 "electric_quadrupole_moment_norm": 9.89019870781, 
			 "total_energy": -729.464672364, 
			 "HOMO_LUMO_gap": 0.13622, 
			 "cosmo_polarized_energy": -11.3, 
			 "cosmo_cavitation_energy": 33.91, 
			 "cosmo_dispersion_energy": -24.8, 
			 "cosmo_repulsion_energy": 1.95, 
			 "cosmo_total_nonelectrostatic_energy": 11.06, 
			 "SMD_solvation_energy": 7.0 
		},
		"coords": [
			{
				"x": 6.6715735699,
				"y": -0.4831238628,
				"z": 1.0485709356,
				"element": "C" 
			},
			{
				"x": 5.3379751017,
				"y": -0.5541701617,
				"z": 1.7988407769,
				"element": "C" 
			},
			{
				"x": 4.1493353452,
				"y": -0.3256506171,
				"z": 0.8757598945,
				"element": "C" 
			},
			{
				"x": 2.9605459281,
				"y": -0.4122700872,
				"z": 1.6659181515,
				"element": "O" 
			},
			{
				"x": 1.7549244029,
				"y": -0.2300938129,
				"z": 1.0729001946,
				"element": "C" 
			},
			{
				"x": 1.5828255895,
				"y": 0.017626652,
				"z": -0.2946471412,
				"element": "C" 
			},
			{
				"x": 0.2913601484,
				"y": 0.1701162792,
				"z": -0.7995402576,
				"element": "C" 
			},
			{
				"x": -0.842981535,
				"y": 0.1105631037,
				"z": 0.0433633019,
				"element": "C" 
			},
			{
				"x": -0.6321236139,
				"y": -0.1306596364,
				"z": 1.4158170442,
				"element": "C" 
			},
			{
				"x": 0.6381285842,
				"y": -0.3123456871,
				"z": 1.9298667086,
				"element": "C" 
			},
			{
				"x": -2.1258380629,
				"y": 0.4197558218,
				"z": -0.5357697361,
				"element": "C" 
			},
			{
				"x": -2.2701041112,
				"y": 0.498739755,
				"z": -1.8814588634,
				"element": "C" 
			},
			{
				"x": -1.0880722367,
				"y": 0.1153114602,
				"z": -2.7368833043,
				"element": "C" 
			},
			{
				"x": 0.1698517242,
				"y": 0.4594633869,
				"z": -2.1244158144,
				"element": "O" 
			},
			{
				"x": -3.5389934677,
				"y": 0.9058202146,
				"z": -2.4947660235,
				"element": "C" 
			},
			{
				"x": -4.5690264524,
				"y": 1.1404087199,
				"z": -1.8814022599,
				"element": "O" 
			},
			{
				"x": 7.5104926409,
				"y": -0.6500026805,
				"z": 1.730124252,
				"element": "H" 
			},
			{
				"x": 6.8162265925,
				"y": 0.4963142035,
				"z": 0.5790889231,
				"element": "H" 
			},
			{
				"x": 6.7295322983,
				"y": -1.2419337835,
				"z": 0.2601946147,
				"element": "H" 
			},
			{
				"x": 5.2233609037,
				"y": -1.5318588906,
				"z": 2.2807306151,
				"element": "H" 
			},
			{
				"x": 5.3095160463,
				"y": 0.1959277955,
				"z": 2.5974135053,
				"element": "H" 
			},
			{
				"x": 4.1230282281,
				"y": -1.0827250025,
				"z": 0.0790308288,
				"element": "H" 
			},
			{
				"x": 4.2090648153,
				"y": 0.6633474406,
				"z": 0.3996393815,
				"element": "H" 
			},
			{
				"x": 2.4153570341,
				"y": 0.0890683139,
				"z": -0.9820783793,
				"element": "H" 
			},
			{
				"x": -1.4934359405,
				"y": -0.1703038371,
				"z": 2.0772219618,
				"element": "H" 
			},
			{
				"x": 0.80654833,
				"y": -0.5051704593,
				"z": 2.9832580173,
				"element": "H" 
			},
			{
				"x": -2.9760774494,
				"y": 0.6425721869,
				"z": 0.1042186964,
				"element": "H" 
			},
			{
				"x": -1.092833147,
				"y": 0.634804608,
				"z": -3.6992980441,
				"element": "H" 
			},
			{
				"x": -1.0840181524,
				"y": -0.9686018046,
				"z": -2.9402404229,
				"element": "H" 
			},
			{
				"x": -3.5137431142,
				"y": 0.9960703818,
				"z": -3.6049575569,
				"element": "H" 
			}
		],
		 "valence_orbital": [ 
			{
				"type": "occ",
				"energy": -0.31604,
				"method": "rhf"
			},
			{
				"type": "occ",
				"energy": -0.27799,
				"method": "rhf"
			},
			{
				"type": "occ",
				"energy": -0.24667,
				"method": "rhf"
			},
			{
				"type": "occ",
				"energy": -0.24282,
				"method": "rhf"
			},
			{
				"type": "occ",
				"energy": -0.2075,
				"method": "rhf"
			},
			{
				"type": "unocc",
				"energy": -0.07128,
				"method": "rhf"
			},
			{
				"type": "unocc",
				"energy": -0.00382,
				"method": "rhf"
			},
			{
				"type": "unocc",
				"energy": 0.01797,
				"method": "rhf"
			},
			{
				"type": "unocc",
				"energy": 0.07211,
				"method": "rhf"
			},
			{
				"type": "unocc",
				"energy": 0.07938,
				"method": "rhf"
			}
		],
		"cosmo_sigma_profile": { 
			"-0.025": 0.0,
			"-0.024": 0.0,
			"-0.023": 0.0,
			"-0.022": 0.0,
			"-0.021": 0.0,
			"-0.02": 0.0,
			"-0.019": 0.0,
			"-0.018": 0.0,
			"-0.017": 0.0,
			"-0.016": 0.0,
			"-0.015": 0.0,
			"-0.014": 0.0,
			"-0.013": 0.0,
			"-0.012": 0.0,
			"-0.011": 0.0,
			"-0.01": 0.0,
			"-0.009": 3.06236796715e-05,
			"-0.008": 1.19900086697,
			"-0.007": 8.95093656229,
			"-0.006": 15.4826499118,
			"-0.005": 19.0810879212,
			"-0.004": 21.7288062113,
			"-0.003": 26.4085541235,
			"-0.002": 21.8950158212,
			"-0.001": 22.6066436744,
			"0.0": 21.2168116367,
			"0.001": 18.9673335816,
			"0.002": 22.0180855423,
			"0.003": 19.8419157751,
			"0.004": 11.5817128712,
			"0.005": 5.25044985323,
			"0.006": 5.9548949193,
			"0.007": 4.00014730396,
			"0.008": 3.86584604908,
			"0.009": 4.3748357782,
			"0.01": 3.49099731748,
			"0.011": 2.57325043262,
			"0.012": 5.00728299276,
			"0.013": 2.5470541482,
			"0.014": 0.440182307073,
			"0.015": 0.0,
			"0.016": 0.0,
			"0.017": 0.0,
			"0.018": 0.0,
			"0.019": 0.0,
			"0.02": 0.0,
			"0.021": 0.0,
			"0.022": 0.0,
			"0.023": 0.0,
			"0.024": 0.0,
			"0.025": 0.0
		}
	}
}
