{
	 "smiles": "CCCS(=O)(=O)CCC", 
	 "Tm": 302.65, 
	 "num_atms": 23, 
	 "gaussian": { 
		 "optdone": 1, 
		 "sigma_profile": "yes", 
		 "theory": "DFT", 
		 "functional": "B3LYP", 
		 "basiset": "6-31G**", 
		 "properties": { 
			 "R2extent": 2919.1339, 
			 "electric_dipole_moment_norm": 4.77148998637, 
			 "electric_quadrupole_moment_norm": 18.1441773288, 
			 "total_energy": -785.668162155, 
			 "HOMO_LUMO_gap": 0.32978, 
			 "cosmo_polarized_energy": -14.41, 
			 "cosmo_cavitation_energy": 25.84, 
			 "cosmo_dispersion_energy": -19.15, 
			 "cosmo_repulsion_energy": 1.55, 
			 "cosmo_total_nonelectrostatic_energy": 8.24, 
			 "SMD_solvation_energy": 3.69 
		},
		"coords": [
			{
				"x": 1.5567959823,
				"y": -2.1226298747,
				"z": -2.8133462855,
				"element": "C" 
			},
			{
				"x": 0.6656173745,
				"y": -1.4316877735,
				"z": -1.7754669854,
				"element": "C" 
			},
			{
				"x": 0.8444203833,
				"y": -1.9426691233,
				"z": -0.339556071,
				"element": "C" 
			},
			{
				"x": 2.3415720669,
				"y": -1.3848783974,
				"z": 0.5423914636,
				"element": "S" 
			},
			{
				"x": 3.5009786615,
				"y": -1.4803607995,
				"z": -0.3637849662,
				"element": "O" 
			},
			{
				"x": 2.3505375164,
				"y": -2.0877300023,
				"z": 1.8378945281,
				"element": "O" 
			},
			{
				"x": 2.0775765096,
				"y": 0.3897156204,
				"z": 0.8693056113,
				"element": "C" 
			},
			{
				"x": 0.997557303,
				"y": 0.6958782447,
				"z": 1.9070894528,
				"element": "C" 
			},
			{
				"x": 0.9447456637,
				"y": 2.1907623456,
				"z": 2.2456774168,
				"element": "C" 
			},
			{
				"x": 1.3544917667,
				"y": -1.7273761594,
				"z": -3.8137619332,
				"element": "H" 
			},
			{
				"x": 2.6140227558,
				"y": -1.9745833231,
				"z": -2.5858277907,
				"element": "H" 
			},
			{
				"x": 1.3618201895,
				"y": -3.2007164111,
				"z": -2.8354585868,
				"element": "H" 
			},
			{
				"x": 0.8200583445,
				"y": -0.3458204135,
				"z": -1.809136173,
				"element": "H" 
			},
			{
				"x": -0.3888846808,
				"y": -1.5866816865,
				"z": -2.0360447536,
				"element": "H" 
			},
			{
				"x": 0.0092136468,
				"y": -1.6609996656,
				"z": 0.3086158435,
				"element": "H" 
			},
			{
				"x": 0.931709219,
				"y": -3.0337394353,
				"z": -0.3036287722,
				"element": "H" 
			},
			{
				"x": 3.0664896937,
				"y": 0.7150816053,
				"z": 1.2097812438,
				"element": "H" 
			},
			{
				"x": 1.8888263274,
				"y": 0.8686535889,
				"z": -0.0965802615,
				"element": "H" 
			},
			{
				"x": 1.2019488222,
				"y": 0.1088895729,
				"z": 2.8077852595,
				"element": "H" 
			},
			{
				"x": 0.0175692103,
				"y": 0.3728985839,
				"z": 1.5346479575,
				"element": "H" 
			},
			{
				"x": 0.168854477,
				"y": 2.3915533907,
				"z": 2.9905665282,
				"element": "H" 
			},
			{
				"x": 1.8991578874,
				"y": 2.5373363391,
				"z": 2.6561752266,
				"element": "H" 
			},
			{
				"x": 0.7225208791,
				"y": 2.7965037736,
				"z": 1.3602620473,
				"element": "H" 
			}
		],
		 "valence_orbital": [ 
			{
				"type": "occ",
				"energy": -0.35193,
				"method": "rhf"
			},
			{
				"type": "occ",
				"energy": -0.31349,
				"method": "rhf"
			},
			{
				"type": "occ",
				"energy": -0.30426,
				"method": "rhf"
			},
			{
				"type": "occ",
				"energy": -0.28795,
				"method": "rhf"
			},
			{
				"type": "occ",
				"energy": -0.27343,
				"method": "rhf"
			},
			{
				"type": "unocc",
				"energy": 0.05635,
				"method": "rhf"
			},
			{
				"type": "unocc",
				"energy": 0.06624,
				"method": "rhf"
			},
			{
				"type": "unocc",
				"energy": 0.07908,
				"method": "rhf"
			},
			{
				"type": "unocc",
				"energy": 0.08683,
				"method": "rhf"
			},
			{
				"type": "unocc",
				"energy": 0.09635,
				"method": "rhf"
			}
		],
		"cosmo_sigma_profile": { 
			"-0.025": 0.0,
			"-0.024": 0.0,
			"-0.023": 0.0,
			"-0.022": 0.0,
			"-0.021": 0.0,
			"-0.02": 0.0,
			"-0.019": 0.0,
			"-0.018": 0.0,
			"-0.017": 0.0,
			"-0.016": 0.0,
			"-0.015": 0.0,
			"-0.014": 0.0,
			"-0.013": 0.0,
			"-0.012": 0.0,
			"-0.011": 0.0,
			"-0.01": 0.0,
			"-0.009": 0.063397012208,
			"-0.008": 4.04941851201,
			"-0.007": 10.5878561577,
			"-0.006": 8.73761853475,
			"-0.005": 12.206568107,
			"-0.004": 18.2810881676,
			"-0.003": 23.1533169937,
			"-0.002": 21.0345273897,
			"-0.001": 22.4064712147,
			"0.0": 17.229743901,
			"0.001": 14.0778212881,
			"0.002": 4.95986307275,
			"0.003": 3.64103083615,
			"0.004": 2.75702632072,
			"0.005": 2.42330627064,
			"0.006": 2.21516551819,
			"0.007": 2.45024743322,
			"0.008": 2.97731322206,
			"0.009": 2.9340780569,
			"0.01": 3.36904755074,
			"0.011": 6.11436853127,
			"0.012": 8.72060050916,
			"0.013": 6.31543718126,
			"0.014": 0.0762045846795,
			"0.015": 0.0,
			"0.016": 0.0,
			"0.017": 0.0,
			"0.018": 0.0,
			"0.019": 0.0,
			"0.02": 0.0,
			"0.021": 0.0,
			"0.022": 0.0,
			"0.023": 0.0,
			"0.024": 0.0,
			"0.025": 0.0
		}
	}
}
