{
	 "smiles": "COC1=C(Cl)C(Cl)=C(O)C(Cl)=C1Cl", 
	 "Tm": 389.15, 
	 "num_atms": 17, 
	 "gaussian": { 
		 "optdone": 1, 
		 "sigma_profile": "yes", 
		 "theory": "DFT", 
		 "functional": "B3LYP", 
		 "basiset": "6-31G**", 
		 "properties": { 
			 "R2extent": 4528.4779, 
			 "electric_dipole_moment_norm": 1.96794896783, 
			 "electric_quadrupole_moment_norm": 11.5919424701, 
			 "total_energy": -2260.33320979, 
			 "HOMO_LUMO_gap": 0.19782, 
			 "cosmo_polarized_energy": -7.74, 
			 "cosmo_cavitation_energy": 28.08, 
			 "cosmo_dispersion_energy": -21.23, 
			 "cosmo_repulsion_energy": 1.68, 
			 "cosmo_total_nonelectrostatic_energy": 8.53, 
			 "SMD_solvation_energy": 5.04 
		},
		"coords": [
			{
				"x": 2.9327595343,
				"y": 0.9013546938,
				"z": -1.0153107188,
				"element": "C" 
			},
			{
				"x": 2.2369473268,
				"y": 0.999157586,
				"z": 0.2378480009,
				"element": "O" 
			},
			{
				"x": 1.3483567931,
				"y": 0.0006287501,
				"z": 0.4949350836,
				"element": "C" 
			},
			{
				"x": 1.7488720354,
				"y": -1.1567840663,
				"z": 1.1867503449,
				"element": "C" 
			},
			{
				"x": 3.4189589247,
				"y": -1.305605489,
				"z": 1.6445495207,
				"element": "Cl" 
			},
			{
				"x": 0.8264706538,
				"y": -2.1573391159,
				"z": 1.5142693314,
				"element": "C" 
			},
			{
				"x": 1.2997285534,
				"y": -3.590592128,
				"z": 2.3716082122,
				"element": "Cl" 
			},
			{
				"x": -0.5242285342,
				"y": -2.0172312088,
				"z": 1.1507458323,
				"element": "C" 
			},
			{
				"x": -1.3812472138,
				"y": -3.0029773353,
				"z": 1.4835142055,
				"element": "O" 
			},
			{
				"x": -0.923947956,
				"y": -0.8605909207,
				"z": 0.4623258037,
				"element": "C" 
			},
			{
				"x": -2.6154109815,
				"y": -0.7203110376,
				"z": 0.0345616714,
				"element": "Cl" 
			},
			{
				"x": -0.0009684044,
				"y": 0.1383038335,
				"z": 0.1348664244,
				"element": "C" 
			},
			{
				"x": -0.5014727657,
				"y": 1.5760468942,
				"z": -0.7041317925,
				"element": "Cl" 
			},
			{
				"x": 3.5275395721,
				"y": -0.0168078306,
				"z": -1.0631156776,
				"element": "H" 
			},
			{
				"x": 3.5948721529,
				"y": 1.7670786391,
				"z": -1.0569560478,
				"element": "H" 
			},
			{
				"x": 2.232015055,
				"y": 0.9358471279,
				"z": -1.8563052643,
				"element": "H" 
			},
			{
				"x": -2.2697447458,
				"y": -2.7630783925,
				"z": 1.1768450699,
				"element": "H" 
			}
		],
		 "valence_orbital": [ 
			{
				"type": "occ",
				"energy": -0.31546,
				"method": "rhf"
			},
			{
				"type": "occ",
				"energy": -0.31092,
				"method": "rhf"
			},
			{
				"type": "occ",
				"energy": -0.29568,
				"method": "rhf"
			},
			{
				"type": "occ",
				"energy": -0.25613,
				"method": "rhf"
			},
			{
				"type": "occ",
				"energy": -0.24173,
				"method": "rhf"
			},
			{
				"type": "unocc",
				"energy": -0.04391,
				"method": "rhf"
			},
			{
				"type": "unocc",
				"energy": -0.03392,
				"method": "rhf"
			},
			{
				"type": "unocc",
				"energy": -0.02413,
				"method": "rhf"
			},
			{
				"type": "unocc",
				"energy": 0.01328,
				"method": "rhf"
			},
			{
				"type": "unocc",
				"energy": 0.03483,
				"method": "rhf"
			}
		],
		"cosmo_sigma_profile": { 
			"-0.025": 0.0,
			"-0.024": 0.0,
			"-0.023": 0.0,
			"-0.022": 0.0,
			"-0.021": 0.0,
			"-0.02": 0.0,
			"-0.019": 0.0,
			"-0.018": 0.0,
			"-0.017": 0.234439468193,
			"-0.016": 0.529412084726,
			"-0.015": 0.619939827001,
			"-0.014": 0.551799877476,
			"-0.013": 0.909801566286,
			"-0.012": 1.11054995144,
			"-0.011": 0.883232393477,
			"-0.01": 0.888733847893,
			"-0.009": 0.980063968336,
			"-0.008": 1.2054635338,
			"-0.007": 2.21369434009,
			"-0.006": 3.62544884471,
			"-0.005": 8.65603459609,
			"-0.004": 15.3498241378,
			"-0.003": 20.0210999424,
			"-0.002": 22.7003585548,
			"-0.001": 28.4566030722,
			"0.0": 19.8008593317,
			"0.001": 17.550714732,
			"0.002": 21.1756882475,
			"0.003": 27.4704790473,
			"0.004": 16.3610630694,
			"0.005": 5.56287000912,
			"0.006": 4.9688711867,
			"0.007": 2.89199108363,
			"0.008": 3.63386012782,
			"0.009": 3.59733436372,
			"0.01": 1.90118819684,
			"0.011": 0.246653429637,
			"0.012": 0.0,
			"0.013": 0.0,
			"0.014": 0.0,
			"0.015": 0.0,
			"0.016": 0.0,
			"0.017": 0.0,
			"0.018": 0.0,
			"0.019": 0.0,
			"0.02": 0.0,
			"0.021": 0.0,
			"0.022": 0.0,
			"0.023": 0.0,
			"0.024": 0.0,
			"0.025": 0.0
		}
	}
}
