{
	 "smiles": "CC12CCC3C(CCC4CC(CCC34C)C#N)C1CCC2=O", 
	 "Tm": 437.15, 
	 "num_atms": 51, 
	 "gaussian": { 
		 "optdone": 1, 
		 "sigma_profile": "yes", 
		 "theory": "DFT", 
		 "functional": "B3LYP", 
		 "basiset": "6-31G**", 
		 "properties": { 
			 "R2extent": 7880.7625, 
			 "electric_dipole_moment_norm": 4.00001056624, 
			 "electric_quadrupole_moment_norm": 33.0497742024, 
			 "total_energy": -909.577142243, 
			 "HOMO_LUMO_gap": 0.21807, 
			 "cosmo_polarized_energy": -14.99, 
			 "cosmo_cavitation_energy": 43.77, 
			 "cosmo_dispersion_energy": -30.46, 
			 "cosmo_repulsion_energy": 2.24, 
			 "cosmo_total_nonelectrostatic_energy": 15.55, 
			 "SMD_solvation_energy": 7.83 
		},
		"coords": [
			{
				"x": -0.7389012582,
				"y": 1.7032779198,
				"z": -2.515902938,
				"element": "C" 
			},
			{
				"x": -0.3010063564,
				"y": 0.3321187732,
				"z": -1.980754179,
				"element": "C" 
			},
			{
				"x": -1.3724221389,
				"y": -0.2661206007,
				"z": -1.0283740869,
				"element": "C" 
			},
			{
				"x": -1.4111048065,
				"y": 0.4227386719,
				"z": 0.3464418062,
				"element": "C" 
			},
			{
				"x": -0.0620174731,
				"y": 0.4856413497,
				"z": 1.1169041048,
				"element": "C" 
			},
			{
				"x": 1.0866028729,
				"y": 0.9115802553,
				"z": 0.1397368633,
				"element": "C" 
			},
			{
				"x": 2.4712059846,
				"y": 0.8651534972,
				"z": 0.8165293346,
				"element": "C" 
			},
			{
				"x": 2.7060197772,
				"y": -0.4047527072,
				"z": 1.6385934221,
				"element": "C" 
			},
			{
				"x": 1.631825556,
				"y": -0.547757786,
				"z": 2.7330418538,
				"element": "C" 
			},
			{
				"x": 1.9843868861,
				"y": -1.6482998767,
				"z": 3.7747408396,
				"element": "C" 
			},
			{
				"x": 1.2955562028,
				"y": -3.0250267538,
				"z": 3.5318714635,
				"element": "C" 
			},
			{
				"x": 0.9371679577,
				"y": -3.2143274446,
				"z": 2.0460900757,
				"element": "C" 
			},
			{
				"x": -0.0360877576,
				"y": -2.1223210573,
				"z": 1.5577478491,
				"element": "C" 
			},
			{
				"x": 0.1935630456,
				"y": -0.6877709269,
				"z": 2.1436633114,
				"element": "C" 
			},
			{
				"x": -0.8083652297,
				"y": -0.4756947341,
				"z": 3.3098844152,
				"element": "C" 
			},
			{
				"x": 2.1345316262,
				"y": -4.123767434,
				"z": 4.0255304779,
				"element": "C" 
			},
			{
				"x": 2.8072819295,
				"y": -4.9897979793,
				"z": 4.4080440883,
				"element": "N" 
			},
			{
				"x": 1.0920898837,
				"y": 0.3237881174,
				"z": -1.2950057527,
				"element": "C" 
			},
			{
				"x": 1.6683573376,
				"y": -1.0900524878,
				"z": -1.5731247761,
				"element": "C" 
			},
			{
				"x": 1.1876359319,
				"y": -1.4115403598,
				"z": -2.9973560071,
				"element": "C" 
			},
			{
				"x": -0.1329738051,
				"y": -0.65535838,
				"z": -3.1515493138,
				"element": "C" 
			},
			{
				"x": -0.9319395307,
				"y": -0.8040832938,
				"z": -4.0519484697,
				"element": "O" 
			},
			{
				"x": -0.9557851179,
				"y": 2.4104721082,
				"z": -1.7099075549,
				"element": "H" 
			},
			{
				"x": -1.6380076923,
				"y": 1.5895004841,
				"z": -3.1283819354,
				"element": "H" 
			},
			{
				"x": 0.0406626982,
				"y": 2.1461588475,
				"z": -3.1453630112,
				"element": "H" 
			},
			{
				"x": -1.2003237222,
				"y": -1.3409106473,
				"z": -0.9060717035,
				"element": "H" 
			},
			{
				"x": -2.3517703942,
				"y": -0.1802283213,
				"z": -1.5124700664,
				"element": "H" 
			},
			{
				"x": -1.7587310736,
				"y": 1.4527331501,
				"z": 0.2008167172,
				"element": "H" 
			},
			{
				"x": -2.1825805012,
				"y": -0.0573810622,
				"z": 0.9573256421,
				"element": "H" 
			},
			{
				"x": -0.1498180875,
				"y": 1.3550939119,
				"z": 1.7837334488,
				"element": "H" 
			},
			{
				"x": 0.87515547,
				"y": 1.9752405784,
				"z": -0.0406204186,
				"element": "H" 
			},
			{
				"x": 2.5625191144,
				"y": 1.725254634,
				"z": 1.4941061356,
				"element": "H" 
			},
			{
				"x": 3.2582234127,
				"y": 0.9891042726,
				"z": 0.0620727715,
				"element": "H" 
			},
			{
				"x": 3.6944632257,
				"y": -0.3531405451,
				"z": 2.112210689,
				"element": "H" 
			},
			{
				"x": 2.7262309605,
				"y": -1.2864219651,
				"z": 0.9891846824,
				"element": "H" 
			},
			{
				"x": 1.6467094912,
				"y": 0.4051322575,
				"z": 3.2821151321,
				"element": "H" 
			},
			{
				"x": 1.7285611925,
				"y": -1.3117016357,
				"z": 4.7838394441,
				"element": "H" 
			},
			{
				"x": 3.0695668405,
				"y": -1.7915187525,
				"z": 3.7710184553,
				"element": "H" 
			},
			{
				"x": 0.3637006995,
				"y": -3.0716819111,
				"z": 4.1095194453,
				"element": "H" 
			},
			{
				"x": 1.8636624329,
				"y": -3.2010354618,
				"z": 1.4623001454,
				"element": "H" 
			},
			{
				"x": 0.4914245848,
				"y": -4.2021034286,
				"z": 1.8914197465,
				"element": "H" 
			},
			{
				"x": 0.0127704458,
				"y": -2.1090226507,
				"z": 0.4706623203,
				"element": "H" 
			},
			{
				"x": -1.059707592,
				"y": -2.4336374622,
				"z": 1.7978592618,
				"element": "H" 
			},
			{
				"x": -1.8448380384,
				"y": -0.5048058629,
				"z": 2.9608886675,
				"element": "H" 
			},
			{
				"x": -0.6476481762,
				"y": 0.4932092975,
				"z": 3.7955597632,
				"element": "H" 
			},
			{
				"x": -0.7147081753,
				"y": -1.2469211215,
				"z": 4.0792781868,
				"element": "H" 
			},
			{
				"x": 1.7309279518,
				"y": 1.009247359,
				"z": -1.8738549071,
				"element": "H" 
			},
			{
				"x": 2.7579271395,
				"y": -1.1113606422,
				"z": -1.4823263522,
				"element": "H" 
			},
			{
				"x": 1.2778003239,
				"y": -1.835518263,
				"z": -0.8766074709,
				"element": "H" 
			},
			{
				"x": 1.0660670264,
				"y": -2.4742140971,
				"z": -3.224182997,
				"element": "H" 
			},
			{
				"x": 1.877638925,
				"y": -1.0038698329,
				"z": -3.74922862,
				"element": "H" 
			}
		],
		 "valence_orbital": [ 
			{
				"type": "occ",
				"energy": -0.30764,
				"method": "rhf"
			},
			{
				"type": "occ",
				"energy": -0.3001,
				"method": "rhf"
			},
			{
				"type": "occ",
				"energy": -0.28819,
				"method": "rhf"
			},
			{
				"type": "occ",
				"energy": -0.28586,
				"method": "rhf"
			},
			{
				"type": "occ",
				"energy": -0.23578,
				"method": "rhf"
			},
			{
				"type": "unocc",
				"energy": -0.01771,
				"method": "rhf"
			},
			{
				"type": "unocc",
				"energy": 0.03586,
				"method": "rhf"
			},
			{
				"type": "unocc",
				"energy": 0.04131,
				"method": "rhf"
			},
			{
				"type": "unocc",
				"energy": 0.04882,
				"method": "rhf"
			},
			{
				"type": "unocc",
				"energy": 0.068,
				"method": "rhf"
			}
		],
		"cosmo_sigma_profile": { 
			"-0.025": 0.0,
			"-0.024": 0.0,
			"-0.023": 0.0,
			"-0.022": 0.0,
			"-0.021": 0.0,
			"-0.02": 0.0,
			"-0.019": 0.0,
			"-0.018": 0.0,
			"-0.017": 0.0,
			"-0.016": 0.0,
			"-0.015": 0.0,
			"-0.014": 0.0,
			"-0.013": 0.0,
			"-0.012": 0.000999618385256,
			"-0.011": 0.0196585902429,
			"-0.01": 0.0169924181692,
			"-0.009": 0.0195957508756,
			"-0.008": 0.10419405124,
			"-0.007": 3.09284691253,
			"-0.006": 6.07552760843,
			"-0.005": 11.5021766834,
			"-0.004": 25.1947361334,
			"-0.003": 40.2444554051,
			"-0.002": 64.8047819038,
			"-0.001": 58.25535137,
			"0.0": 37.9977438498,
			"0.001": 25.560780491,
			"0.002": 9.8010066997,
			"0.003": 3.80552141976,
			"0.004": 3.22042386641,
			"0.005": 3.50572365406,
			"0.006": 5.05102873089,
			"0.007": 3.66357757849,
			"0.008": 4.64069902982,
			"0.009": 5.3660078413,
			"0.01": 5.29025773768,
			"0.011": 6.12124412236,
			"0.012": 7.14693650144,
			"0.013": 5.4043080254,
			"0.014": 1.6111715553,
			"0.015": 0.0,
			"0.016": 0.0,
			"0.017": 0.0,
			"0.018": 0.0,
			"0.019": 0.0,
			"0.02": 0.0,
			"0.021": 0.0,
			"0.022": 0.0,
			"0.023": 0.0,
			"0.024": 0.0,
			"0.025": 0.0
		}
	}
}
