{
	 "smiles": "CCOC(=O)C1=C(C)NC(=O)NC1C1=CC=CC(OC)=C1O", 
	 "Tm": 482.15, 
	 "num_atms": 40, 
	 "gaussian": { 
		 "optdone": 1, 
		 "sigma_profile": "yes", 
		 "theory": "DFT", 
		 "functional": "B3LYP", 
		 "basiset": "6-31G**", 
		 "properties": { 
			 "R2extent": 7394.1224, 
			 "electric_dipole_moment_norm": 4.31733204306, 
			 "electric_quadrupole_moment_norm": 28.6538550403, 
			 "total_energy": -1068.0916945, 
			 "HOMO_LUMO_gap": 0.17691, 
			 "cosmo_polarized_energy": -21.4, 
			 "cosmo_cavitation_energy": 42.77, 
			 "cosmo_dispersion_energy": -29.83, 
			 "cosmo_repulsion_energy": 2.32, 
			 "cosmo_total_nonelectrostatic_energy": 15.27, 
			 "SMD_solvation_energy": 9.31 
		},
		"coords": [
			{
				"x": 1.8922071659,
				"y": 3.5534258855,
				"z": -3.5336486912,
				"element": "C" 
			},
			{
				"x": 0.8153180056,
				"y": 3.513825795,
				"z": -2.4650404979,
				"element": "C" 
			},
			{
				"x": 0.319015832,
				"y": 2.1606299451,
				"z": -2.3965043122,
				"element": "O" 
			},
			{
				"x": -0.6570502989,
				"y": 1.9460057036,
				"z": -1.4710678864,
				"element": "C" 
			},
			{
				"x": -1.0719500117,
				"y": 2.8459605105,
				"z": -0.7546352349,
				"element": "O" 
			},
			{
				"x": -1.1663340326,
				"y": 0.573334145,
				"z": -1.4139138286,
				"element": "C" 
			},
			{
				"x": -0.8556431575,
				"y": -0.4355347551,
				"z": -2.2788466167,
				"element": "C" 
			},
			{
				"x": 0.1470201259,
				"y": -0.3848188213,
				"z": -3.4056766869,
				"element": "C" 
			},
			{
				"x": -1.5097225286,
				"y": -1.6428118557,
				"z": -2.167725391,
				"element": "N" 
			},
			{
				"x": -2.5827868924,
				"y": -1.9137647639,
				"z": -1.3123124116,
				"element": "C" 
			},
			{
				"x": -3.1351290955,
				"y": -3.0046554019,
				"z": -1.3220967757,
				"element": "O" 
			},
			{
				"x": -2.9740773669,
				"y": -0.8458620116,
				"z": -0.5598812729,
				"element": "N" 
			},
			{
				"x": -2.1630496588,
				"y": 0.3470082204,
				"z": -0.2830492234,
				"element": "C" 
			},
			{
				"x": -1.5235147839,
				"y": 0.3052679831,
				"z": 1.1078734163,
				"element": "C" 
			},
			{
				"x": -1.8102931494,
				"y": 1.3166913022,
				"z": 2.0381264538,
				"element": "C" 
			},
			{
				"x": -1.2763300722,
				"y": 1.2931937601,
				"z": 3.3213684879,
				"element": "C" 
			},
			{
				"x": -0.4340468019,
				"y": 0.2463855887,
				"z": 3.7164662427,
				"element": "C" 
			},
			{
				"x": -0.1349152911,
				"y": -0.7597652562,
				"z": 2.8042325346,
				"element": "C" 
			},
			{
				"x": 0.6739349439,
				"y": -1.8501239154,
				"z": 3.0359031257,
				"element": "O" 
			},
			{
				"x": 1.241064182,
				"y": -2.0002991783,
				"z": 4.3276621641,
				"element": "C" 
			},
			{
				"x": -0.6713434039,
				"y": -0.7314768999,
				"z": 1.500375245,
				"element": "C" 
			},
			{
				"x": -0.3504731131,
				"y": -1.7311248151,
				"z": 0.6303496455,
				"element": "O" 
			},
			{
				"x": 2.7141128694,
				"y": 2.8742300853,
				"z": -3.2882194053,
				"element": "H" 
			},
			{
				"x": 2.2979652043,
				"y": 4.5667743742,
				"z": -3.6146182922,
				"element": "H" 
			},
			{
				"x": 1.4890017128,
				"y": 3.2676738517,
				"z": -4.5098426836,
				"element": "H" 
			},
			{
				"x": 1.20270345,
				"y": 3.801335385,
				"z": -1.4825304531,
				"element": "H" 
			},
			{
				"x": -0.0153306846,
				"y": 4.188455391,
				"z": -2.695949617,
				"element": "H" 
			},
			{
				"x": 1.142204364,
				"y": -0.1395698947,
				"z": -3.0313599946,
				"element": "H" 
			},
			{
				"x": 0.1900257937,
				"y": -1.3474153411,
				"z": -3.9232088091,
				"element": "H" 
			},
			{
				"x": -0.1165705232,
				"y": 0.3886244365,
				"z": -4.1297777663,
				"element": "H" 
			},
			{
				"x": -1.2571283523,
				"y": -2.4177787218,
				"z": -2.7615643982,
				"element": "H" 
			},
			{
				"x": -3.6915287684,
				"y": -1.0793063546,
				"z": 0.1123453899,
				"element": "H" 
			},
			{
				"x": -2.8393789784,
				"y": 1.2076462128,
				"z": -0.2748859973,
				"element": "H" 
			},
			{
				"x": -2.448861371,
				"y": 2.1378943878,
				"z": 1.7287792584,
				"element": "H" 
			},
			{
				"x": -1.5092531895,
				"y": 2.0866201636,
				"z": 4.0244779266,
				"element": "H" 
			},
			{
				"x": -0.0215353511,
				"y": 0.2266642205,
				"z": 4.7187189408,
				"element": "H" 
			},
			{
				"x": 0.464138393,
				"y": -2.0844891955,
				"z": 5.0978313772,
				"element": "H" 
			},
			{
				"x": 1.8242498613,
				"y": -2.9220058966,
				"z": 4.3004396278,
				"element": "H" 
			},
			{
				"x": 1.9023158313,
				"y": -1.1600007927,
				"z": 4.5737767669,
				"element": "H" 
			},
			{
				"x": 0.2010691417,
				"y": -2.3628434762,
				"z": 1.1176296426,
				"element": "H" 
			}
		],
		 "valence_orbital": [ 
			{
				"type": "occ",
				"energy": -0.25727,
				"method": "rhf"
			},
			{
				"type": "occ",
				"energy": -0.24694,
				"method": "rhf"
			},
			{
				"type": "occ",
				"energy": -0.22895,
				"method": "rhf"
			},
			{
				"type": "occ",
				"energy": -0.21271,
				"method": "rhf"
			},
			{
				"type": "occ",
				"energy": -0.20501,
				"method": "rhf"
			},
			{
				"type": "unocc",
				"energy": -0.0281,
				"method": "rhf"
			},
			{
				"type": "unocc",
				"energy": 0.00711,
				"method": "rhf"
			},
			{
				"type": "unocc",
				"energy": 0.02027,
				"method": "rhf"
			},
			{
				"type": "unocc",
				"energy": 0.06942,
				"method": "rhf"
			},
			{
				"type": "unocc",
				"energy": 0.07559,
				"method": "rhf"
			}
		],
		"cosmo_sigma_profile": { 
			"-0.025": 0.0,
			"-0.024": 0.0,
			"-0.023": 0.0,
			"-0.022": 0.0,
			"-0.021": 0.0,
			"-0.02": 0.0,
			"-0.019": 0.0,
			"-0.018": 0.0,
			"-0.017": 0.0,
			"-0.016": 0.0703097936766,
			"-0.015": 0.841730043207,
			"-0.014": 2.14244485716,
			"-0.013": 2.46596888582,
			"-0.012": 2.04726342205,
			"-0.011": 3.16858457501,
			"-0.01": 2.20702948469,
			"-0.009": 2.7176948024,
			"-0.008": 2.77276865642,
			"-0.007": 3.5196836813,
			"-0.006": 10.0318992569,
			"-0.005": 24.7379911824,
			"-0.004": 31.577379199,
			"-0.003": 35.5109963085,
			"-0.002": 27.3432809045,
			"-0.001": 25.9050273461,
			"0.0": 25.2726871658,
			"0.001": 18.6769307835,
			"0.002": 19.570861102,
			"0.003": 18.4314870534,
			"0.004": 14.7086178084,
			"0.005": 12.3175887643,
			"0.006": 10.5360635807,
			"0.007": 6.96934754779,
			"0.008": 5.54934184934,
			"0.009": 3.68837269621,
			"0.01": 3.26672859923,
			"0.011": 3.58128242771,
			"0.012": 3.82681170393,
			"0.013": 6.91357656854,
			"0.014": 6.39660131463,
			"0.015": 0.482965964315,
			"0.016": 0.0,
			"0.017": 0.0,
			"0.018": 0.0,
			"0.019": 0.0,
			"0.02": 0.0,
			"0.021": 0.0,
			"0.022": 0.0,
			"0.023": 0.0,
			"0.024": 0.0,
			"0.025": 0.0
		}
	}
}
