{
	 "smiles": "O=C1CCCC(=O)C1", 
	 "Tm": 377.15, 
	 "num_atms": 16, 
	 "gaussian": { 
		 "optdone": 1, 
		 "sigma_profile": "yes", 
		 "theory": "DFT", 
		 "functional": "B3LYP", 
		 "basiset": "6-31G**", 
		 "properties": { 
			 "R2extent": 997.0607, 
			 "electric_dipole_moment_norm": 3.57006370391, 
			 "electric_quadrupole_moment_norm": 8.53935740908, 
			 "total_energy": -383.902943143, 
			 "HOMO_LUMO_gap": 0.21104, 
			 "cosmo_polarized_energy": -12.29, 
			 "cosmo_cavitation_energy": 19.02, 
			 "cosmo_dispersion_energy": -14.26, 
			 "cosmo_repulsion_energy": 1.21, 
			 "cosmo_total_nonelectrostatic_energy": 5.97, 
			 "SMD_solvation_energy": 4.18 
		},
		"coords": [
			{
				"x": 1.1658795133,
				"y": 0.5316886205,
				"z": -2.6425111932,
				"element": "O" 
			},
			{
				"x": 0.916977434,
				"y": 0.226594055,
				"z": -1.4948564319,
				"element": "C" 
			},
			{
				"x": 1.0789805436,
				"y": 1.2131183299,
				"z": -0.3388468679,
				"element": "C" 
			},
			{
				"x": 0.8771597553,
				"y": 0.5763820495,
				"z": 1.043358145,
				"element": "C" 
			},
			{
				"x": -0.4524506462,
				"y": -0.1878630007,
				"z": 1.1121376392,
				"element": "C" 
			},
			{
				"x": -0.6367450387,
				"y": -1.1952818592,
				"z": -0.0222628271,
				"element": "C" 
			},
			{
				"x": -1.5688765649,
				"y": -1.9714872197,
				"z": -0.0501719315,
				"element": "O" 
			},
			{
				"x": 0.4192569881,
				"y": -1.1699888774,
				"z": -1.1260978779,
				"element": "C" 
			},
			{
				"x": 2.0596747322,
				"y": 1.6905209821,
				"z": -0.4370359226,
				"element": "H" 
			},
			{
				"x": 0.338814317,
				"y": 2.0088542527,
				"z": -0.5034317519,
				"element": "H" 
			},
			{
				"x": 1.7088398217,
				"y": -0.1053698655,
				"z": 1.262921238,
				"element": "H" 
			},
			{
				"x": 0.904532573,
				"y": 1.3489255347,
				"z": 1.8181735717,
				"element": "H" 
			},
			{
				"x": -0.5766758126,
				"y": -0.7207617959,
				"z": 2.0607650068,
				"element": "H" 
			},
			{
				"x": -1.2977212289,
				"y": 0.5116960392,
				"z": 1.0467441557,
				"element": "H" 
			},
			{
				"x": 1.2926826253,
				"y": -1.7157753178,
				"z": -0.7315409535,
				"element": "H" 
			},
			{
				"x": 0.0667709879,
				"y": -1.7014519273,
				"z": -2.0111439988,
				"element": "H" 
			}
		],
		 "valence_orbital": [ 
			{
				"type": "occ",
				"energy": -0.37098,
				"method": "rhf"
			},
			{
				"type": "occ",
				"energy": -0.35161,
				"method": "rhf"
			},
			{
				"type": "occ",
				"energy": -0.33977,
				"method": "rhf"
			},
			{
				"type": "occ",
				"energy": -0.26173,
				"method": "rhf"
			},
			{
				"type": "occ",
				"energy": -0.2463,
				"method": "rhf"
			},
			{
				"type": "unocc",
				"energy": -0.03526,
				"method": "rhf"
			},
			{
				"type": "unocc",
				"energy": -0.01571,
				"method": "rhf"
			},
			{
				"type": "unocc",
				"energy": 0.06739,
				"method": "rhf"
			},
			{
				"type": "unocc",
				"energy": 0.1094,
				"method": "rhf"
			},
			{
				"type": "unocc",
				"energy": 0.12602,
				"method": "rhf"
			}
		],
		"cosmo_sigma_profile": { 
			"-0.025": 0.0,
			"-0.024": 0.0,
			"-0.023": 0.0,
			"-0.022": 0.0,
			"-0.021": 0.0,
			"-0.02": 0.0,
			"-0.019": 0.0,
			"-0.018": 0.0,
			"-0.017": 0.0,
			"-0.016": 0.0,
			"-0.015": 0.0,
			"-0.014": 0.0,
			"-0.013": 0.0,
			"-0.012": 0.0,
			"-0.011": 0.0,
			"-0.01": 0.00164615166253,
			"-0.009": 4.25189309703,
			"-0.008": 4.75476325134,
			"-0.007": 4.83164037817,
			"-0.006": 12.1710939595,
			"-0.005": 14.7576092673,
			"-0.004": 16.5420275484,
			"-0.003": 16.9151062757,
			"-0.002": 12.9792153874,
			"-0.001": 8.27350829988,
			"0.0": 3.63831754682,
			"0.001": 3.22348244673,
			"0.002": 3.04084045087,
			"0.003": 1.7966401964,
			"0.004": 2.72893744145,
			"0.005": 2.9565293666,
			"0.006": 3.05881776436,
			"0.007": 2.74431788424,
			"0.008": 2.84516068289,
			"0.009": 3.5137833069,
			"0.01": 4.45814005961,
			"0.011": 8.04344868947,
			"0.012": 8.07184231988,
			"0.013": 3.50544335101,
			"0.014": 0.00879120041289,
			"0.015": 0.0,
			"0.016": 0.0,
			"0.017": 0.0,
			"0.018": 0.0,
			"0.019": 0.0,
			"0.02": 0.0,
			"0.021": 0.0,
			"0.022": 0.0,
			"0.023": 0.0,
			"0.024": 0.0,
			"0.025": 0.0
		}
	}
}
