{
	 "smiles": "OC(=O)C1=C(C=C(C=C1)C(F)(F)F)C(F)(F)F", 
	 "Tm": 384.15, 
	 "num_atms": 21, 
	 "gaussian": { 
		 "optdone": 1, 
		 "sigma_profile": "yes", 
		 "theory": "DFT", 
		 "functional": "B3LYP", 
		 "basiset": "6-31G**", 
		 "properties": { 
			 "R2extent": 4588.1931, 
			 "electric_dipole_moment_norm": 3.28410923539, 
			 "electric_quadrupole_moment_norm": 13.959083904, 
			 "total_energy": -1094.87866244, 
			 "HOMO_LUMO_gap": 0.20814, 
			 "cosmo_polarized_energy": -10.18, 
			 "cosmo_cavitation_energy": 28.92, 
			 "cosmo_dispersion_energy": -20.16, 
			 "cosmo_repulsion_energy": 1.44, 
			 "cosmo_total_nonelectrostatic_energy": 10.2, 
			 "SMD_solvation_energy": 8.28 
		},
		"coords": [
			{
				"x": 0.8813312737,
				"y": -3.2836598764,
				"z": 2.8656452832,
				"element": "O" 
			},
			{
				"x": 1.289108278,
				"y": -2.7311795438,
				"z": 1.695932802,
				"element": "C" 
			},
			{
				"x": 2.0992071722,
				"y": -3.2652101481,
				"z": 0.9737118778,
				"element": "O" 
			},
			{
				"x": 0.5862709501,
				"y": -1.4359299183,
				"z": 1.4189096564,
				"element": "C" 
			},
			{
				"x": 1.1339071876,
				"y": -0.4337331889,
				"z": 0.5881764617,
				"element": "C" 
			},
			{
				"x": 0.3919916802,
				"y": 0.7177080418,
				"z": 0.3274500848,
				"element": "C" 
			},
			{
				"x": -0.8828126113,
				"y": 0.885836779,
				"z": 0.8701495539,
				"element": "C" 
			},
			{
				"x": -1.4233456526,
				"y": -0.0926116585,
				"z": 1.7011415557,
				"element": "C" 
			},
			{
				"x": -0.6845515405,
				"y": -1.2397765042,
				"z": 1.9755025561,
				"element": "C" 
			},
			{
				"x": -1.6878999857,
				"y": 2.1117311817,
				"z": 0.5181981865,
				"element": "C" 
			},
			{
				"x": -0.8970856236,
				"y": 3.181681603,
				"z": 0.295610207,
				"element": "F" 
			},
			{
				"x": -2.5537165172,
				"y": 2.436259669,
				"z": 1.5014837102,
				"element": "F" 
			},
			{
				"x": -2.4147132447,
				"y": 1.9126629707,
				"z": -0.6031725623,
				"element": "F" 
			},
			{
				"x": 2.5252368342,
				"y": -0.5221820318,
				"z": -0.0205303259,
				"element": "C" 
			},
			{
				"x": 2.9021586796,
				"y": 0.6802850886,
				"z": -0.5213923794,
				"element": "F" 
			},
			{
				"x": 2.5814874076,
				"y": -1.3977853893,
				"z": -1.0361108718,
				"element": "F" 
			},
			{
				"x": 3.4501402642,
				"y": -0.8652106858,
				"z": 0.8953315978,
				"element": "F" 
			},
			{
				"x": 1.35296166,
				"y": -4.1304541692,
				"z": 2.9362855937,
				"element": "H" 
			},
			{
				"x": 0.8190738572,
				"y": 1.4973874168,
				"z": -0.2892761233,
				"element": "H" 
			},
			{
				"x": -2.4063960536,
				"y": 0.0439716707,
				"z": 2.1376252068,
				"element": "H" 
			},
			{
				"x": -1.0925540153,
				"y": -2.0034913072,
				"z": 2.6260279289,
				"element": "H" 
			}
		],
		 "valence_orbital": [ 
			{
				"type": "occ",
				"energy": -0.37351,
				"method": "rhf"
			},
			{
				"type": "occ",
				"energy": -0.33582,
				"method": "rhf"
			},
			{
				"type": "occ",
				"energy": -0.30008,
				"method": "rhf"
			},
			{
				"type": "occ",
				"energy": -0.29423,
				"method": "rhf"
			},
			{
				"type": "occ",
				"energy": -0.28891,
				"method": "rhf"
			},
			{
				"type": "unocc",
				"energy": -0.08077,
				"method": "rhf"
			},
			{
				"type": "unocc",
				"energy": -0.04633,
				"method": "rhf"
			},
			{
				"type": "unocc",
				"energy": 0.0188,
				"method": "rhf"
			},
			{
				"type": "unocc",
				"energy": 0.0637,
				"method": "rhf"
			},
			{
				"type": "unocc",
				"energy": 0.09225,
				"method": "rhf"
			}
		],
		"cosmo_sigma_profile": { 
			"-0.025": 0.0,
			"-0.024": 0.0,
			"-0.023": 0.0,
			"-0.022": 0.0,
			"-0.021": 0.0,
			"-0.02": 0.0,
			"-0.019": 0.38030038571,
			"-0.018": 1.36888650261,
			"-0.017": 0.376841438695,
			"-0.016": 0.964051036701,
			"-0.015": 0.905526988073,
			"-0.014": 0.759648509051,
			"-0.013": 0.163214203514,
			"-0.012": 0.661619655731,
			"-0.011": 1.15978806578,
			"-0.01": 0.39622206245,
			"-0.009": 1.05775174968,
			"-0.008": 4.09707820565,
			"-0.007": 6.83487505491,
			"-0.006": 5.4613981555,
			"-0.005": 6.91697830046,
			"-0.004": 9.45409728344,
			"-0.003": 13.0724570547,
			"-0.002": 16.2867446986,
			"-0.001": 22.6589131623,
			"0.0": 20.3084665722,
			"0.001": 18.7722632302,
			"0.002": 44.6686908787,
			"0.003": 29.3105777128,
			"0.004": 4.51663387988,
			"0.005": 4.21915160742,
			"0.006": 2.88275798187,
			"0.007": 2.9226661702,
			"0.008": 2.50472909811,
			"0.009": 2.67120045926,
			"0.01": 3.76381564041,
			"0.011": 3.26640512244,
			"0.012": 0.15439393188,
			"0.013": 0.0,
			"0.014": 0.0,
			"0.015": 0.0,
			"0.016": 0.0,
			"0.017": 0.0,
			"0.018": 0.0,
			"0.019": 0.0,
			"0.02": 0.0,
			"0.021": 0.0,
			"0.022": 0.0,
			"0.023": 0.0,
			"0.024": 0.0,
			"0.025": 0.0
		}
	}
}
