{
	 "smiles": "O=CC1=C(NC2=C1C=CC=C2)C1=CC=CC=C1", 
	 "Tm": 524.15, 
	 "num_atms": 28, 
	 "gaussian": { 
		 "optdone": 1, 
		 "sigma_profile": "yes", 
		 "theory": "DFT", 
		 "functional": "B3LYP", 
		 "basiset": "6-31G**", 
		 "properties": { 
			 "R2extent": 4580.7505, 
			 "electric_dipole_moment_norm": 4.0764798221, 
			 "electric_quadrupole_moment_norm": 11.4578841323, 
			 "total_energy": -708.208863963, 
			 "HOMO_LUMO_gap": 0.15215, 
			 "cosmo_polarized_energy": -13.86, 
			 "cosmo_cavitation_energy": 31.95, 
			 "cosmo_dispersion_energy": -23.53, 
			 "cosmo_repulsion_energy": 1.77, 
			 "cosmo_total_nonelectrostatic_energy": 10.19, 
			 "SMD_solvation_energy": 5.76 
		},
		"coords": [
			{
				"x": -1.6703765033,
				"y": -2.4544173559,
				"z": -1.9176731566,
				"element": "O" 
			},
			{
				"x": -0.8764502405,
				"y": -2.4614985718,
				"z": -0.985059041,
				"element": "C" 
			},
			{
				"x": -0.2866969336,
				"y": -1.3206092628,
				"z": -0.3034971094,
				"element": "C" 
			},
			{
				"x": -0.6079458014,
				"y": 0.0460748098,
				"z": -0.3783651217,
				"element": "C" 
			},
			{
				"x": 0.1913549153,
				"y": 0.7125471101,
				"z": 0.5239623885,
				"element": "N" 
			},
			{
				"x": 1.0393033303,
				"y": -0.1581221361,
				"z": 1.1834689862,
				"element": "C" 
			},
			{
				"x": 0.7560780952,
				"y": -1.4564684766,
				"z": 0.696687303,
				"element": "C" 
			},
			{
				"x": 1.483211593,
				"y": -2.5412305593,
				"z": 1.2177824423,
				"element": "C" 
			},
			{
				"x": 2.4511603142,
				"y": -2.2997039845,
				"z": 2.1859363723,
				"element": "C" 
			},
			{
				"x": 2.7172400588,
				"y": -0.9954232262,
				"z": 2.6475530961,
				"element": "C" 
			},
			{
				"x": 2.0140377025,
				"y": 0.0967276581,
				"z": 2.1513611499,
				"element": "C" 
			},
			{
				"x": -1.5935013744,
				"y": 0.8205881823,
				"z": -1.1468118987,
				"element": "C" 
			},
			{
				"x": -2.1408332385,
				"y": 1.9934986255,
				"z": -0.5871918156,
				"element": "C" 
			},
			{
				"x": -3.036077441,
				"y": 2.7797389432,
				"z": -1.3074824713,
				"element": "C" 
			},
			{
				"x": -3.4053476009,
				"y": 2.4106343244,
				"z": -2.6025594866,
				"element": "C" 
			},
			{
				"x": -2.879517676,
				"y": 1.2448832221,
				"z": -3.1622047263,
				"element": "C" 
			},
			{
				"x": -1.9840448034,
				"y": 0.4524906247,
				"z": -2.4464030425,
				"element": "C" 
			},
			{
				"x": -0.5306142372,
				"y": -3.4354533447,
				"z": -0.5757864016,
				"element": "H" 
			},
			{
				"x": 0.2227147846,
				"y": 1.7174029914,
				"z": 0.5991343387,
				"element": "H" 
			},
			{
				"x": 1.3005174311,
				"y": -3.5539390064,
				"z": 0.8723333094,
				"element": "H" 
			},
			{
				"x": 3.0169549351,
				"y": -3.1319628955,
				"z": 2.5939274912,
				"element": "H" 
			},
			{
				"x": 3.4822630066,
				"y": -0.8404402726,
				"z": 3.4022650456,
				"element": "H" 
			},
			{
				"x": 2.2135560197,
				"y": 1.1046788297,
				"z": 2.5035057659,
				"element": "H" 
			},
			{
				"x": -1.8977250339,
				"y": 2.2727842213,
				"z": 0.434447496,
				"element": "H" 
			},
			{
				"x": -3.4537758066,
				"y": 3.6732808329,
				"z": -0.8527314951,
				"element": "H" 
			},
			{
				"x": -4.1049723072,
				"y": 3.0215065184,
				"z": -3.1656212384,
				"element": "H" 
			},
			{
				"x": -3.1676952438,
				"y": 0.9458571216,
				"z": -4.1657093545,
				"element": "H" 
			},
			{
				"x": -1.6022179444,
				"y": -0.4646249231,
				"z": -2.873568826,
				"element": "H" 
			}
		],
		 "valence_orbital": [ 
			{
				"type": "occ",
				"energy": -0.26923,
				"method": "rhf"
			},
			{
				"type": "occ",
				"energy": -0.25761,
				"method": "rhf"
			},
			{
				"type": "occ",
				"energy": -0.23824,
				"method": "rhf"
			},
			{
				"type": "occ",
				"energy": -0.22849,
				"method": "rhf"
			},
			{
				"type": "occ",
				"energy": -0.21068,
				"method": "rhf"
			},
			{
				"type": "unocc",
				"energy": -0.05853,
				"method": "rhf"
			},
			{
				"type": "unocc",
				"energy": -0.01028,
				"method": "rhf"
			},
			{
				"type": "unocc",
				"energy": -0.00751,
				"method": "rhf"
			},
			{
				"type": "unocc",
				"energy": 0.00634,
				"method": "rhf"
			},
			{
				"type": "unocc",
				"energy": 0.02194,
				"method": "rhf"
			}
		],
		"cosmo_sigma_profile": { 
			"-0.025": 0.0,
			"-0.024": 0.0,
			"-0.023": 0.0,
			"-0.022": 0.0,
			"-0.021": 0.0,
			"-0.02": 0.0,
			"-0.019": 0.0,
			"-0.018": 0.0,
			"-0.017": 0.197255617808,
			"-0.016": 0.888915972341,
			"-0.015": 1.11090684669,
			"-0.014": 0.873535198988,
			"-0.013": 1.90199132202,
			"-0.012": 1.19679807409,
			"-0.011": 1.23596283744,
			"-0.01": 1.37708825841,
			"-0.009": 1.3994876918,
			"-0.008": 2.25330902639,
			"-0.007": 3.91763094042,
			"-0.006": 13.9617230396,
			"-0.005": 19.9066743829,
			"-0.004": 18.5784568247,
			"-0.003": 18.2919187188,
			"-0.002": 14.4179631208,
			"-0.001": 15.1016544904,
			"0.0": 15.6440207536,
			"0.001": 19.0830984334,
			"0.002": 21.0927480875,
			"0.003": 19.9501568529,
			"0.004": 20.389687241,
			"0.005": 18.9901662728,
			"0.006": 9.06980305266,
			"0.007": 2.30387199228,
			"0.008": 1.48246763745,
			"0.009": 2.20740222133,
			"0.01": 2.30602267952,
			"0.011": 2.11756932349,
			"0.012": 2.66460135027,
			"0.013": 2.20474390119,
			"0.014": 1.24057459187,
			"0.015": 0.04584226926,
			"0.016": 0.0,
			"0.017": 0.0,
			"0.018": 0.0,
			"0.019": 0.0,
			"0.02": 0.0,
			"0.021": 0.0,
			"0.022": 0.0,
			"0.023": 0.0,
			"0.024": 0.0,
			"0.025": 0.0
		}
	}
}
