{
	 "smiles": "CS(=O)C1=C(N)C=CC=C1", 
	 "Tm": 430.15, 
	 "num_atms": 19, 
	 "gaussian": { 
		 "optdone": 1, 
		 "sigma_profile": "yes", 
		 "theory": "DFT", 
		 "functional": "B3LYP", 
		 "basiset": "6-31G**", 
		 "properties": { 
			 "R2extent": 1747.2769, 
			 "electric_dipole_moment_norm": 2.78844516891, 
			 "electric_quadrupole_moment_norm": 10.0308179328, 
			 "total_energy": -800.290652004, 
			 "HOMO_LUMO_gap": 0.18847, 
			 "cosmo_polarized_energy": -11.52, 
			 "cosmo_cavitation_energy": 23.28, 
			 "cosmo_dispersion_energy": -17.93, 
			 "cosmo_repulsion_energy": 1.4, 
			 "cosmo_total_nonelectrostatic_energy": 6.76, 
			 "SMD_solvation_energy": 3.89 
		},
		"coords": [
			{
				"x": 0.8600318027,
				"y": -1.664969147,
				"z": -0.4897657286,
				"element": "C" 
			},
			{
				"x": -0.7069066442,
				"y": -1.0833551968,
				"z": 0.2718751504,
				"element": "S" 
			},
			{
				"x": -0.5419707349,
				"y": -1.2706175128,
				"z": 1.7789853987,
				"element": "O" 
			},
			{
				"x": -0.5240585759,
				"y": 0.6716590564,
				"z": -0.1130903855,
				"element": "C" 
			},
			{
				"x": 0.3470341149,
				"y": 1.5002361861,
				"z": 0.6360933591,
				"element": "C" 
			},
			{
				"x": 1.1358258971,
				"y": 0.9730740352,
				"z": 1.6416089699,
				"element": "N" 
			},
			{
				"x": 0.4111911373,
				"y": 2.8613032773,
				"z": 0.2762473427,
				"element": "C" 
			},
			{
				"x": -0.3546602174,
				"y": 3.3642296891,
				"z": -0.7698223787,
				"element": "C" 
			},
			{
				"x": -1.2260455904,
				"y": 2.5392136005,
				"z": -1.4887937186,
				"element": "C" 
			},
			{
				"x": -1.3130403316,
				"y": 1.1931123848,
				"z": -1.1408728282,
				"element": "C" 
			},
			{
				"x": 0.946831343,
				"y": -2.7292887072,
				"z": -0.2601478052,
				"element": "H" 
			},
			{
				"x": 0.8050320159,
				"y": -1.5140575368,
				"z": -1.5705024501,
				"element": "H" 
			},
			{
				"x": 1.6988398663,
				"y": -1.114409824,
				"z": -0.0602705173,
				"element": "H" 
			},
			{
				"x": 1.5367104129,
				"y": 1.6489392537,
				"z": 2.2763815236,
				"element": "H" 
			},
			{
				"x": 0.74288363,
				"y": 0.142941086,
				"z": 2.0893444624,
				"element": "H" 
			},
			{
				"x": 1.0739571473,
				"y": 3.5194995584,
				"z": 0.8331071761,
				"element": "H" 
			},
			{
				"x": -0.2799822776,
				"y": 4.4191514501,
				"z": -1.0190389728,
				"element": "H" 
			},
			{
				"x": -1.8321428747,
				"y": 2.940271677,
				"z": -2.2942488975,
				"element": "H" 
			},
			{
				"x": -1.9968301207,
				"y": 0.5326666701,
				"z": -1.6687897004,
				"element": "H" 
			}
		],
		 "valence_orbital": [ 
			{
				"type": "occ",
				"energy": -0.31462,
				"method": "rhf"
			},
			{
				"type": "occ",
				"energy": -0.26636,
				"method": "rhf"
			},
			{
				"type": "occ",
				"energy": -0.26099,
				"method": "rhf"
			},
			{
				"type": "occ",
				"energy": -0.22866,
				"method": "rhf"
			},
			{
				"type": "occ",
				"energy": -0.20901,
				"method": "rhf"
			},
			{
				"type": "unocc",
				"energy": -0.02054,
				"method": "rhf"
			},
			{
				"type": "unocc",
				"energy": 0.00373,
				"method": "rhf"
			},
			{
				"type": "unocc",
				"energy": 0.04025,
				"method": "rhf"
			},
			{
				"type": "unocc",
				"energy": 0.05933,
				"method": "rhf"
			},
			{
				"type": "unocc",
				"energy": 0.08813,
				"method": "rhf"
			}
		],
		"cosmo_sigma_profile": { 
			"-0.025": 0.0,
			"-0.024": 0.0,
			"-0.023": 0.0,
			"-0.022": 0.0,
			"-0.021": 0.0,
			"-0.02": 0.0,
			"-0.019": 0.0,
			"-0.018": 0.0,
			"-0.017": 0.0,
			"-0.016": 0.0,
			"-0.015": 0.0,
			"-0.014": 0.0,
			"-0.013": 0.39434616301,
			"-0.012": 1.67424274288,
			"-0.011": 1.28036074003,
			"-0.01": 1.11089442733,
			"-0.009": 1.83057185647,
			"-0.008": 2.41478897943,
			"-0.007": 7.60516264522,
			"-0.006": 11.4953586431,
			"-0.005": 14.001752468,
			"-0.004": 16.0256110038,
			"-0.003": 15.0994771325,
			"-0.002": 13.132730772,
			"-0.001": 11.2751193982,
			"0.0": 9.55495817837,
			"0.001": 9.41627528045,
			"0.002": 11.3070532722,
			"0.003": 11.2071728439,
			"0.004": 11.0088149675,
			"0.005": 10.629128963,
			"0.006": 6.47672019247,
			"0.007": 2.1906217418,
			"0.008": 2.30989508288,
			"0.009": 1.05712003895,
			"0.01": 1.34856160138,
			"0.011": 2.6383448659,
			"0.012": 1.42613177385,
			"0.013": 1.89985263219,
			"0.014": 2.3003656489,
			"0.015": 3.02311597779,
			"0.016": 1.0585773285,
			"0.017": 0.0,
			"0.018": 0.0,
			"0.019": 0.0,
			"0.02": 0.0,
			"0.021": 0.0,
			"0.022": 0.0,
			"0.023": 0.0,
			"0.024": 0.0,
			"0.025": 0.0
		}
	}
}
