{
	 "smiles": "COC1=C(C=CC(Br)=C1)C#N", 
	 "Tm": 409.15, 
	 "num_atms": 17, 
	 "gaussian": { 
		 "optdone": 1, 
		 "sigma_profile": "yes", 
		 "theory": "DFT", 
		 "functional": "B3LYP", 
		 "basiset": "6-31G**", 
		 "properties": { 
			 "R2extent": 3967.2217, 
			 "electric_dipole_moment_norm": 4.00039862264, 
			 "electric_quadrupole_moment_norm": 18.0926429247, 
			 "total_energy": -3009.81620902, 
			 "HOMO_LUMO_gap": 0.18827, 
			 "cosmo_polarized_energy": -10.95, 
			 "cosmo_cavitation_energy": 24.89, 
			 "cosmo_dispersion_energy": -18.09, 
			 "cosmo_repulsion_energy": 1.47, 
			 "cosmo_total_nonelectrostatic_energy": 8.26, 
			 "SMD_solvation_energy": 5.34 
		},
		"coords": [
			{
				"x": -1.315477052,
				"y": -1.0797090008,
				"z": -2.8704162691,
				"element": "C" 
			},
			{
				"x": -0.2013735306,
				"y": -0.7375040865,
				"z": -2.0518561278,
				"element": "O" 
			},
			{
				"x": -0.2827079127,
				"y": -0.9364538778,
				"z": -0.7189314711,
				"element": "C" 
			},
			{
				"x": 0.8612473519,
				"y": -0.5747029256,
				"z": 0.0342250664,
				"element": "C" 
			},
			{
				"x": 0.8573769376,
				"y": -0.7500678478,
				"z": 1.4245904904,
				"element": "C" 
			},
			{
				"x": -0.2527087603,
				"y": -1.2744671862,
				"z": 2.0808962492,
				"element": "C" 
			},
			{
				"x": -1.3667999715,
				"y": -1.6233857045,
				"z": 1.3207987147,
				"element": "C" 
			},
			{
				"x": -2.9019455974,
				"y": -2.3439594907,
				"z": 2.1941399038,
				"element": "Br" 
			},
			{
				"x": -1.4013076255,
				"y": -1.4640563254,
				"z": -0.0642088567,
				"element": "C" 
			},
			{
				"x": 2.0116768692,
				"y": -0.0342861013,
				"z": -0.6215248671,
				"element": "C" 
			},
			{
				"x": 2.962220551,
				"y": 0.4076093352,
				"z": -1.1260572077,
				"element": "N" 
			},
			{
				"x": -1.0174895736,
				"y": -0.833736155,
				"z": -3.889490572,
				"element": "H" 
			},
			{
				"x": -1.544542986,
				"y": -2.1499784687,
				"z": -2.8055075624,
				"element": "H" 
			},
			{
				"x": -2.2038199497,
				"y": -0.497021497,
				"z": -2.5993306106,
				"element": "H" 
			},
			{
				"x": 1.7397827684,
				"y": -0.4690627983,
				"z": 1.9895842749,
				"element": "H" 
			},
			{
				"x": -0.2522492348,
				"y": -1.408549733,
				"z": 3.1553173476,
				"element": "H" 
			},
			{
				"x": -2.2876822842,
				"y": -1.7485681367,
				"z": -0.6140285024,
				"element": "H" 
			}
		],
		 "valence_orbital": [ 
			{
				"type": "occ",
				"energy": -0.32802,
				"method": "rhf"
			},
			{
				"type": "occ",
				"energy": -0.31057,
				"method": "rhf"
			},
			{
				"type": "occ",
				"energy": -0.30261,
				"method": "rhf"
			},
			{
				"type": "occ",
				"energy": -0.26829,
				"method": "rhf"
			},
			{
				"type": "occ",
				"energy": -0.24559,
				"method": "rhf"
			},
			{
				"type": "unocc",
				"energy": -0.05732,
				"method": "rhf"
			},
			{
				"type": "unocc",
				"energy": -0.0218,
				"method": "rhf"
			},
			{
				"type": "unocc",
				"energy": -0.00991,
				"method": "rhf"
			},
			{
				"type": "unocc",
				"energy": 0.0364,
				"method": "rhf"
			},
			{
				"type": "unocc",
				"energy": 0.07029,
				"method": "rhf"
			}
		],
		"cosmo_sigma_profile": { 
			"-0.025": 0.0,
			"-0.024": 0.0,
			"-0.023": 0.0,
			"-0.022": 0.0,
			"-0.021": 0.0,
			"-0.02": 0.0,
			"-0.019": 0.0,
			"-0.018": 0.0,
			"-0.017": 0.0,
			"-0.016": 0.0,
			"-0.015": 0.0,
			"-0.014": 0.0,
			"-0.013": 0.0,
			"-0.012": 0.0,
			"-0.011": 0.0,
			"-0.01": 0.0,
			"-0.009": 1.20672564884,
			"-0.008": 5.80205683164,
			"-0.007": 10.3766453661,
			"-0.006": 13.5326610558,
			"-0.005": 13.5035018684,
			"-0.004": 13.9875012079,
			"-0.003": 10.4057335219,
			"-0.002": 10.2391277859,
			"-0.001": 16.454582943,
			"0.0": 18.2861835199,
			"0.001": 20.8572071796,
			"0.002": 13.0675613554,
			"0.003": 12.6716990085,
			"0.004": 12.58559521,
			"0.005": 2.8876075515,
			"0.006": 4.07078467916,
			"0.007": 5.47064931332,
			"0.008": 5.06644210975,
			"0.009": 3.68936971753,
			"0.01": 3.01100533505,
			"0.011": 2.9483649826,
			"0.012": 2.3802405027,
			"0.013": 1.62510072212,
			"0.014": 0.0742410555553,
			"0.015": 0.0,
			"0.016": 0.0,
			"0.017": 0.0,
			"0.018": 0.0,
			"0.019": 0.0,
			"0.02": 0.0,
			"0.021": 0.0,
			"0.022": 0.0,
			"0.023": 0.0,
			"0.024": 0.0,
			"0.025": 0.0
		}
	}
}
