{
	 "smiles": "OC(=O)C1=CC(Br)=C(S1)S(Cl)(=O)=O", 
	 "Tm": 403.15, 
	 "num_atms": 15, 
	 "gaussian": { 
		 "optdone": 1, 
		 "sigma_profile": "yes", 
		 "theory": "DFT", 
		 "functional": "B3LYP", 
		 "basiset": "6-31G**", 
		 "properties": { 
			 "R2extent": 5425.2459, 
			 "electric_dipole_moment_norm": 1.00412460382, 
			 "electric_quadrupole_moment_norm": 18.7622110973, 
			 "total_energy": -4320.50179351, 
			 "HOMO_LUMO_gap": 0.16764, 
			 "cosmo_polarized_energy": -15.9, 
			 "cosmo_cavitation_energy": 28.14, 
			 "cosmo_dispersion_energy": -21.64, 
			 "cosmo_repulsion_energy": 1.63, 
			 "cosmo_total_nonelectrostatic_energy": 8.13, 
			 "SMD_solvation_energy": 3.56 
		},
		"coords": [
			{
				"x": 1.6622139733,
				"y": -1.6247578857,
				"z": -3.3193211747,
				"element": "O" 
			},
			{
				"x": 2.4200636703,
				"y": -0.7732865293,
				"z": -2.589496254,
				"element": "C" 
			},
			{
				"x": 3.5173497869,
				"y": -0.4413224383,
				"z": -2.9633564452,
				"element": "O" 
			},
			{
				"x": 1.8528678068,
				"y": -0.2721773997,
				"z": -1.3026969922,
				"element": "C" 
			},
			{
				"x": 2.3726186977,
				"y": 0.7930151677,
				"z": -0.6080488189,
				"element": "C" 
			},
			{
				"x": 1.6472825635,
				"y": 1.0789171973,
				"z": 0.5766294409,
				"element": "C" 
			},
			{
				"x": 2.1446782093,
				"y": 2.4719552936,
				"z": 1.7352282912,
				"element": "Br" 
			},
			{
				"x": 0.5831833375,
				"y": 0.2196500549,
				"z": 0.7629352386,
				"element": "C" 
			},
			{
				"x": 0.4736491616,
				"y": -0.9682920697,
				"z": -0.5016456839,
				"element": "S" 
			},
			{
				"x": -0.6083088538,
				"y": 0.1518226033,
				"z": 2.0695960182,
				"element": "S" 
			},
			{
				"x": 0.5239217805,
				"y": -0.6768790863,
				"z": 3.6513006266,
				"element": "Cl" 
			},
			{
				"x": -1.5880832698,
				"y": -0.8557204243,
				"z": 1.6840402072,
				"element": "O" 
			},
			{
				"x": -0.9787961437,
				"y": 1.4947480303,
				"z": 2.481647142,
				"element": "O" 
			},
			{
				"x": 0.749080954,
				"y": -1.6729708923,
				"z": -3.0004137546,
				"element": "H" 
			},
			{
				"x": 3.237578326,
				"y": 1.3490983783,
				"z": -0.9450978413,
				"element": "H" 
			}
		],
		 "valence_orbital": [ 
			{
				"type": "occ",
				"energy": -0.33125,
				"method": "rhf"
			},
			{
				"type": "occ",
				"energy": -0.32156,
				"method": "rhf"
			},
			{
				"type": "occ",
				"energy": -0.31198,
				"method": "rhf"
			},
			{
				"type": "occ",
				"energy": -0.30193,
				"method": "rhf"
			},
			{
				"type": "occ",
				"energy": -0.28886,
				"method": "rhf"
			},
			{
				"type": "unocc",
				"energy": -0.12122,
				"method": "rhf"
			},
			{
				"type": "unocc",
				"energy": -0.08809,
				"method": "rhf"
			},
			{
				"type": "unocc",
				"energy": -0.05574,
				"method": "rhf"
			},
			{
				"type": "unocc",
				"energy": -0.03165,
				"method": "rhf"
			},
			{
				"type": "unocc",
				"energy": -0.01088,
				"method": "rhf"
			}
		],
		"cosmo_sigma_profile": { 
			"-0.025": 0.0,
			"-0.024": 0.0,
			"-0.023": 0.0,
			"-0.022": 0.0,
			"-0.021": 0.0207225099769,
			"-0.02": 0.697745470317,
			"-0.019": 0.975409659179,
			"-0.018": 1.04088550733,
			"-0.017": 0.826944619382,
			"-0.016": 0.876499621385,
			"-0.015": 1.02114406024,
			"-0.014": 1.56464264833,
			"-0.013": 0.967939976704,
			"-0.012": 0.764417597558,
			"-0.011": 0.545545568585,
			"-0.01": 2.29382564209,
			"-0.009": 3.03009523123,
			"-0.008": 4.34738611727,
			"-0.007": 5.60988454509,
			"-0.006": 5.15650470628,
			"-0.005": 9.11763910607,
			"-0.004": 14.3152820544,
			"-0.003": 18.9588147427,
			"-0.002": 19.208145287,
			"-0.001": 17.493462137,
			"0.0": 14.8963625834,
			"0.001": 19.0583363102,
			"0.002": 23.8391261658,
			"0.003": 11.9572837898,
			"0.004": 6.19061415252,
			"0.005": 5.23633728948,
			"0.006": 8.38836317471,
			"0.007": 13.089229583,
			"0.008": 9.3339465798,
			"0.009": 5.37589044761,
			"0.01": 5.10453473718,
			"0.011": 3.37564884164,
			"0.012": 0.485752749724,
			"0.013": 0.0,
			"0.014": 0.0,
			"0.015": 0.0,
			"0.016": 0.0,
			"0.017": 0.0,
			"0.018": 0.0,
			"0.019": 0.0,
			"0.02": 0.0,
			"0.021": 0.0,
			"0.022": 0.0,
			"0.023": 0.0,
			"0.024": 0.0,
			"0.025": 0.0
		}
	}
}
