{
	 "smiles": "COC1=NC=C(C=C1)C(N)=NO", 
	 "Tm": 436.15, 
	 "num_atms": 21, 
	 "gaussian": { 
		 "optdone": 1, 
		 "sigma_profile": "yes", 
		 "theory": "DFT", 
		 "functional": "B3LYP", 
		 "basiset": "6-31G**", 
		 "properties": { 
			 "R2extent": 3101.5965, 
			 "electric_dipole_moment_norm": 1.40114376493, 
			 "electric_quadrupole_moment_norm": 8.04956702624, 
			 "total_energy": -586.815389634, 
			 "HOMO_LUMO_gap": 0.185, 
			 "cosmo_polarized_energy": -12.53, 
			 "cosmo_cavitation_energy": 25.56, 
			 "cosmo_dispersion_energy": -19.25, 
			 "cosmo_repulsion_energy": 1.56, 
			 "cosmo_total_nonelectrostatic_energy": 7.87, 
			 "SMD_solvation_energy": 4.5 
		},
		"coords": [
			{
				"x": -4.3402019045,
				"y": 0.0238455249,
				"z": 0.6777163939,
				"element": "C" 
			},
			{
				"x": -3.4349736801,
				"y": 1.0537374981,
				"z": 1.085452727,
				"element": "O" 
			},
			{
				"x": -2.1178382468,
				"y": 0.7583893487,
				"z": 1.0676088989,
				"element": "C" 
			},
			{
				"x": -1.7201723421,
				"y": -0.4493944849,
				"z": 0.6855501935,
				"element": "N" 
			},
			{
				"x": -0.4007462042,
				"y": -0.6994914136,
				"z": 0.688412548,
				"element": "C" 
			},
			{
				"x": 0.5694383365,
				"y": 0.2238590624,
				"z": 1.0794710324,
				"element": "C" 
			},
			{
				"x": 0.1177540431,
				"y": 1.501311055,
				"z": 1.4732395747,
				"element": "C" 
			},
			{
				"x": -1.23307257,
				"y": 1.781225439,
				"z": 1.4670269217,
				"element": "C" 
			},
			{
				"x": 2.0084964217,
				"y": -0.1113429635,
				"z": 1.0707948718,
				"element": "C" 
			},
			{
				"x": 2.3711753926,
				"y": -1.4460476854,
				"z": 1.0860334684,
				"element": "N" 
			},
			{
				"x": 2.8516202431,
				"y": 0.8683283808,
				"z": 0.9958616613,
				"element": "N" 
			},
			{
				"x": 4.1800475788,
				"y": 0.3599579124,
				"z": 1.0460114072,
				"element": "O" 
			},
			{
				"x": -4.2565158664,
				"y": -0.8540914281,
				"z": 1.3247575574,
				"element": "H" 
			},
			{
				"x": -5.3347758564,
				"y": 0.4639468485,
				"z": 0.7618774056,
				"element": "H" 
			},
			{
				"x": -4.1465626925,
				"y": -0.2859594711,
				"z": -0.3531638004,
				"element": "H" 
			},
			{
				"x": -0.1089478474,
				"y": -1.6868600537,
				"z": 0.3374321506,
				"element": "H" 
			},
			{
				"x": 0.8444612412,
				"y": 2.2465888658,
				"z": 1.7771902081,
				"element": "H" 
			},
			{
				"x": -1.627161911,
				"y": 2.7462921357,
				"z": 1.7642888121,
				"element": "H" 
			},
			{
				"x": 3.3622189124,
				"y": -1.5880820355,
				"z": 1.2292308389,
				"element": "H" 
			},
			{
				"x": 1.7813706261,
				"y": -2.0539931149,
				"z": 1.635988545,
				"element": "H" 
			},
			{
				"x": 4.7044863259,
				"y": 1.1661805795,
				"z": 0.9741185838,
				"element": "H" 
			}
		],
		 "valence_orbital": [ 
			{
				"type": "occ",
				"energy": -0.28583,
				"method": "rhf"
			},
			{
				"type": "occ",
				"energy": -0.27413,
				"method": "rhf"
			},
			{
				"type": "occ",
				"energy": -0.26643,
				"method": "rhf"
			},
			{
				"type": "occ",
				"energy": -0.24029,
				"method": "rhf"
			},
			{
				"type": "occ",
				"energy": -0.20692,
				"method": "rhf"
			},
			{
				"type": "unocc",
				"energy": -0.02192,
				"method": "rhf"
			},
			{
				"type": "unocc",
				"energy": -0.0209,
				"method": "rhf"
			},
			{
				"type": "unocc",
				"energy": 0.05968,
				"method": "rhf"
			},
			{
				"type": "unocc",
				"energy": 0.07633,
				"method": "rhf"
			},
			{
				"type": "unocc",
				"energy": 0.10539,
				"method": "rhf"
			}
		],
		"cosmo_sigma_profile": { 
			"-0.025": 0.0,
			"-0.024": 0.0,
			"-0.023": 0.0,
			"-0.022": 0.0,
			"-0.021": 0.0,
			"-0.02": 0.0,
			"-0.019": 0.0,
			"-0.018": 0.0,
			"-0.017": 0.405858077409,
			"-0.016": 1.00221035133,
			"-0.015": 0.764952282495,
			"-0.014": 1.17754529291,
			"-0.013": 1.7051722692,
			"-0.012": 2.71986419776,
			"-0.011": 2.15158417969,
			"-0.01": 3.22711902652,
			"-0.009": 2.7441104718,
			"-0.008": 3.1132740006,
			"-0.007": 5.76480279372,
			"-0.006": 7.68938941297,
			"-0.005": 12.1751507212,
			"-0.004": 11.2589566732,
			"-0.003": 14.6232051624,
			"-0.002": 11.2629200129,
			"-0.001": 9.28489872211,
			"0.0": 13.3903383561,
			"0.001": 16.872954695,
			"0.002": 17.123160832,
			"0.003": 10.1808853758,
			"0.004": 8.35854221402,
			"0.005": 7.44882411772,
			"0.006": 7.98020352838,
			"0.007": 5.97535136896,
			"0.008": 6.87676358135,
			"0.009": 7.51047794506,
			"0.01": 4.80934098332,
			"0.011": 2.291527783,
			"0.012": 1.71661726631,
			"0.013": 1.27708344889,
			"0.014": 0.1809350068,
			"0.015": 0.0,
			"0.016": 0.0,
			"0.017": 0.0,
			"0.018": 0.0,
			"0.019": 0.0,
			"0.02": 0.0,
			"0.021": 0.0,
			"0.022": 0.0,
			"0.023": 0.0,
			"0.024": 0.0,
			"0.025": 0.0
		}
	}
}
