{
	 "smiles": "COC(=O)C1=C(O)C(=NO1)C(=O)OC", 
	 "Tm": 432.15, 
	 "num_atms": 21, 
	 "gaussian": { 
		 "optdone": 1, 
		 "sigma_profile": "yes", 
		 "theory": "DFT", 
		 "functional": "B3LYP", 
		 "basiset": "6-31G**", 
		 "properties": { 
			 "R2extent": 4134.0592, 
			 "electric_dipole_moment_norm": 2.75253793798, 
			 "electric_quadrupole_moment_norm": 25.3703962281, 
			 "total_energy": -776.994444699, 
			 "HOMO_LUMO_gap": 0.17887, 
			 "cosmo_polarized_energy": -16.79, 
			 "cosmo_cavitation_energy": 27.58, 
			 "cosmo_dispersion_energy": -20.2, 
			 "cosmo_repulsion_energy": 1.61, 
			 "cosmo_total_nonelectrostatic_energy": 8.99, 
			 "SMD_solvation_energy": 8.53 
		},
		"coords": [
			{
				"x": 1.0998680589,
				"y": 4.8747266466,
				"z": -0.048211452,
				"element": "C" 
			},
			{
				"x": 0.4432971904,
				"y": 3.6153864851,
				"z": -0.273339298,
				"element": "O" 
			},
			{
				"x": 0.2939365374,
				"y": 2.8489914914,
				"z": 0.8233717282,
				"element": "C" 
			},
			{
				"x": 0.6652608778,
				"y": 3.1476807963,
				"z": 1.9397006166,
				"element": "O" 
			},
			{
				"x": -0.3830414029,
				"y": 1.5820400299,
				"z": 0.515564496,
				"element": "C" 
			},
			{
				"x": -0.7331598349,
				"y": 0.5234224323,
				"z": 1.3203942501,
				"element": "C" 
			},
			{
				"x": -0.5318910675,
				"y": 0.3888079054,
				"z": 2.6342671644,
				"element": "O" 
			},
			{
				"x": -1.3613879487,
				"y": -0.3935674213,
				"z": 0.4158801911,
				"element": "C" 
			},
			{
				"x": -1.3808880528,
				"y": 0.0825053074,
				"z": -0.8180087811,
				"element": "N" 
			},
			{
				"x": -0.7777011058,
				"y": 1.3029828894,
				"z": -0.7626769005,
				"element": "O" 
			},
			{
				"x": -1.9444115209,
				"y": -1.721725046,
				"z": 0.7173105304,
				"element": "C" 
			},
			{
				"x": -2.4688035656,
				"y": -2.4763021376,
				"z": -0.0620501623,
				"element": "O" 
			},
			{
				"x": -1.801614851,
				"y": -1.9863752397,
				"z": 2.0517785818,
				"element": "O" 
			},
			{
				"x": -2.3290102411,
				"y": -3.2567370814,
				"z": 2.4894263097,
				"element": "C" 
			},
			{
				"x": 2.1075653894,
				"y": 4.7173629764,
				"z": 0.3441294259,
				"element": "H" 
			},
			{
				"x": 1.1378924079,
				"y": 5.360414029,
				"z": -1.0225991001,
				"element": "H" 
			},
			{
				"x": 0.5337092228,
				"y": 5.4808602714,
				"z": 0.6632760542,
				"element": "H" 
			},
			{
				"x": -0.8989714864,
				"y": -0.4754467139,
				"z": 2.8911188711,
				"element": "H" 
			},
			{
				"x": -1.8253059066,
				"y": -4.0727340535,
				"z": 1.9675160589,
				"element": "H" 
			},
			{
				"x": -2.1333414228,
				"y": -3.3028489877,
				"z": 3.5598860173,
				"element": "H" 
			},
			{
				"x": -3.4009012777,
				"y": -3.3080445795,
				"z": 2.2884653983,
				"element": "H" 
			}
		],
		 "valence_orbital": [ 
			{
				"type": "occ",
				"energy": -0.31083,
				"method": "rhf"
			},
			{
				"type": "occ",
				"energy": -0.30903,
				"method": "rhf"
			},
			{
				"type": "occ",
				"energy": -0.306,
				"method": "rhf"
			},
			{
				"type": "occ",
				"energy": -0.28516,
				"method": "rhf"
			},
			{
				"type": "occ",
				"energy": -0.25598,
				"method": "rhf"
			},
			{
				"type": "unocc",
				"energy": -0.07711,
				"method": "rhf"
			},
			{
				"type": "unocc",
				"energy": -0.03637,
				"method": "rhf"
			},
			{
				"type": "unocc",
				"energy": 0.06411,
				"method": "rhf"
			},
			{
				"type": "unocc",
				"energy": 0.06762,
				"method": "rhf"
			},
			{
				"type": "unocc",
				"energy": 0.08684,
				"method": "rhf"
			}
		],
		"cosmo_sigma_profile": { 
			"-0.025": 0.0,
			"-0.024": 0.0,
			"-0.023": 0.0,
			"-0.022": 0.0,
			"-0.021": 0.0,
			"-0.02": 0.0,
			"-0.019": 0.0,
			"-0.018": 0.0,
			"-0.017": 0.0,
			"-0.016": 0.0,
			"-0.015": 0.0249703537928,
			"-0.014": 0.467921600434,
			"-0.013": 0.510548594132,
			"-0.012": 0.430766262212,
			"-0.011": 0.761024259757,
			"-0.01": 1.06401486209,
			"-0.009": 0.857840954205,
			"-0.008": 3.45138434098,
			"-0.007": 12.237775983,
			"-0.006": 18.410940576,
			"-0.005": 21.8906292413,
			"-0.004": 27.3680943651,
			"-0.003": 18.6768437671,
			"-0.002": 11.4627567636,
			"-0.001": 9.34173705618,
			"0.0": 7.22498713696,
			"0.001": 6.48373199634,
			"0.002": 5.31526718464,
			"0.003": 6.01666960986,
			"0.004": 7.53087761188,
			"0.005": 8.26943598894,
			"0.006": 7.83861640159,
			"0.007": 7.36517835669,
			"0.008": 7.34405885066,
			"0.009": 7.84549561467,
			"0.01": 10.362784039,
			"0.011": 9.36601782235,
			"0.012": 2.89285990741,
			"0.013": 0.152409797011,
			"0.014": 0.0,
			"0.015": 0.0,
			"0.016": 0.0,
			"0.017": 0.0,
			"0.018": 0.0,
			"0.019": 0.0,
			"0.02": 0.0,
			"0.021": 0.0,
			"0.022": 0.0,
			"0.023": 0.0,
			"0.024": 0.0,
			"0.025": 0.0
		}
	}
}
