{
	 "smiles": "OC(=O)C1=C(N(N=C1)C1=C(Cl)C=CC=N1)C(F)(F)C(F)(F)F", 
	 "Tm": 415.15, 
	 "num_atms": 27, 
	 "gaussian": { 
		 "optdone": 1, 
		 "sigma_profile": "yes", 
		 "theory": "DFT", 
		 "functional": "B3LYP", 
		 "basiset": "6-31G**", 
		 "properties": { 
			 "R2extent": 8491.7107, 
			 "electric_dipole_moment_norm": 6.5296814057, 
			 "electric_quadrupole_moment_norm": 26.9417284572, 
			 "total_energy": -1696.23547808, 
			 "HOMO_LUMO_gap": 0.21132, 
			 "cosmo_polarized_energy": -18.91, 
			 "cosmo_cavitation_energy": 36.39, 
			 "cosmo_dispersion_energy": -24.49, 
			 "cosmo_repulsion_energy": 1.78, 
			 "cosmo_total_nonelectrostatic_energy": 13.67, 
			 "SMD_solvation_energy": 7.06 
		},
		"coords": [
			{
				"x": -1.2839805758,
				"y": 1.3780847067,
				"z": 3.2387654206,
				"element": "O" 
			},
			{
				"x": -1.8556192944,
				"y": 1.1406486493,
				"z": 2.0249047786,
				"element": "C" 
			},
			{
				"x": -2.8886419538,
				"y": 0.5247917454,
				"z": 1.9489764661,
				"element": "O" 
			},
			{
				"x": -1.1225565719,
				"y": 1.7247613105,
				"z": 0.8710963595,
				"element": "C" 
			},
			{
				"x": -1.1292594422,
				"y": 1.3169362511,
				"z": -0.4606810693,
				"element": "C" 
			},
			{
				"x": -0.3138540604,
				"y": 2.1835265642,
				"z": -1.1312490249,
				"element": "N" 
			},
			{
				"x": 0.2088322942,
				"y": 3.1341839536,
				"z": -0.3213679535,
				"element": "N" 
			},
			{
				"x": -0.273545304,
				"y": 2.8595158623,
				"z": 0.8814406998,
				"element": "C" 
			},
			{
				"x": 0.042412361,
				"y": 2.2346648902,
				"z": -2.5228508634,
				"element": "C" 
			},
			{
				"x": 1.2745718436,
				"y": 1.7260032184,
				"z": -2.9533236517,
				"element": "C" 
			},
			{
				"x": 2.3700601239,
				"y": 0.9311140238,
				"z": -1.8574779965,
				"element": "Cl" 
			},
			{
				"x": 1.6026889422,
				"y": 1.8521872903,
				"z": -4.302294863,
				"element": "C" 
			},
			{
				"x": 0.6916486312,
				"y": 2.4717022575,
				"z": -5.1544269254,
				"element": "C" 
			},
			{
				"x": -0.5110606613,
				"y": 2.9387665419,
				"z": -4.6242639536,
				"element": "C" 
			},
			{
				"x": -0.8250742466,
				"y": 2.8265460415,
				"z": -3.3298343253,
				"element": "N" 
			},
			{
				"x": -1.7905773729,
				"y": 0.1284466019,
				"z": -1.1067784102,
				"element": "C" 
			},
			{
				"x": -1.8174011665,
				"y": -0.9075030561,
				"z": -0.2371718196,
				"element": "F" 
			},
			{
				"x": -1.0673048864,
				"y": -0.2620388816,
				"z": -2.2012044497,
				"element": "F" 
			},
			{
				"x": -3.2405449111,
				"y": 0.3630298541,
				"z": -1.6091606687,
				"element": "C" 
			},
			{
				"x": -4.0159129948,
				"y": 0.8465416709,
				"z": -0.6384992369,
				"element": "F" 
			},
			{
				"x": -3.7539313716,
				"y": -0.7944642329,
				"z": -2.0467933911,
				"element": "F" 
			},
			{
				"x": -3.2255902828,
				"y": 1.2379876848,
				"z": -2.6271547047,
				"element": "F" 
			},
			{
				"x": -0.390193382,
				"y": 1.7311215827,
				"z": 3.127870381,
				"element": "H" 
			},
			{
				"x": -0.0242692705,
				"y": 3.5061138586,
				"z": 1.7133996287,
				"element": "H" 
			},
			{
				"x": 2.5488443476,
				"y": 1.4673352458,
				"z": -4.6662433235,
				"element": "H" 
			},
			{
				"x": 0.9119408358,
				"y": 2.5875223014,
				"z": -6.2104469521,
				"element": "H" 
			},
			{
				"x": -1.2504816304,
				"y": 3.4241740637,
				"z": -5.2558301508,
				"element": "H" 
			}
		],
		 "valence_orbital": [ 
			{
				"type": "occ",
				"energy": -0.29766,
				"method": "rhf"
			},
			{
				"type": "occ",
				"energy": -0.29532,
				"method": "rhf"
			},
			{
				"type": "occ",
				"energy": -0.28817,
				"method": "rhf"
			},
			{
				"type": "occ",
				"energy": -0.28318,
				"method": "rhf"
			},
			{
				"type": "occ",
				"energy": -0.2733,
				"method": "rhf"
			},
			{
				"type": "unocc",
				"energy": -0.06198,
				"method": "rhf"
			},
			{
				"type": "unocc",
				"energy": -0.05563,
				"method": "rhf"
			},
			{
				"type": "unocc",
				"energy": -0.04616,
				"method": "rhf"
			},
			{
				"type": "unocc",
				"energy": -0.01357,
				"method": "rhf"
			},
			{
				"type": "unocc",
				"energy": 0.00558,
				"method": "rhf"
			}
		],
		"cosmo_sigma_profile": { 
			"-0.025": 0.0,
			"-0.024": 0.0,
			"-0.023": 0.0,
			"-0.022": 0.0,
			"-0.021": 0.0,
			"-0.02": 0.0452783640171,
			"-0.019": 0.727972352766,
			"-0.018": 1.0028265328,
			"-0.017": 1.46939572031,
			"-0.016": 0.637936139089,
			"-0.015": 0.600449929692,
			"-0.014": 1.43202649537,
			"-0.013": 1.52668942495,
			"-0.012": 1.36357146714,
			"-0.011": 1.54724900298,
			"-0.01": 2.75351796977,
			"-0.009": 5.10759272178,
			"-0.008": 9.10175522436,
			"-0.007": 9.271976214,
			"-0.006": 7.62950980925,
			"-0.005": 7.64980889049,
			"-0.004": 8.29650477203,
			"-0.003": 14.7377449996,
			"-0.002": 18.094273114,
			"-0.001": 27.2591640881,
			"0.0": 30.0255910275,
			"0.001": 37.5113719193,
			"0.002": 35.773095887,
			"0.003": 16.4496948202,
			"0.004": 9.08770375557,
			"0.005": 7.27185601556,
			"0.006": 5.5363310783,
			"0.007": 5.33582266711,
			"0.008": 5.94711873227,
			"0.009": 6.09490014957,
			"0.01": 7.25916883444,
			"0.011": 5.15230533182,
			"0.012": 3.65471870804,
			"0.013": 0.753566769752,
			"0.014": 0.0,
			"0.015": 0.0,
			"0.016": 0.0,
			"0.017": 0.0,
			"0.018": 0.0,
			"0.019": 0.0,
			"0.02": 0.0,
			"0.021": 0.0,
			"0.022": 0.0,
			"0.023": 0.0,
			"0.024": 0.0,
			"0.025": 0.0
		}
	}
}
