{
	 "smiles": "OC1=C2C=CC(Br)=CC2=NC=C1", 
	 "Tm": 560.15, 
	 "num_atms": 18, 
	 "gaussian": { 
		 "optdone": 1, 
		 "sigma_profile": "yes", 
		 "theory": "DFT", 
		 "functional": "B3LYP", 
		 "basiset": "6-31G**", 
		 "properties": { 
			 "R2extent": 5744.6642, 
			 "electric_dipole_moment_norm": 3.05561991255, 
			 "electric_quadrupole_moment_norm": 10.6651006001, 
			 "total_energy": -3047.95436279, 
			 "HOMO_LUMO_gap": 0.17425, 
			 "cosmo_polarized_energy": -11.54, 
			 "cosmo_cavitation_energy": 24.53, 
			 "cosmo_dispersion_energy": -19.08, 
			 "cosmo_repulsion_energy": 1.49, 
			 "cosmo_total_nonelectrostatic_energy": 6.94, 
			 "SMD_solvation_energy": 1.73 
		},
		"coords": [
			{
				"x": -0.6647622499,
				"y": -2.2946830276,
				"z": -0.3190917996,
				"element": "O" 
			},
			{
				"x": 0.0594926288,
				"y": -1.195216348,
				"z": -0.6413084864,
				"element": "C" 
			},
			{
				"x": -0.5177604268,
				"y": -0.0315114945,
				"z": -1.2361439871,
				"element": "C" 
			},
			{
				"x": -1.8944087952,
				"y": 0.1029123899,
				"z": -1.5529746157,
				"element": "C" 
			},
			{
				"x": -2.3859598487,
				"y": 1.2537549093,
				"z": -2.1262282616,
				"element": "C" 
			},
			{
				"x": -1.5000564868,
				"y": 2.3202635244,
				"z": -2.4033330088,
				"element": "C" 
			},
			{
				"x": -2.2078986805,
				"y": 3.9058579879,
				"z": -3.1987287534,
				"element": "Br" 
			},
			{
				"x": -0.1600177628,
				"y": 2.2363859602,
				"z": -2.1146344887,
				"element": "C" 
			},
			{
				"x": 0.3688653266,
				"y": 1.0572456847,
				"z": -1.5226081817,
				"element": "C" 
			},
			{
				"x": 1.7054898331,
				"y": 1.0291467476,
				"z": -1.2580768023,
				"element": "N" 
			},
			{
				"x": 2.1817747962,
				"y": -0.0733168243,
				"z": -0.7082558278,
				"element": "C" 
			},
			{
				"x": 1.4150473708,
				"y": -1.209405087,
				"z": -0.3792400741,
				"element": "C" 
			},
			{
				"x": -1.5932886868,
				"y": -2.1659882785,
				"z": -0.5493301123,
				"element": "H" 
			},
			{
				"x": -2.5976383509,
				"y": -0.702391151,
				"z": -1.3502945709,
				"element": "H" 
			},
			{
				"x": -3.438240093,
				"y": 1.3502833998,
				"z": -2.3659653064,
				"element": "H" 
			},
			{
				"x": 0.5258118168,
				"y": 3.0482617872,
				"z": -2.323525717,
				"element": "H" 
			},
			{
				"x": 3.2512769567,
				"y": -0.0839235348,
				"z": -0.5015305667,
				"element": "H" 
			},
			{
				"x": 1.8703726526,
				"y": -2.0836766452,
				"z": 0.0716705605,
				"element": "H" 
			}
		],
		 "valence_orbital": [ 
			{
				"type": "occ",
				"energy": -0.29159,
				"method": "rhf"
			},
			{
				"type": "occ",
				"energy": -0.28209,
				"method": "rhf"
			},
			{
				"type": "occ",
				"energy": -0.26134,
				"method": "rhf"
			},
			{
				"type": "occ",
				"energy": -0.25366,
				"method": "rhf"
			},
			{
				"type": "occ",
				"energy": -0.23182,
				"method": "rhf"
			},
			{
				"type": "unocc",
				"energy": -0.05757,
				"method": "rhf"
			},
			{
				"type": "unocc",
				"energy": -0.02835,
				"method": "rhf"
			},
			{
				"type": "unocc",
				"energy": 0.00091,
				"method": "rhf"
			},
			{
				"type": "unocc",
				"energy": 0.0158,
				"method": "rhf"
			},
			{
				"type": "unocc",
				"energy": 0.0457,
				"method": "rhf"
			}
		],
		"cosmo_sigma_profile": { 
			"-0.025": 0.0,
			"-0.024": 0.0,
			"-0.023": 0.0,
			"-0.022": 0.0,
			"-0.021": 0.0,
			"-0.02": 0.0287638084487,
			"-0.019": 0.818303332158,
			"-0.018": 1.14865802284,
			"-0.017": 0.714519282572,
			"-0.016": 0.741852660686,
			"-0.015": 1.19178951375,
			"-0.014": 0.354715331929,
			"-0.013": 1.08059683035,
			"-0.012": 1.72882665738,
			"-0.011": 1.15264097295,
			"-0.01": 1.21692697988,
			"-0.009": 0.949151266597,
			"-0.008": 2.06682026879,
			"-0.007": 6.77190770789,
			"-0.006": 9.08101867705,
			"-0.005": 9.15704791141,
			"-0.004": 8.79954228617,
			"-0.003": 8.49815298114,
			"-0.002": 9.20629303496,
			"-0.001": 10.0550521246,
			"0.0": 15.5958852128,
			"0.001": 25.2906763702,
			"0.002": 29.9702273123,
			"0.003": 14.624484882,
			"0.004": 15.3543517178,
			"0.005": 6.75929200594,
			"0.006": 2.58378819513,
			"0.007": 3.26837813097,
			"0.008": 3.03489211193,
			"0.009": 2.53048724307,
			"0.01": 2.39223468141,
			"0.011": 0.803221880482,
			"0.012": 0.849868287147,
			"0.013": 1.04947154601,
			"0.014": 0.40281231875,
			"0.015": 1.09673514022,
			"0.016": 0.653546435288,
			"0.017": 0.107163927014,
			"0.018": 0.0,
			"0.019": 0.0,
			"0.02": 0.0,
			"0.021": 0.0,
			"0.022": 0.0,
			"0.023": 0.0,
			"0.024": 0.0,
			"0.025": 0.0
		}
	}
}
