{
	 "smiles": "OC(=O)C1=NN(N=C1)C1=CC=CC=C1", 
	 "Tm": 457.15, 
	 "num_atms": 21, 
	 "gaussian": { 
		 "optdone": 1, 
		 "sigma_profile": "yes", 
		 "theory": "DFT", 
		 "functional": "B3LYP", 
		 "basiset": "6-31G**", 
		 "properties": { 
			 "R2extent": 4266.6342, 
			 "electric_dipole_moment_norm": 5.42868829092, 
			 "electric_quadrupole_moment_norm": 20.1108898908, 
			 "total_energy": -661.855956977, 
			 "HOMO_LUMO_gap": 0.18204, 
			 "cosmo_polarized_energy": -11.93, 
			 "cosmo_cavitation_energy": 26.69, 
			 "cosmo_dispersion_energy": -19.83, 
			 "cosmo_repulsion_energy": 1.54, 
			 "cosmo_total_nonelectrostatic_energy": 8.4, 
			 "SMD_solvation_energy": 4.84 
		},
		"coords": [
			{
				"x": 3.1315969282,
				"y": 2.7611934607,
				"z": 3.0079232011,
				"element": "O" 
			},
			{
				"x": 2.9859171625,
				"y": 3.4320727924,
				"z": 1.8445087554,
				"element": "C" 
			},
			{
				"x": 3.6223400751,
				"y": 4.4265342105,
				"z": 1.5878903154,
				"element": "O" 
			},
			{
				"x": 1.9877921636,
				"y": 2.8533298334,
				"z": 0.9129486358,
				"element": "C" 
			},
			{
				"x": 1.2917154336,
				"y": 1.7509197117,
				"z": 1.2139541513,
				"element": "N" 
			},
			{
				"x": 0.5194253159,
				"y": 1.5560056444,
				"z": 0.1492353886,
				"element": "N" 
			},
			{
				"x": 0.6666583307,
				"y": 2.4620943059,
				"z": -0.829784718,
				"element": "N" 
			},
			{
				"x": 1.5938765476,
				"y": 3.2932683763,
				"z": -0.3638542702,
				"element": "C" 
			},
			{
				"x": -0.3985504976,
				"y": 0.4690401979,
				"z": 0.047109783,
				"element": "C" 
			},
			{
				"x": -1.1737081756,
				"y": 0.3375910626,
				"z": -1.1081827902,
				"element": "C" 
			},
			{
				"x": -2.0686489596,
				"y": -0.7264829987,
				"z": -1.2017749939,
				"element": "C" 
			},
			{
				"x": -2.1898673253,
				"y": -1.6471186609,
				"z": -0.1588285629,
				"element": "C" 
			},
			{
				"x": -1.4072374962,
				"y": -1.5001807807,
				"z": 0.9882763892,
				"element": "C" 
			},
			{
				"x": -0.5066836766,
				"y": -0.4426568892,
				"z": 1.100408695,
				"element": "C" 
			},
			{
				"x": 2.529228512,
				"y": 1.9979302981,
				"z": 3.0087253551,
				"element": "H" 
			},
			{
				"x": 1.9365389033,
				"y": 4.1444862828,
				"z": -0.9317203918,
				"element": "H" 
			},
			{
				"x": -1.068257892,
				"y": 1.0596006201,
				"z": -1.9082000114,
				"element": "H" 
			},
			{
				"x": -2.673427822,
				"y": -0.83351843,
				"z": -2.0970263194,
				"element": "H" 
			},
			{
				"x": -2.8893252062,
				"y": -2.47342636,
				"z": -0.2392549428,
				"element": "H" 
			},
			{
				"x": -1.4951030502,
				"y": -2.2113669976,
				"z": 1.8038680424,
				"element": "H" 
			},
			{
				"x": 0.105320729,
				"y": -0.3187156797,
				"z": 1.9850782884,
				"element": "H" 
			}
		],
		 "valence_orbital": [ 
			{
				"type": "occ",
				"energy": -0.32006,
				"method": "rhf"
			},
			{
				"type": "occ",
				"energy": -0.313,
				"method": "rhf"
			},
			{
				"type": "occ",
				"energy": -0.28162,
				"method": "rhf"
			},
			{
				"type": "occ",
				"energy": -0.27337,
				"method": "rhf"
			},
			{
				"type": "occ",
				"energy": -0.25108,
				"method": "rhf"
			},
			{
				"type": "unocc",
				"energy": -0.06904,
				"method": "rhf"
			},
			{
				"type": "unocc",
				"energy": -0.02834,
				"method": "rhf"
			},
			{
				"type": "unocc",
				"energy": -0.01918,
				"method": "rhf"
			},
			{
				"type": "unocc",
				"energy": 0.0125,
				"method": "rhf"
			},
			{
				"type": "unocc",
				"energy": 0.0724,
				"method": "rhf"
			}
		],
		"cosmo_sigma_profile": { 
			"-0.025": 0.0,
			"-0.024": 0.0,
			"-0.023": 0.0,
			"-0.022": 0.0,
			"-0.021": 0.0,
			"-0.02": 0.0,
			"-0.019": 0.0,
			"-0.018": 0.0,
			"-0.017": 0.0,
			"-0.016": 0.44350379387,
			"-0.015": 0.564512868752,
			"-0.014": 0.353223332898,
			"-0.013": 0.428252464229,
			"-0.012": 1.13548655692,
			"-0.011": 1.01872674765,
			"-0.01": 2.25886074759,
			"-0.009": 1.66588433308,
			"-0.008": 3.26321186044,
			"-0.007": 5.12127431315,
			"-0.006": 13.149166701,
			"-0.005": 13.6866137417,
			"-0.004": 14.2279032647,
			"-0.003": 14.9887949143,
			"-0.002": 17.1402164111,
			"-0.001": 15.779229723,
			"0.0": 16.6789530613,
			"0.001": 15.0680829556,
			"0.002": 14.704300045,
			"0.003": 15.928881117,
			"0.004": 12.2930161991,
			"0.005": 3.40707774378,
			"0.006": 4.09018839737,
			"0.007": 4.39512040462,
			"0.008": 3.61126524268,
			"0.009": 5.9232731129,
			"0.01": 5.37272829395,
			"0.011": 5.60909310089,
			"0.012": 2.92331970077,
			"0.013": 0.372901041629,
			"0.014": 0.0,
			"0.015": 0.0,
			"0.016": 0.0,
			"0.017": 0.0,
			"0.018": 0.0,
			"0.019": 0.0,
			"0.02": 0.0,
			"0.021": 0.0,
			"0.022": 0.0,
			"0.023": 0.0,
			"0.024": 0.0,
			"0.025": 0.0
		}
	}
}
