{
	 "smiles": "COC(=O)CC1=CC=C(S1)S(Cl)(=O)=O", 
	 "Tm": 333.15, 
	 "num_atms": 21, 
	 "gaussian": { 
		 "optdone": 1, 
		 "sigma_profile": "yes", 
		 "theory": "DFT", 
		 "functional": "B3LYP", 
		 "basiset": "6-31G**", 
		 "properties": { 
			 "R2extent": 7761.4763, 
			 "electric_dipole_moment_norm": 7.25386162399, 
			 "electric_quadrupole_moment_norm": 21.7738226031, 
			 "total_energy": -1828.34271904, 
			 "HOMO_LUMO_gap": 0.17465, 
			 "cosmo_polarized_energy": -13.0, 
			 "cosmo_cavitation_energy": 31.39, 
			 "cosmo_dispersion_energy": -23.67, 
			 "cosmo_repulsion_energy": 1.8, 
			 "cosmo_total_nonelectrostatic_energy": 9.52, 
			 "SMD_solvation_energy": 5.22 
		},
		"coords": [
			{
				"x": 0.8964092389,
				"y": 2.2121233429,
				"z": 2.8181449331,
				"element": "C" 
			},
			{
				"x": 1.0678343243,
				"y": 0.9486825455,
				"z": 2.14573745,
				"element": "O" 
			},
			{
				"x": 0.0490987437,
				"y": 0.574440638,
				"z": 1.3513747225,
				"element": "C" 
			},
			{
				"x": -0.9517967123,
				"y": 1.2330171856,
				"z": 1.1748453318,
				"element": "O" 
			},
			{
				"x": 0.3196882913,
				"y": -0.8089875088,
				"z": 0.7690889329,
				"element": "C" 
			},
			{
				"x": -0.2518743068,
				"y": -1.0240315074,
				"z": -0.6070506424,
				"element": "C" 
			},
			{
				"x": -1.454576386,
				"y": -0.6009276456,
				"z": -1.1268187923,
				"element": "C" 
			},
			{
				"x": -1.6751043914,
				"y": -1.0495372895,
				"z": -2.4543101413,
				"element": "C" 
			},
			{
				"x": -0.6368052966,
				"y": -1.8219458693,
				"z": -2.9155653213,
				"element": "C" 
			},
			{
				"x": 0.6351012433,
				"y": -2.0000263769,
				"z": -1.7438695371,
				"element": "S" 
			},
			{
				"x": -0.5430292337,
				"y": -2.5440758583,
				"z": -4.5082601711,
				"element": "S" 
			},
			{
				"x": 0.4844645436,
				"y": -1.0468071761,
				"z": -5.6325364773,
				"element": "Cl" 
			},
			{
				"x": -1.8838265431,
				"y": -2.611715157,
				"z": -5.0729048874,
				"element": "O" 
			},
			{
				"x": 0.3580959085,
				"y": -3.688144309,
				"z": -4.4612360963,
				"element": "O" 
			},
			{
				"x": 0.790538125,
				"y": 3.0191491515,
				"z": 2.0897854689,
				"element": "H" 
			},
			{
				"x": 0.0090969258,
				"y": 2.1885345377,
				"z": 3.4550062977,
				"element": "H" 
			},
			{
				"x": 1.7967377486,
				"y": 2.3485474623,
				"z": 3.4159209012,
				"element": "H" 
			},
			{
				"x": -0.1261577888,
				"y": -1.528395597,
				"z": 1.4714818628,
				"element": "H" 
			},
			{
				"x": 1.396262197,
				"y": -0.993764925,
				"z": 0.7870484686,
				"element": "H" 
			},
			{
				"x": -2.1404547739,
				"y": 0.0213916167,
				"z": -0.56825806,
				"element": "H" 
			},
			{
				"x": -2.5529018574,
				"y": -0.8255272605,
				"z": -3.0480242428,
				"element": "H" 
			}
		],
		 "valence_orbital": [ 
			{
				"type": "occ",
				"energy": -0.32642,
				"method": "rhf"
			},
			{
				"type": "occ",
				"energy": -0.31058,
				"method": "rhf"
			},
			{
				"type": "occ",
				"energy": -0.29956,
				"method": "rhf"
			},
			{
				"type": "occ",
				"energy": -0.28519,
				"method": "rhf"
			},
			{
				"type": "occ",
				"energy": -0.26707,
				"method": "rhf"
			},
			{
				"type": "unocc",
				"energy": -0.09242,
				"method": "rhf"
			},
			{
				"type": "unocc",
				"energy": -0.04758,
				"method": "rhf"
			},
			{
				"type": "unocc",
				"energy": -0.01461,
				"method": "rhf"
			},
			{
				"type": "unocc",
				"energy": -0.00849,
				"method": "rhf"
			},
			{
				"type": "unocc",
				"energy": 0.02294,
				"method": "rhf"
			}
		],
		"cosmo_sigma_profile": { 
			"-0.025": 0.0,
			"-0.024": 0.0,
			"-0.023": 0.0,
			"-0.022": 0.0,
			"-0.021": 0.0,
			"-0.02": 0.0,
			"-0.019": 0.0,
			"-0.018": 0.0,
			"-0.017": 0.0,
			"-0.016": 0.0,
			"-0.015": 0.0,
			"-0.014": 0.0,
			"-0.013": 0.0,
			"-0.012": 0.0,
			"-0.011": 0.0,
			"-0.01": 0.502173752945,
			"-0.009": 5.70718967139,
			"-0.008": 6.02772014449,
			"-0.007": 8.04946405438,
			"-0.006": 15.923877299,
			"-0.005": 16.1498738995,
			"-0.004": 17.5091682685,
			"-0.003": 15.4808837792,
			"-0.002": 15.9321039032,
			"-0.001": 20.2410721124,
			"0.0": 21.9222768573,
			"0.001": 19.8790963214,
			"0.002": 16.9678026956,
			"0.003": 15.8337567547,
			"0.004": 14.7461695244,
			"0.005": 5.72680889947,
			"0.006": 6.00784845036,
			"0.007": 9.54788947641,
			"0.008": 12.9891126845,
			"0.009": 5.19022970858,
			"0.01": 2.22500829757,
			"0.011": 2.79123110458,
			"0.012": 0.673350501102,
			"0.013": 0.0,
			"0.014": 0.0,
			"0.015": 0.0,
			"0.016": 0.0,
			"0.017": 0.0,
			"0.018": 0.0,
			"0.019": 0.0,
			"0.02": 0.0,
			"0.021": 0.0,
			"0.022": 0.0,
			"0.023": 0.0,
			"0.024": 0.0,
			"0.025": 0.0
		}
	}
}
