{
	 "smiles": "OC(=O)C12CC3CC1CC(C2)C3", 
	 "Tm": 379.15, 
	 "num_atms": 26, 
	 "gaussian": { 
		 "optdone": 1, 
		 "sigma_profile": "yes", 
		 "theory": "DFT", 
		 "functional": "B3LYP", 
		 "basiset": "6-31G**", 
		 "properties": { 
			 "R2extent": 1982.8506, 
			 "electric_dipole_moment_norm": 4.45226817027, 
			 "electric_quadrupole_moment_norm": 16.821399767, 
			 "total_energy": -539.96553803, 
			 "HOMO_LUMO_gap": 0.27478, 
			 "cosmo_polarized_energy": -12.0, 
			 "cosmo_cavitation_energy": 25.23, 
			 "cosmo_dispersion_energy": -19.17, 
			 "cosmo_repulsion_energy": 1.5, 
			 "cosmo_total_nonelectrostatic_energy": 7.57, 
			 "SMD_solvation_energy": 4.14 
		},
		"coords": [
			{
				"x": 0.6125572995,
				"y": 3.0192980405,
				"z": -2.1982373098,
				"element": "O" 
			},
			{
				"x": 1.1413903294,
				"y": 2.4747901684,
				"z": -1.063524421,
				"element": "C" 
			},
			{
				"x": 2.0408908151,
				"y": 3.0456390459,
				"z": -0.4968553734,
				"element": "O" 
			},
			{
				"x": 0.510553797,
				"y": 1.1639052661,
				"z": -0.6288356245,
				"element": "C" 
			},
			{
				"x": -1.0144006096,
				"y": 1.2788535084,
				"z": -0.3142458689,
				"element": "C" 
			},
			{
				"x": -1.1973263975,
				"y": 0.0789756867,
				"z": 0.632950829,
				"element": "C" 
			},
			{
				"x": -0.0749003298,
				"y": 0.3818679902,
				"z": 1.643249686,
				"element": "C" 
			},
			{
				"x": 1.1353461406,
				"y": 0.5459889971,
				"z": 0.6950433877,
				"element": "C" 
			},
			{
				"x": 1.5874534719,
				"y": -0.8713233373,
				"z": 0.2737919712,
				"element": "C" 
			},
			{
				"x": 0.5199157757,
				"y": -1.215760256,
				"z": -0.7816500237,
				"element": "C" 
			},
			{
				"x": 0.6504410881,
				"y": 0.0234036416,
				"z": -1.6859430218,
				"element": "C" 
			},
			{
				"x": -0.8872338755,
				"y": -1.2423119537,
				"z": -0.1233751011,
				"element": "C" 
			},
			{
				"x": -0.0953971879,
				"y": 2.4520060511,
				"z": -2.535051816,
				"element": "H" 
			},
			{
				"x": -1.2529496629,
				"y": 2.2143113606,
				"z": 0.2044586465,
				"element": "H" 
			},
			{
				"x": -1.6376506146,
				"y": 1.2272125466,
				"z": -1.2150481255,
				"element": "H" 
			},
			{
				"x": -2.1956120233,
				"y": 0.0397962979,
				"z": 1.0827429867,
				"element": "H" 
			},
			{
				"x": 0.0810472677,
				"y": -0.4121797929,
				"z": 2.3809019857,
				"element": "H" 
			},
			{
				"x": -0.294356386,
				"y": 1.3053672454,
				"z": 2.1914598957,
				"element": "H" 
			},
			{
				"x": 1.9350263662,
				"y": 1.1696353612,
				"z": 1.0949497972,
				"element": "H" 
			},
			{
				"x": 2.5848929097,
				"y": -0.8652188059,
				"z": -0.1807914395,
				"element": "H" 
			},
			{
				"x": 1.6130885344,
				"y": -1.5668053658,
				"z": 1.1191578692,
				"element": "H" 
			},
			{
				"x": 0.7136016397,
				"y": -2.1536595877,
				"z": -1.3138609356,
				"element": "H" 
			},
			{
				"x": -0.1135355114,
				"y": 0.0775505912,
				"z": -2.4707481709,
				"element": "H" 
			},
			{
				"x": 1.6320753377,
				"y": 0.0388686931,
				"z": -2.1729376043,
				"element": "H" 
			},
			{
				"x": -1.6514240477,
				"y": -1.4156977236,
				"z": -0.8923955343,
				"element": "H" 
			},
			{
				"x": -0.9476941264,
				"y": -2.0860136689,
				"z": 0.5754933151,
				"element": "H" 
			}
		],
		 "valence_orbital": [ 
			{
				"type": "occ",
				"energy": -0.31566,
				"method": "rhf"
			},
			{
				"type": "occ",
				"energy": -0.30869,
				"method": "rhf"
			},
			{
				"type": "occ",
				"energy": -0.3032,
				"method": "rhf"
			},
			{
				"type": "occ",
				"energy": -0.30231,
				"method": "rhf"
			},
			{
				"type": "occ",
				"energy": -0.25916,
				"method": "rhf"
			},
			{
				"type": "unocc",
				"energy": 0.01562,
				"method": "rhf"
			},
			{
				"type": "unocc",
				"energy": 0.04872,
				"method": "rhf"
			},
			{
				"type": "unocc",
				"energy": 0.07298,
				"method": "rhf"
			},
			{
				"type": "unocc",
				"energy": 0.11266,
				"method": "rhf"
			},
			{
				"type": "unocc",
				"energy": 0.11515,
				"method": "rhf"
			}
		],
		"cosmo_sigma_profile": { 
			"-0.025": 0.0,
			"-0.024": 0.0,
			"-0.023": 0.0,
			"-0.022": 0.0,
			"-0.021": 0.0,
			"-0.02": 0.0,
			"-0.019": 0.0,
			"-0.018": 0.0,
			"-0.017": 0.348980451608,
			"-0.016": 0.729605738982,
			"-0.015": 1.24237587686,
			"-0.014": 0.803163225715,
			"-0.013": 1.0836561189,
			"-0.012": 0.883158770882,
			"-0.011": 1.1106009095,
			"-0.01": 1.45276259655,
			"-0.009": 0.846596932536,
			"-0.008": 0.99061136653,
			"-0.007": 1.41179753832,
			"-0.006": 1.39189584182,
			"-0.005": 2.7313076551,
			"-0.004": 9.81598204425,
			"-0.003": 23.006861153,
			"-0.002": 30.7699102892,
			"-0.001": 29.3563151312,
			"0.0": 28.875368061,
			"0.001": 18.0907690998,
			"0.002": 4.73416544512,
			"0.003": 2.06287412963,
			"0.004": 1.68528819836,
			"0.005": 2.18267180998,
			"0.006": 2.47293464493,
			"0.007": 2.33517266288,
			"0.008": 3.18880177217,
			"0.009": 2.69708036562,
			"0.01": 4.19968518713,
			"0.011": 5.68843622053,
			"0.012": 5.98824615979,
			"0.013": 2.47327539345,
			"0.014": 0.232701539633,
			"0.015": 0.0,
			"0.016": 0.0,
			"0.017": 0.0,
			"0.018": 0.0,
			"0.019": 0.0,
			"0.02": 0.0,
			"0.021": 0.0,
			"0.022": 0.0,
			"0.023": 0.0,
			"0.024": 0.0,
			"0.025": 0.0
		}
	}
}
