{
	 "smiles": "CC1=CC=C(NS(=O)(=O)C2=C(C)C=CC(=C2)C(O)=O)C=C1", 
	 "Tm": 329.15, 
	 "num_atms": 36, 
	 "gaussian": { 
		 "optdone": 1, 
		 "sigma_profile": "yes", 
		 "theory": "DFT", 
		 "functional": "B3LYP", 
		 "basiset": "6-31G**", 
		 "properties": { 
			 "R2extent": 7448.503, 
			 "electric_dipole_moment_norm": 3.68647105102, 
			 "electric_quadrupole_moment_norm": 29.5281949672, 
			 "total_energy": -1334.41905194, 
			 "HOMO_LUMO_gap": 0.1616, 
			 "cosmo_polarized_energy": -24.19, 
			 "cosmo_cavitation_energy": 41.16, 
			 "cosmo_dispersion_energy": -28.87, 
			 "cosmo_repulsion_energy": 2.15, 
			 "cosmo_total_nonelectrostatic_energy": 14.44, 
			 "SMD_solvation_energy": 7.59 
		},
		"coords": [
			{
				"x": -1.0580104781,
				"y": -3.0375290208,
				"z": -4.3283931003,
				"element": "C" 
			},
			{
				"x": -0.9968954296,
				"y": -1.7339996264,
				"z": -3.5678902426,
				"element": "C" 
			},
			{
				"x": -0.0399893811,
				"y": -0.7581202151,
				"z": -3.8770774885,
				"element": "C" 
			},
			{
				"x": 0.0047041894,
				"y": 0.4675471553,
				"z": -3.2153671894,
				"element": "C" 
			},
			{
				"x": -0.9095317923,
				"y": 0.7279664043,
				"z": -2.1877313526,
				"element": "C" 
			},
			{
				"x": -0.9287055204,
				"y": 1.9753690763,
				"z": -1.4955680239,
				"element": "N" 
			},
			{
				"x": 0.3818444174,
				"y": 2.8378232404,
				"z": -0.9126160574,
				"element": "S" 
			},
			{
				"x": -0.1979281106,
				"y": 4.0801161682,
				"z": -0.3972182844,
				"element": "O" 
			},
			{
				"x": 1.4179293801,
				"y": 2.8566146165,
				"z": -1.9467796125,
				"element": "O" 
			},
			{
				"x": 1.0512087571,
				"y": 1.9213931755,
				"z": 0.4994674925,
				"element": "C" 
			},
			{
				"x": 2.2085282744,
				"y": 2.4165099435,
				"z": 1.1430043544,
				"element": "C" 
			},
			{
				"x": 2.9293130539,
				"y": 3.6609873579,
				"z": 0.6900800575,
				"element": "C" 
			},
			{
				"x": 2.6697383791,
				"y": 1.7012586411,
				"z": 2.2544838706,
				"element": "C" 
			},
			{
				"x": 2.0313712717,
				"y": 0.547389731,
				"z": 2.7063626724,
				"element": "C" 
			},
			{
				"x": 0.8925867721,
				"y": 0.0699818164,
				"z": 2.051319542,
				"element": "C" 
			},
			{
				"x": 0.3989334667,
				"y": 0.7808516511,
				"z": 0.9500840589,
				"element": "C" 
			},
			{
				"x": 0.1246491868,
				"y": -1.1424634307,
				"z": 2.4841594248,
				"element": "C" 
			},
			{
				"x": 0.7781410409,
				"y": -2.0346854399,
				"z": 3.2731622903,
				"element": "O" 
			},
			{
				"x": -1.0238445716,
				"y": -1.3433990053,
				"z": 2.1652145841,
				"element": "O" 
			},
			{
				"x": -1.8671618607,
				"y": -0.2383794515,
				"z": -1.8554882688,
				"element": "C" 
			},
			{
				"x": -1.9118033448,
				"y": -1.4468107693,
				"z": -2.5477016057,
				"element": "C" 
			},
			{
				"x": -1.486533202,
				"y": -3.8374345275,
				"z": -3.7172147329,
				"element": "H" 
			},
			{
				"x": -0.0638424749,
				"y": -3.3572481498,
				"z": -4.6552131552,
				"element": "H" 
			},
			{
				"x": -1.6808115631,
				"y": -2.9451290902,
				"z": -5.2271685462,
				"element": "H" 
			},
			{
				"x": 0.6815975934,
				"y": -0.9512989143,
				"z": -4.6670699658,
				"element": "H" 
			},
			{
				"x": 0.738725009,
				"y": 1.2164263742,
				"z": -3.4843858822,
				"element": "H" 
			},
			{
				"x": -1.7757840363,
				"y": 2.2071185498,
				"z": -0.9895455835,
				"element": "H" 
			},
			{
				"x": 2.2500177475,
				"y": 4.5188117262,
				"z": 0.6708771149,
				"element": "H" 
			},
			{
				"x": 3.3141781906,
				"y": 3.5394877186,
				"z": -0.3265038371,
				"element": "H" 
			},
			{
				"x": 3.7614005914,
				"y": 3.8886941641,
				"z": 1.359784861,
				"element": "H" 
			},
			{
				"x": 3.5456736833,
				"y": 2.0672539572,
				"z": 2.7820294862,
				"element": "H" 
			},
			{
				"x": 2.4137544352,
				"y": 0.0546147746,
				"z": 3.5970863193,
				"element": "H" 
			},
			{
				"x": -0.4914920101,
				"y": 0.4049537544,
				"z": 0.4640868723,
				"element": "H" 
			},
			{
				"x": 1.7230429969,
				"y": -1.8310038205,
				"z": 3.3032005656,
				"element": "H" 
			},
			{
				"x": -2.5752793213,
				"y": -0.0494640559,
				"z": -1.0521692207,
				"element": "H" 
			},
			{
				"x": -2.6637253401,
				"y": -2.1828044792,
				"z": -2.2755014173,
				"element": "H" 
			}
		],
		 "valence_orbital": [ 
			{
				"type": "occ",
				"energy": -0.28694,
				"method": "rhf"
			},
			{
				"type": "occ",
				"energy": -0.28101,
				"method": "rhf"
			},
			{
				"type": "occ",
				"energy": -0.27155,
				"method": "rhf"
			},
			{
				"type": "occ",
				"energy": -0.25638,
				"method": "rhf"
			},
			{
				"type": "occ",
				"energy": -0.22796,
				"method": "rhf"
			},
			{
				"type": "unocc",
				"energy": -0.06636,
				"method": "rhf"
			},
			{
				"type": "unocc",
				"energy": -0.04332,
				"method": "rhf"
			},
			{
				"type": "unocc",
				"energy": -0.01089,
				"method": "rhf"
			},
			{
				"type": "unocc",
				"energy": -0.00839,
				"method": "rhf"
			},
			{
				"type": "unocc",
				"energy": 0.02813,
				"method": "rhf"
			}
		],
		"cosmo_sigma_profile": { 
			"-0.025": 0.0,
			"-0.024": 0.0,
			"-0.023": 0.0,
			"-0.022": 0.0,
			"-0.021": 0.0,
			"-0.02": 0.0,
			"-0.019": 0.755395454733,
			"-0.018": 0.945016720961,
			"-0.017": 0.999605643576,
			"-0.016": 1.868291952,
			"-0.015": 2.43785200324,
			"-0.014": 2.08549474,
			"-0.013": 2.41838904396,
			"-0.012": 2.60465468986,
			"-0.011": 2.98365411313,
			"-0.01": 2.51601630003,
			"-0.009": 3.3973271562,
			"-0.008": 4.31741548587,
			"-0.007": 7.8629279114,
			"-0.006": 9.79063114764,
			"-0.005": 14.5400915455,
			"-0.004": 23.0140332607,
			"-0.003": 22.5232787262,
			"-0.002": 23.8627734592,
			"-0.001": 27.5922835046,
			"0.0": 29.3270504434,
			"0.001": 25.0125972495,
			"0.002": 15.9914960668,
			"0.003": 15.7316749713,
			"0.004": 15.9161466791,
			"0.005": 14.483715459,
			"0.006": 7.59424364661,
			"0.007": 5.5886371024,
			"0.008": 5.94604989272,
			"0.009": 8.94909148028,
			"0.01": 12.1848013793,
			"0.011": 10.2511599295,
			"0.012": 3.8013756965,
			"0.013": 1.08605996986,
			"0.014": 0.0,
			"0.015": 0.0,
			"0.016": 0.0,
			"0.017": 0.0,
			"0.018": 0.0,
			"0.019": 0.0,
			"0.02": 0.0,
			"0.021": 0.0,
			"0.022": 0.0,
			"0.023": 0.0,
			"0.024": 0.0,
			"0.0": 0.0
		}
	}
}
