{
	 "smiles": "OC(=O)C=CC1=C(Cl)C=CC=C1", 
	 "Tm": 483.15, 
	 "num_atms": 19, 
	 "gaussian": { 
		 "optdone": 1, 
		 "sigma_profile": "yes", 
		 "theory": "DFT", 
		 "functional": "B3LYP", 
		 "basiset": "6-31G**", 
		 "properties": { 
			 "R2extent": 3556.0804, 
			 "electric_dipole_moment_norm": 4.92839060343, 
			 "electric_quadrupole_moment_norm": 13.5003557479, 
			 "total_energy": -957.806542248, 
			 "HOMO_LUMO_gap": 0.17193, 
			 "cosmo_polarized_energy": -14.66, 
			 "cosmo_cavitation_energy": 25.73, 
			 "cosmo_dispersion_energy": -19.0, 
			 "cosmo_repulsion_energy": 1.51, 
			 "cosmo_total_nonelectrostatic_energy": 8.24, 
			 "SMD_solvation_energy": 5.54 
		},
		"coords": [
			{
				"x": -1.1404936057,
				"y": -1.3411954079,
				"z": 4.577741036,
				"element": "O" 
			},
			{
				"x": -1.3096384222,
				"y": -0.7723555774,
				"z": 3.3522451137,
				"element": "C" 
			},
			{
				"x": -2.2407015724,
				"y": -0.0221754562,
				"z": 3.1620667762,
				"element": "O" 
			},
			{
				"x": -0.2935905479,
				"y": -1.1441906905,
				"z": 2.329039987,
				"element": "C" 
			},
			{
				"x": -0.4044357517,
				"y": -0.6158605381,
				"z": 1.0959429845,
				"element": "C" 
			},
			{
				"x": 0.398394903,
				"y": -0.7623332344,
				"z": -0.1190621405,
				"element": "C" 
			},
			{
				"x": 1.5610596769,
				"y": -1.5410661371,
				"z": -0.3183151615,
				"element": "C" 
			},
			{
				"x": 2.2698277074,
				"y": -2.5236840398,
				"z": 0.9592904537,
				"element": "Cl" 
			},
			{
				"x": 2.2192437906,
				"y": -1.576900905,
				"z": -1.5468829827,
				"element": "C" 
			},
			{
				"x": 1.7386758346,
				"y": -0.8341994406,
				"z": -2.623724298,
				"element": "C" 
			},
			{
				"x": 0.5937277375,
				"y": -0.0527137612,
				"z": -2.4676135706,
				"element": "C" 
			},
			{
				"x": -0.052780847,
				"y": -0.0255277219,
				"z": -1.2388621245,
				"element": "C" 
			},
			{
				"x": -0.3597651136,
				"y": -1.9122480451,
				"z": 4.5777995546,
				"element": "H" 
			},
			{
				"x": 0.5012169525,
				"y": -1.8253461188,
				"z": 2.604615645,
				"element": "H" 
			},
			{
				"x": -1.2575002176,
				"y": 0.0511743061,
				"z": 0.976840261,
				"element": "H" 
			},
			{
				"x": 3.107671872,
				"y": -2.1897346161,
				"z": -1.6503181704,
				"element": "H" 
			},
			{
				"x": 2.259876135,
				"y": -0.8703138401,
				"z": -3.5753314608,
				"element": "H" 
			},
			{
				"x": 0.2071964166,
				"y": 0.5312352202,
				"z": -3.2967299062,
				"element": "H" 
			},
			{
				"x": -0.9441849478,
				"y": 0.5828360039,
				"z": -1.1171419967,
				"element": "H" 
			}
		],
		 "valence_orbital": [ 
			{
				"type": "occ",
				"energy": -0.32552,
				"method": "rhf"
			},
			{
				"type": "occ",
				"energy": -0.30655,
				"method": "rhf"
			},
			{
				"type": "occ",
				"energy": -0.26946,
				"method": "rhf"
			},
			{
				"type": "occ",
				"energy": -0.26629,
				"method": "rhf"
			},
			{
				"type": "occ",
				"energy": -0.24925,
				"method": "rhf"
			},
			{
				"type": "unocc",
				"energy": -0.07732,
				"method": "rhf"
			},
			{
				"type": "unocc",
				"energy": -0.0272,
				"method": "rhf"
			},
			{
				"type": "unocc",
				"energy": 0.00925,
				"method": "rhf"
			},
			{
				"type": "unocc",
				"energy": 0.01387,
				"method": "rhf"
			},
			{
				"type": "unocc",
				"energy": 0.06215,
				"method": "rhf"
			}
		],
		"cosmo_sigma_profile": { 
			"-0.025": 0.0,
			"-0.024": 0.0,
			"-0.023": 0.0,
			"-0.022": 0.0,
			"-0.021": 0.0,
			"-0.02": 0.0,
			"-0.019": 0.860401720179,
			"-0.018": 1.03968957487,
			"-0.017": 1.25400138058,
			"-0.016": 1.23533713013,
			"-0.015": 0.790529634137,
			"-0.014": 1.39467600369,
			"-0.013": 0.335713310794,
			"-0.012": 0.940222224563,
			"-0.011": 1.11523832716,
			"-0.01": 1.09513677889,
			"-0.009": 1.07993893674,
			"-0.008": 3.62823677171,
			"-0.007": 9.1552334239,
			"-0.006": 10.9806971273,
			"-0.005": 10.4358721374,
			"-0.004": 8.26184117398,
			"-0.003": 9.76511389501,
			"-0.002": 10.6899145207,
			"-0.001": 12.784909691,
			"0.0": 17.1251372118,
			"0.001": 23.3088924882,
			"0.002": 22.8579334629,
			"0.003": 17.665403833,
			"0.004": 10.0334163235,
			"0.005": 3.04049418214,
			"0.006": 2.67323626907,
			"0.007": 1.41780826779,
			"0.008": 2.7750073011,
			"0.009": 3.19238713694,
			"0.01": 3.87021706093,
			"0.011": 5.09940780735,
			"0.012": 5.89050294342,
			"0.013": 2.59457570407,
			"0.014": 0.490198249079,
			"0.015": 0.0,
			"0.016": 0.0,
			"0.017": 0.0,
			"0.018": 0.0,
			"0.019": 0.0,
			"0.02": 0.0,
			"0.021": 0.0,
			"0.022": 0.0,
			"0.023": 0.0,
			"0.024": 0.0,
			"0.025": 0.0
		}
	}
}
