{
	 "smiles": "OC(=O)CC1=CNC2=C1C=CC(Cl)=C2", 
	 "Tm": 459.15, 
	 "num_atms": 22, 
	 "gaussian": { 
		 "optdone": 1, 
		 "sigma_profile": "yes", 
		 "theory": "DFT", 
		 "functional": "B3LYP", 
		 "basiset": "6-31G**", 
		 "properties": { 
			 "R2extent": 3890.2282, 
			 "electric_dipole_moment_norm": 4.59257074632, 
			 "electric_quadrupole_moment_norm": 4.72266767198, 
			 "total_energy": -1051.29934678, 
			 "HOMO_LUMO_gap": 0.18765, 
			 "cosmo_polarized_energy": -15.43, 
			 "cosmo_cavitation_energy": 28.6, 
			 "cosmo_dispersion_energy": -20.91, 
			 "cosmo_repulsion_energy": 1.66, 
			 "cosmo_total_nonelectrostatic_energy": 9.35, 
			 "SMD_solvation_energy": 5.5 
		},
		"coords": [
			{
				"x": 1.22948999,
				"y": 3.9840407573,
				"z": -1.4904612172,
				"element": "O" 
			},
			{
				"x": 0.481505141,
				"y": 3.7513139317,
				"z": -0.3869907414,
				"element": "C" 
			},
			{
				"x": 0.9024982339,
				"y": 3.9236305161,
				"z": 0.7364111847,
				"element": "O" 
			},
			{
				"x": -0.9035416201,
				"y": 3.2313487524,
				"z": -0.7356324407,
				"element": "C" 
			},
			{
				"x": -0.9158593245,
				"y": 1.732505188,
				"z": -0.8798305811,
				"element": "C" 
			},
			{
				"x": -1.1956285629,
				"y": 1.0254714807,
				"z": -2.0214998031,
				"element": "C" 
			},
			{
				"x": -1.135454795,
				"y": -0.3313757884,
				"z": -1.76132106,
				"element": "N" 
			},
			{
				"x": -0.8104890785,
				"y": -0.5245425077,
				"z": -0.435143364,
				"element": "C" 
			},
			{
				"x": -0.6582609308,
				"y": 0.7600054135,
				"z": 0.1545525417,
				"element": "C" 
			},
			{
				"x": -0.315457924,
				"y": 0.8470142753,
				"z": 1.5151265707,
				"element": "C" 
			},
			{
				"x": -0.1452039918,
				"y": -0.3200605736,
				"z": 2.2479680291,
				"element": "C" 
			},
			{
				"x": -0.3108234143,
				"y": -1.5741057492,
				"z": 1.6288772008,
				"element": "C" 
			},
			{
				"x": -0.0840768228,
				"y": -3.0300070544,
				"z": 2.5964737376,
				"element": "Cl" 
			},
			{
				"x": -0.6409663166,
				"y": -1.7101886959,
				"z": 0.2875462577,
				"element": "C" 
			},
			{
				"x": 2.1022312204,
				"y": 4.2685196693,
				"z": -1.1697404745,
				"element": "H" 
			},
			{
				"x": -1.5709566929,
				"y": 3.5472396495,
				"z": 0.0726432242,
				"element": "H" 
			},
			{
				"x": -1.2379790182,
				"y": 3.6976901864,
				"z": -1.6662813717,
				"element": "H" 
			},
			{
				"x": -1.4407506876,
				"y": 1.3860807,
				"z": -3.0106536542,
				"element": "H" 
			},
			{
				"x": -1.3089254036,
				"y": -1.0603059962,
				"z": -2.4336562885,
				"element": "H" 
			},
			{
				"x": -0.1656015219,
				"y": 1.8153233613,
				"z": 1.9814997337,
				"element": "H" 
			},
			{
				"x": 0.1210457119,
				"y": -0.2787368579,
				"z": 3.297909765,
				"element": "H" 
			},
			{
				"x": -0.7588941918,
				"y": -2.6885606582,
				"z": -0.1648972486,
				"element": "H" 
			}
		],
		 "valence_orbital": [ 
			{
				"type": "occ",
				"energy": -0.30441,
				"method": "rhf"
			},
			{
				"type": "occ",
				"energy": -0.2846,
				"method": "rhf"
			},
			{
				"type": "occ",
				"energy": -0.27022,
				"method": "rhf"
			},
			{
				"type": "occ",
				"energy": -0.22799,
				"method": "rhf"
			},
			{
				"type": "occ",
				"energy": -0.20817,
				"method": "rhf"
			},
			{
				"type": "unocc",
				"energy": -0.02052,
				"method": "rhf"
			},
			{
				"type": "unocc",
				"energy": 0.00618,
				"method": "rhf"
			},
			{
				"type": "unocc",
				"energy": 0.01678,
				"method": "rhf"
			},
			{
				"type": "unocc",
				"energy": 0.03704,
				"method": "rhf"
			},
			{
				"type": "unocc",
				"energy": 0.06111,
				"method": "rhf"
			}
		],
		"cosmo_sigma_profile": { 
			"-0.025": 0.0,
			"-0.024": 0.0,
			"-0.023": 0.0,
			"-0.022": 0.0,
			"-0.021": 0.0,
			"-0.02": 0.0,
			"-0.019": 0.0411008235674,
			"-0.018": 0.592712966832,
			"-0.017": 0.899966584228,
			"-0.016": 2.05714201635,
			"-0.015": 2.62231082132,
			"-0.014": 2.00690541138,
			"-0.013": 1.95902283744,
			"-0.012": 2.11796545611,
			"-0.011": 2.18818615531,
			"-0.01": 2.18946331786,
			"-0.009": 2.37911389638,
			"-0.008": 4.80756271415,
			"-0.007": 6.80134773835,
			"-0.006": 9.06365687184,
			"-0.005": 9.43273925314,
			"-0.004": 10.4661086981,
			"-0.003": 13.1515958915,
			"-0.002": 11.7843005048,
			"-0.001": 11.3164013445,
			"0.0": 11.2417133208,
			"0.001": 11.3738638549,
			"0.002": 14.0907580099,
			"0.003": 22.9986926602,
			"0.004": 26.6010454918,
			"0.005": 24.9407330171,
			"0.006": 5.81534653721,
			"0.007": 2.75728761739,
			"0.008": 2.8558826359,
			"0.009": 3.31023842393,
			"0.01": 2.04830214887,
			"0.011": 3.48879060822,
			"0.012": 3.26929924065,
			"0.013": 0.126200238944,
			"0.014": 0.0,
			"0.015": 0.0,
			"0.016": 0.0,
			"0.017": 0.0,
			"0.018": 0.0,
			"0.019": 0.0,
			"0.02": 0.0,
			"0.021": 0.0,
			"0.022": 0.0,
			"0.023": 0.0,
			"0.024": 0.0,
			"0.025": 0.0
		}
	}
}
