{
	 "smiles": "BrC1=CC=C(S1)C(=O)CC#N", 
	 "Tm": 417.15, 
	 "num_atms": 15, 
	 "gaussian": { 
		 "optdone": 1, 
		 "sigma_profile": "yes", 
		 "theory": "DFT", 
		 "functional": "B3LYP", 
		 "basiset": "6-31G**", 
		 "properties": { 
			 "R2extent": 3607.1823, 
			 "electric_dipole_moment_norm": 3.48590857884, 
			 "electric_quadrupole_moment_norm": 14.1620756996, 
			 "total_energy": -3368.67384279, 
			 "HOMO_LUMO_gap": 0.1655, 
			 "cosmo_polarized_energy": -12.04, 
			 "cosmo_cavitation_energy": 25.2, 
			 "cosmo_dispersion_energy": -18.47, 
			 "cosmo_repulsion_energy": 1.45, 
			 "cosmo_total_nonelectrostatic_energy": 8.18, 
			 "SMD_solvation_energy": 4.95 
		},
		"coords": [
			{
				"x": -1.1979663936,
				"y": 1.7064272444,
				"z": -3.2460763648,
				"element": "Br" 
			},
			{
				"x": -0.7989892919,
				"y": 0.4922139176,
				"z": -1.8672331084,
				"element": "C" 
			},
			{
				"x": -1.521689033,
				"y": -0.6274730322,
				"z": -1.5296311329,
				"element": "C" 
			},
			{
				"x": -0.9404778646,
				"y": -1.3160948579,
				"z": -0.4393652277,
				"element": "C" 
			},
			{
				"x": 0.2080709625,
				"y": -0.7218313449,
				"z": 0.0455785893,
				"element": "C" 
			},
			{
				"x": 0.5871961504,
				"y": 0.732441987,
				"z": -0.8583711317,
				"element": "S" 
			},
			{
				"x": 1.0146228291,
				"y": -1.2658738868,
				"z": 1.1472658488,
				"element": "C" 
			},
			{
				"x": 0.7025105669,
				"y": -2.3008597332,
				"z": 1.7100939812,
				"element": "O" 
			},
			{
				"x": 2.3135311938,
				"y": -0.5379850443,
				"z": 1.570559708,
				"element": "C" 
			},
			{
				"x": 2.0899397988,
				"y": 0.8088370395,
				"z": 2.0959195846,
				"element": "C" 
			},
			{
				"x": 1.9007412178,
				"y": 1.8743705677,
				"z": 2.5157567802,
				"element": "N" 
			},
			{
				"x": -2.4227834581,
				"y": -0.9313214353,
				"z": -2.0466251568,
				"element": "H" 
			},
			{
				"x": -1.3304579207,
				"y": -2.2288523547,
				"z": -0.0051959363,
				"element": "H" 
			},
			{
				"x": 2.9977115754,
				"y": -0.4760097698,
				"z": 0.7145820438,
				"element": "H" 
			},
			{
				"x": 2.7832396673,
				"y": -1.1580892973,
				"z": 2.3384415226,
				"element": "H" 
			}
		],
		 "valence_orbital": [ 
			{
				"type": "occ",
				"energy": -0.33328,
				"method": "rhf"
			},
			{
				"type": "occ",
				"energy": -0.31639,
				"method": "rhf"
			},
			{
				"type": "occ",
				"energy": -0.28593,
				"method": "rhf"
			},
			{
				"type": "occ",
				"energy": -0.27903,
				"method": "rhf"
			},
			{
				"type": "occ",
				"energy": -0.2549,
				"method": "rhf"
			},
			{
				"type": "unocc",
				"energy": -0.0894,
				"method": "rhf"
			},
			{
				"type": "unocc",
				"energy": -0.02546,
				"method": "rhf"
			},
			{
				"type": "unocc",
				"energy": -0.00853,
				"method": "rhf"
			},
			{
				"type": "unocc",
				"energy": -0.00324,
				"method": "rhf"
			},
			{
				"type": "unocc",
				"energy": 0.0247,
				"method": "rhf"
			}
		],
		"cosmo_sigma_profile": { 
			"-0.025": 0.0,
			"-0.024": 0.0,
			"-0.023": 0.0,
			"-0.022": 0.0,
			"-0.021": 0.0,
			"-0.02": 0.0,
			"-0.019": 0.0,
			"-0.018": 0.0,
			"-0.017": 0.0,
			"-0.016": 0.0,
			"-0.015": 0.0,
			"-0.014": 0.0,
			"-0.013": 0.0,
			"-0.012": 0.0,
			"-0.011": 1.65394325605,
			"-0.01": 4.58893097012,
			"-0.009": 6.34927707911,
			"-0.008": 7.81718634459,
			"-0.007": 7.80839673706,
			"-0.006": 9.28104087362,
			"-0.005": 8.24236387988,
			"-0.004": 7.93273026622,
			"-0.003": 9.89396848023,
			"-0.002": 13.3293647734,
			"-0.001": 15.9867153655,
			"0.0": 22.7029387641,
			"0.001": 22.2848379898,
			"0.002": 17.9734559165,
			"0.003": 12.4546400349,
			"0.004": 3.11510132872,
			"0.005": 3.83274218454,
			"0.006": 4.04079209882,
			"0.007": 4.49965359782,
			"0.008": 4.53327701253,
			"0.009": 5.47622570253,
			"0.01": 6.57815780413,
			"0.011": 5.61598128433,
			"0.012": 2.57608278258,
			"0.013": 0.711701958999,
			"0.014": 0.0,
			"0.015": 0.0,
			"0.016": 0.0,
			"0.017": 0.0,
			"0.018": 0.0,
			"0.019": 0.0,
			"0.02": 0.0,
			"0.021": 0.0,
			"0.022": 0.0,
			"0.023": 0.0,
			"0.024": 0.0,
			"0.025": 0.0
		}
	}
}
