{
	 "smiles": "COC1=CC(=CC=C1CC1=CN(C)C2=C1C=C(NC(=O)OC1CCCC1)C=C2)C(=O)NS(=O)(=O)C1=CC=CC=C1C", 
	 "Tm": 411.15, 
	 "num_atms": 74, 
	 "gaussian": { 
		 "optdone": 1, 
		 "sigma_profile": "yes", 
		 "theory": "DFT", 
		 "functional": "B3LYP", 
		 "basiset": "6-31G**", 
		 "properties": { 
			 "R2extent": 29956.7268, 
			 "electric_dipole_moment_norm": 4.96297779564, 
			 "electric_quadrupole_moment_norm": 37.5522345584, 
			 "total_energy": -2214.94592986, 
			 "HOMO_LUMO_gap": 0.13746, 
			 "cosmo_polarized_energy": -27.17, 
			 "cosmo_cavitation_energy": 75.92, 
			 "cosmo_dispersion_energy": -49.14, 
			 "cosmo_repulsion_energy": 3.6, 
			 "cosmo_total_nonelectrostatic_energy": 30.38, 
			 "SMD_solvation_energy": 12.55 
		},
		"coords": [
			{
				"x": 0.1666706602,
				"y": -0.624686989,
				"z": -2.04972729,
				"element": "C" 
			},
			{
				"x": -0.5016758803,
				"y": -0.8360144346,
				"z": -0.8074032837,
				"element": "O" 
			},
			{
				"x": 0.2361453828,
				"y": -1.2221502302,
				"z": 0.2715023567,
				"element": "C" 
			},
			{
				"x": 1.6187221117,
				"y": -1.4280730679,
				"z": 0.2224142051,
				"element": "C" 
			},
			{
				"x": 2.3079725971,
				"y": -1.8361881767,
				"z": 1.3732328965,
				"element": "C" 
			},
			{
				"x": 1.6177359954,
				"y": -2.006673993,
				"z": 2.5806070067,
				"element": "C" 
			},
			{
				"x": 0.2430367059,
				"y": -1.799286555,
				"z": 2.6132307855,
				"element": "C" 
			},
			{
				"x": -0.4732532686,
				"y": -1.4095171153,
				"z": 1.4774316308,
				"element": "C" 
			},
			{
				"x": -1.9762690945,
				"y": -1.1806451858,
				"z": 1.5508128417,
				"element": "C" 
			},
			{
				"x": -2.3646284584,
				"y": 0.0380586287,
				"z": 2.3479368583,
				"element": "C" 
			},
			{
				"x": -2.9683212867,
				"y": 0.0397458255,
				"z": 3.5817079369,
				"element": "C" 
			},
			{
				"x": -3.1714889423,
				"y": 1.3331681786,
				"z": 4.0299284818,
				"element": "N" 
			},
			{
				"x": -3.7876061476,
				"y": 1.7213285455,
				"z": 5.2799845588,
				"element": "C" 
			},
			{
				"x": -2.6896097645,
				"y": 2.198673902,
				"z": 3.0659992028,
				"element": "C" 
			},
			{
				"x": -2.1739493708,
				"y": 1.4233397436,
				"z": 1.9917528889,
				"element": "C" 
			},
			{
				"x": -1.6247490301,
				"y": 2.0597123979,
				"z": 0.8642754009,
				"element": "C" 
			},
			{
				"x": -1.5989373521,
				"y": 3.4539300483,
				"z": 0.840280946,
				"element": "C" 
			},
			{
				"x": -1.0741244749,
				"y": 4.2073238575,
				"z": -0.2370710813,
				"element": "N" 
			},
			{
				"x": -0.4902424742,
				"y": 3.7733404976,
				"z": -1.3953441593,
				"element": "C" 
			},
			{
				"x": -0.3105333288,
				"y": 2.6137979404,
				"z": -1.7333683816,
				"element": "O" 
			},
			{
				"x": -0.1358378109,
				"y": 4.8689493923,
				"z": -2.1210537597,
				"element": "O" 
			},
			{
				"x": 0.4779630385,
				"y": 4.6950171441,
				"z": -3.4219919262,
				"element": "C" 
			},
			{
				"x": 1.8057732284,
				"y": 3.8826135446,
				"z": -3.4339435937,
				"element": "C" 
			},
			{
				"x": 1.5988459679,
				"y": 2.7645031513,
				"z": -4.4771864468,
				"element": "C" 
			},
			{
				"x": 0.5292010126,
				"y": 3.3326046169,
				"z": -5.4288796959,
				"element": "C" 
			},
			{
				"x": -0.445656747,
				"y": 4.0447349973,
				"z": -4.4760681405,
				"element": "C" 
			},
			{
				"x": -2.1150786132,
				"y": 4.2083258807,
				"z": 1.9227840396,
				"element": "C" 
			},
			{
				"x": -2.6641372553,
				"y": 3.5959240505,
				"z": 3.0394321322,
				"element": "C" 
			},
			{
				"x": 3.7813625933,
				"y": -2.0066521878,
				"z": 1.3903151754,
				"element": "C" 
			},
			{
				"x": 4.4602239819,
				"y": -1.8280665824,
				"z": 2.3883397921,
				"element": "O" 
			},
			{
				"x": 4.4622214135,
				"y": -2.3123320981,
				"z": 0.1756320457,
				"element": "N" 
			},
			{
				"x": 4.1890773402,
				"y": -3.5794720248,
				"z": -0.9613762973,
				"element": "S" 
			},
			{
				"x": 2.937745193,
				"y": -3.3351868802,
				"z": -1.6739051775,
				"element": "O" 
			},
			{
				"x": 5.4657644929,
				"y": -3.6251241652,
				"z": -1.6765372668,
				"element": "O" 
			},
			{
				"x": 4.0480858734,
				"y": -5.0872120557,
				"z": 0.0233214155,
				"element": "C" 
			},
			{
				"x": 5.2743057165,
				"y": -5.6044686363,
				"z": 0.4621234709,
				"element": "C" 
			},
			{
				"x": 5.3107221888,
				"y": -6.753277085,
				"z": 1.2447444226,
				"element": "C" 
			},
			{
				"x": 4.11333336,
				"y": -7.3848266406,
				"z": 1.5800608589,
				"element": "C" 
			},
			{
				"x": 2.9016499389,
				"y": -6.8698842031,
				"z": 1.126069034,
				"element": "C" 
			},
			{
				"x": 2.8213920714,
				"y": -5.7108958405,
				"z": 0.3358954441,
				"element": "C" 
			},
			{
				"x": 1.4597519507,
				"y": -5.2497907769,
				"z": -0.129726338,
				"element": "C" 
			},
			{
				"x": -0.6161466274,
				"y": -0.367435994,
				"z": -2.7632870902,
				"element": "H" 
			},
			{
				"x": 0.6905505871,
				"y": -1.5299839847,
				"z": -2.3771446395,
				"element": "H" 
			},
			{
				"x": 0.8667229934,
				"y": 0.2136913031,
				"z": -1.9798176096,
				"element": "H" 
			},
			{
				"x": 2.1650663519,
				"y": -1.2761724327,
				"z": -0.6963413897,
				"element": "H" 
			},
			{
				"x": 2.1671018342,
				"y": -2.2958287776,
				"z": 3.4693652717,
				"element": "H" 
			},
			{
				"x": -0.2985775137,
				"y": -1.928160511,
				"z": 3.5468675633,
				"element": "H" 
			},
			{
				"x": -2.3747214515,
				"y": -1.1101652915,
				"z": 0.5357283364,
				"element": "H" 
			},
			{
				"x": -2.4385276736,
				"y": -2.0612470868,
				"z": 2.0133466096,
				"element": "H" 
			},
			{
				"x": -3.2847778255,
				"y": -0.7976679166,
				"z": 4.1898154623,
				"element": "H" 
			},
			{
				"x": -3.0962265982,
				"y": 2.3066217007,
				"z": 5.8975999713,
				"element": "H" 
			},
			{
				"x": -4.0676718935,
				"y": 0.8233785142,
				"z": 5.833827918,
				"element": "H" 
			},
			{
				"x": -4.6914004521,
				"y": 2.3181645668,
				"z": 5.1090438127,
				"element": "H" 
			},
			{
				"x": -1.2339541434,
				"y": 1.4901899661,
				"z": 0.0321098894,
				"element": "H" 
			},
			{
				"x": -1.1238978574,
				"y": 5.2116252633,
				"z": -0.148487418,
				"element": "H" 
			},
			{
				"x": 0.6809632009,
				"y": 5.7328264359,
				"z": -3.6974474436,
				"element": "H" 
			},
			{
				"x": 2.6262818772,
				"y": 4.5436601931,
				"z": -3.7342145811,
				"element": "H" 
			},
			{
				"x": 2.0464524015,
				"y": 3.4944318607,
				"z": -2.4430620449,
				"element": "H" 
			},
			{
				"x": 2.5247757163,
				"y": 2.4843051127,
				"z": -4.988632405,
				"element": "H" 
			},
			{
				"x": 1.2050202804,
				"y": 1.8721981005,
				"z": -3.9810349139,
				"element": "H" 
			},
			{
				"x": 0.0404411854,
				"y": 2.5654957808,
				"z": -6.0375739798,
				"element": "H" 
			},
			{
				"x": 0.9833781956,
				"y": 4.0549825197,
				"z": -6.1203641896,
				"element": "H" 
			},
			{
				"x": -1.0844041139,
				"y": 3.3060106124,
				"z": -3.9857950161,
				"element": "H" 
			},
			{
				"x": -1.0887227791,
				"y": 4.7791951919,
				"z": -4.9703534275,
				"element": "H" 
			},
			{
				"x": -2.0797449052,
				"y": 5.2941564002,
				"z": 1.87505567,
				"element": "H" 
			},
			{
				"x": -3.0565154396,
				"y": 4.1923598333,
				"z": 3.8573055423,
				"element": "H" 
			},
			{
				"x": 5.4662819422,
				"y": -2.2641429284,
				"z": 0.3384174697,
				"element": "H" 
			},
			{
				"x": 6.1945426071,
				"y": -5.1117786074,
				"z": 0.1685592251,
				"element": "H" 
			},
			{
				"x": 6.2627076608,
				"y": -7.1507039589,
				"z": 1.5817679642,
				"element": "H" 
			},
			{
				"x": 4.120863891,
				"y": -8.2836396214,
				"z": 2.1897499555,
				"element": "H" 
			},
			{
				"x": 1.9768848311,
				"y": -7.3788004969,
				"z": 1.3827889339,
				"element": "H" 
			},
			{
				"x": 0.6925254872,
				"y": -5.9224632598,
				"z": 0.2615169348,
				"element": "H" 
			},
			{
				"x": 1.3950297213,
				"y": -5.2392095667,
				"z": -1.2200344092,
				"element": "H" 
			},
			{
				"x": 1.2312949943,
				"y": -4.2358603402,
				"z": 0.2055910372,
				"element": "H" 
			}
		],
		 "valence_orbital": [ 
			{
				"type": "occ",
				"energy": -0.25967,
				"method": "rhf"
			},
			{
				"type": "occ",
				"energy": -0.24638,
				"method": "rhf"
			},
			{
				"type": "occ",
				"energy": -0.21615,
				"method": "rhf"
			},
			{
				"type": "occ",
				"energy": -0.20148,
				"method": "rhf"
			},
			{
				"type": "occ",
				"energy": -0.18776,
				"method": "rhf"
			},
			{
				"type": "unocc",
				"energy": -0.0503,
				"method": "rhf"
			},
			{
				"type": "unocc",
				"energy": -0.03991,
				"method": "rhf"
			},
			{
				"type": "unocc",
				"energy": -0.01673,
				"method": "rhf"
			},
			{
				"type": "unocc",
				"energy": -0.00658,
				"method": "rhf"
			},
			{
				"type": "unocc",
				"energy": 0.0082,
				"method": "rhf"
			}
		],
		"cosmo_sigma_profile": { 
			"-0.025": 0.0,
			"-0.024": 0.0,
			"-0.023": 0.0,
			"-0.022": 0.0,
			"-0.021": 0.0,
			"-0.02": 0.0,
			"-0.019": 0.0,
			"-0.018": 0.0,
			"-0.017": 0.0,
			"-0.016": 0.0,
			"-0.015": 0.524842193854,
			"-0.014": 1.59892251982,
			"-0.013": 1.81030283707,
			"-0.012": 2.34478395391,
			"-0.011": 1.66058708612,
			"-0.01": 2.52198328787,
			"-0.009": 2.53377304799,
			"-0.008": 3.99027860705,
			"-0.007": 12.5431175417,
			"-0.006": 22.2091791274,
			"-0.005": 36.5457911155,
			"-0.004": 41.5847107398,
			"-0.003": 52.7833479415,
			"-0.002": 52.5917440199,
			"-0.001": 54.129650267,
			"0.0": 57.2843897449,
			"0.001": 50.2722977573,
			"0.002": 38.9224365024,
			"0.003": 37.0010245114,
			"0.004": 30.3046788425,
			"0.005": 26.3512758644,
			"0.006": 26.3811887599,
			"0.007": 12.9485181234,
			"0.008": 7.93343316056,
			"0.009": 6.9148689691,
			"0.01": 8.24626506072,
			"0.011": 8.03207960755,
			"0.012": 2.36511595726,
			"0.013": 0.0,
			"0.014": 0.0,
			"0.015": 0.0,
			"0.016": 0.0,
			"0.017": 0.0,
			"0.018": 0.0,
			"0.019": 0.0,
			"0.02": 0.0,
			"0.021": 0.0,
			"0.022": 0.0,
			"0.023": 0.0,
			"0.024": 0.0,
			"0.025": 0.0
		}
	}
}
