{
	 "smiles": "[O-][N+](=O)C1=CC=C(COC2=CC=C(C=O)C=C2)C=C1", 
	 "Tm": 403.15, 
	 "num_atms": 30, 
	 "gaussian": { 
		 "optdone": 1, 
		 "sigma_profile": "yes", 
		 "theory": "DFT", 
		 "functional": "B3LYP", 
		 "basiset": "6-31G**", 
		 "properties": { 
			 "R2extent": 7327.4091, 
			 "electric_dipole_moment_norm": 5.51069884225, 
			 "electric_quadrupole_moment_norm": 26.7115914563, 
			 "total_energy": -895.650207204, 
			 "HOMO_LUMO_gap": 0.1494, 
			 "cosmo_polarized_energy": -16.51, 
			 "cosmo_cavitation_energy": 36.21, 
			 "cosmo_dispersion_energy": -25.5, 
			 "cosmo_repulsion_energy": 1.95, 
			 "cosmo_total_nonelectrostatic_energy": 12.65, 
			 "SMD_solvation_energy": 9.59 
		},
		"coords": [
			{
				"x": 1.8527429573,
				"y": 3.7817743493,
				"z": -4.1566764792,
				"element": "O" 
			},
			{
				"x": 1.4058328665,
				"y": 2.6353565496,
				"z": -4.1525341269,
				"element": "N" 
			},
			{
				"x": 0.8478143318,
				"y": 2.0951836848,
				"z": -5.10652866,
				"element": "O" 
			},
			{
				"x": 1.5515021222,
				"y": 1.8517080145,
				"z": -2.9149361187,
				"element": "C" 
			},
			{
				"x": 2.1796959023,
				"y": 2.4356264557,
				"z": -1.8170308423,
				"element": "C" 
			},
			{
				"x": 2.3089374051,
				"y": 1.6882618159,
				"z": -0.6498699817,
				"element": "C" 
			},
			{
				"x": 1.8244486651,
				"y": 0.3747073787,
				"z": -0.5824873553,
				"element": "C" 
			},
			{
				"x": 2.0372218215,
				"y": -0.4415488628,
				"z": 0.6782191429,
				"element": "C" 
			},
			{
				"x": 1.0964809838,
				"y": -1.4966955514,
				"z": 0.8527735138,
				"element": "O" 
			},
			{
				"x": -0.1435146698,
				"y": -1.2191909256,
				"z": 1.355031013,
				"element": "C" 
			},
			{
				"x": -0.6339830405,
				"y": 0.0738549535,
				"z": 1.6010624924,
				"element": "C" 
			},
			{
				"x": -1.9119176749,
				"y": 0.2281564257,
				"z": 2.1265401657,
				"element": "C" 
			},
			{
				"x": -2.7151082513,
				"y": -0.8856583607,
				"z": 2.4071277556,
				"element": "C" 
			},
			{
				"x": -4.0695845102,
				"y": -0.7092107651,
				"z": 2.964417685,
				"element": "C" 
			},
			{
				"x": -4.5804063921,
				"y": 0.3659378557,
				"z": 3.2213340979,
				"element": "O" 
			},
			{
				"x": -2.2144208311,
				"y": -2.171417997,
				"z": 2.1478898998,
				"element": "C" 
			},
			{
				"x": -0.9405046666,
				"y": -2.3425307272,
				"z": 1.6269751499,
				"element": "C" 
			},
			{
				"x": 1.1989374968,
				"y": -0.1860987838,
				"z": -1.7033538116,
				"element": "C" 
			},
			{
				"x": 1.0552875798,
				"y": 0.5502952924,
				"z": -2.8758312063,
				"element": "C" 
			},
			{
				"x": 2.5450146938,
				"y": 3.4522501167,
				"z": -1.8898504149,
				"element": "H" 
			},
			{
				"x": 2.7904880332,
				"y": 2.1335298594,
				"z": 0.2169440089,
				"element": "H" 
			},
			{
				"x": 2.0589518306,
				"y": 0.2080009019,
				"z": 1.5622066967,
				"element": "H" 
			},
			{
				"x": 3.005508416,
				"y": -0.9511696579,
				"z": 0.6239806412,
				"element": "H" 
			},
			{
				"x": -0.0400761478,
				"y": 0.9496586116,
				"z": 1.3698984231,
				"element": "H" 
			},
			{
				"x": -2.3146626457,
				"y": 1.2167022876,
				"z": 2.3240092766,
				"element": "H" 
			},
			{
				"x": -4.6214427717,
				"y": -1.6594536528,
				"z": 3.1447115498,
				"element": "H" 
			},
			{
				"x": -2.8316092766,
				"y": -3.0409576588,
				"z": 2.362006828,
				"element": "H" 
			},
			{
				"x": -0.5333375153,
				"y": -3.3279346681,
				"z": 1.4270522982,
				"element": "H" 
			},
			{
				"x": 0.8194969257,
				"y": -1.2006978571,
				"z": -1.6497004606,
				"element": "H" 
			},
			{
				"x": 0.5721063623,
				"y": 0.1384609152,
				"z": -3.7529811811,
				"element": "H" 
			}
		],
		 "valence_orbital": [ 
			{
				"type": "occ",
				"energy": -0.2874,
				"method": "rhf"
			},
			{
				"type": "occ",
				"energy": -0.28605,
				"method": "rhf"
			},
			{
				"type": "occ",
				"energy": -0.27356,
				"method": "rhf"
			},
			{
				"type": "occ",
				"energy": -0.2538,
				"method": "rhf"
			},
			{
				"type": "occ",
				"energy": -0.24452,
				"method": "rhf"
			},
			{
				"type": "unocc",
				"energy": -0.09512,
				"method": "rhf"
			},
			{
				"type": "unocc",
				"energy": -0.06001,
				"method": "rhf"
			},
			{
				"type": "unocc",
				"energy": -0.03839,
				"method": "rhf"
			},
			{
				"type": "unocc",
				"energy": -0.02226,
				"method": "rhf"
			},
			{
				"type": "unocc",
				"energy": -0.00954,
				"method": "rhf"
			}
		],
		"cosmo_sigma_profile": { 
			"-0.025": 0.0,
			"-0.024": 0.0,
			"-0.023": 0.0,
			"-0.022": 0.0,
			"-0.021": 0.0,
			"-0.02": 0.0,
			"-0.019": 0.0,
			"-0.018": 0.0,
			"-0.017": 0.0,
			"-0.016": 0.0,
			"-0.015": 0.0,
			"-0.014": 0.0,
			"-0.013": 0.0,
			"-0.012": 0.0,
			"-0.011": 0.0,
			"-0.01": 0.0,
			"-0.009": 0.623900876443,
			"-0.008": 7.26046969219,
			"-0.007": 17.5406169463,
			"-0.006": 22.7293469944,
			"-0.005": 21.0448449272,
			"-0.004": 17.8858219135,
			"-0.003": 15.489967438,
			"-0.002": 17.7124569395,
			"-0.001": 21.9494364933,
			"0.0": 19.3103779732,
			"0.001": 26.6598720827,
			"0.002": 22.1018289954,
			"0.003": 19.1957746857,
			"0.004": 6.75612867216,
			"0.005": 5.85736123196,
			"0.006": 6.95482650044,
			"0.007": 9.53799614912,
			"0.008": 11.0026654958,
			"0.009": 6.80549412201,
			"0.01": 4.8348467382,
			"0.011": 3.69579192265,
			"0.012": 4.10618979322,
			"0.013": 1.52302930403,
			"0.014": 0.151340268745,
			"0.015": 0.0,
			"0.016": 0.0,
			"0.017": 0.0,
			"0.018": 0.0,
			"0.019": 0.0,
			"0.02": 0.0,
			"0.021": 0.0,
			"0.022": 0.0,
			"0.023": 0.0,
			"0.024": 0.0,
			"0.025": 0.0
		}
	}
}
