{
	 "smiles": "[O-][N+](=O)C1=C(Cl)C=CC2=NSN=C12", 
	 "Tm": 423.15, 
	 "num_atms": 15, 
	 "gaussian": { 
		 "optdone": 1, 
		 "sigma_profile": "yes", 
		 "theory": "DFT", 
		 "functional": "B3LYP", 
		 "basiset": "6-31G**", 
		 "properties": { 
			 "R2extent": 3034.0237, 
			 "electric_dipole_moment_norm": 4.28163391709, 
			 "electric_quadrupole_moment_norm": 9.12227794961, 
			 "total_energy": -1402.77579636, 
			 "HOMO_LUMO_gap": 0.15092, 
			 "cosmo_polarized_energy": -9.17, 
			 "cosmo_cavitation_energy": 24.86, 
			 "cosmo_dispersion_energy": -18.65, 
			 "cosmo_repulsion_energy": 1.41, 
			 "cosmo_total_nonelectrostatic_energy": 7.62, 
			 "SMD_solvation_energy": 3.41 
		},
		"coords": [
			{
				"x": 1.0409817483,
				"y": 2.3816788826,
				"z": 1.8622244596,
				"element": "O" 
			},
			{
				"x": 1.1353806319,
				"y": 1.1644218195,
				"z": 1.9499188665,
				"element": "N" 
			},
			{
				"x": 1.762023259,
				"y": 0.534455278,
				"z": 2.7918101735,
				"element": "O" 
			},
			{
				"x": 0.4046470633,
				"y": 0.3727618183,
				"z": 0.9435455721,
				"element": "C" 
			},
			{
				"x": 0.9773582239,
				"y": -0.0014397655,
				"z": -0.2435261296,
				"element": "C" 
			},
			{
				"x": 2.6167738428,
				"y": 0.4482053567,
				"z": -0.6203957291,
				"element": "Cl" 
			},
			{
				"x": 0.2498108039,
				"y": -0.7712877614,
				"z": -1.2092322406,
				"element": "C" 
			},
			{
				"x": -1.0425438129,
				"y": -1.1630899317,
				"z": -0.98632651,
				"element": "C" 
			},
			{
				"x": -1.6657779597,
				"y": -0.7892759761,
				"z": 0.2391904465,
				"element": "C" 
			},
			{
				"x": -2.9134424242,
				"y": -1.0825093097,
				"z": 0.6234443574,
				"element": "N" 
			},
			{
				"x": -3.112395841,
				"y": -0.4128484423,
				"z": 2.1079890412,
				"element": "S" 
			},
			{
				"x": -1.6347805889,
				"y": 0.2717070049,
				"z": 2.3229995648,
				"element": "N" 
			},
			{
				"x": -0.9372286551,
				"y": -0.0112939324,
				"z": 1.2202827175,
				"element": "C" 
			},
			{
				"x": 0.7584980064,
				"y": -1.0359552871,
				"z": -2.1291356275,
				"element": "H" 
			},
			{
				"x": -1.5938042976,
				"y": -1.7452297537,
				"z": -1.7156889624,
				"element": "H" 
			}
		],
		 "valence_orbital": [ 
			{
				"type": "occ",
				"energy": -0.32446,
				"method": "rhf"
			},
			{
				"type": "occ",
				"energy": -0.31625,
				"method": "rhf"
			},
			{
				"type": "occ",
				"energy": -0.31505,
				"method": "rhf"
			},
			{
				"type": "occ",
				"energy": -0.28801,
				"method": "rhf"
			},
			{
				"type": "occ",
				"energy": -0.26626,
				"method": "rhf"
			},
			{
				"type": "unocc",
				"energy": -0.11534,
				"method": "rhf"
			},
			{
				"type": "unocc",
				"energy": -0.0828,
				"method": "rhf"
			},
			{
				"type": "unocc",
				"energy": -0.02728,
				"method": "rhf"
			},
			{
				"type": "unocc",
				"energy": -0.02514,
				"method": "rhf"
			},
			{
				"type": "unocc",
				"energy": -0.01614,
				"method": "rhf"
			}
		],
		"cosmo_sigma_profile": { 
			"-0.025": 0.0,
			"-0.024": 0.0,
			"-0.023": 0.0,
			"-0.022": 0.0,
			"-0.021": 0.0,
			"-0.02": 0.0,
			"-0.019": 0.0,
			"-0.018": 0.0,
			"-0.017": 0.0,
			"-0.016": 0.0,
			"-0.015": 0.0,
			"-0.014": 0.0,
			"-0.013": 0.0,
			"-0.012": 0.0,
			"-0.011": 0.0,
			"-0.01": 0.299376381122,
			"-0.009": 3.75312630941,
			"-0.008": 4.36573029671,
			"-0.007": 3.93104063951,
			"-0.006": 6.60516317364,
			"-0.005": 10.4211547046,
			"-0.004": 14.66221689,
			"-0.003": 20.1878153806,
			"-0.002": 23.8753442767,
			"-0.001": 18.6369348604,
			"0.0": 16.3193919673,
			"0.001": 15.1108287607,
			"0.002": 13.8382493044,
			"0.003": 8.02585563586,
			"0.004": 5.49287069641,
			"0.005": 7.10939137146,
			"0.006": 12.8616681793,
			"0.007": 9.95433675743,
			"0.008": 5.75798449169,
			"0.009": 2.28424847017,
			"0.01": 1.39019558699,
			"0.011": 1.36872992047,
			"0.012": 0.459200064336,
			"0.013": 0.0110924998416,
			"0.014": 0.0,
			"0.015": 0.0,
			"0.016": 0.0,
			"0.017": 0.0,
			"0.018": 0.0,
			"0.019": 0.0,
			"0.02": 0.0,
			"0.021": 0.0,
			"0.022": 0.0,
			"0.023": 0.0,
			"0.024": 0.0,
			"0.025": 0.0
		}
	}
}
