{
	 "smiles": "BrC1=CC2=C(NC3=C2C=C(Br)C=C3)C=C1", 
	 "Tm": 485.15, 
	 "num_atms": 22, 
	 "gaussian": { 
		 "optdone": 1, 
		 "sigma_profile": "yes", 
		 "theory": "DFT", 
		 "functional": "B3LYP", 
		 "basiset": "6-31G**", 
		 "properties": { 
			 "R2extent": 8005.4063, 
			 "electric_dipole_moment_norm": 4.34552160045, 
			 "electric_quadrupole_moment_norm": 18.3333577568, 
			 "total_energy": -5659.07892357, 
			 "HOMO_LUMO_gap": 0.16587, 
			 "cosmo_polarized_energy": -10.74, 
			 "cosmo_cavitation_energy": 31.11, 
			 "cosmo_dispersion_energy": -23.96, 
			 "cosmo_repulsion_energy": 1.85, 
			 "cosmo_total_nonelectrostatic_energy": 9.0, 
			 "SMD_solvation_energy": 2.2 
		},
		"coords": [
			{
				"x": 1.9089648006,
				"y": 0.8521807504,
				"z": 3.7390661697,
				"element": "Br" 
			},
			{
				"x": 1.1605108205,
				"y": 1.4332930682,
				"z": 2.0751307006,
				"element": "C" 
			},
			{
				"x": 0.6394348205,
				"y": 0.4896717715,
				"z": 1.1987671482,
				"element": "C" 
			},
			{
				"x": 0.0981218191,
				"y": 0.9399868301,
				"z": -0.0110684102,
				"element": "C" 
			},
			{
				"x": 0.0955280931,
				"y": 2.3292168249,
				"z": -0.3071520791,
				"element": "C" 
			},
			{
				"x": -0.4887245779,
				"y": 2.5141259664,
				"z": -1.5499505307,
				"element": "N" 
			},
			{
				"x": -0.8666237631,
				"y": 1.287451181,
				"z": -2.0719980007,
				"element": "C" 
			},
			{
				"x": -0.5177923206,
				"y": 0.2730884293,
				"z": -1.1408634576,
				"element": "C" 
			},
			{
				"x": -0.7974620569,
				"y": -1.0661699489,
				"z": -1.4369806942,
				"element": "C" 
			},
			{
				"x": -1.4143295232,
				"y": -1.3546245792,
				"z": -2.64785135,
				"element": "C" 
			},
			{
				"x": -1.8113725723,
				"y": -3.1761287974,
				"z": -3.0851422122,
				"element": "Br" 
			},
			{
				"x": -1.758635639,
				"y": -0.3507745028,
				"z": -3.5674335688,
				"element": "C" 
			},
			{
				"x": -1.4865834158,
				"y": 0.9852771466,
				"z": -3.2863458609,
				"element": "C" 
			},
			{
				"x": 0.6222989714,
				"y": 3.2686334967,
				"z": 0.5818474708,
				"element": "C" 
			},
			{
				"x": 1.1572703971,
				"y": 2.8064048366,
				"z": 1.7810982164,
				"element": "C" 
			},
			{
				"x": 0.654912223,
				"y": -0.5645764015,
				"z": 1.4512891075,
				"element": "H" 
			},
			{
				"x": -0.6187570333,
				"y": 3.4033176244,
				"z": -2.00393738,
				"element": "H" 
			},
			{
				"x": -0.5425316021,
				"y": -1.8611932018,
				"z": -0.7453204307,
				"element": "H" 
			},
			{
				"x": -2.2388357023,
				"y": -0.6223717247,
				"z": -4.5002598287,
				"element": "H" 
			},
			{
				"x": -1.7525408006,
				"y": 1.7619551625,
				"z": -3.9969510181,
				"element": "H" 
			},
			{
				"x": 0.619472143,
				"y": 4.3302073998,
				"z": 0.3538765466,
				"element": "H" 
			},
			{
				"x": 1.5747749188,
				"y": 3.5068286678,
				"z": 2.494979462,
				"element": "H" 
			}
		],
		 "valence_orbital": [ 
			{
				"type": "occ",
				"energy": -0.28405,
				"method": "rhf"
			},
			{
				"type": "occ",
				"energy": -0.28331,
				"method": "rhf"
			},
			{
				"type": "occ",
				"energy": -0.25362,
				"method": "rhf"
			},
			{
				"type": "occ",
				"energy": -0.22711,
				"method": "rhf"
			},
			{
				"type": "occ",
				"energy": -0.21177,
				"method": "rhf"
			},
			{
				"type": "unocc",
				"energy": -0.0459,
				"method": "rhf"
			},
			{
				"type": "unocc",
				"energy": -0.01229,
				"method": "rhf"
			},
			{
				"type": "unocc",
				"energy": 0.00723,
				"method": "rhf"
			},
			{
				"type": "unocc",
				"energy": 0.01102,
				"method": "rhf"
			},
			{
				"type": "unocc",
				"energy": 0.01156,
				"method": "rhf"
			}
		],
		"cosmo_sigma_profile": { 
			"-0.025": 0.0,
			"-0.024": 0.0,
			"-0.023": 0.0,
			"-0.022": 0.0,
			"-0.021": 0.0,
			"-0.02": 0.0,
			"-0.019": 0.0,
			"-0.018": 0.0,
			"-0.017": 0.00163325215399,
			"-0.016": 0.952614411853,
			"-0.015": 1.87034462616,
			"-0.014": 1.6278701145,
			"-0.013": 0.881182267442,
			"-0.012": 1.50400450346,
			"-0.011": 1.61866702319,
			"-0.01": 1.41217184675,
			"-0.009": 1.51554350885,
			"-0.008": 2.51652503176,
			"-0.007": 11.3917368539,
			"-0.006": 10.8643589225,
			"-0.005": 10.5634467779,
			"-0.004": 11.1838578165,
			"-0.003": 11.3382161139,
			"-0.002": 12.6475808947,
			"-0.001": 11.5901602511,
			"0.0": 14.116799603,
			"0.001": 17.8080523685,
			"0.002": 30.7892473496,
			"0.003": 40.9505588864,
			"0.004": 36.081377712,
			"0.005": 22.2182665223,
			"0.006": 2.03426229259,
			"0.007": 0.0,
			"0.008": 0.0,
			"0.009": 0.0,
			"0.01": 0.0,
			"0.011": 0.0,
			"0.012": 0.0,
			"0.013": 0.0,
			"0.014": 0.0,
			"0.015": 0.0,
			"0.016": 0.0,
			"0.017": 0.0,
			"0.018": 0.0,
			"0.019": 0.0,
			"0.02": 0.0,
			"0.021": 0.0,
			"0.022": 0.0,
			"0.023": 0.0,
			"0.024": 0.0,
			"0.025": 0.0
		}
	}
}
