{
	 "smiles": "[O-][N+](=O)C1=CNC=CC1=NCC1CCCO1", 
	 "Tm": 346.15, 
	 "num_atms": 29, 
	 "gaussian": { 
		 "optdone": 1, 
		 "sigma_profile": "yes", 
		 "theory": "DFT", 
		 "functional": "B3LYP", 
		 "basiset": "6-31G**", 
		 "properties": { 
			 "R2extent": 5146.1009, 
			 "electric_dipole_moment_norm": 6.77043858697, 
			 "electric_quadrupole_moment_norm": 31.6404560162, 
			 "total_energy": -778.675044622, 
			 "HOMO_LUMO_gap": 0.14089, 
			 "cosmo_polarized_energy": -23.08, 
			 "cosmo_cavitation_energy": 32.15, 
			 "cosmo_dispersion_energy": -23.28, 
			 "cosmo_repulsion_energy": 1.84, 
			 "cosmo_total_nonelectrostatic_energy": 10.7, 
			 "SMD_solvation_energy": 6.11 
		},
		"coords": [
			{
				"x": -4.8142048625,
				"y": -0.7011420523,
				"z": -1.7514596364,
				"element": "O" 
			},
			{
				"x": -3.5798408277,
				"y": -0.753437599,
				"z": -1.8177685796,
				"element": "N" 
			},
			{
				"x": -2.9498989957,
				"y": -1.664113566,
				"z": -2.3601713837,
				"element": "O" 
			},
			{
				"x": -2.8130779824,
				"y": 0.364528661,
				"z": -1.2954769038,
				"element": "C" 
			},
			{
				"x": -3.4453166974,
				"y": 1.5734217972,
				"z": -1.3733730898,
				"element": "C" 
			},
			{
				"x": -2.770965391,
				"y": 2.7325957568,
				"z": -1.1839442713,
				"element": "N" 
			},
			{
				"x": -1.388320534,
				"y": 2.7249929469,
				"z": -1.0220074555,
				"element": "C" 
			},
			{
				"x": -0.7199339741,
				"y": 1.5601769482,
				"z": -0.9129109451,
				"element": "C" 
			},
			{
				"x": -1.3981373652,
				"y": 0.2569541662,
				"z": -0.8573087407,
				"element": "C" 
			},
			{
				"x": -0.7353539802,
				"y": -0.7337962809,
				"z": -0.3773684023,
				"element": "N" 
			},
			{
				"x": -1.3278974498,
				"y": -2.0193280937,
				"z": -0.0800160509,
				"element": "C" 
			},
			{
				"x": -0.5372821838,
				"y": -2.7335284781,
				"z": 1.0196964149,
				"element": "C" 
			},
			{
				"x": 0.9966170213,
				"y": -2.7705168419,
				"z": 0.8002434026,
				"element": "C" 
			},
			{
				"x": 1.5316224943,
				"y": -1.7752609209,
				"z": 1.8433131937,
				"element": "C" 
			},
			{
				"x": 0.4790037255,
				"y": -1.8936452455,
				"z": 2.9464971638,
				"element": "C" 
			},
			{
				"x": -0.7589822699,
				"y": -2.0453970853,
				"z": 2.2623365284,
				"element": "O" 
			},
			{
				"x": -4.494567115,
				"y": 1.6329794654,
				"z": -1.6346474555,
				"element": "H" 
			},
			{
				"x": -3.2613412809,
				"y": 3.6090358801,
				"z": -1.2720731173,
				"element": "H" 
			},
			{
				"x": -0.913548861,
				"y": 3.6976792559,
				"z": -0.9873816455,
				"element": "H" 
			},
			{
				"x": 0.3539907487,
				"y": 1.5567658207,
				"z": -0.7698582824,
				"element": "H" 
			},
			{
				"x": -1.3374078324,
				"y": -2.6529504991,
				"z": -0.9772137437,
				"element": "H" 
			},
			{
				"x": -2.3731206084,
				"y": -1.9384739511,
				"z": 0.255003597,
				"element": "H" 
			},
			{
				"x": -0.9392902891,
				"y": -3.7550239306,
				"z": 1.1057590185,
				"element": "H" 
			},
			{
				"x": 1.2664692978,
				"y": -2.4871001294,
				"z": -0.2195404627,
				"element": "H" 
			},
			{
				"x": 1.3832916688,
				"y": -3.7774496875,
				"z": 0.9909935909,
				"element": "H" 
			},
			{
				"x": 1.5172180255,
				"y": -0.7642021125,
				"z": 1.4272288649,
				"element": "H" 
			},
			{
				"x": 2.5445133974,
				"y": -2.0063735391,
				"z": 2.1876261476,
				"element": "H" 
			},
			{
				"x": 0.6817525273,
				"y": -2.7673370468,
				"z": 3.5903475869,
				"element": "H" 
			},
			{
				"x": 0.4035095941,
				"y": -1.0096536391,
				"z": 3.5883746567,
				"element": "H" 
			}
		],
		 "valence_orbital": [ 
			{
				"type": "occ",
				"energy": -0.29468,
				"method": "rhf"
			},
			{
				"type": "occ",
				"energy": -0.27791,
				"method": "rhf"
			},
			{
				"type": "occ",
				"energy": -0.23966,
				"method": "rhf"
			},
			{
				"type": "occ",
				"energy": -0.22883,
				"method": "rhf"
			},
			{
				"type": "occ",
				"energy": -0.21742,
				"method": "rhf"
			},
			{
				"type": "unocc",
				"energy": -0.07653,
				"method": "rhf"
			},
			{
				"type": "unocc",
				"energy": -0.02607,
				"method": "rhf"
			},
			{
				"type": "unocc",
				"energy": -0.01,
				"method": "rhf"
			},
			{
				"type": "unocc",
				"energy": 0.03176,
				"method": "rhf"
			},
			{
				"type": "unocc",
				"energy": 0.09524,
				"method": "rhf"
			}
		],
		"cosmo_sigma_profile": { 
			"-0.025": 0.0,
			"-0.024": 0.0,
			"-0.023": 0.0,
			"-0.022": 0.0,
			"-0.021": 0.0,
			"-0.02": 0.0,
			"-0.019": 0.0,
			"-0.018": 1.86669608866,
			"-0.017": 2.5219970876,
			"-0.016": 1.4371803502,
			"-0.015": 1.4233881426,
			"-0.014": 1.75547155436,
			"-0.013": 1.53961859908,
			"-0.012": 1.26069471802,
			"-0.011": 2.6600053179,
			"-0.01": 3.28384262645,
			"-0.009": 4.07110706316,
			"-0.008": 2.34572552752,
			"-0.007": 3.92172423447,
			"-0.006": 5.77733261693,
			"-0.005": 7.41533621531,
			"-0.004": 9.32185053472,
			"-0.003": 22.9147529383,
			"-0.002": 31.5599238309,
			"-0.001": 26.7841544754,
			"0.0": 22.5914816141,
			"0.001": 16.2138422127,
			"0.002": 9.73897658978,
			"0.003": 7.05476220576,
			"0.004": 7.04650892815,
			"0.005": 4.88280538653,
			"0.006": 7.54933521386,
			"0.007": 7.16340498807,
			"0.008": 10.3997942298,
			"0.009": 10.5365325236,
			"0.01": 6.91444805614,
			"0.011": 5.2662559598,
			"0.012": 2.60814369147,
			"0.013": 1.63586040922,
			"0.014": 1.85185082007,
			"0.015": 0.348919289281,
			"0.016": 0.0,
			"0.017": 0.0,
			"0.018": 0.0,
			"0.019": 0.0,
			"0.02": 0.0,
			"0.021": 0.0,
			"0.022": 0.0,
			"0.023": 0.0,
			"0.024": 0.0,
			"0.025": 0.0
		}
	}
}
