{
	 "smiles": "CCC(Br)(CC)C(=O)NC(N)=O", 
	 "Tm": 391.15, 
	 "num_atms": 25, 
	 "gaussian": { 
		 "optdone": 1, 
		 "sigma_profile": "yes", 
		 "theory": "DFT", 
		 "functional": "B3LYP", 
		 "basiset": "6-31G**", 
		 "properties": { 
			 "R2extent": 3437.8453, 
			 "electric_dipole_moment_norm": 3.11439962111, 
			 "electric_quadrupole_moment_norm": 11.145906501, 
			 "total_energy": -3105.99239008, 
			 "HOMO_LUMO_gap": 0.21547, 
			 "cosmo_polarized_energy": -12.27, 
			 "cosmo_cavitation_energy": 29.03, 
			 "cosmo_dispersion_energy": -20.96, 
			 "cosmo_repulsion_energy": 1.69, 
			 "cosmo_total_nonelectrostatic_energy": 9.75, 
			 "SMD_solvation_energy": 5.45 
		},
		"coords": [
			{
				"x": 1.9893435839,
				"y": -0.4676588706,
				"z": -0.2809859276,
				"element": "C" 
			},
			{
				"x": 0.8044009366,
				"y": -1.0751641612,
				"z": -1.0523630006,
				"element": "C" 
			},
			{
				"x": -0.5577558125,
				"y": -0.3630950219,
				"z": -0.8609588345,
				"element": "C" 
			},
			{
				"x": -1.9888427366,
				"y": -1.7147579889,
				"z": -1.4029602417,
				"element": "Br" 
			},
			{
				"x": -0.8051379269,
				"y": 0.8530299867,
				"z": -1.7759729884,
				"element": "C" 
			},
			{
				"x": 0.2532578625,
				"y": 1.9670166562,
				"z": -1.7677130404,
				"element": "C" 
			},
			{
				"x": -0.8192679678,
				"y": -0.0315116943,
				"z": 0.62345716,
				"element": "C" 
			},
			{
				"x": -0.8662204884,
				"y": 1.1378928393,
				"z": 0.9956290388,
				"element": "O" 
			},
			{
				"x": -0.9064724223,
				"y": -1.1012517882,
				"z": 1.4769714892,
				"element": "N" 
			},
			{
				"x": -1.0780464992,
				"y": -1.1147985076,
				"z": 2.895072568,
				"element": "C" 
			},
			{
				"x": -1.0563138818,
				"y": 0.1004867578,
				"z": 3.4894581244,
				"element": "N" 
			},
			{
				"x": -1.20673926,
				"y": -2.1885135543,
				"z": 3.4578993976,
				"element": "O" 
			},
			{
				"x": 2.8920598643,
				"y": -1.043211905,
				"z": -0.5077204573,
				"element": "H" 
			},
			{
				"x": 2.1823357387,
				"y": 0.5731553341,
				"z": -0.542954754,
				"element": "H" 
			},
			{
				"x": 1.8319441177,
				"y": -0.5203437745,
				"z": 0.8002881912,
				"element": "H" 
			},
			{
				"x": 1.0162015517,
				"y": -1.0929354952,
				"z": -2.1270875984,
				"element": "H" 
			},
			{
				"x": 0.7010698541,
				"y": -2.119861082,
				"z": -0.7466617301,
				"element": "H" 
			},
			{
				"x": -0.9014594504,
				"y": 0.4674755665,
				"z": -2.7954278143,
				"element": "H" 
			},
			{
				"x": -1.7754240312,
				"y": 1.2784697894,
				"z": -1.5060440115,
				"element": "H" 
			},
			{
				"x": 1.2072712915,
				"y": 1.632309297,
				"z": -2.1849003333,
				"element": "H" 
			},
			{
				"x": -0.1013862042,
				"y": 2.7890696884,
				"z": -2.3978914177,
				"element": "H" 
			},
			{
				"x": 0.4183704827,
				"y": 2.3591920814,
				"z": -0.7633217245,
				"element": "H" 
			},
			{
				"x": -0.9921959056,
				"y": -2.0284906637,
				"z": 1.0797444863,
				"element": "H" 
			},
			{
				"x": -1.0357771988,
				"y": 0.9395505568,
				"z": 2.9219396816,
				"element": "H" 
			},
			{
				"x": -1.233515498,
				"y": 0.1220459539,
				"z": 4.4803037375,
				"element": "H" 
			}
		],
		 "valence_orbital": [ 
			{
				"type": "occ",
				"energy": -0.29211,
				"method": "rhf"
			},
			{
				"type": "occ",
				"energy": -0.2859,
				"method": "rhf"
			},
			{
				"type": "occ",
				"energy": -0.27958,
				"method": "rhf"
			},
			{
				"type": "occ",
				"energy": -0.27167,
				"method": "rhf"
			},
			{
				"type": "occ",
				"energy": -0.2685,
				"method": "rhf"
			},
			{
				"type": "unocc",
				"energy": -0.05303,
				"method": "rhf"
			},
			{
				"type": "unocc",
				"energy": -0.00108,
				"method": "rhf"
			},
			{
				"type": "unocc",
				"energy": 0.07061,
				"method": "rhf"
			},
			{
				"type": "unocc",
				"energy": 0.07622,
				"method": "rhf"
			},
			{
				"type": "unocc",
				"energy": 0.09578,
				"method": "rhf"
			}
		],
		"cosmo_sigma_profile": { 
			"-0.025": 0.0,
			"-0.024": 0.0,
			"-0.023": 0.0,
			"-0.022": 0.0,
			"-0.021": 0.0,
			"-0.02": 0.0,
			"-0.019": 0.0,
			"-0.018": 0.0,
			"-0.017": 0.0,
			"-0.016": 0.0,
			"-0.015": 0.535954510033,
			"-0.014": 0.818144718557,
			"-0.013": 1.62169745319,
			"-0.012": 1.3080603808,
			"-0.011": 1.62437571918,
			"-0.01": 2.91604030979,
			"-0.009": 3.3734981232,
			"-0.008": 2.48089810879,
			"-0.007": 2.2493209248,
			"-0.006": 2.90653290033,
			"-0.005": 5.60631907024,
			"-0.004": 18.5484618347,
			"-0.003": 23.1259016341,
			"-0.002": 30.7265999921,
			"-0.001": 24.7664918678,
			"0.0": 21.9356531785,
			"0.001": 17.3682245702,
			"0.002": 11.2163587897,
			"0.003": 9.07725158429,
			"0.004": 8.82372395119,
			"0.005": 10.7381423891,
			"0.006": 3.82855626639,
			"0.007": 3.10177795257,
			"0.008": 3.20541436966,
			"0.009": 2.31096146593,
			"0.01": 2.62376370682,
			"0.011": 2.03980347817,
			"0.012": 2.10934842441,
			"0.013": 6.8149724017,
			"0.014": 2.26680072863,
			"0.015": 0.0,
			"0.016": 0.0,
			"0.017": 0.0,
			"0.018": 0.0,
			"0.019": 0.0,
			"0.02": 0.0,
			"0.021": 0.0,
			"0.022": 0.0,
			"0.023": 0.0,
			"0.024": 0.0,
			"0.025": 0.0
		}
	}
}
