{
	 "smiles": "CCCCCF", 
	 "Tm": 153.15, 
	 "num_atms": 17, 
	 "gaussian": { 
		 "optdone": 1, 
		 "sigma_profile": "yes", 
		 "theory": "DFT", 
		 "functional": "B3LYP", 
		 "basiset": "6-31G**", 
		 "properties": { 
			 "R2extent": 1764.7764, 
			 "electric_dipole_moment_norm": 1.61915573988, 
			 "electric_quadrupole_moment_norm": 9.15541424568, 
			 "total_energy": -297.007806668, 
			 "HOMO_LUMO_gap": 0.39929, 
			 "cosmo_polarized_energy": -2.75, 
			 "cosmo_cavitation_energy": 19.22, 
			 "cosmo_dispersion_energy": -14.01, 
			 "cosmo_repulsion_energy": 1.22, 
			 "cosmo_total_nonelectrostatic_energy": 6.42, 
			 "SMD_solvation_energy": 3.66 
		},
		"coords": [
			{
				"x": 0.4713664939,
				"y": -1.5901536488,
				"z": -0.2239808637,
				"element": "C" 
			},
			{
				"x": 0.1950679285,
				"y": -0.1663615411,
				"z": 0.2744040174,
				"element": "C" 
			},
			{
				"x": -0.0239014739,
				"y": -0.0538273231,
				"z": 1.7915401835,
				"element": "C" 
			},
			{
				"x": -1.2930861016,
				"y": -0.745654566,
				"z": 2.306251591,
				"element": "C" 
			},
			{
				"x": -1.4716926979,
				"y": -0.6092536246,
				"z": 3.8090491708,
				"element": "C" 
			},
			{
				"x": -0.3927837513,
				"y": -1.1970280452,
				"z": 4.471146677,
				"element": "F" 
			},
			{
				"x": -0.3768834808,
				"y": -2.2595250793,
				"z": -0.0471393405,
				"element": "H" 
			},
			{
				"x": 1.3433200624,
				"y": -2.0213850612,
				"z": 0.2811971184,
				"element": "H" 
			},
			{
				"x": 0.6734793971,
				"y": -1.5974561139,
				"z": -1.3001087343,
				"element": "H" 
			},
			{
				"x": 1.0401582041,
				"y": 0.4763924837,
				"z": -0.0028439107,
				"element": "H" 
			},
			{
				"x": -0.6798227027,
				"y": 0.2423753855,
				"z": -0.2503070125,
				"element": "H" 
			},
			{
				"x": -0.068169412,
				"y": 1.0090363432,
				"z": 2.0671388251,
				"element": "H" 
			},
			{
				"x": 0.8398588302,
				"y": -0.471960369,
				"z": 2.3225476462,
				"element": "H" 
			},
			{
				"x": -2.18135874,
				"y": -0.3210810243,
				"z": 1.8173120671,
				"element": "H" 
			},
			{
				"x": -1.2774907878,
				"y": -1.8132335982,
				"z": 2.0574814487,
				"element": "H" 
			},
			{
				"x": -1.5148246284,
				"y": 0.4465060489,
				"z": 4.109071512,
				"element": "H" 
			},
			{
				"x": -2.3888371398,
				"y": -1.1061902665,
				"z": 4.1493396046,
				"element": "H" 
			}
		],
		 "valence_orbital": [ 
			{
				"type": "occ",
				"energy": -0.34496,
				"method": "rhf"
			},
			{
				"type": "occ",
				"energy": -0.33191,
				"method": "rhf"
			},
			{
				"type": "occ",
				"energy": -0.32446,
				"method": "rhf"
			},
			{
				"type": "occ",
				"energy": -0.31496,
				"method": "rhf"
			},
			{
				"type": "occ",
				"energy": -0.30831,
				"method": "rhf"
			},
			{
				"type": "unocc",
				"energy": 0.09098,
				"method": "rhf"
			},
			{
				"type": "unocc",
				"energy": 0.10736,
				"method": "rhf"
			},
			{
				"type": "unocc",
				"energy": 0.11896,
				"method": "rhf"
			},
			{
				"type": "unocc",
				"energy": 0.13398,
				"method": "rhf"
			},
			{
				"type": "unocc",
				"energy": 0.14022,
				"method": "rhf"
			}
		],
		"cosmo_sigma_profile": { 
			"-0.025": 0.0,
			"-0.024": 0.0,
			"-0.023": 0.0,
			"-0.022": 0.0,
			"-0.021": 0.0,
			"-0.02": 0.0,
			"-0.019": 0.0,
			"-0.018": 0.0,
			"-0.017": 0.0,
			"-0.016": 0.0,
			"-0.015": 0.0,
			"-0.014": 0.0,
			"-0.013": 0.0,
			"-0.012": 0.0,
			"-0.011": 0.0,
			"-0.01": 0.0,
			"-0.009": 0.0,
			"-0.008": 0.0,
			"-0.007": 0.0,
			"-0.006": 0.0577362953418,
			"-0.005": 3.37834750625,
			"-0.004": 8.92530054112,
			"-0.003": 16.3400209538,
			"-0.002": 22.3000856733,
			"-0.001": 21.7731780939,
			"0.0": 24.4579711484,
			"0.001": 20.1274784905,
			"0.002": 8.77002227902,
			"0.003": 2.10954530997,
			"0.004": 2.84377593874,
			"0.005": 2.6664994042,
			"0.006": 3.99638872157,
			"0.007": 9.04925147367,
			"0.008": 1.51662832212,
			"0.009": 0.0,
			"0.01": 0.0,
			"0.011": 0.0,
			"0.012": 0.0,
			"0.013": 0.0,
			"0.014": 0.0,
			"0.015": 0.0,
			"0.016": 0.0,
			"0.017": 0.0,
			"0.018": 0.0,
			"0.019": 0.0,
			"0.02": 0.0,
			"0.021": 0.0,
			"0.022": 0.0,
			"0.023": 0.0,
			"0.024": 0.0,
			"0.025": 0.0
		}
	}
}
