{
	 "smiles": "OCC1=CC=CC2=C1SC=C2", 
	 "Tm": 350.35, 
	 "num_atms": 19, 
	 "gaussian": { 
		 "optdone": 1, 
		 "sigma_profile": "yes", 
		 "theory": "DFT", 
		 "functional": "B3LYP", 
		 "basiset": "6-31G**", 
		 "properties": { 
			 "R2extent": 2238.701, 
			 "electric_dipole_moment_norm": 1.82567560098, 
			 "electric_quadrupole_moment_norm": 6.48210372256, 
			 "total_energy": -821.180721011, 
			 "HOMO_LUMO_gap": 0.19105, 
			 "cosmo_polarized_energy": -8.29, 
			 "cosmo_cavitation_energy": 23.86, 
			 "cosmo_dispersion_energy": -18.47, 
			 "cosmo_repulsion_energy": 1.42, 
			 "cosmo_total_nonelectrostatic_energy": 6.81, 
			 "SMD_solvation_energy": 3.85 
		},
		"coords": [
			{
				"x": 0.0521799365,
				"y": 1.9279744563,
				"z": 4.0743119237,
				"element": "O" 
			},
			{
				"x": -0.6870973809,
				"y": 1.5203811557,
				"z": 2.9358374832,
				"element": "C" 
			},
			{
				"x": 0.1116306936,
				"y": 0.6925193867,
				"z": 1.9471536009,
				"element": "C" 
			},
			{
				"x": 1.2916868933,
				"y": 0.0540231298,
				"z": 2.3238681602,
				"element": "C" 
			},
			{
				"x": 2.0274570628,
				"y": -0.7249879916,
				"z": 1.4135070654,
				"element": "C" 
			},
			{
				"x": 1.5973875329,
				"y": -0.8867543608,
				"z": 0.1048062709,
				"element": "C" 
			},
			{
				"x": 0.4070485787,
				"y": -0.2613542776,
				"z": -0.3108949701,
				"element": "C" 
			},
			{
				"x": -0.3185245048,
				"y": 0.5210612821,
				"z": 0.6215548707,
				"element": "C" 
			},
			{
				"x": -1.7638049351,
				"y": 1.2016386522,
				"z": -0.1195966016,
				"element": "S" 
			},
			{
				"x": -1.3717690682,
				"y": 0.4434004685,
				"z": -1.6487052235,
				"element": "C" 
			},
			{
				"x": -0.2257697483,
				"y": -0.2822181913,
				"z": -1.6056161432,
				"element": "C" 
			},
			{
				"x": 0.7778507818,
				"y": 2.4864397622,
				"z": 3.7645503916,
				"element": "H" 
			},
			{
				"x": -1.1311389308,
				"y": 2.3854209296,
				"z": 2.4156923446,
				"element": "H" 
			},
			{
				"x": -1.5242228914,
				"y": 0.9287189631,
				"z": 3.3262126065,
				"element": "H" 
			},
			{
				"x": 1.6339076382,
				"y": 0.169369835,
				"z": 3.3471716154,
				"element": "H" 
			},
			{
				"x": 2.9433667199,
				"y": -1.205791491,
				"z": 1.7445795222,
				"element": "H" 
			},
			{
				"x": 2.1681704412,
				"y": -1.4871293426,
				"z": -0.597985228,
				"element": "H" 
			},
			{
				"x": -2.0338534398,
				"y": 0.588576004,
				"z": -2.4916831242,
				"element": "H" 
			},
			{
				"x": 0.1728946203,
				"y": -0.8224883702,
				"z": -2.4570645649,
				"element": "H" 
			}
		],
		 "valence_orbital": [ 
			{
				"type": "occ",
				"energy": -0.3265,
				"method": "rhf"
			},
			{
				"type": "occ",
				"energy": -0.28516,
				"method": "rhf"
			},
			{
				"type": "occ",
				"energy": -0.27126,
				"method": "rhf"
			},
			{
				"type": "occ",
				"energy": -0.23584,
				"method": "rhf"
			},
			{
				"type": "occ",
				"energy": -0.2173,
				"method": "rhf"
			},
			{
				"type": "unocc",
				"energy": -0.02625,
				"method": "rhf"
			},
			{
				"type": "unocc",
				"energy": -0.00309,
				"method": "rhf"
			},
			{
				"type": "unocc",
				"energy": 0.0236,
				"method": "rhf"
			},
			{
				"type": "unocc",
				"energy": 0.0485,
				"method": "rhf"
			},
			{
				"type": "unocc",
				"energy": 0.08074,
				"method": "rhf"
			}
		],
		"cosmo_sigma_profile": { 
			"-0.025": 0.0,
			"-0.024": 0.0,
			"-0.023": 0.0,
			"-0.022": 0.0,
			"-0.021": 0.0,
			"-0.02": 0.0,
			"-0.019": 0.0,
			"-0.018": 0.0,
			"-0.017": 0.0,
			"-0.016": 0.242024253656,
			"-0.015": 1.04961178272,
			"-0.014": 0.996202139228,
			"-0.013": 0.575540480044,
			"-0.012": 0.806985255334,
			"-0.011": 1.32603145755,
			"-0.01": 0.47510627606,
			"-0.009": 1.55690659861,
			"-0.008": 3.38293637294,
			"-0.007": 3.95153701043,
			"-0.006": 8.61545270308,
			"-0.005": 14.3591027555,
			"-0.004": 14.9625621244,
			"-0.003": 14.8748427339,
			"-0.002": 11.1169312185,
			"-0.001": 11.226475206,
			"0.0": 10.1207636286,
			"0.001": 9.42063722514,
			"0.002": 12.7286966008,
			"0.003": 18.4875028601,
			"0.004": 19.6369785449,
			"0.005": 17.0753856076,
			"0.006": 5.54106382638,
			"0.007": 0.812435491456,
			"0.008": 1.1901956752,
			"0.009": 1.23369369407,
			"0.01": 0.924857575859,
			"0.011": 1.30906907186,
			"0.012": 1.55311551276,
			"0.013": 1.80023902808,
			"0.014": 1.30785472905,
			"0.015": 0.0,
			"0.016": 0.0,
			"0.017": 0.0,
			"0.018": 0.0,
			"0.019": 0.0,
			"0.02": 0.0,
			"0.021": 0.0,
			"0.022": 0.0,
			"0.023": 0.0,
			"0.024": 0.0,
			"0.025": 0.0
		}
	}
}
