{
	 "smiles": "CC(C)OC(=O)C1=C(C)NC(=S)NC1C1=CC=C(C=C1)[N+]([O-])=O", 
	 "Tm": 348.15, 
	 "num_atms": 40, 
	 "gaussian": { 
		 "optdone": 1, 
		 "sigma_profile": "yes", 
		 "theory": "DFT", 
		 "functional": "B3LYP", 
		 "basiset": "6-31G**", 
		 "properties": { 
			 "R2extent": 10218.8388, 
			 "electric_dipole_moment_norm": 7.28398606945, 
			 "electric_quadrupole_moment_norm": 24.5360350758, 
			 "total_energy": -1445.12184708, 
			 "HOMO_LUMO_gap": 0.13631, 
			 "cosmo_polarized_energy": -21.74, 
			 "cosmo_cavitation_energy": 45.58, 
			 "cosmo_dispersion_energy": -31.55, 
			 "cosmo_repulsion_energy": 2.38, 
			 "cosmo_total_nonelectrostatic_energy": 16.41, 
			 "SMD_solvation_energy": 9.05 
		},
		"coords": [
			{
				"x": -3.3805011725,
				"y": -2.848522107,
				"z": 2.8390369918,
				"element": "C" 
			},
			{
				"x": -3.3361002228,
				"y": -1.3770183766,
				"z": 2.4415471238,
				"element": "C" 
			},
			{
				"x": -3.6324606088,
				"y": -0.4252973085,
				"z": 3.5917193296,
				"element": "C" 
			},
			{
				"x": -1.9913567848,
				"y": -1.0394867728,
				"z": 1.9776182849,
				"element": "O" 
			},
			{
				"x": -1.6992838149,
				"y": -1.3165607085,
				"z": 0.6870881624,
				"element": "C" 
			},
			{
				"x": -2.5031896811,
				"y": -1.8330424838,
				"z": -0.0794362431,
				"element": "O" 
			},
			{
				"x": -0.3297414005,
				"y": -0.9686085789,
				"z": 0.280981455,
				"element": "C" 
			},
			{
				"x": 0.6478885963,
				"y": -0.4657715219,
				"z": 1.085796395,
				"element": "C" 
			},
			{
				"x": 0.5231881245,
				"y": -0.0153457878,
				"z": 2.5181746808,
				"element": "C" 
			},
			{
				"x": 1.9352247461,
				"y": -0.3659080721,
				"z": 0.5754826987,
				"element": "N" 
			},
			{
				"x": 2.3929764497,
				"y": -1.0244676773,
				"z": -0.5508065594,
				"element": "C" 
			},
			{
				"x": 4.0262960486,
				"y": -1.107968855,
				"z": -0.90283598,
				"element": "S" 
			},
			{
				"x": 1.4181990905,
				"y": -1.5918726084,
				"z": -1.292409362,
				"element": "N" 
			},
			{
				"x": -0.0030007571,
				"y": -1.2538642822,
				"z": -1.1828335154,
				"element": "C" 
			},
			{
				"x": -0.4060982774,
				"y": -0.0975956706,
				"z": -2.1109814407,
				"element": "C" 
			},
			{
				"x": -1.744862346,
				"y": 0.0137665333,
				"z": -2.5223267938,
				"element": "C" 
			},
			{
				"x": -2.1514765894,
				"y": 1.0587511275,
				"z": -3.3453639874,
				"element": "C" 
			},
			{
				"x": -1.204706914,
				"y": 1.9939426925,
				"z": -3.7601133583,
				"element": "C" 
			},
			{
				"x": 0.1309775017,
				"y": 1.9048683029,
				"z": -3.3779182427,
				"element": "C" 
			},
			{
				"x": 0.5249404016,
				"y": 0.8531514956,
				"z": -2.5534468921,
				"element": "C" 
			},
			{
				"x": -1.6266062976,
				"y": 3.1018285806,
				"z": -4.6307329858,
				"element": "N" 
			},
			{
				"x": -0.7690668887,
				"y": 3.9127026294,
				"z": -4.9801731634,
				"element": "O" 
			},
			{
				"x": -2.8126776015,
				"y": 3.15260033,
				"z": -4.9560315314,
				"element": "O" 
			},
			{
				"x": -4.3789781793,
				"y": -3.1070574327,
				"z": 3.2060652573,
				"element": "H" 
			},
			{
				"x": -3.1575817884,
				"y": -3.4850197295,
				"z": 1.9799614026,
				"element": "H" 
			},
			{
				"x": -2.6578624357,
				"y": -3.0559060669,
				"z": 3.6350975992,
				"element": "H" 
			},
			{
				"x": -4.0199749681,
				"y": -1.2010324286,
				"z": 1.6070691176,
				"element": "H" 
			},
			{
				"x": -4.6428951961,
				"y": -0.6039176562,
				"z": 3.9717380026,
				"element": "H" 
			},
			{
				"x": -3.5690346306,
				"y": 0.6162015793,
				"z": 3.2640271979,
				"element": "H" 
			},
			{
				"x": -2.9269112084,
				"y": -0.5747192144,
				"z": 4.4154488316,
				"element": "H" 
			},
			{
				"x": 1.4126617881,
				"y": 0.5452239194,
				"z": 2.8201354297,
				"element": "H" 
			},
			{
				"x": -0.3566127861,
				"y": 0.6105329628,
				"z": 2.6591131578,
				"element": "H" 
			},
			{
				"x": 0.4165537894,
				"y": -0.8755985177,
				"z": 3.185523466,
				"element": "H" 
			},
			{
				"x": 2.6693556395,
				"y": 0.0151171206,
				"z": 1.1555299197,
				"element": "H" 
			},
			{
				"x": 1.740073975,
				"y": -2.058321685,
				"z": -2.1294288822,
				"element": "H" 
			},
			{
				"x": -0.5762956722,
				"y": -2.1352736565,
				"z": -1.4813056664,
				"element": "H" 
			},
			{
				"x": -2.4662235096,
				"y": -0.7203612876,
				"z": -2.1806075549,
				"element": "H" 
			},
			{
				"x": -3.1786153348,
				"y": 1.158494029,
				"z": -3.6733460047,
				"element": "H" 
			},
			{
				"x": 0.8372756072,
				"y": 2.6466864165,
				"z": -3.7290788553,
				"element": "H" 
			},
			{
				"x": 1.5696033078,
				"y": 0.7738707671,
				"z": -2.2729774852,
				"element": "H" 
			}
		],
		 "valence_orbital": [ 
			{
				"type": "occ",
				"energy": -0.27711,
				"method": "rhf"
			},
			{
				"type": "occ",
				"energy": -0.27496,
				"method": "rhf"
			},
			{
				"type": "occ",
				"energy": -0.25566,
				"method": "rhf"
			},
			{
				"type": "occ",
				"energy": -0.23145,
				"method": "rhf"
			},
			{
				"type": "occ",
				"energy": -0.22498,
				"method": "rhf"
			},
			{
				"type": "unocc",
				"energy": -0.08867,
				"method": "rhf"
			},
			{
				"type": "unocc",
				"energy": -0.06598,
				"method": "rhf"
			},
			{
				"type": "unocc",
				"energy": -0.02731,
				"method": "rhf"
			},
			{
				"type": "unocc",
				"energy": -0.0044,
				"method": "rhf"
			},
			{
				"type": "unocc",
				"energy": 0.0022,
				"method": "rhf"
			}
		],
		"cosmo_sigma_profile": { 
			"-0.025": 0.0,
			"-0.024": 0.0,
			"-0.023": 0.0,
			"-0.022": 0.0,
			"-0.021": 0.0,
			"-0.02": 0.0,
			"-0.019": 0.0,
			"-0.018": 0.0,
			"-0.017": 0.0,
			"-0.016": 0.717958259606,
			"-0.015": 2.0440824643,
			"-0.014": 2.18274321144,
			"-0.013": 2.12545924291,
			"-0.012": 2.25028204343,
			"-0.011": 2.02585205938,
			"-0.01": 2.6756729252,
			"-0.009": 2.06904978157,
			"-0.008": 3.21145376945,
			"-0.007": 6.15527270546,
			"-0.006": 11.0411773385,
			"-0.005": 15.4734879181,
			"-0.004": 28.3274318061,
			"-0.003": 33.9508773696,
			"-0.002": 34.8681550366,
			"-0.001": 37.8677841249,
			"0.0": 37.3235653883,
			"0.001": 28.8174621985,
			"0.002": 20.4325465699,
			"0.003": 9.81968934138,
			"0.004": 7.09766224145,
			"0.005": 7.83613515356,
			"0.006": 8.070434316,
			"0.007": 12.9941175731,
			"0.008": 13.5508745008,
			"0.009": 12.2597033276,
			"0.01": 10.8339620814,
			"0.011": 5.89763767924,
			"0.012": 2.36656516498,
			"0.013": 0.235649936327,
			"0.014": 0.0,
			"0.015": 0.0,
			"0.016": 0.0,
			"0.017": 0.0,
			"0.018": 0.0,
			"0.019": 0.0,
			"0.02": 0.0,
			"0.021": 0.0,
			"0.022": 0.0,
			"0.023": 0.0,
			"0.024": 0.0,
			"0.025": 0.0
		}
	}
}
