{
	 "smiles": "FC1=CC=C(CCN2CCC(=O)CC2)C=C1", 
	 "Tm": 336.15, 
	 "num_atms": 32, 
	 "gaussian": { 
		 "optdone": 1, 
		 "sigma_profile": "yes", 
		 "theory": "DFT", 
		 "functional": "B3LYP", 
		 "basiset": "6-31G**", 
		 "properties": { 
			 "R2extent": 6642.5186, 
			 "electric_dipole_moment_norm": 1.67788563377, 
			 "electric_quadrupole_moment_norm": 24.8524465514, 
			 "total_energy": -734.832630804, 
			 "HOMO_LUMO_gap": 0.21098, 
			 "cosmo_polarized_energy": -10.58, 
			 "cosmo_cavitation_energy": 34.8, 
			 "cosmo_dispersion_energy": -24.75, 
			 "cosmo_repulsion_energy": 1.92, 
			 "cosmo_total_nonelectrostatic_energy": 11.97, 
			 "SMD_solvation_energy": 4.06 
		},
		"coords": [
			{
				"x": -5.67026578,
				"y": 3.065390777,
				"z": 1.3734455459,
				"element": "F" 
			},
			{
				"x": -4.6099720124,
				"y": 2.3757126596,
				"z": 0.900435356,
				"element": "C" 
			},
			{
				"x": -4.6493922343,
				"y": 0.986438434,
				"z": 0.9081609399,
				"element": "C" 
			},
			{
				"x": -3.5503618008,
				"y": 0.2840827484,
				"z": 0.4131854342,
				"element": "C" 
			},
			{
				"x": -2.4216566758,
				"y": 0.9501614138,
				"z": -0.0851822153,
				"element": "C" 
			},
			{
				"x": -1.2178282536,
				"y": 0.178547849,
				"z": -0.582151574,
				"element": "C" 
			},
			{
				"x": -0.2205318519,
				"y": -0.1289312207,
				"z": 0.5524605684,
				"element": "C" 
			},
			{
				"x": 1.005224537,
				"y": -0.7786458688,
				"z": 0.0821867475,
				"element": "N" 
			},
			{
				"x": 0.8024449684,
				"y": -2.1851972301,
				"z": -0.271479582,
				"element": "C" 
			},
			{
				"x": 2.050397439,
				"y": -2.7657634217,
				"z": -0.9584379641,
				"element": "C" 
			},
			{
				"x": 3.3034470252,
				"y": -2.5415972291,
				"z": -0.1262286048,
				"element": "C" 
			},
			{
				"x": 4.1371679757,
				"y": -3.4066842492,
				"z": 0.0600809601,
				"element": "O" 
			},
			{
				"x": 3.4257590488,
				"y": -1.1375115514,
				"z": 0.4452030644,
				"element": "C" 
			},
			{
				"x": 2.0969673658,
				"y": -0.6527182587,
				"z": 1.05006666,
				"element": "C" 
			},
			{
				"x": -2.4230080592,
				"y": 2.3522478452,
				"z": -0.0752737285,
				"element": "C" 
			},
			{
				"x": -3.5115012214,
				"y": 3.0746635243,
				"z": 0.4139765217,
				"element": "C" 
			},
			{
				"x": -5.5273320333,
				"y": 0.4768929238,
				"z": 1.2905418272,
				"element": "H" 
			},
			{
				"x": -3.5750674939,
				"y": -0.8028230892,
				"z": 0.4098387848,
				"element": "H" 
			},
			{
				"x": -1.5539769523,
				"y": -0.7525062161,
				"z": -1.051752459,
				"element": "H" 
			},
			{
				"x": -0.6890752113,
				"y": 0.7491995173,
				"z": -1.3531441812,
				"element": "H" 
			},
			{
				"x": -0.7278950516,
				"y": -0.7196760591,
				"z": 1.3396002338,
				"element": "H" 
			},
			{
				"x": 0.06417219,
				"y": 0.8212161831,
				"z": 1.0178510068,
				"element": "H" 
			},
			{
				"x": -0.0499261007,
				"y": -2.2689732314,
				"z": -0.9509168357,
				"element": "H" 
			},
			{
				"x": 0.5598045224,
				"y": -2.7924127125,
				"z": 0.6239783981,
				"element": "H" 
			},
			{
				"x": 2.1915814356,
				"y": -2.2489974263,
				"z": -1.917259893,
				"element": "H" 
			},
			{
				"x": 1.9396886624,
				"y": -3.8350347959,
				"z": -1.1563093775,
				"element": "H" 
			},
			{
				"x": 4.233241041,
				"y": -1.1205851324,
				"z": 1.1817293972,
				"element": "H" 
			},
			{
				"x": 3.6959169621,
				"y": -0.4662906279,
				"z": -0.3811982499,
				"element": "H" 
			},
			{
				"x": 1.8892564805,
				"y": -1.2226753739,
				"z": 1.9777286512,
				"element": "H" 
			},
			{
				"x": 2.1909476697,
				"y": 0.3994792845,
				"z": 1.3379091595,
				"element": "H" 
			},
			{
				"x": -1.5613443285,
				"y": 2.8902415656,
				"z": -0.4626440387,
				"element": "H" 
			},
			{
				"x": -3.5210822625,
				"y": 4.1593489689,
				"z": 0.4183994473,
				"element": "H" 
			}
		],
		 "valence_orbital": [ 
			{
				"type": "occ",
				"energy": -0.33565,
				"method": "rhf"
			},
			{
				"type": "occ",
				"energy": -0.26222,
				"method": "rhf"
			},
			{
				"type": "occ",
				"energy": -0.24091,
				"method": "rhf"
			},
			{
				"type": "occ",
				"energy": -0.23914,
				"method": "rhf"
			},
			{
				"type": "occ",
				"energy": -0.22741,
				"method": "rhf"
			},
			{
				"type": "unocc",
				"energy": -0.01643,
				"method": "rhf"
			},
			{
				"type": "unocc",
				"energy": -0.01367,
				"method": "rhf"
			},
			{
				"type": "unocc",
				"energy": -0.0011,
				"method": "rhf"
			},
			{
				"type": "unocc",
				"energy": 0.07858,
				"method": "rhf"
			},
			{
				"type": "unocc",
				"energy": 0.08909,
				"method": "rhf"
			}
		],
		"cosmo_sigma_profile": { 
			"-0.025": 0.0,
			"-0.024": 0.0,
			"-0.023": 0.0,
			"-0.022": 0.0,
			"-0.021": 0.0,
			"-0.02": 0.0,
			"-0.019": 0.0,
			"-0.018": 0.0,
			"-0.017": 0.0,
			"-0.016": 0.0,
			"-0.015": 0.0,
			"-0.014": 0.0,
			"-0.013": 0.0,
			"-0.012": 0.0,
			"-0.011": 0.0,
			"-0.01": 0.0,
			"-0.009": 0.0,
			"-0.008": 0.0633950055426,
			"-0.007": 2.68817087364,
			"-0.006": 8.40827876528,
			"-0.005": 20.5658661183,
			"-0.004": 30.2678245944,
			"-0.003": 32.0382362088,
			"-0.002": 34.8671901552,
			"-0.001": 25.0987686659,
			"0.0": 17.3287166302,
			"0.001": 15.0145786932,
			"0.002": 14.06649536,
			"0.003": 14.7319088687,
			"0.004": 18.4989730705,
			"0.005": 15.5316208496,
			"0.006": 3.16212567097,
			"0.007": 1.70272285275,
			"0.008": 1.41174724128,
			"0.009": 3.21974642772,
			"0.01": 2.41036313156,
			"0.011": 3.00488951701,
			"0.012": 5.39318510169,
			"0.013": 3.12348197722,
			"0.014": 0.772503295198,
			"0.015": 0.0395005492676,
			"0.016": 0.0,
			"0.017": 0.0,
			"0.018": 0.0,
			"0.019": 0.0,
			"0.02": 0.0,
			"0.021": 0.0,
			"0.022": 0.0,
			"0.023": 0.0,
			"0.024": 0.0,
			"0.025": 0.0
		}
	}
}
