{
	 "smiles": "CC1=CN2C(C=O)=CN=C2C=C1", 
	 "Tm": 379.15, 
	 "num_atms": 20, 
	 "gaussian": { 
		 "optdone": 1, 
		 "sigma_profile": "yes", 
		 "theory": "DFT", 
		 "functional": "B3LYP", 
		 "basiset": "6-31G**", 
		 "properties": { 
			 "R2extent": 2614.963, 
			 "electric_dipole_moment_norm": 5.81682023962, 
			 "electric_quadrupole_moment_norm": 5.16039234264, 
			 "total_energy": -532.495438037, 
			 "HOMO_LUMO_gap": 0.16612, 
			 "cosmo_polarized_energy": -14.08, 
			 "cosmo_cavitation_energy": 24.57, 
			 "cosmo_dispersion_energy": -18.01, 
			 "cosmo_repulsion_energy": 1.4, 
			 "cosmo_total_nonelectrostatic_energy": 7.97, 
			 "SMD_solvation_energy": 3.86 
		},
		"coords": [
			{
				"x": -2.4151027712,
				"y": -1.7934979479,
				"z": 2.3731336102,
				"element": "C" 
			},
			{
				"x": -1.960152824,
				"y": -0.4435396993,
				"z": 1.8780968539,
				"element": "C" 
			},
			{
				"x": -1.1611696848,
				"y": -0.3365726031,
				"z": 0.7681259213,
				"element": "C" 
			},
			{
				"x": -0.7515035645,
				"y": 0.8972400351,
				"z": 0.324293212,
				"element": "N" 
			},
			{
				"x": 0.0473352116,
				"y": 1.2816582558,
				"z": -0.7561102003,
				"element": "C" 
			},
			{
				"x": 0.6613533226,
				"y": 0.3876723859,
				"z": -1.7131777466,
				"element": "C" 
			},
			{
				"x": 1.3549470884,
				"y": 0.7646481641,
				"z": -2.6466403329,
				"element": "O" 
			},
			{
				"x": 0.094904396,
				"y": 2.6767762289,
				"z": -0.6745265927,
				"element": "C" 
			},
			{
				"x": -0.6088426198,
				"y": 3.1599609607,
				"z": 0.3647257581,
				"element": "N" 
			},
			{
				"x": -1.1244294224,
				"y": 2.0789423677,
				"z": 0.9733972596,
				"element": "C" 
			},
			{
				"x": -1.9454769067,
				"y": 1.9855545052,
				"z": 2.1157830115,
				"element": "C" 
			},
			{
				"x": -2.3529659783,
				"y": 0.7496213268,
				"z": 2.5562517689,
				"element": "C" 
			},
			{
				"x": -3.5085980873,
				"y": -1.863697314,
				"z": 2.3776268852,
				"element": "H" 
			},
			{
				"x": -2.0302939225,
				"y": -2.6028849996,
				"z": 1.747213693,
				"element": "H" 
			},
			{
				"x": -2.0749674147,
				"y": -1.9721889449,
				"z": 3.3993207257,
				"element": "H" 
			},
			{
				"x": -0.8227305654,
				"y": -1.1950928166,
				"z": 0.2019153169,
				"element": "H" 
			},
			{
				"x": 0.4679731479,
				"y": -0.6973974393,
				"z": -1.5572322462,
				"element": "H" 
			},
			{
				"x": 0.6307748046,
				"y": 3.3219336741,
				"z": -1.3580938097,
				"element": "H" 
			},
			{
				"x": -2.2308739204,
				"y": 2.9045271632,
				"z": 2.6140566966,
				"element": "H" 
			},
			{
				"x": -2.9854802889,
				"y": 0.6693366971,
				"z": 3.4354402156,
				"element": "H" 
			}
		],
		 "valence_orbital": [ 
			{
				"type": "occ",
				"energy": -0.32981,
				"method": "rhf"
			},
			{
				"type": "occ",
				"energy": -0.28434,
				"method": "rhf"
			},
			{
				"type": "occ",
				"energy": -0.25563,
				"method": "rhf"
			},
			{
				"type": "occ",
				"energy": -0.25059,
				"method": "rhf"
			},
			{
				"type": "occ",
				"energy": -0.22605,
				"method": "rhf"
			},
			{
				"type": "unocc",
				"energy": -0.05993,
				"method": "rhf"
			},
			{
				"type": "unocc",
				"energy": -0.04069,
				"method": "rhf"
			},
			{
				"type": "unocc",
				"energy": 0.00801,
				"method": "rhf"
			},
			{
				"type": "unocc",
				"energy": 0.07469,
				"method": "rhf"
			},
			{
				"type": "unocc",
				"energy": 0.10154,
				"method": "rhf"
			}
		],
		"cosmo_sigma_profile": { 
			"-0.025": 0.0,
			"-0.024": 0.0,
			"-0.023": 0.0,
			"-0.022": 0.0,
			"-0.021": 0.0,
			"-0.02": 0.0,
			"-0.019": 0.0,
			"-0.018": 0.0,
			"-0.017": 0.0,
			"-0.016": 0.0,
			"-0.015": 0.0,
			"-0.014": 0.0,
			"-0.013": 0.0,
			"-0.012": 0.0,
			"-0.011": 0.422295407123,
			"-0.01": 2.45952358396,
			"-0.009": 3.08097571987,
			"-0.008": 5.43017344754,
			"-0.007": 8.60851504229,
			"-0.006": 9.40344552588,
			"-0.005": 12.5129461978,
			"-0.004": 15.0505710309,
			"-0.003": 13.5450327116,
			"-0.002": 16.8483466038,
			"-0.001": 19.9645481851,
			"0.0": 16.3006054959,
			"0.001": 16.5142381484,
			"0.002": 12.7105601163,
			"0.003": 4.96637305076,
			"0.004": 3.37154006144,
			"0.005": 4.1320847778,
			"0.006": 2.95489861148,
			"0.007": 3.11999720375,
			"0.008": 2.15727760572,
			"0.009": 3.05466921324,
			"0.01": 2.92345633193,
			"0.011": 3.9659798534,
			"0.012": 5.9431887699,
			"0.013": 3.82845065718,
			"0.014": 1.88656467064,
			"0.015": 0.80104918783,
			"0.016": 0.987280051826,
			"0.017": 0.48658318164,
			"0.018": 0.0,
			"0.019": 0.0,
			"0.02": 0.0,
			"0.021": 0.0,
			"0.022": 0.0,
			"0.023": 0.0,
			"0.024": 0.0,
			"0.025": 0.0
		}
	}
}
