{
	 "smiles": "COC1CCC(CC1)C1C(=O)NC(=O)NC1=O", 
	 "Tm": 488.15, 
	 "num_atms": 33, 
	 "gaussian": { 
		 "optdone": 1, 
		 "sigma_profile": "yes", 
		 "theory": "DFT", 
		 "functional": "B3LYP", 
		 "basiset": "6-31G**", 
		 "properties": { 
			 "R2extent": 4953.4468, 
			 "electric_dipole_moment_norm": 2.29017735994, 
			 "electric_quadrupole_moment_norm": 7.50183526012, 
			 "total_energy": -839.262503279, 
			 "HOMO_LUMO_gap": 0.19663, 
			 "cosmo_polarized_energy": -18.76, 
			 "cosmo_cavitation_energy": 34.32, 
			 "cosmo_dispersion_energy": -24.59, 
			 "cosmo_repulsion_energy": 1.9, 
			 "cosmo_total_nonelectrostatic_energy": 11.63, 
			 "SMD_solvation_energy": 7.59 
		},
		"coords": [
			{
				"x": 1.1785407157,
				"y": 4.0127742792,
				"z": -2.5787174973,
				"element": "C" 
			},
			{
				"x": 1.1369148255,
				"y": 3.2685460994,
				"z": -1.3788647327,
				"element": "O" 
			},
			{
				"x": 0.0837269082,
				"y": 2.3150372745,
				"z": -1.301460691,
				"element": "C" 
			},
			{
				"x": -0.0583434907,
				"y": 1.9316746435,
				"z": 0.1726551825,
				"element": "C" 
			},
			{
				"x": -1.1192876359,
				"y": 0.8418805359,
				"z": 0.3881285721,
				"element": "C" 
			},
			{
				"x": -0.870050131,
				"y": -0.4223510497,
				"z": -0.4660714134,
				"element": "C" 
			},
			{
				"x": -0.7309189732,
				"y": -0.0040854154,
				"z": -1.9470058617,
				"element": "C" 
			},
			{
				"x": 0.3421157228,
				"y": 1.0738254993,
				"z": -2.169818292,
				"element": "C" 
			},
			{
				"x": 0.3679997787,
				"y": -1.2633100343,
				"z": 0.057000077,
				"element": "C" 
			},
			{
				"x": 0.6425837447,
				"y": -2.4312701277,
				"z": -0.8754571991,
				"element": "C" 
			},
			{
				"x": 1.295805164,
				"y": -2.3417896714,
				"z": -1.8971434674,
				"element": "O" 
			},
			{
				"x": 0.0264211997,
				"y": -3.6312891463,
				"z": -0.5259668087,
				"element": "N" 
			},
			{
				"x": -0.503493683,
				"y": -3.9712574831,
				"z": 0.7160157695,
				"element": "C" 
			},
			{
				"x": -0.9501210137,
				"y": -5.0719778058,
				"z": 0.9635376303,
				"element": "O" 
			},
			{
				"x": -0.4486985881,
				"y": -2.9471761063,
				"z": 1.6574068138,
				"element": "N" 
			},
			{
				"x": 0.122848882,
				"y": -1.6860118967,
				"z": 1.4964187255,
				"element": "C" 
			},
			{
				"x": 0.3358339884,
				"y": -0.9731643109,
				"z": 2.4579654372,
				"element": "O" 
			},
			{
				"x": 1.9585692645,
				"y": 4.7688666221,
				"z": -2.4580480915,
				"element": "H" 
			},
			{
				"x": 1.4266386005,
				"y": 3.3971323837,
				"z": -3.4554716967,
				"element": "H" 
			},
			{
				"x": 0.2213520468,
				"y": 4.5219701783,
				"z": -2.7752602307,
				"element": "H" 
			},
			{
				"x": -0.85843041,
				"y": 2.787973116,
				"z": -1.6372022858,
				"element": "H" 
			},
			{
				"x": -0.3136747608,
				"y": 2.8237602803,
				"z": 0.7540681538,
				"element": "H" 
			},
			{
				"x": 0.9188731415,
				"y": 1.5968422177,
				"z": 0.5411083259,
				"element": "H" 
			},
			{
				"x": -1.1835323507,
				"y": 0.5967179582,
				"z": 1.4504958724,
				"element": "H" 
			},
			{
				"x": -2.1030692067,
				"y": 1.2331412895,
				"z": 0.0958930352,
				"element": "H" 
			},
			{
				"x": -1.7453726408,
				"y": -1.0792309353,
				"z": -0.3765799576,
				"element": "H" 
			},
			{
				"x": -0.5289209522,
				"y": -0.8644143206,
				"z": -2.5890802973,
				"element": "H" 
			},
			{
				"x": -1.7083570507,
				"y": 0.3913765394,
				"z": -2.2552455769,
				"element": "H" 
			},
			{
				"x": 0.3612217551,
				"y": 1.3438486367,
				"z": -3.2314602125,
				"element": "H" 
			},
			{
				"x": 1.3368018461,
				"y": 0.6780304923,
				"z": -1.9330280967,
				"element": "H" 
			},
			{
				"x": 1.2567781196,
				"y": -0.6303114338,
				"z": 0.0508097358,
				"element": "H" 
			},
			{
				"x": 0.1259031011,
				"y": -4.4018171932,
				"z": -1.1767297688,
				"element": "H" 
			},
			{
				"x": -0.7013579174,
				"y": -3.2160411156,
				"z": 2.6013088464,
				"element": "H" 
			}
		],
		 "valence_orbital": [ 
			{
				"type": "occ",
				"energy": -0.3052,
				"method": "rhf"
			},
			{
				"type": "occ",
				"energy": -0.30003,
				"method": "rhf"
			},
			{
				"type": "occ",
				"energy": -0.29732,
				"method": "rhf"
			},
			{
				"type": "occ",
				"energy": -0.26753,
				"method": "rhf"
			},
			{
				"type": "occ",
				"energy": -0.24948,
				"method": "rhf"
			},
			{
				"type": "unocc",
				"energy": -0.05285,
				"method": "rhf"
			},
			{
				"type": "unocc",
				"energy": -0.00713,
				"method": "rhf"
			},
			{
				"type": "unocc",
				"energy": 0.0445,
				"method": "rhf"
			},
			{
				"type": "unocc",
				"energy": 0.06608,
				"method": "rhf"
			},
			{
				"type": "unocc",
				"energy": 0.07867,
				"method": "rhf"
			}
		],
		"cosmo_sigma_profile": { 
			"-0.025": 0.0,
			"-0.024": 0.0,
			"-0.023": 0.0,
			"-0.022": 0.0,
			"-0.021": 0.0,
			"-0.02": 0.0,
			"-0.019": 0.0,
			"-0.018": 0.0,
			"-0.017": 0.330432119188,
			"-0.016": 1.81324501889,
			"-0.015": 1.91593520974,
			"-0.014": 1.89980940622,
			"-0.013": 1.33062676027,
			"-0.012": 1.1823122337,
			"-0.011": 1.79332739316,
			"-0.01": 2.83122645894,
			"-0.009": 2.62233016069,
			"-0.008": 4.12062960008,
			"-0.007": 5.73966762071,
			"-0.006": 7.43190438651,
			"-0.005": 10.0946904769,
			"-0.004": 20.0524772073,
			"-0.003": 35.6683789105,
			"-0.002": 34.2927859937,
			"-0.001": 25.7201197296,
			"0.0": 17.4594499264,
			"0.001": 9.57432799005,
			"0.002": 7.52425360229,
			"0.003": 5.83049977282,
			"0.004": 6.17869545086,
			"0.005": 5.8673301525,
			"0.006": 5.75838554636,
			"0.007": 6.00151632731,
			"0.008": 5.27481711877,
			"0.009": 6.52652333681,
			"0.01": 7.06837696971,
			"0.011": 14.5743253505,
			"0.012": 8.9516965684,
			"0.013": 1.82276645067,
			"0.014": 0.422567231396,
			"0.015": 0.0,
			"0.016": 0.0,
			"0.017": 0.0,
			"0.018": 0.0,
			"0.019": 0.0,
			"0.02": 0.0,
			"0.021": 0.0,
			"0.022": 0.0,
			"0.023": 0.0,
			"0.024": 0.0,
			"0.025": 0.0
		}
	}
}
