{
	 "smiles": "CC1=CC(C=O)=CC(C)=C1", 
	 "Tm": 282.15, 
	 "num_atms": 20, 
	 "gaussian": { 
		 "optdone": 1, 
		 "sigma_profile": "yes", 
		 "theory": "DFT", 
		 "functional": "B3LYP", 
		 "basiset": "6-31G**", 
		 "properties": { 
			 "R2extent": 1760.9928, 
			 "electric_dipole_moment_norm": 3.71486585088, 
			 "electric_quadrupole_moment_norm": 11.1123594065, 
			 "total_energy": -424.215696469, 
			 "HOMO_LUMO_gap": 0.18945, 
			 "cosmo_polarized_energy": -7.39, 
			 "cosmo_cavitation_energy": 23.89, 
			 "cosmo_dispersion_energy": -17.22, 
			 "cosmo_repulsion_energy": 1.4, 
			 "cosmo_total_nonelectrostatic_energy": 8.07, 
			 "SMD_solvation_energy": 5.32 
		},
		"coords": [
			{
				"x": -2.4133666354,
				"y": -1.5717651898,
				"z": 0.3242675872,
				"element": "C" 
			},
			{
				"x": -1.1332595903,
				"y": -0.8609622557,
				"z": -0.0492172707,
				"element": "C" 
			},
			{
				"x": -1.0996095827,
				"y": 0.0552920725,
				"z": -1.1074386843,
				"element": "C" 
			},
			{
				"x": 0.0817073969,
				"y": 0.730112359,
				"z": -1.428434874,
				"element": "C" 
			},
			{
				"x": 0.0916043297,
				"y": 1.6925952317,
				"z": -2.5527099089,
				"element": "C" 
			},
			{
				"x": 1.0629084548,
				"y": 2.3309130264,
				"z": -2.9130293043,
				"element": "O" 
			},
			{
				"x": 1.2522818481,
				"y": 0.4934262354,
				"z": -0.6921523162,
				"element": "C" 
			},
			{
				"x": 1.2495271611,
				"y": -0.415916907,
				"z": 0.3633260539,
				"element": "C" 
			},
			{
				"x": 2.4987605642,
				"y": -0.6933600066,
				"z": 1.1668243419,
				"element": "C" 
			},
			{
				"x": 0.0485091619,
				"y": -1.0815212155,
				"z": 0.6662908241,
				"element": "C" 
			},
			{
				"x": -2.2118521172,
				"y": -2.5249677745,
				"z": 0.8215212566,
				"element": "H" 
			},
			{
				"x": -3.0306364125,
				"y": -1.772891974,
				"z": -0.5565736405,
				"element": "H" 
			},
			{
				"x": -3.0163419863,
				"y": -0.9655661206,
				"z": 1.0117244928,
				"element": "H" 
			},
			{
				"x": -1.9994811707,
				"y": 0.2461873449,
				"z": -1.6895787665,
				"element": "H" 
			},
			{
				"x": -0.8867969694,
				"y": 1.8033930921,
				"z": -3.0729104846,
				"element": "H" 
			},
			{
				"x": 2.1536501855,
				"y": 1.0320669302,
				"z": -0.9693005391,
				"element": "H" 
			},
			{
				"x": 2.3468064449,
				"y": -0.4700159342,
				"z": 2.2289973937,
				"element": "H" 
			},
			{
				"x": 3.3396956009,
				"y": -0.0906353899,
				"z": 0.8146402935,
				"element": "H" 
			},
			{
				"x": 2.7897465724,
				"y": -1.7478946894,
				"z": 1.0983540816,
				"element": "H" 
			},
			{
				"x": 0.038146744,
				"y": -1.796488835,
				"z": 1.4872994635,
				"element": "H" 
			}
		],
		 "valence_orbital": [ 
			{
				"type": "occ",
				"energy": -0.34484,
				"method": "rhf"
			},
			{
				"type": "occ",
				"energy": -0.34291,
				"method": "rhf"
			},
			{
				"type": "occ",
				"energy": -0.2542,
				"method": "rhf"
			},
			{
				"type": "occ",
				"energy": -0.25014,
				"method": "rhf"
			},
			{
				"type": "occ",
				"energy": -0.24776,
				"method": "rhf"
			},
			{
				"type": "unocc",
				"energy": -0.05831,
				"method": "rhf"
			},
			{
				"type": "unocc",
				"energy": -0.00667,
				"method": "rhf"
			},
			{
				"type": "unocc",
				"energy": 0.03989,
				"method": "rhf"
			},
			{
				"type": "unocc",
				"energy": 0.09397,
				"method": "rhf"
			},
			{
				"type": "unocc",
				"energy": 0.1142,
				"method": "rhf"
			}
		],
		"cosmo_sigma_profile": { 
			"-0.025": 0.0,
			"-0.024": 0.0,
			"-0.023": 0.0,
			"-0.022": 0.0,
			"-0.021": 0.0,
			"-0.02": 0.0,
			"-0.019": 0.0,
			"-0.018": 0.0,
			"-0.017": 0.0,
			"-0.016": 0.0,
			"-0.015": 0.0,
			"-0.014": 0.0,
			"-0.013": 0.0,
			"-0.012": 0.0,
			"-0.011": 0.0,
			"-0.01": 0.0,
			"-0.009": 0.0,
			"-0.008": 0.0271677545814,
			"-0.007": 2.07021992201,
			"-0.006": 6.36207029318,
			"-0.005": 11.8757858512,
			"-0.004": 21.1728533648,
			"-0.003": 18.6415824926,
			"-0.002": 19.5868928038,
			"-0.001": 21.066456526,
			"0.0": 21.0863560333,
			"0.001": 12.1897135542,
			"0.002": 11.1209836623,
			"0.003": 10.2040216322,
			"0.004": 11.8785558019,
			"0.005": 3.7422566247,
			"0.006": 1.87622949147,
			"0.007": 1.37390463211,
			"0.008": 1.80523569603,
			"0.009": 2.02746305558,
			"0.01": 2.5153667566,
			"0.011": 3.63369912574,
			"0.012": 3.75816848626,
			"0.013": 1.28384888693,
			"0.014": 0.03587785665,
			"0.015": 0.0,
			"0.016": 0.0,
			"0.017": 0.0,
			"0.018": 0.0,
			"0.019": 0.0,
			"0.02": 0.0,
			"0.021": 0.0,
			"0.022": 0.0,
			"0.023": 0.0,
			"0.024": 0.0,
			"0.025": 0.0
		}
	}
}
