{
	 "smiles": "CC1=CC(=CC=C1)C1=C(C=O)C=NN1", 
	 "Tm": 329.15, 
	 "num_atms": 24, 
	 "gaussian": { 
		 "optdone": 1, 
		 "sigma_profile": "yes", 
		 "theory": "DFT", 
		 "functional": "B3LYP", 
		 "basiset": "6-31G**", 
		 "properties": { 
			 "R2extent": 3241.2794, 
			 "electric_dipole_moment_norm": 6.03931020068, 
			 "electric_quadrupole_moment_norm": 5.65808146548, 
			 "total_energy": -609.906213477, 
			 "HOMO_LUMO_gap": 0.18512, 
			 "cosmo_polarized_energy": -14.52, 
			 "cosmo_cavitation_energy": 28.82, 
			 "cosmo_dispersion_energy": -20.64, 
			 "cosmo_repulsion_energy": 1.62, 
			 "cosmo_total_nonelectrostatic_energy": 9.79, 
			 "SMD_solvation_energy": 5.03 
		},
		"coords": [
			{
				"x": -3.3748963131,
				"y": -1.4737657964,
				"z": 2.5171170965,
				"element": "C" 
			},
			{
				"x": -2.1673719394,
				"y": -0.6064108896,
				"z": 2.2490802478,
				"element": "C" 
			},
			{
				"x": -1.6885252951,
				"y": -0.4182120632,
				"z": 0.9501597209,
				"element": "C" 
			},
			{
				"x": -0.561412874,
				"y": 0.3821336893,
				"z": 0.6890848191,
				"element": "C" 
			},
			{
				"x": 0.0947627546,
				"y": 1.0040772154,
				"z": 1.7621106761,
				"element": "C" 
			},
			{
				"x": -0.3706919027,
				"y": 0.81610125,
				"z": 3.063070315,
				"element": "C" 
			},
			{
				"x": -1.4899837326,
				"y": 0.0218390408,
				"z": 3.3051912173,
				"element": "C" 
			},
			{
				"x": -0.0965918133,
				"y": 0.5734966297,
				"z": -0.6911228099,
				"element": "C" 
			},
			{
				"x": 1.1786116597,
				"y": 0.616090628,
				"z": -1.2749470361,
				"element": "C" 
			},
			{
				"x": 2.4780720747,
				"y": 0.3886265857,
				"z": -0.6512358934,
				"element": "C" 
			},
			{
				"x": 3.540905658,
				"y": 0.4690535535,
				"z": -1.2460834687,
				"element": "O" 
			},
			{
				"x": 0.9336662503,
				"y": 0.8349479085,
				"z": -2.6588793223,
				"element": "C" 
			},
			{
				"x": -0.3591593966,
				"y": 0.9221107373,
				"z": -2.9297237632,
				"element": "N" 
			},
			{
				"x": -0.9607699847,
				"y": 0.7523494124,
				"z": -1.7235056709,
				"element": "N" 
			},
			{
				"x": -3.7793765604,
				"y": -1.8957506263,
				"z": 1.5932871998,
				"element": "H" 
			},
			{
				"x": -4.1738416901,
				"y": -0.902038267,
				"z": 3.0027634653,
				"element": "H" 
			},
			{
				"x": -3.1248713073,
				"y": -2.3066710772,
				"z": 3.1837417588,
				"element": "H" 
			},
			{
				"x": -2.1806453601,
				"y": -0.9282980369,
				"z": 0.1255556404,
				"element": "H" 
			},
			{
				"x": 0.9449336185,
				"y": 1.6509628887,
				"z": 1.573378567,
				"element": "H" 
			},
			{
				"x": 0.1379512498,
				"y": 1.3013821944,
				"z": 3.8908573223,
				"element": "H" 
			},
			{
				"x": -1.8440714625,
				"y": -0.1148419345,
				"z": 4.3239202792,
				"element": "H" 
			},
			{
				"x": 2.4497098771,
				"y": 0.1161223055,
				"z": 0.4250478807,
				"element": "H" 
			},
			{
				"x": 1.6701024578,
				"y": 0.9156356882,
				"z": -3.4460622393,
				"element": "H" 
			},
			{
				"x": -1.9635059686,
				"y": 0.8462589638,
				"z": -1.6583060024,
				"element": "H" 
			}
		],
		 "valence_orbital": [ 
			{
				"type": "occ",
				"energy": -0.28926,
				"method": "rhf"
			},
			{
				"type": "occ",
				"energy": -0.26755,
				"method": "rhf"
			},
			{
				"type": "occ",
				"energy": -0.26368,
				"method": "rhf"
			},
			{
				"type": "occ",
				"energy": -0.24518,
				"method": "rhf"
			},
			{
				"type": "occ",
				"energy": -0.23912,
				"method": "rhf"
			},
			{
				"type": "unocc",
				"energy": -0.054,
				"method": "rhf"
			},
			{
				"type": "unocc",
				"energy": -0.0199,
				"method": "rhf"
			},
			{
				"type": "unocc",
				"energy": -0.01795,
				"method": "rhf"
			},
			{
				"type": "unocc",
				"energy": 0.02197,
				"method": "rhf"
			},
			{
				"type": "unocc",
				"energy": 0.07222,
				"method": "rhf"
			}
		],
		"cosmo_sigma_profile": { 
			"-0.025": 0.0,
			"-0.024": 0.0,
			"-0.023": 0.0,
			"-0.022": 0.0,
			"-0.021": 0.0,
			"-0.02": 0.0,
			"-0.019": 0.0,
			"-0.018": 0.0303520676362,
			"-0.017": 0.752548152098,
			"-0.016": 0.883173036231,
			"-0.015": 1.09352232203,
			"-0.014": 1.05645789177,
			"-0.013": 1.0122519542,
			"-0.012": 1.00404292935,
			"-0.011": 1.44660756526,
			"-0.01": 1.10387426645,
			"-0.009": 1.23435354221,
			"-0.008": 2.44664669769,
			"-0.007": 4.37751824814,
			"-0.006": 10.9561188768,
			"-0.005": 15.5328753435,
			"-0.004": 18.7515505755,
			"-0.003": 18.0066829698,
			"-0.002": 17.0540655119,
			"-0.001": 16.8006029019,
			"0.0": 21.2650027585,
			"0.001": 17.1244662924,
			"0.002": 13.8743013851,
			"0.003": 13.1131198842,
			"0.004": 12.2450186435,
			"0.005": 7.87989218802,
			"0.006": 3.41716459666,
			"0.007": 2.99477158773,
			"0.008": 2.84848040321,
			"0.009": 3.51392718045,
			"0.01": 2.85309726176,
			"0.011": 4.24894228294,
			"0.012": 5.8495399421,
			"0.013": 3.56210977452,
			"0.014": 1.53412436346,
			"0.015": 0.6666574579,
			"0.016": 0.0260199801119,
			"0.017": 0.0,
			"0.018": 0.0,
			"0.019": 0.0,
			"0.02": 0.0,
			"0.021": 0.0,
			"0.022": 0.0,
			"0.023": 0.0,
			"0.024": 0.0,
			"0.025": 0.0
		}
	}
}
