{
	 "smiles": "OC(=O)C1=CC(F)=C(C=C1)N1CCCC1", 
	 "Tm": 543.15, 
	 "num_atms": 27, 
	 "gaussian": { 
		 "optdone": 1, 
		 "sigma_profile": "yes", 
		 "theory": "DFT", 
		 "functional": "B3LYP", 
		 "basiset": "6-31G**", 
		 "properties": { 
			 "R2extent": 5106.8161, 
			 "electric_dipole_moment_norm": 7.71695882651, 
			 "electric_quadrupole_moment_norm": 33.784327105, 
			 "total_energy": -731.445595528, 
			 "HOMO_LUMO_gap": 0.1689, 
			 "cosmo_polarized_energy": -15.75, 
			 "cosmo_cavitation_energy": 29.99, 
			 "cosmo_dispersion_energy": -22.38, 
			 "cosmo_repulsion_energy": 1.72, 
			 "cosmo_total_nonelectrostatic_energy": 9.33, 
			 "SMD_solvation_energy": 5.23 
		},
		"coords": [
			{
				"x": -1.2465557861,
				"y": 3.0568817573,
				"z": 4.9419142635,
				"element": "O" 
			},
			{
				"x": -1.4120018509,
				"y": 1.7184360978,
				"z": 4.7345909693,
				"element": "C" 
			},
			{
				"x": -1.9235177895,
				"y": 1.0399241794,
				"z": 5.5969581088,
				"element": "O" 
			},
			{
				"x": -0.9387573758,
				"y": 1.1767817866,
				"z": 3.4311795519,
				"element": "C" 
			},
			{
				"x": -0.7890828494,
				"y": -0.2152944711,
				"z": 3.3175959006,
				"element": "C" 
			},
			{
				"x": -0.355959102,
				"y": -0.7772568439,
				"z": 2.1390867024,
				"element": "C" 
			},
			{
				"x": -0.1835445894,
				"y": -2.1249884154,
				"z": 2.1036659335,
				"element": "F" 
			},
			{
				"x": -0.0694823542,
				"y": -0.0170767359,
				"z": 0.9753757167,
				"element": "C" 
			},
			{
				"x": -0.2421156145,
				"y": 1.382220621,
				"z": 1.109303466,
				"element": "C" 
			},
			{
				"x": -0.6625631001,
				"y": 1.9585755955,
				"z": 2.3024213174,
				"element": "C" 
			},
			{
				"x": 0.3616703206,
				"y": -0.5762636183,
				"z": -0.2003584186,
				"element": "N" 
			},
			{
				"x": 0.2758180508,
				"y": -2.0063227143,
				"z": -0.5585878488,
				"element": "C" 
			},
			{
				"x": 0.4287389717,
				"y": -2.0049965716,
				"z": -2.0861460178,
				"element": "C" 
			},
			{
				"x": 1.3007944405,
				"y": -0.7703140576,
				"z": -2.3556174342,
				"element": "C" 
			},
			{
				"x": 0.7710245136,
				"y": 0.2486982555,
				"z": -1.3401397185,
				"element": "C" 
			},
			{
				"x": -0.6740512936,
				"y": 3.4285765663,
				"z": 4.2573551307,
				"element": "H" 
			},
			{
				"x": -1.0004250522,
				"y": -0.8519285503,
				"z": 4.1691071588,
				"element": "H" 
			},
			{
				"x": -0.062384339,
				"y": 2.021517673,
				"z": 0.2540552464,
				"element": "H" 
			},
			{
				"x": -0.8160069625,
				"y": 3.035138677,
				"z": 2.31687576,
				"element": "H" 
			},
			{
				"x": 1.0783334305,
				"y": -2.577454688,
				"z": -0.0764365571,
				"element": "H" 
			},
			{
				"x": -0.6744629094,
				"y": -2.4359223385,
				"z": -0.2342745916,
				"element": "H" 
			},
			{
				"x": 0.8672249673,
				"y": -2.9349193478,
				"z": -2.457499451,
				"element": "H" 
			},
			{
				"x": -0.5510948597,
				"y": -1.8831601957,
				"z": -2.5617341524,
				"element": "H" 
			},
			{
				"x": 1.2322362939,
				"y": -0.4052090333,
				"z": -3.3835586529,
				"element": "H" 
			},
			{
				"x": 2.3526668284,
				"y": -0.9946207388,
				"z": -2.1463757604,
				"element": "H" 
			},
			{
				"x": -0.0823838816,
				"y": 0.8103590412,
				"z": -1.7534373793,
				"element": "H" 
			},
			{
				"x": 1.5315818927,
				"y": 0.97911807,
				"z": -1.0396192437,
				"element": "H" 
			}
		],
		 "valence_orbital": [ 
			{
				"type": "occ",
				"energy": -0.30931,
				"method": "rhf"
			},
			{
				"type": "occ",
				"energy": -0.29515,
				"method": "rhf"
			},
			{
				"type": "occ",
				"energy": -0.26208,
				"method": "rhf"
			},
			{
				"type": "occ",
				"energy": -0.25674,
				"method": "rhf"
			},
			{
				"type": "occ",
				"energy": -0.20385,
				"method": "rhf"
			},
			{
				"type": "unocc",
				"energy": -0.03495,
				"method": "rhf"
			},
			{
				"type": "unocc",
				"energy": -0.0094,
				"method": "rhf"
			},
			{
				"type": "unocc",
				"energy": 0.06113,
				"method": "rhf"
			},
			{
				"type": "unocc",
				"energy": 0.06745,
				"method": "rhf"
			},
			{
				"type": "unocc",
				"energy": 0.07065,
				"method": "rhf"
			}
		],
		"cosmo_sigma_profile": { 
			"-0.025": 0.0,
			"-0.024": 0.0,
			"-0.023": 0.0,
			"-0.022": 0.0,
			"-0.021": 0.0,
			"-0.02": 0.0,
			"-0.019": 0.0,
			"-0.018": 0.391050133501,
			"-0.017": 0.902900155832,
			"-0.016": 1.00037933422,
			"-0.015": 1.2426172809,
			"-0.014": 1.04169889982,
			"-0.013": 0.549135618695,
			"-0.012": 0.803406092631,
			"-0.011": 1.5555302043,
			"-0.01": 1.2303906908,
			"-0.009": 1.10835421021,
			"-0.008": 1.25680445166,
			"-0.007": 2.49583076575,
			"-0.006": 5.9637147586,
			"-0.005": 8.25229047424,
			"-0.004": 20.3383445845,
			"-0.003": 28.9366667747,
			"-0.002": 27.4120901637,
			"-0.001": 20.1748112834,
			"0.0": 18.9758273587,
			"0.001": 15.276713181,
			"0.002": 14.5650563915,
			"0.003": 14.7624563911,
			"0.004": 13.7057209829,
			"0.005": 6.39311601044,
			"0.006": 1.94661384556,
			"0.007": 2.82444324629,
			"0.008": 2.3782715024,
			"0.009": 2.62514871796,
			"0.01": 3.89389401736,
			"0.011": 5.00046335129,
			"0.012": 5.6675607181,
			"0.013": 3.70775898615,
			"0.014": 0.931143756872,
			"0.015": 0.0,
			"0.016": 0.0,
			"0.017": 0.0,
			"0.018": 0.0,
			"0.019": 0.0,
			"0.02": 0.0,
			"0.021": 0.0,
			"0.022": 0.0,
			"0.023": 0.0,
			"0.024": 0.0,
			"0.025": 0.0
		}
	}
}
