{
	 "smiles": "CC(=O)C1=CC=C(Cl)C=C1Cl", 
	 "Tm": 306.65, 
	 "num_atms": 17, 
	 "gaussian": { 
		 "optdone": 1, 
		 "sigma_profile": "yes", 
		 "theory": "DFT", 
		 "functional": "B3LYP", 
		 "basiset": "6-31G**", 
		 "properties": { 
			 "R2extent": 3093.4153, 
			 "electric_dipole_moment_norm": 1.11833509289, 
			 "electric_quadrupole_moment_norm": 6.60002069694, 
			 "total_energy": -1304.07233434, 
			 "HOMO_LUMO_gap": 0.18996, 
			 "cosmo_polarized_energy": -6.12, 
			 "cosmo_cavitation_energy": 24.74, 
			 "cosmo_dispersion_energy": -18.51, 
			 "cosmo_repulsion_energy": 1.47, 
			 "cosmo_total_nonelectrostatic_energy": 7.7, 
			 "SMD_solvation_energy": 4.44 
		},
		"coords": [
			{
				"x": -0.1597878646,
				"y": -1.3949602378,
				"z": -2.2702499005,
				"element": "C" 
			},
			{
				"x": -0.7649984575,
				"y": -0.9786174324,
				"z": -0.9464462787,
				"element": "C" 
			},
			{
				"x": -1.9715615071,
				"y": -1.0729274998,
				"z": -0.7809697536,
				"element": "O" 
			},
			{
				"x": 0.069013334,
				"y": -0.3995583174,
				"z": 0.1808172541,
				"element": "C" 
			},
			{
				"x": -0.6763581031,
				"y": 0.2363407793,
				"z": 1.1932768608,
				"element": "C" 
			},
			{
				"x": -0.0901641304,
				"y": 0.8406469691,
				"z": 2.2951084794,
				"element": "C" 
			},
			{
				"x": 1.2998201066,
				"y": 0.8065960165,
				"z": 2.4109277971,
				"element": "C" 
			},
			{
				"x": 2.0787638064,
				"y": 1.5580623394,
				"z": 3.7866440683,
				"element": "Cl" 
			},
			{
				"x": 2.0834679824,
				"y": 0.1775173765,
				"z": 1.4487301683,
				"element": "C" 
			},
			{
				"x": 1.466857941,
				"y": -0.4167319124,
				"z": 0.3447333582,
				"element": "C" 
			},
			{
				"x": 2.5670896098,
				"y": -1.2094948953,
				"z": -0.77852642,
				"element": "Cl" 
			},
			{
				"x": 0.4092499186,
				"y": -2.3231117646,
				"z": -2.1619394604,
				"element": "H" 
			},
			{
				"x": -0.9815883203,
				"y": -1.5583208255,
				"z": -2.9687452781,
				"element": "H" 
			},
			{
				"x": 0.5278859071,
				"y": -0.6413325731,
				"z": -2.662783861,
				"element": "H" 
			},
			{
				"x": -1.7542715865,
				"y": 0.2354072359,
				"z": 1.0757141783,
				"element": "H" 
			},
			{
				"x": -0.6928786964,
				"y": 1.3289186407,
				"z": 3.0521198968,
				"element": "H" 
			},
			{
				"x": 3.16066006,
				"y": 0.1420661009,
				"z": 1.552288891,
				"element": "H" 
			}
		],
		 "valence_orbital": [ 
			{
				"type": "occ",
				"energy": -0.33104,
				"method": "rhf"
			},
			{
				"type": "occ",
				"energy": -0.32467,
				"method": "rhf"
			},
			{
				"type": "occ",
				"energy": -0.27378,
				"method": "rhf"
			},
			{
				"type": "occ",
				"energy": -0.26526,
				"method": "rhf"
			},
			{
				"type": "occ",
				"energy": -0.26141,
				"method": "rhf"
			},
			{
				"type": "unocc",
				"energy": -0.07145,
				"method": "rhf"
			},
			{
				"type": "unocc",
				"energy": -0.03379,
				"method": "rhf"
			},
			{
				"type": "unocc",
				"energy": -0.0034,
				"method": "rhf"
			},
			{
				"type": "unocc",
				"energy": 0.01645,
				"method": "rhf"
			},
			{
				"type": "unocc",
				"energy": 0.03685,
				"method": "rhf"
			}
		],
		"cosmo_sigma_profile": { 
			"-0.025": 0.0,
			"-0.024": 0.0,
			"-0.023": 0.0,
			"-0.022": 0.0,
			"-0.021": 0.0,
			"-0.02": 0.0,
			"-0.019": 0.0,
			"-0.018": 0.0,
			"-0.017": 0.0,
			"-0.016": 0.0,
			"-0.015": 0.0,
			"-0.014": 0.0,
			"-0.013": 0.0,
			"-0.012": 0.0,
			"-0.011": 0.0,
			"-0.01": 0.0,
			"-0.009": 0.558351801652,
			"-0.008": 2.92274421684,
			"-0.007": 3.4801652223,
			"-0.006": 8.38796089866,
			"-0.005": 11.3176192119,
			"-0.004": 11.891736459,
			"-0.003": 13.460174895,
			"-0.002": 16.3391466363,
			"-0.001": 24.1629197445,
			"0.0": 28.2820543829,
			"0.001": 21.1898942334,
			"0.002": 15.9130452624,
			"0.003": 15.582010851,
			"0.004": 12.5681892749,
			"0.005": 2.0950680335,
			"0.006": 1.63081664572,
			"0.007": 0.657097609626,
			"0.008": 2.23438363441,
			"0.009": 1.55370319132,
			"0.01": 2.43450220932,
			"0.011": 3.50201799397,
			"0.012": 2.20251498126,
			"0.013": 0.514140357142,
			"0.014": 0.0,
			"0.015": 0.0,
			"0.016": 0.0,
			"0.017": 0.0,
			"0.018": 0.0,
			"0.019": 0.0,
			"0.02": 0.0,
			"0.021": 0.0,
			"0.022": 0.0,
			"0.023": 0.0,
			"0.024": 0.0,
			"0.025": 0.0
		}
	}
}
