{
	 "smiles": "CCCCC1=CC=C(C=C1)N1CC(CC1=O)C(O)=O", 
	 "Tm": 413.15, 
	 "num_atms": 38, 
	 "gaussian": { 
		 "optdone": 1, 
		 "sigma_profile": "yes", 
		 "theory": "DFT", 
		 "functional": "B3LYP", 
		 "basiset": "6-31G**", 
		 "properties": { 
			 "R2extent": 8955.2111, 
			 "electric_dipole_moment_norm": 4.53279778062, 
			 "electric_quadrupole_moment_norm": 26.4374930548, 
			 "total_energy": -863.511424926, 
			 "HOMO_LUMO_gap": 0.20247, 
			 "cosmo_polarized_energy": -18.55, 
			 "cosmo_cavitation_energy": 40.17, 
			 "cosmo_dispersion_energy": -28.22, 
			 "cosmo_repulsion_energy": 2.2, 
			 "cosmo_total_nonelectrostatic_energy": 14.15, 
			 "SMD_solvation_energy": 7.95 
		},
		"coords": [
			{
				"x": -1.2295101738,
				"y": 0.387836439,
				"z": -5.4856025191,
				"element": "C" 
			},
			{
				"x": -0.3632096224,
				"y": -0.2829890696,
				"z": -4.4147673202,
				"element": "C" 
			},
			{
				"x": -0.6172674108,
				"y": -1.7907655287,
				"z": -4.299939651,
				"element": "C" 
			},
			{
				"x": 0.2448881767,
				"y": -2.5018816058,
				"z": -3.2333833361,
				"element": "C" 
			},
			{
				"x": -0.0573640718,
				"y": -2.081538154,
				"z": -1.8103782203,
				"element": "C" 
			},
			{
				"x": 0.7890416587,
				"y": -1.2264076752,
				"z": -1.0985114406,
				"element": "C" 
			},
			{
				"x": 0.4970415531,
				"y": -0.8290505216,
				"z": 0.2068445349,
				"element": "C" 
			},
			{
				"x": -0.6648495795,
				"y": -1.2872941942,
				"z": 0.8430548973,
				"element": "C" 
			},
			{
				"x": -1.5245329619,
				"y": -2.1529965543,
				"z": 0.1448145455,
				"element": "C" 
			},
			{
				"x": -1.2146451992,
				"y": -2.5314222497,
				"z": -1.1574078148,
				"element": "C" 
			},
			{
				"x": -0.936710916,
				"y": -0.9019145387,
				"z": 2.1880167442,
				"element": "N" 
			},
			{
				"x": 0.0555870272,
				"y": -0.1633643405,
				"z": 2.983511092,
				"element": "C" 
			},
			{
				"x": -0.5413444041,
				"y": -0.1542961476,
				"z": 4.4079795312,
				"element": "C" 
			},
			{
				"x": -2.059919001,
				"y": -0.1644165706,
				"z": 4.1310121644,
				"element": "C" 
			},
			{
				"x": -2.2111084912,
				"y": -0.8288489078,
				"z": 2.76478586,
				"element": "C" 
			},
			{
				"x": -3.2503382266,
				"y": -1.2259779709,
				"z": 2.2753958771,
				"element": "O" 
			},
			{
				"x": -0.1072467035,
				"y": -1.3605227346,
				"z": 5.2457483416,
				"element": "C" 
			},
			{
				"x": -0.154202173,
				"y": -2.5702088158,
				"z": 4.6321656877,
				"element": "O" 
			},
			{
				"x": 0.2441845285,
				"y": -1.2691856859,
				"z": 6.3950037458,
				"element": "O" 
			},
			{
				"x": -2.2961125025,
				"y": 0.2660475634,
				"z": -5.2649786974,
				"element": "H" 
			},
			{
				"x": -1.0461570604,
				"y": -0.045934655,
				"z": -6.4754106834,
				"element": "H" 
			},
			{
				"x": -1.0249136675,
				"y": 1.4614892036,
				"z": -5.5505603033,
				"element": "H" 
			},
			{
				"x": 0.6984918637,
				"y": -0.1135952276,
				"z": -4.6430668346,
				"element": "H" 
			},
			{
				"x": -0.5460186184,
				"y": 0.1930926169,
				"z": -3.4435763879,
				"element": "H" 
			},
			{
				"x": -0.4255474878,
				"y": -2.2643479742,
				"z": -5.2722304872,
				"element": "H" 
			},
			{
				"x": -1.6790148973,
				"y": -1.965205209,
				"z": -4.0785345131,
				"element": "H" 
			},
			{
				"x": 1.3049872022,
				"y": -2.3201334047,
				"z": -3.4498493892,
				"element": "H" 
			},
			{
				"x": 0.0915207579,
				"y": -3.5842866921,
				"z": -3.3273050427,
				"element": "H" 
			},
			{
				"x": 1.6987563244,
				"y": -0.8600962064,
				"z": -1.5672283251,
				"element": "H" 
			},
			{
				"x": 1.181067807,
				"y": -0.1584682675,
				"z": 0.71420405,
				"element": "H" 
			},
			{
				"x": -2.4276450909,
				"y": -2.5099066995,
				"z": 0.6188891744,
				"element": "H" 
			},
			{
				"x": -1.8915573786,
				"y": -3.2057418346,
				"z": -1.676715001,
				"element": "H" 
			},
			{
				"x": 0.1779067485,
				"y": 0.8611788198,
				"z": 2.6076353637,
				"element": "H" 
			},
			{
				"x": 1.0298194536,
				"y": -0.6579169641,
				"z": 2.9343777103,
				"element": "H" 
			},
			{
				"x": -0.2269494236,
				"y": 0.7265628798,
				"z": 4.9678381648,
				"element": "H" 
			},
			{
				"x": -2.4520997253,
				"y": 0.8565964495,
				"z": 4.0571842367,
				"element": "H" 
			},
			{
				"x": -2.6587037263,
				"y": -0.6884388504,
				"z": 4.8792299561,
				"element": "H" 
			},
			{
				"x": -0.4507245883,
				"y": -2.4801507211,
				"z": 3.7111542892,
				"element": "H" 
			}
		],
		 "valence_orbital": [ 
			{
				"type": "occ",
				"energy": -0.30277,
				"method": "rhf"
			},
			{
				"type": "occ",
				"energy": -0.27614,
				"method": "rhf"
			},
			{
				"type": "occ",
				"energy": -0.26869,
				"method": "rhf"
			},
			{
				"type": "occ",
				"energy": -0.25862,
				"method": "rhf"
			},
			{
				"type": "occ",
				"energy": -0.22906,
				"method": "rhf"
			},
			{
				"type": "unocc",
				"energy": -0.02659,
				"method": "rhf"
			},
			{
				"type": "unocc",
				"energy": -0.01167,
				"method": "rhf"
			},
			{
				"type": "unocc",
				"energy": 0.00065,
				"method": "rhf"
			},
			{
				"type": "unocc",
				"energy": 0.02177,
				"method": "rhf"
			},
			{
				"type": "unocc",
				"energy": 0.05798,
				"method": "rhf"
			}
		],
		"cosmo_sigma_profile": { 
			"-0.025": 0.0,
			"-0.024": 0.0,
			"-0.023": 0.0,
			"-0.022": 0.0,
			"-0.021": 0.0,
			"-0.02": 0.0,
			"-0.019": 0.0,
			"-0.018": 0.0,
			"-0.017": 0.0,
			"-0.016": 0.0,
			"-0.015": 0.0,
			"-0.014": 0.155497429098,
			"-0.013": 0.619648451784,
			"-0.012": 0.961422263039,
			"-0.011": 2.23860708352,
			"-0.01": 1.27472612564,
			"-0.009": 1.14271439384,
			"-0.008": 8.11099767146,
			"-0.007": 20.2015741016,
			"-0.006": 16.9518659402,
			"-0.005": 14.3219719351,
			"-0.004": 15.3176667009,
			"-0.003": 21.5856544618,
			"-0.002": 26.7120137424,
			"-0.001": 29.947332606,
			"0.0": 30.6107501985,
			"0.001": 27.921672446,
			"0.002": 16.3294733626,
			"0.003": 10.488949109,
			"0.004": 10.0260489578,
			"0.005": 13.0105892172,
			"0.006": 7.53221106868,
			"0.007": 3.95029442016,
			"0.008": 3.74846088813,
			"0.009": 4.8723322205,
			"0.01": 6.63029458303,
			"0.011": 8.5459391085,
			"0.012": 8.60337773653,
			"0.013": 3.32826381271,
			"0.014": 0.283024599149,
			"0.015": 0.0,
			"0.016": 0.0,
			"0.017": 0.0,
			"0.018": 0.0,
			"0.019": 0.0,
			"0.02": 0.0,
			"0.021": 0.0,
			"0.022": 0.0,
			"0.023": 0.0,
			"0.024": 0.0,
			"0.025": 0.0
		}
	}
}
