{
	 "smiles": "BrCC1=CC=C(C=C1)C(=O)C1=CC=CC=C1", 
	 "Tm": 383.15, 
	 "num_atms": 27, 
	 "gaussian": { 
		 "optdone": 1, 
		 "sigma_profile": "yes", 
		 "theory": "DFT", 
		 "functional": "B3LYP", 
		 "basiset": "6-31G**", 
		 "properties": { 
			 "R2extent": 7463.945, 
			 "electric_dipole_moment_norm": 2.41816491166, 
			 "electric_quadrupole_moment_norm": 16.6653650914, 
			 "total_energy": -3186.75607303, 
			 "HOMO_LUMO_gap": 0.17383, 
			 "cosmo_polarized_energy": -11.38, 
			 "cosmo_cavitation_energy": 33.88, 
			 "cosmo_dispersion_energy": -24.58, 
			 "cosmo_repulsion_energy": 1.92, 
			 "cosmo_total_nonelectrostatic_energy": 11.22, 
			 "SMD_solvation_energy": 4.83 
		},
		"coords": [
			{
				"x": -0.2404166921,
				"y": -2.3760297167,
				"z": -4.1075743231,
				"element": "Br" 
			},
			{
				"x": -1.4820911992,
				"y": -1.0786087689,
				"z": -3.2139614612,
				"element": "C" 
			},
			{
				"x": -1.1415630248,
				"y": -0.8803905531,
				"z": -1.7728783136,
				"element": "C" 
			},
			{
				"x": -0.2469716845,
				"y": 0.1249415991,
				"z": -1.3837395429,
				"element": "C" 
			},
			{
				"x": 0.0709019264,
				"y": 0.3129661225,
				"z": -0.0404905529,
				"element": "C" 
			},
			{
				"x": -0.5113929956,
				"y": -0.4967939646,
				"z": 0.9466899337,
				"element": "C" 
			},
			{
				"x": -1.4283780819,
				"y": -1.4866750268,
				"z": 0.5582850415,
				"element": "C" 
			},
			{
				"x": -1.7276345777,
				"y": -1.685441483,
				"z": -0.7835068121,
				"element": "C" 
			},
			{
				"x": -0.276569824,
				"y": -0.2987468118,
				"z": 2.4168552624,
				"element": "C" 
			},
			{
				"x": -1.1610766904,
				"y": -0.5937411241,
				"z": 3.21348398,
				"element": "O" 
			},
			{
				"x": 1.024647106,
				"y": 0.255657811,
				"z": 2.9148814076,
				"element": "C" 
			},
			{
				"x": 1.02022665,
				"y": 0.9175766775,
				"z": 4.1536899177,
				"element": "C" 
			},
			{
				"x": 2.2028873286,
				"y": 1.4147526766,
				"z": 4.6922440013,
				"element": "C" 
			},
			{
				"x": 3.4115168645,
				"y": 1.2338065242,
				"z": 4.01214351,
				"element": "C" 
			},
			{
				"x": 3.430797695,
				"y": 0.5539271582,
				"z": 2.7933769294,
				"element": "C" 
			},
			{
				"x": 2.2429991223,
				"y": 0.0713169917,
				"z": 2.2422813348,
				"element": "C" 
			},
			{
				"x": -1.383513246,
				"y": -0.1665913702,
				"z": -3.7997393238,
				"element": "H" 
			},
			{
				"x": -2.4704338201,
				"y": -1.5112472554,
				"z": -3.3574823762,
				"element": "H" 
			},
			{
				"x": 0.2033338378,
				"y": 0.7639890467,
				"z": -2.1385995701,
				"element": "H" 
			},
			{
				"x": 0.7519151671,
				"y": 1.108522666,
				"z": 0.2420051605,
				"element": "H" 
			},
			{
				"x": -1.8984268923,
				"y": -2.0867897822,
				"z": 1.3300566808,
				"element": "H" 
			},
			{
				"x": -2.4245314758,
				"y": -2.4675000122,
				"z": -1.0729933073,
				"element": "H" 
			},
			{
				"x": 0.0756716105,
				"y": 1.0274741497,
				"z": 4.6759810767,
				"element": "H" 
			},
			{
				"x": 2.1874112932,
				"y": 1.9375784168,
				"z": 5.6441222169,
				"element": "H" 
			},
			{
				"x": 4.3360200622,
				"y": 1.6161117365,
				"z": 4.435503786,
				"element": "H" 
			},
			{
				"x": 4.3704684979,
				"y": 0.3952688774,
				"z": 2.2724475168,
				"element": "H" 
			},
			{
				"x": 2.268003043,
				"y": -0.4720345849,
				"z": 1.3036178269,
				"element": "H" 
			}
		],
		 "valence_orbital": [ 
			{
				"type": "occ",
				"energy": -0.2669,
				"method": "rhf"
			},
			{
				"type": "occ",
				"energy": -0.26442,
				"method": "rhf"
			},
			{
				"type": "occ",
				"energy": -0.2622,
				"method": "rhf"
			},
			{
				"type": "occ",
				"energy": -0.25889,
				"method": "rhf"
			},
			{
				"type": "occ",
				"energy": -0.2474,
				"method": "rhf"
			},
			{
				"type": "unocc",
				"energy": -0.07357,
				"method": "rhf"
			},
			{
				"type": "unocc",
				"energy": -0.03443,
				"method": "rhf"
			},
			{
				"type": "unocc",
				"energy": -0.01911,
				"method": "rhf"
			},
			{
				"type": "unocc",
				"energy": -0.00969,
				"method": "rhf"
			},
			{
				"type": "unocc",
				"energy": 0.01022,
				"method": "rhf"
			}
		],
		"cosmo_sigma_profile": { 
			"-0.025": 0.0,
			"-0.024": 0.0,
			"-0.023": 0.0,
			"-0.022": 0.0,
			"-0.021": 0.0,
			"-0.02": 0.0,
			"-0.019": 0.0,
			"-0.018": 0.0,
			"-0.017": 0.0,
			"-0.016": 0.0,
			"-0.015": 0.0,
			"-0.014": 0.0,
			"-0.013": 0.0,
			"-0.012": 0.0,
			"-0.011": 0.0,
			"-0.01": 0.0,
			"-0.009": 0.0437026978348,
			"-0.008": 4.55900881774,
			"-0.007": 10.4812662234,
			"-0.006": 18.7207338147,
			"-0.005": 21.9916807792,
			"-0.004": 22.6719009763,
			"-0.003": 18.5413713898,
			"-0.002": 17.592822967,
			"-0.001": 16.0777549562,
			"0.0": 16.635941626,
			"0.001": 17.0090132374,
			"0.002": 19.7687134855,
			"0.003": 26.9741834269,
			"0.004": 22.7978023596,
			"0.005": 9.98774327956,
			"0.006": 13.8794901341,
			"0.007": 4.53055691862,
			"0.008": 1.34568527415,
			"0.009": 1.85350101726,
			"0.01": 2.3086509711,
			"0.011": 2.80032775507,
			"0.012": 3.99099361438,
			"0.013": 0.478345061095,
			"0.014": 0.0,
			"0.015": 0.0,
			"0.016": 0.0,
			"0.017": 0.0,
			"0.018": 0.0,
			"0.019": 0.0,
			"0.02": 0.0,
			"0.021": 0.0,
			"0.022": 0.0,
			"0.023": 0.0,
			"0.024": 0.0,
			"0.025": 0.0
		}
	}
}
