{
	 "smiles": "CC(C)C1CCC(C)CC1OC(=O)C1=CCC(=CC1)C(=O)OC1CC(C)CCC1C(C)C", 
	 "Tm": 341.15, 
	 "num_atms": 76, 
	 "gaussian": { 
		 "optdone": 1, 
		 "sigma_profile": "yes", 
		 "theory": "DFT", 
		 "functional": "B3LYP", 
		 "basiset": "6-31G**", 
		 "properties": { 
			 "R2extent": 28028.5338, 
			 "electric_dipole_moment_norm": 0.333033121476, 
			 "electric_quadrupole_moment_norm": 16.4501910004, 
			 "total_energy": -1394.44229423, 
			 "HOMO_LUMO_gap": 0.2014, 
			 "cosmo_polarized_energy": -10.49, 
			 "cosmo_cavitation_energy": 69.42, 
			 "cosmo_dispersion_energy": -46.66, 
			 "cosmo_repulsion_energy": 3.52, 
			 "cosmo_total_nonelectrostatic_energy": 26.29, 
			 "SMD_solvation_energy": 11.27 
		},
		"coords": [
			{
				"x": -1.8568776177,
				"y": -2.1714521709,
				"z": 6.5684924828,
				"element": "C" 
			},
			{
				"x": -2.1965186008,
				"y": -2.4300137957,
				"z": 5.0921578138,
				"element": "C" 
			},
			{
				"x": -2.9494850619,
				"y": -1.2140785448,
				"z": 4.5229452683,
				"element": "C" 
			},
			{
				"x": -0.9444538629,
				"y": -2.7575249696,
				"z": 4.2280067052,
				"element": "C" 
			},
			{
				"x": 0.021790811,
				"y": -3.7926594617,
				"z": 4.8394003503,
				"element": "C" 
			},
			{
				"x": -0.530971267,
				"y": -5.2303198755,
				"z": 4.8506054719,
				"element": "C" 
			},
			{
				"x": -1.2427670322,
				"y": -5.6145416798,
				"z": 3.5211329039,
				"element": "C" 
			},
			{
				"x": -0.9466263895,
				"y": -7.0613978308,
				"z": 3.1100632363,
				"element": "C" 
			},
			{
				"x": -0.8767427142,
				"y": -4.6165157632,
				"z": 2.4073058873,
				"element": "C" 
			},
			{
				"x": -1.3700130527,
				"y": -3.21814022,
				"z": 2.7972997035,
				"element": "C" 
			},
			{
				"x": -1.0754866225,
				"y": -2.2295481797,
				"z": 1.7630399906,
				"element": "O" 
			},
			{
				"x": 0.2047336729,
				"y": -1.8884169312,
				"z": 1.5001847816,
				"element": "C" 
			},
			{
				"x": 1.1724442827,
				"y": -2.3399027508,
				"z": 2.0881295546,
				"element": "O" 
			},
			{
				"x": 0.2730156502,
				"y": -0.8837164626,
				"z": 0.3978816913,
				"element": "C" 
			},
			{
				"x": 1.4849900847,
				"y": -0.450459785,
				"z": 0.0214297193,
				"element": "C" 
			},
			{
				"x": 1.726636843,
				"y": 0.5534968876,
				"z": -1.0647504488,
				"element": "C" 
			},
			{
				"x": 0.452826942,
				"y": 1.0470364349,
				"z": -1.7098061496,
				"element": "C" 
			},
			{
				"x": -0.7591330283,
				"y": 0.6132789892,
				"z": -1.3329706066,
				"element": "C" 
			},
			{
				"x": -1.0006117374,
				"y": -0.3934367522,
				"z": -0.2495590149,
				"element": "C" 
			},
			{
				"x": 0.5172008725,
				"y": 2.0569792999,
				"z": -2.8111367952,
				"element": "C" 
			},
			{
				"x": -0.4593367982,
				"y": 2.4984834021,
				"z": -3.3894786874,
				"element": "O" 
			},
			{
				"x": 1.7958825973,
				"y": 2.4056657559,
				"z": -3.0527662788,
				"element": "O" 
			},
			{
				"x": 2.2477199441,
				"y": 3.3120940744,
				"z": -4.1176698316,
				"element": "C" 
			},
			{
				"x": 1.8550570903,
				"y": 2.8657690575,
				"z": -5.5395272597,
				"element": "C" 
			},
			{
				"x": 0.5487103021,
				"y": 3.4363069596,
				"z": -6.1267194835,
				"element": "C" 
			},
			{
				"x": 0.4456658982,
				"y": 3.1045924907,
				"z": -7.620451775,
				"element": "C" 
			},
			{
				"x": 0.4603839384,
				"y": 4.9516750143,
				"z": -5.8748423221,
				"element": "C" 
			},
			{
				"x": 0.6373339408,
				"y": 5.3073501307,
				"z": -4.3906957669,
				"element": "C" 
			},
			{
				"x": 1.9997475809,
				"y": 4.8169284489,
				"z": -3.8668780453,
				"element": "C" 
			},
			{
				"x": 2.3712058595,
				"y": 5.2841900178,
				"z": -2.42800724,
				"element": "C" 
			},
			{
				"x": 1.2223561841,
				"y": 5.2052591367,
				"z": -1.4083873691,
				"element": "C" 
			},
			{
				"x": 2.9447081888,
				"y": 6.7121472321,
				"z": -2.4526751469,
				"element": "C" 
			},
			{
				"x": -1.111998778,
				"y": -1.3720559679,
				"z": 6.6667603882,
				"element": "H" 
			},
			{
				"x": -1.4625006802,
				"y": -3.060028005,
				"z": 7.0689441755,
				"element": "H" 
			},
			{
				"x": -2.7512180059,
				"y": -1.856162172,
				"z": 7.1167774665,
				"element": "H" 
			},
			{
				"x": -2.8744205516,
				"y": -3.2967048198,
				"z": 5.0543418689,
				"element": "H" 
			},
			{
				"x": -3.8789330341,
				"y": -1.0358230409,
				"z": 5.0741790874,
				"element": "H" 
			},
			{
				"x": -2.3340766749,
				"y": -0.3100417687,
				"z": 4.608454622,
				"element": "H" 
			},
			{
				"x": -3.2081959637,
				"y": -1.3329639728,
				"z": 3.466386959,
				"element": "H" 
			},
			{
				"x": -0.3817905994,
				"y": -1.8230369136,
				"z": 4.1217682272,
				"element": "H" 
			},
			{
				"x": 0.9364451489,
				"y": -3.7616251817,
				"z": 4.2404760889,
				"element": "H" 
			},
			{
				"x": 0.3138264574,
				"y": -3.4935733636,
				"z": 5.8504517668,
				"element": "H" 
			},
			{
				"x": 0.3026739291,
				"y": -5.9200887586,
				"z": 5.0332219191,
				"element": "H" 
			},
			{
				"x": -1.2255347796,
				"y": -5.3701061697,
				"z": 5.6880649287,
				"element": "H" 
			},
			{
				"x": -2.3288459372,
				"y": -5.5333315088,
				"z": 3.6796449675,
				"element": "H" 
			},
			{
				"x": -1.5069484993,
				"y": -7.348148518,
				"z": 2.2131940449,
				"element": "H" 
			},
			{
				"x": 0.120490174,
				"y": -7.1942161194,
				"z": 2.8955239953,
				"element": "H" 
			},
			{
				"x": -1.213620786,
				"y": -7.7608980686,
				"z": 3.9099557988,
				"element": "H" 
			},
			{
				"x": 0.2035517845,
				"y": -4.6110241232,
				"z": 2.2398418162,
				"element": "H" 
			},
			{
				"x": -1.3530677378,
				"y": -4.9064938477,
				"z": 1.4632020846,
				"element": "H" 
			},
			{
				"x": -2.4628841377,
				"y": -3.2441934893,
				"z": 2.7528197235,
				"element": "H" 
			},
			{
				"x": 2.3522698261,
				"y": -0.853371134,
				"z": 0.5386911469,
				"element": "H" 
			},
			{
				"x": 2.3939944278,
				"y": 0.120963319,
				"z": -1.824759678,
				"element": "H" 
			},
			{
				"x": 2.301153619,
				"y": 1.4005686322,
				"z": -0.6622319269,
				"element": "H" 
			},
			{
				"x": -1.6268405571,
				"y": 1.0184004365,
				"z": -1.8476310322,
				"element": "H" 
			},
			{
				"x": -1.5714867164,
				"y": -1.2417566103,
				"z": -0.6551367206,
				"element": "H" 
			},
			{
				"x": -1.671506169,
				"y": 0.0356648464,
				"z": 0.5091840802,
				"element": "H" 
			},
			{
				"x": 3.3263572233,
				"y": 3.1546393908,
				"z": -4.017432887,
				"element": "H" 
			},
			{
				"x": 1.8525641715,
				"y": 1.7697976976,
				"z": -5.5781000764,
				"element": "H" 
			},
			{
				"x": 2.684353439,
				"y": 3.1864537778,
				"z": -6.1875987295,
				"element": "H" 
			},
			{
				"x": -0.2895675985,
				"y": 2.9671566269,
				"z": -5.6060691789,
				"element": "H" 
			},
			{
				"x": 1.2641201351,
				"y": 3.5646622163,
				"z": -8.1889603886,
				"element": "H" 
			},
			{
				"x": -0.4967994919,
				"y": 3.4723212285,
				"z": -8.0409312215,
				"element": "H" 
			},
			{
				"x": 0.4873139454,
				"y": 2.0233198817,
				"z": -7.7949843709,
				"element": "H" 
			},
			{
				"x": -0.5049074259,
				"y": 5.3260295694,
				"z": -6.2378217543,
				"element": "H" 
			},
			{
				"x": 1.2334548662,
				"y": 5.4652681945,
				"z": -6.4684198725,
				"element": "H" 
			},
			{
				"x": -0.176061221,
				"y": 4.8613637776,
				"z": -3.8133037537,
				"element": "H" 
			},
			{
				"x": 0.572881774,
				"y": 6.395123762,
				"z": -4.2631287018,
				"element": "H" 
			},
			{
				"x": 2.7522176367,
				"y": 5.2759448678,
				"z": -4.5291461415,
				"element": "H" 
			},
			{
				"x": 3.171861918,
				"y": 4.6189943737,
				"z": -2.073809536,
				"element": "H" 
			},
			{
				"x": 0.7903325961,
				"y": 4.2055010379,
				"z": -1.3354759887,
				"element": "H" 
			},
			{
				"x": 1.5863749832,
				"y": 5.4822241267,
				"z": -0.4128531392,
				"element": "H" 
			},
			{
				"x": 0.413850285,
				"y": 5.8982101868,
				"z": -1.6640324046,
				"element": "H" 
			},
			{
				"x": 2.2078524731,
				"y": 7.4315893266,
				"z": -2.8285530668,
				"element": "H" 
			},
			{
				"x": 3.8315855842,
				"y": 6.7782880956,
				"z": -3.0925797322,
				"element": "H" 
			},
			{
				"x": 3.2333920493,
				"y": 7.0361300223,
				"z": -1.4468781933,
				"element": "H" 
			}
		],
		 "valence_orbital": [ 
			{
				"type": "occ",
				"energy": -0.27708,
				"method": "rhf"
			},
			{
				"type": "occ",
				"energy": -0.27068,
				"method": "rhf"
			},
			{
				"type": "occ",
				"energy": -0.26357,
				"method": "rhf"
			},
			{
				"type": "occ",
				"energy": -0.26196,
				"method": "rhf"
			},
			{
				"type": "occ",
				"energy": -0.24423,
				"method": "rhf"
			},
			{
				"type": "unocc",
				"energy": -0.04283,
				"method": "rhf"
			},
			{
				"type": "unocc",
				"energy": -0.02587,
				"method": "rhf"
			},
			{
				"type": "unocc",
				"energy": 0.06806,
				"method": "rhf"
			},
			{
				"type": "unocc",
				"energy": 0.06985,
				"method": "rhf"
			},
			{
				"type": "unocc",
				"energy": 0.08089,
				"method": "rhf"
			}
		],
		"cosmo_sigma_profile": { 
			"-0.025": 0.0,
			"-0.024": 0.0,
			"-0.023": 0.0,
			"-0.022": 0.0,
			"-0.021": 0.0,
			"-0.02": 0.0,
			"-0.019": 0.0,
			"-0.018": 0.0,
			"-0.017": 0.0,
			"-0.016": 0.0,
			"-0.015": 0.0,
			"-0.014": 0.0,
			"-0.013": 0.0,
			"-0.012": 0.0,
			"-0.011": 0.0,
			"-0.01": 0.0,
			"-0.009": 0.0,
			"-0.008": 0.0,
			"-0.007": 0.0,
			"-0.006": 0.891525499871,
			"-0.005": 11.9704328966,
			"-0.004": 24.1372094361,
			"-0.003": 41.6525292562,
			"-0.002": 89.4554523807,
			"-0.001": 90.8202326395,
			"0.0": 82.2476316698,
			"0.001": 80.7049011822,
			"0.002": 51.8971129372,
			"0.003": 16.221372183,
			"0.004": 9.35228903121,
			"0.005": 7.01784391544,
			"0.006": 6.77042725804,
			"0.007": 3.80105653669,
			"0.008": 3.10535027157,
			"0.009": 3.14797739835,
			"0.01": 3.0135854636,
			"0.011": 3.26490480741,
			"0.012": 4.03561513256,
			"0.013": 1.65846899381,
			"0.014": 0.0,
			"0.015": 0.0,
			"0.016": 0.0,
			"0.017": 0.0,
			"0.018": 0.0,
			"0.019": 0.0,
			"0.02": 0.0,
			"0.021": 0.0,
			"0.022": 0.0,
			"0.023": 0.0,
			"0.024": 0.0,
			"0.025": 0.0
		}
	}
}
