{
	 "smiles": "CC1=NOC(=N1)C1=CC=CC=C1CO", 
	 "Tm": 364.65, 
	 "num_atms": 24, 
	 "gaussian": { 
		 "optdone": 1, 
		 "sigma_profile": "yes", 
		 "theory": "DFT", 
		 "functional": "B3LYP", 
		 "basiset": "6-31G**", 
		 "properties": { 
			 "R2extent": 3933.0361, 
			 "electric_dipole_moment_norm": 2.78878899525, 
			 "electric_quadrupole_moment_norm": 16.9051838801, 
			 "total_energy": -647.003411204, 
			 "HOMO_LUMO_gap": 0.18788, 
			 "cosmo_polarized_energy": -10.36, 
			 "cosmo_cavitation_energy": 28.0, 
			 "cosmo_dispersion_energy": -20.81, 
			 "cosmo_repulsion_energy": 1.63, 
			 "cosmo_total_nonelectrostatic_energy": 8.81, 
			 "SMD_solvation_energy": 2.6 
		},
		"coords": [
			{
				"x": -2.604596492,
				"y": -2.5266273744,
				"z": -2.8675736911,
				"element": "C" 
			},
			{
				"x": -2.4833221868,
				"y": -1.6678965873,
				"z": -1.6538767088,
				"element": "C" 
			},
			{
				"x": -3.5078424258,
				"y": -1.0185318172,
				"z": -1.1563902584,
				"element": "N" 
			},
			{
				"x": -2.9489166108,
				"y": -0.3525814528,
				"z": -0.0433609176,
				"element": "O" 
			},
			{
				"x": -1.638321808,
				"y": -0.6822208733,
				"z": -0.0012111552,
				"element": "C" 
			},
			{
				"x": -1.3017681826,
				"y": -1.4900499698,
				"z": -0.9728984179,
				"element": "N" 
			},
			{
				"x": -0.7707629723,
				"y": -0.1658129716,
				"z": 1.0607429911,
				"element": "C" 
			},
			{
				"x": 0.4957811447,
				"y": -0.7707238043,
				"z": 1.1602612679,
				"element": "C" 
			},
			{
				"x": 1.4042651826,
				"y": -0.3676435771,
				"z": 2.1313208576,
				"element": "C" 
			},
			{
				"x": 1.0545803123,
				"y": 0.651170608,
				"z": 3.0185132036,
				"element": "C" 
			},
			{
				"x": -0.1972072407,
				"y": 1.2569098804,
				"z": 2.9187143946,
				"element": "C" 
			},
			{
				"x": -1.132936287,
				"y": 0.8760204347,
				"z": 1.9500636179,
				"element": "C" 
			},
			{
				"x": -2.4688600686,
				"y": 1.6079449097,
				"z": 1.913757333,
				"element": "C" 
			},
			{
				"x": -3.548528878,
				"y": 0.8532791349,
				"z": 2.441090789,
				"element": "O" 
			},
			{
				"x": -3.6307701368,
				"y": -2.5188106417,
				"z": -3.2380462746,
				"element": "H" 
			},
			{
				"x": -2.3135751661,
				"y": -3.5546570685,
				"z": -2.632048711,
				"element": "H" 
			},
			{
				"x": -1.9342106595,
				"y": -2.1651807408,
				"z": -3.6529957611,
				"element": "H" 
			},
			{
				"x": 0.7453073596,
				"y": -1.5601912138,
				"z": 0.4600558873,
				"element": "H" 
			},
			{
				"x": 2.3765760753,
				"y": -0.8461932954,
				"z": 2.1957615316,
				"element": "H" 
			},
			{
				"x": 1.7531062805,
				"y": 0.9749371804,
				"z": 3.7846504566,
				"element": "H" 
			},
			{
				"x": -0.4626592221,
				"y": 2.0524171061,
				"z": 3.6095347372,
				"element": "H" 
			},
			{
				"x": -2.3846641475,
				"y": 2.4985500679,
				"z": 2.5436241815,
				"element": "H" 
			},
			{
				"x": -2.6820740243,
				"y": 1.9508038095,
				"z": 0.8923282207,
				"element": "H" 
			},
			{
				"x": -3.8217998462,
				"y": 0.2370882562,
				"z": 1.748382426,
				"element": "H" 
			}
		],
		 "valence_orbital": [ 
			{
				"type": "occ",
				"energy": -0.30742,
				"method": "rhf"
			},
			{
				"type": "occ",
				"energy": -0.29951,
				"method": "rhf"
			},
			{
				"type": "occ",
				"energy": -0.26847,
				"method": "rhf"
			},
			{
				"type": "occ",
				"energy": -0.25942,
				"method": "rhf"
			},
			{
				"type": "occ",
				"energy": -0.25109,
				"method": "rhf"
			},
			{
				"type": "unocc",
				"energy": -0.06321,
				"method": "rhf"
			},
			{
				"type": "unocc",
				"energy": -0.01613,
				"method": "rhf"
			},
			{
				"type": "unocc",
				"energy": 0.01045,
				"method": "rhf"
			},
			{
				"type": "unocc",
				"energy": 0.05324,
				"method": "rhf"
			},
			{
				"type": "unocc",
				"energy": 0.0753,
				"method": "rhf"
			}
		],
		"cosmo_sigma_profile": { 
			"-0.025": 0.0,
			"-0.024": 0.0,
			"-0.023": 0.0,
			"-0.022": 0.0,
			"-0.021": 0.0,
			"-0.02": 0.0,
			"-0.019": 0.0,
			"-0.018": 0.0,
			"-0.017": 0.0,
			"-0.016": 0.0,
			"-0.015": 0.0,
			"-0.014": 0.0,
			"-0.013": 0.0,
			"-0.012": 0.0,
			"-0.011": 0.0913678720973,
			"-0.01": 0.714213199993,
			"-0.009": 0.832798286989,
			"-0.008": 0.638955088805,
			"-0.007": 4.55311655546,
			"-0.006": 16.5049317119,
			"-0.005": 20.2065392748,
			"-0.004": 20.7909270653,
			"-0.003": 21.1999099868,
			"-0.002": 21.0626879461,
			"-0.001": 16.8446374692,
			"0.0": 12.1747658229,
			"0.001": 12.7239352456,
			"0.002": 14.0062341487,
			"0.003": 16.1280725393,
			"0.004": 9.73711069371,
			"0.005": 3.64819388429,
			"0.006": 4.39269513071,
			"0.007": 4.27300864354,
			"0.008": 3.39208824633,
			"0.009": 3.73696619397,
			"0.01": 3.12830069322,
			"0.011": 3.51448710421,
			"0.012": 3.42729533044,
			"0.013": 3.1532930832,
			"0.014": 2.1755020996,
			"0.015": 0.675815095816,
			"0.016": 0.0,
			"0.017": 0.0,
			"0.018": 0.0,
			"0.019": 0.0,
			"0.02": 0.0,
			"0.021": 0.0,
			"0.022": 0.0,
			"0.023": 0.0,
			"0.024": 0.0,
			"0.025": 0.0
		}
	}
}
