{
	 "smiles": "NC1=NC(=CS1)C1=NC=CC=C1", 
	 "Tm": 409.15, 
	 "num_atms": 19, 
	 "gaussian": { 
		 "optdone": 1, 
		 "sigma_profile": "yes", 
		 "theory": "DFT", 
		 "functional": "B3LYP", 
		 "basiset": "6-31G**", 
		 "properties": { 
			 "R2extent": 3351.4858, 
			 "electric_dipole_moment_norm": 1.28566966208, 
			 "electric_quadrupole_moment_norm": 15.4291677647, 
			 "total_energy": -871.500761936, 
			 "HOMO_LUMO_gap": 0.17098, 
			 "cosmo_polarized_energy": -16.5, 
			 "cosmo_cavitation_energy": 25.39, 
			 "cosmo_dispersion_energy": -19.61, 
			 "cosmo_repulsion_energy": 1.52, 
			 "cosmo_total_nonelectrostatic_energy": 7.29, 
			 "SMD_solvation_energy": 1.44 
		},
		"coords": [
			{
				"x": 1.3413689786,
				"y": -3.6012208863,
				"z": 2.5096130546,
				"element": "N" 
			},
			{
				"x": 1.501505965,
				"y": -2.3382713041,
				"z": 1.983235502,
				"element": "C" 
			},
			{
				"x": 0.5408812766,
				"y": -1.4749526715,
				"z": 1.861042858,
				"element": "N" 
			},
			{
				"x": 0.9768806064,
				"y": -0.3311765861,
				"z": 1.2140019293,
				"element": "C" 
			},
			{
				"x": 2.2978492265,
				"y": -0.3253690775,
				"z": 0.8520029385,
				"element": "C" 
			},
			{
				"x": 3.0610400056,
				"y": -1.8243168416,
				"z": 1.3085773127,
				"element": "S" 
			},
			{
				"x": 0.0359440652,
				"y": 0.7887752824,
				"z": 0.9835104291,
				"element": "C" 
			},
			{
				"x": -1.0231293214,
				"y": 0.8769513621,
				"z": 1.8075672185,
				"element": "N" 
			},
			{
				"x": -1.8737180865,
				"y": 1.890914871,
				"z": 1.6281403489,
				"element": "C" 
			},
			{
				"x": -1.7289692207,
				"y": 2.8674979388,
				"z": 0.6414545882,
				"element": "C" 
			},
			{
				"x": -0.6347523196,
				"y": 2.7689059048,
				"z": -0.2180039025,
				"element": "C" 
			},
			{
				"x": 0.2560515403,
				"y": 1.7137033033,
				"z": -0.052294609,
				"element": "C" 
			},
			{
				"x": 2.1348499281,
				"y": -3.9940216067,
				"z": 2.9961677288,
				"element": "H" 
			},
			{
				"x": 0.467178934,
				"y": -3.7005898344,
				"z": 3.0102011102,
				"element": "H" 
			},
			{
				"x": 2.8743690884,
				"y": 0.4663496038,
				"z": 0.397584268,
				"element": "H" 
			},
			{
				"x": -2.7195605606,
				"y": 1.9268091091,
				"z": 2.3135838524,
				"element": "H" 
			},
			{
				"x": -2.4541791784,
				"y": 3.6695431886,
				"z": 0.5474256919,
				"element": "H" 
			},
			{
				"x": -0.4845997363,
				"y": 3.4941103735,
				"z": -1.012848074,
				"element": "H" 
			},
			{
				"x": 1.0973888089,
				"y": 1.5902578709,
				"z": -0.7261622456,
				"element": "H" 
			}
		],
		 "valence_orbital": [ 
			{
				"type": "occ",
				"energy": -0.27705,
				"method": "rhf"
			},
			{
				"type": "occ",
				"energy": -0.26892,
				"method": "rhf"
			},
			{
				"type": "occ",
				"energy": -0.25388,
				"method": "rhf"
			},
			{
				"type": "occ",
				"energy": -0.24344,
				"method": "rhf"
			},
			{
				"type": "occ",
				"energy": -0.20505,
				"method": "rhf"
			},
			{
				"type": "unocc",
				"energy": -0.03407,
				"method": "rhf"
			},
			{
				"type": "unocc",
				"energy": -0.01584,
				"method": "rhf"
			},
			{
				"type": "unocc",
				"energy": 0.00852,
				"method": "rhf"
			},
			{
				"type": "unocc",
				"energy": 0.01808,
				"method": "rhf"
			},
			{
				"type": "unocc",
				"energy": 0.07294,
				"method": "rhf"
			}
		],
		"cosmo_sigma_profile": { 
			"-0.025": 0.0,
			"-0.024": 0.0,
			"-0.023": 0.0,
			"-0.022": 0.0,
			"-0.021": 0.0,
			"-0.02": 0.0,
			"-0.019": 0.0,
			"-0.018": 0.0,
			"-0.017": 0.0,
			"-0.016": 0.0,
			"-0.015": 0.446595395086,
			"-0.014": 2.01529583972,
			"-0.013": 2.54515718844,
			"-0.012": 2.52854598654,
			"-0.011": 2.76319637865,
			"-0.01": 2.22584670069,
			"-0.009": 2.95211139639,
			"-0.008": 4.99301569251,
			"-0.007": 8.08161867233,
			"-0.006": 11.9233491279,
			"-0.005": 13.4020277948,
			"-0.004": 9.65016180943,
			"-0.003": 8.57675377242,
			"-0.002": 9.163330914,
			"-0.001": 9.72935636821,
			"0.0": 10.3509245236,
			"0.001": 14.5557162863,
			"0.002": 23.5746906036,
			"0.003": 23.6590959086,
			"0.004": 12.0284932164,
			"0.005": 4.34178038877,
			"0.006": 3.66170199963,
			"0.007": 2.17603968315,
			"0.008": 3.28267595028,
			"0.009": 2.50832717721,
			"0.01": 2.35351115522,
			"0.011": 1.867083821,
			"0.012": 1.75161695449,
			"0.013": 1.10445492317,
			"0.014": 1.87734297695,
			"0.015": 0.951204630448,
			"0.016": 0.868609941502,
			"0.017": 1.66570539148,
			"0.018": 0.874954042166,
			"0.019": 0.973662083921,
			"0.02": 0.823567739783,
			"0.021": 0.0163805882455,
			"0.022": 0.0,
			"0.023": 0.0,
			"0.024": 0.0,
			"0.025": 0.0
		}
	}
}
