{
	 "smiles": "NC(=O)C1=C(N)NN=C1", 
	 "Tm": 458.15, 
	 "num_atms": 15, 
	 "gaussian": { 
		 "optdone": 1, 
		 "sigma_profile": "yes", 
		 "theory": "DFT", 
		 "functional": "B3LYP", 
		 "basiset": "6-31G**", 
		 "properties": { 
			 "R2extent": 2601.9923, 
			 "electric_dipole_moment_norm": 5.83691218796, 
			 "electric_quadrupole_moment_norm": 18.7720608632, 
			 "total_energy": -450.265572133, 
			 "HOMO_LUMO_gap": 0.21863, 
			 "cosmo_polarized_energy": -22.95, 
			 "cosmo_cavitation_energy": 19.45, 
			 "cosmo_dispersion_energy": -14.77, 
			 "cosmo_repulsion_energy": 1.23, 
			 "cosmo_total_nonelectrostatic_energy": 5.91, 
			 "SMD_solvation_energy": 3.51 
		},
		"coords": [
			{
				"x": 1.0724503159,
				"y": 0.6293199389,
				"z": 0.2143677869,
				"element": "N" 
			},
			{
				"x": 1.1739504802,
				"y": 0.5861416785,
				"z": -1.1847950346,
				"element": "C" 
			},
			{
				"x": 0.6440644753,
				"y": 1.4352295058,
				"z": -1.8886486147,
				"element": "O" 
			},
			{
				"x": 1.9078192745,
				"y": -0.5650500676,
				"z": -1.7177606681,
				"element": "C" 
			},
			{
				"x": 2.2342814364,
				"y": -1.7719612991,
				"z": -1.0895519026,
				"element": "C" 
			},
			{
				"x": 2.0188494559,
				"y": -2.2005768759,
				"z": 0.2116696651,
				"element": "N" 
			},
			{
				"x": 2.8822475114,
				"y": -2.5132114962,
				"z": -2.0201803992,
				"element": "N" 
			},
			{
				"x": 3.0059643181,
				"y": -1.8780964683,
				"z": -3.2321483817,
				"element": "N" 
			},
			{
				"x": 2.407069199,
				"y": -0.7172764586,
				"z": -3.0413082726,
				"element": "C" 
			},
			{
				"x": 0.663709972,
				"y": 1.4999816588,
				"z": 0.5340910697,
				"element": "H" 
			},
			{
				"x": 1.9065266902,
				"y": 0.3669586414,
				"z": 0.7275246723,
				"element": "H" 
			},
			{
				"x": 1.232807184,
				"y": -1.7222617464,
				"z": 0.6395964902,
				"element": "H" 
			},
			{
				"x": 1.9474588448,
				"y": -3.2047255787,
				"z": 0.3221774935,
				"element": "H" 
			},
			{
				"x": 3.2855583781,
				"y": -3.4301613197,
				"z": -1.9075501854,
				"element": "H" 
			},
			{
				"x": 2.3401424643,
				"y": 0.0059898871,
				"z": -3.8422837187,
				"element": "H" 
			}
		],
		 "valence_orbital": [ 
			{
				"type": "occ",
				"energy": -0.28939,
				"method": "rhf"
			},
			{
				"type": "occ",
				"energy": -0.27821,
				"method": "rhf"
			},
			{
				"type": "occ",
				"energy": -0.26107,
				"method": "rhf"
			},
			{
				"type": "occ",
				"energy": -0.24499,
				"method": "rhf"
			},
			{
				"type": "occ",
				"energy": -0.22021,
				"method": "rhf"
			},
			{
				"type": "unocc",
				"energy": -0.00158,
				"method": "rhf"
			},
			{
				"type": "unocc",
				"energy": 0.02779,
				"method": "rhf"
			},
			{
				"type": "unocc",
				"energy": 0.05446,
				"method": "rhf"
			},
			{
				"type": "unocc",
				"energy": 0.08121,
				"method": "rhf"
			},
			{
				"type": "unocc",
				"energy": 0.09492,
				"method": "rhf"
			}
		],
		"cosmo_sigma_profile": { 
			"-0.025": 0.0,
			"-0.024": 0.0,
			"-0.023": 0.0,
			"-0.022": 0.0,
			"-0.021": 0.0,
			"-0.02": 0.0,
			"-0.019": 0.0,
			"-0.018": 0.0,
			"-0.017": 1.2419521731,
			"-0.016": 2.82678384593,
			"-0.015": 2.38149467568,
			"-0.014": 2.79879220818,
			"-0.013": 3.01367416674,
			"-0.012": 4.34123592774,
			"-0.011": 5.15142560912,
			"-0.01": 6.050940682,
			"-0.009": 3.9805527676,
			"-0.008": 4.84783242573,
			"-0.007": 4.37404113955,
			"-0.006": 4.95920295428,
			"-0.005": 5.18924889934,
			"-0.004": 4.57566046922,
			"-0.003": 3.9994292709,
			"-0.002": 5.13938741421,
			"-0.001": 5.28944453223,
			"0.0": 5.03309752936,
			"0.001": 6.11694054241,
			"0.002": 8.84307915607,
			"0.003": 7.62677677466,
			"0.004": 7.73509970022,
			"0.005": 6.44002986426,
			"0.006": 5.71388878178,
			"0.007": 3.33402701805,
			"0.008": 4.33859659904,
			"0.009": 4.04750493907,
			"0.01": 3.18021232265,
			"0.011": 2.86326844646,
			"0.012": 4.08949423495,
			"0.013": 5.38225218429,
			"0.014": 6.4392222241,
			"0.015": 1.85164701238,
			"0.016": 0.866273601863,
			"0.017": 0.0432882648596,
			"0.018": 0.0,
			"0.019": 0.0,
			"0.02": 0.0,
			"0.021": 0.0,
			"0.022": 0.0,
			"0.023": 0.0,
			"0.024": 0.0,
			"0.025": 0.0
		}
	}
}
