{
	 "smiles": "NC1=NC=NC2=C1N=CN2C1OC2COP(O)(=O)OC2C1O", 
	 "Tm": 533.15, 
	 "num_atms": 34, 
	 "gaussian": { 
		 "optdone": 1, 
		 "sigma_profile": "yes", 
		 "theory": "DFT", 
		 "functional": "B3LYP", 
		 "basiset": "6-31G**", 
		 "properties": { 
			 "R2extent": 7350.549, 
			 "electric_dipole_moment_norm": 10.4518675389, 
			 "electric_quadrupole_moment_norm": 38.3726295981, 
			 "total_energy": -1454.81562157, 
			 "HOMO_LUMO_gap": 0.19828, 
			 "cosmo_polarized_energy": -39.53, 
			 "cosmo_cavitation_energy": 37.36, 
			 "cosmo_dispersion_energy": -27.95, 
			 "cosmo_repulsion_energy": 2.07, 
			 "cosmo_total_nonelectrostatic_energy": 11.48, 
			 "SMD_solvation_energy": 4.72 
		},
		"coords": [
			{
				"x": 4.3796266397,
				"y": 2.0793360359,
				"z": -3.0821911298,
				"element": "N" 
			},
			{
				"x": 3.647621979,
				"y": 1.8486834944,
				"z": -1.9736781454,
				"element": "C" 
			},
			{
				"x": 4.2073313286,
				"y": 2.0584333895,
				"z": -0.7677262115,
				"element": "N" 
			},
			{
				"x": 3.4631611813,
				"y": 1.8330939384,
				"z": 0.3169479977,
				"element": "C" 
			},
			{
				"x": 2.1922472164,
				"y": 1.4093757163,
				"z": 0.3846256834,
				"element": "N" 
			},
			{
				"x": 1.6477222796,
				"y": 1.1854444586,
				"z": -0.8240699391,
				"element": "C" 
			},
			{
				"x": 2.3126914945,
				"y": 1.3932538282,
				"z": -2.038509732,
				"element": "C" 
			},
			{
				"x": 1.5010416906,
				"y": 1.1167984725,
				"z": -3.1215253502,
				"element": "N" 
			},
			{
				"x": 0.3709797025,
				"y": 0.756202257,
				"z": -2.5752140073,
				"element": "C" 
			},
			{
				"x": 0.3747648665,
				"y": 0.7702738438,
				"z": -1.186126586,
				"element": "N" 
			},
			{
				"x": -0.7404324952,
				"y": 0.2735257422,
				"z": -0.4019294914,
				"element": "C" 
			},
			{
				"x": -0.9880751288,
				"y": 1.1116077362,
				"z": 0.7026513636,
				"element": "O" 
			},
			{
				"x": -1.4618060568,
				"y": 0.2899290582,
				"z": 1.78515532,
				"element": "C" 
			},
			{
				"x": -1.334437115,
				"y": 1.0666375774,
				"z": 3.1070121919,
				"element": "C" 
			},
			{
				"x": -0.4773164564,
				"y": 0.4003638971,
				"z": 4.040516965,
				"element": "O" 
			},
			{
				"x": 1.0251271377,
				"y": 0.0356967753,
				"z": 3.5315698848,
				"element": "P" 
			},
			{
				"x": 1.6179475329,
				"y": 1.3865602263,
				"z": 2.9532627692,
				"element": "O" 
			},
			{
				"x": 1.7956852411,
				"y": -0.6875299449,
				"z": 4.553632977,
				"element": "O" 
			},
			{
				"x": 0.7150550075,
				"y": -0.8134410275,
				"z": 2.1650163705,
				"element": "O" 
			},
			{
				"x": -0.6114857927,
				"y": -0.9890615603,
				"z": 1.6919363766,
				"element": "C" 
			},
			{
				"x": -0.56246845,
				"y": -1.1931005877,
				"z": 0.1654870199,
				"element": "C" 
			},
			{
				"x": 0.6084777308,
				"y": -1.8469750091,
				"z": -0.2333448302,
				"element": "O" 
			},
			{
				"x": 3.9751054483,
				"y": 1.9437997968,
				"z": -3.9939556082,
				"element": "H" 
			},
			{
				"x": 5.3239592214,
				"y": 2.4151857882,
				"z": -2.9828046043,
				"element": "H" 
			},
			{
				"x": 3.9423445207,
				"y": 2.0177269795,
				"z": 1.2753598006,
				"element": "H" 
			},
			{
				"x": -0.5223413802,
				"y": 0.4749041563,
				"z": -3.1186846265,
				"element": "H" 
			},
			{
				"x": -1.5994332657,
				"y": 0.2925079561,
				"z": -1.0899071873,
				"element": "H" 
			},
			{
				"x": -2.5142608342,
				"y": 0.0232268624,
				"z": 1.5990829076,
				"element": "H" 
			},
			{
				"x": -2.3021658868,
				"y": 1.1495479969,
				"z": 3.60468251,
				"element": "H" 
			},
			{
				"x": -0.9572022293,
				"y": 2.0703300014,
				"z": 2.8862901862,
				"element": "H" 
			},
			{
				"x": 1.7207728973,
				"y": 1.3726344113,
				"z": 1.9390459022,
				"element": "H" 
			},
			{
				"x": -1.0813936756,
				"y": -1.8343293368,
				"z": 2.2055203107,
				"element": "H" 
			},
			{
				"x": -1.4606402792,
				"y": -1.7605295917,
				"z": -0.1210410589,
				"element": "H" 
			},
			{
				"x": 0.4881959297,
				"y": -2.1836133382,
				"z": -1.1300880287,
				"element": "H" 
			}
		],
		 "valence_orbital": [ 
			{
				"type": "occ",
				"energy": -0.27939,
				"method": "rhf"
			},
			{
				"type": "occ",
				"energy": -0.27596,
				"method": "rhf"
			},
			{
				"type": "occ",
				"energy": -0.27257,
				"method": "rhf"
			},
			{
				"type": "occ",
				"energy": -0.26506,
				"method": "rhf"
			},
			{
				"type": "occ",
				"energy": -0.23841,
				"method": "rhf"
			},
			{
				"type": "unocc",
				"energy": -0.04013,
				"method": "rhf"
			},
			{
				"type": "unocc",
				"energy": -0.01456,
				"method": "rhf"
			},
			{
				"type": "unocc",
				"energy": 0.01616,
				"method": "rhf"
			},
			{
				"type": "unocc",
				"energy": 0.02761,
				"method": "rhf"
			},
			{
				"type": "unocc",
				"energy": 0.05246,
				"method": "rhf"
			}
		],
		"cosmo_sigma_profile": { 
			"-0.025": 0.0,
			"-0.024": 0.0,
			"-0.023": 0.0,
			"-0.022": 0.0,
			"-0.021": 0.0,
			"-0.02": 0.0,
			"-0.019": 0.0,
			"-0.018": 0.0242705591055,
			"-0.017": 0.794934196137,
			"-0.016": 0.959935400718,
			"-0.015": 1.82729300774,
			"-0.014": 3.9369600299,
			"-0.013": 2.75085378931,
			"-0.012": 4.00340916257,
			"-0.011": 6.43949079893,
			"-0.01": 8.33902692016,
			"-0.009": 10.0723452575,
			"-0.008": 17.7197848449,
			"-0.007": 16.9892811958,
			"-0.006": 10.3908116051,
			"-0.005": 11.0521922258,
			"-0.004": 9.61845398695,
			"-0.003": 10.2074966638,
			"-0.002": 13.1967417361,
			"-0.001": 16.2392835813,
			"0.0": 16.3277771691,
			"0.001": 15.5441965748,
			"0.002": 13.5452950634,
			"0.003": 11.4424336549,
			"0.004": 9.07378327124,
			"0.005": 7.70338304707,
			"0.006": 7.64006420372,
			"0.007": 7.69291845169,
			"0.008": 9.03302115831,
			"0.009": 10.2623399708,
			"0.01": 8.74464228127,
			"0.011": 6.51778490473,
			"0.012": 5.8246485132,
			"0.013": 7.08416206746,
			"0.014": 11.4775946055,
			"0.015": 2.18128223387,
			"0.016": 0.019707451182,
			"0.017": 0.0,
			"0.018": 0.0,
			"0.019": 0.0,
			"0.02": 0.0,
			"0.021": 0.0,
			"0.022": 0.0,
			"0.023": 0.0,
			"0.024": 0.0,
			"0.025": 0.0
		}
	}
}
