{
	 "smiles": "CC1=CC(I)=C(C=C1)[N+]([O-])=O", 
	 "Tm": 292.15, 
	 "num_atms": 17, 
	 "gaussian": { 
		 "optdone": 1, 
		 "sigma_profile": "no", 
		 "theory": "DFT", 
		 "functional": "B3LYP", 
		 "basiset": "6-31G**", 
		 "properties": { 
			 "R2extent": 3242.272, 
			 "electric_dipole_moment_norm": 5.38491672545, 
			 "electric_quadrupole_moment_norm": 17.880637034, 
			 "total_energy": -486.839738734, 
			 "HOMO_LUMO_gap": 0.16611, 
			 "cosmo_polarized_energy": -86533.69, 
			 "cosmo_cavitation_energy": 24.75, 
			 "cosmo_dispersion_energy": -19.53, 
			 "cosmo_repulsion_energy": 1.53, 
			 "cosmo_total_nonelectrostatic_energy": 6.75, 
			 "SMD_solvation_energy": 5.71 
		},
		"coords": [
			{
				"x": 0.7075138222,
				"y": -1.6564983969,
				"z": 1.2404708858,
				"element": "C" 
			},
			{
				"x": -0.435871296,
				"y": -1.1331628083,
				"z": 0.4068858581,
				"element": "C" 
			},
			{
				"x": -0.3359060417,
				"y": -1.0757096827,
				"z": -0.9876529629,
				"element": "C" 
			},
			{
				"x": -1.365445339,
				"y": -0.5615792941,
				"z": -1.7841409017,
				"element": "C" 
			},
			{
				"x": -1.0539205561,
				"y": -0.63643229,
				"z": -3.8742353586,
				"element": "I" 
			},
			{
				"x": -2.5342214652,
				"y": -0.1154699861,
				"z": -1.1529736548,
				"element": "C" 
			},
			{
				"x": -2.6607887599,
				"y": -0.1921838622,
				"z": 0.2377306568,
				"element": "C" 
			},
			{
				"x": -1.620136238,
				"y": -0.6851984069,
				"z": 1.0099771894,
				"element": "C" 
			},
			{
				"x": -3.6832636208,
				"y": 0.4599001227,
				"z": -1.8724717201,
				"element": "N" 
			},
			{
				"x": -3.4683803908,
				"y": 1.0534696055,
				"z": -2.92498798,
				"element": "O" 
			},
			{
				"x": -4.7906224716,
				"y": 0.3253827534,
				"z": -1.350773777,
				"element": "O" 
			},
			{
				"x": 0.3503335717,
				"y": -2.3404391647,
				"z": 2.0168238852,
				"element": "H" 
			},
			{
				"x": 1.4418235793,
				"y": -2.1867764293,
				"z": 0.6291367853,
				"element": "H" 
			},
			{
				"x": 1.2272828026,
				"y": -0.8344277853,
				"z": 1.7468925737,
				"element": "H" 
			},
			{
				"x": 0.5643232303,
				"y": -1.4424999823,
				"z": -1.4685337114,
				"element": "H" 
			},
			{
				"x": -3.587871055,
				"y": 0.1448668781,
				"z": 0.6850962586,
				"element": "H" 
			},
			{
				"x": -1.7285497719,
				"y": -0.727041271,
				"z": 2.0898559738,
				"element": "H" 
			}
		],
		 "valence_orbital": [ 
			{
				"type": "occ",
				"energy": -0.30544,
				"method": "rhf"
			},
			{
				"type": "occ",
				"energy": -0.30245,
				"method": "rhf"
			},
			{
				"type": "occ",
				"energy": -0.27635,
				"method": "rhf"
			},
			{
				"type": "occ",
				"energy": -0.26231,
				"method": "rhf"
			},
			{
				"type": "occ",
				"energy": -0.25476,
				"method": "rhf"
			},
			{
				"type": "unocc",
				"energy": -0.08865,
				"method": "rhf"
			},
			{
				"type": "unocc",
				"energy": -0.05157,
				"method": "rhf"
			},
			{
				"type": "unocc",
				"energy": -0.0374,
				"method": "rhf"
			},
			{
				"type": "unocc",
				"energy": -0.01248,
				"method": "rhf"
			},
			{
				"type": "unocc",
				"energy": 0.04528,
				"method": "rhf"
			}
		],
		"cosmo_sigma_profile": { 
			"0.0": 0.0,
			"0.0": 0.0,
			"0.0": 0.0,
			"0.0": 0.0,
			"0.0": 0.0,
			"0.0": 0.0,
			"0.0": 0.0,
			"0.0": 0.0,
			"0.0": 0.0,
			"0.0": 0.0,
			"0.0": 0.0,
			"0.0": 0.0,
			"0.0": 0.0,
			"0.0": 0.0,
			"0.0": 0.0,
			"0.0": 0.0,
			"0.0": 0.0,
			"0.0": 0.0,
			"0.0": 0.0,
			"0.0": 0.0,
			"0.0": 0.0,
			"0.0": 0.0,
			"0.0": 0.0,
			"0.0": 0.0,
			"0.0": 0.0,
			"0.0": 0.0,
			"0.0": 0.0,
			"0.0": 0.0,
			"0.0": 0.0,
			"0.0": 0.0,
			"0.0": 0.0,
			"0.0": 0.0,
			"0.0": 0.0,
			"0.0": 0.0,
			"0.0": 0.0,
			"0.0": 0.0,
			"0.0": 0.0,
			"0.0": 0.0,
			"0.0": 0.0,
			"0.0": 0.0,
			"0.0": 0.0,
			"0.0": 0.0,
			"0.0": 0.0,
			"0.0": 0.0,
			"0.0": 0.0,
			"0.0": 0.0,
			"0.0": 0.0,
			"0.0": 0.0,
			"0.0": 0.0,
			"0.0": 0.0,
			"0.0": 0.0
		}
	}
}
