{
	 "smiles": "CC1=CC=C(S1)C1=CC(=NN1)C(O)=O", 
	 "Tm": 483.15, 
	 "num_atms": 22, 
	 "gaussian": { 
		 "optdone": 1, 
		 "sigma_profile": "yes", 
		 "theory": "DFT", 
		 "functional": "B3LYP", 
		 "basiset": "6-31G**", 
		 "properties": { 
			 "R2extent": 4500.1409, 
			 "electric_dipole_moment_norm": 8.35476422827, 
			 "electric_quadrupole_moment_norm": 23.3072325697, 
			 "total_energy": -1005.89497839, 
			 "HOMO_LUMO_gap": 0.17397, 
			 "cosmo_polarized_energy": -22.47, 
			 "cosmo_cavitation_energy": 29.21, 
			 "cosmo_dispersion_energy": -21.78, 
			 "cosmo_repulsion_energy": 1.67, 
			 "cosmo_total_nonelectrostatic_energy": 9.1, 
			 "SMD_solvation_energy": 4.9 
		},
		"coords": [
			{
				"x": 3.9667245456,
				"y": -2.0968967743,
				"z": 1.3984677058,
				"element": "C" 
			},
			{
				"x": 2.9767259675,
				"y": -0.9712752406,
				"z": 1.3969424447,
				"element": "C" 
			},
			{
				"x": 2.9141995249,
				"y": 0.1109863272,
				"z": 2.2358105797,
				"element": "C" 
			},
			{
				"x": 1.8276137516,
				"y": 0.9899861071,
				"z": 1.9608462922,
				"element": "C" 
			},
			{
				"x": 1.0550008336,
				"y": 0.5824247124,
				"z": 0.8980636382,
				"element": "C" 
			},
			{
				"x": 1.6808038672,
				"y": -0.9080799885,
				"z": 0.2254011347,
				"element": "S" 
			},
			{
				"x": -0.1177625089,
				"y": 1.2213605031,
				"z": 0.3325340354,
				"element": "C" 
			},
			{
				"x": -1.2131712918,
				"y": 0.7287124543,
				"z": -0.3645089434,
				"element": "C" 
			},
			{
				"x": -2.030237109,
				"y": 1.8600320468,
				"z": -0.6187617197,
				"element": "C" 
			},
			{
				"x": -1.4887499,
				"y": 2.9780288657,
				"z": -0.1238142061,
				"element": "N" 
			},
			{
				"x": -0.342853438,
				"y": 2.5682768598,
				"z": 0.4347933805,
				"element": "N" 
			},
			{
				"x": -3.3491724475,
				"y": 1.9212858661,
				"z": -1.3106975987,
				"element": "C" 
			},
			{
				"x": -3.6054511939,
				"y": 0.8656379657,
				"z": -2.1360644687,
				"element": "O" 
			},
			{
				"x": -4.1590953732,
				"y": 2.8010046388,
				"z": -1.1698711169,
				"element": "O" 
			},
			{
				"x": 4.5154210678,
				"y": -2.1607045054,
				"z": 0.4521034505,
				"element": "H" 
			},
			{
				"x": 3.4827984713,
				"y": -3.0660232196,
				"z": 1.5637791368,
				"element": "H" 
			},
			{
				"x": 4.6954196985,
				"y": -1.9448235812,
				"z": 2.199128001,
				"element": "H" 
			},
			{
				"x": 3.623919468,
				"y": 0.2677435293,
				"z": 3.0408835513,
				"element": "H" 
			},
			{
				"x": 1.608366099,
				"y": 1.8725923482,
				"z": 2.552318474,
				"element": "H" 
			},
			{
				"x": -1.4132012592,
				"y": -0.3116616475,
				"z": -0.577468982,
				"element": "H" 
			},
			{
				"x": 0.279350802,
				"y": 3.2560244077,
				"z": 0.8331319761,
				"element": "H" 
			},
			{
				"x": -2.8044495755,
				"y": 0.3358683251,
				"z": -2.2534167653,
				"element": "H" 
			}
		],
		 "valence_orbital": [ 
			{
				"type": "occ",
				"energy": -0.29124,
				"method": "rhf"
			},
			{
				"type": "occ",
				"energy": -0.28074,
				"method": "rhf"
			},
			{
				"type": "occ",
				"energy": -0.26977,
				"method": "rhf"
			},
			{
				"type": "occ",
				"energy": -0.26429,
				"method": "rhf"
			},
			{
				"type": "occ",
				"energy": -0.22672,
				"method": "rhf"
			},
			{
				"type": "unocc",
				"energy": -0.05275,
				"method": "rhf"
			},
			{
				"type": "unocc",
				"energy": -0.02664,
				"method": "rhf"
			},
			{
				"type": "unocc",
				"energy": 0.00648,
				"method": "rhf"
			},
			{
				"type": "unocc",
				"energy": 0.0241,
				"method": "rhf"
			},
			{
				"type": "unocc",
				"energy": 0.05859,
				"method": "rhf"
			}
		],
		"cosmo_sigma_profile": { 
			"-0.025": 0.0,
			"-0.024": 0.0,
			"-0.023": 0.0,
			"-0.022": 0.0,
			"-0.021": 0.0,
			"-0.02": 0.0,
			"-0.019": 0.0267768405835,
			"-0.018": 0.882762173032,
			"-0.017": 1.97212933892,
			"-0.016": 2.16676244047,
			"-0.015": 1.84070463392,
			"-0.014": 1.87847770788,
			"-0.013": 2.46737042148,
			"-0.012": 3.14638594996,
			"-0.011": 3.13720958787,
			"-0.01": 1.71544451102,
			"-0.009": 2.83670405302,
			"-0.008": 3.62386439056,
			"-0.007": 4.72958711312,
			"-0.006": 7.77814032241,
			"-0.005": 13.2107728015,
			"-0.004": 13.4524675841,
			"-0.003": 16.1593166832,
			"-0.002": 14.4959229894,
			"-0.001": 15.5132424017,
			"0.0": 14.3444979686,
			"0.001": 16.0531875502,
			"0.002": 16.902535524,
			"0.003": 16.3085418778,
			"0.004": 13.9459987952,
			"0.005": 7.1197035326,
			"0.006": 3.16891613921,
			"0.007": 3.17224932458,
			"0.008": 4.48532882209,
			"0.009": 3.34260046793,
			"0.01": 6.02186441883,
			"0.011": 7.26648767816,
			"0.012": 6.27958197053,
			"0.013": 3.67630568984,
			"0.014": 2.21325381978,
			"0.015": 0.571751584488,
			"0.016": 0.0,
			"0.017": 0.0,
			"0.018": 0.0,
			"0.019": 0.0,
			"0.02": 0.0,
			"0.021": 0.0,
			"0.022": 0.0,
			"0.023": 0.0,
			"0.024": 0.0,
			"0.025": 0.0
		}
	}
}
