{
	 "smiles": "OC(=O)C1=CSC(=N1)C1=CC=C(C=C1)C(F)(F)F", 
	 "Tm": 460.15, 
	 "num_atms": 24, 
	 "gaussian": { 
		 "optdone": 1, 
		 "sigma_profile": "yes", 
		 "theory": "DFT", 
		 "functional": "B3LYP", 
		 "basiset": "6-31G**", 
		 "properties": { 
			 "R2extent": 7382.6092, 
			 "electric_dipole_moment_norm": 3.69996852284, 
			 "electric_quadrupole_moment_norm": 34.8237055014, 
			 "total_energy": -1325.7130811, 
			 "HOMO_LUMO_gap": 0.16588, 
			 "cosmo_polarized_energy": -12.99, 
			 "cosmo_cavitation_energy": 32.91, 
			 "cosmo_dispersion_energy": -24.09, 
			 "cosmo_repulsion_energy": 1.73, 
			 "cosmo_total_nonelectrostatic_energy": 10.54, 
			 "SMD_solvation_energy": 7.16 
		},
		"coords": [
			{
				"x": -0.2808568589,
				"y": 4.0528263028,
				"z": 2.0047796464,
				"element": "O" 
			},
			{
				"x": 0.9652870004,
				"y": 4.1513257439,
				"z": 1.5006600874,
				"element": "C" 
			},
			{
				"x": 1.6597309915,
				"y": 5.1281599796,
				"z": 1.6574917053,
				"element": "O" 
			},
			{
				"x": 1.4036557591,
				"y": 2.9465826785,
				"z": 0.7347053586,
				"element": "C" 
			},
			{
				"x": 2.623905001,
				"y": 2.8113745589,
				"z": 0.1313018158,
				"element": "C" 
			},
			{
				"x": 2.7235746085,
				"y": 1.275853673,
				"z": -0.6417868344,
				"element": "S" 
			},
			{
				"x": 1.0825604354,
				"y": 0.9068521908,
				"z": -0.0919103541,
				"element": "C" 
			},
			{
				"x": 0.5497112654,
				"y": 1.8780537622,
				"z": 0.6047421323,
				"element": "N" 
			},
			{
				"x": 0.4093911535,
				"y": -0.3619179265,
				"z": -0.3979825073,
				"element": "C" 
			},
			{
				"x": 1.0351050574,
				"y": -1.3727362743,
				"z": -1.1452609144,
				"element": "C" 
			},
			{
				"x": 0.3724887454,
				"y": -2.564683556,
				"z": -1.4186788616,
				"element": "C" 
			},
			{
				"x": -0.9271217062,
				"y": -2.7643962308,
				"z": -0.9469955239,
				"element": "C" 
			},
			{
				"x": -1.5600981791,
				"y": -1.7660377844,
				"z": -0.2000066972,
				"element": "C" 
			},
			{
				"x": -0.8983006912,
				"y": -0.5751960979,
				"z": 0.0729443352,
				"element": "C" 
			},
			{
				"x": -1.6678600239,
				"y": -4.0300182094,
				"z": -1.2898171808,
				"element": "C" 
			},
			{
				"x": -0.8256414842,
				"y": -5.0697179889,
				"z": -1.4730523169,
				"element": "F" 
			},
			{
				"x": -2.5416450936,
				"y": -4.3755845744,
				"z": -0.3199811819,
				"element": "F" 
			},
			{
				"x": -2.3797038378,
				"y": -3.891467437,
				"z": -2.4315016868,
				"element": "F" 
			},
			{
				"x": -0.6365523243,
				"y": 3.18210181,
				"z": 1.7485231893,
				"element": "H" 
			},
			{
				"x": 3.4315931964,
				"y": 3.5283004822,
				"z": 0.1148593946,
				"element": "H" 
			},
			{
				"x": 2.0466687039,
				"y": -1.2360317332,
				"z": -1.516231156,
				"element": "H" 
			},
			{
				"x": 0.8654654943,
				"y": -3.3431845039,
				"z": -1.9900775908,
				"element": "H" 
			},
			{
				"x": -2.5656881292,
				"y": -1.9271472788,
				"z": 0.1729373689,
				"element": "H" 
			},
			{
				"x": -1.3812690835,
				"y": 0.2015884135,
				"z": 0.6539377724,
				"element": "H" 
			}
		],
		 "valence_orbital": [ 
			{
				"type": "occ",
				"energy": -0.3169,
				"method": "rhf"
			},
			{
				"type": "occ",
				"energy": -0.30786,
				"method": "rhf"
			},
			{
				"type": "occ",
				"energy": -0.28698,
				"method": "rhf"
			},
			{
				"type": "occ",
				"energy": -0.27795,
				"method": "rhf"
			},
			{
				"type": "occ",
				"energy": -0.25509,
				"method": "rhf"
			},
			{
				"type": "unocc",
				"energy": -0.08921,
				"method": "rhf"
			},
			{
				"type": "unocc",
				"energy": -0.04963,
				"method": "rhf"
			},
			{
				"type": "unocc",
				"energy": -0.03464,
				"method": "rhf"
			},
			{
				"type": "unocc",
				"energy": -0.01004,
				"method": "rhf"
			},
			{
				"type": "unocc",
				"energy": 0.00571,
				"method": "rhf"
			}
		],
		"cosmo_sigma_profile": { 
			"-0.025": 0.0,
			"-0.024": 0.0,
			"-0.023": 0.0,
			"-0.022": 0.0,
			"-0.021": 0.0,
			"-0.02": 0.0,
			"-0.019": 0.0,
			"-0.018": 0.0,
			"-0.017": 0.0,
			"-0.016": 0.0,
			"-0.015": 0.0746019870302,
			"-0.014": 0.320802932333,
			"-0.013": 0.876583748434,
			"-0.012": 0.215681876785,
			"-0.011": 1.7030176719,
			"-0.01": 2.1277224277,
			"-0.009": 2.44833142849,
			"-0.008": 5.33906776327,
			"-0.007": 10.3600505157,
			"-0.006": 10.8596550658,
			"-0.005": 11.3471759464,
			"-0.004": 12.3492601978,
			"-0.003": 13.4970022672,
			"-0.002": 20.1217263581,
			"-0.001": 24.239242412,
			"0.0": 26.9315188221,
			"0.001": 29.3762833957,
			"0.002": 34.1767385371,
			"0.003": 28.465392169,
			"0.004": 4.26962385203,
			"0.005": 2.27594175008,
			"0.006": 2.20963507143,
			"0.007": 2.16400364817,
			"0.008": 2.82424730366,
			"0.009": 4.02873054761,
			"0.01": 5.28791780945,
			"0.011": 4.88948733719,
			"0.012": 4.12670742958,
			"0.013": 1.25642364094,
			"0.014": 0.0,
			"0.015": 0.0,
			"0.016": 0.0,
			"0.017": 0.0,
			"0.018": 0.0,
			"0.019": 0.0,
			"0.02": 0.0,
			"0.021": 0.0,
			"0.022": 0.0,
			"0.023": 0.0,
			"0.024": 0.0,
			"0.025": 0.0
		}
	}
}
