{
	 "smiles": "OC(=O)C1CN(C(=O)C1)C1=C2C=CC=CC2=CC=C1", 
	 "Tm": 481.15, 
	 "num_atms": 32, 
	 "gaussian": { 
		 "optdone": 1, 
		 "sigma_profile": "yes", 
		 "theory": "DFT", 
		 "functional": "B3LYP", 
		 "basiset": "6-31G**", 
		 "properties": { 
			 "R2extent": 5946.2028, 
			 "electric_dipole_moment_norm": 3.46394765982, 
			 "electric_quadrupole_moment_norm": 23.510394798, 
			 "total_energy": -859.892189434, 
			 "HOMO_LUMO_gap": 0.17095, 
			 "cosmo_polarized_energy": -19.04, 
			 "cosmo_cavitation_energy": 35.8, 
			 "cosmo_dispersion_energy": -25.08, 
			 "cosmo_repulsion_energy": 1.91, 
			 "cosmo_total_nonelectrostatic_energy": 12.63, 
			 "SMD_solvation_energy": 7.51 
		},
		"coords": [
			{
				"x": 1.0189816985,
				"y": 1.2536285317,
				"z": -5.3565732061,
				"element": "O" 
			},
			{
				"x": 0.6378974077,
				"y": 1.3326775533,
				"z": -4.0613077932,
				"element": "C" 
			},
			{
				"x": -0.5155637702,
				"y": 1.5021552695,
				"z": -3.7295814103,
				"element": "O" 
			},
			{
				"x": 1.8313901715,
				"y": 1.1857613238,
				"z": -3.1266894728,
				"element": "C" 
			},
			{
				"x": 1.3960148092,
				"y": 1.3070803869,
				"z": -1.6549906765,
				"element": "C" 
			},
			{
				"x": 1.1614284135,
				"y": -0.0810052724,
				"z": -1.2470948811,
				"element": "N" 
			},
			{
				"x": 1.7321235204,
				"y": -1.0118373597,
				"z": -2.0926379218,
				"element": "C" 
			},
			{
				"x": 1.6949633168,
				"y": -2.2214476848,
				"z": -1.9661030906,
				"element": "O" 
			},
			{
				"x": 2.4385205178,
				"y": -0.2336584131,
				"z": -3.2081738803,
				"element": "C" 
			},
			{
				"x": 0.3321496619,
				"y": -0.4099371979,
				"z": -0.1306803319,
				"element": "C" 
			},
			{
				"x": 0.8917720775,
				"y": -0.9948351145,
				"z": 1.0468908538,
				"element": "C" 
			},
			{
				"x": 2.2733316771,
				"y": -1.2957333406,
				"z": 1.1835522724,
				"element": "C" 
			},
			{
				"x": 2.7617529894,
				"y": -1.8552066372,
				"z": 2.3423586033,
				"element": "C" 
			},
			{
				"x": 1.8936565167,
				"y": -2.1465042723,
				"z": 3.4225825363,
				"element": "C" 
			},
			{
				"x": 0.5508412479,
				"y": -1.8657715527,
				"z": 3.3221803038,
				"element": "C" 
			},
			{
				"x": 0.0115736292,
				"y": -1.2828361703,
				"z": 2.1429407906,
				"element": "C" 
			},
			{
				"x": -1.3696872077,
				"y": -0.9723103554,
				"z": 2.0310943252,
				"element": "C" 
			},
			{
				"x": -1.8723727359,
				"y": -0.4019570502,
				"z": 0.88421141,
				"element": "C" 
			},
			{
				"x": -1.0163419289,
				"y": -0.1235260879,
				"z": -0.2047134372,
				"element": "C" 
			},
			{
				"x": 0.2096168796,
				"y": 1.3421177761,
				"z": -5.887835737,
				"element": "H" 
			},
			{
				"x": 2.558921629,
				"y": 1.9532708415,
				"z": -3.407424775,
				"element": "H" 
			},
			{
				"x": 0.485909669,
				"y": 1.9002904952,
				"z": -1.5520490721,
				"element": "H" 
			},
			{
				"x": 2.1858919047,
				"y": 1.7651933249,
				"z": -1.0440886135,
				"element": "H" 
			},
			{
				"x": 3.5144769283,
				"y": -0.2155243483,
				"z": -3.0007716707,
				"element": "H" 
			},
			{
				"x": 2.2978101631,
				"y": -0.7273559237,
				"z": -4.1705384196,
				"element": "H" 
			},
			{
				"x": 2.9417434562,
				"y": -1.0851614031,
				"z": 0.3570747522,
				"element": "H" 
			},
			{
				"x": 3.8207726568,
				"y": -2.0803528691,
				"z": 2.4290966946,
				"element": "H" 
			},
			{
				"x": 2.2923846643,
				"y": -2.5924936476,
				"z": 4.3291314019,
				"element": "H" 
			},
			{
				"x": -0.1218761003,
				"y": -2.0852751393,
				"z": 4.1473050296,
				"element": "H" 
			},
			{
				"x": -2.02418344,
				"y": -1.193489451,
				"z": 2.8701328567,
				"element": "H" 
			},
			{
				"x": -2.9300794081,
				"y": -0.1699685026,
				"z": 0.8037159007,
				"element": "H" 
			},
			{
				"x": -1.4110210153,
				"y": 0.3123122906,
				"z": -1.1179133415,
				"element": "H" 
			}
		],
		 "valence_orbital": [ 
			{
				"type": "occ",
				"energy": -0.2849,
				"method": "rhf"
			},
			{
				"type": "occ",
				"energy": -0.24947,
				"method": "rhf"
			},
			{
				"type": "occ",
				"energy": -0.24427,
				"method": "rhf"
			},
			{
				"type": "occ",
				"energy": -0.24122,
				"method": "rhf"
			},
			{
				"type": "occ",
				"energy": -0.21111,
				"method": "rhf"
			},
			{
				"type": "unocc",
				"energy": -0.04016,
				"method": "rhf"
			},
			{
				"type": "unocc",
				"energy": -0.00865,
				"method": "rhf"
			},
			{
				"type": "unocc",
				"energy": -0.00776,
				"method": "rhf"
			},
			{
				"type": "unocc",
				"energy": 0.02223,
				"method": "rhf"
			},
			{
				"type": "unocc",
				"energy": 0.03773,
				"method": "rhf"
			}
		],
		"cosmo_sigma_profile": { 
			"-0.025": 0.0,
			"-0.024": 0.0,
			"-0.023": 0.0,
			"-0.022": 0.0,
			"-0.021": 0.0,
			"-0.02": 0.0,
			"-0.019": 0.173954188732,
			"-0.018": 1.18766167439,
			"-0.017": 0.581679778349,
			"-0.016": 1.00471110878,
			"-0.015": 0.78026731994,
			"-0.014": 0.252463610723,
			"-0.013": 0.454897137148,
			"-0.012": 1.05631970784,
			"-0.011": 1.09630117032,
			"-0.01": 0.588991143122,
			"-0.009": 0.509861901925,
			"-0.008": 1.54018438637,
			"-0.007": 8.12439353254,
			"-0.006": 24.0709032742,
			"-0.005": 25.3944013896,
			"-0.004": 24.8998048596,
			"-0.003": 22.0085886207,
			"-0.002": 16.952335316,
			"-0.001": 15.0801538941,
			"0.0": 13.0844432576,
			"0.001": 14.5508501544,
			"0.002": 16.0863994088,
			"0.003": 18.4433372832,
			"0.004": 23.1202544534,
			"0.005": 14.7595952375,
			"0.006": 4.10284553384,
			"0.007": 4.41529409731,
			"0.008": 4.70349914687,
			"0.009": 3.99177256039,
			"0.01": 4.25702210515,
			"0.011": 5.13589792438,
			"0.012": 3.47371120925,
			"0.013": 5.20404886613,
			"0.014": 3.65566185339,
			"0.015": 0.37409443784,
			"0.016": 0.0,
			"0.017": 0.0,
			"0.018": 0.0,
			"0.019": 0.0,
			"0.02": 0.0,
			"0.021": 0.0,
			"0.022": 0.0,
			"0.023": 0.0,
			"0.024": 0.0,
			"0.025": 0.0
		}
	}
}
