{
	 "smiles": "CC1=NC2=C(C=CC=C2)N1CC(=O)NN", 
	 "Tm": 507.15, 
	 "num_atms": 27, 
	 "gaussian": { 
		 "optdone": 1, 
		 "sigma_profile": "yes", 
		 "theory": "DFT", 
		 "functional": "B3LYP", 
		 "basiset": "6-31G**", 
		 "properties": { 
			 "R2extent": 3311.6141, 
			 "electric_dipole_moment_norm": 5.01969574875, 
			 "electric_quadrupole_moment_norm": 20.8189342751, 
			 "total_energy": -682.518926284, 
			 "HOMO_LUMO_gap": 0.20634, 
			 "cosmo_polarized_energy": -19.97, 
			 "cosmo_cavitation_energy": 30.22, 
			 "cosmo_dispersion_energy": -21.68, 
			 "cosmo_repulsion_energy": 1.71, 
			 "cosmo_total_nonelectrostatic_energy": 10.25, 
			 "SMD_solvation_energy": 4.47 
		},
		"coords": [
			{
				"x": 2.7643595778,
				"y": -0.4919809548,
				"z": -0.7177187189,
				"element": "C" 
			},
			{
				"x": 1.4036229403,
				"y": -0.9822626774,
				"z": -0.3436310284,
				"element": "C" 
			},
			{
				"x": 1.0166878724,
				"y": -2.2320779941,
				"z": -0.4451185187,
				"element": "N" 
			},
			{
				"x": -0.3080227683,
				"y": -2.2426459013,
				"z": -0.0307214227,
				"element": "C" 
			},
			{
				"x": -0.7197333584,
				"y": -0.939257722,
				"z": 0.3314478524,
				"element": "C" 
			},
			{
				"x": -2.0138071472,
				"y": -0.6521955344,
				"z": 0.77421403,
				"element": "C" 
			},
			{
				"x": -2.8983412795,
				"y": -1.7274854028,
				"z": 0.8470477938,
				"element": "C" 
			},
			{
				"x": -2.5054888403,
				"y": -3.0336760448,
				"z": 0.494504978,
				"element": "C" 
			},
			{
				"x": -1.2133929302,
				"y": -3.3070661081,
				"z": 0.0541545834,
				"element": "C" 
			},
			{
				"x": 0.4035826447,
				"y": -0.1415361968,
				"z": 0.1327747811,
				"element": "N" 
			},
			{
				"x": 0.4699191967,
				"y": 1.2956604321,
				"z": 0.3366776745,
				"element": "C" 
			},
			{
				"x": 0.1172399924,
				"y": 1.718711418,
				"z": 1.7718834972,
				"element": "C" 
			},
			{
				"x": -0.9221464158,
				"y": 2.3061844231,
				"z": 2.0353434914,
				"element": "O" 
			},
			{
				"x": 1.0157922883,
				"y": 1.4064973948,
				"z": 2.7564630681,
				"element": "N" 
			},
			{
				"x": 2.2146685933,
				"y": 0.7284433382,
				"z": 2.511823101,
				"element": "N" 
			},
			{
				"x": 3.3614015343,
				"y": -1.3523133436,
				"z": -1.0219003177,
				"element": "H" 
			},
			{
				"x": 3.2524117296,
				"y": 0.0097287009,
				"z": 0.1238762931,
				"element": "H" 
			},
			{
				"x": 2.7263488671,
				"y": 0.2136929125,
				"z": -1.5565109141,
				"element": "H" 
			},
			{
				"x": -2.3136055484,
				"y": 0.3515922564,
				"z": 1.055539974,
				"element": "H" 
			},
			{
				"x": -3.9155174131,
				"y": -1.5518854332,
				"z": 1.1850976248,
				"element": "H" 
			},
			{
				"x": -3.2285222831,
				"y": -3.8410121653,
				"z": 0.5675780919,
				"element": "H" 
			},
			{
				"x": -0.9042670519,
				"y": -4.3099674548,
				"z": -0.2229833933,
				"element": "H" 
			},
			{
				"x": 1.4750463283,
				"y": 1.6325270648,
				"z": 0.0815907219,
				"element": "H" 
			},
			{
				"x": -0.2548186031,
				"y": 1.8043734082,
				"z": -0.3057830984,
				"element": "H" 
			},
			{
				"x": 0.707190789,
				"y": 1.6094962978,
				"z": 3.7026607146,
				"element": "H" 
			},
			{
				"x": 2.1802854453,
				"y": -0.2125836417,
				"z": 2.8980275972,
				"element": "H" 
			},
			{
				"x": 2.9884058396,
				"y": 1.2338389284,
				"z": 2.9345615437,
				"element": "H" 
			}
		],
		 "valence_orbital": [ 
			{
				"type": "occ",
				"energy": -0.27326,
				"method": "rhf"
			},
			{
				"type": "occ",
				"energy": -0.26698,
				"method": "rhf"
			},
			{
				"type": "occ",
				"energy": -0.25532,
				"method": "rhf"
			},
			{
				"type": "occ",
				"energy": -0.21447,
				"method": "rhf"
			},
			{
				"type": "occ",
				"energy": -0.21082,
				"method": "rhf"
			},
			{
				"type": "unocc",
				"energy": -0.00448,
				"method": "rhf"
			},
			{
				"type": "unocc",
				"energy": 0.00412,
				"method": "rhf"
			},
			{
				"type": "unocc",
				"energy": 0.02912,
				"method": "rhf"
			},
			{
				"type": "unocc",
				"energy": 0.04857,
				"method": "rhf"
			},
			{
				"type": "unocc",
				"energy": 0.06504,
				"method": "rhf"
			}
		],
		"cosmo_sigma_profile": { 
			"-0.025": 0.0,
			"-0.024": 0.0,
			"-0.023": 0.0,
			"-0.022": 0.0,
			"-0.021": 0.0,
			"-0.02": 0.0,
			"-0.019": 0.0,
			"-0.018": 0.0,
			"-0.017": 0.0,
			"-0.016": 0.0,
			"-0.015": 0.0,
			"-0.014": 0.912275162492,
			"-0.013": 1.71456903513,
			"-0.012": 4.05838159555,
			"-0.011": 5.70076000874,
			"-0.01": 5.45998705517,
			"-0.009": 3.56805801438,
			"-0.008": 3.17702578106,
			"-0.007": 5.70146633739,
			"-0.006": 9.10331219117,
			"-0.005": 15.1622564479,
			"-0.004": 17.1933019854,
			"-0.003": 16.4698127883,
			"-0.002": 16.5513877029,
			"-0.001": 16.6437487508,
			"0.0": 15.1591473878,
			"0.001": 12.7080484132,
			"0.002": 12.0699381266,
			"0.003": 12.5772817834,
			"0.004": 9.83673665748,
			"0.005": 12.9342689447,
			"0.006": 11.2169433429,
			"0.007": 5.74647404395,
			"0.008": 2.80536786034,
			"0.009": 2.05203720791,
			"0.01": 2.44652790123,
			"0.011": 2.85439385227,
			"0.012": 3.37188672608,
			"0.013": 5.80660137752,
			"0.014": 3.06535700843,
			"0.015": 0.800873581804,
			"0.016": 1.14539165251,
			"0.017": 0.856860638652,
			"0.018": 0.528332719317,
			"0.019": 0.0454614794362,
			"0.02": 0.0,
			"0.021": 0.0,
			"0.022": 0.0,
			"0.023": 0.0,
			"0.024": 0.0,
			"0.025": 0.0
		}
	}
}
