{
	 "smiles": "OC1CCN(CC1)S(=O)(=O)C1=CC=C(C=C1)C#N", 
	 "Tm": 435.15, 
	 "num_atms": 32, 
	 "gaussian": { 
		 "optdone": 1, 
		 "sigma_profile": "yes", 
		 "theory": "DFT", 
		 "functional": "B3LYP", 
		 "basiset": "6-31G**", 
		 "properties": { 
			 "R2extent": 6568.2821, 
			 "electric_dipole_moment_norm": 3.64931931324, 
			 "electric_quadrupole_moment_norm": 16.903667466, 
			 "total_energy": -1198.97660295, 
			 "HOMO_LUMO_gap": 0.17951, 
			 "cosmo_polarized_energy": -19.9, 
			 "cosmo_cavitation_energy": 36.52, 
			 "cosmo_dispersion_energy": -25.4, 
			 "cosmo_repulsion_energy": 1.9, 
			 "cosmo_total_nonelectrostatic_energy": 13.03, 
			 "SMD_solvation_energy": 6.03 
		},
		"coords": [
			{
				"x": 3.1728723359,
				"y": -0.6401235921,
				"z": -0.6140890686,
				"element": "O" 
			},
			{
				"x": 2.5189084652,
				"y": 0.1184770569,
				"z": -1.6265157068,
				"element": "C" 
			},
			{
				"x": 1.3443426534,
				"y": 0.9427532298,
				"z": -1.0543925685,
				"element": "C" 
			},
			{
				"x": 0.0302412133,
				"y": 0.1325350667,
				"z": -1.0440361468,
				"element": "C" 
			},
			{
				"x": 0.3651568858,
				"y": -1.3098136225,
				"z": -0.9749074467,
				"element": "N" 
			},
			{
				"x": 0.9870473262,
				"y": -1.8211803258,
				"z": -2.2333557063,
				"element": "C" 
			},
			{
				"x": 2.0052574716,
				"y": -0.7831444747,
				"z": -2.7580792193,
				"element": "C" 
			},
			{
				"x": -0.8852937028,
				"y": -2.3086513529,
				"z": -0.390919341,
				"element": "S" 
			},
			{
				"x": -0.4365801308,
				"y": -3.6856196821,
				"z": -0.6096721507,
				"element": "O" 
			},
			{
				"x": -2.1955699532,
				"y": -1.8547005932,
				"z": -0.8748132058,
				"element": "O" 
			},
			{
				"x": -0.8182037729,
				"y": -1.9631966664,
				"z": 1.3752654237,
				"element": "C" 
			},
			{
				"x": 0.2317741106,
				"y": -2.4922241345,
				"z": 2.1311729889,
				"element": "C" 
			},
			{
				"x": 0.2713841791,
				"y": -2.2517514848,
				"z": 3.499593339,
				"element": "C" 
			},
			{
				"x": -0.7444571758,
				"y": -1.4893128095,
				"z": 4.1052749421,
				"element": "C" 
			},
			{
				"x": -1.8022274812,
				"y": -0.9780927329,
				"z": 3.3363472287,
				"element": "C" 
			},
			{
				"x": -1.8407325927,
				"y": -1.2194932793,
				"z": 1.9646224198,
				"element": "C" 
			},
			{
				"x": -0.7022428085,
				"y": -1.2385494723,
				"z": 5.5175138304,
				"element": "C" 
			},
			{
				"x": -0.6671226688,
				"y": -1.0330838641,
				"z": 6.6615107218,
				"element": "N" 
			},
			{
				"x": 2.4796487102,
				"y": -1.1652552703,
				"z": -0.1870488151,
				"element": "H" 
			},
			{
				"x": 3.2843111176,
				"y": 0.7970102853,
				"z": -2.0158546026,
				"element": "H" 
			},
			{
				"x": 1.19432782,
				"y": 1.8535521782,
				"z": -1.644852467,
				"element": "H" 
			},
			{
				"x": 1.6182798679,
				"y": 1.2522609316,
				"z": -0.0412151843,
				"element": "H" 
			},
			{
				"x": -0.5800025311,
				"y": 0.3346259361,
				"z": -1.9345709221,
				"element": "H" 
			},
			{
				"x": -0.5773672976,
				"y": 0.3968225901,
				"z": -0.1758355977,
				"element": "H" 
			},
			{
				"x": 1.4742610378,
				"y": -2.7655218758,
				"z": -1.9911639763,
				"element": "H" 
			},
			{
				"x": 0.2251654745,
				"y": -2.0236414037,
				"z": -2.9974205902,
				"element": "H" 
			},
			{
				"x": 1.5419436886,
				"y": -0.1547569013,
				"z": -3.5281438473,
				"element": "H" 
			},
			{
				"x": 2.8403102889,
				"y": -1.3094091658,
				"z": -3.2286913392,
				"element": "H" 
			},
			{
				"x": 0.99540367,
				"y": -3.0968010734,
				"z": 1.6540449986,
				"element": "H" 
			},
			{
				"x": 1.0766383187,
				"y": -2.651957787,
				"z": 4.1057708164,
				"element": "H" 
			},
			{
				"x": -2.5862018024,
				"y": -0.4018464477,
				"z": 3.8153667702,
				"element": "H" 
			},
			{
				"x": -2.6567727176,
				"y": -0.8514092623,
				"z": 1.3527944228,
				"element": "H" 
			}
		],
		 "valence_orbital": [ 
			{
				"type": "occ",
				"energy": -0.31371,
				"method": "rhf"
			},
			{
				"type": "occ",
				"energy": -0.29919,
				"method": "rhf"
			},
			{
				"type": "occ",
				"energy": -0.29308,
				"method": "rhf"
			},
			{
				"type": "occ",
				"energy": -0.27171,
				"method": "rhf"
			},
			{
				"type": "occ",
				"energy": -0.26462,
				"method": "rhf"
			},
			{
				"type": "unocc",
				"energy": -0.08511,
				"method": "rhf"
			},
			{
				"type": "unocc",
				"energy": -0.04883,
				"method": "rhf"
			},
			{
				"type": "unocc",
				"energy": 0.02015,
				"method": "rhf"
			},
			{
				"type": "unocc",
				"energy": 0.03253,
				"method": "rhf"
			},
			{
				"type": "unocc",
				"energy": 0.03538,
				"method": "rhf"
			}
		],
		"cosmo_sigma_profile": { 
			"-0.025": 0.0,
			"-0.024": 0.0,
			"-0.023": 0.0,
			"-0.022": 0.0,
			"-0.021": 0.0,
			"-0.02": 0.0,
			"-0.019": 0.0,
			"-0.018": 0.0,
			"-0.017": 0.0,
			"-0.016": 0.0,
			"-0.015": 0.0,
			"-0.014": 0.0,
			"-0.013": 0.0,
			"-0.012": 0.0,
			"-0.011": 0.0,
			"-0.01": 0.0457059682391,
			"-0.009": 5.61210330568,
			"-0.008": 10.396087303,
			"-0.007": 8.63281821272,
			"-0.006": 10.2690571619,
			"-0.005": 23.8781866124,
			"-0.004": 36.5617759666,
			"-0.003": 30.5497064089,
			"-0.002": 25.270300533,
			"-0.001": 24.9989991247,
			"0.0": 19.0409079776,
			"0.001": 8.89436251199,
			"0.002": 5.13627092514,
			"0.003": 5.91595800997,
			"0.004": 6.21417514815,
			"0.005": 6.87402815629,
			"0.006": 5.91184239349,
			"0.007": 6.39667789124,
			"0.008": 8.45792074158,
			"0.009": 8.05876714915,
			"0.01": 12.669789487,
			"0.011": 10.1010664993,
			"0.012": 4.33034590161,
			"0.013": 2.11367726973,
			"0.014": 1.88369412879,
			"0.015": 1.6664819247,
			"0.016": 0.0,
			"0.017": 0.0,
			"0.018": 0.0,
			"0.019": 0.0,
			"0.02": 0.0,
			"0.021": 0.0,
			"0.022": 0.0,
			"0.023": 0.0,
			"0.024": 0.0,
			"0.025": 0.0
		}
	}
}
