{
	 "smiles": "CC1=C(O)C=CC(=C1)C(O)=O", 
	 "Tm": 447.15, 
	 "num_atms": 19, 
	 "gaussian": { 
		 "optdone": 1, 
		 "sigma_profile": "yes", 
		 "theory": "DFT", 
		 "functional": "B3LYP", 
		 "basiset": "6-31G**", 
		 "properties": { 
			 "R2extent": 3790.2206, 
			 "electric_dipole_moment_norm": 5.15381264017, 
			 "electric_quadrupole_moment_norm": 25.5513061122, 
			 "total_energy": -535.358082442, 
			 "HOMO_LUMO_gap": 0.19778, 
			 "cosmo_polarized_energy": -17.92, 
			 "cosmo_cavitation_energy": 23.35, 
			 "cosmo_dispersion_energy": -17.33, 
			 "cosmo_repulsion_energy": 1.39, 
			 "cosmo_total_nonelectrostatic_energy": 7.41, 
			 "SMD_solvation_energy": 5.59 
		},
		"coords": [
			{
				"x": -3.8251409729,
				"y": 0.3832928668,
				"z": 0.0012103025,
				"element": "C" 
			},
			{
				"x": -2.5237992984,
				"y": 0.7875978336,
				"z": -0.641408865,
				"element": "C" 
			},
			{
				"x": -1.5842484355,
				"y": -0.1960513371,
				"z": -1.0081470436,
				"element": "C" 
			},
			{
				"x": -1.9159111588,
				"y": -1.4893961657,
				"z": -0.73377177,
				"element": "O" 
			},
			{
				"x": -0.3799797006,
				"y": 0.1526640208,
				"z": -1.6297993666,
				"element": "C" 
			},
			{
				"x": -0.0908172527,
				"y": 1.4864320661,
				"z": -1.8894942801,
				"element": "C" 
			},
			{
				"x": -0.9927266223,
				"y": 2.4894454401,
				"z": -1.5155644225,
				"element": "C" 
			},
			{
				"x": -2.2023283365,
				"y": 2.1175943464,
				"z": -0.9055820149,
				"element": "C" 
			},
			{
				"x": -0.6250140856,
				"y": 3.9041458461,
				"z": -1.8238521385,
				"element": "C" 
			},
			{
				"x": -1.3029452995,
				"y": 4.8775184731,
				"z": -1.1527547747,
				"element": "O" 
			},
			{
				"x": 0.2299548505,
				"y": 4.2131349259,
				"z": -2.6221774544,
				"element": "O" 
			},
			{
				"x": -4.4466237791,
				"y": 1.2573554696,
				"z": 0.2121511346,
				"element": "H" 
			},
			{
				"x": -4.3923744672,
				"y": -0.2950675807,
				"z": -0.6451704564,
				"element": "H" 
			},
			{
				"x": -3.6531151539,
				"y": -0.1526941447,
				"z": 0.9409984011,
				"element": "H" 
			},
			{
				"x": -1.2080734256,
				"y": -2.0736114719,
				"z": -1.0361533831,
				"element": "H" 
			},
			{
				"x": 0.3266461962,
				"y": -0.625419713,
				"z": -1.9112331812,
				"element": "H" 
			},
			{
				"x": 0.8322741704,
				"y": 1.7740065612,
				"z": -2.380469371,
				"element": "H" 
			},
			{
				"x": -2.9481036908,
				"y": 2.8705235455,
				"z": -0.6572494576,
				"element": "H" 
			},
			{
				"x": -1.8211735378,
				"y": 4.486829018,
				"z": -0.4361318585,
				"element": "H" 
			}
		],
		 "valence_orbital": [ 
			{
				"type": "occ",
				"energy": -0.34872,
				"method": "rhf"
			},
			{
				"type": "occ",
				"energy": -0.30751,
				"method": "rhf"
			},
			{
				"type": "occ",
				"energy": -0.267,
				"method": "rhf"
			},
			{
				"type": "occ",
				"energy": -0.2653,
				"method": "rhf"
			},
			{
				"type": "occ",
				"energy": -0.23648,
				"method": "rhf"
			},
			{
				"type": "unocc",
				"energy": -0.0387,
				"method": "rhf"
			},
			{
				"type": "unocc",
				"energy": -0.01784,
				"method": "rhf"
			},
			{
				"type": "unocc",
				"energy": 0.05385,
				"method": "rhf"
			},
			{
				"type": "unocc",
				"energy": 0.05651,
				"method": "rhf"
			},
			{
				"type": "unocc",
				"energy": 0.06723,
				"method": "rhf"
			}
		],
		"cosmo_sigma_profile": { 
			"-0.025": 0.0,
			"-0.024": 0.0,
			"-0.023": 0.0,
			"-0.022": 0.0,
			"-0.021": 0.0,
			"-0.02": 0.0,
			"-0.019": 0.0714919778247,
			"-0.018": 1.50606279152,
			"-0.017": 2.40510928193,
			"-0.016": 1.68731845748,
			"-0.015": 1.89039134231,
			"-0.014": 1.89599022621,
			"-0.013": 2.30744516483,
			"-0.012": 2.36690408981,
			"-0.011": 1.88571189576,
			"-0.01": 1.86308043593,
			"-0.009": 2.29992101794,
			"-0.008": 2.67601322684,
			"-0.007": 4.57408645022,
			"-0.006": 5.25886523266,
			"-0.005": 6.95577752057,
			"-0.004": 8.81481963335,
			"-0.003": 10.5579573364,
			"-0.002": 10.1641692191,
			"-0.001": 13.5629315753,
			"0.0": 14.9885906064,
			"0.001": 11.8752961196,
			"0.002": 11.9461726012,
			"0.003": 13.5388922658,
			"0.004": 10.0918851963,
			"0.005": 3.81258999326,
			"0.006": 4.41858423009,
			"0.007": 4.12778053482,
			"0.008": 3.99262354302,
			"0.009": 4.44355300532,
			"0.01": 5.29868375953,
			"0.011": 4.90868102507,
			"0.012": 5.91138517269,
			"0.013": 2.97462079685,
			"0.014": 0.466771251124,
			"0.015": 0.0,
			"0.016": 0.0,
			"0.017": 0.0,
			"0.018": 0.0,
			"0.019": 0.0,
			"0.02": 0.0,
			"0.021": 0.0,
			"0.022": 0.0,
			"0.023": 0.0,
			"0.024": 0.0,
			"0.025": 0.0
		}
	}
}
