{
	 "smiles": "NC(=NO)C1=CN=C(C=C1)N1CCCCC1", 
	 "Tm": 439.15, 
	 "num_atms": 32, 
	 "gaussian": { 
		 "optdone": 1, 
		 "sigma_profile": "yes", 
		 "theory": "DFT", 
		 "functional": "B3LYP", 
		 "basiset": "6-31G**", 
		 "properties": { 
			 "R2extent": 5886.0065, 
			 "electric_dipole_moment_norm": 3.09216320721, 
			 "electric_quadrupole_moment_norm": 13.1994586116, 
			 "total_energy": -723.000362258, 
			 "HOMO_LUMO_gap": 0.17162, 
			 "cosmo_polarized_energy": -14.42, 
			 "cosmo_cavitation_energy": 33.71, 
			 "cosmo_dispersion_energy": -25.34, 
			 "cosmo_repulsion_energy": 1.99, 
			 "cosmo_total_nonelectrostatic_energy": 10.36, 
			 "SMD_solvation_energy": 3.6 
		},
		"coords": [
			{
				"x": -2.0355390553,
				"y": 3.6281243794,
				"z": -0.9682278002,
				"element": "N" 
			},
			{
				"x": -2.3715633228,
				"y": 2.2872363216,
				"z": -0.8588063576,
				"element": "C" 
			},
			{
				"x": -3.5893101409,
				"y": 1.848916077,
				"z": -0.8125298229,
				"element": "N" 
			},
			{
				"x": -4.4920005534,
				"y": 2.9533710928,
				"z": -0.7577571935,
				"element": "O" 
			},
			{
				"x": -1.2767515148,
				"y": 1.2994308697,
				"z": -0.8525987215,
				"element": "C" 
			},
			{
				"x": -1.439138728,
				"y": 0.0321312641,
				"z": -0.2737857134,
				"element": "C" 
			},
			{
				"x": -0.4978937925,
				"y": -0.9055053827,
				"z": -0.2362518528,
				"element": "N" 
			},
			{
				"x": 0.7082290652,
				"y": -0.645711234,
				"z": -0.7876750403,
				"element": "C" 
			},
			{
				"x": 0.9822214521,
				"y": 0.6112315815,
				"z": -1.3852539042,
				"element": "C" 
			},
			{
				"x": -0.0190207606,
				"y": 1.5679019503,
				"z": -1.4154895513,
				"element": "C" 
			},
			{
				"x": 1.6496025477,
				"y": -1.647342782,
				"z": -0.748923244,
				"element": "N" 
			},
			{
				"x": 1.4103777896,
				"y": -2.903610662,
				"z": -0.0377333866,
				"element": "C" 
			},
			{
				"x": 1.7286093341,
				"y": -4.1174188257,
				"z": -0.9279111666,
				"element": "C" 
			},
			{
				"x": 3.0190290182,
				"y": -3.9016756483,
				"z": -1.7637436307,
				"element": "C" 
			},
			{
				"x": 3.827361262,
				"y": -2.711222622,
				"z": -1.2328701093,
				"element": "C" 
			},
			{
				"x": 2.9914493795,
				"y": -1.4257066897,
				"z": -1.2874566609,
				"element": "C" 
			},
			{
				"x": -1.1941995953,
				"y": 3.9010277913,
				"z": -0.4798358216,
				"element": "H" 
			},
			{
				"x": -2.8210608912,
				"y": 4.2449532318,
				"z": -0.8070127421,
				"element": "H" 
			},
			{
				"x": -5.3463094294,
				"y": 2.5065104993,
				"z": -0.7401096998,
				"element": "H" 
			},
			{
				"x": -2.391415897,
				"y": -0.2196718487,
				"z": 0.1869330414,
				"element": "H" 
			},
			{
				"x": 1.9484364456,
				"y": 0.8296108845,
				"z": -1.8212167619,
				"element": "H" 
			},
			{
				"x": 0.1668249156,
				"y": 2.5240741975,
				"z": -1.8964665462,
				"element": "H" 
			},
			{
				"x": 0.3690159806,
				"y": -2.9054772844,
				"z": 0.278171369,
				"element": "H" 
			},
			{
				"x": 2.0273039911,
				"y": -2.9322291488,
				"z": 0.8729018131,
				"element": "H" 
			},
			{
				"x": 0.8817929152,
				"y": -4.310161767,
				"z": -1.594629779,
				"element": "H" 
			},
			{
				"x": 1.8273831867,
				"y": -4.9975172627,
				"z": -0.281709241,
				"element": "H" 
			},
			{
				"x": 3.6352650836,
				"y": -4.8068202071,
				"z": -1.7692126571,
				"element": "H" 
			},
			{
				"x": 2.7551258453,
				"y": -3.7021651944,
				"z": -2.8095847874,
				"element": "H" 
			},
			{
				"x": 4.156479322,
				"y": -2.905974348,
				"z": -0.2051192462,
				"element": "H" 
			},
			{
				"x": 4.7359838066,
				"y": -2.5583875942,
				"z": -1.8250511358,
				"element": "H" 
			},
			{
				"x": 2.9091556698,
				"y": -1.1044748808,
				"z": -2.3360558296,
				"element": "H" 
			},
			{
				"x": 3.5032566708,
				"y": -0.6141467582,
				"z": -0.7454878202,
				"element": "H" 
			}
		],
		 "valence_orbital": [ 
			{
				"type": "occ",
				"energy": -0.27129,
				"method": "rhf"
			},
			{
				"type": "occ",
				"energy": -0.2645,
				"method": "rhf"
			},
			{
				"type": "occ",
				"energy": -0.24433,
				"method": "rhf"
			},
			{
				"type": "occ",
				"energy": -0.21639,
				"method": "rhf"
			},
			{
				"type": "occ",
				"energy": -0.18471,
				"method": "rhf"
			},
			{
				"type": "unocc",
				"energy": -0.01309,
				"method": "rhf"
			},
			{
				"type": "unocc",
				"energy": -0.00529,
				"method": "rhf"
			},
			{
				"type": "unocc",
				"energy": 0.06671,
				"method": "rhf"
			},
			{
				"type": "unocc",
				"energy": 0.07826,
				"method": "rhf"
			},
			{
				"type": "unocc",
				"energy": 0.08492,
				"method": "rhf"
			}
		],
		"cosmo_sigma_profile": { 
			"-0.025": 0.0,
			"-0.024": 0.0,
			"-0.023": 0.0,
			"-0.022": 0.0,
			"-0.021": 0.0,
			"-0.02": 0.0,
			"-0.019": 0.0,
			"-0.018": 0.0,
			"-0.017": 0.302953352463,
			"-0.016": 0.695556596264,
			"-0.015": 0.922261747807,
			"-0.014": 1.27823273692,
			"-0.013": 1.38413146494,
			"-0.012": 1.66101613394,
			"-0.011": 2.28988234612,
			"-0.01": 2.73661044144,
			"-0.009": 2.96283361129,
			"-0.008": 3.06501102589,
			"-0.007": 3.51670306728,
			"-0.006": 6.04488378808,
			"-0.005": 6.96395783843,
			"-0.004": 14.5538754106,
			"-0.003": 28.1330417967,
			"-0.002": 32.3982609995,
			"-0.001": 28.9736211246,
			"0.0": 21.1992359481,
			"0.001": 16.4649740834,
			"0.002": 12.5764231748,
			"0.003": 16.8837731762,
			"0.004": 12.4721465479,
			"0.005": 7.48016151807,
			"0.006": 6.97964352943,
			"0.007": 7.13690535165,
			"0.008": 6.5303142513,
			"0.009": 5.80073029567,
			"0.01": 5.25241221668,
			"0.011": 3.53076137347,
			"0.012": 2.00417320496,
			"0.013": 1.03370309378,
			"0.014": 0.946653764735,
			"0.015": 0.143806148536,
			"0.016": 0.0,
			"0.017": 0.0,
			"0.018": 0.0,
			"0.019": 0.0,
			"0.02": 0.0,
			"0.021": 0.0,
			"0.022": 0.0,
			"0.023": 0.0,
			"0.024": 0.0,
			"0.025": 0.0
		}
	}
}
