{
	 "smiles": "CC1(CCCS1)C(O)=O", 
	 "Tm": 312.15, 
	 "num_atms": 19, 
	 "gaussian": { 
		 "optdone": 1, 
		 "sigma_profile": "yes", 
		 "theory": "DFT", 
		 "functional": "B3LYP", 
		 "basiset": "6-31G**", 
		 "properties": { 
			 "R2extent": 1435.3061, 
			 "electric_dipole_moment_norm": 1.15596073895, 
			 "electric_quadrupole_moment_norm": 9.1540955468, 
			 "total_energy": -783.325054746, 
			 "HOMO_LUMO_gap": 0.2144, 
			 "cosmo_polarized_energy": -9.43, 
			 "cosmo_cavitation_energy": 22.38, 
			 "cosmo_dispersion_energy": -17.07, 
			 "cosmo_repulsion_energy": 1.36, 
			 "cosmo_total_nonelectrostatic_energy": 6.67, 
			 "SMD_solvation_energy": 4.26 
		},
		"coords": [
			{
				"x": -1.5555203967,
				"y": -0.441952475,
				"z": 0.8591331233,
				"element": "C" 
			},
			{
				"x": -0.1705540097,
				"y": -0.4666843416,
				"z": 0.1981849059,
				"element": "C" 
			},
			{
				"x": 0.9716043295,
				"y": -0.1290649681,
				"z": 1.1764830133,
				"element": "C" 
			},
			{
				"x": 2.2610045916,
				"y": -0.7843758699,
				"z": 0.672634067,
				"element": "C" 
			},
			{
				"x": 1.9119601933,
				"y": -2.2359230107,
				"z": 0.326003791,
				"element": "C" 
			},
			{
				"x": 0.2292984662,
				"y": -2.1925681934,
				"z": -0.4379108156,
				"element": "S" 
			},
			{
				"x": -0.1211096014,
				"y": 0.4533174412,
				"z": -1.0217865319,
				"element": "C" 
			},
			{
				"x": -1.2038063164,
				"y": 0.3045865658,
				"z": -1.8197674099,
				"element": "O" 
			},
			{
				"x": 0.7688541959,
				"y": 1.2363952016,
				"z": -1.2813519409,
				"element": "O" 
			},
			{
				"x": -1.573057182,
				"y": -1.1314032587,
				"z": 1.7066747355,
				"element": "H" 
			},
			{
				"x": -2.339599822,
				"y": -0.7303540677,
				"z": 0.1571649347,
				"element": "H" 
			},
			{
				"x": -1.7821462705,
				"y": 0.5669735034,
				"z": 1.2245514312,
				"element": "H" 
			},
			{
				"x": 1.0774912015,
				"y": 0.9556874073,
				"z": 1.26825182,
				"element": "H" 
			},
			{
				"x": 0.7082871318,
				"y": -0.5310137911,
				"z": 2.1617047232,
				"element": "H" 
			},
			{
				"x": 3.0573862212,
				"y": -0.7434135891,
				"z": 1.4242342692,
				"element": "H" 
			},
			{
				"x": 2.6088526471,
				"y": -0.2563487417,
				"z": -0.21893063,
				"element": "H" 
			},
			{
				"x": 1.8778169041,
				"y": -2.8661146796,
				"z": 1.2195046618,
				"element": "H" 
			},
			{
				"x": 2.6093437156,
				"y": -2.6802232268,
				"z": -0.3878687246,
				"element": "H" 
			},
			{
				"x": -1.0570059989,
				"y": 0.8879800942,
				"z": -2.5828094231,
				"element": "H" 
			}
		],
		 "valence_orbital": [ 
			{
				"type": "occ",
				"energy": -0.33761,
				"method": "rhf"
			},
			{
				"type": "occ",
				"energy": -0.31959,
				"method": "rhf"
			},
			{
				"type": "occ",
				"energy": -0.30426,
				"method": "rhf"
			},
			{
				"type": "occ",
				"energy": -0.2778,
				"method": "rhf"
			},
			{
				"type": "occ",
				"energy": -0.22315,
				"method": "rhf"
			},
			{
				"type": "unocc",
				"energy": -0.00875,
				"method": "rhf"
			},
			{
				"type": "unocc",
				"energy": 0.03786,
				"method": "rhf"
			},
			{
				"type": "unocc",
				"energy": 0.0725,
				"method": "rhf"
			},
			{
				"type": "unocc",
				"energy": 0.07631,
				"method": "rhf"
			},
			{
				"type": "unocc",
				"energy": 0.09607,
				"method": "rhf"
			}
		],
		"cosmo_sigma_profile": { 
			"-0.025": 0.0,
			"-0.024": 0.0,
			"-0.023": 0.0,
			"-0.022": 0.0,
			"-0.021": 0.0,
			"-0.02": 0.0,
			"-0.019": 0.145990698005,
			"-0.018": 0.686365438909,
			"-0.017": 1.04163949461,
			"-0.016": 0.950538389481,
			"-0.015": 0.620492978111,
			"-0.014": 0.665557505367,
			"-0.013": 0.39838462304,
			"-0.012": 0.681943686106,
			"-0.011": 0.805099669123,
			"-0.01": 0.663498590536,
			"-0.009": 0.585116895013,
			"-0.008": 0.552557569099,
			"-0.007": 0.956895577142,
			"-0.006": 2.5190393092,
			"-0.005": 7.67055025597,
			"-0.004": 18.6289274779,
			"-0.003": 20.9192481764,
			"-0.002": 21.5797532166,
			"-0.001": 19.5113646535,
			"0.0": 13.1972037482,
			"0.001": 6.48100827154,
			"0.002": 6.00242773372,
			"0.003": 6.46432735436,
			"0.004": 5.56328997951,
			"0.005": 7.07202133231,
			"0.006": 6.62750239429,
			"0.007": 6.26851329417,
			"0.008": 5.69412437365,
			"0.009": 3.89071084414,
			"0.01": 3.11135726899,
			"0.011": 3.41697493524,
			"0.012": 3.04360815491,
			"0.013": 0.011663671777,
			"0.014": 0.0,
			"0.015": 0.0,
			"0.016": 0.0,
			"0.017": 0.0,
			"0.018": 0.0,
			"0.019": 0.0,
			"0.02": 0.0,
			"0.021": 0.0,
			"0.022": 0.0,
			"0.023": 0.0,
			"0.024": 0.0,
			"0.025": 0.0
		}
	}
}
