{
	 "smiles": "COC1=CC=C(C=C1)C(C)=N/O", 
	 "Tm": 353.15, 
	 "num_atms": 23, 
	 "gaussian": { 
		 "optdone": 1, 
		 "sigma_profile": "yes", 
		 "theory": "DFT", 
		 "functional": "B3LYP", 
		 "basiset": "6-31G**", 
		 "properties": { 
			 "R2extent": 2749.3604, 
			 "electric_dipole_moment_norm": 2.00850343789, 
			 "electric_quadrupole_moment_norm": 11.1596709297, 
			 "total_energy": -554.718420102, 
			 "HOMO_LUMO_gap": 0.18439, 
			 "cosmo_polarized_energy": -10.19, 
			 "cosmo_cavitation_energy": 26.53, 
			 "cosmo_dispersion_energy": -19.78, 
			 "cosmo_repulsion_energy": 1.58, 
			 "cosmo_total_nonelectrostatic_energy": 8.33, 
			 "SMD_solvation_energy": 5.5 
		},
		"coords": [
			{
				"x": -2.8020561098,
				"y": -1.3591280191,
				"z": 2.6511007913,
				"element": "C" 
			},
			{
				"x": -2.4786299664,
				"y": -1.7329533814,
				"z": 1.3206709919,
				"element": "O" 
			},
			{
				"x": -1.5416851265,
				"y": -1.0027925861,
				"z": 0.6538611898,
				"element": "C" 
			},
			{
				"x": -1.2619381424,
				"y": -1.4136706486,
				"z": -0.6579035539,
				"element": "C" 
			},
			{
				"x": -0.3322024811,
				"y": -0.7346039536,
				"z": -1.4296248094,
				"element": "C" 
			},
			{
				"x": 0.3700094481,
				"y": 0.3817797378,
				"z": -0.9189706737,
				"element": "C" 
			},
			{
				"x": 0.0846003024,
				"y": 0.7634744746,
				"z": 0.4035884081,
				"element": "C" 
			},
			{
				"x": -0.8589646768,
				"y": 0.0971478524,
				"z": 1.18482486,
				"element": "C" 
			},
			{
				"x": 1.4027175843,
				"y": 1.1255587036,
				"z": -1.6807445389,
				"element": "C" 
			},
			{
				"x": 2.4046873654,
				"y": 1.9675174834,
				"z": -0.9170715797,
				"element": "C" 
			},
			{
				"x": 1.5994840766,
				"y": 1.1765542767,
				"z": -2.9560466481,
				"element": "N" 
			},
			{
				"x": 0.674676659,
				"y": 0.4478953124,
				"z": -3.725770205,
				"element": "O" 
			},
			{
				"x": -3.5637392902,
				"y": -2.0649560766,
				"z": 2.9857215422,
				"element": "H" 
			},
			{
				"x": -3.2084413414,
				"y": -0.3406991526,
				"z": 2.6979008185,
				"element": "H" 
			},
			{
				"x": -1.9303282064,
				"y": -1.4280296843,
				"z": 3.31441273,
				"element": "H" 
			},
			{
				"x": -1.7919685161,
				"y": -2.2741114296,
				"z": -1.0534300699,
				"element": "H" 
			},
			{
				"x": -0.1368510524,
				"y": -1.0707904054,
				"z": -2.4369805285,
				"element": "H" 
			},
			{
				"x": 0.601162274,
				"y": 1.6075539402,
				"z": 0.8465792217,
				"element": "H" 
			},
			{
				"x": -1.0471076844,
				"y": 0.4400116385,
				"z": 2.1953030299,
				"element": "H" 
			},
			{
				"x": 3.1498927445,
				"y": 2.3553131489,
				"z": -1.6126810523,
				"element": "H" 
			},
			{
				"x": 2.9073422326,
				"y": 1.3810797813,
				"z": -0.1405946313,
				"element": "H" 
			},
			{
				"x": 1.9219205222,
				"y": 2.8207212514,
				"z": -0.4267569832,
				"element": "H" 
			},
			{
				"x": 0.9819193847,
				"y": 0.635227736,
				"z": -4.6219883095,
				"element": "H" 
			}
		],
		 "valence_orbital": [ 
			{
				"type": "occ",
				"energy": -0.32134,
				"method": "rhf"
			},
			{
				"type": "occ",
				"energy": -0.26035,
				"method": "rhf"
			},
			{
				"type": "occ",
				"energy": -0.25668,
				"method": "rhf"
			},
			{
				"type": "occ",
				"energy": -0.24899,
				"method": "rhf"
			},
			{
				"type": "occ",
				"energy": -0.20907,
				"method": "rhf"
			},
			{
				"type": "unocc",
				"energy": -0.02468,
				"method": "rhf"
			},
			{
				"type": "unocc",
				"energy": 0.00104,
				"method": "rhf"
			},
			{
				"type": "unocc",
				"energy": 0.06198,
				"method": "rhf"
			},
			{
				"type": "unocc",
				"energy": 0.08222,
				"method": "rhf"
			},
			{
				"type": "unocc",
				"energy": 0.09333,
				"method": "rhf"
			}
		],
		"cosmo_sigma_profile": { 
			"-0.025": 0.0,
			"-0.024": 0.0,
			"-0.023": 0.0,
			"-0.022": 0.0,
			"-0.021": 0.0,
			"-0.02": 0.0,
			"-0.019": 0.0,
			"-0.018": 0.0,
			"-0.017": 0.70995429588,
			"-0.016": 0.678393401509,
			"-0.015": 1.18675932557,
			"-0.014": 0.65724988898,
			"-0.013": 0.656768967897,
			"-0.012": 0.588908075411,
			"-0.011": 1.23247709116,
			"-0.01": 0.413759543276,
			"-0.009": 0.277931209203,
			"-0.008": 0.477959764216,
			"-0.007": 1.82142788712,
			"-0.006": 11.6648932858,
			"-0.005": 17.4840350969,
			"-0.004": 19.0813503303,
			"-0.003": 19.6107069732,
			"-0.002": 13.2707587049,
			"-0.001": 14.5866082108,
			"0.0": 11.9823241608,
			"0.001": 11.4925943149,
			"0.002": 11.0914124548,
			"0.003": 14.5293728073,
			"0.004": 14.5051334835,
			"0.005": 15.0198418467,
			"0.006": 6.8029618105,
			"0.007": 5.74902564142,
			"0.008": 3.90343110828,
			"0.009": 3.9767075329,
			"0.01": 3.35094973421,
			"0.011": 1.81184681769,
			"0.012": 0.540641408608,
			"0.013": 0.658425479126,
			"0.014": 0.503834185184,
			"0.015": 0.0,
			"0.016": 0.0,
			"0.017": 0.0,
			"0.018": 0.0,
			"0.019": 0.0,
			"0.02": 0.0,
			"0.021": 0.0,
			"0.022": 0.0,
			"0.023": 0.0,
			"0.024": 0.0,
			"0.025": 0.0
		}
	}
}
