{
	 "smiles": "COCCN(CC(O)=O)C(=O)OC(C)(C)C", 
	 "Tm": 350.15, 
	 "num_atms": 35, 
	 "gaussian": { 
		 "optdone": 1, 
		 "sigma_profile": "yes", 
		 "theory": "DFT", 
		 "functional": "B3LYP", 
		 "basiset": "6-31G**", 
		 "properties": { 
			 "R2extent": 4597.6704, 
			 "electric_dipole_moment_norm": 6.03945917695, 
			 "electric_quadrupole_moment_norm": 22.8022173354, 
			 "total_energy": -823.411836458, 
			 "HOMO_LUMO_gap": 0.26614, 
			 "cosmo_polarized_energy": -17.44, 
			 "cosmo_cavitation_energy": 37.24, 
			 "cosmo_dispersion_energy": -24.45, 
			 "cosmo_repulsion_energy": 1.94, 
			 "cosmo_total_nonelectrostatic_energy": 14.72, 
			 "SMD_solvation_energy": 9.45 
		},
		"coords": [
			{
				"x": 2.200638568,
				"y": 1.4024514102,
				"z": 1.7490373285,
				"element": "C" 
			},
			{
				"x": 1.2028668241,
				"y": 0.9607597603,
				"z": 0.8498563027,
				"element": "O" 
			},
			{
				"x": 1.7353944235,
				"y": 0.2859586541,
				"z": -0.2695124153,
				"element": "C" 
			},
			{
				"x": 0.5903630876,
				"y": -0.2264686313,
				"z": -1.1416403055,
				"element": "C" 
			},
			{
				"x": -0.2910768212,
				"y": -1.1977044191,
				"z": -0.4754516175,
				"element": "N" 
			},
			{
				"x": 0.259619022,
				"y": -2.5219505559,
				"z": -0.2074615119,
				"element": "C" 
			},
			{
				"x": 0.298012071,
				"y": -3.4206770348,
				"z": -1.4486822695,
				"element": "C" 
			},
			{
				"x": -0.5548060877,
				"y": -3.0689067901,
				"z": -2.4348867088,
				"element": "O" 
			},
			{
				"x": 1.0154199465,
				"y": -4.3859665473,
				"z": -1.5320791419,
				"element": "O" 
			},
			{
				"x": -1.3605202958,
				"y": -0.7832849603,
				"z": 0.3242561454,
				"element": "C" 
			},
			{
				"x": -1.8958629176,
				"y": -1.5094736349,
				"z": 1.1449089978,
				"element": "O" 
			},
			{
				"x": -1.7378853591,
				"y": 0.4638240743,
				"z": 0.0040869838,
				"element": "O" 
			},
			{
				"x": -2.7704737552,
				"y": 1.1729726659,
				"z": 0.7856947159,
				"element": "C" 
			},
			{
				"x": -2.3384409945,
				"y": 1.2650185587,
				"z": 2.2521766965,
				"element": "C" 
			},
			{
				"x": -2.7773395408,
				"y": 2.5573954937,
				"z": 0.1333966442,
				"element": "C" 
			},
			{
				"x": -4.1231659634,
				"y": 0.4761994116,
				"z": 0.6130697378,
				"element": "C" 
			},
			{
				"x": 2.7965978972,
				"y": 0.5635102843,
				"z": 2.1405415968,
				"element": "H" 
			},
			{
				"x": 1.6926195722,
				"y": 1.8936337693,
				"z": 2.5818666409,
				"element": "H" 
			},
			{
				"x": 2.8866703672,
				"y": 2.1220450762,
				"z": 1.2758580762,
				"element": "H" 
			},
			{
				"x": 2.3847512923,
				"y": -0.5448336469,
				"z": 0.0543621508,
				"element": "H" 
			},
			{
				"x": 2.3614248562,
				"y": 0.9599008491,
				"z": -0.8796861251,
				"element": "H" 
			},
			{
				"x": -0.0182247167,
				"y": 0.6135673566,
				"z": -1.4730103995,
				"element": "H" 
			},
			{
				"x": 1.0161691424,
				"y": -0.7068719989,
				"z": -2.0300458969,
				"element": "H" 
			},
			{
				"x": 1.2737268609,
				"y": -2.4802870653,
				"z": 0.200657072,
				"element": "H" 
			},
			{
				"x": -0.3769579976,
				"y": -2.9998055763,
				"z": 0.541533949,
				"element": "H" 
			},
			{
				"x": -1.018801738,
				"y": -2.264167579,
				"z": -2.1399017423,
				"element": "H" 
			},
			{
				"x": -1.3309813445,
				"y": 1.6858149767,
				"z": 2.3177142805,
				"element": "H" 
			},
			{
				"x": -2.3433582378,
				"y": 0.283785211,
				"z": 2.7274896526,
				"element": "H" 
			},
			{
				"x": -3.0257672952,
				"y": 1.9223889352,
				"z": 2.7941844902,
				"element": "H" 
			},
			{
				"x": -3.5153459265,
				"y": 3.1989627801,
				"z": 0.6236660939,
				"element": "H" 
			},
			{
				"x": -1.7934109173,
				"y": 3.0267771756,
				"z": 0.2208084444,
				"element": "H" 
			},
			{
				"x": -3.0343783345,
				"y": 2.4842100222,
				"z": -0.9275072201,
				"element": "H" 
			},
			{
				"x": -4.9036842977,
				"y": 1.0660972166,
				"z": 1.104524366,
				"element": "H" 
			},
			{
				"x": -4.107329095,
				"y": -0.5218840724,
				"z": 1.0512959346,
				"element": "H" 
			},
			{
				"x": -4.3781622949,
				"y": 0.3954088307,
				"z": -0.4484209463,
				"element": "H" 
			}
		],
		 "valence_orbital": [ 
			{
				"type": "occ",
				"energy": -0.29858,
				"method": "rhf"
			},
			{
				"type": "occ",
				"energy": -0.28371,
				"method": "rhf"
			},
			{
				"type": "occ",
				"energy": -0.27512,
				"method": "rhf"
			},
			{
				"type": "occ",
				"energy": -0.272,
				"method": "rhf"
			},
			{
				"type": "occ",
				"energy": -0.25237,
				"method": "rhf"
			},
			{
				"type": "unocc",
				"energy": 0.01377,
				"method": "rhf"
			},
			{
				"type": "unocc",
				"energy": 0.03433,
				"method": "rhf"
			},
			{
				"type": "unocc",
				"energy": 0.0594,
				"method": "rhf"
			},
			{
				"type": "unocc",
				"energy": 0.08047,
				"method": "rhf"
			},
			{
				"type": "unocc",
				"energy": 0.08271,
				"method": "rhf"
			}
		],
		"cosmo_sigma_profile": { 
			"-0.025": 0.0,
			"-0.024": 0.0,
			"-0.023": 0.0,
			"-0.022": 0.0,
			"-0.021": 0.0,
			"-0.02": 0.0,
			"-0.019": 0.0,
			"-0.018": 0.0,
			"-0.017": 0.0,
			"-0.016": 0.0,
			"-0.015": 0.504595461903,
			"-0.014": 0.650883481769,
			"-0.013": 0.528005076934,
			"-0.012": 1.23192385742,
			"-0.011": 1.44616604583,
			"-0.01": 1.06696493313,
			"-0.009": 1.15213765039,
			"-0.008": 4.52309250573,
			"-0.007": 7.58944995263,
			"-0.006": 7.67099135634,
			"-0.005": 14.8656512714,
			"-0.004": 32.8071692583,
			"-0.003": 32.8586289938,
			"-0.002": 30.2712407974,
			"-0.001": 22.8370550074,
			"0.0": 28.5829927115,
			"0.001": 18.0143989695,
			"0.002": 10.1684541674,
			"0.003": 7.82423740674,
			"0.004": 8.39406894365,
			"0.005": 7.89757755509,
			"0.006": 7.06534148778,
			"0.007": 6.14162068995,
			"0.008": 4.44707056535,
			"0.009": 6.83349109105,
			"0.01": 7.30234340174,
			"0.011": 6.88191875943,
			"0.012": 7.85004658594,
			"0.013": 2.78206202205,
			"0.014": 0.00889516744512,
			"0.015": 0.0,
			"0.016": 0.0,
			"0.017": 0.0,
			"0.018": 0.0,
			"0.019": 0.0,
			"0.02": 0.0,
			"0.021": 0.0,
			"0.022": 0.0,
			"0.023": 0.0,
			"0.024": 0.0,
			"0.025": 0.0
		}
	}
}
