{
	 "smiles": "OC1=CC=C2C(OC(=C(O)C2=O)C2=CC(O)=C(O)C=C2)=C1", 
	 "Tm": 603.15, 
	 "num_atms": 31, 
	 "gaussian": { 
		 "optdone": 1, 
		 "sigma_profile": "yes", 
		 "theory": "DFT", 
		 "functional": "B3LYP", 
		 "basiset": "6-31G**", 
		 "properties": { 
			 "R2extent": 8230.9299, 
			 "electric_dipole_moment_norm": 1.7569205019, 
			 "electric_quadrupole_moment_norm": 29.2828088897, 
			 "total_energy": -1028.95957827, 
			 "HOMO_LUMO_gap": 0.13383, 
			 "cosmo_polarized_energy": -19.84, 
			 "cosmo_cavitation_energy": 36.09, 
			 "cosmo_dispersion_energy": -27.16, 
			 "cosmo_repulsion_energy": 2.02, 
			 "cosmo_total_nonelectrostatic_energy": 10.94, 
			 "SMD_solvation_energy": 7.99 
		},
		"coords": [
			{
				"x": 3.5129081326,
				"y": -4.2159931954,
				"z": 1.6012748898,
				"element": "O" 
			},
			{
				"x": 3.1600194421,
				"y": -2.9414974431,
				"z": 1.917180448,
				"element": "C" 
			},
			{
				"x": 3.712013581,
				"y": -2.2655937338,
				"z": 3.0283298016,
				"element": "C" 
			},
			{
				"x": 3.3197440441,
				"y": -0.9707176798,
				"z": 3.3060923365,
				"element": "C" 
			},
			{
				"x": 2.3754198038,
				"y": -0.3154910005,
				"z": 2.4944502576,
				"element": "C" 
			},
			{
				"x": 1.8400612702,
				"y": -1.0086961117,
				"z": 1.3941992447,
				"element": "C" 
			},
			{
				"x": 0.9249109974,
				"y": -0.439262009,
				"z": 0.5681953977,
				"element": "O" 
			},
			{
				"x": 0.4664706944,
				"y": 0.8472304925,
				"z": 0.7553353107,
				"element": "C" 
			},
			{
				"x": 0.9485483546,
				"y": 1.5761538647,
				"z": 1.8091645076,
				"element": "C" 
			},
			{
				"x": 0.5712616477,
				"y": 2.8480537752,
				"z": 2.0915400937,
				"element": "O" 
			},
			{
				"x": 1.9328347049,
				"y": 1.0431795683,
				"z": 2.7458803741,
				"element": "C" 
			},
			{
				"x": 2.3175774048,
				"y": 1.7747434936,
				"z": 3.6768981215,
				"element": "O" 
			},
			{
				"x": -0.5128552789,
				"y": 1.2428064554,
				"z": -0.2578199867,
				"element": "C" 
			},
			{
				"x": -1.1041212212,
				"y": 2.5260043116,
				"z": -0.2451419484,
				"element": "C" 
			},
			{
				"x": -2.0281952765,
				"y": 2.8760860156,
				"z": -1.2150658119,
				"element": "C" 
			},
			{
				"x": -2.6541554193,
				"y": 4.0999420877,
				"z": -1.2822527638,
				"element": "O" 
			},
			{
				"x": -2.39768792,
				"y": 1.9712772912,
				"z": -2.2274166402,
				"element": "C" 
			},
			{
				"x": -3.3053814775,
				"y": 2.3267727795,
				"z": -3.172947868,
				"element": "O" 
			},
			{
				"x": -1.8176697699,
				"y": 0.704708652,
				"z": -2.244483936,
				"element": "C" 
			},
			{
				"x": -0.8876897631,
				"y": 0.3434192366,
				"z": -1.2738401614,
				"element": "C" 
			},
			{
				"x": 2.2241023287,
				"y": -2.3181571514,
				"z": 1.0971783134,
				"element": "C" 
			},
			{
				"x": 4.1637372801,
				"y": -4.5368211898,
				"z": 2.2392292898,
				"element": "H" 
			},
			{
				"x": 4.4420974635,
				"y": -2.768902487,
				"z": 3.6577452366,
				"element": "H" 
			},
			{
				"x": 3.7257094018,
				"y": -0.425892775,
				"z": 4.1518931407,
				"element": "H" 
			},
			{
				"x": 1.10449338,
				"y": 3.051122756,
				"z": 2.8945086404,
				"element": "H" 
			},
			{
				"x": -0.8345778235,
				"y": 3.2385124107,
				"z": 0.525048532,
				"element": "H" 
			},
			{
				"x": -2.3509215909,
				"y": 4.6617710087,
				"z": -0.5583411374,
				"element": "H" 
			},
			{
				"x": -3.5830075009,
				"y": 3.2360579521,
				"z": -2.9829714604,
				"element": "H" 
			},
			{
				"x": -2.1071453523,
				"y": 0.0121138184,
				"z": -3.0277582977,
				"element": "H" 
			},
			{
				"x": -0.4471980058,
				"y": -0.6447144603,
				"z": -1.3025164104,
				"element": "H" 
			},
			{
				"x": 1.8026964681,
				"y": -2.8390167328,
				"z": 0.2459124859,
				"element": "H" 
			}
		],
		 "valence_orbital": [ 
			{
				"type": "occ",
				"energy": -0.26185,
				"method": "rhf"
			},
			{
				"type": "occ",
				"energy": -0.24763,
				"method": "rhf"
			},
			{
				"type": "occ",
				"energy": -0.2416,
				"method": "rhf"
			},
			{
				"type": "occ",
				"energy": -0.22968,
				"method": "rhf"
			},
			{
				"type": "occ",
				"energy": -0.19739,
				"method": "rhf"
			},
			{
				"type": "unocc",
				"energy": -0.06356,
				"method": "rhf"
			},
			{
				"type": "unocc",
				"energy": -0.0168,
				"method": "rhf"
			},
			{
				"type": "unocc",
				"energy": -0.00867,
				"method": "rhf"
			},
			{
				"type": "unocc",
				"energy": 0.00537,
				"method": "rhf"
			},
			{
				"type": "unocc",
				"energy": 0.04278,
				"method": "rhf"
			}
		],
		"cosmo_sigma_profile": { 
			"-0.025": 0.0,
			"-0.024": 0.0,
			"-0.023": 0.0,
			"-0.022": 0.0,
			"-0.021": 0.0,
			"-0.02": 0.0,
			"-0.019": 0.318361771514,
			"-0.018": 2.25031386595,
			"-0.017": 2.66081361813,
			"-0.016": 2.09998004759,
			"-0.015": 2.1110890421,
			"-0.014": 3.0050026642,
			"-0.013": 2.09975367774,
			"-0.012": 2.84623660999,
			"-0.011": 2.74540264678,
			"-0.01": 3.82863923146,
			"-0.009": 2.7096645358,
			"-0.008": 3.58804402086,
			"-0.007": 6.16951202149,
			"-0.006": 9.91390366793,
			"-0.005": 11.0988556952,
			"-0.004": 11.8580698403,
			"-0.003": 10.6323657084,
			"-0.002": 13.5317196217,
			"-0.001": 15.8576779685,
			"0.0": 19.3186469035,
			"0.001": 30.2421588057,
			"0.002": 35.5801932712,
			"0.003": 27.0378519163,
			"0.004": 17.9421004926,
			"0.005": 9.67301135556,
			"0.006": 8.46578220546,
			"0.007": 7.07843955158,
			"0.008": 5.01741989469,
			"0.009": 4.96374300133,
			"0.01": 5.16011199749,
			"0.011": 4.40902638186,
			"0.012": 2.53469925393,
			"0.013": 2.78789700593,
			"0.014": 0.240107983159,
			"0.015": 0.0,
			"0.016": 0.0,
			"0.017": 0.0,
			"0.018": 0.0,
			"0.019": 0.0,
			"0.02": 0.0,
			"0.021": 0.0,
			"0.022": 0.0,
			"0.023": 0.0,
			"0.024": 0.0,
			"0.025": 0.0
		}
	}
}
