{
	 "smiles": "CC(Cl)C(=O)NC1=NOC(C)=C1", 
	 "Tm": 406.15, 
	 "num_atms": 21, 
	 "gaussian": { 
		 "optdone": 1, 
		 "sigma_profile": "yes", 
		 "theory": "DFT", 
		 "functional": "B3LYP", 
		 "basiset": "6-31G**", 
		 "properties": { 
			 "R2extent": 3389.9404, 
			 "electric_dipole_moment_norm": 3.94485683644, 
			 "electric_quadrupole_moment_norm": 15.296555848, 
			 "total_energy": -992.279952367, 
			 "HOMO_LUMO_gap": 0.21213, 
			 "cosmo_polarized_energy": -13.22, 
			 "cosmo_cavitation_energy": 26.94, 
			 "cosmo_dispersion_energy": -19.69, 
			 "cosmo_repulsion_energy": 1.59, 
			 "cosmo_total_nonelectrostatic_energy": 8.84, 
			 "SMD_solvation_energy": 5.15 
		},
		"coords": [
			{
				"x": 1.409638756,
				"y": 0.9301392515,
				"z": -1.7381312643,
				"element": "C" 
			},
			{
				"x": 1.0875777265,
				"y": -0.1176609286,
				"z": -0.687158194,
				"element": "C" 
			},
			{
				"x": 2.5373289532,
				"y": -1.2183027586,
				"z": -0.4338787002,
				"element": "Cl" 
			},
			{
				"x": 0.7495573355,
				"y": 0.5309562228,
				"z": 0.6611086192,
				"element": "C" 
			},
			{
				"x": 1.2070500418,
				"y": 1.6162017561,
				"z": 0.9749008629,
				"element": "O" 
			},
			{
				"x": -0.11820128,
				"y": -0.1270745519,
				"z": 1.511639814,
				"element": "N" 
			},
			{
				"x": -0.8362962869,
				"y": -1.3177507463,
				"z": 1.3849847428,
				"element": "C" 
			},
			{
				"x": -1.9880207884,
				"y": -1.3961357173,
				"z": 2.024437305,
				"element": "N" 
			},
			{
				"x": -2.4437659059,
				"y": -2.6951089021,
				"z": 1.7891655457,
				"element": "O" 
			},
			{
				"x": -1.5607834892,
				"y": -3.3512042828,
				"z": 1.0084205627,
				"element": "C" 
			},
			{
				"x": -1.8883452161,
				"y": -4.760355386,
				"z": 0.6560844621,
				"element": "C" 
			},
			{
				"x": -0.5075510189,
				"y": -2.5354297383,
				"z": 0.7165326666,
				"element": "C" 
			},
			{
				"x": 2.2003797468,
				"y": 1.5917924213,
				"z": -1.3830961054,
				"element": "H" 
			},
			{
				"x": 1.7147190487,
				"y": 0.4524551552,
				"z": -2.6713928826,
				"element": "H" 
			},
			{
				"x": 0.5169482348,
				"y": 1.5358704478,
				"z": -1.9280677571,
				"element": "H" 
			},
			{
				"x": 0.2873190522,
				"y": -0.7810537319,
				"z": -1.0172674451,
				"element": "H" 
			},
			{
				"x": -0.3765525002,
				"y": 0.4384018188,
				"z": 2.3129195263,
				"element": "H" 
			},
			{
				"x": -2.8232404995,
				"y": -4.813002603,
				"z": 0.088311774,
				"element": "H" 
			},
			{
				"x": -2.0146181072,
				"y": -5.3667565047,
				"z": 1.5587270904,
				"element": "H" 
			},
			{
				"x": -1.0886360541,
				"y": -5.1933168543,
				"z": 0.0524494626,
				"element": "H" 
			},
			{
				"x": 0.385192251,
				"y": -2.7793643675,
				"z": 0.1644099143,
				"element": "H" 
			}
		],
		 "valence_orbital": [ 
			{
				"type": "occ",
				"energy": -0.31704,
				"method": "rhf"
			},
			{
				"type": "occ",
				"energy": -0.31128,
				"method": "rhf"
			},
			{
				"type": "occ",
				"energy": -0.27554,
				"method": "rhf"
			},
			{
				"type": "occ",
				"energy": -0.27133,
				"method": "rhf"
			},
			{
				"type": "occ",
				"energy": -0.2541,
				"method": "rhf"
			},
			{
				"type": "unocc",
				"energy": -0.04197,
				"method": "rhf"
			},
			{
				"type": "unocc",
				"energy": -0.0164,
				"method": "rhf"
			},
			{
				"type": "unocc",
				"energy": 0.03768,
				"method": "rhf"
			},
			{
				"type": "unocc",
				"energy": 0.06775,
				"method": "rhf"
			},
			{
				"type": "unocc",
				"energy": 0.07562,
				"method": "rhf"
			}
		],
		"cosmo_sigma_profile": { 
			"-0.025": 0.0,
			"-0.024": 0.0,
			"-0.023": 0.0,
			"-0.022": 0.0,
			"-0.021": 0.0,
			"-0.02": 0.0,
			"-0.019": 0.0,
			"-0.018": 0.0,
			"-0.017": 0.0,
			"-0.016": 0.180187361487,
			"-0.015": 0.831630250428,
			"-0.014": 0.608796539947,
			"-0.013": 1.11838492186,
			"-0.012": 0.445957662289,
			"-0.011": 0.89465124209,
			"-0.01": 0.812158463819,
			"-0.009": 1.96247324402,
			"-0.008": 3.95626746885,
			"-0.007": 7.17518794184,
			"-0.006": 13.9617230182,
			"-0.005": 14.2407249519,
			"-0.004": 14.5710431704,
			"-0.003": 15.8492267437,
			"-0.002": 19.3492408394,
			"-0.001": 17.5091839926,
			"0.0": 16.3786153082,
			"0.001": 13.0195932604,
			"0.002": 9.29743851414,
			"0.003": 9.16936316065,
			"0.004": 8.66644003124,
			"0.005": 10.2275366586,
			"0.006": 5.53920737108,
			"0.007": 4.1992214053,
			"0.008": 6.31021161832,
			"0.009": 4.07182338565,
			"0.01": 3.19054669137,
			"0.011": 4.48020384871,
			"0.012": 6.08967060594,
			"0.013": 1.37579538124,
			"0.014": 0.597020040315,
			"0.015": 0.0,
			"0.016": 0.0,
			"0.017": 0.0,
			"0.018": 0.0,
			"0.019": 0.0,
			"0.02": 0.0,
			"0.021": 0.0,
			"0.022": 0.0,
			"0.023": 0.0,
			"0.024": 0.0,
			"0.025": 0.0
		}
	}
}
