{
	 "smiles": "CC(C)C1=CC=C(C=C1)C1=CC=C(C=C1)C(C)C", 
	 "Tm": 339.15, 
	 "num_atms": 40, 
	 "gaussian": { 
		 "optdone": 1, 
		 "sigma_profile": "yes", 
		 "theory": "DFT", 
		 "functional": "B3LYP", 
		 "basiset": "6-31G**", 
		 "properties": { 
			 "R2extent": 8453.0067, 
			 "electric_dipole_moment_norm": 0.00564446631667, 
			 "electric_quadrupole_moment_norm": 8.29760239226, 
			 "total_energy": -699.213271016, 
			 "HOMO_LUMO_gap": 0.19056, 
			 "cosmo_polarized_energy": -5.43, 
			 "cosmo_cavitation_energy": 41.45, 
			 "cosmo_dispersion_energy": -29.04, 
			 "cosmo_repulsion_energy": 2.26, 
			 "cosmo_total_nonelectrostatic_energy": 14.67, 
			 "SMD_solvation_energy": 6.89 
		},
		"coords": [
			{
				"x": 1.3849469477,
				"y": 4.3902586968,
				"z": 2.7133263011,
				"element": "C" 
			},
			{
				"x": 1.214351836,
				"y": 3.0288519853,
				"z": 3.4137814643,
				"element": "C" 
			},
			{
				"x": 0.1632379075,
				"y": 3.1132672084,
				"z": 4.5369632848,
				"element": "C" 
			},
			{
				"x": 0.8971614039,
				"y": 1.9168334448,
				"z": 2.4233514571,
				"element": "C" 
			},
			{
				"x": 1.7671760845,
				"y": 0.8324340524,
				"z": 2.2570230618,
				"element": "C" 
			},
			{
				"x": 1.4885123679,
				"y": -0.1921853175,
				"z": 1.3536322055,
				"element": "C" 
			},
			{
				"x": 0.319663884,
				"y": -0.1745141947,
				"z": 0.5765174902,
				"element": "C" 
			},
			{
				"x": -0.5548171935,
				"y": 0.9133956315,
				"z": 0.7439216819,
				"element": "C" 
			},
			{
				"x": -0.270688939,
				"y": 1.9350444278,
				"z": 1.6459824962,
				"element": "C" 
			},
			{
				"x": 0.017576472,
				"y": -1.2629261072,
				"z": -0.3863497659,
				"element": "C" 
			},
			{
				"x": 0.3317922418,
				"y": -2.6017280555,
				"z": -0.0945382854,
				"element": "C" 
			},
			{
				"x": 0.0498023882,
				"y": -3.6223610836,
				"z": -0.9984293907,
				"element": "C" 
			},
			{
				"x": -0.5602212769,
				"y": -3.3542727645,
				"z": -2.2331394618,
				"element": "C" 
			},
			{
				"x": -0.8741660477,
				"y": -2.0207987455,
				"z": -2.5226360932,
				"element": "C" 
			},
			{
				"x": -0.5920395174,
				"y": -0.9947090344,
				"z": -1.6220016466,
				"element": "C" 
			},
			{
				"x": -0.873443821,
				"y": -4.4645590499,
				"z": -3.2267641927,
				"element": "C" 
			},
			{
				"x": -1.8867008237,
				"y": -5.4754155683,
				"z": -2.6566782317,
				"element": "C" 
			},
			{
				"x": 0.4030961138,
				"y": -5.176592837,
				"z": -3.7132195547,
				"element": "C" 
			},
			{
				"x": 1.6696350677,
				"y": 5.1640683974,
				"z": 3.4348355164,
				"element": "H" 
			},
			{
				"x": 2.1576792668,
				"y": 4.3437442394,
				"z": 1.9397290579,
				"element": "H" 
			},
			{
				"x": 0.4529014316,
				"y": 4.7100530452,
				"z": 2.234375825,
				"element": "H" 
			},
			{
				"x": 2.1754209901,
				"y": 2.7769516462,
				"z": 3.8814654941,
				"element": "H" 
			},
			{
				"x": -0.8229832776,
				"y": 3.3766479561,
				"z": 4.1390369585,
				"element": "H" 
			},
			{
				"x": 0.4405083288,
				"y": 3.878809316,
				"z": 5.2700992173,
				"element": "H" 
			},
			{
				"x": 0.0660449977,
				"y": 2.1575470186,
				"z": 5.0612495684,
				"element": "H" 
			},
			{
				"x": 2.6854408107,
				"y": 0.7932010234,
				"z": 2.8387035309,
				"element": "H" 
			},
			{
				"x": 2.1999702393,
				"y": -1.0038174806,
				"z": 1.2311942564,
				"element": "H" 
			},
			{
				"x": -1.481211735,
				"y": 0.9445225321,
				"z": 0.1775291885,
				"element": "H" 
			},
			{
				"x": -0.9771327948,
				"y": 2.7544949662,
				"z": 1.7514824485,
				"element": "H" 
			},
			{
				"x": 0.7796255614,
				"y": -2.8472397433,
				"z": 0.8641790384,
				"element": "H" 
			},
			{
				"x": 0.301370229,
				"y": -4.6455160416,
				"z": -0.7309023998,
				"element": "H" 
			},
			{
				"x": -1.3398340668,
				"y": -1.7788292072,
				"z": -3.475369832,
				"element": "H" 
			},
			{
				"x": -0.8246558635,
				"y": 0.0313688029,
				"z": -1.8921157803,
				"element": "H" 
			},
			{
				"x": -1.3388663443,
				"y": -3.9903041315,
				"z": -4.1010119596,
				"element": "H" 
			},
			{
				"x": -2.1429305914,
				"y": -6.2317711243,
				"z": -3.4067979043,
				"element": "H" 
			},
			{
				"x": -2.809948122,
				"y": -4.9776719209,
				"z": -2.3442865394,
				"element": "H" 
			},
			{
				"x": -1.4785359716,
				"y": -5.9979772863,
				"z": -1.7845246517,
				"element": "H" 
			},
			{
				"x": 0.9130121968,
				"y": -5.6855465698,
				"z": -2.8878099616,
				"element": "H" 
			},
			{
				"x": 0.1612142452,
				"y": -5.9314391096,
				"z": -4.4696022232,
				"element": "H" 
			},
			{
				"x": 1.1097353738,
				"y": -4.4662190171,
				"z": -4.1534016685,
				"element": "H" 
			}
		],
		 "valence_orbital": [ 
			{
				"type": "occ",
				"energy": -0.31455,
				"method": "rhf"
			},
			{
				"type": "occ",
				"energy": -0.25857,
				"method": "rhf"
			},
			{
				"type": "occ",
				"energy": -0.24533,
				"method": "rhf"
			},
			{
				"type": "occ",
				"energy": -0.24459,
				"method": "rhf"
			},
			{
				"type": "occ",
				"energy": -0.21158,
				"method": "rhf"
			},
			{
				"type": "unocc",
				"energy": -0.02102,
				"method": "rhf"
			},
			{
				"type": "unocc",
				"energy": 0.00028,
				"method": "rhf"
			},
			{
				"type": "unocc",
				"energy": 0.00478,
				"method": "rhf"
			},
			{
				"type": "unocc",
				"energy": 0.03508,
				"method": "rhf"
			},
			{
				"type": "unocc",
				"energy": 0.08963,
				"method": "rhf"
			}
		],
		"cosmo_sigma_profile": { 
			"-0.025": 0.0,
			"-0.024": 0.0,
			"-0.023": 0.0,
			"-0.022": 0.0,
			"-0.021": 0.0,
			"-0.02": 0.0,
			"-0.019": 0.0,
			"-0.018": 0.0,
			"-0.017": 0.0,
			"-0.016": 0.0,
			"-0.015": 0.0,
			"-0.014": 0.0,
			"-0.013": 0.0,
			"-0.012": 0.0,
			"-0.011": 0.0,
			"-0.01": 0.0,
			"-0.009": 0.0,
			"-0.008": 0.0,
			"-0.007": 0.0,
			"-0.006": 0.398556574494,
			"-0.005": 14.3443273379,
			"-0.004": 23.8956315638,
			"-0.003": 36.3573440467,
			"-0.002": 38.7392421287,
			"-0.001": 40.5071041406,
			"0.0": 38.0799073786,
			"0.001": 41.8956275013,
			"0.002": 25.0244953236,
			"0.003": 15.3479586344,
			"0.004": 17.0816575625,
			"0.005": 14.8800086361,
			"0.006": 16.4401493719,
			"0.007": 2.17290043736,
			"0.008": 0.0,
			"0.009": 0.0,
			"0.01": 0.0,
			"0.011": 0.0,
			"0.012": 0.0,
			"0.013": 0.0,
			"0.014": 0.0,
			"0.015": 0.0,
			"0.016": 0.0,
			"0.017": 0.0,
			"0.018": 0.0,
			"0.019": 0.0,
			"0.02": 0.0,
			"0.021": 0.0,
			"0.022": 0.0,
			"0.023": 0.0,
			"0.024": 0.0,
			"0.025": 0.0
		}
	}
}
