{
	 "smiles": "CCC(=O)N1C(CC2=CC=CC=C2)COC1=O", 
	 "Tm": 316.15, 
	 "num_atms": 32, 
	 "gaussian": { 
		 "optdone": 1, 
		 "sigma_profile": "yes", 
		 "theory": "DFT", 
		 "functional": "B3LYP", 
		 "basiset": "6-31G**", 
		 "properties": { 
			 "R2extent": 5165.9841, 
			 "electric_dipole_moment_norm": 7.51608124557, 
			 "electric_quadrupole_moment_norm": 20.736054686, 
			 "total_energy": -784.872745923, 
			 "HOMO_LUMO_gap": 0.2319, 
			 "cosmo_polarized_energy": -21.72, 
			 "cosmo_cavitation_energy": 35.21, 
			 "cosmo_dispersion_energy": -24.56, 
			 "cosmo_repulsion_energy": 1.91, 
			 "cosmo_total_nonelectrostatic_energy": 12.57, 
			 "SMD_solvation_energy": 7.5 
		},
		"coords": [
			{
				"x": -1.4880917391,
				"y": -1.7273475813,
				"z": 4.0137567539,
				"element": "C" 
			},
			{
				"x": -1.146344467,
				"y": -1.053581183,
				"z": 2.6855366284,
				"element": "C" 
			},
			{
				"x": -1.4104763634,
				"y": 0.451698365,
				"z": 2.7279704782,
				"element": "C" 
			},
			{
				"x": -1.9068712264,
				"y": 0.9950109846,
				"z": 3.690339657,
				"element": "O" 
			},
			{
				"x": -1.0803353739,
				"y": 1.1596116785,
				"z": 1.5532558248,
				"element": "N" 
			},
			{
				"x": -0.4026698341,
				"y": 0.620203811,
				"z": 0.364218839,
				"element": "C" 
			},
			{
				"x": 1.1390893664,
				"y": 0.6183694998,
				"z": 0.5213997221,
				"element": "C" 
			},
			{
				"x": 1.8509781895,
				"y": 0.0107826467,
				"z": -0.6685328759,
				"element": "C" 
			},
			{
				"x": 1.8512493773,
				"y": -1.3784533902,
				"z": -0.8654734602,
				"element": "C" 
			},
			{
				"x": 2.4812132018,
				"y": -1.9446240015,
				"z": -1.9733617444,
				"element": "C" 
			},
			{
				"x": 3.1258832542,
				"y": -1.1283600707,
				"z": -2.9058640497,
				"element": "C" 
			},
			{
				"x": 3.1382482631,
				"y": 0.2542071653,
				"z": -2.71974241,
				"element": "C" 
			},
			{
				"x": 2.5052493955,
				"y": 0.8174222805,
				"z": -1.6094485037,
				"element": "C" 
			},
			{
				"x": -0.8919510252,
				"y": 1.6260925034,
				"z": -0.6872840614,
				"element": "C" 
			},
			{
				"x": -1.1070889512,
				"y": 2.8351700545,
				"z": 0.0548274039,
				"element": "O" 
			},
			{
				"x": -1.350855161,
				"y": 2.5385072915,
				"z": 1.3705775426,
				"element": "C" 
			},
			{
				"x": -1.7141523589,
				"y": 3.351065709,
				"z": 2.170531981,
				"element": "O" 
			},
			{
				"x": -1.3047189311,
				"y": -2.803905939,
				"z": 3.9511768952,
				"element": "H" 
			},
			{
				"x": -2.5360182402,
				"y": -1.5644070303,
				"z": 4.2744843461,
				"element": "H" 
			},
			{
				"x": -0.8834582364,
				"y": -1.317315125,
				"z": 4.8263486959,
				"element": "H" 
			},
			{
				"x": -0.0988487545,
				"y": -1.2387159642,
				"z": 2.4189420016,
				"element": "H" 
			},
			{
				"x": -1.7438084997,
				"y": -1.4863704801,
				"z": 1.8713148272,
				"element": "H" 
			},
			{
				"x": -0.7573006027,
				"y": -0.3866731276,
				"z": 0.1340943889,
				"element": "H" 
			},
			{
				"x": 1.3962923166,
				"y": 0.0694844076,
				"z": 1.4338542752,
				"element": "H" 
			},
			{
				"x": 1.4672116364,
				"y": 1.6523003524,
				"z": 0.6750182883,
				"element": "H" 
			},
			{
				"x": 1.3628754393,
				"y": -2.0243037781,
				"z": -0.1387685812,
				"element": "H" 
			},
			{
				"x": 2.4743243206,
				"y": -3.0227422494,
				"z": -2.1060487108,
				"element": "H" 
			},
			{
				"x": 3.6194840523,
				"y": -1.568357426,
				"z": -3.7673372888,
				"element": "H" 
			},
			{
				"x": 3.6438803823,
				"y": 0.8964544735,
				"z": -3.4350483472,
				"element": "H" 
			},
			{
				"x": 2.5298437783,
				"y": 1.8948920619,
				"z": -1.4648045163,
				"element": "H" 
			},
			{
				"x": -1.837708728,
				"y": 1.312059421,
				"z": -1.1438510062,
				"element": "H" 
			},
			{
				"x": -0.1582244808,
				"y": 1.82192464,
				"z": -1.4699829936,
				"element": "H" 
			}
		],
		 "valence_orbital": [ 
			{
				"type": "occ",
				"energy": -0.29106,
				"method": "rhf"
			},
			{
				"type": "occ",
				"energy": -0.27856,
				"method": "rhf"
			},
			{
				"type": "occ",
				"energy": -0.26632,
				"method": "rhf"
			},
			{
				"type": "occ",
				"energy": -0.25826,
				"method": "rhf"
			},
			{
				"type": "occ",
				"energy": -0.25363,
				"method": "rhf"
			},
			{
				"type": "unocc",
				"energy": -0.02173,
				"method": "rhf"
			},
			{
				"type": "unocc",
				"energy": -0.01849,
				"method": "rhf"
			},
			{
				"type": "unocc",
				"energy": -0.01171,
				"method": "rhf"
			},
			{
				"type": "unocc",
				"energy": 0.0525,
				"method": "rhf"
			},
			{
				"type": "unocc",
				"energy": 0.05687,
				"method": "rhf"
			}
		],
		"cosmo_sigma_profile": { 
			"-0.025": 0.0,
			"-0.024": 0.0,
			"-0.023": 0.0,
			"-0.022": 0.0,
			"-0.021": 0.0,
			"-0.02": 0.0,
			"-0.019": 0.0,
			"-0.018": 0.0,
			"-0.017": 0.0,
			"-0.016": 0.0,
			"-0.015": 0.0,
			"-0.014": 0.0,
			"-0.013": 0.0,
			"-0.012": 0.0,
			"-0.011": 0.0,
			"-0.01": 0.017576674831,
			"-0.009": 0.776077321541,
			"-0.008": 5.37578437098,
			"-0.007": 13.8450804706,
			"-0.006": 20.2269457382,
			"-0.005": 27.0524835002,
			"-0.004": 24.8107694373,
			"-0.003": 27.0126080083,
			"-0.002": 22.2092975825,
			"-0.001": 16.8384425275,
			"0.0": 16.1214203122,
			"0.001": 13.3564916463,
			"0.002": 10.3657785919,
			"0.003": 9.94511029565,
			"0.004": 9.83907430704,
			"0.005": 11.4445338643,
			"0.006": 9.3344686081,
			"0.007": 3.22941822954,
			"0.008": 4.32635212319,
			"0.009": 5.35332725412,
			"0.01": 5.10097599531,
			"0.011": 7.32649509672,
			"0.012": 7.73965074498,
			"0.013": 2.62823720642,
			"0.014": 1.82077767835,
			"0.015": 1.37084255801,
			"0.016": 0.996918655367,
			"0.017": 0.183854077536,
			"0.018": 0.0,
			"0.019": 0.0,
			"0.02": 0.0,
			"0.021": 0.0,
			"0.022": 0.0,
			"0.023": 0.0,
			"0.024": 0.0,
			"0.025": 0.0
		}
	}
}
