{
	 "smiles": "[O-][N+](=O)C1=CC=CC=C1CC#N", 
	 "Tm": 356.15, 
	 "num_atms": 18, 
	 "gaussian": { 
		 "optdone": 1, 
		 "sigma_profile": "yes", 
		 "theory": "DFT", 
		 "functional": "B3LYP", 
		 "basiset": "6-31G**", 
		 "properties": { 
			 "R2extent": 3623.766, 
			 "electric_dipole_moment_norm": 6.51928732992, 
			 "electric_quadrupole_moment_norm": 21.52547746, 
			 "total_energy": -568.292885828, 
			 "HOMO_LUMO_gap": 0.18793, 
			 "cosmo_polarized_energy": -15.21, 
			 "cosmo_cavitation_energy": 23.82, 
			 "cosmo_dispersion_energy": -16.85, 
			 "cosmo_repulsion_energy": 1.34, 
			 "cosmo_total_nonelectrostatic_energy": 8.31, 
			 "SMD_solvation_energy": 7.44 
		},
		"coords": [
			{
				"x": -2.6906739372,
				"y": -3.3363176261,
				"z": 1.4923909848,
				"element": "O" 
			},
			{
				"x": -1.4900850046,
				"y": -3.1155000708,
				"z": 1.3287466787,
				"element": "N" 
			},
			{
				"x": -0.5946985766,
				"y": -3.8879835962,
				"z": 1.6632033013,
				"element": "O" 
			},
			{
				"x": -1.0922746081,
				"y": -1.8423610171,
				"z": 0.6932285305,
				"element": "C" 
			},
			{
				"x": 0.2716073024,
				"y": -1.5427498976,
				"z": 0.7249316395,
				"element": "C" 
			},
			{
				"x": 0.7366285187,
				"y": -0.3630326356,
				"z": 0.1552596198,
				"element": "C" 
			},
			{
				"x": -0.1669821057,
				"y": 0.5065540143,
				"z": -0.4555537388,
				"element": "C" 
			},
			{
				"x": -1.5239174765,
				"y": 0.1898193271,
				"z": -0.4897410507,
				"element": "C" 
			},
			{
				"x": -2.0276750576,
				"y": -0.9846848593,
				"z": 0.0835524855,
				"element": "C" 
			},
			{
				"x": -3.5293961644,
				"y": -1.2302159561,
				"z": -0.0121969349,
				"element": "C" 
			},
			{
				"x": -4.2419818582,
				"y": -0.8428691112,
				"z": 1.2121386185,
				"element": "C" 
			},
			{
				"x": -4.8087201452,
				"y": -0.4985190981,
				"z": 2.1640055468,
				"element": "N" 
			},
			{
				"x": 0.9419219607,
				"y": -2.2467724989,
				"z": 1.2006673844,
				"element": "H" 
			},
			{
				"x": 1.7954210897,
				"y": -0.1280844034,
				"z": 0.1876324128,
				"element": "H" 
			},
			{
				"x": 0.180727766,
				"y": 1.430388833,
				"z": -0.9074288846,
				"element": "H" 
			},
			{
				"x": -2.2196778731,
				"y": 0.8709513211,
				"z": -0.9709177537,
				"element": "H" 
			},
			{
				"x": -3.9270645692,
				"y": -0.625623121,
				"z": -0.8345173744,
				"element": "H" 
			},
			{
				"x": -3.753259261,
				"y": -2.2770996039,
				"z": -0.2232014654,
				"element": "H" 
			}
		],
		 "valence_orbital": [ 
			{
				"type": "occ",
				"energy": -0.31813,
				"method": "rhf"
			},
			{
				"type": "occ",
				"energy": -0.31591,
				"method": "rhf"
			},
			{
				"type": "occ",
				"energy": -0.3038,
				"method": "rhf"
			},
			{
				"type": "occ",
				"energy": -0.29357,
				"method": "rhf"
			},
			{
				"type": "occ",
				"energy": -0.289,
				"method": "rhf"
			},
			{
				"type": "unocc",
				"energy": -0.10107,
				"method": "rhf"
			},
			{
				"type": "unocc",
				"energy": -0.0438,
				"method": "rhf"
			},
			{
				"type": "unocc",
				"energy": -0.01781,
				"method": "rhf"
			},
			{
				"type": "unocc",
				"energy": 0.03283,
				"method": "rhf"
			},
			{
				"type": "unocc",
				"energy": 0.04182,
				"method": "rhf"
			}
		],
		"cosmo_sigma_profile": { 
			"-0.025": 0.0,
			"-0.024": 0.0,
			"-0.023": 0.0,
			"-0.022": 0.0,
			"-0.021": 0.0,
			"-0.02": 0.0,
			"-0.019": 0.0,
			"-0.018": 0.0,
			"-0.017": 0.0,
			"-0.016": 0.0,
			"-0.015": 0.0,
			"-0.014": 0.0,
			"-0.013": 0.0,
			"-0.012": 0.0,
			"-0.011": 0.117787734645,
			"-0.01": 2.1413410253,
			"-0.009": 3.94455703729,
			"-0.008": 9.39097369238,
			"-0.007": 13.7262938884,
			"-0.006": 15.0846198085,
			"-0.005": 11.6562499351,
			"-0.004": 10.1184637002,
			"-0.003": 9.28005804439,
			"-0.002": 9.35173823539,
			"-0.001": 11.9064407507,
			"0.0": 12.8029222588,
			"0.001": 13.8911366763,
			"0.002": 9.33954305809,
			"0.003": 4.54880396763,
			"0.004": 4.17798627603,
			"0.005": 5.32219899721,
			"0.006": 6.90009769322,
			"0.007": 10.2726373849,
			"0.008": 8.5909953011,
			"0.009": 7.73873727731,
			"0.01": 4.95840879834,
			"0.011": 2.87513736282,
			"0.012": 2.38560875355,
			"0.013": 1.74280124529,
			"0.014": 0.155079589126,
			"0.015": 0.0,
			"0.016": 0.0,
			"0.017": 0.0,
			"0.018": 0.0,
			"0.019": 0.0,
			"0.02": 0.0,
			"0.021": 0.0,
			"0.022": 0.0,
			"0.023": 0.0,
			"0.024": 0.0,
			"0.025": 0.0
		}
	}
}
