{
	 "smiles": "CC1=C(C)C(O)=C(C)C(C)=C1O", 
	 "Tm": 506.15, 
	 "num_atms": 26, 
	 "gaussian": { 
		 "optdone": 1, 
		 "sigma_profile": "yes", 
		 "theory": "DFT", 
		 "functional": "B3LYP", 
		 "basiset": "6-31G**", 
		 "properties": { 
			 "R2extent": 2747.5175, 
			 "electric_dipole_moment_norm": 2.69436201168, 
			 "electric_quadrupole_moment_norm": 10.8173627484, 
			 "total_energy": -539.960718738, 
			 "HOMO_LUMO_gap": 0.19534, 
			 "cosmo_polarized_energy": -10.69, 
			 "cosmo_cavitation_energy": 27.08, 
			 "cosmo_dispersion_energy": -20.39, 
			 "cosmo_repulsion_energy": 1.6, 
			 "cosmo_total_nonelectrostatic_energy": 8.3, 
			 "SMD_solvation_energy": 5.0 
		},
		"coords": [
			{
				"x": -1.7326338274,
				"y": -3.5262276445,
				"z": -0.9229979896,
				"element": "C" 
			},
			{
				"x": -0.9802438531,
				"y": -2.2120561273,
				"z": -0.8995661609,
				"element": "C" 
			},
			{
				"x": 0.3978627572,
				"y": -2.1059418771,
				"z": -1.1680939295,
				"element": "C" 
			},
			{
				"x": 1.2851787713,
				"y": -3.3019807656,
				"z": -1.4435175002,
				"element": "C" 
			},
			{
				"x": 0.9896373427,
				"y": -0.8307770479,
				"z": -1.1761845134,
				"element": "C" 
			},
			{
				"x": 2.3337457341,
				"y": -0.6726586297,
				"z": -1.4462969097,
				"element": "O" 
			},
			{
				"x": 0.2607788082,
				"y": 0.3333292491,
				"z": -0.8969402191,
				"element": "C" 
			},
			{
				"x": 0.9428991043,
				"y": 1.6805621698,
				"z": -0.9164979999,
				"element": "C" 
			},
			{
				"x": -1.1056693939,
				"y": 0.2233319425,
				"z": -0.5907197713,
				"element": "C" 
			},
			{
				"x": -1.9262697228,
				"y": 1.4486987765,
				"z": -0.2654456622,
				"element": "C" 
			},
			{
				"x": -1.7035745447,
				"y": -1.044235133,
				"z": -0.6007457195,
				"element": "C" 
			},
			{
				"x": -3.0533739112,
				"y": -1.0970196975,
				"z": -0.3182247133,
				"element": "O" 
			},
			{
				"x": -2.6507522763,
				"y": -3.4435190823,
				"z": -1.5194652187,
				"element": "H" 
			},
			{
				"x": -2.0227132764,
				"y": -3.8606811903,
				"z": 0.0839309867,
				"element": "H" 
			},
			{
				"x": -1.1541371791,
				"y": -4.3354839052,
				"z": -1.367720953,
				"element": "H" 
			},
			{
				"x": 1.5947994101,
				"y": -3.3598610315,
				"z": -2.497400063,
				"element": "H" 
			},
			{
				"x": 0.8016788641,
				"y": -4.2492139585,
				"z": -1.2061460401,
				"element": "H" 
			},
			{
				"x": 2.197665634,
				"y": -3.2638151705,
				"z": -0.8340385166,
				"element": "H" 
			},
			{
				"x": 2.6896837508,
				"y": -1.5019254915,
				"z": -1.784284189,
				"element": "H" 
			},
			{
				"x": 0.3770977536,
				"y": 2.4037882885,
				"z": -1.5139892668,
				"element": "H" 
			},
			{
				"x": 1.9482784686,
				"y": 1.6036495256,
				"z": -1.3298833197,
				"element": "H" 
			},
			{
				"x": 1.0272414285,
				"y": 2.1012232992,
				"z": 0.0938772429,
				"element": "H" 
			},
			{
				"x": -1.433044571,
				"y": 2.0676617072,
				"z": 0.4920475636,
				"element": "H" 
			},
			{
				"x": -2.0667283598,
				"y": 2.0827739815,
				"z": -1.1503960493,
				"element": "H" 
			},
			{
				"x": -2.9128334793,
				"y": 1.1714022627,
				"z": 0.1052124617,
				"element": "H" 
			},
			{
				"x": -3.3150734326,
				"y": -2.0152244504,
				"z": -0.1877135502,
				"element": "H" 
			}
		],
		 "valence_orbital": [ 
			{
				"type": "occ",
				"energy": -0.33662,
				"method": "rhf"
			},
			{
				"type": "occ",
				"energy": -0.31719,
				"method": "rhf"
			},
			{
				"type": "occ",
				"energy": -0.28368,
				"method": "rhf"
			},
			{
				"type": "occ",
				"energy": -0.2194,
				"method": "rhf"
			},
			{
				"type": "occ",
				"energy": -0.18623,
				"method": "rhf"
			},
			{
				"type": "unocc",
				"energy": 0.00911,
				"method": "rhf"
			},
			{
				"type": "unocc",
				"energy": 0.03603,
				"method": "rhf"
			},
			{
				"type": "unocc",
				"energy": 0.06311,
				"method": "rhf"
			},
			{
				"type": "unocc",
				"energy": 0.08455,
				"method": "rhf"
			},
			{
				"type": "unocc",
				"energy": 0.11265,
				"method": "rhf"
			}
		],
		"cosmo_sigma_profile": { 
			"-0.025": 0.0,
			"-0.024": 0.0,
			"-0.023": 0.0,
			"-0.022": 0.0,
			"-0.021": 0.0,
			"-0.02": 0.0,
			"-0.019": 0.0,
			"-0.018": 0.0,
			"-0.017": 0.0,
			"-0.016": 0.0189222456784,
			"-0.015": 0.993733997107,
			"-0.014": 1.50491082704,
			"-0.013": 1.92719774132,
			"-0.012": 1.97126867104,
			"-0.011": 2.09275737605,
			"-0.01": 1.56149721613,
			"-0.009": 1.74567307924,
			"-0.008": 3.16658567934,
			"-0.007": 2.85575039916,
			"-0.006": 4.15214071064,
			"-0.005": 7.52533032065,
			"-0.004": 11.6735807008,
			"-0.003": 18.7046868634,
			"-0.002": 19.4086307087,
			"-0.001": 22.6833613176,
			"0.0": 21.7679256544,
			"0.001": 17.9388507726,
			"0.002": 9.2977361641,
			"0.003": 7.55652247269,
			"0.004": 9.64865424463,
			"0.005": 11.7336622151,
			"0.006": 11.4446009001,
			"0.007": 6.46323929884,
			"0.008": 4.15803272157,
			"0.009": 4.16352048788,
			"0.01": 3.19198983471,
			"0.011": 1.72618177006,
			"0.012": 1.15907083051,
			"0.013": 0.0196201810746,
			"0.014": 0.0,
			"0.015": 0.0,
			"0.016": 0.0,
			"0.017": 0.0,
			"0.018": 0.0,
			"0.019": 0.0,
			"0.02": 0.0,
			"0.021": 0.0,
			"0.022": 0.0,
			"0.023": 0.0,
			"0.024": 0.0,
			"0.025": 0.0
		}
	}
}
