{
	 "smiles": "CC1OC2=C(NC1=O)C=CC=N2", 
	 "Tm": 499.15, 
	 "num_atms": 20, 
	 "gaussian": { 
		 "optdone": 1, 
		 "sigma_profile": "yes", 
		 "theory": "DFT", 
		 "functional": "B3LYP", 
		 "basiset": "6-31G**", 
		 "properties": { 
			 "R2extent": 2668.6735, 
			 "electric_dipole_moment_norm": 2.96403300589, 
			 "electric_quadrupole_moment_norm": 13.0200053402, 
			 "total_energy": -569.633978959, 
			 "HOMO_LUMO_gap": 0.19326, 
			 "cosmo_polarized_energy": -14.77, 
			 "cosmo_cavitation_energy": 23.9, 
			 "cosmo_dispersion_energy": -18.12, 
			 "cosmo_repulsion_energy": 1.43, 
			 "cosmo_total_nonelectrostatic_energy": 7.21, 
			 "SMD_solvation_energy": 3.39 
		},
		"coords": [
			{
				"x": -1.1053552873,
				"y": -1.9246541998,
				"z": 2.5265659299,
				"element": "C" 
			},
			{
				"x": -1.6319530001,
				"y": -0.785059348,
				"z": 1.6734915668,
				"element": "C" 
			},
			{
				"x": -0.4936219093,
				"y": -0.061797131,
				"z": 1.1665670801,
				"element": "O" 
			},
			{
				"x": -0.745802681,
				"y": 0.8851606475,
				"z": 0.2203877984,
				"element": "C" 
			},
			{
				"x": -1.8309370138,
				"y": 0.7098314235,
				"z": -0.6642586097,
				"element": "C" 
			},
			{
				"x": -2.6049704646,
				"y": -0.4513398012,
				"z": -0.540643969,
				"element": "N" 
			},
			{
				"x": -2.5547169155,
				"y": -1.284043513,
				"z": 0.5514601064,
				"element": "C" 
			},
			{
				"x": -3.2279043874,
				"y": -2.2969360635,
				"z": 0.6390960169,
				"element": "O" 
			},
			{
				"x": -2.0446205428,
				"y": 1.6804561674,
				"z": -1.6368480839,
				"element": "C" 
			},
			{
				"x": -1.1646636208,
				"y": 2.7642593072,
				"z": -1.7055820932,
				"element": "C" 
			},
			{
				"x": -0.1128516763,
				"y": 2.8252038013,
				"z": -0.7960524824,
				"element": "C" 
			},
			{
				"x": 0.0920014776,
				"y": 1.9032049472,
				"z": 0.158533883,
				"element": "N" 
			},
			{
				"x": -1.942067529,
				"y": -2.5059125349,
				"z": 2.9170262209,
				"element": "H" 
			},
			{
				"x": -0.4731872716,
				"y": -2.584660051,
				"z": 1.9269342462,
				"element": "H" 
			},
			{
				"x": -0.514962435,
				"y": -1.5271613241,
				"z": 3.3550251023,
				"element": "H" 
			},
			{
				"x": -2.2322692214,
				"y": -0.0968131444,
				"z": 2.2913910037,
				"element": "H" 
			},
			{
				"x": -3.2572841541,
				"y": -0.7100464098,
				"z": -1.2702776887,
				"element": "H" 
			},
			{
				"x": -2.8724084153,
				"y": 1.5820608853,
				"z": -2.334204881,
				"element": "H" 
			},
			{
				"x": -1.2950582697,
				"y": 3.5386030019,
				"z": -2.4536783243,
				"element": "H" 
			},
			{
				"x": 0.6002333173,
				"y": 3.6456433395,
				"z": -0.8254328224,
				"element": "H" 
			}
		],
		 "valence_orbital": [ 
			{
				"type": "occ",
				"energy": -0.33362,
				"method": "rhf"
			},
			{
				"type": "occ",
				"energy": -0.27871,
				"method": "rhf"
			},
			{
				"type": "occ",
				"energy": -0.27024,
				"method": "rhf"
			},
			{
				"type": "occ",
				"energy": -0.26259,
				"method": "rhf"
			},
			{
				"type": "occ",
				"energy": -0.22603,
				"method": "rhf"
			},
			{
				"type": "unocc",
				"energy": -0.03277,
				"method": "rhf"
			},
			{
				"type": "unocc",
				"energy": -0.01796,
				"method": "rhf"
			},
			{
				"type": "unocc",
				"energy": 0.02047,
				"method": "rhf"
			},
			{
				"type": "unocc",
				"energy": 0.07386,
				"method": "rhf"
			},
			{
				"type": "unocc",
				"energy": 0.09327,
				"method": "rhf"
			}
		],
		"cosmo_sigma_profile": { 
			"-0.025": 0.0,
			"-0.024": 0.0,
			"-0.023": 0.0,
			"-0.022": 0.0,
			"-0.021": 0.0,
			"-0.02": 0.0,
			"-0.019": 0.0,
			"-0.018": 0.0,
			"-0.017": 0.0,
			"-0.016": 0.658082435623,
			"-0.015": 1.30403654116,
			"-0.014": 1.62726751927,
			"-0.013": 0.969206734494,
			"-0.012": 1.2137314294,
			"-0.011": 1.18516349089,
			"-0.01": 1.41132579025,
			"-0.009": 1.87050737835,
			"-0.008": 4.39467311964,
			"-0.007": 8.0780320162,
			"-0.006": 9.35821206133,
			"-0.005": 12.3328033494,
			"-0.004": 14.504211388,
			"-0.003": 12.7373262662,
			"-0.002": 12.3346291105,
			"-0.001": 15.1382892765,
			"0.0": 15.7471591388,
			"0.001": 10.2748947857,
			"0.002": 11.6389105472,
			"0.003": 10.0648899921,
			"0.004": 4.06490418184,
			"0.005": 3.65594036013,
			"0.006": 3.52851475049,
			"0.007": 3.29204285886,
			"0.008": 3.76484920944,
			"0.009": 3.66813110929,
			"0.01": 3.41621406383,
			"0.011": 3.95823618689,
			"0.012": 7.29157105181,
			"0.013": 4.30374332933,
			"0.014": 0.722139675288,
			"0.015": 1.32554648269,
			"0.016": 0.646310388171,
			"0.017": 0.0222163399528,
			"0.018": 0.0,
			"0.019": 0.0,
			"0.02": 0.0,
			"0.021": 0.0,
			"0.022": 0.0,
			"0.023": 0.0,
			"0.024": 0.0,
			"0.025": 0.0
		}
	}
}
