{
	 "smiles": "COC1=CC=C(C=C1OC)[N+]([O-])=O", 
	 "Tm": 370.65, 
	 "num_atms": 22, 
	 "gaussian": { 
		 "optdone": 1, 
		 "sigma_profile": "yes", 
		 "theory": "DFT", 
		 "functional": "B3LYP", 
		 "basiset": "6-31G**", 
		 "properties": { 
			 "R2extent": 3082.7681, 
			 "electric_dipole_moment_norm": 5.3609784079, 
			 "electric_quadrupole_moment_norm": 16.4986548127, 
			 "total_energy": -665.787673445, 
			 "HOMO_LUMO_gap": 0.17003, 
			 "cosmo_polarized_energy": -9.44, 
			 "cosmo_cavitation_energy": 26.67, 
			 "cosmo_dispersion_energy": -19.25, 
			 "cosmo_repulsion_energy": 1.53, 
			 "cosmo_total_nonelectrostatic_energy": 8.95, 
			 "SMD_solvation_energy": 8.46 
		},
		"coords": [
			{
				"x": -1.3922572768,
				"y": -0.6487921599,
				"z": 2.7279877104,
				"element": "C" 
			},
			{
				"x": -0.6572153415,
				"y": -1.1400493763,
				"z": 1.5943911377,
				"element": "O" 
			},
			{
				"x": 0.1334636333,
				"y": -0.2274702796,
				"z": 0.9518846303,
				"element": "C" 
			},
			{
				"x": 1.5142012957,
				"y": -0.450765354,
				"z": 0.9202953281,
				"element": "C" 
			},
			{
				"x": 2.3644887356,
				"y": 0.4307363398,
				"z": 0.2605416432,
				"element": "C" 
			},
			{
				"x": 1.8097575219,
				"y": 1.546477071,
				"z": -0.3631232364,
				"element": "C" 
			},
			{
				"x": 0.4361365251,
				"y": 1.7856060528,
				"z": -0.3672645573,
				"element": "C" 
			},
			{
				"x": -0.410423037,
				"y": 0.8924022978,
				"z": 0.2821682315,
				"element": "C" 
			},
			{
				"x": -1.7614039298,
				"y": 1.1411206061,
				"z": 0.2839890603,
				"element": "O" 
			},
			{
				"x": -2.5399437255,
				"y": 0.2355579522,
				"z": -0.5129883508,
				"element": "C" 
			},
			{
				"x": 2.6945127637,
				"y": 2.4941185185,
				"z": -1.0518968323,
				"element": "N" 
			},
			{
				"x": 3.9022293847,
				"y": 2.2534909801,
				"z": -1.0492083894,
				"element": "O" 
			},
			{
				"x": 2.1769806566,
				"y": 3.4725192913,
				"z": -1.5913213865,
				"element": "O" 
			},
			{
				"x": -1.9739353165,
				"y": -1.4950539713,
				"z": 3.0966079751,
				"element": "H" 
			},
			{
				"x": -0.7028373849,
				"y": -0.3128627313,
				"z": 3.5114414759,
				"element": "H" 
			},
			{
				"x": -2.0583176576,
				"y": 0.1712550344,
				"z": 2.4483083646,
				"element": "H" 
			},
			{
				"x": 1.9016009683,
				"y": -1.3257082253,
				"z": 1.431280771,
				"element": "H" 
			},
			{
				"x": 3.4358177962,
				"y": 0.2792823687,
				"z": 0.2331593291,
				"element": "H" 
			},
			{
				"x": 0.0294575899,
				"y": 2.6514429989,
				"z": -0.8738095082,
				"element": "H" 
			},
			{
				"x": -2.2457624875,
				"y": 0.3000146767,
				"z": -1.5673121526,
				"element": "H" 
			},
			{
				"x": -2.4306672636,
				"y": -0.7963232964,
				"z": -0.1648701967,
				"element": "H" 
			},
			{
				"x": -3.5782834502,
				"y": 0.5541012057,
				"z": -0.4067610473,
				"element": "H" 
			}
		],
		 "valence_orbital": [ 
			{
				"type": "occ",
				"energy": -0.30397,
				"method": "rhf"
			},
			{
				"type": "occ",
				"energy": -0.29016,
				"method": "rhf"
			},
			{
				"type": "occ",
				"energy": -0.28309,
				"method": "rhf"
			},
			{
				"type": "occ",
				"energy": -0.26856,
				"method": "rhf"
			},
			{
				"type": "occ",
				"energy": -0.25474,
				"method": "rhf"
			},
			{
				"type": "unocc",
				"energy": -0.08471,
				"method": "rhf"
			},
			{
				"type": "unocc",
				"energy": -0.02418,
				"method": "rhf"
			},
			{
				"type": "unocc",
				"energy": 0.00531,
				"method": "rhf"
			},
			{
				"type": "unocc",
				"energy": 0.06936,
				"method": "rhf"
			},
			{
				"type": "unocc",
				"energy": 0.09461,
				"method": "rhf"
			}
		],
		"cosmo_sigma_profile": { 
			"-0.025": 0.0,
			"-0.024": 0.0,
			"-0.023": 0.0,
			"-0.022": 0.0,
			"-0.021": 0.0,
			"-0.02": 0.0,
			"-0.019": 0.0,
			"-0.018": 0.0,
			"-0.017": 0.0,
			"-0.016": 0.0,
			"-0.015": 0.0,
			"-0.014": 0.0,
			"-0.013": 0.0,
			"-0.012": 0.0,
			"-0.011": 0.0,
			"-0.01": 0.0,
			"-0.009": 0.0,
			"-0.008": 1.24483611217,
			"-0.007": 4.68651701611,
			"-0.006": 9.12959517862,
			"-0.005": 16.0963306269,
			"-0.004": 19.6308129327,
			"-0.003": 27.8898048856,
			"-0.002": 20.0143821731,
			"-0.001": 17.9002773364,
			"0.0": 17.3422656679,
			"0.001": 16.0840178743,
			"0.002": 9.75574329714,
			"0.003": 5.05475517486,
			"0.004": 5.37219253701,
			"0.005": 4.9449895346,
			"0.006": 6.01915075226,
			"0.007": 7.68666650918,
			"0.008": 10.6946962848,
			"0.009": 6.70406836088,
			"0.01": 4.91573324771,
			"0.011": 1.49183439375,
			"0.012": 0.0363253569958,
			"0.013": 0.0,
			"0.014": 0.0,
			"0.015": 0.0,
			"0.016": 0.0,
			"0.017": 0.0,
			"0.018": 0.0,
			"0.019": 0.0,
			"0.02": 0.0,
			"0.021": 0.0,
			"0.022": 0.0,
			"0.023": 0.0,
			"0.024": 0.0,
			"0.025": 0.0
		}
	}
}
