{
	 "smiles": "CCCCNC1=C2C=CC=CC2=C(C)N=N1", 
	 "Tm": 348.15, 
	 "num_atms": 33, 
	 "gaussian": { 
		 "optdone": 1, 
		 "sigma_profile": "yes", 
		 "theory": "DFT", 
		 "functional": "B3LYP", 
		 "basiset": "6-31G**", 
		 "properties": { 
			 "R2extent": 4594.0208, 
			 "electric_dipole_moment_norm": 4.05120022833, 
			 "electric_quadrupole_moment_norm": 15.396827268, 
			 "total_energy": -669.875054441, 
			 "HOMO_LUMO_gap": 0.16242, 
			 "cosmo_polarized_energy": -13.17, 
			 "cosmo_cavitation_energy": 35.08, 
			 "cosmo_dispersion_energy": -25.1, 
			 "cosmo_repulsion_energy": 1.97, 
			 "cosmo_total_nonelectrostatic_energy": 11.95, 
			 "SMD_solvation_energy": 2.57 
		},
		"coords": [
			{
				"x": -5.0091603649,
				"y": -0.0173810054,
				"z": -1.9362502387,
				"element": "C" 
			},
			{
				"x": -3.9860846547,
				"y": 1.0150929091,
				"z": -1.4452992498,
				"element": "C" 
			},
			{
				"x": -3.1163473491,
				"y": 0.5444877105,
				"z": -0.2674971941,
				"element": "C" 
			},
			{
				"x": -2.1571490256,
				"y": -0.6036615591,
				"z": -0.6188875903,
				"element": "C" 
			},
			{
				"x": -1.2957604044,
				"y": -1.0305970431,
				"z": 0.501641154,
				"element": "N" 
			},
			{
				"x": -0.2475894908,
				"y": -0.2044478312,
				"z": 0.9232286105,
				"element": "C" 
			},
			{
				"x": 0.8891969616,
				"y": 0.0563517072,
				"z": 0.0792933518,
				"element": "C" 
			},
			{
				"x": 1.1057399564,
				"y": -0.5521697483,
				"z": -1.1796865011,
				"element": "C" 
			},
			{
				"x": 2.2235077744,
				"y": -0.2297587501,
				"z": -1.9236704796,
				"element": "C" 
			},
			{
				"x": 3.162848676,
				"y": 0.7021910813,
				"z": -1.4318319927,
				"element": "C" 
			},
			{
				"x": 2.9944511144,
				"y": 1.2708035431,
				"z": -0.1851103386,
				"element": "C" 
			},
			{
				"x": 1.8639165407,
				"y": 0.9452218165,
				"z": 0.604047514,
				"element": "C" 
			},
			{
				"x": 1.6688808969,
				"y": 1.4174003155,
				"z": 1.9473189147,
				"element": "C" 
			},
			{
				"x": 2.6466715949,
				"y": 2.3526532669,
				"z": 2.6103164779,
				"element": "C" 
			},
			{
				"x": 0.6457118931,
				"y": 1.0348105693,
				"z": 2.683014259,
				"element": "N" 
			},
			{
				"x": -0.3310139699,
				"y": 0.2493184529,
				"z": 2.1617725931,
				"element": "N" 
			},
			{
				"x": -5.635817545,
				"y": 0.3989597585,
				"z": -2.7316458772,
				"element": "H" 
			},
			{
				"x": -4.5295477548,
				"y": -0.9162939004,
				"z": -2.3375353247,
				"element": "H" 
			},
			{
				"x": -5.6725379744,
				"y": -0.3318929099,
				"z": -1.1222171622,
				"element": "H" 
			},
			{
				"x": -3.335740202,
				"y": 1.3129073967,
				"z": -2.2795565871,
				"element": "H" 
			},
			{
				"x": -4.5178002422,
				"y": 1.9247246456,
				"z": -1.1402800606,
				"element": "H" 
			},
			{
				"x": -2.5253222271,
				"y": 1.388223818,
				"z": 0.1087765462,
				"element": "H" 
			},
			{
				"x": -3.7637738248,
				"y": 0.2306972023,
				"z": 0.5636567047,
				"element": "H" 
			},
			{
				"x": -1.5213660326,
				"y": -0.3021043259,
				"z": -1.4558804386,
				"element": "H" 
			},
			{
				"x": -2.7156647507,
				"y": -1.4857204434,
				"z": -0.9500214648,
				"element": "H" 
			},
			{
				"x": -1.8635128262,
				"y": -1.228341372,
				"z": 1.3230083134,
				"element": "H" 
			},
			{
				"x": 0.4042428801,
				"y": -1.2963345656,
				"z": -1.5383452094,
				"element": "H" 
			},
			{
				"x": 2.3888101643,
				"y": -0.7032564445,
				"z": -2.8869728659,
				"element": "H" 
			},
			{
				"x": 4.0337286336,
				"y": 0.9544199747,
				"z": -2.0299065254,
				"element": "H" 
			},
			{
				"x": 3.7364124111,
				"y": 1.9610374838,
				"z": 0.2018596327,
				"element": "H" 
			},
			{
				"x": 2.7321203031,
				"y": 3.3004579679,
				"z": 2.0655415848,
				"element": "H" 
			},
			{
				"x": 2.2990106037,
				"y": 2.5609278146,
				"z": 3.6230280134,
				"element": "H" 
			},
			{
				"x": 3.6509382349,
				"y": 1.9164724643,
				"z": 2.6664914305,
				"element": "H" 
			}
		],
		 "valence_orbital": [ 
			{
				"type": "occ",
				"energy": -0.29109,
				"method": "rhf"
			},
			{
				"type": "occ",
				"energy": -0.27131,
				"method": "rhf"
			},
			{
				"type": "occ",
				"energy": -0.25765,
				"method": "rhf"
			},
			{
				"type": "occ",
				"energy": -0.22003,
				"method": "rhf"
			},
			{
				"type": "occ",
				"energy": -0.21372,
				"method": "rhf"
			},
			{
				"type": "unocc",
				"energy": -0.0513,
				"method": "rhf"
			},
			{
				"type": "unocc",
				"energy": -0.0346,
				"method": "rhf"
			},
			{
				"type": "unocc",
				"energy": 0.02832,
				"method": "rhf"
			},
			{
				"type": "unocc",
				"energy": 0.07356,
				"method": "rhf"
			},
			{
				"type": "unocc",
				"energy": 0.08737,
				"method": "rhf"
			}
		],
		"cosmo_sigma_profile": { 
			"-0.025": 0.0,
			"-0.024": 0.0,
			"-0.023": 0.0,
			"-0.022": 0.0,
			"-0.021": 0.0,
			"-0.02": 0.0,
			"-0.019": 0.0,
			"-0.018": 0.0,
			"-0.017": 0.0,
			"-0.016": 0.0,
			"-0.015": 0.0,
			"-0.014": 0.0,
			"-0.013": 0.0,
			"-0.012": 0.0,
			"-0.011": 0.436932824607,
			"-0.01": 1.0792130226,
			"-0.009": 0.501881021071,
			"-0.008": 1.0865012068,
			"-0.007": 4.07076067766,
			"-0.006": 10.4782677296,
			"-0.005": 17.0338275498,
			"-0.004": 19.0059878781,
			"-0.003": 24.9556714038,
			"-0.002": 32.1043562937,
			"-0.001": 32.7244966074,
			"0.0": 34.257334477,
			"0.001": 28.0978491219,
			"0.002": 19.8249677982,
			"0.003": 15.2620621774,
			"0.004": 5.45919105841,
			"0.005": 2.98256826053,
			"0.006": 2.86508356556,
			"0.007": 2.30355077649,
			"0.008": 2.73795036379,
			"0.009": 2.00804254401,
			"0.01": 2.30179774262,
			"0.011": 2.2154145696,
			"0.012": 2.50023163324,
			"0.013": 1.70472395593,
			"0.014": 2.18295773427,
			"0.015": 2.55279555464,
			"0.016": 2.44194499977,
			"0.017": 1.19140765294,
			"0.018": 0.027578408659,
			"0.019": 0.0,
			"0.02": 0.0,
			"0.021": 0.0,
			"0.022": 0.0,
			"0.023": 0.0,
			"0.024": 0.0,
			"0.025": 0.0
		}
	}
}
