{
	 "smiles": "CC1=C(CC(=O)NC2=CC(O)=C(C=C2)C(O)=O)C=CC=C1", 
	 "Tm": 496.15, 
	 "num_atms": 36, 
	 "gaussian": { 
		 "optdone": 1, 
		 "sigma_profile": "yes", 
		 "theory": "DFT", 
		 "functional": "B3LYP", 
		 "basiset": "6-31G**", 
		 "properties": { 
			 "R2extent": 9781.3932, 
			 "electric_dipole_moment_norm": 4.85882929418, 
			 "electric_quadrupole_moment_norm": 45.6120964379, 
			 "total_energy": -974.422922915, 
			 "HOMO_LUMO_gap": 0.18551, 
			 "cosmo_polarized_energy": -28.63, 
			 "cosmo_cavitation_energy": 40.24, 
			 "cosmo_dispersion_energy": -28.64, 
			 "cosmo_repulsion_energy": 2.18, 
			 "cosmo_total_nonelectrostatic_energy": 13.78, 
			 "SMD_solvation_energy": 8.55 
		},
		"coords": [
			{
				"x": -2.417855242,
				"y": 1.6098147266,
				"z": 0.0991976589,
				"element": "C" 
			},
			{
				"x": -2.6797668942,
				"y": 0.2990916142,
				"z": 0.8024615775,
				"element": "C" 
			},
			{
				"x": -1.7853197805,
				"y": -0.7869999184,
				"z": 0.6973699157,
				"element": "C" 
			},
			{
				"x": -0.4913691493,
				"y": -0.6704281831,
				"z": -0.0786125589,
				"element": "C" 
			},
			{
				"x": -0.6813319694,
				"y": -0.6409251349,
				"z": -1.5950510615,
				"element": "C" 
			},
			{
				"x": -1.7334273252,
				"y": -0.9325726077,
				"z": -2.1379157044,
				"element": "O" 
			},
			{
				"x": 0.3892055966,
				"y": -0.2504795241,
				"z": -2.3993766312,
				"element": "N" 
			},
			{
				"x": 1.6835491198,
				"y": 0.2313300323,
				"z": -2.1544051696,
				"element": "C" 
			},
			{
				"x": 2.4558363818,
				"y": -0.1269262416,
				"z": -1.0409093157,
				"element": "C" 
			},
			{
				"x": 3.744877244,
				"y": 0.3866165853,
				"z": -0.8856731745,
				"element": "C" 
			},
			{
				"x": 4.4979700333,
				"y": 0.0353454235,
				"z": 0.2091473896,
				"element": "O" 
			},
			{
				"x": 4.3186041127,
				"y": 1.2489717508,
				"z": -1.835605185,
				"element": "C" 
			},
			{
				"x": 3.5354303582,
				"y": 1.5713760592,
				"z": -2.9546280452,
				"element": "C" 
			},
			{
				"x": 2.2506937114,
				"y": 1.0850849118,
				"z": -3.1208361999,
				"element": "C" 
			},
			{
				"x": 5.691413686,
				"y": 1.8587859235,
				"z": -1.7685319775,
				"element": "C" 
			},
			{
				"x": 6.4643283506,
				"y": 1.5697958441,
				"z": -0.7025687793,
				"element": "O" 
			},
			{
				"x": 6.1020054275,
				"y": 2.5928670564,
				"z": -2.6415742487,
				"element": "O" 
			},
			{
				"x": -2.0821938355,
				"y": -1.9875945663,
				"z": 1.3500696455,
				"element": "C" 
			},
			{
				"x": -3.2463743352,
				"y": -2.13610084,
				"z": 2.1038704167,
				"element": "C" 
			},
			{
				"x": -4.1304758696,
				"y": -1.0650429491,
				"z": 2.2128112113,
				"element": "C" 
			},
			{
				"x": -3.8416997244,
				"y": 0.1369298127,
				"z": 1.565689611,
				"element": "C" 
			},
			{
				"x": -2.4664287298,
				"y": 1.4878697045,
				"z": -0.9885836826,
				"element": "H" 
			},
			{
				"x": -1.4282479796,
				"y": 2.0181125493,
				"z": 0.3386056199,
				"element": "H" 
			},
			{
				"x": -3.1592558479,
				"y": 2.3608831357,
				"z": 0.3834997437,
				"element": "H" 
			},
			{
				"x": 0.075993081,
				"y": 0.2180901134,
				"z": 0.2238363519,
				"element": "H" 
			},
			{
				"x": 0.1419031271,
				"y": -1.5344307908,
				"z": 0.1566346101,
				"element": "H" 
			},
			{
				"x": 0.0837928926,
				"y": -0.1838889578,
				"z": -3.3636842363,
				"element": "H" 
			},
			{
				"x": 2.0826297736,
				"y": -0.8298733093,
				"z": -0.3064066465,
				"element": "H" 
			},
			{
				"x": 3.9980535948,
				"y": -0.5385715516,
				"z": 0.8031309466,
				"element": "H" 
			},
			{
				"x": 3.9791529352,
				"y": 2.2353045616,
				"z": -3.6884067639,
				"element": "H" 
			},
			{
				"x": 1.6666031834,
				"y": 1.3707688149,
				"z": -3.9906027378,
				"element": "H" 
			},
			{
				"x": 5.9988727905,
				"y": 0.9678313516,
				"z": -0.0963328097,
				"element": "H" 
			},
			{
				"x": -1.3898677671,
				"y": -2.822039024,
				"z": 1.2643188514,
				"element": "H" 
			},
			{
				"x": -3.456495225,
				"y": -3.0786270555,
				"z": 2.6007612126,
				"element": "H" 
			},
			{
				"x": -5.0405047469,
				"y": -1.1606700277,
				"z": 2.7981547574,
				"element": "H" 
			},
			{
				"x": -4.5332009784,
				"y": 0.9714007105,
				"z": 1.6512454085,
				"element": "H" 
			}
		],
		 "valence_orbital": [ 
			{
				"type": "occ",
				"energy": -0.26677,
				"method": "rhf"
			},
			{
				"type": "occ",
				"energy": -0.26617,
				"method": "rhf"
			},
			{
				"type": "occ",
				"energy": -0.2497,
				"method": "rhf"
			},
			{
				"type": "occ",
				"energy": -0.24282,
				"method": "rhf"
			},
			{
				"type": "occ",
				"energy": -0.24024,
				"method": "rhf"
			},
			{
				"type": "unocc",
				"energy": -0.05473,
				"method": "rhf"
			},
			{
				"type": "unocc",
				"energy": -0.02208,
				"method": "rhf"
			},
			{
				"type": "unocc",
				"energy": -0.0074,
				"method": "rhf"
			},
			{
				"type": "unocc",
				"energy": -0.00232,
				"method": "rhf"
			},
			{
				"type": "unocc",
				"energy": 0.00832,
				"method": "rhf"
			}
		],
		"cosmo_sigma_profile": { 
			"-0.025": 0.0,
			"-0.024": 0.0,
			"-0.023": 0.0,
			"-0.022": 0.0,
			"-0.021": 0.0,
			"-0.02": 0.500802912314,
			"-0.019": 1.20233986339,
			"-0.018": 1.34269013854,
			"-0.017": 1.18735704954,
			"-0.016": 0.901100721413,
			"-0.015": 0.568204518919,
			"-0.014": 1.84813431823,
			"-0.013": 2.96118869421,
			"-0.012": 2.60931518491,
			"-0.011": 2.04371264393,
			"-0.01": 3.15223511231,
			"-0.009": 4.74305231351,
			"-0.008": 4.71598804901,
			"-0.007": 7.93055088707,
			"-0.006": 11.2775980548,
			"-0.005": 21.3945835304,
			"-0.004": 23.0188379225,
			"-0.003": 21.4266370383,
			"-0.002": 22.12404798,
			"-0.001": 20.4432650134,
			"0.0": 22.7653580477,
			"0.001": 23.2392146417,
			"0.002": 23.0397264807,
			"0.003": 16.0734340401,
			"0.004": 12.6431010863,
			"0.005": 10.1225486294,
			"0.006": 10.3598286981,
			"0.007": 6.36328850245,
			"0.008": 4.48062084808,
			"0.009": 4.46346950562,
			"0.01": 5.33024825738,
			"0.011": 6.94809951672,
			"0.012": 10.1232405625,
			"0.013": 7.30462014024,
			"0.014": 2.01310455042,
			"0.015": 0.00146695087064,
			"0.016": 0.0,
			"0.017": 0.0,
			"0.018": 0.0,
			"0.019": 0.0,
			"0.02": 0.0,
			"0.021": 0.0,
			"0.022": 0.0,
			"0.023": 0.0,
			"0.024": 0.0,
			"0.025": 0.0
		}
	}
}
