{
	 "smiles": "OC(=O)C1CC1C1=C(OC(F)(F)F)C=CC=C1", 
	 "Tm": 368.15, 
	 "num_atms": 26, 
	 "gaussian": { 
		 "optdone": 1, 
		 "sigma_profile": "yes", 
		 "theory": "DFT", 
		 "functional": "B3LYP", 
		 "basiset": "6-31G**", 
		 "properties": { 
			 "R2extent": 4444.0448, 
			 "electric_dipole_moment_norm": 5.40878581292, 
			 "electric_quadrupole_moment_norm": 14.6229785225, 
			 "total_energy": -949.771511292, 
			 "HOMO_LUMO_gap": 0.22451, 
			 "cosmo_polarized_energy": -15.28, 
			 "cosmo_cavitation_energy": 32.3, 
			 "cosmo_dispersion_energy": -21.77, 
			 "cosmo_repulsion_energy": 1.64, 
			 "cosmo_total_nonelectrostatic_energy": 12.17, 
			 "SMD_solvation_energy": 7.8 
		},
		"coords": [
			{
				"x": -0.9421761237,
				"y": 4.1508543161,
				"z": -1.6988867466,
				"element": "O" 
			},
			{
				"x": -1.2823717396,
				"y": 2.9268441635,
				"z": -2.1802408364,
				"element": "C" 
			},
			{
				"x": -2.3925356613,
				"y": 2.7327251396,
				"z": -2.6179297301,
				"element": "O" 
			},
			{
				"x": -0.2223466486,
				"y": 1.8748545634,
				"z": -2.1241764926,
				"element": "C" 
			},
			{
				"x": -0.282338328,
				"y": 0.7699829824,
				"z": -3.1627662302,
				"element": "C" 
			},
			{
				"x": -0.687432388,
				"y": 0.4617686699,
				"z": -1.7600316438,
				"element": "C" 
			},
			{
				"x": 0.1403900102,
				"y": -0.3888206114,
				"z": -0.8520038586,
				"element": "C" 
			},
			{
				"x": 0.0782603625,
				"y": -0.2012967421,
				"z": 0.5386570436,
				"element": "C" 
			},
			{
				"x": -0.7445512727,
				"y": 0.8567012785,
				"z": 0.9457875067,
				"element": "O" 
			},
			{
				"x": -1.3235314645,
				"y": 0.8579758698,
				"z": 2.1726383352,
				"element": "C" 
			},
			{
				"x": -2.2116308811,
				"y": 1.8491310394,
				"z": 2.1941279231,
				"element": "F" 
			},
			{
				"x": -0.4303791327,
				"y": 1.0770350337,
				"z": 3.1643852519,
				"element": "F" 
			},
			{
				"x": -1.9493785168,
				"y": -0.298086803,
				"z": 2.4486990847,
				"element": "F" 
			},
			{
				"x": 0.8178099159,
				"y": -0.9806336129,
				"z": 1.4248343699,
				"element": "C" 
			},
			{
				"x": 1.6361912782,
				"y": -1.9908606622,
				"z": 0.9152640773,
				"element": "C" 
			},
			{
				"x": 1.7161700515,
				"y": -2.2065180025,
				"z": -0.4589074835,
				"element": "C" 
			},
			{
				"x": 0.9726004204,
				"y": -1.4074287608,
				"z": -1.3285551668,
				"element": "C" 
			},
			{
				"x": -0.0375447277,
				"y": 4.1367742967,
				"z": -1.3570710136,
				"element": "H" 
			},
			{
				"x": 0.7650387946,
				"y": 2.1626096973,
				"z": -1.7715305259,
				"element": "H" 
			},
			{
				"x": -1.0720284521,
				"y": 0.8583728234,
				"z": -3.9009785642,
				"element": "H" 
			},
			{
				"x": 0.6691451543,
				"y": 0.4017146658,
				"z": -3.5325845979,
				"element": "H" 
			},
			{
				"x": -1.7604380701,
				"y": 0.4169820752,
				"z": -1.5878553955,
				"element": "H" 
			},
			{
				"x": 0.7676725335,
				"y": -0.8018574354,
				"z": 2.4909026845,
				"element": "H" 
			},
			{
				"x": 2.2116067829,
				"y": -2.6037359004,
				"z": 1.6022365853,
				"element": "H" 
			},
			{
				"x": 2.3498819776,
				"y": -2.9942624851,
				"z": -0.8540855185,
				"element": "H" 
			},
			{
				"x": 1.0211161252,
				"y": -1.5830255988,
				"z": -2.3986290584,
				"element": "H" 
			}
		],
		 "valence_orbital": [ 
			{
				"type": "occ",
				"energy": -0.31816,
				"method": "rhf"
			},
			{
				"type": "occ",
				"energy": -0.30475,
				"method": "rhf"
			},
			{
				"type": "occ",
				"energy": -0.27408,
				"method": "rhf"
			},
			{
				"type": "occ",
				"energy": -0.26375,
				"method": "rhf"
			},
			{
				"type": "occ",
				"energy": -0.2504,
				"method": "rhf"
			},
			{
				"type": "unocc",
				"energy": -0.02589,
				"method": "rhf"
			},
			{
				"type": "unocc",
				"energy": -0.01687,
				"method": "rhf"
			},
			{
				"type": "unocc",
				"energy": 0.01266,
				"method": "rhf"
			},
			{
				"type": "unocc",
				"energy": 0.05402,
				"method": "rhf"
			},
			{
				"type": "unocc",
				"energy": 0.07972,
				"method": "rhf"
			}
		],
		"cosmo_sigma_profile": { 
			"-0.025": 0.0,
			"-0.024": 0.0,
			"-0.023": 0.0,
			"-0.022": 0.0,
			"-0.021": 0.0,
			"-0.02": 0.152877742727,
			"-0.019": 0.822422127175,
			"-0.018": 1.08210495274,
			"-0.017": 1.76253642036,
			"-0.016": 0.346742641294,
			"-0.015": 0.762905280357,
			"-0.014": 1.00690382422,
			"-0.013": 1.27227245861,
			"-0.012": 1.05025470163,
			"-0.011": 1.05044913486,
			"-0.01": 0.90487131799,
			"-0.009": 1.01533045017,
			"-0.008": 1.54503537181,
			"-0.007": 4.26610821709,
			"-0.006": 11.8322917388,
			"-0.005": 15.863378863,
			"-0.004": 13.8769537286,
			"-0.003": 13.4723526265,
			"-0.002": 16.0871008999,
			"-0.001": 17.5224283433,
			"0.0": 22.4015615828,
			"0.001": 31.3273473657,
			"0.002": 41.1226877119,
			"0.003": 14.9263522121,
			"0.004": 11.4273092502,
			"0.005": 4.58788396378,
			"0.006": 1.78513501856,
			"0.007": 2.71429525416,
			"0.008": 1.99640375203,
			"0.009": 3.52738303403,
			"0.01": 4.23847065847,
			"0.011": 3.95153386622,
			"0.012": 5.58669759855,
			"0.013": 2.52069003194,
			"0.014": 0.280612507508,
			"0.015": 0.0,
			"0.016": 0.0,
			"0.017": 0.0,
			"0.018": 0.0,
			"0.019": 0.0,
			"0.02": 0.0,
			"0.021": 0.0,
			"0.022": 0.0,
			"0.023": 0.0,
			"0.024": 0.0,
			"0.025": 0.0
		}
	}
}
