{
	 "smiles": "OC(=O)C1=CC=C(OC2CCC2)C=C1", 
	 "Tm": 465.15, 
	 "num_atms": 26, 
	 "gaussian": { 
		 "optdone": 1, 
		 "sigma_profile": "yes", 
		 "theory": "DFT", 
		 "functional": "B3LYP", 
		 "basiset": "6-31G**", 
		 "properties": { 
			 "R2extent": 3848.899, 
			 "electric_dipole_moment_norm": 5.39125002388, 
			 "electric_quadrupole_moment_norm": 21.3259264263, 
			 "total_energy": -652.045987217, 
			 "HOMO_LUMO_gap": 0.20545, 
			 "cosmo_polarized_energy": -14.78, 
			 "cosmo_cavitation_energy": 29.34, 
			 "cosmo_dispersion_energy": -21.38, 
			 "cosmo_repulsion_energy": 1.7, 
			 "cosmo_total_nonelectrostatic_energy": 9.66, 
			 "SMD_solvation_energy": 5.81 
		},
		"coords": [
			{
				"x": 3.1728951607,
				"y": 1.6541915325,
				"z": -2.827814824,
				"element": "O" 
			},
			{
				"x": 2.7403580057,
				"y": 2.3615107093,
				"z": -1.7475963726,
				"element": "C" 
			},
			{
				"x": 3.3650268285,
				"y": 3.3262105424,
				"z": -1.3723912382,
				"element": "O" 
			},
			{
				"x": 1.4899384711,
				"y": 1.8786956281,
				"z": -1.0803829443,
				"element": "C" 
			},
			{
				"x": 0.5533310149,
				"y": 1.044624398,
				"z": -1.7090584712,
				"element": "C" 
			},
			{
				"x": -0.5986141964,
				"y": 0.6391881822,
				"z": -1.0390782337,
				"element": "C" 
			},
			{
				"x": -0.8276063035,
				"y": 1.0646082525,
				"z": 0.2750255985,
				"element": "C" 
			},
			{
				"x": -1.9946062947,
				"y": 0.7249687099,
				"z": 0.909585331,
				"element": "O" 
			},
			{
				"x": -2.0318025706,
				"y": -0.458038326,
				"z": 1.7151869938,
				"element": "C" 
			},
			{
				"x": -1.6417410969,
				"y": -1.8406735012,
				"z": 1.1411083643,
				"element": "C" 
			},
			{
				"x": -1.1407886946,
				"y": -2.2026234736,
				"z": 2.5672788304,
				"element": "C" 
			},
			{
				"x": -1.0312487058,
				"y": -0.6827292131,
				"z": 2.8735855321,
				"element": "C" 
			},
			{
				"x": 0.0905675551,
				"y": 1.91865828,
				"z": 0.9015253134,
				"element": "C" 
			},
			{
				"x": 1.2345779384,
				"y": 2.3253643569,
				"z": 0.224484642,
				"element": "C" 
			},
			{
				"x": 2.6768926512,
				"y": 0.8278890232,
				"z": -2.9057031191,
				"element": "H" 
			},
			{
				"x": 0.6870259309,
				"y": 0.7364078097,
				"z": -2.7435651906,
				"element": "H" 
			},
			{
				"x": -1.3406951719,
				"y": 0.0167852465,
				"z": -1.5276626154,
				"element": "H" 
			},
			{
				"x": -3.0587709333,
				"y": -0.4765074415,
				"z": 2.0893776866,
				"element": "H" 
			},
			{
				"x": -2.4290462499,
				"y": -2.4465136536,
				"z": 0.6843318645,
				"element": "H" 
			},
			{
				"x": -0.8018155183,
				"y": -1.7580961186,
				"z": 0.4450394813,
				"element": "H" 
			},
			{
				"x": -1.9202253492,
				"y": -2.6850382161,
				"z": 3.164016171,
				"element": "H" 
			},
			{
				"x": -0.2260101969,
				"y": -2.7946626782,
				"z": 2.6408538669,
				"element": "H" 
			},
			{
				"x": -1.3078507781,
				"y": -0.3193090616,
				"z": 3.8669344395,
				"element": "H" 
			},
			{
				"x": -0.0363002082,
				"y": -0.307101113,
				"z": 2.6176856855,
				"element": "H" 
			},
			{
				"x": -0.1182944758,
				"y": 2.2672971858,
				"z": 1.9074983404,
				"element": "H" 
			},
			{
				"x": 1.9498031877,
				"y": 2.9966929395,
				"z": 0.6874348678,
				"element": "H" 
			}
		],
		 "valence_orbital": [ 
			{
				"type": "occ",
				"energy": -0.31073,
				"method": "rhf"
			},
			{
				"type": "occ",
				"energy": -0.27603,
				"method": "rhf"
			},
			{
				"type": "occ",
				"energy": -0.27398,
				"method": "rhf"
			},
			{
				"type": "occ",
				"energy": -0.2701,
				"method": "rhf"
			},
			{
				"type": "occ",
				"energy": -0.2536,
				"method": "rhf"
			},
			{
				"type": "unocc",
				"energy": -0.04815,
				"method": "rhf"
			},
			{
				"type": "unocc",
				"energy": -0.02413,
				"method": "rhf"
			},
			{
				"type": "unocc",
				"energy": 0.04881,
				"method": "rhf"
			},
			{
				"type": "unocc",
				"energy": 0.06082,
				"method": "rhf"
			},
			{
				"type": "unocc",
				"energy": 0.07946,
				"method": "rhf"
			}
		],
		"cosmo_sigma_profile": { 
			"-0.025": 0.0,
			"-0.024": 0.0,
			"-0.023": 0.0,
			"-0.022": 0.0,
			"-0.021": 0.0,
			"-0.02": 0.0,
			"-0.019": 0.0698510085751,
			"-0.018": 0.894817723299,
			"-0.017": 0.931199364102,
			"-0.016": 0.867966444859,
			"-0.015": 1.43203168651,
			"-0.014": 0.661980190724,
			"-0.013": 0.992673809445,
			"-0.012": 1.12522737043,
			"-0.011": 1.50037019434,
			"-0.01": 0.888409801145,
			"-0.009": 0.962326441725,
			"-0.008": 1.62377479695,
			"-0.007": 4.15294252103,
			"-0.006": 7.48939422513,
			"-0.005": 9.47398961053,
			"-0.004": 13.4750404946,
			"-0.003": 23.4615080036,
			"-0.002": 26.4490910645,
			"-0.001": 23.2722450478,
			"0.0": 20.3058699175,
			"0.001": 17.730789766,
			"0.002": 17.9785194081,
			"0.003": 12.7261288812,
			"0.004": 5.09583981351,
			"0.005": 3.33853200318,
			"0.006": 3.68894595238,
			"0.007": 3.28988052903,
			"0.008": 4.04018323848,
			"0.009": 4.5852425024,
			"0.01": 5.99105151951,
			"0.011": 6.67982337698,
			"0.012": 5.27024352516,
			"0.013": 1.89812100873,
			"0.014": 0.110096258475,
			"0.015": 0.0,
			"0.016": 0.0,
			"0.017": 0.0,
			"0.018": 0.0,
			"0.019": 0.0,
			"0.02": 0.0,
			"0.021": 0.0,
			"0.022": 0.0,
			"0.023": 0.0,
			"0.024": 0.0,
			"0.025": 0.0
		}
	}
}
