{
	 "smiles": "CC1=CC=C(C=C(/C(N)=O)C2=NC3=C(S2)C=CC=C3)C=C1", 
	 "Tm": 421.15, 
	 "num_atms": 35, 
	 "gaussian": { 
		 "optdone": 1, 
		 "sigma_profile": "yes", 
		 "theory": "DFT", 
		 "functional": "B3LYP", 
		 "basiset": "6-31G**", 
		 "properties": { 
			 "R2extent": 9796.9824, 
			 "electric_dipole_moment_norm": 4.36380754044, 
			 "electric_quadrupole_moment_norm": 19.4535152042, 
			 "total_energy": -1239.1825729, 
			 "HOMO_LUMO_gap": 0.14031, 
			 "cosmo_polarized_energy": -16.08, 
			 "cosmo_cavitation_energy": 40.9, 
			 "cosmo_dispersion_energy": -29.9, 
			 "cosmo_repulsion_energy": 2.24, 
			 "cosmo_total_nonelectrostatic_energy": 13.24, 
			 "SMD_solvation_energy": 5.63 
		},
		"coords": [
			{
				"x": -2.426686086,
				"y": 4.8004358145,
				"z": -3.3043201303,
				"element": "C" 
			},
			{
				"x": -1.7599904595,
				"y": 3.6668824676,
				"z": -2.5634055176,
				"element": "C" 
			},
			{
				"x": -0.4958966122,
				"y": 3.8329163945,
				"z": -1.9769454442,
				"element": "C" 
			},
			{
				"x": 0.1157163794,
				"y": 2.8040765723,
				"z": -1.2685162601,
				"element": "C" 
			},
			{
				"x": -0.518242093,
				"y": 1.5543510083,
				"z": -1.1195630867,
				"element": "C" 
			},
			{
				"x": 0.0514697874,
				"y": 0.4380894688,
				"z": -0.3571680769,
				"element": "C" 
			},
			{
				"x": 1.3460962664,
				"y": 0.0820511554,
				"z": -0.1608020789,
				"element": "C" 
			},
			{
				"x": 2.5399173779,
				"y": 0.7379801179,
				"z": -0.8082140973,
				"element": "C" 
			},
			{
				"x": 2.4720779893,
				"y": 0.8868451272,
				"z": -2.1613039914,
				"element": "N" 
			},
			{
				"x": 3.5380715445,
				"y": 1.0448669169,
				"z": -0.1635196768,
				"element": "O" 
			},
			{
				"x": 1.635495722,
				"y": -1.0338085353,
				"z": 0.757433276,
				"element": "C" 
			},
			{
				"x": 0.722096118,
				"y": -1.8681475768,
				"z": 1.1664951369,
				"element": "N" 
			},
			{
				"x": 1.2454539239,
				"y": -2.8211523499,
				"z": 2.0145464548,
				"element": "C" 
			},
			{
				"x": 2.6362539358,
				"y": -2.7080795763,
				"z": 2.2616161263,
				"element": "C" 
			},
			{
				"x": 3.2752701756,
				"y": -1.3299300969,
				"z": 1.394328489,
				"element": "S" 
			},
			{
				"x": 3.2986618802,
				"y": -3.6094918536,
				"z": 3.1007533848,
				"element": "C" 
			},
			{
				"x": 2.5555791408,
				"y": -4.6288791252,
				"z": 3.6890584358,
				"element": "C" 
			},
			{
				"x": 1.1740342549,
				"y": -4.7514350508,
				"z": 3.4488779789,
				"element": "C" 
			},
			{
				"x": 0.5130882302,
				"y": -3.8577545266,
				"z": 2.6171576604,
				"element": "C" 
			},
			{
				"x": -1.7993902331,
				"y": 1.4003548692,
				"z": -1.6829844067,
				"element": "C" 
			},
			{
				"x": -2.3988323627,
				"y": 2.4300810391,
				"z": -2.4024669237,
				"element": "C" 
			},
			{
				"x": -2.9493706129,
				"y": 5.4714259147,
				"z": -2.6109838515,
				"element": "H" 
			},
			{
				"x": -1.6971092814,
				"y": 5.4063492819,
				"z": -3.8505642135,
				"element": "H" 
			},
			{
				"x": -3.1667202098,
				"y": 4.4310231884,
				"z": -4.0200597962,
				"element": "H" 
			},
			{
				"x": 0.0120127289,
				"y": 4.7900611115,
				"z": -2.067564634,
				"element": "H" 
			},
			{
				"x": 1.0781053431,
				"y": 2.9790554714,
				"z": -0.7991716894,
				"element": "H" 
			},
			{
				"x": -0.6759540279,
				"y": -0.198368076,
				"z": 0.143821232,
				"element": "H" 
			},
			{
				"x": 1.6127240206,
				"y": 0.7375627282,
				"z": -2.665214857,
				"element": "H" 
			},
			{
				"x": 3.2205604415,
				"y": 1.3926718971,
				"z": -2.6116516829,
				"element": "H" 
			},
			{
				"x": 4.3638054793,
				"y": -3.5194690092,
				"z": 3.2898003973,
				"element": "H" 
			},
			{
				"x": 3.0508639672,
				"y": -5.3404089937,
				"z": 4.3431934539,
				"element": "H" 
			},
			{
				"x": 0.6198442346,
				"y": -5.5566587719,
				"z": 3.9219960492,
				"element": "H" 
			},
			{
				"x": -0.5512772931,
				"y": -3.9390722553,
				"z": 2.4221109605,
				"element": "H" 
			},
			{
				"x": -2.3201087435,
				"y": 0.4538816413,
				"z": -1.5626734638,
				"element": "H" 
			},
			{
				"x": -3.3823209263,
				"y": 2.2750936113,
				"z": -2.8389951571,
				"element": "H" 
			}
		],
		 "valence_orbital": [ 
			{
				"type": "occ",
				"energy": -0.26253,
				"method": "rhf"
			},
			{
				"type": "occ",
				"energy": -0.25984,
				"method": "rhf"
			},
			{
				"type": "occ",
				"energy": -0.24671,
				"method": "rhf"
			},
			{
				"type": "occ",
				"energy": -0.22575,
				"method": "rhf"
			},
			{
				"type": "occ",
				"energy": -0.21229,
				"method": "rhf"
			},
			{
				"type": "unocc",
				"energy": -0.07198,
				"method": "rhf"
			},
			{
				"type": "unocc",
				"energy": -0.01263,
				"method": "rhf"
			},
			{
				"type": "unocc",
				"energy": -0.01073,
				"method": "rhf"
			},
			{
				"type": "unocc",
				"energy": 0.00253,
				"method": "rhf"
			},
			{
				"type": "unocc",
				"energy": 0.01009,
				"method": "rhf"
			}
		],
		"cosmo_sigma_profile": { 
			"-0.025": 0.0,
			"-0.024": 0.0,
			"-0.023": 0.0,
			"-0.022": 0.0,
			"-0.021": 0.0,
			"-0.02": 0.0,
			"-0.019": 0.0,
			"-0.018": 0.0,
			"-0.017": 0.0,
			"-0.016": 0.0,
			"-0.015": 0.107238393743,
			"-0.014": 1.57591840927,
			"-0.013": 1.86996420469,
			"-0.012": 1.84937286563,
			"-0.011": 2.39170200292,
			"-0.01": 2.14133309913,
			"-0.009": 1.8132824067,
			"-0.008": 1.8843710747,
			"-0.007": 4.67223576146,
			"-0.006": 15.3331428746,
			"-0.005": 21.0481873084,
			"-0.004": 28.5361103873,
			"-0.003": 23.2854906555,
			"-0.002": 23.0699650152,
			"-0.001": 23.5273121391,
			"0.0": 25.42126784,
			"0.001": 25.7664984176,
			"0.002": 25.1796361563,
			"0.003": 26.2190333734,
			"0.004": 25.967190714,
			"0.005": 18.9541616668,
			"0.006": 4.97710128909,
			"0.007": 3.44667834936,
			"0.008": 2.6557151731,
			"0.009": 2.5567334668,
			"0.01": 3.31435800754,
			"0.011": 2.95749364252,
			"0.012": 3.12837997316,
			"0.013": 4.77764951202,
			"0.014": 0.897441155091,
			"0.015": 0.0,
			"0.016": 0.0,
			"0.017": 0.0,
			"0.018": 0.0,
			"0.019": 0.0,
			"0.02": 0.0,
			"0.021": 0.0,
			"0.022": 0.0,
			"0.023": 0.0,
			"0.024": 0.0,
			"0.025": 0.0
		}
	}
}
