{
	 "smiles": "BrC1=CC=C(C=C1)N(C1=CC=C(Br)C=C1)C1=CC=C(Br)C=C1", 
	 "Tm": 415.15, 
	 "num_atms": 34, 
	 "gaussian": { 
		 "optdone": 1, 
		 "sigma_profile": "yes", 
		 "theory": "DFT", 
		 "functional": "B3LYP", 
		 "basiset": "6-31G**", 
		 "properties": { 
			 "R2extent": 18975.9814, 
			 "electric_dipole_moment_norm": 0.00328937684068, 
			 "electric_quadrupole_moment_norm": 9.73942414571, 
			 "total_energy": -8462.11015302, 
			 "HOMO_LUMO_gap": 0.1633, 
			 "cosmo_polarized_energy": -8.2, 
			 "cosmo_cavitation_energy": 45.61, 
			 "cosmo_dispersion_energy": -32.64, 
			 "cosmo_repulsion_energy": 2.53, 
			 "cosmo_total_nonelectrostatic_energy": 15.5, 
			 "SMD_solvation_energy": 3.87 
		},
		"coords": [
			{
				"x": 2.34608057,
				"y": 4.7802502843,
				"z": -2.7454243477,
				"element": "Br" 
			},
			{
				"x": 1.541018733,
				"y": 3.2554776509,
				"z": -1.9228880569,
				"element": "C" 
			},
			{
				"x": 0.2490440712,
				"y": 3.3501428922,
				"z": -1.4074770976,
				"element": "C" 
			},
			{
				"x": -0.3393834546,
				"y": 2.234547489,
				"z": -0.816625115,
				"element": "C" 
			},
			{
				"x": 0.3616362773,
				"y": 1.0216508912,
				"z": -0.7181165229,
				"element": "C" 
			},
			{
				"x": 1.6653794459,
				"y": 0.9503405811,
				"z": -1.2352531304,
				"element": "C" 
			},
			{
				"x": 2.2508094572,
				"y": 2.0580989448,
				"z": -1.843545028,
				"element": "C" 
			},
			{
				"x": -0.2369601533,
				"y": -0.1122958954,
				"z": -0.1066525959,
				"element": "N" 
			},
			{
				"x": -1.0023618449,
				"y": 0.041654411,
				"z": 1.0801790695,
				"element": "C" 
			},
			{
				"x": -2.2065363642,
				"y": -0.6606138912,
				"z": 1.2505420611,
				"element": "C" 
			},
			{
				"x": -2.9539975666,
				"y": -0.518102122,
				"z": 2.4171044677,
				"element": "C" 
			},
			{
				"x": -2.5105179813,
				"y": 0.3452534521,
				"z": 3.4179880057,
				"element": "C" 
			},
			{
				"x": -3.5402625639,
				"y": 0.5528031684,
				"z": 5.0136103162,
				"element": "Br" 
			},
			{
				"x": -1.3224413801,
				"y": 1.0585939597,
				"z": 3.2649116104,
				"element": "C" 
			},
			{
				"x": -0.5687678856,
				"y": 0.89886842,
				"z": 2.104584536,
				"element": "C" 
			},
			{
				"x": -0.0703085402,
				"y": -1.4003974361,
				"z": -0.6820902954,
				"element": "C" 
			},
			{
				"x": -0.1457689274,
				"y": -1.5773742528,
				"z": -2.0731998036,
				"element": "C" 
			},
			{
				"x": 0.026454823,
				"y": -2.8378630854,
				"z": -2.6401180493,
				"element": "C" 
			},
			{
				"x": 0.2578422739,
				"y": -3.9380414609,
				"z": -1.8155484266,
				"element": "C" 
			},
			{
				"x": 0.4815862891,
				"y": -5.6702549681,
				"z": -2.5892806305,
				"element": "Br" 
			},
			{
				"x": 0.3272972765,
				"y": -3.7855083981,
				"z": -0.4314460613,
				"element": "C" 
			},
			{
				"x": 0.1729096659,
				"y": -2.5201763489,
				"z": 0.1297975351,
				"element": "C" 
			},
			{
				"x": -0.3002479584,
				"y": 4.2820005351,
				"z": -1.4797823041,
				"element": "H" 
			},
			{
				"x": -1.3501075268,
				"y": 2.3034171103,
				"z": -0.4288140197,
				"element": "H" 
			},
			{
				"x": 2.2227598192,
				"y": 0.0227884772,
				"z": -1.1599073735,
				"element": "H" 
			},
			{
				"x": 3.2581224732,
				"y": 1.9937567018,
				"z": -2.2391226783,
				"element": "H" 
			},
			{
				"x": -2.5586876258,
				"y": -1.3207763775,
				"z": 0.4651258089,
				"element": "H" 
			},
			{
				"x": -3.8828746938,
				"y": -1.0635929313,
				"z": 2.5392773918,
				"element": "H" 
			},
			{
				"x": -0.9793087269,
				"y": 1.7219885428,
				"z": 4.0506964138,
				"element": "H" 
			},
			{
				"x": 0.3632385568,
				"y": 1.4422073881,
				"z": 1.9912521639,
				"element": "H" 
			},
			{
				"x": -0.3407660698,
				"y": -0.7234496128,
				"z": -2.7131140997,
				"element": "H" 
			},
			{
				"x": -0.0344158006,
				"y": -2.9649473692,
				"z": -3.7150365469,
				"element": "H" 
			},
			{
				"x": 0.5155825443,
				"y": -4.6439896507,
				"z": 0.2032648931,
				"element": "H" 
			},
			{
				"x": 0.2417527879,
				"y": -2.3984570997,
				"z": 1.2055079101,
				"element": "H" 
			}
		],
		 "valence_orbital": [ 
			{
				"type": "occ",
				"energy": -0.26973,
				"method": "rhf"
			},
			{
				"type": "occ",
				"energy": -0.26971,
				"method": "rhf"
			},
			{
				"type": "occ",
				"energy": -0.25282,
				"method": "rhf"
			},
			{
				"type": "occ",
				"energy": -0.2528,
				"method": "rhf"
			},
			{
				"type": "occ",
				"energy": -0.19831,
				"method": "rhf"
			},
			{
				"type": "unocc",
				"energy": -0.03501,
				"method": "rhf"
			},
			{
				"type": "unocc",
				"energy": -0.03241,
				"method": "rhf"
			},
			{
				"type": "unocc",
				"energy": -0.03239,
				"method": "rhf"
			},
			{
				"type": "unocc",
				"energy": -0.0148,
				"method": "rhf"
			},
			{
				"type": "unocc",
				"energy": -0.01478,
				"method": "rhf"
			}
		],
		"cosmo_sigma_profile": { 
			"-0.025": 0.0,
			"-0.024": 0.0,
			"-0.023": 0.0,
			"-0.022": 0.0,
			"-0.021": 0.0,
			"-0.02": 0.0,
			"-0.019": 0.0,
			"-0.018": 0.0,
			"-0.017": 0.0,
			"-0.016": 0.0,
			"-0.015": 0.0,
			"-0.014": 0.0,
			"-0.013": 0.0,
			"-0.012": 0.0,
			"-0.011": 0.0,
			"-0.01": 0.0,
			"-0.009": 0.0,
			"-0.008": 0.532824976574,
			"-0.007": 12.3426023224,
			"-0.006": 20.8880222211,
			"-0.005": 22.1106967519,
			"-0.004": 21.8678944884,
			"-0.003": 23.7173265893,
			"-0.002": 23.3322075652,
			"-0.001": 26.3488342309,
			"0.0": 33.4061897474,
			"0.001": 32.566366947,
			"0.002": 46.3018982027,
			"0.003": 49.5370113134,
			"0.004": 39.8099935939,
			"0.005": 23.9815206725,
			"0.006": 0.0670055133047,
			"0.007": 0.0,
			"0.008": 0.0,
			"0.009": 0.0,
			"0.01": 0.0,
			"0.011": 0.0,
			"0.012": 0.0,
			"0.013": 0.0,
			"0.014": 0.0,
			"0.015": 0.0,
			"0.016": 0.0,
			"0.017": 0.0,
			"0.018": 0.0,
			"0.019": 0.0,
			"0.02": 0.0,
			"0.021": 0.0,
			"0.022": 0.0,
			"0.023": 0.0,
			"0.024": 0.0,
			"0.025": 0.0
		}
	}
}
