{
	 "smiles": "CC(C)(C)OC(=O)N1CCN(CC2=CC=C(C=O)C=C2)CC1", 
	 "Tm": 331.15, 
	 "num_atms": 46, 
	 "gaussian": { 
		 "optdone": 1, 
		 "sigma_profile": "yes", 
		 "theory": "DFT", 
		 "functional": "B3LYP", 
		 "basiset": "6-31G**", 
		 "properties": { 
			 "R2extent": 9533.056, 
			 "electric_dipole_moment_norm": 1.94248666405, 
			 "electric_quadrupole_moment_norm": 32.2389029519, 
			 "total_energy": -997.461887645, 
			 "HOMO_LUMO_gap": 0.14531, 
			 "cosmo_polarized_energy": -15.27, 
			 "cosmo_cavitation_energy": 46.9, 
			 "cosmo_dispersion_energy": -31.71, 
			 "cosmo_repulsion_energy": 2.44, 
			 "cosmo_total_nonelectrostatic_energy": 17.62, 
			 "SMD_solvation_energy": 6.61 
		},
		"coords": [
			{
				"x": 1.1236732699,
				"y": 4.1746165367,
				"z": -0.5655465968,
				"element": "C" 
			},
			{
				"x": -0.0959103275,
				"y": 3.5571563598,
				"z": -1.255535565,
				"element": "C" 
			},
			{
				"x": -1.3810094403,
				"y": 3.9004929212,
				"z": -0.4941540241,
				"element": "C" 
			},
			{
				"x": -0.1609301133,
				"y": 3.9832450847,
				"z": -2.7262918637,
				"element": "C" 
			},
			{
				"x": 0.1779432922,
				"y": 2.115906977,
				"z": -1.1570215878,
				"element": "O" 
			},
			{
				"x": -0.6847466805,
				"y": 1.2069025589,
				"z": -1.6783225474,
				"element": "C" 
			},
			{
				"x": -1.7439449877,
				"y": 1.4643625252,
				"z": -2.2360522175,
				"element": "O" 
			},
			{
				"x": -0.2100256791,
				"y": -0.0641321433,
				"z": -1.4991480145,
				"element": "N" 
			},
			{
				"x": 1.0324063819,
				"y": -0.3703940687,
				"z": -0.7827725982,
				"element": "C" 
			},
			{
				"x": 1.4918036469,
				"y": -1.7833741844,
				"z": -1.157739879,
				"element": "C" 
			},
			{
				"x": 0.4834254237,
				"y": -2.824424007,
				"z": -0.9098843687,
				"element": "N" 
			},
			{
				"x": 0.7894658215,
				"y": -3.8158611119,
				"z": 0.1227519894,
				"element": "C" 
			},
			{
				"x": 0.801526535,
				"y": -3.3179471636,
				"z": 1.5641710803,
				"element": "C" 
			},
			{
				"x": -0.3758984818,
				"y": -3.2965186917,
				"z": 2.3279703467,
				"element": "C" 
			},
			{
				"x": -0.3736104865,
				"y": -2.795322887,
				"z": 3.6281143306,
				"element": "C" 
			},
			{
				"x": 0.8115100042,
				"y": -2.3115147575,
				"z": 4.195636147,
				"element": "C" 
			},
			{
				"x": 0.8114730196,
				"y": -1.7838780531,
				"z": 5.5778980372,
				"element": "C" 
			},
			{
				"x": 1.7916395325,
				"y": -1.3481448178,
				"z": 6.1520813833,
				"element": "O" 
			},
			{
				"x": 1.9988879822,
				"y": -2.3450889509,
				"z": 3.4484071551,
				"element": "C" 
			},
			{
				"x": 1.989405933,
				"y": -2.8452149079,
				"z": 2.1522243235,
				"element": "C" 
			},
			{
				"x": -0.8955852443,
				"y": -2.3362318079,
				"z": -0.9101255089,
				"element": "C" 
			},
			{
				"x": -1.0551171562,
				"y": -1.1899228707,
				"z": -1.9050488652,
				"element": "C" 
			},
			{
				"x": 1.0425798978,
				"y": 5.265672873,
				"z": -0.5638059643,
				"element": "H" 
			},
			{
				"x": 1.1964921865,
				"y": 3.8309331627,
				"z": 0.4704191588,
				"element": "H" 
			},
			{
				"x": 2.0447501278,
				"y": 3.8971560638,
				"z": -1.0867247544,
				"element": "H" 
			},
			{
				"x": -1.518514983,
				"y": 4.9866244844,
				"z": -0.4753602252,
				"element": "H" 
			},
			{
				"x": -2.2483247431,
				"y": 3.4415255796,
				"z": -0.9687878495,
				"element": "H" 
			},
			{
				"x": -1.313807545,
				"y": 3.5491667834,
				"z": 0.5405202378,
				"element": "H" 
			},
			{
				"x": 0.7548676576,
				"y": 3.6868761039,
				"z": -3.2479267561,
				"element": "H" 
			},
			{
				"x": -0.2496539509,
				"y": 5.0727564144,
				"z": -2.789670007,
				"element": "H" 
			},
			{
				"x": -1.0162547201,
				"y": 3.5287442965,
				"z": -3.226376935,
				"element": "H" 
			},
			{
				"x": 1.798829228,
				"y": 0.355464032,
				"z": -1.0634583327,
				"element": "H" 
			},
			{
				"x": 0.8892866909,
				"y": -0.2926474812,
				"z": 0.3038851688,
				"element": "H" 
			},
			{
				"x": 2.4035783334,
				"y": -2.0113605071,
				"z": -0.5991409077,
				"element": "H" 
			},
			{
				"x": 1.7665736651,
				"y": -1.7862016064,
				"z": -2.2227702687,
				"element": "H" 
			},
			{
				"x": 1.7646391483,
				"y": -4.2564662452,
				"z": -0.1144110146,
				"element": "H" 
			},
			{
				"x": 0.0486800974,
				"y": -4.6200972471,
				"z": 0.0284929246,
				"element": "H" 
			},
			{
				"x": -1.2958333232,
				"y": -3.6903241392,
				"z": 1.9042469786,
				"element": "H" 
			},
			{
				"x": -1.2916016391,
				"y": -2.7845841153,
				"z": 4.2117144133,
				"element": "H" 
			},
			{
				"x": -0.1806048952,
				"y": -1.8097396074,
				"z": 6.0823255064,
				"element": "H" 
			},
			{
				"x": 2.911999812,
				"y": -1.9830754637,
				"z": 3.9106806477,
				"element": "H" 
			},
			{
				"x": 2.9180175822,
				"y": -2.889043365,
				"z": 1.5885188148,
				"element": "H" 
			},
			{
				"x": -1.2258784222,
				"y": -1.9766808375,
				"z": 0.0803415968,
				"element": "H" 
			},
			{
				"x": -1.5649944109,
				"y": -3.1603310321,
				"z": -1.1924865397,
				"element": "H" 
			},
			{
				"x": -2.0889429909,
				"y": -0.8427756708,
				"z": -1.9341787062,
				"element": "H" 
			},
			{
				"x": -0.7917650488,
				"y": -1.532905016,
				"z": -2.9152583428,
				"element": "H" 
			}
		],
		 "valence_orbital": [ 
			{
				"type": "occ",
				"energy": -0.26335,
				"method": "rhf"
			},
			{
				"type": "occ",
				"energy": -0.25689,
				"method": "rhf"
			},
			{
				"type": "occ",
				"energy": -0.25659,
				"method": "rhf"
			},
			{
				"type": "occ",
				"energy": -0.23348,
				"method": "rhf"
			},
			{
				"type": "occ",
				"energy": -0.21165,
				"method": "rhf"
			},
			{
				"type": "unocc",
				"energy": -0.06634,
				"method": "rhf"
			},
			{
				"type": "unocc",
				"energy": -0.02027,
				"method": "rhf"
			},
			{
				"type": "unocc",
				"energy": 0.03209,
				"method": "rhf"
			},
			{
				"type": "unocc",
				"energy": 0.05734,
				"method": "rhf"
			},
			{
				"type": "unocc",
				"energy": 0.07181,
				"method": "rhf"
			}
		],
		"cosmo_sigma_profile": { 
			"-0.025": 0.0,
			"-0.024": 0.0,
			"-0.023": 0.0,
			"-0.022": 0.0,
			"-0.021": 0.0,
			"-0.02": 0.0,
			"-0.019": 0.0,
			"-0.018": 0.0,
			"-0.017": 0.0,
			"-0.016": 0.0,
			"-0.015": 0.0,
			"-0.014": 0.0,
			"-0.013": 0.0,
			"-0.012": 0.0,
			"-0.011": 0.0,
			"-0.01": 0.0,
			"-0.009": 0.0,
			"-0.008": 0.624208456167,
			"-0.007": 5.99935957655,
			"-0.006": 12.4891800095,
			"-0.005": 17.3626364777,
			"-0.004": 35.4737755714,
			"-0.003": 43.1634864849,
			"-0.002": 44.1317487391,
			"-0.001": 36.722959428,
			"0.0": 40.5059324223,
			"0.001": 33.0125234588,
			"0.002": 19.7745143842,
			"0.003": 18.5739734256,
			"0.004": 11.0688214255,
			"0.005": 7.24926697336,
			"0.006": 5.53487975442,
			"0.007": 4.7141916064,
			"0.008": 4.76212102995,
			"0.009": 3.53860490359,
			"0.01": 4.79480617852,
			"0.011": 5.23584341884,
			"0.012": 5.40567136047,
			"0.013": 4.33868210451,
			"0.014": 2.57805153807,
			"0.015": 0.0,
			"0.016": 0.0,
			"0.017": 0.0,
			"0.018": 0.0,
			"0.019": 0.0,
			"0.02": 0.0,
			"0.021": 0.0,
			"0.022": 0.0,
			"0.023": 0.0,
			"0.024": 0.0,
			"0.025": 0.0
		}
	}
}
