{
	 "smiles": "NC1=CC=C(NC(=O)OC2=CC=CC=C2)C=C1", 
	 "Tm": 409.15, 
	 "num_atms": 29, 
	 "gaussian": { 
		 "optdone": 1, 
		 "sigma_profile": "yes", 
		 "theory": "DFT", 
		 "functional": "B3LYP", 
		 "basiset": "6-31G**", 
		 "properties": { 
			 "R2extent": 5655.846, 
			 "electric_dipole_moment_norm": 3.89855459626, 
			 "electric_quadrupole_moment_norm": 14.7121467893, 
			 "total_energy": -762.584995568, 
			 "HOMO_LUMO_gap": 0.1905, 
			 "cosmo_polarized_energy": -15.81, 
			 "cosmo_cavitation_energy": 34.08, 
			 "cosmo_dispersion_energy": -24.59, 
			 "cosmo_repulsion_energy": 1.92, 
			 "cosmo_total_nonelectrostatic_energy": 11.4, 
			 "SMD_solvation_energy": 6.86 
		},
		"coords": [
			{
				"x": -3.4142232722,
				"y": -3.5618876786,
				"z": 1.8358526224,
				"element": "N" 
			},
			{
				"x": -2.5915224499,
				"y": -2.4447644093,
				"z": 1.6617359006,
				"element": "C" 
			},
			{
				"x": -2.4746587094,
				"y": -1.8215996119,
				"z": 0.4080632977,
				"element": "C" 
			},
			{
				"x": -1.6208583771,
				"y": -0.7403727031,
				"z": 0.2141727361,
				"element": "C" 
			},
			{
				"x": -0.831425065,
				"y": -0.2635921114,
				"z": 1.2681634363,
				"element": "C" 
			},
			{
				"x": 0.0284171427,
				"y": 0.8617626481,
				"z": 1.147405122,
				"element": "N" 
			},
			{
				"x": 0.8713120947,
				"y": 1.251547567,
				"z": 0.1388950184,
				"element": "C" 
			},
			{
				"x": 1.6233642529,
				"y": 2.2010092532,
				"z": 0.2287541097,
				"element": "O" 
			},
			{
				"x": 0.7407355155,
				"y": 0.4414896339,
				"z": -0.9553054627,
				"element": "O" 
			},
			{
				"x": 1.51522676,
				"y": 0.6544171846,
				"z": -2.0955703933,
				"element": "C" 
			},
			{
				"x": 1.9970705045,
				"y": -0.4981314131,
				"z": -2.7149231983,
				"element": "C" 
			},
			{
				"x": 2.7100422337,
				"y": -0.386792243,
				"z": -3.9084532521,
				"element": "C" 
			},
			{
				"x": 2.9410639637,
				"y": 0.8687590784,
				"z": -4.4737683991,
				"element": "C" 
			},
			{
				"x": 2.4503065148,
				"y": 2.0121875339,
				"z": -3.8402511913,
				"element": "C" 
			},
			{
				"x": 1.7293208769,
				"y": 1.917480539,
				"z": -2.6486978962,
				"element": "C" 
			},
			{
				"x": -0.9423804657,
				"y": -0.8811733832,
				"z": 2.5200006926,
				"element": "C" 
			},
			{
				"x": -1.8131923786,
				"y": -1.9476627239,
				"z": 2.7194588625,
				"element": "C" 
			},
			{
				"x": -3.7249826705,
				"y": -3.7183199303,
				"z": 2.7850491668,
				"element": "H" 
			},
			{
				"x": -4.1794760508,
				"y": -3.632695338,
				"z": 1.1789500278,
				"element": "H" 
			},
			{
				"x": -3.0703135579,
				"y": -2.1838255746,
				"z": -0.426303824,
				"element": "H" 
			},
			{
				"x": -1.5656566661,
				"y": -0.2678092724,
				"z": -0.7580910455,
				"element": "H" 
			},
			{
				"x": 0.1846416435,
				"y": 1.4065537169,
				"z": 1.9834564361,
				"element": "H" 
			},
			{
				"x": 1.8042973396,
				"y": -1.4620326435,
				"z": -2.255657315,
				"element": "H" 
			},
			{
				"x": 3.0855750254,
				"y": -1.2832048043,
				"z": -4.393229336,
				"element": "H" 
			},
			{
				"x": 3.4991640537,
				"y": 0.9558903077,
				"z": -5.4011254538,
				"element": "H" 
			},
			{
				"x": 2.6263525202,
				"y": 2.9920290392,
				"z": -4.2746498477,
				"element": "H" 
			},
			{
				"x": 1.3575414213,
				"y": 2.801567271,
				"z": -2.1485965362,
				"element": "H" 
			},
			{
				"x": -0.3373030135,
				"y": -0.5236886644,
				"z": 3.3495764355,
				"element": "H" 
			},
			{
				"x": -1.8791391864,
				"y": -2.4102412677,
				"z": 3.7009892867,
				"element": "H" 
			}
		],
		 "valence_orbital": [ 
			{
				"type": "occ",
				"energy": -0.27076,
				"method": "rhf"
			},
			{
				"type": "occ",
				"energy": -0.25219,
				"method": "rhf"
			},
			{
				"type": "occ",
				"energy": -0.24768,
				"method": "rhf"
			},
			{
				"type": "occ",
				"energy": -0.2347,
				"method": "rhf"
			},
			{
				"type": "occ",
				"energy": -0.19399,
				"method": "rhf"
			},
			{
				"type": "unocc",
				"energy": -0.00349,
				"method": "rhf"
			},
			{
				"type": "unocc",
				"energy": -0.00107,
				"method": "rhf"
			},
			{
				"type": "unocc",
				"energy": 0.00128,
				"method": "rhf"
			},
			{
				"type": "unocc",
				"energy": 0.01386,
				"method": "rhf"
			},
			{
				"type": "unocc",
				"energy": 0.06278,
				"method": "rhf"
			}
		],
		"cosmo_sigma_profile": { 
			"-0.025": 0.0,
			"-0.024": 0.0,
			"-0.023": 0.0,
			"-0.022": 0.0,
			"-0.021": 0.0,
			"-0.02": 0.0,
			"-0.019": 0.0,
			"-0.018": 0.0,
			"-0.017": 0.0,
			"-0.016": 0.0,
			"-0.015": 0.447989693576,
			"-0.014": 0.942133114458,
			"-0.013": 1.01644475208,
			"-0.012": 3.90874501559,
			"-0.011": 3.31277379415,
			"-0.01": 4.19330688396,
			"-0.009": 4.22574864639,
			"-0.008": 3.83904548113,
			"-0.007": 6.33646265879,
			"-0.006": 14.6505400574,
			"-0.005": 17.6252726386,
			"-0.004": 18.8888279072,
			"-0.003": 17.1833371814,
			"-0.002": 16.159099961,
			"-0.001": 16.4035141301,
			"0.0": 13.1345310012,
			"0.001": 15.9436596596,
			"0.002": 18.0681337853,
			"0.003": 17.9087047311,
			"0.004": 18.7995887393,
			"0.005": 19.598504808,
			"0.006": 15.9876990918,
			"0.007": 4.23874998333,
			"0.008": 2.36368774934,
			"0.009": 2.09050581427,
			"0.01": 2.33347798737,
			"0.011": 2.94079507057,
			"0.012": 4.87433411791,
			"0.013": 4.07017790988,
			"0.014": 0.397102036472,
			"0.015": 0.415816030107,
			"0.016": 0.0044300266132,
			"0.017": 0.0,
			"0.018": 0.0,
			"0.019": 0.0,
			"0.02": 0.0,
			"0.021": 0.0,
			"0.022": 0.0,
			"0.023": 0.0,
			"0.024": 0.0,
			"0.025": 0.0
		}
	}
}
