{
	 "smiles": "COC1=CC(OC)=CC(CCC2=CC(N)=NN2)=C1", 
	 "Tm": 381.15, 
	 "num_atms": 35, 
	 "gaussian": { 
		 "optdone": 1, 
		 "sigma_profile": "yes", 
		 "theory": "DFT", 
		 "functional": "B3LYP", 
		 "basiset": "6-31G**", 
		 "properties": { 
			 "R2extent": 5916.8713, 
			 "electric_dipole_moment_norm": 2.62941409063, 
			 "electric_quadrupole_moment_norm": 23.3882949047, 
			 "total_energy": -820.297021457, 
			 "HOMO_LUMO_gap": 0.19957, 
			 "cosmo_polarized_energy": -17.46, 
			 "cosmo_cavitation_energy": 38.43, 
			 "cosmo_dispersion_energy": -26.21, 
			 "cosmo_repulsion_energy": 2.05, 
			 "cosmo_total_nonelectrostatic_energy": 14.27, 
			 "SMD_solvation_energy": 6.77 
		},
		"coords": [
			{
				"x": -2.6639900926,
				"y": -3.7162801825,
				"z": -0.2372399874,
				"element": "C" 
			},
			{
				"x": -1.7354192141,
				"y": -3.3896755052,
				"z": -1.2572472053,
				"element": "O" 
			},
			{
				"x": -0.8894083935,
				"y": -2.3362188665,
				"z": -1.0530296717,
				"element": "C" 
			},
			{
				"x": -0.0014022339,
				"y": -2.0711921272,
				"z": -2.0972560275,
				"element": "C" 
			},
			{
				"x": 0.9076463388,
				"y": -1.016575178,
				"z": -1.9828054904,
				"element": "C" 
			},
			{
				"x": 1.7242027546,
				"y": -0.821484636,
				"z": -3.0575594497,
				"element": "O" 
			},
			{
				"x": 2.5837872494,
				"y": 0.3114012444,
				"z": -3.0517270013,
				"element": "C" 
			},
			{
				"x": 0.9395799116,
				"y": -0.2325222614,
				"z": -0.8203046131,
				"element": "C" 
			},
			{
				"x": 0.0356071367,
				"y": -0.491046987,
				"z": 0.2175093092,
				"element": "C" 
			},
			{
				"x": 0.015118704,
				"y": 0.4006809227,
				"z": 1.4418560557,
				"element": "C" 
			},
			{
				"x": -0.7774872575,
				"y": 1.7261163887,
				"z": 1.2431964908,
				"element": "C" 
			},
			{
				"x": -0.1427267896,
				"y": 2.690504979,
				"z": 0.286688881,
				"element": "C" 
			},
			{
				"x": 0.7774107253,
				"y": 3.7073491944,
				"z": 0.4916791852,
				"element": "C" 
			},
			{
				"x": 1.0569214763,
				"y": 4.2158611419,
				"z": -0.8043376993,
				"element": "C" 
			},
			{
				"x": 1.8666839497,
				"y": 5.306367877,
				"z": -1.131448443,
				"element": "N" 
			},
			{
				"x": 0.3763652974,
				"y": 3.5660861254,
				"z": -1.7493143756,
				"element": "N" 
			},
			{
				"x": -0.3715219704,
				"y": 2.664758578,
				"z": -1.0514876619,
				"element": "N" 
			},
			{
				"x": -0.8814971289,
				"y": -1.5434877477,
				"z": 0.1046401231,
				"element": "C" 
			},
			{
				"x": -3.2244597812,
				"y": -4.5775224667,
				"z": -0.6047254181,
				"element": "H" 
			},
			{
				"x": -3.3614282783,
				"y": -2.8912251717,
				"z": -0.0412992995,
				"element": "H" 
			},
			{
				"x": -2.1607908709,
				"y": -3.9879518335,
				"z": 0.699829173,
				"element": "H" 
			},
			{
				"x": -0.0186881019,
				"y": -2.6801787181,
				"z": -2.993443433,
				"element": "H" 
			},
			{
				"x": 3.3428917471,
				"y": 0.2388877898,
				"z": -2.261975586,
				"element": "H" 
			},
			{
				"x": 2.0229316051,
				"y": 1.2462770046,
				"z": -2.9269835391,
				"element": "H" 
			},
			{
				"x": 3.0812634049,
				"y": 0.3122821522,
				"z": -4.023032842,
				"element": "H" 
			},
			{
				"x": 1.6470897068,
				"y": 0.5802581517,
				"z": -0.7167354007,
				"element": "H" 
			},
			{
				"x": 1.0386783007,
				"y": 0.6526101825,
				"z": 1.7411159913,
				"element": "H" 
			},
			{
				"x": -0.438742081,
				"y": -0.1399065106,
				"z": 2.280056434,
				"element": "H" 
			},
			{
				"x": -0.8755832622,
				"y": 2.2192815943,
				"z": 2.2161877955,
				"element": "H" 
			},
			{
				"x": -1.7941258348,
				"y": 1.4850485851,
				"z": 0.9096949891,
				"element": "H" 
			},
			{
				"x": 1.1639572625,
				"y": 4.0545362429,
				"z": 1.4388159024,
				"element": "H" 
			},
			{
				"x": 2.0424932818,
				"y": 5.352106736,
				"z": -2.128262577,
				"element": "H" 
			},
			{
				"x": 2.7339745742,
				"y": 5.3351264846,
				"z": -0.6102952715,
				"element": "H" 
			},
			{
				"x": -0.895332534,
				"y": 1.9712055885,
				"z": -1.5611415394,
				"element": "H" 
			},
			{
				"x": -1.5708996022,
				"y": -1.7367787716,
				"z": 0.9181822024,
				"element": "H" 
			}
		],
		 "valence_orbital": [ 
			{
				"type": "occ",
				"energy": -0.27702,
				"method": "rhf"
			},
			{
				"type": "occ",
				"energy": -0.22985,
				"method": "rhf"
			},
			{
				"type": "occ",
				"energy": -0.2181,
				"method": "rhf"
			},
			{
				"type": "occ",
				"energy": -0.21437,
				"method": "rhf"
			},
			{
				"type": "occ",
				"energy": -0.19784,
				"method": "rhf"
			},
			{
				"type": "unocc",
				"energy": 0.00173,
				"method": "rhf"
			},
			{
				"type": "unocc",
				"energy": 0.02328,
				"method": "rhf"
			},
			{
				"type": "unocc",
				"energy": 0.03125,
				"method": "rhf"
			},
			{
				"type": "unocc",
				"energy": 0.08009,
				"method": "rhf"
			},
			{
				"type": "unocc",
				"energy": 0.09083,
				"method": "rhf"
			}
		],
		"cosmo_sigma_profile": { 
			"-0.025": 0.0,
			"-0.024": 0.0,
			"-0.023": 0.0,
			"-0.022": 0.0,
			"-0.021": 0.0,
			"-0.02": 0.0,
			"-0.019": 0.0,
			"-0.018": 0.0,
			"-0.017": 0.0,
			"-0.016": 0.0,
			"-0.015": 0.0429531813736,
			"-0.014": 0.646233877958,
			"-0.013": 0.873267505244,
			"-0.012": 2.01055010649,
			"-0.011": 3.05644937121,
			"-0.01": 3.65921305237,
			"-0.009": 2.67223425215,
			"-0.008": 3.67539340332,
			"-0.007": 3.4880844191,
			"-0.006": 9.17517908137,
			"-0.005": 24.4263791491,
			"-0.004": 29.3179659451,
			"-0.003": 34.2412310409,
			"-0.002": 26.8426499792,
			"-0.001": 20.8109477952,
			"0.0": 15.8841725676,
			"0.001": 13.7152460145,
			"0.002": 11.3580323381,
			"0.003": 13.4784923482,
			"0.004": 16.862341683,
			"0.005": 18.6977591071,
			"0.006": 12.1653138963,
			"0.007": 7.75755857909,
			"0.008": 5.53948218728,
			"0.009": 5.51754047691,
			"0.01": 4.71971879396,
			"0.011": 3.35767089274,
			"0.012": 1.72884241948,
			"0.013": 1.95021281814,
			"0.014": 1.45478549722,
			"0.015": 1.53231748419,
			"0.016": 1.3117245897,
			"0.017": 0.606894923627,
			"0.018": 0.017719846754,
			"0.019": 0.0,
			"0.02": 0.0,
			"0.021": 0.0,
			"0.022": 0.0,
			"0.023": 0.0,
			"0.024": 0.0,
			"0.025": 0.0
		}
	}
}
