{
	 "smiles": "NC1=CC2=C(C=C(C=C2C=C1)S(O)(=O)=O)S(O)(=O)=O", 
	 "Tm": 573.15, 
	 "num_atms": 28, 
	 "gaussian": { 
		 "optdone": 1, 
		 "sigma_profile": "yes", 
		 "theory": "DFT", 
		 "functional": "B3LYP", 
		 "basiset": "6-31G**", 
		 "properties": { 
			 "R2extent": 7653.2593, 
			 "electric_dipole_moment_norm": 5.99427633164, 
			 "electric_quadrupole_moment_norm": 38.9743205493, 
			 "total_energy": -1688.83177776, 
			 "HOMO_LUMO_gap": 0.14915, 
			 "cosmo_polarized_energy": -27.95, 
			 "cosmo_cavitation_energy": 35.61, 
			 "cosmo_dispersion_energy": -27.05, 
			 "cosmo_repulsion_energy": 1.99, 
			 "cosmo_total_nonelectrostatic_energy": 10.55, 
			 "SMD_solvation_energy": 4.0 
		},
		"coords": [
			{
				"x": -4.8610279489,
				"y": 1.8535130979,
				"z": -2.2777104998,
				"element": "N" 
			},
			{
				"x": -4.0649226383,
				"y": 0.7752145635,
				"z": -1.9614988664,
				"element": "C" 
			},
			{
				"x": -2.7368266323,
				"y": 0.9496885057,
				"z": -1.5791101244,
				"element": "C" 
			},
			{
				"x": -1.9098781279,
				"y": -0.1555628043,
				"z": -1.2991015704,
				"element": "C" 
			},
			{
				"x": -0.5285735396,
				"y": -0.060592831,
				"z": -0.9138887425,
				"element": "C" 
			},
			{
				"x": 0.2406634175,
				"y": -1.1694710181,
				"z": -0.6413271068,
				"element": "C" 
			},
			{
				"x": -0.3414033799,
				"y": -2.4509306053,
				"z": -0.7385871323,
				"element": "C" 
			},
			{
				"x": -1.6577451718,
				"y": -2.6112073203,
				"z": -1.1170904599,
				"element": "C" 
			},
			{
				"x": -2.4569367494,
				"y": -1.4842454033,
				"z": -1.4030087959,
				"element": "C" 
			},
			{
				"x": -3.8158049783,
				"y": -1.6320907143,
				"z": -1.7962714291,
				"element": "C" 
			},
			{
				"x": -4.5988478097,
				"y": -0.5434872859,
				"z": -2.0703521714,
				"element": "C" 
			},
			{
				"x": 0.6496315368,
				"y": -3.8835021091,
				"z": -0.3853238531,
				"element": "S" 
			},
			{
				"x": 0.5895255635,
				"y": -3.8942106202,
				"z": 1.2598217516,
				"element": "O" 
			},
			{
				"x": -0.0523998978,
				"y": -5.0643985088,
				"z": -0.8701043355,
				"element": "O" 
			},
			{
				"x": 2.0450390238,
				"y": -3.621862908,
				"z": -0.7409767584,
				"element": "O" 
			},
			{
				"x": 0.3012664336,
				"y": 1.5196934731,
				"z": -0.7629957017,
				"element": "S" 
			},
			{
				"x": 0.2716879307,
				"y": 2.0796382668,
				"z": -2.3095444568,
				"element": "O" 
			},
			{
				"x": 1.7031804351,
				"y": 1.282932005,
				"z": -0.4224832728,
				"element": "O" 
			},
			{
				"x": -0.5268553457,
				"y": 2.4415204594,
				"z": 0.0010373778,
				"element": "O" 
			},
			{
				"x": -4.549959891,
				"y": 2.7668295003,
				"z": -1.9822113251,
				"element": "H" 
			},
			{
				"x": -5.8609650119,
				"y": 1.7242118032,
				"z": -2.2560564987,
				"element": "H" 
			},
			{
				"x": -2.3465242861,
				"y": 1.9548522126,
				"z": -1.4799567518,
				"element": "H" 
			},
			{
				"x": 1.283760916,
				"y": -1.0552878449,
				"z": -0.3703291867,
				"element": "H" 
			},
			{
				"x": -2.076259627,
				"y": -3.608964478,
				"z": -1.2020533664,
				"element": "H" 
			},
			{
				"x": -4.2278437337,
				"y": -2.6339835593,
				"z": -1.8754611541,
				"element": "H" 
			},
			{
				"x": -5.6337958686,
				"y": -0.6735042631,
				"z": -2.3750028442,
				"element": "H" 
			},
			{
				"x": 1.5084935024,
				"y": -3.9833877394,
				"z": 1.5656208381,
				"element": "H" 
			},
			{
				"x": 1.1469218785,
				"y": 1.8993961258,
				"z": -2.6924335631,
				"element": "H" 
			}
		],
		 "valence_orbital": [ 
			{
				"type": "occ",
				"energy": -0.31353,
				"method": "rhf"
			},
			{
				"type": "occ",
				"energy": -0.30924,
				"method": "rhf"
			},
			{
				"type": "occ",
				"energy": -0.30149,
				"method": "rhf"
			},
			{
				"type": "occ",
				"energy": -0.26189,
				"method": "rhf"
			},
			{
				"type": "occ",
				"energy": -0.22626,
				"method": "rhf"
			},
			{
				"type": "unocc",
				"energy": -0.07711,
				"method": "rhf"
			},
			{
				"type": "unocc",
				"energy": -0.04645,
				"method": "rhf"
			},
			{
				"type": "unocc",
				"energy": -0.00748,
				"method": "rhf"
			},
			{
				"type": "unocc",
				"energy": 0.02935,
				"method": "rhf"
			},
			{
				"type": "unocc",
				"energy": 0.03318,
				"method": "rhf"
			}
		],
		"cosmo_sigma_profile": { 
			"-0.025": 0.0,
			"-0.024": 0.0,
			"-0.023": 0.0,
			"-0.022": 0.0,
			"-0.021": 0.0532419358717,
			"-0.02": 1.25441636961,
			"-0.019": 1.88964962597,
			"-0.018": 1.74720720814,
			"-0.017": 1.75881155137,
			"-0.016": 2.17423717366,
			"-0.015": 1.03715869556,
			"-0.014": 2.69864977,
			"-0.013": 4.72918615148,
			"-0.012": 4.75927630994,
			"-0.011": 5.15725035748,
			"-0.01": 4.40659741327,
			"-0.009": 6.29495021343,
			"-0.008": 6.56926278455,
			"-0.007": 10.0278830501,
			"-0.006": 9.1402661727,
			"-0.005": 9.03284856968,
			"-0.004": 9.19730095382,
			"-0.003": 11.1168653395,
			"-0.002": 11.0494614076,
			"-0.001": 16.7762104237,
			"0.0": 20.6724905104,
			"0.001": 16.9204371326,
			"0.002": 18.5248715567,
			"0.003": 14.1711452065,
			"0.004": 10.5353097787,
			"0.005": 9.98227234687,
			"0.006": 10.2320495423,
			"0.007": 9.62445597426,
			"0.008": 12.5971655889,
			"0.009": 18.7485223201,
			"0.01": 17.9167258294,
			"0.011": 4.26901512471,
			"0.012": 0.0,
			"0.013": 0.0,
			"0.014": 0.0,
			"0.015": 0.0,
			"0.016": 0.0,
			"0.017": 0.0,
			"0.018": 0.0,
			"0.019": 0.0,
			"0.02": 0.0,
			"0.021": 0.0,
			"0.022": 0.0,
			"0.023": 0.0,
			"0.024": 0.0,
			"0.025": 0.0
		}
	}
}
