{
	 "smiles": "OC(=O)C1=CC(=C(C=C1)[N+]([O-])=O)[N+]([O-])=O", 
	 "Tm": 439.15, 
	 "num_atms": 19, 
	 "gaussian": { 
		 "optdone": 1, 
		 "sigma_profile": "yes", 
		 "theory": "DFT", 
		 "functional": "B3LYP", 
		 "basiset": "6-31G**", 
		 "properties": { 
			 "R2extent": 3294.4006, 
			 "electric_dipole_moment_norm": 2.51707215232, 
			 "electric_quadrupole_moment_norm": 20.6943172961, 
			 "total_energy": -829.779690359, 
			 "HOMO_LUMO_gap": 0.17175, 
			 "cosmo_polarized_energy": -21.13, 
			 "cosmo_cavitation_energy": 26.41, 
			 "cosmo_dispersion_energy": -18.82, 
			 "cosmo_repulsion_energy": 1.46, 
			 "cosmo_total_nonelectrostatic_energy": 9.06, 
			 "SMD_solvation_energy": 10.48 
		},
		"coords": [
			{
				"x": 2.2129485993,
				"y": 1.6329515108,
				"z": 3.0361804711,
				"element": "O" 
			},
			{
				"x": 1.0705162517,
				"y": 2.0540557554,
				"z": 2.4453677105,
				"element": "C" 
			},
			{
				"x": 0.5313672459,
				"y": 3.0730028896,
				"z": 2.8011884853,
				"element": "O" 
			},
			{
				"x": 0.51124676,
				"y": 1.1963812881,
				"z": 1.3401274443,
				"element": "C" 
			},
			{
				"x": 0.8198665532,
				"y": -0.1609190174,
				"z": 1.2018265933,
				"element": "C" 
			},
			{
				"x": 0.2501952075,
				"y": -0.9028886323,
				"z": 0.1735107386,
				"element": "C" 
			},
			{
				"x": -0.619573473,
				"y": -0.2926056577,
				"z": -0.7335313625,
				"element": "C" 
			},
			{
				"x": -0.9541820577,
				"y": 1.0504464081,
				"z": -0.5843803549,
				"element": "C" 
			},
			{
				"x": -0.3984647946,
				"y": 1.7892961676,
				"z": 0.4560006067,
				"element": "C" 
			},
			{
				"x": -1.1359408107,
				"y": -0.9875469369,
				"z": -1.9295540951,
				"element": "N" 
			},
			{
				"x": -2.3098582828,
				"y": -0.7826703684,
				"z": -2.2173312463,
				"element": "O" 
			},
			{
				"x": -0.3325949638,
				"y": -1.6566155894,
				"z": -2.5668430768,
				"element": "O" 
			},
			{
				"x": 0.5186160208,
				"y": -2.3538587612,
				"z": 0.1602635502,
				"element": "N" 
			},
			{
				"x": 1.625207367,
				"y": -2.7109321052,
				"z": 0.5562296447,
				"element": "O" 
			},
			{
				"x": -0.3954455765,
				"y": -3.0870446444,
				"z": -0.1938769888,
				"element": "O" 
			},
			{
				"x": 2.6225035898,
				"y": 0.9088496228,
				"z": 2.5423716816,
				"element": "H" 
			},
			{
				"x": 1.4652537514,
				"y": -0.6869283296,
				"z": 1.8968775087,
				"element": "H" 
			},
			{
				"x": -1.640879903,
				"y": 1.4984060153,
				"z": -1.2930143619,
				"element": "H" 
			},
			{
				"x": -0.6533814843,
				"y": 2.8337203849,
				"z": 0.5963870513,
				"element": "H" 
			}
		],
		 "valence_orbital": [ 
			{
				"type": "occ",
				"energy": -0.33306,
				"method": "rhf"
			},
			{
				"type": "occ",
				"energy": -0.32997,
				"method": "rhf"
			},
			{
				"type": "occ",
				"energy": -0.31572,
				"method": "rhf"
			},
			{
				"type": "occ",
				"energy": -0.31178,
				"method": "rhf"
			},
			{
				"type": "occ",
				"energy": -0.30216,
				"method": "rhf"
			},
			{
				"type": "unocc",
				"energy": -0.13041,
				"method": "rhf"
			},
			{
				"type": "unocc",
				"energy": -0.10551,
				"method": "rhf"
			},
			{
				"type": "unocc",
				"energy": -0.07454,
				"method": "rhf"
			},
			{
				"type": "unocc",
				"energy": -0.05427,
				"method": "rhf"
			},
			{
				"type": "unocc",
				"energy": 0.00843,
				"method": "rhf"
			}
		],
		"cosmo_sigma_profile": { 
			"-0.025": 0.0,
			"-0.024": 0.0,
			"-0.023": 0.0,
			"-0.022": 0.0,
			"-0.021": 0.28452473492,
			"-0.02": 0.953592015308,
			"-0.019": 0.994979067519,
			"-0.018": 1.4126377401,
			"-0.017": 1.22693407284,
			"-0.016": 0.823339619447,
			"-0.015": 1.07895422346,
			"-0.014": 0.942493785534,
			"-0.013": 1.30892242578,
			"-0.012": 0.935297894562,
			"-0.011": 1.40351607233,
			"-0.01": 4.8839899495,
			"-0.009": 7.9673097012,
			"-0.008": 5.87344577452,
			"-0.007": 7.27571852554,
			"-0.006": 7.14812390073,
			"-0.005": 10.1576690472,
			"-0.004": 14.1521794889,
			"-0.003": 13.7174014317,
			"-0.002": 12.9708945899,
			"-0.001": 7.87770367553,
			"0.0": 6.01992734834,
			"0.001": 6.99288974877,
			"0.002": 6.26174501393,
			"0.003": 6.68664752401,
			"0.004": 8.09308474947,
			"0.005": 12.9317588477,
			"0.006": 22.08761801,
			"0.007": 13.3166257821,
			"0.008": 10.8374941363,
			"0.009": 6.07896599796,
			"0.01": 5.00485147233,
			"0.011": 4.07898228588,
			"0.012": 1.31497286217,
			"0.013": 0.00346526249946,
			"0.014": 0.0,
			"0.015": 0.0,
			"0.016": 0.0,
			"0.017": 0.0,
			"0.018": 0.0,
			"0.019": 0.0,
			"0.02": 0.0,
			"0.021": 0.0,
			"0.022": 0.0,
			"0.023": 0.0,
			"0.024": 0.0,
			"0.025": 0.0
		}
	}
}
