{
	 "smiles": "O=CC1=CC2=CC=CN=C2S1", 
	 "Tm": 415.15, 
	 "num_atms": 16, 
	 "gaussian": { 
		 "optdone": 1, 
		 "sigma_profile": "yes", 
		 "theory": "DFT", 
		 "functional": "B3LYP", 
		 "basiset": "6-31G**", 
		 "properties": { 
			 "R2extent": 3337.5494, 
			 "electric_dipole_moment_norm": 5.3092624742, 
			 "electric_quadrupole_moment_norm": 18.7991222508, 
			 "total_energy": -836.01189044, 
			 "HOMO_LUMO_gap": 0.16227, 
			 "cosmo_polarized_energy": -11.64, 
			 "cosmo_cavitation_energy": 22.63, 
			 "cosmo_dispersion_energy": -17.33, 
			 "cosmo_repulsion_energy": 1.32, 
			 "cosmo_total_nonelectrostatic_energy": 6.62, 
			 "SMD_solvation_energy": 2.96 
		},
		"coords": [
			{
				"x": -4.297766555,
				"y": -3.8661602634,
				"z": 0.1634229677,
				"element": "O" 
			},
			{
				"x": -3.1484152907,
				"y": -3.8754259393,
				"z": -0.2372760544,
				"element": "C" 
			},
			{
				"x": -2.3347076902,
				"y": -2.678689553,
				"z": -0.4514887817,
				"element": "C" 
			},
			{
				"x": -1.0396745656,
				"y": -2.6562081461,
				"z": -0.9012645546,
				"element": "C" 
			},
			{
				"x": -0.5146300745,
				"y": -1.3312055256,
				"z": -1.0076110835,
				"element": "C" 
			},
			{
				"x": 0.7457738124,
				"y": -0.8634067012,
				"z": -1.4196111316,
				"element": "C" 
			},
			{
				"x": 0.9662077116,
				"y": 0.5054389743,
				"z": -1.4173529705,
				"element": "C" 
			},
			{
				"x": -0.0655706541,
				"y": 1.3717472279,
				"z": -1.0079535934,
				"element": "C" 
			},
			{
				"x": -1.2727193834,
				"y": 0.9641751005,
				"z": -0.6110254055,
				"element": "N" 
			},
			{
				"x": -1.4712354387,
				"y": -0.3528143638,
				"z": -0.6179266979,
				"element": "C" 
			},
			{
				"x": -2.9954579312,
				"y": -1.0817081812,
				"z": -0.1291367281,
				"element": "S" 
			},
			{
				"x": -2.6224895777,
				"y": -4.8253243666,
				"z": -0.4753227714,
				"element": "H" 
			},
			{
				"x": -0.4841383449,
				"y": -3.5556501321,
				"z": -1.1467193883,
				"element": "H" 
			},
			{
				"x": 1.5209432668,
				"y": -1.5586066384,
				"z": -1.7297530327,
				"element": "H" 
			},
			{
				"x": 1.920894105,
				"y": 0.9180666379,
				"z": -1.7260491198,
				"element": "H" 
			},
			{
				"x": 0.0988866104,
				"y": 2.4472718702,
				"z": -1.0031316544,
				"element": "H" 
			}
		],
		 "valence_orbital": [ 
			{
				"type": "occ",
				"energy": -0.32266,
				"method": "rhf"
			},
			{
				"type": "occ",
				"energy": -0.27553,
				"method": "rhf"
			},
			{
				"type": "occ",
				"energy": -0.26652,
				"method": "rhf"
			},
			{
				"type": "occ",
				"energy": -0.25954,
				"method": "rhf"
			},
			{
				"type": "occ",
				"energy": -0.249,
				"method": "rhf"
			},
			{
				"type": "unocc",
				"energy": -0.08673,
				"method": "rhf"
			},
			{
				"type": "unocc",
				"energy": -0.03341,
				"method": "rhf"
			},
			{
				"type": "unocc",
				"energy": -0.00533,
				"method": "rhf"
			},
			{
				"type": "unocc",
				"energy": 0.01611,
				"method": "rhf"
			},
			{
				"type": "unocc",
				"energy": 0.05816,
				"method": "rhf"
			}
		],
		"cosmo_sigma_profile": { 
			"-0.025": 0.0,
			"-0.024": 0.0,
			"-0.023": 0.0,
			"-0.022": 0.0,
			"-0.021": 0.0,
			"-0.02": 0.0,
			"-0.019": 0.0,
			"-0.018": 0.0,
			"-0.017": 0.0,
			"-0.016": 0.0,
			"-0.015": 0.0,
			"-0.014": 0.0,
			"-0.013": 0.0,
			"-0.012": 0.0,
			"-0.011": 0.0,
			"-0.01": 0.108738082148,
			"-0.009": 3.8477523982,
			"-0.008": 8.45902663609,
			"-0.007": 11.2938770148,
			"-0.006": 11.3765832425,
			"-0.005": 8.50570249385,
			"-0.004": 8.45818121398,
			"-0.003": 7.71062026923,
			"-0.002": 7.01390326935,
			"-0.001": 13.7232880575,
			"0.0": 20.8089614518,
			"0.001": 22.5698505829,
			"0.002": 15.7420447821,
			"0.003": 9.86561173035,
			"0.004": 6.17844241478,
			"0.005": 2.84929795394,
			"0.006": 3.98921962851,
			"0.007": 3.0984066305,
			"0.008": 2.6240404339,
			"0.009": 3.04908769383,
			"0.01": 3.559806554,
			"0.011": 5.67148912704,
			"0.012": 3.02248813886,
			"0.013": 0.802177713741,
			"0.014": 0.87097283492,
			"0.015": 0.179695891166,
			"0.016": 0.0,
			"0.017": 0.0,
			"0.018": 0.0,
			"0.019": 0.0,
			"0.02": 0.0,
			"0.021": 0.0,
			"0.022": 0.0,
			"0.023": 0.0,
			"0.024": 0.0,
			"0.025": 0.0
		}
	}
}
