{
	 "smiles": "COC1=CSC(=C1)C(O)=O", 
	 "Tm": 441.15, 
	 "num_atms": 16, 
	 "gaussian": { 
		 "optdone": 1, 
		 "sigma_profile": "yes", 
		 "theory": "DFT", 
		 "functional": "B3LYP", 
		 "basiset": "6-31G**", 
		 "properties": { 
			 "R2extent": 2674.6262, 
			 "electric_dipole_moment_norm": 3.35040594705, 
			 "electric_quadrupole_moment_norm": 11.992729959, 
			 "total_energy": -856.095675113, 
			 "HOMO_LUMO_gap": 0.16567, 
			 "cosmo_polarized_energy": -10.99, 
			 "cosmo_cavitation_energy": 22.49, 
			 "cosmo_dispersion_energy": -17.23, 
			 "cosmo_repulsion_energy": 1.36, 
			 "cosmo_total_nonelectrostatic_energy": 6.62, 
			 "SMD_solvation_energy": 6.01 
		},
		"coords": [
			{
				"x": -0.4106778027,
				"y": -3.3208722266,
				"z": -1.1530225717,
				"element": "C" 
			},
			{
				"x": 0.0928411194,
				"y": -2.3720266428,
				"z": -0.2228462444,
				"element": "O" 
			},
			{
				"x": 0.2337053177,
				"y": -1.0921407311,
				"z": -0.6607632753,
				"element": "C" 
			},
			{
				"x": 0.7166216257,
				"y": -0.1126356354,
				"z": 0.182736979,
				"element": "C" 
			},
			{
				"x": 0.807193971,
				"y": 1.4245357258,
				"z": -0.5904897471,
				"element": "S" 
			},
			{
				"x": 0.1901845407,
				"y": 0.7579815602,
				"z": -2.070333193,
				"element": "C" 
			},
			{
				"x": -0.0699788699,
				"y": -0.5911296203,
				"z": -1.9596396141,
				"element": "C" 
			},
			{
				"x": 0.0137168577,
				"y": 1.6359398697,
				"z": -3.2287688473,
				"element": "C" 
			},
			{
				"x": -0.4750323269,
				"y": 0.9724610568,
				"z": -4.3089462608,
				"element": "O" 
			},
			{
				"x": 0.2679331716,
				"y": 2.8254645209,
				"z": -3.248949306,
				"element": "O" 
			},
			{
				"x": -1.4199521813,
				"y": -3.0560364932,
				"z": -1.4937969788,
				"element": "H" 
			},
			{
				"x": -0.450204059,
				"y": -4.273245328,
				"z": -0.622650933,
				"element": "H" 
			},
			{
				"x": 0.2487889318,
				"y": -3.4209875033,
				"z": -2.0247839723,
				"element": "H" 
			},
			{
				"x": 1.0163379052,
				"y": -0.2407725211,
				"z": 1.2126993661,
				"element": "H" 
			},
			{
				"x": -0.4597042784,
				"y": -1.174623276,
				"z": -2.7825529776,
				"element": "H" 
			},
			{
				"x": -0.5524739228,
				"y": 1.6388872445,
				"z": -5.0112924238,
				"element": "H" 
			}
		],
		 "valence_orbital": [ 
			{
				"type": "occ",
				"energy": -0.3336,
				"method": "rhf"
			},
			{
				"type": "occ",
				"energy": -0.31695,
				"method": "rhf"
			},
			{
				"type": "occ",
				"energy": -0.28019,
				"method": "rhf"
			},
			{
				"type": "occ",
				"energy": -0.25867,
				"method": "rhf"
			},
			{
				"type": "occ",
				"energy": -0.22226,
				"method": "rhf"
			},
			{
				"type": "unocc",
				"energy": -0.05659,
				"method": "rhf"
			},
			{
				"type": "unocc",
				"energy": 0.0268,
				"method": "rhf"
			},
			{
				"type": "unocc",
				"energy": 0.04578,
				"method": "rhf"
			},
			{
				"type": "unocc",
				"energy": 0.07598,
				"method": "rhf"
			},
			{
				"type": "unocc",
				"energy": 0.08584,
				"method": "rhf"
			}
		],
		"cosmo_sigma_profile": { 
			"-0.025": 0.0,
			"-0.024": 0.0,
			"-0.023": 0.0,
			"-0.022": 0.0,
			"-0.021": 0.0,
			"-0.02": 0.0,
			"-0.019": 0.189042756855,
			"-0.018": 0.907814171383,
			"-0.017": 0.882005582484,
			"-0.016": 0.629159468337,
			"-0.015": 1.14099074594,
			"-0.014": 0.122783185792,
			"-0.013": 0.324729935281,
			"-0.012": 1.18578476464,
			"-0.011": 1.05314887709,
			"-0.01": 0.783099371321,
			"-0.009": 1.94007465696,
			"-0.008": 3.23286405833,
			"-0.007": 5.37390345637,
			"-0.006": 10.1701910457,
			"-0.005": 11.8143048805,
			"-0.004": 10.6544402904,
			"-0.003": 11.4222450297,
			"-0.002": 9.73816514137,
			"-0.001": 9.14255766636,
			"0.0": 9.0848353983,
			"0.001": 15.2550633932,
			"0.002": 21.0986368234,
			"0.003": 16.2853404188,
			"0.004": 6.17217245337,
			"0.005": 4.82597601855,
			"0.006": 4.80905961247,
			"0.007": 4.66599231429,
			"0.008": 3.79969354307,
			"0.009": 3.1757613434,
			"0.01": 3.62476660391,
			"0.011": 4.25917219505,
			"0.012": 3.88522978018,
			"0.013": 0.0450263391194,
			"0.014": 0.0,
			"0.015": 0.0,
			"0.016": 0.0,
			"0.017": 0.0,
			"0.018": 0.0,
			"0.019": 0.0,
			"0.02": 0.0,
			"0.021": 0.0,
			"0.022": 0.0,
			"0.023": 0.0,
			"0.024": 0.0,
			"0.025": 0.0
		}
	}
}
