{
	 "smiles": "CN1C(S)=NC2=C1C=CC=C2", 
	 "Tm": 465.15, 
	 "num_atms": 19, 
	 "gaussian": { 
		 "optdone": 1, 
		 "sigma_profile": "yes", 
		 "theory": "DFT", 
		 "functional": "B3LYP", 
		 "basiset": "6-31G**", 
		 "properties": { 
			 "R2extent": 2207.3274, 
			 "electric_dipole_moment_norm": 2.72098846194, 
			 "electric_quadrupole_moment_norm": 7.04173723736, 
			 "total_energy": -817.367925379, 
			 "HOMO_LUMO_gap": 0.20018, 
			 "cosmo_polarized_energy": -10.05, 
			 "cosmo_cavitation_energy": 24.23, 
			 "cosmo_dispersion_energy": -18.67, 
			 "cosmo_repulsion_energy": 1.43, 
			 "cosmo_total_nonelectrostatic_energy": 6.99, 
			 "SMD_solvation_energy": 1.76 
		},
		"coords": [
			{
				"x": 1.6377725568,
				"y": 1.2257570455,
				"z": 0.2872432272,
				"element": "C" 
			},
			{
				"x": 0.7714661989,
				"y": 0.0626578247,
				"z": 0.358519272,
				"element": "N" 
			},
			{
				"x": 1.1629866841,
				"y": -1.2604704945,
				"z": 0.3633607815,
				"element": "C" 
			},
			{
				"x": 2.882231671,
				"y": -1.6782848038,
				"z": 0.2768730064,
				"element": "S" 
			},
			{
				"x": 0.1781913448,
				"y": -2.1201775097,
				"z": 0.4348383878,
				"element": "N" 
			},
			{
				"x": -0.9638480548,
				"y": -1.3307339726,
				"z": 0.4820096471,
				"element": "C" 
			},
			{
				"x": -0.6191249113,
				"y": 0.041340914,
				"z": 0.4356357611,
				"element": "C" 
			},
			{
				"x": -1.5771954549,
				"y": 1.0549918981,
				"z": 0.468181858,
				"element": "C" 
			},
			{
				"x": -2.9111677202,
				"y": 0.6574075738,
				"z": 0.5495179935,
				"element": "C" 
			},
			{
				"x": -3.271351694,
				"y": -0.7030077055,
				"z": 0.5964223773,
				"element": "C" 
			},
			{
				"x": -2.3092225198,
				"y": -1.7085406924,
				"z": 0.5635562556,
				"element": "C" 
			},
			{
				"x": 2.2234603075,
				"y": 1.2222500434,
				"z": -0.6378346506,
				"element": "H" 
			},
			{
				"x": 2.3213068264,
				"y": 1.2585167372,
				"z": 1.1419479027,
				"element": "H" 
			},
			{
				"x": 1.0224951674,
				"y": 2.1256206986,
				"z": 0.3026875393,
				"element": "H" 
			},
			{
				"x": 2.6335040541,
				"y": -2.9997374451,
				"z": 0.317684792,
				"element": "H" 
			},
			{
				"x": -1.3096097013,
				"y": 2.106815593,
				"z": 0.4324989061,
				"element": "H" 
			},
			{
				"x": -3.6884986691,
				"y": 1.4151649656,
				"z": 0.5771907023,
				"element": "H" 
			},
			{
				"x": -4.3222985178,
				"y": -0.9692543163,
				"z": 0.6595357185,
				"element": "H" 
			},
			{
				"x": -2.5789975678,
				"y": -2.759016354,
				"z": 0.5993305221,
				"element": "H" 
			}
		],
		 "valence_orbital": [ 
			{
				"type": "occ",
				"energy": -0.30062,
				"method": "rhf"
			},
			{
				"type": "occ",
				"energy": -0.28099,
				"method": "rhf"
			},
			{
				"type": "occ",
				"energy": -0.27373,
				"method": "rhf"
			},
			{
				"type": "occ",
				"energy": -0.2227,
				"method": "rhf"
			},
			{
				"type": "occ",
				"energy": -0.21129,
				"method": "rhf"
			},
			{
				"type": "unocc",
				"energy": -0.01111,
				"method": "rhf"
			},
			{
				"type": "unocc",
				"energy": 0.00724,
				"method": "rhf"
			},
			{
				"type": "unocc",
				"energy": 0.0234,
				"method": "rhf"
			},
			{
				"type": "unocc",
				"energy": 0.05146,
				"method": "rhf"
			},
			{
				"type": "unocc",
				"energy": 0.06555,
				"method": "rhf"
			}
		],
		"cosmo_sigma_profile": { 
			"-0.025": 0.0,
			"-0.024": 0.0,
			"-0.023": 0.0,
			"-0.022": 0.0,
			"-0.021": 0.0,
			"-0.02": 0.0,
			"-0.019": 0.0,
			"-0.018": 0.0,
			"-0.017": 0.0,
			"-0.016": 0.0,
			"-0.015": 0.0,
			"-0.014": 0.0,
			"-0.013": 0.00337228859592,
			"-0.012": 0.833919961821,
			"-0.011": 1.4208677632,
			"-0.01": 1.01772472215,
			"-0.009": 1.85648032579,
			"-0.008": 3.35738561128,
			"-0.007": 4.66149410275,
			"-0.006": 11.46030217,
			"-0.005": 15.0989707411,
			"-0.004": 19.6839106409,
			"-0.003": 17.1931620083,
			"-0.002": 10.5199830623,
			"-0.001": 9.4628474148,
			"0.0": 10.7780237245,
			"0.001": 11.6007255826,
			"0.002": 12.5592216162,
			"0.003": 11.7993717869,
			"0.004": 12.6530158104,
			"0.005": 14.0218107435,
			"0.006": 12.0312267926,
			"0.007": 4.61627452695,
			"0.008": 1.70206957057,
			"0.009": 1.25200100398,
			"0.01": 0.818079143428,
			"0.011": 1.26660647701,
			"0.012": 0.769916388772,
			"0.013": 1.01689091325,
			"0.014": 1.20542366707,
			"0.015": 0.806164659149,
			"0.016": 0.915081236956,
			"0.017": 0.159792566175,
			"0.018": 0.0,
			"0.019": 0.0,
			"0.02": 0.0,
			"0.021": 0.0,
			"0.022": 0.0,
			"0.023": 0.0,
			"0.024": 0.0,
			"0.025": 0.0
		}
	}
}
