{
	 "smiles": "OC(=O)C=CC=CC1=CC=CC=C1", 
	 "Tm": 438.15, 
	 "num_atms": 23, 
	 "gaussian": { 
		 "optdone": 1, 
		 "sigma_profile": "yes", 
		 "theory": "DFT", 
		 "functional": "B3LYP", 
		 "basiset": "6-31G**", 
		 "properties": { 
			 "R2extent": 3822.8796, 
			 "electric_dipole_moment_norm": 2.38748498634, 
			 "electric_quadrupole_moment_norm": 11.949016244, 
			 "total_energy": -575.625093625, 
			 "HOMO_LUMO_gap": 0.14828, 
			 "cosmo_polarized_energy": -10.49, 
			 "cosmo_cavitation_energy": 28.12, 
			 "cosmo_dispersion_energy": -19.89, 
			 "cosmo_repulsion_energy": 1.6, 
			 "cosmo_total_nonelectrostatic_energy": 9.84, 
			 "SMD_solvation_energy": 6.15 
		},
		"coords": [
			{
				"x": 0.2146243154,
				"y": 4.528444312,
				"z": -0.692213329,
				"element": "O" 
			},
			{
				"x": 0.8062410465,
				"y": 4.3049144602,
				"z": 0.5110957569,
				"element": "C" 
			},
			{
				"x": 0.935060772,
				"y": 5.1846105988,
				"z": 1.3427855153,
				"element": "O" 
			},
			{
				"x": 1.2454168545,
				"y": 2.9033046946,
				"z": 0.6444564685,
				"element": "C" 
			},
			{
				"x": 1.8767825446,
				"y": 2.5037731472,
				"z": 1.7658896422,
				"element": "C" 
			},
			{
				"x": 2.4526332706,
				"y": 1.1972203632,
				"z": 2.0672376985,
				"element": "C" 
			},
			{
				"x": 2.1186898888,
				"y": -0.0517822458,
				"z": 1.6662248703,
				"element": "C" 
			},
			{
				"x": 0.9697311876,
				"y": -0.5620490618,
				"z": 0.900634265,
				"element": "C" 
			},
			{
				"x": 1.1409913183,
				"y": -1.7398727355,
				"z": 0.1493480928,
				"element": "C" 
			},
			{
				"x": 0.0860926461,
				"y": -2.2933779801,
				"z": -0.573855452,
				"element": "C" 
			},
			{
				"x": -1.1740733315,
				"y": -1.6945101566,
				"z": -0.5389606326,
				"element": "C" 
			},
			{
				"x": -1.3685911602,
				"y": -0.5416389056,
				"z": 0.2275800273,
				"element": "C" 
			},
			{
				"x": -0.311395872,
				"y": 0.0192827687,
				"z": 0.9389730688,
				"element": "C" 
			},
			{
				"x": -0.0355667022,
				"y": 5.4671385513,
				"z": -0.6922928532,
				"element": "H" 
			},
			{
				"x": 1.0506049783,
				"y": 2.2388631032,
				"z": -0.1895173891,
				"element": "H" 
			},
			{
				"x": 2.0525159747,
				"y": 3.2793687928,
				"z": 2.5113023847,
				"element": "H" 
			},
			{
				"x": 3.3204793644,
				"y": 1.2563710328,
				"z": 2.7235330738,
				"element": "H" 
			},
			{
				"x": 2.8100884313,
				"y": -0.8349972088,
				"z": 1.9768590772,
				"element": "H" 
			},
			{
				"x": 2.1173573944,
				"y": -2.2176248485,
				"z": 0.1297202975,
				"element": "H" 
			},
			{
				"x": 0.2459762111,
				"y": -3.1961671932,
				"z": -1.1563198007,
				"element": "H" 
			},
			{
				"x": -2.0009424172,
				"y": -2.1269671763,
				"z": -1.0946854363,
				"element": "H" 
			},
			{
				"x": -2.3512146384,
				"y": -0.0811138068,
				"z": 0.2762551262,
				"element": "H" 
			},
			{
				"x": -0.4780020773,
				"y": 0.9060094942,
				"z": 1.5399495279,
				"element": "H" 
			}
		],
		 "valence_orbital": [ 
			{
				"type": "occ",
				"energy": -0.30948,
				"method": "rhf"
			},
			{
				"type": "occ",
				"energy": -0.27612,
				"method": "rhf"
			},
			{
				"type": "occ",
				"energy": -0.27014,
				"method": "rhf"
			},
			{
				"type": "occ",
				"energy": -0.25669,
				"method": "rhf"
			},
			{
				"type": "occ",
				"energy": -0.22277,
				"method": "rhf"
			},
			{
				"type": "unocc",
				"energy": -0.07449,
				"method": "rhf"
			},
			{
				"type": "unocc",
				"energy": -0.00927,
				"method": "rhf"
			},
			{
				"type": "unocc",
				"energy": -0.00712,
				"method": "rhf"
			},
			{
				"type": "unocc",
				"energy": 0.05077,
				"method": "rhf"
			},
			{
				"type": "unocc",
				"energy": 0.08572,
				"method": "rhf"
			}
		],
		"cosmo_sigma_profile": { 
			"-0.025": 0.0,
			"-0.024": 0.0,
			"-0.023": 0.0,
			"-0.022": 0.0,
			"-0.021": 0.0,
			"-0.02": 0.0,
			"-0.019": 0.0,
			"-0.018": 0.528311076378,
			"-0.017": 0.837948775952,
			"-0.016": 0.795519606679,
			"-0.015": 0.835772915978,
			"-0.014": 0.355738974908,
			"-0.013": 0.87022994359,
			"-0.012": 0.560807643745,
			"-0.011": 0.881034230445,
			"-0.01": 0.988725776658,
			"-0.009": 0.589466398424,
			"-0.008": 0.552411189397,
			"-0.007": 0.988194992447,
			"-0.006": 14.7252210057,
			"-0.005": 18.9954656303,
			"-0.004": 17.5585420311,
			"-0.003": 14.7909503021,
			"-0.002": 14.8995536212,
			"-0.001": 17.8566777834,
			"0.0": 16.2662435088,
			"0.001": 15.9532897859,
			"0.002": 16.6905640848,
			"0.003": 17.194313803,
			"0.004": 13.8807615991,
			"0.005": 12.0054865259,
			"0.006": 4.6532917985,
			"0.007": 2.59454423681,
			"0.008": 2.49002495451,
			"0.009": 3.14241552418,
			"0.01": 2.96576665572,
			"0.011": 2.44481221053,
			"0.012": 5.1489903517,
			"0.013": 1.72965381424,
			"0.014": 0.0,
			"0.015": 0.0,
			"0.016": 0.0,
			"0.017": 0.0,
			"0.018": 0.0,
			"0.019": 0.0,
			"0.02": 0.0,
			"0.021": 0.0,
			"0.022": 0.0,
			"0.023": 0.0,
			"0.024": 0.0,
			"0.025": 0.0
		}
	}
}
