{
	 "smiles": "CC(=O)NC(=CC1=CC=CC=C1)C(O)=O", 
	 "Tm": 465.15, 
	 "num_atms": 26, 
	 "gaussian": { 
		 "optdone": 1, 
		 "sigma_profile": "yes", 
		 "theory": "DFT", 
		 "functional": "B3LYP", 
		 "basiset": "6-31G**", 
		 "properties": { 
			 "R2extent": 3800.4929, 
			 "electric_dipole_moment_norm": 4.94783931125, 
			 "electric_quadrupole_moment_norm": 11.6590663773, 
			 "total_energy": -706.239680113, 
			 "HOMO_LUMO_gap": 0.1629, 
			 "cosmo_polarized_energy": -19.46, 
			 "cosmo_cavitation_energy": 31.21, 
			 "cosmo_dispersion_energy": -21.87, 
			 "cosmo_repulsion_energy": 1.74, 
			 "cosmo_total_nonelectrostatic_energy": 11.08, 
			 "SMD_solvation_energy": 7.6 
		},
		"coords": [
			{
				"x": 1.8667095475,
				"y": -3.0662048692,
				"z": 1.3083435424,
				"element": "C" 
			},
			{
				"x": 1.8723601824,
				"y": -1.9358662436,
				"z": 0.2933646171,
				"element": "C" 
			},
			{
				"x": 2.531183705,
				"y": -1.962828302,
				"z": -0.7312759055,
				"element": "O" 
			},
			{
				"x": 1.0924135107,
				"y": -0.8446906495,
				"z": 0.6416093154,
				"element": "N" 
			},
			{
				"x": 1.0361961316,
				"y": 0.342226242,
				"z": -0.1135108145,
				"element": "C" 
			},
			{
				"x": -0.1029900177,
				"y": 1.0120068111,
				"z": -0.3989571525,
				"element": "C" 
			},
			{
				"x": -1.4962227104,
				"y": 0.6599043823,
				"z": -0.1138217643,
				"element": "C" 
			},
			{
				"x": -2.4421920304,
				"y": 1.7037347972,
				"z": -0.0649054444,
				"element": "C" 
			},
			{
				"x": -3.785796772,
				"y": 1.4488579377,
				"z": 0.1952704846,
				"element": "C" 
			},
			{
				"x": -4.2231905295,
				"y": 0.1377855363,
				"z": 0.3961948101,
				"element": "C" 
			},
			{
				"x": -3.3051488008,
				"y": -0.9126867809,
				"z": 0.3265275914,
				"element": "C" 
			},
			{
				"x": -1.9579948553,
				"y": -0.6590336106,
				"z": 0.0779202998,
				"element": "C" 
			},
			{
				"x": 2.3264058905,
				"y": 0.9931627252,
				"z": -0.5049733392,
				"element": "C" 
			},
			{
				"x": 3.3598923988,
				"y": 0.6273662545,
				"z": 0.2848531992,
				"element": "O" 
			},
			{
				"x": 2.4350143607,
				"y": 1.8151038788,
				"z": -1.3920280963,
				"element": "O" 
			},
			{
				"x": 0.9360051057,
				"y": -3.1279859809,
				"z": 1.8810504947,
				"element": "H" 
			},
			{
				"x": 2.0371339262,
				"y": -4.0074794501,
				"z": 0.7845369264,
				"element": "H" 
			},
			{
				"x": 2.6899901149,
				"y": -2.9157229292,
				"z": 2.0150950209,
				"element": "H" 
			},
			{
				"x": 0.448527877,
				"y": -0.934640227,
				"z": 1.4154088333,
				"element": "H" 
			},
			{
				"x": 0.0509386849,
				"y": 1.9764087219,
				"z": -0.8748374191,
				"element": "H" 
			},
			{
				"x": -2.1080610086,
				"y": 2.7246655051,
				"z": -0.2291973717,
				"element": "H" 
			},
			{
				"x": -4.4930973781,
				"y": 2.2721349901,
				"z": 0.2348829269,
				"element": "H" 
			},
			{
				"x": -5.2715192982,
				"y": -0.0648687173,
				"z": 0.5945065906,
				"element": "H" 
			},
			{
				"x": -3.6414344251,
				"y": -1.9371977189,
				"z": 0.458304339,
				"element": "H" 
			},
			{
				"x": -1.2671257975,
				"y": -1.4895819158,
				"z": -0.0090042076,
				"element": "H" 
			},
			{
				"x": 4.1381021876,
				"y": 1.0827296129,
				"z": -0.0758574765,
				"element": "H" 
			}
		],
		 "valence_orbital": [ 
			{
				"type": "occ",
				"energy": -0.28484,
				"method": "rhf"
			},
			{
				"type": "occ",
				"energy": -0.26794,
				"method": "rhf"
			},
			{
				"type": "occ",
				"energy": -0.26333,
				"method": "rhf"
			},
			{
				"type": "occ",
				"energy": -0.25524,
				"method": "rhf"
			},
			{
				"type": "occ",
				"energy": -0.2262,
				"method": "rhf"
			},
			{
				"type": "unocc",
				"energy": -0.0633,
				"method": "rhf"
			},
			{
				"type": "unocc",
				"energy": -0.01505,
				"method": "rhf"
			},
			{
				"type": "unocc",
				"energy": 0.0155,
				"method": "rhf"
			},
			{
				"type": "unocc",
				"energy": 0.01869,
				"method": "rhf"
			},
			{
				"type": "unocc",
				"energy": 0.06844,
				"method": "rhf"
			}
		],
		"cosmo_sigma_profile": { 
			"-0.025": 0.0,
			"-0.024": 0.0,
			"-0.023": 0.0,
			"-0.022": 0.0,
			"-0.021": 0.0,
			"-0.02": 0.0,
			"-0.019": 0.0497723565255,
			"-0.018": 0.800798199341,
			"-0.017": 0.879658237998,
			"-0.016": 0.84634475676,
			"-0.015": 0.928150978657,
			"-0.014": 1.25732793195,
			"-0.013": 2.21213322195,
			"-0.012": 1.81594750987,
			"-0.011": 1.81174221053,
			"-0.01": 2.59086504419,
			"-0.009": 2.85918754704,
			"-0.008": 2.15499367942,
			"-0.007": 5.94870965376,
			"-0.006": 15.7836673797,
			"-0.005": 18.2296877962,
			"-0.004": 19.3574685287,
			"-0.003": 16.5293257032,
			"-0.002": 17.8483323447,
			"-0.001": 15.228227131,
			"0.0": 13.6317730666,
			"0.001": 12.8293691297,
			"0.002": 12.4231492168,
			"0.003": 13.2778346687,
			"0.004": 15.6674272755,
			"0.005": 10.8218813936,
			"0.006": 4.97218917714,
			"0.007": 4.99098013025,
			"0.008": 4.34536267736,
			"0.009": 4.64665101218,
			"0.01": 3.66295320136,
			"0.011": 6.07678394875,
			"0.012": 7.30510287618,
			"0.013": 4.85968994856,
			"0.014": 1.75565544302,
			"0.015": 0.197661121706,
			"0.016": 0.0,
			"0.017": 0.0,
			"0.018": 0.0,
			"0.019": 0.0,
			"0.02": 0.0,
			"0.021": 0.0,
			"0.022": 0.0,
			"0.023": 0.0,
			"0.024": 0.0,
			"0.025": 0.0
		}
	}
}
