{
	 "smiles": "CCC1=CC=C(C=C1)C(N)C(O)=O", 
	 "Tm": 493.15, 
	 "num_atms": 26, 
	 "gaussian": { 
		 "optdone": 1, 
		 "sigma_profile": "yes", 
		 "theory": "DFT", 
		 "functional": "B3LYP", 
		 "basiset": "6-31G**", 
		 "properties": { 
			 "R2extent": 3880.8096, 
			 "electric_dipole_moment_norm": 5.4112741069, 
			 "electric_quadrupole_moment_norm": 30.7033493396, 
			 "total_energy": -594.119342342, 
			 "HOMO_LUMO_gap": 0.22805, 
			 "cosmo_polarized_energy": -16.24, 
			 "cosmo_cavitation_energy": 29.44, 
			 "cosmo_dispersion_energy": -20.97, 
			 "cosmo_repulsion_energy": 1.7, 
			 "cosmo_total_nonelectrostatic_energy": 10.17, 
			 "SMD_solvation_energy": 5.66 
		},
		"coords": [
			{
				"x": 2.6694676824,
				"y": -2.3737154692,
				"z": -1.067791406,
				"element": "C" 
			},
			{
				"x": 1.5144689902,
				"y": -1.5144624634,
				"z": -1.6137493482,
				"element": "C" 
			},
			{
				"x": 0.9311808868,
				"y": -0.5844832288,
				"z": -0.5713030564,
				"element": "C" 
			},
			{
				"x": 1.4424210931,
				"y": 0.706267351,
				"z": -0.3869994009,
				"element": "C" 
			},
			{
				"x": 0.9322433973,
				"y": 1.5458471023,
				"z": 0.6026340062,
				"element": "C" 
			},
			{
				"x": -0.1060173922,
				"y": 1.1228617214,
				"z": 1.4403977117,
				"element": "C" 
			},
			{
				"x": -0.6173413643,
				"y": -0.169925069,
				"z": 1.2630977035,
				"element": "C" 
			},
			{
				"x": -0.106775041,
				"y": -1.0053285122,
				"z": 0.2718461991,
				"element": "C" 
			},
			{
				"x": -0.7138194335,
				"y": 2.0858007248,
				"z": 2.441215547,
				"element": "C" 
			},
			{
				"x": -1.9165521857,
				"y": 2.8060159222,
				"z": 1.9513774844,
				"element": "N" 
			},
			{
				"x": -1.0603425962,
				"y": 1.4367198911,
				"z": 3.8064875266,
				"element": "C" 
			},
			{
				"x": -2.1500469475,
				"y": 1.9702378435,
				"z": 4.3776630792,
				"element": "O" 
			},
			{
				"x": -0.3909691158,
				"y": 0.575771936,
				"z": 4.3247468184,
				"element": "O" 
			},
			{
				"x": 3.0668223103,
				"y": -3.0344826865,
				"z": -1.8453319213,
				"element": "H" 
			},
			{
				"x": 3.488371732,
				"y": -1.7445027235,
				"z": -0.704560964,
				"element": "H" 
			},
			{
				"x": 2.3343776416,
				"y": -2.9952515429,
				"z": -0.2313212523,
				"element": "H" 
			},
			{
				"x": 1.8736158923,
				"y": -0.9272460648,
				"z": -2.4674302535,
				"element": "H" 
			},
			{
				"x": 0.7259830667,
				"y": -2.1726573445,
				"z": -1.9979854654,
				"element": "H" 
			},
			{
				"x": 2.2502800457,
				"y": 1.0582152432,
				"z": -1.0243638444,
				"element": "H" 
			},
			{
				"x": 1.348654734,
				"y": 2.5435377475,
				"z": 0.7253310162,
				"element": "H" 
			},
			{
				"x": -1.40234999,
				"y": -0.5368151165,
				"z": 1.9182598634,
				"element": "H" 
			},
			{
				"x": -0.5167722738,
				"y": -2.0057266901,
				"z": 0.1546217945,
				"element": "H" 
			},
			{
				"x": 0.0319381226,
				"y": 2.8533112911,
				"z": 2.6835400454,
				"element": "H" 
			},
			{
				"x": -2.4656237207,
				"y": 2.1863893395,
				"z": 1.3585762974,
				"element": "H" 
			},
			{
				"x": -1.6516525915,
				"y": 3.5988302524,
				"z": 1.3739261197,
				"element": "H" 
			},
			{
				"x": -2.4962629429,
				"y": 2.6069905453,
				"z": 3.7060156995,
				"element": "H" 
			}
		],
		 "valence_orbital": [ 
			{
				"type": "occ",
				"energy": -0.29943,
				"method": "rhf"
			},
			{
				"type": "occ",
				"energy": -0.29826,
				"method": "rhf"
			},
			{
				"type": "occ",
				"energy": -0.25704,
				"method": "rhf"
			},
			{
				"type": "occ",
				"energy": -0.25235,
				"method": "rhf"
			},
			{
				"type": "occ",
				"energy": -0.23926,
				"method": "rhf"
			},
			{
				"type": "unocc",
				"energy": -0.01121,
				"method": "rhf"
			},
			{
				"type": "unocc",
				"energy": -0.00817,
				"method": "rhf"
			},
			{
				"type": "unocc",
				"energy": 0.01534,
				"method": "rhf"
			},
			{
				"type": "unocc",
				"energy": 0.07222,
				"method": "rhf"
			},
			{
				"type": "unocc",
				"energy": 0.0901,
				"method": "rhf"
			}
		],
		"cosmo_sigma_profile": { 
			"-0.025": 0.0,
			"-0.024": 0.0,
			"-0.023": 0.0,
			"-0.022": 0.0,
			"-0.021": 0.0,
			"-0.02": 0.0,
			"-0.019": 0.0,
			"-0.018": 0.0,
			"-0.017": 0.0,
			"-0.016": 0.0,
			"-0.015": 0.0,
			"-0.014": 0.0,
			"-0.013": 0.00716366095453,
			"-0.012": 1.28171695807,
			"-0.011": 2.39464584399,
			"-0.01": 4.22170284637,
			"-0.009": 4.81516271596,
			"-0.008": 7.24744843013,
			"-0.007": 6.87014146688,
			"-0.006": 8.1059810626,
			"-0.005": 12.0763961121,
			"-0.004": 14.2156150444,
			"-0.003": 20.2547755411,
			"-0.002": 18.7303847301,
			"-0.001": 19.7004499815,
			"0.0": 18.029870101,
			"0.001": 17.8949080794,
			"0.002": 9.3321763707,
			"0.003": 9.32525411418,
			"0.004": 7.67582254982,
			"0.005": 9.35254282301,
			"0.006": 9.46468668289,
			"0.007": 3.80365366007,
			"0.008": 2.28598788779,
			"0.009": 3.50198101652,
			"0.01": 4.37847956259,
			"0.011": 5.72867228583,
			"0.012": 5.69055692612,
			"0.013": 4.19020519069,
			"0.014": 0.763372873172,
			"0.015": 0.0,
			"0.016": 0.0,
			"0.017": 0.0,
			"0.018": 0.0,
			"0.019": 0.0,
			"0.02": 0.0,
			"0.021": 0.0,
			"0.022": 0.0,
			"0.023": 0.0,
			"0.024": 0.0,
			"0.025": 0.0
		}
	}
}
