{
	 "smiles": "CCCC=C(C#N)C(O)=O", 
	 "Tm": 370.15, 
	 "num_atms": 19, 
	 "gaussian": { 
		 "optdone": 1, 
		 "sigma_profile": "yes", 
		 "theory": "DFT", 
		 "functional": "B3LYP", 
		 "basiset": "6-31G**", 
		 "properties": { 
			 "R2extent": 2123.6311, 
			 "electric_dipole_moment_norm": 6.83599467086, 
			 "electric_quadrupole_moment_norm": 17.9920610773, 
			 "total_energy": -477.340696159, 
			 "HOMO_LUMO_gap": 0.20451, 
			 "cosmo_polarized_energy": -19.97, 
			 "cosmo_cavitation_energy": 24.37, 
			 "cosmo_dispersion_energy": -16.68, 
			 "cosmo_repulsion_energy": 1.41, 
			 "cosmo_total_nonelectrostatic_energy": 9.09, 
			 "SMD_solvation_energy": 6.77 
		},
		"coords": [
			{
				"x": 1.3291113325,
				"y": -0.6014190533,
				"z": -2.3961869279,
				"element": "C" 
			},
			{
				"x": 0.8953690876,
				"y": -1.5979912842,
				"z": -1.3162721825,
				"element": "C" 
			},
			{
				"x": -0.3509042398,
				"y": -1.1676966534,
				"z": -0.5033767264,
				"element": "C" 
			},
			{
				"x": -0.1398919389,
				"y": 0.0798121899,
				"z": 0.2961260118,
				"element": "C" 
			},
			{
				"x": -0.1416779538,
				"y": 0.1784776102,
				"z": 1.6442116769,
				"element": "C" 
			},
			{
				"x": -0.3464585034,
				"y": -0.9741344161,
				"z": 2.4746667934,
				"element": "C" 
			},
			{
				"x": -0.5328780441,
				"y": -1.918379613,
				"z": 3.1268533004,
				"element": "N" 
			},
			{
				"x": 0.1827811817,
				"y": 1.4557246272,
				"z": 2.3795314245,
				"element": "C" 
			},
			{
				"x": -0.1154202212,
				"y": 2.6111211608,
				"z": 1.7321316891,
				"element": "O" 
			},
			{
				"x": 0.7020220686,
				"y": 1.4665081936,
				"z": 3.4654996099,
				"element": "O" 
			},
			{
				"x": 2.1673383861,
				"y": -1.0009255109,
				"z": -2.9748448718,
				"element": "H" 
			},
			{
				"x": 1.6580028846,
				"y": 0.3528067799,
				"z": -1.9708835658,
				"element": "H" 
			},
			{
				"x": 0.5127512868,
				"y": -0.3931534464,
				"z": -3.0974555779,
				"element": "H" 
			},
			{
				"x": 1.7237021277,
				"y": -1.7849007754,
				"z": -0.6230525441,
				"element": "H" 
			},
			{
				"x": 0.6607166025,
				"y": -2.5610721278,
				"z": -1.7838227238,
				"element": "H" 
			},
			{
				"x": -1.1783015,
				"y": -0.9873037026,
				"z": -1.2052760865,
				"element": "H" 
			},
			{
				"x": -0.6573137588,
				"y": -1.9839452787,
				"z": 0.156882456,
				"element": "H" 
			},
			{
				"x": 0.0777412397,
				"y": 0.9847243202,
				"z": -0.269927543,
				"element": "H" 
			},
			{
				"x": -0.7098900377,
				"y": 2.4369469801,
				"z": 0.9890957877,
				"element": "H" 
			}
		],
		 "valence_orbital": [ 
			{
				"type": "occ",
				"energy": -0.35915,
				"method": "rhf"
			},
			{
				"type": "occ",
				"energy": -0.34068,
				"method": "rhf"
			},
			{
				"type": "occ",
				"energy": -0.33414,
				"method": "rhf"
			},
			{
				"type": "occ",
				"energy": -0.29628,
				"method": "rhf"
			},
			{
				"type": "occ",
				"energy": -0.28815,
				"method": "rhf"
			},
			{
				"type": "unocc",
				"energy": -0.08364,
				"method": "rhf"
			},
			{
				"type": "unocc",
				"energy": 0.00542,
				"method": "rhf"
			},
			{
				"type": "unocc",
				"energy": 0.02068,
				"method": "rhf"
			},
			{
				"type": "unocc",
				"energy": 0.04586,
				"method": "rhf"
			},
			{
				"type": "unocc",
				"energy": 0.08097,
				"method": "rhf"
			}
		],
		"cosmo_sigma_profile": { 
			"-0.025": 0.0,
			"-0.024": 0.0,
			"-0.023": 0.0,
			"-0.022": 0.0,
			"-0.021": 0.0,
			"-0.02": 0.212016794604,
			"-0.019": 1.09500192128,
			"-0.018": 1.21945266101,
			"-0.017": 0.955159177146,
			"-0.016": 1.3073387243,
			"-0.015": 1.12536217452,
			"-0.014": 0.706074385718,
			"-0.013": 0.953728981118,
			"-0.012": 1.44902174765,
			"-0.011": 1.50574689705,
			"-0.01": 1.19223360101,
			"-0.009": 1.82137835747,
			"-0.008": 2.8349940406,
			"-0.007": 2.97010817322,
			"-0.006": 6.76347852595,
			"-0.005": 8.04914514884,
			"-0.004": 14.3685162029,
			"-0.003": 25.7849967842,
			"-0.002": 19.5584006322,
			"-0.001": 15.0326963621,
			"0.0": 12.3220380463,
			"0.001": 8.651059822,
			"0.002": 3.79853718483,
			"0.003": 3.84173240542,
			"0.004": 3.70416141492,
			"0.005": 5.10752640525,
			"0.006": 5.24654422871,
			"0.007": 6.47185595169,
			"0.008": 6.59972912033,
			"0.009": 7.89828263276,
			"0.01": 8.46716785305,
			"0.011": 7.63685207068,
			"0.012": 4.01298428079,
			"0.013": 0.696028856399,
			"0.014": 0.0,
			"0.015": 0.0,
			"0.016": 0.0,
			"0.017": 0.0,
			"0.018": 0.0,
			"0.019": 0.0,
			"0.02": 0.0,
			"0.021": 0.0,
			"0.022": 0.0,
			"0.023": 0.0,
			"0.024": 0.0,
			"0.025": 0.0
		}
	}
}
