{
	 "smiles": "CC1OC2=C(Cl)C(Cl)=CC=C2C1=O", 
	 "Tm": 373.15, 
	 "num_atms": 19, 
	 "gaussian": { 
		 "optdone": 1, 
		 "sigma_profile": "yes", 
		 "theory": "DFT", 
		 "functional": "B3LYP", 
		 "basiset": "6-31G**", 
		 "properties": { 
			 "R2extent": 4227.0153, 
			 "electric_dipole_moment_norm": 0.479196348066, 
			 "electric_quadrupole_moment_norm": 13.2999924872, 
			 "total_energy": -1417.39925538, 
			 "HOMO_LUMO_gap": 0.17103, 
			 "cosmo_polarized_energy": -8.28, 
			 "cosmo_cavitation_energy": 27.11, 
			 "cosmo_dispersion_energy": -20.08, 
			 "cosmo_repulsion_energy": 1.6, 
			 "cosmo_total_nonelectrostatic_energy": 8.63, 
			 "SMD_solvation_energy": 4.88 
		},
		"coords": [
			{
				"x": -2.4281105607,
				"y": -1.1996671329,
				"z": -0.1996901849,
				"element": "C" 
			},
			{
				"x": -1.5694235561,
				"y": -0.0198121009,
				"z": -0.6253572384,
				"element": "C" 
			},
			{
				"x": -0.6506572443,
				"y": -0.4145114297,
				"z": -1.6850759923,
				"element": "O" 
			},
			{
				"x": 0.6048318505,
				"y": -0.1204061836,
				"z": -1.2823609583,
				"element": "C" 
			},
			{
				"x": 1.7502350951,
				"y": -0.3534436788,
				"z": -2.053675456,
				"element": "C" 
			},
			{
				"x": 1.5970475561,
				"y": -1.0572581916,
				"z": -3.6327700581,
				"element": "Cl" 
			},
			{
				"x": 2.9805719033,
				"y": 0.0049012134,
				"z": -1.48513665,
				"element": "C" 
			},
			{
				"x": 4.4592795762,
				"y": -0.2477890355,
				"z": -2.3718803901,
				"element": "Cl" 
			},
			{
				"x": 3.0705875839,
				"y": 0.5729095951,
				"z": -0.1989477759,
				"element": "C" 
			},
			{
				"x": 1.922483092,
				"y": 0.7945553034,
				"z": 0.5483957228,
				"element": "C" 
			},
			{
				"x": 0.6893573593,
				"y": 0.4461443033,
				"z": -0.0065590206,
				"element": "C" 
			},
			{
				"x": -0.6819232701,
				"y": 0.5349002408,
				"z": 0.508605596,
				"element": "C" 
			},
			{
				"x": -1.0859114723,
				"y": 0.9370079683,
				"z": 1.5833628648,
				"element": "O" 
			},
			{
				"x": -3.0740744084,
				"y": -0.8841113907,
				"z": 0.6243335513,
				"element": "H" 
			},
			{
				"x": -1.8020588693,
				"y": -2.0272758181,
				"z": 0.1455180333,
				"element": "H" 
			},
			{
				"x": -3.0478295282,
				"y": -1.5494846454,
				"z": -1.0287452398,
				"element": "H" 
			},
			{
				"x": -2.1874895637,
				"y": 0.7916367475,
				"z": -1.0276262745,
				"element": "H" 
			},
			{
				"x": 4.0500175051,
				"y": 0.8292651735,
				"z": 0.1869942464,
				"element": "H" 
			},
			{
				"x": 1.9704669515,
				"y": 1.2300390619,
				"z": 1.5411152242,
				"element": "H" 
			}
		],
		 "valence_orbital": [ 
			{
				"type": "occ",
				"energy": -0.32834,
				"method": "rhf"
			},
			{
				"type": "occ",
				"energy": -0.31898,
				"method": "rhf"
			},
			{
				"type": "occ",
				"energy": -0.26429,
				"method": "rhf"
			},
			{
				"type": "occ",
				"energy": -0.2616,
				"method": "rhf"
			},
			{
				"type": "occ",
				"energy": -0.24858,
				"method": "rhf"
			},
			{
				"type": "unocc",
				"energy": -0.07755,
				"method": "rhf"
			},
			{
				"type": "unocc",
				"energy": -0.02229,
				"method": "rhf"
			},
			{
				"type": "unocc",
				"energy": -0.00703,
				"method": "rhf"
			},
			{
				"type": "unocc",
				"energy": 0.01976,
				"method": "rhf"
			},
			{
				"type": "unocc",
				"energy": 0.05477,
				"method": "rhf"
			}
		],
		"cosmo_sigma_profile": { 
			"-0.025": 0.0,
			"-0.024": 0.0,
			"-0.023": 0.0,
			"-0.022": 0.0,
			"-0.021": 0.0,
			"-0.02": 0.0,
			"-0.019": 0.0,
			"-0.018": 0.0,
			"-0.017": 0.0,
			"-0.016": 0.0,
			"-0.015": 0.0,
			"-0.014": 0.0,
			"-0.013": 0.0,
			"-0.012": 0.0,
			"-0.011": 0.0,
			"-0.01": 0.0,
			"-0.009": 1.49280104844,
			"-0.008": 7.07474955994,
			"-0.007": 6.31326743456,
			"-0.006": 9.01786220706,
			"-0.005": 11.116095965,
			"-0.004": 13.0831972457,
			"-0.003": 14.3791077165,
			"-0.002": 17.8252331521,
			"-0.001": 27.8556761426,
			"0.0": 22.7718143121,
			"0.001": 16.4241821117,
			"0.002": 15.8428338925,
			"0.003": 18.4472089151,
			"0.004": 13.3633633305,
			"0.005": 4.87694186382,
			"0.006": 2.46675254599,
			"0.007": 3.5492294571,
			"0.008": 3.21122827576,
			"0.009": 2.53813621439,
			"0.01": 2.53043301361,
			"0.011": 4.41769594672,
			"0.012": 3.17084203025,
			"0.013": 0.164387559472,
			"0.014": 0.0,
			"0.015": 0.0,
			"0.016": 0.0,
			"0.017": 0.0,
			"0.018": 0.0,
			"0.019": 0.0,
			"0.02": 0.0,
			"0.021": 0.0,
			"0.022": 0.0,
			"0.023": 0.0,
			"0.024": 0.0,
			"0.025": 0.0
		}
	}
}
