{
	 "smiles": "NN1C(N)=C(C#N)C(C2=CC=C(F)C=C2)=C(C#N)C1=O", 
	 "Tm": 577.15, 
	 "num_atms": 28, 
	 "gaussian": { 
		 "optdone": 1, 
		 "sigma_profile": "yes", 
		 "theory": "DFT", 
		 "functional": "B3LYP", 
		 "basiset": "6-31G**", 
		 "properties": { 
			 "R2extent": 6024.9478, 
			 "electric_dipole_moment_norm": 6.64327341677, 
			 "electric_quadrupole_moment_norm": 32.2134508594, 
			 "total_energy": -948.977888352, 
			 "HOMO_LUMO_gap": 0.15641, 
			 "cosmo_polarized_energy": -26.84, 
			 "cosmo_cavitation_energy": 35.37, 
			 "cosmo_dispersion_energy": -24.01, 
			 "cosmo_repulsion_energy": 1.81, 
			 "cosmo_total_nonelectrostatic_energy": 13.17, 
			 "SMD_solvation_energy": 9.55 
		},
		"coords": [
			{
				"x": -3.6448868663,
				"y": -1.9580002427,
				"z": -2.2115113088,
				"element": "N" 
			},
			{
				"x": -2.4938413087,
				"y": -1.577805036,
				"z": -1.4859894814,
				"element": "N" 
			},
			{
				"x": -2.0248692577,
				"y": -2.4534946042,
				"z": -0.5518630405,
				"element": "C" 
			},
			{
				"x": -2.6851764583,
				"y": -3.6094879378,
				"z": -0.3921289745,
				"element": "N" 
			},
			{
				"x": -0.8806174164,
				"y": -2.0985679505,
				"z": 0.1964384052,
				"element": "C" 
			},
			{
				"x": -0.4826048238,
				"y": -3.0302303054,
				"z": 1.1940919585,
				"element": "C" 
			},
			{
				"x": -0.2557768813,
				"y": -3.8688708868,
				"z": 1.9724932787,
				"element": "N" 
			},
			{
				"x": -0.2302623845,
				"y": -0.8505232719,
				"z": -0.0288731471,
				"element": "C" 
			},
			{
				"x": 0.9768784657,
				"y": -0.5053527583,
				"z": 0.7651431134,
				"element": "C" 
			},
			{
				"x": 2.053299107,
				"y": -1.4043419022,
				"z": 0.8534336912,
				"element": "C" 
			},
			{
				"x": 3.1901066941,
				"y": -1.0860755535,
				"z": 1.5909437752,
				"element": "C" 
			},
			{
				"x": 3.2358468894,
				"y": 0.1359724368,
				"z": 2.2529465022,
				"element": "C" 
			},
			{
				"x": 4.3285606413,
				"y": 0.4460034653,
				"z": 2.9738182891,
				"element": "F" 
			},
			{
				"x": 2.1867569535,
				"y": 1.0469972633,
				"z": 2.1930544039,
				"element": "C" 
			},
			{
				"x": 1.0612748878,
				"y": 0.7234137003,
				"z": 1.4412241189,
				"element": "C" 
			},
			{
				"x": -0.7403565829,
				"y": 0.0241683431,
				"z": -0.9893515516,
				"element": "C" 
			},
			{
				"x": -0.1167979528,
				"y": 1.2670466421,
				"z": -1.3095282954,
				"element": "C" 
			},
			{
				"x": 0.3788764618,
				"y": 2.2841104397,
				"z": -1.5830801857,
				"element": "N" 
			},
			{
				"x": -1.9220388464,
				"y": -0.2964606105,
				"z": -1.7685105935,
				"element": "C" 
			},
			{
				"x": -2.4605504849,
				"y": 0.3904294869,
				"z": -2.6248516569,
				"element": "O" 
			},
			{
				"x": -3.3835858082,
				"y": -1.9453945907,
				"z": -3.1983011056,
				"element": "H" 
			},
			{
				"x": -4.3106778089,
				"y": -1.1907105654,
				"z": -2.1118614361,
				"element": "H" 
			},
			{
				"x": -2.3868070443,
				"y": -4.2635277465,
				"z": 0.3152374558,
				"element": "H" 
			},
			{
				"x": -3.5188303858,
				"y": -3.7562515989,
				"z": -0.9430112253,
				"element": "H" 
			},
			{
				"x": 2.0126627552,
				"y": -2.352572422,
				"z": 0.3283346696,
				"element": "H" 
			},
			{
				"x": 4.0316846384,
				"y": -1.7662419765,
				"z": 1.6580438562,
				"element": "H" 
			},
			{
				"x": 2.2607144985,
				"y": 1.9883921769,
				"z": 2.7256678872,
				"element": "H" 
			},
			{
				"x": 0.2385183185,
				"y": 1.4274760054,
				"z": 1.3883905974,
				"element": "H" 
			}
		],
		 "valence_orbital": [ 
			{
				"type": "occ",
				"energy": -0.30571,
				"method": "rhf"
			},
			{
				"type": "occ",
				"energy": -0.29092,
				"method": "rhf"
			},
			{
				"type": "occ",
				"energy": -0.27201,
				"method": "rhf"
			},
			{
				"type": "occ",
				"energy": -0.25388,
				"method": "rhf"
			},
			{
				"type": "occ",
				"energy": -0.23189,
				"method": "rhf"
			},
			{
				"type": "unocc",
				"energy": -0.07548,
				"method": "rhf"
			},
			{
				"type": "unocc",
				"energy": -0.03965,
				"method": "rhf"
			},
			{
				"type": "unocc",
				"energy": -0.02537,
				"method": "rhf"
			},
			{
				"type": "unocc",
				"energy": -0.00544,
				"method": "rhf"
			},
			{
				"type": "unocc",
				"energy": 0.01108,
				"method": "rhf"
			}
		],
		"cosmo_sigma_profile": { 
			"-0.025": 0.0,
			"-0.024": 0.0,
			"-0.023": 0.0,
			"-0.022": 0.0,
			"-0.021": 0.0,
			"-0.02": 0.0,
			"-0.019": 0.0,
			"-0.018": 0.0,
			"-0.017": 0.0,
			"-0.016": 0.108995556292,
			"-0.015": 0.687752006621,
			"-0.014": 2.68272739978,
			"-0.013": 4.25934463699,
			"-0.012": 5.14930353076,
			"-0.011": 4.59083815183,
			"-0.01": 3.79196709814,
			"-0.009": 3.25664186277,
			"-0.008": 7.30386703526,
			"-0.007": 12.5616137581,
			"-0.006": 14.6380533369,
			"-0.005": 15.071408969,
			"-0.004": 14.2196322652,
			"-0.003": 16.7117365276,
			"-0.002": 17.6877857062,
			"-0.001": 16.6404819678,
			"0.0": 17.9173318524,
			"0.001": 15.9137732463,
			"0.002": 18.7078230714,
			"0.003": 13.6001628626,
			"0.004": 15.2779389905,
			"0.005": 6.87336876799,
			"0.006": 6.409206423,
			"0.007": 5.46154019262,
			"0.008": 8.28596390075,
			"0.009": 7.50641676356,
			"0.01": 7.89231334628,
			"0.011": 8.89159636145,
			"0.012": 9.14657175449,
			"0.013": 4.453448159,
			"0.014": 0.384742782577,
			"0.015": 0.0,
			"0.016": 0.0,
			"0.017": 0.0,
			"0.018": 0.0,
			"0.019": 0.0,
			"0.02": 0.0,
			"0.021": 0.0,
			"0.022": 0.0,
			"0.023": 0.0,
			"0.024": 0.0,
			"0.025": 0.0
		}
	}
}
