{
	 "smiles": "NNC(=O)CC1CCCC1", 
	 "Tm": 356.15, 
	 "num_atms": 24, 
	 "gaussian": { 
		 "optdone": 1, 
		 "sigma_profile": "yes", 
		 "theory": "DFT", 
		 "functional": "B3LYP", 
		 "basiset": "6-31G**", 
		 "properties": { 
			 "R2extent": 2021.8075, 
			 "electric_dipole_moment_norm": 4.09005386517, 
			 "electric_quadrupole_moment_norm": 19.0693761324, 
			 "total_energy": -459.896589933, 
			 "HOMO_LUMO_gap": 0.27009, 
			 "cosmo_polarized_energy": -13.64, 
			 "cosmo_cavitation_energy": 25.68, 
			 "cosmo_dispersion_energy": -18.67, 
			 "cosmo_repulsion_energy": 1.57, 
			 "cosmo_total_nonelectrostatic_energy": 8.59, 
			 "SMD_solvation_energy": 5.01 
		},
		"coords": [
			{
				"x": 2.7656267276,
				"y": -0.0610249913,
				"z": 0.0140675951,
				"element": "N" 
			},
			{
				"x": 2.4619468361,
				"y": 1.1023168567,
				"z": 0.7291264328,
				"element": "N" 
			},
			{
				"x": 1.3430055543,
				"y": 1.8737202932,
				"z": 0.500443854,
				"element": "C" 
			},
			{
				"x": 1.1392349877,
				"y": 2.8579775869,
				"z": 1.2002335538,
				"element": "O" 
			},
			{
				"x": 0.4033359999,
				"y": 1.427481096,
				"z": -0.6064190167,
				"element": "C" 
			},
			{
				"x": -0.6475458614,
				"y": 0.4175603813,
				"z": -0.1104245668,
				"element": "C" 
			},
			{
				"x": -1.5822839681,
				"y": 0.9299586724,
				"z": 1.001041842,
				"element": "C" 
			},
			{
				"x": -2.73571967,
				"y": -0.0944288794,
				"z": 1.0210309723,
				"element": "C" 
			},
			{
				"x": -2.8377361862,
				"y": -0.6413386601,
				"z": -0.4361223783,
				"element": "C" 
			},
			{
				"x": -1.6421985406,
				"y": -0.0220582095,
				"z": -1.2033795993,
				"element": "C" 
			},
			{
				"x": 2.7766887898,
				"y": -0.8671034559,
				"z": 0.6343126512,
				"element": "H" 
			},
			{
				"x": 3.6781713648,
				"y": 0.0244971937,
				"z": -0.4267419856,
				"element": "H" 
			},
			{
				"x": 3.0449909587,
				"y": 1.4155889439,
				"z": 1.4995184979,
				"element": "H" 
			},
			{
				"x": -0.1006851572,
				"y": 2.3323669361,
				"z": -0.960255711,
				"element": "H" 
			},
			{
				"x": 0.9692486111,
				"y": 0.9867622664,
				"z": -1.4313231617,
				"element": "H" 
			},
			{
				"x": -0.1215331149,
				"y": -0.4757103271,
				"z": 0.2572560683,
				"element": "H" 
			},
			{
				"x": -1.0856541794,
				"y": 1.0399682394,
				"z": 1.9692696547,
				"element": "H" 
			},
			{
				"x": -1.9547238844,
				"y": 1.9244333186,
				"z": 0.7229701911,
				"element": "H" 
			},
			{
				"x": -3.6743405973,
				"y": 0.3477599653,
				"z": 1.3688530359,
				"element": "H" 
			},
			{
				"x": -2.4995888666,
				"y": -0.9110360766,
				"z": 1.7128851698,
				"element": "H" 
			},
			{
				"x": -2.7797856723,
				"y": -1.7348839704,
				"z": -0.441232466,
				"element": "H" 
			},
			{
				"x": -3.790392529,
				"y": -0.3788389565,
				"z": -0.9065720509,
				"element": "H" 
			},
			{
				"x": -1.9694377292,
				"y": 0.8653213787,
				"z": -1.7612654395,
				"element": "H" 
			},
			{
				"x": -1.1966238733,
				"y": -0.7098896017,
				"z": -1.9297731431,
				"element": "H" 
			}
		],
		 "valence_orbital": [ 
			{
				"type": "occ",
				"energy": -0.30961,
				"method": "rhf"
			},
			{
				"type": "occ",
				"energy": -0.3072,
				"method": "rhf"
			},
			{
				"type": "occ",
				"energy": -0.28335,
				"method": "rhf"
			},
			{
				"type": "occ",
				"energy": -0.2508,
				"method": "rhf"
			},
			{
				"type": "occ",
				"energy": -0.23502,
				"method": "rhf"
			},
			{
				"type": "unocc",
				"energy": 0.03507,
				"method": "rhf"
			},
			{
				"type": "unocc",
				"energy": 0.06014,
				"method": "rhf"
			},
			{
				"type": "unocc",
				"energy": 0.09376,
				"method": "rhf"
			},
			{
				"type": "unocc",
				"energy": 0.10322,
				"method": "rhf"
			},
			{
				"type": "unocc",
				"energy": 0.10953,
				"method": "rhf"
			}
		],
		"cosmo_sigma_profile": { 
			"-0.025": 0.0,
			"-0.024": 0.0,
			"-0.023": 0.0,
			"-0.022": 0.0,
			"-0.021": 0.0,
			"-0.02": 0.0,
			"-0.019": 0.0,
			"-0.018": 0.0,
			"-0.017": 0.0,
			"-0.016": 0.0,
			"-0.015": 0.0,
			"-0.014": 0.0,
			"-0.013": 0.817016528697,
			"-0.012": 2.907130961,
			"-0.011": 4.89710391715,
			"-0.01": 4.82812387951,
			"-0.009": 4.4680006079,
			"-0.008": 3.99247244393,
			"-0.007": 2.84305369391,
			"-0.006": 1.96383382624,
			"-0.005": 2.00360682906,
			"-0.004": 1.98989699239,
			"-0.003": 7.87060445939,
			"-0.002": 25.28414009,
			"-0.001": 32.7412601831,
			"0.0": 31.8756699125,
			"0.001": 19.2824088469,
			"0.002": 13.8697970695,
			"0.003": 4.53412402663,
			"0.004": 1.99930746077,
			"0.005": 2.71974507598,
			"0.006": 2.61771603881,
			"0.007": 1.94843012177,
			"0.008": 2.61629854097,
			"0.009": 2.2576649148,
			"0.01": 2.14966060351,
			"0.011": 1.98735430866,
			"0.012": 1.79709048529,
			"0.013": 2.67088174942,
			"0.014": 4.98207698534,
			"0.015": 3.37142015493,
			"0.016": 0.431194290102,
			"0.017": 0.0,
			"0.018": 0.0,
			"0.019": 0.0,
			"0.02": 0.0,
			"0.021": 0.0,
			"0.022": 0.0,
			"0.023": 0.0,
			"0.024": 0.0,
			"0.025": 0.0
		}
	}
}
