{
	 "smiles": "O=C1N(C2=CNN=C2)C(=O)C2=C1C=CC=C2", 
	 "Tm": 533.15, 
	 "num_atms": 23, 
	 "gaussian": { 
		 "optdone": 1, 
		 "sigma_profile": "yes", 
		 "theory": "DFT", 
		 "functional": "B3LYP", 
		 "basiset": "6-31G**", 
		 "properties": { 
			 "R2extent": 4560.2911, 
			 "electric_dipole_moment_norm": 3.82973618021, 
			 "electric_quadrupole_moment_norm": 21.6676633932, 
			 "total_energy": -738.092532319, 
			 "HOMO_LUMO_gap": 0.13723, 
			 "cosmo_polarized_energy": -14.68, 
			 "cosmo_cavitation_energy": 28.34, 
			 "cosmo_dispersion_energy": -21.15, 
			 "cosmo_repulsion_energy": 1.59, 
			 "cosmo_total_nonelectrostatic_energy": 8.78, 
			 "SMD_solvation_energy": 5.48 
		},
		"coords": [
			{
				"x": 0.4298352583,
				"y": -2.2555266612,
				"z": 1.8348016218,
				"element": "O" 
			},
			{
				"x": -0.0604158036,
				"y": -1.3831803534,
				"z": 1.1480397084,
				"element": "C" 
			},
			{
				"x": -1.4457456188,
				"y": -1.1540404687,
				"z": 0.9629358634,
				"element": "N" 
			},
			{
				"x": -2.4687547788,
				"y": -1.9180727705,
				"z": 1.5589227471,
				"element": "C" 
			},
			{
				"x": -3.8360739592,
				"y": -1.7346606775,
				"z": 1.4103680057,
				"element": "C" 
			},
			{
				"x": -4.4090377538,
				"y": -2.7035941171,
				"z": 2.1685693627,
				"element": "N" 
			},
			{
				"x": -3.5223419637,
				"y": -3.5003707259,
				"z": 2.7966303441,
				"element": "N" 
			},
			{
				"x": -2.332167745,
				"y": -3.0303244671,
				"z": 2.4318922726,
				"element": "C" 
			},
			{
				"x": -1.675294308,
				"y": -0.0574479527,
				"z": 0.1010266297,
				"element": "C" 
			},
			{
				"x": -2.7662139891,
				"y": 0.3623587751,
				"z": -0.2326970131,
				"element": "O" 
			},
			{
				"x": -0.3294342884,
				"y": 0.4457610587,
				"z": -0.2893552161,
				"element": "C" 
			},
			{
				"x": 0.6342789332,
				"y": -0.345306462,
				"z": 0.3353959499,
				"element": "C" 
			},
			{
				"x": 1.9902739165,
				"y": -0.1142780835,
				"z": 0.1587881231,
				"element": "C" 
			},
			{
				"x": 2.3578534325,
				"y": 0.9502978577,
				"z": -0.6760427187,
				"element": "C" 
			},
			{
				"x": 1.389999751,
				"y": 1.744818239,
				"z": -1.3035521635,
				"element": "C" 
			},
			{
				"x": 0.0220225632,
				"y": 1.5015365564,
				"z": -1.1173467455,
				"element": "C" 
			},
			{
				"x": -4.3963194609,
				"y": -1.0125196783,
				"z": 0.8418644947,
				"element": "H" 
			},
			{
				"x": -5.3943185222,
				"y": -2.8715418017,
				"z": 2.2969465588,
				"element": "H" 
			},
			{
				"x": -1.4226470755,
				"y": -3.4835753574,
				"z": 2.7904845548,
				"element": "H" 
			},
			{
				"x": 2.7303702223,
				"y": -0.7370176582,
				"z": 0.6505917591,
				"element": "H" 
			},
			{
				"x": 3.4097308531,
				"y": 1.1640150862,
				"z": -0.8401376831,
				"element": "H" 
			},
			{
				"x": 1.7064926099,
				"y": 2.5622102514,
				"z": -1.9444592357,
				"element": "H" 
			},
			{
				"x": -0.7370922731,
				"y": 2.1099594106,
				"z": -1.5979672203,
				"element": "H" 
			}
		],
		 "valence_orbital": [ 
			{
				"type": "occ",
				"energy": -0.28441,
				"method": "rhf"
			},
			{
				"type": "occ",
				"energy": -0.28156,
				"method": "rhf"
			},
			{
				"type": "occ",
				"energy": -0.27357,
				"method": "rhf"
			},
			{
				"type": "occ",
				"energy": -0.25587,
				"method": "rhf"
			},
			{
				"type": "occ",
				"energy": -0.22415,
				"method": "rhf"
			},
			{
				"type": "unocc",
				"energy": -0.08692,
				"method": "rhf"
			},
			{
				"type": "unocc",
				"energy": -0.04692,
				"method": "rhf"
			},
			{
				"type": "unocc",
				"energy": 0.01866,
				"method": "rhf"
			},
			{
				"type": "unocc",
				"energy": 0.02462,
				"method": "rhf"
			},
			{
				"type": "unocc",
				"energy": 0.0482,
				"method": "rhf"
			}
		],
		"cosmo_sigma_profile": { 
			"-0.025": 0.0,
			"-0.024": 0.0,
			"-0.023": 0.0,
			"-0.022": 0.0,
			"-0.021": 0.0,
			"-0.02": 0.0,
			"-0.019": 0.0,
			"-0.018": 0.0463897008962,
			"-0.017": 1.26807273465,
			"-0.016": 1.29048543064,
			"-0.015": 1.55661985731,
			"-0.014": 1.08221632804,
			"-0.013": 0.876831816297,
			"-0.012": 0.980798406504,
			"-0.011": 0.710258762001,
			"-0.01": 1.3670966719,
			"-0.009": 1.7823383227,
			"-0.008": 3.9104211605,
			"-0.007": 10.1889728353,
			"-0.006": 13.6159665691,
			"-0.005": 14.4670953698,
			"-0.004": 11.0431866183,
			"-0.003": 11.4521243543,
			"-0.002": 12.6537651328,
			"-0.001": 16.6072276873,
			"0.0": 16.9576606621,
			"0.001": 21.517651411,
			"0.002": 20.9331402152,
			"0.003": 13.048061787,
			"0.004": 8.4892647136,
			"0.005": 5.55430988164,
			"0.006": 5.00398809275,
			"0.007": 4.86014061739,
			"0.008": 5.79400787758,
			"0.009": 5.30748293817,
			"0.01": 6.07803221129,
			"0.011": 5.13781369711,
			"0.012": 2.14965898467,
			"0.013": 1.36649314598,
			"0.014": 1.13962960623,
			"0.015": 0.823986129548,
			"0.016": 0.487288401471,
			"0.017": 0.0,
			"0.018": 0.0,
			"0.019": 0.0,
			"0.02": 0.0,
			"0.021": 0.0,
			"0.022": 0.0,
			"0.023": 0.0,
			"0.024": 0.0,
			"0.025": 0.0
		}
	}
}
