{
	 "smiles": "COC(=O)C1=CC(CCl)=C(C)S1", 
	 "Tm": 328.15, 
	 "num_atms": 21, 
	 "gaussian": { 
		 "optdone": 1, 
		 "sigma_profile": "yes", 
		 "theory": "DFT", 
		 "functional": "B3LYP", 
		 "basiset": "6-31G**", 
		 "properties": { 
			 "R2extent": 3706.6891, 
			 "electric_dipole_moment_norm": 2.22509652375, 
			 "electric_quadrupole_moment_norm": 16.6399348851, 
			 "total_energy": -1319.11096747, 
			 "HOMO_LUMO_gap": 0.18587, 
			 "cosmo_polarized_energy": -10.87, 
			 "cosmo_cavitation_energy": 28.93, 
			 "cosmo_dispersion_energy": -21.19, 
			 "cosmo_repulsion_energy": 1.67, 
			 "cosmo_total_nonelectrostatic_energy": 9.42, 
			 "SMD_solvation_energy": 5.96 
		},
		"coords": [
			{
				"x": 2.9821742186,
				"y": 3.0051137949,
				"z": -1.4539372026,
				"element": "C" 
			},
			{
				"x": 2.0307495896,
				"y": 1.9983090926,
				"z": -1.0735799274,
				"element": "O" 
			},
			{
				"x": 2.3551512622,
				"y": 1.2959175635,
				"z": 0.0365844944,
				"element": "C" 
			},
			{
				"x": 3.3667066844,
				"y": 1.4843278366,
				"z": 0.686638613,
				"element": "O" 
			},
			{
				"x": 1.339605252,
				"y": 0.2851626231,
				"z": 0.3550151712,
				"element": "C" 
			},
			{
				"x": 0.1681997814,
				"y": -0.0196047298,
				"z": -0.2934714676,
				"element": "C" 
			},
			{
				"x": -0.5647254655,
				"y": -1.0675253449,
				"z": 0.3333315387,
				"element": "C" 
			},
			{
				"x": -1.8697611788,
				"y": -1.5804121097,
				"z": -0.1731365795,
				"element": "C" 
			},
			{
				"x": -1.6832603164,
				"y": -3.0454749386,
				"z": -1.2781109718,
				"element": "Cl" 
			},
			{
				"x": 0.0725035162,
				"y": -1.5584998182,
				"z": 1.4609708727,
				"element": "C" 
			},
			{
				"x": -0.375939581,
				"y": -2.6779060509,
				"z": 2.3546193706,
				"element": "C" 
			},
			{
				"x": 1.5640175098,
				"y": -0.7283063843,
				"z": 1.7544797971,
				"element": "S" 
			},
			{
				"x": 3.9563998918,
				"y": 2.5556567947,
				"z": -1.6619509106,
				"element": "H" 
			},
			{
				"x": 2.5746352363,
				"y": 3.4684793458,
				"z": -2.3523005217,
				"element": "H" 
			},
			{
				"x": 3.0987436042,
				"y": 3.7456198303,
				"z": -0.6586235667,
				"element": "H" 
			},
			{
				"x": -0.1540635409,
				"y": 0.4960013923,
				"z": -1.1904958837,
				"element": "H" 
			},
			{
				"x": -2.5258938052,
				"y": -1.916901425,
				"z": 0.6294078307,
				"element": "H" 
			},
			{
				"x": -2.3913078853,
				"y": -0.8356419062,
				"z": -0.7736751774,
				"element": "H" 
			},
			{
				"x": -0.3998427765,
				"y": -3.6259861213,
				"z": 1.8059651893,
				"element": "H" 
			},
			{
				"x": 0.2881614132,
				"y": -2.8003207356,
				"z": 3.2133867054,
				"element": "H" 
			},
			{
				"x": -1.3857534103,
				"y": -2.494608709,
				"z": 2.7394826258,
				"element": "H" 
			}
		],
		 "valence_orbital": [ 
			{
				"type": "occ",
				"energy": -0.30024,
				"method": "rhf"
			},
			{
				"type": "occ",
				"energy": -0.29702,
				"method": "rhf"
			},
			{
				"type": "occ",
				"energy": -0.27833,
				"method": "rhf"
			},
			{
				"type": "occ",
				"energy": -0.26327,
				"method": "rhf"
			},
			{
				"type": "occ",
				"energy": -0.24192,
				"method": "rhf"
			},
			{
				"type": "unocc",
				"energy": -0.05605,
				"method": "rhf"
			},
			{
				"type": "unocc",
				"energy": -0.01468,
				"method": "rhf"
			},
			{
				"type": "unocc",
				"energy": 0.01652,
				"method": "rhf"
			},
			{
				"type": "unocc",
				"energy": 0.05582,
				"method": "rhf"
			},
			{
				"type": "unocc",
				"energy": 0.08524,
				"method": "rhf"
			}
		],
		"cosmo_sigma_profile": { 
			"-0.025": 0.0,
			"-0.024": 0.0,
			"-0.023": 0.0,
			"-0.022": 0.0,
			"-0.021": 0.0,
			"-0.02": 0.0,
			"-0.019": 0.0,
			"-0.018": 0.0,
			"-0.017": 0.0,
			"-0.016": 0.0,
			"-0.015": 0.0,
			"-0.014": 0.0,
			"-0.013": 0.0,
			"-0.012": 0.0,
			"-0.011": 0.0,
			"-0.01": 0.0,
			"-0.009": 0.0557514817749,
			"-0.008": 6.0255821285,
			"-0.007": 8.80808426733,
			"-0.006": 12.9090580864,
			"-0.005": 16.9490357762,
			"-0.004": 17.9551597032,
			"-0.003": 19.7086696285,
			"-0.002": 18.3626178948,
			"-0.001": 14.5466055501,
			"0.0": 13.2533756354,
			"0.001": 18.0897629921,
			"0.002": 21.3291982727,
			"0.003": 14.6421273118,
			"0.004": 9.91345110547,
			"0.005": 8.79706282441,
			"0.006": 12.329963883,
			"0.007": 7.65944962874,
			"0.008": 1.36142600557,
			"0.009": 2.06670028676,
			"0.01": 2.05521846052,
			"0.011": 2.84560002787,
			"0.012": 4.50658013808,
			"0.013": 0.15504098884,
			"0.014": 0.0,
			"0.015": 0.0,
			"0.016": 0.0,
			"0.017": 0.0,
			"0.018": 0.0,
			"0.019": 0.0,
			"0.02": 0.0,
			"0.021": 0.0,
			"0.022": 0.0,
			"0.023": 0.0,
			"0.024": 0.0,
			"0.025": 0.0
		}
	}
}
