{
	 "smiles": "CC(C)N1CCC(CC1)N(C(=O)CC1=CC=CC=C1)C1=CC=C(Cl)C=C1", 
	 "Tm": 536.15, 
	 "num_atms": 53, 
	 "gaussian": { 
		 "optdone": 1, 
		 "sigma_profile": "yes", 
		 "theory": "DFT", 
		 "functional": "B3LYP", 
		 "basiset": "6-31G**", 
		 "properties": { 
			 "R2extent": 10945.3967, 
			 "electric_dipole_moment_norm": 2.11816360558, 
			 "electric_quadrupole_moment_norm": 13.2842668879, 
			 "total_energy": -1499.54068622, 
			 "HOMO_LUMO_gap": 0.18181, 
			 "cosmo_polarized_energy": -11.33, 
			 "cosmo_cavitation_energy": 53.48, 
			 "cosmo_dispersion_energy": -33.8, 
			 "cosmo_repulsion_energy": 2.58, 
			 "cosmo_total_nonelectrostatic_energy": 22.26, 
			 "SMD_solvation_energy": 8.24 
		},
		"coords": [
			{
				"x": -1.2450981075,
				"y": 2.7865554986,
				"z": 1.1437532714,
				"element": "C" 
			},
			{
				"x": -2.1884691603,
				"y": 1.8461067589,
				"z": 1.9107885339,
				"element": "C" 
			},
			{
				"x": -1.9480464268,
				"y": 2.0248362954,
				"z": 3.4180324409,
				"element": "C" 
			},
			{
				"x": -1.9977676675,
				"y": 0.4459813833,
				"z": 1.4820638673,
				"element": "N" 
			},
			{
				"x": -2.1564323912,
				"y": 0.2841383529,
				"z": 0.0220188315,
				"element": "C" 
			},
			{
				"x": -2.494322291,
				"y": -1.1583309443,
				"z": -0.3835832146,
				"element": "C" 
			},
			{
				"x": -1.840027263,
				"y": -2.2135989021,
				"z": 0.5191539068,
				"element": "C" 
			},
			{
				"x": -2.2985046292,
				"y": -1.9620637586,
				"z": 1.9743722349,
				"element": "C" 
			},
			{
				"x": -2.822073782,
				"y": -0.5287099968,
				"z": 2.2011282302,
				"element": "C" 
			},
			{
				"x": -0.34852301,
				"y": -2.260650795,
				"z": 0.3329081918,
				"element": "N" 
			},
			{
				"x": 0.0822886257,
				"y": -2.786672024,
				"z": -0.8714412614,
				"element": "C" 
			},
			{
				"x": -0.7146114147,
				"y": -3.1829332535,
				"z": -1.7197745992,
				"element": "O" 
			},
			{
				"x": 1.5830016738,
				"y": -2.7882741159,
				"z": -1.1804854538,
				"element": "C" 
			},
			{
				"x": 1.9924279774,
				"y": -1.5256948604,
				"z": -1.9265313505,
				"element": "C" 
			},
			{
				"x": 3.0018478646,
				"y": -0.694461418,
				"z": -1.4264483149,
				"element": "C" 
			},
			{
				"x": 3.3886328968,
				"y": 0.4548462195,
				"z": -2.1200420841,
				"element": "C" 
			},
			{
				"x": 2.7659522754,
				"y": 0.7894969314,
				"z": -3.3226627652,
				"element": "C" 
			},
			{
				"x": 1.754932673,
				"y": -0.0326265702,
				"z": -3.8272972114,
				"element": "C" 
			},
			{
				"x": 1.3707748775,
				"y": -1.1811841032,
				"z": -3.1360377347,
				"element": "C" 
			},
			{
				"x": 0.5682845776,
				"y": -2.0504502932,
				"z": 1.4176456023,
				"element": "C" 
			},
			{
				"x": 1.0118849471,
				"y": -3.1405901687,
				"z": 2.1791548957,
				"element": "C" 
			},
			{
				"x": 1.9181897928,
				"y": -2.9624380192,
				"z": 3.2238520112,
				"element": "C" 
			},
			{
				"x": 2.3770421729,
				"y": -1.6761804016,
				"z": 3.5077572472,
				"element": "C" 
			},
			{
				"x": 3.5196130065,
				"y": -1.437820746,
				"z": 4.8216192471,
				"element": "Cl" 
			},
			{
				"x": 1.9436983791,
				"y": -0.5770578383,
				"z": 2.7668190215,
				"element": "C" 
			},
			{
				"x": 1.0377568425,
				"y": -0.7690822094,
				"z": 1.7232258871,
				"element": "C" 
			},
			{
				"x": -0.1992693177,
				"y": 2.5133988329,
				"z": 1.3246161124,
				"element": "H" 
			},
			{
				"x": -1.4191350664,
				"y": 2.7754181915,
				"z": 0.0657570611,
				"element": "H" 
			},
			{
				"x": -1.3899510843,
				"y": 3.8151465618,
				"z": 1.4875022051,
				"element": "H" 
			},
			{
				"x": -3.2285298971,
				"y": 2.1652181865,
				"z": 1.6878482632,
				"element": "H" 
			},
			{
				"x": -2.7198936544,
				"y": 1.5586375394,
				"z": 4.0352192148,
				"element": "H" 
			},
			{
				"x": -1.9416448658,
				"y": 3.0903993529,
				"z": 3.6665523764,
				"element": "H" 
			},
			{
				"x": -0.9783914218,
				"y": 1.6009004283,
				"z": 3.7005766841,
				"element": "H" 
			},
			{
				"x": -1.2269329663,
				"y": 0.5889916727,
				"z": -0.4704282223,
				"element": "H" 
			},
			{
				"x": -2.9530888997,
				"y": 0.9460551652,
				"z": -0.3669314657,
				"element": "H" 
			},
			{
				"x": -3.5770121383,
				"y": -1.3212721704,
				"z": -0.3157470384,
				"element": "H" 
			},
			{
				"x": -2.2198905687,
				"y": -1.3297575785,
				"z": -1.4251824364,
				"element": "H" 
			},
			{
				"x": -2.1922883137,
				"y": -3.1937977597,
				"z": 0.185622171,
				"element": "H" 
			},
			{
				"x": -3.1039452448,
				"y": -2.6662752177,
				"z": 2.2110471523,
				"element": "H" 
			},
			{
				"x": -1.4916288594,
				"y": -2.1698150231,
				"z": 2.6793016586,
				"element": "H" 
			},
			{
				"x": -3.8892857475,
				"y": -0.4581715883,
				"z": 1.9119086912,
				"element": "H" 
			},
			{
				"x": -2.7824508119,
				"y": -0.3186241544,
				"z": 3.2700437128,
				"element": "H" 
			},
			{
				"x": 1.7436230922,
				"y": -3.6634746884,
				"z": -1.8174832048,
				"element": "H" 
			},
			{
				"x": 2.196416282,
				"y": -2.9032689721,
				"z": -0.2864061684,
				"element": "H" 
			},
			{
				"x": 3.4902207027,
				"y": -0.9492266377,
				"z": -0.4894079867,
				"element": "H" 
			},
			{
				"x": 4.1767674446,
				"y": 1.0863469269,
				"z": -1.7191366676,
				"element": "H" 
			},
			{
				"x": 3.066324498,
				"y": 1.682076605,
				"z": -3.8641448308,
				"element": "H" 
			},
			{
				"x": 1.2657115962,
				"y": 0.2199045178,
				"z": -4.7640976638,
				"element": "H" 
			},
			{
				"x": 0.580808921,
				"y": -1.8185869171,
				"z": -3.5219871556,
				"element": "H" 
			},
			{
				"x": 0.6447053075,
				"y": -4.1355843048,
				"z": 1.9454219972,
				"element": "H" 
			},
			{
				"x": 2.2634602168,
				"y": -3.8070645665,
				"z": 3.8095468932,
				"element": "H" 
			},
			{
				"x": 2.3119345537,
				"y": 0.4154086481,
				"z": 3.0021518808,
				"element": "H" 
			},
			{
				"x": 0.6817138037,
				"y": 0.074475928,
				"z": 1.1471473355,
				"element": "H" 
			}
		],
		 "valence_orbital": [ 
			{
				"type": "occ",
				"energy": -0.25068,
				"method": "rhf"
			},
			{
				"type": "occ",
				"energy": -0.24506,
				"method": "rhf"
			},
			{
				"type": "occ",
				"energy": -0.24257,
				"method": "rhf"
			},
			{
				"type": "occ",
				"energy": -0.23142,
				"method": "rhf"
			},
			{
				"type": "occ",
				"energy": -0.20818,
				"method": "rhf"
			},
			{
				"type": "unocc",
				"energy": -0.02637,
				"method": "rhf"
			},
			{
				"type": "unocc",
				"energy": -0.02277,
				"method": "rhf"
			},
			{
				"type": "unocc",
				"energy": -0.00256,
				"method": "rhf"
			},
			{
				"type": "unocc",
				"energy": 0.00216,
				"method": "rhf"
			},
			{
				"type": "unocc",
				"energy": 0.02289,
				"method": "rhf"
			}
		],
		"cosmo_sigma_profile": { 
			"-0.025": 0.0,
			"-0.024": 0.0,
			"-0.023": 0.0,
			"-0.022": 0.0,
			"-0.021": 0.0,
			"-0.02": 0.0,
			"-0.019": 0.0,
			"-0.018": 0.0,
			"-0.017": 0.0,
			"-0.016": 0.0,
			"-0.015": 0.0,
			"-0.014": 0.0,
			"-0.013": 0.0,
			"-0.012": 0.0,
			"-0.011": 0.0,
			"-0.01": 0.0,
			"-0.009": 0.0,
			"-0.008": 0.713724072608,
			"-0.007": 5.15368421226,
			"-0.006": 8.04267281728,
			"-0.005": 17.5840437248,
			"-0.004": 24.978866559,
			"-0.003": 44.8521544518,
			"-0.002": 51.5071496929,
			"-0.001": 59.5022063176,
			"0.0": 52.5007692464,
			"0.001": 41.1572570302,
			"0.002": 31.9662429926,
			"0.003": 19.336113145,
			"0.004": 21.7714342354,
			"0.005": 17.0295855335,
			"0.006": 9.44134226633,
			"0.007": 3.00959908323,
			"0.008": 2.2149076569,
			"0.009": 1.14842957507,
			"0.01": 1.21885422465,
			"0.011": 1.64185696067,
			"0.012": 1.55826540417,
			"0.013": 2.58293648152,
			"0.014": 3.05618939281,
			"0.015": 0.221694240316,
			"0.016": 0.0,
			"0.017": 0.0,
			"0.018": 0.0,
			"0.019": 0.0,
			"0.02": 0.0,
			"0.021": 0.0,
			"0.022": 0.0,
			"0.023": 0.0,
			"0.024": 0.0,
			"0.025": 0.0
		}
	}
}
