{
	 "smiles": "CCCCCC(=O)OCCC", 
	 "Tm": 204.35, 
	 "num_atms": 29, 
	 "gaussian": { 
		 "optdone": 1, 
		 "sigma_profile": "yes", 
		 "theory": "DFT", 
		 "functional": "B3LYP", 
		 "basiset": "6-31G**", 
		 "properties": { 
			 "R2extent": 3522.0581, 
			 "electric_dipole_moment_norm": 1.95909714154, 
			 "electric_quadrupole_moment_norm": 12.3404431371, 
			 "total_energy": -504.290027385, 
			 "HOMO_LUMO_gap": 0.27589, 
			 "cosmo_polarized_energy": -6.38, 
			 "cosmo_cavitation_energy": 31.2, 
			 "cosmo_dispersion_energy": -21.41, 
			 "cosmo_repulsion_energy": 1.81, 
			 "cosmo_total_nonelectrostatic_energy": 11.6, 
			 "SMD_solvation_energy": 5.84 
		},
		"coords": [
			{
				"x": 1.3484736033,
				"y": 2.169721022,
				"z": 3.3149811447,
				"element": "C" 
			},
			{
				"x": 1.6086240572,
				"y": 0.8949058588,
				"z": 2.5031487125,
				"element": "C" 
			},
			{
				"x": 2.1243059949,
				"y": 1.1397991856,
				"z": 1.0754606654,
				"element": "C" 
			},
			{
				"x": 1.1167337435,
				"y": 1.8414730557,
				"z": 0.1537066193,
				"element": "C" 
			},
			{
				"x": 1.6247569981,
				"y": 2.0228168602,
				"z": -1.2935572619,
				"element": "C" 
			},
			{
				"x": 1.8463484299,
				"y": 0.7004864529,
				"z": -1.9995308108,
				"element": "C" 
			},
			{
				"x": 2.9234129692,
				"y": 0.1807139596,
				"z": -2.2031268893,
				"element": "O" 
			},
			{
				"x": 0.6689216265,
				"y": 0.1381803692,
				"z": -2.3618256232,
				"element": "O" 
			},
			{
				"x": 0.7562416749,
				"y": -1.1512614422,
				"z": -3.0105247804,
				"element": "C" 
			},
			{
				"x": -0.6564638842,
				"y": -1.6081236138,
				"z": -3.3422127803,
				"element": "C" 
			},
			{
				"x": -1.5361508056,
				"y": -1.8371293326,
				"z": -2.1091686217,
				"element": "C" 
			},
			{
				"x": 0.5583964973,
				"y": 2.785019409,
				"z": 2.8720454137,
				"element": "H" 
			},
			{
				"x": 2.2521542696,
				"y": 2.7871822257,
				"z": 3.3791694686,
				"element": "H" 
			},
			{
				"x": 1.0388543794,
				"y": 1.9286893681,
				"z": 4.3372357263,
				"element": "H" 
			},
			{
				"x": 2.3428868923,
				"y": 0.2780099607,
				"z": 3.0363483421,
				"element": "H" 
			},
			{
				"x": 0.6881528096,
				"y": 0.2965261941,
				"z": 2.4569287773,
				"element": "H" 
			},
			{
				"x": 3.0473527072,
				"y": 1.7351880039,
				"z": 1.1190125138,
				"element": "H" 
			},
			{
				"x": 2.4109101063,
				"y": 0.1782979022,
				"z": 0.6317151874,
				"element": "H" 
			},
			{
				"x": 0.8732975188,
				"y": 2.834127315,
				"z": 0.5492387482,
				"element": "H" 
			},
			{
				"x": 0.1766433368,
				"y": 1.2758425854,
				"z": 0.1312879429,
				"element": "H" 
			},
			{
				"x": 0.8949954547,
				"y": 2.6061192522,
				"z": -1.8648015139,
				"element": "H" 
			},
			{
				"x": 2.5789418254,
				"y": 2.5567103748,
				"z": -1.2986716645,
				"element": "H" 
			},
			{
				"x": 1.3737952294,
				"y": -1.0524481172,
				"z": -3.9089023258,
				"element": "H" 
			},
			{
				"x": 1.2635866922,
				"y": -1.8517850395,
				"z": -2.3376095587,
				"element": "H" 
			},
			{
				"x": -1.1207954626,
				"y": -0.8673021496,
				"z": -4.0044019903,
				"element": "H" 
			},
			{
				"x": -0.5727283909,
				"y": -2.5360697621,
				"z": -3.9221643497,
				"element": "H" 
			},
			{
				"x": -2.5386227349,
				"y": -2.1683920491,
				"z": -2.3971577535,
				"element": "H" 
			},
			{
				"x": -1.6379127854,
				"y": -0.9173627044,
				"z": -1.5264307407,
				"element": "H" 
			},
			{
				"x": -1.1061127531,
				"y": -2.6036351447,
				"z": -1.4542925976,
				"element": "H" 
			}
		],
		 "valence_orbital": [ 
			{
				"type": "occ",
				"energy": -0.32524,
				"method": "rhf"
			},
			{
				"type": "occ",
				"energy": -0.32276,
				"method": "rhf"
			},
			{
				"type": "occ",
				"energy": -0.31578,
				"method": "rhf"
			},
			{
				"type": "occ",
				"energy": -0.29354,
				"method": "rhf"
			},
			{
				"type": "occ",
				"energy": -0.26105,
				"method": "rhf"
			},
			{
				"type": "unocc",
				"energy": 0.01484,
				"method": "rhf"
			},
			{
				"type": "unocc",
				"energy": 0.0846,
				"method": "rhf"
			},
			{
				"type": "unocc",
				"energy": 0.09956,
				"method": "rhf"
			},
			{
				"type": "unocc",
				"energy": 0.11185,
				"method": "rhf"
			},
			{
				"type": "unocc",
				"energy": 0.12007,
				"method": "rhf"
			}
		],
		"cosmo_sigma_profile": { 
			"-0.025": 0.0,
			"-0.024": 0.0,
			"-0.023": 0.0,
			"-0.022": 0.0,
			"-0.021": 0.0,
			"-0.02": 0.0,
			"-0.019": 0.0,
			"-0.018": 0.0,
			"-0.017": 0.0,
			"-0.016": 0.0,
			"-0.015": 0.0,
			"-0.014": 0.0,
			"-0.013": 0.0,
			"-0.012": 0.0,
			"-0.011": 0.0,
			"-0.01": 0.0,
			"-0.009": 0.0,
			"-0.008": 0.0,
			"-0.007": 0.0,
			"-0.006": 0.192221394986,
			"-0.005": 5.03094743435,
			"-0.004": 14.1664295914,
			"-0.003": 28.7708841941,
			"-0.002": 42.5712663414,
			"-0.001": 39.3459419502,
			"0.0": 36.2967975298,
			"0.001": 29.8479260203,
			"0.002": 12.5400699848,
			"0.003": 6.01755314757,
			"0.004": 3.52178719647,
			"0.005": 2.68109744096,
			"0.006": 3.2421992373,
			"0.007": 2.06652343169,
			"0.008": 2.02943409244,
			"0.009": 1.37443058739,
			"0.01": 1.66805806301,
			"0.011": 2.35432965433,
			"0.012": 4.33656572822,
			"0.013": 2.65992056777,
			"0.014": 0.275874365394,
			"0.015": 0.0,
			"0.016": 0.0,
			"0.017": 0.0,
			"0.018": 0.0,
			"0.019": 0.0,
			"0.02": 0.0,
			"0.021": 0.0,
			"0.022": 0.0,
			"0.023": 0.0,
			"0.024": 0.0,
			"0.025": 0.0
		}
	}
}
