{
	 "smiles": "CC1=CC2=C(OC(=O)N2)C=C1", 
	 "Tm": 404.15, 
	 "num_atms": 18, 
	 "gaussian": { 
		 "optdone": 1, 
		 "sigma_profile": "yes", 
		 "theory": "DFT", 
		 "functional": "B3LYP", 
		 "basiset": "6-31G**", 
		 "properties": { 
			 "R2extent": 3673.5919, 
			 "electric_dipole_moment_norm": 4.61980386056, 
			 "electric_quadrupole_moment_norm": 21.0680713301, 
			 "total_energy": -514.29392907, 
			 "HOMO_LUMO_gap": 0.20588, 
			 "cosmo_polarized_energy": -12.09, 
			 "cosmo_cavitation_energy": 22.33, 
			 "cosmo_dispersion_energy": -17.0, 
			 "cosmo_repulsion_energy": 1.36, 
			 "cosmo_total_nonelectrostatic_energy": 6.69, 
			 "SMD_solvation_energy": 5.13 
		},
		"coords": [
			{
				"x": -0.4782912919,
				"y": -0.8354649417,
				"z": -2.4774599928,
				"element": "C" 
			},
			{
				"x": -1.4747519218,
				"y": -0.6205185884,
				"z": -1.3609315065,
				"element": "C" 
			},
			{
				"x": -1.0631671091,
				"y": -0.7722132873,
				"z": -0.0220394233,
				"element": "C" 
			},
			{
				"x": -2.0045004586,
				"y": -0.5674458312,
				"z": 0.9745209269,
				"element": "C" 
			},
			{
				"x": -3.3248860713,
				"y": -0.2204714249,
				"z": 0.6663601674,
				"element": "C" 
			},
			{
				"x": -4.0511527935,
				"y": -0.0762690182,
				"z": 1.8299975447,
				"element": "O" 
			},
			{
				"x": -3.2039459019,
				"y": -0.3295779763,
				"z": 2.9048532936,
				"element": "C" 
			},
			{
				"x": -3.5409316063,
				"y": -0.28412942,
				"z": 4.0589944598,
				"element": "O" 
			},
			{
				"x": -1.9630880046,
				"y": -0.6266711025,
				"z": 2.3650770033,
				"element": "N" 
			},
			{
				"x": -3.7561908586,
				"y": -0.0650466416,
				"z": -0.6343632052,
				"element": "C" 
			},
			{
				"x": -2.8029948931,
				"y": -0.2723520774,
				"z": -1.6440913873,
				"element": "C" 
			},
			{
				"x": -0.9393295567,
				"y": -0.6811293849,
				"z": -3.4564203159,
				"element": "H" 
			},
			{
				"x": 0.3695308297,
				"y": -0.1454448718,
				"z": -2.3959742447,
				"element": "H" 
			},
			{
				"x": -0.068939036,
				"y": -1.8521751373,
				"z": -2.4586596838,
				"element": "H" 
			},
			{
				"x": -0.038208262,
				"y": -1.0414814488,
				"z": 0.2159033605,
				"element": "H" 
			},
			{
				"x": -1.1744362039,
				"y": -0.8477863695,
				"z": 2.9511101779,
				"element": "H" 
			},
			{
				"x": -4.7816574557,
				"y": 0.2040479035,
				"z": -0.8606525728,
				"element": "H" 
			},
			{
				"x": -3.1065594047,
				"y": -0.1586703817,
				"z": -2.6805246018,
				"element": "H" 
			}
		],
		 "valence_orbital": [ 
			{
				"type": "occ",
				"energy": -0.35742,
				"method": "rhf"
			},
			{
				"type": "occ",
				"energy": -0.31374,
				"method": "rhf"
			},
			{
				"type": "occ",
				"energy": -0.28901,
				"method": "rhf"
			},
			{
				"type": "occ",
				"energy": -0.25115,
				"method": "rhf"
			},
			{
				"type": "occ",
				"energy": -0.22248,
				"method": "rhf"
			},
			{
				"type": "unocc",
				"energy": -0.0166,
				"method": "rhf"
			},
			{
				"type": "unocc",
				"energy": 0.004,
				"method": "rhf"
			},
			{
				"type": "unocc",
				"energy": 0.04954,
				"method": "rhf"
			},
			{
				"type": "unocc",
				"energy": 0.0726,
				"method": "rhf"
			},
			{
				"type": "unocc",
				"energy": 0.08875,
				"method": "rhf"
			}
		],
		"cosmo_sigma_profile": { 
			"-0.025": 0.0,
			"-0.024": 0.0,
			"-0.023": 0.0,
			"-0.022": 0.0,
			"-0.021": 0.0,
			"-0.02": 0.0,
			"-0.019": 0.0,
			"-0.018": 0.0117767805313,
			"-0.017": 1.15556932949,
			"-0.016": 1.68944810469,
			"-0.015": 0.771114898281,
			"-0.014": 1.29391232478,
			"-0.013": 1.23947222259,
			"-0.012": 0.724554335729,
			"-0.011": 1.34287536414,
			"-0.01": 0.751698505034,
			"-0.009": 1.0836114081,
			"-0.008": 1.89161716792,
			"-0.007": 4.36536025953,
			"-0.006": 4.72712005541,
			"-0.005": 8.37722836582,
			"-0.004": 14.4091573852,
			"-0.003": 13.9624509977,
			"-0.002": 15.3211432718,
			"-0.001": 14.337043455,
			"0.0": 15.1203193224,
			"0.001": 12.5891545038,
			"0.002": 10.5439777726,
			"0.003": 9.52954087346,
			"0.004": 10.0360805261,
			"0.005": 7.63158368383,
			"0.006": 2.85981706239,
			"0.007": 2.49091017322,
			"0.008": 3.90810982837,
			"0.009": 2.12001641714,
			"0.01": 2.18062064505,
			"0.011": 4.0110890488,
			"0.012": 6.78182462228,
			"0.013": 1.42340128392,
			"0.014": 0.0,
			"0.015": 0.0,
			"0.016": 0.0,
			"0.017": 0.0,
			"0.018": 0.0,
			"0.019": 0.0,
			"0.02": 0.0,
			"0.021": 0.0,
			"0.022": 0.0,
			"0.023": 0.0,
			"0.024": 0.0,
			"0.025": 0.0
		}
	}
}
