{
	 "smiles": "COC(=O)C1=CSC(C)=C1S(=O)(=O)NC(=O)N1N=C(OC)N(C)C1=O", 
	 "Tm": 478.15, 
	 "num_atms": 39, 
	 "gaussian": { 
		 "optdone": 1, 
		 "sigma_profile": "yes", 
		 "theory": "DFT", 
		 "functional": "B3LYP", 
		 "basiset": "6-31G**", 
		 "properties": { 
			 "R2extent": 10197.2515, 
			 "electric_dipole_moment_norm": 7.49689198001, 
			 "electric_quadrupole_moment_norm": 35.2568978966, 
			 "total_energy": -2007.5866838, 
			 "HOMO_LUMO_gap": 0.19912, 
			 "cosmo_polarized_energy": -27.53, 
			 "cosmo_cavitation_energy": 47.42, 
			 "cosmo_dispersion_energy": -32.52, 
			 "cosmo_repulsion_energy": 2.37, 
			 "cosmo_total_nonelectrostatic_energy": 17.27, 
			 "SMD_solvation_energy": 11.09 
		},
		"coords": [
			{
				"x": -3.2098095933,
				"y": 0.7456654145,
				"z": 1.977137666,
				"element": "C" 
			},
			{
				"x": -2.2019491608,
				"y": 1.2933105293,
				"z": 1.1108929341,
				"element": "O" 
			},
			{
				"x": -2.3073268758,
				"y": 2.6190467982,
				"z": 0.8791473041,
				"element": "C" 
			},
			{
				"x": -3.1197863645,
				"y": 3.3310764827,
				"z": 1.4318809548,
				"element": "O" 
			},
			{
				"x": -1.263749886,
				"y": 3.1290175123,
				"z": -0.0530119278,
				"element": "C" 
			},
			{
				"x": -0.7964040611,
				"y": 4.4000177323,
				"z": 0.1448001699,
				"element": "C" 
			},
			{
				"x": 0.4698806221,
				"y": 4.8016758557,
				"z": -0.9498909593,
				"element": "S" 
			},
			{
				"x": 0.391807028,
				"y": 3.2534527508,
				"z": -1.7453704864,
				"element": "C" 
			},
			{
				"x": 1.3280154611,
				"y": 2.9762366018,
				"z": -2.8847976631,
				"element": "C" 
			},
			{
				"x": -0.5843825617,
				"y": 2.4786245088,
				"z": -1.1533080478,
				"element": "C" 
			},
			{
				"x": -1.0705124663,
				"y": 0.9032064036,
				"z": -1.8332581988,
				"element": "S" 
			},
			{
				"x": -0.4107011686,
				"y": 0.7315065128,
				"z": -3.1199537342,
				"element": "O" 
			},
			{
				"x": -2.5158225133,
				"y": 0.7447063007,
				"z": -1.6971623926,
				"element": "O" 
			},
			{
				"x": -0.4434345449,
				"y": -0.2609475193,
				"z": -0.7570430978,
				"element": "N" 
			},
			{
				"x": 0.9050636104,
				"y": -0.3932736629,
				"z": -0.4744176343,
				"element": "C" 
			},
			{
				"x": 1.8006317692,
				"y": 0.2317531263,
				"z": -0.9980857623,
				"element": "O" 
			},
			{
				"x": 1.1303050833,
				"y": -1.3643669669,
				"z": 0.5243734253,
				"element": "N" 
			},
			{
				"x": 0.0556182135,
				"y": -2.0566722024,
				"z": 1.1115017761,
				"element": "N" 
			},
			{
				"x": 0.6382370361,
				"y": -2.8686631403,
				"z": 1.9411365038,
				"element": "C" 
			},
			{
				"x": 0.0500464201,
				"y": -3.751144025,
				"z": 2.7407406773,
				"element": "O" 
			},
			{
				"x": -1.3845517193,
				"y": -3.8206439627,
				"z": 2.6474762552,
				"element": "C" 
			},
			{
				"x": 2.0017320287,
				"y": -2.7699598829,
				"z": 1.9561829407,
				"element": "N" 
			},
			{
				"x": 2.9509433364,
				"y": -3.5282981696,
				"z": 2.7521241681,
				"element": "C" 
			},
			{
				"x": 2.3773527903,
				"y": -1.7796331561,
				"z": 1.0273159733,
				"element": "C" 
			},
			{
				"x": 3.5011629831,
				"y": -1.4177953716,
				"z": 0.7676058738,
				"element": "O" 
			},
			{
				"x": -4.1966616034,
				"y": 0.8393131945,
				"z": 1.5178405575,
				"element": "H" 
			},
			{
				"x": -3.2112500306,
				"y": 1.2617192793,
				"z": 2.9396510691,
				"element": "H" 
			},
			{
				"x": -2.9450387224,
				"y": -0.3044200098,
				"z": 2.1029070387,
				"element": "H" 
			},
			{
				"x": -1.1398474493,
				"y": 5.0943642461,
				"z": 0.8981155862,
				"element": "H" 
			},
			{
				"x": 2.0451540577,
				"y": 3.7934745429,
				"z": -2.9971903276,
				"element": "H" 
			},
			{
				"x": 0.7780762647,
				"y": 2.8561287751,
				"z": -3.8212686192,
				"element": "H" 
			},
			{
				"x": 1.8680008763,
				"y": 2.0452747397,
				"z": -2.6983323604,
				"element": "H" 
			},
			{
				"x": -1.1225740061,
				"y": -0.6825793558,
				"z": -0.1332847897,
				"element": "H" 
			},
			{
				"x": -1.6814559813,
				"y": -4.6158721138,
				"z": 3.3296358818,
				"element": "H" 
			},
			{
				"x": -1.8308205508,
				"y": -2.8698222949,
				"z": 2.9514469226,
				"element": "H" 
			},
			{
				"x": -1.688609208,
				"y": -4.055521082,
				"z": 1.6242862476,
				"element": "H" 
			},
			{
				"x": 2.8729358167,
				"y": -4.5963673968,
				"z": 2.5339817837,
				"element": "H" 
			},
			{
				"x": 3.9431443657,
				"y": -3.1676980448,
				"z": 2.4770845444,
				"element": "H" 
			},
			{
				"x": 2.7811807038,
				"y": -3.3633929501,
				"z": 3.8191097475,
				"element": "H" 
			}
		],
		 "valence_orbital": [ 
			{
				"type": "occ",
				"energy": -0.28651,
				"method": "rhf"
			},
			{
				"type": "occ",
				"energy": -0.27399,
				"method": "rhf"
			},
			{
				"type": "occ",
				"energy": -0.27212,
				"method": "rhf"
			},
			{
				"type": "occ",
				"energy": -0.25167,
				"method": "rhf"
			},
			{
				"type": "occ",
				"energy": -0.24305,
				"method": "rhf"
			},
			{
				"type": "unocc",
				"energy": -0.04393,
				"method": "rhf"
			},
			{
				"type": "unocc",
				"energy": -0.0307,
				"method": "rhf"
			},
			{
				"type": "unocc",
				"energy": -0.01734,
				"method": "rhf"
			},
			{
				"type": "unocc",
				"energy": 0.00424,
				"method": "rhf"
			},
			{
				"type": "unocc",
				"energy": 0.02486,
				"method": "rhf"
			}
		],
		"cosmo_sigma_profile": { 
			"-0.025": 0.0,
			"-0.024": 0.0,
			"-0.023": 0.0,
			"-0.022": 0.0,
			"-0.021": 0.0,
			"-0.02": 0.0,
			"-0.019": 0.0,
			"-0.018": 0.0,
			"-0.017": 0.0,
			"-0.016": 0.0,
			"-0.015": 0.0,
			"-0.014": 0.0,
			"-0.013": 0.0,
			"-0.012": 0.0,
			"-0.011": 0.289147464456,
			"-0.01": 1.94946725796,
			"-0.009": 2.29050149265,
			"-0.008": 3.23660916617,
			"-0.007": 13.1216047846,
			"-0.006": 24.4402615943,
			"-0.005": 35.3591825661,
			"-0.004": 41.3664946047,
			"-0.003": 36.0656191281,
			"-0.002": 27.8031728827,
			"-0.001": 29.0252549334,
			"0.0": 27.7572753022,
			"0.001": 20.690068659,
			"0.002": 14.1429421545,
			"0.003": 12.7069991311,
			"0.004": 10.3214082177,
			"0.005": 9.27290167584,
			"0.006": 8.46253414632,
			"0.007": 7.9517423891,
			"0.008": 8.5339227017,
			"0.009": 11.0484698875,
			"0.01": 13.2454695159,
			"0.011": 11.0884125321,
			"0.012": 6.24648685706,
			"0.013": 2.04595236325,
			"0.014": 1.70782808208,
			"0.015": 0.963090582537,
			"0.016": 0.0536949348864,
			"0.017": 0.0,
			"0.018": 0.0,
			"0.019": 0.0,
			"0.02": 0.0,
			"0.021": 0.0,
			"0.022": 0.0,
			"0.023": 0.0,
			"0.024": 0.0,
			"0.025": 0.0
		}
	}
}
