{
	 "smiles": "CC(=O)CC1=CC=CO1", 
	 "Tm": 302.15, 
	 "num_atms": 17, 
	 "gaussian": { 
		 "optdone": 1, 
		 "sigma_profile": "yes", 
		 "theory": "DFT", 
		 "functional": "B3LYP", 
		 "basiset": "6-31G**", 
		 "properties": { 
			 "R2extent": 1505.8543, 
			 "electric_dipole_moment_norm": 3.1988568802, 
			 "electric_quadrupole_moment_norm": 6.28378360544, 
			 "total_energy": -421.985403745, 
			 "HOMO_LUMO_gap": 0.20829, 
			 "cosmo_polarized_energy": -8.49, 
			 "cosmo_cavitation_energy": 21.38, 
			 "cosmo_dispersion_energy": -15.21, 
			 "cosmo_repulsion_energy": 1.26, 
			 "cosmo_total_nonelectrostatic_energy": 7.44, 
			 "SMD_solvation_energy": 5.42 
		},
		"coords": [
			{
				"x": 0.6254120663,
				"y": -2.5920564917,
				"z": -0.3401089785,
				"element": "C" 
			},
			{
				"x": -0.2694190955,
				"y": -1.6804185813,
				"z": 0.4749050772,
				"element": "C" 
			},
			{
				"x": -1.2000489978,
				"y": -2.1001102086,
				"z": 1.1319009745,
				"element": "O" 
			},
			{
				"x": 0.0576799476,
				"y": -0.1740109252,
				"z": 0.4760316878,
				"element": "C" 
			},
			{
				"x": 0.5737218465,
				"y": 0.3795423549,
				"z": -0.8065906375,
				"element": "C" 
			},
			{
				"x": 1.7490367493,
				"y": 0.9636941892,
				"z": -1.1809281861,
				"element": "C" 
			},
			{
				"x": 1.6280564775,
				"y": 1.2785675116,
				"z": -2.5754782709,
				"element": "C" 
			},
			{
				"x": 0.3893579785,
				"y": 0.8597089012,
				"z": -2.9493241923,
				"element": "C" 
			},
			{
				"x": -0.2680668616,
				"y": 0.3090246599,
				"z": -1.8866682047,
				"element": "O" 
			},
			{
				"x": 1.6832127259,
				"y": -2.3713437772,
				"z": -0.1611875787,
				"element": "H" 
			},
			{
				"x": 0.4064433139,
				"y": -3.6320586758,
				"z": -0.0950697608,
				"element": "H" 
			},
			{
				"x": 0.4440594274,
				"y": -2.42341862,
				"z": -1.4075892154,
				"element": "H" 
			},
			{
				"x": -0.8478826705,
				"y": 0.3433672928,
				"z": 0.8101064065,
				"element": "H" 
			},
			{
				"x": 0.8226806159,
				"y": -0.0145053524,
				"z": 1.2468238204,
				"element": "H" 
			},
			{
				"x": 2.5980197414,
				"y": 1.1540387279,
				"z": -0.5395389127,
				"element": "H" 
			},
			{
				"x": 2.3651310977,
				"y": 1.7533301825,
				"z": -3.206952728,
				"element": "H" 
			},
			{
				"x": -0.1559943626,
				"y": 0.8792488121,
				"z": -3.8800313008,
				"element": "H" 
			}
		],
		 "valence_orbital": [ 
			{
				"type": "occ",
				"energy": -0.37045,
				"method": "rhf"
			},
			{
				"type": "occ",
				"energy": -0.34827,
				"method": "rhf"
			},
			{
				"type": "occ",
				"energy": -0.28213,
				"method": "rhf"
			},
			{
				"type": "occ",
				"energy": -0.25404,
				"method": "rhf"
			},
			{
				"type": "occ",
				"energy": -0.22266,
				"method": "rhf"
			},
			{
				"type": "unocc",
				"energy": -0.01437,
				"method": "rhf"
			},
			{
				"type": "unocc",
				"energy": 0.00767,
				"method": "rhf"
			},
			{
				"type": "unocc",
				"energy": 0.06832,
				"method": "rhf"
			},
			{
				"type": "unocc",
				"energy": 0.09298,
				"method": "rhf"
			},
			{
				"type": "unocc",
				"energy": 0.11893,
				"method": "rhf"
			}
		],
		"cosmo_sigma_profile": { 
			"-0.025": 0.0,
			"-0.024": 0.0,
			"-0.023": 0.0,
			"-0.022": 0.0,
			"-0.021": 0.0,
			"-0.02": 0.0,
			"-0.019": 0.0,
			"-0.018": 0.0,
			"-0.017": 0.0,
			"-0.016": 0.0,
			"-0.015": 0.0,
			"-0.014": 0.0,
			"-0.013": 0.0,
			"-0.012": 0.0,
			"-0.011": 0.0,
			"-0.01": 0.0,
			"-0.009": 0.613110862585,
			"-0.008": 3.43276190464,
			"-0.007": 7.56398948711,
			"-0.006": 10.8144673025,
			"-0.005": 13.044292424,
			"-0.004": 12.3955511403,
			"-0.003": 13.2773486182,
			"-0.002": 15.8133529051,
			"-0.001": 15.6337607852,
			"0.0": 10.7889493946,
			"0.001": 7.41969970994,
			"0.002": 9.3142410456,
			"0.003": 9.17140203745,
			"0.004": 8.05479722854,
			"0.005": 7.58388117364,
			"0.006": 6.27251514297,
			"0.007": 2.58678475729,
			"0.008": 2.10310088135,
			"0.009": 2.16979114285,
			"0.01": 2.45699773881,
			"0.011": 3.55979612512,
			"0.012": 4.17344545512,
			"0.013": 1.78258230111,
			"0.014": 0.0,
			"0.015": 0.0,
			"0.016": 0.0,
			"0.017": 0.0,
			"0.018": 0.0,
			"0.019": 0.0,
			"0.02": 0.0,
			"0.021": 0.0,
			"0.022": 0.0,
			"0.023": 0.0,
			"0.024": 0.0,
			"0.025": 0.0
		}
	}
}
