{
	 "smiles": "CC1=NC2=C(O1)C=C(N)C=C2", 
	 "Tm": 403.15, 
	 "num_atms": 19, 
	 "gaussian": { 
		 "optdone": 1, 
		 "sigma_profile": "yes", 
		 "theory": "DFT", 
		 "functional": "B3LYP", 
		 "basiset": "6-31G**", 
		 "properties": { 
			 "R2extent": 2742.9771, 
			 "electric_dipole_moment_norm": 2.37219137086, 
			 "electric_quadrupole_moment_norm": 14.5888672775, 
			 "total_energy": -494.407537737, 
			 "HOMO_LUMO_gap": 0.18379, 
			 "cosmo_polarized_energy": -11.4, 
			 "cosmo_cavitation_energy": 23.12, 
			 "cosmo_dispersion_energy": -17.62, 
			 "cosmo_repulsion_energy": 1.41, 
			 "cosmo_total_nonelectrostatic_energy": 6.91, 
			 "SMD_solvation_energy": 2.37 
		},
		"coords": [
			{
				"x": -0.9118650773,
				"y": -0.1078618987,
				"z": -3.6720889936,
				"element": "C" 
			},
			{
				"x": -1.0095858472,
				"y": 0.5053009224,
				"z": -2.321478598,
				"element": "C" 
			},
			{
				"x": -1.9816683067,
				"y": 0.4313780463,
				"z": -1.4727982613,
				"element": "N" 
			},
			{
				"x": -1.5475381627,
				"y": 1.1851454316,
				"z": -0.3769861644,
				"element": "C" 
			},
			{
				"x": -0.2725886508,
				"y": 1.6916691742,
				"z": -0.6547052357,
				"element": "C" 
			},
			{
				"x": 0.0789519943,
				"y": 1.2566681709,
				"z": -1.9077040426,
				"element": "O" 
			},
			{
				"x": 0.4596177463,
				"y": 2.4888182037,
				"z": 0.2097543137,
				"element": "C" 
			},
			{
				"x": -0.1467835214,
				"y": 2.7886685757,
				"z": 1.4423807047,
				"element": "C" 
			},
			{
				"x": 0.5438518094,
				"y": 3.5365487732,
				"z": 2.4020372056,
				"element": "N" 
			},
			{
				"x": -1.4366817015,
				"y": 2.2841584557,
				"z": 1.7422036689,
				"element": "C" 
			},
			{
				"x": -2.1449979932,
				"y": 1.486583291,
				"z": 0.8484497336,
				"element": "C" 
			},
			{
				"x": -0.7793993971,
				"y": 0.6601470992,
				"z": -4.4416810234,
				"element": "H" 
			},
			{
				"x": -1.8258853171,
				"y": -0.6662832036,
				"z": -3.8751652105,
				"element": "H" 
			},
			{
				"x": -0.0537749161,
				"y": -0.7858667052,
				"z": -3.7324024774,
				"element": "H" 
			},
			{
				"x": 1.4479200787,
				"y": 2.8573597178,
				"z": -0.0446725345,
				"element": "H" 
			},
			{
				"x": 1.2573295733,
				"y": 4.1500175431,
				"z": 2.0322583895,
				"element": "H" 
			},
			{
				"x": -0.0451484446,
				"y": 4.0143796771,
				"z": 3.0704547466,
				"element": "H" 
			},
			{
				"x": -1.8761058492,
				"y": 2.5284282695,
				"z": 2.7058863448,
				"element": "H" 
			},
			{
				"x": -3.132948017,
				"y": 1.1112404562,
				"z": 1.0939574339,
				"element": "H" 
			}
		],
		 "valence_orbital": [ 
			{
				"type": "occ",
				"energy": -0.32577,
				"method": "rhf"
			},
			{
				"type": "occ",
				"energy": -0.28463,
				"method": "rhf"
			},
			{
				"type": "occ",
				"energy": -0.2781,
				"method": "rhf"
			},
			{
				"type": "occ",
				"energy": -0.23789,
				"method": "rhf"
			},
			{
				"type": "occ",
				"energy": -0.19406,
				"method": "rhf"
			},
			{
				"type": "unocc",
				"energy": -0.01027,
				"method": "rhf"
			},
			{
				"type": "unocc",
				"energy": 0.01801,
				"method": "rhf"
			},
			{
				"type": "unocc",
				"energy": 0.05425,
				"method": "rhf"
			},
			{
				"type": "unocc",
				"energy": 0.08158,
				"method": "rhf"
			},
			{
				"type": "unocc",
				"energy": 0.10818,
				"method": "rhf"
			}
		],
		"cosmo_sigma_profile": { 
			"-0.025": 0.0,
			"-0.024": 0.0,
			"-0.023": 0.0,
			"-0.022": 0.0,
			"-0.021": 0.0,
			"-0.02": 0.0,
			"-0.019": 0.0,
			"-0.018": 0.0,
			"-0.017": 0.0,
			"-0.016": 0.0,
			"-0.015": 0.0,
			"-0.014": 0.0,
			"-0.013": 0.339750346495,
			"-0.012": 2.72586558773,
			"-0.011": 3.03881568902,
			"-0.01": 2.70653450092,
			"-0.009": 4.01644655025,
			"-0.008": 2.94902733562,
			"-0.007": 4.66140169047,
			"-0.006": 10.9068148943,
			"-0.005": 11.6506800614,
			"-0.004": 12.4975576119,
			"-0.003": 11.7476831983,
			"-0.002": 12.9732726421,
			"-0.001": 11.6969516881,
			"0.0": 8.91989795475,
			"0.001": 8.95289482483,
			"0.002": 10.1210875386,
			"0.003": 10.8123906215,
			"0.004": 13.0415293947,
			"0.005": 13.5686663663,
			"0.006": 6.75544564668,
			"0.007": 3.73999287194,
			"0.008": 3.55449643518,
			"0.009": 2.21419402331,
			"0.01": 1.98193851442,
			"0.011": 1.6678048441,
			"0.012": 1.54868381925,
			"0.013": 2.04424156452,
			"0.014": 1.47767179728,
			"0.015": 1.0835639265,
			"0.016": 0.891614729938,
			"0.017": 0.0862078805708,
			"0.018": 0.0,
			"0.019": 0.0,
			"0.02": 0.0,
			"0.021": 0.0,
			"0.022": 0.0,
			"0.023": 0.0,
			"0.024": 0.0,
			"0.025": 0.0
		}
	}
}
