{
	 "smiles": "CC1(C)OC(=O)C(=CC2=CC=C(Cl)C=C2)C(=O)O1", 
	 "Tm": 445.15, 
	 "num_atms": 29, 
	 "gaussian": { 
		 "optdone": 1, 
		 "sigma_profile": "yes", 
		 "theory": "DFT", 
		 "functional": "B3LYP", 
		 "basiset": "6-31G**", 
		 "properties": { 
			 "R2extent": 7262.6122, 
			 "electric_dipole_moment_norm": 2.42380052603, 
			 "electric_quadrupole_moment_norm": 16.1377663743, 
			 "total_energy": -1263.11355043, 
			 "HOMO_LUMO_gap": 0.15108, 
			 "cosmo_polarized_energy": -13.08, 
			 "cosmo_cavitation_energy": 35.16, 
			 "cosmo_dispersion_energy": -25.56, 
			 "cosmo_repulsion_energy": 1.96, 
			 "cosmo_total_nonelectrostatic_energy": 11.55, 
			 "SMD_solvation_energy": 7.68 
		},
		"coords": [
			{
				"x": -0.8378077792,
				"y": -3.3738284817,
				"z": -0.5503491532,
				"element": "C" 
			},
			{
				"x": -0.0425209367,
				"y": -3.0992866186,
				"z": 0.7253035165,
				"element": "C" 
			},
			{
				"x": -0.0329116178,
				"y": -4.2691057174,
				"z": 1.6934537403,
				"element": "C" 
			},
			{
				"x": -0.6208200786,
				"y": -1.9982080132,
				"z": 1.440306506,
				"element": "O" 
			},
			{
				"x": -0.4251683131,
				"y": -0.7179327772,
				"z": 1.0133075081,
				"element": "C" 
			},
			{
				"x": -1.1105801005,
				"y": 0.1511837966,
				"z": 1.5083123569,
				"element": "O" 
			},
			{
				"x": 0.6676915327,
				"y": -0.5233674473,
				"z": 0.0314556292,
				"element": "C" 
			},
			{
				"x": 0.9254349237,
				"y": 0.5829655843,
				"z": -0.7292722557,
				"element": "C" 
			},
			{
				"x": 0.3063907384,
				"y": 1.8755060911,
				"z": -0.977359885,
				"element": "C" 
			},
			{
				"x": 0.89860673,
				"y": 2.6405281551,
				"z": -2.0106225429,
				"element": "C" 
			},
			{
				"x": 0.4081037558,
				"y": 3.8875525086,
				"z": -2.3727518868,
				"element": "C" 
			},
			{
				"x": -0.6972578531,
				"y": 4.397641902,
				"z": -1.6890694514,
				"element": "C" 
			},
			{
				"x": -1.3289284629,
				"y": 5.9698799069,
				"z": -2.1289237325,
				"element": "Cl" 
			},
			{
				"x": -1.3019573551,
				"y": 3.6769584332,
				"z": -0.6566979633,
				"element": "C" 
			},
			{
				"x": -0.8047689762,
				"y": 2.4283243874,
				"z": -0.3019928851,
				"element": "C" 
			},
			{
				"x": 1.6674653973,
				"y": -1.6291041742,
				"z": -0.1296834204,
				"element": "C" 
			},
			{
				"x": 2.7452695963,
				"y": -1.5070042847,
				"z": -0.6656020151,
				"element": "O" 
			},
			{
				"x": 1.3287373683,
				"y": -2.8341823073,
				"z": 0.4072188441,
				"element": "O" 
			},
			{
				"x": -1.8767441168,
				"y": -3.5986654289,
				"z": -0.297578869,
				"element": "H" 
			},
			{
				"x": -0.822403024,
				"y": -2.5077971221,
				"z": -1.2177149702,
				"element": "H" 
			},
			{
				"x": -0.4056166572,
				"y": -4.2267226484,
				"z": -1.0790997328,
				"element": "H" 
			},
			{
				"x": -1.0543312405,
				"y": -4.5088802702,
				"z": 1.9970122419,
				"element": "H" 
			},
			{
				"x": 0.5502664598,
				"y": -4.0054599289,
				"z": 2.5780292562,
				"element": "H" 
			},
			{
				"x": 0.4167666041,
				"y": -5.1425615606,
				"z": 1.2161261263,
				"element": "H" 
			},
			{
				"x": 1.8236614835,
				"y": 0.4359541699,
				"z": -1.327936078,
				"element": "H" 
			},
			{
				"x": 1.7585794756,
				"y": 2.2401177892,
				"z": -2.5400254689,
				"element": "H" 
			},
			{
				"x": 0.8712125138,
				"y": 4.4597979401,
				"z": -3.1684294254,
				"element": "H" 
			},
			{
				"x": -2.1529958635,
				"y": 4.0961846629,
				"z": -0.1316554149,
				"element": "H" 
			},
			{
				"x": -1.2582742042,
				"y": 1.8759114533,
				"z": 0.5090394252,
				"element": "H" 
			}
		],
		 "valence_orbital": [ 
			{
				"type": "occ",
				"energy": -0.3059,
				"method": "rhf"
			},
			{
				"type": "occ",
				"energy": -0.29417,
				"method": "rhf"
			},
			{
				"type": "occ",
				"energy": -0.27953,
				"method": "rhf"
			},
			{
				"type": "occ",
				"energy": -0.27672,
				"method": "rhf"
			},
			{
				"type": "occ",
				"energy": -0.25163,
				"method": "rhf"
			},
			{
				"type": "unocc",
				"energy": -0.10055,
				"method": "rhf"
			},
			{
				"type": "unocc",
				"energy": -0.02713,
				"method": "rhf"
			},
			{
				"type": "unocc",
				"energy": -0.00859,
				"method": "rhf"
			},
			{
				"type": "unocc",
				"energy": -0.0001,
				"method": "rhf"
			},
			{
				"type": "unocc",
				"energy": 0.01842,
				"method": "rhf"
			}
		],
		"cosmo_sigma_profile": { 
			"-0.025": 0.0,
			"-0.024": 0.0,
			"-0.023": 0.0,
			"-0.022": 0.0,
			"-0.021": 0.0,
			"-0.02": 0.0,
			"-0.019": 0.0,
			"-0.018": 0.0,
			"-0.017": 0.0,
			"-0.016": 0.0,
			"-0.015": 0.0,
			"-0.014": 0.0,
			"-0.013": 0.0,
			"-0.012": 0.0,
			"-0.011": 0.0,
			"-0.01": 0.35445557157,
			"-0.009": 1.88008802039,
			"-0.008": 5.10348644369,
			"-0.007": 7.5457034146,
			"-0.006": 17.6770091138,
			"-0.005": 20.9080112303,
			"-0.004": 18.7272006527,
			"-0.003": 21.5014606034,
			"-0.002": 26.0683400883,
			"-0.001": 24.6499176761,
			"0.0": 24.699457386,
			"0.001": 25.6551763903,
			"0.002": 19.9284739148,
			"0.003": 12.6301821582,
			"0.004": 13.4266614071,
			"0.005": 3.91258365012,
			"0.006": 4.18165135164,
			"0.007": 4.92715768472,
			"0.008": 5.33448376834,
			"0.009": 5.40327625791,
			"0.01": 7.08970178581,
			"0.011": 7.23701366615,
			"0.012": 4.3068019767,
			"0.013": 0.603415276413,
			"0.014": 0.0,
			"0.015": 0.0,
			"0.016": 0.0,
			"0.017": 0.0,
			"0.018": 0.0,
			"0.019": 0.0,
			"0.02": 0.0,
			"0.021": 0.0,
			"0.022": 0.0,
			"0.023": 0.0,
			"0.024": 0.0,
			"0.025": 0.0
		}
	}
}
