{
	 "smiles": "OC(=O)C1=CC=C(C=C1)N1CCCS1(=O)=O", 
	 "Tm": 521.15, 
	 "num_atms": 27, 
	 "gaussian": { 
		 "optdone": 1, 
		 "sigma_profile": "yes", 
		 "theory": "DFT", 
		 "functional": "B3LYP", 
		 "basiset": "6-31G**", 
		 "properties": { 
			 "R2extent": 5088.3128, 
			 "electric_dipole_moment_norm": 7.52476667412, 
			 "electric_quadrupole_moment_norm": 22.9584617847, 
			 "total_energy": -1141.46503092, 
			 "HOMO_LUMO_gap": 0.1868, 
			 "cosmo_polarized_energy": -26.11, 
			 "cosmo_cavitation_energy": 31.69, 
			 "cosmo_dispersion_energy": -23.81, 
			 "cosmo_repulsion_energy": 1.78, 
			 "cosmo_total_nonelectrostatic_energy": 9.65, 
			 "SMD_solvation_energy": 4.9 
		},
		"coords": [
			{
				"x": 1.8524111571,
				"y": 4.4331280998,
				"z": -2.1816692279,
				"element": "O" 
			},
			{
				"x": 1.4742946986,
				"y": 4.0558660912,
				"z": -0.9296055717,
				"element": "C" 
			},
			{
				"x": 1.3951587873,
				"y": 4.8855466379,
				"z": -0.0527067633,
				"element": "O" 
			},
			{
				"x": 1.1791294037,
				"y": 2.6057095242,
				"z": -0.7166262667,
				"element": "C" 
			},
			{
				"x": 0.9309552172,
				"y": 1.6948635165,
				"z": -1.7552644642,
				"element": "C" 
			},
			{
				"x": 0.664561561,
				"y": 0.3579968728,
				"z": -1.4930397963,
				"element": "C" 
			},
			{
				"x": 0.6126070766,
				"y": -0.1018078329,
				"z": -0.1639643797,
				"element": "C" 
			},
			{
				"x": 0.8448799749,
				"y": 0.808388188,
				"z": 0.8825094345,
				"element": "C" 
			},
			{
				"x": 1.1223965454,
				"y": 2.1407364887,
				"z": 0.6025884713,
				"element": "C" 
			},
			{
				"x": 0.3660255312,
				"y": -1.4616193432,
				"z": 0.1030465387,
				"element": "N" 
			},
			{
				"x": 0.4497545183,
				"y": -2.023627809,
				"z": 1.4521032385,
				"element": "C" 
			},
			{
				"x": 0.2409896316,
				"y": -3.5347955395,
				"z": 1.2808050217,
				"element": "C" 
			},
			{
				"x": -0.935186438,
				"y": -3.689532538,
				"z": 0.3178634001,
				"element": "C" 
			},
			{
				"x": -0.7289763435,
				"y": -2.3530959333,
				"z": -0.9049103359,
				"element": "S" 
			},
			{
				"x": -0.0017456659,
				"y": -2.829510395,
				"z": -2.0848598427,
				"element": "O" 
			},
			{
				"x": -1.9819035401,
				"y": -1.6147676664,
				"z": -1.0847336855,
				"element": "O" 
			},
			{
				"x": 2.0231245921,
				"y": 3.6555565599,
				"z": -2.7302027376,
				"element": "H" 
			},
			{
				"x": 0.9197631912,
				"y": 2.0182773013,
				"z": -2.7935611339,
				"element": "H" 
			},
			{
				"x": 0.5069597827,
				"y": -0.3325858984,
				"z": -2.3133717455,
				"element": "H" 
			},
			{
				"x": 0.8011878631,
				"y": 0.4827693492,
				"z": 1.9152642089,
				"element": "H" 
			},
			{
				"x": 1.2927040153,
				"y": 2.849578286,
				"z": 1.405692768,
				"element": "H" 
			},
			{
				"x": 1.436088341,
				"y": -1.8016196311,
				"z": 1.8693127705,
				"element": "H" 
			},
			{
				"x": -0.3121902936,
				"y": -1.5979665481,
				"z": 2.1232875928,
				"element": "H" 
			},
			{
				"x": 1.1406761491,
				"y": -3.9863485227,
				"z": 0.8537815911,
				"element": "H" 
			},
			{
				"x": 0.0331318586,
				"y": -4.0177742708,
				"z": 2.238899364,
				"element": "H" 
			},
			{
				"x": -0.9581427738,
				"y": -4.6293035451,
				"z": -0.2355537117,
				"element": "H" 
			},
			{
				"x": -1.9001548409,
				"y": -3.5102614419,
				"z": 0.7980152626,
				"element": "H" 
			}
		],
		 "valence_orbital": [ 
			{
				"type": "occ",
				"energy": -0.3115,
				"method": "rhf"
			},
			{
				"type": "occ",
				"energy": -0.29914,
				"method": "rhf"
			},
			{
				"type": "occ",
				"energy": -0.27265,
				"method": "rhf"
			},
			{
				"type": "occ",
				"energy": -0.26778,
				"method": "rhf"
			},
			{
				"type": "occ",
				"energy": -0.23424,
				"method": "rhf"
			},
			{
				"type": "unocc",
				"energy": -0.04744,
				"method": "rhf"
			},
			{
				"type": "unocc",
				"energy": -0.023,
				"method": "rhf"
			},
			{
				"type": "unocc",
				"energy": 0.03272,
				"method": "rhf"
			},
			{
				"type": "unocc",
				"energy": 0.03791,
				"method": "rhf"
			},
			{
				"type": "unocc",
				"energy": 0.05109,
				"method": "rhf"
			}
		],
		"cosmo_sigma_profile": { 
			"-0.025": 0.0,
			"-0.024": 0.0,
			"-0.023": 0.0,
			"-0.022": 0.0,
			"-0.021": 0.0,
			"-0.02": 0.0,
			"-0.019": 0.18846846585,
			"-0.018": 0.938795556945,
			"-0.017": 1.05698402584,
			"-0.016": 0.85409622544,
			"-0.015": 0.956248083877,
			"-0.014": 0.807812714879,
			"-0.013": 1.21729965384,
			"-0.012": 1.05853971029,
			"-0.011": 1.46804196006,
			"-0.01": 0.999106520848,
			"-0.009": 5.15657353449,
			"-0.008": 8.25478694216,
			"-0.007": 17.3716157245,
			"-0.006": 25.1308954101,
			"-0.005": 21.0213061852,
			"-0.004": 14.7094902995,
			"-0.003": 10.486002759,
			"-0.002": 9.01673655557,
			"-0.001": 8.78892408343,
			"0.0": 8.41293777586,
			"0.001": 9.53880006463,
			"0.002": 13.3812000213,
			"0.003": 17.8672851959,
			"0.004": 6.58208522697,
			"0.005": 5.17820484746,
			"0.006": 5.58638680737,
			"0.007": 5.0962090414,
			"0.008": 5.65969397676,
			"0.009": 8.51352370156,
			"0.01": 15.021260646,
			"0.011": 13.3252198206,
			"0.012": 6.02346504658,
			"0.013": 2.2386288572,
			"0.014": 0.290233341573,
			"0.015": 0.0,
			"0.016": 0.0,
			"0.017": 0.0,
			"0.018": 0.0,
			"0.019": 0.0,
			"0.02": 0.0,
			"0.021": 0.0,
			"0.022": 0.0,
			"0.023": 0.0,
			"0.024": 0.0,
			"0.025": 0.0
		}
	}
}
