{
	 "smiles": "CC(=O)C1=CC2=C(O1)C=CC(Cl)=C2", 
	 "Tm": 370.65, 
	 "num_atms": 20, 
	 "gaussian": { 
		 "optdone": 1, 
		 "sigma_profile": "yes", 
		 "theory": "DFT", 
		 "functional": "B3LYP", 
		 "basiset": "6-31G**", 
		 "properties": { 
			 "R2extent": 3693.3714, 
			 "electric_dipole_moment_norm": 2.390379792, 
			 "electric_quadrupole_moment_norm": 21.6087301494, 
			 "total_energy": -995.912672652, 
			 "HOMO_LUMO_gap": 0.16969, 
			 "cosmo_polarized_energy": -11.06, 
			 "cosmo_cavitation_energy": 26.98, 
			 "cosmo_dispersion_energy": -19.94, 
			 "cosmo_repulsion_energy": 1.57, 
			 "cosmo_total_nonelectrostatic_energy": 8.6, 
			 "SMD_solvation_energy": 5.41 
		},
		"coords": [
			{
				"x": 2.9113308037,
				"y": -1.1446653319,
				"z": -2.2743179015,
				"element": "C" 
			},
			{
				"x": 1.4396408509,
				"y": -0.8980257917,
				"z": -2.5567207969,
				"element": "C" 
			},
			{
				"x": 0.9583407301,
				"y": -1.0169690765,
				"z": -3.6706899325,
				"element": "O" 
			},
			{
				"x": 0.6035665324,
				"y": -0.5012886257,
				"z": -1.4039786739,
				"element": "C" 
			},
			{
				"x": 0.8986654984,
				"y": -0.3033796056,
				"z": -0.0819795179,
				"element": "C" 
			},
			{
				"x": -0.3292343468,
				"y": 0.0735179567,
				"z": 0.5575681732,
				"element": "C" 
			},
			{
				"x": -1.2945859288,
				"y": 0.0705961699,
				"z": -0.4700864095,
				"element": "C" 
			},
			{
				"x": -0.7305743658,
				"y": -0.2772010281,
				"z": -1.6574228101,
				"element": "O" 
			},
			{
				"x": -2.6336458049,
				"y": 0.386334235,
				"z": -0.2599008974,
				"element": "C" 
			},
			{
				"x": -3.0032681747,
				"y": 0.7162840442,
				"z": 1.0398051572,
				"element": "C" 
			},
			{
				"x": -2.0485159246,
				"y": 0.7233523466,
				"z": 2.0773523585,
				"element": "C" 
			},
			{
				"x": -2.5817993483,
				"y": 1.1499584792,
				"z": 3.6990882875,
				"element": "Cl" 
			},
			{
				"x": -0.7137162955,
				"y": 0.4084676812,
				"z": 1.8672020531,
				"element": "C" 
			},
			{
				"x": 3.4017868607,
				"y": -1.4271694886,
				"z": -3.2062056603,
				"element": "H" 
			},
			{
				"x": 3.0392987159,
				"y": -1.945496271,
				"z": -1.5378853882,
				"element": "H" 
			},
			{
				"x": 3.3879697979,
				"y": -0.2450793108,
				"z": -1.869847344,
				"element": "H" 
			},
			{
				"x": 1.8702682539,
				"y": -0.4128065787,
				"z": 0.3777029242,
				"element": "H" 
			},
			{
				"x": -3.351711754,
				"y": 0.3748527487,
				"z": -1.071890552,
				"element": "H" 
			},
			{
				"x": -4.0319511618,
				"y": 0.9716319156,
				"z": 1.2666496896,
				"element": "H" 
			},
			{
				"x": -0.0031649385,
				"y": 0.4227855315,
				"z": 2.6856572408,
				"element": "H" 
			}
		],
		 "valence_orbital": [ 
			{
				"type": "occ",
				"energy": -0.31857,
				"method": "rhf"
			},
			{
				"type": "occ",
				"energy": -0.31478,
				"method": "rhf"
			},
			{
				"type": "occ",
				"energy": -0.25963,
				"method": "rhf"
			},
			{
				"type": "occ",
				"energy": -0.24736,
				"method": "rhf"
			},
			{
				"type": "occ",
				"energy": -0.24484,
				"method": "rhf"
			},
			{
				"type": "unocc",
				"energy": -0.07515,
				"method": "rhf"
			},
			{
				"type": "unocc",
				"energy": -0.01385,
				"method": "rhf"
			},
			{
				"type": "unocc",
				"energy": -0.00061,
				"method": "rhf"
			},
			{
				"type": "unocc",
				"energy": 0.02309,
				"method": "rhf"
			},
			{
				"type": "unocc",
				"energy": 0.07384,
				"method": "rhf"
			}
		],
		"cosmo_sigma_profile": { 
			"-0.025": 0.0,
			"-0.024": 0.0,
			"-0.023": 0.0,
			"-0.022": 0.0,
			"-0.021": 0.0,
			"-0.02": 0.0,
			"-0.019": 0.0,
			"-0.018": 0.0,
			"-0.017": 0.0,
			"-0.016": 0.0,
			"-0.015": 0.0,
			"-0.014": 0.0,
			"-0.013": 0.0,
			"-0.012": 0.0,
			"-0.011": 0.0,
			"-0.01": 0.0,
			"-0.009": 1.29263586098,
			"-0.008": 6.02822042225,
			"-0.007": 10.9540991145,
			"-0.006": 14.8939565046,
			"-0.005": 12.5043842396,
			"-0.004": 11.7991282798,
			"-0.003": 12.2571807014,
			"-0.002": 13.7980681482,
			"-0.001": 19.4796652005,
			"0.0": 18.1781623107,
			"0.001": 21.7000966888,
			"0.002": 21.732418203,
			"0.003": 12.0063525336,
			"0.004": 10.8456525764,
			"0.005": 8.27525637684,
			"0.006": 3.24487984975,
			"0.007": 1.24276542583,
			"0.008": 1.9125649091,
			"0.009": 2.9460548585,
			"0.01": 2.86304921478,
			"0.011": 4.35716216826,
			"0.012": 4.78914610863,
			"0.013": 2.11498125719,
			"0.014": 0.0372742508903,
			"0.015": 0.0,
			"0.016": 0.0,
			"0.017": 0.0,
			"0.018": 0.0,
			"0.019": 0.0,
			"0.02": 0.0,
			"0.021": 0.0,
			"0.022": 0.0,
			"0.023": 0.0,
			"0.024": 0.0,
			"0.025": 0.0
		}
	}
}
