{
	 "smiles": "OC(=O)C1=C(COC2=CC=C(C=O)C=C2)OC=C1", 
	 "Tm": 419.15, 
	 "num_atms": 28, 
	 "gaussian": { 
		 "optdone": 1, 
		 "sigma_profile": "yes", 
		 "theory": "DFT", 
		 "functional": "B3LYP", 
		 "basiset": "6-31G**", 
		 "properties": { 
			 "R2extent": 5550.3251, 
			 "electric_dipole_moment_norm": 7.30271269461, 
			 "electric_quadrupole_moment_norm": 20.561639894, 
			 "total_energy": -877.492861828, 
			 "HOMO_LUMO_gap": 0.17596, 
			 "cosmo_polarized_energy": -20.49, 
			 "cosmo_cavitation_energy": 33.67, 
			 "cosmo_dispersion_energy": -23.85, 
			 "cosmo_repulsion_energy": 1.82, 
			 "cosmo_total_nonelectrostatic_energy": 11.64, 
			 "SMD_solvation_energy": 9.05 
		},
		"coords": [
			{
				"x": 2.9730161717,
				"y": 1.3572396459,
				"z": -2.9196630558,
				"element": "O" 
			},
			{
				"x": 2.603666755,
				"y": 1.0829560801,
				"z": -1.6447713394,
				"element": "C" 
			},
			{
				"x": 3.2325321214,
				"y": 0.2664443114,
				"z": -1.0033674092,
				"element": "O" 
			},
			{
				"x": 1.4292194195,
				"y": 1.8191134691,
				"z": -1.1273709564,
				"element": "C" 
			},
			{
				"x": 1.0594443355,
				"y": 1.8859209165,
				"z": 0.1973972572,
				"element": "C" 
			},
			{
				"x": 1.6517808861,
				"y": 1.3634521068,
				"z": 1.469015054,
				"element": "C" 
			},
			{
				"x": 0.7024742589,
				"y": 0.6566190007,
				"z": 2.2697453485,
				"element": "O" 
			},
			{
				"x": 0.3430881848,
				"y": -0.6193302974,
				"z": 1.9392700527,
				"element": "C" 
			},
			{
				"x": -0.6601552029,
				"y": -1.1747139183,
				"z": 2.7504573621,
				"element": "C" 
			},
			{
				"x": -1.0932325443,
				"y": -2.4709134298,
				"z": 2.5172809077,
				"element": "C" 
			},
			{
				"x": -0.5400017889,
				"y": -3.233025358,
				"z": 1.4756152033,
				"element": "C" 
			},
			{
				"x": -1.009221116,
				"y": -4.608145067,
				"z": 1.2307754961,
				"element": "C" 
			},
			{
				"x": -0.5973777506,
				"y": -5.3415173467,
				"z": 0.3492912624,
				"element": "O" 
			},
			{
				"x": 0.4613964324,
				"y": -2.6656002971,
				"z": 0.6746906713,
				"element": "C" 
			},
			{
				"x": 0.9089557449,
				"y": -1.367040842,
				"z": 0.8934761176,
				"element": "C" 
			},
			{
				"x": -0.0555525309,
				"y": 2.6490358655,
				"z": 0.3202632875,
				"element": "O" 
			},
			{
				"x": -0.4199724996,
				"y": 3.0623078249,
				"z": -0.9274556616,
				"element": "C" 
			},
			{
				"x": 0.4538439944,
				"y": 2.5942674134,
				"z": -1.8539469704,
				"element": "C" 
			},
			{
				"x": 2.4529307118,
				"y": 2.0899826307,
				"z": -3.2770906237,
				"element": "H" 
			},
			{
				"x": 2.531052229,
				"y": 0.7614104062,
				"z": 1.2311967419,
				"element": "H" 
			},
			{
				"x": 1.9578162657,
				"y": 2.2024676798,
				"z": 2.1016031102,
				"element": "H" 
			},
			{
				"x": -1.0749789921,
				"y": -0.5688283095,
				"z": 3.5489339792,
				"element": "H" 
			},
			{
				"x": -1.8696047546,
				"y": -2.9028898464,
				"z": 3.1448669781,
				"element": "H" 
			},
			{
				"x": -1.8020441351,
				"y": -4.954558208,
				"z": 1.9329361285,
				"element": "H" 
			},
			{
				"x": 0.8834847328,
				"y": -3.2655982961,
				"z": -0.1255567961,
				"element": "H" 
			},
			{
				"x": 1.6887686941,
				"y": -0.9561356767,
				"z": 0.2621105888,
				"element": "H" 
			},
			{
				"x": -1.3150969456,
				"y": 3.6614353432,
				"z": -0.9833803066,
				"element": "H" 
			},
			{
				"x": 0.3813673228,
				"y": 2.7490441988,
				"z": -2.922022428,
				"element": "H" 
			}
		],
		 "valence_orbital": [ 
			{
				"type": "occ",
				"energy": -0.29171,
				"method": "rhf"
			},
			{
				"type": "occ",
				"energy": -0.26436,
				"method": "rhf"
			},
			{
				"type": "occ",
				"energy": -0.25859,
				"method": "rhf"
			},
			{
				"type": "occ",
				"energy": -0.24295,
				"method": "rhf"
			},
			{
				"type": "occ",
				"energy": -0.23115,
				"method": "rhf"
			},
			{
				"type": "unocc",
				"energy": -0.05519,
				"method": "rhf"
			},
			{
				"type": "unocc",
				"energy": -0.04792,
				"method": "rhf"
			},
			{
				"type": "unocc",
				"energy": -0.01049,
				"method": "rhf"
			},
			{
				"type": "unocc",
				"energy": -0.00628,
				"method": "rhf"
			},
			{
				"type": "unocc",
				"energy": 0.04607,
				"method": "rhf"
			}
		],
		"cosmo_sigma_profile": { 
			"-0.025": 0.0,
			"-0.024": 0.0,
			"-0.023": 0.0,
			"-0.022": 0.0,
			"-0.021": 0.0,
			"-0.02": 0.0139865813664,
			"-0.019": 0.44748857569,
			"-0.018": 1.06608272022,
			"-0.017": 1.14993258698,
			"-0.016": 1.11968948963,
			"-0.015": 1.15988841184,
			"-0.014": 1.04666560618,
			"-0.013": 0.796694140013,
			"-0.012": 1.62199582655,
			"-0.011": 1.19275037986,
			"-0.01": 2.81251351596,
			"-0.009": 3.65979310686,
			"-0.008": 5.89528429456,
			"-0.007": 11.4932919449,
			"-0.006": 15.3839069123,
			"-0.005": 15.9511515428,
			"-0.004": 15.1793513491,
			"-0.003": 13.2895486608,
			"-0.002": 13.2328861736,
			"-0.001": 17.4488043817,
			"0.0": 20.0031515515,
			"0.001": 19.6396732705,
			"0.002": 22.0473743191,
			"0.003": 21.8074614603,
			"0.004": 9.0250296202,
			"0.005": 6.5757906353,
			"0.006": 6.5014169215,
			"0.007": 6.76251145589,
			"0.008": 6.39010028505,
			"0.009": 5.26465612535,
			"0.01": 6.85039228934,
			"0.011": 6.71674195008,
			"0.012": 6.90161366876,
			"0.013": 2.43241964582,
			"0.014": 0.129389388332,
			"0.015": 0.0,
			"0.016": 0.0,
			"0.017": 0.0,
			"0.018": 0.0,
			"0.019": 0.0,
			"0.02": 0.0,
			"0.021": 0.0,
			"0.022": 0.0,
			"0.023": 0.0,
			"0.024": 0.0,
			"0.025": 0.0
		}
	}
}
