{
	 "smiles": "COC(=O)C1=CC=C(N=C1)N1CCCC1", 
	 "Tm": 393.15, 
	 "num_atms": 29, 
	 "gaussian": { 
		 "optdone": 1, 
		 "sigma_profile": "yes", 
		 "theory": "DFT", 
		 "functional": "B3LYP", 
		 "basiset": "6-31G**", 
		 "properties": { 
			 "R2extent": 4969.3145, 
			 "electric_dipole_moment_norm": 4.55654473587, 
			 "electric_quadrupole_moment_norm": 14.7664517817, 
			 "total_energy": -687.578971959, 
			 "HOMO_LUMO_gap": 0.17499, 
			 "cosmo_polarized_energy": -11.16, 
			 "cosmo_cavitation_energy": 31.86, 
			 "cosmo_dispersion_energy": -23.73, 
			 "cosmo_repulsion_energy": 1.86, 
			 "cosmo_total_nonelectrostatic_energy": 9.99, 
			 "SMD_solvation_energy": 4.78 
		},
		"coords": [
			{
				"x": 3.6794070808,
				"y": -4.4478648741,
				"z": -0.0219700213,
				"element": "C" 
			},
			{
				"x": 2.828085775,
				"y": -3.3120247656,
				"z": -0.2217134854,
				"element": "O" 
			},
			{
				"x": 1.8064443004,
				"y": -3.1954553514,
				"z": 0.6680744638,
				"element": "C" 
			},
			{
				"x": 1.6259601735,
				"y": -3.9949499862,
				"z": 1.5690273163,
				"element": "O" 
			},
			{
				"x": 0.9698798577,
				"y": -2.0089731175,
				"z": 0.4068590791,
				"element": "C" 
			},
			{
				"x": 1.1986801287,
				"y": -1.101322615,
				"z": -0.6434991592,
				"element": "C" 
			},
			{
				"x": 0.3597258818,
				"y": -0.0174158153,
				"z": -0.808870155,
				"element": "C" 
			},
			{
				"x": -0.7191919503,
				"y": 0.1523376006,
				"z": 0.100797789,
				"element": "C" 
			},
			{
				"x": -0.9492430436,
				"y": -0.7188484809,
				"z": 1.1114107693,
				"element": "N" 
			},
			{
				"x": -0.1261970183,
				"y": -1.7550367569,
				"z": 1.2420918528,
				"element": "C" 
			},
			{
				"x": -1.5827077308,
				"y": 1.1999671778,
				"z": 0.0024057941,
				"element": "N" 
			},
			{
				"x": -1.4732080142,
				"y": 2.2708382646,
				"z": -0.9877542584,
				"element": "C" 
			},
			{
				"x": -2.5135284565,
				"y": 3.3019104245,
				"z": -0.520061751,
				"element": "C" 
			},
			{
				"x": -3.5733223082,
				"y": 2.4413541876,
				"z": 0.1879210051,
				"element": "C" 
			},
			{
				"x": -2.7409713189,
				"y": 1.360296339,
				"z": 0.8912121229,
				"element": "C" 
			},
			{
				"x": 4.4345280952,
				"y": -4.3928680619,
				"z": -0.8066740581,
				"element": "H" 
			},
			{
				"x": 3.1106819395,
				"y": -5.3780254148,
				"z": -0.1027362251,
				"element": "H" 
			},
			{
				"x": 4.1492841985,
				"y": -4.4118584532,
				"z": 0.9644712116,
				"element": "H" 
			},
			{
				"x": 2.0310872489,
				"y": -1.2602357499,
				"z": -1.3203686836,
				"element": "H" 
			},
			{
				"x": 0.5181575546,
				"y": 0.6821058462,
				"z": -1.6208282434,
				"element": "H" 
			},
			{
				"x": -0.3312527242,
				"y": -2.441926427,
				"z": 2.0602642677,
				"element": "H" 
			},
			{
				"x": -1.7018882462,
				"y": 1.8984514516,
				"z": -1.9982411661,
				"element": "H" 
			},
			{
				"x": -0.4587933899,
				"y": 2.6868747851,
				"z": -1.0122059739,
				"element": "H" 
			},
			{
				"x": -2.9135388576,
				"y": 3.8925143635,
				"z": -1.3484010174,
				"element": "H" 
			},
			{
				"x": -2.0535937668,
				"y": 3.9946848286,
				"z": 0.1935089861,
				"element": "H" 
			},
			{
				"x": -4.2388866714,
				"y": 1.9801243481,
				"z": -0.5507327043,
				"element": "H" 
			},
			{
				"x": -4.1925968453,
				"y": 3.010693037,
				"z": 0.8860200687,
				"element": "H" 
			},
			{
				"x": -3.2650493482,
				"y": 0.4093568667,
				"z": 1.0107651612,
				"element": "H" 
			},
			{
				"x": -2.4183525443,
				"y": 1.6787963486,
				"z": 1.8920270148,
				"element": "H" 
			}
		],
		 "valence_orbital": [ 
			{
				"type": "occ",
				"energy": -0.28956,
				"method": "rhf"
			},
			{
				"type": "occ",
				"energy": -0.2772,
				"method": "rhf"
			},
			{
				"type": "occ",
				"energy": -0.26495,
				"method": "rhf"
			},
			{
				"type": "occ",
				"energy": -0.24901,
				"method": "rhf"
			},
			{
				"type": "occ",
				"energy": -0.20242,
				"method": "rhf"
			},
			{
				"type": "unocc",
				"energy": -0.02743,
				"method": "rhf"
			},
			{
				"type": "unocc",
				"energy": -0.01173,
				"method": "rhf"
			},
			{
				"type": "unocc",
				"energy": 0.06883,
				"method": "rhf"
			},
			{
				"type": "unocc",
				"energy": 0.07671,
				"method": "rhf"
			},
			{
				"type": "unocc",
				"energy": 0.10657,
				"method": "rhf"
			}
		],
		"cosmo_sigma_profile": { 
			"-0.025": 0.0,
			"-0.024": 0.0,
			"-0.023": 0.0,
			"-0.022": 0.0,
			"-0.021": 0.0,
			"-0.02": 0.0,
			"-0.019": 0.0,
			"-0.018": 0.0,
			"-0.017": 0.0,
			"-0.016": 0.0,
			"-0.015": 0.0,
			"-0.014": 0.0,
			"-0.013": 0.0,
			"-0.012": 0.0,
			"-0.011": 0.0,
			"-0.01": 0.0,
			"-0.009": 0.0,
			"-0.008": 0.0,
			"-0.007": 1.2577929756,
			"-0.006": 7.38678942632,
			"-0.005": 14.6646114646,
			"-0.004": 26.0269844946,
			"-0.003": 37.7641435522,
			"-0.002": 30.9481063805,
			"-0.001": 22.5700524644,
			"0.0": 18.5487505376,
			"0.001": 17.7381972986,
			"0.002": 18.8973992895,
			"0.003": 13.9206182341,
			"0.004": 7.29469348611,
			"0.005": 5.57894442799,
			"0.006": 5.37378024851,
			"0.007": 3.20018754547,
			"0.008": 2.74136584609,
			"0.009": 3.01811965237,
			"0.01": 2.58024419952,
			"0.011": 3.18177937888,
			"0.012": 4.751555551,
			"0.013": 3.63462690034,
			"0.014": 0.540193600763,
			"0.015": 0.0,
			"0.016": 0.0,
			"0.017": 0.0,
			"0.018": 0.0,
			"0.019": 0.0,
			"0.02": 0.0,
			"0.021": 0.0,
			"0.022": 0.0,
			"0.023": 0.0,
			"0.024": 0.0,
			"0.025": 0.0
		}
	}
}
