{
	 "smiles": "C1CC[C@H]2CCCC[C@@H]2C1", 
	 "Tm": 242.05, 
	 "num_atms": 28, 
	 "gaussian": { 
		 "optdone": 1, 
		 "sigma_profile": "yes", 
		 "theory": "DFT", 
		 "functional": "B3LYP", 
		 "basiset": "6-31G**", 
		 "properties": { 
			 "R2extent": 1835.0756, 
			 "electric_dipole_moment_norm": 0.0, 
			 "electric_quadrupole_moment_norm": 0.565044892022, 
			 "total_energy": -391.951814646, 
			 "HOMO_LUMO_gap": 0.36392, 
			 "cosmo_polarized_energy": -0.48, 
			 "cosmo_cavitation_energy": 25.95, 
			 "cosmo_dispersion_energy": -19.64, 
			 "cosmo_repulsion_energy": 1.58, 
			 "cosmo_total_nonelectrostatic_energy": 7.9, 
			 "SMD_solvation_energy": 2.87 
		},
		"coords": [
			{
				"x": -1.3490739038,
				"y": -1.918494166,
				"z": -1.4098789319,
				"element": "C" 
			},
			{
				"x": -2.5535813188,
				"y": -1.1440694622,
				"z": -0.8545791627,
				"element": "C" 
			},
			{
				"x": -2.1221089339,
				"y": -0.1311163624,
				"z": 0.2161291624,
				"element": "C" 
			},
			{
				"x": -1.0350368089,
				"y": 0.8284388632,
				"z": -0.2975990472,
				"element": "C" 
			},
			{
				"x": -0.596836551,
				"y": 1.8397368724,
				"z": 0.7751877865,
				"element": "C" 
			},
			{
				"x": 0.4926663508,
				"y": 2.792922902,
				"z": 0.2618214307,
				"element": "C" 
			},
			{
				"x": 1.6971747125,
				"y": 2.0184981386,
				"z": -0.2934773225,
				"element": "C" 
			},
			{
				"x": 1.265702109,
				"y": 1.0055432019,
				"z": -1.3641854822,
				"element": "C" 
			},
			{
				"x": 0.1786297398,
				"y": 0.0459903095,
				"z": -0.8504584505,
				"element": "C" 
			},
			{
				"x": -0.2595714836,
				"y": -0.9653076745,
				"z": -1.9232462623,
				"element": "C" 
			},
			{
				"x": -0.929534456,
				"y": -2.5514043547,
				"z": -0.6148046999,
				"element": "H" 
			},
			{
				"x": -1.6682284848,
				"y": -2.5969215665,
				"z": -2.210455488,
				"element": "H" 
			},
			{
				"x": -3.2963059157,
				"y": -1.8383293857,
				"z": -0.4429333326,
				"element": "H" 
			},
			{
				"x": -3.0498030042,
				"y": -0.6100461538,
				"z": -1.6775423392,
				"element": "H" 
			},
			{
				"x": -2.9891060669,
				"y": 0.4434926764,
				"z": 0.5672006841,
				"element": "H" 
			},
			{
				"x": -1.7344012723,
				"y": -0.6719143475,
				"z": 1.0924563657,
				"element": "H" 
			},
			{
				"x": -1.4634671057,
				"y": 1.3988744085,
				"z": -1.1397528733,
				"element": "H" 
			},
			{
				"x": -1.4668117807,
				"y": 2.4102592899,
				"z": 1.1254982497,
				"element": "H" 
			},
			{
				"x": -0.2157610398,
				"y": 1.2896541648,
				"z": 1.6486322164,
				"element": "H" 
			},
			{
				"x": 0.073128365,
				"y": 3.425833628,
				"z": -0.5332524216,
				"element": "H" 
			},
			{
				"x": 0.8118202676,
				"y": 3.4713492218,
				"z": 1.0623994171,
				"element": "H" 
			},
			{
				"x": 2.4398983208,
				"y": 2.7127573703,
				"z": -0.7051248263,
				"element": "H" 
			},
			{
				"x": 2.1933965396,
				"y": 1.4844751646,
				"z": 0.5294861914,
				"element": "H" 
			},
			{
				"x": 0.877996971,
				"y": 1.5463413024,
				"z": -2.2405131202,
				"element": "H" 
			},
			{
				"x": 2.1327004172,
				"y": 0.4309342264,
				"z": -1.7152550784,
				"element": "H" 
			},
			{
				"x": 0.6070591896,
				"y": -0.5244461806,
				"z": -0.0083050745,
				"element": "H" 
			},
			{
				"x": -0.6406487647,
				"y": -0.4152234684,
				"z": -2.7966887772,
				"element": "H" 
			},
			{
				"x": 0.6104039077,
				"y": -1.5358286184,
				"z": -2.2735588137,
				"element": "H" 
			}
		],
		 "valence_orbital": [ 
			{
				"type": "occ",
				"energy": -0.31863,
				"method": "rhf"
			},
			{
				"type": "occ",
				"energy": -0.31129,
				"method": "rhf"
			},
			{
				"type": "occ",
				"energy": -0.3055,
				"method": "rhf"
			},
			{
				"type": "occ",
				"energy": -0.27732,
				"method": "rhf"
			},
			{
				"type": "occ",
				"energy": -0.27342,
				"method": "rhf"
			},
			{
				"type": "unocc",
				"energy": 0.0905,
				"method": "rhf"
			},
			{
				"type": "unocc",
				"energy": 0.09576,
				"method": "rhf"
			},
			{
				"type": "unocc",
				"energy": 0.10293,
				"method": "rhf"
			},
			{
				"type": "unocc",
				"energy": 0.11646,
				"method": "rhf"
			},
			{
				"type": "unocc",
				"energy": 0.1418,
				"method": "rhf"
			}
		],
		"cosmo_sigma_profile": { 
			"-0.025": 0.0,
			"-0.024": 0.0,
			"-0.023": 0.0,
			"-0.022": 0.0,
			"-0.021": 0.0,
			"-0.02": 0.0,
			"-0.019": 0.0,
			"-0.018": 0.0,
			"-0.017": 0.0,
			"-0.016": 0.0,
			"-0.015": 0.0,
			"-0.014": 0.0,
			"-0.013": 0.0,
			"-0.012": 0.0,
			"-0.011": 0.0,
			"-0.01": 0.0,
			"-0.009": 0.0,
			"-0.008": 0.0,
			"-0.007": 0.0,
			"-0.006": 0.0,
			"-0.005": 0.0,
			"-0.004": 0.0,
			"-0.003": 0.377096552836,
			"-0.002": 17.6986135987,
			"-0.001": 50.0788295655,
			"0.0": 62.0662683774,
			"0.001": 45.5324879529,
			"0.002": 21.1435917829,
			"0.003": 0.390742613746,
			"0.004": 0.0,
			"0.005": 0.0,
			"0.006": 0.0,
			"0.007": 0.0,
			"0.008": 0.0,
			"0.009": 0.0,
			"0.01": 0.0,
			"0.011": 0.0,
			"0.012": 0.0,
			"0.013": 0.0,
			"0.014": 0.0,
			"0.015": 0.0,
			"0.016": 0.0,
			"0.017": 0.0,
			"0.018": 0.0,
			"0.019": 0.0,
			"0.02": 0.0,
			"0.021": 0.0,
			"0.022": 0.0,
			"0.023": 0.0,
			"0.024": 0.0,
			"0.025": 0.0
		}
	}
}
