{
	 "smiles": "CC1=NOC(N)=N1", 
	 "Tm": 435.15, 
	 "num_atms": 12, 
	 "gaussian": { 
		 "optdone": 1, 
		 "sigma_profile": "yes", 
		 "theory": "DFT", 
		 "functional": "B3LYP", 
		 "basiset": "6-31G**", 
		 "properties": { 
			 "R2extent": 1351.3839, 
			 "electric_dipole_moment_norm": 2.74880783795, 
			 "electric_quadrupole_moment_norm": 14.9855617486, 
			 "total_energy": -356.781339305, 
			 "HOMO_LUMO_gap": 0.25068, 
			 "cosmo_polarized_energy": -12.45, 
			 "cosmo_cavitation_energy": 16.49, 
			 "cosmo_dispersion_energy": -12.65, 
			 "cosmo_repulsion_energy": 1.09, 
			 "cosmo_total_nonelectrostatic_energy": 4.94, 
			 "SMD_solvation_energy": 1.25 
		},
		"coords": [
			{
				"x": -1.2154714081,
				"y": 0.7622709681,
				"z": -1.1774548089,
				"element": "C" 
			},
			{
				"x": -0.9711094406,
				"y": -0.6166095159,
				"z": -0.6616464733,
				"element": "C" 
			},
			{
				"x": 0.1954767185,
				"y": -1.1981111516,
				"z": -0.7912746501,
				"element": "N" 
			},
			{
				"x": -0.018105142,
				"y": -2.4718252725,
				"z": -0.1728687735,
				"element": "O" 
			},
			{
				"x": -1.2930416352,
				"y": -2.4625611591,
				"z": 0.2392849101,
				"element": "C" 
			},
			{
				"x": -1.7757331108,
				"y": -3.5879601271,
				"z": 0.8277910737,
				"element": "N" 
			},
			{
				"x": -1.9414514038,
				"y": -1.3568636945,
				"z": -0.0221753086,
				"element": "N" 
			},
			{
				"x": -2.0234785446,
				"y": 0.7511636424,
				"z": -1.9153207297,
				"element": "H" 
			},
			{
				"x": -0.3108913891,
				"y": 1.160323605,
				"z": -1.6399786104,
				"element": "H" 
			},
			{
				"x": -1.5241466739,
				"y": 1.4219132877,
				"z": -0.3607182996,
				"element": "H" 
			},
			{
				"x": -2.6397014419,
				"y": -3.4759722293,
				"z": 1.3355160348,
				"element": "H" 
			},
			{
				"x": -1.1020465286,
				"y": -4.2298683532,
				"z": 1.2168456353,
				"element": "H" 
			}
		],
		 "valence_orbital": [ 
			{
				"type": "occ",
				"energy": -0.34941,
				"method": "rhf"
			},
			{
				"type": "occ",
				"energy": -0.33124,
				"method": "rhf"
			},
			{
				"type": "occ",
				"energy": -0.30738,
				"method": "rhf"
			},
			{
				"type": "occ",
				"energy": -0.28369,
				"method": "rhf"
			},
			{
				"type": "occ",
				"energy": -0.24149,
				"method": "rhf"
			},
			{
				"type": "unocc",
				"energy": 0.00919,
				"method": "rhf"
			},
			{
				"type": "unocc",
				"energy": 0.05391,
				"method": "rhf"
			},
			{
				"type": "unocc",
				"energy": 0.06675,
				"method": "rhf"
			},
			{
				"type": "unocc",
				"energy": 0.10084,
				"method": "rhf"
			},
			{
				"type": "unocc",
				"energy": 0.11823,
				"method": "rhf"
			}
		],
		"cosmo_sigma_profile": { 
			"-0.025": 0.0,
			"-0.024": 0.0,
			"-0.023": 0.0,
			"-0.022": 0.0,
			"-0.021": 0.0,
			"-0.02": 0.0,
			"-0.019": 0.0,
			"-0.018": 0.0,
			"-0.017": 0.0,
			"-0.016": 0.479047963143,
			"-0.015": 2.61129857602,
			"-0.014": 2.78933549668,
			"-0.013": 2.414779027,
			"-0.012": 2.5161785428,
			"-0.011": 1.66698577734,
			"-0.01": 1.94567117128,
			"-0.009": 1.77682066963,
			"-0.008": 1.45910094697,
			"-0.007": 1.67232529272,
			"-0.006": 4.83505456784,
			"-0.005": 6.96063118469,
			"-0.004": 7.47180255707,
			"-0.003": 8.73675128361,
			"-0.002": 10.9952317739,
			"-0.001": 10.1360898456,
			"0.0": 6.80524939266,
			"0.001": 6.35614125961,
			"0.002": 4.22304884497,
			"0.003": 4.13937540382,
			"0.004": 4.42269265566,
			"0.005": 4.74322645187,
			"0.006": 3.77111381811,
			"0.007": 5.08876133136,
			"0.008": 5.73745826778,
			"0.009": 3.87979633321,
			"0.01": 2.6757515141,
			"0.011": 2.26059317045,
			"0.012": 2.41904540129,
			"0.013": 2.46039926164,
			"0.014": 2.16520835433,
			"0.015": 1.20639880012,
			"0.016": 0.230465743788,
			"0.017": 0.0,
			"0.018": 0.0,
			"0.019": 0.0,
			"0.02": 0.0,
			"0.021": 0.0,
			"0.022": 0.0,
			"0.023": 0.0,
			"0.024": 0.0,
			"0.025": 0.0
		}
	}
}
