{
	 "smiles": "CCC(=O)NC1=CC(=CC=C1)C(O)=O", 
	 "Tm": 503.15, 
	 "num_atms": 25, 
	 "gaussian": { 
		 "optdone": 1, 
		 "sigma_profile": "yes", 
		 "theory": "DFT", 
		 "functional": "B3LYP", 
		 "basiset": "6-31G**", 
		 "properties": { 
			 "R2extent": 4492.648, 
			 "electric_dipole_moment_norm": 3.95125474881, 
			 "electric_quadrupole_moment_norm": 12.5081590588, 
			 "total_energy": -668.154979054, 
			 "HOMO_LUMO_gap": 0.17821, 
			 "cosmo_polarized_energy": -15.95, 
			 "cosmo_cavitation_energy": 29.62, 
			 "cosmo_dispersion_energy": -20.95, 
			 "cosmo_repulsion_energy": 1.66, 
			 "cosmo_total_nonelectrostatic_energy": 10.33, 
			 "SMD_solvation_energy": 7.03 
		},
		"coords": [
			{
				"x": -0.5905155166,
				"y": -0.4298798761,
				"z": -1.877496603,
				"element": "C" 
			},
			{
				"x": -0.8940755902,
				"y": -1.1756411423,
				"z": -0.5689391526,
				"element": "C" 
			},
			{
				"x": -2.3327189344,
				"y": -0.9580418084,
				"z": -0.1230760354,
				"element": "C" 
			},
			{
				"x": -3.2733404361,
				"y": -1.3435026923,
				"z": -0.8032222651,
				"element": "O" 
			},
			{
				"x": -2.5899990975,
				"y": -0.3588319389,
				"z": 1.1019895023,
				"element": "N" 
			},
			{
				"x": -1.745791708,
				"y": 0.2681786497,
				"z": 2.0436003686,
				"element": "C" 
			},
			{
				"x": -0.7035950525,
				"y": 1.120419016,
				"z": 1.6656855608,
				"element": "C" 
			},
			{
				"x": 0.0959402982,
				"y": 1.7304917442,
				"z": 2.6395935713,
				"element": "C" 
			},
			{
				"x": -0.1607546288,
				"y": 1.5284413613,
				"z": 4.0010776519,
				"element": "C" 
			},
			{
				"x": -1.2221065012,
				"y": 0.7057165508,
				"z": 4.3770250795,
				"element": "C" 
			},
			{
				"x": -2.0022687132,
				"y": 0.0734261535,
				"z": 3.4116237118,
				"element": "C" 
			},
			{
				"x": 1.1948666931,
				"y": 2.6144993499,
				"z": 2.1622930131,
				"element": "C" 
			},
			{
				"x": 1.9011630586,
				"y": 3.1766589704,
				"z": 3.1735828963,
				"element": "O" 
			},
			{
				"x": 1.4556924342,
				"y": 2.8279492965,
				"z": 0.9947406888,
				"element": "O" 
			},
			{
				"x": -0.6093373701,
				"y": 0.6562876138,
				"z": -1.7384879303,
				"element": "H" 
			},
			{
				"x": -1.3358965219,
				"y": -0.6880321241,
				"z": -2.633835899,
				"element": "H" 
			},
			{
				"x": 0.3998655516,
				"y": -0.7010924177,
				"z": -2.2536138284,
				"element": "H" 
			},
			{
				"x": -0.813121567,
				"y": -2.2540297528,
				"z": -0.7460845554,
				"element": "H" 
			},
			{
				"x": -0.173019011,
				"y": -0.9183696638,
				"z": 0.2093816345,
				"element": "H" 
			},
			{
				"x": -3.5742066678,
				"y": -0.4116980894,
				"z": 1.3374162615,
				"element": "H" 
			},
			{
				"x": -0.5065984652,
				"y": 1.3434274505,
				"z": 0.624157475,
				"element": "H" 
			},
			{
				"x": 0.4578728528,
				"y": 2.0139618742,
				"z": 4.7461580754,
				"element": "H" 
			},
			{
				"x": -1.4366931964,
				"y": 0.5437965296,
				"z": 5.4289374976,
				"element": "H" 
			},
			{
				"x": -2.8134676729,
				"y": -0.5852110373,
				"z": 3.7097143196,
				"element": "H" 
			},
			{
				"x": 2.5816057621,
				"y": 3.7241759824,
				"z": 2.7485789613,
				"element": "H" 
			}
		],
		 "valence_orbital": [ 
			{
				"type": "occ",
				"energy": -0.30265,
				"method": "rhf"
			},
			{
				"type": "occ",
				"energy": -0.28462,
				"method": "rhf"
			},
			{
				"type": "occ",
				"energy": -0.27237,
				"method": "rhf"
			},
			{
				"type": "occ",
				"energy": -0.25248,
				"method": "rhf"
			},
			{
				"type": "occ",
				"energy": -0.23667,
				"method": "rhf"
			},
			{
				"type": "unocc",
				"energy": -0.05846,
				"method": "rhf"
			},
			{
				"type": "unocc",
				"energy": -0.02364,
				"method": "rhf"
			},
			{
				"type": "unocc",
				"energy": 0.02104,
				"method": "rhf"
			},
			{
				"type": "unocc",
				"energy": 0.05093,
				"method": "rhf"
			},
			{
				"type": "unocc",
				"energy": 0.07051,
				"method": "rhf"
			}
		],
		"cosmo_sigma_profile": { 
			"-0.025": 0.0,
			"-0.024": 0.0,
			"-0.023": 0.0,
			"-0.022": 0.0,
			"-0.021": 0.0,
			"-0.02": 0.0,
			"-0.019": 0.143218659924,
			"-0.018": 0.912830596255,
			"-0.017": 0.822576339222,
			"-0.016": 0.903169773387,
			"-0.015": 0.845572844301,
			"-0.014": 1.33082472114,
			"-0.013": 1.4524652346,
			"-0.012": 2.25487704653,
			"-0.011": 1.5803653309,
			"-0.01": 1.75504809453,
			"-0.009": 2.17356460966,
			"-0.008": 2.67107071815,
			"-0.007": 6.3782880527,
			"-0.006": 8.10632957857,
			"-0.005": 12.3165734848,
			"-0.004": 13.8557844628,
			"-0.003": 19.3746857506,
			"-0.002": 20.0328460438,
			"-0.001": 19.4379774454,
			"0.0": 21.3430100488,
			"0.001": 19.3991187154,
			"0.002": 16.0221419012,
			"0.003": 13.5109990972,
			"0.004": 5.47054369671,
			"0.005": 5.61367758154,
			"0.006": 3.30893039013,
			"0.007": 5.25402338018,
			"0.008": 3.03965590871,
			"0.009": 2.1849397719,
			"0.01": 3.52346486862,
			"0.011": 5.76939003855,
			"0.012": 5.32476362088,
			"0.013": 5.17914499961,
			"0.014": 3.48619336154,
			"0.015": 0.276510759762,
			"0.016": 0.0,
			"0.017": 0.0,
			"0.018": 0.0,
			"0.019": 0.0,
			"0.02": 0.0,
			"0.021": 0.0,
			"0.022": 0.0,
			"0.023": 0.0,
			"0.024": 0.0,
			"0.025": 0.0
		}
	}
}
