{
	 "smiles": "CC1=CC(N)=NN1C1=CC=C(C)C=C1", 
	 "Tm": 373.15, 
	 "num_atms": 27, 
	 "gaussian": { 
		 "optdone": 1, 
		 "sigma_profile": "yes", 
		 "theory": "DFT", 
		 "functional": "B3LYP", 
		 "basiset": "6-31G**", 
		 "properties": { 
			 "R2extent": 4135.8136, 
			 "electric_dipole_moment_norm": 2.03072323323, 
			 "electric_quadrupole_moment_norm": 13.5067793759, 
			 "total_energy": -591.25431489, 
			 "HOMO_LUMO_gap": 0.1823, 
			 "cosmo_polarized_energy": -11.85, 
			 "cosmo_cavitation_energy": 30.29, 
			 "cosmo_dispersion_energy": -22.17, 
			 "cosmo_repulsion_energy": 1.76, 
			 "cosmo_total_nonelectrostatic_energy": 9.88, 
			 "SMD_solvation_energy": 4.45 
		},
		"coords": [
			{
				"x": -1.9899655696,
				"y": -0.1106418771,
				"z": 0.7613776429,
				"element": "C" 
			},
			{
				"x": -0.975077144,
				"y": -1.1596787495,
				"z": 0.4275238649,
				"element": "C" 
			},
			{
				"x": -1.1608447245,
				"y": -2.3568517376,
				"z": -0.2356779252,
				"element": "C" 
			},
			{
				"x": 0.1324353599,
				"y": -2.9317959512,
				"z": -0.337872041,
				"element": "C" 
			},
			{
				"x": 0.4650838489,
				"y": -4.1798039137,
				"z": -0.8640456774,
				"element": "N" 
			},
			{
				"x": 1.060087566,
				"y": -2.1561923256,
				"z": 0.2088537319,
				"element": "N" 
			},
			{
				"x": 0.3691122146,
				"y": -1.0737316347,
				"z": 0.7014060262,
				"element": "N" 
			},
			{
				"x": 1.1068634934,
				"y": -0.0204521366,
				"z": 1.2972572492,
				"element": "C" 
			},
			{
				"x": 0.6031523252,
				"y": 0.7046495932,
				"z": 2.3821327326,
				"element": "C" 
			},
			{
				"x": 1.3558728365,
				"y": 1.7400038056,
				"z": 2.9380867614,
				"element": "C" 
			},
			{
				"x": 2.6269417473,
				"y": 2.0631385476,
				"z": 2.4521394189,
				"element": "C" 
			},
			{
				"x": 3.431596588,
				"y": 3.1948034998,
				"z": 3.046360114,
				"element": "C" 
			},
			{
				"x": 3.1280502404,
				"y": 1.3037579974,
				"z": 1.3836438525,
				"element": "C" 
			},
			{
				"x": 2.3849224321,
				"y": 0.2805083243,
				"z": 0.8058635933,
				"element": "C" 
			},
			{
				"x": -2.8637380159,
				"y": -0.2401001848,
				"z": 0.1179849463,
				"element": "H" 
			},
			{
				"x": -2.335906653,
				"y": -0.1755195682,
				"z": 1.7997437775,
				"element": "H" 
			},
			{
				"x": -1.5979789073,
				"y": 0.8989970674,
				"z": 0.6074644469,
				"element": "H" 
			},
			{
				"x": -2.0989866008,
				"y": -2.7581137813,
				"z": -0.5908818618,
				"element": "H" 
			},
			{
				"x": 1.4631250794,
				"y": -4.271212977,
				"z": -1.011659478,
				"element": "H" 
			},
			{
				"x": -0.0509372377,
				"y": -4.4167340212,
				"z": -1.7017041342,
				"element": "H" 
			},
			{
				"x": -0.3558646238,
				"y": 0.4461654613,
				"z": 2.8147716831,
				"element": "H" 
			},
			{
				"x": 0.949272373,
				"y": 2.2920468665,
				"z": 3.7818145153,
				"element": "H" 
			},
			{
				"x": 3.3963320235,
				"y": 4.0876169892,
				"z": 2.4093095726,
				"element": "H" 
			},
			{
				"x": 4.4860600314,
				"y": 2.9214178831,
				"z": 3.1579055118,
				"element": "H" 
			},
			{
				"x": 3.0520750544,
				"y": 3.4810484652,
				"z": 4.0315267249,
				"element": "H" 
			},
			{
				"x": 4.1188633134,
				"y": 1.5219333717,
				"z": 0.992150339,
				"element": "H" 
			},
			{
				"x": 2.7787529492,
				"y": -0.3057590138,
				"z": -0.0154753879,
				"element": "H" 
			}
		],
		 "valence_orbital": [ 
			{
				"type": "occ",
				"energy": -0.27537,
				"method": "rhf"
			},
			{
				"type": "occ",
				"energy": -0.24857,
				"method": "rhf"
			},
			{
				"type": "occ",
				"energy": -0.24744,
				"method": "rhf"
			},
			{
				"type": "occ",
				"energy": -0.22381,
				"method": "rhf"
			},
			{
				"type": "occ",
				"energy": -0.19044,
				"method": "rhf"
			},
			{
				"type": "unocc",
				"energy": -0.00814,
				"method": "rhf"
			},
			{
				"type": "unocc",
				"energy": -0.00014,
				"method": "rhf"
			},
			{
				"type": "unocc",
				"energy": 0.04497,
				"method": "rhf"
			},
			{
				"type": "unocc",
				"energy": 0.08427,
				"method": "rhf"
			},
			{
				"type": "unocc",
				"energy": 0.09392,
				"method": "rhf"
			}
		],
		"cosmo_sigma_profile": { 
			"-0.025": 0.0,
			"-0.024": 0.0,
			"-0.023": 0.0,
			"-0.022": 0.0,
			"-0.021": 0.0,
			"-0.02": 0.0,
			"-0.019": 0.0,
			"-0.018": 0.0,
			"-0.017": 0.0,
			"-0.016": 0.0,
			"-0.015": 0.0,
			"-0.014": 0.0,
			"-0.013": 0.215660892776,
			"-0.012": 1.86791926966,
			"-0.011": 2.3897452356,
			"-0.01": 1.82271494444,
			"-0.009": 2.88810802529,
			"-0.008": 2.33284568958,
			"-0.007": 3.64818118754,
			"-0.006": 7.6937037642,
			"-0.005": 14.9150510472,
			"-0.004": 23.0005024729,
			"-0.003": 21.011212153,
			"-0.002": 21.2435684558,
			"-0.001": 21.3712583153,
			"0.0": 18.8548807279,
			"0.001": 13.8163772531,
			"0.002": 10.9886042764,
			"0.003": 11.6309237005,
			"0.004": 13.1338161535,
			"0.005": 17.09761504,
			"0.006": 9.10725713411,
			"0.007": 4.23300168355,
			"0.008": 3.44886669807,
			"0.009": 2.82596150412,
			"0.01": 2.03175375997,
			"0.011": 1.84057511849,
			"0.012": 1.82160992291,
			"0.013": 1.23398779715,
			"0.014": 1.86671032577,
			"0.015": 1.2428390341,
			"0.016": 0.484058444032,
			"0.017": 0.0,
			"0.018": 0.0,
			"0.019": 0.0,
			"0.02": 0.0,
			"0.021": 0.0,
			"0.022": 0.0,
			"0.023": 0.0,
			"0.024": 0.0,
			"0.025": 0.0
		}
	}
}
