{
	 "smiles": "ClCC1NS(=O)(=O)N=C2CCCCCN12", 
	 "Tm": 455.15, 
	 "num_atms": 29, 
	 "gaussian": { 
		 "optdone": 1, 
		 "sigma_profile": "yes", 
		 "theory": "DFT", 
		 "functional": "B3LYP", 
		 "basiset": "6-31G**", 
		 "properties": { 
			 "R2extent": 4010.506, 
			 "electric_dipole_moment_norm": 7.66713197291, 
			 "electric_quadrupole_moment_norm": 21.3692774501, 
			 "total_energy": -1486.28561802, 
			 "HOMO_LUMO_gap": 0.2269, 
			 "cosmo_polarized_energy": -23.68, 
			 "cosmo_cavitation_energy": 32.16, 
			 "cosmo_dispersion_energy": -24.29, 
			 "cosmo_repulsion_energy": 1.85, 
			 "cosmo_total_nonelectrostatic_energy": 9.71, 
			 "SMD_solvation_energy": 1.02 
		},
		"coords": [
			{
				"x": 1.4771905319,
				"y": 1.4076657588,
				"z": -2.807685233,
				"element": "Cl" 
			},
			{
				"x": 1.7892974868,
				"y": 0.2391153628,
				"z": -1.4611396562,
				"element": "C" 
			},
			{
				"x": 0.5295680092,
				"y": -0.4143623089,
				"z": -0.848526664,
				"element": "C" 
			},
			{
				"x": 0.9357991973,
				"y": -1.7521881631,
				"z": -0.4575734154,
				"element": "N" 
			},
			{
				"x": -0.3251493184,
				"y": -2.5857307024,
				"z": 0.3472289032,
				"element": "S" 
			},
			{
				"x": 0.271165682,
				"y": -3.7947319858,
				"z": 0.8913578949,
				"element": "O" 
			},
			{
				"x": -1.4441310924,
				"y": -2.6319619789,
				"z": -0.5905576633,
				"element": "O" 
			},
			{
				"x": -0.6617651294,
				"y": -1.5505583814,
				"z": 1.6031339895,
				"element": "N" 
			},
			{
				"x": -0.5283082446,
				"y": -0.2620004498,
				"z": 1.4065331,
				"element": "C" 
			},
			{
				"x": -0.9476803389,
				"y": 0.5814744995,
				"z": 2.5906046385,
				"element": "C" 
			},
			{
				"x": -2.3947188439,
				"y": 1.0941408821,
				"z": 2.4563390352,
				"element": "C" 
			},
			{
				"x": -2.6311704665,
				"y": 1.8071200541,
				"z": 1.1134829168,
				"element": "C" 
			},
			{
				"x": -1.3903933906,
				"y": 2.5997022593,
				"z": 0.6803622991,
				"element": "C" 
			},
			{
				"x": -0.3255938242,
				"y": 1.7850300577,
				"z": -0.0822823299,
				"element": "C" 
			},
			{
				"x": -0.0413244212,
				"y": 0.3712653796,
				"z": 0.2910815858,
				"element": "N" 
			},
			{
				"x": 2.3739200974,
				"y": 0.7623405328,
				"z": -0.702489474,
				"element": "H" 
			},
			{
				"x": 2.3877284528,
				"y": -0.5561154476,
				"z": -1.9027375307,
				"element": "H" 
			},
			{
				"x": -0.2413881324,
				"y": -0.5216456218,
				"z": -1.6203079439,
				"element": "H" 
			},
			{
				"x": 1.7533771175,
				"y": -1.762946103,
				"z": 0.1522886088,
				"element": "H" 
			},
			{
				"x": -0.2521266624,
				"y": 1.4163098779,
				"z": 2.7161983832,
				"element": "H" 
			},
			{
				"x": -0.8613796025,
				"y": -0.0593752414,
				"z": 3.4694042727,
				"element": "H" 
			},
			{
				"x": -3.0872743051,
				"y": 0.254519295,
				"z": 2.5705999942,
				"element": "H" 
			},
			{
				"x": -2.5856856882,
				"y": 1.7835063974,
				"z": 3.2871783777,
				"element": "H" 
			},
			{
				"x": -2.8874459786,
				"y": 1.0752684574,
				"z": 0.3372411493,
				"element": "H" 
			},
			{
				"x": -3.4928282246,
				"y": 2.4773801237,
				"z": 1.1969424092,
				"element": "H" 
			},
			{
				"x": -1.6756621067,
				"y": 3.4003162303,
				"z": -0.0110627245,
				"element": "H" 
			},
			{
				"x": -0.9502405663,
				"y": 3.1034391011,
				"z": 1.5478642585,
				"element": "H" 
			},
			{
				"x": -0.6572553918,
				"y": 1.7337090216,
				"z": -1.1242629673,
				"element": "H" 
			},
			{
				"x": 0.6150751536,
				"y": 2.3470130933,
				"z": -0.0897162145,
				"element": "H" 
			}
		],
		 "valence_orbital": [ 
			{
				"type": "occ",
				"energy": -0.31381,
				"method": "rhf"
			},
			{
				"type": "occ",
				"energy": -0.31139,
				"method": "rhf"
			},
			{
				"type": "occ",
				"energy": -0.30278,
				"method": "rhf"
			},
			{
				"type": "occ",
				"energy": -0.2711,
				"method": "rhf"
			},
			{
				"type": "occ",
				"energy": -0.25354,
				"method": "rhf"
			},
			{
				"type": "unocc",
				"energy": -0.02664,
				"method": "rhf"
			},
			{
				"type": "unocc",
				"energy": -0.00589,
				"method": "rhf"
			},
			{
				"type": "unocc",
				"energy": 0.05579,
				"method": "rhf"
			},
			{
				"type": "unocc",
				"energy": 0.06526,
				"method": "rhf"
			},
			{
				"type": "unocc",
				"energy": 0.07747,
				"method": "rhf"
			}
		],
		"cosmo_sigma_profile": { 
			"-0.025": 0.0,
			"-0.024": 0.0,
			"-0.023": 0.0,
			"-0.022": 0.0,
			"-0.021": 0.0,
			"-0.02": 0.0,
			"-0.019": 0.0,
			"-0.018": 0.0,
			"-0.017": 0.0,
			"-0.016": 1.00692660529,
			"-0.015": 1.61842394789,
			"-0.014": 1.34988841623,
			"-0.013": 1.06525504219,
			"-0.012": 1.56334590975,
			"-0.011": 1.43151321317,
			"-0.01": 1.11069419065,
			"-0.009": 2.77687805275,
			"-0.008": 6.49162325553,
			"-0.007": 7.1029921039,
			"-0.006": 10.785617805,
			"-0.005": 16.9432297176,
			"-0.004": 22.9554671504,
			"-0.003": 25.8377484723,
			"-0.002": 25.0525669986,
			"-0.001": 18.7689731842,
			"0.0": 13.1427449154,
			"0.001": 7.244769802,
			"0.002": 5.81781741083,
			"0.003": 9.73024241405,
			"0.004": 8.83239163842,
			"0.005": 10.0573160029,
			"0.006": 8.05870339997,
			"0.007": 5.08394271481,
			"0.008": 4.57973166005,
			"0.009": 5.42684529994,
			"0.01": 10.5477901408,
			"0.011": 13.8269922134,
			"0.012": 3.86299863391,
			"0.013": 0.934927622193,
			"0.014": 0.764239502808,
			"0.015": 0.0137860009657,
			"0.016": 0.0,
			"0.017": 0.0,
			"0.018": 0.0,
			"0.019": 0.0,
			"0.02": 0.0,
			"0.021": 0.0,
			"0.022": 0.0,
			"0.023": 0.0,
			"0.024": 0.0,
			"0.025": 0.0
		}
	}
}
