{
	 "smiles": "NC1=NN=C(CC(F)(F)F)O1", 
	 "Tm": 406.15, 
	 "num_atms": 15, 
	 "gaussian": { 
		 "optdone": 1, 
		 "sigma_profile": "yes", 
		 "theory": "DFT", 
		 "functional": "B3LYP", 
		 "basiset": "6-31G**", 
		 "properties": { 
			 "R2extent": 2236.9431, 
			 "electric_dipole_moment_norm": 3.26955983276, 
			 "electric_quadrupole_moment_norm": 23.1497888291, 
			 "total_energy": -693.81358879, 
			 "HOMO_LUMO_gap": 0.23658, 
			 "cosmo_polarized_energy": -15.71, 
			 "cosmo_cavitation_energy": 21.72, 
			 "cosmo_dispersion_energy": -15.53, 
			 "cosmo_repulsion_energy": 1.22, 
			 "cosmo_total_nonelectrostatic_energy": 7.41, 
			 "SMD_solvation_energy": 3.33 
		},
		"coords": [
			{
				"x": 1.9472103166,
				"y": 3.9109614861,
				"z": 0.505511618,
				"element": "N" 
			},
			{
				"x": 1.5215618267,
				"y": 2.6328027706,
				"z": 0.729305198,
				"element": "C" 
			},
			{
				"x": 1.8099846467,
				"y": 1.8413226465,
				"z": 1.7209186502,
				"element": "N" 
			},
			{
				"x": 1.179994827,
				"y": 0.6266392675,
				"z": 1.4198471065,
				"element": "N" 
			},
			{
				"x": 0.5666763658,
				"y": 0.786468261,
				"z": 0.2978458578,
				"element": "C" 
			},
			{
				"x": -0.242930683,
				"y": -0.2018255673,
				"z": -0.4614525634,
				"element": "C" 
			},
			{
				"x": -1.7118488004,
				"y": 0.1739145402,
				"z": -0.5918851731,
				"element": "C" 
			},
			{
				"x": -2.2880338233,
				"y": 0.3594331635,
				"z": 0.6104063295,
				"element": "F" 
			},
			{
				"x": -1.8732117933,
				"y": 1.3095673412,
				"z": -1.3023222956,
				"element": "F" 
			},
			{
				"x": -2.3866032105,
				"y": -0.8053684864,
				"z": -1.2291556367,
				"element": "F" 
			},
			{
				"x": 0.7407120099,
				"y": 2.052562763,
				"z": -0.2200677277,
				"element": "O" 
			},
			{
				"x": 1.3167647962,
				"y": 4.4978196428,
				"z": -0.0227848912,
				"element": "H" 
			},
			{
				"x": 2.3435510288,
				"y": 4.3511051832,
				"z": 1.3241767283,
				"element": "H" 
			},
			{
				"x": 0.1497396811,
				"y": -0.3386225706,
				"z": -1.4743522019,
				"element": "H" 
			},
			{
				"x": -0.1810671882,
				"y": -1.1549804412,
				"z": 0.0668090014,
				"element": "H" 
			}
		],
		 "valence_orbital": [ 
			{
				"type": "occ",
				"energy": -0.35581,
				"method": "rhf"
			},
			{
				"type": "occ",
				"energy": -0.34407,
				"method": "rhf"
			},
			{
				"type": "occ",
				"energy": -0.32141,
				"method": "rhf"
			},
			{
				"type": "occ",
				"energy": -0.27856,
				"method": "rhf"
			},
			{
				"type": "occ",
				"energy": -0.2423,
				"method": "rhf"
			},
			{
				"type": "unocc",
				"energy": -0.00572,
				"method": "rhf"
			},
			{
				"type": "unocc",
				"energy": 0.04206,
				"method": "rhf"
			},
			{
				"type": "unocc",
				"energy": 0.06351,
				"method": "rhf"
			},
			{
				"type": "unocc",
				"energy": 0.09982,
				"method": "rhf"
			},
			{
				"type": "unocc",
				"energy": 0.10937,
				"method": "rhf"
			}
		],
		"cosmo_sigma_profile": { 
			"-0.025": 0.0,
			"-0.024": 0.0,
			"-0.023": 0.0,
			"-0.022": 0.0,
			"-0.021": 0.0,
			"-0.02": 0.0,
			"-0.019": 0.0,
			"-0.018": 0.0,
			"-0.017": 0.0,
			"-0.016": 0.253375391119,
			"-0.015": 2.59329456237,
			"-0.014": 2.99972927597,
			"-0.013": 2.11020464801,
			"-0.012": 2.47383276747,
			"-0.011": 2.96472157375,
			"-0.01": 3.20208234103,
			"-0.009": 6.22474166274,
			"-0.008": 5.50742083239,
			"-0.007": 5.83374976878,
			"-0.006": 5.49140371594,
			"-0.005": 5.73835360843,
			"-0.004": 5.9414406263,
			"-0.003": 6.42259902698,
			"-0.002": 6.05547497929,
			"-0.001": 6.5528290846,
			"0.0": 6.88979197232,
			"0.001": 9.92649031048,
			"0.002": 26.1656644077,
			"0.003": 23.4230180955,
			"0.004": 5.66049345021,
			"0.005": 3.74270124264,
			"0.006": 2.31593768928,
			"0.007": 2.41466607234,
			"0.008": 2.72804816924,
			"0.009": 2.12876865023,
			"0.01": 2.97815202704,
			"0.011": 2.85277559387,
			"0.012": 3.50983184241,
			"0.013": 3.17759393971,
			"0.014": 2.6346944822,
			"0.015": 1.89473170511,
			"0.016": 0.744299949588,
			"0.017": 0.0,
			"0.018": 0.0,
			"0.019": 0.0,
			"0.02": 0.0,
			"0.021": 0.0,
			"0.022": 0.0,
			"0.023": 0.0,
			"0.024": 0.0,
			"0.025": 0.0
		}
	}
}
