{
	 "smiles": "CC(=O)NC1=CC(I)=CC=C1", 
	 "Tm": 397.15, 
	 "num_atms": 19, 
	 "gaussian": { 
		 "optdone": 1, 
		 "sigma_profile": "yes", 
		 "theory": "DFT", 
		 "functional": "B3LYP", 
		 "basiset": "6-31G**", 
		 "properties": { 
			 "R2extent": 2723.6496, 
			 "electric_dipole_moment_norm": 5.11849430692, 
			 "electric_quadrupole_moment_norm": 11.1077856128, 
			 "total_energy": -451.054369312, 
			 "HOMO_LUMO_gap": 0.19495, 
			 "cosmo_polarized_energy": -13.39, 
			 "cosmo_cavitation_energy": 26.38, 
			 "cosmo_dispersion_energy": -20.87, 
			 "cosmo_repulsion_energy": 1.65, 
			 "cosmo_total_nonelectrostatic_energy": 7.16, 
			 "SMD_solvation_energy": 4.42 
		},
		"coords": [
			{
				"x": -0.3961646407,
				"y": -0.4824431468,
				"z": 3.7192378266,
				"element": "C" 
			},
			{
				"x": -0.1322749068,
				"y": 0.5836846717,
				"z": 2.665599068,
				"element": "C" 
			},
			{
				"x": 0.1711065046,
				"y": 1.7261338232,
				"z": 2.9739913402,
				"element": "O" 
			},
			{
				"x": -0.2674340113,
				"y": 0.1452978829,
				"z": 1.3629189726,
				"element": "N" 
			},
			{
				"x": -0.0992029436,
				"y": 0.8663783665,
				"z": 0.1639067288,
				"element": "C" 
			},
			{
				"x": 0.2549466068,
				"y": 2.2257766379,
				"z": 0.1356483946,
				"element": "C" 
			},
			{
				"x": 0.397263625,
				"y": 2.8507423436,
				"z": -1.102540916,
				"element": "C" 
			},
			{
				"x": 0.9324606597,
				"y": 4.9058737164,
				"z": -1.144920766,
				"element": "I" 
			},
			{
				"x": 0.201505297,
				"y": 2.1772900733,
				"z": -2.3082521675,
				"element": "C" 
			},
			{
				"x": -0.1498837888,
				"y": 0.8267167458,
				"z": -2.2592192301,
				"element": "C" 
			},
			{
				"x": -0.2999281534,
				"y": 0.1735848543,
				"z": -1.0407247401,
				"element": "C" 
			},
			{
				"x": 0.490615845,
				"y": -0.5718807894,
				"z": 4.3522786665,
				"element": "H" 
			},
			{
				"x": -1.2179504608,
				"y": -0.1452192571,
				"z": 4.3568162179,
				"element": "H" 
			},
			{
				"x": -0.6436016401,
				"y": -1.467336988,
				"z": 3.3135683927,
				"element": "H" 
			},
			{
				"x": -0.5223604155,
				"y": -0.823898282,
				"z": 1.2426241202,
				"element": "H" 
			},
			{
				"x": 0.4081068648,
				"y": 2.7531623389,
				"z": 1.0649978694,
				"element": "H" 
			},
			{
				"x": 0.3181293376,
				"y": 2.685251384,
				"z": -3.2580877992,
				"element": "H" 
			},
			{
				"x": -0.3079099793,
				"y": 0.2799422407,
				"z": -3.1841361503,
				"element": "H" 
			},
			{
				"x": -0.5740238,
				"y": -0.8785566159,
				"z": -1.0197058285,
				"element": "H" 
			}
		],
		 "valence_orbital": [ 
			{
				"type": "occ",
				"energy": -0.287,
				"method": "rhf"
			},
			{
				"type": "occ",
				"energy": -0.26221,
				"method": "rhf"
			},
			{
				"type": "occ",
				"energy": -0.26023,
				"method": "rhf"
			},
			{
				"type": "occ",
				"energy": -0.24275,
				"method": "rhf"
			},
			{
				"type": "occ",
				"energy": -0.22856,
				"method": "rhf"
			},
			{
				"type": "unocc",
				"energy": -0.03361,
				"method": "rhf"
			},
			{
				"type": "unocc",
				"energy": -0.02372,
				"method": "rhf"
			},
			{
				"type": "unocc",
				"energy": -0.01639,
				"method": "rhf"
			},
			{
				"type": "unocc",
				"energy": 0.0356,
				"method": "rhf"
			},
			{
				"type": "unocc",
				"energy": 0.05206,
				"method": "rhf"
			}
		],
		"cosmo_sigma_profile": { 
			"-0.025": 0.0,
			"-0.024": 0.0,
			"-0.023": 0.0,
			"-0.022": 0.0,
			"-0.021": 0.0,
			"-0.02": 0.0,
			"-0.019": 0.0,
			"-0.018": 0.0,
			"-0.017": 0.0,
			"-0.016": 0.303694105133,
			"-0.015": 1.16088279995,
			"-0.014": 1.5379000831,
			"-0.013": 1.48053217319,
			"-0.012": 1.36081812014,
			"-0.011": 1.66362477193,
			"-0.01": 1.97706083996,
			"-0.009": 1.33762252156,
			"-0.008": 1.95384536308,
			"-0.007": 4.79875326317,
			"-0.006": 10.9392786383,
			"-0.005": 13.0688094104,
			"-0.004": 12.5197779567,
			"-0.003": 15.0285728965,
			"-0.002": 16.198821417,
			"-0.001": 12.2658415344,
			"0.0": 11.0228735263,
			"0.001": 15.56807891,
			"0.002": 19.0364376483,
			"0.003": 19.956981356,
			"0.004": 25.1996623455,
			"0.005": 10.6583431426,
			"0.006": 1.74463181205,
			"0.007": 1.86769955722,
			"0.008": 1.68243605248,
			"0.009": 1.25902253392,
			"0.01": 1.01589677173,
			"0.011": 2.01485663012,
			"0.012": 2.37821096145,
			"0.013": 2.97258534028,
			"0.014": 1.81052958237,
			"0.015": 0.217998443215,
			"0.016": 0.0,
			"0.017": 0.0,
			"0.018": 0.0,
			"0.019": 0.0,
			"0.02": 0.0,
			"0.021": 0.0,
			"0.022": 0.0,
			"0.023": 0.0,
			"0.024": 0.0,
			"0.025": 0.0
		}
	}
}
