{
	 "smiles": "CNC1=CC=C(Cl)C=C1C(=O)C1=CC=CC=C1", 
	 "Tm": 368.15, 
	 "num_atms": 29, 
	 "gaussian": { 
		 "optdone": 1, 
		 "sigma_profile": "yes", 
		 "theory": "DFT", 
		 "functional": "B3LYP", 
		 "basiset": "6-31G**", 
		 "properties": { 
			 "R2extent": 5708.4272, 
			 "electric_dipole_moment_norm": 6.08335415211, 
			 "electric_quadrupole_moment_norm": 11.5955290686, 
			 "total_energy": -1130.88878946, 
			 "HOMO_LUMO_gap": 0.13627, 
			 "cosmo_polarized_energy": -12.03, 
			 "cosmo_cavitation_energy": 34.57, 
			 "cosmo_dispersion_energy": -24.49, 
			 "cosmo_repulsion_energy": 1.9, 
			 "cosmo_total_nonelectrostatic_energy": 11.98, 
			 "SMD_solvation_energy": 5.48 
		},
		"coords": [
			{
				"x": 1.6761067764,
				"y": 0.8670738191,
				"z": -2.2053567622,
				"element": "C" 
			},
			{
				"x": 1.0084447407,
				"y": 0.6160173636,
				"z": -0.9448879492,
				"element": "N" 
			},
			{
				"x": 1.645109157,
				"y": 0.079515775,
				"z": 0.1540445321,
				"element": "C" 
			},
			{
				"x": 3.0525499198,
				"y": -0.0429872945,
				"z": 0.171723255,
				"element": "C" 
			},
			{
				"x": 3.7306314437,
				"y": -0.4858616131,
				"z": 1.3003986458,
				"element": "C" 
			},
			{
				"x": 3.0192163984,
				"y": -0.8100200889,
				"z": 2.4558052052,
				"element": "C" 
			},
			{
				"x": 3.8786840433,
				"y": -1.3577236738,
				"z": 3.8907130792,
				"element": "Cl" 
			},
			{
				"x": 1.6364707702,
				"y": -0.7026339286,
				"z": 2.4712301476,
				"element": "C" 
			},
			{
				"x": 0.9301092694,
				"y": -0.2990813315,
				"z": 1.3286630666,
				"element": "C" 
			},
			{
				"x": -0.5605242465,
				"y": -0.2251618874,
				"z": 1.489472048,
				"element": "C" 
			},
			{
				"x": -1.0456139966,
				"y": 0.1936482157,
				"z": 2.5342728667,
				"element": "O" 
			},
			{
				"x": -1.476088227,
				"y": -0.7339193245,
				"z": 0.4097974484,
				"element": "C" 
			},
			{
				"x": -1.0855456821,
				"y": -1.7369032587,
				"z": -0.492657704,
				"element": "C" 
			},
			{
				"x": -1.9981633927,
				"y": -2.2428579584,
				"z": -1.4187216822,
				"element": "C" 
			},
			{
				"x": -3.3017970445,
				"y": -1.7434411764,
				"z": -1.4598816048,
				"element": "C" 
			},
			{
				"x": -3.6985293768,
				"y": -0.7463436784,
				"z": -0.563147708,
				"element": "C" 
			},
			{
				"x": -2.7951040685,
				"y": -0.2534854621,
				"z": 0.374522345,
				"element": "C" 
			},
			{
				"x": 0.9386319149,
				"y": 1.2385198089,
				"z": -2.919554583,
				"element": "H" 
			},
			{
				"x": 2.1461064531,
				"y": -0.0319669633,
				"z": -2.6321413631,
				"element": "H" 
			},
			{
				"x": 2.4504878337,
				"y": 1.6359164695,
				"z": -2.0981217397,
				"element": "H" 
			},
			{
				"x": 0.0086048334,
				"y": 0.504035734,
				"z": -0.9878676677,
				"element": "H" 
			},
			{
				"x": 3.6262388604,
				"y": 0.2250600679,
				"z": -0.7073849192,
				"element": "H" 
			},
			{
				"x": 4.8117332306,
				"y": -0.5741475919,
				"z": 1.2845011304,
				"element": "H" 
			},
			{
				"x": 1.0728037515,
				"y": -0.9388423226,
				"z": 3.3664253233,
				"element": "H" 
			},
			{
				"x": -0.0752318494,
				"y": -2.1326302193,
				"z": -0.4512368277,
				"element": "H" 
			},
			{
				"x": -1.6940090331,
				"y": -3.0293633738,
				"z": -2.1031388374,
				"element": "H" 
			},
			{
				"x": -4.0095690461,
				"y": -2.1340759194,
				"z": -2.1854979952,
				"element": "H" 
			},
			{
				"x": -4.7139219552,
				"y": -0.3620163015,
				"z": -0.5918387345,
				"element": "H" 
			},
			{
				"x": -3.0888314779,
				"y": 0.5001761143,
				"z": 1.0976669847,
				"element": "H" 
			}
		],
		 "valence_orbital": [ 
			{
				"type": "occ",
				"energy": -0.26878,
				"method": "rhf"
			},
			{
				"type": "occ",
				"energy": -0.26763,
				"method": "rhf"
			},
			{
				"type": "occ",
				"energy": -0.26483,
				"method": "rhf"
			},
			{
				"type": "occ",
				"energy": -0.24664,
				"method": "rhf"
			},
			{
				"type": "occ",
				"energy": -0.20288,
				"method": "rhf"
			},
			{
				"type": "unocc",
				"energy": -0.06661,
				"method": "rhf"
			},
			{
				"type": "unocc",
				"energy": -0.01881,
				"method": "rhf"
			},
			{
				"type": "unocc",
				"energy": -0.01717,
				"method": "rhf"
			},
			{
				"type": "unocc",
				"energy": 0.00395,
				"method": "rhf"
			},
			{
				"type": "unocc",
				"energy": 0.03585,
				"method": "rhf"
			}
		],
		"cosmo_sigma_profile": { 
			"-0.025": 0.0,
			"-0.024": 0.0,
			"-0.023": 0.0,
			"-0.022": 0.0,
			"-0.021": 0.0,
			"-0.02": 0.0,
			"-0.019": 0.0,
			"-0.018": 0.0,
			"-0.017": 0.0,
			"-0.016": 0.0,
			"-0.015": 0.0,
			"-0.014": 0.0,
			"-0.013": 0.0,
			"-0.012": 0.0,
			"-0.011": 0.438366386204,
			"-0.01": 0.758605991031,
			"-0.009": 0.622230518335,
			"-0.008": 1.65311336642,
			"-0.007": 5.50239028325,
			"-0.006": 17.671890863,
			"-0.005": 21.4644521532,
			"-0.004": 22.9873918737,
			"-0.003": 21.201889383,
			"-0.002": 22.9947084539,
			"-0.001": 21.0472424556,
			"0.0": 16.3043546158,
			"0.001": 17.8007605087,
			"0.002": 20.7377430097,
			"0.003": 27.8014857412,
			"0.004": 25.8387105196,
			"0.005": 13.5350835283,
			"0.006": 4.66179483249,
			"0.007": 2.0318167446,
			"0.008": 2.47970966683,
			"0.009": 1.74372723681,
			"0.01": 1.81581587055,
			"0.011": 3.20209375819,
			"0.012": 3.97845487723,
			"0.013": 0.802676659549,
			"0.014": 0.0,
			"0.015": 0.0,
			"0.016": 0.0,
			"0.017": 0.0,
			"0.018": 0.0,
			"0.019": 0.0,
			"0.02": 0.0,
			"0.021": 0.0,
			"0.022": 0.0,
			"0.023": 0.0,
			"0.024": 0.0,
			"0.025": 0.0
		}
	}
}
