{
	 "smiles": "CN(CC1=CC=C2NC(C)=NC(=O)C2=C1)C1=CC=C(S1)C(=O)N[C@@H](CCC(O)=O)C(O)=O", 
	 "Tm": 455.15, 
	 "num_atms": 54, 
	 "gaussian": { 
		 "optdone": 1, 
		 "sigma_profile": "yes", 
		 "theory": "DFT", 
		 "functional": "B3LYP", 
		 "basiset": "6-31G**", 
		 "properties": { 
			 "R2extent": 16603.0481, 
			 "electric_dipole_moment_norm": 12.5971755918, 
			 "electric_quadrupole_moment_norm": 38.2416018552, 
			 "total_energy": -1882.08090235, 
			 "HOMO_LUMO_gap": 0.13537, 
			 "cosmo_polarized_energy": -43.79, 
			 "cosmo_cavitation_energy": 58.54, 
			 "cosmo_dispersion_energy": -38.84, 
			 "cosmo_repulsion_energy": 2.83, 
			 "cosmo_total_nonelectrostatic_energy": 22.54, 
			 "SMD_solvation_energy": 9.3 
		},
		"coords": [
			{
				"x": -5.091290036,
				"y": 1.979878993,
				"z": 0.2110791379,
				"element": "C" 
			},
			{
				"x": -4.0834119333,
				"y": 1.2938256904,
				"z": 1.0077736937,
				"element": "N" 
			},
			{
				"x": -4.2577166248,
				"y": -0.1656373469,
				"z": 1.1392436455,
				"element": "C" 
			},
			{
				"x": -3.9362877748,
				"y": -0.9598051914,
				"z": -0.1171819314,
				"element": "C" 
			},
			{
				"x": -4.9339350976,
				"y": -1.2535007946,
				"z": -1.0677596016,
				"element": "C" 
			},
			{
				"x": -4.6414103956,
				"y": -1.9314601119,
				"z": -2.2443026986,
				"element": "C" 
			},
			{
				"x": -3.3195875063,
				"y": -2.3291645334,
				"z": -2.4930086559,
				"element": "C" 
			},
			{
				"x": -2.9524820509,
				"y": -3.0069246807,
				"z": -3.648383606,
				"element": "N" 
			},
			{
				"x": -1.6528865283,
				"y": -3.3919666412,
				"z": -3.8681000534,
				"element": "C" 
			},
			{
				"x": -1.3986438699,
				"y": -4.1228968465,
				"z": -5.1596454609,
				"element": "C" 
			},
			{
				"x": -0.6738203361,
				"y": -3.1629268454,
				"z": -3.0482631052,
				"element": "N" 
			},
			{
				"x": -0.909602139,
				"y": -2.4794569919,
				"z": -1.8449591142,
				"element": "C" 
			},
			{
				"x": 0.0066328271,
				"y": -2.2431311021,
				"z": -1.0664013261,
				"element": "O" 
			},
			{
				"x": -2.3060275413,
				"y": -2.0552407156,
				"z": -1.5599590578,
				"element": "C" 
			},
			{
				"x": -2.6328110517,
				"y": -1.3792633552,
				"z": -0.3792946249,
				"element": "C" 
			},
			{
				"x": -2.7965779802,
				"y": 1.8063473078,
				"z": 0.9320046255,
				"element": "C" 
			},
			{
				"x": -2.3254509083,
				"y": 2.8448282593,
				"z": 0.1542177143,
				"element": "C" 
			},
			{
				"x": -0.9574705187,
				"y": 3.1365692174,
				"z": 0.3872465272,
				"element": "C" 
			},
			{
				"x": -0.346026696,
				"y": 2.3340908237,
				"z": 1.3184241091,
				"element": "C" 
			},
			{
				"x": -1.5261473478,
				"y": 1.210968834,
				"z": 1.9973707919,
				"element": "S" 
			},
			{
				"x": 1.1016761064,
				"y": 2.4664687698,
				"z": 1.6267223567,
				"element": "C" 
			},
			{
				"x": 1.7025743873,
				"y": 3.4605785174,
				"z": 1.217270307,
				"element": "O" 
			},
			{
				"x": 1.7814279422,
				"y": 1.518649354,
				"z": 2.3526796873,
				"element": "N" 
			},
			{
				"x": 1.4259626607,
				"y": 0.1815657189,
				"z": 2.7961059217,
				"element": "C" 
			},
			{
				"x": 1.3449421716,
				"y": -0.880726591,
				"z": 1.6614437713,
				"element": "C" 
			},
			{
				"x": 2.5873095888,
				"y": -1.0224822531,
				"z": 0.7800422133,
				"element": "C" 
			},
			{
				"x": 3.6915582146,
				"y": -1.8609040559,
				"z": 1.3826233064,
				"element": "C" 
			},
			{
				"x": 4.8290705317,
				"y": -1.7843315151,
				"z": 0.6537336732,
				"element": "O" 
			},
			{
				"x": 3.6064890905,
				"y": -2.5565848745,
				"z": 2.3745635336,
				"element": "O" 
			},
			{
				"x": 2.4671061963,
				"y": -0.2231486932,
				"z": 3.8345759303,
				"element": "C" 
			},
			{
				"x": 2.0091603672,
				"y": -1.1967294047,
				"z": 4.6388311662,
				"element": "O" 
			},
			{
				"x": 3.5771198885,
				"y": 0.2580690846,
				"z": 3.918365918,
				"element": "O" 
			},
			{
				"x": -6.0791631576,
				"y": 1.6034230048,
				"z": 0.49105315,
				"element": "H" 
			},
			{
				"x": -4.9606571629,
				"y": 1.8427210845,
				"z": -0.8737469699,
				"element": "H" 
			},
			{
				"x": -5.0582919579,
				"y": 3.0502229171,
				"z": 0.430266844,
				"element": "H" 
			},
			{
				"x": -3.6311874492,
				"y": -0.5091469056,
				"z": 1.9671114674,
				"element": "H" 
			},
			{
				"x": -5.2972616767,
				"y": -0.3356495243,
				"z": 1.4381133151,
				"element": "H" 
			},
			{
				"x": -5.9607913825,
				"y": -0.9522966336,
				"z": -0.875969991,
				"element": "H" 
			},
			{
				"x": -5.425254657,
				"y": -2.1552483894,
				"z": -2.963287689,
				"element": "H" 
			},
			{
				"x": -3.6571820745,
				"y": -3.2214734671,
				"z": -4.3397348483,
				"element": "H" 
			},
			{
				"x": -1.659483912,
				"y": -3.4982804518,
				"z": -6.0218045104,
				"element": "H" 
			},
			{
				"x": -0.342039142,
				"y": -4.3802685531,
				"z": -5.2130337691,
				"element": "H" 
			},
			{
				"x": -1.9956301944,
				"y": -5.0403842781,
				"z": -5.2165381006,
				"element": "H" 
			},
			{
				"x": -1.8317361982,
				"y": -1.1926940571,
				"z": 0.3262872588,
				"element": "H" 
			},
			{
				"x": -2.9275103049,
				"y": 3.3583377345,
				"z": -0.5841048154,
				"element": "H" 
			},
			{
				"x": -0.3933843887,
				"y": 3.9000535319,
				"z": -0.1338473067,
				"element": "H" 
			},
			{
				"x": 2.7546278743,
				"y": 1.764610084,
				"z": 2.4987122902,
				"element": "H" 
			},
			{
				"x": 0.4604312161,
				"y": 0.1849628487,
				"z": 3.3126809201,
				"element": "H" 
			},
			{
				"x": 0.5084020633,
				"y": -0.610036693,
				"z": 1.0154321291,
				"element": "H" 
			},
			{
				"x": 1.1023982261,
				"y": -1.8468025782,
				"z": 2.1134367705,
				"element": "H" 
			},
			{
				"x": 2.2891348127,
				"y": -1.5144600875,
				"z": -0.1542623745,
				"element": "H" 
			},
			{
				"x": 2.9984773802,
				"y": -0.0491804706,
				"z": 0.4921422313,
				"element": "H" 
			},
			{
				"x": 5.4710911892,
				"y": -2.3633722553,
				"z": 1.0975741183,
				"element": "H" 
			},
			{
				"x": 2.7661672604,
				"y": -1.5014948866,
				"z": 5.1665610856,
				"element": "H" 
			}
		],
		 "valence_orbital": [ 
			{
				"type": "occ",
				"energy": -0.24806,
				"method": "rhf"
			},
			{
				"type": "occ",
				"energy": -0.24175,
				"method": "rhf"
			},
			{
				"type": "occ",
				"energy": -0.23766,
				"method": "rhf"
			},
			{
				"type": "occ",
				"energy": -0.23113,
				"method": "rhf"
			},
			{
				"type": "occ",
				"energy": -0.19489,
				"method": "rhf"
			},
			{
				"type": "unocc",
				"energy": -0.05952,
				"method": "rhf"
			},
			{
				"type": "unocc",
				"energy": -0.0382,
				"method": "rhf"
			},
			{
				"type": "unocc",
				"energy": -0.02675,
				"method": "rhf"
			},
			{
				"type": "unocc",
				"energy": -0.00366,
				"method": "rhf"
			},
			{
				"type": "unocc",
				"energy": 0.00867,
				"method": "rhf"
			}
		],
		"cosmo_sigma_profile": { 
			"-0.025": 0.0,
			"-0.024": 0.0,
			"-0.023": 0.0,
			"-0.022": 0.0,
			"-0.021": 0.0,
			"-0.02": 0.0,
			"-0.019": 0.379442607109,
			"-0.018": 1.6056568107,
			"-0.017": 2.6516856126,
			"-0.016": 3.10141635818,
			"-0.015": 2.59343403661,
			"-0.014": 2.37429948532,
			"-0.013": 2.91381160984,
			"-0.012": 2.90537698591,
			"-0.011": 3.25205236382,
			"-0.01": 3.38899236631,
			"-0.009": 2.48681365189,
			"-0.008": 5.87533290183,
			"-0.007": 14.4005986089,
			"-0.006": 26.6895046005,
			"-0.005": 27.3728031342,
			"-0.004": 31.9250865956,
			"-0.003": 36.9283025338,
			"-0.002": 40.7645990893,
			"-0.001": 31.1320951981,
			"0.0": 21.8730801242,
			"0.001": 23.3595513326,
			"0.002": 26.876214859,
			"0.003": 28.9294944438,
			"0.004": 21.8389006164,
			"0.005": 15.9124911,
			"0.006": 10.1869209251,
			"0.007": 11.9373586386,
			"0.008": 10.1470926527,
			"0.009": 10.0606586046,
			"0.01": 9.91535921945,
			"0.011": 9.78077522142,
			"0.012": 5.24075783868,
			"0.013": 3.82377139544,
			"0.014": 7.92003915679,
			"0.015": 2.3206341313,
			"0.016": 1.69966144932,
			"0.017": 1.11066089309,
			"0.018": 0.00774078392353,
			"0.019": 0.0,
			"0.02": 0.0,
			"0.021": 0.0,
			"0.022": 0.0,
			"0.023": 0.0,
			"0.024": 0.0,
			"0.025": 0.0
		}
	}
}
