{
	 "smiles": "OCC1CO1", 
	 "Tm": 219.15, 
	 "num_atms": 11, 
	 "gaussian": { 
		 "optdone": 1, 
		 "sigma_profile": "yes", 
		 "theory": "DFT", 
		 "functional": "B3LYP", 
		 "basiset": "6-31G**", 
		 "properties": { 
			 "R2extent": 560.3774, 
			 "electric_dipole_moment_norm": 1.57742518365, 
			 "electric_quadrupole_moment_norm": 9.67602007026, 
			 "total_energy": -268.317026237, 
			 "HOMO_LUMO_gap": 0.32352, 
			 "cosmo_polarized_energy": -9.38, 
			 "cosmo_cavitation_energy": 14.46, 
			 "cosmo_dispersion_energy": -10.87, 
			 "cosmo_repulsion_energy": 0.99, 
			 "cosmo_total_nonelectrostatic_energy": 4.58, 
			 "SMD_solvation_energy": 2.77 
		},
		"coords": [
			{
				"x": 2.3995110989,
				"y": 1.1884052535,
				"z": -1.2718844259,
				"element": "O" 
			},
			{
				"x": 1.0947413371,
				"y": 1.3177109283,
				"z": -0.7233971166,
				"element": "C" 
			},
			{
				"x": 0.354958586,
				"y": -0.0036779921,
				"z": -0.6884114531,
				"element": "C" 
			},
			{
				"x": 0.3562051077,
				"y": -0.8562722403,
				"z": 0.5062833269,
				"element": "C" 
			},
			{
				"x": -0.7878224129,
				"y": -0.0557743729,
				"z": 0.172187602,
				"element": "O" 
			},
			{
				"x": 2.3116154293,
				"y": 1.0350349755,
				"z": -2.2211119214,
				"element": "H" 
			},
			{
				"x": 1.2159951391,
				"y": 1.6870913444,
				"z": 0.2993409758,
				"element": "H" 
			},
			{
				"x": 0.4934403982,
				"y": 2.0613277782,
				"z": -1.2693602683,
				"element": "H" 
			},
			{
				"x": 0.2095475018,
				"y": -0.4837007686,
				"z": -1.6610300666,
				"element": "H" 
			},
			{
				"x": 0.9102508062,
				"y": -0.5368370214,
				"z": 1.3890733799,
				"element": "H" 
			},
			{
				"x": 0.2178570086,
				"y": -1.9326078846,
				"z": 0.4063099671,
				"element": "H" 
			}
		],
		 "valence_orbital": [ 
			{
				"type": "occ",
				"energy": -0.38326,
				"method": "rhf"
			},
			{
				"type": "occ",
				"energy": -0.34462,
				"method": "rhf"
			},
			{
				"type": "occ",
				"energy": -0.30603,
				"method": "rhf"
			},
			{
				"type": "occ",
				"energy": -0.28823,
				"method": "rhf"
			},
			{
				"type": "occ",
				"energy": -0.26185,
				"method": "rhf"
			},
			{
				"type": "unocc",
				"energy": 0.06167,
				"method": "rhf"
			},
			{
				"type": "unocc",
				"energy": 0.10319,
				"method": "rhf"
			},
			{
				"type": "unocc",
				"energy": 0.11196,
				"method": "rhf"
			},
			{
				"type": "unocc",
				"energy": 0.11794,
				"method": "rhf"
			},
			{
				"type": "unocc",
				"energy": 0.13435,
				"method": "rhf"
			}
		],
		"cosmo_sigma_profile": { 
			"-0.025": 0.0,
			"-0.024": 0.0,
			"-0.023": 0.0,
			"-0.022": 0.0,
			"-0.021": 0.0,
			"-0.02": 0.0,
			"-0.019": 0.0,
			"-0.018": 0.0,
			"-0.017": 0.0,
			"-0.016": 0.841454513684,
			"-0.015": 0.854991009253,
			"-0.014": 1.40502129407,
			"-0.013": 0.680549490454,
			"-0.012": 1.44951633163,
			"-0.011": 1.12147377704,
			"-0.01": 0.860508883132,
			"-0.009": 0.888577487046,
			"-0.008": 1.24361037514,
			"-0.007": 2.5298086115,
			"-0.006": 7.90159738797,
			"-0.005": 10.6034537975,
			"-0.004": 11.9854723763,
			"-0.003": 9.58310944462,
			"-0.002": 7.48843737479,
			"-0.001": 6.76170036243,
			"0.0": 3.5620194285,
			"0.001": 3.66025184137,
			"0.002": 2.86823604614,
			"0.003": 3.10056359741,
			"0.004": 3.35166420464,
			"0.005": 2.77554755914,
			"0.006": 2.4932725572,
			"0.007": 2.81660174276,
			"0.008": 2.2702609776,
			"0.009": 3.02948367878,
			"0.01": 3.23434820145,
			"0.011": 4.23670239711,
			"0.012": 4.55617083594,
			"0.013": 2.60160583018,
			"0.014": 2.22269253574,
			"0.015": 0.0928517474443,
			"0.016": 0.0,
			"0.017": 0.0,
			"0.018": 0.0,
			"0.019": 0.0,
			"0.02": 0.0,
			"0.021": 0.0,
			"0.022": 0.0,
			"0.023": 0.0,
			"0.024": 0.0,
			"0.025": 0.0
		}
	}
}
