{
	 "smiles": "N1C=NC(=N1)C1=CC=CC=C1", 
	 "Tm": 391.15, 
	 "num_atms": 18, 
	 "gaussian": { 
		 "optdone": 1, 
		 "sigma_profile": "yes", 
		 "theory": "DFT", 
		 "functional": "B3LYP", 
		 "basiset": "6-31G**", 
		 "properties": { 
			 "R2extent": 2497.8409, 
			 "electric_dipole_moment_norm": 2.69376870202, 
			 "electric_quadrupole_moment_norm": 20.9046034889, 
			 "total_energy": -473.315725877, 
			 "HOMO_LUMO_gap": 0.20053, 
			 "cosmo_polarized_energy": -12.93, 
			 "cosmo_cavitation_energy": 22.42, 
			 "cosmo_dispersion_energy": -17.07, 
			 "cosmo_repulsion_energy": 1.36, 
			 "cosmo_total_nonelectrostatic_energy": 6.71, 
			 "SMD_solvation_energy": 2.04 
		},
		"coords": [
			{
				"x": -2.7949369595,
				"y": -3.0228274904,
				"z": 1.0812975905,
				"element": "N" 
			},
			{
				"x": -1.8134003114,
				"y": -3.8865319038,
				"z": 1.4257679503,
				"element": "C" 
			},
			{
				"x": -0.6498387942,
				"y": -3.2694865196,
				"z": 1.416821165,
				"element": "N" 
			},
			{
				"x": -0.9764398506,
				"y": -1.9869436397,
				"z": 1.0485554779,
				"element": "C" 
			},
			{
				"x": -2.2779666661,
				"y": -1.7953775181,
				"z": 0.8343587274,
				"element": "N" 
			},
			{
				"x": 0.0219057652,
				"y": -0.917648588,
				"z": 0.9031884546,
				"element": "C" 
			},
			{
				"x": -0.3639105324,
				"y": 0.3777740084,
				"z": 0.5245963944,
				"element": "C" 
			},
			{
				"x": 0.5917458936,
				"y": 1.3820009438,
				"z": 0.3903832615,
				"element": "C" 
			},
			{
				"x": 1.9408018321,
				"y": 1.1074963704,
				"z": 0.6314625626,
				"element": "C" 
			},
			{
				"x": 2.3286843718,
				"y": -0.1800097042,
				"z": 1.0083034635,
				"element": "C" 
			},
			{
				"x": 1.3765727547,
				"y": -1.1890100272,
				"z": 1.1441937131,
				"element": "C" 
			},
			{
				"x": -3.7881370567,
				"y": -3.1778964264,
				"z": 0.994613234,
				"element": "H" 
			},
			{
				"x": -1.9915823709,
				"y": -4.9253100658,
				"z": 1.6675968042,
				"element": "H" 
			},
			{
				"x": -1.4128056138,
				"y": 0.5842205995,
				"z": 0.3389363008,
				"element": "H" 
			},
			{
				"x": 0.2840148712,
				"y": 2.3817409853,
				"z": 0.0969456133,
				"element": "H" 
			},
			{
				"x": 2.684171311,
				"y": 1.8926121663,
				"z": 0.5260531351,
				"element": "H" 
			},
			{
				"x": 3.3757705632,
				"y": -0.3996049207,
				"z": 1.1970905134,
				"element": "H" 
			},
			{
				"x": 1.6658507928,
				"y": -2.1927982696,
				"z": 1.4363356386,
				"element": "H" 
			}
		],
		 "valence_orbital": [ 
			{
				"type": "occ",
				"energy": -0.30577,
				"method": "rhf"
			},
			{
				"type": "occ",
				"energy": -0.28538,
				"method": "rhf"
			},
			{
				"type": "occ",
				"energy": -0.27727,
				"method": "rhf"
			},
			{
				"type": "occ",
				"energy": -0.24402,
				"method": "rhf"
			},
			{
				"type": "occ",
				"energy": -0.22422,
				"method": "rhf"
			},
			{
				"type": "unocc",
				"energy": -0.02369,
				"method": "rhf"
			},
			{
				"type": "unocc",
				"energy": 0.0033,
				"method": "rhf"
			},
			{
				"type": "unocc",
				"energy": 0.01707,
				"method": "rhf"
			},
			{
				"type": "unocc",
				"energy": 0.07184,
				"method": "rhf"
			},
			{
				"type": "unocc",
				"energy": 0.08335,
				"method": "rhf"
			}
		],
		"cosmo_sigma_profile": { 
			"-0.025": 0.0,
			"-0.024": 0.0,
			"-0.023": 0.0,
			"-0.022": 0.0,
			"-0.021": 0.0,
			"-0.02": 0.0,
			"-0.019": 0.0,
			"-0.018": 0.815894447742,
			"-0.017": 1.92787492842,
			"-0.016": 1.56482902304,
			"-0.015": 0.674639843478,
			"-0.014": 1.19207215396,
			"-0.013": 1.41306046701,
			"-0.012": 0.817768373424,
			"-0.011": 2.33825666767,
			"-0.01": 3.61179090134,
			"-0.009": 1.86833083919,
			"-0.008": 2.83562437183,
			"-0.007": 1.72785584494,
			"-0.006": 5.91971014896,
			"-0.005": 9.13922355105,
			"-0.004": 12.5500438195,
			"-0.003": 11.2111527573,
			"-0.002": 8.15499857207,
			"-0.001": 9.51977353963,
			"0.0": 10.2003455135,
			"0.001": 10.5397443956,
			"0.002": 13.2932552636,
			"0.003": 16.3829005211,
			"0.004": 15.4719329743,
			"0.005": 13.491454588,
			"0.006": 6.22420893398,
			"0.007": 2.60188126003,
			"0.008": 2.92624517608,
			"0.009": 2.63646379813,
			"0.01": 2.64557337268,
			"0.011": 1.52699669373,
			"0.012": 2.20480320616,
			"0.013": 2.01766618883,
			"0.014": 0.896440025733,
			"0.015": 0.311345760118,
			"0.016": 0.0,
			"0.017": 0.0,
			"0.018": 0.0,
			"0.019": 0.0,
			"0.02": 0.0,
			"0.021": 0.0,
			"0.022": 0.0,
			"0.023": 0.0,
			"0.024": 0.0,
			"0.025": 0.0
		}
	}
}
