{
	 "smiles": "OCC1=CN2C=CN=C2C=C1", 
	 "Tm": 380.15, 
	 "num_atms": 19, 
	 "gaussian": { 
		 "optdone": 1, 
		 "sigma_profile": "yes", 
		 "theory": "DFT", 
		 "functional": "B3LYP", 
		 "basiset": "6-31G**", 
		 "properties": { 
			 "R2extent": 1955.4851, 
			 "electric_dipole_moment_norm": 3.10102900019, 
			 "electric_quadrupole_moment_norm": 10.8904582911, 
			 "total_energy": -494.377232664, 
			 "HOMO_LUMO_gap": 0.17767, 
			 "cosmo_polarized_energy": -13.77, 
			 "cosmo_cavitation_energy": 22.99, 
			 "cosmo_dispersion_energy": -17.19, 
			 "cosmo_repulsion_energy": 1.36, 
			 "cosmo_total_nonelectrostatic_energy": 7.17, 
			 "SMD_solvation_energy": 2.88 
		},
		"coords": [
			{
				"x": -3.2604154354,
				"y": -0.1782843111,
				"z": -0.5424690562,
				"element": "O" 
			},
			{
				"x": -2.0110930699,
				"y": -0.8030136474,
				"z": -0.8081857794,
				"element": "C" 
			},
			{
				"x": -0.8378232727,
				"y": -0.0469747939,
				"z": -0.2262936393,
				"element": "C" 
			},
			{
				"x": 0.1217676405,
				"y": -0.6990250427,
				"z": 0.499890844,
				"element": "C" 
			},
			{
				"x": 1.193984264,
				"y": -0.0017406234,
				"z": 1.0034211647,
				"element": "N" 
			},
			{
				"x": 2.2798660315,
				"y": -0.4084962246,
				"z": 1.7507383747,
				"element": "C" 
			},
			{
				"x": 3.02053441,
				"y": 0.7365160552,
				"z": 1.9669939095,
				"element": "C" 
			},
			{
				"x": 2.4515508028,
				"y": 1.8355084412,
				"z": 1.3946000842,
				"element": "N" 
			},
			{
				"x": 1.3436116485,
				"y": 1.3866864656,
				"z": 0.8105271956,
				"element": "C" 
			},
			{
				"x": 0.3447401131,
				"y": 2.0638277563,
				"z": 0.0700436139,
				"element": "C" 
			},
			{
				"x": -0.7210578379,
				"y": 1.3641137402,
				"z": -0.4350376537,
				"element": "C" 
			},
			{
				"x": -3.339798455,
				"y": -0.0795148075,
				"z": 0.415832151,
				"element": "H" 
			},
			{
				"x": -1.9373628355,
				"y": -0.831310413,
				"z": -1.9013859683,
				"element": "H" 
			},
			{
				"x": -1.9926375548,
				"y": -1.8471748008,
				"z": -0.4576913998,
				"element": "H" 
			},
			{
				"x": 0.0963493024,
				"y": -1.7630677532,
				"z": 0.7082969387,
				"element": "H" 
			},
			{
				"x": 2.4197217902,
				"y": -1.4367152168,
				"z": 2.0455424639,
				"element": "H" 
			},
			{
				"x": 3.9495078762,
				"y": 0.8093159836,
				"z": 2.517584966,
				"element": "H" 
			},
			{
				"x": 0.4580214428,
				"y": 3.1322828492,
				"z": -0.0736504956,
				"element": "H" 
			},
			{
				"x": -1.502866861,
				"y": 1.869166343,
				"z": -0.9924577139,
				"element": "H" 
			}
		],
		 "valence_orbital": [ 
			{
				"type": "occ",
				"energy": -0.32094,
				"method": "rhf"
			},
			{
				"type": "occ",
				"energy": -0.28354,
				"method": "rhf"
			},
			{
				"type": "occ",
				"energy": -0.26765,
				"method": "rhf"
			},
			{
				"type": "occ",
				"energy": -0.24144,
				"method": "rhf"
			},
			{
				"type": "occ",
				"energy": -0.21146,
				"method": "rhf"
			},
			{
				"type": "unocc",
				"energy": -0.03379,
				"method": "rhf"
			},
			{
				"type": "unocc",
				"energy": -0.00221,
				"method": "rhf"
			},
			{
				"type": "unocc",
				"energy": 0.06656,
				"method": "rhf"
			},
			{
				"type": "unocc",
				"energy": 0.08258,
				"method": "rhf"
			},
			{
				"type": "unocc",
				"energy": 0.0968,
				"method": "rhf"
			}
		],
		"cosmo_sigma_profile": { 
			"-0.025": 0.0,
			"-0.024": 0.0,
			"-0.023": 0.0,
			"-0.022": 0.0,
			"-0.021": 0.0,
			"-0.02": 0.0,
			"-0.019": 0.0,
			"-0.018": 0.0,
			"-0.017": 0.0,
			"-0.016": 0.225035114369,
			"-0.015": 1.18922888015,
			"-0.014": 0.55146331091,
			"-0.013": 1.0167591289,
			"-0.012": 0.539359256446,
			"-0.011": 1.01212410432,
			"-0.01": 1.24321443782,
			"-0.009": 4.78055605238,
			"-0.008": 5.81666462543,
			"-0.007": 6.89978743395,
			"-0.006": 9.92366543596,
			"-0.005": 11.8453853302,
			"-0.004": 13.9068081534,
			"-0.003": 11.2371405747,
			"-0.002": 10.7860015745,
			"-0.001": 9.76610091934,
			"0.0": 12.1306575835,
			"0.001": 13.0173020069,
			"0.002": 12.9207457159,
			"0.003": 11.4327827013,
			"0.004": 9.2354767927,
			"0.005": 5.57898106619,
			"0.006": 3.38761450799,
			"0.007": 3.06487031119,
			"0.008": 2.29572321377,
			"0.009": 2.61291674562,
			"0.01": 2.57687340074,
			"0.011": 2.35380606819,
			"0.012": 2.99552399297,
			"0.013": 2.02759260487,
			"0.014": 3.04370981934,
			"0.015": 1.3632727581,
			"0.016": 1.0138678675,
			"0.017": 1.1163931569,
			"0.018": 0.737913460008,
			"0.019": 0.0511609854156,
			"0.02": 0.0,
			"0.021": 0.0,
			"0.022": 0.0,
			"0.023": 0.0,
			"0.024": 0.0,
			"0.025": 0.0
		}
	}
}
