{
	 "smiles": "CC(CCC(O)=O)(C1=CC=C(O)C=C1)C1=CC=C(O)C=C1", 
	 "Tm": 445.15, 
	 "num_atms": 39, 
	 "gaussian": { 
		 "optdone": 1, 
		 "sigma_profile": "yes", 
		 "theory": "DFT", 
		 "functional": "B3LYP", 
		 "basiset": "6-31G**", 
		 "properties": { 
			 "R2extent": 7169.0973, 
			 "electric_dipole_moment_norm": 5.30194069375, 
			 "electric_quadrupole_moment_norm": 24.4141658657, 
			 "total_energy": -959.556376543, 
			 "HOMO_LUMO_gap": 0.20167, 
			 "cosmo_polarized_energy": -25.24, 
			 "cosmo_cavitation_energy": 41.45, 
			 "cosmo_dispersion_energy": -28.39, 
			 "cosmo_repulsion_energy": 2.2, 
			 "cosmo_total_nonelectrostatic_energy": 15.26, 
			 "SMD_solvation_energy": 8.7 
		},
		"coords": [
			{
				"x": 2.1363900262,
				"y": 1.1593238024,
				"z": -1.3713327375,
				"element": "C" 
			},
			{
				"x": 0.8940407425,
				"y": 0.3129306445,
				"z": -0.9818000709,
				"element": "C" 
			},
			{
				"x": 0.1784462194,
				"y": -0.0484369865,
				"z": -2.3200142545,
				"element": "C" 
			},
			{
				"x": -1.0923728221,
				"y": -0.8949008645,
				"z": -2.2176994564,
				"element": "C" 
			},
			{
				"x": -1.7811225337,
				"y": -1.0685045103,
				"z": -3.5649613939,
				"element": "C" 
			},
			{
				"x": -2.8488988031,
				"y": -1.9149185653,
				"z": -3.5624666006,
				"element": "O" 
			},
			{
				"x": -1.457751106,
				"y": -0.5144538616,
				"z": -4.5858780716,
				"element": "O" 
			},
			{
				"x": 0.0387323689,
				"y": 1.2092350228,
				"z": -0.0609974359,
				"element": "C" 
			},
			{
				"x": -1.0384494559,
				"y": 1.9766328246,
				"z": -0.5322233566,
				"element": "C" 
			},
			{
				"x": -1.7378683074,
				"y": 2.8542449003,
				"z": 0.2951329821,
				"element": "C" 
			},
			{
				"x": -1.3654225881,
				"y": 2.997967724,
				"z": 1.6332623451,
				"element": "C" 
			},
			{
				"x": -2.0838013005,
				"y": 3.8669899783,
				"z": 2.4054757995,
				"element": "O" 
			},
			{
				"x": -0.2852657904,
				"y": 2.2576788073,
				"z": 2.1245977872,
				"element": "C" 
			},
			{
				"x": 0.4000699799,
				"y": 1.382668714,
				"z": 1.2845069775,
				"element": "C" 
			},
			{
				"x": 1.3034375242,
				"y": -0.9983283569,
				"z": -0.2769409797,
				"element": "C" 
			},
			{
				"x": 0.4101522535,
				"y": -1.6825521294,
				"z": 0.5687489589,
				"element": "C" 
			},
			{
				"x": 0.7304423372,
				"y": -2.9042826771,
				"z": 1.1525770618,
				"element": "C" 
			},
			{
				"x": 1.9761978753,
				"y": -3.4897489419,
				"z": 0.9043000911,
				"element": "C" 
			},
			{
				"x": 2.2455501904,
				"y": -4.6879237041,
				"z": 1.5033824802,
				"element": "O" 
			},
			{
				"x": 2.8827250643,
				"y": -2.8334427931,
				"z": 0.0694866069,
				"element": "C" 
			},
			{
				"x": 2.5434027774,
				"y": -1.6086745547,
				"z": -0.5090405004,
				"element": "C" 
			},
			{
				"x": 2.7530313817,
				"y": 0.661331221,
				"z": -2.1263515817,
				"element": "H" 
			},
			{
				"x": 2.7600556826,
				"y": 1.3713291917,
				"z": -0.4981990528,
				"element": "H" 
			},
			{
				"x": 1.8112051871,
				"y": 2.114746063,
				"z": -1.792462648,
				"element": "H" 
			},
			{
				"x": 0.8992540785,
				"y": -0.5899393928,
				"z": -2.9415573041,
				"element": "H" 
			},
			{
				"x": -0.0507318386,
				"y": 0.8655016545,
				"z": -2.8764397026,
				"element": "H" 
			},
			{
				"x": -0.8659129614,
				"y": -1.886862517,
				"z": -1.8080190673,
				"element": "H" 
			},
			{
				"x": -1.8172087042,
				"y": -0.4413646813,
				"z": -1.5283059235,
				"element": "H" 
			},
			{
				"x": -2.9759764666,
				"y": -2.2852720071,
				"z": -2.677368841,
				"element": "H" 
			},
			{
				"x": -1.3470217773,
				"y": 1.9089069053,
				"z": -1.5699667295,
				"element": "H" 
			},
			{
				"x": -2.5713301097,
				"y": 3.4360670883,
				"z": -0.0847165771,
				"element": "H" 
			},
			{
				"x": -1.7152295608,
				"y": 3.8748878289,
				"z": 3.2982787801,
				"element": "H" 
			},
			{
				"x": 0.0213658409,
				"y": 2.364041444,
				"z": 3.1635531646,
				"element": "H" 
			},
			{
				"x": 1.2331967554,
				"y": 0.8174199217,
				"z": 1.6906279433,
				"element": "H" 
			},
			{
				"x": -0.5555482479,
				"y": -1.2402122831,
				"z": 0.7914813572,
				"element": "H" 
			},
			{
				"x": 0.031072378,
				"y": -3.414233399,
				"z": 1.807315599,
				"element": "H" 
			},
			{
				"x": 3.1318974486,
				"y": -4.976076657,
				"z": 1.2494294797,
				"element": "H" 
			},
			{
				"x": 3.8575620779,
				"y": -3.2741435732,
				"z": -0.1306257013,
				"element": "H" 
			},
			{
				"x": 3.275284184,
				"y": -1.132931281,
				"z": -1.1520894272,
				"element": "H" 
			}
		],
		 "valence_orbital": [ 
			{
				"type": "occ",
				"energy": -0.26795,
				"method": "rhf"
			},
			{
				"type": "occ",
				"energy": -0.25694,
				"method": "rhf"
			},
			{
				"type": "occ",
				"energy": -0.25215,
				"method": "rhf"
			},
			{
				"type": "occ",
				"energy": -0.2256,
				"method": "rhf"
			},
			{
				"type": "occ",
				"energy": -0.21521,
				"method": "rhf"
			},
			{
				"type": "unocc",
				"energy": -0.01354,
				"method": "rhf"
			},
			{
				"type": "unocc",
				"energy": -0.00168,
				"method": "rhf"
			},
			{
				"type": "unocc",
				"energy": 0.0057,
				"method": "rhf"
			},
			{
				"type": "unocc",
				"energy": 0.01015,
				"method": "rhf"
			},
			{
				"type": "unocc",
				"energy": 0.01822,
				"method": "rhf"
			}
		],
		"cosmo_sigma_profile": { 
			"-0.025": 0.0,
			"-0.024": 0.0,
			"-0.023": 0.0,
			"-0.022": 0.0,
			"-0.021": 0.0,
			"-0.02": 0.0,
			"-0.019": 0.341077548829,
			"-0.018": 1.74845543322,
			"-0.017": 3.01367393996,
			"-0.016": 2.76131472692,
			"-0.015": 3.08268261819,
			"-0.014": 3.5505132916,
			"-0.013": 2.55762139203,
			"-0.012": 2.61351975805,
			"-0.011": 3.12149770385,
			"-0.01": 3.54625835321,
			"-0.009": 3.46832363674,
			"-0.008": 3.30537607881,
			"-0.007": 5.04871396719,
			"-0.006": 10.4761178968,
			"-0.005": 16.2876289429,
			"-0.004": 21.5679213431,
			"-0.003": 25.3294680828,
			"-0.002": 23.207906456,
			"-0.001": 19.3972819588,
			"0.0": 19.6146267341,
			"0.001": 19.852525222,
			"0.002": 14.5311828183,
			"0.003": 16.8892739392,
			"0.004": 20.8570587972,
			"0.005": 21.7308422781,
			"0.006": 14.1433636961,
			"0.007": 5.97971725675,
			"0.008": 4.16644739461,
			"0.009": 6.52251051854,
			"0.01": 8.03289607389,
			"0.011": 9.29783063497,
			"0.012": 7.90237622957,
			"0.013": 2.60402419033,
			"0.014": 0.136255937308,
			"0.015": 0.0,
			"0.016": 0.0,
			"0.017": 0.0,
			"0.018": 0.0,
			"0.019": 0.0,
			"0.02": 0.0,
			"0.021": 0.0,
			"0.022": 0.0,
			"0.023": 0.0,
			"0.024": 0.0,
			"0.025": 0.0
		}
	}
}
