{
	 "smiles": "CN1C(=O)CNC2=C1C=CC=C2", 
	 "Tm": 362.15, 
	 "num_atms": 22, 
	 "gaussian": { 
		 "optdone": 1, 
		 "sigma_profile": "yes", 
		 "theory": "DFT", 
		 "functional": "B3LYP", 
		 "basiset": "6-31G**", 
		 "properties": { 
			 "R2extent": 2170.0171, 
			 "electric_dipole_moment_norm": 2.50607562935, 
			 "electric_quadrupole_moment_norm": 15.4573765103, 
			 "total_energy": -533.725978986, 
			 "HOMO_LUMO_gap": 0.18824, 
			 "cosmo_polarized_energy": -11.41, 
			 "cosmo_cavitation_energy": 24.58, 
			 "cosmo_dispersion_energy": -18.67, 
			 "cosmo_repulsion_energy": 1.46, 
			 "cosmo_total_nonelectrostatic_energy": 7.37, 
			 "SMD_solvation_energy": 3.54 
		},
		"coords": [
			{
				"x": -0.3928413334,
				"y": -1.4118697181,
				"z": -2.9344209016,
				"element": "C" 
			},
			{
				"x": 0.2724774255,
				"y": -0.4857790881,
				"z": -2.0229046959,
				"element": "N" 
			},
			{
				"x": 1.4027212905,
				"y": 0.1659641292,
				"z": -2.4767294423,
				"element": "C" 
			},
			{
				"x": 1.8591001928,
				"y": 0.0133368163,
				"z": -3.6011551583,
				"element": "O" 
			},
			{
				"x": 2.0974004356,
				"y": 1.0619939693,
				"z": -1.4583321445,
				"element": "C" 
			},
			{
				"x": 1.13439986,
				"y": 1.6617304766,
				"z": -0.5484301824,
				"element": "N" 
			},
			{
				"x": 0.2339817923,
				"y": 0.7839322944,
				"z": 0.0555346179,
				"element": "C" 
			},
			{
				"x": -0.2134258999,
				"y": -0.3247414245,
				"z": -0.7001755138,
				"element": "C" 
			},
			{
				"x": -1.1502047627,
				"y": -1.1998925537,
				"z": -0.1437838812,
				"element": "C" 
			},
			{
				"x": -1.6554121332,
				"y": -0.9815184086,
				"z": 1.1409295934,
				"element": "C" 
			},
			{
				"x": -1.2228710227,
				"y": 0.1170866578,
				"z": 1.8801260058,
				"element": "C" 
			},
			{
				"x": -0.2770209792,
				"y": 0.9894227572,
				"z": 1.3401703031,
				"element": "C" 
			},
			{
				"x": 0.0427691525,
				"y": -1.267675885,
				"z": -3.9213203393,
				"element": "H" 
			},
			{
				"x": -1.4664194757,
				"y": -1.2045743556,
				"z": -2.9622461731,
				"element": "H" 
			},
			{
				"x": -0.2388152418,
				"y": -2.4525341747,
				"z": -2.6268004165,
				"element": "H" 
			},
			{
				"x": 2.6153967154,
				"y": 1.8385278881,
				"z": -2.0235272084,
				"element": "H" 
			},
			{
				"x": 2.8632965217,
				"y": 0.4500190036,
				"z": -0.9459277595,
				"element": "H" 
			},
			{
				"x": 1.5332500155,
				"y": 2.3439403327,
				"z": 0.0835706832,
				"element": "H" 
			},
			{
				"x": -1.4940174066,
				"y": -2.0556532135,
				"z": -0.71269519,
				"element": "H" 
			},
			{
				"x": -2.3844725145,
				"y": -1.6715890457,
				"z": 1.5533627698,
				"element": "H" 
			},
			{
				"x": -1.6101424909,
				"y": 0.2959614279,
				"z": 2.8785254194,
				"element": "H" 
			},
			{
				"x": 0.0694498589,
				"y": 1.8469121145,
				"z": 1.912229614,
				"element": "H" 
			}
		],
		 "valence_orbital": [ 
			{
				"type": "occ",
				"energy": -0.30269,
				"method": "rhf"
			},
			{
				"type": "occ",
				"energy": -0.29335,
				"method": "rhf"
			},
			{
				"type": "occ",
				"energy": -0.25665,
				"method": "rhf"
			},
			{
				"type": "occ",
				"energy": -0.22949,
				"method": "rhf"
			},
			{
				"type": "occ",
				"energy": -0.19627,
				"method": "rhf"
			},
			{
				"type": "unocc",
				"energy": -0.00803,
				"method": "rhf"
			},
			{
				"type": "unocc",
				"energy": 0.00624,
				"method": "rhf"
			},
			{
				"type": "unocc",
				"energy": 0.03533,
				"method": "rhf"
			},
			{
				"type": "unocc",
				"energy": 0.08102,
				"method": "rhf"
			},
			{
				"type": "unocc",
				"energy": 0.09243,
				"method": "rhf"
			}
		],
		"cosmo_sigma_profile": { 
			"-0.025": 0.0,
			"-0.024": 0.0,
			"-0.023": 0.0,
			"-0.022": 0.0,
			"-0.021": 0.0,
			"-0.02": 0.0,
			"-0.019": 0.0,
			"-0.018": 0.0,
			"-0.017": 0.0,
			"-0.016": 0.0,
			"-0.015": 0.0,
			"-0.014": 0.0349499477422,
			"-0.013": 1.0560477942,
			"-0.012": 1.65808005128,
			"-0.011": 1.77217055358,
			"-0.01": 1.27898840062,
			"-0.009": 1.30130759527,
			"-0.008": 1.54952622537,
			"-0.007": 2.7124615034,
			"-0.006": 11.4707446629,
			"-0.005": 18.254107371,
			"-0.004": 18.8763890202,
			"-0.003": 17.4440243183,
			"-0.002": 16.658079655,
			"-0.001": 11.9948729419,
			"0.0": 9.61187665691,
			"0.001": 9.34043552359,
			"0.002": 9.04188982154,
			"0.003": 8.40318635395,
			"0.004": 9.24693389209,
			"0.005": 9.66242624011,
			"0.006": 10.3966353738,
			"0.007": 6.16064581567,
			"0.008": 1.99600766859,
			"0.009": 1.17622853288,
			"0.01": 2.19726954975,
			"0.011": 2.19281430277,
			"0.012": 3.17254034469,
			"0.013": 4.62836592221,
			"0.014": 1.80062923338,
			"0.015": 0.0754912774038,
			"0.016": 0.0,
			"0.017": 0.0,
			"0.018": 0.0,
			"0.019": 0.0,
			"0.02": 0.0,
			"0.021": 0.0,
			"0.022": 0.0,
			"0.023": 0.0,
			"0.024": 0.0,
			"0.025": 0.0
		}
	}
}
