{
	 "smiles": "OCC1=CN(N=N1)C1=C(Cl)C(Cl)=CC=C1", 
	 "Tm": 379.15, 
	 "num_atms": 22, 
	 "gaussian": { 
		 "optdone": 1, 
		 "sigma_profile": "yes", 
		 "theory": "DFT", 
		 "functional": "B3LYP", 
		 "basiset": "6-31G**", 
		 "properties": { 
			 "R2extent": 5565.845, 
			 "electric_dipole_moment_norm": 4.20867537475, 
			 "electric_quadrupole_moment_norm": 5.43526678278, 
			 "total_energy": -1506.97454488, 
			 "HOMO_LUMO_gap": 0.20445, 
			 "cosmo_polarized_energy": -13.17, 
			 "cosmo_cavitation_energy": 30.46, 
			 "cosmo_dispersion_energy": -22.53, 
			 "cosmo_repulsion_energy": 1.77, 
			 "cosmo_total_nonelectrostatic_energy": 9.7, 
			 "SMD_solvation_energy": 3.74 
		},
		"coords": [
			{
				"x": 3.27148304,
				"y": -3.021448473,
				"z": -2.2430957115,
				"element": "O" 
			},
			{
				"x": 1.8832885139,
				"y": -2.9395094564,
				"z": -2.5237847279,
				"element": "C" 
			},
			{
				"x": 1.1967509947,
				"y": -1.9082165475,
				"z": -1.6757932655,
				"element": "C" 
			},
			{
				"x": 0.4279979714,
				"y": -0.8163821477,
				"z": -1.9987802734,
				"element": "C" 
			},
			{
				"x": 0.1044721823,
				"y": -0.2546132117,
				"z": -0.7963598886,
				"element": "N" 
			},
			{
				"x": 0.6544596505,
				"y": -0.9790136101,
				"z": 0.2245545892,
				"element": "N" 
			},
			{
				"x": 1.306712326,
				"y": -1.9625989157,
				"z": -0.3119519849,
				"element": "N" 
			},
			{
				"x": -0.7515658818,
				"y": 0.8358092473,
				"z": -0.4850509416,
				"element": "C" 
			},
			{
				"x": -0.6578244275,
				"y": 2.0773066263,
				"z": -1.1418361092,
				"element": "C" 
			},
			{
				"x": 0.5560242844,
				"y": 2.3580348737,
				"z": -2.3595421259,
				"element": "Cl" 
			},
			{
				"x": -1.5420327146,
				"y": 3.1051923074,
				"z": -0.7752147627,
				"element": "C" 
			},
			{
				"x": -1.4849457935,
				"y": 4.6610388427,
				"z": -1.5641332026,
				"element": "Cl" 
			},
			{
				"x": -2.4787582781,
				"y": 2.9106195658,
				"z": 0.2402564873,
				"element": "C" 
			},
			{
				"x": -2.5420909814,
				"y": 1.6858305544,
				"z": 0.8994096895,
				"element": "C" 
			},
			{
				"x": -1.6897023977,
				"y": 0.6496749012,
				"z": 0.5347369593,
				"element": "C" 
			},
			{
				"x": 3.3539440586,
				"y": -3.0968138162,
				"z": -1.281856838,
				"element": "H" 
			},
			{
				"x": 1.3915349967,
				"y": -3.9145562834,
				"z": -2.3756327904,
				"element": "H" 
			},
			{
				"x": 1.7851947148,
				"y": -2.6828435784,
				"z": -3.5826399095,
				"element": "H" 
			},
			{
				"x": 0.0950708112,
				"y": -0.4130187416,
				"z": -2.9402379188,
				"element": "H" 
			},
			{
				"x": -3.14557139,
				"y": 3.7234528131,
				"z": 0.5038479172,
				"element": "H" 
			},
			{
				"x": -3.2674804547,
				"y": 1.5363742893,
				"z": 1.6921199832,
				"element": "H" 
			},
			{
				"x": -1.7251612251,
				"y": -0.3134192394,
				"z": 1.0289848248,
				"element": "H" 
			}
		],
		 "valence_orbital": [ 
			{
				"type": "occ",
				"energy": -0.28231,
				"method": "rhf"
			},
			{
				"type": "occ",
				"energy": -0.27525,
				"method": "rhf"
			},
			{
				"type": "occ",
				"energy": -0.26835,
				"method": "rhf"
			},
			{
				"type": "occ",
				"energy": -0.26766,
				"method": "rhf"
			},
			{
				"type": "occ",
				"energy": -0.25916,
				"method": "rhf"
			},
			{
				"type": "unocc",
				"energy": -0.05471,
				"method": "rhf"
			},
			{
				"type": "unocc",
				"energy": -0.0415,
				"method": "rhf"
			},
			{
				"type": "unocc",
				"energy": -0.01491,
				"method": "rhf"
			},
			{
				"type": "unocc",
				"energy": -0.00635,
				"method": "rhf"
			},
			{
				"type": "unocc",
				"energy": 0.03415,
				"method": "rhf"
			}
		],
		"cosmo_sigma_profile": { 
			"-0.025": 0.0,
			"-0.024": 0.0,
			"-0.023": 0.0,
			"-0.022": 0.0,
			"-0.021": 0.0,
			"-0.02": 0.0,
			"-0.019": 0.0,
			"-0.018": 0.0,
			"-0.017": 0.0,
			"-0.016": 0.0,
			"-0.015": 0.0,
			"-0.014": 0.138856112149,
			"-0.013": 0.919013982252,
			"-0.012": 0.469582509599,
			"-0.011": 0.940881854017,
			"-0.01": 1.88622887218,
			"-0.009": 3.27921767874,
			"-0.008": 8.09071181264,
			"-0.007": 10.4973641563,
			"-0.006": 10.5555837859,
			"-0.005": 11.1687372057,
			"-0.004": 13.6859098213,
			"-0.003": 16.338331137,
			"-0.002": 16.8702042057,
			"-0.001": 22.6591947708,
			"0.0": 24.740561163,
			"0.001": 22.4536457385,
			"0.002": 19.2407784126,
			"0.003": 17.1776466255,
			"0.004": 11.413013353,
			"0.005": 5.0963035198,
			"0.006": 2.81302416386,
			"0.007": 3.41342181336,
			"0.008": 3.55501891167,
			"0.009": 4.0607385133,
			"0.01": 3.97910591099,
			"0.011": 4.51757351614,
			"0.012": 3.57482582914,
			"0.013": 3.13141975441,
			"0.014": 2.24862002347,
			"0.015": 0.0,
			"0.016": 0.0,
			"0.017": 0.0,
			"0.018": 0.0,
			"0.019": 0.0,
			"0.02": 0.0,
			"0.021": 0.0,
			"0.022": 0.0,
			"0.023": 0.0,
			"0.024": 0.0,
			"0.025": 0.0
		}
	}
}
