{
	 "smiles": "CC(C)CC#N", 
	 "Tm": 172.15, 
	 "num_atms": 15, 
	 "gaussian": { 
		 "optdone": 1, 
		 "sigma_profile": "yes", 
		 "theory": "DFT", 
		 "functional": "B3LYP", 
		 "basiset": "6-31G**", 
		 "properties": { 
			 "R2extent": 1170.9686, 
			 "electric_dipole_moment_norm": 3.98108891888, 
			 "electric_quadrupole_moment_norm": 19.5037253111, 
			 "total_energy": -250.704556033, 
			 "HOMO_LUMO_gap": 0.34984, 
			 "cosmo_polarized_energy": -8.03, 
			 "cosmo_cavitation_energy": 18.39, 
			 "cosmo_dispersion_energy": -12.82, 
			 "cosmo_repulsion_energy": 1.12, 
			 "cosmo_total_nonelectrostatic_energy": 6.7, 
			 "SMD_solvation_energy": 4.76 
		},
		"coords": [
			{
				"x": -0.6449373875,
				"y": 0.2918927085,
				"z": -1.8963451077,
				"element": "C" 
			},
			{
				"x": 0.6713806572,
				"y": 0.6306137085,
				"z": -1.1846923055,
				"element": "C" 
			},
			{
				"x": 0.4558799224,
				"y": 0.8854967217,
				"z": 0.3123771353,
				"element": "C" 
			},
			{
				"x": 1.6973878623,
				"y": -0.5062667123,
				"z": -1.4262836967,
				"element": "C" 
			},
			{
				"x": 3.02571954,
				"y": -0.2186017457,
				"z": -0.878132715,
				"element": "C" 
			},
			{
				"x": 4.0723607049,
				"y": 0.0276367568,
				"z": -0.4401958794,
				"element": "N" 
			},
			{
				"x": -1.0883814408,
				"y": -0.6242626152,
				"z": -1.4880474018,
				"element": "H" 
			},
			{
				"x": -0.497410153,
				"y": 0.1438876209,
				"z": -2.9716093906,
				"element": "H" 
			},
			{
				"x": -1.3732030999,
				"y": 1.098370331,
				"z": -1.7663686602,
				"element": "H" 
			},
			{
				"x": 1.0846342536,
				"y": 1.5424542948,
				"z": -1.6352373887,
				"element": "H" 
			},
			{
				"x": 1.3936744812,
				"y": 1.138254425,
				"z": 0.8160041725,
				"element": "H" 
			},
			{
				"x": -0.2435516818,
				"y": 1.7133131488,
				"z": 0.4657905551,
				"element": "H" 
			},
			{
				"x": 0.0359448898,
				"y": -0.0007736559,
				"z": 0.8034823307,
				"element": "H" 
			},
			{
				"x": 1.3332666806,
				"y": -1.4389811562,
				"z": -0.9760744096,
				"element": "H" 
			},
			{
				"x": 1.8060347711,
				"y": -0.6950338307,
				"z": -2.5009672387,
				"element": "H" 
			}
		],
		 "valence_orbital": [ 
			{
				"type": "occ",
				"energy": -0.35678,
				"method": "rhf"
			},
			{
				"type": "occ",
				"energy": -0.34931,
				"method": "rhf"
			},
			{
				"type": "occ",
				"energy": -0.34594,
				"method": "rhf"
			},
			{
				"type": "occ",
				"energy": -0.3188,
				"method": "rhf"
			},
			{
				"type": "occ",
				"energy": -0.31603,
				"method": "rhf"
			},
			{
				"type": "unocc",
				"energy": 0.03381,
				"method": "rhf"
			},
			{
				"type": "unocc",
				"energy": 0.04183,
				"method": "rhf"
			},
			{
				"type": "unocc",
				"energy": 0.0762,
				"method": "rhf"
			},
			{
				"type": "unocc",
				"energy": 0.11592,
				"method": "rhf"
			},
			{
				"type": "unocc",
				"energy": 0.12785,
				"method": "rhf"
			}
		],
		"cosmo_sigma_profile": { 
			"-0.025": 0.0,
			"-0.024": 0.0,
			"-0.023": 0.0,
			"-0.022": 0.0,
			"-0.021": 0.0,
			"-0.02": 0.0,
			"-0.019": 0.0,
			"-0.018": 0.0,
			"-0.017": 0.0,
			"-0.016": 0.0,
			"-0.015": 0.0,
			"-0.014": 0.0,
			"-0.013": 0.0,
			"-0.012": 0.0,
			"-0.011": 0.0,
			"-0.01": 0.0,
			"-0.009": 0.0,
			"-0.008": 0.958127603258,
			"-0.007": 5.25802881885,
			"-0.006": 5.58709882241,
			"-0.005": 7.03335286551,
			"-0.004": 13.9632727922,
			"-0.003": 17.1800341001,
			"-0.002": 16.5930350988,
			"-0.001": 17.2875776261,
			"0.0": 15.3989088727,
			"0.001": 12.7114708827,
			"0.002": 2.93007458803,
			"0.003": 1.99311127502,
			"0.004": 1.95126762511,
			"0.005": 1.75996315921,
			"0.006": 2.17050070213,
			"0.007": 2.47385877639,
			"0.008": 3.34446364528,
			"0.009": 3.04225789847,
			"0.01": 3.61510189258,
			"0.011": 3.07376570768,
			"0.012": 2.66711115565,
			"0.013": 2.33999874434,
			"0.014": 0.847312621536,
			"0.015": 0.0,
			"0.016": 0.0,
			"0.017": 0.0,
			"0.018": 0.0,
			"0.019": 0.0,
			"0.02": 0.0,
			"0.021": 0.0,
			"0.022": 0.0,
			"0.023": 0.0,
			"0.024": 0.0,
			"0.025": 0.0
		}
	}
}
