{
	 "smiles": "CCCCCCCCCC1CCCCC1", 
	 "Tm": 263.15, 
	 "num_atms": 45, 
	 "gaussian": { 
		 "optdone": 1, 
		 "sigma_profile": "yes", 
		 "theory": "DFT", 
		 "functional": "B3LYP", 
		 "basiset": "6-31G**", 
		 "properties": { 
			 "R2extent": 5650.2843, 
			 "electric_dipole_moment_norm": 0.0728949929693, 
			 "electric_quadrupole_moment_norm": 0.625492453991, 
			 "total_energy": -589.715989988, 
			 "HOMO_LUMO_gap": 0.34871, 
			 "cosmo_polarized_energy": -0.94, 
			 "cosmo_cavitation_energy": 42.1, 
			 "cosmo_dispersion_energy": -28.67, 
			 "cosmo_repulsion_energy": 2.32, 
			 "cosmo_total_nonelectrostatic_energy": 15.75, 
			 "SMD_solvation_energy": 5.19 
		},
		"coords": [
			{
				"x": 0.9971839349,
				"y": 3.0163713088,
				"z": 4.6770633255,
				"element": "C" 
			},
			{
				"x": 1.7343265176,
				"y": 1.9770687245,
				"z": 3.8263692345,
				"element": "C" 
			},
			{
				"x": 0.8233473195,
				"y": 0.8512501265,
				"z": 3.3204604902,
				"element": "C" 
			},
			{
				"x": 1.5526781567,
				"y": -0.1937149228,
				"z": 2.4664198507,
				"element": "C" 
			},
			{
				"x": 0.6375941998,
				"y": -1.3242247562,
				"z": 1.9745640261,
				"element": "C" 
			},
			{
				"x": 1.3532422066,
				"y": -2.3909480218,
				"z": 1.1234031119,
				"element": "C" 
			},
			{
				"x": 1.7898178808,
				"y": -1.9531727454,
				"z": -0.2946808528,
				"element": "C" 
			},
			{
				"x": 0.7993840307,
				"y": -2.2910829303,
				"z": -1.4269824422,
				"element": "C" 
			},
			{
				"x": -0.5802977882,
				"y": -1.6104972078,
				"z": -1.3783147926,
				"element": "C" 
			},
			{
				"x": -0.5908882937,
				"y": -0.0781250248,
				"z": -1.5551784552,
				"element": "C" 
			},
			{
				"x": -0.2276565501,
				"y": 0.3653103517,
				"z": -3.0031484779,
				"element": "C" 
			},
			{
				"x": -1.4784712474,
				"y": 0.6382427276,
				"z": -3.8509146946,
				"element": "C" 
			},
			{
				"x": -2.2968820735,
				"y": 1.8188173147,
				"z": -3.2797802645,
				"element": "C" 
			},
			{
				"x": -2.2069927531,
				"y": 1.8900594747,
				"z": -1.7354240627,
				"element": "C" 
			},
			{
				"x": -1.9652242779,
				"y": 0.5003743804,
				"z": -1.1328813967,
				"element": "C" 
			},
			{
				"x": 0.1916274971,
				"y": 3.4948193992,
				"z": 4.1081761349,
				"element": "H" 
			},
			{
				"x": 1.6735237098,
				"y": 3.8052548076,
				"z": 5.0225056103,
				"element": "H" 
			},
			{
				"x": 0.5450506671,
				"y": 2.5549901686,
				"z": 5.5625909881,
				"element": "H" 
			},
			{
				"x": 2.5561684957,
				"y": 1.5415900775,
				"z": 4.411090831,
				"element": "H" 
			},
			{
				"x": 2.2053070338,
				"y": 2.4745294915,
				"z": 2.9674305735,
				"element": "H" 
			},
			{
				"x": 0.0000294208,
				"y": 1.2875396083,
				"z": 2.7363808517,
				"element": "H" 
			},
			{
				"x": 0.35170436,
				"y": 0.3536116096,
				"z": 4.1802260974,
				"element": "H" 
			},
			{
				"x": 2.0219700107,
				"y": 0.3096254814,
				"z": 1.6100206715,
				"element": "H" 
			},
			{
				"x": 2.3776471673,
				"y": -0.6281375372,
				"z": 3.0495951581,
				"element": "H" 
			},
			{
				"x": -0.2005743129,
				"y": -0.891579167,
				"z": 1.4135864346,
				"element": "H" 
			},
			{
				"x": 0.1910616524,
				"y": -1.8159246495,
				"z": 2.8498114278,
				"element": "H" 
			},
			{
				"x": 0.7072428495,
				"y": -3.2751601155,
				"z": 1.0371522228,
				"element": "H" 
			},
			{
				"x": 2.2369458556,
				"y": -2.7261353425,
				"z": 1.6827863786,
				"element": "H" 
			},
			{
				"x": 2.7366210031,
				"y": -2.4503572724,
				"z": -0.5396563662,
				"element": "H" 
			},
			{
				"x": 2.0181342243,
				"y": -0.879971843,
				"z": -0.3024868227,
				"element": "H" 
			},
			{
				"x": 1.2830728236,
				"y": -2.0620107539,
				"z": -2.3858423143,
				"element": "H" 
			},
			{
				"x": 0.6431237825,
				"y": -3.3787233816,
				"z": -1.4295752887,
				"element": "H" 
			},
			{
				"x": -1.2133570756,
				"y": -2.0525422277,
				"z": -2.1615124123,
				"element": "H" 
			},
			{
				"x": -1.0730731815,
				"y": -1.8622294919,
				"z": -0.4300789012,
				"element": "H" 
			},
			{
				"x": 0.161767,
				"y": 0.34924183,
				"z": -0.8792446469,
				"element": "H" 
			},
			{
				"x": 0.3987819114,
				"y": -0.392439745,
				"z": -3.4871967434,
				"element": "H" 
			},
			{
				"x": 0.3803823804,
				"y": 1.2786663688,
				"z": -2.9696463225,
				"element": "H" 
			},
			{
				"x": -1.2003485279,
				"y": 0.8386293785,
				"z": -4.8919195083,
				"element": "H" 
			},
			{
				"x": -2.0989480679,
				"y": -0.267056932,
				"z": -3.874217846,
				"element": "H" 
			},
			{
				"x": -1.9403833572,
				"y": 2.7623662372,
				"z": -3.710393171,
				"element": "H" 
			},
			{
				"x": -3.3439979621,
				"y": 1.7176494104,
				"z": -3.5896919692,
				"element": "H" 
			},
			{
				"x": -3.1173037957,
				"y": 2.3390331291,
				"z": -1.3222851056,
				"element": "H" 
			},
			{
				"x": -1.3812969018,
				"y": 2.550542727,
				"z": -1.4390593181,
				"element": "H" 
			},
			{
				"x": -2.0285556746,
				"y": 0.5338865197,
				"z": -0.0384338334,
				"element": "H" 
			},
			{
				"x": -2.7663842505,
				"y": -0.1773365852,
				"z": -1.4609874102,
				"element": "H" 
			}
		],
		 "valence_orbital": [ 
			{
				"type": "occ",
				"energy": -0.3024,
				"method": "rhf"
			},
			{
				"type": "occ",
				"energy": -0.29933,
				"method": "rhf"
			},
			{
				"type": "occ",
				"energy": -0.28893,
				"method": "rhf"
			},
			{
				"type": "occ",
				"energy": -0.28689,
				"method": "rhf"
			},
			{
				"type": "occ",
				"energy": -0.28305,
				"method": "rhf"
			},
			{
				"type": "unocc",
				"energy": 0.06566,
				"method": "rhf"
			},
			{
				"type": "unocc",
				"energy": 0.08827,
				"method": "rhf"
			},
			{
				"type": "unocc",
				"energy": 0.09717,
				"method": "rhf"
			},
			{
				"type": "unocc",
				"energy": 0.1023,
				"method": "rhf"
			},
			{
				"type": "unocc",
				"energy": 0.10579,
				"method": "rhf"
			}
		],
		"cosmo_sigma_profile": { 
			"-0.025": 0.0,
			"-0.024": 0.0,
			"-0.023": 0.0,
			"-0.022": 0.0,
			"-0.021": 0.0,
			"-0.02": 0.0,
			"-0.019": 0.0,
			"-0.018": 0.0,
			"-0.017": 0.0,
			"-0.016": 0.0,
			"-0.015": 0.0,
			"-0.014": 0.0,
			"-0.013": 0.0,
			"-0.012": 0.0,
			"-0.011": 0.0,
			"-0.01": 0.0,
			"-0.009": 0.0,
			"-0.008": 0.0,
			"-0.007": 0.0,
			"-0.006": 0.0,
			"-0.005": 0.0,
			"-0.004": 0.0,
			"-0.003": 2.25999578591,
			"-0.002": 34.9626025084,
			"-0.001": 80.1363141665,
			"0.0": 89.4521205124,
			"0.001": 72.0172106531,
			"0.002": 41.0474302994,
			"0.003": 0.913535690238,
			"0.004": 0.0,
			"0.005": 0.0,
			"0.006": 0.0,
			"0.007": 0.0,
			"0.008": 0.0,
			"0.009": 0.0,
			"0.01": 0.0,
			"0.011": 0.0,
			"0.012": 0.0,
			"0.013": 0.0,
			"0.014": 0.0,
			"0.015": 0.0,
			"0.016": 0.0,
			"0.017": 0.0,
			"0.018": 0.0,
			"0.019": 0.0,
			"0.02": 0.0,
			"0.021": 0.0,
			"0.022": 0.0,
			"0.023": 0.0,
			"0.024": 0.0,
			"0.025": 0.0
		}
	}
}
