{
	 "smiles": "FC1=C(C=CC=C1)C1=NN=C2C=CC(Cl)=NN12", 
	 "Tm": 438.15, 
	 "num_atms": 23, 
	 "gaussian": { 
		 "optdone": 1, 
		 "sigma_profile": "yes", 
		 "theory": "DFT", 
		 "functional": "B3LYP", 
		 "basiset": "6-31G**", 
		 "properties": { 
			 "R2extent": 4592.9321, 
			 "electric_dipole_moment_norm": 2.40123917176, 
			 "electric_quadrupole_moment_norm": 26.3441288951, 
			 "total_energy": -1201.7589504, 
			 "HOMO_LUMO_gap": 0.15365, 
			 "cosmo_polarized_energy": -14.05, 
			 "cosmo_cavitation_energy": 30.75, 
			 "cosmo_dispersion_energy": -22.48, 
			 "cosmo_repulsion_energy": 1.71, 
			 "cosmo_total_nonelectrostatic_energy": 9.97, 
			 "SMD_solvation_energy": 2.67 
		},
		"coords": [
			{
				"x": -1.1443048965,
				"y": 1.8361479961,
				"z": 0.2116594097,
				"element": "F" 
			},
			{
				"x": 0.1978796382,
				"y": 1.8146714952,
				"z": 0.1012621561,
				"element": "C" 
			},
			{
				"x": 0.8121412392,
				"y": 0.7493496818,
				"z": -0.5679692681,
				"element": "C" 
			},
			{
				"x": 2.206342362,
				"y": 0.8008514041,
				"z": -0.7364613615,
				"element": "C" 
			},
			{
				"x": 2.9494619247,
				"y": 1.860761667,
				"z": -0.224322475,
				"element": "C" 
			},
			{
				"x": 2.3088945113,
				"y": 2.8928840348,
				"z": 0.4668418761,
				"element": "C" 
			},
			{
				"x": 0.9238948144,
				"y": 2.8743298949,
				"z": 0.6295506828,
				"element": "C" 
			},
			{
				"x": 0.0591931668,
				"y": -0.3674872765,
				"z": -1.1421363563,
				"element": "C" 
			},
			{
				"x": 0.3004764293,
				"y": -0.9189538914,
				"z": -2.3282515802,
				"element": "N" 
			},
			{
				"x": -0.5513824278,
				"y": -1.9596939202,
				"z": -2.5349398625,
				"element": "N" 
			},
			{
				"x": -1.3200480824,
				"y": -2.0503422876,
				"z": -1.4600453045,
				"element": "C" 
			},
			{
				"x": -2.3666997899,
				"y": -2.9293755202,
				"z": -1.0948726843,
				"element": "C" 
			},
			{
				"x": -2.936459266,
				"y": -2.7685259801,
				"z": 0.1373019822,
				"element": "C" 
			},
			{
				"x": -2.4333156974,
				"y": -1.7304060422,
				"z": 0.9890193812,
				"element": "C" 
			},
			{
				"x": -3.1377545347,
				"y": -1.5583114576,
				"z": 2.5775829214,
				"element": "Cl" 
			},
			{
				"x": -1.481641919,
				"y": -0.8929965042,
				"z": 0.6971853681,
				"element": "N" 
			},
			{
				"x": -0.964207233,
				"y": -1.0604080135,
				"z": -0.5419646459,
				"element": "N" 
			},
			{
				"x": 2.6879197766,
				"y": -0.007694036,
				"z": -1.2756727476,
				"element": "H" 
			},
			{
				"x": 4.0260679162,
				"y": 1.8796589569,
				"z": -0.3592489562,
				"element": "H" 
			},
			{
				"x": 2.884647327,
				"y": 3.7182832336,
				"z": 0.874314122,
				"element": "H" 
			},
			{
				"x": 0.3939624351,
				"y": 3.6701960972,
				"z": 1.1411558692,
				"element": "H" 
			},
			{
				"x": -2.6791505186,
				"y": -3.700155773,
				"z": -1.7899288375,
				"element": "H" 
			},
			{
				"x": -3.7405171755,
				"y": -3.401383759,
				"z": 0.490140311,
				"element": "H" 
			}
		],
		 "valence_orbital": [ 
			{
				"type": "occ",
				"energy": -0.2897,
				"method": "rhf"
			},
			{
				"type": "occ",
				"energy": -0.27981,
				"method": "rhf"
			},
			{
				"type": "occ",
				"energy": -0.26284,
				"method": "rhf"
			},
			{
				"type": "occ",
				"energy": -0.25583,
				"method": "rhf"
			},
			{
				"type": "occ",
				"energy": -0.23707,
				"method": "rhf"
			},
			{
				"type": "unocc",
				"energy": -0.08342,
				"method": "rhf"
			},
			{
				"type": "unocc",
				"energy": -0.04447,
				"method": "rhf"
			},
			{
				"type": "unocc",
				"energy": -0.01387,
				"method": "rhf"
			},
			{
				"type": "unocc",
				"energy": -0.00658,
				"method": "rhf"
			},
			{
				"type": "unocc",
				"energy": 0.0089,
				"method": "rhf"
			}
		],
		"cosmo_sigma_profile": { 
			"-0.025": 0.0,
			"-0.024": 0.0,
			"-0.023": 0.0,
			"-0.022": 0.0,
			"-0.021": 0.0,
			"-0.02": 0.0,
			"-0.019": 0.0,
			"-0.018": 0.0,
			"-0.017": 0.0,
			"-0.016": 0.0,
			"-0.015": 0.0,
			"-0.014": 0.0,
			"-0.013": 0.0,
			"-0.012": 0.0,
			"-0.011": 0.310803734425,
			"-0.01": 3.71005131016,
			"-0.009": 4.33545544427,
			"-0.008": 4.80885171814,
			"-0.007": 9.54618673204,
			"-0.006": 12.7113481842,
			"-0.005": 15.556630189,
			"-0.004": 16.6650985874,
			"-0.003": 18.1630785539,
			"-0.002": 19.2683727303,
			"-0.001": 17.6191001612,
			"0.0": 16.4433435622,
			"0.001": 17.3450750617,
			"0.002": 22.1107629071,
			"0.003": 24.4130816797,
			"0.004": 14.9693830377,
			"0.005": 5.00435474125,
			"0.006": 4.25438340671,
			"0.007": 3.37694578384,
			"0.008": 3.03124491063,
			"0.009": 2.47217853956,
			"0.01": 2.23770758797,
			"0.011": 2.66810709981,
			"0.012": 3.83993438599,
			"0.013": 2.26890252782,
			"0.014": 2.36954526221,
			"0.015": 1.82242270963,
			"0.016": 0.710270988134,
			"0.017": 0.0,
			"0.018": 0.0,
			"0.019": 0.0,
			"0.02": 0.0,
			"0.021": 0.0,
			"0.022": 0.0,
			"0.023": 0.0,
			"0.024": 0.0,
			"0.025": 0.0
		}
	}
}
