{
	 "smiles": "ClC(Cl)(Cl)C(=O)NC1=NC=CS1", 
	 "Tm": 477.15, 
	 "num_atms": 15, 
	 "gaussian": { 
		 "optdone": 1, 
		 "sigma_profile": "yes", 
		 "theory": "DFT", 
		 "functional": "B3LYP", 
		 "basiset": "6-31G**", 
		 "properties": { 
			 "R2extent": 4301.3188, 
			 "electric_dipole_moment_norm": 4.24426740911, 
			 "electric_quadrupole_moment_norm": 5.22991768769, 
			 "total_energy": -2155.78697056, 
			 "HOMO_LUMO_gap": 0.17836, 
			 "cosmo_polarized_energy": -10.99, 
			 "cosmo_cavitation_energy": 26.6, 
			 "cosmo_dispersion_energy": -20.23, 
			 "cosmo_repulsion_energy": 1.57, 
			 "cosmo_total_nonelectrostatic_energy": 7.94, 
			 "SMD_solvation_energy": 4.07 
		},
		"coords": [
			{
				"x": -1.8065873154,
				"y": 1.5519126385,
				"z": -0.9251995903,
				"element": "Cl" 
			},
			{
				"x": -0.2972124105,
				"y": 2.4789686998,
				"z": -1.2287399673,
				"element": "C" 
			},
			{
				"x": -0.6642690773,
				"y": 4.2211965931,
				"z": -1.0589602253,
				"element": "Cl" 
			},
			{
				"x": 0.344530207,
				"y": 2.1959807168,
				"z": -2.8834957976,
				"element": "Cl" 
			},
			{
				"x": 0.7854321449,
				"y": 2.0924757439,
				"z": -0.1669664054,
				"element": "C" 
			},
			{
				"x": 1.2244503211,
				"y": 2.9301635066,
				"z": 0.5912872152,
				"element": "O" 
			},
			{
				"x": 1.2652398229,
				"y": 0.7930992746,
				"z": -0.067329842,
				"element": "N" 
			},
			{
				"x": 1.0534196062,
				"y": -0.4295260038,
				"z": -0.7019573844,
				"element": "C" 
			},
			{
				"x": 0.2423256916,
				"y": -0.6858780154,
				"z": -1.675506119,
				"element": "N" 
			},
			{
				"x": 0.3147520194,
				"y": -2.0140172039,
				"z": -2.0331163597,
				"element": "C" 
			},
			{
				"x": 1.1880892437,
				"y": -2.7855977067,
				"z": -1.3293757308,
				"element": "C" 
			},
			{
				"x": 1.9945997708,
				"y": -1.8182731719,
				"z": -0.127213313,
				"element": "S" 
			},
			{
				"x": 1.9508018952,
				"y": 0.7735358606,
				"z": 0.6788345762,
				"element": "H" 
			},
			{
				"x": -0.3135590017,
				"y": -2.3720435952,
				"z": -2.8397073437,
				"element": "H" 
			},
			{
				"x": 1.4071870824,
				"y": -3.837897337,
				"z": -1.435253713,
				"element": "H" 
			}
		],
		 "valence_orbital": [ 
			{
				"type": "occ",
				"energy": -0.30913,
				"method": "rhf"
			},
			{
				"type": "occ",
				"energy": -0.29714,
				"method": "rhf"
			},
			{
				"type": "occ",
				"energy": -0.29395,
				"method": "rhf"
			},
			{
				"type": "occ",
				"energy": -0.28731,
				"method": "rhf"
			},
			{
				"type": "occ",
				"energy": -0.24251,
				"method": "rhf"
			},
			{
				"type": "unocc",
				"energy": -0.06415,
				"method": "rhf"
			},
			{
				"type": "unocc",
				"energy": -0.04158,
				"method": "rhf"
			},
			{
				"type": "unocc",
				"energy": -0.01992,
				"method": "rhf"
			},
			{
				"type": "unocc",
				"energy": -0.01949,
				"method": "rhf"
			},
			{
				"type": "unocc",
				"energy": -0.0028,
				"method": "rhf"
			}
		],
		"cosmo_sigma_profile": { 
			"-0.025": 0.0,
			"-0.024": 0.0,
			"-0.023": 0.0,
			"-0.022": 0.0,
			"-0.021": 0.0,
			"-0.02": 0.0,
			"-0.019": 0.0,
			"-0.018": 0.296350057433,
			"-0.017": 0.851645139907,
			"-0.016": 1.0835333455,
			"-0.015": 1.24593697987,
			"-0.014": 0.632312042806,
			"-0.013": 1.16349617092,
			"-0.012": 1.01581628443,
			"-0.011": 0.396653306832,
			"-0.01": 1.46604405127,
			"-0.009": 3.2615581112,
			"-0.008": 4.64815482519,
			"-0.007": 5.22154774953,
			"-0.006": 4.62161251048,
			"-0.005": 7.72210943296,
			"-0.004": 12.0980811027,
			"-0.003": 13.0853799579,
			"-0.002": 14.040928877,
			"-0.001": 16.1147205603,
			"0.0": 19.4503563125,
			"0.001": 21.5884096576,
			"0.002": 29.6649447718,
			"0.003": 28.0177065066,
			"0.004": 7.37706440372,
			"0.005": 4.20742501016,
			"0.006": 3.88237435687,
			"0.007": 4.05192663839,
			"0.008": 3.10277389455,
			"0.009": 4.44755606167,
			"0.01": 6.21629052116,
			"0.011": 1.69409387737,
			"0.012": 0.00779822837451,
			"0.013": 0.0,
			"0.014": 0.0,
			"0.015": 0.0,
			"0.016": 0.0,
			"0.017": 0.0,
			"0.018": 0.0,
			"0.019": 0.0,
			"0.02": 0.0,
			"0.021": 0.0,
			"0.022": 0.0,
			"0.023": 0.0,
			"0.024": 0.0,
			"0.025": 0.0
		}
	}
}
