{
	 "smiles": "OC(=O)C1=CNN=C1C1=CN=CC=C1", 
	 "Tm": 529.15, 
	 "num_atms": 21, 
	 "gaussian": { 
		 "optdone": 1, 
		 "sigma_profile": "yes", 
		 "theory": "DFT", 
		 "functional": "B3LYP", 
		 "basiset": "6-31G**", 
		 "properties": { 
			 "R2extent": 3006.9955, 
			 "electric_dipole_moment_norm": 2.72384135184, 
			 "electric_quadrupole_moment_norm": 32.1734748549, 
			 "total_energy": -661.861683601, 
			 "HOMO_LUMO_gap": 0.20682, 
			 "cosmo_polarized_energy": -20.06, 
			 "cosmo_cavitation_energy": 26.18, 
			 "cosmo_dispersion_energy": -19.28, 
			 "cosmo_repulsion_energy": 1.5, 
			 "cosmo_total_nonelectrostatic_energy": 8.41, 
			 "SMD_solvation_energy": 3.52 
		},
		"coords": [
			{
				"x": 0.3933468038,
				"y": 0.1724387565,
				"z": 2.7325449378,
				"element": "O" 
			},
			{
				"x": -0.7027884225,
				"y": 0.7965045015,
				"z": 2.2301628426,
				"element": "C" 
			},
			{
				"x": -1.1773944745,
				"y": 1.7466259029,
				"z": 2.8112223479,
				"element": "O" 
			},
			{
				"x": -1.2869702867,
				"y": 0.2548886243,
				"z": 0.9812703937,
				"element": "C" 
			},
			{
				"x": -2.564098024,
				"y": 0.6064918461,
				"z": 0.5699319871,
				"element": "C" 
			},
			{
				"x": -2.8171680641,
				"y": -0.1091340654,
				"z": -0.5424264035,
				"element": "N" 
			},
			{
				"x": -1.7918561908,
				"y": -0.905557413,
				"z": -0.9165357468,
				"element": "N" 
			},
			{
				"x": -0.845150436,
				"y": -0.6952091188,
				"z": 0.0020995943,
				"element": "C" 
			},
			{
				"x": 0.4372163734,
				"y": -1.4172691296,
				"z": -0.1171445021,
				"element": "C" 
			},
			{
				"x": 0.4476802609,
				"y": -2.7745192273,
				"z": -0.4908724584,
				"element": "C" 
			},
			{
				"x": 1.557002236,
				"y": -3.4978044113,
				"z": -0.6505121078,
				"element": "N" 
			},
			{
				"x": 2.7313835887,
				"y": -2.8877441991,
				"z": -0.4368655839,
				"element": "C" 
			},
			{
				"x": 2.8440601746,
				"y": -1.547687318,
				"z": -0.0676585625,
				"element": "C" 
			},
			{
				"x": 1.6794320954,
				"y": -0.7971872065,
				"z": 0.0870074605,
				"element": "C" 
			},
			{
				"x": 0.6141437525,
				"y": -0.6146912464,
				"z": 2.2115976139,
				"element": "H" 
			},
			{
				"x": -3.2706535105,
				"y": 1.2910178327,
				"z": 1.0142582389,
				"element": "H" 
			},
			{
				"x": -3.652518422,
				"y": -0.0973071363,
				"z": -1.1081940213,
				"element": "H" 
			},
			{
				"x": -0.4977933924,
				"y": -3.2824281255,
				"z": -0.6660310543,
				"element": "H" 
			},
			{
				"x": 3.6213185312,
				"y": -3.4996019474,
				"z": -0.5711993352,
				"element": "H" 
			},
			{
				"x": 3.8202122583,
				"y": -1.097343203,
				"z": 0.0808399558,
				"element": "H" 
			},
			{
				"x": 1.734295149,
				"y": 0.2564162837,
				"z": 0.3441044035,
				"element": "H" 
			}
		],
		 "valence_orbital": [ 
			{
				"type": "occ",
				"energy": -0.29331,
				"method": "rhf"
			},
			{
				"type": "occ",
				"energy": -0.27686,
				"method": "rhf"
			},
			{
				"type": "occ",
				"energy": -0.26827,
				"method": "rhf"
			},
			{
				"type": "occ",
				"energy": -0.2648,
				"method": "rhf"
			},
			{
				"type": "occ",
				"energy": -0.25692,
				"method": "rhf"
			},
			{
				"type": "unocc",
				"energy": -0.0501,
				"method": "rhf"
			},
			{
				"type": "unocc",
				"energy": -0.03608,
				"method": "rhf"
			},
			{
				"type": "unocc",
				"energy": -0.02698,
				"method": "rhf"
			},
			{
				"type": "unocc",
				"energy": 0.01345,
				"method": "rhf"
			},
			{
				"type": "unocc",
				"energy": 0.06009,
				"method": "rhf"
			}
		],
		"cosmo_sigma_profile": { 
			"-0.025": 0.0,
			"-0.024": 0.0,
			"-0.023": 0.0,
			"-0.022": 0.0,
			"-0.021": 0.0,
			"-0.02": 0.0,
			"-0.019": 0.0,
			"-0.018": 0.918869082306,
			"-0.017": 2.01806837573,
			"-0.016": 1.25292454037,
			"-0.015": 1.67403177222,
			"-0.014": 1.39712016236,
			"-0.013": 1.77365852182,
			"-0.012": 2.44108784188,
			"-0.011": 2.49671216522,
			"-0.01": 3.69719616369,
			"-0.009": 2.84976995258,
			"-0.008": 5.55798706044,
			"-0.007": 9.64440575483,
			"-0.006": 10.8216066753,
			"-0.005": 9.97713243408,
			"-0.004": 10.0215592016,
			"-0.003": 9.14046481276,
			"-0.002": 11.4410226361,
			"-0.001": 11.6796750375,
			"0.0": 15.6630198087,
			"0.001": 18.8931269064,
			"0.002": 12.3834339651,
			"0.003": 7.47645515235,
			"0.004": 5.98732742363,
			"0.005": 4.62517219417,
			"0.006": 4.69601444885,
			"0.007": 5.01462383654,
			"0.008": 5.18059639224,
			"0.009": 5.17934773078,
			"0.01": 5.80178988601,
			"0.011": 6.79208405104,
			"0.012": 7.68168866178,
			"0.013": 3.34815183737,
			"0.014": 1.82935522068,
			"0.015": 0.873450521798,
			"0.016": 0.739067566848,
			"0.017": 0.0,
			"0.018": 0.0,
			"0.019": 0.0,
			"0.02": 0.0,
			"0.021": 0.0,
			"0.022": 0.0,
			"0.023": 0.0,
			"0.024": 0.0,
			"0.025": 0.0
		}
	}
}
