{
	 "smiles": "COC1=C(C=C(C=C1)C(O)=O)S(=O)(=O)NC1=CC=C(C)C=C1", 
	 "Tm": 532.15, 
	 "num_atms": 37, 
	 "gaussian": { 
		 "optdone": 1, 
		 "sigma_profile": "yes", 
		 "theory": "DFT", 
		 "functional": "B3LYP", 
		 "basiset": "6-31G**", 
		 "properties": { 
			 "R2extent": 8346.7061, 
			 "electric_dipole_moment_norm": 6.73541605099, 
			 "electric_quadrupole_moment_norm": 24.0342458371, 
			 "total_energy": -1409.6249527, 
			 "HOMO_LUMO_gap": 0.17045, 
			 "cosmo_polarized_energy": -26.03, 
			 "cosmo_cavitation_energy": 42.63, 
			 "cosmo_dispersion_energy": -29.47, 
			 "cosmo_repulsion_energy": 2.19, 
			 "cosmo_total_nonelectrostatic_energy": 15.35, 
			 "SMD_solvation_energy": 8.38 
		},
		"coords": [
			{
				"x": -0.3023907635,
				"y": 2.1945012704,
				"z": -1.3561634327,
				"element": "C" 
			},
			{
				"x": -0.5527091501,
				"y": 0.8808038323,
				"z": -0.8628443069,
				"element": "O" 
			},
			{
				"x": -1.1636536575,
				"y": 0.7196598202,
				"z": 0.3239939132,
				"element": "C" 
			},
			{
				"x": -1.3219537579,
				"y": -0.6071743806,
				"z": 0.7807325995,
				"element": "C" 
			},
			{
				"x": -1.9393138414,
				"y": -0.8639834905,
				"z": 2.001072434,
				"element": "C" 
			},
			{
				"x": -2.4129604915,
				"y": 0.1851122177,
				"z": 2.7983704284,
				"element": "C" 
			},
			{
				"x": -2.2349293374,
				"y": 1.5004941258,
				"z": 2.3507795022,
				"element": "C" 
			},
			{
				"x": -1.6280783784,
				"y": 1.7712971628,
				"z": 1.1303595016,
				"element": "C" 
			},
			{
				"x": -3.069991142,
				"y": -0.0162617859,
				"z": 4.1281267725,
				"element": "C" 
			},
			{
				"x": -3.5290149523,
				"y": -1.2622949609,
				"z": 4.4124929375,
				"element": "O" 
			},
			{
				"x": -3.199871031,
				"y": 0.8739471794,
				"z": 4.9366950118,
				"element": "O" 
			},
			{
				"x": -0.7819692129,
				"y": -2.0309778129,
				"z": -0.1921219479,
				"element": "S" 
			},
			{
				"x": -1.0577115212,
				"y": -3.1994421784,
				"z": 0.6477901595,
				"element": "O" 
			},
			{
				"x": -1.3174120857,
				"y": -1.9094642125,
				"z": -1.5437528549,
				"element": "O" 
			},
			{
				"x": 0.8993704797,
				"y": -1.9985669562,
				"z": -0.2886554241,
				"element": "N" 
			},
			{
				"x": 1.7067178909,
				"y": -1.1665132345,
				"z": -1.11236773,
				"element": "C" 
			},
			{
				"x": 2.7949590581,
				"y": -0.495566381,
				"z": -0.5435912057,
				"element": "C" 
			},
			{
				"x": 3.648025889,
				"y": 0.2637633591,
				"z": -1.3437945462,
				"element": "C" 
			},
			{
				"x": 3.4274577564,
				"y": 0.3946559699,
				"z": -2.7198101971,
				"element": "C" 
			},
			{
				"x": 4.3658064227,
				"y": 1.1961717482,
				"z": -3.5911237555,
				"element": "C" 
			},
			{
				"x": 2.3228688132,
				"y": -0.2743073143,
				"z": -3.2691259034,
				"element": "C" 
			},
			{
				"x": 1.4774632885,
				"y": -1.0608187966,
				"z": -2.4905700617,
				"element": "C" 
			},
			{
				"x": -1.2391053905,
				"y": 2.7307617294,
				"z": -1.5452605398,
				"element": "H" 
			},
			{
				"x": 0.3192447005,
				"y": 2.7677905463,
				"z": -0.6592415749,
				"element": "H" 
			},
			{
				"x": 0.2368910502,
				"y": 2.051271513,
				"z": -2.2917579883,
				"element": "H" 
			},
			{
				"x": -2.0076141079,
				"y": -1.9033894759,
				"z": 2.3070705464,
				"element": "H" 
			},
			{
				"x": -2.5846815403,
				"y": 2.3089852459,
				"z": 2.9837541292,
				"element": "H" 
			},
			{
				"x": -1.5147872206,
				"y": 2.7980426813,
				"z": 0.804789029,
				"element": "H" 
			},
			{
				"x": -3.5028105394,
				"y": -1.8278538587,
				"z": 3.6284135269,
				"element": "H" 
			},
			{
				"x": 1.3067867363,
				"y": -2.2842528478,
				"z": 0.5948280052,
				"element": "H" 
			},
			{
				"x": 2.9753747611,
				"y": -0.5676730649,
				"z": 0.5262686937,
				"element": "H" 
			},
			{
				"x": 4.4940860529,
				"y": 0.7692400345,
				"z": -0.8848572517,
				"element": "H" 
			},
			{
				"x": 5.1160645689,
				"y": 0.5514538517,
				"z": -4.0659154774,
				"element": "H" 
			},
			{
				"x": 4.9062050434,
				"y": 1.9500326485,
				"z": -3.0108528141,
				"element": "H" 
			},
			{
				"x": 3.8283999428,
				"y": 1.7092235212,
				"z": -4.3950112979,
				"element": "H" 
			},
			{
				"x": 2.1314557806,
				"y": -0.1981331665,
				"z": -4.3369162981,
				"element": "H" 
			},
			{
				"x": 0.6394798867,
				"y": -1.5845345393,
				"z": -2.9333025824,
				"element": "H" 
			}
		],
		 "valence_orbital": [ 
			{
				"type": "occ",
				"energy": -0.28607,
				"method": "rhf"
			},
			{
				"type": "occ",
				"energy": -0.27738,
				"method": "rhf"
			},
			{
				"type": "occ",
				"energy": -0.26079,
				"method": "rhf"
			},
			{
				"type": "occ",
				"energy": -0.25686,
				"method": "rhf"
			},
			{
				"type": "occ",
				"energy": -0.22815,
				"method": "rhf"
			},
			{
				"type": "unocc",
				"energy": -0.0577,
				"method": "rhf"
			},
			{
				"type": "unocc",
				"energy": -0.04778,
				"method": "rhf"
			},
			{
				"type": "unocc",
				"energy": -0.01294,
				"method": "rhf"
			},
			{
				"type": "unocc",
				"energy": -0.01068,
				"method": "rhf"
			},
			{
				"type": "unocc",
				"energy": 0.03681,
				"method": "rhf"
			}
		],
		"cosmo_sigma_profile": { 
			"-0.025": 0.0,
			"-0.024": 0.0,
			"-0.023": 0.0,
			"-0.022": 0.0,
			"-0.021": 0.0,
			"-0.02": 0.00822223202848,
			"-0.019": 0.697778646736,
			"-0.018": 0.850433450934,
			"-0.017": 1.29600042814,
			"-0.016": 1.2540929018,
			"-0.015": 1.84203568191,
			"-0.014": 2.39300691682,
			"-0.013": 1.75272909121,
			"-0.012": 2.22954653789,
			"-0.011": 2.41041913913,
			"-0.01": 1.68353718819,
			"-0.009": 2.7526686828,
			"-0.008": 5.21218419474,
			"-0.007": 10.8158552943,
			"-0.006": 16.2815701029,
			"-0.005": 18.3749700444,
			"-0.004": 26.125574862,
			"-0.003": 25.012382586,
			"-0.002": 20.558737724,
			"-0.001": 24.8542406805,
			"0.0": 29.5326684243,
			"0.001": 24.3917389224,
			"0.002": 17.0883369364,
			"0.003": 15.1039240982,
			"0.004": 14.1889518657,
			"0.005": 11.2687067014,
			"0.006": 7.90442726928,
			"0.007": 6.91695237804,
			"0.008": 5.90287893704,
			"0.009": 8.23972810935,
			"0.01": 12.5580140852,
			"0.011": 13.4011158819,
			"0.012": 5.6887061521,
			"0.013": 1.50260423871,
			"0.014": 0.038596624674,
			"0.015": 0.0,
			"0.016": 0.0,
			"0.017": 0.0,
			"0.018": 0.0,
			"0.019": 0.0,
			"0.02": 0.0,
			"0.021": 0.0,
			"0.022": 0.0,
			"0.023": 0.0,
			"0.024": 0.0,
			"0.0": 0.0
		}
	}
}
