{
	 "smiles": "CN1C(S)=NN=C1C1CCC1", 
	 "Tm": 398.15, 
	 "num_atms": 22, 
	 "gaussian": { 
		 "optdone": 1, 
		 "sigma_profile": "yes", 
		 "theory": "DFT", 
		 "functional": "B3LYP", 
		 "basiset": "6-31G**", 
		 "properties": { 
			 "R2extent": 2792.3777, 
			 "electric_dipole_moment_norm": 4.60210413398, 
			 "electric_quadrupole_moment_norm": 9.10278488596, 
			 "total_energy": -835.765127814, 
			 "HOMO_LUMO_gap": 0.22997, 
			 "cosmo_polarized_energy": -15.11, 
			 "cosmo_cavitation_energy": 26.31, 
			 "cosmo_dispersion_energy": -19.65, 
			 "cosmo_repulsion_energy": 1.54, 
			 "cosmo_total_nonelectrostatic_energy": 8.21, 
			 "SMD_solvation_energy": 1.81 
		},
		"coords": [
			{
				"x": -1.4187963357,
				"y": -2.2163690067,
				"z": -1.1785497009,
				"element": "C" 
			},
			{
				"x": -0.7861826976,
				"y": -1.1934799703,
				"z": -0.3609807499,
				"element": "N" 
			},
			{
				"x": 0.4441762019,
				"y": -0.6204366603,
				"z": -0.5594404154,
				"element": "C" 
			},
			{
				"x": 1.4896643883,
				"y": -1.0769115767,
				"z": -1.9107987456,
				"element": "S" 
			},
			{
				"x": 0.710847148,
				"y": 0.2704345198,
				"z": 0.3642864099,
				"element": "N" 
			},
			{
				"x": -0.3803028175,
				"y": 0.2950307625,
				"z": 1.2160743652,
				"element": "N" 
			},
			{
				"x": -1.2625628248,
				"y": -0.5744577525,
				"z": 0.7822822769,
				"element": "C" 
			},
			{
				"x": -2.6003750193,
				"y": -0.8538013437,
				"z": 1.3859333397,
				"element": "C" 
			},
			{
				"x": -2.898354003,
				"y": 0.0124245448,
				"z": 2.6457273702,
				"element": "C" 
			},
			{
				"x": -3.7689831936,
				"y": 0.95363768,
				"z": 1.771542459,
				"element": "C" 
			},
			{
				"x": -3.7994954827,
				"y": -0.1364331824,
				"z": 0.6687072194,
				"element": "C" 
			},
			{
				"x": -0.7937684172,
				"y": -3.1134303334,
				"z": -1.2245182897,
				"element": "H" 
			},
			{
				"x": -1.5897014765,
				"y": -1.8486704952,
				"z": -2.1950708258,
				"element": "H" 
			},
			{
				"x": -2.3796468094,
				"y": -2.4813374845,
				"z": -0.737859514,
				"element": "H" 
			},
			{
				"x": 2.4595480904,
				"y": -0.2221480413,
				"z": -1.5353327895,
				"element": "H" 
			},
			{
				"x": -2.7265786454,
				"y": -1.9349981115,
				"z": 1.5199984628,
				"element": "H" 
			},
			{
				"x": -2.0276645146,
				"y": 0.4498751448,
				"z": 3.1352241097,
				"element": "H" 
			},
			{
				"x": -3.4892923698,
				"y": -0.5469731977,
				"z": 3.376331917,
				"element": "H" 
			},
			{
				"x": -3.2092024135,
				"y": 1.8377431323,
				"z": 1.4561573117,
				"element": "H" 
			},
			{
				"x": -4.7317508101,
				"y": 1.2733805697,
				"z": 2.1792843692,
				"element": "H" 
			},
			{
				"x": -4.7066683503,
				"y": -0.7471135291,
				"z": 0.7109945991,
				"element": "H" 
			},
			{
				"x": -3.6414096476,
				"y": 0.1849343314,
				"z": -0.3651931788,
				"element": "H" 
			}
		],
		 "valence_orbital": [ 
			{
				"type": "occ",
				"energy": -0.30013,
				"method": "rhf"
			},
			{
				"type": "occ",
				"energy": -0.29952,
				"method": "rhf"
			},
			{
				"type": "occ",
				"energy": -0.28371,
				"method": "rhf"
			},
			{
				"type": "occ",
				"energy": -0.24898,
				"method": "rhf"
			},
			{
				"type": "occ",
				"energy": -0.22387,
				"method": "rhf"
			},
			{
				"type": "unocc",
				"energy": 0.0061,
				"method": "rhf"
			},
			{
				"type": "unocc",
				"energy": 0.01832,
				"method": "rhf"
			},
			{
				"type": "unocc",
				"energy": 0.04783,
				"method": "rhf"
			},
			{
				"type": "unocc",
				"energy": 0.06085,
				"method": "rhf"
			},
			{
				"type": "unocc",
				"energy": 0.08022,
				"method": "rhf"
			}
		],
		"cosmo_sigma_profile": { 
			"-0.025": 0.0,
			"-0.024": 0.0,
			"-0.023": 0.0,
			"-0.022": 0.0,
			"-0.021": 0.0,
			"-0.02": 0.0,
			"-0.019": 0.0,
			"-0.018": 0.0,
			"-0.017": 0.0,
			"-0.016": 0.0,
			"-0.015": 0.0,
			"-0.014": 0.0,
			"-0.013": 0.029998851445,
			"-0.012": 0.970875829757,
			"-0.011": 1.66508052785,
			"-0.01": 1.13570294642,
			"-0.009": 1.25886890312,
			"-0.008": 1.96682348088,
			"-0.007": 6.28059212183,
			"-0.006": 10.6035735232,
			"-0.005": 12.5873847447,
			"-0.004": 19.2912229794,
			"-0.003": 22.9627645147,
			"-0.002": 17.6989449943,
			"-0.001": 19.6298758429,
			"0.0": 16.7205826518,
			"0.001": 18.4348900631,
			"0.002": 12.4374557931,
			"0.003": 5.30805732466,
			"0.004": 5.11917586117,
			"0.005": 4.81669181239,
			"0.006": 4.92824579944,
			"0.007": 3.77840395734,
			"0.008": 1.70892254343,
			"0.009": 2.01085192305,
			"0.01": 2.00107173937,
			"0.011": 2.37446213351,
			"0.012": 2.53985970592,
			"0.013": 2.19452992773,
			"0.014": 3.77874452367,
			"0.015": 2.95241868532,
			"0.016": 2.03231699403,
			"0.017": 0.762281169501,
			"0.018": 0.0,
			"0.019": 0.0,
			"0.02": 0.0,
			"0.021": 0.0,
			"0.022": 0.0,
			"0.023": 0.0,
			"0.024": 0.0,
			"0.025": 0.0
		}
	}
}
