{
	 "smiles": "CC1C(=O)CCCC1=O", 
	 "Tm": 479.15, 
	 "num_atms": 19, 
	 "gaussian": { 
		 "optdone": 1, 
		 "sigma_profile": "yes", 
		 "theory": "DFT", 
		 "functional": "B3LYP", 
		 "basiset": "6-31G**", 
		 "properties": { 
			 "R2extent": 1333.6795, 
			 "electric_dipole_moment_norm": 3.56052433358, 
			 "electric_quadrupole_moment_norm": 11.0437902167, 
			 "total_energy": -423.222000006, 
			 "HOMO_LUMO_gap": 0.21132, 
			 "cosmo_polarized_energy": -11.95, 
			 "cosmo_cavitation_energy": 21.42, 
			 "cosmo_dispersion_energy": -15.85, 
			 "cosmo_repulsion_energy": 1.31, 
			 "cosmo_total_nonelectrostatic_energy": 6.88, 
			 "SMD_solvation_energy": 4.55 
		},
		"coords": [
			{
				"x": -2.0411769778,
				"y": -0.215002247,
				"z": 0.1217026564,
				"element": "C" 
			},
			{
				"x": -0.8489370605,
				"y": 0.7312624337,
				"z": 0.065090779,
				"element": "C" 
			},
			{
				"x": -0.4847324705,
				"y": 1.1778555357,
				"z": -1.3590577007,
				"element": "C" 
			},
			{
				"x": -1.1699596287,
				"y": 0.8846467556,
				"z": -2.3168962369,
				"element": "O" 
			},
			{
				"x": 0.7927158673,
				"y": 2.0050771049,
				"z": -1.5068523183,
				"element": "C" 
			},
			{
				"x": 1.4887009498,
				"y": 2.3063719976,
				"z": -0.1728354376,
				"element": "C" 
			},
			{
				"x": 1.6729574661,
				"y": 1.0245487227,
				"z": 0.650376473,
				"element": "C" 
			},
			{
				"x": 0.3938825294,
				"y": 0.1994050237,
				"z": 0.7950575434,
				"element": "C" 
			},
			{
				"x": 0.3646680158,
				"y": -0.8242716727,
				"z": 1.4463603092,
				"element": "O" 
			},
			{
				"x": -2.9083956867,
				"y": 0.2355821366,
				"z": -0.3647896598,
				"element": "H" 
			},
			{
				"x": -1.8126370914,
				"y": -1.1496340477,
				"z": -0.3959105974,
				"element": "H" 
			},
			{
				"x": -2.2873338165,
				"y": -0.4557471217,
				"z": 1.1576676413,
				"element": "H" 
			},
			{
				"x": -1.0859880801,
				"y": 1.6752730939,
				"z": 0.5905694996,
				"element": "H" 
			},
			{
				"x": 1.4577720565,
				"y": 1.4329806272,
				"z": -2.1679125047,
				"element": "H" 
			},
			{
				"x": 0.5403161923,
				"y": 2.9192143033,
				"z": -2.0555641569,
				"element": "H" 
			},
			{
				"x": 2.4596542015,
				"y": 2.7778512418,
				"z": -0.354760759,
				"element": "H" 
			},
			{
				"x": 0.8993172925,
				"y": 3.034470603,
				"z": 0.3986020155,
				"element": "H" 
			},
			{
				"x": 2.4147050463,
				"y": 0.3664266971,
				"z": 0.1778336547,
				"element": "H" 
			},
			{
				"x": 2.0553711945,
				"y": 1.2320888125,
				"z": 1.6559187993,
				"element": "H" 
			}
		],
		 "valence_orbital": [ 
			{
				"type": "occ",
				"energy": -0.3624,
				"method": "rhf"
			},
			{
				"type": "occ",
				"energy": -0.34641,
				"method": "rhf"
			},
			{
				"type": "occ",
				"energy": -0.33819,
				"method": "rhf"
			},
			{
				"type": "occ",
				"energy": -0.25757,
				"method": "rhf"
			},
			{
				"type": "occ",
				"energy": -0.24671,
				"method": "rhf"
			},
			{
				"type": "unocc",
				"energy": -0.03539,
				"method": "rhf"
			},
			{
				"type": "unocc",
				"energy": -0.00949,
				"method": "rhf"
			},
			{
				"type": "unocc",
				"energy": 0.06849,
				"method": "rhf"
			},
			{
				"type": "unocc",
				"energy": 0.10336,
				"method": "rhf"
			},
			{
				"type": "unocc",
				"energy": 0.12179,
				"method": "rhf"
			}
		],
		"cosmo_sigma_profile": { 
			"-0.025": 0.0,
			"-0.024": 0.0,
			"-0.023": 0.0,
			"-0.022": 0.0,
			"-0.021": 0.0,
			"-0.02": 0.0,
			"-0.019": 0.0,
			"-0.018": 0.0,
			"-0.017": 0.0,
			"-0.016": 0.0,
			"-0.015": 0.0,
			"-0.014": 0.0,
			"-0.013": 0.0,
			"-0.012": 0.0,
			"-0.011": 0.0,
			"-0.01": 0.0,
			"-0.009": 1.06744440576,
			"-0.008": 5.90807655398,
			"-0.007": 4.21574477132,
			"-0.006": 11.7635349561,
			"-0.005": 14.3933711147,
			"-0.004": 16.3700047295,
			"-0.003": 20.8012378052,
			"-0.002": 17.6301265741,
			"-0.001": 10.8525788643,
			"0.0": 8.01872047491,
			"0.001": 7.8349968474,
			"0.002": 4.08381887147,
			"0.003": 1.90826946506,
			"0.004": 3.35225832645,
			"0.005": 4.02759529638,
			"0.006": 2.19788315997,
			"0.007": 3.83336158852,
			"0.008": 2.69584405177,
			"0.009": 4.19444333274,
			"0.01": 4.46099731336,
			"0.011": 7.349203342,
			"0.012": 8.19728105537,
			"0.013": 1.99620349451,
			"0.014": 0.0,
			"0.015": 0.0,
			"0.016": 0.0,
			"0.017": 0.0,
			"0.018": 0.0,
			"0.019": 0.0,
			"0.02": 0.0,
			"0.021": 0.0,
			"0.022": 0.0,
			"0.023": 0.0,
			"0.024": 0.0,
			"0.025": 0.0
		}
	}
}
