{
	 "smiles": "CCC1CCC(C)(C)C2=C1C=C(C=C2)C(=O)CBr", 
	 "Tm": 339.65, 
	 "num_atms": 39, 
	 "gaussian": { 
		 "optdone": 1, 
		 "sigma_profile": "yes", 
		 "theory": "DFT", 
		 "functional": "B3LYP", 
		 "basiset": "6-31G**", 
		 "properties": { 
			 "R2extent": 8982.8534, 
			 "electric_dipole_moment_norm": 3.6582259553, 
			 "electric_quadrupole_moment_norm": 12.4574452457, 
			 "total_energy": -3269.01670393, 
			 "HOMO_LUMO_gap": 0.17718, 
			 "cosmo_polarized_energy": -8.74, 
			 "cosmo_cavitation_energy": 40.46, 
			 "cosmo_dispersion_energy": -28.37, 
			 "cosmo_repulsion_energy": 2.19, 
			 "cosmo_total_nonelectrostatic_energy": 14.28, 
			 "SMD_solvation_energy": 5.76 
		},
		"coords": [
			{
				"x": -1.6524993818,
				"y": -0.7847671003,
				"z": 2.6392119295,
				"element": "C" 
			},
			{
				"x": -1.1937031776,
				"y": -1.6747988671,
				"z": 1.4802206374,
				"element": "C" 
			},
			{
				"x": -1.225202433,
				"y": -1.0134983759,
				"z": 0.0740743029,
				"element": "C" 
			},
			{
				"x": -1.0229127061,
				"y": -2.0573870085,
				"z": -1.0374029215,
				"element": "C" 
			},
			{
				"x": 0.4295308613,
				"y": -2.5366303536,
				"z": -1.0759849514,
				"element": "C" 
			},
			{
				"x": 1.4389829489,
				"y": -1.4045922204,
				"z": -1.3911258869,
				"element": "C" 
			},
			{
				"x": 2.8381681882,
				"y": -1.8711529746,
				"z": -0.9294131016,
				"element": "C" 
			},
			{
				"x": 1.4736313669,
				"y": -1.1653271402,
				"z": -2.9224240934,
				"element": "C" 
			},
			{
				"x": 1.0438029678,
				"y": -0.084322793,
				"z": -0.7045709743,
				"element": "C" 
			},
			{
				"x": -0.2070873046,
				"y": 0.1104970863,
				"z": -0.0723420103,
				"element": "C" 
			},
			{
				"x": -0.52112884,
				"y": 1.378674481,
				"z": 0.4268657693,
				"element": "C" 
			},
			{
				"x": 0.3713825977,
				"y": 2.4552476117,
				"z": 0.3595943625,
				"element": "C" 
			},
			{
				"x": 1.6198301629,
				"y": 2.2504502517,
				"z": -0.2458125739,
				"element": "C" 
			},
			{
				"x": 1.9324590372,
				"y": 1.0036585146,
				"z": -0.7709195927,
				"element": "C" 
			},
			{
				"x": -0.0542916477,
				"y": 3.7538873851,
				"z": 0.9505760775,
				"element": "C" 
			},
			{
				"x": -1.1496936306,
				"y": 3.9019965773,
				"z": 1.471498717,
				"element": "O" 
			},
			{
				"x": 0.9134893473,
				"y": 4.9355790839,
				"z": 0.9617687246,
				"element": "C" 
			},
			{
				"x": 1.069619042,
				"y": 5.7514527041,
				"z": -0.8371174867,
				"element": "Br" 
			},
			{
				"x": -2.6662084526,
				"y": -0.4022489228,
				"z": 2.4730261822,
				"element": "H" 
			},
			{
				"x": -1.6630209515,
				"y": -1.3516873768,
				"z": 3.5759769696,
				"element": "H" 
			},
			{
				"x": -0.9918867132,
				"y": 0.0750569119,
				"z": 2.7821536392,
				"element": "H" 
			},
			{
				"x": -0.1822556142,
				"y": -2.0420632535,
				"z": 1.6913133301,
				"element": "H" 
			},
			{
				"x": -1.8401449484,
				"y": -2.5617187301,
				"z": 1.4388073475,
				"element": "H" 
			},
			{
				"x": -2.2241410041,
				"y": -0.5719131833,
				"z": -0.0444560611,
				"element": "H" 
			},
			{
				"x": -1.6975031452,
				"y": -2.9069092889,
				"z": -0.8782403131,
				"element": "H" 
			},
			{
				"x": -1.2983715949,
				"y": -1.6176100956,
				"z": -2.004110375,
				"element": "H" 
			},
			{
				"x": 0.552627221,
				"y": -3.3311064168,
				"z": -1.8217549116,
				"element": "H" 
			},
			{
				"x": 0.6840528532,
				"y": -2.9889663753,
				"z": -0.1100624033,
				"element": "H" 
			},
			{
				"x": 3.6298345837,
				"y": -1.1779147461,
				"z": -1.2281552082,
				"element": "H" 
			},
			{
				"x": 3.0708206972,
				"y": -2.8445681852,
				"z": -1.3757653633,
				"element": "H" 
			},
			{
				"x": 2.8784268788,
				"y": -1.9805140465,
				"z": 0.1592147172,
				"element": "H" 
			},
			{
				"x": 0.4887724303,
				"y": -0.8852742255,
				"z": -3.3085036856,
				"element": "H" 
			},
			{
				"x": 1.7957862661,
				"y": -2.0763622967,
				"z": -3.4394032604,
				"element": "H" 
			},
			{
				"x": 2.1697242526,
				"y": -0.3637863855,
				"z": -3.186703333,
				"element": "H" 
			},
			{
				"x": -1.4900313277,
				"y": 1.5580894379,
				"z": 0.881176806,
				"element": "H" 
			},
			{
				"x": 2.3338217104,
				"y": 3.0611408027,
				"z": -0.3428138435,
				"element": "H" 
			},
			{
				"x": 2.8929560948,
				"y": 0.8765318902,
				"z": -1.260087507,
				"element": "H" 
			},
			{
				"x": 1.9262804648,
				"y": 4.6626195198,
				"z": 1.2566993284,
				"element": "H" 
			},
			{
				"x": 0.5100829003,
				"y": 5.709938104,
				"z": 1.6090910168,
				"element": "H" 
			}
		],
		 "valence_orbital": [ 
			{
				"type": "occ",
				"energy": -0.28976,
				"method": "rhf"
			},
			{
				"type": "occ",
				"energy": -0.28016,
				"method": "rhf"
			},
			{
				"type": "occ",
				"energy": -0.2537,
				"method": "rhf"
			},
			{
				"type": "occ",
				"energy": -0.25084,
				"method": "rhf"
			},
			{
				"type": "occ",
				"energy": -0.2462,
				"method": "rhf"
			},
			{
				"type": "unocc",
				"energy": -0.06902,
				"method": "rhf"
			},
			{
				"type": "unocc",
				"energy": -0.00904,
				"method": "rhf"
			},
			{
				"type": "unocc",
				"energy": -0.00861,
				"method": "rhf"
			},
			{
				"type": "unocc",
				"energy": 0.04961,
				"method": "rhf"
			},
			{
				"type": "unocc",
				"energy": 0.07423,
				"method": "rhf"
			}
		],
		"cosmo_sigma_profile": { 
			"-0.025": 0.0,
			"-0.024": 0.0,
			"-0.023": 0.0,
			"-0.022": 0.0,
			"-0.021": 0.0,
			"-0.02": 0.0,
			"-0.019": 0.0,
			"-0.018": 0.0,
			"-0.017": 0.0,
			"-0.016": 0.0,
			"-0.015": 0.0,
			"-0.014": 0.0,
			"-0.013": 0.0,
			"-0.012": 0.0,
			"-0.011": 0.0,
			"-0.01": 0.0117628480509,
			"-0.009": 2.02175477748,
			"-0.008": 4.38772046981,
			"-0.007": 4.55742171979,
			"-0.006": 6.33675949873,
			"-0.005": 9.58917294278,
			"-0.004": 10.6760680012,
			"-0.003": 30.1252805412,
			"-0.002": 41.5879540128,
			"-0.001": 40.972145311,
			"0.0": 42.6146163614,
			"0.001": 41.6002382452,
			"0.002": 20.9135929694,
			"0.003": 14.5046423738,
			"0.004": 19.238199366,
			"0.005": 13.2770146256,
			"0.006": 3.10580534528,
			"0.007": 1.27054824182,
			"0.008": 2.05664520068,
			"0.009": 1.18100550547,
			"0.01": 2.57145602659,
			"0.011": 4.11453408666,
			"0.012": 2.27300836126,
			"0.013": 0.187927407962,
			"0.014": 0.0,
			"0.015": 0.0,
			"0.016": 0.0,
			"0.017": 0.0,
			"0.018": 0.0,
			"0.019": 0.0,
			"0.02": 0.0,
			"0.021": 0.0,
			"0.022": 0.0,
			"0.023": 0.0,
			"0.024": 0.0,
			"0.025": 0.0
		}
	}
}
