{
	 "smiles": "CC(=CC1=CC=C(C=C1)C(O)=O)C1=CC=C2C(=C1)C(C)(C)CCC2(C)C", 
	 "Tm": 513.65, 
	 "num_atms": 54, 
	 "gaussian": { 
		 "optdone": 1, 
		 "sigma_profile": "yes", 
		 "theory": "DFT", 
		 "functional": "B3LYP", 
		 "basiset": "6-31G**", 
		 "properties": { 
			 "R2extent": 13498.7461, 
			 "electric_dipole_moment_norm": 2.53301408208, 
			 "electric_quadrupole_moment_norm": 13.1251586409, 
			 "total_energy": -1081.92266607, 
			 "HOMO_LUMO_gap": 0.15819, 
			 "cosmo_polarized_energy": -11.55, 
			 "cosmo_cavitation_energy": 53.23, 
			 "cosmo_dispersion_energy": -35.19, 
			 "cosmo_repulsion_energy": 2.66, 
			 "cosmo_total_nonelectrostatic_energy": 20.71, 
			 "SMD_solvation_energy": 9.9 
		},
		"coords": [
			{
				"x": -1.6377368172,
				"y": 4.1604425868,
				"z": 0.2274417114,
				"element": "C" 
			},
			{
				"x": -0.9812561645,
				"y": 3.1284102876,
				"z": 1.1172867225,
				"element": "C" 
			},
			{
				"x": -0.762355383,
				"y": 3.4079709874,
				"z": 2.4213815907,
				"element": "C" 
			},
			{
				"x": -0.2211390568,
				"y": 2.5681366422,
				"z": 3.5023397185,
				"element": "C" 
			},
			{
				"x": -0.322663947,
				"y": 1.1618317712,
				"z": 3.5350596554,
				"element": "C" 
			},
			{
				"x": 0.178749899,
				"y": 0.4372849608,
				"z": 4.6076045045,
				"element": "C" 
			},
			{
				"x": 0.7959052499,
				"y": 1.0891749942,
				"z": 5.6857074338,
				"element": "C" 
			},
			{
				"x": 0.8892503626,
				"y": 2.4878287689,
				"z": 5.6771423746,
				"element": "C" 
			},
			{
				"x": 0.3793723777,
				"y": 3.2096819879,
				"z": 4.6044410462,
				"element": "C" 
			},
			{
				"x": 1.3145002376,
				"y": 0.2629474065,
				"z": 6.8019152825,
				"element": "C" 
			},
			{
				"x": 1.8835766841,
				"y": 0.9989240818,
				"z": 7.7931395036,
				"element": "O" 
			},
			{
				"x": 1.255774114,
				"y": -0.9508332089,
				"z": 6.8603934107,
				"element": "O" 
			},
			{
				"x": -0.5631193608,
				"y": 1.8709900895,
				"z": 0.433257482,
				"element": "C" 
			},
			{
				"x": 0.7801120366,
				"y": 1.4672794741,
				"z": 0.4215361,
				"element": "C" 
			},
			{
				"x": 1.1524916497,
				"y": 0.3133505198,
				"z": -0.2536983068,
				"element": "C" 
			},
			{
				"x": 0.2278264169,
				"y": -0.4917883908,
				"z": -0.9425738703,
				"element": "C" 
			},
			{
				"x": -1.1230784885,
				"y": -0.0779892183,
				"z": -0.9693450501,
				"element": "C" 
			},
			{
				"x": -1.4815063051,
				"y": 1.091008084,
				"z": -0.2768605417,
				"element": "C" 
			},
			{
				"x": -2.228244802,
				"y": -0.8657168918,
				"z": -1.6974401307,
				"element": "C" 
			},
			{
				"x": -3.1047882391,
				"y": -1.5957263171,
				"z": -0.6503050946,
				"element": "C" 
			},
			{
				"x": -3.1345263953,
				"y": 0.0724742048,
				"z": -2.5267125759,
				"element": "C" 
			},
			{
				"x": -1.6038083824,
				"y": -1.8884240331,
				"z": -2.6724186414,
				"element": "C" 
			},
			{
				"x": -0.4460353681,
				"y": -2.6644729054,
				"z": -2.0534823374,
				"element": "C" 
			},
			{
				"x": 0.7382805849,
				"y": -1.7556234635,
				"z": -1.6566408368,
				"element": "C" 
			},
			{
				"x": 1.5342584905,
				"y": -1.3387684599,
				"z": -2.9179866918,
				"element": "C" 
			},
			{
				"x": 1.6705260309,
				"y": -2.5783508689,
				"z": -0.7383233722,
				"element": "C" 
			},
			{
				"x": -0.9806062533,
				"y": 4.4311255941,
				"z": -0.6080762656,
				"element": "H" 
			},
			{
				"x": -2.5588395351,
				"y": 3.7672811963,
				"z": -0.2201267585,
				"element": "H" 
			},
			{
				"x": -1.8928116883,
				"y": 5.0683241624,
				"z": 0.7806921989,
				"element": "H" 
			},
			{
				"x": -1.0258156511,
				"y": 4.4145212203,
				"z": 2.7463788066,
				"element": "H" 
			},
			{
				"x": -0.8107514319,
				"y": 0.6406117847,
				"z": 2.7206433245,
				"element": "H" 
			},
			{
				"x": 0.0960279418,
				"y": -0.6441065254,
				"z": 4.6359129751,
				"element": "H" 
			},
			{
				"x": 1.3557235229,
				"y": 3.0004853641,
				"z": 6.5108256879,
				"element": "H" 
			},
			{
				"x": 0.4493217335,
				"y": 4.2943570161,
				"z": 4.6086668372,
				"element": "H" 
			},
			{
				"x": 2.1801635833,
				"y": 0.3543570905,
				"z": 8.4560719087,
				"element": "H" 
			},
			{
				"x": 1.5254458293,
				"y": 2.0598584901,
				"z": 0.9428748082,
				"element": "H" 
			},
			{
				"x": 2.1999372158,
				"y": 0.0283512601,
				"z": -0.2448994157,
				"element": "H" 
			},
			{
				"x": -2.5227635325,
				"y": 1.3979308948,
				"z": -0.2770084509,
				"element": "H" 
			},
			{
				"x": -2.5232691239,
				"y": -2.3062951052,
				"z": -0.0555788368,
				"element": "H" 
			},
			{
				"x": -3.5585358671,
				"y": -0.8826418279,
				"z": 0.045212837,
				"element": "H" 
			},
			{
				"x": -3.9137858104,
				"y": -2.146676799,
				"z": -1.1442561291,
				"element": "H" 
			},
			{
				"x": -3.8414908099,
				"y": -0.5225845756,
				"z": -3.1159935544,
				"element": "H" 
			},
			{
				"x": -2.5446237455,
				"y": 0.6808700938,
				"z": -3.2199178664,
				"element": "H" 
			},
			{
				"x": -3.7252368414,
				"y": 0.7487005691,
				"z": -1.9020491171,
				"element": "H" 
			},
			{
				"x": -1.2541179494,
				"y": -1.3599287058,
				"z": -3.5683736147,
				"element": "H" 
			},
			{
				"x": -2.3864397712,
				"y": -2.5779627518,
				"z": -3.0123826079,
				"element": "H" 
			},
			{
				"x": -0.0867807554,
				"y": -3.4326904041,
				"z": -2.7493749677,
				"element": "H" 
			},
			{
				"x": -0.7981975957,
				"y": -3.2015224605,
				"z": -1.1637318832,
				"element": "H" 
			},
			{
				"x": 2.3778182322,
				"y": -0.6938244318,
				"z": -2.6526452025,
				"element": "H" 
			},
			{
				"x": 1.9331073262,
				"y": -2.2230421219,
				"z": -3.4288390143,
				"element": "H" 
			},
			{
				"x": 0.9124724159,
				"y": -0.7865608345,
				"z": -3.6289109956,
				"element": "H" 
			},
			{
				"x": 1.9377996671,
				"y": -3.5201522345,
				"z": -1.2310777733,
				"element": "H" 
			},
			{
				"x": 1.1790396659,
				"y": -2.8200704049,
				"z": 0.2095377577,
				"element": "H" 
			},
			{
				"x": 2.6041438033,
				"y": -2.0564586433,
				"z": -0.5101337748,
				"element": "H" 
			}
		],
		 "valence_orbital": [ 
			{
				"type": "occ",
				"energy": -0.26931,
				"method": "rhf"
			},
			{
				"type": "occ",
				"energy": -0.25454,
				"method": "rhf"
			},
			{
				"type": "occ",
				"energy": -0.2441,
				"method": "rhf"
			},
			{
				"type": "occ",
				"energy": -0.23962,
				"method": "rhf"
			},
			{
				"type": "occ",
				"energy": -0.21301,
				"method": "rhf"
			},
			{
				"type": "unocc",
				"energy": -0.05482,
				"method": "rhf"
			},
			{
				"type": "unocc",
				"energy": -0.00811,
				"method": "rhf"
			},
			{
				"type": "unocc",
				"energy": -0.00667,
				"method": "rhf"
			},
			{
				"type": "unocc",
				"energy": 0.00493,
				"method": "rhf"
			},
			{
				"type": "unocc",
				"energy": 0.02922,
				"method": "rhf"
			}
		],
		"cosmo_sigma_profile": { 
			"-0.025": 0.0,
			"-0.024": 0.0,
			"-0.023": 0.0,
			"-0.022": 0.0,
			"-0.021": 0.0,
			"-0.02": 0.0,
			"-0.019": 0.0,
			"-0.018": 0.478096856722,
			"-0.017": 0.967005482642,
			"-0.016": 0.82770629934,
			"-0.015": 0.585643708868,
			"-0.014": 0.94819130533,
			"-0.013": 0.653033525697,
			"-0.012": 0.877842503836,
			"-0.011": 0.505044349553,
			"-0.01": 0.876862624638,
			"-0.009": 0.560568064224,
			"-0.008": 0.33735026309,
			"-0.007": 0.73297083758,
			"-0.006": 6.26420556823,
			"-0.005": 16.3657556465,
			"-0.004": 22.2204881058,
			"-0.003": 32.3751728806,
			"-0.002": 54.0971972092,
			"-0.001": 49.0473438381,
			"0.0": 52.3252951683,
			"0.001": 56.3115864872,
			"0.002": 36.3417845818,
			"0.003": 24.6328744674,
			"0.004": 23.9789480353,
			"0.005": 10.2313879203,
			"0.006": 6.27479738906,
			"0.007": 3.57924438762,
			"0.008": 2.52743014558,
			"0.009": 1.66658989424,
			"0.01": 1.78863443251,
			"0.011": 2.87410950562,
			"0.012": 5.12555422053,
			"0.013": 0.601601411594,
			"0.014": 0.0,
			"0.015": 0.0,
			"0.016": 0.0,
			"0.017": 0.0,
			"0.018": 0.0,
			"0.019": 0.0,
			"0.02": 0.0,
			"0.021": 0.0,
			"0.022": 0.0,
			"0.023": 0.0,
			"0.024": 0.0,
			"0.025": 0.0
		}
	}
}
