{
	 "smiles": "CC1=CSC(=O)N1CC(O)=O", 
	 "Tm": 467.15, 
	 "num_atms": 18, 
	 "gaussian": { 
		 "optdone": 1, 
		 "sigma_profile": "yes", 
		 "theory": "DFT", 
		 "functional": "B3LYP", 
		 "basiset": "6-31G**", 
		 "properties": { 
			 "R2extent": 2374.533, 
			 "electric_dipole_moment_norm": 4.52595052779, 
			 "electric_quadrupole_moment_norm": 12.2838526005, 
			 "total_energy": -911.479471597, 
			 "HOMO_LUMO_gap": 0.21867, 
			 "cosmo_polarized_energy": -16.8, 
			 "cosmo_cavitation_energy": 23.92, 
			 "cosmo_dispersion_energy": -17.67, 
			 "cosmo_repulsion_energy": 1.37, 
			 "cosmo_total_nonelectrostatic_energy": 7.62, 
			 "SMD_solvation_energy": 6.34 
		},
		"coords": [
			{
				"x": 1.1185554933,
				"y": -0.16058777,
				"z": 1.1465339922,
				"element": "C" 
			},
			{
				"x": 0.6756750425,
				"y": 0.831352528,
				"z": 0.1165569388,
				"element": "C" 
			},
			{
				"x": 0.3823738027,
				"y": 2.1310360362,
				"z": 0.3165541275,
				"element": "C" 
			},
			{
				"x": -0.1063931321,
				"y": 2.956930101,
				"z": -1.1561866256,
				"element": "S" 
			},
			{
				"x": 0.1169860688,
				"y": 1.4490266242,
				"z": -2.1120552716,
				"element": "C" 
			},
			{
				"x": -0.0462404981,
				"y": 1.3203137153,
				"z": -3.3076107612,
				"element": "O" 
			},
			{
				"x": 0.5043600604,
				"y": 0.4357577086,
				"z": -1.2267290776,
				"element": "N" 
			},
			{
				"x": 0.8780658879,
				"y": -0.8659415487,
				"z": -1.766570955,
				"element": "C" 
			},
			{
				"x": -0.0582524008,
				"y": -2.0204165758,
				"z": -1.3875912906,
				"element": "C" 
			},
			{
				"x": -1.319743074,
				"y": -1.6805538483,
				"z": -1.0469143736,
				"element": "O" 
			},
			{
				"x": 0.3061076072,
				"y": -3.1675408276,
				"z": -1.4169676611,
				"element": "O" 
			},
			{
				"x": 0.4170384331,
				"y": -0.9981326135,
				"z": 1.2320133097,
				"element": "H" 
			},
			{
				"x": 1.180877629,
				"y": 0.3286502128,
				"z": 2.120480322,
				"element": "H" 
			},
			{
				"x": 2.1055993031,
				"y": -0.5772186527,
				"z": 0.9155292024,
				"element": "H" 
			},
			{
				"x": 0.4192125133,
				"y": 2.6557575659,
				"z": 1.2597754996,
				"element": "H" 
			},
			{
				"x": 0.8606601089,
				"y": -0.7622749061,
				"z": -2.856313614,
				"element": "H" 
			},
			{
				"x": 1.8892309919,
				"y": -1.1487275398,
				"z": -1.4669765317,
				"element": "H" 
			},
			{
				"x": -1.425013837,
				"y": -0.7174302097,
				"z": -1.1029272302,
				"element": "H" 
			}
		],
		 "valence_orbital": [ 
			{
				"type": "occ",
				"energy": -0.3281,
				"method": "rhf"
			},
			{
				"type": "occ",
				"energy": -0.31606,
				"method": "rhf"
			},
			{
				"type": "occ",
				"energy": -0.29065,
				"method": "rhf"
			},
			{
				"type": "occ",
				"energy": -0.28116,
				"method": "rhf"
			},
			{
				"type": "occ",
				"energy": -0.23058,
				"method": "rhf"
			},
			{
				"type": "unocc",
				"energy": -0.01191,
				"method": "rhf"
			},
			{
				"type": "unocc",
				"energy": -0.00687,
				"method": "rhf"
			},
			{
				"type": "unocc",
				"energy": 0.0024,
				"method": "rhf"
			},
			{
				"type": "unocc",
				"energy": 0.01085,
				"method": "rhf"
			},
			{
				"type": "unocc",
				"energy": 0.05283,
				"method": "rhf"
			}
		],
		"cosmo_sigma_profile": { 
			"-0.025": 0.0,
			"-0.024": 0.0,
			"-0.023": 0.0,
			"-0.022": 0.0,
			"-0.021": 0.0,
			"-0.02": 0.0,
			"-0.019": 0.0,
			"-0.018": 0.0,
			"-0.017": 0.367584918513,
			"-0.016": 1.03422025633,
			"-0.015": 0.747013534821,
			"-0.014": 0.828007687654,
			"-0.013": 0.939087946618,
			"-0.012": 2.1181291931,
			"-0.011": 0.74359997484,
			"-0.01": 0.936714056818,
			"-0.009": 5.65207445331,
			"-0.008": 8.54182251207,
			"-0.007": 8.77123317065,
			"-0.006": 10.9670915828,
			"-0.005": 12.2709722758,
			"-0.004": 11.5693221602,
			"-0.003": 10.7774400377,
			"-0.002": 12.2934699151,
			"-0.001": 10.4914225724,
			"0.0": 9.28597118845,
			"0.001": 10.1262992776,
			"0.002": 11.1498290696,
			"0.003": 10.0615605802,
			"0.004": 6.7338752783,
			"0.005": 5.07443682917,
			"0.006": 3.04729408105,
			"0.007": 3.9692339133,
			"0.008": 4.01458096859,
			"0.009": 6.29333117449,
			"0.01": 6.4116668002,
			"0.011": 9.05621000765,
			"0.012": 7.75129840156,
			"0.013": 0.791910417092,
			"0.014": 0.0,
			"0.015": 0.0,
			"0.016": 0.0,
			"0.017": 0.0,
			"0.018": 0.0,
			"0.019": 0.0,
			"0.02": 0.0,
			"0.021": 0.0,
			"0.022": 0.0,
			"0.023": 0.0,
			"0.024": 0.0,
			"0.025": 0.0
		}
	}
}
