{
	 "smiles": "COC1=C(OCC(C)C)C=CC(=C1)C(O)=O", 
	 "Tm": 419.15, 
	 "num_atms": 32, 
	 "gaussian": { 
		 "optdone": 1, 
		 "sigma_profile": "yes", 
		 "theory": "DFT", 
		 "functional": "B3LYP", 
		 "basiset": "6-31G**", 
		 "properties": { 
			 "R2extent": 5833.1367, 
			 "electric_dipole_moment_norm": 6.11730803622, 
			 "electric_quadrupole_moment_norm": 25.7889713011, 
			 "total_energy": -767.811536938, 
			 "HOMO_LUMO_gap": 0.19135, 
			 "cosmo_polarized_energy": -16.2, 
			 "cosmo_cavitation_energy": 35.49, 
			 "cosmo_dispersion_energy": -24.74, 
			 "cosmo_repulsion_energy": 1.95, 
			 "cosmo_total_nonelectrostatic_energy": 12.7, 
			 "SMD_solvation_energy": 8.23 
		},
		"coords": [
			{
				"x": 1.3204321869,
				"y": 2.0262555728,
				"z": 2.609962485,
				"element": "C" 
			},
			{
				"x": 1.6380270338,
				"y": 0.8701774699,
				"z": 1.827333327,
				"element": "O" 
			},
			{
				"x": 1.510215759,
				"y": 1.0110724198,
				"z": 0.4691764919,
				"element": "C" 
			},
			{
				"x": 0.240709943,
				"y": 1.1384199528,
				"z": -0.1459537709,
				"element": "C" 
			},
			{
				"x": -0.8283790099,
				"y": 1.1426750558,
				"z": 0.6904663052,
				"element": "O" 
			},
			{
				"x": -2.1470574542,
				"y": 1.199816238,
				"z": 0.1368071224,
				"element": "C" 
			},
			{
				"x": -3.1542209908,
				"y": 1.0958436912,
				"z": 1.281671321,
				"element": "C" 
			},
			{
				"x": -4.5764198191,
				"y": 1.2878913612,
				"z": 0.7357870731,
				"element": "C" 
			},
			{
				"x": -3.0099462266,
				"y": -0.2312895094,
				"z": 2.038320088,
				"element": "C" 
			},
			{
				"x": 0.1648992904,
				"y": 1.246331025,
				"z": -1.5407711219,
				"element": "C" 
			},
			{
				"x": 1.3225651155,
				"y": 1.207579042,
				"z": -2.3147666413,
				"element": "C" 
			},
			{
				"x": 2.5763507011,
				"y": 1.0444774971,
				"z": -1.7196210431,
				"element": "C" 
			},
			{
				"x": 2.6531044117,
				"y": 0.964317024,
				"z": -0.3189368715,
				"element": "C" 
			},
			{
				"x": 3.7755232633,
				"y": 1.0034824067,
				"z": -2.6100221094,
				"element": "C" 
			},
			{
				"x": 4.9165405649,
				"y": 0.4818871279,
				"z": -2.0789377808,
				"element": "O" 
			},
			{
				"x": 3.7734085079,
				"y": 1.4012582211,
				"z": -3.7525449702,
				"element": "O" 
			},
			{
				"x": 0.271635951,
				"y": 2.3134371796,
				"z": 2.494078256,
				"element": "H" 
			},
			{
				"x": 1.9655615588,
				"y": 2.8711120466,
				"z": 2.3370214584,
				"element": "H" 
			},
			{
				"x": 1.5106971618,
				"y": 1.7493134566,
				"z": 3.6486460221,
				"element": "H" 
			},
			{
				"x": -2.2860072851,
				"y": 0.3707914318,
				"z": -0.5723295861,
				"element": "H" 
			},
			{
				"x": -2.2772637192,
				"y": 2.1438513408,
				"z": -0.4103953219,
				"element": "H" 
			},
			{
				"x": -2.9351427394,
				"y": 1.9187383834,
				"z": 1.9760578059,
				"element": "H" 
			},
			{
				"x": -5.3089757687,
				"y": 1.2485719894,
				"z": 1.5476026384,
				"element": "H" 
			},
			{
				"x": -4.8354221989,
				"y": 0.4981922366,
				"z": 0.0203076069,
				"element": "H" 
			},
			{
				"x": -4.6914268371,
				"y": 2.2521768846,
				"z": 0.2286767986,
				"element": "H" 
			},
			{
				"x": -1.9906307469,
				"y": -0.3648586127,
				"z": 2.4089228603,
				"element": "H" 
			},
			{
				"x": -3.6948186709,
				"y": -0.2682833197,
				"z": 2.8916031707,
				"element": "H" 
			},
			{
				"x": -3.2466465991,
				"y": -1.0796963857,
				"z": 1.3843732988,
				"element": "H" 
			},
			{
				"x": -0.7963372644,
				"y": 1.3551463837,
				"z": -2.0281360046,
				"element": "H" 
			},
			{
				"x": 1.2689368036,
				"y": 1.2956401653,
				"z": -3.3941978845,
				"element": "H" 
			},
			{
				"x": 3.6012008255,
				"y": 0.8919438577,
				"z": 0.2073248407,
				"element": "H" 
			},
			{
				"x": 4.7241862521,
				"y": 0.0569283659,
				"z": -1.2318258643,
				"element": "H" 
			}
		],
		 "valence_orbital": [ 
			{
				"type": "occ",
				"energy": -0.30559,
				"method": "rhf"
			},
			{
				"type": "occ",
				"energy": -0.28888,
				"method": "rhf"
			},
			{
				"type": "occ",
				"energy": -0.26484,
				"method": "rhf"
			},
			{
				"type": "occ",
				"energy": -0.25821,
				"method": "rhf"
			},
			{
				"type": "occ",
				"energy": -0.22972,
				"method": "rhf"
			},
			{
				"type": "unocc",
				"energy": -0.03837,
				"method": "rhf"
			},
			{
				"type": "unocc",
				"energy": -0.01427,
				"method": "rhf"
			},
			{
				"type": "unocc",
				"energy": 0.0575,
				"method": "rhf"
			},
			{
				"type": "unocc",
				"energy": 0.06725,
				"method": "rhf"
			},
			{
				"type": "unocc",
				"energy": 0.0725,
				"method": "rhf"
			}
		],
		"cosmo_sigma_profile": { 
			"-0.025": 0.0,
			"-0.024": 0.0,
			"-0.023": 0.0,
			"-0.022": 0.0,
			"-0.021": 0.0,
			"-0.02": 0.0,
			"-0.019": 0.0345556165554,
			"-0.018": 0.650695604176,
			"-0.017": 1.30554591521,
			"-0.016": 0.8054773351,
			"-0.015": 0.978029211908,
			"-0.014": 0.875366569263,
			"-0.013": 0.801703209993,
			"-0.012": 1.14895857712,
			"-0.011": 1.49061136574,
			"-0.01": 0.889221439785,
			"-0.009": 0.90644351919,
			"-0.008": 1.50474472593,
			"-0.007": 3.90481448987,
			"-0.006": 7.29002933507,
			"-0.005": 14.8541811103,
			"-0.004": 17.8203067026,
			"-0.003": 31.0984149676,
			"-0.002": 30.8303435639,
			"-0.001": 25.8786834893,
			"0.0": 24.3567099508,
			"0.001": 26.2733492151,
			"0.002": 19.810663572,
			"0.003": 13.7783013084,
			"0.004": 7.71210542026,
			"0.005": 5.12868158577,
			"0.006": 4.69307253334,
			"0.007": 3.80245908211,
			"0.008": 4.12064657995,
			"0.009": 5.05808864213,
			"0.01": 5.75139542141,
			"0.011": 6.65206070568,
			"0.012": 6.28165050979,
			"0.013": 2.51562537259,
			"0.014": 0.318494163105,
			"0.015": 0.0,
			"0.016": 0.0,
			"0.017": 0.0,
			"0.018": 0.0,
			"0.019": 0.0,
			"0.02": 0.0,
			"0.021": 0.0,
			"0.022": 0.0,
			"0.023": 0.0,
			"0.024": 0.0,
			"0.025": 0.0
		}
	}
}
