{
	 "smiles": "CCOC(=O)C1=NNC(=N1)C(O)C1=CC=CC=C1", 
	 "Tm": 323.15, 
	 "num_atms": 31, 
	 "gaussian": { 
		 "optdone": 1, 
		 "sigma_profile": "yes", 
		 "theory": "DFT", 
		 "functional": "B3LYP", 
		 "basiset": "6-31G**", 
		 "properties": { 
			 "R2extent": 7405.4858, 
			 "electric_dipole_moment_norm": 2.38598307412, 
			 "electric_quadrupole_moment_norm": 32.1815388016, 
			 "total_energy": -855.029985447, 
			 "HOMO_LUMO_gap": 0.21987, 
			 "cosmo_polarized_energy": -18.94, 
			 "cosmo_cavitation_energy": 36.17, 
			 "cosmo_dispersion_energy": -26.0, 
			 "cosmo_repulsion_energy": 2.05, 
			 "cosmo_total_nonelectrostatic_energy": 12.22, 
			 "SMD_solvation_energy": 4.93 
		},
		"coords": [
			{
				"x": 1.7525971783,
				"y": -5.064171363,
				"z": 0.9564995124,
				"element": "C" 
			},
			{
				"x": 1.5802800628,
				"y": -3.8168956851,
				"z": 1.8104662762,
				"element": "C" 
			},
			{
				"x": 1.268917989,
				"y": -2.6608711918,
				"z": 0.9957645823,
				"element": "O" 
			},
			{
				"x": 2.3206222613,
				"y": -2.0068529087,
				"z": 0.4692446851,
				"element": "C" 
			},
			{
				"x": 3.4836229169,
				"y": -2.3082431565,
				"z": 0.6304527219,
				"element": "O" 
			},
			{
				"x": 1.8706743766,
				"y": -0.8431462089,
				"z": -0.3456228281,
				"element": "C" 
			},
			{
				"x": 2.759439757,
				"y": -0.0509620646,
				"z": -0.9379271743,
				"element": "N" 
			},
			{
				"x": 1.9646990192,
				"y": 0.8498426669,
				"z": -1.5518442602,
				"element": "N" 
			},
			{
				"x": 0.6587712436,
				"y": 0.5826970843,
				"z": -1.3154981217,
				"element": "C" 
			},
			{
				"x": 0.564778782,
				"y": -0.4905776255,
				"z": -0.5536249592,
				"element": "N" 
			},
			{
				"x": -0.5383667374,
				"y": 1.3376245553,
				"z": -1.8538537809,
				"element": "C" 
			},
			{
				"x": -1.6251519989,
				"y": 1.1550584203,
				"z": -0.9711548849,
				"element": "O" 
			},
			{
				"x": -0.2295031578,
				"y": 2.8146427568,
				"z": -2.041363615,
				"element": "C" 
			},
			{
				"x": -0.455632855,
				"y": 3.7247344528,
				"z": -1.0032843921,
				"element": "C" 
			},
			{
				"x": -0.1208882027,
				"y": 5.0688529773,
				"z": -1.1663875573,
				"element": "C" 
			},
			{
				"x": 0.4488469958,
				"y": 5.51428113,
				"z": -2.3620930287,
				"element": "C" 
			},
			{
				"x": 0.6724590352,
				"y": 4.6109409663,
				"z": -3.4021751499,
				"element": "C" 
			},
			{
				"x": 0.3280198527,
				"y": 3.2662903646,
				"z": -3.2436826092,
				"element": "C" 
			},
			{
				"x": 1.9076561883,
				"y": -5.935754109,
				"z": 1.6011888429,
				"element": "H" 
			},
			{
				"x": 0.8636755609,
				"y": -5.2425518028,
				"z": 0.3444807836,
				"element": "H" 
			},
			{
				"x": 2.6211010836,
				"y": -4.9641604979,
				"z": 0.3010444987,
				"element": "H" 
			},
			{
				"x": 2.4827121969,
				"y": -3.6076584032,
				"z": 2.3899065999,
				"element": "H" 
			},
			{
				"x": 0.7260194733,
				"y": -3.9072143336,
				"z": 2.4852863944,
				"element": "H" 
			},
			{
				"x": 2.3652160885,
				"y": 1.6267826341,
				"z": -2.0593450544,
				"element": "H" 
			},
			{
				"x": -0.7748162104,
				"y": 0.9086705426,
				"z": -2.8438943928,
				"element": "H" 
			},
			{
				"x": -1.4673686702,
				"y": 0.3164467335,
				"z": -0.506847416,
				"element": "H" 
			},
			{
				"x": -0.9086976831,
				"y": 3.3684383761,
				"z": -0.0845920956,
				"element": "H" 
			},
			{
				"x": -0.3055444801,
				"y": 5.7713203875,
				"z": -0.3586740344,
				"element": "H" 
			},
			{
				"x": 0.7084110563,
				"y": 6.5616400381,
				"z": -2.4854816629,
				"element": "H" 
			},
			{
				"x": 1.1002964092,
				"y": 4.9525782455,
				"z": -4.3402768592,
				"element": "H" 
			},
			{
				"x": 0.4752524681,
				"y": 2.5698170185,
				"z": -4.0670110209,
				"element": "H" 
			}
		],
		 "valence_orbital": [ 
			{
				"type": "occ",
				"energy": -0.29145,
				"method": "rhf"
			},
			{
				"type": "occ",
				"energy": -0.27435,
				"method": "rhf"
			},
			{
				"type": "occ",
				"energy": -0.2731,
				"method": "rhf"
			},
			{
				"type": "occ",
				"energy": -0.26407,
				"method": "rhf"
			},
			{
				"type": "occ",
				"energy": -0.25754,
				"method": "rhf"
			},
			{
				"type": "unocc",
				"energy": -0.03767,
				"method": "rhf"
			},
			{
				"type": "unocc",
				"energy": -0.02078,
				"method": "rhf"
			},
			{
				"type": "unocc",
				"energy": -0.01713,
				"method": "rhf"
			},
			{
				"type": "unocc",
				"energy": 0.00509,
				"method": "rhf"
			},
			{
				"type": "unocc",
				"energy": 0.0747,
				"method": "rhf"
			}
		],
		"cosmo_sigma_profile": { 
			"-0.025": 0.0,
			"-0.024": 0.0,
			"-0.023": 0.0,
			"-0.022": 0.0,
			"-0.021": 0.0,
			"-0.02": 0.0,
			"-0.019": 0.0,
			"-0.018": 0.0422004473953,
			"-0.017": 0.919377882281,
			"-0.016": 0.65658236772,
			"-0.015": 0.770817428343,
			"-0.014": 0.658146199163,
			"-0.013": 1.19217241902,
			"-0.012": 1.27297875077,
			"-0.011": 1.57828837283,
			"-0.01": 2.37475286065,
			"-0.009": 2.96114077136,
			"-0.008": 3.04881819368,
			"-0.007": 5.61181547089,
			"-0.006": 13.7952503373,
			"-0.005": 17.6442379548,
			"-0.004": 28.111858979,
			"-0.003": 27.0929686541,
			"-0.002": 25.8646991645,
			"-0.001": 22.8884022443,
			"0.0": 19.0820071695,
			"0.001": 13.8756521223,
			"0.002": 12.1118694018,
			"0.003": 11.5590945666,
			"0.004": 14.3151240204,
			"0.005": 13.9948773529,
			"0.006": 6.3144197594,
			"0.007": 5.91938464809,
			"0.008": 3.95798491531,
			"0.009": 4.0279903171,
			"0.01": 6.40241850065,
			"0.011": 7.45339766892,
			"0.012": 5.95838680024,
			"0.013": 5.07537231362,
			"0.014": 1.33882421206,
			"0.015": 0.0,
			"0.016": 0.0,
			"0.017": 0.0,
			"0.018": 0.0,
			"0.019": 0.0,
			"0.02": 0.0,
			"0.021": 0.0,
			"0.022": 0.0,
			"0.023": 0.0,
			"0.024": 0.0,
			"0.025": 0.0
		}
	}
}
