{
	 "smiles": "CC1=CC=C2C=C(Br)C=CC2=N1", 
	 "Tm": 376.15, 
	 "num_atms": 20, 
	 "gaussian": { 
		 "optdone": 1, 
		 "sigma_profile": "yes", 
		 "theory": "DFT", 
		 "functional": "B3LYP", 
		 "basiset": "6-31G**", 
		 "properties": { 
			 "R2extent": 4715.5852, 
			 "electric_dipole_moment_norm": 2.25732077915, 
			 "electric_quadrupole_moment_norm": 7.26355206906, 
			 "total_energy": -3012.05776347, 
			 "HOMO_LUMO_gap": 0.17536, 
			 "cosmo_polarized_energy": -6.74, 
			 "cosmo_cavitation_energy": 26.28, 
			 "cosmo_dispersion_energy": -20.01, 
			 "cosmo_repulsion_energy": 1.58, 
			 "cosmo_total_nonelectrostatic_energy": 7.84, 
			 "SMD_solvation_energy": 1.79 
		},
		"coords": [
			{
				"x": -3.1035101529,
				"y": 0.7930352891,
				"z": -1.216234251,
				"element": "C" 
			},
			{
				"x": -1.6407020807,
				"y": 0.6499279067,
				"z": -0.8783359079,
				"element": "C" 
			},
			{
				"x": -0.6538428446,
				"y": 1.2555796319,
				"z": -1.7136400227,
				"element": "C" 
			},
			{
				"x": 0.6746980852,
				"y": 1.1222342395,
				"z": -1.4015916929,
				"element": "C" 
			},
			{
				"x": 1.0469708334,
				"y": 0.3812531018,
				"z": -0.2487191795,
				"element": "C" 
			},
			{
				"x": 2.3944960888,
				"y": 0.1912252125,
				"z": 0.1506918176,
				"element": "C" 
			},
			{
				"x": 2.6672106383,
				"y": -0.54112049,
				"z": 1.2822051425,
				"element": "C" 
			},
			{
				"x": 4.4802490842,
				"y": -0.8035110829,
				"z": 1.8294614158,
				"element": "Br" 
			},
			{
				"x": 1.6351316731,
				"y": -1.1131097336,
				"z": 2.0628468753,
				"element": "C" 
			},
			{
				"x": 0.3225683053,
				"y": -0.9367814638,
				"z": 1.6870672469,
				"element": "C" 
			},
			{
				"x": -0.0094712886,
				"y": -0.1887751235,
				"z": 0.5268551202,
				"element": "C" 
			},
			{
				"x": -1.3271447286,
				"y": -0.0451492652,
				"z": 0.200154309,
				"element": "N" 
			},
			{
				"x": -3.3216899418,
				"y": 0.377995366,
				"z": -2.2072994992,
				"element": "H" 
			},
			{
				"x": -3.7061898551,
				"y": 0.2694502618,
				"z": -0.4730483991,
				"element": "H" 
			},
			{
				"x": -3.4020344233,
				"y": 1.8477977441,
				"z": -1.2369627878,
				"element": "H" 
			},
			{
				"x": -0.966621503,
				"y": 1.8167714174,
				"z": -2.5893436962,
				"element": "H" 
			},
			{
				"x": 1.4453649982,
				"y": 1.5736917109,
				"z": -2.0213268555,
				"element": "H" 
			},
			{
				"x": 3.1975333499,
				"y": 0.6233725259,
				"z": -0.4371553932,
				"element": "H" 
			},
			{
				"x": 1.8891240856,
				"y": -1.6841241455,
				"z": 2.9485471427,
				"element": "H" 
			},
			{
				"x": -0.4913403234,
				"y": -1.362663103,
				"z": 2.264528615,
				"element": "H" 
			}
		],
		 "valence_orbital": [ 
			{
				"type": "occ",
				"energy": -0.29699,
				"method": "rhf"
			},
			{
				"type": "occ",
				"energy": -0.28851,
				"method": "rhf"
			},
			{
				"type": "occ",
				"energy": -0.25702,
				"method": "rhf"
			},
			{
				"type": "occ",
				"energy": -0.24943,
				"method": "rhf"
			},
			{
				"type": "occ",
				"energy": -0.23236,
				"method": "rhf"
			},
			{
				"type": "unocc",
				"energy": -0.057,
				"method": "rhf"
			},
			{
				"type": "unocc",
				"energy": -0.02394,
				"method": "rhf"
			},
			{
				"type": "unocc",
				"energy": 0.006,
				"method": "rhf"
			},
			{
				"type": "unocc",
				"energy": 0.01334,
				"method": "rhf"
			},
			{
				"type": "unocc",
				"energy": 0.07556,
				"method": "rhf"
			}
		],
		"cosmo_sigma_profile": { 
			"-0.025": 0.0,
			"-0.024": 0.0,
			"-0.023": 0.0,
			"-0.022": 0.0,
			"-0.021": 0.0,
			"-0.02": 0.0,
			"-0.019": 0.0,
			"-0.018": 0.0,
			"-0.017": 0.0,
			"-0.016": 0.0,
			"-0.015": 0.0,
			"-0.014": 0.0,
			"-0.013": 0.0,
			"-0.012": 0.0,
			"-0.011": 0.0,
			"-0.01": 0.0,
			"-0.009": 0.0,
			"-0.008": 1.95786356563,
			"-0.007": 7.67015476318,
			"-0.006": 8.90849674322,
			"-0.005": 13.6499276787,
			"-0.004": 15.0922072549,
			"-0.003": 15.6472851162,
			"-0.002": 13.3602865169,
			"-0.001": 15.4114443034,
			"0.0": 17.2631329886,
			"0.001": 23.6278420763,
			"0.002": 30.4879711009,
			"0.003": 18.6813620191,
			"0.004": 14.3040253221,
			"0.005": 7.3178268792,
			"0.006": 1.59255323404,
			"0.007": 1.43225833714,
			"0.008": 1.49736034034,
			"0.009": 1.45829551952,
			"0.01": 0.753483899524,
			"0.011": 0.759860425866,
			"0.012": 0.744561797529,
			"0.013": 0.963672903311,
			"0.014": 0.877310160526,
			"0.015": 0.615840072955,
			"0.016": 0.0476891837876,
			"0.017": 0.0,
			"0.018": 0.0,
			"0.019": 0.0,
			"0.02": 0.0,
			"0.021": 0.0,
			"0.022": 0.0,
			"0.023": 0.0,
			"0.024": 0.0,
			"0.025": 0.0
		}
	}
}
