{
	 "smiles": "OC(=O)COC1=CC=C(C=C1)C(=O)C1=CC=CC=C1", 
	 "Tm": 427.15, 
	 "num_atms": 31, 
	 "gaussian": { 
		 "optdone": 1, 
		 "sigma_profile": "yes", 
		 "theory": "DFT", 
		 "functional": "B3LYP", 
		 "basiset": "6-31G**", 
		 "properties": { 
			 "R2extent": 8769.2094, 
			 "electric_dipole_moment_norm": 4.33518542741, 
			 "electric_quadrupole_moment_norm": 25.4206132082, 
			 "total_energy": -879.722973285, 
			 "HOMO_LUMO_gap": 0.17696, 
			 "cosmo_polarized_energy": -18.82, 
			 "cosmo_cavitation_energy": 36.5, 
			 "cosmo_dispersion_energy": -26.4, 
			 "cosmo_repulsion_energy": 2.02, 
			 "cosmo_total_nonelectrostatic_energy": 12.12, 
			 "SMD_solvation_energy": 8.19 
		},
		"coords": [
			{
				"x": 0.1360633487,
				"y": 4.5761480096,
				"z": -3.0740422316,
				"element": "O" 
			},
			{
				"x": 1.1973086057,
				"y": 4.5355958639,
				"z": -2.2526940737,
				"element": "C" 
			},
			{
				"x": 2.1089227471,
				"y": 5.3208628633,
				"z": -2.3126373504,
				"element": "O" 
			},
			{
				"x": 1.188378959,
				"y": 3.4143438688,
				"z": -1.2113494791,
				"element": "C" 
			},
			{
				"x": 0.0051610129,
				"y": 2.6395282287,
				"z": -1.376770053,
				"element": "O" 
			},
			{
				"x": -0.2300186852,
				"y": 1.5728675382,
				"z": -0.5481524493,
				"element": "C" 
			},
			{
				"x": -1.4255321181,
				"y": 0.8787773191,
				"z": -0.7711720029,
				"element": "C" 
			},
			{
				"x": -1.7408868115,
				"y": -0.2241186366,
				"z": 0.0122000358,
				"element": "C" 
			},
			{
				"x": -0.8777300283,
				"y": -0.6497737152,
				"z": 1.0373548944,
				"element": "C" 
			},
			{
				"x": 0.30065311,
				"y": 0.0757184479,
				"z": 1.2611913445,
				"element": "C" 
			},
			{
				"x": 0.6399834703,
				"y": 1.1718599096,
				"z": 0.4732687613,
				"element": "C" 
			},
			{
				"x": -1.1872415577,
				"y": -1.7820623887,
				"z": 1.968258039,
				"element": "C" 
			},
			{
				"x": -0.6980992382,
				"y": -1.7938180556,
				"z": 3.0935870527,
				"element": "O" 
			},
			{
				"x": -2.0907661233,
				"y": -2.9006855791,
				"z": 1.5392466556,
				"element": "C" 
			},
			{
				"x": -2.1828275773,
				"y": -3.3455569615,
				"z": 0.211094411,
				"element": "C" 
			},
			{
				"x": -2.9891318215,
				"y": -4.4380560663,
				"z": -0.1114216797,
				"element": "C" 
			},
			{
				"x": -3.7191834682,
				"y": -5.0875184935,
				"z": 0.8851689317,
				"element": "C" 
			},
			{
				"x": -3.6264763517,
				"y": -4.6558680462,
				"z": 2.2120996627,
				"element": "C" 
			},
			{
				"x": -2.8075509874,
				"y": -3.5791314981,
				"z": 2.5383477753,
				"element": "C" 
			},
			{
				"x": -0.4608985126,
				"y": 3.8457592967,
				"z": -2.8334008402,
				"element": "H" 
			},
			{
				"x": 1.2320348091,
				"y": 3.870186282,
				"z": -0.2150509664,
				"element": "H" 
			},
			{
				"x": 2.0889937861,
				"y": 2.8056290321,
				"z": -1.3546691927,
				"element": "H" 
			},
			{
				"x": -2.0938329735,
				"y": 1.2205122699,
				"z": -1.5547310223,
				"element": "H" 
			},
			{
				"x": -2.6784751603,
				"y": -0.7415919605,
				"z": -0.1585403745,
				"element": "H" 
			},
			{
				"x": 0.9496846198,
				"y": -0.2363304825,
				"z": 2.0724983028,
				"element": "H" 
			},
			{
				"x": 1.5655384625,
				"y": 1.7022734599,
				"z": 0.6630134819,
				"element": "H" 
			},
			{
				"x": -1.6027200779,
				"y": -2.8583810164,
				"z": -0.565662002,
				"element": "H" 
			},
			{
				"x": -3.0432695529,
				"y": -4.7837247434,
				"z": -1.1396249919,
				"element": "H" 
			},
			{
				"x": -4.3530477848,
				"y": -5.9323307542,
				"z": 0.6311118877,
				"element": "H" 
			},
			{
				"x": -4.1879929083,
				"y": -5.1648719661,
				"z": 2.9900831622,
				"element": "H" 
			},
			{
				"x": -2.7037411924,
				"y": -3.2443420258,
				"z": 3.5650943112,
				"element": "H" 
			}
		],
		 "valence_orbital": [ 
			{
				"type": "occ",
				"energy": -0.27633,
				"method": "rhf"
			},
			{
				"type": "occ",
				"energy": -0.26627,
				"method": "rhf"
			},
			{
				"type": "occ",
				"energy": -0.26404,
				"method": "rhf"
			},
			{
				"type": "occ",
				"energy": -0.25467,
				"method": "rhf"
			},
			{
				"type": "occ",
				"energy": -0.24533,
				"method": "rhf"
			},
			{
				"type": "unocc",
				"energy": -0.06837,
				"method": "rhf"
			},
			{
				"type": "unocc",
				"energy": -0.02665,
				"method": "rhf"
			},
			{
				"type": "unocc",
				"energy": -0.01811,
				"method": "rhf"
			},
			{
				"type": "unocc",
				"energy": -0.01202,
				"method": "rhf"
			},
			{
				"type": "unocc",
				"energy": 0.00264,
				"method": "rhf"
			}
		],
		"cosmo_sigma_profile": { 
			"-0.025": 0.0,
			"-0.024": 0.0,
			"-0.023": 0.0,
			"-0.022": 0.0,
			"-0.021": 0.0,
			"-0.02": 0.0,
			"-0.019": 0.0,
			"-0.018": 0.0,
			"-0.017": 0.0,
			"-0.016": 0.0,
			"-0.015": 0.214165391881,
			"-0.014": 0.745352071804,
			"-0.013": 0.998088572059,
			"-0.012": 0.385546285488,
			"-0.011": 0.687471309737,
			"-0.01": 0.6886942483,
			"-0.009": 6.08732977469,
			"-0.008": 9.95540561662,
			"-0.007": 11.0468536779,
			"-0.006": 19.5322805988,
			"-0.005": 21.2571038494,
			"-0.004": 21.33587103,
			"-0.003": 17.8523210232,
			"-0.002": 16.4643927786,
			"-0.001": 17.5208488903,
			"0.0": 15.2129594538,
			"0.001": 19.4783829228,
			"0.002": 20.3495114098,
			"0.003": 23.556405459,
			"0.004": 18.342942658,
			"0.005": 6.90805706284,
			"0.006": 4.14094390364,
			"0.007": 3.5580803779,
			"0.008": 5.00302257364,
			"0.009": 6.12485124539,
			"0.01": 6.85916838034,
			"0.011": 7.49525750284,
			"0.012": 8.78426931586,
			"0.013": 2.21527967423,
			"0.014": 0.0,
			"0.015": 0.0,
			"0.016": 0.0,
			"0.017": 0.0,
			"0.018": 0.0,
			"0.019": 0.0,
			"0.02": 0.0,
			"0.021": 0.0,
			"0.022": 0.0,
			"0.023": 0.0,
			"0.024": 0.0,
			"0.0": 0.0
		}
	}
}
