{
	 "smiles": "C[Si](C)(CCCC(O)=O)O[Si](C)(C)CCCC(O)=O", 
	 "Tm": 320.15, 
	 "num_atms": 45, 
	 "gaussian": { 
		 "optdone": 1, 
		 "sigma_profile": "yes", 
		 "theory": "DFT", 
		 "functional": "B3LYP", 
		 "basiset": "6-31G**", 
		 "properties": { 
			 "R2extent": 7793.4813, 
			 "electric_dipole_moment_norm": 2.72776147601, 
			 "electric_quadrupole_moment_norm": 5.8365217176, 
			 "total_energy": -1428.27201171, 
			 "HOMO_LUMO_gap": 0.25881, 
			 "cosmo_polarized_energy": -15.71, 
			 "cosmo_cavitation_energy": 51.11, 
			 "cosmo_dispersion_energy": -27.89, 
			 "cosmo_repulsion_energy": 2.42, 
			 "cosmo_total_nonelectrostatic_energy": 25.65, 
			 "SMD_solvation_energy": 11.91 
		},
		"coords": [
			{
				"x": 1.954354271,
				"y": -0.2920822248,
				"z": -3.6293207745,
				"element": "C" 
			},
			{
				"x": 1.7369609255,
				"y": 0.2838710069,
				"z": -1.8470813346,
				"element": "Si" 
			},
			{
				"x": 3.4232306496,
				"y": 0.5440665195,
				"z": -1.0428996321,
				"element": "C" 
			},
			{
				"x": 0.6825800567,
				"y": -0.9291932335,
				"z": -0.8514650276,
				"element": "C" 
			},
			{
				"x": 1.3076973579,
				"y": -2.2987675719,
				"z": -0.5281166173,
				"element": "C" 
			},
			{
				"x": 0.4177769857,
				"y": -3.1595948245,
				"z": 0.3780382239,
				"element": "C" 
			},
			{
				"x": -0.8178073069,
				"y": -3.688640551,
				"z": -0.3166637056,
				"element": "C" 
			},
			{
				"x": -1.6791067838,
				"y": -4.2616494697,
				"z": 0.5636876795,
				"element": "O" 
			},
			{
				"x": -1.0483488202,
				"y": -3.6513962073,
				"z": -1.506611862,
				"element": "O" 
			},
			{
				"x": 0.9589222526,
				"y": 1.7593156511,
				"z": -1.852260416,
				"element": "O" 
			},
			{
				"x": -0.3924820408,
				"y": 2.7072873274,
				"z": -1.6853313785,
				"element": "Si" 
			},
			{
				"x": -1.6457220477,
				"y": 2.286915516,
				"z": -3.0316709518,
				"element": "C" 
			},
			{
				"x": 0.1585798687,
				"y": 4.5027398273,
				"z": -1.8453495661,
				"element": "C" 
			},
			{
				"x": -1.1987649057,
				"y": 2.3998304458,
				"z": 0.0066297905,
				"element": "C" 
			},
			{
				"x": -0.324356477,
				"y": 2.7082147398,
				"z": 1.2352662508,
				"element": "C" 
			},
			{
				"x": -1.0024503062,
				"y": 2.3893834202,
				"z": 2.5742535949,
				"element": "C" 
			},
			{
				"x": -1.1498303507,
				"y": 0.9066972393,
				"z": 2.8439482243,
				"element": "C" 
			},
			{
				"x": -2.0630452804,
				"y": 0.6605030789,
				"z": 3.8123154603,
				"element": "O" 
			},
			{
				"x": -0.5242319198,
				"y": 0.0145370197,
				"z": 2.3078699566,
				"element": "O" 
			},
			{
				"x": 2.4844411012,
				"y": -1.2504425115,
				"z": -3.6754933958,
				"element": "H" 
			},
			{
				"x": 2.5289157151,
				"y": 0.4349219571,
				"z": -4.2135432966,
				"element": "H" 
			},
			{
				"x": 0.9855470172,
				"y": -0.4274630383,
				"z": -4.1220331331,
				"element": "H" 
			},
			{
				"x": 3.3211344717,
				"y": 0.8611215932,
				"z": 0.0007448378,
				"element": "H" 
			},
			{
				"x": 4.0226028318,
				"y": -0.3733978455,
				"z": -1.0556741005,
				"element": "H" 
			},
			{
				"x": 3.9902578725,
				"y": 1.3180918074,
				"z": -1.571292149,
				"element": "H" 
			},
			{
				"x": 0.4154995972,
				"y": -0.4323721051,
				"z": 0.0903591554,
				"element": "H" 
			},
			{
				"x": -0.258267614,
				"y": -1.0866558341,
				"z": -1.3956440078,
				"element": "H" 
			},
			{
				"x": 2.2687539028,
				"y": -2.1607585332,
				"z": -0.0182046672,
				"element": "H" 
			},
			{
				"x": 1.5136548581,
				"y": -2.8541345619,
				"z": -1.4502831736,
				"element": "H" 
			},
			{
				"x": 0.0991182345,
				"y": -2.5972396086,
				"z": 1.2634724217,
				"element": "H" 
			},
			{
				"x": 0.9629366525,
				"y": -4.0365084586,
				"z": 0.7537924134,
				"element": "H" 
			},
			{
				"x": -2.4207701979,
				"y": -4.5927107444,
				"z": 0.0296713354,
				"element": "H" 
			},
			{
				"x": -1.9807012091,
				"y": 1.246623418,
				"z": -2.9539769634,
				"element": "H" 
			},
			{
				"x": -1.2123858898,
				"y": 2.4220589606,
				"z": -4.0285736727,
				"element": "H" 
			},
			{
				"x": -2.5334342027,
				"y": 2.9266853252,
				"z": -2.9655822224,
				"element": "H" 
			},
			{
				"x": 0.6047878769,
				"y": 4.6847940345,
				"z": -2.8288974987,
				"element": "H" 
			},
			{
				"x": -0.6845757898,
				"y": 5.1934550688,
				"z": -1.7287540579,
				"element": "H" 
			},
			{
				"x": 0.910091667,
				"y": 4.7596657181,
				"z": -1.0913934643,
				"element": "H" 
			},
			{
				"x": -2.1239963858,
				"y": 2.9939651248,
				"z": 0.0541444281,
				"element": "H" 
			},
			{
				"x": -1.5148382802,
				"y": 1.3486525239,
				"z": 0.0366041018,
				"element": "H" 
			},
			{
				"x": -0.0514157571,
				"y": 3.7700710485,
				"z": 1.2394344682,
				"element": "H" 
			},
			{
				"x": 0.6135387562,
				"y": 2.1455273737,
				"z": 1.179044661,
				"element": "H" 
			},
			{
				"x": -0.4172369856,
				"y": 2.7935374606,
				"z": 3.4123449586,
				"element": "H" 
			},
			{
				"x": -1.9916968049,
				"y": 2.8543913719,
				"z": 2.6488704077,
				"element": "H" 
			},
			{
				"x": -2.066417566,
				"y": -0.3029172545,
				"z": 3.9439246995,
				"element": "H" 
			}
		],
		 "valence_orbital": [ 
			{
				"type": "occ",
				"energy": -0.28184,
				"method": "rhf"
			},
			{
				"type": "occ",
				"energy": -0.2789,
				"method": "rhf"
			},
			{
				"type": "occ",
				"energy": -0.26734,
				"method": "rhf"
			},
			{
				"type": "occ",
				"energy": -0.26187,
				"method": "rhf"
			},
			{
				"type": "occ",
				"energy": -0.25514,
				"method": "rhf"
			},
			{
				"type": "unocc",
				"energy": 0.00367,
				"method": "rhf"
			},
			{
				"type": "unocc",
				"energy": 0.01791,
				"method": "rhf"
			},
			{
				"type": "unocc",
				"energy": 0.06292,
				"method": "rhf"
			},
			{
				"type": "unocc",
				"energy": 0.0741,
				"method": "rhf"
			},
			{
				"type": "unocc",
				"energy": 0.07846,
				"method": "rhf"
			}
		],
		"cosmo_sigma_profile": { 
			"-0.025": 0.0,
			"-0.024": 0.0,
			"-0.023": 0.0,
			"-0.022": 0.0,
			"-0.021": 0.0,
			"-0.02": 0.0,
			"-0.019": 0.0,
			"-0.018": 0.90379910076,
			"-0.017": 1.61854241522,
			"-0.016": 1.9273015142,
			"-0.015": 1.71341927599,
			"-0.014": 1.03472188394,
			"-0.013": 1.27720595618,
			"-0.012": 1.6642785037,
			"-0.011": 1.90918269135,
			"-0.01": 1.18588599501,
			"-0.009": 1.28396096262,
			"-0.008": 0.747932104542,
			"-0.007": 1.92138242681,
			"-0.006": 7.08505782959,
			"-0.005": 8.39806791865,
			"-0.004": 12.9723310711,
			"-0.003": 38.4819270967,
			"-0.002": 59.7657781994,
			"-0.001": 48.0761615198,
			"0.0": 44.3426054715,
			"0.001": 43.5792831216,
			"0.002": 28.1385177507,
			"0.003": 16.6860797771,
			"0.004": 11.6388167726,
			"0.005": 8.41901891914,
			"0.006": 8.48650950625,
			"0.007": 7.60250499422,
			"0.008": 7.24936015896,
			"0.009": 6.6721629637,
			"0.01": 6.91571894211,
			"0.011": 3.13733858122,
			"0.012": 4.53978101993,
			"0.013": 0.900157060415,
			"0.014": 0.0,
			"0.015": 0.0,
			"0.016": 0.0,
			"0.017": 0.0,
			"0.018": 0.0,
			"0.019": 0.0,
			"0.02": 0.0,
			"0.021": 0.0,
			"0.022": 0.0,
			"0.023": 0.0,
			"0.024": 0.0,
			"0.025": 0.0
		}
	}
}
