{
	 "smiles": "CC(C=CC1(O)C(C)=CC(=O)CC1(C)C)=C/C(O)=O", 
	 "Tm": 433.15, 
	 "num_atms": 39, 
	 "gaussian": { 
		 "optdone": 1, 
		 "sigma_profile": "yes", 
		 "theory": "DFT", 
		 "functional": "B3LYP", 
		 "basiset": "6-31G**", 
		 "properties": { 
			 "R2extent": 6735.8622, 
			 "electric_dipole_moment_norm": 6.97030829806, 
			 "electric_quadrupole_moment_norm": 28.3334968103, 
			 "total_energy": -884.507587439, 
			 "HOMO_LUMO_gap": 0.16788, 
			 "cosmo_polarized_energy": -25.48, 
			 "cosmo_cavitation_energy": 40.65, 
			 "cosmo_dispersion_energy": -27.18, 
			 "cosmo_repulsion_energy": 2.11, 
			 "cosmo_total_nonelectrostatic_energy": 15.58, 
			 "SMD_solvation_energy": 8.94 
		},
		"coords": [
			{
				"x": 4.4595954573,
				"y": -0.4799606995,
				"z": -0.8622818501,
				"element": "C" 
			},
			{
				"x": 3.2438279004,
				"y": -0.8374536304,
				"z": -0.0333723628,
				"element": "C" 
			},
			{
				"x": 2.128047711,
				"y": 0.1240136326,
				"z": -0.1448479438,
				"element": "C" 
			},
			{
				"x": 0.8248791665,
				"y": -0.1693000262,
				"z": -0.0190718702,
				"element": "C" 
			},
			{
				"x": -0.313614189,
				"y": 0.8337604101,
				"z": -0.1678686118,
				"element": "C" 
			},
			{
				"x": 0.172237015,
				"y": 2.0934619031,
				"z": -0.6276651961,
				"element": "O" 
			},
			{
				"x": -1.2976092585,
				"y": 0.2224956832,
				"z": -1.1847172,
				"element": "C" 
			},
			{
				"x": -1.0108213803,
				"y": 0.4734995285,
				"z": -2.6395717408,
				"element": "C" 
			},
			{
				"x": -2.3356233447,
				"y": -0.5379526912,
				"z": -0.7880414609,
				"element": "C" 
			},
			{
				"x": -2.6730684247,
				"y": -0.7800830027,
				"z": 0.6279373072,
				"element": "C" 
			},
			{
				"x": -3.6352299263,
				"y": -1.4648509266,
				"z": 0.9451955829,
				"element": "O" 
			},
			{
				"x": -1.7536958419,
				"y": -0.1556035624,
				"z": 1.6694484978,
				"element": "C" 
			},
			{
				"x": -1.0307867722,
				"y": 1.1277872648,
				"z": 1.204923926,
				"element": "C" 
			},
			{
				"x": -2.0577699569,
				"y": 2.2676247869,
				"z": 1.0233619898,
				"element": "C" 
			},
			{
				"x": -0.0079991517,
				"y": 1.5611163809,
				"z": 2.2700893061,
				"element": "C" 
			},
			{
				"x": 3.1622814039,
				"y": -1.8998341996,
				"z": 0.8005610683,
				"element": "C" 
			},
			{
				"x": 4.1806458359,
				"y": -2.9539121028,
				"z": 1.0618276675,
				"element": "C" 
			},
			{
				"x": 4.9269959982,
				"y": -3.3964259885,
				"z": 0.0062954569,
				"element": "O" 
			},
			{
				"x": 4.3494127221,
				"y": -3.432640567,
				"z": 2.1581939865,
				"element": "O" 
			},
			{
				"x": 5.3348212578,
				"y": -1.0864364719,
				"z": -0.6280176223,
				"element": "H" 
			},
			{
				"x": 4.7248355859,
				"y": 0.568744263,
				"z": -0.6858982529,
				"element": "H" 
			},
			{
				"x": 4.2455966498,
				"y": -0.5655228439,
				"z": -1.9357981444,
				"element": "H" 
			},
			{
				"x": 2.411133735,
				"y": 1.1528281794,
				"z": -0.3628170093,
				"element": "H" 
			},
			{
				"x": 0.5224546344,
				"y": -1.1983400732,
				"z": 0.1603614662,
				"element": "H" 
			},
			{
				"x": 0.6889290245,
				"y": 1.9455764945,
				"z": -1.4305429596,
				"element": "H" 
			},
			{
				"x": -1.6915409433,
				"y": -0.090502433,
				"z": -3.2804290047,
				"element": "H" 
			},
			{
				"x": 0.0165378223,
				"y": 0.1830201331,
				"z": -2.8978872853,
				"element": "H" 
			},
			{
				"x": -1.1181632382,
				"y": 1.5383158387,
				"z": -2.8766717921,
				"element": "H" 
			},
			{
				"x": -3.0038982853,
				"y": -0.9973028007,
				"z": -1.5126085645,
				"element": "H" 
			},
			{
				"x": -1.0192301028,
				"y": -0.9229297621,
				"z": 1.9524287666,
				"element": "H" 
			},
			{
				"x": -2.3479812439,
				"y": 0.0391937771,
				"z": 2.5675746658,
				"element": "H" 
			},
			{
				"x": -2.8179780165,
				"y": 2.0281541376,
				"z": 0.2752702662,
				"element": "H" 
			},
			{
				"x": -1.5617414226,
				"y": 3.1908242539,
				"z": 0.718228478,
				"element": "H" 
			},
			{
				"x": -2.5702160744,
				"y": 2.4487372741,
				"z": 1.9739676582,
				"element": "H" 
			},
			{
				"x": 0.5481815776,
				"y": 2.4414480407,
				"z": 1.9373986669,
				"element": "H" 
			},
			{
				"x": 0.7108120009,
				"y": 0.7688854183,
				"z": 2.4972829583,
				"element": "H" 
			},
			{
				"x": -0.528078743,
				"y": 1.817833264,
				"z": 3.1988104728,
				"element": "H" 
			},
			{
				"x": 2.3089802815,
				"y": -1.9817129671,
				"z": 1.4662861724,
				"element": "H" 
			},
			{
				"x": 4.5574405364,
				"y": -3.0505559156,
				"z": -0.8175354889,
				"element": "H" 
			}
		],
		 "valence_orbital": [ 
			{
				"type": "occ",
				"energy": -0.29624,
				"method": "rhf"
			},
			{
				"type": "occ",
				"energy": -0.27419,
				"method": "rhf"
			},
			{
				"type": "occ",
				"energy": -0.2721,
				"method": "rhf"
			},
			{
				"type": "occ",
				"energy": -0.25439,
				"method": "rhf"
			},
			{
				"type": "occ",
				"energy": -0.24137,
				"method": "rhf"
			},
			{
				"type": "unocc",
				"energy": -0.07349,
				"method": "rhf"
			},
			{
				"type": "unocc",
				"energy": -0.05497,
				"method": "rhf"
			},
			{
				"type": "unocc",
				"energy": 0.01177,
				"method": "rhf"
			},
			{
				"type": "unocc",
				"energy": 0.04455,
				"method": "rhf"
			},
			{
				"type": "unocc",
				"energy": 0.0555,
				"method": "rhf"
			}
		],
		"cosmo_sigma_profile": { 
			"-0.025": 0.0,
			"-0.024": 0.0,
			"-0.023": 0.0,
			"-0.022": 0.0,
			"-0.021": 0.0,
			"-0.02": 0.0,
			"-0.019": 0.0,
			"-0.018": 0.0791709510246,
			"-0.017": 0.700685762416,
			"-0.016": 0.543572087948,
			"-0.015": 1.46185432072,
			"-0.014": 1.72944967398,
			"-0.013": 1.50811788015,
			"-0.012": 2.16726401617,
			"-0.011": 2.57791081396,
			"-0.01": 1.33179894977,
			"-0.009": 2.26160547442,
			"-0.008": 3.4377094911,
			"-0.007": 6.06453398497,
			"-0.006": 14.116951601,
			"-0.005": 20.3233727077,
			"-0.004": 23.7260135013,
			"-0.003": 29.6486762333,
			"-0.002": 31.211123426,
			"-0.001": 34.3744192046,
			"0.0": 24.7569756779,
			"0.001": 22.7647159366,
			"0.002": 17.1849952094,
			"0.003": 8.06492359341,
			"0.004": 5.84500976188,
			"0.005": 4.28688444134,
			"0.006": 5.10684997626,
			"0.007": 5.39343505113,
			"0.008": 5.87094770028,
			"0.009": 5.45978644785,
			"0.01": 7.32849011319,
			"0.011": 8.48562549426,
			"0.012": 9.84929505669,
			"0.013": 7.79938597333,
			"0.014": 2.41747264241,
			"0.015": 0.0769354395951,
			"0.016": 0.0,
			"0.017": 0.0,
			"0.018": 0.0,
			"0.019": 0.0,
			"0.02": 0.0,
			"0.021": 0.0,
			"0.022": 0.0,
			"0.023": 0.0,
			"0.024": 0.0,
			"0.025": 0.0
		}
	}
}
