{
	 "smiles": "ClC1=C(CNC2=CC3=C(NC(=O)N3)C=C2)C=CC=C1", 
	 "Tm": 501.15, 
	 "num_atms": 31, 
	 "gaussian": { 
		 "optdone": 1, 
		 "sigma_profile": "yes", 
		 "theory": "DFT", 
		 "functional": "B3LYP", 
		 "basiset": "6-31G**", 
		 "properties": { 
			 "R2extent": 7761.7103, 
			 "electric_dipole_moment_norm": 4.01861864078, 
			 "electric_quadrupole_moment_norm": 21.1439317136, 
			 "total_energy": -1240.42716251, 
			 "HOMO_LUMO_gap": 0.16883, 
			 "cosmo_polarized_energy": -18.43, 
			 "cosmo_cavitation_energy": 36.89, 
			 "cosmo_dispersion_energy": -26.89, 
			 "cosmo_repulsion_energy": 2.08, 
			 "cosmo_total_nonelectrostatic_energy": 12.08, 
			 "SMD_solvation_energy": 5.83 
		},
		"coords": [
			{
				"x": 2.6169446002,
				"y": 3.8916055961,
				"z": -2.2171637771,
				"element": "Cl" 
			},
			{
				"x": 1.9648093355,
				"y": 3.8082058216,
				"z": -0.5760394338,
				"element": "C" 
			},
			{
				"x": 0.8865540968,
				"y": 2.9566967244,
				"z": -0.2981278697,
				"element": "C" 
			},
			{
				"x": 0.2573047387,
				"y": 2.0957926889,
				"z": -1.387734741,
				"element": "C" 
			},
			{
				"x": -0.7634600186,
				"y": 1.1769014674,
				"z": -0.9125639801,
				"element": "N" 
			},
			{
				"x": -0.4507367525,
				"y": -0.1366832246,
				"z": -0.5355141,
				"element": "C" 
			},
			{
				"x": 0.8460363939,
				"y": -0.4805633501,
				"z": -0.1032823462,
				"element": "C" 
			},
			{
				"x": 1.0731936391,
				"y": -1.7950101158,
				"z": 0.2855672205,
				"element": "C" 
			},
			{
				"x": 0.0561227379,
				"y": -2.7687614237,
				"z": 0.2626246023,
				"element": "C" 
			},
			{
				"x": 0.6319339852,
				"y": -3.9578462916,
				"z": 0.7146584511,
				"element": "N" 
			},
			{
				"x": 1.977041231,
				"y": -3.7812372535,
				"z": 1.0274633898,
				"element": "C" 
			},
			{
				"x": 2.7678036056,
				"y": -4.6077198234,
				"z": 1.4467562611,
				"element": "O" 
			},
			{
				"x": 2.217784033,
				"y": -2.4313168014,
				"z": 0.749833337,
				"element": "N" 
			},
			{
				"x": -1.2234094395,
				"y": -2.4335219768,
				"z": -0.1569190941,
				"element": "C" 
			},
			{
				"x": -1.4644134078,
				"y": -1.115847658,
				"z": -0.5552988269,
				"element": "C" 
			},
			{
				"x": 0.402217971,
				"y": 2.9444699961,
				"z": 1.0150236277,
				"element": "C" 
			},
			{
				"x": 0.9719765298,
				"y": 3.740991702,
				"z": 2.0081894997,
				"element": "C" 
			},
			{
				"x": 2.0465056681,
				"y": 4.5762189097,
				"z": 1.7026773515,
				"element": "C" 
			},
			{
				"x": 2.5472956033,
				"y": 4.6131923367,
				"z": 0.4012928535,
				"element": "C" 
			},
			{
				"x": 1.051847352,
				"y": 1.5566663538,
				"z": -1.923448068,
				"element": "H" 
			},
			{
				"x": -0.2019397135,
				"y": 2.7587938512,
				"z": -2.1300757055,
				"element": "H" 
			},
			{
				"x": -1.6410541333,
				"y": 1.2510889293,
				"z": -1.4048018023,
				"element": "H" 
			},
			{
				"x": 1.6371172279,
				"y": 0.2580863638,
				"z": -0.0524695429,
				"element": "H" 
			},
			{
				"x": 0.1806375341,
				"y": -4.8510115659,
				"z": 0.8229518518,
				"element": "H" 
			},
			{
				"x": 3.1269858824,
				"y": -2.0214742321,
				"z": 0.8891204698,
				"element": "H" 
			},
			{
				"x": -2.0206754286,
				"y": -3.169790042,
				"z": -0.1840414004,
				"element": "H" 
			},
			{
				"x": -2.4600857769,
				"y": -0.8375964713,
				"z": -0.8905898554,
				"element": "H" 
			},
			{
				"x": -0.4354718375,
				"y": 2.2921489345,
				"z": 1.238000372,
				"element": "H" 
			},
			{
				"x": 0.5759654954,
				"y": 3.7079043441,
				"z": 3.0187610575,
				"element": "H" 
			},
			{
				"x": 2.4971222517,
				"y": 5.1998731817,
				"z": 2.4688745035,
				"element": "H" 
			},
			{
				"x": 3.3795465956,
				"y": 5.2574430289,
				"z": 0.1396756945,
				"element": "H" 
			}
		],
		 "valence_orbital": [ 
			{
				"type": "occ",
				"energy": -0.26149,
				"method": "rhf"
			},
			{
				"type": "occ",
				"energy": -0.25767,
				"method": "rhf"
			},
			{
				"type": "occ",
				"energy": -0.24696,
				"method": "rhf"
			},
			{
				"type": "occ",
				"energy": -0.22813,
				"method": "rhf"
			},
			{
				"type": "occ",
				"energy": -0.1847,
				"method": "rhf"
			},
			{
				"type": "unocc",
				"energy": -0.01587,
				"method": "rhf"
			},
			{
				"type": "unocc",
				"energy": -0.01175,
				"method": "rhf"
			},
			{
				"type": "unocc",
				"energy": -0.00168,
				"method": "rhf"
			},
			{
				"type": "unocc",
				"energy": 0.02481,
				"method": "rhf"
			},
			{
				"type": "unocc",
				"energy": 0.02899,
				"method": "rhf"
			}
		],
		"cosmo_sigma_profile": { 
			"-0.025": 0.0,
			"-0.024": 0.0,
			"-0.023": 0.0,
			"-0.022": 0.0,
			"-0.021": 0.0,
			"-0.02": 0.0,
			"-0.019": 0.0,
			"-0.018": 0.0,
			"-0.017": 0.0,
			"-0.016": 0.955217558799,
			"-0.015": 2.83021649247,
			"-0.014": 2.37158215759,
			"-0.013": 2.51241069916,
			"-0.012": 3.72352985681,
			"-0.011": 3.02111673876,
			"-0.01": 3.35356359103,
			"-0.009": 4.31214039553,
			"-0.008": 3.87436411472,
			"-0.007": 7.18070312056,
			"-0.006": 13.8998824327,
			"-0.005": 15.3939842541,
			"-0.004": 16.8274920558,
			"-0.003": 15.9164897602,
			"-0.002": 14.9683485718,
			"-0.001": 15.6951027635,
			"0.0": 17.7691470127,
			"0.001": 22.6312914027,
			"0.002": 26.175766655,
			"0.003": 25.9184371892,
			"0.004": 25.6066215562,
			"0.005": 21.5671511834,
			"0.006": 9.03014547457,
			"0.007": 2.22724946238,
			"0.008": 1.45951684477,
			"0.009": 1.18872981409,
			"0.01": 1.00000628202,
			"0.011": 1.55205733165,
			"0.012": 1.54208707434,
			"0.013": 3.20249877235,
			"0.014": 7.43066794088,
			"0.015": 1.72523104441,
			"0.016": 0.0,
			"0.017": 0.0,
			"0.018": 0.0,
			"0.019": 0.0,
			"0.02": 0.0,
			"0.021": 0.0,
			"0.022": 0.0,
			"0.023": 0.0,
			"0.024": 0.0,
			"0.025": 0.0
		}
	}
}
