{
	 "smiles": "CC1=CSC(CC(N)=S)=N1", 
	 "Tm": 400.15, 
	 "num_atms": 18, 
	 "gaussian": { 
		 "optdone": 1, 
		 "sigma_profile": "yes", 
		 "theory": "DFT", 
		 "functional": "B3LYP", 
		 "basiset": "6-31G**", 
		 "properties": { 
			 "R2extent": 3453.9111, 
			 "electric_dipole_moment_norm": 5.61761809489, 
			 "electric_quadrupole_moment_norm": 24.4531413489, 
			 "total_energy": -1139.34938707, 
			 "HOMO_LUMO_gap": 0.16408, 
			 "cosmo_polarized_energy": -13.08, 
			 "cosmo_cavitation_energy": 25.2, 
			 "cosmo_dispersion_energy": -19.52, 
			 "cosmo_repulsion_energy": 1.52, 
			 "cosmo_total_nonelectrostatic_energy": 7.2, 
			 "SMD_solvation_energy": 2.4 
		},
		"coords": [
			{
				"x": 1.638211687,
				"y": -0.8992948343,
				"z": 1.5314543628,
				"element": "C" 
			},
			{
				"x": 0.6621848901,
				"y": -0.5039092172,
				"z": 0.463493569,
				"element": "C" 
			},
			{
				"x": -0.3794973166,
				"y": -1.2573848295,
				"z": -0.0012182208,
				"element": "C" 
			},
			{
				"x": -1.2397136733,
				"y": -0.4072547849,
				"z": -1.2429589891,
				"element": "S" 
			},
			{
				"x": -0.131874756,
				"y": 0.9359440968,
				"z": -1.0495481232,
				"element": "C" 
			},
			{
				"x": -0.2740396313,
				"y": 2.1983817001,
				"z": -1.8597866324,
				"element": "C" 
			},
			{
				"x": 1.0012961679,
				"y": 2.732779235,
				"z": -2.524100932,
				"element": "C" 
			},
			{
				"x": 2.1166854505,
				"y": 2.5957905558,
				"z": -1.7969666037,
				"element": "N" 
			},
			{
				"x": 0.9371568649,
				"y": 3.4993998226,
				"z": -4.0010717794,
				"element": "S" 
			},
			{
				"x": 0.7826482668,
				"y": 0.7354459708,
				"z": -0.1389343633,
				"element": "N" 
			},
			{
				"x": 2.6613259296,
				"y": -0.9059057384,
				"z": 1.1400202885,
				"element": "H" 
			},
			{
				"x": 1.4135972501,
				"y": -1.8945807478,
				"z": 1.9216140721,
				"element": "H" 
			},
			{
				"x": 1.6125084828,
				"y": -0.187409154,
				"z": 2.3633166237,
				"element": "H" 
			},
			{
				"x": -0.6797719142,
				"y": -2.247082962,
				"z": 0.3116312471,
				"element": "H" 
			},
			{
				"x": -0.6355092806,
				"y": 2.9960572169,
				"z": -1.1952109761,
				"element": "H" 
			},
			{
				"x": -1.0272716019,
				"y": 2.0741625452,
				"z": -2.6371615393,
				"element": "H" 
			},
			{
				"x": 2.9861999803,
				"y": 2.936804517,
				"z": -2.180299279,
				"element": "H" 
			},
			{
				"x": 2.0993632039,
				"y": 2.0476566079,
				"z": -0.938272725,
				"element": "H" 
			}
		],
		 "valence_orbital": [ 
			{
				"type": "occ",
				"energy": -0.29769,
				"method": "rhf"
			},
			{
				"type": "occ",
				"energy": -0.29421,
				"method": "rhf"
			},
			{
				"type": "occ",
				"energy": -0.25242,
				"method": "rhf"
			},
			{
				"type": "occ",
				"energy": -0.22517,
				"method": "rhf"
			},
			{
				"type": "occ",
				"energy": -0.20307,
				"method": "rhf"
			},
			{
				"type": "unocc",
				"energy": -0.03899,
				"method": "rhf"
			},
			{
				"type": "unocc",
				"energy": -0.02471,
				"method": "rhf"
			},
			{
				"type": "unocc",
				"energy": 0.00367,
				"method": "rhf"
			},
			{
				"type": "unocc",
				"energy": 0.03042,
				"method": "rhf"
			},
			{
				"type": "unocc",
				"energy": 0.07691,
				"method": "rhf"
			}
		],
		"cosmo_sigma_profile": { 
			"-0.025": 0.0,
			"-0.024": 0.0,
			"-0.023": 0.0,
			"-0.022": 0.0,
			"-0.021": 0.0,
			"-0.02": 0.0,
			"-0.019": 0.0,
			"-0.018": 0.0,
			"-0.017": 0.0,
			"-0.016": 0.0,
			"-0.015": 0.621504640944,
			"-0.014": 1.01918857413,
			"-0.013": 1.06321174143,
			"-0.012": 1.24514131719,
			"-0.011": 1.68828356584,
			"-0.01": 1.42259000423,
			"-0.009": 2.80243288673,
			"-0.008": 6.31252553301,
			"-0.007": 7.45786501562,
			"-0.006": 7.39908419753,
			"-0.005": 11.3619074061,
			"-0.004": 13.4182210515,
			"-0.003": 12.8629815652,
			"-0.002": 12.4562147934,
			"-0.001": 16.5116825043,
			"0.0": 17.7012280408,
			"0.001": 16.3914566585,
			"0.002": 15.7841351506,
			"0.003": 12.1734507964,
			"0.004": 6.46451366347,
			"0.005": 3.9531671329,
			"0.006": 4.77420999531,
			"0.007": 4.45218869549,
			"0.008": 6.00800236245,
			"0.009": 7.57867117577,
			"0.01": 4.95483746804,
			"0.011": 4.39437080772,
			"0.012": 2.95980317426,
			"0.013": 0.436652123117,
			"0.014": 0.0,
			"0.015": 0.0,
			"0.016": 0.0,
			"0.017": 0.0,
			"0.018": 0.0,
			"0.019": 0.0,
			"0.02": 0.0,
			"0.021": 0.0,
			"0.022": 0.0,
			"0.023": 0.0,
			"0.024": 0.0,
			"0.025": 0.0
		}
	}
}
