{
	 "smiles": "CN(C)S(=O)(=O)C1=C(C=CC=C1)C#N", 
	 "Tm": 331.15, 
	 "num_atms": 24, 
	 "gaussian": { 
		 "optdone": 1, 
		 "sigma_profile": "yes", 
		 "theory": "DFT", 
		 "functional": "B3LYP", 
		 "basiset": "6-31G**", 
		 "properties": { 
			 "R2extent": 2974.5894, 
			 "electric_dipole_moment_norm": 5.30785851921, 
			 "electric_quadrupole_moment_norm": 26.5436816659, 
			 "total_energy": -1007.02290298, 
			 "HOMO_LUMO_gap": 0.18232, 
			 "cosmo_polarized_energy": -16.39, 
			 "cosmo_cavitation_energy": 29.52, 
			 "cosmo_dispersion_energy": -20.7, 
			 "cosmo_repulsion_energy": 1.57, 
			 "cosmo_total_nonelectrostatic_energy": 10.39, 
			 "SMD_solvation_energy": 5.79 
		},
		"coords": [
			{
				"x": -2.1214953784,
				"y": -0.2920852967,
				"z": 1.0153796537,
				"element": "C" 
			},
			{
				"x": -1.0186382854,
				"y": 0.2540778316,
				"z": 0.2128463669,
				"element": "N" 
			},
			{
				"x": -1.295055934,
				"y": 1.5345495436,
				"z": -0.4458858362,
				"element": "C" 
			},
			{
				"x": -0.1337531019,
				"y": -0.8456901867,
				"z": -0.7076578364,
				"element": "S" 
			},
			{
				"x": -0.3746718683,
				"y": -0.6438999,
				"z": -2.1422878467,
				"element": "O" 
			},
			{
				"x": -0.2995075095,
				"y": -2.1656479772,
				"z": -0.0977933678,
				"element": "O" 
			},
			{
				"x": 1.5602940174,
				"y": -0.2916676049,
				"z": -0.4009399167,
				"element": "C" 
			},
			{
				"x": 2.0988770108,
				"y": -0.2341484352,
				"z": 0.9014051925,
				"element": "C" 
			},
			{
				"x": 3.4428254391,
				"y": 0.1373250415,
				"z": 1.0652718927,
				"element": "C" 
			},
			{
				"x": 4.2315868766,
				"y": 0.4400779791,
				"z": -0.0437156592,
				"element": "C" 
			},
			{
				"x": 3.6892451442,
				"y": 0.3776506569,
				"z": -1.3266066116,
				"element": "C" 
			},
			{
				"x": 2.353211522,
				"y": 0.0097466572,
				"z": -1.5048704993,
				"element": "C" 
			},
			{
				"x": 1.3292029715,
				"y": -0.5225571479,
				"z": 2.0777042746,
				"element": "C" 
			},
			{
				"x": 0.7676847894,
				"y": -0.7343500194,
				"z": 3.0736531711,
				"element": "N" 
			},
			{
				"x": -2.347713944,
				"y": 0.4345385628,
				"z": 1.8005126661,
				"element": "H" 
			},
			{
				"x": -3.0261824165,
				"y": -0.4694944825,
				"z": 0.417993074,
				"element": "H" 
			},
			{
				"x": -1.8057980493,
				"y": -1.2228902681,
				"z": 1.4825562781,
				"element": "H" 
			},
			{
				"x": -0.3907239142,
				"y": 1.9157129509,
				"z": -0.9249533417,
				"element": "H" 
			},
			{
				"x": -1.5984368498,
				"y": 2.24870095,
				"z": 0.3245308071,
				"element": "H" 
			},
			{
				"x": -2.0868092042,
				"y": 1.4586545649,
				"z": -1.2019536172,
				"element": "H" 
			},
			{
				"x": 3.8552493816,
				"y": 0.1849635707,
				"z": 2.0673308949,
				"element": "H" 
			},
			{
				"x": 5.2692444597,
				"y": 0.7247871019,
				"z": 0.0987482311,
				"element": "H" 
			},
			{
				"x": 4.3017126615,
				"y": 0.6126720433,
				"z": -2.1914267913,
				"element": "H" 
			},
			{
				"x": 1.9118521817,
				"y": -0.0494261362,
				"z": -2.4933411785,
				"element": "H" 
			}
		],
		 "valence_orbital": [ 
			{
				"type": "occ",
				"energy": -0.31517,
				"method": "rhf"
			},
			{
				"type": "occ",
				"energy": -0.30721,
				"method": "rhf"
			},
			{
				"type": "occ",
				"energy": -0.29247,
				"method": "rhf"
			},
			{
				"type": "occ",
				"energy": -0.28093,
				"method": "rhf"
			},
			{
				"type": "occ",
				"energy": -0.25616,
				"method": "rhf"
			},
			{
				"type": "unocc",
				"energy": -0.07384,
				"method": "rhf"
			},
			{
				"type": "unocc",
				"energy": -0.04586,
				"method": "rhf"
			},
			{
				"type": "unocc",
				"energy": 0.02565,
				"method": "rhf"
			},
			{
				"type": "unocc",
				"energy": 0.04946,
				"method": "rhf"
			},
			{
				"type": "unocc",
				"energy": 0.06332,
				"method": "rhf"
			}
		],
		"cosmo_sigma_profile": { 
			"-0.025": 0.0,
			"-0.024": 0.0,
			"-0.023": 0.0,
			"-0.022": 0.0,
			"-0.021": 0.0,
			"-0.02": 0.0,
			"-0.019": 0.0,
			"-0.018": 0.0,
			"-0.017": 0.0,
			"-0.016": 0.0,
			"-0.015": 0.0,
			"-0.014": 0.0,
			"-0.013": 0.0,
			"-0.012": 0.0,
			"-0.011": 0.0,
			"-0.01": 0.00134230289182,
			"-0.009": 1.78471127832,
			"-0.008": 7.58374190498,
			"-0.007": 10.5860640576,
			"-0.006": 14.3024418413,
			"-0.005": 18.3746866688,
			"-0.004": 20.1852306113,
			"-0.003": 22.0204968306,
			"-0.002": 22.5286332573,
			"-0.001": 15.8821740263,
			"0.0": 16.2284291807,
			"0.001": 13.8808501473,
			"0.002": 5.69113928018,
			"0.003": 6.37425650401,
			"0.004": 5.85986141506,
			"0.005": 6.64446284941,
			"0.006": 6.25381185051,
			"0.007": 5.99828919815,
			"0.008": 6.78435139909,
			"0.009": 7.06599815471,
			"0.01": 10.4417212215,
			"0.011": 8.62669863694,
			"0.012": 2.68458807754,
			"0.013": 0.49138892949,
			"0.014": 0.0,
			"0.015": 0.0,
			"0.016": 0.0,
			"0.017": 0.0,
			"0.018": 0.0,
			"0.019": 0.0,
			"0.02": 0.0,
			"0.021": 0.0,
			"0.022": 0.0,
			"0.023": 0.0,
			"0.024": 0.0,
			"0.025": 0.0
		}
	}
}
