{
	 "smiles": "OC(=O)C1=CC(=C(C=C1)N1CCOCC1)[N+]([O-])=O", 
	 "Tm": 460.15, 
	 "num_atms": 30, 
	 "gaussian": { 
		 "optdone": 1, 
		 "sigma_profile": "yes", 
		 "theory": "DFT", 
		 "functional": "B3LYP", 
		 "basiset": "6-31G**", 
		 "properties": { 
			 "R2extent": 5339.0984, 
			 "electric_dipole_moment_norm": 3.0266262009, 
			 "electric_quadrupole_moment_norm": 13.6534819566, 
			 "total_energy": -911.909816341, 
			 "HOMO_LUMO_gap": 0.14384, 
			 "cosmo_polarized_energy": -17.93, 
			 "cosmo_cavitation_energy": 33.47, 
			 "cosmo_dispersion_energy": -24.46, 
			 "cosmo_repulsion_energy": 1.87, 
			 "cosmo_total_nonelectrostatic_energy": 10.87, 
			 "SMD_solvation_energy": 8.22 
		},
		"coords": [
			{
				"x": -2.6731191028,
				"y": 2.3976836078,
				"z": -2.933270596,
				"element": "O" 
			},
			{
				"x": -1.3260551222,
				"y": 2.4704212944,
				"z": -2.7887050217,
				"element": "C" 
			},
			{
				"x": -0.6534140368,
				"y": 3.2934121984,
				"z": -3.380487318,
				"element": "O" 
			},
			{
				"x": -0.7882676433,
				"y": 1.460697728,
				"z": -1.8510618626,
				"element": "C" 
			},
			{
				"x": -1.5923118775,
				"y": 0.5214176052,
				"z": -1.2114568574,
				"element": "C" 
			},
			{
				"x": -1.0346760919,
				"y": -0.4234733389,
				"z": -0.3508948259,
				"element": "C" 
			},
			{
				"x": 0.3533687127,
				"y": -0.4162401894,
				"z": -0.0157472198,
				"element": "C" 
			},
			{
				"x": 1.1493522179,
				"y": 0.523379159,
				"z": -0.7280755344,
				"element": "C" 
			},
			{
				"x": 0.5971017352,
				"y": 1.4270876755,
				"z": -1.613911051,
				"element": "C" 
			},
			{
				"x": 0.9191244412,
				"y": -1.2046785429,
				"z": 0.9527602939,
				"element": "N" 
			},
			{
				"x": 2.3781074667,
				"y": -1.3355317626,
				"z": 1.0407464781,
				"element": "C" 
			},
			{
				"x": 2.7298619511,
				"y": -2.5004235338,
				"z": 1.961417071,
				"element": "C" 
			},
			{
				"x": 2.262970195,
				"y": -2.3080307434,
				"z": 3.2904390922,
				"element": "O" 
			},
			{
				"x": 1.0499024757,
				"y": -1.5652237698,
				"z": 3.3750816893,
				"element": "C" 
			},
			{
				"x": 0.181324555,
				"y": -1.696364113,
				"z": 2.125150462,
				"element": "C" 
			},
			{
				"x": -1.9384267034,
				"y": -1.506330918,
				"z": 0.0438077942,
				"element": "N" 
			},
			{
				"x": -3.1295560317,
				"y": -1.2337620083,
				"z": 0.2058006234,
				"element": "O" 
			},
			{
				"x": -1.4687198535,
				"y": -2.6451804323,
				"z": 0.1264086476,
				"element": "O" 
			},
			{
				"x": -2.9104314396,
				"y": 3.0971751658,
				"z": -3.5635799946,
				"element": "H" 
			},
			{
				"x": -2.6567789192,
				"y": 0.4774144104,
				"z": -1.4021362055,
				"element": "H" 
			},
			{
				"x": 2.2129839775,
				"y": 0.5697110811,
				"z": -0.5349277327,
				"element": "H" 
			},
			{
				"x": 1.2258922104,
				"y": 2.1486847955,
				"z": -2.1249239494,
				"element": "H" 
			},
			{
				"x": 2.8468999849,
				"y": -0.4149910915,
				"z": 1.421195104,
				"element": "H" 
			},
			{
				"x": 2.7870921246,
				"y": -1.5314710631,
				"z": 0.043847908,
				"element": "H" 
			},
			{
				"x": 2.3223748165,
				"y": -3.4312728235,
				"z": 1.5389164164,
				"element": "H" 
			},
			{
				"x": 3.8177979879,
				"y": -2.6054935636,
				"z": 2.0172325997,
				"element": "H" 
			},
			{
				"x": 1.2714066942,
				"y": -0.5028015163,
				"z": 3.5605777643,
				"element": "H" 
			},
			{
				"x": 0.4970855521,
				"y": -1.9466257745,
				"z": 4.2398603692,
				"element": "H" 
			},
			{
				"x": -0.7198778727,
				"y": -1.0910371351,
				"z": 2.2629083581,
				"element": "H" 
			},
			{
				"x": -0.141012404,
				"y": -2.7330524011,
				"z": 1.9844274975,
				"element": "H" 
			}
		],
		 "valence_orbital": [ 
			{
				"type": "occ",
				"energy": -0.29733,
				"method": "rhf"
			},
			{
				"type": "occ",
				"energy": -0.28005,
				"method": "rhf"
			},
			{
				"type": "occ",
				"energy": -0.27412,
				"method": "rhf"
			},
			{
				"type": "occ",
				"energy": -0.2662,
				"method": "rhf"
			},
			{
				"type": "occ",
				"energy": -0.22617,
				"method": "rhf"
			},
			{
				"type": "unocc",
				"energy": -0.08233,
				"method": "rhf"
			},
			{
				"type": "unocc",
				"energy": -0.0507,
				"method": "rhf"
			},
			{
				"type": "unocc",
				"energy": -0.01559,
				"method": "rhf"
			},
			{
				"type": "unocc",
				"energy": 0.04759,
				"method": "rhf"
			},
			{
				"type": "unocc",
				"energy": 0.06661,
				"method": "rhf"
			}
		],
		"cosmo_sigma_profile": { 
			"-0.025": 0.0,
			"-0.024": 0.0,
			"-0.023": 0.0,
			"-0.022": 0.0,
			"-0.021": 0.0,
			"-0.02": 0.0,
			"-0.019": 0.0466889318574,
			"-0.018": 0.731935554605,
			"-0.017": 1.24296514242,
			"-0.016": 0.701682782018,
			"-0.015": 0.671323501326,
			"-0.014": 0.45470770562,
			"-0.013": 0.948571328387,
			"-0.012": 0.671301074054,
			"-0.011": 0.5219906101,
			"-0.01": 0.733240374525,
			"-0.009": 0.588504335874,
			"-0.008": 3.18162882213,
			"-0.007": 10.380191413,
			"-0.006": 19.1421463697,
			"-0.005": 27.3027744913,
			"-0.004": 22.9067893486,
			"-0.003": 16.0364265155,
			"-0.002": 15.9614031853,
			"-0.001": 14.7575290234,
			"0.0": 17.664623281,
			"0.001": 16.8005403013,
			"0.002": 14.6111415733,
			"0.003": 9.56463695516,
			"0.004": 5.36762392458,
			"0.005": 7.40655763021,
			"0.006": 6.91688218593,
			"0.007": 9.56054786959,
			"0.008": 12.027467113,
			"0.009": 8.55594592878,
			"0.01": 6.39867140151,
			"0.011": 5.09306812515,
			"0.012": 6.1255188246,
			"0.013": 1.94721854611,
			"0.014": 0.0599944289926,
			"0.015": 0.0,
			"0.016": 0.0,
			"0.017": 0.0,
			"0.018": 0.0,
			"0.019": 0.0,
			"0.02": 0.0,
			"0.021": 0.0,
			"0.022": 0.0,
			"0.023": 0.0,
			"0.024": 0.0,
			"0.0": 0.0
		}
	}
}
