{
	 "smiles": "CCN(CC)CC(=O)NC1=C(C)C=CC=C1C", 
	 "Tm": 341.65, 
	 "num_atms": 39, 
	 "gaussian": { 
		 "optdone": 1, 
		 "sigma_profile": "yes", 
		 "theory": "DFT", 
		 "functional": "B3LYP", 
		 "basiset": "6-31G**", 
		 "properties": { 
			 "R2extent": 5199.3844, 
			 "electric_dipole_moment_norm": 4.01328754016, 
			 "electric_quadrupole_moment_norm": 15.1172830221, 
			 "total_energy": -731.506500986, 
			 "HOMO_LUMO_gap": 0.21692, 
			 "cosmo_polarized_energy": -11.57, 
			 "cosmo_cavitation_energy": 39.91, 
			 "cosmo_dispersion_energy": -26.28, 
			 "cosmo_repulsion_energy": 2.05, 
			 "cosmo_total_nonelectrostatic_energy": 15.68, 
			 "SMD_solvation_energy": 7.3 
		},
		"coords": [
			{
				"x": -2.5998524944,
				"y": -3.4538278244,
				"z": 0.8239591675,
				"element": "C" 
			},
			{
				"x": -3.0586511704,
				"y": -2.1246776623,
				"z": 1.4244419545,
				"element": "C" 
			},
			{
				"x": -2.3261422549,
				"y": -0.9652133477,
				"z": 0.8872285001,
				"element": "N" 
			},
			{
				"x": -2.3692657031,
				"y": 0.2000390114,
				"z": 1.7904328262,
				"element": "C" 
			},
			{
				"x": -1.4560275829,
				"y": 0.0624100976,
				"z": 3.0084998398,
				"element": "C" 
			},
			{
				"x": -2.7691935445,
				"y": -0.5978261637,
				"z": -0.4595423884,
				"element": "C" 
			},
			{
				"x": -1.6787471931,
				"y": 0.0283835668,
				"z": -1.345506558,
				"element": "C" 
			},
			{
				"x": -1.9715194754,
				"y": 0.5982599853,
				"z": -2.3872898647,
				"element": "O" 
			},
			{
				"x": -0.4101641458,
				"y": -0.1655760011,
				"z": -0.8682514798,
				"element": "N" 
			},
			{
				"x": 0.8075283039,
				"y": 0.1422666497,
				"z": -1.5391722143,
				"element": "C" 
			},
			{
				"x": 1.7214689902,
				"y": -0.9095371989,
				"z": -1.7591423371,
				"element": "C" 
			},
			{
				"x": 1.396632505,
				"y": -2.3206918901,
				"z": -1.3285840458,
				"element": "C" 
			},
			{
				"x": 2.9352309514,
				"y": -0.6241443684,
				"z": -2.3903738197,
				"element": "C" 
			},
			{
				"x": 3.2375582533,
				"y": 0.6720034094,
				"z": -2.8031797731,
				"element": "C" 
			},
			{
				"x": 2.3288875542,
				"y": 1.700032793,
				"z": -2.5678880722,
				"element": "C" 
			},
			{
				"x": 1.1074204735,
				"y": 1.4643707181,
				"z": -1.923797455,
				"element": "C" 
			},
			{
				"x": 0.1727326115,
				"y": 2.6111246893,
				"z": -1.6358510853,
				"element": "C" 
			},
			{
				"x": -3.1538549605,
				"y": -4.2833828966,
				"z": 1.2751953004,
				"element": "H" 
			},
			{
				"x": -1.5326806515,
				"y": -3.6097784193,
				"z": 1.0086660929,
				"element": "H" 
			},
			{
				"x": -2.7652937192,
				"y": -3.5020111479,
				"z": -0.2570697461,
				"element": "H" 
			},
			{
				"x": -4.1486381494,
				"y": -2.0009712029,
				"z": 1.289355704,
				"element": "H" 
			},
			{
				"x": -2.8863075996,
				"y": -2.1563102273,
				"z": 2.5037806885,
				"element": "H" 
			},
			{
				"x": -2.0441637396,
				"y": 1.0704833739,
				"z": 1.2116104634,
				"element": "H" 
			},
			{
				"x": -3.4061794077,
				"y": 0.4092408501,
				"z": 2.1117548554,
				"element": "H" 
			},
			{
				"x": -1.7384597106,
				"y": -0.7754240243,
				"z": 3.6532329043,
				"element": "H" 
			},
			{
				"x": -1.5045265835,
				"y": 0.9717259662,
				"z": 3.6161867312,
				"element": "H" 
			},
			{
				"x": -0.4174683494,
				"y": -0.0863905619,
				"z": 2.6972372036,
				"element": "H" 
			},
			{
				"x": -3.1040986309,
				"y": -1.4937264895,
				"z": -0.9919727295,
				"element": "H" 
			},
			{
				"x": -3.6243290347,
				"y": 0.0964962246,
				"z": -0.460924127,
				"element": "H" 
			},
			{
				"x": -0.3871338131,
				"y": -0.7658267457,
				"z": -0.0480972175,
				"element": "H" 
			},
			{
				"x": 0.4216965022,
				"y": -2.6438288623,
				"z": -1.7094935497,
				"element": "H" 
			},
			{
				"x": 2.153008919,
				"y": -3.0201900727,
				"z": -1.6934006227,
				"element": "H" 
			},
			{
				"x": 1.3620161793,
				"y": -2.4228717801,
				"z": -0.2354441102,
				"element": "H" 
			},
			{
				"x": 3.6415460995,
				"y": -1.4311083409,
				"z": -2.5672323457,
				"element": "H" 
			},
			{
				"x": 4.1809064294,
				"y": 0.880561943,
				"z": -3.299673194,
				"element": "H" 
			},
			{
				"x": 2.5694230561,
				"y": 2.7148212732,
				"z": -2.8737822573,
				"element": "H" 
			},
			{
				"x": -0.1779088816,
				"y": 2.581458295,
				"z": -0.5976651964,
				"element": "H" 
			},
			{
				"x": 0.6754733956,
				"y": 3.5683730788,
				"z": -1.7979403762,
				"element": "H" 
			},
			{
				"x": -0.7155234284,
				"y": 2.5597633023,
				"z": -2.271807666,
				"element": "H" 
			}
		],
		 "valence_orbital": [ 
			{
				"type": "occ",
				"energy": -0.27385,
				"method": "rhf"
			},
			{
				"type": "occ",
				"energy": -0.25023,
				"method": "rhf"
			},
			{
				"type": "occ",
				"energy": -0.23067,
				"method": "rhf"
			},
			{
				"type": "occ",
				"energy": -0.2303,
				"method": "rhf"
			},
			{
				"type": "occ",
				"energy": -0.21661,
				"method": "rhf"
			},
			{
				"type": "unocc",
				"energy": 0.00031,
				"method": "rhf"
			},
			{
				"type": "unocc",
				"energy": 0.01116,
				"method": "rhf"
			},
			{
				"type": "unocc",
				"energy": 0.03711,
				"method": "rhf"
			},
			{
				"type": "unocc",
				"energy": 0.06852,
				"method": "rhf"
			},
			{
				"type": "unocc",
				"energy": 0.0904,
				"method": "rhf"
			}
		],
		"cosmo_sigma_profile": { 
			"-0.025": 0.0,
			"-0.024": 0.0,
			"-0.023": 0.0,
			"-0.022": 0.0,
			"-0.021": 0.0,
			"-0.02": 0.0,
			"-0.019": 0.0,
			"-0.018": 0.0,
			"-0.017": 0.0,
			"-0.016": 0.0,
			"-0.015": 0.0,
			"-0.014": 0.0,
			"-0.013": 0.0,
			"-0.012": 0.0,
			"-0.011": 0.0,
			"-0.01": 0.0,
			"-0.009": 0.457544528037,
			"-0.008": 1.12443037495,
			"-0.007": 1.15770936339,
			"-0.006": 4.33491990871,
			"-0.005": 12.8505198007,
			"-0.004": 23.5565488428,
			"-0.003": 39.1945994306,
			"-0.002": 45.4793922607,
			"-0.001": 42.8669562887,
			"0.0": 37.9609321844,
			"0.001": 32.2684753571,
			"0.002": 13.1382451003,
			"0.003": 8.87551459941,
			"0.004": 8.99002662652,
			"0.005": 8.82210397481,
			"0.006": 10.2980873865,
			"0.007": 3.28377815217,
			"0.008": 1.39094854692,
			"0.009": 2.23505410058,
			"0.01": 1.91158361338,
			"0.011": 1.6146858063,
			"0.012": 1.98655658692,
			"0.013": 3.29770080489,
			"0.014": 3.68127386723,
			"0.015": 1.10498301924,
			"0.016": 0.0106473038855,
			"0.017": 0.0,
			"0.018": 0.0,
			"0.019": 0.0,
			"0.02": 0.0,
			"0.021": 0.0,
			"0.022": 0.0,
			"0.023": 0.0,
			"0.024": 0.0,
			"0.025": 0.0
		}
	}
}
