{
	 "smiles": "OC(=O)CC=CC1=C(F)C=CC=C1", 
	 "Tm": 328.15, 
	 "num_atms": 22, 
	 "gaussian": { 
		 "optdone": 1, 
		 "sigma_profile": "yes", 
		 "theory": "DFT", 
		 "functional": "B3LYP", 
		 "basiset": "6-31G**", 
		 "properties": { 
			 "R2extent": 2972.7468, 
			 "electric_dipole_moment_norm": 6.31605108434, 
			 "electric_quadrupole_moment_norm": 20.1022291535, 
			 "total_energy": -636.76353729, 
			 "HOMO_LUMO_gap": 0.19771, 
			 "cosmo_polarized_energy": -12.02, 
			 "cosmo_cavitation_energy": 26.34, 
			 "cosmo_dispersion_energy": -19.22, 
			 "cosmo_repulsion_energy": 1.51, 
			 "cosmo_total_nonelectrostatic_energy": 8.63, 
			 "SMD_solvation_energy": 5.85 
		},
		"coords": [
			{
				"x": 1.7171170353,
				"y": -0.9170743944,
				"z": 3.1888838039,
				"element": "O" 
			},
			{
				"x": 2.7152871944,
				"y": -1.0342800094,
				"z": 2.2838293134,
				"element": "C" 
			},
			{
				"x": 3.8636189457,
				"y": -1.138254227,
				"z": 2.636491395,
				"element": "O" 
			},
			{
				"x": 2.2725306479,
				"y": -1.0344306029,
				"z": 0.8127008317,
				"element": "C" 
			},
			{
				"x": 1.2570218319,
				"y": -2.1060938921,
				"z": 0.5168431191,
				"element": "C" 
			},
			{
				"x": 0.0182834902,
				"y": -1.981678943,
				"z": 0.0135755485,
				"element": "C" 
			},
			{
				"x": -0.7284388973,
				"y": -0.7679060862,
				"z": -0.3808688382,
				"element": "C" 
			},
			{
				"x": -0.8311943652,
				"y": 0.3944187013,
				"z": 0.3896984532,
				"element": "C" 
			},
			{
				"x": -0.2005055072,
				"y": 0.4568500439,
				"z": 1.5999144304,
				"element": "F" 
			},
			{
				"x": -1.567948908,
				"y": 1.5077069953,
				"z": 0.0097443081,
				"element": "C" 
			},
			{
				"x": -2.2563672839,
				"y": 1.4765861263,
				"z": -1.2019931726,
				"element": "C" 
			},
			{
				"x": -2.2036575325,
				"y": 0.3300638986,
				"z": -1.9988522396,
				"element": "C" 
			},
			{
				"x": -1.460046664,
				"y": -0.7716662691,
				"z": -1.5847439263,
				"element": "C" 
			},
			{
				"x": 0.8716986668,
				"y": -0.789877195,
				"z": 2.7301270782,
				"element": "H" 
			},
			{
				"x": 1.8937827392,
				"y": -0.0410999477,
				"z": 0.5568034182,
				"element": "H" 
			},
			{
				"x": 3.1797638301,
				"y": -1.2121217024,
				"z": 0.2281346423,
				"element": "H" 
			},
			{
				"x": 1.6046942574,
				"y": -3.1203868428,
				"z": 0.7085922712,
				"element": "H" 
			},
			{
				"x": -0.5153693659,
				"y": -2.9078195973,
				"z": -0.1969720055,
				"element": "H" 
			},
			{
				"x": -1.5980128176,
				"y": 2.3692301293,
				"z": 0.6678214172,
				"element": "H" 
			},
			{
				"x": -2.8361172171,
				"y": 2.33935757,
				"z": -1.5144248279,
				"element": "H" 
			},
			{
				"x": -2.7445739794,
				"y": 0.2935021021,
				"z": -2.9391517727,
				"element": "H" 
			},
			{
				"x": -1.4253661005,
				"y": -1.6640258576,
				"z": -2.2035532477,
				"element": "H" 
			}
		],
		 "valence_orbital": [ 
			{
				"type": "occ",
				"energy": -0.30735,
				"method": "rhf"
			},
			{
				"type": "occ",
				"energy": -0.30272,
				"method": "rhf"
			},
			{
				"type": "occ",
				"energy": -0.26973,
				"method": "rhf"
			},
			{
				"type": "occ",
				"energy": -0.26409,
				"method": "rhf"
			},
			{
				"type": "occ",
				"energy": -0.24479,
				"method": "rhf"
			},
			{
				"type": "unocc",
				"energy": -0.04708,
				"method": "rhf"
			},
			{
				"type": "unocc",
				"energy": -0.01961,
				"method": "rhf"
			},
			{
				"type": "unocc",
				"energy": 0.01427,
				"method": "rhf"
			},
			{
				"type": "unocc",
				"energy": 0.02683,
				"method": "rhf"
			},
			{
				"type": "unocc",
				"energy": 0.06765,
				"method": "rhf"
			}
		],
		"cosmo_sigma_profile": { 
			"-0.025": 0.0,
			"-0.024": 0.0,
			"-0.023": 0.0,
			"-0.022": 0.0,
			"-0.021": 0.0,
			"-0.02": 0.0,
			"-0.019": 0.0,
			"-0.018": 0.0,
			"-0.017": 0.0,
			"-0.016": 0.0,
			"-0.015": 0.0,
			"-0.014": 0.0,
			"-0.013": 0.0,
			"-0.012": 0.0,
			"-0.011": 0.554061447172,
			"-0.01": 0.877716855673,
			"-0.009": 0.51843909691,
			"-0.008": 0.929491923839,
			"-0.007": 6.77313051337,
			"-0.006": 19.7626734826,
			"-0.005": 19.4755837979,
			"-0.004": 17.5445496037,
			"-0.003": 13.8824281632,
			"-0.002": 14.5289087436,
			"-0.001": 11.9410843518,
			"0.0": 16.334516496,
			"0.001": 13.4269187427,
			"0.002": 15.3801125057,
			"0.003": 15.4650216116,
			"0.004": 10.706137126,
			"0.005": 4.34699336871,
			"0.006": 2.32346085308,
			"0.007": 1.93239873885,
			"0.008": 2.24519377126,
			"0.009": 3.50396265288,
			"0.01": 4.74831994816,
			"0.011": 5.31271201857,
			"0.012": 5.77649381634,
			"0.013": 2.42864255206,
			"0.014": 0.0862557095291,
			"0.015": 0.0,
			"0.016": 0.0,
			"0.017": 0.0,
			"0.018": 0.0,
			"0.019": 0.0,
			"0.02": 0.0,
			"0.021": 0.0,
			"0.022": 0.0,
			"0.023": 0.0,
			"0.024": 0.0,
			"0.025": 0.0
		}
	}
}
