{
	 "smiles": "ClC1=NC(Cl)=C(Cl)C(Cl)=N1", 
	 "Tm": 342.15, 
	 "num_atms": 10, 
	 "gaussian": { 
		 "optdone": 1, 
		 "sigma_profile": "yes", 
		 "theory": "DFT", 
		 "functional": "B3LYP", 
		 "basiset": "6-31G**", 
		 "properties": { 
			 "R2extent": 3142.8105, 
			 "electric_dipole_moment_norm": 1.36870095346, 
			 "electric_quadrupole_moment_norm": 3.21607119791, 
			 "total_energy": -2102.67536721, 
			 "HOMO_LUMO_gap": 0.20228, 
			 "cosmo_polarized_energy": -4.5, 
			 "cosmo_cavitation_energy": 22.59, 
			 "cosmo_dispersion_energy": -17.6, 
			 "cosmo_repulsion_energy": 1.45, 
			 "cosmo_total_nonelectrostatic_energy": 6.44, 
			 "SMD_solvation_energy": 0.11 
		},
		"coords": [
			{
				"x": -1.3122687282,
				"y": -0.3982906538,
				"z": -2.2953172843,
				"element": "Cl" 
			},
			{
				"x": -0.3659478305,
				"y": -0.5929409108,
				"z": -0.849817966,
				"element": "C" 
			},
			{
				"x": 0.0229163705,
				"y": 0.521785825,
				"z": -0.2442807075,
				"element": "N" 
			},
			{
				"x": 0.7438343914,
				"y": 0.3700113517,
				"z": 0.8567376784,
				"element": "C" 
			},
			{
				"x": 1.2563572716,
				"y": 1.8227269487,
				"z": 1.6547479327,
				"element": "Cl" 
			},
			{
				"x": 1.0892250935,
				"y": -0.8922231201,
				"z": 1.3726115886,
				"element": "C" 
			},
			{
				"x": 2.0281494283,
				"y": -1.0853282703,
				"z": 2.806541269,
				"element": "Cl" 
			},
			{
				"x": 0.6091719319,
				"y": -1.9846959523,
				"z": 0.6278150989,
				"element": "C" 
			},
			{
				"x": 0.9455082255,
				"y": -3.6119984147,
				"z": 1.1264381329,
				"element": "Cl" 
			},
			{
				"x": -0.1121461539,
				"y": -1.8398468032,
				"z": -0.4738757426,
				"element": "N" 
			}
		],
		 "valence_orbital": [ 
			{
				"type": "occ",
				"energy": -0.34141,
				"method": "rhf"
			},
			{
				"type": "occ",
				"energy": -0.33404,
				"method": "rhf"
			},
			{
				"type": "occ",
				"energy": -0.32622,
				"method": "rhf"
			},
			{
				"type": "occ",
				"energy": -0.3005,
				"method": "rhf"
			},
			{
				"type": "occ",
				"energy": -0.28645,
				"method": "rhf"
			},
			{
				"type": "unocc",
				"energy": -0.08417,
				"method": "rhf"
			},
			{
				"type": "unocc",
				"energy": -0.0742,
				"method": "rhf"
			},
			{
				"type": "unocc",
				"energy": -0.03448,
				"method": "rhf"
			},
			{
				"type": "unocc",
				"energy": 0.01059,
				"method": "rhf"
			},
			{
				"type": "unocc",
				"energy": 0.02844,
				"method": "rhf"
			}
		],
		"cosmo_sigma_profile": { 
			"-0.025": 0.0,
			"-0.024": 0.0,
			"-0.023": 0.0,
			"-0.022": 0.0,
			"-0.021": 0.0,
			"-0.02": 0.0,
			"-0.019": 0.0,
			"-0.018": 0.0,
			"-0.017": 0.0,
			"-0.016": 0.0,
			"-0.015": 0.0,
			"-0.014": 0.0,
			"-0.013": 0.0,
			"-0.012": 0.0,
			"-0.011": 0.0,
			"-0.01": 0.0930509226671,
			"-0.009": 1.13631770666,
			"-0.008": 1.984476354,
			"-0.007": 2.24977660184,
			"-0.006": 7.1866385981,
			"-0.005": 11.8840359969,
			"-0.004": 11.6961570941,
			"-0.003": 13.8357224454,
			"-0.002": 11.5221589809,
			"-0.001": 16.3390748858,
			"0.0": 17.1737238678,
			"0.001": 24.6100059158,
			"0.002": 36.5111421265,
			"0.003": 15.5927817459,
			"0.004": 6.28141729078,
			"0.005": 3.86294177999,
			"0.006": 2.90223855928,
			"0.007": 2.07036385259,
			"0.008": 2.27818423619,
			"0.009": 1.77597829472,
			"0.01": 1.46676798251,
			"0.011": 0.28460613947,
			"0.012": 0.0,
			"0.013": 0.0,
			"0.014": 0.0,
			"0.015": 0.0,
			"0.016": 0.0,
			"0.017": 0.0,
			"0.018": 0.0,
			"0.019": 0.0,
			"0.02": 0.0,
			"0.021": 0.0,
			"0.022": 0.0,
			"0.023": 0.0,
			"0.024": 0.0,
			"0.025": 0.0
		}
	}
}
