{
	 "smiles": "FC1=CC=C(C(C(NC(=O)CC2=CC=CC=C2)=NOCC2CC2)=C1F)C(F)(F)F", 
	 "Tm": 335.15, 
	 "num_atms": 46, 
	 "gaussian": { 
		 "optdone": 1, 
		 "sigma_profile": "yes", 
		 "theory": "DFT", 
		 "functional": "B3LYP", 
		 "basiset": "6-31G**", 
		 "properties": { 
			 "R2extent": 12774.5028, 
			 "electric_dipole_moment_norm": 3.41066024253, 
			 "electric_quadrupole_moment_norm": 13.9014452849, 
			 "total_energy": -1531.43500142, 
			 "HOMO_LUMO_gap": 0.17317, 
			 "cosmo_polarized_energy": -15.18, 
			 "cosmo_cavitation_energy": 52.86, 
			 "cosmo_dispersion_energy": -33.88, 
			 "cosmo_repulsion_energy": 2.52, 
			 "cosmo_total_nonelectrostatic_energy": 21.5, 
			 "SMD_solvation_energy": 10.75 
		},
		"coords": [
			{
				"x": 1.3341848039,
				"y": 4.6085504327,
				"z": -1.5372855267,
				"element": "F" 
			},
			{
				"x": 0.895839964,
				"y": 3.9049058863,
				"z": -0.4860779143,
				"element": "C" 
			},
			{
				"x": 0.8173631569,
				"y": 4.4803818472,
				"z": 0.7720665916,
				"element": "C" 
			},
			{
				"x": 0.3574622525,
				"y": 3.7101596199,
				"z": 1.8395192668,
				"element": "C" 
			},
			{
				"x": -0.029907525,
				"y": 2.3818953922,
				"z": 1.6519882762,
				"element": "C" 
			},
			{
				"x": 0.034746053,
				"y": 1.7953016523,
				"z": 0.3699003885,
				"element": "C" 
			},
			{
				"x": -0.440591188,
				"y": 0.4151788945,
				"z": 0.0599812763,
				"element": "C" 
			},
			{
				"x": 0.3875726218,
				"y": -0.5490422976,
				"z": -0.4997952721,
				"element": "N" 
			},
			{
				"x": 1.7622282178,
				"y": -0.7804643674,
				"z": -0.4907739889,
				"element": "C" 
			},
			{
				"x": 2.203687969,
				"y": -1.6763501974,
				"z": -1.1883157239,
				"element": "O" 
			},
			{
				"x": 2.6597208956,
				"y": 0.0697010058,
				"z": 0.4088808506,
				"element": "C" 
			},
			{
				"x": 3.669776355,
				"y": -0.769712221,
				"z": 1.1674049959,
				"element": "C" 
			},
			{
				"x": 4.7695460322,
				"y": -1.3450772407,
				"z": 0.5182653117,
				"element": "C" 
			},
			{
				"x": 5.6909669592,
				"y": -2.109092462,
				"z": 1.233791398,
				"element": "C" 
			},
			{
				"x": 5.5251124751,
				"y": -2.3092163397,
				"z": 2.6063654929,
				"element": "C" 
			},
			{
				"x": 4.429491458,
				"y": -1.74337361,
				"z": 3.2590315955,
				"element": "C" 
			},
			{
				"x": 3.5071276364,
				"y": -0.9786198186,
				"z": 2.5421778386,
				"element": "C" 
			},
			{
				"x": -1.7095642672,
				"y": 0.2279009035,
				"z": 0.209842688,
				"element": "N" 
			},
			{
				"x": -2.0690803524,
				"y": -1.0753522999,
				"z": -0.145399913,
				"element": "O" 
			},
			{
				"x": -3.5035171536,
				"y": -1.1930783504,
				"z": -0.1290149525,
				"element": "C" 
			},
			{
				"x": -4.1594588253,
				"y": -0.5519845363,
				"z": -1.3233904514,
				"element": "C" 
			},
			{
				"x": -5.4540609589,
				"y": -1.127349244,
				"z": -1.8489549574,
				"element": "C" 
			},
			{
				"x": -4.1832936229,
				"y": -1.2738058647,
				"z": -2.6478934025,
				"element": "C" 
			},
			{
				"x": 0.5093568558,
				"y": 2.5795600629,
				"z": -0.6822381526,
				"element": "C" 
			},
			{
				"x": 0.5915887517,
				"y": 2.066957148,
				"z": -1.9183191878,
				"element": "F" 
			},
			{
				"x": -0.4757141929,
				"y": 1.5833291026,
				"z": 2.8573208799,
				"element": "C" 
			},
			{
				"x": -0.1087942124,
				"y": 2.1946705798,
				"z": 4.0063697575,
				"element": "F" 
			},
			{
				"x": 0.0921346224,
				"y": 0.3509795044,
				"z": 2.871142901,
				"element": "F" 
			},
			{
				"x": -1.8074373293,
				"y": 1.4134533149,
				"z": 2.9115841277,
				"element": "F" 
			},
			{
				"x": 1.1236418965,
				"y": 5.5120233592,
				"z": 0.9034448835,
				"element": "H" 
			},
			{
				"x": 0.3135102327,
				"y": 4.1410733431,
				"z": 2.8316874045,
				"element": "H" 
			},
			{
				"x": -0.1244245856,
				"y": -1.2789834117,
				"z": -0.9864862821,
				"element": "H" 
			},
			{
				"x": 2.0714034521,
				"y": 0.6519801129,
				"z": 1.1149831547,
				"element": "H" 
			},
			{
				"x": 3.1753095777,
				"y": 0.7810445408,
				"z": -0.2492759749,
				"element": "H" 
			},
			{
				"x": 4.8925280988,
				"y": -1.2030932015,
				"z": -0.550497236,
				"element": "H" 
			},
			{
				"x": 6.5402669573,
				"y": -2.5491020521,
				"z": 0.7186494738,
				"element": "H" 
			},
			{
				"x": 6.2455390958,
				"y": -2.9024369524,
				"z": 3.1624177461,
				"element": "H" 
			},
			{
				"x": 4.290460182,
				"y": -1.8954386013,
				"z": 4.3257162924,
				"element": "H" 
			},
			{
				"x": 2.6505663622,
				"y": -0.5437675738,
				"z": 3.0511132881,
				"element": "H" 
			},
			{
				"x": -3.8732703251,
				"y": -0.7658719832,
				"z": 0.8095328371,
				"element": "H" 
			},
			{
				"x": -3.680121808,
				"y": -2.2735870379,
				"z": -0.1203581524,
				"element": "H" 
			},
			{
				"x": -4.0557343166,
				"y": 0.5296280129,
				"z": -1.3563369043,
				"element": "H" 
			},
			{
				"x": -6.2141373374,
				"y": -0.4368915634,
				"z": -2.2008347385,
				"element": "H" 
			},
			{
				"x": -5.854568949,
				"y": -2.0127160115,
				"z": -1.3620599063,
				"element": "H" 
			},
			{
				"x": -4.0710251907,
				"y": -0.6856087457,
				"z": -3.5533145527,
				"element": "H" 
			},
			{
				"x": -3.7234307947,
				"y": -2.2570587317,
				"z": -2.6984555262,
				"element": "H" 
			}
		],
		 "valence_orbital": [ 
			{
				"type": "occ",
				"energy": -0.27604,
				"method": "rhf"
			},
			{
				"type": "occ",
				"energy": -0.26448,
				"method": "rhf"
			},
			{
				"type": "occ",
				"energy": -0.24264,
				"method": "rhf"
			},
			{
				"type": "occ",
				"energy": -0.2389,
				"method": "rhf"
			},
			{
				"type": "occ",
				"energy": -0.23215,
				"method": "rhf"
			},
			{
				"type": "unocc",
				"energy": -0.05898,
				"method": "rhf"
			},
			{
				"type": "unocc",
				"energy": -0.03825,
				"method": "rhf"
			},
			{
				"type": "unocc",
				"energy": -0.01799,
				"method": "rhf"
			},
			{
				"type": "unocc",
				"energy": 0.00215,
				"method": "rhf"
			},
			{
				"type": "unocc",
				"energy": 0.00565,
				"method": "rhf"
			}
		],
		"cosmo_sigma_profile": { 
			"-0.025": 0.0,
			"-0.024": 0.0,
			"-0.023": 0.0,
			"-0.022": 0.0,
			"-0.021": 0.0,
			"-0.02": 0.0,
			"-0.019": 0.0,
			"-0.018": 0.0,
			"-0.017": 0.0,
			"-0.016": 0.0,
			"-0.015": 0.0,
			"-0.014": 0.0,
			"-0.013": 0.0,
			"-0.012": 0.108746083181,
			"-0.011": 0.443028890375,
			"-0.01": 0.703682712935,
			"-0.009": 3.07596130889,
			"-0.008": 4.21485609333,
			"-0.007": 6.62775503602,
			"-0.006": 14.8925880185,
			"-0.005": 26.6793055998,
			"-0.004": 36.2331279734,
			"-0.003": 36.6953806732,
			"-0.002": 37.4413908823,
			"-0.001": 32.9580403221,
			"0.0": 31.8256070177,
			"0.001": 31.5754421168,
			"0.002": 41.350059955,
			"0.003": 46.5117218591,
			"0.004": 19.3393578144,
			"0.005": 15.8779850438,
			"0.006": 13.5766891973,
			"0.007": 3.88010211661,
			"0.008": 2.67030413164,
			"0.009": 3.22117334587,
			"0.01": 2.73462249783,
			"0.011": 3.35480187822,
			"0.012": 4.9820376735,
			"0.013": 1.24801709717,
			"0.014": 0.0,
			"0.015": 0.0,
			"0.016": 0.0,
			"0.017": 0.0,
			"0.018": 0.0,
			"0.019": 0.0,
			"0.02": 0.0,
			"0.021": 0.0,
			"0.022": 0.0,
			"0.023": 0.0,
			"0.024": 0.0,
			"0.025": 0.0
		}
	}
}
