{
	 "smiles": "COCCN1C(C)=CC(C(=O)CCl)=C1C", 
	 "Tm": 362.15, 
	 "num_atms": 31, 
	 "gaussian": { 
		 "optdone": 1, 
		 "sigma_profile": "yes", 
		 "theory": "DFT", 
		 "functional": "B3LYP", 
		 "basiset": "6-31G**", 
		 "properties": { 
			 "R2extent": 4896.7486, 
			 "electric_dipole_moment_norm": 6.17619205903, 
			 "electric_quadrupole_moment_norm": 8.31783017619, 
			 "total_energy": -1094.19775312, 
			 "HOMO_LUMO_gap": 0.16546, 
			 "cosmo_polarized_energy": -13.38, 
			 "cosmo_cavitation_energy": 34.97, 
			 "cosmo_dispersion_energy": -24.56, 
			 "cosmo_repulsion_energy": 1.96, 
			 "cosmo_total_nonelectrostatic_energy": 12.38, 
			 "SMD_solvation_energy": 6.72 
		},
		"coords": [
			{
				"x": -1.973090397,
				"y": 1.4434119579,
				"z": 3.9530631627,
				"element": "C" 
			},
			{
				"x": -0.7098963132,
				"y": 1.1239155933,
				"z": 3.4035840604,
				"element": "O" 
			},
			{
				"x": -0.5257990092,
				"y": -0.2619857576,
				"z": 3.2117943973,
				"element": "C" 
			},
			{
				"x": 0.8201462658,
				"y": -0.5008099258,
				"z": 2.528524499,
				"element": "C" 
			},
			{
				"x": 0.8772682875,
				"y": -0.0451879338,
				"z": 1.1448085654,
				"element": "N" 
			},
			{
				"x": 1.3066272406,
				"y": 1.2196009102,
				"z": 0.7291844174,
				"element": "C" 
			},
			{
				"x": 1.8321673085,
				"y": 2.2490860189,
				"z": 1.677263859,
				"element": "C" 
			},
			{
				"x": 1.1728708722,
				"y": 1.2670864573,
				"z": -0.632126221,
				"element": "C" 
			},
			{
				"x": 0.650175054,
				"y": 0.006114993,
				"z": -1.0778123766,
				"element": "C" 
			},
			{
				"x": 0.3314207481,
				"y": -0.3841717118,
				"z": -2.4465809401,
				"element": "C" 
			},
			{
				"x": -0.1478591941,
				"y": -1.4677495399,
				"z": -2.7738476822,
				"element": "O" 
			},
			{
				"x": 0.5671965685,
				"y": 0.64719824,
				"z": -3.5600565213,
				"element": "C" 
			},
			{
				"x": 2.336814493,
				"y": 0.8888428502,
				"z": -3.9062520149,
				"element": "Cl" 
			},
			{
				"x": 0.4790068205,
				"y": -0.7891921741,
				"z": 0.0607092614,
				"element": "C" 
			},
			{
				"x": -0.0097564594,
				"y": -2.1971507809,
				"z": 0.1825244357,
				"element": "C" 
			},
			{
				"x": -2.1144275445,
				"y": 0.9832077355,
				"z": 4.9433603739,
				"element": "H" 
			},
			{
				"x": -2.7949733145,
				"y": 1.116583842,
				"z": 3.298070855,
				"element": "H" 
			},
			{
				"x": -2.0145228811,
				"y": 2.5295633166,
				"z": 4.0585413713,
				"element": "H" 
			},
			{
				"x": -1.3406050659,
				"y": -0.6819326993,
				"z": 2.6002818026,
				"element": "H" 
			},
			{
				"x": -0.5300986852,
				"y": -0.7943472094,
				"z": 4.1790040225,
				"element": "H" 
			},
			{
				"x": 1.0413943103,
				"y": -1.5713729522,
				"z": 2.5534035542,
				"element": "H" 
			},
			{
				"x": 1.6027145561,
				"y": 0.0082951058,
				"z": 3.0960645964,
				"element": "H" 
			},
			{
				"x": 2.0534651259,
				"y": 3.1646993094,
				"z": 1.1237376449,
				"element": "H" 
			},
			{
				"x": 2.763768525,
				"y": 1.9295348734,
				"z": 2.1634959571,
				"element": "H" 
			},
			{
				"x": 1.1086650352,
				"y": 2.4829922179,
				"z": 2.4637920458,
				"element": "H" 
			},
			{
				"x": 1.4505182201,
				"y": 2.1075697791,
				"z": -1.2516629671,
				"element": "H" 
			},
			{
				"x": 0.1619821288,
				"y": 1.6282773827,
				"z": -3.3059003458,
				"element": "H" 
			},
			{
				"x": 0.1142977643,
				"y": 0.2683327617,
				"z": -4.4743513086,
				"element": "H" 
			},
			{
				"x": -0.256707111,
				"y": -2.5636959724,
				"z": -0.8128352205,
				"element": "H" 
			},
			{
				"x": 0.7539042693,
				"y": -2.8561258348,
				"z": 0.6163545039,
				"element": "H" 
			},
			{
				"x": -0.9041676189,
				"y": -2.2749908527,
				"z": 0.8131622123,
				"element": "H" 
			}
		],
		 "valence_orbital": [ 
			{
				"type": "occ",
				"energy": -0.29017,
				"method": "rhf"
			},
			{
				"type": "occ",
				"energy": -0.27419,
				"method": "rhf"
			},
			{
				"type": "occ",
				"energy": -0.24094,
				"method": "rhf"
			},
			{
				"type": "occ",
				"energy": -0.23691,
				"method": "rhf"
			},
			{
				"type": "occ",
				"energy": -0.20433,
				"method": "rhf"
			},
			{
				"type": "unocc",
				"energy": -0.03887,
				"method": "rhf"
			},
			{
				"type": "unocc",
				"energy": 0.03109,
				"method": "rhf"
			},
			{
				"type": "unocc",
				"energy": 0.04721,
				"method": "rhf"
			},
			{
				"type": "unocc",
				"energy": 0.0719,
				"method": "rhf"
			},
			{
				"type": "unocc",
				"energy": 0.09101,
				"method": "rhf"
			}
		],
		"cosmo_sigma_profile": { 
			"-0.025": 0.0,
			"-0.024": 0.0,
			"-0.023": 0.0,
			"-0.022": 0.0,
			"-0.021": 0.0,
			"-0.02": 0.0,
			"-0.019": 0.0,
			"-0.018": 0.0,
			"-0.017": 0.0,
			"-0.016": 0.0,
			"-0.015": 0.0,
			"-0.014": 0.0,
			"-0.013": 0.0,
			"-0.012": 0.0,
			"-0.011": 0.0,
			"-0.01": 0.0,
			"-0.009": 0.0017772836758,
			"-0.008": 1.59278053858,
			"-0.007": 6.15740582995,
			"-0.006": 14.1286801629,
			"-0.005": 23.7586640572,
			"-0.004": 32.9782164014,
			"-0.003": 24.7998885641,
			"-0.002": 24.9377022657,
			"-0.001": 19.8245947316,
			"0.0": 18.9004852939,
			"0.001": 14.6092078996,
			"0.002": 12.9434560668,
			"0.003": 12.0394160304,
			"0.004": 14.7809900608,
			"0.005": 15.1489967436,
			"0.006": 17.4855602214,
			"0.007": 7.19920419162,
			"0.008": 3.62540252241,
			"0.009": 2.20659542546,
			"0.01": 2.45540457821,
			"0.011": 2.53601793209,
			"0.012": 2.90889678478,
			"0.013": 1.9946491534,
			"0.014": 0.356582091363,
			"0.015": 0.0,
			"0.016": 0.0,
			"0.017": 0.0,
			"0.018": 0.0,
			"0.019": 0.0,
			"0.02": 0.0,
			"0.021": 0.0,
			"0.022": 0.0,
			"0.023": 0.0,
			"0.024": 0.0,
			"0.025": 0.0
		}
	}
}
