{
	 "smiles": "COC1=C(NS(=O)(=O)C2=CC=C(C=C2)C(O)=O)C=CC=C1", 
	 "Tm": 475.15, 
	 "num_atms": 34, 
	 "gaussian": { 
		 "optdone": 1, 
		 "sigma_profile": "yes", 
		 "theory": "DFT", 
		 "functional": "B3LYP", 
		 "basiset": "6-31G**", 
		 "properties": { 
			 "R2extent": 7225.063, 
			 "electric_dipole_moment_norm": 6.29137056054, 
			 "electric_quadrupole_moment_norm": 28.0732357642, 
			 "total_energy": -1370.31997247, 
			 "HOMO_LUMO_gap": 0.14971, 
			 "cosmo_polarized_energy": -19.82, 
			 "cosmo_cavitation_energy": 40.54, 
			 "cosmo_dispersion_energy": -27.95, 
			 "cosmo_repulsion_energy": 2.12, 
			 "cosmo_total_nonelectrostatic_energy": 14.7, 
			 "SMD_solvation_energy": 7.95 
		},
		"coords": [
			{
				"x": -0.2440488389,
				"y": 0.3742159213,
				"z": -3.9844584249,
				"element": "C" 
			},
			{
				"x": -0.2855169102,
				"y": 1.2190801126,
				"z": -2.8427649244,
				"element": "O" 
			},
			{
				"x": -1.4520380921,
				"y": 1.2924939707,
				"z": -2.1292227264,
				"element": "C" 
			},
			{
				"x": -1.4296595773,
				"y": 2.193822986,
				"z": -1.0410684272,
				"element": "C" 
			},
			{
				"x": -0.2445999904,
				"y": 2.946021601,
				"z": -0.8191333399,
				"element": "N" 
			},
			{
				"x": 0.586551638,
				"y": 2.9270342696,
				"z": 0.6577119896,
				"element": "S" 
			},
			{
				"x": -0.3770252729,
				"y": 3.2674065286,
				"z": 1.7030097931,
				"element": "O" 
			},
			{
				"x": 1.7898756454,
				"y": 3.7189828605,
				"z": 0.404807018,
				"element": "O" 
			},
			{
				"x": 1.0980946862,
				"y": 1.2231337549,
				"z": 0.9347951761,
				"element": "C" 
			},
			{
				"x": 0.2088737529,
				"y": 0.3254557848,
				"z": 1.5335042486,
				"element": "C" 
			},
			{
				"x": 0.6050454733,
				"y": -0.9968104325,
				"z": 1.7103821,
				"element": "C" 
			},
			{
				"x": 1.8789267456,
				"y": -1.4126084501,
				"z": 1.3005564921,
				"element": "C" 
			},
			{
				"x": 2.7643907394,
				"y": -0.4978041684,
				"z": 0.7135392662,
				"element": "C" 
			},
			{
				"x": 2.3735398793,
				"y": 0.8256982458,
				"z": 0.5260307085,
				"element": "C" 
			},
			{
				"x": 2.2463923681,
				"y": -2.8399918363,
				"z": 1.5194955341,
				"element": "C" 
			},
			{
				"x": 3.5002022844,
				"y": -3.1342106955,
				"z": 1.097860216,
				"element": "O" 
			},
			{
				"x": 1.5167667807,
				"y": -3.672321989,
				"z": 2.0190016126,
				"element": "O" 
			},
			{
				"x": -2.5731963925,
				"y": 2.3600829345,
				"z": -0.258396798,
				"element": "C" 
			},
			{
				"x": -3.7238287214,
				"y": 1.6163899324,
				"z": -0.5313245632,
				"element": "C" 
			},
			{
				"x": -3.743202088,
				"y": 0.7309188885,
				"z": -1.6060584577,
				"element": "C" 
			},
			{
				"x": -2.6125569859,
				"y": 0.5722440897,
				"z": -2.4140507791,
				"element": "C" 
			},
			{
				"x": -0.4152121189,
				"y": -0.6744916262,
				"z": -3.7124204339,
				"element": "H" 
			},
			{
				"x": 0.7585035707,
				"y": 0.4792676977,
				"z": -4.4011111789,
				"element": "H" 
			},
			{
				"x": -0.983557456,
				"y": 0.678920931,
				"z": -4.7350180992,
				"element": "H" 
			},
			{
				"x": 0.4201580736,
				"y": 2.8754944584,
				"z": -1.5851210713,
				"element": "H" 
			},
			{
				"x": -0.7644102196,
				"y": 0.6658853543,
				"z": 1.866780843,
				"element": "H" 
			},
			{
				"x": -0.0562529736,
				"y": -1.7221920547,
				"z": 2.1715258217,
				"element": "H" 
			},
			{
				"x": 3.7531350311,
				"y": -0.8238332768,
				"z": 0.4124710391,
				"element": "H" 
			},
			{
				"x": 3.0485083779,
				"y": 1.5530591964,
				"z": 0.0887802971,
				"element": "H" 
			},
			{
				"x": 3.6320271807,
				"y": -4.0770467548,
				"z": 1.2909253185,
				"element": "H" 
			},
			{
				"x": -2.5441615933,
				"y": 3.0700448181,
				"z": 0.5594458721,
				"element": "H" 
			},
			{
				"x": -4.6056589683,
				"y": 1.7468720763,
				"z": 0.0877104331,
				"element": "H" 
			},
			{
				"x": -4.6396545371,
				"y": 0.1610702848,
				"z": -1.8308641838,
				"element": "H" 
			},
			{
				"x": -2.6407114909,
				"y": -0.1167854138,
				"z": -3.2498203718,
				"element": "H" 
			}
		],
		 "valence_orbital": [ 
			{
				"type": "occ",
				"energy": -0.28955,
				"method": "rhf"
			},
			{
				"type": "occ",
				"energy": -0.27879,
				"method": "rhf"
			},
			{
				"type": "occ",
				"energy": -0.27862,
				"method": "rhf"
			},
			{
				"type": "occ",
				"energy": -0.24836,
				"method": "rhf"
			},
			{
				"type": "occ",
				"energy": -0.22318,
				"method": "rhf"
			},
			{
				"type": "unocc",
				"energy": -0.07347,
				"method": "rhf"
			},
			{
				"type": "unocc",
				"energy": -0.02822,
				"method": "rhf"
			},
			{
				"type": "unocc",
				"energy": -0.01489,
				"method": "rhf"
			},
			{
				"type": "unocc",
				"energy": 0.00042,
				"method": "rhf"
			},
			{
				"type": "unocc",
				"energy": 0.02801,
				"method": "rhf"
			}
		],
		"cosmo_sigma_profile": { 
			"-0.025": 0.0,
			"-0.024": 0.0,
			"-0.023": 0.0,
			"-0.022": 0.0,
			"-0.021": 0.0,
			"-0.02": 0.0,
			"-0.019": 0.255842734934,
			"-0.018": 0.723607070378,
			"-0.017": 1.11060324224,
			"-0.016": 0.775962898008,
			"-0.015": 0.972980608882,
			"-0.014": 0.641050004858,
			"-0.013": 0.719800823668,
			"-0.012": 1.23994660672,
			"-0.011": 1.90720976465,
			"-0.01": 1.34386164146,
			"-0.009": 1.25398892272,
			"-0.008": 2.82126359346,
			"-0.007": 9.73230953816,
			"-0.006": 20.4076333788,
			"-0.005": 21.4927557812,
			"-0.004": 24.9192659925,
			"-0.003": 22.2764196281,
			"-0.002": 21.5005457799,
			"-0.001": 20.1710119146,
			"0.0": 24.796863374,
			"0.001": 29.9116967486,
			"0.002": 19.8796251457,
			"0.003": 14.6874403384,
			"0.004": 17.5131088767,
			"0.005": 14.7707228503,
			"0.006": 7.58825179543,
			"0.007": 5.85815861485,
			"0.008": 5.29387191031,
			"0.009": 7.07651296508,
			"0.01": 9.6028641823,
			"0.011": 11.4353419601,
			"0.012": 1.77968865589,
			"0.013": 0.0,
			"0.014": 0.0,
			"0.015": 0.0,
			"0.016": 0.0,
			"0.017": 0.0,
			"0.018": 0.0,
			"0.019": 0.0,
			"0.02": 0.0,
			"0.021": 0.0,
			"0.022": 0.0,
			"0.023": 0.0,
			"0.024": 0.0,
			"0.0": 0.0
		}
	}
}
