{
	 "smiles": "CC(C)(C)OC(=O)N1CCC(CC(O)=O)(C1)C(O)=O", 
	 "Tm": 454.15, 
	 "num_atms": 38, 
	 "gaussian": { 
		 "optdone": 1, 
		 "sigma_profile": "yes", 
		 "theory": "DFT", 
		 "functional": "B3LYP", 
		 "basiset": "6-31G**", 
		 "properties": { 
			 "R2extent": 7486.1237, 
			 "electric_dipole_moment_norm": 2.27704557706, 
			 "electric_quadrupole_moment_norm": 15.5741973588, 
			 "total_energy": -974.891733826, 
			 "HOMO_LUMO_gap": 0.2337, 
			 "cosmo_polarized_energy": -20.22, 
			 "cosmo_cavitation_energy": 40.05, 
			 "cosmo_dispersion_energy": -27.24, 
			 "cosmo_repulsion_energy": 2.14, 
			 "cosmo_total_nonelectrostatic_energy": 14.95, 
			 "SMD_solvation_energy": 9.09 
		},
		"coords": [
			{
				"x": -4.1037409898,
				"y": -0.091246951,
				"z": -0.3874647928,
				"element": "C" 
			},
			{
				"x": -2.9823509685,
				"y": 0.3375887634,
				"z": -1.3402102063,
				"element": "C" 
			},
			{
				"x": -2.9323451464,
				"y": 1.857790195,
				"z": -1.5295249259,
				"element": "C" 
			},
			{
				"x": -3.1154838891,
				"y": -0.3732053727,
				"z": -2.6897897424,
				"element": "C" 
			},
			{
				"x": -1.6863791001,
				"y": -0.1512552787,
				"z": -0.8476671863,
				"element": "O" 
			},
			{
				"x": -1.2046287581,
				"y": 0.251407492,
				"z": 0.3578655541,
				"element": "C" 
			},
			{
				"x": -1.7402545418,
				"y": 1.0380361124,
				"z": 1.1263316047,
				"element": "O" 
			},
			{
				"x": -0.0072355739,
				"y": -0.3478107162,
				"z": 0.6139307735,
				"element": "N" 
			},
			{
				"x": 0.7361600166,
				"y": -0.039871893,
				"z": 1.8409419818,
				"element": "C" 
			},
			{
				"x": 2.0781194587,
				"y": -0.7599955218,
				"z": 1.6350092293,
				"element": "C" 
			},
			{
				"x": 1.783511187,
				"y": -1.9059107347,
				"z": 0.6357342311,
				"element": "C" 
			},
			{
				"x": 2.9936676993,
				"y": -2.335362807,
				"z": -0.2062737215,
				"element": "C" 
			},
			{
				"x": 4.1086111103,
				"y": -2.9446107931,
				"z": 0.6159387473,
				"element": "C" 
			},
			{
				"x": 5.1965280481,
				"y": -3.2019419319,
				"z": -0.1435716991,
				"element": "O" 
			},
			{
				"x": 4.0646715308,
				"y": -3.190333381,
				"z": 1.8025638898,
				"element": "O" 
			},
			{
				"x": 0.6842216989,
				"y": -1.2793069078,
				"z": -0.2697206901,
				"element": "C" 
			},
			{
				"x": 1.1973386258,
				"y": -3.1661460382,
				"z": 1.285586511,
				"element": "C" 
			},
			{
				"x": 0.7262349859,
				"y": -2.9706485746,
				"z": 2.5336185038,
				"element": "O" 
			},
			{
				"x": 1.1118227786,
				"y": -4.2340257271,
				"z": 0.716908092,
				"element": "O" 
			},
			{
				"x": -4.0858266857,
				"y": -1.1765091681,
				"z": -0.2445869764,
				"element": "H" 
			},
			{
				"x": -5.0743888154,
				"y": 0.1784706116,
				"z": -0.8164518281,
				"element": "H" 
			},
			{
				"x": -3.9978803105,
				"y": 0.3955909878,
				"z": 0.5821739095,
				"element": "H" 
			},
			{
				"x": -2.0987997045,
				"y": 2.1312407405,
				"z": -2.1845362099,
				"element": "H" 
			},
			{
				"x": -3.8598207847,
				"y": 2.2010907977,
				"z": -1.9995169224,
				"element": "H" 
			},
			{
				"x": -2.8115836431,
				"y": 2.3648475488,
				"z": -0.5721103178,
				"element": "H" 
			},
			{
				"x": -4.0550835166,
				"y": -0.0897166042,
				"z": -3.173333168,
				"element": "H" 
			},
			{
				"x": -2.2889453387,
				"y": -0.1010935144,
				"z": -3.3528344166,
				"element": "H" 
			},
			{
				"x": -3.108130195,
				"y": -1.4591217759,
				"z": -2.5572523731,
				"element": "H" 
			},
			{
				"x": 0.1991758004,
				"y": -0.4199466953,
				"z": 2.7149406139,
				"element": "H" 
			},
			{
				"x": 0.8496756076,
				"y": 1.0415465789,
				"z": 1.9621333607,
				"element": "H" 
			},
			{
				"x": 2.7995581588,
				"y": -0.0779944046,
				"z": 1.1702742691,
				"element": "H" 
			},
			{
				"x": 2.511395039,
				"y": -1.1245587715,
				"z": 2.5655913781,
				"element": "H" 
			},
			{
				"x": 2.6895738326,
				"y": -3.0833976329,
				"z": -0.946348786,
				"element": "H" 
			},
			{
				"x": 3.3973548696,
				"y": -1.4824519458,
				"z": -0.7624242576,
				"element": "H" 
			},
			{
				"x": 5.8533420619,
				"y": -3.6072713294,
				"z": 0.4475992675,
				"element": "H" 
			},
			{
				"x": 1.152519292,
				"y": -0.7583749753,
				"z": -1.1179047087,
				"element": "H" 
			},
			{
				"x": 0.0009201223,
				"y": -2.0254996953,
				"z": -0.6814812054,
				"element": "H" 
			},
			{
				"x": 0.3661760377,
				"y": -3.8260006867,
				"z": 2.8235622169,
				"element": "H" 
			}
		],
		 "valence_orbital": [ 
			{
				"type": "occ",
				"energy": -0.28735,
				"method": "rhf"
			},
			{
				"type": "occ",
				"energy": -0.28279,
				"method": "rhf"
			},
			{
				"type": "occ",
				"energy": -0.27803,
				"method": "rhf"
			},
			{
				"type": "occ",
				"energy": -0.25576,
				"method": "rhf"
			},
			{
				"type": "occ",
				"energy": -0.23497,
				"method": "rhf"
			},
			{
				"type": "unocc",
				"energy": -0.00127,
				"method": "rhf"
			},
			{
				"type": "unocc",
				"energy": 0.00392,
				"method": "rhf"
			},
			{
				"type": "unocc",
				"energy": 0.05375,
				"method": "rhf"
			},
			{
				"type": "unocc",
				"energy": 0.06795,
				"method": "rhf"
			},
			{
				"type": "unocc",
				"energy": 0.07172,
				"method": "rhf"
			}
		],
		"cosmo_sigma_profile": { 
			"-0.025": 0.0,
			"-0.024": 0.0,
			"-0.023": 0.0,
			"-0.022": 0.0,
			"-0.021": 0.0,
			"-0.02": 0.0,
			"-0.019": 0.115408432235,
			"-0.018": 1.99794378402,
			"-0.017": 1.80554998215,
			"-0.016": 1.81775674284,
			"-0.015": 1.37627884943,
			"-0.014": 1.53222099787,
			"-0.013": 1.35497721249,
			"-0.012": 1.16277076377,
			"-0.011": 1.92465368871,
			"-0.01": 1.06556708823,
			"-0.009": 0.619622476579,
			"-0.008": 2.12506967182,
			"-0.007": 8.44607557229,
			"-0.006": 8.84297352344,
			"-0.005": 12.9760652632,
			"-0.004": 24.1401254263,
			"-0.003": 29.9985071351,
			"-0.002": 27.4425655162,
			"-0.001": 27.0901021353,
			"0.0": 32.6023583973,
			"0.001": 26.2252596983,
			"0.002": 11.5380445123,
			"0.003": 11.0752036352,
			"0.004": 10.8524206621,
			"0.005": 9.42285900392,
			"0.006": 8.40863309086,
			"0.007": 7.93418713227,
			"0.008": 6.52196271027,
			"0.009": 6.43464289359,
			"0.01": 4.76619465259,
			"0.011": 8.28636104139,
			"0.012": 6.38681873493,
			"0.013": 2.36736397882,
			"0.014": 2.72315814526,
			"0.015": 0.0773874018805,
			"0.016": 0.0,
			"0.017": 0.0,
			"0.018": 0.0,
			"0.019": 0.0,
			"0.02": 0.0,
			"0.021": 0.0,
			"0.022": 0.0,
			"0.023": 0.0,
			"0.024": 0.0,
			"0.025": 0.0
		}
	}
}
