{
	 "smiles": "CCOC(=O)C(=NNC1=CC=C(C)C=C1C)C(=O)C(F)(F)F", 
	 "Tm": 412.15, 
	 "num_atms": 37, 
	 "gaussian": { 
		 "optdone": 1, 
		 "sigma_profile": "yes", 
		 "theory": "DFT", 
		 "functional": "B3LYP", 
		 "basiset": "6-31G**", 
		 "properties": { 
			 "R2extent": 7780.9743, 
			 "electric_dipole_moment_norm": 6.12507573014, 
			 "electric_quadrupole_moment_norm": 18.5741650364, 
			 "total_energy": -1177.1853407, 
			 "HOMO_LUMO_gap": 0.15637, 
			 "cosmo_polarized_energy": -15.69, 
			 "cosmo_cavitation_energy": 42.36, 
			 "cosmo_dispersion_energy": -27.52, 
			 "cosmo_repulsion_energy": 2.09, 
			 "cosmo_total_nonelectrostatic_energy": 16.93, 
			 "SMD_solvation_energy": 9.09 
		},
		"coords": [
			{
				"x": -1.9329125964,
				"y": -1.1099064678,
				"z": 2.2640164567,
				"element": "C" 
			},
			{
				"x": -0.7480321025,
				"y": -1.3448338606,
				"z": 1.3402017792,
				"element": "C" 
			},
			{
				"x": -1.1369933396,
				"y": -1.2198004566,
				"z": -0.0540690237,
				"element": "O" 
			},
			{
				"x": -1.1057387846,
				"y": 0.0127406032,
				"z": -0.5898038401,
				"element": "C" 
			},
			{
				"x": -0.724483859,
				"y": 1.0126837012,
				"z": -0.0175401143,
				"element": "O" 
			},
			{
				"x": -1.6242884353,
				"y": -0.0016740515,
				"z": -2.0028116568,
				"element": "C" 
			},
			{
				"x": -1.0449140094,
				"y": 0.5683497253,
				"z": -3.024771673,
				"element": "N" 
			},
			{
				"x": 0.1668031994,
				"y": 1.0907351072,
				"z": -2.9991019925,
				"element": "N" 
			},
			{
				"x": 1.2729549285,
				"y": 0.7857274467,
				"z": -2.1318753403,
				"element": "C" 
			},
			{
				"x": 1.6870870323,
				"y": -0.5404847099,
				"z": -1.9887173082,
				"element": "C" 
			},
			{
				"x": 2.7972650781,
				"y": -0.8402925826,
				"z": -1.2020218141,
				"element": "C" 
			},
			{
				"x": 3.5180164376,
				"y": 0.1786454355,
				"z": -0.5675416138,
				"element": "C" 
			},
			{
				"x": 4.7485185497,
				"y": -0.1312921783,
				"z": 0.2516235618,
				"element": "C" 
			},
			{
				"x": 3.0809399238,
				"y": 1.5000995676,
				"z": -0.7295291795,
				"element": "C" 
			},
			{
				"x": 1.9600553094,
				"y": 1.8326058835,
				"z": -1.495680625,
				"element": "C" 
			},
			{
				"x": 1.4701122342,
				"y": 3.2543732067,
				"z": -1.5988978464,
				"element": "C" 
			},
			{
				"x": -2.9603046527,
				"y": -0.569736343,
				"z": -2.3324667829,
				"element": "C" 
			},
			{
				"x": -3.3419593232,
				"y": -0.8026106097,
				"z": -3.4603747357,
				"element": "O" 
			},
			{
				"x": -3.9570487138,
				"y": -0.8607313764,
				"z": -1.1737607385,
				"element": "C" 
			},
			{
				"x": -5.2142478835,
				"y": -0.7598649474,
				"z": -1.6150652625,
				"element": "F" 
			},
			{
				"x": -3.8067483381,
				"y": 0.0150446785,
				"z": -0.1501872026,
				"element": "F" 
			},
			{
				"x": -3.7850773826,
				"y": -2.1036786083,
				"z": -0.6823119071,
				"element": "F" 
			},
			{
				"x": -2.278624532,
				"y": -0.0760591991,
				"z": 2.1969268527,
				"element": "H" 
			},
			{
				"x": -2.7618825086,
				"y": -1.7727347017,
				"z": 2.0036697514,
				"element": "H" 
			},
			{
				"x": -1.6362313892,
				"y": -1.3094382494,
				"z": 3.2990602505,
				"element": "H" 
			},
			{
				"x": 0.064584515,
				"y": -0.6424492487,
				"z": 1.5378289146,
				"element": "H" 
			},
			{
				"x": -0.3733863944,
				"y": -2.3677340037,
				"z": 1.4197798742,
				"element": "H" 
			},
			{
				"x": 0.4021770938,
				"y": 1.5002497616,
				"z": -3.8945692327,
				"element": "H" 
			},
			{
				"x": 1.1410958132,
				"y": -1.3308062427,
				"z": -2.4947860596,
				"element": "H" 
			},
			{
				"x": 3.1136545916,
				"y": -1.8743477314,
				"z": -1.094572995,
				"element": "H" 
			},
			{
				"x": 4.8497184116,
				"y": 0.5553569345,
				"z": 1.0975563759,
				"element": "H" 
			},
			{
				"x": 4.7220367189,
				"y": -1.1520790912,
				"z": 0.6436410158,
				"element": "H" 
			},
			{
				"x": 5.6592887687,
				"y": -0.0373848765,
				"z": -0.3529969094,
				"element": "H" 
			},
			{
				"x": 3.6212138027,
				"y": 2.2996332711,
				"z": -0.2274601277,
				"element": "H" 
			},
			{
				"x": 0.4408313979,
				"y": 3.3204215659,
				"z": -1.2322424315,
				"element": "H" 
			},
			{
				"x": 1.4749348099,
				"y": 3.6218586983,
				"z": -2.6320243999,
				"element": "H" 
			},
			{
				"x": 2.0950856287,
				"y": 3.9260139497,
				"z": -1.00532402,
				"element": "H" 
			}
		],
		 "valence_orbital": [ 
			{
				"type": "occ",
				"energy": -0.28242,
				"method": "rhf"
			},
			{
				"type": "occ",
				"energy": -0.26655,
				"method": "rhf"
			},
			{
				"type": "occ",
				"energy": -0.26015,
				"method": "rhf"
			},
			{
				"type": "occ",
				"energy": -0.25522,
				"method": "rhf"
			},
			{
				"type": "occ",
				"energy": -0.23303,
				"method": "rhf"
			},
			{
				"type": "unocc",
				"energy": -0.07666,
				"method": "rhf"
			},
			{
				"type": "unocc",
				"energy": -0.02506,
				"method": "rhf"
			},
			{
				"type": "unocc",
				"energy": -0.01728,
				"method": "rhf"
			},
			{
				"type": "unocc",
				"energy": -0.00614,
				"method": "rhf"
			},
			{
				"type": "unocc",
				"energy": 0.06051,
				"method": "rhf"
			}
		],
		"cosmo_sigma_profile": { 
			"-0.025": 0.0,
			"-0.024": 0.0,
			"-0.023": 0.0,
			"-0.022": 0.0,
			"-0.021": 0.0,
			"-0.02": 0.0,
			"-0.019": 0.0,
			"-0.018": 0.0,
			"-0.017": 0.00375663082782,
			"-0.016": 1.07386785416,
			"-0.015": 1.18150082071,
			"-0.014": 1.18133390625,
			"-0.013": 1.20107068525,
			"-0.012": 1.09031740279,
			"-0.011": 1.32952024868,
			"-0.01": 0.877952896194,
			"-0.009": 0.922772539506,
			"-0.008": 1.458485429,
			"-0.007": 3.33055006193,
			"-0.006": 8.78804834596,
			"-0.005": 19.2048804465,
			"-0.004": 28.5894279045,
			"-0.003": 27.0972431055,
			"-0.002": 25.6586271786,
			"-0.001": 34.6203315732,
			"0.0": 35.9103795312,
			"0.001": 28.7642637858,
			"0.002": 36.5990932362,
			"0.003": 18.9471800802,
			"0.004": 11.5206022148,
			"0.005": 9.49976675298,
			"0.006": 6.06482548315,
			"0.007": 4.7536103581,
			"0.008": 5.19556315227,
			"0.009": 5.43432421716,
			"0.01": 6.31370634913,
			"0.011": 4.93105603279,
			"0.012": 1.68730230653,
			"0.013": 1.23856433302,
			"0.014": 0.793377737465,
			"0.015": 0.0476321145706,
			"0.016": 0.0,
			"0.017": 0.0,
			"0.018": 0.0,
			"0.019": 0.0,
			"0.02": 0.0,
			"0.021": 0.0,
			"0.022": 0.0,
			"0.023": 0.0,
			"0.024": 0.0,
			"0.025": 0.0
		}
	}
}
