{
	 "smiles": "CCOC1=CC=C(C=C1)C(N)=O", 
	 "Tm": 482.15, 
	 "num_atms": 23, 
	 "gaussian": { 
		 "optdone": 1, 
		 "sigma_profile": "yes", 
		 "theory": "DFT", 
		 "functional": "B3LYP", 
		 "basiset": "6-31G**", 
		 "properties": { 
			 "R2extent": 4503.0328, 
			 "electric_dipole_moment_norm": 3.42562440148, 
			 "electric_quadrupole_moment_norm": 26.0461641011, 
			 "total_energy": -554.801689437, 
			 "HOMO_LUMO_gap": 0.19848, 
			 "cosmo_polarized_energy": -14.41, 
			 "cosmo_cavitation_energy": 26.68, 
			 "cosmo_dispersion_energy": -19.76, 
			 "cosmo_repulsion_energy": 1.59, 
			 "cosmo_total_nonelectrostatic_energy": 8.5, 
			 "SMD_solvation_energy": 5.77 
		},
		"coords": [
			{
				"x": -1.106733909,
				"y": -0.2953639568,
				"z": 1.6180267717,
				"element": "C" 
			},
			{
				"x": -0.4034571235,
				"y": -1.5319450611,
				"z": 1.0687995559,
				"element": "C" 
			},
			{
				"x": 1.0227432384,
				"y": -1.4046560685,
				"z": 1.0871154577,
				"element": "O" 
			},
			{
				"x": 1.661431726,
				"y": -0.7214559285,
				"z": 0.0984039626,
				"element": "C" 
			},
			{
				"x": 3.059156522,
				"y": -0.6532420379,
				"z": 0.2236058885,
				"element": "C" 
			},
			{
				"x": 3.8160183366,
				"y": 0.0088535533,
				"z": -0.7324550654,
				"element": "C" 
			},
			{
				"x": 3.2034091697,
				"y": 0.6224842643,
				"z": -1.8384052548,
				"element": "C" 
			},
			{
				"x": 1.8128563866,
				"y": 0.5334013527,
				"z": -1.9613451285,
				"element": "C" 
			},
			{
				"x": 1.0386400659,
				"y": -0.1213628582,
				"z": -1.0067641139,
				"element": "C" 
			},
			{
				"x": 3.9494513444,
				"y": 1.353647522,
				"z": -2.9099366649,
				"element": "C" 
			},
			{
				"x": 5.2575419403,
				"y": 1.6871611041,
				"z": -2.6293077816,
				"element": "N" 
			},
			{
				"x": 3.4403948557,
				"y": 1.6258452215,
				"z": -3.9918292952,
				"element": "O" 
			},
			{
				"x": -2.1883669742,
				"y": -0.4637209216,
				"z": 1.6501845342,
				"element": "H" 
			},
			{
				"x": -0.7607772689,
				"y": -0.0830299179,
				"z": 2.633577043,
				"element": "H" 
			},
			{
				"x": -0.9167513924,
				"y": 0.5871081642,
				"z": 1.0012421296,
				"element": "H" 
			},
			{
				"x": -0.7494388351,
				"y": -1.7807700273,
				"z": 0.0580779506,
				"element": "H" 
			},
			{
				"x": -0.6051216621,
				"y": -2.3975769292,
				"z": 1.705795433,
				"element": "H" 
			},
			{
				"x": 3.5245288273,
				"y": -1.1407068713,
				"z": 1.0738453069,
				"element": "H" 
			},
			{
				"x": 4.897355251,
				"y": 0.0133829983,
				"z": -0.6292591325,
				"element": "H" 
			},
			{
				"x": 1.3474715743,
				"y": 0.9936727181,
				"z": -2.8265673282,
				"element": "H" 
			},
			{
				"x": -0.036796837,
				"y": -0.157535053,
				"z": -1.1318838796,
				"element": "H" 
			},
			{
				"x": 5.6935621214,
				"y": 2.2922452702,
				"z": -3.3104635735,
				"element": "H" 
			},
			{
				"x": 5.5551826426,
				"y": 1.8004634625,
				"z": -1.6727568158,
				"element": "H" 
			}
		],
		 "valence_orbital": [ 
			{
				"type": "occ",
				"energy": -0.31873,
				"method": "rhf"
			},
			{
				"type": "occ",
				"energy": -0.26653,
				"method": "rhf"
			},
			{
				"type": "occ",
				"energy": -0.25691,
				"method": "rhf"
			},
			{
				"type": "occ",
				"energy": -0.24341,
				"method": "rhf"
			},
			{
				"type": "occ",
				"energy": -0.22297,
				"method": "rhf"
			},
			{
				"type": "unocc",
				"energy": -0.02449,
				"method": "rhf"
			},
			{
				"type": "unocc",
				"energy": -0.00733,
				"method": "rhf"
			},
			{
				"type": "unocc",
				"energy": 0.06771,
				"method": "rhf"
			},
			{
				"type": "unocc",
				"energy": 0.08007,
				"method": "rhf"
			},
			{
				"type": "unocc",
				"energy": 0.09265,
				"method": "rhf"
			}
		],
		"cosmo_sigma_profile": { 
			"-0.025": 0.0,
			"-0.024": 0.0,
			"-0.023": 0.0,
			"-0.022": 0.0,
			"-0.021": 0.0,
			"-0.02": 0.0,
			"-0.019": 0.0,
			"-0.018": 0.0,
			"-0.017": 0.0,
			"-0.016": 0.0,
			"-0.015": 0.0388253931904,
			"-0.014": 0.914525467777,
			"-0.013": 2.24842779365,
			"-0.012": 2.3591803059,
			"-0.011": 2.28951106305,
			"-0.01": 2.7164082179,
			"-0.009": 2.52965379197,
			"-0.008": 2.55776040305,
			"-0.007": 4.57897938315,
			"-0.006": 8.28461859413,
			"-0.005": 13.3664176904,
			"-0.004": 17.0417909564,
			"-0.003": 17.4882948922,
			"-0.002": 15.242971288,
			"-0.001": 14.0598718919,
			"0.0": 14.6714081836,
			"0.001": 12.7479397032,
			"0.002": 11.3207660011,
			"0.003": 13.7079796813,
			"0.004": 16.1343563633,
			"0.005": 7.72287196539,
			"0.006": 3.96774565172,
			"0.007": 3.17775507892,
			"0.008": 3.12654241619,
			"0.009": 3.51802520492,
			"0.01": 1.9765035317,
			"0.011": 1.88486473921,
			"0.012": 2.39416835957,
			"0.013": 3.20551802723,
			"0.014": 5.19383431325,
			"0.015": 0.768950120777,
			"0.016": 0.0,
			"0.017": 0.0,
			"0.018": 0.0,
			"0.019": 0.0,
			"0.02": 0.0,
			"0.021": 0.0,
			"0.022": 0.0,
			"0.023": 0.0,
			"0.024": 0.0,
			"0.025": 0.0
		}
	}
}
