{
	 "smiles": "NC1=C(OCCN2CCOCC2)C=CC=C1", 
	 "Tm": 314.65, 
	 "num_atms": 34, 
	 "gaussian": { 
		 "optdone": 1, 
		 "sigma_profile": "yes", 
		 "theory": "DFT", 
		 "functional": "B3LYP", 
		 "basiset": "6-31G**", 
		 "properties": { 
			 "R2extent": 6118.5929, 
			 "electric_dipole_moment_norm": 0.986048320317, 
			 "electric_quadrupole_moment_norm": 11.2216969782, 
			 "total_energy": -728.030761929, 
			 "HOMO_LUMO_gap": 0.20635, 
			 "cosmo_polarized_energy": -12.19, 
			 "cosmo_cavitation_energy": 35.62, 
			 "cosmo_dispersion_energy": -25.8, 
			 "cosmo_repulsion_energy": 2.03, 
			 "cosmo_total_nonelectrostatic_energy": 11.86, 
			 "SMD_solvation_energy": 3.2 
		},
		"coords": [
			{
				"x": -2.6363706681,
				"y": -2.2291764938,
				"z": -0.5825549968,
				"element": "N" 
			},
			{
				"x": -2.0570406239,
				"y": -3.0058906367,
				"z": 0.4226293464,
				"element": "C" 
			},
			{
				"x": -1.3758937563,
				"y": -2.3647054234,
				"z": 1.4779895668,
				"element": "C" 
			},
			{
				"x": -1.3861885933,
				"y": -0.9777043629,
				"z": 1.5125102958,
				"element": "O" 
			},
			{
				"x": -0.2465752,
				"y": -0.3630102131,
				"z": 0.8916613343,
				"element": "C" 
			},
			{
				"x": -0.4571515031,
				"y": 1.1472687879,
				"z": 0.9713580825,
				"element": "C" 
			},
			{
				"x": 0.6918239261,
				"y": 1.8805418552,
				"z": 0.4543814045,
				"element": "N" 
			},
			{
				"x": 0.7825031682,
				"y": 3.280730319,
				"z": 0.9077798535,
				"element": "C" 
			},
			{
				"x": 0.2962471413,
				"y": 4.2754382145,
				"z": -0.1457791102,
				"element": "C" 
			},
			{
				"x": 1.0564927047,
				"y": 4.1841190862,
				"z": -1.3514550639,
				"element": "O" 
			},
			{
				"x": 1.6658503213,
				"y": 2.9126444786,
				"z": -1.5593421757,
				"element": "C" 
			},
			{
				"x": 0.8269573001,
				"y": 1.7661928063,
				"z": -1.0065067934,
				"element": "C" 
			},
			{
				"x": -0.752993577,
				"y": -3.1005654585,
				"z": 2.4805441738,
				"element": "C" 
			},
			{
				"x": -0.786757653,
				"y": -4.4973205045,
				"z": 2.4539748518,
				"element": "C" 
			},
			{
				"x": -1.4536188677,
				"y": -5.143086586,
				"z": 1.4116188101,
				"element": "C" 
			},
			{
				"x": -2.0862284297,
				"y": -4.4082084497,
				"z": 0.4086506607,
				"element": "C" 
			},
			{
				"x": -3.3992777341,
				"y": -2.6748708956,
				"z": -1.0739195718,
				"element": "H" 
			},
			{
				"x": -2.8733902795,
				"y": -1.29738295,
				"z": -0.2654685372,
				"element": "H" 
			},
			{
				"x": 0.6739936432,
				"y": -0.6375015502,
				"z": 1.4227178974,
				"element": "H" 
			},
			{
				"x": -0.1605459053,
				"y": -0.7093694022,
				"z": -0.1463130201,
				"element": "H" 
			},
			{
				"x": -0.5952429478,
				"y": 1.4023774168,
				"z": 2.0269130573,
				"element": "H" 
			},
			{
				"x": -1.4016049452,
				"y": 1.3998938054,
				"z": 0.4491173734,
				"element": "H" 
			},
			{
				"x": 1.8248876176,
				"y": 3.518417266,
				"z": 1.1603667164,
				"element": "H" 
			},
			{
				"x": 0.2009762185,
				"y": 3.4026490731,
				"z": 1.8267575652,
				"element": "H" 
			},
			{
				"x": 0.3948031842,
				"y": 5.304478153,
				"z": 0.2194692615,
				"element": "H" 
			},
			{
				"x": -0.7701274579,
				"y": 4.10067898,
				"z": -0.3614405825,
				"element": "H" 
			},
			{
				"x": 2.6684918339,
				"y": 2.885010802,
				"z": -1.1042682415,
				"element": "H" 
			},
			{
				"x": 1.7899436063,
				"y": 2.7979793189,
				"z": -2.6408248884,
				"element": "H" 
			},
			{
				"x": -0.1600023597,
				"y": 1.782406321,
				"z": -1.5072017166,
				"element": "H" 
			},
			{
				"x": 1.3025071807,
				"y": 0.8133677356,
				"z": -1.2711312887,
				"element": "H" 
			},
			{
				"x": -0.2559120107,
				"y": -2.563916869,
				"z": 3.2833981218,
				"element": "H" 
			},
			{
				"x": -0.3017534335,
				"y": -5.0698258912,
				"z": 3.2382388654,
				"element": "H" 
			},
			{
				"x": -1.4911035032,
				"y": -6.2282771096,
				"z": 1.3789646388,
				"element": "H" 
			},
			{
				"x": -2.6067983969,
				"y": -4.9192816232,
				"z": -0.397835891,
				"element": "H" 
			}
		],
		 "valence_orbital": [ 
			{
				"type": "occ",
				"energy": -0.27026,
				"method": "rhf"
			},
			{
				"type": "occ",
				"energy": -0.24546,
				"method": "rhf"
			},
			{
				"type": "occ",
				"energy": -0.23643,
				"method": "rhf"
			},
			{
				"type": "occ",
				"energy": -0.21074,
				"method": "rhf"
			},
			{
				"type": "occ",
				"energy": -0.19807,
				"method": "rhf"
			},
			{
				"type": "unocc",
				"energy": 0.00828,
				"method": "rhf"
			},
			{
				"type": "unocc",
				"energy": 0.02138,
				"method": "rhf"
			},
			{
				"type": "unocc",
				"energy": 0.07602,
				"method": "rhf"
			},
			{
				"type": "unocc",
				"energy": 0.07974,
				"method": "rhf"
			},
			{
				"type": "unocc",
				"energy": 0.09828,
				"method": "rhf"
			}
		],
		"cosmo_sigma_profile": { 
			"-0.025": 0.0,
			"-0.024": 0.0,
			"-0.023": 0.0,
			"-0.022": 0.0,
			"-0.021": 0.0,
			"-0.02": 0.0,
			"-0.019": 0.0,
			"-0.018": 0.0,
			"-0.017": 0.0,
			"-0.016": 0.0,
			"-0.015": 0.0,
			"-0.014": 0.0,
			"-0.013": 0.0789019634782,
			"-0.012": 1.227597049,
			"-0.011": 1.43874564717,
			"-0.01": 2.15316952635,
			"-0.009": 2.39296620722,
			"-0.008": 2.53814987385,
			"-0.007": 2.69777779678,
			"-0.006": 4.53940038955,
			"-0.005": 16.5483881598,
			"-0.004": 26.0455436164,
			"-0.003": 42.404151204,
			"-0.002": 38.0042535098,
			"-0.001": 21.2731012858,
			"0.0": 15.6579501741,
			"0.001": 12.0378529058,
			"0.002": 11.4160923796,
			"0.003": 10.5093772611,
			"0.004": 12.1293476053,
			"0.005": 11.5535067762,
			"0.006": 12.176630576,
			"0.007": 8.84441034831,
			"0.008": 3.98102550148,
			"0.009": 3.73967199838,
			"0.01": 3.59174528296,
			"0.011": 3.06296902754,
			"0.012": 2.69111660301,
			"0.013": 2.69949585994,
			"0.014": 2.62090458649,
			"0.015": 0.145809656561,
			"0.016": 0.0,
			"0.017": 0.0,
			"0.018": 0.0,
			"0.019": 0.0,
			"0.02": 0.0,
			"0.021": 0.0,
			"0.022": 0.0,
			"0.023": 0.0,
			"0.024": 0.0,
			"0.025": 0.0
		}
	}
}
