{
	 "smiles": "CN1N=CC2=C1N=C(C)NC2=O", 
	 "Tm": 548.15, 
	 "num_atms": 20, 
	 "gaussian": { 
		 "optdone": 1, 
		 "sigma_profile": "yes", 
		 "theory": "DFT", 
		 "functional": "B3LYP", 
		 "basiset": "6-31G**", 
		 "properties": { 
			 "R2extent": 2774.3724, 
			 "electric_dipole_moment_norm": 4.6819504803, 
			 "electric_quadrupole_moment_norm": 9.30443600386, 
			 "total_energy": -565.81056677, 
			 "HOMO_LUMO_gap": 0.19743, 
			 "cosmo_polarized_energy": -15.38, 
			 "cosmo_cavitation_energy": 24.39, 
			 "cosmo_dispersion_energy": -18.27, 
			 "cosmo_repulsion_energy": 1.46, 
			 "cosmo_total_nonelectrostatic_energy": 7.58, 
			 "SMD_solvation_energy": 3.07 
		},
		"coords": [
			{
				"x": -2.1136926899,
				"y": -2.7397053662,
				"z": -2.4431089335,
				"element": "C" 
			},
			{
				"x": -1.7704358354,
				"y": -1.3317232699,
				"z": -2.4173804685,
				"element": "N" 
			},
			{
				"x": -2.5140828114,
				"y": -0.4231909803,
				"z": -3.1150624914,
				"element": "N" 
			},
			{
				"x": -1.9511536735,
				"y": 0.7568072065,
				"z": -2.8896711452,
				"element": "C" 
			},
			{
				"x": -0.8275449908,
				"y": 0.6329880044,
				"z": -2.0377538586,
				"element": "C" 
			},
			{
				"x": -0.7463549266,
				"y": -0.7388782958,
				"z": -1.7552507165,
				"element": "C" 
			},
			{
				"x": 0.1694866768,
				"y": -1.3799189495,
				"z": -0.9732543768,
				"element": "N" 
			},
			{
				"x": 1.0576107092,
				"y": -0.5799169936,
				"z": -0.445252708,
				"element": "C" 
			},
			{
				"x": 2.1318583963,
				"y": -1.1497584132,
				"z": 0.4423526662,
				"element": "C" 
			},
			{
				"x": 1.0671836566,
				"y": 0.7753506678,
				"z": -0.6577477152,
				"element": "N" 
			},
			{
				"x": 0.1462647792,
				"y": 1.5208476351,
				"z": -1.4606343967,
				"element": "C" 
			},
			{
				"x": 0.2714352474,
				"y": 2.7309927534,
				"z": -1.563908605,
				"element": "O" 
			},
			{
				"x": -3.1224073951,
				"y": -2.8872611193,
				"z": -2.0486499963,
				"element": "H" 
			},
			{
				"x": -1.3917049451,
				"y": -3.2716523812,
				"z": -1.8229659514,
				"element": "H" 
			},
			{
				"x": -2.0726437764,
				"y": -3.1172412064,
				"z": -3.4681203942,
				"element": "H" 
			},
			{
				"x": -2.3619544595,
				"y": 1.6503452198,
				"z": -3.3386706629,
				"element": "H" 
			},
			{
				"x": 2.8100953733,
				"y": -0.3811608445,
				"z": 0.8204624663,
				"element": "H" 
			},
			{
				"x": 1.6741799163,
				"y": -1.6634751818,
				"z": 1.2922480033,
				"element": "H" 
			},
			{
				"x": 2.7144358644,
				"y": -1.8903780352,
				"z": -0.1124418677,
				"element": "H" 
			},
			{
				"x": 1.7816248842,
				"y": 1.34452955,
				"z": -0.2208888479,
				"element": "H" 
			}
		],
		 "valence_orbital": [ 
			{
				"type": "occ",
				"energy": -0.30119,
				"method": "rhf"
			},
			{
				"type": "occ",
				"energy": -0.28777,
				"method": "rhf"
			},
			{
				"type": "occ",
				"energy": -0.26108,
				"method": "rhf"
			},
			{
				"type": "occ",
				"energy": -0.25598,
				"method": "rhf"
			},
			{
				"type": "occ",
				"energy": -0.2279,
				"method": "rhf"
			},
			{
				"type": "unocc",
				"energy": -0.03047,
				"method": "rhf"
			},
			{
				"type": "unocc",
				"energy": -0.00584,
				"method": "rhf"
			},
			{
				"type": "unocc",
				"energy": 0.04073,
				"method": "rhf"
			},
			{
				"type": "unocc",
				"energy": 0.06624,
				"method": "rhf"
			},
			{
				"type": "unocc",
				"energy": 0.11245,
				"method": "rhf"
			}
		],
		"cosmo_sigma_profile": { 
			"-0.025": 0.0,
			"-0.024": 0.0,
			"-0.023": 0.0,
			"-0.022": 0.0,
			"-0.021": 0.0,
			"-0.02": 0.0,
			"-0.019": 0.0,
			"-0.018": 0.0,
			"-0.017": 0.0,
			"-0.016": 0.980569307502,
			"-0.015": 1.19774537476,
			"-0.014": 1.20024332447,
			"-0.013": 0.777958521942,
			"-0.012": 1.47362342032,
			"-0.011": 1.17592009092,
			"-0.01": 1.33802177943,
			"-0.009": 1.31894459584,
			"-0.008": 2.85324588462,
			"-0.007": 4.10014039243,
			"-0.006": 11.6444377911,
			"-0.005": 13.9585197447,
			"-0.004": 16.7297472142,
			"-0.003": 21.1840963442,
			"-0.002": 17.3439377414,
			"-0.001": 12.8952708249,
			"0.0": 10.5659292249,
			"0.001": 9.94818735179,
			"0.002": 9.86971249004,
			"0.003": 7.08619640299,
			"0.004": 4.22480278894,
			"0.005": 5.73492006755,
			"0.006": 3.5660914093,
			"0.007": 3.82816422932,
			"0.008": 2.88098793158,
			"0.009": 4.13108213685,
			"0.01": 3.80963155564,
			"0.011": 3.45502408071,
			"0.012": 5.29761825937,
			"0.013": 7.09872890711,
			"0.014": 2.47867709274,
			"0.015": 0.740662340908,
			"0.016": 0.054949598478,
			"0.017": 0.0,
			"0.018": 0.0,
			"0.019": 0.0,
			"0.02": 0.0,
			"0.021": 0.0,
			"0.022": 0.0,
			"0.023": 0.0,
			"0.024": 0.0,
			"0.025": 0.0
		}
	}
}
