{
	 "smiles": "CCCC1=CC(C)=CC=C1", 
	 "Tm": 190.65, 
	 "num_atms": 24, 
	 "gaussian": { 
		 "optdone": 1, 
		 "sigma_profile": "yes", 
		 "theory": "DFT", 
		 "functional": "B3LYP", 
		 "basiset": "6-31G**", 
		 "properties": { 
			 "R2extent": 2427.3675, 
			 "electric_dipole_moment_norm": 0.229853888373, 
			 "electric_quadrupole_moment_norm": 5.07693161565, 
			 "total_energy": -389.523694857, 
			 "HOMO_LUMO_gap": 0.23532, 
			 "cosmo_polarized_energy": -3.01, 
			 "cosmo_cavitation_energy": 26.11, 
			 "cosmo_dispersion_energy": -18.61, 
			 "cosmo_repulsion_energy": 1.53, 
			 "cosmo_total_nonelectrostatic_energy": 9.04, 
			 "SMD_solvation_energy": 4.32 
		},
		"coords": [
			{
				"x": -0.2184575398,
				"y": 1.8197999802,
				"z": 1.0581339876,
				"element": "C" 
			},
			{
				"x": -0.8238507086,
				"y": 1.9521658054,
				"z": -0.3421605373,
				"element": "C" 
			},
			{
				"x": 0.2035860124,
				"y": 1.8046955044,
				"z": -1.4867360823,
				"element": "C" 
			},
			{
				"x": 0.826042349,
				"y": 0.4265200024,
				"z": -1.5848264302,
				"element": "C" 
			},
			{
				"x": 2.1244685071,
				"y": 0.1814008115,
				"z": -1.1230464923,
				"element": "C" 
			},
			{
				"x": 2.7090675871,
				"y": -1.0913304567,
				"z": -1.1857150752,
				"element": "C" 
			},
			{
				"x": 4.1260496769,
				"y": -1.3122680363,
				"z": -0.7085437644,
				"element": "C" 
			},
			{
				"x": 1.9578085095,
				"y": -2.1417446457,
				"z": -1.725013782,
				"element": "C" 
			},
			{
				"x": 0.6619092244,
				"y": -1.9180111726,
				"z": -2.1939743043,
				"element": "C" 
			},
			{
				"x": 0.0999501871,
				"y": -0.6446304392,
				"z": -2.1262519369,
				"element": "C" 
			},
			{
				"x": -0.9853303835,
				"y": 1.9331910032,
				"z": 1.8314212383,
				"element": "H" 
			},
			{
				"x": 0.5448722959,
				"y": 2.5874072244,
				"z": 1.2324586473,
				"element": "H" 
			},
			{
				"x": 0.255925934,
				"y": 0.8432622678,
				"z": 1.1964197009,
				"element": "H" 
			},
			{
				"x": -1.6134805324,
				"y": 1.2012209897,
				"z": -0.4734603036,
				"element": "H" 
			},
			{
				"x": -1.3109217052,
				"y": 2.930985568,
				"z": -0.4391266922,
				"element": "H" 
			},
			{
				"x": -0.2957212377,
				"y": 2.0418617543,
				"z": -2.4347358744,
				"element": "H" 
			},
			{
				"x": 0.9936631414,
				"y": 2.5548071503,
				"z": -1.3558396688,
				"element": "H" 
			},
			{
				"x": 2.6989241177,
				"y": 1.0058263263,
				"z": -0.7044468761,
				"element": "H" 
			},
			{
				"x": 4.8520656303,
				"y": -1.0774465541,
				"z": -1.4973222529,
				"element": "H" 
			},
			{
				"x": 4.3645977735,
				"y": -0.6756086533,
				"z": 0.149259112,
				"element": "H" 
			},
			{
				"x": 4.2916940843,
				"y": -2.3529144146,
				"z": -0.414045114,
				"element": "H" 
			},
			{
				"x": 2.3897745044,
				"y": -3.1380324389,
				"z": -1.780610951,
				"element": "H" 
			},
			{
				"x": 0.0900524702,
				"y": -2.7408720851,
				"z": -2.6146017107,
				"element": "H" 
			},
			{
				"x": -0.908589898,
				"y": -0.4769854913,
				"z": -2.4972348377,
				"element": "H" 
			}
		],
		 "valence_orbital": [ 
			{
				"type": "occ",
				"energy": -0.32728,
				"method": "rhf"
			},
			{
				"type": "occ",
				"energy": -0.32298,
				"method": "rhf"
			},
			{
				"type": "occ",
				"energy": -0.31524,
				"method": "rhf"
			},
			{
				"type": "occ",
				"energy": -0.23755,
				"method": "rhf"
			},
			{
				"type": "occ",
				"energy": -0.22976,
				"method": "rhf"
			},
			{
				"type": "unocc",
				"energy": 0.00556,
				"method": "rhf"
			},
			{
				"type": "unocc",
				"energy": 0.00689,
				"method": "rhf"
			},
			{
				"type": "unocc",
				"energy": 0.09472,
				"method": "rhf"
			},
			{
				"type": "unocc",
				"energy": 0.11057,
				"method": "rhf"
			},
			{
				"type": "unocc",
				"energy": 0.12285,
				"method": "rhf"
			}
		],
		"cosmo_sigma_profile": { 
			"-0.025": 0.0,
			"-0.024": 0.0,
			"-0.023": 0.0,
			"-0.022": 0.0,
			"-0.021": 0.0,
			"-0.02": 0.0,
			"-0.019": 0.0,
			"-0.018": 0.0,
			"-0.017": 0.0,
			"-0.016": 0.0,
			"-0.015": 0.0,
			"-0.014": 0.0,
			"-0.013": 0.0,
			"-0.012": 0.0,
			"-0.011": 0.0,
			"-0.01": 0.0,
			"-0.009": 0.0,
			"-0.008": 0.0,
			"-0.007": 0.0,
			"-0.006": 0.108703829758,
			"-0.005": 3.92828547727,
			"-0.004": 13.4983008241,
			"-0.003": 22.5175582961,
			"-0.002": 28.7518534829,
			"-0.001": 27.9644460749,
			"0.0": 31.2164080449,
			"0.001": 25.6090247983,
			"0.002": 15.7061915767,
			"0.003": 8.21731608376,
			"0.004": 7.15986413708,
			"0.005": 6.80173399376,
			"0.006": 7.09629007248,
			"0.007": 5.39746854721,
			"0.008": 0.337267869591,
			"0.009": 0.0,
			"0.01": 0.0,
			"0.011": 0.0,
			"0.012": 0.0,
			"0.013": 0.0,
			"0.014": 0.0,
			"0.015": 0.0,
			"0.016": 0.0,
			"0.017": 0.0,
			"0.018": 0.0,
			"0.019": 0.0,
			"0.02": 0.0,
			"0.021": 0.0,
			"0.022": 0.0,
			"0.023": 0.0,
			"0.024": 0.0,
			"0.025": 0.0
		}
	}
}
