{
	 "smiles": "FC1=CC(F)=C(C=C1)C(=O)CC(F)(F)F", 
	 "Tm": 320.15, 
	 "num_atms": 20, 
	 "gaussian": { 
		 "optdone": 1, 
		 "sigma_profile": "yes", 
		 "theory": "DFT", 
		 "functional": "B3LYP", 
		 "basiset": "6-31G**", 
		 "properties": { 
			 "R2extent": 4254.2101, 
			 "electric_dipole_moment_norm": 3.30827198096, 
			 "electric_quadrupole_moment_norm": 9.16473176694, 
			 "total_energy": -920.383273881, 
			 "HOMO_LUMO_gap": 0.19114, 
			 "cosmo_polarized_energy": -9.78, 
			 "cosmo_cavitation_energy": 27.22, 
			 "cosmo_dispersion_energy": -18.97, 
			 "cosmo_repulsion_energy": 1.37, 
			 "cosmo_total_nonelectrostatic_energy": 9.62, 
			 "SMD_solvation_energy": 7.22 
		},
		"coords": [
			{
				"x": 0.2798689674,
				"y": 0.5350976369,
				"z": -4.2807504959,
				"element": "F" 
			},
			{
				"x": 0.0051130186,
				"y": 0.0065528261,
				"z": -3.0786647546,
				"element": "C" 
			},
			{
				"x": 0.0282187484,
				"y": -1.3753436772,
				"z": -2.9380723599,
				"element": "C" 
			},
			{
				"x": -0.2632339287,
				"y": -1.9108397708,
				"z": -1.6896283987,
				"element": "C" 
			},
			{
				"x": -0.2204211049,
				"y": -3.2408858601,
				"z": -1.5751636407,
				"element": "F" 
			},
			{
				"x": -0.5612583524,
				"y": -1.1048870436,
				"z": -0.5721669961,
				"element": "C" 
			},
			{
				"x": -0.5623649161,
				"y": 0.2884264043,
				"z": -0.776032511,
				"element": "C" 
			},
			{
				"x": -0.2903200902,
				"y": 0.855352031,
				"z": -2.0155940608,
				"element": "C" 
			},
			{
				"x": -0.8779219812,
				"y": -1.7154705933,
				"z": 0.7512688356,
				"element": "C" 
			},
			{
				"x": -1.2026992058,
				"y": -2.8815904036,
				"z": 0.8760041288,
				"element": "O" 
			},
			{
				"x": -0.7498152642,
				"y": -0.8497415033,
				"z": 2.0202011481,
				"element": "C" 
			},
			{
				"x": -2.0661535335,
				"y": -0.2594439201,
				"z": 2.4915807675,
				"element": "C" 
			},
			{
				"x": -2.5637464067,
				"y": 0.6354744596,
				"z": 1.5996944634,
				"element": "F" 
			},
			{
				"x": -3.0051823116,
				"y": -1.1997895368,
				"z": 2.6800357313,
				"element": "F" 
			},
			{
				"x": -1.898247207,
				"y": 0.3982501343,
				"z": 3.6586708771,
				"element": "F" 
			},
			{
				"x": 0.2662094152,
				"y": -2.0231908579,
				"z": -3.7727020703,
				"element": "H" 
			},
			{
				"x": -0.8195883209,
				"y": 0.9432755337,
				"z": 0.0469147858,
				"element": "H" 
			},
			{
				"x": -0.3062630201,
				"y": 1.9278971366,
				"z": -2.1693031755,
				"element": "H" 
			},
			{
				"x": -0.4013782484,
				"y": -1.5171657544,
				"z": 2.8111972531,
				"element": "H" 
			},
			{
				"x": -0.0338162578,
				"y": -0.0326772416,
				"z": 1.9114104729,
				"element": "H" 
			}
		],
		 "valence_orbital": [ 
			{
				"type": "occ",
				"energy": -0.37898,
				"method": "rhf"
			},
			{
				"type": "occ",
				"energy": -0.3627,
				"method": "rhf"
			},
			{
				"type": "occ",
				"energy": -0.28094,
				"method": "rhf"
			},
			{
				"type": "occ",
				"energy": -0.26806,
				"method": "rhf"
			},
			{
				"type": "occ",
				"energy": -0.2647,
				"method": "rhf"
			},
			{
				"type": "unocc",
				"energy": -0.07356,
				"method": "rhf"
			},
			{
				"type": "unocc",
				"energy": -0.03017,
				"method": "rhf"
			},
			{
				"type": "unocc",
				"energy": 0.01649,
				"method": "rhf"
			},
			{
				"type": "unocc",
				"energy": 0.06829,
				"method": "rhf"
			},
			{
				"type": "unocc",
				"energy": 0.10072,
				"method": "rhf"
			}
		],
		"cosmo_sigma_profile": { 
			"-0.025": 0.0,
			"-0.024": 0.0,
			"-0.023": 0.0,
			"-0.022": 0.0,
			"-0.021": 0.0,
			"-0.02": 0.0,
			"-0.019": 0.0,
			"-0.018": 0.0,
			"-0.017": 0.0,
			"-0.016": 0.0,
			"-0.015": 0.0,
			"-0.014": 0.0,
			"-0.013": 0.0,
			"-0.012": 0.0,
			"-0.011": 0.272988046562,
			"-0.01": 1.28510852101,
			"-0.009": 4.64350572736,
			"-0.008": 8.04099904607,
			"-0.007": 8.88579858443,
			"-0.006": 9.99303459771,
			"-0.005": 7.71068638724,
			"-0.004": 8.53758612405,
			"-0.003": 7.34524474722,
			"-0.002": 12.2812030703,
			"-0.001": 22.3641062005,
			"0.0": 20.573333862,
			"0.001": 16.7384843779,
			"0.002": 27.6306508385,
			"0.003": 33.8134757298,
			"0.004": 8.26818274506,
			"0.005": 2.98692091961,
			"0.006": 1.87588637362,
			"0.007": 2.7560635261,
			"0.008": 2.03756851138,
			"0.009": 2.25757748258,
			"0.01": 3.24637239223,
			"0.011": 4.61096314184,
			"0.012": 1.11875004292,
			"0.013": 0.0,
			"0.014": 0.0,
			"0.015": 0.0,
			"0.016": 0.0,
			"0.017": 0.0,
			"0.018": 0.0,
			"0.019": 0.0,
			"0.02": 0.0,
			"0.021": 0.0,
			"0.022": 0.0,
			"0.023": 0.0,
			"0.024": 0.0,
			"0.025": 0.0
		}
	}
}
