{
	 "smiles": "NS(=O)(=O)C1=C(Cl)C=CN=C1", 
	 "Tm": 425.15, 
	 "num_atms": 16, 
	 "gaussian": { 
		 "optdone": 1, 
		 "sigma_profile": "yes", 
		 "theory": "DFT", 
		 "functional": "B3LYP", 
		 "basiset": "6-31G**", 
		 "properties": { 
			 "R2extent": 2996.1451, 
			 "electric_dipole_moment_norm": 5.52381736211, 
			 "electric_quadrupole_moment_norm": 15.472778997, 
			 "total_energy": -1311.78751756, 
			 "HOMO_LUMO_gap": 0.21458, 
			 "cosmo_polarized_energy": -18.05, 
			 "cosmo_cavitation_energy": 23.36, 
			 "cosmo_dispersion_energy": -18.15, 
			 "cosmo_repulsion_energy": 1.39, 
			 "cosmo_total_nonelectrostatic_energy": 6.6, 
			 "SMD_solvation_energy": 2.06 
		},
		"coords": [
			{
				"x": 2.6565127616,
				"y": 0.763772768,
				"z": -1.4848042433,
				"element": "N" 
			},
			{
				"x": 1.9722472065,
				"y": -0.6730243478,
				"z": -1.9850283871,
				"element": "S" 
			},
			{
				"x": 1.2563848532,
				"y": -0.3679033357,
				"z": -3.2207678149,
				"element": "O" 
			},
			{
				"x": 3.0152436579,
				"y": -1.6880372204,
				"z": -1.9080750037,
				"element": "O" 
			},
			{
				"x": 0.6959495917,
				"y": -1.1017022402,
				"z": -0.7732095965,
				"element": "C" 
			},
			{
				"x": 0.9315439011,
				"y": -1.3401780306,
				"z": 0.5859105745,
				"element": "C" 
			},
			{
				"x": 2.5148655745,
				"y": -1.1669489106,
				"z": 1.3100425197,
				"element": "Cl" 
			},
			{
				"x": -0.1341085135,
				"y": -1.7105102668,
				"z": 1.4018212825,
				"element": "C" 
			},
			{
				"x": -1.3969272163,
				"y": -1.8336926006,
				"z": 0.8214316876,
				"element": "C" 
			},
			{
				"x": -1.6482955253,
				"y": -1.612049276,
				"z": -0.4730759562,
				"element": "N" 
			},
			{
				"x": -0.6165305827,
				"y": -1.2561901111,
				"z": -1.242975014,
				"element": "C" 
			},
			{
				"x": 2.0243078169,
				"y": 1.555129209,
				"z": -1.5402489984,
				"element": "H" 
			},
			{
				"x": 3.1702407169,
				"y": 0.6929862072,
				"z": -0.6126883471,
				"element": "H" 
			},
			{
				"x": 0.0186696903,
				"y": -1.8982887916,
				"z": 2.4582549847,
				"element": "H" 
			},
			{
				"x": -2.2461952299,
				"y": -2.1239718895,
				"z": 1.436440676,
				"element": "H" 
			},
			{
				"x": -0.8160087029,
				"y": -1.0785911633,
				"z": -2.2956283639,
				"element": "H" 
			}
		],
		 "valence_orbital": [ 
			{
				"type": "occ",
				"energy": -0.32435,
				"method": "rhf"
			},
			{
				"type": "occ",
				"energy": -0.31455,
				"method": "rhf"
			},
			{
				"type": "occ",
				"energy": -0.30016,
				"method": "rhf"
			},
			{
				"type": "occ",
				"energy": -0.29157,
				"method": "rhf"
			},
			{
				"type": "occ",
				"energy": -0.28208,
				"method": "rhf"
			},
			{
				"type": "unocc",
				"energy": -0.0675,
				"method": "rhf"
			},
			{
				"type": "unocc",
				"energy": -0.05167,
				"method": "rhf"
			},
			{
				"type": "unocc",
				"energy": -0.00935,
				"method": "rhf"
			},
			{
				"type": "unocc",
				"energy": 0.05125,
				"method": "rhf"
			},
			{
				"type": "unocc",
				"energy": 0.07056,
				"method": "rhf"
			}
		],
		"cosmo_sigma_profile": { 
			"-0.025": 0.0,
			"-0.024": 0.0,
			"-0.023": 0.0,
			"-0.022": 0.0,
			"-0.021": 0.0,
			"-0.02": 0.0,
			"-0.019": 0.0,
			"-0.018": 0.0,
			"-0.017": 0.0,
			"-0.016": 1.14296367838,
			"-0.015": 1.27897621613,
			"-0.014": 2.21468582492,
			"-0.013": 2.40631247548,
			"-0.012": 2.32297389718,
			"-0.011": 2.57786333956,
			"-0.01": 2.37498457606,
			"-0.009": 4.14075204528,
			"-0.008": 7.98846546795,
			"-0.007": 6.7109436408,
			"-0.006": 5.78535336618,
			"-0.005": 6.19286625615,
			"-0.004": 9.89915347436,
			"-0.003": 11.9787527471,
			"-0.002": 17.0914036017,
			"-0.001": 15.358196224,
			"0.0": 9.99161452797,
			"0.001": 7.2187825044,
			"0.002": 10.6896929762,
			"0.003": 6.87183198621,
			"0.004": 3.55314241397,
			"0.005": 5.39484709947,
			"0.006": 6.43362425181,
			"0.007": 6.37936956153,
			"0.008": 4.28473335769,
			"0.009": 6.32514260226,
			"0.01": 11.733702551,
			"0.011": 8.26484388474,
			"0.012": 1.05551813538,
			"0.013": 0.867599111418,
			"0.014": 0.895684371405,
			"0.015": 0.448301385315,
			"0.016": 0.0117383600526,
			"0.017": 0.0,
			"0.018": 0.0,
			"0.019": 0.0,
			"0.02": 0.0,
			"0.021": 0.0,
			"0.022": 0.0,
			"0.023": 0.0,
			"0.024": 0.0,
			"0.025": 0.0
		}
	}
}
