{
	 "smiles": "OC(=O)C1=CC2=C(OC1=O)C(Cl)=CC(Cl)=C2", 
	 "Tm": 472.15, 
	 "num_atms": 20, 
	 "gaussian": { 
		 "optdone": 1, 
		 "sigma_profile": "yes", 
		 "theory": "DFT", 
		 "functional": "B3LYP", 
		 "basiset": "6-31G**", 
		 "properties": { 
			 "R2extent": 5449.0097, 
			 "electric_dipole_moment_norm": 2.69647382335, 
			 "electric_quadrupole_moment_norm": 11.6265310686, 
			 "total_energy": -1604.7619366, 
			 "HOMO_LUMO_gap": 0.1491, 
			 "cosmo_polarized_energy": -16.51, 
			 "cosmo_cavitation_energy": 29.95, 
			 "cosmo_dispersion_energy": -22.31, 
			 "cosmo_repulsion_energy": 1.73, 
			 "cosmo_total_nonelectrostatic_energy": 9.37, 
			 "SMD_solvation_energy": 6.92 
		},
		"coords": [
			{
				"x": 1.2465245358,
				"y": 3.4744295085,
				"z": 3.2260349804,
				"element": "O" 
			},
			{
				"x": 1.6405011148,
				"y": 2.7506846343,
				"z": 2.1678678696,
				"element": "C" 
			},
			{
				"x": 2.7876790342,
				"y": 2.7434903033,
				"z": 1.7611558819,
				"element": "O" 
			},
			{
				"x": 0.5553178894,
				"y": 1.9484162915,
				"z": 1.5221986281,
				"element": "C" 
			},
			{
				"x": 0.9128752983,
				"y": 1.1986396705,
				"z": 0.4443062052,
				"element": "C" 
			},
			{
				"x": -0.0284980061,
				"y": 0.3845329759,
				"z": -0.2664857885,
				"element": "C" 
			},
			{
				"x": -1.3566736426,
				"y": 0.3931031742,
				"z": 0.2024250158,
				"element": "C" 
			},
			{
				"x": -1.7223079745,
				"y": 1.1331875474,
				"z": 1.2696972454,
				"element": "O" 
			},
			{
				"x": -0.8352911554,
				"y": 1.9504733551,
				"z": 2.0059455644,
				"element": "C" 
			},
			{
				"x": -1.3048239894,
				"y": 2.5501029876,
				"z": 2.9334429387,
				"element": "O" 
			},
			{
				"x": -2.3297554881,
				"y": -0.3829942546,
				"z": -0.4492499703,
				"element": "C" 
			},
			{
				"x": -3.9727253238,
				"y": -0.3792192536,
				"z": 0.1221122477,
				"element": "Cl" 
			},
			{
				"x": -1.9780746315,
				"y": -1.1542779323,
				"z": -1.5516088149,
				"element": "C" 
			},
			{
				"x": -0.6528644875,
				"y": -1.1553479551,
				"z": -2.0099342701,
				"element": "C" 
			},
			{
				"x": -0.2385173296,
				"y": -2.1359856369,
				"z": -3.4002418463,
				"element": "Cl" 
			},
			{
				"x": 0.3219474791,
				"y": -0.3980247866,
				"z": -1.3827259815,
				"element": "C" 
			},
			{
				"x": 2.0420431691,
				"y": 3.9374986874,
				"z": 3.539839907,
				"element": "H" 
			},
			{
				"x": 1.9507514905,
				"y": 1.2291946135,
				"z": 0.1244874892,
				"element": "H" 
			},
			{
				"x": -2.7309065652,
				"y": -1.751512599,
				"z": -2.0516342382,
				"element": "H" 
			},
			{
				"x": 1.3452985824,
				"y": -0.402091331,
				"z": -1.7408330636,
				"element": "H" 
			}
		],
		 "valence_orbital": [ 
			{
				"type": "occ",
				"energy": -0.3146,
				"method": "rhf"
			},
			{
				"type": "occ",
				"energy": -0.29582,
				"method": "rhf"
			},
			{
				"type": "occ",
				"energy": -0.29405,
				"method": "rhf"
			},
			{
				"type": "occ",
				"energy": -0.27404,
				"method": "rhf"
			},
			{
				"type": "occ",
				"energy": -0.2566,
				"method": "rhf"
			},
			{
				"type": "unocc",
				"energy": -0.1075,
				"method": "rhf"
			},
			{
				"type": "unocc",
				"energy": -0.04413,
				"method": "rhf"
			},
			{
				"type": "unocc",
				"energy": -0.02511,
				"method": "rhf"
			},
			{
				"type": "unocc",
				"energy": -0.00927,
				"method": "rhf"
			},
			{
				"type": "unocc",
				"energy": -0.00397,
				"method": "rhf"
			}
		],
		"cosmo_sigma_profile": { 
			"-0.025": 0.0,
			"-0.024": 0.0,
			"-0.023": 0.0,
			"-0.022": 0.0,
			"-0.021": 0.0,
			"-0.02": 0.0,
			"-0.019": 0.561188922143,
			"-0.018": 0.764588222238,
			"-0.017": 1.02210288006,
			"-0.016": 1.11550783493,
			"-0.015": 0.769273325469,
			"-0.014": 0.475700968308,
			"-0.013": 0.569849979102,
			"-0.012": 0.577483446034,
			"-0.011": 2.16910996331,
			"-0.01": 3.56907256703,
			"-0.009": 4.74118647636,
			"-0.008": 5.80310425434,
			"-0.007": 6.68197325133,
			"-0.006": 7.49358654453,
			"-0.005": 9.27465521175,
			"-0.004": 13.8233708093,
			"-0.003": 20.5380653264,
			"-0.002": 21.7399066497,
			"-0.001": 22.0298594729,
			"0.0": 17.3767103209,
			"0.001": 13.1184528427,
			"0.002": 13.9517527833,
			"0.003": 19.9766588706,
			"0.004": 14.3743911303,
			"0.005": 3.84401494798,
			"0.006": 4.09360731297,
			"0.007": 4.9807219342,
			"0.008": 4.4593414909,
			"0.009": 4.55761098587,
			"0.01": 6.72526659944,
			"0.011": 10.1701866217,
			"0.012": 3.35844521349,
			"0.013": 1.536085816,
			"0.014": 0.572384627275,
			"0.015": 0.0,
			"0.016": 0.0,
			"0.017": 0.0,
			"0.018": 0.0,
			"0.019": 0.0,
			"0.02": 0.0,
			"0.021": 0.0,
			"0.022": 0.0,
			"0.023": 0.0,
			"0.024": 0.0,
			"0.025": 0.0
		}
	}
}
