{
	 "smiles": "O=S1(=O)CCC(C1)NC1CCNCC1", 
	 "Tm": 358.15, 
	 "num_atms": 32, 
	 "gaussian": { 
		 "optdone": 1, 
		 "sigma_profile": "yes", 
		 "theory": "DFT", 
		 "functional": "B3LYP", 
		 "basiset": "6-31G**", 
		 "properties": { 
			 "R2extent": 4685.6467, 
			 "electric_dipole_moment_norm": 4.6987661125, 
			 "electric_quadrupole_moment_norm": 21.1471104428, 
			 "total_energy": -1011.8664381, 
			 "HOMO_LUMO_gap": 0.26565, 
			 "cosmo_polarized_energy": -18.5, 
			 "cosmo_cavitation_energy": 32.61, 
			 "cosmo_dispersion_energy": -24.31, 
			 "cosmo_repulsion_energy": 1.87, 
			 "cosmo_total_nonelectrostatic_energy": 10.17, 
			 "SMD_solvation_energy": -0.16 
		},
		"coords": [
			{
				"x": -2.3528894456,
				"y": 0.5498163987,
				"z": 1.3455185421,
				"element": "O" 
			},
			{
				"x": -2.0114732342,
				"y": -0.0467285697,
				"z": 2.6540802263,
				"element": "S" 
			},
			{
				"x": -2.7731839247,
				"y": 0.3109467806,
				"z": 3.8603096891,
				"element": "O" 
			},
			{
				"x": -1.9157758754,
				"y": -1.876039002,
				"z": 2.4433349529,
				"element": "C" 
			},
			{
				"x": -0.4317430271,
				"y": -2.23710995,
				"z": 2.6115712714,
				"element": "C" 
			},
			{
				"x": 0.4243887599,
				"y": -1.0152877995,
				"z": 2.170694345,
				"element": "C" 
			},
			{
				"x": -0.2145781715,
				"y": 0.1834606449,
				"z": 2.9102638028,
				"element": "C" 
			},
			{
				"x": 0.4597100407,
				"y": -0.9015699675,
				"z": 0.7158856853,
				"element": "N" 
			},
			{
				"x": 1.7018452813,
				"y": -0.4305232555,
				"z": 0.0979185562,
				"element": "C" 
			},
			{
				"x": 1.5994430077,
				"y": -0.6325007079,
				"z": -1.429708512,
				"element": "C" 
			},
			{
				"x": 2.6649209584,
				"y": 0.1990616737,
				"z": -2.1953752969,
				"element": "C" 
			},
			{
				"x": 3.8529564223,
				"y": 0.5174511158,
				"z": -1.4020260722,
				"element": "N" 
			},
			{
				"x": 3.5163882034,
				"y": 1.3293805497,
				"z": -0.2223693758,
				"element": "C" 
			},
			{
				"x": 2.1209447444,
				"y": 1.0233767714,
				"z": 0.3951586257,
				"element": "C" 
			},
			{
				"x": -2.5770928902,
				"y": -2.3293083891,
				"z": 3.1828607467,
				"element": "H" 
			},
			{
				"x": -2.2879955443,
				"y": -2.0746266073,
				"z": 1.4366572077,
				"element": "H" 
			},
			{
				"x": -0.1689287539,
				"y": -3.1095040026,
				"z": 2.0100153096,
				"element": "H" 
			},
			{
				"x": -0.223320938,
				"y": -2.465796566,
				"z": 3.6629061521,
				"element": "H" 
			},
			{
				"x": 1.4505103628,
				"y": -1.1541776422,
				"z": 2.5268390032,
				"element": "H" 
			},
			{
				"x": -0.0345789255,
				"y": 0.1488446156,
				"z": 3.9881917928,
				"element": "H" 
			},
			{
				"x": 0.0508699469,
				"y": 1.1628018055,
				"z": 2.5122691848,
				"element": "H" 
			},
			{
				"x": -0.3363362352,
				"y": -0.3692946845,
				"z": 0.3703392792,
				"element": "H" 
			},
			{
				"x": 2.498703834,
				"y": -1.087092013,
				"z": 0.4784272081,
				"element": "H" 
			},
			{
				"x": 0.5950985029,
				"y": -0.3362039211,
				"z": -1.7610605711,
				"element": "H" 
			},
			{
				"x": 1.692965452,
				"y": -1.7010441839,
				"z": -1.6526721045,
				"element": "H" 
			},
			{
				"x": 2.9762132994,
				"y": -0.3228720253,
				"z": -3.1062659023,
				"element": "H" 
			},
			{
				"x": 2.231129363,
				"y": 1.1524783503,
				"z": -2.521744306,
				"element": "H" 
			},
			{
				"x": 4.295289423,
				"y": -0.3481208641,
				"z": -1.1042217789,
				"element": "H" 
			},
			{
				"x": 3.5623982494,
				"y": 2.3904379506,
				"z": -0.5006913692,
				"element": "H" 
			},
			{
				"x": 4.3025253889,
				"y": 1.1710312305,
				"z": 0.5239473087,
				"element": "H" 
			},
			{
				"x": 2.1497234711,
				"y": 1.2124921078,
				"z": 1.4743018428,
				"element": "H" 
			},
			{
				"x": 1.3604722541,
				"y": 1.6981201561,
				"z": -0.0208554435,
				"element": "H" 
			}
		],
		 "valence_orbital": [ 
			{
				"type": "occ",
				"energy": -0.30741,
				"method": "rhf"
			},
			{
				"type": "occ",
				"energy": -0.29482,
				"method": "rhf"
			},
			{
				"type": "occ",
				"energy": -0.27935,
				"method": "rhf"
			},
			{
				"type": "occ",
				"energy": -0.2298,
				"method": "rhf"
			},
			{
				"type": "occ",
				"energy": -0.21764,
				"method": "rhf"
			},
			{
				"type": "unocc",
				"energy": 0.04801,
				"method": "rhf"
			},
			{
				"type": "unocc",
				"energy": 0.05484,
				"method": "rhf"
			},
			{
				"type": "unocc",
				"energy": 0.06607,
				"method": "rhf"
			},
			{
				"type": "unocc",
				"energy": 0.07259,
				"method": "rhf"
			},
			{
				"type": "unocc",
				"energy": 0.07442,
				"method": "rhf"
			}
		],
		"cosmo_sigma_profile": { 
			"-0.025": 0.0,
			"-0.024": 0.0,
			"-0.023": 0.0,
			"-0.022": 0.0,
			"-0.021": 0.0,
			"-0.02": 0.0,
			"-0.019": 0.0,
			"-0.018": 0.0,
			"-0.017": 0.0,
			"-0.016": 0.0,
			"-0.015": 0.0,
			"-0.014": 0.0,
			"-0.013": 0.0,
			"-0.012": 0.0,
			"-0.011": 0.0,
			"-0.01": 0.151091477203,
			"-0.009": 1.47028761906,
			"-0.008": 5.3808680653,
			"-0.007": 9.662294006,
			"-0.006": 15.4564725171,
			"-0.005": 19.8727021963,
			"-0.004": 24.6898234328,
			"-0.003": 27.9081080584,
			"-0.002": 32.6725002018,
			"-0.001": 21.946857382,
			"0.0": 17.284430748,
			"0.001": 8.86394244874,
			"0.002": 5.79935248587,
			"0.003": 5.00096318945,
			"0.004": 4.01674373121,
			"0.005": 3.55038835447,
			"0.006": 3.39212008969,
			"0.007": 2.86552089206,
			"0.008": 3.63528284853,
			"0.009": 5.19380833325,
			"0.01": 5.03592411961,
			"0.011": 9.39910562923,
			"0.012": 11.0227884253,
			"0.013": 4.14154070614,
			"0.014": 0.949018692839,
			"0.015": 0.761665825213,
			"0.016": 0.374699421152,
			"0.017": 0.82170462889,
			"0.018": 0.395481174429,
			"0.019": 0.467789831906,
			"0.02": 0.0,
			"0.021": 0.0,
			"0.022": 0.0,
			"0.023": 0.0,
			"0.024": 0.0,
			"0.025": 0.0
		}
	}
}
