{
	 "smiles": "OC(=O)CC1=CSC(=N1)C1=CC2=C(OCCO2)C=C1", 
	 "Tm": 462.15, 
	 "num_atms": 30, 
	 "gaussian": { 
		 "optdone": 1, 
		 "sigma_profile": "yes", 
		 "theory": "DFT", 
		 "functional": "B3LYP", 
		 "basiset": "6-31G**", 
		 "properties": { 
			 "R2extent": 7683.1526, 
			 "electric_dipole_moment_norm": 8.13686045167, 
			 "electric_quadrupole_moment_norm": 25.9451400858, 
			 "total_energy": -1255.84508163, 
			 "HOMO_LUMO_gap": 0.15405, 
			 "cosmo_polarized_energy": -16.99, 
			 "cosmo_cavitation_energy": 35.86, 
			 "cosmo_dispersion_energy": -27.15, 
			 "cosmo_repulsion_energy": 2.03, 
			 "cosmo_total_nonelectrostatic_energy": 10.73, 
			 "SMD_solvation_energy": 6.85 
		},
		"coords": [
			{
				"x": -0.9162409745,
				"y": 2.4677808059,
				"z": 3.024892803,
				"element": "O" 
			},
			{
				"x": -1.486649057,
				"y": 3.6289399677,
				"z": 2.6685740516,
				"element": "C" 
			},
			{
				"x": -2.1792722791,
				"y": 4.264053823,
				"z": 3.4275013962,
				"element": "O" 
			},
			{
				"x": -1.1433937276,
				"y": 4.1506532471,
				"z": 1.2598150508,
				"element": "C" 
			},
			{
				"x": -0.9990578054,
				"y": 3.1079808045,
				"z": 0.1851465414,
				"element": "C" 
			},
			{
				"x": -1.558259778,
				"y": 3.1346095579,
				"z": -1.0604135592,
				"element": "C" 
			},
			{
				"x": -1.083424328,
				"y": 1.7316793389,
				"z": -1.9620114845,
				"element": "S" 
			},
			{
				"x": -0.1600337322,
				"y": 1.1699035107,
				"z": -0.5723031441,
				"element": "C" 
			},
			{
				"x": -0.2177378864,
				"y": 2.0003210138,
				"z": 0.4430119666,
				"element": "N" 
			},
			{
				"x": 0.5960008334,
				"y": -0.0842067857,
				"z": -0.57533408,
				"element": "C" 
			},
			{
				"x": 0.446757375,
				"y": -1.0268352681,
				"z": -1.6039340267,
				"element": "C" 
			},
			{
				"x": 1.1720621406,
				"y": -2.2132851884,
				"z": -1.5908919016,
				"element": "C" 
			},
			{
				"x": 2.055353613,
				"y": -2.4843072053,
				"z": -0.52875264,
				"element": "C" 
			},
			{
				"x": 2.7700503607,
				"y": -3.6479566946,
				"z": -0.4614913883,
				"element": "O" 
			},
			{
				"x": 2.3061405403,
				"y": -4.6729958963,
				"z": -1.3449742911,
				"element": "C" 
			},
			{
				"x": 2.0153393852,
				"y": -4.0899500638,
				"z": -2.7176554117,
				"element": "C" 
			},
			{
				"x": 0.990917803,
				"y": -3.0983561063,
				"z": -2.6233985086,
				"element": "O" 
			},
			{
				"x": 2.2176516297,
				"y": -1.54152928,
				"z": 0.4895223898,
				"element": "C" 
			},
			{
				"x": 1.5014824092,
				"y": -0.3525524792,
				"z": 0.4688463566,
				"element": "C" 
			},
			{
				"x": -0.4456639829,
				"y": 2.0786219457,
				"z": 2.2498917575,
				"element": "H" 
			},
			{
				"x": -0.191507319,
				"y": 4.6915618547,
				"z": 1.363467234,
				"element": "H" 
			},
			{
				"x": -1.9022307609,
				"y": 4.8875410432,
				"z": 0.9949548745,
				"element": "H" 
			},
			{
				"x": -2.2071289164,
				"y": 3.8836025258,
				"z": -1.4906488968,
				"element": "H" 
			},
			{
				"x": -0.2375215246,
				"y": -0.8665158754,
				"z": -2.431300145,
				"element": "H" 
			},
			{
				"x": 3.09895193,
				"y": -5.4234127357,
				"z": -1.3898836121,
				"element": "H" 
			},
			{
				"x": 1.3988590434,
				"y": -5.1333258499,
				"z": -0.9320721625,
				"element": "H" 
			},
			{
				"x": 1.6432970917,
				"y": -4.8552039827,
				"z": -3.4029865596,
				"element": "H" 
			},
			{
				"x": 2.9274508055,
				"y": -3.6450787354,
				"z": -3.1379278432,
				"element": "H" 
			},
			{
				"x": 2.9106038993,
				"y": -1.7674839163,
				"z": 1.2932494511,
				"element": "H" 
			},
			{
				"x": 1.6342032119,
				"y": 0.3776466243,
				"z": 1.2581057816,
				"element": "H" 
			}
		],
		 "valence_orbital": [ 
			{
				"type": "occ",
				"energy": -0.29101,
				"method": "rhf"
			},
			{
				"type": "occ",
				"energy": -0.27693,
				"method": "rhf"
			},
			{
				"type": "occ",
				"energy": -0.25317,
				"method": "rhf"
			},
			{
				"type": "occ",
				"energy": -0.24298,
				"method": "rhf"
			},
			{
				"type": "occ",
				"energy": -0.2182,
				"method": "rhf"
			},
			{
				"type": "unocc",
				"energy": -0.06415,
				"method": "rhf"
			},
			{
				"type": "unocc",
				"energy": -0.01303,
				"method": "rhf"
			},
			{
				"type": "unocc",
				"energy": 0.00514,
				"method": "rhf"
			},
			{
				"type": "unocc",
				"energy": 0.01074,
				"method": "rhf"
			},
			{
				"type": "unocc",
				"energy": 0.02986,
				"method": "rhf"
			}
		],
		"cosmo_sigma_profile": { 
			"-0.025": 0.0,
			"-0.024": 0.0,
			"-0.023": 0.0,
			"-0.022": 0.0,
			"-0.021": 0.0,
			"-0.02": 0.0,
			"-0.019": 0.0,
			"-0.018": 0.0,
			"-0.017": 0.0,
			"-0.016": 0.0,
			"-0.015": 0.0,
			"-0.014": 0.0,
			"-0.013": 0.0,
			"-0.012": 0.0,
			"-0.011": 0.0,
			"-0.01": 0.565225553849,
			"-0.009": 2.22792143124,
			"-0.008": 6.25798609944,
			"-0.007": 17.6944177706,
			"-0.006": 23.0179200594,
			"-0.005": 20.7714139357,
			"-0.004": 21.5864255529,
			"-0.003": 16.5858517041,
			"-0.002": 15.2478531805,
			"-0.001": 16.2140598101,
			"0.0": 20.312408849,
			"0.001": 23.6274831299,
			"0.002": 24.7999330403,
			"0.003": 20.8390961371,
			"0.004": 10.542042731,
			"0.005": 5.81465177755,
			"0.006": 5.61923809823,
			"0.007": 4.5781978933,
			"0.008": 4.64303874197,
			"0.009": 6.32261029579,
			"0.01": 5.36867463437,
			"0.011": 5.56697389475,
			"0.012": 6.76089831534,
			"0.013": 3.60805769988,
			"0.014": 0.623716070725,
			"0.015": 0.0,
			"0.016": 0.0,
			"0.017": 0.0,
			"0.018": 0.0,
			"0.019": 0.0,
			"0.02": 0.0,
			"0.021": 0.0,
			"0.022": 0.0,
			"0.023": 0.0,
			"0.024": 0.0,
			"0.025": 0.0
		}
	}
}
