{
	 "smiles": "FC1=CC(C(Br)Br)=C(C=C1)C(Br)Br", 
	 "Tm": 367.65, 
	 "num_atms": 18, 
	 "gaussian": { 
		 "optdone": 1, 
		 "sigma_profile": "yes", 
		 "theory": "DFT", 
		 "functional": "B3LYP", 
		 "basiset": "6-31G**", 
		 "properties": { 
			 "R2extent": 12138.6191, 
			 "electric_dipole_moment_norm": 1.2251276913, 
			 "electric_quadrupole_moment_norm": 3.0509319445, 
			 "total_energy": -10693.3027976, 
			 "HOMO_LUMO_gap": 0.18787, 
			 "cosmo_polarized_energy": -6.13, 
			 "cosmo_cavitation_energy": 31.22, 
			 "cosmo_dispersion_energy": -23.07, 
			 "cosmo_repulsion_energy": 1.82, 
			 "cosmo_total_nonelectrostatic_energy": 9.96, 
			 "SMD_solvation_energy": 1.16 
		},
		"coords": [
			{
				"x": -0.1748070501,
				"y": -3.2252684267,
				"z": 0.543204868,
				"element": "F" 
			},
			{
				"x": 0.2275711128,
				"y": -1.9607870018,
				"z": 0.7571035199,
				"element": "C" 
			},
			{
				"x": 1.475237989,
				"y": -1.7441394525,
				"z": 1.3237396747,
				"element": "C" 
			},
			{
				"x": 1.9135468393,
				"y": -0.4384763888,
				"z": 1.5567353239,
				"element": "C" 
			},
			{
				"x": 3.2487951207,
				"y": -0.1802431915,
				"z": 2.2047145596,
				"element": "C" 
			},
			{
				"x": 4.6521334573,
				"y": 0.1417569294,
				"z": 0.82385429,
				"element": "Br" 
			},
			{
				"x": 3.8396220241,
				"y": -1.5798949991,
				"z": 3.4445345662,
				"element": "Br" 
			},
			{
				"x": 1.08904514,
				"y": 0.6522426616,
				"z": 1.1772417763,
				"element": "C" 
			},
			{
				"x": -0.1716601187,
				"y": 0.3878648508,
				"z": 0.6290540144,
				"element": "C" 
			},
			{
				"x": -0.6165434719,
				"y": -0.9123850582,
				"z": 0.4154992891,
				"element": "C" 
			},
			{
				"x": 1.5729985087,
				"y": 2.0619591499,
				"z": 1.3712355666,
				"element": "C" 
			},
			{
				"x": 1.1990599092,
				"y": 2.7022770703,
				"z": 3.2288680134,
				"element": "Br" 
			},
			{
				"x": 0.8687276789,
				"y": 3.353517174,
				"z": 0.0717645889,
				"element": "Br" 
			},
			{
				"x": 2.0896660585,
				"y": -2.5929087964,
				"z": 1.5970812533,
				"element": "H" 
			},
			{
				"x": 3.250740392,
				"y": 0.7205607506,
				"z": 2.8079870649,
				"element": "H" 
			},
			{
				"x": -0.8082848512,
				"y": 1.2199628915,
				"z": 0.3522679002,
				"element": "H" 
			},
			{
				"x": -1.5914541106,
				"y": -1.1171661409,
				"z": -0.012142413,
				"element": "H" 
			},
			{
				"x": 2.648305372,
				"y": 2.1546279778,
				"z": 1.2705561437,
				"element": "H" 
			}
		],
		 "valence_orbital": [ 
			{
				"type": "occ",
				"energy": -0.29538,
				"method": "rhf"
			},
			{
				"type": "occ",
				"energy": -0.28831,
				"method": "rhf"
			},
			{
				"type": "occ",
				"energy": -0.286,
				"method": "rhf"
			},
			{
				"type": "occ",
				"energy": -0.27579,
				"method": "rhf"
			},
			{
				"type": "occ",
				"energy": -0.26248,
				"method": "rhf"
			},
			{
				"type": "unocc",
				"energy": -0.07461,
				"method": "rhf"
			},
			{
				"type": "unocc",
				"energy": -0.05151,
				"method": "rhf"
			},
			{
				"type": "unocc",
				"energy": -0.04852,
				"method": "rhf"
			},
			{
				"type": "unocc",
				"energy": -0.03851,
				"method": "rhf"
			},
			{
				"type": "unocc",
				"energy": 0.01432,
				"method": "rhf"
			}
		],
		"cosmo_sigma_profile": { 
			"-0.025": 0.0,
			"-0.024": 0.0,
			"-0.023": 0.0,
			"-0.022": 0.0,
			"-0.021": 0.0,
			"-0.02": 0.0,
			"-0.019": 0.0,
			"-0.018": 0.0,
			"-0.017": 0.0,
			"-0.016": 0.0,
			"-0.015": 0.0,
			"-0.014": 0.0,
			"-0.013": 0.213754561992,
			"-0.012": 0.330505842888,
			"-0.011": 0.60057126909,
			"-0.01": 1.14636859418,
			"-0.009": 2.31862001547,
			"-0.008": 4.05962255253,
			"-0.007": 6.27742426363,
			"-0.006": 7.53111966959,
			"-0.005": 10.1706961652,
			"-0.004": 13.581423897,
			"-0.003": 15.2565297757,
			"-0.002": 16.581322581,
			"-0.001": 22.3879716928,
			"0.0": 27.2117374043,
			"0.001": 30.7895053773,
			"0.002": 27.8799237509,
			"0.003": 31.2434787622,
			"0.004": 40.5407854816,
			"0.005": 5.62705877273,
			"0.006": 0.0,
			"0.007": 0.0,
			"0.008": 0.0,
			"0.009": 0.0,
			"0.01": 0.0,
			"0.011": 0.0,
			"0.012": 0.0,
			"0.013": 0.0,
			"0.014": 0.0,
			"0.015": 0.0,
			"0.016": 0.0,
			"0.017": 0.0,
			"0.018": 0.0,
			"0.019": 0.0,
			"0.02": 0.0,
			"0.021": 0.0,
			"0.022": 0.0,
			"0.023": 0.0,
			"0.024": 0.0,
			"0.025": 0.0
		}
	}
}
