{
	 "smiles": "OC(=O)C1CCCO1", 
	 "Tm": 294.15, 
	 "num_atms": 16, 
	 "gaussian": { 
		 "optdone": 1, 
		 "sigma_profile": "yes", 
		 "theory": "DFT", 
		 "functional": "B3LYP", 
		 "basiset": "6-31G**", 
		 "properties": { 
			 "R2extent": 1096.263, 
			 "electric_dipole_moment_norm": 4.5386226479, 
			 "electric_quadrupole_moment_norm": 6.29911513945, 
			 "total_energy": -421.013717185, 
			 "HOMO_LUMO_gap": 0.26142, 
			 "cosmo_polarized_energy": -16.35, 
			 "cosmo_cavitation_energy": 18.97, 
			 "cosmo_dispersion_energy": -14.35, 
			 "cosmo_repulsion_energy": 1.21, 
			 "cosmo_total_nonelectrostatic_energy": 5.84, 
			 "SMD_solvation_energy": 4.15 
		},
		"coords": [
			{
				"x": -1.2603676531,
				"y": -1.4624308799,
				"z": -0.4155075251,
				"element": "O" 
			},
			{
				"x": -0.9525251277,
				"y": -0.2709626905,
				"z": 0.1700125512,
				"element": "C" 
			},
			{
				"x": -0.8632713797,
				"y": -0.1812141845,
				"z": 1.3660269862,
				"element": "O" 
			},
			{
				"x": -0.6672318709,
				"y": 0.8735277026,
				"z": -0.8125936421,
				"element": "C" 
			},
			{
				"x": 0.8034680174,
				"y": 0.7657058239,
				"z": -1.3441745233,
				"element": "C" 
			},
			{
				"x": 1.423197037,
				"y": 2.1158678786,
				"z": -0.9252332245,
				"element": "C" 
			},
			{
				"x": 0.5141644125,
				"y": 2.548614062,
				"z": 0.2285755398,
				"element": "C" 
			},
			{
				"x": -0.7912695928,
				"y": 2.1284441009,
				"z": -0.1802030666,
				"element": "O" 
			},
			{
				"x": -1.3340245081,
				"y": -1.3572891694,
				"z": -1.3751613459,
				"element": "H" 
			},
			{
				"x": -1.4019202351,
				"y": 0.843857434,
				"z": -1.6291228741,
				"element": "H" 
			},
			{
				"x": 1.3297815406,
				"y": -0.0698868303,
				"z": -0.8728128369,
				"element": "H" 
			},
			{
				"x": 0.8342136435,
				"y": 0.6078793777,
				"z": -2.4251658579,
				"element": "H" 
			},
			{
				"x": 2.4729708364,
				"y": 2.0242413136,
				"z": -0.6337536769,
				"element": "H" 
			},
			{
				"x": 1.3554945046,
				"y": 2.838458119,
				"z": -1.74418675,
				"element": "H" 
			},
			{
				"x": 0.4764405952,
				"y": 3.6293200245,
				"z": 0.3861191823,
				"element": "H" 
			},
			{
				"x": 0.7933797803,
				"y": 2.0577679178,
				"z": 1.1700810638,
				"element": "H" 
			}
		],
		 "valence_orbital": [ 
			{
				"type": "occ",
				"energy": -0.35003,
				"method": "rhf"
			},
			{
				"type": "occ",
				"energy": -0.32796,
				"method": "rhf"
			},
			{
				"type": "occ",
				"energy": -0.31737,
				"method": "rhf"
			},
			{
				"type": "occ",
				"energy": -0.2851,
				"method": "rhf"
			},
			{
				"type": "occ",
				"energy": -0.25368,
				"method": "rhf"
			},
			{
				"type": "unocc",
				"energy": 0.00774,
				"method": "rhf"
			},
			{
				"type": "unocc",
				"energy": 0.04917,
				"method": "rhf"
			},
			{
				"type": "unocc",
				"energy": 0.07512,
				"method": "rhf"
			},
			{
				"type": "unocc",
				"energy": 0.09919,
				"method": "rhf"
			},
			{
				"type": "unocc",
				"energy": 0.12814,
				"method": "rhf"
			}
		],
		"cosmo_sigma_profile": { 
			"-0.025": 0.0,
			"-0.024": 0.0,
			"-0.023": 0.0,
			"-0.022": 0.0,
			"-0.021": 0.0,
			"-0.02": 0.117881049674,
			"-0.019": 0.860001604156,
			"-0.018": 1.0448118973,
			"-0.017": 1.10049825233,
			"-0.016": 0.999700941124,
			"-0.015": 1.32448458318,
			"-0.014": 1.05478233163,
			"-0.013": 0.755166636449,
			"-0.012": 1.24104839944,
			"-0.011": 1.16273792852,
			"-0.01": 1.27566824086,
			"-0.009": 1.35826130282,
			"-0.008": 1.60419869883,
			"-0.007": 2.93278939758,
			"-0.006": 3.0149450362,
			"-0.005": 10.474075198,
			"-0.004": 15.1264072736,
			"-0.003": 19.3412874998,
			"-0.002": 14.3378109527,
			"-0.001": 9.33508788818,
			"0.0": 6.65060259364,
			"0.001": 3.37567249333,
			"0.002": 2.91456080456,
			"0.003": 2.33553931087,
			"0.004": 2.86289116093,
			"0.005": 2.75763188266,
			"0.006": 3.3167511269,
			"0.007": 3.09273410307,
			"0.008": 4.17040166658,
			"0.009": 4.29446066924,
			"0.01": 6.51962712478,
			"0.011": 6.49209376804,
			"0.012": 7.72692633916,
			"0.013": 3.36644811328,
			"0.014": 0.00249262459492,
			"0.015": 0.0,
			"0.016": 0.0,
			"0.017": 0.0,
			"0.018": 0.0,
			"0.019": 0.0,
			"0.02": 0.0,
			"0.021": 0.0,
			"0.022": 0.0,
			"0.023": 0.0,
			"0.024": 0.0,
			"0.025": 0.0
		}
	}
}
