{
	 "smiles": "OC(=O)CC1=CSC(=N1)C1=C(Cl)C=CC=C1Cl", 
	 "Tm": 416.15, 
	 "num_atms": 24, 
	 "gaussian": { 
		 "optdone": 1, 
		 "sigma_profile": "yes", 
		 "theory": "DFT", 
		 "functional": "B3LYP", 
		 "basiset": "6-31G**", 
		 "properties": { 
			 "R2extent": 6469.8618, 
			 "electric_dipole_moment_norm": 6.76611987183, 
			 "electric_quadrupole_moment_norm": 24.8377482391, 
			 "total_energy": -1947.16405968, 
			 "HOMO_LUMO_gap": 0.19406, 
			 "cosmo_polarized_energy": -15.14, 
			 "cosmo_cavitation_energy": 34.63, 
			 "cosmo_dispersion_energy": -24.51, 
			 "cosmo_repulsion_energy": 1.88, 
			 "cosmo_total_nonelectrostatic_energy": 12.0, 
			 "SMD_solvation_energy": 5.28 
		},
		"coords": [
			{
				"x": -2.3656537146,
				"y": -1.5405068118,
				"z": -2.2145945335,
				"element": "O" 
			},
			{
				"x": -2.8916247942,
				"y": -2.7593234497,
				"z": -2.0194364383,
				"element": "C" 
			},
			{
				"x": -3.2301605789,
				"y": -3.4666713277,
				"z": -2.9378229203,
				"element": "O" 
			},
			{
				"x": -3.119255812,
				"y": -3.1793182266,
				"z": -0.5539369935,
				"element": "C" 
			},
			{
				"x": -2.065414776,
				"y": -2.7513270313,
				"z": 0.4299725523,
				"element": "C" 
			},
			{
				"x": -1.4764656118,
				"y": -3.5221158684,
				"z": 1.3933134554,
				"element": "C" 
			},
			{
				"x": -0.3480449093,
				"y": -2.5837045677,
				"z": 2.3096777708,
				"element": "S" 
			},
			{
				"x": -0.7356753077,
				"y": -1.195054118,
				"z": 1.320127214,
				"element": "C" 
			},
			{
				"x": -1.6338050684,
				"y": -1.438955587,
				"z": 0.4043908226,
				"element": "N" 
			},
			{
				"x": -0.0816506709,
				"y": 0.1209825492,
				"z": 1.5183347522,
				"element": "C" 
			},
			{
				"x": -0.6094743947,
				"y": 1.0793171595,
				"z": 2.4021821605,
				"element": "C" 
			},
			{
				"x": -2.06723357,
				"y": 0.7211134811,
				"z": 3.3065932046,
				"element": "Cl" 
			},
			{
				"x": -0.0087253192,
				"y": 2.3235398039,
				"z": 2.584054399,
				"element": "C" 
			},
			{
				"x": 1.1484563101,
				"y": 2.6312058962,
				"z": 1.871777572,
				"element": "C" 
			},
			{
				"x": 1.7027637707,
				"y": 1.7098546221,
				"z": 0.9859746971,
				"element": "C" 
			},
			{
				"x": 1.0874964743,
				"y": 0.4705902668,
				"z": 0.8182666525,
				"element": "C" 
			},
			{
				"x": 1.8033202905,
				"y": -0.6682329071,
				"z": -0.3031104263,
				"element": "Cl" 
			},
			{
				"x": -2.0968929184,
				"y": -1.1470960503,
				"z": -1.3524202141,
				"element": "H" 
			},
			{
				"x": -4.0825078674,
				"y": -2.7377297589,
				"z": -0.2599858528,
				"element": "H" 
			},
			{
				"x": -3.2483288091,
				"y": -4.2620130665,
				"z": -0.5460087568,
				"element": "H" 
			},
			{
				"x": -1.6434685637,
				"y": -4.5676946264,
				"z": 1.6096570508,
				"element": "H" 
			},
			{
				"x": -0.4484309202,
				"y": 3.0354667604,
				"z": 3.2726175385,
				"element": "H" 
			},
			{
				"x": 1.6216813626,
				"y": 3.5986424701,
				"z": 2.0071129486,
				"element": "H" 
			},
			{
				"x": 2.6007953984,
				"y": 1.9420303883,
				"z": 0.4256633448,
				"element": "H" 
			}
		],
		 "valence_orbital": [ 
			{
				"type": "occ",
				"energy": -0.29461,
				"method": "rhf"
			},
			{
				"type": "occ",
				"energy": -0.28273,
				"method": "rhf"
			},
			{
				"type": "occ",
				"energy": -0.27333,
				"method": "rhf"
			},
			{
				"type": "occ",
				"energy": -0.2675,
				"method": "rhf"
			},
			{
				"type": "occ",
				"energy": -0.24723,
				"method": "rhf"
			},
			{
				"type": "unocc",
				"energy": -0.05317,
				"method": "rhf"
			},
			{
				"type": "unocc",
				"energy": -0.05094,
				"method": "rhf"
			},
			{
				"type": "unocc",
				"energy": -0.04118,
				"method": "rhf"
			},
			{
				"type": "unocc",
				"energy": -0.00876,
				"method": "rhf"
			},
			{
				"type": "unocc",
				"energy": -0.00094,
				"method": "rhf"
			}
		],
		"cosmo_sigma_profile": { 
			"-0.025": 0.0,
			"-0.024": 0.0,
			"-0.023": 0.0,
			"-0.022": 0.0,
			"-0.021": 0.0,
			"-0.02": 0.0,
			"-0.019": 0.0,
			"-0.018": 0.0,
			"-0.017": 0.0,
			"-0.016": 0.0,
			"-0.015": 0.0,
			"-0.014": 0.0,
			"-0.013": 0.0,
			"-0.012": 0.0,
			"-0.011": 0.0234925412612,
			"-0.01": 1.35238700685,
			"-0.009": 3.26031738037,
			"-0.008": 11.3347600437,
			"-0.007": 14.3032699606,
			"-0.006": 12.6170585913,
			"-0.005": 11.4172790762,
			"-0.004": 16.0449180298,
			"-0.003": 15.3112017492,
			"-0.002": 17.0523940734,
			"-0.001": 20.3492399274,
			"0.0": 32.0862807874,
			"0.001": 33.0997591754,
			"0.002": 28.3665416505,
			"0.003": 22.0107487326,
			"0.004": 12.8880972137,
			"0.005": 3.67016726475,
			"0.006": 3.11922222403,
			"0.007": 2.32453678799,
			"0.008": 2.20640747597,
			"0.009": 2.8222847636,
			"0.01": 3.9413851749,
			"0.011": 5.86994497553,
			"0.012": 6.03563233484,
			"0.013": 3.47545745632,
			"0.014": 0.430575693384,
			"0.015": 0.0,
			"0.016": 0.0,
			"0.017": 0.0,
			"0.018": 0.0,
			"0.019": 0.0,
			"0.02": 0.0,
			"0.021": 0.0,
			"0.022": 0.0,
			"0.023": 0.0,
			"0.024": 0.0,
			"0.025": 0.0
		}
	}
}
