{
	 "smiles": "CC(CCC(O)=O)N1N=C2C=CC=CC2=N1", 
	 "Tm": 346.15, 
	 "num_atms": 29, 
	 "gaussian": { 
		 "optdone": 1, 
		 "sigma_profile": "yes", 
		 "theory": "DFT", 
		 "functional": "B3LYP", 
		 "basiset": "6-31G**", 
		 "properties": { 
			 "R2extent": 3699.5198, 
			 "electric_dipole_moment_norm": 1.75672220342, 
			 "electric_quadrupole_moment_norm": 18.4544389462, 
			 "total_energy": -741.700658391, 
			 "HOMO_LUMO_gap": 0.18043, 
			 "cosmo_polarized_energy": -14.69, 
			 "cosmo_cavitation_energy": 32.28, 
			 "cosmo_dispersion_energy": -22.41, 
			 "cosmo_repulsion_energy": 1.75, 
			 "cosmo_total_nonelectrostatic_energy": 11.62, 
			 "SMD_solvation_energy": 4.56 
		},
		"coords": [
			{
				"x": -3.3352217839,
				"y": 0.3796755611,
				"z": -1.8850728381,
				"element": "C" 
			},
			{
				"x": -2.0104750699,
				"y": 1.1226695973,
				"z": -2.0622350124,
				"element": "C" 
			},
			{
				"x": -1.2241055966,
				"y": 0.7369154481,
				"z": -3.3353127886,
				"element": "C" 
			},
			{
				"x": -0.8475837433,
				"y": -0.7430307582,
				"z": -3.5125797285,
				"element": "C" 
			},
			{
				"x": 0.3075425901,
				"y": -1.2797588293,
				"z": -2.6870663496,
				"element": "C" 
			},
			{
				"x": 1.2376580124,
				"y": -0.3317881138,
				"z": -2.4130635045,
				"element": "O" 
			},
			{
				"x": 0.4413024634,
				"y": -2.4375373532,
				"z": -2.3628508589,
				"element": "O" 
			},
			{
				"x": -1.1765341167,
				"y": 0.9814219102,
				"z": -0.8563826494,
				"element": "N" 
			},
			{
				"x": -1.0741531622,
				"y": -0.1737359459,
				"z": -0.2090562908,
				"element": "N" 
			},
			{
				"x": -0.1621095954,
				"y": 0.1009901457,
				"z": 0.7534769081,
				"element": "C" 
			},
			{
				"x": 0.3760546707,
				"y": -0.7193682253,
				"z": 1.771477779,
				"element": "C" 
			},
			{
				"x": 1.3009986732,
				"y": -0.1411956385,
				"z": 2.6145816476,
				"element": "C" 
			},
			{
				"x": 1.7005492371,
				"y": 1.2223343818,
				"z": 2.4765917492,
				"element": "C" 
			},
			{
				"x": 1.1860805091,
				"y": 2.0373342891,
				"z": 1.4909439207,
				"element": "C" 
			},
			{
				"x": 0.2398424436,
				"y": 1.4616273696,
				"z": 0.6120709871,
				"element": "C" 
			},
			{
				"x": -0.4311544032,
				"y": 1.9963905141,
				"z": -0.4353216631,
				"element": "N" 
			},
			{
				"x": -3.17898137,
				"y": -0.68766915,
				"z": -1.7207432351,
				"element": "H" 
			},
			{
				"x": -3.9502403526,
				"y": 0.515653795,
				"z": -2.7797277781,
				"element": "H" 
			},
			{
				"x": -3.8849216617,
				"y": 0.7741056548,
				"z": -1.0263981846,
				"element": "H" 
			},
			{
				"x": -2.199393845,
				"y": 2.197830418,
				"z": -2.1193246293,
				"element": "H" 
			},
			{
				"x": -0.3212655315,
				"y": 1.3520230254,
				"z": -3.3817631628,
				"element": "H" 
			},
			{
				"x": -1.8538297838,
				"y": 1.0322255362,
				"z": -4.183034372,
				"element": "H" 
			},
			{
				"x": -0.5474781555,
				"y": -0.8928734259,
				"z": -4.5585674128,
				"element": "H" 
			},
			{
				"x": -1.6925710381,
				"y": -1.4138550718,
				"z": -3.3428587661,
				"element": "H" 
			},
			{
				"x": 1.9322212919,
				"y": -0.7777735525,
				"z": -1.9002252251,
				"element": "H" 
			},
			{
				"x": 0.0703360394,
				"y": -1.7551840993,
				"z": 1.8725784227,
				"element": "H" 
			},
			{
				"x": 1.7428995306,
				"y": -0.7335423346,
				"z": 3.4104786812,
				"element": "H" 
			},
			{
				"x": 2.4322208692,
				"y": 1.6216480572,
				"z": 3.1729201243,
				"element": "H" 
			},
			{
				"x": 1.4884128787,
				"y": 3.073666795,
				"z": 1.3840642298,
				"element": "H" 
			}
		],
		 "valence_orbital": [ 
			{
				"type": "occ",
				"energy": -0.30688,
				"method": "rhf"
			},
			{
				"type": "occ",
				"energy": -0.29302,
				"method": "rhf"
			},
			{
				"type": "occ",
				"energy": -0.2673,
				"method": "rhf"
			},
			{
				"type": "occ",
				"energy": -0.24814,
				"method": "rhf"
			},
			{
				"type": "occ",
				"energy": -0.22624,
				"method": "rhf"
			},
			{
				"type": "unocc",
				"energy": -0.04581,
				"method": "rhf"
			},
			{
				"type": "unocc",
				"energy": 0.01322,
				"method": "rhf"
			},
			{
				"type": "unocc",
				"energy": 0.02575,
				"method": "rhf"
			},
			{
				"type": "unocc",
				"energy": 0.03469,
				"method": "rhf"
			},
			{
				"type": "unocc",
				"energy": 0.07181,
				"method": "rhf"
			}
		],
		"cosmo_sigma_profile": { 
			"-0.025": 0.0,
			"-0.024": 0.0,
			"-0.023": 0.0,
			"-0.022": 0.0,
			"-0.021": 0.0,
			"-0.02": 0.0,
			"-0.019": 0.0,
			"-0.018": 0.389805769776,
			"-0.017": 0.697530191541,
			"-0.016": 0.913652203922,
			"-0.015": 0.447657864761,
			"-0.014": 0.533292571299,
			"-0.013": 0.562759519395,
			"-0.012": 0.360803872957,
			"-0.011": 0.957552512809,
			"-0.01": 0.99296876099,
			"-0.009": 0.58814735337,
			"-0.008": 0.65391017549,
			"-0.007": 5.8062072891,
			"-0.006": 15.5446447769,
			"-0.005": 23.2544163119,
			"-0.004": 26.2028954878,
			"-0.003": 21.367246636,
			"-0.002": 18.8646300487,
			"-0.001": 17.0168708636,
			"0.0": 14.2750192727,
			"0.001": 11.2830588322,
			"0.002": 15.5159051627,
			"0.003": 15.4435183441,
			"0.004": 15.5593569962,
			"0.005": 9.08757244356,
			"0.006": 5.46855337281,
			"0.007": 5.64585423355,
			"0.008": 4.08701533902,
			"0.009": 5.0189862663,
			"0.01": 3.89333438932,
			"0.011": 4.4929781615,
			"0.012": 6.92623094977,
			"0.013": 2.99479460914,
			"0.014": 0.453182018266,
			"0.015": 0.00232357153539,
			"0.016": 0.0,
			"0.017": 0.0,
			"0.018": 0.0,
			"0.019": 0.0,
			"0.02": 0.0,
			"0.021": 0.0,
			"0.022": 0.0,
			"0.023": 0.0,
			"0.024": 0.0,
			"0.025": 0.0
		}
	}
}
