{
	 "smiles": "O=C1C2=CC=CC=C2C(=C1C1=CC=CC=C1)C1=CC=CC=C1", 
	 "Tm": 426.15, 
	 "num_atms": 36, 
	 "gaussian": { 
		 "optdone": 1, 
		 "sigma_profile": "yes", 
		 "theory": "DFT", 
		 "functional": "B3LYP", 
		 "basiset": "6-31G**", 
		 "properties": { 
			 "R2extent": 6674.7174, 
			 "electric_dipole_moment_norm": 3.51374512166, 
			 "electric_quadrupole_moment_norm": 12.2738241298, 
			 "total_energy": -883.893918068, 
			 "HOMO_LUMO_gap": 0.11805, 
			 "cosmo_polarized_energy": -10.23, 
			 "cosmo_cavitation_energy": 39.94, 
			 "cosmo_dispersion_energy": -27.83, 
			 "cosmo_repulsion_energy": 2.1, 
			 "cosmo_total_nonelectrostatic_energy": 14.22, 
			 "SMD_solvation_energy": 6.67 
		},
		"coords": [
			{
				"x": 1.1771075907,
				"y": 0.1388300971,
				"z": -2.7836294866,
				"element": "O" 
			},
			{
				"x": 1.1791735135,
				"y": 0.2765360669,
				"z": -1.5727726605,
				"element": "C" 
			},
			{
				"x": 2.3819511203,
				"y": 0.372261635,
				"z": -0.6904646029,
				"element": "C" 
			},
			{
				"x": 3.725777316,
				"y": 0.3461850704,
				"z": -1.0117381503,
				"element": "C" 
			},
			{
				"x": 4.6574322071,
				"y": 0.4960530075,
				"z": 0.0310416896,
				"element": "C" 
			},
			{
				"x": 4.2178886889,
				"y": 0.680065706,
				"z": 1.3410756341,
				"element": "C" 
			},
			{
				"x": 2.8459180098,
				"y": 0.7144665653,
				"z": 1.656148968,
				"element": "C" 
			},
			{
				"x": 1.9290185226,
				"y": 0.5451021283,
				"z": 0.6271903194,
				"element": "C" 
			},
			{
				"x": 0.4334143448,
				"y": 0.5554973826,
				"z": 0.6207911011,
				"element": "C" 
			},
			{
				"x": -0.023271439,
				"y": 0.3891988835,
				"z": -0.6588096781,
				"element": "C" 
			},
			{
				"x": -1.3988416389,
				"y": 0.2506490003,
				"z": -1.1610056926,
				"element": "C" 
			},
			{
				"x": -2.3802669575,
				"y": -0.4427709931,
				"z": -0.426668682,
				"element": "C" 
			},
			{
				"x": -3.674833474,
				"y": -0.5817611012,
				"z": -0.9198732689,
				"element": "C" 
			},
			{
				"x": -4.0188423863,
				"y": -0.0354174324,
				"z": -2.1590970359,
				"element": "C" 
			},
			{
				"x": -3.0528362769,
				"y": 0.6428850062,
				"z": -2.9037576529,
				"element": "C" 
			},
			{
				"x": -1.7542581647,
				"y": 0.7815777724,
				"z": -2.4156742339,
				"element": "C" 
			},
			{
				"x": -0.3530743478,
				"y": 0.7810681072,
				"z": 1.8500875763,
				"element": "C" 
			},
			{
				"x": -1.3555218048,
				"y": 1.7664853792,
				"z": 1.890345644,
				"element": "C" 
			},
			{
				"x": -2.0782367591,
				"y": 1.9961451264,
				"z": 3.058685127,
				"element": "C" 
			},
			{
				"x": -1.8208670731,
				"y": 1.2417592641,
				"z": 4.2064153294,
				"element": "C" 
			},
			{
				"x": -0.8311401968,
				"y": 0.2580281782,
				"z": 4.1789468912,
				"element": "C" 
			},
			{
				"x": -0.097052623,
				"y": 0.0342254625,
				"z": 3.0139208902,
				"element": "C" 
			},
			{
				"x": 4.0411059534,
				"y": 0.2172830389,
				"z": -2.0429876255,
				"element": "H" 
			},
			{
				"x": 5.7214501224,
				"y": 0.4754019111,
				"z": -0.1843531636,
				"element": "H" 
			},
			{
				"x": 4.9465263551,
				"y": 0.8046380143,
				"z": 2.1372181497,
				"element": "H" 
			},
			{
				"x": 2.5242794606,
				"y": 0.8765937463,
				"z": 2.6796664204,
				"element": "H" 
			},
			{
				"x": -2.1184623871,
				"y": -0.8846169694,
				"z": 0.5287147595,
				"element": "H" 
			},
			{
				"x": -4.4151616033,
				"y": -1.1245980537,
				"z": -0.338876852,
				"element": "H" 
			},
			{
				"x": -5.0290645845,
				"y": -0.1448328595,
				"z": -2.5432184717,
				"element": "H" 
			},
			{
				"x": -3.3083868582,
				"y": 1.0643828035,
				"z": -3.8718569137,
				"element": "H" 
			},
			{
				"x": -1.0056188412,
				"y": 1.2947552368,
				"z": -3.0069346469,
				"element": "H" 
			},
			{
				"x": -1.5569396394,
				"y": 2.353667717,
				"z": 1.0004109493,
				"element": "H" 
			},
			{
				"x": -2.8437233523,
				"y": 2.766582448,
				"z": 3.0739447386,
				"element": "H" 
			},
			{
				"x": -2.3874354017,
				"y": 1.4207418646,
				"z": 5.1155907346,
				"element": "H" 
			},
			{
				"x": -0.6283666209,
				"y": -0.3366920061,
				"z": 5.0650151276,
				"element": "H" 
			},
			{
				"x": 0.6646592252,
				"y": -0.7393772043,
				"z": 2.9958087676,
				"element": "H" 
			}
		],
		 "valence_orbital": [ 
			{
				"type": "occ",
				"energy": -0.25976,
				"method": "rhf"
			},
			{
				"type": "occ",
				"energy": -0.25759,
				"method": "rhf"
			},
			{
				"type": "occ",
				"energy": -0.24766,
				"method": "rhf"
			},
			{
				"type": "occ",
				"energy": -0.24258,
				"method": "rhf"
			},
			{
				"type": "occ",
				"energy": -0.20938,
				"method": "rhf"
			},
			{
				"type": "unocc",
				"energy": -0.09133,
				"method": "rhf"
			},
			{
				"type": "unocc",
				"energy": -0.02896,
				"method": "rhf"
			},
			{
				"type": "unocc",
				"energy": -0.01339,
				"method": "rhf"
			},
			{
				"type": "unocc",
				"energy": -0.01188,
				"method": "rhf"
			},
			{
				"type": "unocc",
				"energy": 0.00663,
				"method": "rhf"
			}
		],
		"cosmo_sigma_profile": { 
			"-0.025": 0.0,
			"-0.024": 0.0,
			"-0.023": 0.0,
			"-0.022": 0.0,
			"-0.021": 0.0,
			"-0.02": 0.0,
			"-0.019": 0.0,
			"-0.018": 0.0,
			"-0.017": 0.0,
			"-0.016": 0.0,
			"-0.015": 0.0,
			"-0.014": 0.0,
			"-0.013": 0.0,
			"-0.012": 0.0,
			"-0.011": 0.0,
			"-0.01": 0.0,
			"-0.009": 0.0,
			"-0.008": 0.0,
			"-0.007": 2.10910473544,
			"-0.006": 17.6428196793,
			"-0.005": 26.7286982837,
			"-0.004": 31.6049002218,
			"-0.003": 26.4760278131,
			"-0.002": 24.0936734373,
			"-0.001": 25.3036371117,
			"0.0": 25.3012119662,
			"0.001": 25.8801154842,
			"0.002": 23.7709456307,
			"0.003": 27.4158495576,
			"0.004": 26.3504725687,
			"0.005": 17.1355412072,
			"0.006": 6.8763225085,
			"0.007": 2.40671181442,
			"0.008": 1.97502402518,
			"0.009": 2.6184237899,
			"0.01": 2.38202869693,
			"0.011": 4.14399688743,
			"0.012": 1.69550506738,
			"0.013": 0.0129086631775,
			"0.014": 0.0,
			"0.015": 0.0,
			"0.016": 0.0,
			"0.017": 0.0,
			"0.018": 0.0,
			"0.019": 0.0,
			"0.02": 0.0,
			"0.021": 0.0,
			"0.022": 0.0,
			"0.023": 0.0,
			"0.024": 0.0,
			"0.025": 0.0
		}
	}
}
