{
	 "smiles": "OC(=O)C(CSSCC(NC(=O)OCC1=CC=CC=C1)C(O)=O)NC(=O)OCC1=CC=CC=C1", 
	 "Tm": 357.15, 
	 "num_atms": 58, 
	 "gaussian": { 
		 "optdone": 1, 
		 "sigma_profile": "yes", 
		 "theory": "DFT", 
		 "functional": "B3LYP", 
		 "basiset": "6-31G**", 
		 "properties": { 
			 "R2extent": 25817.9197, 
			 "electric_dipole_moment_norm": 5.53412632129, 
			 "electric_quadrupole_moment_norm": 23.1276169743, 
			 "total_energy": -2360.54565018, 
			 "HOMO_LUMO_gap": 0.2051, 
			 "cosmo_polarized_energy": -32.48, 
			 "cosmo_cavitation_energy": 67.34, 
			 "cosmo_dispersion_energy": -42.57, 
			 "cosmo_repulsion_energy": 3.17, 
			 "cosmo_total_nonelectrostatic_energy": 27.94, 
			 "SMD_solvation_energy": 13.4 
		},
		"coords": [
			{
				"x": -2.7529810783,
				"y": 0.6280373768,
				"z": -1.4106098143,
				"element": "O" 
			},
			{
				"x": -1.6865558135,
				"y": 0.5658710504,
				"z": -0.591758628,
				"element": "C" 
			},
			{
				"x": -1.5838564825,
				"y": 1.243256694,
				"z": 0.4099238353,
				"element": "O" 
			},
			{
				"x": -0.6391946041,
				"y": -0.4591313551,
				"z": -1.0337258752,
				"element": "C" 
			},
			{
				"x": 0.7790266698,
				"y": 0.1274486576,
				"z": -0.9369724761,
				"element": "C" 
			},
			{
				"x": 1.0910245199,
				"y": 1.4167404451,
				"z": -2.2388610317,
				"element": "S" 
			},
			{
				"x": 1.8589832442,
				"y": 3.0354342085,
				"z": -1.1798619002,
				"element": "S" 
			},
			{
				"x": 0.3277249065,
				"y": 3.9430174676,
				"z": -0.6759839963,
				"element": "C" 
			},
			{
				"x": 0.724424712,
				"y": 5.3467939996,
				"z": -0.1821082397,
				"element": "C" 
			},
			{
				"x": 1.7764521204,
				"y": 5.3520098565,
				"z": 0.8188269857,
				"element": "N" 
			},
			{
				"x": 1.6556891736,
				"y": 4.8952917573,
				"z": 2.1155580594,
				"element": "C" 
			},
			{
				"x": 2.4503447456,
				"y": 5.1660135166,
				"z": 2.9948385087,
				"element": "O" 
			},
			{
				"x": 0.574278721,
				"y": 4.0952411112,
				"z": 2.2539747422,
				"element": "O" 
			},
			{
				"x": 0.3953495334,
				"y": 3.4864229725,
				"z": 3.5622958287,
				"element": "C" 
			},
			{
				"x": 1.1463405595,
				"y": 2.1839808075,
				"z": 3.6893741475,
				"element": "C" 
			},
			{
				"x": 0.5869697532,
				"y": 0.9963295289,
				"z": 3.1973540202,
				"element": "C" 
			},
			{
				"x": 1.2783836865,
				"y": -0.2104205165,
				"z": 3.314638248,
				"element": "C" 
			},
			{
				"x": 2.5347842924,
				"y": -0.2415716946,
				"z": 3.9248539355,
				"element": "C" 
			},
			{
				"x": 3.0995918851,
				"y": 0.9387773081,
				"z": 4.4113848449,
				"element": "C" 
			},
			{
				"x": 2.4098322507,
				"y": 2.1463743972,
				"z": 4.2928696408,
				"element": "C" 
			},
			{
				"x": -0.499519706,
				"y": 6.1595521437,
				"z": 0.2756679207,
				"element": "C" 
			},
			{
				"x": -1.5259760219,
				"y": 6.0441935763,
				"z": -0.5993797459,
				"element": "O" 
			},
			{
				"x": -0.5446562358,
				"y": 6.8567121548,
				"z": 1.2597465305,
				"element": "O" 
			},
			{
				"x": -0.9150465755,
				"y": -1.0556508616,
				"z": -2.3216818645,
				"element": "N" 
			},
			{
				"x": -1.2971357161,
				"y": -2.3673100157,
				"z": -2.4193707616,
				"element": "C" 
			},
			{
				"x": -1.2757694374,
				"y": -3.1680935587,
				"z": -1.4980846366,
				"element": "O" 
			},
			{
				"x": -1.6677090153,
				"y": -2.6419350901,
				"z": -3.691360634,
				"element": "O" 
			},
			{
				"x": -2.0954053733,
				"y": -4.006485334,
				"z": -3.9541156118,
				"element": "C" 
			},
			{
				"x": -3.5886940328,
				"y": -4.1666340731,
				"z": -3.8096967336,
				"element": "C" 
			},
			{
				"x": -4.4243476982,
				"y": -4.0546505417,
				"z": -4.9275314926,
				"element": "C" 
			},
			{
				"x": -5.8069245717,
				"y": -4.1946746486,
				"z": -4.7988548353,
				"element": "C" 
			},
			{
				"x": -6.3676156807,
				"y": -4.447745426,
				"z": -3.5457469032,
				"element": "C" 
			},
			{
				"x": -5.5416469997,
				"y": -4.5602298434,
				"z": -2.4246209578,
				"element": "C" 
			},
			{
				"x": -4.1598196641,
				"y": -4.4215911223,
				"z": -2.5544990081,
				"element": "C" 
			},
			{
				"x": -3.3561338761,
				"y": 1.2861701119,
				"z": -1.024817761,
				"element": "H" 
			},
			{
				"x": -0.701999415,
				"y": -1.2805217357,
				"z": -0.3084169932,
				"element": "H" 
			},
			{
				"x": 1.503676526,
				"y": -0.6763729887,
				"z": -1.0814364694,
				"element": "H" 
			},
			{
				"x": 0.9368801132,
				"y": 0.5839709602,
				"z": 0.0410672096,
				"element": "H" 
			},
			{
				"x": -0.3212476435,
				"y": 4.0383912412,
				"z": -1.5468427166,
				"element": "H" 
			},
			{
				"x": -0.1826008275,
				"y": 3.378041449,
				"z": 0.1026152155,
				"element": "H" 
			},
			{
				"x": 1.1297574194,
				"y": 5.8886007149,
				"z": -1.0460030164,
				"element": "H" 
			},
			{
				"x": 2.4694519445,
				"y": 6.0824228098,
				"z": 0.748236174,
				"element": "H" 
			},
			{
				"x": -0.6825918174,
				"y": 3.3271376775,
				"z": 3.6289221595,
				"element": "H" 
			},
			{
				"x": 0.7100976574,
				"y": 4.2037327618,
				"z": 4.3218237027,
				"element": "H" 
			},
			{
				"x": -0.3841061412,
				"y": 1.0208292418,
				"z": 2.7101531894,
				"element": "H" 
			},
			{
				"x": 0.8338911505,
				"y": -1.1280071579,
				"z": 2.9384545806,
				"element": "H" 
			},
			{
				"x": 3.0702915138,
				"y": -1.1820343606,
				"z": 4.0208084996,
				"element": "H" 
			},
			{
				"x": 4.0779773673,
				"y": 0.9201234629,
				"z": 4.8831218082,
				"element": "H" 
			},
			{
				"x": 2.8521272764,
				"y": 3.0705415088,
				"z": 4.651425612,
				"element": "H" 
			},
			{
				"x": -2.2386034137,
				"y": 6.610521913,
				"z": -0.2574999916,
				"element": "H" 
			},
			{
				"x": -1.1241369931,
				"y": -0.4561707436,
				"z": -3.1072637535,
				"element": "H" 
			},
			{
				"x": -1.5560403183,
				"y": -4.671366733,
				"z": -3.2772321216,
				"element": "H" 
			},
			{
				"x": -1.7794633829,
				"y": -4.1934250529,
				"z": -4.9825761896,
				"element": "H" 
			},
			{
				"x": -3.9885906035,
				"y": -3.859987205,
				"z": -5.9046499196,
				"element": "H" 
			},
			{
				"x": -6.4440292404,
				"y": -4.1093881432,
				"z": -5.6745773248,
				"element": "H" 
			},
			{
				"x": -7.4432957747,
				"y": -4.5604358971,
				"z": -3.4434698277,
				"element": "H" 
			},
			{
				"x": -5.9743894546,
				"y": -4.7607546161,
				"z": -1.4485200846,
				"element": "H" 
			},
			{
				"x": -3.5126681334,
				"y": -4.5001941679,
				"z": -1.6863040828,
				"element": "H" 
			}
		],
		 "valence_orbital": [ 
			{
				"type": "occ",
				"energy": -0.25188,
				"method": "rhf"
			},
			{
				"type": "occ",
				"energy": -0.24667,
				"method": "rhf"
			},
			{
				"type": "occ",
				"energy": -0.24511,
				"method": "rhf"
			},
			{
				"type": "occ",
				"energy": -0.24366,
				"method": "rhf"
			},
			{
				"type": "occ",
				"energy": -0.23912,
				"method": "rhf"
			},
			{
				"type": "unocc",
				"energy": -0.03402,
				"method": "rhf"
			},
			{
				"type": "unocc",
				"energy": -0.01559,
				"method": "rhf"
			},
			{
				"type": "unocc",
				"energy": -0.01335,
				"method": "rhf"
			},
			{
				"type": "unocc",
				"energy": -0.00895,
				"method": "rhf"
			},
			{
				"type": "unocc",
				"energy": -0.00495,
				"method": "rhf"
			}
		],
		"cosmo_sigma_profile": { 
			"-0.025": 0.0,
			"-0.024": 0.0,
			"-0.023": 0.0,
			"-0.022": 0.0,
			"-0.021": 0.0,
			"-0.02": 0.0,
			"-0.019": 0.661240267811,
			"-0.018": 2.40348397039,
			"-0.017": 1.82417442937,
			"-0.016": 1.12892361806,
			"-0.015": 2.490068547,
			"-0.014": 3.27265159957,
			"-0.013": 3.62921913308,
			"-0.012": 3.2622124611,
			"-0.011": 3.52928989456,
			"-0.01": 3.80441888703,
			"-0.009": 4.87628261357,
			"-0.008": 5.87411308469,
			"-0.007": 10.5367557241,
			"-0.006": 24.3737561093,
			"-0.005": 33.2640545433,
			"-0.004": 37.7964337594,
			"-0.003": 37.2771241037,
			"-0.002": 33.3924077265,
			"-0.001": 35.6489912229,
			"0.0": 31.3418143592,
			"0.001": 32.8633669077,
			"0.002": 35.206900045,
			"0.003": 38.1752287096,
			"0.004": 38.1989642634,
			"0.005": 39.7514762503,
			"0.006": 21.423195642,
			"0.007": 12.4536029732,
			"0.008": 8.46809184793,
			"0.009": 5.91878799696,
			"0.01": 6.66659883913,
			"0.011": 8.52802198963,
			"0.012": 6.23723953158,
			"0.013": 3.74842977651,
			"0.014": 0.159480760493,
			"0.015": 0.0,
			"0.016": 0.0,
			"0.017": 0.0,
			"0.018": 0.0,
			"0.019": 0.0,
			"0.02": 0.0,
			"0.021": 0.0,
			"0.022": 0.0,
			"0.023": 0.0,
			"0.024": 0.0,
			"0.025": 0.0
		}
	}
}
