{
	 "smiles": "COC1=CC=C(NC2=CC(=CC=C2)C(F)(F)F)C=C1", 
	 "Tm": 331.15, 
	 "num_atms": 31, 
	 "gaussian": { 
		 "optdone": 1, 
		 "sigma_profile": "yes", 
		 "theory": "DFT", 
		 "functional": "B3LYP", 
		 "basiset": "6-31G**", 
		 "properties": { 
			 "R2extent": 7590.9996, 
			 "electric_dipole_moment_norm": 3.05684458715, 
			 "electric_quadrupole_moment_norm": 17.9439599531, 
			 "total_energy": -970.215609821, 
			 "HOMO_LUMO_gap": 0.16936, 
			 "cosmo_polarized_energy": -10.24, 
			 "cosmo_cavitation_energy": 36.63, 
			 "cosmo_dispersion_energy": -25.85, 
			 "cosmo_repulsion_energy": 1.92, 
			 "cosmo_total_nonelectrostatic_energy": 12.7, 
			 "SMD_solvation_energy": 7.87 
		},
		"coords": [
			{
				"x": -0.7267695662,
				"y": 2.1149297383,
				"z": 4.3141229156,
				"element": "C" 
			},
			{
				"x": 0.4991834387,
				"y": 2.3855879129,
				"z": 3.6553717765,
				"element": "O" 
			},
			{
				"x": 0.7655368944,
				"y": 1.7180941958,
				"z": 2.4928812439,
				"element": "C" 
			},
			{
				"x": 1.9910056167,
				"y": 2.0189916171,
				"z": 1.8809281741,
				"element": "C" 
			},
			{
				"x": 2.3467712605,
				"y": 1.4106282433,
				"z": 0.6857770431,
				"element": "C" 
			},
			{
				"x": 1.5041790891,
				"y": 0.4641616361,
				"z": 0.0758391419,
				"element": "C" 
			},
			{
				"x": 1.9354378576,
				"y": -0.1754712191,
				"z": -1.1037148533,
				"element": "N" 
			},
			{
				"x": 1.191678925,
				"y": -0.5407523008,
				"z": -2.2208028905,
				"element": "C" 
			},
			{
				"x": -0.1288100272,
				"y": -0.1106854297,
				"z": -2.4380710058,
				"element": "C" 
			},
			{
				"x": -0.8127706681,
				"y": -0.5094143879,
				"z": -3.5866432007,
				"element": "C" 
			},
			{
				"x": -0.2119607503,
				"y": -1.3244967863,
				"z": -4.5480633652,
				"element": "C" 
			},
			{
				"x": 1.1044293566,
				"y": -1.738741867,
				"z": -4.3394093416,
				"element": "C" 
			},
			{
				"x": 1.7970407195,
				"y": -1.3605531011,
				"z": -3.1951869141,
				"element": "C" 
			},
			{
				"x": -2.203696966,
				"y": 0.0160754464,
				"z": -3.8233708037,
				"element": "C" 
			},
			{
				"x": -2.8674935423,
				"y": 0.2403318552,
				"z": -2.6658682368,
				"element": "F" 
			},
			{
				"x": -2.9498091723,
				"y": -0.8410293494,
				"z": -4.5560595829,
				"element": "F" 
			},
			{
				"x": -2.1868134964,
				"y": 1.1914795509,
				"z": -4.495809698,
				"element": "F" 
			},
			{
				"x": 0.2944837803,
				"y": 0.1492311207,
				"z": 0.7063049493,
				"element": "C" 
			},
			{
				"x": -0.082297372,
				"y": 0.7799481704,
				"z": 1.8949588537,
				"element": "C" 
			},
			{
				"x": -0.799412887,
				"y": 1.0634068637,
				"z": 4.6218296608,
				"element": "H" 
			},
			{
				"x": -0.739357991,
				"y": 2.7488465114,
				"z": 5.2021536177,
				"element": "H" 
			},
			{
				"x": -1.5903189439,
				"y": 2.3624660359,
				"z": 3.6828038047,
				"element": "H" 
			},
			{
				"x": 2.6426090819,
				"y": 2.7467290987,
				"z": 2.3533177644,
				"element": "H" 
			},
			{
				"x": 3.288762202,
				"y": 1.6717317486,
				"z": 0.2099828071,
				"element": "H" 
			},
			{
				"x": 2.934334929,
				"y": -0.2776617069,
				"z": -1.2001060787,
				"element": "H" 
			},
			{
				"x": -0.6178097053,
				"y": 0.5373729336,
				"z": -1.7227177534,
				"element": "H" 
			},
			{
				"x": -0.7628874031,
				"y": -1.6320725748,
				"z": -5.4288940144,
				"element": "H" 
			},
			{
				"x": 1.5939237884,
				"y": -2.3736702023,
				"z": -5.0720408424,
				"element": "H" 
			},
			{
				"x": 2.816862363,
				"y": -1.7044835455,
				"z": -3.0394808349,
				"element": "H" 
			},
			{
				"x": -0.3564972183,
				"y": -0.6062290006,
				"z": 0.2803797936,
				"element": "H" 
			},
			{
				"x": -1.0296335932,
				"y": 0.5143487923,
				"z": 2.34888787,
				"element": "H" 
			}
		],
		 "valence_orbital": [ 
			{
				"type": "occ",
				"energy": -0.30378,
				"method": "rhf"
			},
			{
				"type": "occ",
				"energy": -0.26122,
				"method": "rhf"
			},
			{
				"type": "occ",
				"energy": -0.25632,
				"method": "rhf"
			},
			{
				"type": "occ",
				"energy": -0.23955,
				"method": "rhf"
			},
			{
				"type": "occ",
				"energy": -0.18899,
				"method": "rhf"
			},
			{
				"type": "unocc",
				"energy": -0.01963,
				"method": "rhf"
			},
			{
				"type": "unocc",
				"energy": -0.00999,
				"method": "rhf"
			},
			{
				"type": "unocc",
				"energy": -0.00649,
				"method": "rhf"
			},
			{
				"type": "unocc",
				"energy": 0.02664,
				"method": "rhf"
			},
			{
				"type": "unocc",
				"energy": 0.08004,
				"method": "rhf"
			}
		],
		"cosmo_sigma_profile": { 
			"-0.025": 0.0,
			"-0.024": 0.0,
			"-0.023": 0.0,
			"-0.022": 0.0,
			"-0.021": 0.0,
			"-0.02": 0.0,
			"-0.019": 0.0,
			"-0.018": 0.0,
			"-0.017": 0.0,
			"-0.016": 0.0,
			"-0.015": 0.0379233764452,
			"-0.014": 0.753548350462,
			"-0.013": 1.22292386223,
			"-0.012": 1.04949276571,
			"-0.011": 1.92760639416,
			"-0.01": 1.19183845719,
			"-0.009": 1.87093748243,
			"-0.008": 1.87324904064,
			"-0.007": 3.39965807618,
			"-0.006": 13.3797252936,
			"-0.005": 21.8011143819,
			"-0.004": 23.0094597539,
			"-0.003": 21.5734109558,
			"-0.002": 17.465890319,
			"-0.001": 13.1519065109,
			"0.0": 16.3794288169,
			"0.001": 17.4734703435,
			"0.002": 26.3038200834,
			"0.003": 50.2870664076,
			"0.004": 28.5946295123,
			"0.005": 18.520232067,
			"0.006": 5.13327773675,
			"0.007": 1.19482837745,
			"0.008": 1.6977505444,
			"0.009": 1.26410910384,
			"0.01": 1.6025131443,
			"0.011": 0.764054456942,
			"0.012": 0.0,
			"0.013": 0.0,
			"0.014": 0.0,
			"0.015": 0.0,
			"0.016": 0.0,
			"0.017": 0.0,
			"0.018": 0.0,
			"0.019": 0.0,
			"0.02": 0.0,
			"0.021": 0.0,
			"0.022": 0.0,
			"0.023": 0.0,
			"0.024": 0.0,
			"0.025": 0.0
		}
	}
}
