{
	 "smiles": "CC1=CC=CC=C1C1(CC2=CC=CC=C2C(=O)O1)C#N", 
	 "Tm": 395.15, 
	 "num_atms": 33, 
	 "gaussian": { 
		 "optdone": 1, 
		 "sigma_profile": "yes", 
		 "theory": "DFT", 
		 "functional": "B3LYP", 
		 "basiset": "6-31G**", 
		 "properties": { 
			 "R2extent": 4983.0772, 
			 "electric_dipole_moment_norm": 6.60824213085, 
			 "electric_quadrupole_moment_norm": 19.9948313099, 
			 "total_energy": -860.829391345, 
			 "HOMO_LUMO_gap": 0.18999, 
			 "cosmo_polarized_energy": -15.3, 
			 "cosmo_cavitation_energy": 36.44, 
			 "cosmo_dispersion_energy": -24.89, 
			 "cosmo_repulsion_energy": 1.88, 
			 "cosmo_total_nonelectrostatic_energy": 13.44, 
			 "SMD_solvation_energy": 7.88 
		},
		"coords": [
			{
				"x": 0.6150107063,
				"y": 2.0595059369,
				"z": -1.8881195342,
				"element": "C" 
			},
			{
				"x": 1.3604174834,
				"y": 1.2123736733,
				"z": -0.8752467188,
				"element": "C" 
			},
			{
				"x": 2.5779065637,
				"y": 0.6485036978,
				"z": -1.2824372604,
				"element": "C" 
			},
			{
				"x": 3.3606324566,
				"y": -0.1271002647,
				"z": -0.4308575677,
				"element": "C" 
			},
			{
				"x": 2.938254589,
				"y": -0.3380337181,
				"z": 0.878190667,
				"element": "C" 
			},
			{
				"x": 1.7333752688,
				"y": 0.2129592354,
				"z": 1.3105927397,
				"element": "C" 
			},
			{
				"x": 0.9230465803,
				"y": 0.9636447684,
				"z": 0.4479013183,
				"element": "C" 
			},
			{
				"x": -0.4052412978,
				"y": 1.5332159248,
				"z": 1.003263687,
				"element": "C" 
			},
			{
				"x": -1.6736452036,
				"y": 1.1219704624,
				"z": 0.2159678046,
				"element": "C" 
			},
			{
				"x": -1.950512486,
				"y": -0.3456525424,
				"z": 0.4028873771,
				"element": "C" 
			},
			{
				"x": -2.5116067983,
				"y": -1.1458545665,
				"z": -0.5938475408,
				"element": "C" 
			},
			{
				"x": -2.789489898,
				"y": -2.4903678468,
				"z": -0.34067714,
				"element": "C" 
			},
			{
				"x": -2.5113909176,
				"y": -3.0483760407,
				"z": 0.9111538286,
				"element": "C" 
			},
			{
				"x": -1.9515353818,
				"y": -2.258507514,
				"z": 1.9109099239,
				"element": "C" 
			},
			{
				"x": -1.6675055905,
				"y": -0.9116843611,
				"z": 1.654407674,
				"element": "C" 
			},
			{
				"x": -1.0775358054,
				"y": -0.0830163261,
				"z": 2.7342300201,
				"element": "C" 
			},
			{
				"x": -1.0019379923,
				"y": -0.4181849108,
				"z": 3.8924110845,
				"element": "O" 
			},
			{
				"x": -0.5857645431,
				"y": 1.1578128584,
				"z": 2.3905684055,
				"element": "O" 
			},
			{
				"x": -0.3241574455,
				"y": 3.0121044707,
				"z": 1.0541280078,
				"element": "C" 
			},
			{
				"x": -0.2740428206,
				"y": 4.1712752187,
				"z": 1.0547777807,
				"element": "N" 
			},
			{
				"x": -0.1505454284,
				"y": 1.4817224536,
				"z": -2.4207816512,
				"element": "H" 
			},
			{
				"x": 0.130877514,
				"y": 2.9320826712,
				"z": -1.4437824596,
				"element": "H" 
			},
			{
				"x": 1.3120958316,
				"y": 2.4281119779,
				"z": -2.6451237537,
				"element": "H" 
			},
			{
				"x": 2.918995959,
				"y": 0.8366195308,
				"z": -2.2971944452,
				"element": "H" 
			},
			{
				"x": 4.2980845931,
				"y": -0.5458618967,
				"z": -0.7847978092,
				"element": "H" 
			},
			{
				"x": 3.5416817564,
				"y": -0.9185476987,
				"z": 1.5692462323,
				"element": "H" 
			},
			{
				"x": 1.4328300067,
				"y": 0.0698112762,
				"z": 2.340388829,
				"element": "H" 
			},
			{
				"x": -1.5750069733,
				"y": 1.3777701735,
				"z": -0.8376577492,
				"element": "H" 
			},
			{
				"x": -2.5082588968,
				"y": 1.7139438745,
				"z": 0.6126841537,
				"element": "H" 
			},
			{
				"x": -2.7338969896,
				"y": -0.7176203674,
				"z": -1.5675288719,
				"element": "H" 
			},
			{
				"x": -3.2235603961,
				"y": -3.1053469866,
				"z": -1.1236818579,
				"element": "H" 
			},
			{
				"x": -2.7315694173,
				"y": -4.0939599091,
				"z": 1.1026955622,
				"element": "H" 
			},
			{
				"x": -1.7269050271,
				"y": -2.659213255,
				"z": 2.8935292639,
				"element": "H" 
			}
		],
		 "valence_orbital": [ 
			{
				"type": "occ",
				"energy": -0.28505,
				"method": "rhf"
			},
			{
				"type": "occ",
				"energy": -0.2745,
				"method": "rhf"
			},
			{
				"type": "occ",
				"energy": -0.26993,
				"method": "rhf"
			},
			{
				"type": "occ",
				"energy": -0.26094,
				"method": "rhf"
			},
			{
				"type": "occ",
				"energy": -0.25422,
				"method": "rhf"
			},
			{
				"type": "unocc",
				"energy": -0.06423,
				"method": "rhf"
			},
			{
				"type": "unocc",
				"energy": -0.02986,
				"method": "rhf"
			},
			{
				"type": "unocc",
				"energy": -0.02082,
				"method": "rhf"
			},
			{
				"type": "unocc",
				"energy": -0.01272,
				"method": "rhf"
			},
			{
				"type": "unocc",
				"energy": 0.00717,
				"method": "rhf"
			}
		],
		"cosmo_sigma_profile": { 
			"-0.025": 0.0,
			"-0.024": 0.0,
			"-0.023": 0.0,
			"-0.022": 0.0,
			"-0.021": 0.0,
			"-0.02": 0.0,
			"-0.019": 0.0,
			"-0.018": 0.0,
			"-0.017": 0.0,
			"-0.016": 0.0,
			"-0.015": 0.0,
			"-0.014": 0.0,
			"-0.013": 0.0,
			"-0.012": 0.0,
			"-0.011": 0.0,
			"-0.01": 0.0,
			"-0.009": 0.0079256374625,
			"-0.008": 3.76715812212,
			"-0.007": 12.7452980117,
			"-0.006": 20.7453276314,
			"-0.005": 26.0070275735,
			"-0.004": 23.1853643739,
			"-0.003": 19.0888233704,
			"-0.002": 19.1573848579,
			"-0.001": 21.7453977602,
			"0.0": 19.9705239535,
			"0.001": 18.421770974,
			"0.002": 22.8719108744,
			"0.003": 23.164274138,
			"0.004": 14.7076216142,
			"0.005": 9.05956342552,
			"0.006": 5.81242009975,
			"0.007": 3.85546843149,
			"0.008": 6.22968599979,
			"0.009": 5.18984204486,
			"0.01": 5.74503125618,
			"0.011": 7.71015404956,
			"0.012": 3.22474659201,
			"0.013": 0.292852864358,
			"0.014": 0.0,
			"0.015": 0.0,
			"0.016": 0.0,
			"0.017": 0.0,
			"0.018": 0.0,
			"0.019": 0.0,
			"0.02": 0.0,
			"0.021": 0.0,
			"0.022": 0.0,
			"0.023": 0.0,
			"0.024": 0.0,
			"0.025": 0.0
		}
	}
}
