{
	 "smiles": "CC1=CSC2=C1C(C)=C(S2)C=O", 
	 "Tm": 421.15, 
	 "num_atms": 20, 
	 "gaussian": { 
		 "optdone": 1, 
		 "sigma_profile": "yes", 
		 "theory": "DFT", 
		 "functional": "B3LYP", 
		 "basiset": "6-31G**", 
		 "properties": { 
			 "R2extent": 4813.0767, 
			 "electric_dipole_moment_norm": 5.22583912688, 
			 "electric_quadrupole_moment_norm": 19.4333321273, 
			 "total_energy": -1219.36046948, 
			 "HOMO_LUMO_gap": 0.16239, 
			 "cosmo_polarized_energy": -10.17, 
			 "cosmo_cavitation_energy": 26.81, 
			 "cosmo_dispersion_energy": -20.55, 
			 "cosmo_repulsion_energy": 1.51, 
			 "cosmo_total_nonelectrostatic_energy": 7.77, 
			 "SMD_solvation_energy": 5.03 
		},
		"coords": [
			{
				"x": 0.6285488519,
				"y": 1.5218108773,
				"z": 0.9849659095,
				"element": "C" 
			},
			{
				"x": -0.3836984133,
				"y": 0.8338026961,
				"z": 1.861348386,
				"element": "C" 
			},
			{
				"x": -0.7248349636,
				"y": 1.2797959575,
				"z": 3.1042085979,
				"element": "C" 
			},
			{
				"x": -1.9306617226,
				"y": 0.2934199859,
				"z": 3.9161745826,
				"element": "S" 
			},
			{
				"x": -1.9862994736,
				"y": -0.7600994969,
				"z": 2.5445960147,
				"element": "C" 
			},
			{
				"x": -1.1206355133,
				"y": -0.3673156313,
				"z": 1.521069778,
				"element": "C" 
			},
			{
				"x": -1.1883415327,
				"y": -1.2586068084,
				"z": 0.3981167159,
				"element": "C" 
			},
			{
				"x": -0.3710155987,
				"y": -1.0932536576,
				"z": -0.855907889,
				"element": "C" 
			},
			{
				"x": -2.0965894432,
				"y": -2.2804343618,
				"z": 0.6197397669,
				"element": "C" 
			},
			{
				"x": -2.8930457613,
				"y": -2.1878719506,
				"z": 2.1960642661,
				"element": "S" 
			},
			{
				"x": -2.4764527244,
				"y": -3.3894737209,
				"z": -0.2407942869,
				"element": "C" 
			},
			{
				"x": -3.2992813251,
				"y": -4.2402586353,
				"z": 0.0637700461,
				"element": "O" 
			},
			{
				"x": 0.1869983823,
				"y": 1.8468387509,
				"z": 0.0364750843,
				"element": "H" 
			},
			{
				"x": 1.4688773007,
				"y": 0.8615675204,
				"z": 0.743727893,
				"element": "H" 
			},
			{
				"x": 1.0336008201,
				"y": 2.4062818301,
				"z": 1.4830811407,
				"element": "H" 
			},
			{
				"x": -0.3379156572,
				"y": 2.1500155379,
				"z": 3.61773553,
				"element": "H" 
			},
			{
				"x": -0.5709096251,
				"y": -1.877344608,
				"z": -1.5871120941,
				"element": "H" 
			},
			{
				"x": -0.5811807272,
				"y": -0.1307053649,
				"z": -1.3342158075,
				"element": "H" 
			},
			{
				"x": 0.7001751719,
				"y": -1.1150171656,
				"z": -0.6289248717,
				"element": "H" 
			},
			{
				"x": -1.9634380455,
				"y": -3.4249517551,
				"z": -1.2235187625,
				"element": "H" 
			}
		],
		 "valence_orbital": [ 
			{
				"type": "occ",
				"energy": -0.32702,
				"method": "rhf"
			},
			{
				"type": "occ",
				"energy": -0.28241,
				"method": "rhf"
			},
			{
				"type": "occ",
				"energy": -0.25374,
				"method": "rhf"
			},
			{
				"type": "occ",
				"energy": -0.23353,
				"method": "rhf"
			},
			{
				"type": "occ",
				"energy": -0.22653,
				"method": "rhf"
			},
			{
				"type": "unocc",
				"energy": -0.06414,
				"method": "rhf"
			},
			{
				"type": "unocc",
				"energy": -0.0146,
				"method": "rhf"
			},
			{
				"type": "unocc",
				"energy": 0.00755,
				"method": "rhf"
			},
			{
				"type": "unocc",
				"energy": 0.02906,
				"method": "rhf"
			},
			{
				"type": "unocc",
				"energy": 0.04999,
				"method": "rhf"
			}
		],
		"cosmo_sigma_profile": { 
			"-0.025": 0.0,
			"-0.024": 0.0,
			"-0.023": 0.0,
			"-0.022": 0.0,
			"-0.021": 0.0,
			"-0.02": 0.0,
			"-0.019": 0.0,
			"-0.018": 0.0,
			"-0.017": 0.0,
			"-0.016": 0.0,
			"-0.015": 0.0,
			"-0.014": 0.0,
			"-0.013": 0.0,
			"-0.012": 0.0,
			"-0.011": 0.0,
			"-0.01": 0.0,
			"-0.009": 0.726491359927,
			"-0.008": 4.67647893597,
			"-0.007": 5.09750914187,
			"-0.006": 8.68666706959,
			"-0.005": 17.5128407429,
			"-0.004": 14.755148653,
			"-0.003": 16.5297134262,
			"-0.002": 19.624658263,
			"-0.001": 18.8715656752,
			"0.0": 16.0397421487,
			"0.001": 17.1270537249,
			"0.002": 24.9318249709,
			"0.003": 19.0228514653,
			"0.004": 12.9300831184,
			"0.005": 3.00047162473,
			"0.006": 1.96051687518,
			"0.007": 1.80498237521,
			"0.008": 1.84933118277,
			"0.009": 1.5489036711,
			"0.01": 2.65964840827,
			"0.011": 3.43843206056,
			"0.012": 4.36186138712,
			"0.013": 1.5160855283,
			"0.014": 0.155575306855,
			"0.015": 0.0,
			"0.016": 0.0,
			"0.017": 0.0,
			"0.018": 0.0,
			"0.019": 0.0,
			"0.02": 0.0,
			"0.021": 0.0,
			"0.022": 0.0,
			"0.023": 0.0,
			"0.024": 0.0,
			"0.025": 0.0
		}
	}
}
