{
	 "smiles": "NC1=NC(=CS1)C1=CC=C(NC(=O)C2=CC=CC=C2)C=C1", 
	 "Tm": 490.15, 
	 "num_atms": 34, 
	 "gaussian": { 
		 "optdone": 1, 
		 "sigma_profile": "yes", 
		 "theory": "DFT", 
		 "functional": "B3LYP", 
		 "basiset": "6-31G**", 
		 "properties": { 
			 "R2extent": 10154.6628, 
			 "electric_dipole_moment_norm": 5.04354721501, 
			 "electric_quadrupole_moment_norm": 16.2444180819, 
			 "total_energy": -1255.21951826, 
			 "HOMO_LUMO_gap": 0.15569, 
			 "cosmo_polarized_energy": -19.38, 
			 "cosmo_cavitation_energy": 40.66, 
			 "cosmo_dispersion_energy": -29.57, 
			 "cosmo_repulsion_energy": 2.22, 
			 "cosmo_total_nonelectrostatic_energy": 13.31, 
			 "SMD_solvation_energy": 5.99 
		},
		"coords": [
			{
				"x": 0.1262872585,
				"y": 5.4770032395,
				"z": -3.3766017481,
				"element": "N" 
			},
			{
				"x": -0.6159357785,
				"y": 4.7060202192,
				"z": -2.5111133944,
				"element": "C" 
			},
			{
				"x": -0.2045476638,
				"y": 3.5864116065,
				"z": -1.9983767789,
				"element": "N" 
			},
			{
				"x": -1.1912524691,
				"y": 2.9878557638,
				"z": -1.2241056705,
				"element": "C" 
			},
			{
				"x": -2.3683512064,
				"y": 3.6833807993,
				"z": -1.1495462827,
				"element": "C" 
			},
			{
				"x": -2.2786502421,
				"y": 5.1475270542,
				"z": -2.0937177081,
				"element": "S" 
			},
			{
				"x": -0.88944443,
				"y": 1.7035228786,
				"z": -0.5665771238,
				"element": "C" 
			},
			{
				"x": 0.3533860485,
				"y": 1.0833495998,
				"z": -0.7763669996,
				"element": "C" 
			},
			{
				"x": 0.6649850203,
				"y": -0.136111078,
				"z": -0.183739343,
				"element": "C" 
			},
			{
				"x": -0.2546444421,
				"y": -0.7625986455,
				"z": 0.6682236577,
				"element": "C" 
			},
			{
				"x": -0.0055872574,
				"y": -2.0162434282,
				"z": 1.2783954202,
				"element": "N" 
			},
			{
				"x": 1.1789876516,
				"y": -2.6341857547,
				"z": 1.6495596833,
				"element": "C" 
			},
			{
				"x": 1.2168372361,
				"y": -3.8566437358,
				"z": 1.7419854184,
				"element": "O" 
			},
			{
				"x": 2.3686301087,
				"y": -1.7954288639,
				"z": 2.0105542898,
				"element": "C" 
			},
			{
				"x": 2.2615833594,
				"y": -0.5414204849,
				"z": 2.6289291139,
				"element": "C" 
			},
			{
				"x": 3.4099831797,
				"y": 0.1427932907,
				"z": 3.02618522,
				"element": "C" 
			},
			{
				"x": 4.6714253241,
				"y": -0.412353353,
				"z": 2.8001649198,
				"element": "C" 
			},
			{
				"x": 4.7830359631,
				"y": -1.6655041193,
				"z": 2.1923624567,
				"element": "C" 
			},
			{
				"x": 3.6365772635,
				"y": -2.3598809873,
				"z": 1.812640737,
				"element": "C" 
			},
			{
				"x": -1.4994956531,
				"y": -0.1518255343,
				"z": 0.8846842278,
				"element": "C" 
			},
			{
				"x": -1.8121076247,
				"y": 1.0551341312,
				"z": 0.27155526,
				"element": "C" 
			},
			{
				"x": 1.1066741603,
				"y": 5.2273337617,
				"z": -3.3844849828,
				"element": "H" 
			},
			{
				"x": -0.0431670247,
				"y": 6.4724915896,
				"z": -3.3631889195,
				"element": "H" 
			},
			{
				"x": -3.2734162939,
				"y": 3.4421440875,
				"z": -0.6134516974,
				"element": "H" 
			},
			{
				"x": 1.0684561846,
				"y": 1.5663319194,
				"z": -1.4321571588,
				"element": "H" 
			},
			{
				"x": 1.6205207425,
				"y": -0.6057993244,
				"z": -0.3874228393,
				"element": "H" 
			},
			{
				"x": -0.7614754162,
				"y": -2.6897718744,
				"z": 1.2318573477,
				"element": "H" 
			},
			{
				"x": 1.2846807402,
				"y": -0.107337976,
				"z": 2.8116887651,
				"element": "H" 
			},
			{
				"x": 3.3193150323,
				"y": 1.1089895619,
				"z": 3.5138554424,
				"element": "H" 
			},
			{
				"x": 5.5644345731,
				"y": 0.126625335,
				"z": 3.1038789523,
				"element": "H" 
			},
			{
				"x": 5.7621720766,
				"y": -2.1044296427,
				"z": 2.0240680093,
				"element": "H" 
			},
			{
				"x": 3.7006762993,
				"y": -3.3473481127,
				"z": 1.3679590629,
				"element": "H" 
			},
			{
				"x": -2.2185208005,
				"y": -0.6286041787,
				"z": 1.5452983974,
				"element": "H" 
			},
			{
				"x": -2.7843519201,
				"y": 1.4992722558,
				"z": 0.4617042655,
				"element": "H" 
			}
		],
		 "valence_orbital": [ 
			{
				"type": "occ",
				"energy": -0.25901,
				"method": "rhf"
			},
			{
				"type": "occ",
				"energy": -0.25023,
				"method": "rhf"
			},
			{
				"type": "occ",
				"energy": -0.24418,
				"method": "rhf"
			},
			{
				"type": "occ",
				"energy": -0.23481,
				"method": "rhf"
			},
			{
				"type": "occ",
				"energy": -0.19841,
				"method": "rhf"
			},
			{
				"type": "unocc",
				"energy": -0.04272,
				"method": "rhf"
			},
			{
				"type": "unocc",
				"energy": -0.02537,
				"method": "rhf"
			},
			{
				"type": "unocc",
				"energy": -0.01127,
				"method": "rhf"
			},
			{
				"type": "unocc",
				"energy": 0.00217,
				"method": "rhf"
			},
			{
				"type": "unocc",
				"energy": 0.00612,
				"method": "rhf"
			}
		],
		"cosmo_sigma_profile": { 
			"-0.025": 0.0,
			"-0.024": 0.0,
			"-0.023": 0.0,
			"-0.022": 0.0,
			"-0.021": 0.0,
			"-0.02": 0.0,
			"-0.019": 0.0,
			"-0.018": 0.0,
			"-0.017": 0.0,
			"-0.016": 0.0,
			"-0.015": 0.53194856766,
			"-0.014": 2.63297772094,
			"-0.013": 3.20671811685,
			"-0.012": 3.49922705958,
			"-0.011": 4.51441281176,
			"-0.01": 3.24512380181,
			"-0.009": 4.61603122271,
			"-0.008": 5.43275883804,
			"-0.007": 7.3355052603,
			"-0.006": 15.2540300755,
			"-0.005": 19.9810630938,
			"-0.004": 21.4611083991,
			"-0.003": 17.486073571,
			"-0.002": 18.4610640462,
			"-0.001": 18.1793856404,
			"0.0": 16.556840087,
			"0.001": 22.9728978335,
			"0.002": 24.3093118041,
			"0.003": 29.4224640609,
			"0.004": 37.242944548,
			"0.005": 18.2911512306,
			"0.006": 4.82007420298,
			"0.007": 3.77588004676,
			"0.008": 3.68782964244,
			"0.009": 3.72206960261,
			"0.01": 3.77917216968,
			"0.011": 4.03882377316,
			"0.012": 2.61641262865,
			"0.013": 5.56737213208,
			"0.014": 1.60872702076,
			"0.015": 0.0,
			"0.016": 0.0,
			"0.017": 0.0,
			"0.018": 0.0,
			"0.019": 0.0,
			"0.02": 0.0,
			"0.021": 0.0,
			"0.022": 0.0,
			"0.023": 0.0,
			"0.024": 0.0,
			"0.025": 0.0
		}
	}
}
