{
	 "smiles": "OC(=O)C(CC1=CC=C(Br)S1)NC(=O)OCC1C2=C(C=CC=C2)C2=C1C=CC=C2", 
	 "Tm": 431.15, 
	 "num_atms": 47, 
	 "gaussian": { 
		 "optdone": 1, 
		 "sigma_profile": "yes", 
		 "theory": "DFT", 
		 "functional": "B3LYP", 
		 "basiset": "6-31G**", 
		 "properties": { 
			 "R2extent": 24075.7406, 
			 "electric_dipole_moment_norm": 2.5227432628, 
			 "electric_quadrupole_moment_norm": 15.195801608, 
			 "total_energy": -4174.45973961, 
			 "HOMO_LUMO_gap": 0.18395, 
			 "cosmo_polarized_energy": -19.71, 
			 "cosmo_cavitation_energy": 55.21, 
			 "cosmo_dispersion_energy": -37.56, 
			 "cosmo_repulsion_energy": 2.75, 
			 "cosmo_total_nonelectrostatic_energy": 20.41, 
			 "SMD_solvation_energy": 8.94 
		},
		"coords": [
			{
				"x": -2.5573076169,
				"y": 0.7004640671,
				"z": 2.4694858004,
				"element": "O" 
			},
			{
				"x": -2.3085422788,
				"y": 1.8732982474,
				"z": 1.8517437092,
				"element": "C" 
			},
			{
				"x": -2.9639685761,
				"y": 2.2818194393,
				"z": 0.9186110222,
				"element": "O" 
			},
			{
				"x": -1.15652916,
				"y": 2.6472285096,
				"z": 2.5099528627,
				"element": "C" 
			},
			{
				"x": -0.6026667775,
				"y": 3.7238612875,
				"z": 1.5494556397,
				"element": "C" 
			},
			{
				"x": 0.2017868285,
				"y": 4.7934132706,
				"z": 2.2287028897,
				"element": "C" 
			},
			{
				"x": -0.0750261269,
				"y": 6.1349968684,
				"z": 2.2747328342,
				"element": "C" 
			},
			{
				"x": 0.89665689,
				"y": 6.9112113618,
				"z": 2.9781271433,
				"element": "C" 
			},
			{
				"x": 1.9114854737,
				"y": 6.1352997725,
				"z": 3.4584623851,
				"element": "C" 
			},
			{
				"x": 3.4051498813,
				"y": 6.7107431016,
				"z": 4.4572255118,
				"element": "Br" 
			},
			{
				"x": 1.7013543568,
				"y": 4.4495383736,
				"z": 3.0736235574,
				"element": "S" 
			},
			{
				"x": -0.1302944816,
				"y": 1.7792525444,
				"z": 3.0698379296,
				"element": "N" 
			},
			{
				"x": 0.4797229455,
				"y": 0.7310119566,
				"z": 2.4260594037,
				"element": "C" 
			},
			{
				"x": 1.177553457,
				"y": -0.0926524458,
				"z": 2.9855226214,
				"element": "O" 
			},
			{
				"x": 0.2209940588,
				"y": 0.7551733024,
				"z": 1.0896007655,
				"element": "O" 
			},
			{
				"x": 0.8059267748,
				"y": -0.3349919199,
				"z": 0.3381972849,
				"element": "C" 
			},
			{
				"x": -0.1199233261,
				"y": -1.5661699166,
				"z": 0.3119477707,
				"element": "C" 
			},
			{
				"x": -1.1745545921,
				"y": -1.5611103746,
				"z": -0.7871282596,
				"element": "C" 
			},
			{
				"x": -1.0577952083,
				"y": -2.7259713868,
				"z": -1.5765499061,
				"element": "C" 
			},
			{
				"x": -1.9254937262,
				"y": -2.9473630367,
				"z": -2.6477098996,
				"element": "C" 
			},
			{
				"x": -2.905053853,
				"y": -1.9927616163,
				"z": -2.9314652666,
				"element": "C" 
			},
			{
				"x": -3.0111523572,
				"y": -0.8317280531,
				"z": -2.1593328183,
				"element": "C" 
			},
			{
				"x": -2.1456228648,
				"y": -0.6083417344,
				"z": -1.0806588162,
				"element": "C" 
			},
			{
				"x": 0.0608141239,
				"y": -3.5310869832,
				"z": -1.0667982786,
				"element": "C" 
			},
			{
				"x": 0.628320539,
				"y": -2.8609315241,
				"z": 0.0346518134,
				"element": "C" 
			},
			{
				"x": 1.7065014938,
				"y": -3.4071029204,
				"z": 0.7224113346,
				"element": "C" 
			},
			{
				"x": 2.22745474,
				"y": -4.6336737866,
				"z": 0.2937021704,
				"element": "C" 
			},
			{
				"x": 1.66868118,
				"y": -5.2996644642,
				"z": -0.8030107844,
				"element": "C" 
			},
			{
				"x": 0.5801714695,
				"y": -4.7565302205,
				"z": -1.4899549183,
				"element": "C" 
			},
			{
				"x": -3.304726673,
				"y": 0.294353179,
				"z": 1.998211553,
				"element": "H" 
			},
			{
				"x": -1.6113483747,
				"y": 3.1621181365,
				"z": 3.3654036168,
				"element": "H" 
			},
			{
				"x": -1.4523759942,
				"y": 4.1979214782,
				"z": 1.0517137552,
				"element": "H" 
			},
			{
				"x": -0.0226736422,
				"y": 3.2170295696,
				"z": 0.7718325676,
				"element": "H" 
			},
			{
				"x": -0.9534890552,
				"y": 6.5651695654,
				"z": 1.8050437439,
				"element": "H" 
			},
			{
				"x": 0.8446154082,
				"y": 7.9835466066,
				"z": 3.1182383264,
				"element": "H" 
			},
			{
				"x": -0.0441575705,
				"y": 1.7218305825,
				"z": 4.0730083609,
				"element": "H" 
			},
			{
				"x": 1.7634035933,
				"y": -0.5863933124,
				"z": 0.7944452202,
				"element": "H" 
			},
			{
				"x": 0.965004913,
				"y": 0.0624517421,
				"z": -0.6655171733,
				"element": "H" 
			},
			{
				"x": -0.5921770915,
				"y": -1.6258948341,
				"z": 1.3020800501,
				"element": "H" 
			},
			{
				"x": -1.8409729325,
				"y": -3.8439858141,
				"z": -3.2556777185,
				"element": "H" 
			},
			{
				"x": -3.5862863868,
				"y": -2.1510385811,
				"z": -3.7627690148,
				"element": "H" 
			},
			{
				"x": -3.7702763727,
				"y": -0.0922501445,
				"z": -2.3976009692,
				"element": "H" 
			},
			{
				"x": -2.2316337404,
				"y": 0.3080129738,
				"z": -0.5054129675,
				"element": "H" 
			},
			{
				"x": 2.1310405324,
				"y": -2.8959629359,
				"z": 1.5826683197,
				"element": "H" 
			},
			{
				"x": 3.0702515294,
				"y": -5.0738426815,
				"z": 0.8187198835,
				"element": "H" 
			},
			{
				"x": 2.0845015634,
				"y": -6.2512687597,
				"z": -1.1219465884,
				"element": "H" 
			},
			{
				"x": 0.1493570273,
				"y": -5.2822284903,
				"z": -2.3376864676,
				"element": "H" 
			}
		],
		 "valence_orbital": [ 
			{
				"type": "occ",
				"energy": -0.25924,
				"method": "rhf"
			},
			{
				"type": "occ",
				"energy": -0.24967,
				"method": "rhf"
			},
			{
				"type": "occ",
				"energy": -0.2441,
				"method": "rhf"
			},
			{
				"type": "occ",
				"energy": -0.2263,
				"method": "rhf"
			},
			{
				"type": "occ",
				"energy": -0.21524,
				"method": "rhf"
			},
			{
				"type": "unocc",
				"energy": -0.03129,
				"method": "rhf"
			},
			{
				"type": "unocc",
				"energy": -0.02447,
				"method": "rhf"
			},
			{
				"type": "unocc",
				"energy": -0.01571,
				"method": "rhf"
			},
			{
				"type": "unocc",
				"energy": -0.01258,
				"method": "rhf"
			},
			{
				"type": "unocc",
				"energy": -0.00152,
				"method": "rhf"
			}
		],
		"cosmo_sigma_profile": { 
			"-0.025": 0.0,
			"-0.024": 0.0,
			"-0.023": 0.0,
			"-0.022": 0.0,
			"-0.021": 0.0,
			"-0.02": 0.0,
			"-0.019": 0.062524046718,
			"-0.018": 0.563381332923,
			"-0.017": 0.888216993499,
			"-0.016": 0.462667338107,
			"-0.015": 1.48945983807,
			"-0.014": 2.14361032333,
			"-0.013": 1.63606608643,
			"-0.012": 1.66252782891,
			"-0.011": 1.99404311786,
			"-0.01": 2.48181659484,
			"-0.009": 3.83741029973,
			"-0.008": 4.34576836526,
			"-0.007": 7.45778552615,
			"-0.006": 17.4871070124,
			"-0.005": 28.2534181206,
			"-0.004": 31.5273646979,
			"-0.003": 32.9432175463,
			"-0.002": 27.5178770521,
			"-0.001": 31.2210134962,
			"0.0": 32.2983971395,
			"0.001": 33.9860792371,
			"0.002": 37.9216146522,
			"0.003": 42.2817481457,
			"0.004": 39.2643541542,
			"0.005": 22.5883096276,
			"0.006": 14.0703101087,
			"0.007": 3.67197188406,
			"0.008": 3.22008997082,
			"0.009": 3.66156604883,
			"0.01": 3.31829653392,
			"0.011": 5.79266167123,
			"0.012": 3.32539652949,
			"0.013": 2.76587518566,
			"0.014": 0.100612737517,
			"0.015": 0.0,
			"0.016": 0.0,
			"0.017": 0.0,
			"0.018": 0.0,
			"0.019": 0.0,
			"0.02": 0.0,
			"0.021": 0.0,
			"0.022": 0.0,
			"0.023": 0.0,
			"0.024": 0.0,
			"0.025": 0.0
		}
	}
}
