{
	 "smiles": "CC1=CC(=CC=C1[N+]([O-])=O)C(N)=O", 
	 "Tm": 432.15, 
	 "num_atms": 21, 
	 "gaussian": { 
		 "optdone": 1, 
		 "sigma_profile": "yes", 
		 "theory": "DFT", 
		 "functional": "B3LYP", 
		 "basiset": "6-31G**", 
		 "properties": { 
			 "R2extent": 2966.4471, 
			 "electric_dipole_moment_norm": 4.83349490224, 
			 "electric_quadrupole_moment_norm": 15.7566683934, 
			 "total_energy": -644.768327342, 
			 "HOMO_LUMO_gap": 0.16809, 
			 "cosmo_polarized_energy": -16.28, 
			 "cosmo_cavitation_energy": 25.94, 
			 "cosmo_dispersion_energy": -19.09, 
			 "cosmo_repulsion_energy": 1.51, 
			 "cosmo_total_nonelectrostatic_energy": 8.36, 
			 "SMD_solvation_energy": 7.39 
		},
		"coords": [
			{
				"x": 1.6230939331,
				"y": 0.9979536555,
				"z": -0.9775906206,
				"element": "C" 
			},
			{
				"x": 0.3547404038,
				"y": 0.6038268476,
				"z": -0.2602139351,
				"element": "C" 
			},
			{
				"x": 0.4575148222,
				"y": -0.1026452422,
				"z": 0.947566608,
				"element": "C" 
			},
			{
				"x": -0.6588487852,
				"y": -0.5014722052,
				"z": 1.6890679968,
				"element": "C" 
			},
			{
				"x": -1.9395933472,
				"y": -0.1616679487,
				"z": 1.2385843807,
				"element": "C" 
			},
			{
				"x": -2.0845841762,
				"y": 0.5389728589,
				"z": 0.0512647067,
				"element": "C" 
			},
			{
				"x": -0.9542588047,
				"y": 0.9035529177,
				"z": -0.6867407503,
				"element": "C" 
			},
			{
				"x": -1.2104296239,
				"y": 1.6322993929,
				"z": -1.9439492792,
				"element": "N" 
			},
			{
				"x": -0.2905707271,
				"y": 1.735449132,
				"z": -2.7564511175,
				"element": "O" 
			},
			{
				"x": -2.3392269707,
				"y": 2.0904727185,
				"z": -2.117046513,
				"element": "O" 
			},
			{
				"x": -0.5591613232,
				"y": -1.259127803,
				"z": 2.9879710703,
				"element": "C" 
			},
			{
				"x": 0.620506111,
				"y": -1.9220000519,
				"z": 3.2162278909,
				"element": "N" 
			},
			{
				"x": -1.4767149299,
				"y": -1.2605508781,
				"z": 3.7974070991,
				"element": "O" 
			},
			{
				"x": 1.7254466677,
				"y": 0.4653115614,
				"z": -1.926373095,
				"element": "H" 
			},
			{
				"x": 2.4870794724,
				"y": 0.7689215903,
				"z": -0.3481380461,
				"element": "H" 
			},
			{
				"x": 1.6385833105,
				"y": 2.0621797317,
				"z": -1.2236100334,
				"element": "H" 
			},
			{
				"x": 1.4547674987,
				"y": -0.3098760738,
				"z": 1.3242269776,
				"element": "H" 
			},
			{
				"x": -2.7985016462,
				"y": -0.4513908758,
				"z": 1.8329075901,
				"element": "H" 
			},
			{
				"x": -3.0599626621,
				"y": 0.8178254369,
				"z": -0.3261751933,
				"element": "H" 
			},
			{
				"x": 1.2214643869,
				"y": -2.1839581936,
				"z": 2.4506209536,
				"element": "H" 
			},
			{
				"x": 0.63615639,
				"y": -2.5126765712,
				"z": 4.0354433098,
				"element": "H" 
			}
		],
		 "valence_orbital": [ 
			{
				"type": "occ",
				"energy": -0.29561,
				"method": "rhf"
			},
			{
				"type": "occ",
				"energy": -0.28834,
				"method": "rhf"
			},
			{
				"type": "occ",
				"energy": -0.2834,
				"method": "rhf"
			},
			{
				"type": "occ",
				"energy": -0.27596,
				"method": "rhf"
			},
			{
				"type": "occ",
				"energy": -0.2651,
				"method": "rhf"
			},
			{
				"type": "unocc",
				"energy": -0.09701,
				"method": "rhf"
			},
			{
				"type": "unocc",
				"energy": -0.03288,
				"method": "rhf"
			},
			{
				"type": "unocc",
				"energy": -0.02978,
				"method": "rhf"
			},
			{
				"type": "unocc",
				"energy": 0.04361,
				"method": "rhf"
			},
			{
				"type": "unocc",
				"energy": 0.06287,
				"method": "rhf"
			}
		],
		"cosmo_sigma_profile": { 
			"-0.025": 0.0,
			"-0.024": 0.0,
			"-0.023": 0.0,
			"-0.022": 0.0,
			"-0.021": 0.0,
			"-0.02": 0.0,
			"-0.019": 0.0,
			"-0.018": 0.0,
			"-0.017": 0.0,
			"-0.016": 0.0,
			"-0.015": 0.447495338664,
			"-0.014": 2.37772934816,
			"-0.013": 2.52288246887,
			"-0.012": 2.24855820468,
			"-0.011": 2.79293211578,
			"-0.01": 2.68622439519,
			"-0.009": 2.77899559519,
			"-0.008": 3.17891215543,
			"-0.007": 6.27606329624,
			"-0.006": 8.61738822818,
			"-0.005": 10.7557874969,
			"-0.004": 10.7605245143,
			"-0.003": 13.9139629677,
			"-0.002": 15.0345757668,
			"-0.001": 20.0780154315,
			"0.0": 18.1606392416,
			"0.001": 16.2462313322,
			"0.002": 8.68229942108,
			"0.003": 4.68820099342,
			"0.004": 5.81670970855,
			"0.005": 5.53987527073,
			"0.006": 5.03834279913,
			"0.007": 8.98815459511,
			"0.008": 8.0116432893,
			"0.009": 5.26947352565,
			"0.01": 4.63888495287,
			"0.011": 1.85926720207,
			"0.012": 2.73702760667,
			"0.013": 5.08746202394,
			"0.014": 1.56547540495,
			"0.015": 0.0,
			"0.016": 0.0,
			"0.017": 0.0,
			"0.018": 0.0,
			"0.019": 0.0,
			"0.02": 0.0,
			"0.021": 0.0,
			"0.022": 0.0,
			"0.023": 0.0,
			"0.024": 0.0,
			"0.025": 0.0
		}
	}
}
