{
	 "smiles": "CC1(C)C2CCC1(CS(F)(=O)=O)C(=O)C2", 
	 "Tm": 353.15, 
	 "num_atms": 30, 
	 "gaussian": { 
		 "optdone": 1, 
		 "sigma_profile": "yes", 
		 "theory": "DFT", 
		 "functional": "B3LYP", 
		 "basiset": "6-31G**", 
		 "properties": { 
			 "R2extent": 3458.2416, 
			 "electric_dipole_moment_norm": 5.60284065631, 
			 "electric_quadrupole_moment_norm": 12.2201685938, 
			 "total_energy": -1113.74083304, 
			 "HOMO_LUMO_gap": 0.22325, 
			 "cosmo_polarized_energy": -14.19, 
			 "cosmo_cavitation_energy": 30.76, 
			 "cosmo_dispersion_energy": -22.53, 
			 "cosmo_repulsion_energy": 1.64, 
			 "cosmo_total_nonelectrostatic_energy": 9.87, 
			 "SMD_solvation_energy": 4.83 
		},
		"coords": [
			{
				"x": 1.1304047098,
				"y": -1.8888899948,
				"z": 0.4148351455,
				"element": "C" 
			},
			{
				"x": 0.9483598642,
				"y": -0.5753949976,
				"z": -0.3643524062,
				"element": "C" 
			},
			{
				"x": 2.3319978308,
				"y": 0.1029667588,
				"z": -0.4637099032,
				"element": "C" 
			},
			{
				"x": 0.2831532144,
				"y": -0.7557805201,
				"z": -1.7730966599,
				"element": "C" 
			},
			{
				"x": -1.1163301662,
				"y": -1.3181463007,
				"z": -1.4405126354,
				"element": "C" 
			},
			{
				"x": -1.4889811531,
				"y": -0.556953925,
				"z": -0.1344161112,
				"element": "C" 
			},
			{
				"x": -0.225737769,
				"y": 0.3347398405,
				"z": 0.1621951478,
				"element": "C" 
			},
			{
				"x": -0.3237750355,
				"y": 0.9147579009,
				"z": 1.5683376799,
				"element": "C" 
			},
			{
				"x": 1.1730355345,
				"y": 1.6433276878,
				"z": 2.2758068495,
				"element": "S" 
			},
			{
				"x": 0.4351026204,
				"y": 2.3489446533,
				"z": 3.5425309664,
				"element": "F" 
			},
			{
				"x": 1.7049131093,
				"y": 2.7156579702,
				"z": 1.4575136946,
				"element": "O" 
			},
			{
				"x": 2.0293870997,
				"y": 0.6133683778,
				"z": 2.8440111354,
				"element": "O" 
			},
			{
				"x": -0.3233431014,
				"y": 1.401404015,
				"z": -0.9462496049,
				"element": "C" 
			},
			{
				"x": -0.7241792213,
				"y": 2.5346253631,
				"z": -0.806559539,
				"element": "O" 
			},
			{
				"x": 0.0803807095,
				"y": 0.700336098,
				"z": -2.2475067655,
				"element": "C" 
			},
			{
				"x": 1.86416239,
				"y": -2.5219863649,
				"z": -0.0964135479,
				"element": "H" 
			},
			{
				"x": 1.5179470659,
				"y": -1.6833132178,
				"z": 1.4172382992,
				"element": "H" 
			},
			{
				"x": 0.2136259333,
				"y": -2.4727212075,
				"z": 0.5210136069,
				"element": "H" 
			},
			{
				"x": 2.9581916581,
				"y": -0.4593848254,
				"z": -1.1655485807,
				"element": "H" 
			},
			{
				"x": 2.2950972527,
				"y": 1.1401229349,
				"z": -0.8031200382,
				"element": "H" 
			},
			{
				"x": 2.8433857963,
				"y": 0.0973570309,
				"z": 0.5006467893,
				"element": "H" 
			},
			{
				"x": 0.8652411226,
				"y": -1.3714898929,
				"z": -2.4640164626,
				"element": "H" 
			},
			{
				"x": -1.0905499715,
				"y": -2.3983276277,
				"z": -1.277306231,
				"element": "H" 
			},
			{
				"x": -1.8313493122,
				"y": -1.1318600709,
				"z": -2.2471919034,
				"element": "H" 
			},
			{
				"x": -1.6610796321,
				"y": -1.2419878715,
				"z": 0.701077907,
				"element": "H" 
			},
			{
				"x": -2.3887557981,
				"y": 0.0573326743,
				"z": -0.2352570974,
				"element": "H" 
			},
			{
				"x": -1.0461450779,
				"y": 1.7368828619,
				"z": 1.55388913,
				"element": "H" 
			},
			{
				"x": -0.6289954123,
				"y": 0.1702989306,
				"z": 2.3073181264,
				"element": "H" 
			},
			{
				"x": -0.6977237073,
				"y": 0.8212237481,
				"z": -3.0077204738,
				"element": "H" 
			},
			{
				"x": 0.9931594462,
				"y": 1.1558899709,
				"z": -2.6435365177,
				"element": "H" 
			}
		],
		 "valence_orbital": [ 
			{
				"type": "occ",
				"energy": -0.33144,
				"method": "rhf"
			},
			{
				"type": "occ",
				"energy": -0.32574,
				"method": "rhf"
			},
			{
				"type": "occ",
				"energy": -0.32193,
				"method": "rhf"
			},
			{
				"type": "occ",
				"energy": -0.31095,
				"method": "rhf"
			},
			{
				"type": "occ",
				"energy": -0.25207,
				"method": "rhf"
			},
			{
				"type": "unocc",
				"energy": -0.02882,
				"method": "rhf"
			},
			{
				"type": "unocc",
				"energy": 0.01013,
				"method": "rhf"
			},
			{
				"type": "unocc",
				"energy": 0.03826,
				"method": "rhf"
			},
			{
				"type": "unocc",
				"energy": 0.05508,
				"method": "rhf"
			},
			{
				"type": "unocc",
				"energy": 0.08445,
				"method": "rhf"
			}
		],
		"cosmo_sigma_profile": { 
			"-0.025": 0.0,
			"-0.024": 0.0,
			"-0.023": 0.0,
			"-0.022": 0.0,
			"-0.021": 0.0,
			"-0.02": 0.0,
			"-0.019": 0.0,
			"-0.018": 0.0,
			"-0.017": 0.0,
			"-0.016": 0.0,
			"-0.015": 0.0,
			"-0.014": 0.0,
			"-0.013": 0.0,
			"-0.012": 0.0,
			"-0.011": 0.0536259931348,
			"-0.01": 1.17759133109,
			"-0.009": 2.47238469353,
			"-0.008": 4.33682691928,
			"-0.007": 4.2306273873,
			"-0.006": 10.1435677913,
			"-0.005": 17.0006963544,
			"-0.004": 19.7027343515,
			"-0.003": 25.778958168,
			"-0.002": 22.7473920567,
			"-0.001": 22.8286386,
			"0.0": 22.9621128357,
			"0.001": 12.2617571526,
			"0.002": 12.2355376573,
			"0.003": 12.0085714827,
			"0.004": 4.99266753356,
			"0.005": 3.86881101151,
			"0.006": 4.70939756044,
			"0.007": 6.03167769987,
			"0.008": 7.81627080322,
			"0.009": 11.3586507481,
			"0.01": 4.06979488051,
			"0.011": 4.37767195301,
			"0.012": 2.31361433421,
			"0.013": 0.431738503105,
			"0.014": 0.0,
			"0.015": 0.0,
			"0.016": 0.0,
			"0.017": 0.0,
			"0.018": 0.0,
			"0.019": 0.0,
			"0.02": 0.0,
			"0.021": 0.0,
			"0.022": 0.0,
			"0.023": 0.0,
			"0.024": 0.0,
			"0.025": 0.0
		}
	}
}
