{
	 "smiles": "IC1CCS(=O)(=O)CC1", 
	 "Tm": 398.15, 
	 "num_atms": 18, 
	 "gaussian": { 
		 "optdone": 1, 
		 "sigma_profile": "yes", 
		 "theory": "DFT", 
		 "functional": "B3LYP", 
		 "basiset": "6-31G**", 
		 "properties": { 
			 "R2extent": 1734.6926, 
			 "electric_dipole_moment_norm": 3.74448177189, 
			 "electric_quadrupole_moment_norm": 11.8825481341, 
			 "total_energy": -755.922082788, 
			 "HOMO_LUMO_gap": 0.20991, 
			 "cosmo_polarized_energy": -16.84, 
			 "cosmo_cavitation_energy": 24.13, 
			 "cosmo_dispersion_energy": -19.8, 
			 "cosmo_repulsion_energy": 1.52, 
			 "cosmo_total_nonelectrostatic_energy": 5.85, 
			 "SMD_solvation_energy": 1.86 
		},
		"coords": [
			{
				"x": 3.3440189689,
				"y": -0.0183917814,
				"z": 2.424100556,
				"element": "I" 
			},
			{
				"x": 1.8826650076,
				"y": 0.2643120578,
				"z": 0.7886891969,
				"element": "C" 
			},
			{
				"x": 1.9404430389,
				"y": -0.8977335162,
				"z": -0.2202831127,
				"element": "C" 
			},
			{
				"x": 0.9927215339,
				"y": -2.0448239658,
				"z": 0.1314265654,
				"element": "C" 
			},
			{
				"x": -0.7442169134,
				"y": -1.5075551394,
				"z": -0.0753638339,
				"element": "S" 
			},
			{
				"x": -1.0865923434,
				"y": -1.6000133687,
				"z": -1.5041171808,
				"element": "O" 
			},
			{
				"x": -1.5630861077,
				"y": -2.1807621568,
				"z": 0.9449742326,
				"element": "O" 
			},
			{
				"x": -0.62379124,
				"y": 0.2673330319,
				"z": 0.3646426426,
				"element": "C" 
			},
			{
				"x": 0.4868825367,
				"y": 0.4866829529,
				"z": 1.4002409019,
				"element": "C" 
			},
			{
				"x": 2.2486171252,
				"y": 1.1766615277,
				"z": 0.3179635798,
				"element": "H" 
			},
			{
				"x": 2.9602725831,
				"y": -1.2746135225,
				"z": -0.3235005902,
				"element": "H" 
			},
			{
				"x": 1.6627531173,
				"y": -0.5036116474,
				"z": -1.2073144688,
				"element": "H" 
			},
			{
				"x": 1.1016062208,
				"y": -2.8931139991,
				"z": -0.5484734258,
				"element": "H" 
			},
			{
				"x": 1.1124698982,
				"y": -2.3906845388,
				"z": 1.1609223558,
				"element": "H" 
			},
			{
				"x": -0.4655864279,
				"y": 0.8228706635,
				"z": -0.5628052067,
				"element": "H" 
			},
			{
				"x": -1.6077711276,
				"y": 0.5181278276,
				"z": 0.7688529547,
				"element": "H" 
			},
			{
				"x": 0.3183180249,
				"y": -0.1957013726,
				"z": 2.2388301182,
				"element": "H" 
			},
			{
				"x": 0.4187761044,
				"y": 1.4985169473,
				"z": 1.809914715,
				"element": "H" 
			}
		],
		 "valence_orbital": [ 
			{
				"type": "occ",
				"energy": -0.31348,
				"method": "rhf"
			},
			{
				"type": "occ",
				"energy": -0.29942,
				"method": "rhf"
			},
			{
				"type": "occ",
				"energy": -0.28665,
				"method": "rhf"
			},
			{
				"type": "occ",
				"energy": -0.27435,
				"method": "rhf"
			},
			{
				"type": "occ",
				"energy": -0.27322,
				"method": "rhf"
			},
			{
				"type": "unocc",
				"energy": -0.06331,
				"method": "rhf"
			},
			{
				"type": "unocc",
				"energy": 0.0229,
				"method": "rhf"
			},
			{
				"type": "unocc",
				"energy": 0.03123,
				"method": "rhf"
			},
			{
				"type": "unocc",
				"energy": 0.04039,
				"method": "rhf"
			},
			{
				"type": "unocc",
				"energy": 0.05709,
				"method": "rhf"
			}
		],
		"cosmo_sigma_profile": { 
			"-0.025": 0.0,
			"-0.024": 0.0,
			"-0.023": 0.0,
			"-0.022": 0.0,
			"-0.021": 0.0,
			"-0.02": 0.0,
			"-0.019": 0.0,
			"-0.018": 0.0,
			"-0.017": 0.0,
			"-0.016": 0.0,
			"-0.015": 0.0,
			"-0.014": 0.0,
			"-0.013": 0.0,
			"-0.012": 0.0,
			"-0.011": 0.0022009765526,
			"-0.01": 0.454883756796,
			"-0.009": 2.60043926028,
			"-0.008": 9.98722365424,
			"-0.007": 13.7022619172,
			"-0.006": 18.3486097584,
			"-0.005": 18.45062971,
			"-0.004": 17.7853820904,
			"-0.003": 12.74688037,
			"-0.002": 8.47061463106,
			"-0.001": 6.88541170409,
			"0.0": 5.29646738789,
			"0.001": 5.38629085067,
			"0.002": 6.20461824962,
			"0.003": 7.24058635936,
			"0.004": 7.2548284481,
			"0.005": 11.5930650371,
			"0.006": 8.2821868876,
			"0.007": 2.18743027172,
			"0.008": 2.61928240861,
			"0.009": 2.57421163838,
			"0.01": 2.80192166678,
			"0.011": 8.88921011863,
			"0.012": 11.4409423628,
			"0.013": 3.0043905428,
			"0.014": 0.0,
			"0.015": 0.0,
			"0.016": 0.0,
			"0.017": 0.0,
			"0.018": 0.0,
			"0.019": 0.0,
			"0.02": 0.0,
			"0.021": 0.0,
			"0.022": 0.0,
			"0.023": 0.0,
			"0.024": 0.0,
			"0.025": 0.0
		}
	}
}
