{
	 "smiles": "NNC1=CC=C(C=C1)S(O)(=O)=O", 
	 "Tm": 559.15, 
	 "num_atms": 20, 
	 "gaussian": { 
		 "optdone": 1, 
		 "sigma_profile": "yes", 
		 "theory": "DFT", 
		 "functional": "B3LYP", 
		 "basiset": "6-31G**", 
		 "properties": { 
			 "R2extent": 3014.028, 
			 "electric_dipole_moment_norm": 5.07900639988, 
			 "electric_quadrupole_moment_norm": 14.3412364962, 
			 "total_energy": -966.718888152, 
			 "HOMO_LUMO_gap": 0.19567, 
			 "cosmo_polarized_energy": -20.18, 
			 "cosmo_cavitation_energy": 25.98, 
			 "cosmo_dispersion_energy": -19.84, 
			 "cosmo_repulsion_energy": 1.54, 
			 "cosmo_total_nonelectrostatic_energy": 7.68, 
			 "SMD_solvation_energy": 3.94 
		},
		"coords": [
			{
				"x": 3.2022563898,
				"y": -2.6382308112,
				"z": -1.0239818352,
				"element": "N" 
			},
			{
				"x": 2.448956018,
				"y": -2.1048042697,
				"z": 0.0317523438,
				"element": "N" 
			},
			{
				"x": 1.4734585568,
				"y": -1.1412649801,
				"z": -0.1362375605,
				"element": "C" 
			},
			{
				"x": 1.3833448658,
				"y": -0.3740085692,
				"z": -1.3154678917,
				"element": "C" 
			},
			{
				"x": 0.4093385658,
				"y": 0.6092401038,
				"z": -1.4397317564,
				"element": "C" 
			},
			{
				"x": -0.4834536571,
				"y": 0.8390345851,
				"z": -0.391334042,
				"element": "C" 
			},
			{
				"x": -0.4034700061,
				"y": 0.0935333543,
				"z": 0.7916500607,
				"element": "C" 
			},
			{
				"x": 0.5644838909,
				"y": -0.8886503125,
				"z": 0.9156950805,
				"element": "C" 
			},
			{
				"x": -1.7226834563,
				"y": 2.0887891953,
				"z": -0.5555034281,
				"element": "S" 
			},
			{
				"x": -2.928218063,
				"y": 1.1998205661,
				"z": -1.2552368672,
				"element": "O" 
			},
			{
				"x": -2.1706523904,
				"y": 2.5006567231,
				"z": 0.7710055895,
				"element": "O" 
			},
			{
				"x": -1.3175972826,
				"y": 3.08381113,
				"z": -1.5510483348,
				"element": "O" 
			},
			{
				"x": 3.9176334921,
				"y": -1.9704365196,
				"z": -1.301182928,
				"element": "H" 
			},
			{
				"x": 2.6094053123,
				"y": -2.8271683702,
				"z": -1.8328042858,
				"element": "H" 
			},
			{
				"x": 2.3187957145,
				"y": -2.7610598334,
				"z": 0.7880558473,
				"element": "H" 
			},
			{
				"x": 2.0843584553,
				"y": -0.5407527357,
				"z": -2.125215294,
				"element": "H" 
			},
			{
				"x": 0.3481149945,
				"y": 1.2097237252,
				"z": -2.3409487861,
				"element": "H" 
			},
			{
				"x": -1.0941116523,
				"y": 0.2957579239,
				"z": 1.6028228461,
				"element": "H" 
			},
			{
				"x": 0.633318884,
				"y": -1.4685983717,
				"z": 1.8321863084,
				"element": "H" 
			},
			{
				"x": -3.4237786321,
				"y": 1.8157074663,
				"z": -1.8222750666,
				"element": "H" 
			}
		],
		 "valence_orbital": [ 
			{
				"type": "occ",
				"energy": -0.31088,
				"method": "rhf"
			},
			{
				"type": "occ",
				"energy": -0.29185,
				"method": "rhf"
			},
			{
				"type": "occ",
				"energy": -0.28753,
				"method": "rhf"
			},
			{
				"type": "occ",
				"energy": -0.27382,
				"method": "rhf"
			},
			{
				"type": "occ",
				"energy": -0.22639,
				"method": "rhf"
			},
			{
				"type": "unocc",
				"energy": -0.03072,
				"method": "rhf"
			},
			{
				"type": "unocc",
				"energy": -0.02143,
				"method": "rhf"
			},
			{
				"type": "unocc",
				"energy": 0.04702,
				"method": "rhf"
			},
			{
				"type": "unocc",
				"energy": 0.05918,
				"method": "rhf"
			},
			{
				"type": "unocc",
				"energy": 0.07869,
				"method": "rhf"
			}
		],
		"cosmo_sigma_profile": { 
			"-0.025": 0.0,
			"-0.024": 0.0,
			"-0.023": 0.0,
			"-0.022": 0.0,
			"-0.021": 0.0,
			"-0.02": 0.425560859971,
			"-0.019": 0.8503542072,
			"-0.018": 1.19988371784,
			"-0.017": 1.08960460808,
			"-0.016": 0.7271832574,
			"-0.015": 0.392992430806,
			"-0.014": 0.792569224602,
			"-0.013": 2.25698123407,
			"-0.012": 2.58741572931,
			"-0.011": 5.01749461663,
			"-0.01": 4.90719243951,
			"-0.009": 4.9190240523,
			"-0.008": 6.56868426744,
			"-0.007": 9.59391804962,
			"-0.006": 9.93967917152,
			"-0.005": 9.61065128772,
			"-0.004": 6.92736937086,
			"-0.003": 8.24905561391,
			"-0.002": 7.86182881722,
			"-0.001": 8.76891362711,
			"0.0": 9.37584758756,
			"0.001": 9.67253824277,
			"0.002": 12.1640506564,
			"0.003": 17.1734702093,
			"0.004": 11.2925955197,
			"0.005": 6.64928517002,
			"0.006": 4.50242440088,
			"0.007": 5.9546655396,
			"0.008": 6.66884632453,
			"0.009": 7.3204772736,
			"0.01": 10.8136119231,
			"0.011": 8.29410654889,
			"0.012": 1.29433146293,
			"0.013": 0.910295697658,
			"0.014": 0.475036868038,
			"0.015": 0.583550646651,
			"0.016": 0.382279416955,
			"0.017": 0.114191329257,
			"0.018": 0.0,
			"0.019": 0.0,
			"0.02": 0.0,
			"0.021": 0.0,
			"0.022": 0.0,
			"0.023": 0.0,
			"0.024": 0.0,
			"0.025": 0.0
		}
	}
}
