{
	 "smiles": "CC(=O)NC1=CC=C(C=C1)C1=CC=C(C=C1)N(NC1=CC=CC=C1)C(C)=O", 
	 "Tm": 506.15, 
	 "num_atms": 48, 
	 "gaussian": { 
		 "optdone": 1, 
		 "sigma_profile": "yes", 
		 "theory": "DFT", 
		 "functional": "B3LYP", 
		 "basiset": "6-31G**", 
		 "properties": { 
			 "R2extent": 18154.1742, 
			 "electric_dipole_moment_norm": 5.0631856553, 
			 "electric_quadrupole_moment_norm": 39.1430618138, 
			 "total_energy": -1165.70917801, 
			 "HOMO_LUMO_gap": 0.16985, 
			 "cosmo_polarized_energy": -21.69, 
			 "cosmo_cavitation_energy": 51.88, 
			 "cosmo_dispersion_energy": -36.19, 
			 "cosmo_repulsion_energy": 2.72, 
			 "cosmo_total_nonelectrostatic_energy": 18.41, 
			 "SMD_solvation_energy": 10.49 
		},
		"coords": [
			{
				"x": -7.1043270606,
				"y": -0.7894977847,
				"z": -3.8962017413,
				"element": "C" 
			},
			{
				"x": -7.5566726114,
				"y": 0.530259524,
				"z": -3.3009077177,
				"element": "C" 
			},
			{
				"x": -8.6171985425,
				"y": 1.0514315378,
				"z": -3.6149294671,
				"element": "O" 
			},
			{
				"x": -6.7490588898,
				"y": 1.1513613494,
				"z": -2.3607109399,
				"element": "N" 
			},
			{
				"x": -5.5093992116,
				"y": 0.7889813522,
				"z": -1.7912712955,
				"element": "C" 
			},
			{
				"x": -5.2984070718,
				"y": 1.0412093912,
				"z": -0.4264916036,
				"element": "C" 
			},
			{
				"x": -4.081726227,
				"y": 0.7375086935,
				"z": 0.172915836,
				"element": "C" 
			},
			{
				"x": -3.0295005321,
				"y": 0.1594104882,
				"z": -0.5588749534,
				"element": "C" 
			},
			{
				"x": -3.2495636657,
				"y": -0.079037389,
				"z": -1.9254689473,
				"element": "C" 
			},
			{
				"x": -4.4577849877,
				"y": 0.2405571613,
				"z": -2.539492405,
				"element": "C" 
			},
			{
				"x": -1.7372895717,
				"y": -0.1761449434,
				"z": 0.0838805545,
				"element": "C" 
			},
			{
				"x": -1.0033504323,
				"y": -1.3096746574,
				"z": -0.2942437087,
				"element": "C" 
			},
			{
				"x": 0.2105912716,
				"y": -1.6289143639,
				"z": 0.3064099523,
				"element": "C" 
			},
			{
				"x": 0.7458361728,
				"y": -0.8187435195,
				"z": 1.3227452209,
				"element": "C" 
			},
			{
				"x": 0.0236444141,
				"y": 0.3253089825,
				"z": 1.7105971382,
				"element": "C" 
			},
			{
				"x": -1.1880159938,
				"y": 0.6262678798,
				"z": 1.0964303355,
				"element": "C" 
			},
			{
				"x": 1.9833100994,
				"y": -1.2030231743,
				"z": 1.9380241816,
				"element": "N" 
			},
			{
				"x": 2.542580365,
				"y": -2.4296282764,
				"z": 1.5848197428,
				"element": "N" 
			},
			{
				"x": 3.2808729509,
				"y": -2.549619078,
				"z": 0.3869613918,
				"element": "C" 
			},
			{
				"x": 3.8135413508,
				"y": -1.4337665064,
				"z": -0.2717522361,
				"element": "C" 
			},
			{
				"x": 4.5927988179,
				"y": -1.613075807,
				"z": -1.4153277432,
				"element": "C" 
			},
			{
				"x": 4.8518893024,
				"y": -2.8896158857,
				"z": -1.9153911563,
				"element": "C" 
			},
			{
				"x": 4.3171484943,
				"y": -3.9989555734,
				"z": -1.2557652907,
				"element": "C" 
			},
			{
				"x": 3.5371516703,
				"y": -3.8360247707,
				"z": -0.1135955209,
				"element": "C" 
			},
			{
				"x": 2.6597819084,
				"y": -0.4922785223,
				"z": 2.944005841,
				"element": "C" 
			},
			{
				"x": 3.9076489513,
				"y": -1.1548687677,
				"z": 3.5011430907,
				"element": "C" 
			},
			{
				"x": 2.282750095,
				"y": 0.5973347303,
				"z": 3.3425840079,
				"element": "O" 
			},
			{
				"x": -6.5333626543,
				"y": -1.402387723,
				"z": -3.1954583256,
				"element": "H" 
			},
			{
				"x": -6.4827323863,
				"y": -0.6129749052,
				"z": -4.7805051035,
				"element": "H" 
			},
			{
				"x": -8.0001872542,
				"y": -1.3209808716,
				"z": -4.219169081,
				"element": "H" 
			},
			{
				"x": -7.2149674206,
				"y": 1.9540931064,
				"z": -1.9546974423,
				"element": "H" 
			},
			{
				"x": -6.1059680863,
				"y": 1.4599784859,
				"z": 0.1682021318,
				"element": "H" 
			},
			{
				"x": -3.9578869462,
				"y": 0.9192685155,
				"z": 1.236188603,
				"element": "H" 
			},
			{
				"x": -2.4437733351,
				"y": -0.4791587204,
				"z": -2.5335754797,
				"element": "H" 
			},
			{
				"x": -4.5678147471,
				"y": 0.0963074577,
				"z": -3.6077256663,
				"element": "H" 
			},
			{
				"x": -1.3948822009,
				"y": -1.9744319263,
				"z": -1.0585071144,
				"element": "H" 
			},
			{
				"x": 0.7370500633,
				"y": -2.510180743,
				"z": -0.0354822296,
				"element": "H" 
			},
			{
				"x": 0.4205806216,
				"y": 0.9733051048,
				"z": 2.4754982363,
				"element": "H" 
			},
			{
				"x": -1.7059093753,
				"y": 1.5309284559,
				"z": 1.4014072285,
				"element": "H" 
			},
			{
				"x": 1.9288774959,
				"y": -3.2101873054,
				"z": 1.7898501083,
				"element": "H" 
			},
			{
				"x": 3.6075429143,
				"y": -0.4362247267,
				"z": 0.1000666924,
				"element": "H" 
			},
			{
				"x": 4.9966266112,
				"y": -0.7396492609,
				"z": -1.9194321632,
				"element": "H" 
			},
			{
				"x": 5.4585989214,
				"y": -3.0194256475,
				"z": -2.805871607,
				"element": "H" 
			},
			{
				"x": 4.5058539826,
				"y": -5.0006378573,
				"z": -1.6314076055,
				"element": "H" 
			},
			{
				"x": 3.1307391609,
				"y": -4.704901835,
				"z": 0.3992407943,
				"element": "H" 
			},
			{
				"x": 3.6809860278,
				"y": -2.1267002063,
				"z": 3.9471586661,
				"element": "H" 
			},
			{
				"x": 4.6570558526,
				"y": -1.3243792763,
				"z": 2.7232934487,
				"element": "H" 
			},
			{
				"x": 4.3092216884,
				"y": -0.4828221916,
				"z": 4.2596333424,
				"element": "H" 
			}
		],
		 "valence_orbital": [ 
			{
				"type": "occ",
				"energy": -0.25499,
				"method": "rhf"
			},
			{
				"type": "occ",
				"energy": -0.25159,
				"method": "rhf"
			},
			{
				"type": "occ",
				"energy": -0.24252,
				"method": "rhf"
			},
			{
				"type": "occ",
				"energy": -0.22197,
				"method": "rhf"
			},
			{
				"type": "occ",
				"energy": -0.20706,
				"method": "rhf"
			},
			{
				"type": "unocc",
				"energy": -0.03721,
				"method": "rhf"
			},
			{
				"type": "unocc",
				"energy": -0.01493,
				"method": "rhf"
			},
			{
				"type": "unocc",
				"energy": -0.01253,
				"method": "rhf"
			},
			{
				"type": "unocc",
				"energy": -0.00565,
				"method": "rhf"
			},
			{
				"type": "unocc",
				"energy": 0.00104,
				"method": "rhf"
			}
		],
		"cosmo_sigma_profile": { 
			"-0.025": 0.0,
			"-0.024": 0.0,
			"-0.023": 0.0,
			"-0.022": 0.0,
			"-0.021": 0.0,
			"-0.02": 0.0,
			"-0.019": 0.0,
			"-0.018": 0.0,
			"-0.017": 0.0,
			"-0.016": 0.0,
			"-0.015": 0.0203284659613,
			"-0.014": 1.57481949856,
			"-0.013": 2.15615921434,
			"-0.012": 2.8011251763,
			"-0.011": 1.78929071872,
			"-0.01": 2.91321577794,
			"-0.009": 3.42560222496,
			"-0.008": 3.51920223708,
			"-0.007": 7.57975257606,
			"-0.006": 17.1516572334,
			"-0.005": 33.6400975955,
			"-0.004": 34.833854025,
			"-0.003": 36.0069353258,
			"-0.002": 32.9545763088,
			"-0.001": 31.4073377089,
			"0.0": 23.9101255633,
			"0.001": 21.5761779809,
			"0.002": 24.2686636249,
			"0.003": 29.1911288672,
			"0.004": 31.5089699984,
			"0.005": 26.678687284,
			"0.006": 11.8135549257,
			"0.007": 4.80670491656,
			"0.008": 1.58422471112,
			"0.009": 2.81973961257,
			"0.01": 3.31938432998,
			"0.011": 3.41005084931,
			"0.012": 5.18456198941,
			"0.013": 6.68611568349,
			"0.014": 4.681333129,
			"0.015": 0.653209996899,
			"0.016": 0.0,
			"0.017": 0.0,
			"0.018": 0.0,
			"0.019": 0.0,
			"0.02": 0.0,
			"0.021": 0.0,
			"0.022": 0.0,
			"0.023": 0.0,
			"0.024": 0.0,
			"0.025": 0.0
		}
	}
}
