{
	 "smiles": "CC(C)CCl", 
	 "Tm": 142.15, 
	 "num_atms": 14, 
	 "gaussian": { 
		 "optdone": 1, 
		 "sigma_profile": "yes", 
		 "theory": "DFT", 
		 "functional": "B3LYP", 
		 "basiset": "6-31G**", 
		 "properties": { 
			 "R2extent": 1745.2124, 
			 "electric_dipole_moment_norm": 2.29093786035, 
			 "electric_quadrupole_moment_norm": 9.4605898537, 
			 "total_energy": -618.060380513, 
			 "HOMO_LUMO_gap": 0.31706, 
			 "cosmo_polarized_energy": -3.58, 
			 "cosmo_cavitation_energy": 17.73, 
			 "cosmo_dispersion_energy": -13.23, 
			 "cosmo_repulsion_energy": 1.17, 
			 "cosmo_total_nonelectrostatic_energy": 5.67, 
			 "SMD_solvation_energy": 2.93 
		},
		"coords": [
			{
				"x": 0.4868293015,
				"y": 0.278938568,
				"z": -0.5484967538,
				"element": "C" 
			},
			{
				"x": -0.2565996149,
				"y": -0.391461121,
				"z": -1.7170954346,
				"element": "C" 
			},
			{
				"x": -1.7764055984,
				"y": -0.2754312135,
				"z": -1.5501080466,
				"element": "C" 
			},
			{
				"x": 0.2106958473,
				"y": -1.8444512478,
				"z": -1.8214134501,
				"element": "C" 
			},
			{
				"x": -0.4249868425,
				"y": -2.6961092719,
				"z": -3.3022149384,
				"element": "Cl" 
			},
			{
				"x": 0.1982937404,
				"y": 1.3314466846,
				"z": -0.4649978299,
				"element": "H" 
			},
			{
				"x": 0.2454772677,
				"y": -0.2062570232,
				"z": 0.4048206145,
				"element": "H" 
			},
			{
				"x": 1.5732490618,
				"y": 0.2389893731,
				"z": -0.6816738195,
				"element": "H" 
			},
			{
				"x": 0.034312615,
				"y": 0.115391964,
				"z": -2.6464826849,
				"element": "H" 
			},
			{
				"x": -2.0795854927,
				"y": 0.7752736362,
				"z": -1.4998447808,
				"element": "H" 
			},
			{
				"x": -2.3062601618,
				"y": -0.7426900106,
				"z": -2.3840508344,
				"element": "H" 
			},
			{
				"x": -2.105303546,
				"y": -0.7622219979,
				"z": -0.6237025558,
				"element": "H" 
			},
			{
				"x": -0.1261629314,
				"y": -2.4352934103,
				"z": -0.965930661,
				"element": "H" 
			},
			{
				"x": 1.2979463541,
				"y": -1.9088249296,
				"z": -1.8910088248,
				"element": "H" 
			}
		],
		 "valence_orbital": [ 
			{
				"type": "occ",
				"energy": -0.35678,
				"method": "rhf"
			},
			{
				"type": "occ",
				"energy": -0.3424,
				"method": "rhf"
			},
			{
				"type": "occ",
				"energy": -0.3384,
				"method": "rhf"
			},
			{
				"type": "occ",
				"energy": -0.28986,
				"method": "rhf"
			},
			{
				"type": "occ",
				"energy": -0.28929,
				"method": "rhf"
			},
			{
				"type": "unocc",
				"energy": 0.02777,
				"method": "rhf"
			},
			{
				"type": "unocc",
				"energy": 0.08631,
				"method": "rhf"
			},
			{
				"type": "unocc",
				"energy": 0.11912,
				"method": "rhf"
			},
			{
				"type": "unocc",
				"energy": 0.13352,
				"method": "rhf"
			},
			{
				"type": "unocc",
				"energy": 0.14354,
				"method": "rhf"
			}
		],
		"cosmo_sigma_profile": { 
			"-0.025": 0.0,
			"-0.024": 0.0,
			"-0.023": 0.0,
			"-0.022": 0.0,
			"-0.021": 0.0,
			"-0.02": 0.0,
			"-0.019": 0.0,
			"-0.018": 0.0,
			"-0.017": 0.0,
			"-0.016": 0.0,
			"-0.015": 0.0,
			"-0.014": 0.0,
			"-0.013": 0.0,
			"-0.012": 0.0,
			"-0.011": 0.0,
			"-0.01": 0.0,
			"-0.009": 0.0,
			"-0.008": 0.0,
			"-0.007": 0.464292892565,
			"-0.006": 3.80071380165,
			"-0.005": 5.44427684639,
			"-0.004": 8.53992296482,
			"-0.003": 18.861370791,
			"-0.002": 16.733515223,
			"-0.001": 15.4895379397,
			"0.0": 16.0214306779,
			"0.001": 17.1086943,
			"0.002": 7.27500746765,
			"0.003": 4.73334450165,
			"0.004": 4.09998195186,
			"0.005": 5.2616998157,
			"0.006": 7.39376504019,
			"0.007": 7.86403895192,
			"0.008": 0.620488945121,
			"0.009": 0.0,
			"0.01": 0.0,
			"0.011": 0.0,
			"0.012": 0.0,
			"0.013": 0.0,
			"0.014": 0.0,
			"0.015": 0.0,
			"0.016": 0.0,
			"0.017": 0.0,
			"0.018": 0.0,
			"0.019": 0.0,
			"0.02": 0.0,
			"0.021": 0.0,
			"0.022": 0.0,
			"0.023": 0.0,
			"0.024": 0.0,
			"0.025": 0.0
		}
	}
}
