{
	 "smiles": "CC(C)(OC1=CC=C(Cl)C=C1)C(=O)OCC1=CC=CN=C1", 
	 "Tm": 321.65, 
	 "num_atms": 37, 
	 "gaussian": { 
		 "optdone": 1, 
		 "sigma_profile": "yes", 
		 "theory": "DFT", 
		 "functional": "B3LYP", 
		 "basiset": "6-31G**", 
		 "properties": { 
			 "R2extent": 7763.7824, 
			 "electric_dipole_moment_norm": 1.76296875185, 
			 "electric_quadrupole_moment_norm": 11.9245078188, 
			 "total_energy": -1359.96055492, 
			 "HOMO_LUMO_gap": 0.19219, 
			 "cosmo_polarized_energy": -13.06, 
			 "cosmo_cavitation_energy": 43.2, 
			 "cosmo_dispersion_energy": -28.45, 
			 "cosmo_repulsion_energy": 2.21, 
			 "cosmo_total_nonelectrostatic_energy": 16.96, 
			 "SMD_solvation_energy": 6.44 
		},
		"coords": [
			{
				"x": -1.7052088677,
				"y": -1.0630117202,
				"z": 2.8166755033,
				"element": "C" 
			},
			{
				"x": -0.970518034,
				"y": -1.6146108385,
				"z": 1.59161339,
				"element": "C" 
			},
			{
				"x": -1.2412713212,
				"y": -3.1185376998,
				"z": 1.4235430353,
				"element": "C" 
			},
			{
				"x": -1.4680812905,
				"y": -1.0400010837,
				"z": 0.3703390002,
				"element": "O" 
			},
			{
				"x": -1.2901715122,
				"y": 0.2728671288,
				"z": 0.0343414245,
				"element": "C" 
			},
			{
				"x": -0.5231179854,
				"y": 1.2130083451,
				"z": 0.7359347126,
				"element": "C" 
			},
			{
				"x": -0.4139832087,
				"y": 2.5225403037,
				"z": 0.2562432675,
				"element": "C" 
			},
			{
				"x": -1.0666582383,
				"y": 2.8929937307,
				"z": -0.9146511574,
				"element": "C" 
			},
			{
				"x": -0.9248248589,
				"y": 4.5422661212,
				"z": -1.5115719771,
				"element": "Cl" 
			},
			{
				"x": -1.8355550367,
				"y": 1.9649431597,
				"z": -1.6206676816,
				"element": "C" 
			},
			{
				"x": -1.943760055,
				"y": 0.6640146213,
				"z": -1.1448201838,
				"element": "C" 
			},
			{
				"x": 0.5573110832,
				"y": -1.4350652968,
				"z": 1.7295549376,
				"element": "C" 
			},
			{
				"x": 1.1251378016,
				"y": -1.212992943,
				"z": 2.7783270223,
				"element": "O" 
			},
			{
				"x": 1.181646648,
				"y": -1.6075023745,
				"z": 0.5519668491,
				"element": "O" 
			},
			{
				"x": 2.6252065831,
				"y": -1.4518919541,
				"z": 0.5698008927,
				"element": "C" 
			},
			{
				"x": 3.1044271932,
				"y": -1.3311581573,
				"z": -0.84876391,
				"element": "C" 
			},
			{
				"x": 2.6491635225,
				"y": -0.3095426251,
				"z": -1.6910050538,
				"element": "C" 
			},
			{
				"x": 3.14694953,
				"y": -0.2365746032,
				"z": -2.988063046,
				"element": "C" 
			},
			{
				"x": 4.0884061528,
				"y": -1.1850876863,
				"z": -3.3972927074,
				"element": "C" 
			},
			{
				"x": 4.5360146254,
				"y": -2.1691410409,
				"z": -2.6098500858,
				"element": "N" 
			},
			{
				"x": 4.0414479242,
				"y": -2.2298211438,
				"z": -1.3678672332,
				"element": "C" 
			},
			{
				"x": -1.3224410524,
				"y": -1.5327757507,
				"z": 3.724518098,
				"element": "H" 
			},
			{
				"x": -1.5840534377,
				"y": 0.0161302185,
				"z": 2.9218135619,
				"element": "H" 
			},
			{
				"x": -2.7714519491,
				"y": -1.2832172014,
				"z": 2.7198043713,
				"element": "H" 
			},
			{
				"x": -0.8943991195,
				"y": -3.6691050389,
				"z": 2.3022999287,
				"element": "H" 
			},
			{
				"x": -0.7296131233,
				"y": -3.4968203093,
				"z": 0.5363175137,
				"element": "H" 
			},
			{
				"x": -2.3161477462,
				"y": -3.2796610523,
				"z": 1.3072951588,
				"element": "H" 
			},
			{
				"x": -0.0075342584,
				"y": 0.9565320163,
				"z": 1.6527855824,
				"element": "H" 
			},
			{
				"x": 0.1777669159,
				"y": 3.2491177771,
				"z": 0.8022699352,
				"element": "H" 
			},
			{
				"x": -2.3432903472,
				"y": 2.2593870052,
				"z": -2.5325612463,
				"element": "H" 
			},
			{
				"x": -2.5323466199,
				"y": -0.0753452995,
				"z": -1.6773978997,
				"element": "H" 
			},
			{
				"x": 3.0694452421,
				"y": -2.3166284954,
				"z": 1.0722604401,
				"element": "H" 
			},
			{
				"x": 2.8650462609,
				"y": -0.565137087,
				"z": 1.1645429517,
				"element": "H" 
			},
			{
				"x": 1.9128369674,
				"y": 0.405700717,
				"z": -1.3349259235,
				"element": "H" 
			},
			{
				"x": 2.817140222,
				"y": 0.539293544,
				"z": -3.6717493509,
				"element": "H" 
			},
			{
				"x": 4.4993645487,
				"y": -1.1523075692,
				"z": -4.4049036433,
				"element": "H" 
			},
			{
				"x": 4.4141168414,
				"y": -3.0426577176,
				"z": -0.744356477,
				"element": "H" 
			}
		],
		 "valence_orbital": [ 
			{
				"type": "occ",
				"energy": -0.28273,
				"method": "rhf"
			},
			{
				"type": "occ",
				"energy": -0.26829,
				"method": "rhf"
			},
			{
				"type": "occ",
				"energy": -0.26426,
				"method": "rhf"
			},
			{
				"type": "occ",
				"energy": -0.25845,
				"method": "rhf"
			},
			{
				"type": "occ",
				"energy": -0.22569,
				"method": "rhf"
			},
			{
				"type": "unocc",
				"energy": -0.0335,
				"method": "rhf"
			},
			{
				"type": "unocc",
				"energy": -0.02101,
				"method": "rhf"
			},
			{
				"type": "unocc",
				"energy": -0.0193,
				"method": "rhf"
			},
			{
				"type": "unocc",
				"energy": -0.00895,
				"method": "rhf"
			},
			{
				"type": "unocc",
				"energy": -0.00413,
				"method": "rhf"
			}
		],
		"cosmo_sigma_profile": { 
			"-0.025": 0.0,
			"-0.024": 0.0,
			"-0.023": 0.0,
			"-0.022": 0.0,
			"-0.021": 0.0,
			"-0.02": 0.0,
			"-0.019": 0.0,
			"-0.018": 0.0,
			"-0.017": 0.0,
			"-0.016": 0.0,
			"-0.015": 0.0,
			"-0.014": 0.0,
			"-0.013": 0.0,
			"-0.012": 0.0,
			"-0.011": 0.0,
			"-0.01": 0.0,
			"-0.009": 0.0,
			"-0.008": 1.39033534365,
			"-0.007": 12.4075332535,
			"-0.006": 20.057686772,
			"-0.005": 28.3654110983,
			"-0.004": 26.8806650915,
			"-0.003": 24.9843164889,
			"-0.002": 26.3040924731,
			"-0.001": 29.9454082105,
			"0.0": 26.7198850677,
			"0.001": 23.783775899,
			"0.002": 33.3789129076,
			"0.003": 25.7089342957,
			"0.004": 17.7274506339,
			"0.005": 15.1317189689,
			"0.006": 5.82922930497,
			"0.007": 5.34640359432,
			"0.008": 4.88291723086,
			"0.009": 3.31569971334,
			"0.01": 3.30754446632,
			"0.011": 5.17109249705,
			"0.012": 1.85564026643,
			"0.013": 0.959750401307,
			"0.014": 0.832286417213,
			"0.015": 0.622832769485,
			"0.016": 1.01510909502,
			"0.017": 0.238789049284,
			"0.018": 0.0,
			"0.019": 0.0,
			"0.02": 0.0,
			"0.021": 0.0,
			"0.022": 0.0,
			"0.023": 0.0,
			"0.024": 0.0,
			"0.025": 0.0
		}
	}
}
