{
	 "smiles": "CC1C=CC2C(C1C(O)=O)C(=O)N(CC(F)(F)F)C2=O", 
	 "Tm": 440.15, 
	 "num_atms": 32, 
	 "gaussian": { 
		 "optdone": 1, 
		 "sigma_profile": "yes", 
		 "theory": "DFT", 
		 "functional": "B3LYP", 
		 "basiset": "6-31G**", 
		 "properties": { 
			 "R2extent": 6420.5489, 
			 "electric_dipole_moment_norm": 4.31483326329, 
			 "electric_quadrupole_moment_norm": 22.6692539659, 
			 "total_energy": -1119.71498909, 
			 "HOMO_LUMO_gap": 0.2009, 
			 "cosmo_polarized_energy": -19.75, 
			 "cosmo_cavitation_energy": 35.54, 
			 "cosmo_dispersion_energy": -24.36, 
			 "cosmo_repulsion_energy": 1.79, 
			 "cosmo_total_nonelectrostatic_energy": 12.97, 
			 "SMD_solvation_energy": 8.65 
		},
		"coords": [
			{
				"x": -0.4590731173,
				"y": -2.7419707481,
				"z": 0.4690663387,
				"element": "C" 
			},
			{
				"x": -1.2858230036,
				"y": -1.558075178,
				"z": -0.0768650237,
				"element": "C" 
			},
			{
				"x": -0.9555385088,
				"y": -1.2748393233,
				"z": -1.5215498321,
				"element": "C" 
			},
			{
				"x": -0.3135302182,
				"y": -0.1890888349,
				"z": -1.9600602926,
				"element": "C" 
			},
			{
				"x": 0.2392787641,
				"y": 0.8957268624,
				"z": -1.0571086739,
				"element": "C" 
			},
			{
				"x": 0.0644710042,
				"y": 0.5946886798,
				"z": 0.4522331928,
				"element": "C" 
			},
			{
				"x": -1.2010679023,
				"y": -0.2438009517,
				"z": 0.7465500726,
				"element": "C" 
			},
			{
				"x": -1.5993018026,
				"y": -0.4956884889,
				"z": 2.2147282003,
				"element": "C" 
			},
			{
				"x": -0.6456758183,
				"y": -0.674750867,
				"z": 3.135851835,
				"element": "O" 
			},
			{
				"x": -2.7732617056,
				"y": -0.5641638278,
				"z": 2.5051582485,
				"element": "O" 
			},
			{
				"x": 1.4321697506,
				"y": 0.0646624823,
				"z": 0.8717344954,
				"element": "C" 
			},
			{
				"x": 1.7289726062,
				"y": -0.5209345761,
				"z": 1.9054149318,
				"element": "O" 
			},
			{
				"x": 2.3500239884,
				"y": 0.4007355378,
				"z": -0.1051265548,
				"element": "N" 
			},
			{
				"x": 3.7771792316,
				"y": 0.1805437634,
				"z": 0.0217407244,
				"element": "C" 
			},
			{
				"x": 4.4763916066,
				"y": 1.3743848587,
				"z": 0.6617830212,
				"element": "C" 
			},
			{
				"x": 3.9902941927,
				"y": 1.6271636521,
				"z": 1.8921049364,
				"element": "F" 
			},
			{
				"x": 5.7934062343,
				"y": 1.1185809767,
				"z": 0.7717734669,
				"element": "F" 
			},
			{
				"x": 4.3218857594,
				"y": 2.4900399061,
				"z": -0.073997356,
				"element": "F" 
			},
			{
				"x": 1.7554964791,
				"y": 0.9380652185,
				"z": -1.2638490985,
				"element": "C" 
			},
			{
				"x": 2.3717349035,
				"y": 1.2874871719,
				"z": -2.2416181062,
				"element": "O" 
			},
			{
				"x": 0.6149878498,
				"y": -2.5384008819,
				"z": 0.4573283544,
				"element": "H" 
			},
			{
				"x": -0.6309333218,
				"y": -3.6309101162,
				"z": -0.1460832453,
				"element": "H" 
			},
			{
				"x": -0.7485892509,
				"y": -2.9854527607,
				"z": 1.4951779361,
				"element": "H" 
			},
			{
				"x": -2.3393141257,
				"y": -1.8624981232,
				"z": -0.0274728136,
				"element": "H" 
			},
			{
				"x": -1.2753496079,
				"y": -2.0215402948,
				"z": -2.2465961206,
				"element": "H" 
			},
			{
				"x": -0.115155389,
				"y": -0.0517271891,
				"z": -3.0198562268,
				"element": "H" 
			},
			{
				"x": -0.170145364,
				"y": 1.870937662,
				"z": -1.3441146233,
				"element": "H" 
			},
			{
				"x": -0.0301879433,
				"y": 1.5468144364,
				"z": 0.9934227668,
				"element": "H" 
			},
			{
				"x": -2.024580715,
				"y": 0.3770247013,
				"z": 0.3797230389,
				"element": "H" 
			},
			{
				"x": 0.2651720864,
				"y": -0.6610870429,
				"z": 2.7562840765,
				"element": "H" 
			},
			{
				"x": 4.1947695726,
				"y": 0.0291362957,
				"z": -0.9751126696,
				"element": "H" 
			},
			{
				"x": 3.9479937646,
				"y": -0.6972630003,
				"z": 0.6472350004,
				"element": "H" 
			}
		],
		 "valence_orbital": [ 
			{
				"type": "occ",
				"energy": -0.31531,
				"method": "rhf"
			},
			{
				"type": "occ",
				"energy": -0.30298,
				"method": "rhf"
			},
			{
				"type": "occ",
				"energy": -0.30031,
				"method": "rhf"
			},
			{
				"type": "occ",
				"energy": -0.27461,
				"method": "rhf"
			},
			{
				"type": "occ",
				"energy": -0.25982,
				"method": "rhf"
			},
			{
				"type": "unocc",
				"energy": -0.05892,
				"method": "rhf"
			},
			{
				"type": "unocc",
				"energy": -0.02391,
				"method": "rhf"
			},
			{
				"type": "unocc",
				"energy": 0.00778,
				"method": "rhf"
			},
			{
				"type": "unocc",
				"energy": 0.01473,
				"method": "rhf"
			},
			{
				"type": "unocc",
				"energy": 0.05769,
				"method": "rhf"
			}
		],
		"cosmo_sigma_profile": { 
			"-0.025": 0.0,
			"-0.024": 0.0,
			"-0.023": 0.0,
			"-0.022": 0.0,
			"-0.021": 0.0,
			"-0.02": 0.0,
			"-0.019": 0.0,
			"-0.018": 0.0,
			"-0.017": 0.0,
			"-0.016": 0.0,
			"-0.015": 0.0,
			"-0.014": 0.0,
			"-0.013": 0.0,
			"-0.012": 0.0421489829201,
			"-0.011": 0.941382588716,
			"-0.01": 5.00420642089,
			"-0.009": 9.43668692853,
			"-0.008": 10.92225731,
			"-0.007": 11.0442680711,
			"-0.006": 14.8886930665,
			"-0.005": 13.0526449051,
			"-0.004": 19.6884657783,
			"-0.003": 17.7209842928,
			"-0.002": 17.3815658739,
			"-0.001": 16.7487121571,
			"0.0": 17.7431976509,
			"0.001": 17.5785403495,
			"0.002": 29.7443444056,
			"0.003": 18.9760956856,
			"0.004": 7.06475974537,
			"0.005": 5.59586703419,
			"0.006": 5.4165676516,
			"0.007": 5.56455738371,
			"0.008": 4.69810476294,
			"0.009": 6.15211868048,
			"0.01": 6.77806077737,
			"0.011": 7.32267302573,
			"0.012": 6.53948635387,
			"0.013": 4.06575984165,
			"0.014": 1.05803124065,
			"0.015": 0.0,
			"0.016": 0.0,
			"0.017": 0.0,
			"0.018": 0.0,
			"0.019": 0.0,
			"0.02": 0.0,
			"0.021": 0.0,
			"0.022": 0.0,
			"0.023": 0.0,
			"0.024": 0.0,
			"0.025": 0.0
		}
	}
}
