{
	 "smiles": "CC1=C(O)C(C=O)=C(COP(O)(O)=O)C=N1", 
	 "Tm": 528.15, 
	 "num_atms": 26, 
	 "gaussian": { 
		 "optdone": 1, 
		 "sigma_profile": "yes", 
		 "theory": "DFT", 
		 "functional": "B3LYP", 
		 "basiset": "6-31G**", 
		 "properties": { 
			 "R2extent": 5290.0052, 
			 "electric_dipole_moment_norm": 3.9442422707, 
			 "electric_quadrupole_moment_norm": 32.3901658588, 
			 "total_energy": -1158.39220345, 
			 "HOMO_LUMO_gap": 0.16554, 
			 "cosmo_polarized_energy": -26.12, 
			 "cosmo_cavitation_energy": 32.63, 
			 "cosmo_dispersion_energy": -24.21, 
			 "cosmo_repulsion_energy": 1.89, 
			 "cosmo_total_nonelectrostatic_energy": 10.31, 
			 "SMD_solvation_energy": 7.95 
		},
		"coords": [
			{
				"x": -2.6711529566,
				"y": -4.1281717546,
				"z": 1.6376024823,
				"element": "C" 
			},
			{
				"x": -1.7610226355,
				"y": -3.0098417692,
				"z": 1.1906747979,
				"element": "C" 
			},
			{
				"x": -1.007078722,
				"y": -3.1190813092,
				"z": 0.0050151482,
				"element": "C" 
			},
			{
				"x": -1.0677096388,
				"y": -4.2292901836,
				"z": -0.7817853686,
				"element": "O" 
			},
			{
				"x": -0.165760834,
				"y": -2.0644849832,
				"z": -0.3923747425,
				"element": "C" 
			},
			{
				"x": 0.6173312604,
				"y": -2.1963708474,
				"z": -1.6405097296,
				"element": "C" 
			},
			{
				"x": 1.3702598137,
				"y": -1.335279001,
				"z": -2.0684623276,
				"element": "O" 
			},
			{
				"x": -0.1086453081,
				"y": -0.9142382501,
				"z": 0.4304333238,
				"element": "C" 
			},
			{
				"x": 0.7710834836,
				"y": 0.2608874533,
				"z": 0.076511852,
				"element": "C" 
			},
			{
				"x": 0.6182626721,
				"y": 1.2754996403,
				"z": 1.0944853878,
				"element": "O" 
			},
			{
				"x": 1.3229560566,
				"y": 2.7040277873,
				"z": 0.9677304346,
				"element": "P" 
			},
			{
				"x": 2.8572423501,
				"y": 2.2674655502,
				"z": 0.7379520983,
				"element": "O" 
			},
			{
				"x": 0.9203774155,
				"y": 3.2753372726,
				"z": -0.4984289466,
				"element": "O" 
			},
			{
				"x": 1.0121828565,
				"y": 3.6235310956,
				"z": 2.0775299929,
				"element": "O" 
			},
			{
				"x": -0.893186989,
				"y": -0.90444594,
				"z": 1.5842073736,
				"element": "C" 
			},
			{
				"x": -1.6920680489,
				"y": -1.9177191318,
				"z": 1.9505978951,
				"element": "N" 
			},
			{
				"x": -2.1210494372,
				"y": -5.0612990559,
				"z": 1.8209800181,
				"element": "H" 
			},
			{
				"x": -3.1534347557,
				"y": -3.834589001,
				"z": 2.5704826874,
				"element": "H" 
			},
			{
				"x": -3.4589909294,
				"y": -4.3400030691,
				"z": 0.9018101524,
				"element": "H" 
			},
			{
				"x": -1.6765816231,
				"y": -4.8688248741,
				"z": -0.3904686824,
				"element": "H" 
			},
			{
				"x": 0.481313552,
				"y": -3.147136939,
				"z": -2.1853176318,
				"element": "H" 
			},
			{
				"x": 1.8213776344,
				"y": -0.0365095353,
				"z": 0.0170950423,
				"element": "H" 
			},
			{
				"x": 0.5002512617,
				"y": 0.6766697092,
				"z": -0.8981802467,
				"element": "H" 
			},
			{
				"x": 3.4495869718,
				"y": 3.0301459537,
				"z": 0.6860254534,
				"element": "H" 
			},
			{
				"x": 0.2411833381,
				"y": 3.958061646,
				"z": -0.4008224414,
				"element": "H" 
			},
			{
				"x": -0.8765267882,
				"y": -0.0435404636,
				"z": 2.2420159771,
				"element": "H" 
			}
		],
		 "valence_orbital": [ 
			{
				"type": "occ",
				"energy": -0.29382,
				"method": "rhf"
			},
			{
				"type": "occ",
				"energy": -0.28348,
				"method": "rhf"
			},
			{
				"type": "occ",
				"energy": -0.27338,
				"method": "rhf"
			},
			{
				"type": "occ",
				"energy": -0.25555,
				"method": "rhf"
			},
			{
				"type": "occ",
				"energy": -0.24537,
				"method": "rhf"
			},
			{
				"type": "unocc",
				"energy": -0.07983,
				"method": "rhf"
			},
			{
				"type": "unocc",
				"energy": -0.01292,
				"method": "rhf"
			},
			{
				"type": "unocc",
				"energy": 0.02339,
				"method": "rhf"
			},
			{
				"type": "unocc",
				"energy": 0.03215,
				"method": "rhf"
			},
			{
				"type": "unocc",
				"energy": 0.04484,
				"method": "rhf"
			}
		],
		"cosmo_sigma_profile": { 
			"-0.025": 0.0,
			"-0.024": 0.0,
			"-0.023": 0.0,
			"-0.022": 0.0,
			"-0.021": 0.120027150577,
			"-0.02": 0.91668569445,
			"-0.019": 2.20593350909,
			"-0.018": 2.2171709452,
			"-0.017": 2.41075580647,
			"-0.016": 2.4218065612,
			"-0.015": 2.59609845542,
			"-0.014": 1.86637604947,
			"-0.013": 2.03730923834,
			"-0.012": 4.18668359088,
			"-0.011": 3.79442288819,
			"-0.01": 1.63656112578,
			"-0.009": 1.42252504161,
			"-0.008": 3.13866300134,
			"-0.007": 5.04478384956,
			"-0.006": 7.35770270598,
			"-0.005": 11.4113399686,
			"-0.004": 14.8188759174,
			"-0.003": 16.1241338889,
			"-0.002": 15.1581949348,
			"-0.001": 22.8536082317,
			"0.0": 17.1177166931,
			"0.001": 15.5143099587,
			"0.002": 12.7259113995,
			"0.003": 11.5514714017,
			"0.004": 9.89504975486,
			"0.005": 9.86523226536,
			"0.006": 8.08762466446,
			"0.007": 8.9794916927,
			"0.008": 5.74340911854,
			"0.009": 5.20995912848,
			"0.01": 5.24956447666,
			"0.011": 5.20500174731,
			"0.012": 3.21305831672,
			"0.013": 4.47939700917,
			"0.014": 8.31642877781,
			"0.015": 1.32699521844,
			"0.016": 0.123539723523,
			"0.017": 0.0,
			"0.018": 0.0,
			"0.019": 0.0,
			"0.02": 0.0,
			"0.021": 0.0,
			"0.022": 0.0,
			"0.023": 0.0,
			"0.024": 0.0,
			"0.025": 0.0
		}
	}
}
