{
	 "smiles": "NC1=NC=CC(=C1)C#N", 
	 "Tm": 423.15, 
	 "num_atms": 14, 
	 "gaussian": { 
		 "optdone": 1, 
		 "sigma_profile": "yes", 
		 "theory": "DFT", 
		 "functional": "B3LYP", 
		 "basiset": "6-31G**", 
		 "properties": { 
			 "R2extent": 1291.5821, 
			 "electric_dipole_moment_norm": 3.76941560723, 
			 "electric_quadrupole_moment_norm": 20.2926897357, 
			 "total_energy": -395.891536407, 
			 "HOMO_LUMO_gap": 0.1711, 
			 "cosmo_polarized_energy": -12.36, 
			 "cosmo_cavitation_energy": 19.67, 
			 "cosmo_dispersion_energy": -14.2, 
			 "cosmo_repulsion_energy": 1.18, 
			 "cosmo_total_nonelectrostatic_energy": 6.65, 
			 "SMD_solvation_energy": 3.58 
		},
		"coords": [
			{
				"x": 1.373887695,
				"y": 0.7839051139,
				"z": 2.7304883802,
				"element": "N" 
			},
			{
				"x": 0.8755887248,
				"y": 0.4557131106,
				"z": 1.4915877957,
				"element": "C" 
			},
			{
				"x": 0.6503225692,
				"y": 1.4798063177,
				"z": 0.6511082297,
				"element": "N" 
			},
			{
				"x": 0.1195113664,
				"y": 1.2072516159,
				"z": -0.545496374,
				"element": "C" 
			},
			{
				"x": -0.2084681391,
				"y": -0.0699028103,
				"z": -0.987820305,
				"element": "C" 
			},
			{
				"x": 0.0378506283,
				"y": -1.1362762774,
				"z": -0.1047009076,
				"element": "C" 
			},
			{
				"x": 0.5830529622,
				"y": -0.8820741591,
				"z": 1.1528211554,
				"element": "C" 
			},
			{
				"x": -0.2703587177,
				"y": -2.4848905463,
				"z": -0.4916524055,
				"element": "C" 
			},
			{
				"x": -0.5190252356,
				"y": -3.5759120161,
				"z": -0.8072296749,
				"element": "N" 
			},
			{
				"x": 1.7392874436,
				"y": 1.7219541068,
				"z": 2.8071760433,
				"element": "H" 
			},
			{
				"x": 1.8581519843,
				"y": 0.0752672763,
				"z": 3.2589914573,
				"element": "H" 
			},
			{
				"x": -0.0487141967,
				"y": 2.0657728964,
				"z": -1.1929424882,
				"element": "H" 
			},
			{
				"x": -0.631592717,
				"y": -0.2398286868,
				"z": -1.9700538728,
				"element": "H" 
			},
			{
				"x": 0.7705056323,
				"y": -1.6916859415,
				"z": 1.8496229665,
				"element": "H" 
			}
		],
		 "valence_orbital": [ 
			{
				"type": "occ",
				"energy": -0.3372,
				"method": "rhf"
			},
			{
				"type": "occ",
				"energy": -0.32923,
				"method": "rhf"
			},
			{
				"type": "occ",
				"energy": -0.28908,
				"method": "rhf"
			},
			{
				"type": "occ",
				"energy": -0.27594,
				"method": "rhf"
			},
			{
				"type": "occ",
				"energy": -0.23379,
				"method": "rhf"
			},
			{
				"type": "unocc",
				"energy": -0.06269,
				"method": "rhf"
			},
			{
				"type": "unocc",
				"energy": -0.0131,
				"method": "rhf"
			},
			{
				"type": "unocc",
				"energy": 0.03153,
				"method": "rhf"
			},
			{
				"type": "unocc",
				"energy": 0.06824,
				"method": "rhf"
			},
			{
				"type": "unocc",
				"energy": 0.08035,
				"method": "rhf"
			}
		],
		"cosmo_sigma_profile": { 
			"-0.025": 0.0,
			"-0.024": 0.0,
			"-0.023": 0.0,
			"-0.022": 0.0,
			"-0.021": 0.0,
			"-0.02": 0.0,
			"-0.019": 0.0,
			"-0.018": 0.0,
			"-0.017": 0.0,
			"-0.016": 0.0,
			"-0.015": 0.0,
			"-0.014": 0.973243118387,
			"-0.013": 2.80901223376,
			"-0.012": 2.82302309422,
			"-0.011": 2.41053562795,
			"-0.01": 2.21520686728,
			"-0.009": 3.98795789615,
			"-0.008": 4.66106133276,
			"-0.007": 7.18938950943,
			"-0.006": 7.3884594405,
			"-0.005": 7.27011618195,
			"-0.004": 5.61031594187,
			"-0.003": 6.64303564215,
			"-0.002": 10.8685262284,
			"-0.001": 8.10652296513,
			"0.0": 12.2385462724,
			"0.001": 13.7666125617,
			"0.002": 10.4645425765,
			"0.003": 5.59527345834,
			"0.004": 4.34241645009,
			"0.005": 4.73248414804,
			"0.006": 4.85751928266,
			"0.007": 6.00932381605,
			"0.008": 5.70916247757,
			"0.009": 4.6453503811,
			"0.01": 3.59101227256,
			"0.011": 3.91767755395,
			"0.012": 3.6393872917,
			"0.013": 1.13445677416,
			"0.014": 0.856574436031,
			"0.015": 0.334219827252,
			"0.016": 0.0,
			"0.017": 0.0,
			"0.018": 0.0,
			"0.019": 0.0,
			"0.02": 0.0,
			"0.021": 0.0,
			"0.022": 0.0,
			"0.023": 0.0,
			"0.024": 0.0,
			"0.025": 0.0
		}
	}
}
