{
	 "smiles": "ClC(=O)C1=CC2=C(OCC2)C=C1", 
	 "Tm": 323.15, 
	 "num_atms": 19, 
	 "gaussian": { 
		 "optdone": 1, 
		 "sigma_profile": "yes", 
		 "theory": "DFT", 
		 "functional": "B3LYP", 
		 "basiset": "6-31G**", 
		 "properties": { 
			 "R2extent": 3129.3513, 
			 "electric_dipole_moment_norm": 5.49494758938, 
			 "electric_quadrupole_moment_norm": 18.6418388894, 
			 "total_energy": -957.821281756, 
			 "HOMO_LUMO_gap": 0.17371, 
			 "cosmo_polarized_energy": -8.61, 
			 "cosmo_cavitation_energy": 24.87, 
			 "cosmo_dispersion_energy": -18.91, 
			 "cosmo_repulsion_energy": 1.51, 
			 "cosmo_total_nonelectrostatic_energy": 7.47, 
			 "SMD_solvation_energy": 4.91 
		},
		"coords": [
			{
				"x": 0.5311094485,
				"y": 4.3193592506,
				"z": 1.0378077209,
				"element": "Cl" 
			},
			{
				"x": 0.0603208785,
				"y": 3.4200943866,
				"z": -0.5048476785,
				"element": "C" 
			},
			{
				"x": -0.1685846242,
				"y": 4.0664041486,
				"z": -1.4838733824,
				"element": "O" 
			},
			{
				"x": 0.0099834778,
				"y": 1.9547871639,
				"z": -0.380060689,
				"element": "C" 
			},
			{
				"x": 0.2995198849,
				"y": 1.253717618,
				"z": 0.8089855632,
				"element": "C" 
			},
			{
				"x": 0.2126281211,
				"y": -0.1255922558,
				"z": 0.8096464496,
				"element": "C" 
			},
			{
				"x": -0.1540566787,
				"y": -0.8072349957,
				"z": -0.3591142049,
				"element": "C" 
			},
			{
				"x": -0.1963800173,
				"y": -2.1504247248,
				"z": -0.211115785,
				"element": "O" 
			},
			{
				"x": 0.0048618723,
				"y": -2.4577663519,
				"z": 1.1988941806,
				"element": "C" 
			},
			{
				"x": 0.4947094593,
				"y": -1.1556846714,
				"z": 1.8809284387,
				"element": "C" 
			},
			{
				"x": -0.4389489617,
				"y": -0.141370352,
				"z": -1.5519737191,
				"element": "C" 
			},
			{
				"x": -0.3521076434,
				"y": 1.2457489868,
				"z": -1.5451104539,
				"element": "C" 
			},
			{
				"x": 0.5851227995,
				"y": 1.797802971,
				"z": 1.7013892938,
				"element": "H" 
			},
			{
				"x": -0.956168722,
				"y": -2.7960611199,
				"z": 1.6001982897,
				"element": "H" 
			},
			{
				"x": 0.7204021346,
				"y": -3.2804352459,
				"z": 1.2538079363,
				"element": "H" 
			},
			{
				"x": -0.0394228921,
				"y": -0.9623863106,
				"z": 2.8159156976,
				"element": "H" 
			},
			{
				"x": 1.564304326,
				"y": -1.2002392402,
				"z": 2.117168509,
				"element": "H" 
			},
			{
				"x": -0.7206176093,
				"y": -0.6922710241,
				"z": -2.4421021982,
				"element": "H" 
			},
			{
				"x": -0.5683752538,
				"y": 1.811151767,
				"z": -2.4447439686,
				"element": "H" 
			}
		],
		 "valence_orbital": [ 
			{
				"type": "occ",
				"energy": -0.31125,
				"method": "rhf"
			},
			{
				"type": "occ",
				"energy": -0.31033,
				"method": "rhf"
			},
			{
				"type": "occ",
				"energy": -0.28436,
				"method": "rhf"
			},
			{
				"type": "occ",
				"energy": -0.27202,
				"method": "rhf"
			},
			{
				"type": "occ",
				"energy": -0.23788,
				"method": "rhf"
			},
			{
				"type": "unocc",
				"energy": -0.06417,
				"method": "rhf"
			},
			{
				"type": "unocc",
				"energy": -0.02479,
				"method": "rhf"
			},
			{
				"type": "unocc",
				"energy": 0.0244,
				"method": "rhf"
			},
			{
				"type": "unocc",
				"energy": 0.04098,
				"method": "rhf"
			},
			{
				"type": "unocc",
				"energy": 0.07685,
				"method": "rhf"
			}
		],
		"cosmo_sigma_profile": { 
			"-0.025": 0.0,
			"-0.024": 0.0,
			"-0.023": 0.0,
			"-0.022": 0.0,
			"-0.021": 0.0,
			"-0.02": 0.0,
			"-0.019": 0.0,
			"-0.018": 0.0,
			"-0.017": 0.0,
			"-0.016": 0.0,
			"-0.015": 0.0,
			"-0.014": 0.0,
			"-0.013": 0.0,
			"-0.012": 0.0,
			"-0.011": 0.0,
			"-0.01": 0.0,
			"-0.009": 0.0,
			"-0.008": 0.43789450571,
			"-0.007": 4.40847218123,
			"-0.006": 14.5746500491,
			"-0.005": 18.8736194,
			"-0.004": 16.3704162075,
			"-0.003": 14.9367612988,
			"-0.002": 12.6810005327,
			"-0.001": 12.3634639401,
			"0.0": 16.1733884587,
			"0.001": 17.3321614938,
			"0.002": 19.0798884616,
			"0.003": 12.0532624175,
			"0.004": 8.44194055157,
			"0.005": 9.61213417835,
			"0.006": 6.77306489369,
			"0.007": 3.7940556196,
			"0.008": 4.48888828641,
			"0.009": 6.05908658601,
			"0.01": 3.05482861232,
			"0.011": 0.0905860274301,
			"0.012": 0.0,
			"0.013": 0.0,
			"0.014": 0.0,
			"0.015": 0.0,
			"0.016": 0.0,
			"0.017": 0.0,
			"0.018": 0.0,
			"0.019": 0.0,
			"0.02": 0.0,
			"0.021": 0.0,
			"0.022": 0.0,
			"0.023": 0.0,
			"0.024": 0.0,
			"0.025": 0.0
		}
	}
}
