{
	 "smiles": "ClCC(=O)C1=C(NC2=C1C=CC=C2)C1=CC=CC=C1", 
	 "Tm": 414.15, 
	 "num_atms": 31, 
	 "gaussian": { 
		 "optdone": 1, 
		 "sigma_profile": "yes", 
		 "theory": "DFT", 
		 "functional": "B3LYP", 
		 "basiset": "6-31G**", 
		 "properties": { 
			 "R2extent": 6468.2512, 
			 "electric_dipole_moment_norm": 6.38931620285, 
			 "electric_quadrupole_moment_norm": 15.368523501, 
			 "total_energy": -1207.11552894, 
			 "HOMO_LUMO_gap": 0.15455, 
			 "cosmo_polarized_energy": -16.92, 
			 "cosmo_cavitation_energy": 36.39, 
			 "cosmo_dispersion_energy": -26.0, 
			 "cosmo_repulsion_energy": 1.97, 
			 "cosmo_total_nonelectrostatic_energy": 12.37, 
			 "SMD_solvation_energy": 5.76 
		},
		"coords": [
			{
				"x": -0.8797034154,
				"y": -0.638786224,
				"z": 4.3654922492,
				"element": "Cl" 
			},
			{
				"x": 0.4130277922,
				"y": -0.238537471,
				"z": 3.1565122209,
				"element": "C" 
			},
			{
				"x": 0.2541949979,
				"y": 1.190875485,
				"z": 2.6183873815,
				"element": "C" 
			},
			{
				"x": 0.3998367861,
				"y": 2.1207306219,
				"z": 3.4031225269,
				"element": "O" 
			},
			{
				"x": 0.0513137288,
				"y": 1.4246660607,
				"z": 1.1862106488,
				"element": "C" 
			},
			{
				"x": -0.3123964981,
				"y": 0.5471979708,
				"z": 0.1549732056,
				"element": "C" 
			},
			{
				"x": -0.2242867655,
				"y": 1.2240876918,
				"z": -1.0393775109,
				"element": "N" 
			},
			{
				"x": 0.149889318,
				"y": 2.541881148,
				"z": -0.8316260471,
				"element": "C" 
			},
			{
				"x": 0.3291632761,
				"y": 2.7076053058,
				"z": 0.5615289404,
				"element": "C" 
			},
			{
				"x": 0.7304774975,
				"y": 3.963412904,
				"z": 1.0481410388,
				"element": "C" 
			},
			{
				"x": 0.9247170784,
				"y": 4.9977295091,
				"z": 0.1392948723,
				"element": "C" 
			},
			{
				"x": 0.7309581212,
				"y": 4.8096996056,
				"z": -1.2436163187,
				"element": "C" 
			},
			{
				"x": 0.3411885201,
				"y": 3.5754062888,
				"z": -1.7519216304,
				"element": "C" 
			},
			{
				"x": -0.79027296,
				"y": -0.8467021641,
				"z": 0.1221506349,
				"element": "C" 
			},
			{
				"x": -1.8179901503,
				"y": -1.2842479621,
				"z": 0.9749220519,
				"element": "C" 
			},
			{
				"x": -2.2929345098,
				"y": -2.5924328815,
				"z": 0.8930963682,
				"element": "C" 
			},
			{
				"x": -1.7618302705,
				"y": -3.4780477298,
				"z": -0.0467217226,
				"element": "C" 
			},
			{
				"x": -0.7463699706,
				"y": -3.051100607,
				"z": -0.9054768233,
				"element": "C" 
			},
			{
				"x": -0.2634206571,
				"y": -1.7463746577,
				"z": -0.8233865756,
				"element": "C" 
			},
			{
				"x": 1.3581836146,
				"y": -0.2797567352,
				"z": 3.6999790635,
				"element": "H" 
			},
			{
				"x": 0.3852368249,
				"y": -1.0109426826,
				"z": 2.3923764783,
				"element": "H" 
			},
			{
				"x": -0.5584724831,
				"y": 0.8443870553,
				"z": -1.9122172128,
				"element": "H" 
			},
			{
				"x": 0.8674672174,
				"y": 4.1066891839,
				"z": 2.112357544,
				"element": "H" 
			},
			{
				"x": 1.2277352212,
				"y": 5.9755383441,
				"z": 0.5020231085,
				"element": "H" 
			},
			{
				"x": 0.8882011,
				"y": 5.6411220554,
				"z": -1.9243022248,
				"element": "H" 
			},
			{
				"x": 0.1940631199,
				"y": 3.422090997,
				"z": -2.8171168961,
				"element": "H" 
			},
			{
				"x": -2.2464180376,
				"y": -0.5951792408,
				"z": 1.6945999223,
				"element": "H" 
			},
			{
				"x": -3.0849458233,
				"y": -2.9158126756,
				"z": 1.5615841325,
				"element": "H" 
			},
			{
				"x": -2.1361242248,
				"y": -4.4955074485,
				"z": -0.1094093384,
				"element": "H" 
			},
			{
				"x": -0.3231461969,
				"y": -3.7369445379,
				"z": -1.6335141818,
				"element": "H" 
			},
			{
				"x": 0.5449577486,
				"y": -1.4257472094,
				"z": -1.4748659063,
				"element": "H" 
			}
		],
		 "valence_orbital": [ 
			{
				"type": "occ",
				"energy": -0.27234,
				"method": "rhf"
			},
			{
				"type": "occ",
				"energy": -0.26989,
				"method": "rhf"
			},
			{
				"type": "occ",
				"energy": -0.24375,
				"method": "rhf"
			},
			{
				"type": "occ",
				"energy": -0.22894,
				"method": "rhf"
			},
			{
				"type": "occ",
				"energy": -0.21625,
				"method": "rhf"
			},
			{
				"type": "unocc",
				"energy": -0.0617,
				"method": "rhf"
			},
			{
				"type": "unocc",
				"energy": -0.02527,
				"method": "rhf"
			},
			{
				"type": "unocc",
				"energy": -0.02134,
				"method": "rhf"
			},
			{
				"type": "unocc",
				"energy": -0.00168,
				"method": "rhf"
			},
			{
				"type": "unocc",
				"energy": 0.02104,
				"method": "rhf"
			}
		],
		"cosmo_sigma_profile": { 
			"-0.025": 0.0,
			"-0.024": 0.0,
			"-0.023": 0.0,
			"-0.022": 0.0,
			"-0.021": 0.0,
			"-0.02": 0.0,
			"-0.019": 0.0,
			"-0.018": 0.0,
			"-0.017": 0.0723807510116,
			"-0.016": 0.946373693137,
			"-0.015": 1.10950351033,
			"-0.014": 1.18882378039,
			"-0.013": 1.19577480924,
			"-0.012": 0.716187295384,
			"-0.011": 1.77946876956,
			"-0.01": 1.36493105778,
			"-0.009": 1.60897920283,
			"-0.008": 4.33478858521,
			"-0.007": 7.08479506986,
			"-0.006": 15.5400430145,
			"-0.005": 22.2332918342,
			"-0.004": 23.2489012005,
			"-0.003": 18.5478598534,
			"-0.002": 15.5783115763,
			"-0.001": 17.5369889019,
			"0.0": 17.6009461748,
			"0.001": 20.1466407325,
			"0.002": 19.6571616211,
			"0.003": 24.0580097608,
			"0.004": 24.8043637433,
			"0.005": 20.1991921858,
			"0.006": 14.7986574399,
			"0.007": 3.5614391514,
			"0.008": 2.83631567891,
			"0.009": 2.5370442719,
			"0.01": 2.47022905166,
			"0.011": 2.31399182617,
			"0.012": 3.02330084978,
			"0.013": 1.97312669784,
			"0.014": 0.260575546661,
			"0.015": 0.0,
			"0.016": 0.0,
			"0.017": 0.0,
			"0.018": 0.0,
			"0.019": 0.0,
			"0.02": 0.0,
			"0.021": 0.0,
			"0.022": 0.0,
			"0.023": 0.0,
			"0.024": 0.0,
			"0.025": 0.0
		}
	}
}
