{
	 "smiles": "ClCC(=O)NCC1=CC(=CC=C1)C(=O)NC1CC1", 
	 "Tm": 411.15, 
	 "num_atms": 33, 
	 "gaussian": { 
		 "optdone": 1, 
		 "sigma_profile": "yes", 
		 "theory": "DFT", 
		 "functional": "B3LYP", 
		 "basiset": "6-31G**", 
		 "properties": { 
			 "R2extent": 7763.9571, 
			 "electric_dipole_moment_norm": 3.96423810208, 
			 "electric_quadrupole_moment_norm": 18.0399575834, 
			 "total_energy": -1224.56604168, 
			 "HOMO_LUMO_gap": 0.20326, 
			 "cosmo_polarized_energy": -19.11, 
			 "cosmo_cavitation_energy": 38.87, 
			 "cosmo_dispersion_energy": -26.76, 
			 "cosmo_repulsion_energy": 2.12, 
			 "cosmo_total_nonelectrostatic_energy": 14.23, 
			 "SMD_solvation_energy": 5.86 
		},
		"coords": [
			{
				"x": 1.4970836042,
				"y": 1.6946063855,
				"z": -3.7903020097,
				"element": "Cl" 
			},
			{
				"x": 0.5989793673,
				"y": 3.2525263021,
				"z": -3.5252119858,
				"element": "C" 
			},
			{
				"x": -0.6914143951,
				"y": 3.1768285508,
				"z": -2.7052225645,
				"element": "C" 
			},
			{
				"x": -1.2905238823,
				"y": 4.2303417609,
				"z": -2.5148672009,
				"element": "O" 
			},
			{
				"x": -1.0948912628,
				"y": 1.9654530482,
				"z": -2.2601897163,
				"element": "N" 
			},
			{
				"x": -2.2986682933,
				"y": 1.804080525,
				"z": -1.4442186689,
				"element": "C" 
			},
			{
				"x": -2.0180582856,
				"y": 1.7524207307,
				"z": 0.0465976231,
				"element": "C" 
			},
			{
				"x": -2.1244007395,
				"y": 0.5499033677,
				"z": 0.7515989633,
				"element": "C" 
			},
			{
				"x": -1.8732006083,
				"y": 0.4990703553,
				"z": 2.1301846564,
				"element": "C" 
			},
			{
				"x": -1.5250335124,
				"y": 1.677426539,
				"z": 2.80394016,
				"element": "C" 
			},
			{
				"x": -1.3980483483,
				"y": 2.8756041755,
				"z": 2.1040229791,
				"element": "C" 
			},
			{
				"x": -1.6436455808,
				"y": 2.9168494278,
				"z": 0.7314723596,
				"element": "C" 
			},
			{
				"x": -2.0375376057,
				"y": -0.7351886538,
				"z": 2.9715109745,
				"element": "C" 
			},
			{
				"x": -2.3751367983,
				"y": -0.6501569707,
				"z": 4.1489848691,
				"element": "O" 
			},
			{
				"x": -1.8105548851,
				"y": -1.9778877444,
				"z": 2.4132266803,
				"element": "N" 
			},
			{
				"x": -0.9999588574,
				"y": -2.3003585727,
				"z": 1.2659846308,
				"element": "C" 
			},
			{
				"x": -0.8635781095,
				"y": -3.7550163827,
				"z": 0.9116333437,
				"element": "C" 
			},
			{
				"x": -1.6384050236,
				"y": -2.8334759255,
				"z": 0.0005155941,
				"element": "C" 
			},
			{
				"x": 1.2844118439,
				"y": 3.9356220584,
				"z": -3.0235611524,
				"element": "H" 
			},
			{
				"x": 0.3567012758,
				"y": 3.6551580803,
				"z": -4.5089106041,
				"element": "H" 
			},
			{
				"x": -0.4819460789,
				"y": 1.1744276797,
				"z": -2.3991080082,
				"element": "H" 
			},
			{
				"x": -2.8089428344,
				"y": 0.8903540869,
				"z": -1.7648822056,
				"element": "H" 
			},
			{
				"x": -2.9424657072,
				"y": 2.6543346087,
				"z": -1.6819148757,
				"element": "H" 
			},
			{
				"x": -2.4304583715,
				"y": -0.3479294708,
				"z": 0.2254946843,
				"element": "H" 
			},
			{
				"x": -1.3704138259,
				"y": 1.6322840039,
				"z": 3.876454581,
				"element": "H" 
			},
			{
				"x": -1.1212306865,
				"y": 3.7838104109,
				"z": 2.6314846183,
				"element": "H" 
			},
			{
				"x": -1.5582009985,
				"y": 3.8504827713,
				"z": 0.1822602338,
				"element": "H" 
			},
			{
				"x": -1.8822447918,
				"y": -2.6961378308,
				"z": 3.1243295898,
				"element": "H" 
			},
			{
				"x": -0.1154560633,
				"y": -1.6790182731,
				"z": 1.144288246,
				"element": "H" 
			},
			{
				"x": -1.4331341632,
				"y": -4.4696580504,
				"z": 1.4997167488,
				"element": "H" 
			},
			{
				"x": 0.1096087171,
				"y": -4.1151144256,
				"z": 0.593922855,
				"element": "H" 
			},
			{
				"x": -1.1993249095,
				"y": -2.5579172575,
				"z": -0.9541524073,
				"element": "H" 
			},
			{
				"x": -2.7197101896,
				"y": -2.9306253109,
				"z": -0.0016829914,
				"element": "H" 
			}
		],
		 "valence_orbital": [ 
			{
				"type": "occ",
				"energy": -0.26513,
				"method": "rhf"
			},
			{
				"type": "occ",
				"energy": -0.26041,
				"method": "rhf"
			},
			{
				"type": "occ",
				"energy": -0.25523,
				"method": "rhf"
			},
			{
				"type": "occ",
				"energy": -0.24849,
				"method": "rhf"
			},
			{
				"type": "occ",
				"energy": -0.24089,
				"method": "rhf"
			},
			{
				"type": "unocc",
				"energy": -0.03763,
				"method": "rhf"
			},
			{
				"type": "unocc",
				"energy": -0.01242,
				"method": "rhf"
			},
			{
				"type": "unocc",
				"energy": 0.00842,
				"method": "rhf"
			},
			{
				"type": "unocc",
				"energy": 0.01334,
				"method": "rhf"
			},
			{
				"type": "unocc",
				"energy": 0.04876,
				"method": "rhf"
			}
		],
		"cosmo_sigma_profile": { 
			"-0.025": 0.0,
			"-0.024": 0.0,
			"-0.023": 0.0,
			"-0.022": 0.0,
			"-0.021": 0.0,
			"-0.02": 0.0,
			"-0.019": 0.0,
			"-0.018": 0.0,
			"-0.017": 0.0,
			"-0.016": 0.0,
			"-0.015": 0.0,
			"-0.014": 0.0,
			"-0.013": 0.654718470239,
			"-0.012": 1.54812355416,
			"-0.011": 2.27383262482,
			"-0.01": 2.30437538176,
			"-0.009": 4.71609504219,
			"-0.008": 5.97132764838,
			"-0.007": 7.71918827521,
			"-0.006": 13.8777803165,
			"-0.005": 23.5309215846,
			"-0.004": 27.0295543432,
			"-0.003": 23.6107776967,
			"-0.002": 22.4871740362,
			"-0.001": 23.4136756196,
			"0.0": 23.6209566903,
			"0.001": 18.9792537017,
			"0.002": 18.8882150099,
			"0.003": 17.6910793002,
			"0.004": 19.741449982,
			"0.005": 13.6911945817,
			"0.006": 6.1611334664,
			"0.007": 2.27655281036,
			"0.008": 3.3277522044,
			"0.009": 2.40030986683,
			"0.01": 1.83538103408,
			"0.011": 4.23045204591,
			"0.012": 3.72499325313,
			"0.013": 8.22544322561,
			"0.014": 6.21804979225,
			"0.015": 0.260155827355,
			"0.016": 0.0,
			"0.017": 0.0,
			"0.018": 0.0,
			"0.019": 0.0,
			"0.02": 0.0,
			"0.021": 0.0,
			"0.022": 0.0,
			"0.023": 0.0,
			"0.024": 0.0,
			"0.025": 0.0
		}
	}
}
