{
	 "smiles": "OCCCCC#CC#CCCCCO", 
	 "Tm": 323.15, 
	 "num_atms": 32, 
	 "gaussian": { 
		 "optdone": 1, 
		 "sigma_profile": "yes", 
		 "theory": "DFT", 
		 "functional": "B3LYP", 
		 "basiset": "6-31G**", 
		 "properties": { 
			 "R2extent": 5412.9675, 
			 "electric_dipole_moment_norm": 0.751965344946, 
			 "electric_quadrupole_moment_norm": 16.8265010017, 
			 "total_energy": -618.449635262, 
			 "HOMO_LUMO_gap": 0.22187, 
			 "cosmo_polarized_energy": -12.55, 
			 "cosmo_cavitation_energy": 35.78, 
			 "cosmo_dispersion_energy": -24.35, 
			 "cosmo_repulsion_energy": 2.01, 
			 "cosmo_total_nonelectrostatic_energy": 13.44, 
			 "SMD_solvation_energy": 5.73 
		},
		"coords": [
			{
				"x": 2.4772564091,
				"y": 4.1997447547,
				"z": -0.223323831,
				"element": "O" 
			},
			{
				"x": 1.8377149674,
				"y": 3.0277226033,
				"z": -0.7210543238,
				"element": "C" 
			},
			{
				"x": 2.5194098132,
				"y": 1.7313448006,
				"z": -0.2731880241,
				"element": "C" 
			},
			{
				"x": 2.7183177298,
				"y": 1.6176994301,
				"z": 1.2445909917,
				"element": "C" 
			},
			{
				"x": 1.4082507382,
				"y": 1.6105172102,
				"z": 2.0691580271,
				"element": "C" 
			},
			{
				"x": 0.494402536,
				"y": 0.5301738263,
				"z": 1.7084141581,
				"element": "C" 
			},
			{
				"x": -0.2474160237,
				"y": -0.3778355801,
				"z": 1.3824672047,
				"element": "C" 
			},
			{
				"x": -1.0807173373,
				"y": -1.3971269464,
				"z": 1.0113127355,
				"element": "C" 
			},
			{
				"x": -1.8247399676,
				"y": -2.301460489,
				"z": 0.6742845809,
				"element": "C" 
			},
			{
				"x": -2.6910828282,
				"y": -3.4136884952,
				"z": 0.286302228,
				"element": "C" 
			},
			{
				"x": -2.1699162922,
				"y": -4.2484158829,
				"z": -0.9121876303,
				"element": "C" 
			},
			{
				"x": -2.3557766011,
				"y": -3.6140042025,
				"z": -2.2992325081,
				"element": "C" 
			},
			{
				"x": -1.6558725299,
				"y": -2.2628670606,
				"z": -2.5072043612,
				"element": "C" 
			},
			{
				"x": -0.2708375581,
				"y": -2.3015889341,
				"z": -2.1941756949,
				"element": "O" 
			},
			{
				"x": 3.3692953939,
				"y": 4.2263030668,
				"z": -0.5937315007,
				"element": "H" 
			},
			{
				"x": 0.8119792972,
				"y": 3.0733655049,
				"z": -0.3408161839,
				"element": "H" 
			},
			{
				"x": 1.7685783587,
				"y": 3.0462036522,
				"z": -1.8197261001,
				"element": "H" 
			},
			{
				"x": 3.5023254939,
				"y": 1.6578706449,
				"z": -0.7601732294,
				"element": "H" 
			},
			{
				"x": 1.9309120371,
				"y": 0.8818885159,
				"z": -0.64214434,
				"element": "H" 
			},
			{
				"x": 3.3196691365,
				"y": 2.4639503985,
				"z": 1.5928952882,
				"element": "H" 
			},
			{
				"x": 3.28027893,
				"y": 0.7039330838,
				"z": 1.4670474483,
				"element": "H" 
			},
			{
				"x": 0.8954755442,
				"y": 2.5742715235,
				"z": 1.9544204189,
				"element": "H" 
			},
			{
				"x": 1.6595076319,
				"y": 1.5297775843,
				"z": 3.1349546695,
				"element": "H" 
			},
			{
				"x": -2.8053079509,
				"y": -4.0755745771,
				"z": 1.1552660701,
				"element": "H" 
			},
			{
				"x": -3.6975973663,
				"y": -3.0330501408,
				"z": 0.0620993316,
				"element": "H" 
			},
			{
				"x": -2.6958224275,
				"y": -5.2099802976,
				"z": -0.8973521734,
				"element": "H" 
			},
			{
				"x": -1.109007266,
				"y": -4.4705586841,
				"z": -0.7550785143,
				"element": "H" 
			},
			{
				"x": -1.9736853277,
				"y": -4.3229535091,
				"z": -3.0438818695,
				"element": "H" 
			},
			{
				"x": -3.4274318683,
				"y": -3.4845491374,
				"z": -2.5085154383,
				"element": "H" 
			},
			{
				"x": -1.7307347986,
				"y": -1.9826627559,
				"z": -3.5642910634,
				"element": "H" 
			},
			{
				"x": -2.1663901909,
				"y": -1.4779756469,
				"z": -1.9312111151,
				"element": "H" 
			},
			{
				"x": -0.1966376826,
				"y": -2.1798742604,
				"z": -1.2373252514,
				"element": "H" 
			}
		],
		 "valence_orbital": [ 
			{
				"type": "occ",
				"energy": -0.3083,
				"method": "rhf"
			},
			{
				"type": "occ",
				"energy": -0.26727,
				"method": "rhf"
			},
			{
				"type": "occ",
				"energy": -0.25467,
				"method": "rhf"
			},
			{
				"type": "occ",
				"energy": -0.23488,
				"method": "rhf"
			},
			{
				"type": "occ",
				"energy": -0.23341,
				"method": "rhf"
			},
			{
				"type": "unocc",
				"energy": -0.01154,
				"method": "rhf"
			},
			{
				"type": "unocc",
				"energy": -0.00662,
				"method": "rhf"
			},
			{
				"type": "unocc",
				"energy": 0.06869,
				"method": "rhf"
			},
			{
				"type": "unocc",
				"energy": 0.08127,
				"method": "rhf"
			},
			{
				"type": "unocc",
				"energy": 0.10694,
				"method": "rhf"
			}
		],
		"cosmo_sigma_profile": { 
			"-0.025": 0.0,
			"-0.024": 0.0,
			"-0.023": 0.0,
			"-0.022": 0.0,
			"-0.021": 0.0,
			"-0.02": 0.0,
			"-0.019": 0.0,
			"-0.018": 0.0,
			"-0.017": 0.0,
			"-0.016": 0.0619350669857,
			"-0.015": 0.712224642551,
			"-0.014": 0.926573857379,
			"-0.013": 1.25261380937,
			"-0.012": 0.644354751635,
			"-0.011": 0.922318814438,
			"-0.01": 0.909373580282,
			"-0.009": 0.817481706201,
			"-0.008": 0.903542084983,
			"-0.007": 1.78805700287,
			"-0.006": 6.69416984653,
			"-0.005": 12.198669492,
			"-0.004": 20.9399756009,
			"-0.003": 37.8154769254,
			"-0.002": 41.834913066,
			"-0.001": 34.0231515145,
			"0.0": 24.9232472968,
			"0.001": 12.0607254635,
			"0.002": 10.3307484149,
			"0.003": 7.58168509695,
			"0.004": 15.9397240248,
			"0.005": 17.2935907753,
			"0.006": 5.52699766931,
			"0.007": 2.36596246508,
			"0.008": 2.53451463881,
			"0.009": 2.07457481633,
			"0.01": 2.2265399532,
			"0.011": 2.3258276187,
			"0.012": 2.55499536973,
			"0.013": 2.66919269232,
			"0.014": 3.91537232387,
			"0.015": 3.06006097866,
			"0.016": 0.0389439147306,
			"0.017": 0.0,
			"0.018": 0.0,
			"0.019": 0.0,
			"0.02": 0.0,
			"0.021": 0.0,
			"0.022": 0.0,
			"0.023": 0.0,
			"0.024": 0.0,
			"0.025": 0.0
		}
	}
}
