{
	 "smiles": "NS(=O)(=O)C1=CN=C(C=C1)[N+]([O-])=O", 
	 "Tm": 448.15, 
	 "num_atms": 18, 
	 "gaussian": { 
		 "optdone": 1, 
		 "sigma_profile": "yes", 
		 "theory": "DFT", 
		 "functional": "B3LYP", 
		 "basiset": "6-31G**", 
		 "properties": { 
			 "R2extent": 3826.5369, 
			 "electric_dipole_moment_norm": 4.91260698611, 
			 "electric_quadrupole_moment_norm": 15.9642051346, 
			 "total_energy": -1056.69367015, 
			 "HOMO_LUMO_gap": 0.18478, 
			 "cosmo_polarized_energy": -20.07, 
			 "cosmo_cavitation_energy": 25.52, 
			 "cosmo_dispersion_energy": -19.37, 
			 "cosmo_repulsion_energy": 1.49, 
			 "cosmo_total_nonelectrostatic_energy": 7.64, 
			 "SMD_solvation_energy": 5.35 
		},
		"coords": [
			{
				"x": 1.5243433534,
				"y": -1.0829513847,
				"z": -3.1538451138,
				"element": "N" 
			},
			{
				"x": 1.9792337578,
				"y": 0.4832954179,
				"z": -2.7257373314,
				"element": "S" 
			},
			{
				"x": 3.4351291783,
				"y": 0.5008642044,
				"z": -2.5844053687,
				"element": "O" 
			},
			{
				"x": 1.2487151101,
				"y": 1.4060219773,
				"z": -3.5957724875,
				"element": "O" 
			},
			{
				"x": 1.2889302387,
				"y": 0.6619558162,
				"z": -1.0759117693,
				"element": "C" 
			},
			{
				"x": 2.0301924215,
				"y": 0.2603958938,
				"z": 0.0403531469,
				"element": "C" 
			},
			{
				"x": 1.5560179607,
				"y": 0.3727524852,
				"z": 1.2833319985,
				"element": "N" 
			},
			{
				"x": 0.350337752,
				"y": 0.8938625097,
				"z": 1.4195481795,
				"element": "C" 
			},
			{
				"x": -0.4700862589,
				"y": 1.3489960518,
				"z": 0.3909282163,
				"element": "C" 
			},
			{
				"x": 0.0254394917,
				"y": 1.2256985183,
				"z": -0.9053443677,
				"element": "C" 
			},
			{
				"x": -0.1530076897,
				"y": 0.9979688183,
				"z": 2.8290833047,
				"element": "N" 
			},
			{
				"x": 0.567409256,
				"y": 0.5895221815,
				"z": 3.7240404278,
				"element": "O" 
			},
			{
				"x": -1.2718688697,
				"y": 1.493349851,
				"z": 2.9671720543,
				"element": "O" 
			},
			{
				"x": 2.3479909531,
				"y": -1.6631149499,
				"z": -3.289216097,
				"element": "H" 
			},
			{
				"x": 0.9323765047,
				"y": -1.0610618534,
				"z": -3.9798152906,
				"element": "H" 
			},
			{
				"x": 3.0307196019,
				"y": -0.1461369006,
				"z": -0.0742530798,
				"element": "H" 
			},
			{
				"x": -1.4388027669,
				"y": 1.7777236715,
				"z": 0.6092455092,
				"element": "H" 
			},
			{
				"x": -0.5413699947,
				"y": 1.569657692,
				"z": -1.7636019312,
				"element": "H" 
			}
		],
		 "valence_orbital": [ 
			{
				"type": "occ",
				"energy": -0.323,
				"method": "rhf"
			},
			{
				"type": "occ",
				"energy": -0.31868,
				"method": "rhf"
			},
			{
				"type": "occ",
				"energy": -0.31021,
				"method": "rhf"
			},
			{
				"type": "occ",
				"energy": -0.30279,
				"method": "rhf"
			},
			{
				"type": "occ",
				"energy": -0.29647,
				"method": "rhf"
			},
			{
				"type": "unocc",
				"energy": -0.11169,
				"method": "rhf"
			},
			{
				"type": "unocc",
				"energy": -0.06816,
				"method": "rhf"
			},
			{
				"type": "unocc",
				"energy": -0.03732,
				"method": "rhf"
			},
			{
				"type": "unocc",
				"energy": 0.03152,
				"method": "rhf"
			},
			{
				"type": "unocc",
				"energy": 0.06064,
				"method": "rhf"
			}
		],
		"cosmo_sigma_profile": { 
			"-0.025": 0.0,
			"-0.024": 0.0,
			"-0.023": 0.0,
			"-0.022": 0.0,
			"-0.021": 0.0,
			"-0.02": 0.0,
			"-0.019": 0.0,
			"-0.018": 0.0,
			"-0.017": 0.0,
			"-0.016": 0.408685364022,
			"-0.015": 2.56063607123,
			"-0.014": 2.64672606015,
			"-0.013": 2.01907034117,
			"-0.012": 2.76294269853,
			"-0.011": 1.82081072534,
			"-0.01": 3.86739184969,
			"-0.009": 6.94213826678,
			"-0.008": 8.6569711564,
			"-0.007": 8.16082867733,
			"-0.006": 8.04937817981,
			"-0.005": 10.5441096004,
			"-0.004": 13.1166206254,
			"-0.003": 14.7228852268,
			"-0.002": 13.5891929775,
			"-0.001": 6.972000271,
			"0.0": 7.14546240627,
			"0.001": 5.0362906542,
			"0.002": 4.63964185083,
			"0.003": 6.16090686889,
			"0.004": 5.97290317239,
			"0.005": 7.74255305038,
			"0.006": 9.21397299669,
			"0.007": 12.8117579312,
			"0.008": 10.3722516303,
			"0.009": 9.76414581525,
			"0.01": 10.918004837,
			"0.011": 5.86532034122,
			"0.012": 0.801683915114,
			"0.013": 1.10186912215,
			"0.014": 0.816550720135,
			"0.015": 0.0437416853152,
			"0.016": 0.0,
			"0.017": 0.0,
			"0.018": 0.0,
			"0.019": 0.0,
			"0.02": 0.0,
			"0.021": 0.0,
			"0.022": 0.0,
			"0.023": 0.0,
			"0.024": 0.0,
			"0.025": 0.0
		}
	}
}
