{
	 "smiles": "OC(=O)C1=CC=C(CN2C=C(Cl)C=N2)O1", 
	 "Tm": 391.15, 
	 "num_atms": 22, 
	 "gaussian": { 
		 "optdone": 1, 
		 "sigma_profile": "yes", 
		 "theory": "DFT", 
		 "functional": "B3LYP", 
		 "basiset": "6-31G**", 
		 "properties": { 
			 "R2extent": 5181.9259, 
			 "electric_dipole_moment_norm": 2.27673795594, 
			 "electric_quadrupole_moment_norm": 13.5607162208, 
			 "total_energy": -1142.50234137, 
			 "HOMO_LUMO_gap": 0.18401, 
			 "cosmo_polarized_energy": -14.79, 
			 "cosmo_cavitation_energy": 30.58, 
			 "cosmo_dispersion_energy": -21.64, 
			 "cosmo_repulsion_energy": 1.73, 
			 "cosmo_total_nonelectrostatic_energy": 10.67, 
			 "SMD_solvation_energy": 6.05 
		},
		"coords": [
			{
				"x": -0.1822924615,
				"y": -3.5150413104,
				"z": -0.9957539117,
				"element": "O" 
			},
			{
				"x": -0.6444103266,
				"y": -2.6431377649,
				"z": -1.9212108192,
				"element": "C" 
			},
			{
				"x": -0.9992146743,
				"y": -2.9710772807,
				"z": -3.0364047996,
				"element": "O" 
			},
			{
				"x": -0.6727516094,
				"y": -1.2607273669,
				"z": -1.442429539,
				"element": "C" 
			},
			{
				"x": -1.0641581168,
				"y": -0.1157856277,
				"z": -2.0841045213,
				"element": "C" 
			},
			{
				"x": -0.8860998355,
				"y": 0.9457864338,
				"z": -1.1523098544,
				"element": "C" 
			},
			{
				"x": -0.4004628345,
				"y": 0.3756270518,
				"z": -0.0060106539,
				"element": "C" 
			},
			{
				"x": 0.0115021501,
				"y": 0.9268342043,
				"z": 1.3194046048,
				"element": "C" 
			},
			{
				"x": 1.4595614665,
				"y": 1.050933799,
				"z": 1.4749075687,
				"element": "N" 
			},
			{
				"x": 2.3729671585,
				"y": 0.0506448017,
				"z": 1.6024585009,
				"element": "C" 
			},
			{
				"x": 3.6027958035,
				"y": 0.6774272881,
				"z": 1.6663784611,
				"element": "C" 
			},
			{
				"x": 5.1496841726,
				"y": -0.0848253308,
				"z": 1.8444640122,
				"element": "Cl" 
			},
			{
				"x": 3.3339274646,
				"y": 2.0585083299,
				"z": 1.5645072657,
				"element": "C" 
			},
			{
				"x": 2.0259627748,
				"y": 2.2780789315,
				"z": 1.4434051122,
				"element": "N" 
			},
			{
				"x": -0.268250877,
				"y": -0.9693274661,
				"z": -0.1672867205,
				"element": "O" 
			},
			{
				"x": -0.2063397368,
				"y": -4.3875800625,
				"z": -1.4226227745,
				"element": "H" 
			},
			{
				"x": -1.4310577341,
				"y": -0.0615953237,
				"z": -3.0981830589,
				"element": "H" 
			},
			{
				"x": -1.0834779252,
				"y": 1.9967978287,
				"z": -1.3061794553,
				"element": "H" 
			},
			{
				"x": -0.3873991053,
				"y": 1.9339889805,
				"z": 1.44300405,
				"element": "H" 
			},
			{
				"x": -0.3774490447,
				"y": 0.2933882519,
				"z": 2.1238145769,
				"element": "H" 
			},
			{
				"x": 2.0960808881,
				"y": -0.9920578878,
				"z": 1.6274254493,
				"element": "H" 
			},
			{
				"x": 4.0337824028,
				"y": 2.8819395203,
				"z": 1.5799265065,
				"element": "H" 
			}
		],
		 "valence_orbital": [ 
			{
				"type": "occ",
				"energy": -0.29473,
				"method": "rhf"
			},
			{
				"type": "occ",
				"energy": -0.28864,
				"method": "rhf"
			},
			{
				"type": "occ",
				"energy": -0.26664,
				"method": "rhf"
			},
			{
				"type": "occ",
				"energy": -0.25304,
				"method": "rhf"
			},
			{
				"type": "occ",
				"energy": -0.2412,
				"method": "rhf"
			},
			{
				"type": "unocc",
				"energy": -0.05719,
				"method": "rhf"
			},
			{
				"type": "unocc",
				"energy": 0.0017,
				"method": "rhf"
			},
			{
				"type": "unocc",
				"energy": 0.02315,
				"method": "rhf"
			},
			{
				"type": "unocc",
				"energy": 0.04262,
				"method": "rhf"
			},
			{
				"type": "unocc",
				"energy": 0.05519,
				"method": "rhf"
			}
		],
		"cosmo_sigma_profile": { 
			"-0.025": 0.0,
			"-0.024": 0.0,
			"-0.023": 0.0,
			"-0.022": 0.0,
			"-0.021": 0.0,
			"-0.02": 0.0,
			"-0.019": 0.257327556059,
			"-0.018": 1.02790690112,
			"-0.017": 0.901056650983,
			"-0.016": 0.896115826135,
			"-0.015": 0.410842707892,
			"-0.014": 0.633618436556,
			"-0.013": 0.554206454142,
			"-0.012": 1.05387537486,
			"-0.011": 1.05780723599,
			"-0.01": 0.934413282068,
			"-0.009": 5.41155065411,
			"-0.008": 12.2129697866,
			"-0.007": 12.4758794252,
			"-0.006": 10.2527033526,
			"-0.005": 9.88854008483,
			"-0.004": 9.5045277415,
			"-0.003": 11.6464965,
			"-0.002": 11.69427577,
			"-0.001": 16.0929506111,
			"0.0": 18.9305890517,
			"0.001": 19.7560209308,
			"0.002": 23.5153030355,
			"0.003": 18.5179641046,
			"0.004": 15.15087407,
			"0.005": 10.4806534665,
			"0.006": 3.83723937608,
			"0.007": 5.20961938326,
			"0.008": 3.68104100519,
			"0.009": 5.770474943,
			"0.01": 3.98771813975,
			"0.011": 5.15531381929,
			"0.012": 5.15660931416,
			"0.013": 1.25655926357,
			"0.014": 0.742641748964,
			"0.015": 0.171669461786,
			"0.016": 0.0,
			"0.017": 0.0,
			"0.018": 0.0,
			"0.019": 0.0,
			"0.02": 0.0,
			"0.021": 0.0,
			"0.022": 0.0,
			"0.023": 0.0,
			"0.024": 0.0,
			"0.025": 0.0
		}
	}
}
