{
	 "smiles": "CC1=NC=CN1C1=NC=C(C=C1)C#N", 
	 "Tm": 487.15, 
	 "num_atms": 22, 
	 "gaussian": { 
		 "optdone": 1, 
		 "sigma_profile": "yes", 
		 "theory": "DFT", 
		 "functional": "B3LYP", 
		 "basiset": "6-31G**", 
		 "properties": { 
			 "R2extent": 3595.99, 
			 "electric_dipole_moment_norm": 1.86495447934, 
			 "electric_quadrupole_moment_norm": 26.193580449, 
			 "total_energy": -604.866990093, 
			 "HOMO_LUMO_gap": 0.15645, 
			 "cosmo_polarized_energy": -15.06, 
			 "cosmo_cavitation_energy": 27.62, 
			 "cosmo_dispersion_energy": -19.78, 
			 "cosmo_repulsion_energy": 1.52, 
			 "cosmo_total_nonelectrostatic_energy": 9.36, 
			 "SMD_solvation_energy": 4.14 
		},
		"coords": [
			{
				"x": 1.5168526115,
				"y": 0.55462187,
				"z": -1.8524994666,
				"element": "C" 
			},
			{
				"x": 1.6563892057,
				"y": -0.7914696773,
				"z": -1.2150475081,
				"element": "C" 
			},
			{
				"x": 2.2612149837,
				"y": -1.7971118698,
				"z": -1.7986079276,
				"element": "N" 
			},
			{
				"x": 2.1430136961,
				"y": -2.875715306,
				"z": -0.9413513704,
				"element": "C" 
			},
			{
				"x": 1.4428550368,
				"y": -2.5334454598,
				"z": 0.1740030049,
				"element": "C" 
			},
			{
				"x": 1.1287947668,
				"y": -1.180279581,
				"z": 0.0235642972,
				"element": "N" 
			},
			{
				"x": 0.3765413036,
				"y": -0.4557520529,
				"z": 0.9669320122,
				"element": "C" 
			},
			{
				"x": -0.3684030454,
				"y": -1.203608295,
				"z": 1.7933594135,
				"element": "N" 
			},
			{
				"x": -1.1061218815,
				"y": -0.5949920417,
				"z": 2.7157571462,
				"element": "C" 
			},
			{
				"x": -1.157020285,
				"y": 0.8007458491,
				"z": 2.8672865543,
				"element": "C" 
			},
			{
				"x": -0.3559234064,
				"y": 1.5753745178,
				"z": 2.0128519222,
				"element": "C" 
			},
			{
				"x": 0.4289403718,
				"y": 0.9461067245,
				"z": 1.0590292365,
				"element": "C" 
			},
			{
				"x": -1.9840119645,
				"y": 1.3987741655,
				"z": 3.8684575813,
				"element": "C" 
			},
			{
				"x": -2.6584074735,
				"y": 1.8820863571,
				"z": 4.6840069605,
				"element": "N" 
			},
			{
				"x": 0.4920681708,
				"y": 0.9370873389,
				"z": -1.8087839174,
				"element": "H" 
			},
			{
				"x": 1.8031685547,
				"y": 0.4411713476,
				"z": -2.8988936428,
				"element": "H" 
			},
			{
				"x": 2.1805434779,
				"y": 1.3062201807,
				"z": -1.4077957864,
				"element": "H" 
			},
			{
				"x": 2.570609441,
				"y": -3.8374466161,
				"z": -1.1874549035,
				"element": "H" 
			},
			{
				"x": 1.1306834389,
				"y": -3.0761755403,
				"z": 1.0493586909,
				"element": "H" 
			},
			{
				"x": -1.6931778991,
				"y": -1.2353873979,
				"z": 3.3697509692,
				"element": "H" 
			},
			{
				"x": -0.340942275,
				"y": 2.655626903,
				"z": 2.111185936,
				"element": "H" 
			},
			{
				"x": 1.0799331713,
				"y": 1.5282685836,
				"z": 0.4237907979,
				"element": "H" 
			}
		],
		 "valence_orbital": [ 
			{
				"type": "occ",
				"energy": -0.31698,
				"method": "rhf"
			},
			{
				"type": "occ",
				"energy": -0.29975,
				"method": "rhf"
			},
			{
				"type": "occ",
				"energy": -0.27399,
				"method": "rhf"
			},
			{
				"type": "occ",
				"energy": -0.26234,
				"method": "rhf"
			},
			{
				"type": "occ",
				"energy": -0.2331,
				"method": "rhf"
			},
			{
				"type": "unocc",
				"energy": -0.07665,
				"method": "rhf"
			},
			{
				"type": "unocc",
				"energy": -0.05767,
				"method": "rhf"
			},
			{
				"type": "unocc",
				"energy": 0.01226,
				"method": "rhf"
			},
			{
				"type": "unocc",
				"energy": 0.01964,
				"method": "rhf"
			},
			{
				"type": "unocc",
				"energy": 0.06084,
				"method": "rhf"
			}
		],
		"cosmo_sigma_profile": { 
			"-0.025": 0.0,
			"-0.024": 0.0,
			"-0.023": 0.0,
			"-0.022": 0.0,
			"-0.021": 0.0,
			"-0.02": 0.0,
			"-0.019": 0.0,
			"-0.018": 0.0,
			"-0.017": 0.0,
			"-0.016": 0.0,
			"-0.015": 0.0,
			"-0.014": 0.0,
			"-0.013": 0.0,
			"-0.012": 0.0,
			"-0.011": 0.0,
			"-0.01": 1.06841003485,
			"-0.009": 6.19848761982,
			"-0.008": 9.29853016461,
			"-0.007": 8.79087642351,
			"-0.006": 11.235795912,
			"-0.005": 14.5732326045,
			"-0.004": 13.6044654418,
			"-0.003": 18.7148702644,
			"-0.002": 24.0789238857,
			"-0.001": 20.5787046775,
			"0.0": 12.7925362113,
			"0.001": 7.41736652941,
			"0.002": 7.55959586805,
			"0.003": 8.16229463061,
			"0.004": 9.66718892895,
			"0.005": 9.41399801932,
			"0.006": 5.6241681301,
			"0.007": 5.74225554166,
			"0.008": 6.10529323407,
			"0.009": 5.352132899,
			"0.01": 4.60890114775,
			"0.011": 4.55947952905,
			"0.012": 3.11446837286,
			"0.013": 1.6027196117,
			"0.014": 1.12069798251,
			"0.015": 1.10586553042,
			"0.016": 0.791601345436,
			"0.017": 0.902389629289,
			"0.018": 0.0817986219091,
			"0.019": 0.0,
			"0.02": 0.0,
			"0.021": 0.0,
			"0.022": 0.0,
			"0.023": 0.0,
			"0.024": 0.0,
			"0.025": 0.0
		}
	}
}
