{
	 "smiles": "CC1=CC=NN1C1=CC=C(C=C1)C(O)=O", 
	 "Tm": 517.15, 
	 "num_atms": 25, 
	 "gaussian": { 
		 "optdone": 1, 
		 "sigma_profile": "yes", 
		 "theory": "DFT", 
		 "functional": "B3LYP", 
		 "basiset": "6-31G**", 
		 "properties": { 
			 "R2extent": 4631.3544, 
			 "electric_dipole_moment_norm": 3.6631929051, 
			 "electric_quadrupole_moment_norm": 9.29961661952, 
			 "total_energy": -685.150174554, 
			 "HOMO_LUMO_gap": 0.17922, 
			 "cosmo_polarized_energy": -13.06, 
			 "cosmo_cavitation_energy": 29.59, 
			 "cosmo_dispersion_energy": -21.67, 
			 "cosmo_repulsion_energy": 1.67, 
			 "cosmo_total_nonelectrostatic_energy": 9.59, 
			 "SMD_solvation_energy": 5.86 
		},
		"coords": [
			{
				"x": -1.3962503367,
				"y": -1.9890264017,
				"z": -1.943661018,
				"element": "C" 
			},
			{
				"x": -1.8881264645,
				"y": -0.781416547,
				"z": -1.2074939784,
				"element": "C" 
			},
			{
				"x": -3.1745129995,
				"y": -0.4730109691,
				"z": -0.8106776916,
				"element": "C" 
			},
			{
				"x": -3.0670563113,
				"y": 0.7396855778,
				"z": -0.0945682025,
				"element": "C" 
			},
			{
				"x": -1.8151539812,
				"y": 1.1694654942,
				"z": -0.0337856412,
				"element": "N" 
			},
			{
				"x": -1.0927391694,
				"y": 0.2406312608,
				"z": -0.7279794634,
				"element": "N" 
			},
			{
				"x": 0.3130504556,
				"y": 0.4067321199,
				"z": -0.7999064174,
				"element": "C" 
			},
			{
				"x": 1.034291796,
				"y": 0.0242901688,
				"z": -1.9386375097,
				"element": "C" 
			},
			{
				"x": 2.4154046403,
				"y": 0.1950116248,
				"z": -1.9752932393,
				"element": "C" 
			},
			{
				"x": 3.08719791,
				"y": 0.7652409504,
				"z": -0.887036925,
				"element": "C" 
			},
			{
				"x": 2.3543767965,
				"y": 1.1688347019,
				"z": 0.2390215081,
				"element": "C" 
			},
			{
				"x": 0.9793115828,
				"y": 0.9910463042,
				"z": 0.2883655579,
				"element": "C" 
			},
			{
				"x": 4.5569478064,
				"y": 0.9710981683,
				"z": -0.8785297028,
				"element": "C" 
			},
			{
				"x": 5.1611428446,
				"y": 0.5448363343,
				"z": -2.0177132225,
				"element": "O" 
			},
			{
				"x": 5.1854323324,
				"y": 1.4657349945,
				"z": 0.0369002093,
				"element": "O" 
			},
			{
				"x": -0.4563930231,
				"y": -2.3666302939,
				"z": -1.5303097153,
				"element": "H" 
			},
			{
				"x": -1.2354672108,
				"y": -1.7960283512,
				"z": -3.0108046448,
				"element": "H" 
			},
			{
				"x": -2.1440821034,
				"y": -2.7817516546,
				"z": -1.8659239546,
				"element": "H" 
			},
			{
				"x": -4.0613427175,
				"y": -1.0585627315,
				"z": -1.0045952194,
				"element": "H" 
			},
			{
				"x": -3.8515611122,
				"y": 1.3165920484,
				"z": 0.3774550736,
				"element": "H" 
			},
			{
				"x": 0.5202439253,
				"y": -0.3755220675,
				"z": -2.8034057201,
				"element": "H" 
			},
			{
				"x": 2.9732469329,
				"y": -0.0985062824,
				"z": -2.8570203497,
				"element": "H" 
			},
			{
				"x": 2.886671442,
				"y": 1.6143953369,
				"z": 1.0724379765,
				"element": "H" 
			},
			{
				"x": 0.4008996356,
				"y": 1.3005398275,
				"z": 1.1497880495,
				"element": "H" 
			},
			{
				"x": 6.1066673291,
				"y": 0.7312203862,
				"z": -1.8978257593,
				"element": "H" 
			}
		],
		 "valence_orbital": [ 
			{
				"type": "occ",
				"energy": -0.28864,
				"method": "rhf"
			},
			{
				"type": "occ",
				"energy": -0.27767,
				"method": "rhf"
			},
			{
				"type": "occ",
				"energy": -0.2667,
				"method": "rhf"
			},
			{
				"type": "occ",
				"energy": -0.24371,
				"method": "rhf"
			},
			{
				"type": "occ",
				"energy": -0.23487,
				"method": "rhf"
			},
			{
				"type": "unocc",
				"energy": -0.05565,
				"method": "rhf"
			},
			{
				"type": "unocc",
				"energy": -0.0159,
				"method": "rhf"
			},
			{
				"type": "unocc",
				"energy": 0.01218,
				"method": "rhf"
			},
			{
				"type": "unocc",
				"energy": 0.06105,
				"method": "rhf"
			},
			{
				"type": "unocc",
				"energy": 0.06761,
				"method": "rhf"
			}
		],
		"cosmo_sigma_profile": { 
			"-0.025": 0.0,
			"-0.024": 0.0,
			"-0.023": 0.0,
			"-0.022": 0.0,
			"-0.021": 0.0,
			"-0.02": 0.0,
			"-0.019": 0.0467138521637,
			"-0.018": 0.869398745623,
			"-0.017": 0.89286827321,
			"-0.016": 0.760072615148,
			"-0.015": 0.518377636617,
			"-0.014": 0.975235814567,
			"-0.013": 0.68479261974,
			"-0.012": 0.59057947381,
			"-0.011": 0.759883427569,
			"-0.01": 0.504346060473,
			"-0.009": 0.424030121471,
			"-0.008": 2.44234247112,
			"-0.007": 7.64336015115,
			"-0.006": 12.6241210665,
			"-0.005": 15.7509971515,
			"-0.004": 15.3265009094,
			"-0.003": 16.201068078,
			"-0.002": 19.1768373612,
			"-0.001": 17.7239774632,
			"0.0": 17.31592414,
			"0.001": 17.5708706054,
			"0.002": 20.7138486243,
			"0.003": 16.520346765,
			"0.004": 9.50088546048,
			"0.005": 9.03810508452,
			"0.006": 5.50672502652,
			"0.007": 5.20886811562,
			"0.008": 3.4926225348,
			"0.009": 2.95217454302,
			"0.01": 3.14980419578,
			"0.011": 5.06130628353,
			"0.012": 5.1144472865,
			"0.013": 0.892958463579,
			"0.014": 0.798973515084,
			"0.015": 0.28605818153,
			"0.016": 0.0,
			"0.017": 0.0,
			"0.018": 0.0,
			"0.019": 0.0,
			"0.02": 0.0,
			"0.021": 0.0,
			"0.022": 0.0,
			"0.023": 0.0,
			"0.024": 0.0,
			"0.025": 0.0
		}
	}
}
