{
	 "smiles": "CCOC(=O)C1=CC2=C(N1)C=CC(Cl)=C2", 
	 "Tm": 440.65, 
	 "num_atms": 25, 
	 "gaussian": { 
		 "optdone": 1, 
		 "sigma_profile": "yes", 
		 "theory": "DFT", 
		 "functional": "B3LYP", 
		 "basiset": "6-31G**", 
		 "properties": { 
			 "R2extent": 6337.5268, 
			 "electric_dipole_moment_norm": 2.60210936165, 
			 "electric_quadrupole_moment_norm": 17.5553392889, 
			 "total_energy": -1090.61817153, 
			 "HOMO_LUMO_gap": 0.1666, 
			 "cosmo_polarized_energy": -9.98, 
			 "cosmo_cavitation_energy": 31.75, 
			 "cosmo_dispersion_energy": -23.44, 
			 "cosmo_repulsion_energy": 1.85, 
			 "cosmo_total_nonelectrostatic_energy": 10.16, 
			 "SMD_solvation_energy": 5.84 
		},
		"coords": [
			{
				"x": -3.1633986194,
				"y": 1.2378417735,
				"z": -2.8734943936,
				"element": "C" 
			},
			{
				"x": -1.9555755526,
				"y": 1.8238399919,
				"z": -2.1683190628,
				"element": "C" 
			},
			{
				"x": -1.4367678235,
				"y": 0.8065643246,
				"z": -1.2791367373,
				"element": "O" 
			},
			{
				"x": -0.3514400133,
				"y": 1.1539679803,
				"z": -0.5637480977,
				"element": "C" 
			},
			{
				"x": 0.1977973951,
				"y": 2.242473049,
				"z": -0.6238301633,
				"element": "O" 
			},
			{
				"x": 0.114157551,
				"y": 0.0735593119,
				"z": 0.3117834009,
				"element": "C" 
			},
			{
				"x": -0.3417828791,
				"y": -1.208406463,
				"z": 0.5368829798,
				"element": "C" 
			},
			{
				"x": 0.5285077618,
				"y": -1.7910807511,
				"z": 1.5089660925,
				"element": "C" 
			},
			{
				"x": 1.5052765141,
				"y": -0.8035640658,
				"z": 1.8404330795,
				"element": "C" 
			},
			{
				"x": 1.2258814346,
				"y": 0.3141985727,
				"z": 1.0977444866,
				"element": "N" 
			},
			{
				"x": 2.5207047235,
				"y": -1.0503487892,
				"z": 2.7742393691,
				"element": "C" 
			},
			{
				"x": 2.5548356124,
				"y": -2.2974666234,
				"z": 3.3789306657,
				"element": "C" 
			},
			{
				"x": 1.590695267,
				"y": -3.2773560279,
				"z": 3.0541742306,
				"element": "C" 
			},
			{
				"x": 1.6906527705,
				"y": -4.8426511314,
				"z": 3.8592741466,
				"element": "Cl" 
			},
			{
				"x": 0.5816661587,
				"y": -3.0519643638,
				"z": 2.1353723622,
				"element": "C" 
			},
			{
				"x": -2.8868937193,
				"y": 0.3523908616,
				"z": -3.4529157293,
				"element": "H" 
			},
			{
				"x": -3.9362344748,
				"y": 0.9523096025,
				"z": -2.1541867695,
				"element": "H" 
			},
			{
				"x": -3.5872565694,
				"y": 1.978837783,
				"z": -3.5582520937,
				"element": "H" 
			},
			{
				"x": -2.2115559575,
				"y": 2.7095328009,
				"z": -1.5783500939,
				"element": "H" 
			},
			{
				"x": -1.1673149226,
				"y": 2.1124608393,
				"z": -2.8707241508,
				"element": "H" 
			},
			{
				"x": -1.1957453958,
				"y": -1.6638623692,
				"z": 0.058332223,
				"element": "H" 
			},
			{
				"x": 1.7161230164,
				"y": 1.1960125129,
				"z": 1.0854725942,
				"element": "H" 
			},
			{
				"x": 3.2600294283,
				"y": -0.2947829271,
				"z": 3.0213139321,
				"element": "H" 
			},
			{
				"x": 3.3226640885,
				"y": -2.5320682665,
				"z": 4.1072615925,
				"element": "H" 
			},
			{
				"x": -0.1438257946,
				"y": -3.8249376259,
				"z": 1.9074761364,
				"element": "H" 
			}
		],
		 "valence_orbital": [ 
			{
				"type": "occ",
				"energy": -0.30644,
				"method": "rhf"
			},
			{
				"type": "occ",
				"energy": -0.29353,
				"method": "rhf"
			},
			{
				"type": "occ",
				"energy": -0.28425,
				"method": "rhf"
			},
			{
				"type": "occ",
				"energy": -0.2296,
				"method": "rhf"
			},
			{
				"type": "occ",
				"energy": -0.22099,
				"method": "rhf"
			},
			{
				"type": "unocc",
				"energy": -0.05439,
				"method": "rhf"
			},
			{
				"type": "unocc",
				"energy": 0.00546,
				"method": "rhf"
			},
			{
				"type": "unocc",
				"energy": 0.01815,
				"method": "rhf"
			},
			{
				"type": "unocc",
				"energy": 0.03391,
				"method": "rhf"
			},
			{
				"type": "unocc",
				"energy": 0.09014,
				"method": "rhf"
			}
		],
		"cosmo_sigma_profile": { 
			"-0.025": 0.0,
			"-0.024": 0.0,
			"-0.023": 0.0,
			"-0.022": 0.0,
			"-0.021": 0.0,
			"-0.02": 0.0,
			"-0.019": 0.0,
			"-0.018": 0.0,
			"-0.017": 0.0,
			"-0.016": 0.140636382969,
			"-0.015": 0.816124264242,
			"-0.014": 1.23159134329,
			"-0.013": 0.791985928546,
			"-0.012": 0.853395571885,
			"-0.011": 1.09242940218,
			"-0.01": 1.30195898577,
			"-0.009": 0.77795598356,
			"-0.008": 1.9927132719,
			"-0.007": 6.83702200506,
			"-0.006": 8.43157137907,
			"-0.005": 14.6731634106,
			"-0.004": 19.8822158713,
			"-0.003": 18.1004827065,
			"-0.002": 19.8251888682,
			"-0.001": 19.2042841573,
			"0.0": 18.4466443281,
			"0.001": 15.7508197495,
			"0.002": 23.9609332017,
			"0.003": 27.352888551,
			"0.004": 22.4901905236,
			"0.005": 13.8581163312,
			"0.006": 5.30799636776,
			"0.007": 1.35191401806,
			"0.008": 1.3584960707,
			"0.009": 1.72790113688,
			"0.01": 1.82264603945,
			"0.011": 3.081021751,
			"0.012": 3.16941831827,
			"0.013": 0.104129963485,
			"0.014": 0.0,
			"0.015": 0.0,
			"0.016": 0.0,
			"0.017": 0.0,
			"0.018": 0.0,
			"0.019": 0.0,
			"0.02": 0.0,
			"0.021": 0.0,
			"0.022": 0.0,
			"0.023": 0.0,
			"0.024": 0.0,
			"0.025": 0.0
		}
	}
}
