{
	 "smiles": "S=C=NC1=CC=CC2=NSN=C12", 
	 "Tm": 361.65, 
	 "num_atms": 15, 
	 "gaussian": { 
		 "optdone": 1, 
		 "sigma_profile": "yes", 
		 "theory": "DFT", 
		 "functional": "B3LYP", 
		 "basiset": "6-31G**", 
		 "properties": { 
			 "R2extent": 4505.495, 
			 "electric_dipole_moment_norm": 2.98079246007, 
			 "electric_quadrupole_moment_norm": 9.52972331603, 
			 "total_energy": -1229.14974538, 
			 "HOMO_LUMO_gap": 0.12967, 
			 "cosmo_polarized_energy": -6.5, 
			 "cosmo_cavitation_energy": 24.69, 
			 "cosmo_dispersion_energy": -19.27, 
			 "cosmo_repulsion_energy": 1.44, 
			 "cosmo_total_nonelectrostatic_energy": 6.85, 
			 "SMD_solvation_energy": 1.13 
		},
		"coords": [
			{
				"x": -5.0376966654,
				"y": 0.008300231,
				"z": -2.3585637098,
				"element": "S" 
			},
			{
				"x": -3.5052328511,
				"y": -0.0503001725,
				"z": -1.9768253898,
				"element": "C" 
			},
			{
				"x": -2.3333672792,
				"y": -0.2079602264,
				"z": -1.7464873435,
				"element": "N" 
			},
			{
				"x": -1.2033325421,
				"y": 0.3116275937,
				"z": -1.1594681506,
				"element": "C" 
			},
			{
				"x": 0.0001439076,
				"y": -0.3607178414,
				"z": -1.2002290304,
				"element": "C" 
			},
			{
				"x": 1.1756175018,
				"y": 0.1730534015,
				"z": -0.5932513024,
				"element": "C" 
			},
			{
				"x": 1.1818743532,
				"y": 1.3783992572,
				"z": 0.0633617278,
				"element": "C" 
			},
			{
				"x": -0.0407227339,
				"y": 2.1069306455,
				"z": 0.1294046397,
				"element": "C" 
			},
			{
				"x": -0.2309070298,
				"y": 3.2930597944,
				"z": 0.7226659632,
				"element": "N" 
			},
			{
				"x": -1.8129406377,
				"y": 3.6760254595,
				"z": 0.5039533165,
				"element": "S" 
			},
			{
				"x": -2.3157332698,
				"y": 2.3609091745,
				"z": -0.3463087891,
				"element": "N" 
			},
			{
				"x": -1.2447717851,
				"y": 1.579214217,
				"z": -0.4821109342,
				"element": "C" 
			},
			{
				"x": 0.0434811648,
				"y": -1.3177554963,
				"z": -1.7084598665,
				"element": "H" 
			},
			{
				"x": 2.0914845408,
				"y": -0.4057581448,
				"z": -0.6607080724,
				"element": "H" 
			},
			{
				"x": 2.0753033258,
				"y": 1.7831721072,
				"z": 0.5243269416,
				"element": "H" 
			}
		],
		 "valence_orbital": [ 
			{
				"type": "occ",
				"energy": -0.31243,
				"method": "rhf"
			},
			{
				"type": "occ",
				"energy": -0.28719,
				"method": "rhf"
			},
			{
				"type": "occ",
				"energy": -0.27876,
				"method": "rhf"
			},
			{
				"type": "occ",
				"energy": -0.2676,
				"method": "rhf"
			},
			{
				"type": "occ",
				"energy": -0.23146,
				"method": "rhf"
			},
			{
				"type": "unocc",
				"energy": -0.10179,
				"method": "rhf"
			},
			{
				"type": "unocc",
				"energy": -0.03314,
				"method": "rhf"
			},
			{
				"type": "unocc",
				"energy": -0.02982,
				"method": "rhf"
			},
			{
				"type": "unocc",
				"energy": -0.00534,
				"method": "rhf"
			},
			{
				"type": "unocc",
				"energy": 0.00034,
				"method": "rhf"
			}
		],
		"cosmo_sigma_profile": { 
			"-0.025": 0.0,
			"-0.024": 0.0,
			"-0.023": 0.0,
			"-0.022": 0.0,
			"-0.021": 0.0,
			"-0.02": 0.0,
			"-0.019": 0.0,
			"-0.018": 0.0,
			"-0.017": 0.0,
			"-0.016": 0.0,
			"-0.015": 0.0,
			"-0.014": 0.0,
			"-0.013": 0.0,
			"-0.012": 0.0,
			"-0.011": 0.0,
			"-0.01": 0.0,
			"-0.009": 0.0894563706361,
			"-0.008": 4.05434474969,
			"-0.007": 6.80137411941,
			"-0.006": 6.77584550339,
			"-0.005": 8.13170783015,
			"-0.004": 10.2599542262,
			"-0.003": 13.6210807977,
			"-0.002": 23.8482910608,
			"-0.001": 22.988133953,
			"0.0": 23.1481650477,
			"0.001": 20.78046317,
			"0.002": 15.7982829451,
			"0.003": 12.3437926357,
			"0.004": 15.528878777,
			"0.005": 9.05001393684,
			"0.006": 2.23382163531,
			"0.007": 3.58627553154,
			"0.008": 1.79848953693,
			"0.009": 2.37500454205,
			"0.01": 1.78394293727,
			"0.011": 0.556243703616,
			"0.012": 1.27985374479,
			"0.013": 0.312083391019,
			"0.014": 0.0,
			"0.015": 0.0,
			"0.016": 0.0,
			"0.017": 0.0,
			"0.018": 0.0,
			"0.019": 0.0,
			"0.02": 0.0,
			"0.021": 0.0,
			"0.022": 0.0,
			"0.023": 0.0,
			"0.024": 0.0,
			"0.025": 0.0
		}
	}
}
