{
	 "smiles": "CS(=O)(=O)C1=C(C#N)C(O)=NS1", 
	 "Tm": 509.15, 
	 "num_atms": 16, 
	 "gaussian": { 
		 "optdone": 1, 
		 "sigma_profile": "yes", 
		 "theory": "DFT", 
		 "functional": "B3LYP", 
		 "basiset": "6-31G**", 
		 "properties": { 
			 "R2extent": 2788.8635, 
			 "electric_dipole_moment_norm": 3.35078552731, 
			 "electric_quadrupole_moment_norm": 12.0865473035, 
			 "total_energy": -1324.36787364, 
			 "HOMO_LUMO_gap": 0.17587, 
			 "cosmo_polarized_energy": -20.03, 
			 "cosmo_cavitation_energy": 25.16, 
			 "cosmo_dispersion_energy": -18.68, 
			 "cosmo_repulsion_energy": 1.39, 
			 "cosmo_total_nonelectrostatic_energy": 7.88, 
			 "SMD_solvation_energy": 4.15 
		},
		"coords": [
			{
				"x": -1.9702871584,
				"y": -1.0790480793,
				"z": 0.8856214709,
				"element": "C" 
			},
			{
				"x": -1.6272206291,
				"y": 0.5742809978,
				"z": 1.5166959275,
				"element": "S" 
			},
			{
				"x": -2.7249006769,
				"y": 1.4693580144,
				"z": 1.1313217075,
				"element": "O" 
			},
			{
				"x": -1.1780013081,
				"y": 0.4558315299,
				"z": 2.9047725441,
				"element": "O" 
			},
			{
				"x": -0.2268206666,
				"y": 1.1119141009,
				"z": 0.5207021993,
				"element": "C" 
			},
			{
				"x": 1.0726550806,
				"y": 0.6436308685,
				"z": 0.5120148163,
				"element": "C" 
			},
			{
				"x": 1.6162520282,
				"y": -0.4434093633,
				"z": 1.2449813581,
				"element": "C" 
			},
			{
				"x": 2.1421982445,
				"y": -1.3334822638,
				"z": 1.7814154192,
				"element": "N" 
			},
			{
				"x": 1.8639130355,
				"y": 1.4253708087,
				"z": -0.4148736787,
				"element": "C" 
			},
			{
				"x": 3.1658029568,
				"y": 1.2229041016,
				"z": -0.6622223907,
				"element": "O" 
			},
			{
				"x": 1.2357901144,
				"y": 2.3908866078,
				"z": -1.0429711684,
				"element": "N" 
			},
			{
				"x": -0.3623521378,
				"y": 2.4333351632,
				"z": -0.5686941091,
				"element": "S" 
			},
			{
				"x": -1.1054225544,
				"y": -1.7187295689,
				"z": 1.0680266218,
				"element": "H" 
			},
			{
				"x": -2.8328077527,
				"y": -1.4392462987,
				"z": 1.4510182787,
				"element": "H" 
			},
			{
				"x": -2.2106664365,
				"y": -1.0137305481,
				"z": -0.1762573538,
				"element": "H" 
			},
			{
				"x": 3.5009678605,
				"y": 0.4971339292,
				"z": -0.1147516425,
				"element": "H" 
			}
		],
		 "valence_orbital": [ 
			{
				"type": "occ",
				"energy": -0.33537,
				"method": "rhf"
			},
			{
				"type": "occ",
				"energy": -0.3267,
				"method": "rhf"
			},
			{
				"type": "occ",
				"energy": -0.32171,
				"method": "rhf"
			},
			{
				"type": "occ",
				"energy": -0.30937,
				"method": "rhf"
			},
			{
				"type": "occ",
				"energy": -0.2797,
				"method": "rhf"
			},
			{
				"type": "unocc",
				"energy": -0.10383,
				"method": "rhf"
			},
			{
				"type": "unocc",
				"energy": -0.03692,
				"method": "rhf"
			},
			{
				"type": "unocc",
				"energy": -0.01718,
				"method": "rhf"
			},
			{
				"type": "unocc",
				"energy": -0.00121,
				"method": "rhf"
			},
			{
				"type": "unocc",
				"energy": 0.01585,
				"method": "rhf"
			}
		],
		"cosmo_sigma_profile": { 
			"-0.025": 0.0,
			"-0.024": 0.0,
			"-0.023": 0.0,
			"-0.022": 0.0,
			"-0.021": 0.0,
			"-0.02": 0.0,
			"-0.019": 0.173280045421,
			"-0.018": 1.05335338831,
			"-0.017": 1.05550273691,
			"-0.016": 0.886076300914,
			"-0.015": 0.778751576515,
			"-0.014": 1.72042583177,
			"-0.013": 1.51430007809,
			"-0.012": 0.577244123106,
			"-0.011": 2.18385519404,
			"-0.01": 5.0490661545,
			"-0.009": 6.21804604654,
			"-0.008": 7.96810158393,
			"-0.007": 9.48872338993,
			"-0.006": 12.5503761161,
			"-0.005": 13.1663377534,
			"-0.004": 10.022703603,
			"-0.003": 9.60436097431,
			"-0.002": 10.2539651966,
			"-0.001": 12.8345850029,
			"0.0": 6.95319029936,
			"0.001": 4.90828801061,
			"0.002": 5.34332257759,
			"0.003": 7.88832372211,
			"0.004": 7.49534354995,
			"0.005": 5.89652989326,
			"0.006": 7.69884804385,
			"0.007": 9.56342288138,
			"0.008": 9.88402375762,
			"0.009": 13.4149951248,
			"0.01": 12.4800430811,
			"0.011": 5.72390578135,
			"0.012": 1.31452800398,
			"0.013": 0.0762264906968,
			"0.014": 0.0,
			"0.015": 0.0,
			"0.016": 0.0,
			"0.017": 0.0,
			"0.018": 0.0,
			"0.019": 0.0,
			"0.02": 0.0,
			"0.021": 0.0,
			"0.022": 0.0,
			"0.023": 0.0,
			"0.024": 0.0,
			"0.025": 0.0
		}
	}
}
