{
	 "smiles": "CCOC(=O)C1=C(N)C=C(S1)C1=CC=CC=C1", 
	 "Tm": 375.15, 
	 "num_atms": 30, 
	 "gaussian": { 
		 "optdone": 1, 
		 "sigma_profile": "yes", 
		 "theory": "DFT", 
		 "functional": "B3LYP", 
		 "basiset": "6-31G**", 
		 "properties": { 
			 "R2extent": 6238.124, 
			 "electric_dipole_moment_norm": 1.91733372421, 
			 "electric_quadrupole_moment_norm": 13.9924652181, 
			 "total_energy": -1106.62964674, 
			 "HOMO_LUMO_gap": 0.14598, 
			 "cosmo_polarized_energy": -11.82, 
			 "cosmo_cavitation_energy": 35.67, 
			 "cosmo_dispersion_energy": -26.52, 
			 "cosmo_repulsion_energy": 2.03, 
			 "cosmo_total_nonelectrostatic_energy": 11.18, 
			 "SMD_solvation_energy": 6.5 
		},
		"coords": [
			{
				"x": -3.8273591334,
				"y": -3.4739654231,
				"z": 0.7470590667,
				"element": "C" 
			},
			{
				"x": -2.3892877861,
				"y": -3.713624308,
				"z": 0.3269217074,
				"element": "C" 
			},
			{
				"x": -1.7812877733,
				"y": -2.4227816767,
				"z": 0.1129319262,
				"element": "O" 
			},
			{
				"x": -0.485161967,
				"y": -2.4331184837,
				"z": -0.282863885,
				"element": "C" 
			},
			{
				"x": 0.1507720655,
				"y": -3.4726544942,
				"z": -0.4535960594,
				"element": "O" 
			},
			{
				"x": 0.0580470013,
				"y": -1.1079061137,
				"z": -0.4699998478,
				"element": "C" 
			},
			{
				"x": 1.3726478102,
				"y": -0.8384690245,
				"z": -0.8586023638,
				"element": "C" 
			},
			{
				"x": 2.2829778628,
				"y": -1.8026693532,
				"z": -1.1965150834,
				"element": "N" 
			},
			{
				"x": 1.639489909,
				"y": 0.5650977268,
				"z": -0.8965096115,
				"element": "C" 
			},
			{
				"x": 0.5589448744,
				"y": 1.3446857782,
				"z": -0.5543054462,
				"element": "C" 
			},
			{
				"x": -0.841947581,
				"y": 0.3696020702,
				"z": -0.1822186796,
				"element": "S" 
			},
			{
				"x": 0.4982597228,
				"y": 2.8121962946,
				"z": -0.5034289168,
				"element": "C" 
			},
			{
				"x": 1.3360832212,
				"y": 3.5860849624,
				"z": -1.3276514503,
				"element": "C" 
			},
			{
				"x": 1.2972138198,
				"y": 4.9773768961,
				"z": -1.2763062214,
				"element": "C" 
			},
			{
				"x": 0.4143782659,
				"y": 5.6264065066,
				"z": -0.4100713927,
				"element": "C" 
			},
			{
				"x": -0.4287858109,
				"y": 4.8702451244,
				"z": 0.4065753861,
				"element": "C" 
			},
			{
				"x": -0.3860657769,
				"y": 3.4783795053,
				"z": 0.3638692224,
				"element": "C" 
			},
			{
				"x": -4.3283585665,
				"y": -4.4315058097,
				"z": 0.9206918549,
				"element": "H" 
			},
			{
				"x": -3.8723686779,
				"y": -2.8888450675,
				"z": 1.6701162455,
				"element": "H" 
			},
			{
				"x": -4.3760199916,
				"y": -2.9334879734,
				"z": -0.0296040508,
				"element": "H" 
			},
			{
				"x": -1.8223008563,
				"y": -4.251659125,
				"z": 1.0936662986,
				"element": "H" 
			},
			{
				"x": -2.3234261951,
				"y": -4.2958013442,
				"z": -0.5978925212,
				"element": "H" 
			},
			{
				"x": 3.2619510802,
				"y": -1.5727859367,
				"z": -1.1306624643,
				"element": "H" 
			},
			{
				"x": 2.0047590993,
				"y": -2.7510492876,
				"z": -0.9692835748,
				"element": "H" 
			},
			{
				"x": 2.6117726626,
				"y": 0.9745110064,
				"z": -1.1471096327,
				"element": "H" 
			},
			{
				"x": 2.0015935077,
				"y": 3.0907701895,
				"z": -2.027723703,
				"element": "H" 
			},
			{
				"x": 1.9498404633,
				"y": 5.5564619328,
				"z": -1.9233757015,
				"element": "H" 
			},
			{
				"x": 0.3818906187,
				"y": 6.7113200472,
				"z": -0.374366402,
				"element": "H" 
			},
			{
				"x": -1.1168129968,
				"y": 5.3648528915,
				"z": 1.0860676611,
				"element": "H" 
			},
			{
				"x": -1.027738872,
				"y": 2.8996324892,
				"z": 1.0217876394,
				"element": "H" 
			}
		],
		 "valence_orbital": [ 
			{
				"type": "occ",
				"energy": -0.27123,
				"method": "rhf"
			},
			{
				"type": "occ",
				"energy": -0.2653,
				"method": "rhf"
			},
			{
				"type": "occ",
				"energy": -0.25721,
				"method": "rhf"
			},
			{
				"type": "occ",
				"energy": -0.22835,
				"method": "rhf"
			},
			{
				"type": "occ",
				"energy": -0.19858,
				"method": "rhf"
			},
			{
				"type": "unocc",
				"energy": -0.0526,
				"method": "rhf"
			},
			{
				"type": "unocc",
				"energy": -0.00889,
				"method": "rhf"
			},
			{
				"type": "unocc",
				"energy": 0.00505,
				"method": "rhf"
			},
			{
				"type": "unocc",
				"energy": 0.03493,
				"method": "rhf"
			},
			{
				"type": "unocc",
				"energy": 0.05396,
				"method": "rhf"
			}
		],
		"cosmo_sigma_profile": { 
			"-0.025": 0.0,
			"-0.024": 0.0,
			"-0.023": 0.0,
			"-0.022": 0.0,
			"-0.021": 0.0,
			"-0.02": 0.0,
			"-0.019": 0.0,
			"-0.018": 0.0,
			"-0.017": 0.0,
			"-0.016": 0.0,
			"-0.015": 0.0,
			"-0.014": 0.617931793309,
			"-0.013": 1.3717478116,
			"-0.012": 1.46268693168,
			"-0.011": 1.01954434404,
			"-0.01": 1.58163627634,
			"-0.009": 2.50357403611,
			"-0.008": 3.45902218443,
			"-0.007": 4.36383541571,
			"-0.006": 11.2064573487,
			"-0.005": 16.2470326428,
			"-0.004": 26.8589614172,
			"-0.003": 21.4238110131,
			"-0.002": 21.3733987278,
			"-0.001": 17.3407043554,
			"0.0": 19.832823122,
			"0.001": 20.7094058926,
			"0.002": 20.8397293026,
			"0.003": 29.4173777114,
			"0.004": 25.7612645213,
			"0.005": 16.2367191732,
			"0.006": 5.37174679804,
			"0.007": 4.632609723,
			"0.008": 2.27360381541,
			"0.009": 2.12014397317,
			"0.01": 1.86454244023,
			"0.011": 2.65530991604,
			"0.012": 2.47263131233,
			"0.013": 1.18722684847,
			"0.014": 0.00901856509938,
			"0.015": 0.0,
			"0.016": 0.0,
			"0.017": 0.0,
			"0.018": 0.0,
			"0.019": 0.0,
			"0.02": 0.0,
			"0.021": 0.0,
			"0.022": 0.0,
			"0.023": 0.0,
			"0.024": 0.0,
			"0.025": 0.0
		}
	}
}
