{
	 "smiles": "CC(C)C1=C(OC2=C(C=CC=C2)C(O)=O)C=CC=C1", 
	 "Tm": 407.15, 
	 "num_atms": 35, 
	 "gaussian": { 
		 "optdone": 1, 
		 "sigma_profile": "yes", 
		 "theory": "DFT", 
		 "functional": "B3LYP", 
		 "basiset": "6-31G**", 
		 "properties": { 
			 "R2extent": 4644.6325, 
			 "electric_dipole_moment_norm": 4.17059749916, 
			 "electric_quadrupole_moment_norm": 13.6266240173, 
			 "total_energy": -845.017611121, 
			 "HOMO_LUMO_gap": 0.18768, 
			 "cosmo_polarized_energy": -16.06, 
			 "cosmo_cavitation_energy": 39.07, 
			 "cosmo_dispersion_energy": -25.03, 
			 "cosmo_repulsion_energy": 1.93, 
			 "cosmo_total_nonelectrostatic_energy": 15.97, 
			 "SMD_solvation_energy": 7.38 
		},
		"coords": [
			{
				"x": -0.6531754925,
				"y": 1.7234298145,
				"z": -1.4552207403,
				"element": "C" 
			},
			{
				"x": 0.1818582489,
				"y": 0.5137085107,
				"z": -1.91619472,
				"element": "C" 
			},
			{
				"x": 0.3213300418,
				"y": 0.4919414649,
				"z": -3.4511877698,
				"element": "C" 
			},
			{
				"x": -0.38977467,
				"y": -0.7997744685,
				"z": -1.3928589527,
				"element": "C" 
			},
			{
				"x": 0.3214968262,
				"y": -1.6731960522,
				"z": -0.5537763745,
				"element": "C" 
			},
			{
				"x": 1.6442730996,
				"y": -1.4248175938,
				"z": -0.1739949277,
				"element": "O" 
			},
			{
				"x": 2.0368786472,
				"y": -0.3619220248,
				"z": 0.5936169785,
				"element": "C" 
			},
			{
				"x": 1.299542453,
				"y": 0.2156116092,
				"z": 1.6477614139,
				"element": "C" 
			},
			{
				"x": 1.8521779574,
				"y": 1.3204583025,
				"z": 2.3239465439,
				"element": "C" 
			},
			{
				"x": 3.1065212856,
				"y": 1.8267060773,
				"z": 2.0019743567,
				"element": "C" 
			},
			{
				"x": 3.8381306155,
				"y": 1.2240869723,
				"z": 0.9755141699,
				"element": "C" 
			},
			{
				"x": 3.3033756799,
				"y": 0.1484708157,
				"z": 0.2755666101,
				"element": "C" 
			},
			{
				"x": 0.036224821,
				"y": -0.3751401764,
				"z": 2.2040888589,
				"element": "C" 
			},
			{
				"x": -0.9508901717,
				"y": 0.5232780437,
				"z": 2.4805332973,
				"element": "O" 
			},
			{
				"x": -0.112028791,
				"y": -1.5406288066,
				"z": 2.4742455436,
				"element": "O" 
			},
			{
				"x": -0.1998013532,
				"y": -2.9073250184,
				"z": -0.1619346792,
				"element": "C" 
			},
			{
				"x": -1.4685555291,
				"y": -3.2908320726,
				"z": -0.5809934275,
				"element": "C" 
			},
			{
				"x": -2.2156090382,
				"y": -2.4322300981,
				"z": -1.39056543,
				"element": "C" 
			},
			{
				"x": -1.6760203491,
				"y": -1.2108167826,
				"z": -1.7834750926,
				"element": "C" 
			},
			{
				"x": -0.7443081462,
				"y": 1.7472415519,
				"z": -0.3645649947,
				"element": "H" 
			},
			{
				"x": -0.1893674435,
				"y": 2.661063031,
				"z": -1.7798090875,
				"element": "H" 
			},
			{
				"x": -1.6669526928,
				"y": 1.6920825801,
				"z": -1.8683181982,
				"element": "H" 
			},
			{
				"x": 1.1877989715,
				"y": 0.6367261768,
				"z": -1.5083877403,
				"element": "H" 
			},
			{
				"x": 0.944424891,
				"y": -0.3459281771,
				"z": -3.7781695866,
				"element": "H" 
			},
			{
				"x": -0.6529173263,
				"y": 0.3948045913,
				"z": -3.9419214423,
				"element": "H" 
			},
			{
				"x": 0.782478323,
				"y": 1.419858637,
				"z": -3.8072000507,
				"element": "H" 
			},
			{
				"x": 1.2986082098,
				"y": 1.7522684232,
				"z": 3.1537519919,
				"element": "H" 
			},
			{
				"x": 3.5137711076,
				"y": 2.6680029565,
				"z": 2.5531138626,
				"element": "H" 
			},
			{
				"x": 4.8226607714,
				"y": 1.5984198974,
				"z": 0.7110989692,
				"element": "H" 
			},
			{
				"x": 3.8440186755,
				"y": -0.3198323079,
				"z": -0.5401837895,
				"element": "H" 
			},
			{
				"x": -0.7116530069,
				"y": 1.3880039911,
				"z": 2.1174674854,
				"element": "H" 
			},
			{
				"x": 0.3978236377,
				"y": -3.5342331883,
				"z": 0.4890085863,
				"element": "H" 
			},
			{
				"x": -1.8749584171,
				"y": -4.2474436566,
				"z": -0.267401909,
				"element": "H" 
			},
			{
				"x": -3.2113304344,
				"y": -2.7152492319,
				"z": -1.7188447877,
				"element": "H" 
			},
			{
				"x": -2.2584514016,
				"y": -0.5588937913,
				"z": -2.4288849669,
				"element": "H" 
			}
		],
		 "valence_orbital": [ 
			{
				"type": "occ",
				"energy": -0.27878,
				"method": "rhf"
			},
			{
				"type": "occ",
				"energy": -0.26425,
				"method": "rhf"
			},
			{
				"type": "occ",
				"energy": -0.24728,
				"method": "rhf"
			},
			{
				"type": "occ",
				"energy": -0.24084,
				"method": "rhf"
			},
			{
				"type": "occ",
				"energy": -0.22835,
				"method": "rhf"
			},
			{
				"type": "unocc",
				"energy": -0.04067,
				"method": "rhf"
			},
			{
				"type": "unocc",
				"energy": -0.0176,
				"method": "rhf"
			},
			{
				"type": "unocc",
				"energy": 0.00056,
				"method": "rhf"
			},
			{
				"type": "unocc",
				"energy": 0.0038,
				"method": "rhf"
			},
			{
				"type": "unocc",
				"energy": 0.03389,
				"method": "rhf"
			}
		],
		"cosmo_sigma_profile": { 
			"-0.025": 0.0,
			"-0.024": 0.0,
			"-0.023": 0.0,
			"-0.022": 0.0,
			"-0.021": 0.0,
			"-0.02": 0.0,
			"-0.019": 0.0,
			"-0.018": 0.0,
			"-0.017": 0.0,
			"-0.016": 0.0,
			"-0.015": 0.183137066121,
			"-0.014": 1.0551738204,
			"-0.013": 0.158374904267,
			"-0.012": 1.00888607196,
			"-0.011": 1.31314571004,
			"-0.01": 1.38971359282,
			"-0.009": 1.19749589117,
			"-0.008": 2.01547928214,
			"-0.007": 6.84186420394,
			"-0.006": 14.077116721,
			"-0.005": 18.6721296222,
			"-0.004": 32.4597681082,
			"-0.003": 22.6826988499,
			"-0.002": 23.0417265547,
			"-0.001": 26.2407713501,
			"0.0": 25.9336190049,
			"0.001": 29.5434114054,
			"0.002": 21.5863366925,
			"0.003": 20.3896805848,
			"0.004": 15.2685384691,
			"0.005": 10.7352878451,
			"0.006": 7.20288452834,
			"0.007": 4.71574600963,
			"0.008": 4.85464831095,
			"0.009": 4.6811734991,
			"0.01": 5.30117844087,
			"0.011": 4.1806829917,
			"0.012": 3.08889202947,
			"0.013": 0.839257629279,
			"0.014": 0.0,
			"0.015": 0.0,
			"0.016": 0.0,
			"0.017": 0.0,
			"0.018": 0.0,
			"0.019": 0.0,
			"0.02": 0.0,
			"0.021": 0.0,
			"0.022": 0.0,
			"0.023": 0.0,
			"0.024": 0.0,
			"0.025": 0.0
		}
	}
}
