{
	 "smiles": "COC1=CC=CC(F)=C1C(N)=O", 
	 "Tm": 465.15, 
	 "num_atms": 20, 
	 "gaussian": { 
		 "optdone": 1, 
		 "sigma_profile": "yes", 
		 "theory": "DFT", 
		 "functional": "B3LYP", 
		 "basiset": "6-31G**", 
		 "properties": { 
			 "R2extent": 2648.5349, 
			 "electric_dipole_moment_norm": 2.45388465499, 
			 "electric_quadrupole_moment_norm": 10.1510031618, 
			 "total_energy": -614.703451096, 
			 "HOMO_LUMO_gap": 0.21007, 
			 "cosmo_polarized_energy": -12.01, 
			 "cosmo_cavitation_energy": 24.35, 
			 "cosmo_dispersion_energy": -17.92, 
			 "cosmo_repulsion_energy": 1.42, 
			 "cosmo_total_nonelectrostatic_energy": 7.85, 
			 "SMD_solvation_energy": 6.01 
		},
		"coords": [
			{
				"x": -0.9126376862,
				"y": 1.02747896,
				"z": -0.767543629,
				"element": "C" 
			},
			{
				"x": 0.0294723069,
				"y": -0.0026085336,
				"z": -1.096645273,
				"element": "O" 
			},
			{
				"x": 1.209791647,
				"y": 0.0274921999,
				"z": -0.4083441495,
				"element": "C" 
			},
			{
				"x": 2.2507433378,
				"y": 0.8284118915,
				"z": -0.8899433212,
				"element": "C" 
			},
			{
				"x": 3.4981449481,
				"y": 0.8159936626,
				"z": -0.2695608264,
				"element": "C" 
			},
			{
				"x": 3.7277841557,
				"y": -0.0092088598,
				"z": 0.8307537726,
				"element": "C" 
			},
			{
				"x": 2.6841155836,
				"y": -0.8033078866,
				"z": 1.2830013557,
				"element": "C" 
			},
			{
				"x": 2.9330238984,
				"y": -1.6160309704,
				"z": 2.345893921,
				"element": "F" 
			},
			{
				"x": 1.4063756464,
				"y": -0.8098337421,
				"z": 0.7130274069,
				"element": "C" 
			},
			{
				"x": 0.2625867815,
				"y": -1.6154781942,
				"z": 1.2830626123,
				"element": "C" 
			},
			{
				"x": 0.5660481668,
				"y": -2.89216591,
				"z": 1.6675485923,
				"element": "N" 
			},
			{
				"x": -0.8726056042,
				"y": -1.1648762359,
				"z": 1.3659788723,
				"element": "O" 
			},
			{
				"x": -1.2634385387,
				"y": 0.900106951,
				"z": 0.2592391169,
				"element": "H" 
			},
			{
				"x": -1.7459759585,
				"y": 0.9050409474,
				"z": -1.4616900155,
				"element": "H" 
			},
			{
				"x": -0.4704683466,
				"y": 2.0229769553,
				"z": -0.904268713,
				"element": "H" 
			},
			{
				"x": 2.0662321762,
				"y": 1.438434982,
				"z": -1.767860644,
				"element": "H" 
			},
			{
				"x": 4.3002444894,
				"y": 1.4408137627,
				"z": -0.6501296352,
				"element": "H" 
			},
			{
				"x": 4.6868198692,
				"y": -0.0524621076,
				"z": 1.3341611088,
				"element": "H" 
			},
			{
				"x": -0.1575727319,
				"y": -3.383662181,
				"z": 2.1723639684,
				"element": "H" 
			},
			{
				"x": 1.523415859,
				"y": -3.1616156912,
				"z": 1.8296554796,
				"element": "H" 
			}
		],
		 "valence_orbital": [ 
			{
				"type": "occ",
				"energy": -0.27411,
				"method": "rhf"
			},
			{
				"type": "occ",
				"energy": -0.26958,
				"method": "rhf"
			},
			{
				"type": "occ",
				"energy": -0.2627,
				"method": "rhf"
			},
			{
				"type": "occ",
				"energy": -0.24975,
				"method": "rhf"
			},
			{
				"type": "occ",
				"energy": -0.24465,
				"method": "rhf"
			},
			{
				"type": "unocc",
				"energy": -0.03458,
				"method": "rhf"
			},
			{
				"type": "unocc",
				"energy": -0.00692,
				"method": "rhf"
			},
			{
				"type": "unocc",
				"energy": 0.04594,
				"method": "rhf"
			},
			{
				"type": "unocc",
				"energy": 0.07743,
				"method": "rhf"
			},
			{
				"type": "unocc",
				"energy": 0.09608,
				"method": "rhf"
			}
		],
		"cosmo_sigma_profile": { 
			"-0.025": 0.0,
			"-0.024": 0.0,
			"-0.023": 0.0,
			"-0.022": 0.0,
			"-0.021": 0.0,
			"-0.02": 0.0,
			"-0.019": 0.0,
			"-0.018": 0.0,
			"-0.017": 0.0,
			"-0.016": 0.0,
			"-0.015": 0.00802774787338,
			"-0.014": 0.794535761152,
			"-0.013": 1.29591050632,
			"-0.012": 2.63097222897,
			"-0.011": 2.05407447187,
			"-0.01": 2.15308346819,
			"-0.009": 1.80684367726,
			"-0.008": 2.68422780982,
			"-0.007": 6.29168692916,
			"-0.006": 8.27420050228,
			"-0.005": 11.6894179477,
			"-0.004": 11.2486127444,
			"-0.003": 14.7886990001,
			"-0.002": 14.9942793283,
			"-0.001": 11.6674875829,
			"0.0": 13.8843478585,
			"0.001": 15.3960805552,
			"0.002": 16.4545239831,
			"0.003": 15.8676689677,
			"0.004": 8.09622775887,
			"0.005": 3.98061633752,
			"0.006": 3.57587220201,
			"0.007": 3.13770408573,
			"0.008": 3.26106938962,
			"0.009": 2.56220789794,
			"0.01": 3.4856960111,
			"0.011": 4.85184219716,
			"0.012": 2.94924172656,
			"0.013": 2.71144393206,
			"0.014": 1.66355305283,
			"0.015": 0.0418268227975,
			"0.016": 0.0,
			"0.017": 0.0,
			"0.018": 0.0,
			"0.019": 0.0,
			"0.02": 0.0,
			"0.021": 0.0,
			"0.022": 0.0,
			"0.023": 0.0,
			"0.024": 0.0,
			"0.025": 0.0
		}
	}
}
