{
	 "smiles": "CCOC1=CC=CC=C1O", 
	 "Tm": 300.65, 
	 "num_atms": 20, 
	 "gaussian": { 
		 "optdone": 1, 
		 "sigma_profile": "yes", 
		 "theory": "DFT", 
		 "functional": "B3LYP", 
		 "basiset": "6-31G**", 
		 "properties": { 
			 "R2extent": 2801.5313, 
			 "electric_dipole_moment_norm": 2.00648519307, 
			 "electric_quadrupole_moment_norm": 11.4895452212, 
			 "total_energy": -461.309936272, 
			 "HOMO_LUMO_gap": 0.21829, 
			 "cosmo_polarized_energy": -9.58, 
			 "cosmo_cavitation_energy": 23.41, 
			 "cosmo_dispersion_energy": -17.36, 
			 "cosmo_repulsion_energy": 1.44, 
			 "cosmo_total_nonelectrostatic_energy": 7.48, 
			 "SMD_solvation_energy": 4.76 
		},
		"coords": [
			{
				"x": 0.2598416958,
				"y": 2.521020227,
				"z": -3.6847675689,
				"element": "C" 
			},
			{
				"x": 0.3140465573,
				"y": 1.5554248835,
				"z": -2.5146359533,
				"element": "C" 
			},
			{
				"x": 0.6786702791,
				"y": 0.2655355574,
				"z": -3.0366936221,
				"element": "O" 
			},
			{
				"x": 0.7544135992,
				"y": -0.7603667156,
				"z": -2.1276714993,
				"element": "C" 
			},
			{
				"x": -0.1446876929,
				"y": -1.8217077176,
				"z": -2.2276355768,
				"element": "C" 
			},
			{
				"x": -0.0637424932,
				"y": -2.9193772882,
				"z": -1.3672472753,
				"element": "C" 
			},
			{
				"x": 0.9239952671,
				"y": -2.950724998,
				"z": -0.3844757745,
				"element": "C" 
			},
			{
				"x": 1.8311543355,
				"y": -1.8945205249,
				"z": -0.2731913093,
				"element": "C" 
			},
			{
				"x": 1.7605370705,
				"y": -0.8025583284,
				"z": -1.1408909125,
				"element": "C" 
			},
			{
				"x": 2.6419058616,
				"y": 0.2441325257,
				"z": -1.0857775396,
				"element": "O" 
			},
			{
				"x": 1.2374345738,
				"y": 2.5885151216,
				"z": -4.1706542798,
				"element": "H" 
			},
			{
				"x": -0.4710470707,
				"y": 2.1890146733,
				"z": -4.4279011769,
				"element": "H" 
			},
			{
				"x": -0.0252321887,
				"y": 3.5194597303,
				"z": -3.33791295,
				"element": "H" 
			},
			{
				"x": 1.0496993468,
				"y": 1.8798662444,
				"z": -1.7709208135,
				"element": "H" 
			},
			{
				"x": -0.6654172375,
				"y": 1.4806470324,
				"z": -2.02039865,
				"element": "H" 
			},
			{
				"x": -0.9014179854,
				"y": -1.7676060967,
				"z": -3.0040722335,
				"element": "H" 
			},
			{
				"x": -0.7707186349,
				"y": -3.7374491225,
				"z": -1.4635074479,
				"element": "H" 
			},
			{
				"x": 0.9983962583,
				"y": -3.7938037144,
				"z": 0.2957212363,
				"element": "H" 
			},
			{
				"x": 2.609731158,
				"y": -1.9189618558,
				"z": 0.4874515276,
				"element": "H" 
			},
			{
				"x": 3.2766373001,
				"y": 0.0775603665,
				"z": -0.3770181807,
				"element": "H" 
			}
		],
		 "valence_orbital": [ 
			{
				"type": "occ",
				"energy": -0.33539,
				"method": "rhf"
			},
			{
				"type": "occ",
				"energy": -0.32092,
				"method": "rhf"
			},
			{
				"type": "occ",
				"energy": -0.26864,
				"method": "rhf"
			},
			{
				"type": "occ",
				"energy": -0.23771,
				"method": "rhf"
			},
			{
				"type": "occ",
				"energy": -0.21328,
				"method": "rhf"
			},
			{
				"type": "unocc",
				"energy": 0.00501,
				"method": "rhf"
			},
			{
				"type": "unocc",
				"energy": 0.01578,
				"method": "rhf"
			},
			{
				"type": "unocc",
				"energy": 0.06665,
				"method": "rhf"
			},
			{
				"type": "unocc",
				"energy": 0.09221,
				"method": "rhf"
			},
			{
				"type": "unocc",
				"energy": 0.11677,
				"method": "rhf"
			}
		],
		"cosmo_sigma_profile": { 
			"-0.025": 0.0,
			"-0.024": 0.0,
			"-0.023": 0.0,
			"-0.022": 0.0,
			"-0.021": 0.0,
			"-0.02": 0.0,
			"-0.019": 0.0,
			"-0.018": 0.501542629798,
			"-0.017": 1.06365378792,
			"-0.016": 0.929692886722,
			"-0.015": 1.07028621614,
			"-0.014": 1.56099642334,
			"-0.013": 0.601818707399,
			"-0.012": 0.575709415991,
			"-0.011": 0.951197052432,
			"-0.01": 1.04855027912,
			"-0.009": 1.45135684896,
			"-0.008": 1.45687652028,
			"-0.007": 0.797141847591,
			"-0.006": 3.73081878788,
			"-0.005": 8.12334623675,
			"-0.004": 13.5484724686,
			"-0.003": 18.1326246232,
			"-0.002": 17.8678962988,
			"-0.001": 16.0110912503,
			"0.0": 15.0348978145,
			"0.001": 12.3707098738,
			"0.002": 9.4536716329,
			"0.003": 9.96982227211,
			"0.004": 12.2296503745,
			"0.005": 11.4951722921,
			"0.006": 9.30078468151,
			"0.007": 3.33759524271,
			"0.008": 3.0247609014,
			"0.009": 1.95847106524,
			"0.01": 2.84374696846,
			"0.011": 2.89384113201,
			"0.012": 1.60882491988,
			"0.013": 0.0428219386911,
			"0.014": 0.0,
			"0.015": 0.0,
			"0.016": 0.0,
			"0.017": 0.0,
			"0.018": 0.0,
			"0.019": 0.0,
			"0.02": 0.0,
			"0.021": 0.0,
			"0.022": 0.0,
			"0.023": 0.0,
			"0.024": 0.0,
			"0.025": 0.0
		}
	}
}
