{
	 "smiles": "C(CNC1=CC=CC=C1)NC1=CC=CC=C1", 
	 "Tm": 347.15, 
	 "num_atms": 32, 
	 "gaussian": { 
		 "optdone": 1, 
		 "sigma_profile": "yes", 
		 "theory": "DFT", 
		 "functional": "B3LYP", 
		 "basiset": "6-31G**", 
		 "properties": { 
			 "R2extent": 4411.8487, 
			 "electric_dipole_moment_norm": 2.17268794584, 
			 "electric_quadrupole_moment_norm": 15.9512510444, 
			 "total_energy": -652.633660836, 
			 "HOMO_LUMO_gap": 0.18794, 
			 "cosmo_polarized_energy": -11.33, 
			 "cosmo_cavitation_energy": 34.11, 
			 "cosmo_dispersion_energy": -23.88, 
			 "cosmo_repulsion_energy": 1.86, 
			 "cosmo_total_nonelectrostatic_energy": 12.08, 
			 "SMD_solvation_energy": 3.74 
		},
		"coords": [
			{
				"x": 0.7931742114,
				"y": -2.5969995368,
				"z": 0.5789641789,
				"element": "C" 
			},
			{
				"x": -0.2448533904,
				"y": -3.0546622661,
				"z": -0.4727793517,
				"element": "C" 
			},
			{
				"x": -1.6256263568,
				"y": -3.0258843913,
				"z": -0.0254111919,
				"element": "N" 
			},
			{
				"x": -2.4555061207,
				"y": -1.9085940608,
				"z": 0.0122190454,
				"element": "C" 
			},
			{
				"x": -3.6484144384,
				"y": -1.9742797877,
				"z": 0.7632158856,
				"element": "C" 
			},
			{
				"x": -4.5374351282,
				"y": -0.9049707128,
				"z": 0.7895089885,
				"element": "C" 
			},
			{
				"x": -4.2692140808,
				"y": 0.2650204303,
				"z": 0.0738848404,
				"element": "C" 
			},
			{
				"x": -3.0899055835,
				"y": 0.3381442557,
				"z": -0.6681447747,
				"element": "C" 
			},
			{
				"x": -2.1883761117,
				"y": -0.7257636434,
				"z": -0.7046744788,
				"element": "C" 
			},
			{
				"x": 0.8015769798,
				"y": -1.1785473233,
				"z": 0.8885839038,
				"element": "N" 
			},
			{
				"x": 1.30262201,
				"y": -0.215336543,
				"z": 0.0121361416,
				"element": "C" 
			},
			{
				"x": 2.1890853122,
				"y": -0.5219752515,
				"z": -1.0380624174,
				"element": "C" 
			},
			{
				"x": 2.7069954704,
				"y": 0.4927434861,
				"z": -1.8448174436,
				"element": "C" 
			},
			{
				"x": 2.3559849256,
				"y": 1.8264917979,
				"z": -1.6412990117,
				"element": "C" 
			},
			{
				"x": 1.4677713201,
				"y": 2.1358253417,
				"z": -0.6065694662,
				"element": "C" 
			},
			{
				"x": 0.9463784539,
				"y": 1.1357713213,
				"z": 0.2063353578,
				"element": "C" 
			},
			{
				"x": 1.7950416196,
				"y": -2.8963638013,
				"z": 0.2510827889,
				"element": "H" 
			},
			{
				"x": 0.6069173874,
				"y": -3.1390996761,
				"z": 1.5142948159,
				"element": "H" 
			},
			{
				"x": -0.0120967531,
				"y": -4.0883786836,
				"z": -0.7594741637,
				"element": "H" 
			},
			{
				"x": -0.1443199928,
				"y": -2.4533548485,
				"z": -1.3809488905,
				"element": "H" 
			},
			{
				"x": -1.8666849604,
				"y": -3.7441589307,
				"z": 0.6425280994,
				"element": "H" 
			},
			{
				"x": -3.8736928446,
				"y": -2.8800880083,
				"z": 1.3227407828,
				"element": "H" 
			},
			{
				"x": -5.447504319,
				"y": -0.98815669,
				"z": 1.3778146623,
				"element": "H" 
			},
			{
				"x": -4.9624381178,
				"y": 1.0997865261,
				"z": 0.0971747906,
				"element": "H" 
			},
			{
				"x": -2.8554619882,
				"y": 1.2386488981,
				"z": -1.2294815929,
				"element": "H" 
			},
			{
				"x": -1.2786130214,
				"y": -0.6257625885,
				"z": -1.284869464,
				"element": "H" 
			},
			{
				"x": -0.0120534255,
				"y": -0.8683334188,
				"z": 1.4026986718,
				"element": "H" 
			},
			{
				"x": 2.4844488722,
				"y": -1.548078703,
				"z": -1.2278491425,
				"element": "H" 
			},
			{
				"x": 3.3918063089,
				"y": 0.2276658032,
				"z": -2.6461109668,
				"element": "H" 
			},
			{
				"x": 2.7607001383,
				"y": 2.6086899618,
				"z": -2.2756479486,
				"element": "H" 
			},
			{
				"x": 1.1746343789,
				"y": 3.1674033296,
				"z": -0.4305085108,
				"element": "H" 
			},
			{
				"x": 0.2562592446,
				"y": 1.3903977135,
				"z": 1.0070658619,
				"element": "H" 
			}
		],
		 "valence_orbital": [ 
			{
				"type": "occ",
				"energy": -0.28403,
				"method": "rhf"
			},
			{
				"type": "occ",
				"energy": -0.24322,
				"method": "rhf"
			},
			{
				"type": "occ",
				"energy": -0.23923,
				"method": "rhf"
			},
			{
				"type": "occ",
				"energy": -0.20004,
				"method": "rhf"
			},
			{
				"type": "occ",
				"energy": -0.18313,
				"method": "rhf"
			},
			{
				"type": "unocc",
				"energy": 0.00481,
				"method": "rhf"
			},
			{
				"type": "unocc",
				"energy": 0.00981,
				"method": "rhf"
			},
			{
				"type": "unocc",
				"energy": 0.02016,
				"method": "rhf"
			},
			{
				"type": "unocc",
				"energy": 0.02638,
				"method": "rhf"
			},
			{
				"type": "unocc",
				"energy": 0.07649,
				"method": "rhf"
			}
		],
		"cosmo_sigma_profile": { 
			"-0.025": 0.0,
			"-0.024": 0.0,
			"-0.023": 0.0,
			"-0.022": 0.0,
			"-0.021": 0.0,
			"-0.02": 0.0,
			"-0.019": 0.0,
			"-0.018": 0.0,
			"-0.017": 0.0,
			"-0.016": 0.0,
			"-0.015": 0.0,
			"-0.014": 0.0,
			"-0.013": 0.0870288007308,
			"-0.012": 1.08111984357,
			"-0.011": 1.75854221011,
			"-0.01": 2.54051513876,
			"-0.009": 2.26674372856,
			"-0.008": 2.81405221204,
			"-0.007": 3.93794285319,
			"-0.006": 7.15872492225,
			"-0.005": 20.6495277878,
			"-0.004": 27.1534979378,
			"-0.003": 27.4190038353,
			"-0.002": 26.1921035039,
			"-0.001": 17.1644956186,
			"0.0": 14.7052980356,
			"0.001": 13.3579768742,
			"0.002": 12.2409278803,
			"0.003": 14.0242510747,
			"0.004": 15.3358629486,
			"0.005": 15.3000742868,
			"0.006": 18.0708428658,
			"0.007": 15.7175290924,
			"0.008": 7.42628645169,
			"0.009": 1.39829218254,
			"0.01": 1.34196048974,
			"0.011": 0.782505635228,
			"0.012": 0.314062807306,
			"0.013": 0.0133515154997,
			"0.014": 0.0,
			"0.015": 0.0,
			"0.016": 0.0,
			"0.017": 0.0,
			"0.018": 0.0,
			"0.019": 0.0,
			"0.02": 0.0,
			"0.021": 0.0,
			"0.022": 0.0,
			"0.023": 0.0,
			"0.024": 0.0,
			"0.025": 0.0
		}
	}
}
