{
	 "smiles": "OC(C1=CC=CC=C1)C1=CC=CC=C1O", 
	 "Tm": 361.15, 
	 "num_atms": 27, 
	 "gaussian": { 
		 "optdone": 1, 
		 "sigma_profile": "yes", 
		 "theory": "DFT", 
		 "functional": "B3LYP", 
		 "basiset": "6-31G**", 
		 "properties": { 
			 "R2extent": 3368.9102, 
			 "electric_dipole_moment_norm": 1.75464186089, 
			 "electric_quadrupole_moment_norm": 9.37431598358, 
			 "total_energy": -653.052916056, 
			 "HOMO_LUMO_gap": 0.20723, 
			 "cosmo_polarized_energy": -12.79, 
			 "cosmo_cavitation_energy": 30.38, 
			 "cosmo_dispersion_energy": -21.88, 
			 "cosmo_repulsion_energy": 1.72, 
			 "cosmo_total_nonelectrostatic_energy": 10.22, 
			 "SMD_solvation_energy": 5.37 
		},
		"coords": [
			{
				"x": 1.1240844096,
				"y": 0.2299874016,
				"z": 2.538505478,
				"element": "O" 
			},
			{
				"x": 1.2609887594,
				"y": 0.3441839804,
				"z": 1.1220566464,
				"element": "C" 
			},
			{
				"x": 0.6272300354,
				"y": -0.8513757118,
				"z": 0.4098495965,
				"element": "C" 
			},
			{
				"x": -0.6066009409,
				"y": -1.3554148803,
				"z": 0.8442334462,
				"element": "C" 
			},
			{
				"x": -1.1879235304,
				"y": -2.4511927885,
				"z": 0.2073390772,
				"element": "C" 
			},
			{
				"x": -0.5438430557,
				"y": -3.0576420245,
				"z": -0.8742477271,
				"element": "C" 
			},
			{
				"x": 0.6854650834,
				"y": -2.5622771851,
				"z": -1.3113164306,
				"element": "C" 
			},
			{
				"x": 1.2685390173,
				"y": -1.467096003,
				"z": -0.6705757028,
				"element": "C" 
			},
			{
				"x": 0.628741334,
				"y": 1.6646116333,
				"z": 0.7076976874,
				"element": "C" 
			},
			{
				"x": -0.3185557343,
				"y": 2.308201695,
				"z": 1.5071911027,
				"element": "C" 
			},
			{
				"x": -0.906889883,
				"y": 3.5115618655,
				"z": 1.1114406912,
				"element": "C" 
			},
			{
				"x": -0.54307552,
				"y": 4.0907047532,
				"z": -0.1031792851,
				"element": "C" 
			},
			{
				"x": 0.4088801682,
				"y": 3.4702370322,
				"z": -0.9126132342,
				"element": "C" 
			},
			{
				"x": 0.9913552607,
				"y": 2.2663351807,
				"z": -0.5095203532,
				"element": "C" 
			},
			{
				"x": 1.9393374605,
				"y": 1.6295730529,
				"z": -1.2704970768,
				"element": "O" 
			},
			{
				"x": 1.3767700545,
				"y": -0.6718576304,
				"z": 2.7748926735,
				"element": "H" 
			},
			{
				"x": 2.3245345249,
				"y": 0.3762470209,
				"z": 0.843897449,
				"element": "H" 
			},
			{
				"x": -1.1028841983,
				"y": -0.8858504731,
				"z": 1.688258624,
				"element": "H" 
			},
			{
				"x": -2.1442425884,
				"y": -2.8327350358,
				"z": 0.5546649286,
				"element": "H" 
			},
			{
				"x": -0.9962717838,
				"y": -3.9118957739,
				"z": -1.3700246541,
				"element": "H" 
			},
			{
				"x": 1.1952407802,
				"y": -3.0318736822,
				"z": -2.1481934503,
				"element": "H" 
			},
			{
				"x": 2.2222905543,
				"y": -1.0780926839,
				"z": -1.0142593813,
				"element": "H" 
			},
			{
				"x": -0.5761562352,
				"y": 1.8568822078,
				"z": 2.458415889,
				"element": "H" 
			},
			{
				"x": -1.6397917664,
				"y": 3.9934792659,
				"z": 1.751189409,
				"element": "H" 
			},
			{
				"x": -0.9909699753,
				"y": 5.0267146336,
				"z": -0.4241637791,
				"element": "H" 
			},
			{
				"x": 0.7046351338,
				"y": 3.9198335439,
				"z": -1.8588279747,
				"element": "H" 
			},
			{
				"x": 2.0992126354,
				"y": 2.1470506055,
				"z": -2.0700136493,
				"element": "H" 
			}
		],
		 "valence_orbital": [ 
			{
				"type": "occ",
				"energy": -0.27836,
				"method": "rhf"
			},
			{
				"type": "occ",
				"energy": -0.24552,
				"method": "rhf"
			},
			{
				"type": "occ",
				"energy": -0.2435,
				"method": "rhf"
			},
			{
				"type": "occ",
				"energy": -0.23453,
				"method": "rhf"
			},
			{
				"type": "occ",
				"energy": -0.21563,
				"method": "rhf"
			},
			{
				"type": "unocc",
				"energy": -0.0084,
				"method": "rhf"
			},
			{
				"type": "unocc",
				"energy": 0.00255,
				"method": "rhf"
			},
			{
				"type": "unocc",
				"energy": 0.01296,
				"method": "rhf"
			},
			{
				"type": "unocc",
				"energy": 0.01946,
				"method": "rhf"
			},
			{
				"type": "unocc",
				"energy": 0.06832,
				"method": "rhf"
			}
		],
		"cosmo_sigma_profile": { 
			"-0.025": 0.0,
			"-0.024": 0.0,
			"-0.023": 0.0,
			"-0.022": 0.0,
			"-0.021": 0.0,
			"-0.02": 0.0,
			"-0.019": 0.0,
			"-0.018": 0.227127394761,
			"-0.017": 1.11319385475,
			"-0.016": 1.32690012386,
			"-0.015": 1.72916762998,
			"-0.014": 1.70186737595,
			"-0.013": 2.41700684947,
			"-0.012": 1.68141363839,
			"-0.011": 0.682703377524,
			"-0.01": 2.03243992964,
			"-0.009": 2.14634966435,
			"-0.008": 2.24567575056,
			"-0.007": 1.69931393745,
			"-0.006": 6.20794271571,
			"-0.005": 15.0661571596,
			"-0.004": 18.726566074,
			"-0.003": 22.1040679774,
			"-0.002": 15.0024645368,
			"-0.001": 14.8843014844,
			"0.0": 13.3041408791,
			"0.001": 12.4401653855,
			"0.002": 13.8514872553,
			"0.003": 16.909742808,
			"0.004": 18.7186544278,
			"0.005": 19.7192846232,
			"0.006": 20.1885882782,
			"0.007": 5.89420837867,
			"0.008": 2.92498228917,
			"0.009": 2.18816962459,
			"0.01": 1.12257480765,
			"0.011": 0.925549892754,
			"0.012": 1.25457686033,
			"0.013": 0.771199988255,
			"0.014": 0.386069857884,
			"0.015": 0.0,
			"0.016": 0.0,
			"0.017": 0.0,
			"0.018": 0.0,
			"0.019": 0.0,
			"0.02": 0.0,
			"0.021": 0.0,
			"0.022": 0.0,
			"0.023": 0.0,
			"0.024": 0.0,
			"0.025": 0.0
		}
	}
}
