{
	 "smiles": "CC1=C(SC2=C1SC=C2)C(O)=O", 
	 "Tm": 509.15, 
	 "num_atms": 18, 
	 "gaussian": { 
		 "optdone": 1, 
		 "sigma_profile": "yes", 
		 "theory": "DFT", 
		 "functional": "B3LYP", 
		 "basiset": "6-31G**", 
		 "properties": { 
			 "R2extent": 3466.0326, 
			 "electric_dipole_moment_norm": 1.89896954689, 
			 "electric_quadrupole_moment_norm": 11.7918136434, 
			 "total_energy": -1255.29469149, 
			 "HOMO_LUMO_gap": 0.16263, 
			 "cosmo_polarized_energy": -9.56, 
			 "cosmo_cavitation_energy": 25.47, 
			 "cosmo_dispersion_energy": -19.98, 
			 "cosmo_repulsion_energy": 1.48, 
			 "cosmo_total_nonelectrostatic_energy": 6.97, 
			 "SMD_solvation_energy": 5.03 
		},
		"coords": [
			{
				"x": -0.1389866408,
				"y": -1.3050097134,
				"z": 3.2838426178,
				"element": "C" 
			},
			{
				"x": 0.3991488347,
				"y": -0.6753652124,
				"z": 2.0292769393,
				"element": "C" 
			},
			{
				"x": -0.3422358488,
				"y": -0.3670922047,
				"z": 0.8981470717,
				"element": "C" 
			},
			{
				"x": 0.6140172974,
				"y": 0.3657285513,
				"z": -0.3928285575,
				"element": "S" 
			},
			{
				"x": 2.0409335699,
				"y": 0.2640894318,
				"z": 0.5884744578,
				"element": "C" 
			},
			{
				"x": 1.7564610903,
				"y": -0.305944675,
				"z": 1.8288752694,
				"element": "C" 
			},
			{
				"x": 3.1988660264,
				"y": -0.4048936048,
				"z": 2.8114194339,
				"element": "S" 
			},
			{
				"x": 4.1415877804,
				"y": 0.3210173315,
				"z": 1.5302880615,
				"element": "C" 
			},
			{
				"x": 3.4090313723,
				"y": 0.6241606136,
				"z": 0.4161177189,
				"element": "C" 
			},
			{
				"x": -1.774231116,
				"y": -0.6005020454,
				"z": 0.7291580602,
				"element": "C" 
			},
			{
				"x": -2.2266630061,
				"y": -0.1964810776,
				"z": -0.487752128,
				"element": "O" 
			},
			{
				"x": -2.5102386281,
				"y": -1.099809574,
				"z": 1.5627055183,
				"element": "O" 
			},
			{
				"x": 0.6559445896,
				"y": -1.4404854042,
				"z": 4.0218648396,
				"element": "H" 
			},
			{
				"x": -0.9282875617,
				"y": -0.6894089504,
				"z": 3.7236796614,
				"element": "H" 
			},
			{
				"x": -0.5927922977,
				"y": -2.2766837079,
				"z": 3.0709433825,
				"element": "H" 
			},
			{
				"x": 5.2000330138,
				"y": 0.4813198753,
				"z": 1.6845673062,
				"element": "H" 
			},
			{
				"x": 3.8276308111,
				"y": 1.0783715891,
				"z": -0.4736108624,
				"element": "H" 
			},
			{
				"x": -3.1773192866,
				"y": -0.3937112228,
				"z": -0.4986687905,
				"element": "H" 
			}
		],
		 "valence_orbital": [ 
			{
				"type": "occ",
				"energy": -0.31776,
				"method": "rhf"
			},
			{
				"type": "occ",
				"energy": -0.28415,
				"method": "rhf"
			},
			{
				"type": "occ",
				"energy": -0.27636,
				"method": "rhf"
			},
			{
				"type": "occ",
				"energy": -0.23818,
				"method": "rhf"
			},
			{
				"type": "occ",
				"energy": -0.22421,
				"method": "rhf"
			},
			{
				"type": "unocc",
				"energy": -0.06158,
				"method": "rhf"
			},
			{
				"type": "unocc",
				"energy": 0.00722,
				"method": "rhf"
			},
			{
				"type": "unocc",
				"energy": 0.00834,
				"method": "rhf"
			},
			{
				"type": "unocc",
				"energy": 0.02749,
				"method": "rhf"
			},
			{
				"type": "unocc",
				"energy": 0.05767,
				"method": "rhf"
			}
		],
		"cosmo_sigma_profile": { 
			"-0.025": 0.0,
			"-0.024": 0.0,
			"-0.023": 0.0,
			"-0.022": 0.0,
			"-0.021": 0.0,
			"-0.02": 0.0,
			"-0.019": 0.0313071803604,
			"-0.018": 0.778971138118,
			"-0.017": 0.991526314474,
			"-0.016": 0.744156418894,
			"-0.015": 0.450387667593,
			"-0.014": 1.19032621753,
			"-0.013": 0.741916766721,
			"-0.012": 0.718083887582,
			"-0.011": 0.498172303895,
			"-0.01": 0.97614344649,
			"-0.009": 2.27286902087,
			"-0.008": 4.74961654138,
			"-0.007": 5.21573423531,
			"-0.006": 6.24952060495,
			"-0.005": 9.56329836451,
			"-0.004": 8.79329450417,
			"-0.003": 12.5008006489,
			"-0.002": 13.4269705674,
			"-0.001": 17.9652272307,
			"0.0": 15.6510961602,
			"0.001": 17.201188183,
			"0.002": 27.3230645862,
			"0.003": 22.1111870753,
			"0.004": 14.0174412576,
			"0.005": 4.66120801447,
			"0.006": 3.6630493437,
			"0.007": 3.09855048145,
			"0.008": 2.5186702471,
			"0.009": 1.63959830089,
			"0.01": 2.18056016903,
			"0.011": 2.2974185408,
			"0.012": 4.11542004793,
			"0.013": 0.262980117436,
			"0.014": 0.0,
			"0.015": 0.0,
			"0.016": 0.0,
			"0.017": 0.0,
			"0.018": 0.0,
			"0.019": 0.0,
			"0.02": 0.0,
			"0.021": 0.0,
			"0.022": 0.0,
			"0.023": 0.0,
			"0.024": 0.0,
			"0.025": 0.0
		}
	}
}
