{
	 "smiles": "NC(=O)C1=NNC(=O)C=C1", 
	 "Tm": 600.15, 
	 "num_atms": 15, 
	 "gaussian": { 
		 "optdone": 1, 
		 "sigma_profile": "yes", 
		 "theory": "DFT", 
		 "functional": "B3LYP", 
		 "basiset": "6-31G**", 
		 "properties": { 
			 "R2extent": 1860.0587, 
			 "electric_dipole_moment_norm": 2.96910786096, 
			 "electric_quadrupole_moment_norm": 14.2619801932, 
			 "total_energy": -508.243279721, 
			 "HOMO_LUMO_gap": 0.17192, 
			 "cosmo_polarized_energy": -16.7, 
			 "cosmo_cavitation_energy": 20.29, 
			 "cosmo_dispersion_energy": -15.4, 
			 "cosmo_repulsion_energy": 1.27, 
			 "cosmo_total_nonelectrostatic_energy": 6.16, 
			 "SMD_solvation_energy": 4.72 
		},
		"coords": [
			{
				"x": 0.4749799828,
				"y": 2.3267633885,
				"z": 0.1284409205,
				"element": "N" 
			},
			{
				"x": -0.4049811503,
				"y": 1.3619906673,
				"z": 0.4976866953,
				"element": "C" 
			},
			{
				"x": -1.6161108782,
				"y": 1.5311457167,
				"z": 0.5886565115,
				"element": "O" 
			},
			{
				"x": 0.2022929031,
				"y": 0.018580333,
				"z": 0.8027275878,
				"element": "C" 
			},
			{
				"x": 1.5010502841,
				"y": -0.1150862128,
				"z": 0.6917742922,
				"element": "N" 
			},
			{
				"x": 2.0081081376,
				"y": -1.3177507561,
				"z": 0.96903565,
				"element": "N" 
			},
			{
				"x": 1.3260397829,
				"y": -2.486163644,
				"z": 1.3724743789,
				"element": "C" 
			},
			{
				"x": 1.9487266238,
				"y": -3.516085155,
				"z": 1.5882087129,
				"element": "O" 
			},
			{
				"x": -0.1121610683,
				"y": -2.2761135562,
				"z": 1.4779985298,
				"element": "C" 
			},
			{
				"x": -0.6522453088,
				"y": -1.0617471542,
				"z": 1.2012354923,
				"element": "C" 
			},
			{
				"x": 0.1188359615,
				"y": 3.244155768,
				"z": -0.0866167241,
				"element": "H" 
			},
			{
				"x": 1.4613905608,
				"y": 2.1287759916,
				"z": 0.0710810566,
				"element": "H" 
			},
			{
				"x": 3.0146277571,
				"y": -1.4003434449,
				"z": 0.8771448398,
				"element": "H" 
			},
			{
				"x": -0.7083582335,
				"y": -3.1286272224,
				"z": 1.7835422801,
				"element": "H" 
			},
			{
				"x": -1.7159953548,
				"y": -0.8611947195,
				"z": 1.2667097765,
				"element": "H" 
			}
		],
		 "valence_orbital": [ 
			{
				"type": "occ",
				"energy": -0.32778,
				"method": "rhf"
			},
			{
				"type": "occ",
				"energy": -0.27795,
				"method": "rhf"
			},
			{
				"type": "occ",
				"energy": -0.27377,
				"method": "rhf"
			},
			{
				"type": "occ",
				"energy": -0.25841,
				"method": "rhf"
			},
			{
				"type": "occ",
				"energy": -0.25173,
				"method": "rhf"
			},
			{
				"type": "unocc",
				"energy": -0.07981,
				"method": "rhf"
			},
			{
				"type": "unocc",
				"energy": -0.03651,
				"method": "rhf"
			},
			{
				"type": "unocc",
				"energy": 0.05804,
				"method": "rhf"
			},
			{
				"type": "unocc",
				"energy": 0.07445,
				"method": "rhf"
			},
			{
				"type": "unocc",
				"energy": 0.08546,
				"method": "rhf"
			}
		],
		"cosmo_sigma_profile": { 
			"-0.025": 0.0,
			"-0.024": 0.0,
			"-0.023": 0.0,
			"-0.022": 0.0,
			"-0.021": 0.0,
			"-0.02": 0.0,
			"-0.019": 0.0,
			"-0.018": 0.0,
			"-0.017": 0.507321774632,
			"-0.016": 1.15062910836,
			"-0.015": 1.26889377073,
			"-0.014": 2.24641717446,
			"-0.013": 2.77063732021,
			"-0.012": 2.73861780756,
			"-0.011": 2.36546696001,
			"-0.01": 3.39862882695,
			"-0.009": 2.36858497843,
			"-0.008": 6.22860982944,
			"-0.007": 4.1040687475,
			"-0.006": 5.4509888145,
			"-0.005": 5.97277065342,
			"-0.004": 7.30243010849,
			"-0.003": 11.1591084008,
			"-0.002": 15.4325714317,
			"-0.001": 13.2381882449,
			"0.0": 11.0268894891,
			"0.001": 7.20723339799,
			"0.002": 5.91153962749,
			"0.003": 6.0415942669,
			"0.004": 5.19299375819,
			"0.005": 3.13756767082,
			"0.006": 2.35393176688,
			"0.007": 2.50458294579,
			"0.008": 2.33916964221,
			"0.009": 2.04016048898,
			"0.01": 2.7224246318,
			"0.011": 4.0248609327,
			"0.012": 4.94425361859,
			"0.013": 11.5470746426,
			"0.014": 3.5446733561,
			"0.015": 0.101632093721,
			"0.016": 0.0,
			"0.017": 0.0,
			"0.018": 0.0,
			"0.019": 0.0,
			"0.02": 0.0,
			"0.021": 0.0,
			"0.022": 0.0,
			"0.023": 0.0,
			"0.024": 0.0,
			"0.025": 0.0
		}
	}
}
