{
	 "smiles": "COC(=O)C1COC2=C(O1)C=CC=C2", 
	 "Tm": 311.15, 
	 "num_atms": 24, 
	 "gaussian": { 
		 "optdone": 1, 
		 "sigma_profile": "yes", 
		 "theory": "DFT", 
		 "functional": "B3LYP", 
		 "basiset": "6-31G**", 
		 "properties": { 
			 "R2extent": 4209.3427, 
			 "electric_dipole_moment_norm": 1.63754709856, 
			 "electric_quadrupole_moment_norm": 6.79645551299, 
			 "total_energy": -687.966532562, 
			 "HOMO_LUMO_gap": 0.2062, 
			 "cosmo_polarized_energy": -10.22, 
			 "cosmo_cavitation_energy": 28.04, 
			 "cosmo_dispersion_energy": -20.93, 
			 "cosmo_repulsion_energy": 1.65, 
			 "cosmo_total_nonelectrostatic_energy": 8.77, 
			 "SMD_solvation_energy": 6.6 
		},
		"coords": [
			{
				"x": 2.167507103,
				"y": 0.9353408685,
				"z": -2.9941988315,
				"element": "C" 
			},
			{
				"x": 1.6725134366,
				"y": -0.0832088958,
				"z": -2.1041102421,
				"element": "O" 
			},
			{
				"x": 0.4430431685,
				"y": 0.1292964196,
				"z": -1.6255013316,
				"element": "C" 
			},
			{
				"x": -0.2484331886,
				"y": 1.0908338136,
				"z": -1.891605014,
				"element": "O" 
			},
			{
				"x": -0.0539206989,
				"y": -0.9840182148,
				"z": -0.7109482202,
				"element": "C" 
			},
			{
				"x": -0.7385931701,
				"y": -0.3993843395,
				"z": 0.5271534742,
				"element": "C" 
			},
			{
				"x": -1.2918243415,
				"y": -1.4491532939,
				"z": 1.3125313369,
				"element": "O" 
			},
			{
				"x": -0.4359195887,
				"y": -2.5069155432,
				"z": 1.5109223817,
				"element": "C" 
			},
			{
				"x": 0.6994685177,
				"y": -2.6963987059,
				"z": 0.7068328503,
				"element": "C" 
			},
			{
				"x": 1.0122394068,
				"y": -1.8391889074,
				"z": -0.3261309945,
				"element": "O" 
			},
			{
				"x": 1.550468046,
				"y": -3.7756373805,
				"z": 0.9465535676,
				"element": "C" 
			},
			{
				"x": 1.2674708812,
				"y": -4.6722967403,
				"z": 1.975498519,
				"element": "C" 
			},
			{
				"x": 0.1255514424,
				"y": -4.4965654993,
				"z": 2.7627506217,
				"element": "C" 
			},
			{
				"x": -0.7212222833,
				"y": -3.4136483004,
				"z": 2.5327410691,
				"element": "C" 
			},
			{
				"x": 3.1632870133,
				"y": 0.6055000156,
				"z": -3.2875901009,
				"element": "H" 
			},
			{
				"x": 2.2148375546,
				"y": 1.8993825896,
				"z": -2.4824170202,
				"element": "H" 
			},
			{
				"x": 1.5175315957,
				"y": 1.0289927404,
				"z": -3.8673377994,
				"element": "H" 
			},
			{
				"x": -0.8043937003,
				"y": -1.5569550445,
				"z": -1.2785135577,
				"element": "H" 
			},
			{
				"x": -1.5577702177,
				"y": 0.2581464298,
				"z": 0.2373228598,
				"element": "H" 
			},
			{
				"x": -0.0056374969,
				"y": 0.1702292441,
				"z": 1.115067923,
				"element": "H" 
			},
			{
				"x": 2.4221605677,
				"y": -3.8929957525,
				"z": 0.3107645578,
				"element": "H" 
			},
			{
				"x": 1.9335378686,
				"y": -5.5103329355,
				"z": 2.1554672458,
				"element": "H" 
			},
			{
				"x": -0.1027190237,
				"y": -5.1963671463,
				"z": 3.5606048612,
				"element": "H" 
			},
			{
				"x": -1.6081828925,
				"y": -3.2449554214,
				"z": 3.135041844,
				"element": "H" 
			}
		],
		 "valence_orbital": [ 
			{
				"type": "occ",
				"energy": -0.31394,
				"method": "rhf"
			},
			{
				"type": "occ",
				"energy": -0.30624,
				"method": "rhf"
			},
			{
				"type": "occ",
				"energy": -0.28503,
				"method": "rhf"
			},
			{
				"type": "occ",
				"energy": -0.23536,
				"method": "rhf"
			},
			{
				"type": "occ",
				"energy": -0.21313,
				"method": "rhf"
			},
			{
				"type": "unocc",
				"energy": -0.00693,
				"method": "rhf"
			},
			{
				"type": "unocc",
				"energy": 0.00393,
				"method": "rhf"
			},
			{
				"type": "unocc",
				"energy": 0.01517,
				"method": "rhf"
			},
			{
				"type": "unocc",
				"energy": 0.07894,
				"method": "rhf"
			},
			{
				"type": "unocc",
				"energy": 0.09959,
				"method": "rhf"
			}
		],
		"cosmo_sigma_profile": { 
			"-0.025": 0.0,
			"-0.024": 0.0,
			"-0.023": 0.0,
			"-0.022": 0.0,
			"-0.021": 0.0,
			"-0.02": 0.0,
			"-0.019": 0.0,
			"-0.018": 0.0,
			"-0.017": 0.0,
			"-0.016": 0.0,
			"-0.015": 0.0,
			"-0.014": 0.0,
			"-0.013": 0.0,
			"-0.012": 0.0,
			"-0.011": 0.0,
			"-0.01": 0.0,
			"-0.009": 1.0797377731,
			"-0.008": 4.39881496351,
			"-0.007": 8.28409697053,
			"-0.006": 18.0536231569,
			"-0.005": 20.8695749041,
			"-0.004": 21.9996008034,
			"-0.003": 17.3920334847,
			"-0.002": 12.4195674735,
			"-0.001": 12.1724913866,
			"0.0": 9.13192290625,
			"0.001": 10.8274615775,
			"0.002": 11.0539221615,
			"0.003": 14.5681519303,
			"0.004": 13.9719244387,
			"0.005": 12.2658292925,
			"0.006": 8.06878774064,
			"0.007": 4.5683903884,
			"0.008": 4.52286800457,
			"0.009": 4.18568829573,
			"0.01": 4.46909608942,
			"0.011": 6.28023141128,
			"0.012": 2.25814458011,
			"0.013": 0.342582249754,
			"0.014": 0.0,
			"0.015": 0.0,
			"0.016": 0.0,
			"0.017": 0.0,
			"0.018": 0.0,
			"0.019": 0.0,
			"0.02": 0.0,
			"0.021": 0.0,
			"0.022": 0.0,
			"0.023": 0.0,
			"0.024": 0.0,
			"0.025": 0.0
		}
	}
}
