{
	 "smiles": "O=C(CC(=O)C1=CC=CC=C1)C1=CC=CC=C1", 
	 "Tm": 351.15, 
	 "num_atms": 29, 
	 "gaussian": { 
		 "optdone": 1, 
		 "sigma_profile": "yes", 
		 "theory": "DFT", 
		 "functional": "B3LYP", 
		 "basiset": "6-31G**", 
		 "properties": { 
			 "R2extent": 4912.8422, 
			 "electric_dipole_moment_norm": 0.350214876897, 
			 "electric_quadrupole_moment_norm": 13.8409205767, 
			 "total_energy": -729.27962816, 
			 "HOMO_LUMO_gap": 0.1783, 
			 "cosmo_polarized_energy": -9.95, 
			 "cosmo_cavitation_energy": 33.24, 
			 "cosmo_dispersion_energy": -23.89, 
			 "cosmo_repulsion_energy": 1.82, 
			 "cosmo_total_nonelectrostatic_energy": 11.17, 
			 "SMD_solvation_energy": 6.44 
		},
		"coords": [
			{
				"x": -0.6800324337,
				"y": 0.2878170002,
				"z": -2.0434237595,
				"element": "O" 
			},
			{
				"x": 0.1012175791,
				"y": 0.7375546988,
				"z": -1.2164186225,
				"element": "C" 
			},
			{
				"x": -0.4312113118,
				"y": 1.2143427829,
				"z": 0.1452391817,
				"element": "C" 
			},
			{
				"x": -0.2041724584,
				"y": 0.2191543881,
				"z": 1.2954098635,
				"element": "C" 
			},
			{
				"x": 0.7099507839,
				"y": 0.4115577343,
				"z": 2.085293023,
				"element": "O" 
			},
			{
				"x": -1.117443139,
				"y": -0.9530435884,
				"z": 1.438840733,
				"element": "C" 
			},
			{
				"x": -2.093247143,
				"y": -1.2800769262,
				"z": 0.4827677765,
				"element": "C" 
			},
			{
				"x": -2.9113473339,
				"y": -2.3935805881,
				"z": 0.6757286765,
				"element": "C" 
			},
			{
				"x": -2.770594083,
				"y": -3.1793492541,
				"z": 1.8208007136,
				"element": "C" 
			},
			{
				"x": -1.7991721138,
				"y": -2.8597089407,
				"z": 2.7755528654,
				"element": "C" 
			},
			{
				"x": -0.9747633821,
				"y": -1.7568065784,
				"z": 2.5834881499,
				"element": "C" 
			},
			{
				"x": 1.5601439237,
				"y": 0.8519493404,
				"z": -1.5116143111,
				"element": "C" 
			},
			{
				"x": 1.9892779273,
				"y": 0.547543456,
				"z": -2.8153810812,
				"element": "C" 
			},
			{
				"x": 3.3349215884,
				"y": 0.6401326821,
				"z": -3.1524277896,
				"element": "C" 
			},
			{
				"x": 4.270671523,
				"y": 1.0287825655,
				"z": -2.1876948886,
				"element": "C" 
			},
			{
				"x": 3.8548901102,
				"y": 1.3215472081,
				"z": -0.8877487783,
				"element": "C" 
			},
			{
				"x": 2.5045537069,
				"y": 1.2396782741,
				"z": -0.5467404464,
				"element": "C" 
			},
			{
				"x": 0.0594081262,
				"y": 2.1433842637,
				"z": 0.4414245196,
				"element": "H" 
			},
			{
				"x": -1.497942179,
				"y": 1.4019177304,
				"z": 0.0094151845,
				"element": "H" 
			},
			{
				"x": -2.1947084027,
				"y": -0.6916617379,
				"z": -0.4228837672,
				"element": "H" 
			},
			{
				"x": -3.6584534406,
				"y": -2.6473205017,
				"z": -0.0703652787,
				"element": "H" 
			},
			{
				"x": -3.41445955,
				"y": -4.0417136011,
				"z": 1.9695526402,
				"element": "H" 
			},
			{
				"x": -1.6877375811,
				"y": -3.4727199946,
				"z": 3.6651654633,
				"element": "H" 
			},
			{
				"x": -0.2103134415,
				"y": -1.4912982561,
				"z": 3.3058619712,
				"element": "H" 
			},
			{
				"x": 1.2450343337,
				"y": 0.2430034557,
				"z": -3.5434293784,
				"element": "H" 
			},
			{
				"x": 3.6587607675,
				"y": 0.4095456396,
				"z": -4.1631545017,
				"element": "H" 
			},
			{
				"x": 5.3225637341,
				"y": 1.1002796675,
				"z": -2.4499421774,
				"element": "H" 
			},
			{
				"x": 4.5822610632,
				"y": 1.6134111566,
				"z": -0.1361131172,
				"element": "H" 
			},
			{
				"x": 2.1964428263,
				"y": 1.4449779233,
				"z": 0.472897136,
				"element": "H" 
			}
		],
		 "valence_orbital": [ 
			{
				"type": "occ",
				"energy": -0.26226,
				"method": "rhf"
			},
			{
				"type": "occ",
				"energy": -0.2604,
				"method": "rhf"
			},
			{
				"type": "occ",
				"energy": -0.25875,
				"method": "rhf"
			},
			{
				"type": "occ",
				"energy": -0.25842,
				"method": "rhf"
			},
			{
				"type": "occ",
				"energy": -0.25034,
				"method": "rhf"
			},
			{
				"type": "unocc",
				"energy": -0.07204,
				"method": "rhf"
			},
			{
				"type": "unocc",
				"energy": -0.05195,
				"method": "rhf"
			},
			{
				"type": "unocc",
				"energy": -0.00916,
				"method": "rhf"
			},
			{
				"type": "unocc",
				"energy": -0.00872,
				"method": "rhf"
			},
			{
				"type": "unocc",
				"energy": 0.02972,
				"method": "rhf"
			}
		],
		"cosmo_sigma_profile": { 
			"-0.025": 0.0,
			"-0.024": 0.0,
			"-0.023": 0.0,
			"-0.022": 0.0,
			"-0.021": 0.0,
			"-0.02": 0.0,
			"-0.019": 0.0,
			"-0.018": 0.0,
			"-0.017": 0.0,
			"-0.016": 0.0,
			"-0.015": 0.0,
			"-0.014": 0.0,
			"-0.013": 0.0,
			"-0.012": 0.0,
			"-0.011": 0.0,
			"-0.01": 0.0,
			"-0.009": 0.0,
			"-0.008": 0.00980137151052,
			"-0.007": 5.38811336872,
			"-0.006": 20.0098493961,
			"-0.005": 24.8127462783,
			"-0.004": 27.0957747706,
			"-0.003": 19.4416203896,
			"-0.002": 15.8264482499,
			"-0.001": 14.6875513585,
			"0.0": 17.6288699318,
			"0.001": 18.7464655513,
			"0.002": 23.4252624791,
			"0.003": 25.5999660811,
			"0.004": 24.7677284065,
			"0.005": 3.75987036838,
			"0.006": 3.90686504286,
			"0.007": 3.00657500887,
			"0.008": 3.28090491959,
			"0.009": 3.2183910399,
			"0.01": 4.3889995168,
			"0.011": 6.63711504842,
			"0.012": 1.52299281316,
			"0.013": 0.0,
			"0.014": 0.0,
			"0.015": 0.0,
			"0.016": 0.0,
			"0.017": 0.0,
			"0.018": 0.0,
			"0.019": 0.0,
			"0.02": 0.0,
			"0.021": 0.0,
			"0.022": 0.0,
			"0.023": 0.0,
			"0.024": 0.0,
			"0.025": 0.0
		}
	}
}
