{
	 "smiles": "OC(=O)C1=CC=CC=C1F", 
	 "Tm": 398.15, 
	 "num_atms": 15, 
	 "gaussian": { 
		 "optdone": 1, 
		 "sigma_profile": "yes", 
		 "theory": "DFT", 
		 "functional": "B3LYP", 
		 "basiset": "6-31G**", 
		 "properties": { 
			 "R2extent": 1644.5431, 
			 "electric_dipole_moment_norm": 1.83410331225, 
			 "electric_quadrupole_moment_norm": 9.43548913464, 
			 "total_energy": -520.053597252, 
			 "HOMO_LUMO_gap": 0.20368, 
			 "cosmo_polarized_energy": -9.0, 
			 "cosmo_cavitation_energy": 20.17, 
			 "cosmo_dispersion_energy": -15.02, 
			 "cosmo_repulsion_energy": 1.2, 
			 "cosmo_total_nonelectrostatic_energy": 6.34, 
			 "SMD_solvation_energy": 5.28 
		},
		"coords": [
			{
				"x": 0.2805232482,
				"y": 1.6243352118,
				"z": -2.3625244194,
				"element": "O" 
			},
			{
				"x": -0.5935500968,
				"y": 0.701280628,
				"z": -1.9069292273,
				"element": "C" 
			},
			{
				"x": -1.7773646851,
				"y": 0.7426398714,
				"z": -2.1838602289,
				"element": "O" 
			},
			{
				"x": 0.0131700458,
				"y": -0.3545650575,
				"z": -1.0491344467,
				"element": "C" 
			},
			{
				"x": -0.8551536978,
				"y": -1.34076085,
				"z": -0.548912967,
				"element": "C" 
			},
			{
				"x": -0.3919468002,
				"y": -2.3704398908,
				"z": 0.2609343386,
				"element": "C" 
			},
			{
				"x": 0.9659475538,
				"y": -2.4337228835,
				"z": 0.5901790442,
				"element": "C" 
			},
			{
				"x": 1.8493531765,
				"y": -1.4704256357,
				"z": 0.1090078835,
				"element": "C" 
			},
			{
				"x": 1.3687339762,
				"y": -0.4455889205,
				"z": -0.7015664532,
				"element": "C" 
			},
			{
				"x": 2.2570723729,
				"y": 0.4596441506,
				"z": -1.1406819766,
				"element": "F" 
			},
			{
				"x": -0.2503566595,
				"y": 2.2376407944,
				"z": -2.8983937474,
				"element": "H" 
			},
			{
				"x": -1.9019610781,
				"y": -1.2640290684,
				"z": -0.8218020853,
				"element": "H" 
			},
			{
				"x": -1.0812963441,
				"y": -3.1203300686,
				"z": 0.6351089143,
				"element": "H" 
			},
			{
				"x": 1.3394064296,
				"y": -3.2337360744,
				"z": 1.2225125568,
				"element": "H" 
			},
			{
				"x": 2.9073225586,
				"y": -1.4920422066,
				"z": 0.3464628143,
				"element": "H" 
			}
		],
		 "valence_orbital": [ 
			{
				"type": "occ",
				"energy": -0.35343,
				"method": "rhf"
			},
			{
				"type": "occ",
				"energy": -0.31961,
				"method": "rhf"
			},
			{
				"type": "occ",
				"energy": -0.28111,
				"method": "rhf"
			},
			{
				"type": "occ",
				"energy": -0.27117,
				"method": "rhf"
			},
			{
				"type": "occ",
				"energy": -0.25718,
				"method": "rhf"
			},
			{
				"type": "unocc",
				"energy": -0.0535,
				"method": "rhf"
			},
			{
				"type": "unocc",
				"energy": -0.01121,
				"method": "rhf"
			},
			{
				"type": "unocc",
				"energy": 0.05045,
				"method": "rhf"
			},
			{
				"type": "unocc",
				"energy": 0.07747,
				"method": "rhf"
			},
			{
				"type": "unocc",
				"energy": 0.08701,
				"method": "rhf"
			}
		],
		"cosmo_sigma_profile": { 
			"-0.025": 0.0,
			"-0.024": 0.0,
			"-0.023": 0.0,
			"-0.022": 0.0,
			"-0.021": 0.0,
			"-0.02": 0.0,
			"-0.019": 0.110793643774,
			"-0.018": 0.859424691696,
			"-0.017": 1.01520344786,
			"-0.016": 0.968452601513,
			"-0.015": 0.382716602788,
			"-0.014": 0.251415904978,
			"-0.013": 0.475105253227,
			"-0.012": 1.19011896962,
			"-0.011": 1.43669217761,
			"-0.01": 0.265261212773,
			"-0.009": 0.163301898498,
			"-0.008": 1.84604755664,
			"-0.007": 6.58829878416,
			"-0.006": 8.72796111725,
			"-0.005": 8.91383545282,
			"-0.004": 7.0958536172,
			"-0.003": 9.33708875457,
			"-0.002": 9.47229112928,
			"-0.001": 10.8293081785,
			"0.0": 14.6865332407,
			"0.001": 13.8552317312,
			"0.002": 14.096140442,
			"0.003": 13.6728211713,
			"0.004": 8.79383471734,
			"0.005": 4.55375348349,
			"0.006": 3.60807081994,
			"0.007": 2.44322058548,
			"0.008": 2.84749593908,
			"0.009": 4.15655193195,
			"0.01": 2.10076411325,
			"0.011": 4.11052258578,
			"0.012": 3.26133685559,
			"0.013": 0.0185426181758,
			"0.014": 0.0,
			"0.015": 0.0,
			"0.016": 0.0,
			"0.017": 0.0,
			"0.018": 0.0,
			"0.019": 0.0,
			"0.02": 0.0,
			"0.021": 0.0,
			"0.022": 0.0,
			"0.023": 0.0,
			"0.024": 0.0,
			"0.025": 0.0
		}
	}
}
