{
	 "smiles": "OC(=O)C1=CC(=CC=C1)S(=O)(=O)N1CCCC1", 
	 "Tm": 431.15, 
	 "num_atms": 30, 
	 "gaussian": { 
		 "optdone": 1, 
		 "sigma_profile": "yes", 
		 "theory": "DFT", 
		 "functional": "B3LYP", 
		 "basiset": "6-31G**", 
		 "properties": { 
			 "R2extent": 5266.4076, 
			 "electric_dipole_moment_norm": 4.46890400993, 
			 "electric_quadrupole_moment_norm": 30.7798610385, 
			 "total_energy": -1180.77669073, 
			 "HOMO_LUMO_gap": 0.18906, 
			 "cosmo_polarized_energy": -21.66, 
			 "cosmo_cavitation_energy": 34.36, 
			 "cosmo_dispersion_energy": -24.84, 
			 "cosmo_repulsion_energy": 1.9, 
			 "cosmo_total_nonelectrostatic_energy": 11.42, 
			 "SMD_solvation_energy": 4.92 
		},
		"coords": [
			{
				"x": -3.3142843844,
				"y": 3.4502107513,
				"z": 0.9869715099,
				"element": "O" 
			},
			{
				"x": -3.3742245799,
				"y": 2.5704950118,
				"z": -0.04455632,
				"element": "C" 
			},
			{
				"x": -4.4409183933,
				"y": 2.2611129255,
				"z": -0.5199826267,
				"element": "O" 
			},
			{
				"x": -2.0697691947,
				"y": 2.0151376733,
				"z": -0.5415383742,
				"element": "C" 
			},
			{
				"x": -0.9103049878,
				"y": 1.9892131846,
				"z": 0.2426311143,
				"element": "C" 
			},
			{
				"x": 0.2640017328,
				"y": 1.4470165791,
				"z": -0.2823389882,
				"element": "C" 
			},
			{
				"x": 0.3053941482,
				"y": 0.9453153849,
				"z": -1.5859862985,
				"element": "C" 
			},
			{
				"x": -0.8581640636,
				"y": 0.9597538397,
				"z": -2.3585000478,
				"element": "C" 
			},
			{
				"x": -2.0413849183,
				"y": 1.4768793033,
				"z": -1.8357909252,
				"element": "C" 
			},
			{
				"x": 1.7336588684,
				"y": 1.3641583609,
				"z": 0.758735379,
				"element": "S" 
			},
			{
				"x": 1.5341438398,
				"y": 2.3363718609,
				"z": 1.8363077065,
				"element": "O" 
			},
			{
				"x": 2.8902475535,
				"y": 1.3985844552,
				"z": -0.1376595829,
				"element": "O" 
			},
			{
				"x": 1.7253723824,
				"y": -0.1347861948,
				"z": 1.4674367786,
				"element": "N" 
			},
			{
				"x": 2.1145431236,
				"y": -1.3401699938,
				"z": 0.7114521055,
				"element": "C" 
			},
			{
				"x": 1.944600936,
				"y": -2.4357635483,
				"z": 1.7688961189,
				"element": "C" 
			},
			{
				"x": 0.6879113155,
				"y": -1.9861572881,
				"z": 2.5363975324,
				"element": "C" 
			},
			{
				"x": 0.7901659161,
				"y": -0.4471906923,
				"z": 2.5756786402,
				"element": "C" 
			},
			{
				"x": -2.4017387182,
				"y": 3.7279017446,
				"z": 1.1493064872,
				"element": "H" 
			},
			{
				"x": -0.889572759,
				"y": 2.3756755898,
				"z": 1.2570799506,
				"element": "H" 
			},
			{
				"x": 1.2415095483,
				"y": 0.5740854207,
				"z": -1.9886925448,
				"element": "H" 
			},
			{
				"x": -0.8370497266,
				"y": 0.5723692168,
				"z": -3.3723916597,
				"element": "H" 
			},
			{
				"x": -2.9571221456,
				"y": 1.4867762408,
				"z": -2.4169116655,
				"element": "H" 
			},
			{
				"x": 1.4450255048,
				"y": -1.5185658623,
				"z": -0.1447682304,
				"element": "H" 
			},
			{
				"x": 3.1350202515,
				"y": -1.2351125261,
				"z": 0.3405080785,
				"element": "H" 
			},
			{
				"x": 2.8164190842,
				"y": -2.4457813844,
				"z": 2.4313237875,
				"element": "H" 
			},
			{
				"x": 1.8421421702,
				"y": -3.4290996879,
				"z": 1.3242074187,
				"element": "H" 
			},
			{
				"x": -0.2103652143,
				"y": -2.2856849108,
				"z": 1.9857935928,
				"element": "H" 
			},
			{
				"x": 0.6203430334,
				"y": -2.4171878638,
				"z": 3.5384064459,
				"element": "H" 
			},
			{
				"x": 1.2077140124,
				"y": -0.0745205527,
				"z": 3.5151568311,
				"element": "H" 
			},
			{
				"x": -0.1877143356,
				"y": 0.0261629619,
				"z": 2.4313277863,
				"element": "H" 
			}
		],
		 "valence_orbital": [ 
			{
				"type": "occ",
				"energy": -0.30785,
				"method": "rhf"
			},
			{
				"type": "occ",
				"energy": -0.29171,
				"method": "rhf"
			},
			{
				"type": "occ",
				"energy": -0.28953,
				"method": "rhf"
			},
			{
				"type": "occ",
				"energy": -0.28142,
				"method": "rhf"
			},
			{
				"type": "occ",
				"energy": -0.2572,
				"method": "rhf"
			},
			{
				"type": "unocc",
				"energy": -0.06814,
				"method": "rhf"
			},
			{
				"type": "unocc",
				"energy": -0.05043,
				"method": "rhf"
			},
			{
				"type": "unocc",
				"energy": 0.02683,
				"method": "rhf"
			},
			{
				"type": "unocc",
				"energy": 0.04571,
				"method": "rhf"
			},
			{
				"type": "unocc",
				"energy": 0.06412,
				"method": "rhf"
			}
		],
		"cosmo_sigma_profile": { 
			"-0.025": 0.0,
			"-0.024": 0.0,
			"-0.023": 0.0,
			"-0.022": 0.0,
			"-0.021": 0.0,
			"-0.02": 0.0420682299849,
			"-0.019": 0.899372107404,
			"-0.018": 0.980259534295,
			"-0.017": 1.11345839729,
			"-0.016": 1.13813887022,
			"-0.015": 0.531007577621,
			"-0.014": 0.85473372276,
			"-0.013": 1.43011959311,
			"-0.012": 1.06119983503,
			"-0.011": 0.736660676368,
			"-0.01": 0.795535675935,
			"-0.009": 1.03149185529,
			"-0.008": 3.42278629594,
			"-0.007": 7.39156074376,
			"-0.006": 9.90184663464,
			"-0.005": 15.8897474233,
			"-0.004": 32.6949714355,
			"-0.003": 31.7751777433,
			"-0.002": 22.6542815112,
			"-0.001": 19.2267414286,
			"0.0": 18.4619324189,
			"0.001": 15.1677418619,
			"0.002": 9.27286018374,
			"0.003": 4.57679029264,
			"0.004": 5.89020385388,
			"0.005": 8.05147391656,
			"0.006": 5.47964495168,
			"0.007": 5.69470692318,
			"0.008": 6.19158615101,
			"0.009": 7.14610363899,
			"0.01": 12.0815213569,
			"0.011": 13.3399474002,
			"0.012": 6.71497191689,
			"0.013": 0.929144240021,
			"0.014": 0.0,
			"0.015": 0.0,
			"0.016": 0.0,
			"0.017": 0.0,
			"0.018": 0.0,
			"0.019": 0.0,
			"0.02": 0.0,
			"0.021": 0.0,
			"0.022": 0.0,
			"0.023": 0.0,
			"0.024": 0.0,
			"0.0": 0.0
		}
	}
}
