{
	 "smiles": "CC(=O)OC1C2CC(OC(C)=O)C3C1([C@@H](CC1C(C)(C)CC[C@@H](OC(C)=O)[C@@]31C)OC(C)=O)C(=O)C2=C", 
	 "Tm": 550.15, 
	 "num_atms": 75, 
	 "gaussian": { 
		 "optdone": 1, 
		 "sigma_profile": "yes", 
		 "theory": "DFT", 
		 "functional": "B3LYP", 
		 "basiset": "6-31G**", 
		 "properties": { 
			 "R2extent": 15175.8325, 
			 "electric_dipole_moment_norm": 3.18305966799, 
			 "electric_quadrupole_moment_norm": 34.0914542871, 
			 "total_energy": -1766.92200704, 
			 "HOMO_LUMO_gap": 0.18495, 
			 "cosmo_polarized_energy": -24.45, 
			 "cosmo_cavitation_energy": 67.25, 
			 "cosmo_dispersion_energy": -40.09, 
			 "cosmo_repulsion_energy": 2.92, 
			 "cosmo_total_nonelectrostatic_energy": 30.08, 
			 "SMD_solvation_energy": 15.11 
		},
		"coords": [
			{
				"x": 2.3997114846,
				"y": -3.6636812376,
				"z": 3.4891026855,
				"element": "C" 
			},
			{
				"x": 1.1548908774,
				"y": -3.4929781037,
				"z": 2.6539462255,
				"element": "C" 
			},
			{
				"x": 0.4183500832,
				"y": -4.3889050847,
				"z": 2.3065031828,
				"element": "O" 
			},
			{
				"x": 0.9663870245,
				"y": -2.1896240452,
				"z": 2.3131955905,
				"element": "O" 
			},
			{
				"x": -0.1791766206,
				"y": -1.9305056138,
				"z": 1.4682890404,
				"element": "C" 
			},
			{
				"x": -1.4581928961,
				"y": -1.8843804361,
				"z": 2.3218962315,
				"element": "C" 
			},
			{
				"x": -2.6505231451,
				"y": -1.9358561302,
				"z": 1.3263218907,
				"element": "C" 
			},
			{
				"x": -2.2491569354,
				"y": -1.3841899884,
				"z": -0.0563650862,
				"element": "C" 
			},
			{
				"x": -3.4411315224,
				"y": -1.1721411273,
				"z": -0.8501170212,
				"element": "O" 
			},
			{
				"x": -3.9440835453,
				"y": -2.2758104955,
				"z": -1.477766957,
				"element": "C" 
			},
			{
				"x": -5.0638894229,
				"y": -1.9020687723,
				"z": -2.4150612957,
				"element": "C" 
			},
			{
				"x": -3.5093181637,
				"y": -3.3924624683,
				"z": -1.3145246232,
				"element": "O" 
			},
			{
				"x": -1.4411864063,
				"y": -0.0766192761,
				"z": 0.1393539233,
				"element": "C" 
			},
			{
				"x": -0.094150575,
				"y": -0.4642610375,
				"z": 0.9524671969,
				"element": "C" 
			},
			{
				"x": 1.1401858672,
				"y": -0.1566546431,
				"z": 0.1142221301,
				"element": "C" 
			},
			{
				"x": 1.2030824559,
				"y": 1.2521433937,
				"z": -0.465915034,
				"element": "C" 
			},
			{
				"x": -0.1362857193,
				"y": 1.94775558,
				"z": -0.8216590792,
				"element": "C" 
			},
			{
				"x": 0.114012478,
				"y": 2.9930162657,
				"z": -1.9832183941,
				"element": "C" 
			},
			{
				"x": 1.4271512242,
				"y": 3.7763355409,
				"z": -1.7324650922,
				"element": "C" 
			},
			{
				"x": -0.9777633732,
				"y": 4.0886918429,
				"z": -2.0749651116,
				"element": "C" 
			},
			{
				"x": 0.2283679101,
				"y": 2.2275766674,
				"z": -3.3244088723,
				"element": "C" 
			},
			{
				"x": -0.9588432727,
				"y": 1.2970258848,
				"z": -3.6035388097,
				"element": "C" 
			},
			{
				"x": -1.2334014027,
				"y": 0.2862012377,
				"z": -2.478097923,
				"element": "C" 
			},
			{
				"x": -0.1798423827,
				"y": -0.7204173279,
				"z": -2.4888071306,
				"element": "O" 
			},
			{
				"x": -0.3730108648,
				"y": -1.8034788625,
				"z": -3.291477925,
				"element": "C" 
			},
			{
				"x": 0.8287094631,
				"y": -2.7163133756,
				"z": -3.2761243636,
				"element": "C" 
			},
			{
				"x": -1.3791105102,
				"y": -1.9807352753,
				"z": -3.9446739739,
				"element": "O" 
			},
			{
				"x": -1.3222320438,
				"y": 0.9427754706,
				"z": -1.0759759724,
				"element": "C" 
			},
			{
				"x": -2.6839255006,
				"y": 1.7068682585,
				"z": -1.0343682024,
				"element": "C" 
			},
			{
				"x": 2.3698365365,
				"y": -0.3062454277,
				"z": 0.875267025,
				"element": "O" 
			},
			{
				"x": 3.1702651755,
				"y": -1.3516953429,
				"z": 0.5914303761,
				"element": "C" 
			},
			{
				"x": 4.4579619504,
				"y": -1.253017707,
				"z": 1.3760820768,
				"element": "C" 
			},
			{
				"x": 2.9043843739,
				"y": -2.2408159637,
				"z": -0.1935504217,
				"element": "O" 
			},
			{
				"x": -0.3063599642,
				"y": 0.2883967578,
				"z": 2.279791388,
				"element": "C" 
			},
			{
				"x": 0.1383921338,
				"y": 1.3712287817,
				"z": 2.6020203843,
				"element": "O" 
			},
			{
				"x": -1.2703551095,
				"y": -0.5683002123,
				"z": 3.067516171,
				"element": "C" 
			},
			{
				"x": -1.7895970492,
				"y": -0.1757006604,
				"z": 4.2322530966,
				"element": "C" 
			},
			{
				"x": 2.3321272984,
				"y": -4.5976957028,
				"z": 4.0472063873,
				"element": "H" 
			},
			{
				"x": 2.5412671366,
				"y": -2.818898057,
				"z": 4.1663938076,
				"element": "H" 
			},
			{
				"x": 3.2670766687,
				"y": -3.7178254767,
				"z": 2.823058714,
				"element": "H" 
			},
			{
				"x": -0.1961631415,
				"y": -2.6942882498,
				"z": 0.693070048,
				"element": "H" 
			},
			{
				"x": -1.5183837248,
				"y": -2.7309712905,
				"z": 3.007692583,
				"element": "H" 
			},
			{
				"x": -3.496350663,
				"y": -1.35077185,
				"z": 1.7032125897,
				"element": "H" 
			},
			{
				"x": -2.9806925921,
				"y": -2.9697563054,
				"z": 1.202830713,
				"element": "H" 
			},
			{
				"x": -1.6588193425,
				"y": -2.1236184629,
				"z": -0.5977729847,
				"element": "H" 
			},
			{
				"x": -4.6224677015,
				"y": -1.6396207128,
				"z": -3.3829568094,
				"element": "H" 
			},
			{
				"x": -5.6282123955,
				"y": -1.0430656385,
				"z": -2.04757916,
				"element": "H" 
			},
			{
				"x": -5.7183171189,
				"y": -2.7624461024,
				"z": -2.557618553,
				"element": "H" 
			},
			{
				"x": -2.0327699992,
				"y": 0.5050382876,
				"z": 0.8555479415,
				"element": "H" 
			},
			{
				"x": 1.1665116568,
				"y": -0.8877151326,
				"z": -0.6888600082,
				"element": "H" 
			},
			{
				"x": 1.7245856178,
				"y": 1.8755363724,
				"z": 0.2632109467,
				"element": "H" 
			},
			{
				"x": 1.8490586839,
				"y": 1.1811883923,
				"z": -1.3442532714,
				"element": "H" 
			},
			{
				"x": -0.4260716278,
				"y": 2.5187074578,
				"z": 0.0696822883,
				"element": "H" 
			},
			{
				"x": 1.559579502,
				"y": 4.5279788728,
				"z": -2.5179183767,
				"element": "H" 
			},
			{
				"x": 2.3185314821,
				"y": 3.146690064,
				"z": -1.7374799022,
				"element": "H" 
			},
			{
				"x": 1.3930615202,
				"y": 4.3053329566,
				"z": -0.7729818898,
				"element": "H" 
			},
			{
				"x": -1.9264829485,
				"y": 3.746582861,
				"z": -2.4845925018,
				"element": "H" 
			},
			{
				"x": -1.1783574893,
				"y": 4.5268293861,
				"z": -1.0912214755,
				"element": "H" 
			},
			{
				"x": -0.6273460652,
				"y": 4.8963891728,
				"z": -2.7267067734,
				"element": "H" 
			},
			{
				"x": 0.331505858,
				"y": 2.946665679,
				"z": -4.1468427178,
				"element": "H" 
			},
			{
				"x": 1.1496834554,
				"y": 1.6327642921,
				"z": -3.3259510296,
				"element": "H" 
			},
			{
				"x": -0.7955635538,
				"y": 0.7325237483,
				"z": -4.5273447848,
				"element": "H" 
			},
			{
				"x": -1.8683002702,
				"y": 1.8823574115,
				"z": -3.7745442286,
				"element": "H" 
			},
			{
				"x": -2.1666357908,
				"y": -0.2323214957,
				"z": -2.6928545984,
				"element": "H" 
			},
			{
				"x": 1.5425076633,
				"y": -2.3669769349,
				"z": -4.0309455446,
				"element": "H" 
			},
			{
				"x": 1.3395500135,
				"y": -2.7127026842,
				"z": -2.3106577969,
				"element": "H" 
			},
			{
				"x": 0.5128906116,
				"y": -3.7247572963,
				"z": -3.5450962798,
				"element": "H" 
			},
			{
				"x": -2.6712644018,
				"y": 2.4585116807,
				"z": -0.2394874505,
				"element": "H" 
			},
			{
				"x": -3.5027527842,
				"y": 1.0170842982,
				"z": -0.8393546296,
				"element": "H" 
			},
			{
				"x": -2.9169783505,
				"y": 2.2165046478,
				"z": -1.9668792754,
				"element": "H" 
			},
			{
				"x": 5.0618469534,
				"y": -2.1442151255,
				"z": 1.2059282831,
				"element": "H" 
			},
			{
				"x": 5.0148259455,
				"y": -0.3664960076,
				"z": 1.0570518506,
				"element": "H" 
			},
			{
				"x": 4.2419599984,
				"y": -1.1329637154,
				"z": 2.4408116625,
				"element": "H" 
			},
			{
				"x": -1.5275036295,
				"y": 0.7983864292,
				"z": 4.6364078969,
				"element": "H" 
			},
			{
				"x": -2.4701890879,
				"y": -0.7971228361,
				"z": 4.8076170037,
				"element": "H" 
			}
		],
		 "valence_orbital": [ 
			{
				"type": "occ",
				"energy": -0.27332,
				"method": "rhf"
			},
			{
				"type": "occ",
				"energy": -0.27092,
				"method": "rhf"
			},
			{
				"type": "occ",
				"energy": -0.27027,
				"method": "rhf"
			},
			{
				"type": "occ",
				"energy": -0.26859,
				"method": "rhf"
			},
			{
				"type": "occ",
				"energy": -0.24292,
				"method": "rhf"
			},
			{
				"type": "unocc",
				"energy": -0.05797,
				"method": "rhf"
			},
			{
				"type": "unocc",
				"energy": 0.00669,
				"method": "rhf"
			},
			{
				"type": "unocc",
				"energy": 0.00787,
				"method": "rhf"
			},
			{
				"type": "unocc",
				"energy": 0.01117,
				"method": "rhf"
			},
			{
				"type": "unocc",
				"energy": 0.01304,
				"method": "rhf"
			}
		],
		"cosmo_sigma_profile": { 
			"-0.025": 0.0,
			"-0.024": 0.0,
			"-0.023": 0.0,
			"-0.022": 0.0,
			"-0.021": 0.0,
			"-0.02": 0.0,
			"-0.019": 0.0,
			"-0.018": 0.0,
			"-0.017": 0.0,
			"-0.016": 0.0,
			"-0.015": 0.0,
			"-0.014": 0.0,
			"-0.013": 0.0,
			"-0.012": 0.0,
			"-0.011": 0.0,
			"-0.01": 0.0,
			"-0.009": 0.124136476373,
			"-0.008": 1.02130049918,
			"-0.007": 5.94394208392,
			"-0.006": 22.9637635657,
			"-0.005": 35.4467519127,
			"-0.004": 48.4241386451,
			"-0.003": 58.9090774011,
			"-0.002": 72.2766331186,
			"-0.001": 55.7604621012,
			"0.0": 42.3050280564,
			"0.001": 39.5387013081,
			"0.002": 26.7263199914,
			"0.003": 16.9625614044,
			"0.004": 12.4442971059,
			"0.005": 10.8665735929,
			"0.006": 9.79971957321,
			"0.007": 9.91418153539,
			"0.008": 8.32719657811,
			"0.009": 9.11280895835,
			"0.01": 9.24635512421,
			"0.011": 13.7531507978,
			"0.012": 10.9429194878,
			"0.013": 3.11394234003,
			"0.014": 0.0922256099671,
			"0.015": 0.0,
			"0.016": 0.0,
			"0.017": 0.0,
			"0.018": 0.0,
			"0.019": 0.0,
			"0.02": 0.0,
			"0.021": 0.0,
			"0.022": 0.0,
			"0.023": 0.0,
			"0.024": 0.0,
			"0.025": 0.0
		}
	}
}
