{
	 "smiles": "CS(=O)(=O)C1=C(CC(O)=O)C=CC=C1", 
	 "Tm": 428.15, 
	 "num_atms": 24, 
	 "gaussian": { 
		 "optdone": 1, 
		 "sigma_profile": "yes", 
		 "theory": "DFT", 
		 "functional": "B3LYP", 
		 "basiset": "6-31G**", 
		 "properties": { 
			 "R2extent": 3293.3444, 
			 "electric_dipole_moment_norm": 5.2944065097, 
			 "electric_quadrupole_moment_norm": 16.8077169268, 
			 "total_energy": -1048.01555333, 
			 "HOMO_LUMO_gap": 0.21387, 
			 "cosmo_polarized_energy": -20.37, 
			 "cosmo_cavitation_energy": 29.42, 
			 "cosmo_dispersion_energy": -21.08, 
			 "cosmo_repulsion_energy": 1.62, 
			 "cosmo_total_nonelectrostatic_energy": 9.97, 
			 "SMD_solvation_energy": 5.97 
		},
		"coords": [
			{
				"x": 1.5062248535,
				"y": -0.7550085071,
				"z": 2.1682182888,
				"element": "C" 
			},
			{
				"x": 2.1425194481,
				"y": 0.0698585252,
				"z": 0.6881161286,
				"element": "S" 
			},
			{
				"x": 2.2548301264,
				"y": 1.5057659287,
				"z": 0.9927772038,
				"element": "O" 
			},
			{
				"x": 3.3188112316,
				"y": -0.6927645283,
				"z": 0.2426885178,
				"element": "O" 
			},
			{
				"x": 0.8339147847,
				"y": -0.1735203619,
				"z": -0.5382042381,
				"element": "C" 
			},
			{
				"x": -0.3185484536,
				"y": 0.6351232636,
				"z": -0.5907145281,
				"element": "C" 
			},
			{
				"x": -0.5943211649,
				"y": 1.8010340219,
				"z": 0.3344440391,
				"element": "C" 
			},
			{
				"x": 0.0712569497,
				"y": 3.1296360946,
				"z": -0.0174527301,
				"element": "C" 
			},
			{
				"x": 0.6292741821,
				"y": 3.1362739825,
				"z": -1.2449060537,
				"element": "O" 
			},
			{
				"x": 0.0506739895,
				"y": 4.093561441,
				"z": 0.711225053,
				"element": "O" 
			},
			{
				"x": -1.2588054232,
				"y": 0.3343910631,
				"z": -1.5855637236,
				"element": "C" 
			},
			{
				"x": -1.0647552147,
				"y": -0.7062724768,
				"z": -2.4928105503,
				"element": "C" 
			},
			{
				"x": 0.0909927143,
				"y": -1.4834359503,
				"z": -2.4290084065,
				"element": "C" 
			},
			{
				"x": 1.0424377606,
				"y": -1.2143050372,
				"z": -1.4472344264,
				"element": "C" 
			},
			{
				"x": 1.3671059651,
				"y": -1.814746991,
				"z": 1.9509136685,
				"element": "H" 
			},
			{
				"x": 2.2667857503,
				"y": -0.6201403088,
				"z": 2.9401593055,
				"element": "H" 
			},
			{
				"x": 0.5689075935,
				"y": -0.2908912814,
				"z": 2.4780991415,
				"element": "H" 
			},
			{
				"x": -0.3074948924,
				"y": 1.6065119699,
				"z": 1.3689577756,
				"element": "H" 
			},
			{
				"x": -1.6720163744,
				"y": 1.9996412484,
				"z": 0.3465754971,
				"element": "H" 
			},
			{
				"x": 1.0350160522,
				"y": 4.0133199614,
				"z": -1.3499516943,
				"element": "H" 
			},
			{
				"x": -2.1585486913,
				"y": 0.9402041853,
				"z": -1.6511114777,
				"element": "H" 
			},
			{
				"x": -1.8166039725,
				"y": -0.9054873685,
				"z": -3.2507633329,
				"element": "H" 
			},
			{
				"x": 0.2543678074,
				"y": -2.2903336166,
				"z": -3.1364814484,
				"element": "H" 
			},
			{
				"x": 1.9582749779,
				"y": -1.7912152577,
				"z": -1.3808720094,
				"element": "H" 
			}
		],
		 "valence_orbital": [ 
			{
				"type": "occ",
				"energy": -0.29859,
				"method": "rhf"
			},
			{
				"type": "occ",
				"energy": -0.29312,
				"method": "rhf"
			},
			{
				"type": "occ",
				"energy": -0.28389,
				"method": "rhf"
			},
			{
				"type": "occ",
				"energy": -0.27719,
				"method": "rhf"
			},
			{
				"type": "occ",
				"energy": -0.25863,
				"method": "rhf"
			},
			{
				"type": "unocc",
				"energy": -0.04476,
				"method": "rhf"
			},
			{
				"type": "unocc",
				"energy": -0.02623,
				"method": "rhf"
			},
			{
				"type": "unocc",
				"energy": 0.01522,
				"method": "rhf"
			},
			{
				"type": "unocc",
				"energy": 0.06141,
				"method": "rhf"
			},
			{
				"type": "unocc",
				"energy": 0.06527,
				"method": "rhf"
			}
		],
		"cosmo_sigma_profile": { 
			"-0.025": 0.0,
			"-0.024": 0.0,
			"-0.023": 0.0,
			"-0.022": 0.0,
			"-0.021": 0.0,
			"-0.02": 0.0,
			"-0.019": 0.13620077796,
			"-0.018": 0.838389387223,
			"-0.017": 1.16871218222,
			"-0.016": 0.695196126169,
			"-0.015": 0.718898863488,
			"-0.014": 0.610226397678,
			"-0.013": 0.256620955259,
			"-0.012": 1.21578527348,
			"-0.011": 1.2308007884,
			"-0.01": 2.44252940234,
			"-0.009": 5.45938473374,
			"-0.008": 8.75802595705,
			"-0.007": 13.7774883518,
			"-0.006": 17.9704366799,
			"-0.005": 17.9348019552,
			"-0.004": 15.62372578,
			"-0.003": 12.6481853329,
			"-0.002": 10.3035231839,
			"-0.001": 10.1399969472,
			"0.0": 9.2355231401,
			"0.001": 11.5855527633,
			"0.002": 12.8274218453,
			"0.003": 12.0376635303,
			"0.004": 4.82132651968,
			"0.005": 5.58421313368,
			"0.006": 5.81414737869,
			"0.007": 6.75193148989,
			"0.008": 8.01593863089,
			"0.009": 5.85664419427,
			"0.01": 6.90812810634,
			"0.011": 12.1632729745,
			"0.012": 9.61459471203,
			"0.013": 0.651219106177,
			"0.014": 0.0,
			"0.015": 0.0,
			"0.016": 0.0,
			"0.017": 0.0,
			"0.018": 0.0,
			"0.019": 0.0,
			"0.02": 0.0,
			"0.021": 0.0,
			"0.022": 0.0,
			"0.023": 0.0,
			"0.024": 0.0,
			"0.025": 0.0
		}
	}
}
