{
	 "smiles": "O=S1(=O)NC=NC2=C1C=CC=C2", 
	 "Tm": 496.15, 
	 "num_atms": 18, 
	 "gaussian": { 
		 "optdone": 1, 
		 "sigma_profile": "yes", 
		 "theory": "DFT", 
		 "functional": "B3LYP", 
		 "basiset": "6-31G**", 
		 "properties": { 
			 "R2extent": 2383.8929, 
			 "electric_dipole_moment_norm": 2.76021327256, 
			 "electric_quadrupole_moment_norm": 21.15879565, 
			 "total_energy": -928.413929821, 
			 "HOMO_LUMO_gap": 0.1879, 
			 "cosmo_polarized_energy": -16.47, 
			 "cosmo_cavitation_energy": 23.51, 
			 "cosmo_dispersion_energy": -18.38, 
			 "cosmo_repulsion_energy": 1.39, 
			 "cosmo_total_nonelectrostatic_energy": 6.52, 
			 "SMD_solvation_energy": 2.16 
		},
		"coords": [
			{
				"x": 2.6771336176,
				"y": -0.8287081533,
				"z": 1.6647812466,
				"element": "O" 
			},
			{
				"x": 1.3658823873,
				"y": -0.2183874095,
				"z": 1.8885214684,
				"element": "S" 
			},
			{
				"x": 1.2920250846,
				"y": 1.1280334197,
				"z": 2.4528979226,
				"element": "O" 
			},
			{
				"x": 0.4485037111,
				"y": -1.2451801853,
				"z": 2.913309109,
				"element": "N" 
			},
			{
				"x": -0.1420069217,
				"y": -2.3977444758,
				"z": 2.4253313931,
				"element": "C" 
			},
			{
				"x": -0.5249057151,
				"y": -2.6051482848,
				"z": 1.2173385092,
				"element": "N" 
			},
			{
				"x": -0.3811718431,
				"y": -1.5930466598,
				"z": 0.2666795725,
				"element": "C" 
			},
			{
				"x": 0.3490417594,
				"y": -0.3966330118,
				"z": 0.4536841235,
				"element": "C" 
			},
			{
				"x": 0.3839996389,
				"y": 0.6130817814,
				"z": -0.5116956056,
				"element": "C" 
			},
			{
				"x": -0.3095788074,
				"y": 0.436118189,
				"z": -1.7042877708,
				"element": "C" 
			},
			{
				"x": -1.0226980762,
				"y": -0.7495973449,
				"z": -1.924394849,
				"element": "C" 
			},
			{
				"x": -1.0596000464,
				"y": -1.745368961,
				"z": -0.9561912934,
				"element": "C" 
			},
			{
				"x": 0.7345564138,
				"y": -1.2117587359,
				"z": 3.8860835222,
				"element": "H" 
			},
			{
				"x": -0.3254576091,
				"y": -3.1632480573,
				"z": 3.1787875343,
				"element": "H" 
			},
			{
				"x": 0.9417290592,
				"y": 1.5234448181,
				"z": -0.3175284505,
				"element": "H" 
			},
			{
				"x": -0.2941613842,
				"y": 1.2153486621,
				"z": -2.4593192452,
				"element": "H" 
			},
			{
				"x": -1.558782349,
				"y": -0.8908388105,
				"z": -2.8581070071,
				"element": "H" 
			},
			{
				"x": -1.6202089198,
				"y": -2.6619667806,
				"z": -1.1053901798,
				"element": "H" 
			}
		],
		 "valence_orbital": [ 
			{
				"type": "occ",
				"energy": -0.32109,
				"method": "rhf"
			},
			{
				"type": "occ",
				"energy": -0.30448,
				"method": "rhf"
			},
			{
				"type": "occ",
				"energy": -0.28576,
				"method": "rhf"
			},
			{
				"type": "occ",
				"energy": -0.27486,
				"method": "rhf"
			},
			{
				"type": "occ",
				"energy": -0.2454,
				"method": "rhf"
			},
			{
				"type": "unocc",
				"energy": -0.0575,
				"method": "rhf"
			},
			{
				"type": "unocc",
				"energy": -0.0349,
				"method": "rhf"
			},
			{
				"type": "unocc",
				"energy": 0.02051,
				"method": "rhf"
			},
			{
				"type": "unocc",
				"energy": 0.0412,
				"method": "rhf"
			},
			{
				"type": "unocc",
				"energy": 0.05089,
				"method": "rhf"
			}
		],
		"cosmo_sigma_profile": { 
			"-0.025": 0.0,
			"-0.024": 0.0,
			"-0.023": 0.0,
			"-0.022": 0.0,
			"-0.021": 0.0,
			"-0.02": 0.0,
			"-0.019": 0.158590043742,
			"-0.018": 1.61907435204,
			"-0.017": 2.0925173722,
			"-0.016": 1.26930074281,
			"-0.015": 1.11903170109,
			"-0.014": 0.882465276963,
			"-0.013": 1.06780685094,
			"-0.012": 1.64843749609,
			"-0.011": 1.74020836528,
			"-0.01": 3.33359034741,
			"-0.009": 1.91735924175,
			"-0.008": 3.87637804564,
			"-0.007": 8.97098838323,
			"-0.006": 11.2134626324,
			"-0.005": 10.0547873565,
			"-0.004": 7.20697358367,
			"-0.003": 6.96650781921,
			"-0.002": 8.45965600213,
			"-0.001": 10.688484915,
			"0.0": 11.2774712567,
			"0.001": 16.6863717942,
			"0.002": 16.3093350074,
			"0.003": 10.9456633365,
			"0.004": 4.01440459557,
			"0.005": 4.24617360698,
			"0.006": 4.06685223991,
			"0.007": 3.07467384476,
			"0.008": 4.36270027809,
			"0.009": 8.2988840795,
			"0.01": 13.7206558705,
			"0.011": 5.79230028372,
			"0.012": 0.873915816713,
			"0.013": 0.568568736606,
			"0.014": 0.714182631398,
			"0.015": 0.19450948524,
			"0.016": 0.0,
			"0.017": 0.0,
			"0.018": 0.0,
			"0.019": 0.0,
			"0.02": 0.0,
			"0.021": 0.0,
			"0.022": 0.0,
			"0.023": 0.0,
			"0.024": 0.0,
			"0.025": 0.0
		}
	}
}
