{
	 "smiles": "ClC1=CC(Br)=C2OCC(=O)C2=C1", 
	 "Tm": 413.15, 
	 "num_atms": 16, 
	 "gaussian": { 
		 "optdone": 1, 
		 "sigma_profile": "yes", 
		 "theory": "DFT", 
		 "functional": "B3LYP", 
		 "basiset": "6-31G**", 
		 "properties": { 
			 "R2extent": 4443.9151, 
			 "electric_dipole_moment_norm": 1.34919125405, 
			 "electric_quadrupole_moment_norm": 5.11858372209, 
			 "total_energy": -3489.28939088, 
			 "HOMO_LUMO_gap": 0.16156, 
			 "cosmo_polarized_energy": -8.58, 
			 "cosmo_cavitation_energy": 25.21, 
			 "cosmo_dispersion_energy": -19.28, 
			 "cosmo_repulsion_energy": 1.55, 
			 "cosmo_total_nonelectrostatic_energy": 7.48, 
			 "SMD_solvation_energy": 3.8 
		},
		"coords": [
			{
				"x": -1.7263462938,
				"y": -1.9457670624,
				"z": 2.7964224077,
				"element": "Cl" 
			},
			{
				"x": -0.5432340163,
				"y": -1.0577177228,
				"z": 1.8527504953,
				"element": "C" 
			},
			{
				"x": 0.7619577555,
				"y": -0.9308349904,
				"z": 2.3594789081,
				"element": "C" 
			},
			{
				"x": 1.7367411543,
				"y": -0.2356079133,
				"z": 1.6480568361,
				"element": "C" 
			},
			{
				"x": 3.499697258,
				"y": -0.0593615054,
				"z": 2.3239114791,
				"element": "Br" 
			},
			{
				"x": 1.3825878028,
				"y": 0.3302823932,
				"z": 0.4208579582,
				"element": "C" 
			},
			{
				"x": 2.2162829775,
				"y": 1.0324676237,
				"z": -0.3826407579,
				"element": "O" 
			},
			{
				"x": 1.4647159692,
				"y": 1.4398900064,
				"z": -1.5463076973,
				"element": "C" 
			},
			{
				"x": 0.0364420207,
				"y": 0.8943865794,
				"z": -1.3638915699,
				"element": "C" 
			},
			{
				"x": -0.8861614106,
				"y": 1.0356256091,
				"z": -2.1403717919,
				"element": "O" 
			},
			{
				"x": 0.0795314809,
				"y": 0.1945667415,
				"z": -0.0687237437,
				"element": "C" 
			},
			{
				"x": -0.9072346479,
				"y": -0.4992386161,
				"z": 0.6335126941,
				"element": "C" 
			},
			{
				"x": 1.0131548738,
				"y": -1.3783291649,
				"z": 3.3136202184,
				"element": "H" 
			},
			{
				"x": 1.4711367061,
				"y": 2.5322814222,
				"z": -1.6089923207,
				"element": "H" 
			},
			{
				"x": 1.9405844366,
				"y": 1.0249090613,
				"z": -2.4399646544,
				"element": "H" 
			},
			{
				"x": -1.9112560667,
				"y": -0.5923524614,
				"z": 0.2354815388,
				"element": "H" 
			}
		],
		 "valence_orbital": [ 
			{
				"type": "occ",
				"energy": -0.31684,
				"method": "rhf"
			},
			{
				"type": "occ",
				"energy": -0.30316,
				"method": "rhf"
			},
			{
				"type": "occ",
				"energy": -0.27376,
				"method": "rhf"
			},
			{
				"type": "occ",
				"energy": -0.26874,
				"method": "rhf"
			},
			{
				"type": "occ",
				"energy": -0.24439,
				"method": "rhf"
			},
			{
				"type": "unocc",
				"energy": -0.08283,
				"method": "rhf"
			},
			{
				"type": "unocc",
				"energy": -0.02645,
				"method": "rhf"
			},
			{
				"type": "unocc",
				"energy": -0.01645,
				"method": "rhf"
			},
			{
				"type": "unocc",
				"energy": 0.01671,
				"method": "rhf"
			},
			{
				"type": "unocc",
				"energy": 0.02787,
				"method": "rhf"
			}
		],
		"cosmo_sigma_profile": { 
			"-0.025": 0.0,
			"-0.024": 0.0,
			"-0.023": 0.0,
			"-0.022": 0.0,
			"-0.021": 0.0,
			"-0.02": 0.0,
			"-0.019": 0.0,
			"-0.018": 0.0,
			"-0.017": 0.0,
			"-0.016": 0.0,
			"-0.015": 0.0,
			"-0.014": 0.0,
			"-0.013": 0.0,
			"-0.012": 0.0,
			"-0.011": 0.0,
			"-0.01": 0.513574004649,
			"-0.009": 6.81453955343,
			"-0.008": 8.7626433395,
			"-0.007": 7.64999339037,
			"-0.006": 7.66004362975,
			"-0.005": 10.0187890447,
			"-0.004": 7.4254062496,
			"-0.003": 9.5413481863,
			"-0.002": 15.4469798428,
			"-0.001": 20.2712658567,
			"0.0": 24.1433816179,
			"0.001": 14.6448224026,
			"0.002": 13.0865450365,
			"0.003": 17.5286269357,
			"0.004": 18.2200643906,
			"0.005": 5.13305639689,
			"0.006": 2.8202428913,
			"0.007": 3.1970565248,
			"0.008": 3.39951450922,
			"0.009": 2.67730083553,
			"0.01": 2.89891089745,
			"0.011": 5.12622040923,
			"0.012": 2.08490250647,
			"0.013": 0.0423838229993,
			"0.014": 0.0,
			"0.015": 0.0,
			"0.016": 0.0,
			"0.017": 0.0,
			"0.018": 0.0,
			"0.019": 0.0,
			"0.02": 0.0,
			"0.021": 0.0,
			"0.022": 0.0,
			"0.023": 0.0,
			"0.024": 0.0,
			"0.025": 0.0
		}
	}
}
