{
	 "smiles": "CC(C)(C)OC1=C(O)C=CC=N1", 
	 "Tm": 360.15, 
	 "num_atms": 25, 
	 "gaussian": { 
		 "optdone": 1, 
		 "sigma_profile": "yes", 
		 "theory": "DFT", 
		 "functional": "B3LYP", 
		 "basiset": "6-31G**", 
		 "properties": { 
			 "R2extent": 2396.1764, 
			 "electric_dipole_moment_norm": 1.18714705913, 
			 "electric_quadrupole_moment_norm": 6.86121591994, 
			 "total_energy": -556.000374853, 
			 "HOMO_LUMO_gap": 0.20091, 
			 "cosmo_polarized_energy": -6.26, 
			 "cosmo_cavitation_energy": 27.28, 
			 "cosmo_dispersion_energy": -19.63, 
			 "cosmo_repulsion_energy": 1.57, 
			 "cosmo_total_nonelectrostatic_energy": 9.22, 
			 "SMD_solvation_energy": 5.27 
		},
		"coords": [
			{
				"x": -2.2939776606,
				"y": -1.2206379726,
				"z": -0.2245427033,
				"element": "C" 
			},
			{
				"x": -1.533880559,
				"y": 0.0443766402,
				"z": 0.1895371819,
				"element": "C" 
			},
			{
				"x": -2.3505745364,
				"y": 1.2968830072,
				"z": -0.1426201192,
				"element": "C" 
			},
			{
				"x": -1.1449696619,
				"y": 0.0315406897,
				"z": 1.6721206208,
				"element": "C" 
			},
			{
				"x": -0.3389365056,
				"y": 0.2147607617,
				"z": -0.6468389147,
				"element": "O" 
			},
			{
				"x": 0.6969254867,
				"y": -0.6690752198,
				"z": -0.6908434844,
				"element": "C" 
			},
			{
				"x": 1.7279649582,
				"y": -0.2692966977,
				"z": -1.57970503,
				"element": "C" 
			},
			{
				"x": 1.6230116087,
				"y": 0.8893739632,
				"z": -2.2814829292,
				"element": "O" 
			},
			{
				"x": 2.8335305959,
				"y": -1.0940277775,
				"z": -1.7048728043,
				"element": "C" 
			},
			{
				"x": 2.8803108306,
				"y": -2.2766250018,
				"z": -0.9521546345,
				"element": "C" 
			},
			{
				"x": 1.8188335231,
				"y": -2.5755777435,
				"z": -0.1115432514,
				"element": "C" 
			},
			{
				"x": 0.7369450577,
				"y": -1.7801969472,
				"z": 0.0187338597,
				"element": "N" 
			},
			{
				"x": -2.5133896805,
				"y": -1.1984075566,
				"z": -1.2966386844,
				"element": "H" 
			},
			{
				"x": -1.7153241558,
				"y": -2.1167525717,
				"z": 0.0000111163,
				"element": "H" 
			},
			{
				"x": -3.2448181611,
				"y": -1.2692557548,
				"z": 0.3163739241,
				"element": "H" 
			},
			{
				"x": -3.286296641,
				"y": 1.2974029611,
				"z": 0.4238600288,
				"element": "H" 
			},
			{
				"x": -1.7916255816,
				"y": 2.2019364226,
				"z": 0.1136445407,
				"element": "H" 
			},
			{
				"x": -2.5929304661,
				"y": 1.3286231756,
				"z": -1.2091452165,
				"element": "H" 
			},
			{
				"x": -0.5554711349,
				"y": -0.8526275387,
				"z": 1.9150784784,
				"element": "H" 
			},
			{
				"x": -2.050658207,
				"y": 0.0324778886,
				"z": 2.2875675868,
				"element": "H" 
			},
			{
				"x": -0.5641503012,
				"y": 0.9254226573,
				"z": 1.9204120703,
				"element": "H" 
			},
			{
				"x": 0.7738270519,
				"y": 1.2855566192,
				"z": -2.0287565038,
				"element": "H" 
			},
			{
				"x": 3.6348553916,
				"y": -0.8088549053,
				"z": -2.3787977718,
				"element": "H" 
			},
			{
				"x": 3.7307241478,
				"y": -2.9463966854,
				"z": -1.0250952268,
				"element": "H" 
			},
			{
				"x": 1.8160746006,
				"y": -3.481922414,
				"z": 0.4886978664,
				"element": "H" 
			}
		],
		 "valence_orbital": [ 
			{
				"type": "occ",
				"energy": -0.32243,
				"method": "rhf"
			},
			{
				"type": "occ",
				"energy": -0.31876,
				"method": "rhf"
			},
			{
				"type": "occ",
				"energy": -0.26362,
				"method": "rhf"
			},
			{
				"type": "occ",
				"energy": -0.25885,
				"method": "rhf"
			},
			{
				"type": "occ",
				"energy": -0.2102,
				"method": "rhf"
			},
			{
				"type": "unocc",
				"energy": -0.00929,
				"method": "rhf"
			},
			{
				"type": "unocc",
				"energy": 0.0131,
				"method": "rhf"
			},
			{
				"type": "unocc",
				"energy": 0.07535,
				"method": "rhf"
			},
			{
				"type": "unocc",
				"energy": 0.09221,
				"method": "rhf"
			},
			{
				"type": "unocc",
				"energy": 0.11378,
				"method": "rhf"
			}
		],
		"cosmo_sigma_profile": { 
			"-0.025": 0.0,
			"-0.024": 0.0,
			"-0.023": 0.0,
			"-0.022": 0.0,
			"-0.021": 0.0,
			"-0.02": 0.0,
			"-0.019": 0.0,
			"-0.018": 0.0,
			"-0.017": 0.0,
			"-0.016": 0.0,
			"-0.015": 0.0,
			"-0.014": 0.238166190955,
			"-0.013": 0.656204598183,
			"-0.012": 0.361178452931,
			"-0.011": 0.409983567932,
			"-0.01": 0.403906188628,
			"-0.009": 1.207715004,
			"-0.008": 0.400286346876,
			"-0.007": 2.45895898728,
			"-0.006": 5.49893723157,
			"-0.005": 7.33833547162,
			"-0.004": 16.696915104,
			"-0.003": 20.1683912758,
			"-0.002": 18.8931806105,
			"-0.001": 19.6251057216,
			"0.0": 28.9042472468,
			"0.001": 27.1508688322,
			"0.002": 15.6652879342,
			"0.003": 14.3868864134,
			"0.004": 12.0567825742,
			"0.005": 6.01804604435,
			"0.006": 4.12991945735,
			"0.007": 2.80631135261,
			"0.008": 2.19520363254,
			"0.009": 2.28725034577,
			"0.01": 2.13105229433,
			"0.011": 1.98046381261,
			"0.012": 0.517786623877,
			"0.013": 0.0,
			"0.014": 0.0,
			"0.015": 0.0,
			"0.016": 0.0,
			"0.017": 0.0,
			"0.018": 0.0,
			"0.019": 0.0,
			"0.02": 0.0,
			"0.021": 0.0,
			"0.022": 0.0,
			"0.023": 0.0,
			"0.024": 0.0,
			"0.025": 0.0
		}
	}
}
