{
	 "smiles": "CN(C)CCCN1C2=CC=CC=C2SC2=CC=C(Cl)C=C12", 
	 "Tm": 476.15, 
	 "num_atms": 40, 
	 "gaussian": { 
		 "optdone": 1, 
		 "sigma_profile": "yes", 
		 "theory": "DFT", 
		 "functional": "B3LYP", 
		 "basiset": "6-31G**", 
		 "properties": { 
			 "R2extent": 9162.1436, 
			 "electric_dipole_moment_norm": 1.89585319316, 
			 "electric_quadrupole_moment_norm": 8.87979054708, 
			 "total_energy": -1627.12892941, 
			 "HOMO_LUMO_gap": 0.17298, 
			 "cosmo_polarized_energy": -9.14, 
			 "cosmo_cavitation_energy": 44.23, 
			 "cosmo_dispersion_energy": -31.07, 
			 "cosmo_repulsion_energy": 2.33, 
			 "cosmo_total_nonelectrostatic_energy": 15.5, 
			 "SMD_solvation_energy": 3.84 
		},
		"coords": [
			{
				"x": -3.4626982113,
				"y": -1.5327021158,
				"z": 0.5667476385,
				"element": "C" 
			},
			{
				"x": -2.4868737243,
				"y": -2.6017207294,
				"z": 0.4566425459,
				"element": "N" 
			},
			{
				"x": -2.1077303663,
				"y": -3.1651484276,
				"z": 1.7393800907,
				"element": "C" 
			},
			{
				"x": -1.3814082878,
				"y": -2.3968388195,
				"z": -0.474008164,
				"element": "C" 
			},
			{
				"x": -0.1957707474,
				"y": -1.4882474614,
				"z": -0.0693043094,
				"element": "C" 
			},
			{
				"x": -0.5249776591,
				"y": 0.0100722348,
				"z": 0.0175008516,
				"element": "C" 
			},
			{
				"x": 0.6725414204,
				"y": 0.8333137329,
				"z": 0.2215651997,
				"element": "N" 
			},
			{
				"x": 1.6864655892,
				"y": 0.8479337186,
				"z": -0.7708941006,
				"element": "C" 
			},
			{
				"x": 1.4282945045,
				"y": 0.5220290138,
				"z": -2.1111269518,
				"element": "C" 
			},
			{
				"x": 2.455011063,
				"y": 0.529071334,
				"z": -3.0567031145,
				"element": "C" 
			},
			{
				"x": 3.7500339799,
				"y": 0.8947295259,
				"z": -2.6932033511,
				"element": "C" 
			},
			{
				"x": 4.0138102703,
				"y": 1.254850571,
				"z": -1.3708036068,
				"element": "C" 
			},
			{
				"x": 2.9989910395,
				"y": 1.2131150513,
				"z": -0.414357793,
				"element": "C" 
			},
			{
				"x": 3.3557104047,
				"y": 1.5622658019,
				"z": 1.2975463003,
				"element": "S" 
			},
			{
				"x": 1.8300466213,
				"y": 2.3862667732,
				"z": 1.7021765657,
				"element": "C" 
			},
			{
				"x": 1.8150956274,
				"y": 3.4449342921,
				"z": 2.6091577038,
				"element": "C" 
			},
			{
				"x": 0.6135392309,
				"y": 4.0337893627,
				"z": 3.0056671663,
				"element": "C" 
			},
			{
				"x": -0.5666706479,
				"y": 3.5662532784,
				"z": 2.4362410664,
				"element": "C" 
			},
			{
				"x": -2.0978915335,
				"y": 4.3077558119,
				"z": 2.88752457,
				"element": "Cl" 
			},
			{
				"x": -0.5740475584,
				"y": 2.5370486885,
				"z": 1.495881721,
				"element": "C" 
			},
			{
				"x": 0.6293007641,
				"y": 1.9100983748,
				"z": 1.1358933132,
				"element": "C" 
			},
			{
				"x": -3.1394633068,
				"y": -0.6644986134,
				"z": 1.1718316098,
				"element": "H" 
			},
			{
				"x": -4.3763173875,
				"y": -1.921267085,
				"z": 1.0325817377,
				"element": "H" 
			},
			{
				"x": -3.72767545,
				"y": -1.1676531595,
				"z": -0.430894154,
				"element": "H" 
			},
			{
				"x": -1.5823915708,
				"y": -2.4608767092,
				"z": 2.4120512975,
				"element": "H" 
			},
			{
				"x": -3.0045177469,
				"y": -3.5106158208,
				"z": 2.2661888233,
				"element": "H" 
			},
			{
				"x": -1.4545542131,
				"y": -4.0310444712,
				"z": 1.5857889229,
				"element": "H" 
			},
			{
				"x": -1.8090550262,
				"y": -2.0312827699,
				"z": -1.4173082704,
				"element": "H" 
			},
			{
				"x": -0.9606263716,
				"y": -3.3875736434,
				"z": -0.6926858859,
				"element": "H" 
			},
			{
				"x": 0.5955350494,
				"y": -1.6443372504,
				"z": -0.8105691659,
				"element": "H" 
			},
			{
				"x": 0.2221892009,
				"y": -1.8096936134,
				"z": 0.8913032991,
				"element": "H" 
			},
			{
				"x": -1.1694314275,
				"y": 0.1778059324,
				"z": 0.8791972323,
				"element": "H" 
			},
			{
				"x": -1.096392644,
				"y": 0.333215725,
				"z": -0.8673664624,
				"element": "H" 
			},
			{
				"x": 0.4234753165,
				"y": 0.2580804453,
				"z": -2.4206289363,
				"element": "H" 
			},
			{
				"x": 2.23135053,
				"y": 0.2586683227,
				"z": -4.0844258959,
				"element": "H" 
			},
			{
				"x": 4.5476787247,
				"y": 0.9077251741,
				"z": -3.4292329706,
				"element": "H" 
			},
			{
				"x": 5.0121646192,
				"y": 1.558243872,
				"z": -1.0703086142,
				"element": "H" 
			},
			{
				"x": 2.7530389645,
				"y": 3.8016029291,
				"z": 3.0234821522,
				"element": "H" 
			},
			{
				"x": 0.5976293993,
				"y": 4.839525728,
				"z": 3.7298791075,
				"element": "H" 
			},
			{
				"x": -1.5130084395,
				"y": 2.2399049955,
				"z": 1.0469928313,
				"element": "H" 
			}
		],
		 "valence_orbital": [ 
			{
				"type": "occ",
				"energy": -0.2615,
				"method": "rhf"
			},
			{
				"type": "occ",
				"energy": -0.25121,
				"method": "rhf"
			},
			{
				"type": "occ",
				"energy": -0.2289,
				"method": "rhf"
			},
			{
				"type": "occ",
				"energy": -0.20554,
				"method": "rhf"
			},
			{
				"type": "occ",
				"energy": -0.19298,
				"method": "rhf"
			},
			{
				"type": "unocc",
				"energy": -0.02,
				"method": "rhf"
			},
			{
				"type": "unocc",
				"energy": -0.01653,
				"method": "rhf"
			},
			{
				"type": "unocc",
				"energy": -0.00867,
				"method": "rhf"
			},
			{
				"type": "unocc",
				"energy": 0.00312,
				"method": "rhf"
			},
			{
				"type": "unocc",
				"energy": 0.02469,
				"method": "rhf"
			}
		],
		"cosmo_sigma_profile": { 
			"-0.025": 0.0,
			"-0.024": 0.0,
			"-0.023": 0.0,
			"-0.022": 0.0,
			"-0.021": 0.0,
			"-0.02": 0.0,
			"-0.019": 0.0,
			"-0.018": 0.0,
			"-0.017": 0.0,
			"-0.016": 0.0,
			"-0.015": 0.0,
			"-0.014": 0.0,
			"-0.013": 0.0,
			"-0.012": 0.0,
			"-0.011": 0.0,
			"-0.01": 0.0,
			"-0.009": 0.0,
			"-0.008": 0.33471152787,
			"-0.007": 6.47098229907,
			"-0.006": 14.2119957483,
			"-0.005": 16.263393097,
			"-0.004": 27.3073663246,
			"-0.003": 32.396746995,
			"-0.002": 37.1310060362,
			"-0.001": 34.3417826641,
			"0.0": 35.3303695804,
			"0.001": 26.1051324457,
			"0.002": 27.353411831,
			"0.003": 32.6300080661,
			"0.004": 27.9557554905,
			"0.005": 19.9948022337,
			"0.006": 6.09854270672,
			"0.007": 3.93597852558,
			"0.008": 2.09264714748,
			"0.009": 1.13488360647,
			"0.01": 0.552988983568,
			"0.011": 0.293874462086,
			"0.012": 0.810660103964,
			"0.013": 0.765482836243,
			"0.014": 0.299939296456,
			"0.015": 0.403482725953,
			"0.016": 0.291098337451,
			"0.017": 0.0166555125963,
			"0.018": 0.0,
			"0.019": 0.0,
			"0.02": 0.0,
			"0.021": 0.0,
			"0.022": 0.0,
			"0.023": 0.0,
			"0.024": 0.0,
			"0.025": 0.0
		}
	}
}
