{
	 "smiles": "CN1C[C@@H](C=C2[C@H]1CC1=CNC3=CC=CC2=C13)C(=O)N[C@]1(C)O[C@@]2(O)[C@@H]3CCCN3C(=O)[C@H](CC3=CC=CC=C3)N2C1=O", 
	 "Tm": 486.65, 
	 "num_atms": 78, 
	 "gaussian": { 
		 "optdone": 1, 
		 "sigma_profile": "yes", 
		 "theory": "DFT", 
		 "functional": "B3LYP", 
		 "basiset": "6-31G**", 
		 "properties": { 
			 "R2extent": 29630.1356, 
			 "electric_dipole_moment_norm": 4.46638475839, 
			 "electric_quadrupole_moment_norm": 40.1940360202, 
			 "total_energy": -1928.50986695, 
			 "HOMO_LUMO_gap": 0.16174, 
			 "cosmo_polarized_energy": -35.9, 
			 "cosmo_cavitation_energy": 75.52, 
			 "cosmo_dispersion_energy": -49.64, 
			 "cosmo_repulsion_energy": 3.59, 
			 "cosmo_total_nonelectrostatic_energy": 29.47, 
			 "SMD_solvation_energy": 8.84 
		},
		"coords": [
			{
				"x": -4.5367636164,
				"y": -3.4932293187,
				"z": -3.8624737203,
				"element": "C" 
			},
			{
				"x": -3.3922682061,
				"y": -3.0242476401,
				"z": -3.0870176335,
				"element": "N" 
			},
			{
				"x": -3.7325991156,
				"y": -1.7799580032,
				"z": -2.3932508191,
				"element": "C" 
			},
			{
				"x": -2.6619898025,
				"y": -1.4701390377,
				"z": -1.3439846468,
				"element": "C" 
			},
			{
				"x": -1.3044124101,
				"y": -1.4705346052,
				"z": -2.0105459012,
				"element": "C" 
			},
			{
				"x": -1.083826226,
				"y": -2.0922662935,
				"z": -3.180638466,
				"element": "C" 
			},
			{
				"x": -2.178661056,
				"y": -2.8915592934,
				"z": -3.9083179719,
				"element": "C" 
			},
			{
				"x": -1.6761286283,
				"y": -4.2996310478,
				"z": -4.3599969807,
				"element": "C" 
			},
			{
				"x": -0.3728837707,
				"y": -4.1727145601,
				"z": -5.0917594544,
				"element": "C" 
			},
			{
				"x": 0.2941972871,
				"y": -4.9075536852,
				"z": -6.0385911592,
				"element": "C" 
			},
			{
				"x": 1.5223878189,
				"y": -4.3024389065,
				"z": -6.3119226766,
				"element": "N" 
			},
			{
				"x": 1.6563580738,
				"y": -3.1624737942,
				"z": -5.5406252492,
				"element": "C" 
			},
			{
				"x": 2.6602942073,
				"y": -2.1977122968,
				"z": -5.3947087952,
				"element": "C" 
			},
			{
				"x": 2.4197139239,
				"y": -1.1714213723,
				"z": -4.4775688373,
				"element": "C" 
			},
			{
				"x": 1.2293768534,
				"y": -1.0772594635,
				"z": -3.726310296,
				"element": "C" 
			},
			{
				"x": 0.2249501912,
				"y": -2.038858446,
				"z": -3.8676212236,
				"element": "C" 
			},
			{
				"x": 0.4729028069,
				"y": -3.0709720123,
				"z": -4.7817781677,
				"element": "C" 
			},
			{
				"x": -2.9664797178,
				"y": -0.1373134903,
				"z": -0.6592678689,
				"element": "C" 
			},
			{
				"x": -3.7672912284,
				"y": 0.6595622035,
				"z": -1.1305120583,
				"element": "O" 
			},
			{
				"x": -2.3644751264,
				"y": 0.2035254388,
				"z": 0.5469230873,
				"element": "N" 
			},
			{
				"x": -1.3020382598,
				"y": -0.3062755219,
				"z": 1.3997867888,
				"element": "C" 
			},
			{
				"x": -1.1380881604,
				"y": -1.8219857325,
				"z": 1.4187991415,
				"element": "C" 
			},
			{
				"x": -1.6213175475,
				"y": 0.1504315165,
				"z": 2.7329203085,
				"element": "O" 
			},
			{
				"x": -0.6152039115,
				"y": 0.9933881905,
				"z": 3.2681152099,
				"element": "C" 
			},
			{
				"x": -1.1468936767,
				"y": 2.1978171913,
				"z": 3.7128931108,
				"element": "O" 
			},
			{
				"x": 0.1162285689,
				"y": 0.3378147716,
				"z": 4.4463952211,
				"element": "C" 
			},
			{
				"x": -0.6304909895,
				"y": 0.2689355548,
				"z": 5.7861093603,
				"element": "C" 
			},
			{
				"x": 0.5126555014,
				"y": 0.3041520669,
				"z": 6.8165381098,
				"element": "C" 
			},
			{
				"x": 1.5238390059,
				"y": 1.2862784764,
				"z": 6.2070367404,
				"element": "C" 
			},
			{
				"x": 1.3157708883,
				"y": 1.1327906645,
				"z": 4.7569006082,
				"element": "N" 
			},
			{
				"x": 1.9614445935,
				"y": 1.9623105551,
				"z": 3.8883230579,
				"element": "C" 
			},
			{
				"x": 2.8024142602,
				"y": 2.7704124083,
				"z": 4.2653039694,
				"element": "O" 
			},
			{
				"x": 1.629014948,
				"y": 1.8266322709,
				"z": 2.3886933026,
				"element": "C" 
			},
			{
				"x": 1.7186286227,
				"y": 3.1944140406,
				"z": 1.6546678508,
				"element": "C" 
			},
			{
				"x": 3.0917760957,
				"y": 3.4943009175,
				"z": 1.0867159961,
				"element": "C" 
			},
			{
				"x": 3.4873451837,
				"y": 2.8931461648,
				"z": -0.1172930963,
				"element": "C" 
			},
			{
				"x": 4.7425138145,
				"y": 3.1578206772,
				"z": -0.6660195191,
				"element": "C" 
			},
			{
				"x": 5.6186142682,
				"y": 4.0321441571,
				"z": -0.0194215014,
				"element": "C" 
			},
			{
				"x": 5.2342224003,
				"y": 4.6311361654,
				"z": 1.1815576635,
				"element": "C" 
			},
			{
				"x": 3.9807089703,
				"y": 4.3609986085,
				"z": 1.732946015,
				"element": "C" 
			},
			{
				"x": 0.333893306,
				"y": 1.1685345799,
				"z": 2.1832143129,
				"element": "N" 
			},
			{
				"x": 0.0493260416,
				"y": 0.39135174,
				"z": 1.102477582,
				"element": "C" 
			},
			{
				"x": 0.7288988958,
				"y": 0.2620040333,
				"z": 0.0967030303,
				"element": "O" 
			},
			{
				"x": -4.7986184568,
				"y": -2.8200520447,
				"z": -4.7014301667,
				"element": "H" 
			},
			{
				"x": -4.3520884514,
				"y": -4.4881749109,
				"z": -4.2730950343,
				"element": "H" 
			},
			{
				"x": -5.4092582335,
				"y": -3.5681868345,
				"z": -3.2066696349,
				"element": "H" 
			},
			{
				"x": -3.8321298442,
				"y": -0.9217968562,
				"z": -3.077593912,
				"element": "H" 
			},
			{
				"x": -4.7030570929,
				"y": -1.9112083612,
				"z": -1.9051184123,
				"element": "H" 
			},
			{
				"x": -2.7028023926,
				"y": -2.2618832248,
				"z": -0.5855645417,
				"element": "H" 
			},
			{
				"x": -0.4929181188,
				"y": -0.9337421717,
				"z": -1.5265980199,
				"element": "H" 
			},
			{
				"x": -2.4043867807,
				"y": -2.3237453118,
				"z": -4.8364255608,
				"element": "H" 
			},
			{
				"x": -1.5661942281,
				"y": -4.9152690471,
				"z": -3.4569219771,
				"element": "H" 
			},
			{
				"x": -2.4335721645,
				"y": -4.7823121917,
				"z": -4.9836467689,
				"element": "H" 
			},
			{
				"x": 0.0156021189,
				"y": -5.8181282313,
				"z": -6.5507172865,
				"element": "H" 
			},
			{
				"x": 2.1975521848,
				"y": -4.6477839437,
				"z": -6.9735910431,
				"element": "H" 
			},
			{
				"x": 3.5857523325,
				"y": -2.2331054704,
				"z": -5.9620883634,
				"element": "H" 
			},
			{
				"x": 3.1774098551,
				"y": -0.4041951619,
				"z": -4.3454437847,
				"element": "H" 
			},
			{
				"x": 1.0977739259,
				"y": -0.2403752138,
				"z": -3.0473533782,
				"element": "H" 
			},
			{
				"x": -2.6704054621,
				"y": 1.1303022701,
				"z": 0.8194932064,
				"element": "H" 
			},
			{
				"x": -2.089621993,
				"y": -2.2978566283,
				"z": 1.6662524392,
				"element": "H" 
			},
			{
				"x": -0.4109373759,
				"y": -2.0797771663,
				"z": 2.1927615201,
				"element": "H" 
			},
			{
				"x": -0.7652533787,
				"y": -2.1986579721,
				"z": 0.4666180594,
				"element": "H" 
			},
			{
				"x": -1.5547957483,
				"y": 2.6474047743,
				"z": 2.9591879606,
				"element": "H" 
			},
			{
				"x": 0.3985917339,
				"y": -0.6704363893,
				"z": 4.1122370281,
				"element": "H" 
			},
			{
				"x": -1.2678656569,
				"y": 1.1512244035,
				"z": 5.887866102,
				"element": "H" 
			},
			{
				"x": -1.2588309146,
				"y": -0.6214779611,
				"z": 5.8591890235,
				"element": "H" 
			},
			{
				"x": 0.1786780165,
				"y": 0.6188966095,
				"z": 7.8082165945,
				"element": "H" 
			},
			{
				"x": 0.9638666531,
				"y": -0.6894172732,
				"z": 6.9175056979,
				"element": "H" 
			},
			{
				"x": 2.5619527346,
				"y": 1.0657228905,
				"z": 6.4689423224,
				"element": "H" 
			},
			{
				"x": 1.3249789193,
				"y": 2.3247881769,
				"z": 6.4967898899,
				"element": "H" 
			},
			{
				"x": 2.3823981078,
				"y": 1.1604110286,
				"z": 1.9500873118,
				"element": "H" 
			},
			{
				"x": 1.4021624874,
				"y": 3.9884262891,
				"z": 2.3365527649,
				"element": "H" 
			},
			{
				"x": 0.9996936351,
				"y": 3.1563751497,
				"z": 0.8302778448,
				"element": "H" 
			},
			{
				"x": 2.8059912278,
				"y": 2.2099257213,
				"z": -0.6193779557,
				"element": "H" 
			},
			{
				"x": 5.0333475607,
				"y": 2.6858829385,
				"z": -1.6005250843,
				"element": "H" 
			},
			{
				"x": 6.5943807108,
				"y": 4.2436783956,
				"z": -0.4478597182,
				"element": "H" 
			},
			{
				"x": 5.9127115184,
				"y": 5.307773681,
				"z": 1.6938316832,
				"element": "H" 
			},
			{
				"x": 3.6935274925,
				"y": 4.8045121653,
				"z": 2.6806167694,
				"element": "H" 
			}
		],
		 "valence_orbital": [ 
			{
				"type": "occ",
				"energy": -0.23206,
				"method": "rhf"
			},
			{
				"type": "occ",
				"energy": -0.23056,
				"method": "rhf"
			},
			{
				"type": "occ",
				"energy": -0.21301,
				"method": "rhf"
			},
			{
				"type": "occ",
				"energy": -0.20696,
				"method": "rhf"
			},
			{
				"type": "occ",
				"energy": -0.18583,
				"method": "rhf"
			},
			{
				"type": "unocc",
				"energy": -0.02409,
				"method": "rhf"
			},
			{
				"type": "unocc",
				"energy": -0.01016,
				"method": "rhf"
			},
			{
				"type": "unocc",
				"energy": 0.00203,
				"method": "rhf"
			},
			{
				"type": "unocc",
				"energy": 0.01088,
				"method": "rhf"
			},
			{
				"type": "unocc",
				"energy": 0.01446,
				"method": "rhf"
			}
		],
		"cosmo_sigma_profile": { 
			"-0.025": 0.0,
			"-0.024": 0.0,
			"-0.023": 0.0,
			"-0.022": 0.0,
			"-0.021": 0.0,
			"-0.02": 0.0,
			"-0.019": 0.0,
			"-0.018": 0.227507124682,
			"-0.017": 1.71558371026,
			"-0.016": 1.69352075752,
			"-0.015": 3.40818024007,
			"-0.014": 3.16222214454,
			"-0.013": 2.52816236419,
			"-0.012": 2.45614585113,
			"-0.011": 2.62743988101,
			"-0.01": 3.02022488111,
			"-0.009": 3.46197318958,
			"-0.008": 5.7221251406,
			"-0.007": 11.9800243798,
			"-0.006": 15.4534876799,
			"-0.005": 33.217208194,
			"-0.004": 51.5353328525,
			"-0.003": 56.463003584,
			"-0.002": 57.880443306,
			"-0.001": 53.9915403211,
			"0.0": 38.3273975986,
			"0.001": 29.8908034463,
			"0.002": 29.9814234562,
			"0.003": 28.0815818017,
			"0.004": 31.0617951453,
			"0.005": 35.8926571157,
			"0.006": 29.3721106746,
			"0.007": 17.7460532268,
			"0.008": 8.71208686654,
			"0.009": 7.24211022712,
			"0.01": 5.96563644005,
			"0.011": 5.30676046219,
			"0.012": 5.53643693386,
			"0.013": 8.58241608737,
			"0.014": 2.34182587184,
			"0.015": 0.238011106295,
			"0.016": 0.0061870912971,
			"0.017": 0.0,
			"0.018": 0.0,
			"0.019": 0.0,
			"0.02": 0.0,
			"0.021": 0.0,
			"0.022": 0.0,
			"0.023": 0.0,
			"0.024": 0.0,
			"0.025": 0.0
		}
	}
}
