{
	 "smiles": "CO[C@@H](C)[C@](O)(C(=O)OCC1=CCN2CC[C@H](OC(=O)C(C)=CC)[C@@H]12)C(C)(C)O", 
	 "Tm": 370.15, 
	 "num_atms": 62, 
	 "gaussian": { 
		 "optdone": 1, 
		 "sigma_profile": "yes", 
		 "theory": "DFT", 
		 "functional": "B3LYP", 
		 "basiset": "6-31G**", 
		 "properties": { 
			 "R2extent": 13372.3863, 
			 "electric_dipole_moment_norm": 4.76113059997, 
			 "electric_quadrupole_moment_norm": 14.2692203091, 
			 "total_energy": -1401.40694861, 
			 "HOMO_LUMO_gap": 0.1762, 
			 "cosmo_polarized_energy": -17.29, 
			 "cosmo_cavitation_energy": 60.08, 
			 "cosmo_dispersion_energy": -37.47, 
			 "cosmo_repulsion_energy": 2.81, 
			 "cosmo_total_nonelectrostatic_energy": 25.42, 
			 "SMD_solvation_energy": 8.67 
		},
		"coords": [
			{
				"x": 0.2810895757,
				"y": 1.0121314596,
				"z": 2.4194233387,
				"element": "C" 
			},
			{
				"x": 1.3831930191,
				"y": 1.4207641778,
				"z": 1.6229452323,
				"element": "O" 
			},
			{
				"x": 1.1535101562,
				"y": 2.5721895241,
				"z": 0.8195499663,
				"element": "C" 
			},
			{
				"x": 0.916108299,
				"y": 3.8369074543,
				"z": 1.6540786989,
				"element": "C" 
			},
			{
				"x": 2.3490648772,
				"y": 2.6952694196,
				"z": -0.195580971,
				"element": "C" 
			},
			{
				"x": 2.445569947,
				"y": 4.0610310178,
				"z": -0.6032782357,
				"element": "O" 
			},
			{
				"x": 2.0135041269,
				"y": 1.9275917122,
				"z": -1.4933928104,
				"element": "C" 
			},
			{
				"x": 1.9697387211,
				"y": 2.4981646927,
				"z": -2.5711980134,
				"element": "O" 
			},
			{
				"x": 1.7539555724,
				"y": 0.626502718,
				"z": -1.338616915,
				"element": "O" 
			},
			{
				"x": 1.5543081011,
				"y": -0.1224573902,
				"z": -2.5802102185,
				"element": "C" 
			},
			{
				"x": 1.0471865143,
				"y": -1.4863926096,
				"z": -2.2447675595,
				"element": "C" 
			},
			{
				"x": 1.7694141526,
				"y": -2.607179264,
				"z": -2.1694475264,
				"element": "C" 
			},
			{
				"x": 0.907545578,
				"y": -3.7958439516,
				"z": -1.8503411872,
				"element": "C" 
			},
			{
				"x": -0.4673470231,
				"y": -3.2605604945,
				"z": -1.8025532703,
				"element": "N" 
			},
			{
				"x": -1.2215228982,
				"y": -3.5081046948,
				"z": -0.5653009586,
				"element": "C" 
			},
			{
				"x": -1.0296626776,
				"y": -2.2431004055,
				"z": 0.2919603213,
				"element": "C" 
			},
			{
				"x": -1.0492786049,
				"y": -1.12814992,
				"z": -0.7566920776,
				"element": "C" 
			},
			{
				"x": -2.4227249313,
				"y": -0.7960700399,
				"z": -1.0908758346,
				"element": "O" 
			},
			{
				"x": -2.9370029323,
				"y": 0.3595514297,
				"z": -0.6072245136,
				"element": "C" 
			},
			{
				"x": -2.3082869866,
				"y": 1.1322142876,
				"z": 0.0972451419,
				"element": "O" 
			},
			{
				"x": -4.3514113928,
				"y": 0.5542013598,
				"z": -1.0528283414,
				"element": "C" 
			},
			{
				"x": -4.9723853468,
				"y": -0.5043207674,
				"z": -1.9285451763,
				"element": "C" 
			},
			{
				"x": -4.9506744479,
				"y": 1.6800873946,
				"z": -0.6224053398,
				"element": "C" 
			},
			{
				"x": -6.3435245842,
				"y": 2.1504902266,
				"z": -0.8980453429,
				"element": "C" 
			},
			{
				"x": -0.4189162596,
				"y": -1.7902353208,
				"z": -2.0135016263,
				"element": "C" 
			},
			{
				"x": 3.807774469,
				"y": 2.2983521926,
				"z": 0.306783075,
				"element": "C" 
			},
			{
				"x": 4.0746870768,
				"y": 0.8094110019,
				"z": 0.5409726005,
				"element": "C" 
			},
			{
				"x": 4.1783145148,
				"y": 3.0999369222,
				"z": 1.5649338044,
				"element": "C" 
			},
			{
				"x": 4.6835284789,
				"y": 2.6643640766,
				"z": -0.7639192787,
				"element": "O" 
			},
			{
				"x": 0.1199990312,
				"y": 1.6788355926,
				"z": 3.2778494331,
				"element": "H" 
			},
			{
				"x": 0.5266808265,
				"y": 0.0171564586,
				"z": 2.8013205759,
				"element": "H" 
			},
			{
				"x": -0.6441572864,
				"y": 0.9595134883,
				"z": 1.8323985022,
				"element": "H" 
			},
			{
				"x": 0.2392977023,
				"y": 2.4072067649,
				"z": 0.2256020438,
				"element": "H" 
			},
			{
				"x": 0.8057224466,
				"y": 4.7020754787,
				"z": 1.0001705505,
				"element": "H" 
			},
			{
				"x": 1.7367716488,
				"y": 4.0286569863,
				"z": 2.347978532,
				"element": "H" 
			},
			{
				"x": -0.0054079806,
				"y": 3.7261757776,
				"z": 2.2325273827,
				"element": "H" 
			},
			{
				"x": 2.2516125909,
				"y": 4.0538364391,
				"z": -1.5601507176,
				"element": "H" 
			},
			{
				"x": 0.8544302868,
				"y": 0.4352133775,
				"z": -3.2087601101,
				"element": "H" 
			},
			{
				"x": 2.5156385342,
				"y": -0.1654835647,
				"z": -3.0990479229,
				"element": "H" 
			},
			{
				"x": 2.8403727336,
				"y": -2.6798293371,
				"z": -2.3324615736,
				"element": "H" 
			},
			{
				"x": 1.2056286975,
				"y": -4.2598905821,
				"z": -0.8954898514,
				"element": "H" 
			},
			{
				"x": 1.0062359549,
				"y": -4.5812910858,
				"z": -2.6159193609,
				"element": "H" 
			},
			{
				"x": -0.8738610796,
				"y": -4.4238027472,
				"z": -0.0785937501,
				"element": "H" 
			},
			{
				"x": -2.2849738049,
				"y": -3.6447633198,
				"z": -0.7991020266,
				"element": "H" 
			},
			{
				"x": -0.0462869749,
				"y": -2.2548957004,
				"z": 0.7758718118,
				"element": "H" 
			},
			{
				"x": -1.7900488903,
				"y": -2.0981365603,
				"z": 1.0640010288,
				"element": "H" 
			},
			{
				"x": -0.5371037265,
				"y": -0.2206398874,
				"z": -0.4422988112,
				"element": "H" 
			},
			{
				"x": -4.9680226261,
				"y": -1.4791456794,
				"z": -1.4300354063,
				"element": "H" 
			},
			{
				"x": -4.4054470608,
				"y": -0.6285381174,
				"z": -2.8569018995,
				"element": "H" 
			},
			{
				"x": -6.0034079818,
				"y": -0.2600883845,
				"z": -2.189388667,
				"element": "H" 
			},
			{
				"x": -4.3443555472,
				"y": 2.3312076384,
				"z": 0.0046050065,
				"element": "H" 
			},
			{
				"x": -6.9194274285,
				"y": 1.4703836921,
				"z": -1.5284368847,
				"element": "H" 
			},
			{
				"x": -6.3220715535,
				"y": 3.1329114597,
				"z": -1.3867807193,
				"element": "H" 
			},
			{
				"x": -6.8905473809,
				"y": 2.2893076215,
				"z": 0.0432207004,
				"element": "H" 
			},
			{
				"x": -1.0185902606,
				"y": -1.4836033691,
				"z": -2.8841420919,
				"element": "H" 
			},
			{
				"x": 3.4171527029,
				"y": 0.4070231116,
				"z": 1.308925725,
				"element": "H" 
			},
			{
				"x": 3.9428513469,
				"y": 0.2346045025,
				"z": -0.3761040557,
				"element": "H" 
			},
			{
				"x": 5.1172861637,
				"y": 0.7025927539,
				"z": 0.8566136622,
				"element": "H" 
			},
			{
				"x": 3.6192840688,
				"y": 2.7508933398,
				"z": 2.4364225271,
				"element": "H" 
			},
			{
				"x": 3.9895673706,
				"y": 4.1674814995,
				"z": 1.4225739124,
				"element": "H" 
			},
			{
				"x": 5.2468119254,
				"y": 2.9626931735,
				"z": 1.7550563235,
				"element": "H" 
			},
			{
				"x": 4.4543104558,
				"y": 3.5834929697,
				"z": -0.9728908507,
				"element": "H" 
			}
		],
		 "valence_orbital": [ 
			{
				"type": "occ",
				"energy": -0.26057,
				"method": "rhf"
			},
			{
				"type": "occ",
				"energy": -0.25725,
				"method": "rhf"
			},
			{
				"type": "occ",
				"energy": -0.24777,
				"method": "rhf"
			},
			{
				"type": "occ",
				"energy": -0.24409,
				"method": "rhf"
			},
			{
				"type": "occ",
				"energy": -0.21379,
				"method": "rhf"
			},
			{
				"type": "unocc",
				"energy": -0.03759,
				"method": "rhf"
			},
			{
				"type": "unocc",
				"energy": -0.00683,
				"method": "rhf"
			},
			{
				"type": "unocc",
				"energy": 0.00347,
				"method": "rhf"
			},
			{
				"type": "unocc",
				"energy": 0.07292,
				"method": "rhf"
			},
			{
				"type": "unocc",
				"energy": 0.079,
				"method": "rhf"
			}
		],
		"cosmo_sigma_profile": { 
			"-0.025": 0.0,
			"-0.024": 0.0,
			"-0.023": 0.0,
			"-0.022": 0.0,
			"-0.021": 0.0,
			"-0.02": 0.0,
			"-0.019": 0.0,
			"-0.018": 0.0,
			"-0.017": 0.0,
			"-0.016": 0.0,
			"-0.015": 0.0,
			"-0.014": 0.0,
			"-0.013": 0.0,
			"-0.012": 0.0743344450677,
			"-0.011": 0.534420243209,
			"-0.01": 1.28545009976,
			"-0.009": 1.44308009982,
			"-0.008": 1.49406658546,
			"-0.007": 4.72737327433,
			"-0.006": 12.3081469541,
			"-0.005": 19.5332048235,
			"-0.004": 39.5746427403,
			"-0.003": 50.8826181334,
			"-0.002": 58.5350430615,
			"-0.001": 60.0631208952,
			"0.0": 51.2716743828,
			"0.001": 40.8947633401,
			"0.002": 27.2207150021,
			"0.003": 21.0172216119,
			"0.004": 14.0272922938,
			"0.005": 11.3167023827,
			"0.006": 10.8346539657,
			"0.007": 7.23142314788,
			"0.008": 8.00167797795,
			"0.009": 5.9604775365,
			"0.01": 6.5625502503,
			"0.011": 6.02357242997,
			"0.012": 1.66349459146,
			"0.013": 2.38900293192,
			"0.014": 2.41442709901,
			"0.015": 0.702620045703,
			"0.016": 0.448318587863,
			"0.017": 0.131152755826,
			"0.018": 0.0,
			"0.019": 0.0,
			"0.02": 0.0,
			"0.021": 0.0,
			"0.022": 0.0,
			"0.023": 0.0,
			"0.024": 0.0,
			"0.025": 0.0
		}
	}
}
