{
	 "smiles": "FC1=CC(Br)=C(OC2=CC=NC=C2)C=C1", 
	 "Tm": 348.15, 
	 "num_atms": 22, 
	 "gaussian": { 
		 "optdone": 1, 
		 "sigma_profile": "yes", 
		 "theory": "DFT", 
		 "functional": "B3LYP", 
		 "basiset": "6-31G**", 
		 "properties": { 
			 "R2extent": 5282.5689, 
			 "electric_dipole_moment_norm": 2.28818696133, 
			 "electric_quadrupole_moment_norm": 9.89837691493, 
			 "total_energy": -3224.5809021, 
			 "HOMO_LUMO_gap": 0.2139, 
			 "cosmo_polarized_energy": -8.71, 
			 "cosmo_cavitation_energy": 30.05, 
			 "cosmo_dispersion_energy": -21.51, 
			 "cosmo_repulsion_energy": 1.66, 
			 "cosmo_total_nonelectrostatic_energy": 10.2, 
			 "SMD_solvation_energy": 3.43 
		},
		"coords": [
			{
				"x": 0.4364834178,
				"y": -3.0157758206,
				"z": 4.7559262294,
				"element": "F" 
			},
			{
				"x": 0.43217927,
				"y": -2.3409227848,
				"z": 3.5914605813,
				"element": "C" 
			},
			{
				"x": 1.3109775155,
				"y": -1.2750676234,
				"z": 3.4371086069,
				"element": "C" 
			},
			{
				"x": 1.3066731853,
				"y": -0.5746693577,
				"z": 2.2311817139,
				"element": "C" 
			},
			{
				"x": 2.5006212539,
				"y": 0.883392753,
				"z": 1.9950777012,
				"element": "Br" 
			},
			{
				"x": 0.4349084687,
				"y": -0.9451258702,
				"z": 1.1996714943,
				"element": "C" 
			},
			{
				"x": 0.4895181218,
				"y": -0.3149401996,
				"z": -0.0278674747,
				"element": "O" 
			},
			{
				"x": -0.4061971566,
				"y": 0.683111253,
				"z": -0.326094437,
				"element": "C" 
			},
			{
				"x": -0.3320780825,
				"y": 1.2168568128,
				"z": -1.6150570835,
				"element": "C" 
			},
			{
				"x": -1.2239225018,
				"y": 2.2289862281,
				"z": -1.9550663823,
				"element": "C" 
			},
			{
				"x": -2.1530615635,
				"y": 2.7278370133,
				"z": -1.1258364672,
				"element": "N" 
			},
			{
				"x": -2.1993589308,
				"y": 2.2002946454,
				"z": 0.1019319906,
				"element": "C" 
			},
			{
				"x": -1.3604568692,
				"y": 1.1826172649,
				"z": 0.5609473704,
				"element": "C" 
			},
			{
				"x": -0.4326706844,
				"y": -2.0239652169,
				"z": 1.3843186432,
				"element": "C" 
			},
			{
				"x": -0.4440545123,
				"y": -2.7311257399,
				"z": 2.5843481096,
				"element": "C" 
			},
			{
				"x": 1.9818882889,
				"y": -1.0023381343,
				"z": 4.2421389767,
				"element": "H" 
			},
			{
				"x": 0.4050733761,
				"y": 0.8435609175,
				"z": -2.3171193597,
				"element": "H" 
			},
			{
				"x": -1.1892587931,
				"y": 2.662871932,
				"z": -2.9527730535,
				"element": "H" 
			},
			{
				"x": -2.9526770877,
				"y": 2.6106792108,
				"z": 0.7724950267,
				"element": "H" 
			},
			{
				"x": -1.4524180841,
				"y": 0.8032431411,
				"z": 1.5715088017,
				"element": "H" 
			},
			{
				"x": -1.0918447999,
				"y": -2.3036552491,
				"z": 0.5693093226,
				"element": "H" 
			},
			{
				"x": -1.1094238322,
				"y": -3.5719651752,
				"z": 2.7429896894,
				"element": "H" 
			}
		],
		 "valence_orbital": [ 
			{
				"type": "occ",
				"energy": -0.2722,
				"method": "rhf"
			},
			{
				"type": "occ",
				"energy": -0.26584,
				"method": "rhf"
			},
			{
				"type": "occ",
				"energy": -0.25927,
				"method": "rhf"
			},
			{
				"type": "occ",
				"energy": -0.25576,
				"method": "rhf"
			},
			{
				"type": "occ",
				"energy": -0.25277,
				"method": "rhf"
			},
			{
				"type": "unocc",
				"energy": -0.03887,
				"method": "rhf"
			},
			{
				"type": "unocc",
				"energy": -0.02225,
				"method": "rhf"
			},
			{
				"type": "unocc",
				"energy": -0.01282,
				"method": "rhf"
			},
			{
				"type": "unocc",
				"energy": -0.01264,
				"method": "rhf"
			},
			{
				"type": "unocc",
				"energy": -0.00854,
				"method": "rhf"
			}
		],
		"cosmo_sigma_profile": { 
			"-0.025": 0.0,
			"-0.024": 0.0,
			"-0.023": 0.0,
			"-0.022": 0.0,
			"-0.021": 0.0,
			"-0.02": 0.0,
			"-0.019": 0.0,
			"-0.018": 0.0,
			"-0.017": 0.0,
			"-0.016": 0.0,
			"-0.015": 0.0,
			"-0.014": 0.0,
			"-0.013": 0.0,
			"-0.012": 0.0,
			"-0.011": 0.0,
			"-0.01": 0.0,
			"-0.009": 1.09548642746,
			"-0.008": 6.2028276,
			"-0.007": 9.10870081506,
			"-0.006": 14.627387004,
			"-0.005": 13.8622835563,
			"-0.004": 12.7494490708,
			"-0.003": 11.9425064347,
			"-0.002": 13.5834472316,
			"-0.001": 18.3144733848,
			"0.0": 26.2633819793,
			"0.001": 27.7431438689,
			"0.002": 27.873112925,
			"0.003": 21.9544502171,
			"0.004": 19.3868569554,
			"0.005": 4.90485097909,
			"0.006": 3.43395246874,
			"0.007": 2.56859901548,
			"0.008": 1.88065477094,
			"0.009": 1.12942614103,
			"0.01": 1.38439631671,
			"0.011": 0.70404099746,
			"0.012": 1.23962431579,
			"0.013": 0.727924311035,
			"0.014": 1.21449406206,
			"0.015": 0.657277486745,
			"0.016": 0.950181994122,
			"0.017": 0.487689234408,
			"0.018": 0.0,
			"0.019": 0.0,
			"0.02": 0.0,
			"0.021": 0.0,
			"0.022": 0.0,
			"0.023": 0.0,
			"0.024": 0.0,
			"0.025": 0.0
		}
	}
}
