{
	 "smiles": "OC(=O)C1=CC(=CC=C1)S(=O)(=O)NC1=CC=C(Br)C=C1", 
	 "Tm": 515.15, 
	 "num_atms": 30, 
	 "gaussian": { 
		 "optdone": 1, 
		 "sigma_profile": "yes", 
		 "theory": "DFT", 
		 "functional": "B3LYP", 
		 "basiset": "6-31G**", 
		 "properties": { 
			 "R2extent": 10081.4837, 
			 "electric_dipole_moment_norm": 1.96297227184, 
			 "electric_quadrupole_moment_norm": 25.4247705113, 
			 "total_energy": -3826.58462957, 
			 "HOMO_LUMO_gap": 0.16764, 
			 "cosmo_polarized_energy": -24.63, 
			 "cosmo_cavitation_energy": 39.4, 
			 "cosmo_dispersion_energy": -28.09, 
			 "cosmo_repulsion_energy": 2.13, 
			 "cosmo_total_nonelectrostatic_energy": 13.43, 
			 "SMD_solvation_energy": 5.84 
		},
		"coords": [
			{
				"x": -2.8817597881,
				"y": -5.1439599777,
				"z": -0.3090860457,
				"element": "O" 
			},
			{
				"x": -1.8720247762,
				"y": -4.7047206952,
				"z": -1.1015905693,
				"element": "C" 
			},
			{
				"x": -1.1841642931,
				"y": -5.4920351565,
				"z": -1.7062637397,
				"element": "O" 
			},
			{
				"x": -1.6603283294,
				"y": -3.2185628531,
				"z": -1.1746128411,
				"element": "C" 
			},
			{
				"x": -2.1056193183,
				"y": -2.3410923552,
				"z": -0.1799501146,
				"element": "C" 
			},
			{
				"x": -1.8607692358,
				"y": -0.9740591135,
				"z": -0.3149139686,
				"element": "C" 
			},
			{
				"x": -1.1888032521,
				"y": -0.460761617,
				"z": -1.4265426884,
				"element": "C" 
			},
			{
				"x": -0.7300763649,
				"y": -1.3451024868,
				"z": -2.4053887444,
				"element": "C" 
			},
			{
				"x": -0.9527881963,
				"y": -2.7138437127,
				"z": -2.2752951062,
				"element": "C" 
			},
			{
				"x": -2.4086918591,
				"y": 0.1323263971,
				"z": 0.9922090262,
				"element": "S" 
			},
			{
				"x": -2.7212746979,
				"y": 1.4176295002,
				"z": 0.3726663903,
				"element": "O" 
			},
			{
				"x": -3.3612389519,
				"y": -0.6044111995,
				"z": 1.8229353513,
				"element": "O" 
			},
			{
				"x": -1.0759025639,
				"y": 0.3770946367,
				"z": 2.0135113465,
				"element": "N" 
			},
			{
				"x": 0.1365328518,
				"y": 0.984688315,
				"z": 1.5837514829,
				"element": "C" 
			},
			{
				"x": 1.3501790905,
				"y": 0.3034704452,
				"z": 1.7436784478,
				"element": "C" 
			},
			{
				"x": 2.5533596179,
				"y": 0.9077939968,
				"z": 1.3837757395,
				"element": "C" 
			},
			{
				"x": 2.5355876539,
				"y": 2.1884900568,
				"z": 0.8347848781,
				"element": "C" 
			},
			{
				"x": 4.1775924898,
				"y": 3.0150731413,
				"z": 0.3198896388,
				"element": "Br" 
			},
			{
				"x": 1.3338473585,
				"y": 2.8750518808,
				"z": 0.6615293515,
				"element": "C" 
			},
			{
				"x": 0.1347350962,
				"y": 2.2811682844,
				"z": 1.0498324467,
				"element": "C" 
			},
			{
				"x": -3.4472265562,
				"y": -4.4097466158,
				"z": -0.0311584899,
				"element": "H" 
			},
			{
				"x": -2.6273229015,
				"y": -2.6886064857,
				"z": 0.706729907,
				"element": "H" 
			},
			{
				"x": -1.0402163785,
				"y": 0.6085372247,
				"z": -1.5245066643,
				"element": "H" 
			},
			{
				"x": -0.201473448,
				"y": -0.961015464,
				"z": -3.2720000225,
				"element": "H" 
			},
			{
				"x": -0.5943970518,
				"y": -3.4155900438,
				"z": -3.0206087114,
				"element": "H" 
			},
			{
				"x": -0.9687052988,
				"y": -0.4204133372,
				"z": 2.6324390535,
				"element": "H" 
			},
			{
				"x": 1.3579487057,
				"y": -0.7032245496,
				"z": 2.1532022973,
				"element": "H" 
			},
			{
				"x": 3.4915710362,
				"y": 0.3817215281,
				"z": 1.5169634109,
				"element": "H" 
			},
			{
				"x": 1.334329515,
				"y": 3.8759623827,
				"z": 0.2453414232,
				"element": "H" 
			},
			{
				"x": -0.8022001538,
				"y": 2.8144378736,
				"z": 0.9450775147,
				"element": "H" 
			}
		],
		 "valence_orbital": [ 
			{
				"type": "occ",
				"energy": -0.29731,
				"method": "rhf"
			},
			{
				"type": "occ",
				"energy": -0.29287,
				"method": "rhf"
			},
			{
				"type": "occ",
				"energy": -0.28492,
				"method": "rhf"
			},
			{
				"type": "occ",
				"energy": -0.28075,
				"method": "rhf"
			},
			{
				"type": "occ",
				"energy": -0.24312,
				"method": "rhf"
			},
			{
				"type": "unocc",
				"energy": -0.07548,
				"method": "rhf"
			},
			{
				"type": "unocc",
				"energy": -0.06053,
				"method": "rhf"
			},
			{
				"type": "unocc",
				"energy": -0.03236,
				"method": "rhf"
			},
			{
				"type": "unocc",
				"energy": -0.03151,
				"method": "rhf"
			},
			{
				"type": "unocc",
				"energy": -0.00367,
				"method": "rhf"
			}
		],
		"cosmo_sigma_profile": { 
			"-0.025": 0.0,
			"-0.024": 0.0,
			"-0.023": 0.0,
			"-0.022": 0.0,
			"-0.021": 0.0,
			"-0.02": 0.132365452521,
			"-0.019": 1.19698927152,
			"-0.018": 0.972997749867,
			"-0.017": 1.19413987239,
			"-0.016": 2.26494320144,
			"-0.015": 2.71322735113,
			"-0.014": 2.2930344174,
			"-0.013": 1.9030677611,
			"-0.012": 2.61147484422,
			"-0.011": 2.22229544709,
			"-0.01": 1.85606847197,
			"-0.009": 3.00883483994,
			"-0.008": 6.4689759469,
			"-0.007": 14.8280034282,
			"-0.006": 14.0277740783,
			"-0.005": 14.1563611177,
			"-0.004": 14.263397889,
			"-0.003": 16.8856696877,
			"-0.002": 16.6913080647,
			"-0.001": 18.7882936309,
			"0.0": 23.5995427741,
			"0.001": 27.9763918599,
			"0.002": 25.3810965012,
			"0.003": 21.4168517987,
			"0.004": 18.0962557392,
			"0.005": 11.5229936015,
			"0.006": 5.76604378907,
			"0.007": 5.71130828143,
			"0.008": 6.54397464119,
			"0.009": 8.73403679207,
			"0.01": 12.9398419257,
			"0.011": 10.0362582219,
			"0.012": 3.39191826659,
			"0.013": 0.542313778557,
			"0.014": 0.0,
			"0.015": 0.0,
			"0.016": 0.0,
			"0.017": 0.0,
			"0.018": 0.0,
			"0.019": 0.0,
			"0.02": 0.0,
			"0.021": 0.0,
			"0.022": 0.0,
			"0.023": 0.0,
			"0.024": 0.0,
			"0.0": 0.0
		}
	}
}
