{
	 "smiles": "NS(=O)(=O)CCCC(O)=O", 
	 "Tm": 383.15, 
	 "num_atms": 19, 
	 "gaussian": { 
		 "optdone": 1, 
		 "sigma_profile": "yes", 
		 "theory": "DFT", 
		 "functional": "B3LYP", 
		 "basiset": "6-31G**", 
		 "properties": { 
			 "R2extent": 2427.6045, 
			 "electric_dipole_moment_norm": 2.99771493808, 
			 "electric_quadrupole_moment_norm": 27.7308799884, 
			 "total_energy": -911.637792172, 
			 "HOMO_LUMO_gap": 0.27209, 
			 "cosmo_polarized_energy": -19.53, 
			 "cosmo_cavitation_energy": 22.66, 
			 "cosmo_dispersion_energy": -17.72, 
			 "cosmo_repulsion_energy": 1.39, 
			 "cosmo_total_nonelectrostatic_energy": 6.32, 
			 "SMD_solvation_energy": 4.24 
		},
		"coords": [
			{
				"x": -0.0225528054,
				"y": 0.2064308427,
				"z": -0.299220209,
				"element": "N" 
			},
			{
				"x": 0.5821715527,
				"y": 0.9816191745,
				"z": 1.0654252812,
				"element": "S" 
			},
			{
				"x": 0.3689059301,
				"y": 2.4160897425,
				"z": 0.885155623,
				"element": "O" 
			},
			{
				"x": 1.9417466359,
				"y": 0.4714649589,
				"z": 1.3644836365,
				"element": "O" 
			},
			{
				"x": -0.5042117551,
				"y": 0.3924066669,
				"z": 2.387362099,
				"element": "C" 
			},
			{
				"x": -0.7226100811,
				"y": -1.1232083993,
				"z": 2.4884441054,
				"element": "C" 
			},
			{
				"x": 0.5350459048,
				"y": -2.0148488912,
				"z": 2.7054812557,
				"element": "C" 
			},
			{
				"x": 0.9389762987,
				"y": -2.7523696754,
				"z": 1.4272145008,
				"element": "C" 
			},
			{
				"x": 1.8231734072,
				"y": -2.1294590663,
				"z": 0.6083614059,
				"element": "O" 
			},
			{
				"x": 0.4614957299,
				"y": -3.8164193324,
				"z": 1.1160999903,
				"element": "O" 
			},
			{
				"x": -0.1051045054,
				"y": 0.8773075399,
				"z": -1.0580026727,
				"element": "H" 
			},
			{
				"x": 0.5331788362,
				"y": -0.6106928993,
				"z": -0.5512997931,
				"element": "H" 
			},
			{
				"x": -1.4537920033,
				"y": 0.907006148,
				"z": 2.2203784321,
				"element": "H" 
			},
			{
				"x": -0.043584179,
				"y": 0.7996869746,
				"z": 3.293327701,
				"element": "H" 
			},
			{
				"x": -1.3935660206,
				"y": -1.2573162525,
				"z": 3.3432445696,
				"element": "H" 
			},
			{
				"x": -1.2807008269,
				"y": -1.4692208056,
				"z": 1.613090264,
				"element": "H" 
			},
			{
				"x": 0.2887131819,
				"y": -2.798159201,
				"z": 3.4243486656,
				"element": "H" 
			},
			{
				"x": 1.3636641559,
				"y": -1.4274023593,
				"z": 3.1124899916,
				"element": "H" 
			},
			{
				"x": 2.1211505434,
				"y": -1.2776151658,
				"z": 0.9947151533,
				"element": "H" 
			}
		],
		 "valence_orbital": [ 
			{
				"type": "occ",
				"energy": -0.33036,
				"method": "rhf"
			},
			{
				"type": "occ",
				"energy": -0.32438,
				"method": "rhf"
			},
			{
				"type": "occ",
				"energy": -0.31491,
				"method": "rhf"
			},
			{
				"type": "occ",
				"energy": -0.31057,
				"method": "rhf"
			},
			{
				"type": "occ",
				"energy": -0.26989,
				"method": "rhf"
			},
			{
				"type": "unocc",
				"energy": 0.0022,
				"method": "rhf"
			},
			{
				"type": "unocc",
				"energy": 0.03815,
				"method": "rhf"
			},
			{
				"type": "unocc",
				"energy": 0.05278,
				"method": "rhf"
			},
			{
				"type": "unocc",
				"energy": 0.0642,
				"method": "rhf"
			},
			{
				"type": "unocc",
				"energy": 0.07233,
				"method": "rhf"
			}
		],
		"cosmo_sigma_profile": { 
			"-0.025": 0.0,
			"-0.024": 0.0,
			"-0.023": 0.0,
			"-0.022": 0.0,
			"-0.021": 0.0,
			"-0.02": 0.0,
			"-0.019": 0.0,
			"-0.018": 0.0,
			"-0.017": 0.0,
			"-0.016": 0.205506471125,
			"-0.015": 1.01726798633,
			"-0.014": 1.46171302944,
			"-0.013": 1.76445822248,
			"-0.012": 2.32111714327,
			"-0.011": 1.49380912999,
			"-0.01": 2.25409847178,
			"-0.009": 5.71533955266,
			"-0.008": 8.24305948104,
			"-0.007": 8.63571185784,
			"-0.006": 17.0746515909,
			"-0.005": 14.2947841111,
			"-0.004": 14.1143263167,
			"-0.003": 10.3543250443,
			"-0.002": 6.04579831824,
			"-0.001": 4.25692128993,
			"0.0": 4.76640507252,
			"0.001": 4.07761948012,
			"0.002": 5.07307818944,
			"0.003": 3.60698986707,
			"0.004": 3.79529714128,
			"0.005": 3.63990606905,
			"0.006": 3.80563268541,
			"0.007": 6.06073950365,
			"0.008": 5.32084578255,
			"0.009": 6.01942708046,
			"0.01": 11.2813139059,
			"0.011": 12.072574634,
			"0.012": 6.01550306456,
			"0.013": 3.05357602663,
			"0.014": 0.227031312259,
			"0.015": 0.0,
			"0.016": 0.0,
			"0.017": 0.0,
			"0.018": 0.0,
			"0.019": 0.0,
			"0.02": 0.0,
			"0.021": 0.0,
			"0.022": 0.0,
			"0.023": 0.0,
			"0.024": 0.0,
			"0.025": 0.0
		}
	}
}
