{
	 "smiles": "CN(C)C1=CC=CC2=C(C=CC=C12)S(=O)(=O)NC1CC(C)(C)N(O)C1(C)C", 
	 "Tm": 432.15, 
	 "num_atms": 56, 
	 "gaussian": { 
		 "optdone": 1, 
		 "sigma_profile": "yes", 
		 "theory": "DFT", 
		 "functional": "B3LYP", 
		 "basiset": "6-31G**", 
		 "properties": { 
			 "R2extent": 13321.7878, 
			 "electric_dipole_moment_norm": 4.7959413737, 
			 "electric_quadrupole_moment_norm": 21.4954263445, 
			 "total_energy": -1567.60290691, 
			 "HOMO_LUMO_gap": 0.15242, 
			 "cosmo_polarized_energy": -17.62, 
			 "cosmo_cavitation_energy": 55.07, 
			 "cosmo_dispersion_energy": -36.81, 
			 "cosmo_repulsion_energy": 2.69, 
			 "cosmo_total_nonelectrostatic_energy": 20.95, 
			 "SMD_solvation_energy": 7.68 
		},
		"coords": [
			{
				"x": -2.9408488162,
				"y": 2.6111109346,
				"z": -4.5736992942,
				"element": "C" 
			},
			{
				"x": -3.3683781946,
				"y": 2.3514766946,
				"z": -3.2054259858,
				"element": "N" 
			},
			{
				"x": -4.4638249266,
				"y": 3.2440209203,
				"z": -2.809285813,
				"element": "C" 
			},
			{
				"x": -2.3351948731,
				"y": 2.2177288818,
				"z": -2.2352249093,
				"element": "C" 
			},
			{
				"x": -1.0950415192,
				"y": 2.8127579827,
				"z": -2.380048164,
				"element": "C" 
			},
			{
				"x": -0.1127227775,
				"y": 2.6883021627,
				"z": -1.3739523118,
				"element": "C" 
			},
			{
				"x": -0.355897429,
				"y": 1.9841015058,
				"z": -0.2182785987,
				"element": "C" 
			},
			{
				"x": -1.5964583803,
				"y": 1.3135854267,
				"z": -0.0387980126,
				"element": "C" 
			},
			{
				"x": -1.9152249227,
				"y": 0.5126785164,
				"z": 1.1056966097,
				"element": "C" 
			},
			{
				"x": -3.1196574141,
				"y": -0.1492519282,
				"z": 1.2194700811,
				"element": "C" 
			},
			{
				"x": -4.0647358324,
				"y": -0.0806115759,
				"z": 0.1745582826,
				"element": "C" 
			},
			{
				"x": -3.7996842398,
				"y": 0.6723615118,
				"z": -0.9456878987,
				"element": "C" 
			},
			{
				"x": -2.5921402579,
				"y": 1.4089320602,
				"z": -1.0713341442,
				"element": "C" 
			},
			{
				"x": -0.7658120717,
				"y": 0.2923174077,
				"z": 2.4803670792,
				"element": "S" 
			},
			{
				"x": -1.4528277359,
				"y": -0.5536564051,
				"z": 3.4663545876,
				"element": "O" 
			},
			{
				"x": -0.2069313257,
				"y": 1.592130169,
				"z": 2.8747709648,
				"element": "O" 
			},
			{
				"x": 0.4838196196,
				"y": -0.5906787039,
				"z": 1.7740715014,
				"element": "N" 
			},
			{
				"x": 1.8980888403,
				"y": -0.2220360729,
				"z": 1.979661917,
				"element": "C" 
			},
			{
				"x": 2.7137693723,
				"y": -0.5898587779,
				"z": 0.7146672307,
				"element": "C" 
			},
			{
				"x": 3.2413388013,
				"y": -2.0371670828,
				"z": 0.9417637519,
				"element": "C" 
			},
			{
				"x": 4.763926222,
				"y": -2.1394482329,
				"z": 0.7407882118,
				"element": "C" 
			},
			{
				"x": 2.5490488147,
				"y": -3.0606331932,
				"z": 0.0254015802,
				"element": "C" 
			},
			{
				"x": 2.7893945021,
				"y": -2.3051519949,
				"z": 2.3454343218,
				"element": "N" 
			},
			{
				"x": 3.6850019875,
				"y": -3.1909449142,
				"z": 3.0268998283,
				"element": "O" 
			},
			{
				"x": 2.6099785313,
				"y": -1.0352956985,
				"z": 3.0960981916,
				"element": "C" 
			},
			{
				"x": 3.9207086809,
				"y": -0.3384137655,
				"z": 3.5254565262,
				"element": "C" 
			},
			{
				"x": 1.7728258964,
				"y": -1.3064512397,
				"z": 4.3497119968,
				"element": "C" 
			},
			{
				"x": -2.5782758093,
				"y": 3.6411961141,
				"z": -4.7398427018,
				"element": "H" 
			},
			{
				"x": -2.1471947538,
				"y": 1.9145583991,
				"z": -4.85449796,
				"element": "H" 
			},
			{
				"x": -3.7922642058,
				"y": 2.4522468586,
				"z": -5.2436671167,
				"element": "H" 
			},
			{
				"x": -4.1723075216,
				"y": 4.3072846187,
				"z": -2.8585064637,
				"element": "H" 
			},
			{
				"x": -5.3178341541,
				"y": 3.0916460865,
				"z": -3.477860225,
				"element": "H" 
			},
			{
				"x": -4.7827489808,
				"y": 3.027684254,
				"z": -1.7887797057,
				"element": "H" 
			},
			{
				"x": -0.8779128,
				"y": 3.4128287389,
				"z": -3.2567633723,
				"element": "H" 
			},
			{
				"x": 0.8420399185,
				"y": 3.1896239994,
				"z": -1.505670075,
				"element": "H" 
			},
			{
				"x": 0.3884093472,
				"y": 1.9571171015,
				"z": 0.5646712512,
				"element": "H" 
			},
			{
				"x": -3.317656318,
				"y": -0.7351585722,
				"z": 2.1092961227,
				"element": "H" 
			},
			{
				"x": -4.9918698803,
				"y": -0.6397118408,
				"z": 0.2544457385,
				"element": "H" 
			},
			{
				"x": -4.4997619567,
				"y": 0.6948721293,
				"z": -1.7727573529,
				"element": "H" 
			},
			{
				"x": 0.3105515443,
				"y": -1.5866959405,
				"z": 1.8827758625,
				"element": "H" 
			},
			{
				"x": 1.9216435966,
				"y": 0.8469973201,
				"z": 2.1943604948,
				"element": "H" 
			},
			{
				"x": 2.0917150267,
				"y": -0.5043934554,
				"z": -0.1788013073,
				"element": "H" 
			},
			{
				"x": 3.55211239,
				"y": 0.1032037749,
				"z": 0.5995582606,
				"element": "H" 
			},
			{
				"x": 5.3154702901,
				"y": -1.4598865149,
				"z": 1.3935908225,
				"element": "H" 
			},
			{
				"x": 5.010531701,
				"y": -1.888764442,
				"z": -0.2966096672,
				"element": "H" 
			},
			{
				"x": 5.1143157498,
				"y": -3.1538519448,
				"z": 0.9429754555,
				"element": "H" 
			},
			{
				"x": 1.4603084056,
				"y": -2.9745749369,
				"z": 0.0897700662,
				"element": "H" 
			},
			{
				"x": 2.829188091,
				"y": -4.0788036424,
				"z": 0.316411217,
				"element": "H" 
			},
			{
				"x": 2.8422678275,
				"y": -2.915200331,
				"z": -1.0200177002,
				"element": "H" 
			},
			{
				"x": 3.1162047767,
				"y": -3.9378775505,
				"z": 3.2555196898,
				"element": "H" 
			},
			{
				"x": 4.4886465481,
				"y": 0.0649889461,
				"z": 2.6842776956,
				"element": "H" 
			},
			{
				"x": 4.556940913,
				"y": -1.0499484913,
				"z": 4.0576293556,
				"element": "H" 
			},
			{
				"x": 3.6951602645,
				"y": 0.4927633945,
				"z": 4.2008836994,
				"element": "H" 
			},
			{
				"x": 1.5145185015,
				"y": -0.3710606089,
				"z": 4.8543542108,
				"element": "H" 
			},
			{
				"x": 0.8444399398,
				"y": -1.8332738575,
				"z": 4.122107197,
				"element": "H" 
			},
			{
				"x": 2.3540409968,
				"y": -1.9194141955,
				"z": 5.0456089778,
				"element": "H" 
			}
		],
		 "valence_orbital": [ 
			{
				"type": "occ",
				"energy": -0.25659,
				"method": "rhf"
			},
			{
				"type": "occ",
				"energy": -0.2514,
				"method": "rhf"
			},
			{
				"type": "occ",
				"energy": -0.24148,
				"method": "rhf"
			},
			{
				"type": "occ",
				"energy": -0.21972,
				"method": "rhf"
			},
			{
				"type": "occ",
				"energy": -0.20608,
				"method": "rhf"
			},
			{
				"type": "unocc",
				"energy": -0.05366,
				"method": "rhf"
			},
			{
				"type": "unocc",
				"energy": -0.01708,
				"method": "rhf"
			},
			{
				"type": "unocc",
				"energy": 0.016,
				"method": "rhf"
			},
			{
				"type": "unocc",
				"energy": 0.06167,
				"method": "rhf"
			},
			{
				"type": "unocc",
				"energy": 0.06496,
				"method": "rhf"
			}
		],
		"cosmo_sigma_profile": { 
			"-0.025": 0.0,
			"-0.024": 0.0,
			"-0.023": 0.0,
			"-0.022": 0.0,
			"-0.021": 0.0,
			"-0.02": 0.0,
			"-0.019": 0.0,
			"-0.018": 0.0,
			"-0.017": 0.0,
			"-0.016": 0.209425092056,
			"-0.015": 1.15008169685,
			"-0.014": 0.482077134062,
			"-0.013": 0.632755613793,
			"-0.012": 0.790902920275,
			"-0.011": 1.0963808771,
			"-0.01": 1.55185100608,
			"-0.009": 1.41641810467,
			"-0.008": 1.53320497178,
			"-0.007": 2.60004082203,
			"-0.006": 8.41071323173,
			"-0.005": 19.0064995897,
			"-0.004": 32.8136273141,
			"-0.003": 48.4134607399,
			"-0.002": 48.8885977234,
			"-0.001": 54.0756350434,
			"0.0": 42.1078005015,
			"0.001": 38.3546799498,
			"0.002": 29.3132145683,
			"0.003": 25.5396409543,
			"0.004": 17.0400011609,
			"0.005": 11.557160389,
			"0.006": 7.23496775831,
			"0.007": 6.22596666417,
			"0.008": 5.46115460457,
			"0.009": 5.99213728013,
			"0.01": 7.36759935725,
			"0.011": 7.59491818794,
			"0.012": 3.74456952991,
			"0.013": 0.00570581592145,
			"0.014": 0.0,
			"0.015": 0.0,
			"0.016": 0.0,
			"0.017": 0.0,
			"0.018": 0.0,
			"0.019": 0.0,
			"0.02": 0.0,
			"0.021": 0.0,
			"0.022": 0.0,
			"0.023": 0.0,
			"0.024": 0.0,
			"0.025": 0.0
		}
	}
}
