{
	 "smiles": "CC(Br)C(=O)C1=CC2=C(NC(=O)CC2)C=C1", 
	 "Tm": 467.15, 
	 "num_atms": 28, 
	 "gaussian": { 
		 "optdone": 1, 
		 "sigma_profile": "yes", 
		 "theory": "DFT", 
		 "functional": "B3LYP", 
		 "basiset": "6-31G**", 
		 "properties": { 
			 "R2extent": 6174.4316, 
			 "electric_dipole_moment_norm": 1.9781597256, 
			 "electric_quadrupole_moment_norm": 24.6948936898, 
			 "total_energy": -3241.15237599, 
			 "HOMO_LUMO_gap": 0.15967, 
			 "cosmo_polarized_energy": -16.49, 
			 "cosmo_cavitation_energy": 33.56, 
			 "cosmo_dispersion_energy": -24.59, 
			 "cosmo_repulsion_energy": 1.92, 
			 "cosmo_total_nonelectrostatic_energy": 10.89, 
			 "SMD_solvation_energy": 5.25 
		},
		"coords": [
			{
				"x": -0.5754121628,
				"y": 4.2546794692,
				"z": 1.4230219573,
				"element": "C" 
			},
			{
				"x": -0.1721955749,
				"y": 2.8879543901,
				"z": 0.9051865709,
				"element": "C" 
			},
			{
				"x": 1.5039372865,
				"y": 3.0454273316,
				"z": -0.1896003252,
				"element": "Br" 
			},
			{
				"x": -1.2391122241,
				"y": 2.2470331696,
				"z": 0.0037501207,
				"element": "C" 
			},
			{
				"x": -2.1202437387,
				"y": 2.9555983247,
				"z": -0.4606793717,
				"element": "O" 
			},
			{
				"x": -1.2136670293,
				"y": 0.7790539161,
				"z": -0.2420141276,
				"element": "C" 
			},
			{
				"x": -0.1934759361,
				"y": -0.0743321881,
				"z": 0.2136364635,
				"element": "C" 
			},
			{
				"x": -0.2278730713,
				"y": -1.4434940675,
				"z": -0.0263387799,
				"element": "C" 
			},
			{
				"x": -1.3267134813,
				"y": -1.9813672407,
				"z": -0.7267766036,
				"element": "C" 
			},
			{
				"x": -1.3738437706,
				"y": -3.358274172,
				"z": -0.9604227692,
				"element": "N" 
			},
			{
				"x": -0.6211045787,
				"y": -4.3204245901,
				"z": -0.3013560437,
				"element": "C" 
			},
			{
				"x": -0.7645322996,
				"y": -5.5055454013,
				"z": -0.5446814759,
				"element": "O" 
			},
			{
				"x": 0.326733202,
				"y": -3.7671974956,
				"z": 0.7512260191,
				"element": "C" 
			},
			{
				"x": 0.8831730614,
				"y": -2.3858872603,
				"z": 0.3763523173,
				"element": "C" 
			},
			{
				"x": -2.3484161195,
				"y": -1.1429006513,
				"z": -1.19683743,
				"element": "C" 
			},
			{
				"x": -2.2853791926,
				"y": 0.2214692223,
				"z": -0.959758029,
				"element": "C" 
			},
			{
				"x": -1.4531013972,
				"y": 4.1477459133,
				"z": 2.0706788914,
				"element": "H" 
			},
			{
				"x": -0.8473930789,
				"y": 4.9143906308,
				"z": 0.5984387851,
				"element": "H" 
			},
			{
				"x": 0.2348600967,
				"y": 4.7030533717,
				"z": 2.0012638938,
				"element": "H" 
			},
			{
				"x": 0.117211977,
				"y": 2.2166577897,
				"z": 1.7138744645,
				"element": "H" 
			},
			{
				"x": 0.6686096014,
				"y": 0.3308775479,
				"z": 0.7337073021,
				"element": "H" 
			},
			{
				"x": -2.0795684473,
				"y": -3.7287028278,
				"z": -1.5849371083,
				"element": "H" 
			},
			{
				"x": 1.1169063744,
				"y": -4.505070204,
				"z": 0.9026504918,
				"element": "H" 
			},
			{
				"x": -0.2421656764,
				"y": -3.7017081768,
				"z": 1.6889578066,
				"element": "H" 
			},
			{
				"x": 1.4613604052,
				"y": -1.9687871645,
				"z": 1.2065050628,
				"element": "H" 
			},
			{
				"x": 1.5826211228,
				"y": -2.4976086033,
				"z": -0.464695096,
				"element": "H" 
			},
			{
				"x": -3.1891664989,
				"y": -1.5692540066,
				"z": -1.7376434376,
				"element": "H" 
			},
			{
				"x": -3.0678488492,
				"y": 0.8843129729,
				"z": -1.3124095491,
				"element": "H" 
			}
		],
		 "valence_orbital": [ 
			{
				"type": "occ",
				"energy": -0.28244,
				"method": "rhf"
			},
			{
				"type": "occ",
				"energy": -0.26696,
				"method": "rhf"
			},
			{
				"type": "occ",
				"energy": -0.26552,
				"method": "rhf"
			},
			{
				"type": "occ",
				"energy": -0.25768,
				"method": "rhf"
			},
			{
				"type": "occ",
				"energy": -0.23351,
				"method": "rhf"
			},
			{
				"type": "unocc",
				"energy": -0.07384,
				"method": "rhf"
			},
			{
				"type": "unocc",
				"energy": -0.0226,
				"method": "rhf"
			},
			{
				"type": "unocc",
				"energy": -0.01948,
				"method": "rhf"
			},
			{
				"type": "unocc",
				"energy": 0.0125,
				"method": "rhf"
			},
			{
				"type": "unocc",
				"energy": 0.05264,
				"method": "rhf"
			}
		],
		"cosmo_sigma_profile": { 
			"-0.025": 0.0,
			"-0.024": 0.0,
			"-0.023": 0.0,
			"-0.022": 0.0,
			"-0.021": 0.0,
			"-0.02": 0.0,
			"-0.019": 0.0,
			"-0.018": 0.0,
			"-0.017": 0.0,
			"-0.016": 0.0195101502811,
			"-0.015": 0.910057597659,
			"-0.014": 1.1797469229,
			"-0.013": 1.64059744808,
			"-0.012": 1.00091485489,
			"-0.011": 0.990154550268,
			"-0.01": 1.25051980654,
			"-0.009": 2.41198001267,
			"-0.008": 4.50625444923,
			"-0.007": 7.4626060482,
			"-0.006": 13.5449197968,
			"-0.005": 20.2657775229,
			"-0.004": 22.9309957061,
			"-0.003": 20.0907721357,
			"-0.002": 20.9750255821,
			"-0.001": 17.6089741162,
			"0.0": 16.611918532,
			"0.001": 16.3501993363,
			"0.002": 15.6264332168,
			"0.003": 21.4482636432,
			"0.004": 14.4956488209,
			"0.005": 11.4425313432,
			"0.006": 5.43135578663,
			"0.007": 3.57424543298,
			"0.008": 3.03195329304,
			"0.009": 2.61602208187,
			"0.01": 3.64800675766,
			"0.011": 5.99119861384,
			"0.012": 5.69853389524,
			"0.013": 5.08405620415,
			"0.014": 1.33902881184,
			"0.015": 0.0149911627698,
			"0.016": 0.0,
			"0.017": 0.0,
			"0.018": 0.0,
			"0.019": 0.0,
			"0.02": 0.0,
			"0.021": 0.0,
			"0.022": 0.0,
			"0.023": 0.0,
			"0.024": 0.0,
			"0.025": 0.0
		}
	}
}
