{
	 "smiles": "COC1=CC=C(C=C1N)C1=CC=CC=C1", 
	 "Tm": 355.65, 
	 "num_atms": 28, 
	 "gaussian": { 
		 "optdone": 1, 
		 "sigma_profile": "yes", 
		 "theory": "DFT", 
		 "functional": "B3LYP", 
		 "basiset": "6-31G**", 
		 "properties": { 
			 "R2extent": 4501.4034, 
			 "electric_dipole_moment_norm": 1.17346802683, 
			 "electric_quadrupole_moment_norm": 10.3927249882, 
			 "total_energy": -633.189551066, 
			 "HOMO_LUMO_gap": 0.17775, 
			 "cosmo_polarized_energy": -9.79, 
			 "cosmo_cavitation_energy": 31.55, 
			 "cosmo_dispersion_energy": -22.92, 
			 "cosmo_repulsion_energy": 1.79, 
			 "cosmo_total_nonelectrostatic_energy": 10.42, 
			 "SMD_solvation_energy": 5.76 
		},
		"coords": [
			{
				"x": 3.6723861997,
				"y": 0.7420323138,
				"z": 0.5558488453,
				"element": "C" 
			},
			{
				"x": 2.851833844,
				"y": 0.3934421421,
				"z": -0.5624938681,
				"element": "O" 
			},
			{
				"x": 1.5389679247,
				"y": 0.099069284,
				"z": -0.2276620542,
				"element": "C" 
			},
			{
				"x": 1.1656894007,
				"y": -1.1752610163,
				"z": 0.1844881753,
				"element": "C" 
			},
			{
				"x": -0.1672737873,
				"y": -1.4623673739,
				"z": 0.4785073975,
				"element": "C" 
			},
			{
				"x": -1.1477686931,
				"y": -0.4637926636,
				"z": 0.3578527855,
				"element": "C" 
			},
			{
				"x": -0.7596820477,
				"y": 0.8171592868,
				"z": -0.0648777619,
				"element": "C" 
			},
			{
				"x": 0.5755822586,
				"y": 1.1199507204,
				"z": -0.3602309443,
				"element": "C" 
			},
			{
				"x": 0.9909530669,
				"y": 2.3998155894,
				"z": -0.7272127637,
				"element": "N" 
			},
			{
				"x": -2.5723080142,
				"y": -0.7567131073,
				"z": 0.6627703935,
				"element": "C" 
			},
			{
				"x": -3.6089005417,
				"y": -0.2090593377,
				"z": -0.1125085562,
				"element": "C" 
			},
			{
				"x": -4.9448068538,
				"y": -0.4848858209,
				"z": 0.17625747,
				"element": "C" 
			},
			{
				"x": -5.2759993353,
				"y": -1.318125893,
				"z": 1.2464043573,
				"element": "C" 
			},
			{
				"x": -4.2576086236,
				"y": -1.8716248326,
				"z": 2.0248508003,
				"element": "C" 
			},
			{
				"x": -2.9221833097,
				"y": -1.5929702046,
				"z": 1.7370119261,
				"element": "C" 
			},
			{
				"x": 3.2859138855,
				"y": 1.6293830901,
				"z": 1.0725629135,
				"element": "H" 
			},
			{
				"x": 3.7391030402,
				"y": -0.0862644939,
				"z": 1.2722366882,
				"element": "H" 
			},
			{
				"x": 4.6678243497,
				"y": 0.9555747994,
				"z": 0.1594496251,
				"element": "H" 
			},
			{
				"x": 1.9289001597,
				"y": -1.9455136946,
				"z": 0.2477254545,
				"element": "H" 
			},
			{
				"x": -0.4519779975,
				"y": -2.4690741389,
				"z": 0.7659442814,
				"element": "H" 
			},
			{
				"x": -1.5032241018,
				"y": 1.6069712188,
				"z": -0.133738419,
				"element": "H" 
			},
			{
				"x": 1.8627514169,
				"y": 2.3947916419,
				"z": -1.2414607762,
				"element": "H" 
			},
			{
				"x": 0.2811733555,
				"y": 2.9676380162,
				"z": -1.169133018,
				"element": "H" 
			},
			{
				"x": -3.3617700171,
				"y": 0.4173253339,
				"z": -0.9646428996,
				"element": "H" 
			},
			{
				"x": -5.7281973655,
				"y": -0.0557630793,
				"z": -0.4424661863,
				"element": "H" 
			},
			{
				"x": -6.3165170341,
				"y": -1.5341550497,
				"z": 1.471087962,
				"element": "H" 
			},
			{
				"x": -4.5032232361,
				"y": -2.5150592316,
				"z": 2.8652558638,
				"element": "H" 
			},
			{
				"x": -2.1386379438,
				"y": -2.0067234987,
				"z": 2.3648723082,
				"element": "H" 
			}
		],
		 "valence_orbital": [ 
			{
				"type": "occ",
				"energy": -0.27286,
				"method": "rhf"
			},
			{
				"type": "occ",
				"energy": -0.25781,
				"method": "rhf"
			},
			{
				"type": "occ",
				"energy": -0.24543,
				"method": "rhf"
			},
			{
				"type": "occ",
				"energy": -0.22092,
				"method": "rhf"
			},
			{
				"type": "occ",
				"energy": -0.19653,
				"method": "rhf"
			},
			{
				"type": "unocc",
				"energy": -0.01878,
				"method": "rhf"
			},
			{
				"type": "unocc",
				"energy": 0.00275,
				"method": "rhf"
			},
			{
				"type": "unocc",
				"energy": 0.01287,
				"method": "rhf"
			},
			{
				"type": "unocc",
				"energy": 0.04022,
				"method": "rhf"
			},
			{
				"type": "unocc",
				"energy": 0.08407,
				"method": "rhf"
			}
		],
		"cosmo_sigma_profile": { 
			"-0.025": 0.0,
			"-0.024": 0.0,
			"-0.023": 0.0,
			"-0.022": 0.0,
			"-0.021": 0.0,
			"-0.02": 0.0,
			"-0.019": 0.0,
			"-0.018": 0.0,
			"-0.017": 0.0,
			"-0.016": 0.0,
			"-0.015": 0.0,
			"-0.014": 0.0,
			"-0.013": 0.160888762277,
			"-0.012": 1.13457491316,
			"-0.011": 1.72100842244,
			"-0.01": 2.49343319936,
			"-0.009": 2.42343418372,
			"-0.008": 2.43515449425,
			"-0.007": 1.93481490421,
			"-0.006": 7.41213956313,
			"-0.005": 18.4413005007,
			"-0.004": 25.3218365737,
			"-0.003": 26.2284216487,
			"-0.002": 20.6492157936,
			"-0.001": 16.9092693016,
			"0.0": 13.594055441,
			"0.001": 12.4671604454,
			"0.002": 13.8338326631,
			"0.003": 15.9367900672,
			"0.004": 17.9749103387,
			"0.005": 19.4706919769,
			"0.006": 17.3084643576,
			"0.007": 3.27378668822,
			"0.008": 2.4022768901,
			"0.009": 1.36441350331,
			"0.01": 1.42743351008,
			"0.011": 1.67485365156,
			"0.012": 1.98111157915,
			"0.013": 0.418688037033,
			"0.014": 0.542678791441,
			"0.015": 0.073399621305,
			"0.016": 0.0,
			"0.017": 0.0,
			"0.018": 0.0,
			"0.019": 0.0,
			"0.02": 0.0,
			"0.021": 0.0,
			"0.022": 0.0,
			"0.023": 0.0,
			"0.024": 0.0,
			"0.025": 0.0
		}
	}
}
