{
	 "smiles": "ClC(=O)C1=CC=C(OC2=CC=CC=C2)C=C1", 
	 "Tm": 295.65, 
	 "num_atms": 25, 
	 "gaussian": { 
		 "optdone": 1, 
		 "sigma_profile": "yes", 
		 "theory": "DFT", 
		 "functional": "B3LYP", 
		 "basiset": "6-31G**", 
		 "properties": { 
			 "R2extent": 6210.5451, 
			 "electric_dipole_moment_norm": 5.64873125666, 
			 "electric_quadrupole_moment_norm": 24.0446869027, 
			 "total_energy": -1111.44936158, 
			 "HOMO_LUMO_gap": 0.17971, 
			 "cosmo_polarized_energy": -8.22, 
			 "cosmo_cavitation_energy": 32.22, 
			 "cosmo_dispersion_energy": -23.31, 
			 "cosmo_repulsion_energy": 1.81, 
			 "cosmo_total_nonelectrostatic_energy": 10.72, 
			 "SMD_solvation_energy": 6.29 
		},
		"coords": [
			{
				"x": 5.2001340434,
				"y": 1.8205678849,
				"z": 1.063462075,
				"element": "Cl" 
			},
			{
				"x": 4.3557966884,
				"y": 1.8836093836,
				"z": -0.5723835992,
				"element": "C" 
			},
			{
				"x": 4.9763574676,
				"y": 2.2772087926,
				"z": -1.5148946474,
				"element": "O" 
			},
			{
				"x": 2.9539825738,
				"y": 1.4311542923,
				"z": -0.5699921137,
				"element": "C" 
			},
			{
				"x": 2.2784808335,
				"y": 1.4691912438,
				"z": -1.8075967662,
				"element": "C" 
			},
			{
				"x": 0.9588352511,
				"y": 1.0654393759,
				"z": -1.9026611091,
				"element": "C" 
			},
			{
				"x": 0.2852981123,
				"y": 0.6132155693,
				"z": -0.7563591304,
				"element": "C" 
			},
			{
				"x": -1.0084946158,
				"y": 0.2218694035,
				"z": -0.9488058747,
				"element": "O" 
			},
			{
				"x": -1.8068678821,
				"y": -0.1255493082,
				"z": 0.1392569895,
				"element": "C" 
			},
			{
				"x": -2.0702103601,
				"y": -1.4742393257,
				"z": 0.3703167483,
				"element": "C" 
			},
			{
				"x": -2.9354586066,
				"y": -1.8287788355,
				"z": 1.4072839788,
				"element": "C" 
			},
			{
				"x": -3.5242111694,
				"y": -0.8427275939,
				"z": 2.20160528,
				"element": "C" 
			},
			{
				"x": -3.2512692799,
				"y": 0.5051831875,
				"z": 1.9555579504,
				"element": "C" 
			},
			{
				"x": -2.3914627389,
				"y": 0.8723242164,
				"z": 0.9194190236,
				"element": "C" 
			},
			{
				"x": 0.9428730426,
				"y": 0.5660876471,
				"z": 0.4798939543,
				"element": "C" 
			},
			{
				"x": 2.2694702719,
				"y": 0.9746429363,
				"z": 0.5652039978,
				"element": "C" 
			},
			{
				"x": 2.811151282,
				"y": 1.8222114882,
				"z": -2.6836456879,
				"element": "H" 
			},
			{
				"x": 0.4250045908,
				"y": 1.089191856,
				"z": -2.8464903784,
				"element": "H" 
			},
			{
				"x": -1.6063104382,
				"y": -2.2230086115,
				"z": -0.2632264094,
				"element": "H" 
			},
			{
				"x": -3.1485087649,
				"y": -2.8773857703,
				"z": 1.59214055,
				"element": "H" 
			},
			{
				"x": -4.1967166739,
				"y": -1.1227328562,
				"z": 3.0065763934,
				"element": "H" 
			},
			{
				"x": -3.7125005252,
				"y": 1.2752500386,
				"z": 2.5666725891,
				"element": "H" 
			},
			{
				"x": -2.1773229028,
				"y": 1.9145785358,
				"z": 0.7061152986,
				"element": "H" 
			},
			{
				"x": 0.4231656926,
				"y": 0.2119773872,
				"z": 1.3618032067,
				"element": "H" 
			},
			{
				"x": 2.7789841078,
				"y": 0.9368190623,
				"z": 1.5203476809,
				"element": "H" 
			}
		],
		 "valence_orbital": [ 
			{
				"type": "occ",
				"energy": -0.28636,
				"method": "rhf"
			},
			{
				"type": "occ",
				"energy": -0.27693,
				"method": "rhf"
			},
			{
				"type": "occ",
				"energy": -0.27067,
				"method": "rhf"
			},
			{
				"type": "occ",
				"energy": -0.26313,
				"method": "rhf"
			},
			{
				"type": "occ",
				"energy": -0.24706,
				"method": "rhf"
			},
			{
				"type": "unocc",
				"energy": -0.06735,
				"method": "rhf"
			},
			{
				"type": "unocc",
				"energy": -0.0282,
				"method": "rhf"
			},
			{
				"type": "unocc",
				"energy": -0.01744,
				"method": "rhf"
			},
			{
				"type": "unocc",
				"energy": -0.01609,
				"method": "rhf"
			},
			{
				"type": "unocc",
				"energy": 0.02398,
				"method": "rhf"
			}
		],
		"cosmo_sigma_profile": { 
			"-0.025": 0.0,
			"-0.024": 0.0,
			"-0.023": 0.0,
			"-0.022": 0.0,
			"-0.021": 0.0,
			"-0.02": 0.0,
			"-0.019": 0.0,
			"-0.018": 0.0,
			"-0.017": 0.0,
			"-0.016": 0.0,
			"-0.015": 0.0,
			"-0.014": 0.0,
			"-0.013": 0.0,
			"-0.012": 0.0,
			"-0.011": 0.0,
			"-0.01": 0.0,
			"-0.009": 0.0,
			"-0.008": 0.701269492373,
			"-0.007": 8.27691648402,
			"-0.006": 16.5617940572,
			"-0.005": 16.9200132067,
			"-0.004": 17.6761049759,
			"-0.003": 16.265757021,
			"-0.002": 18.4069547955,
			"-0.001": 22.2156976439,
			"0.0": 20.8047172676,
			"0.001": 26.049610458,
			"0.002": 27.6129581227,
			"0.003": 20.2457235437,
			"0.004": 17.5062866352,
			"0.005": 13.9048218739,
			"0.006": 5.29036889383,
			"0.007": 3.72132222495,
			"0.008": 4.63621109327,
			"0.009": 4.14889801271,
			"0.01": 1.10265844854,
			"0.011": 0.0,
			"0.012": 0.0,
			"0.013": 0.0,
			"0.014": 0.0,
			"0.015": 0.0,
			"0.016": 0.0,
			"0.017": 0.0,
			"0.018": 0.0,
			"0.019": 0.0,
			"0.02": 0.0,
			"0.021": 0.0,
			"0.022": 0.0,
			"0.023": 0.0,
			"0.024": 0.0,
			"0.025": 0.0
		}
	}
}
