{
	 "smiles": "COC1=CC(OC)=NC(NC(=O)NS(=O)(=O)C2=C(Cl)N=C3C=CC=CN23)=N1", 
	 "Tm": 457.15, 
	 "num_atms": 40, 
	 "gaussian": { 
		 "optdone": 1, 
		 "sigma_profile": "yes", 
		 "theory": "DFT", 
		 "functional": "B3LYP", 
		 "basiset": "6-31G**", 
		 "properties": { 
			 "R2extent": 13715.3114, 
			 "electric_dipole_moment_norm": 6.93443614218, 
			 "electric_quadrupole_moment_norm": 17.7118774826, 
			 "total_energy": -2104.26500493, 
			 "HOMO_LUMO_gap": 0.18225, 
			 "cosmo_polarized_energy": -24.99, 
			 "cosmo_cavitation_energy": 49.52, 
			 "cosmo_dispersion_energy": -34.21, 
			 "cosmo_repulsion_energy": 2.56, 
			 "cosmo_total_nonelectrostatic_energy": 17.87, 
			 "SMD_solvation_energy": 6.45 
		},
		"coords": [
			{
				"x": 3.2217649433,
				"y": 0.4571423939,
				"z": -3.3265376113,
				"element": "C" 
			},
			{
				"x": 1.9952717094,
				"y": 1.2034072737,
				"z": -3.4151853109,
				"element": "O" 
			},
			{
				"x": 1.0045972595,
				"y": 0.8511519451,
				"z": -2.5850045296,
				"element": "C" 
			},
			{
				"x": -0.1947752766,
				"y": 1.5742445765,
				"z": -2.669072722,
				"element": "C" 
			},
			{
				"x": -1.1924449208,
				"y": 1.1713892812,
				"z": -1.7813159351,
				"element": "C" 
			},
			{
				"x": -2.4100984824,
				"y": 1.7426723421,
				"z": -1.6971320943,
				"element": "O" 
			},
			{
				"x": -2.7110962718,
				"y": 2.8210354115,
				"z": -2.5771487476,
				"element": "C" 
			},
			{
				"x": -1.0279934822,
				"y": 0.161301943,
				"z": -0.9161563319,
				"element": "N" 
			},
			{
				"x": 0.1598300421,
				"y": -0.4416745977,
				"z": -0.9515157125,
				"element": "C" 
			},
			{
				"x": 0.2737700355,
				"y": -1.4797378915,
				"z": -0.0223451747,
				"element": "N" 
			},
			{
				"x": 1.3064198734,
				"y": -2.3782284152,
				"z": 0.1238218147,
				"element": "C" 
			},
			{
				"x": 2.2839461018,
				"y": -2.5152784339,
				"z": -0.5767634744,
				"element": "O" 
			},
			{
				"x": 1.1273281088,
				"y": -3.2622011639,
				"z": 1.2341593355,
				"element": "N" 
			},
			{
				"x": 0.2586291384,
				"y": -3.0418869005,
				"z": 2.6627699488,
				"element": "S" 
			},
			{
				"x": -1.0673894123,
				"y": -2.5315626383,
				"z": 2.2838902455,
				"element": "O" 
			},
			{
				"x": 0.4185719757,
				"y": -4.2921526667,
				"z": 3.3903983258,
				"element": "O" 
			},
			{
				"x": 1.0618432796,
				"y": -1.7413971265,
				"z": 3.5329815377,
				"element": "C" 
			},
			{
				"x": 2.3728569589,
				"y": -1.6713759956,
				"z": 4.0109230206,
				"element": "C" 
			},
			{
				"x": 3.5874450165,
				"y": -2.8768853081,
				"z": 3.7840642306,
				"element": "Cl" 
			},
			{
				"x": 2.6310670609,
				"y": -0.540133979,
				"z": 4.6694005364,
				"element": "N" 
			},
			{
				"x": 1.4800030157,
				"y": 0.1484418077,
				"z": 4.6416932596,
				"element": "C" 
			},
			{
				"x": 1.1863738571,
				"y": 1.4116790673,
				"z": 5.1929512025,
				"element": "C" 
			},
			{
				"x": -0.0776784977,
				"y": 1.9322448769,
				"z": 5.0448162655,
				"element": "C" 
			},
			{
				"x": -1.0707340934,
				"y": 1.1996816957,
				"z": 4.3458333146,
				"element": "C" 
			},
			{
				"x": -0.7930577213,
				"y": -0.0282500827,
				"z": 3.8083444278,
				"element": "C" 
			},
			{
				"x": 0.4738830572,
				"y": -0.5454350154,
				"z": 3.9529357361,
				"element": "N" 
			},
			{
				"x": 1.2017167615,
				"y": -0.1516368375,
				"z": -1.7319941726,
				"element": "N" 
			},
			{
				"x": 3.0436926438,
				"y": -0.6081905716,
				"z": -3.487154717,
				"element": "H" 
			},
			{
				"x": 3.6850119811,
				"y": 0.586803135,
				"z": -2.3454046075,
				"element": "H" 
			},
			{
				"x": 3.8600047725,
				"y": 0.8676949436,
				"z": -4.1093636457,
				"element": "H" 
			},
			{
				"x": -0.2983728281,
				"y": 2.3793152321,
				"z": -3.3812709754,
				"element": "H" 
			},
			{
				"x": -2.6568829134,
				"y": 2.5085408993,
				"z": -3.6264976554,
				"element": "H" 
			},
			{
				"x": -3.7327607169,
				"y": 3.1198299214,
				"z": -2.3411661869,
				"element": "H" 
			},
			{
				"x": -2.0369180282,
				"y": 3.670490351,
				"z": -2.4158286743,
				"element": "H" 
			},
			{
				"x": -0.5632859308,
				"y": -1.6248689105,
				"z": 0.5356167088,
				"element": "H" 
			},
			{
				"x": 1.9061350632,
				"y": -3.9055445334,
				"z": 1.3379891834,
				"element": "H" 
			},
			{
				"x": 1.9789850288,
				"y": 1.9291528208,
				"z": 5.7198091012,
				"element": "H" 
			},
			{
				"x": -0.3204667532,
				"y": 2.9032516142,
				"z": 5.4631140627,
				"element": "H" 
			},
			{
				"x": -2.0705560669,
				"y": 1.5996397802,
				"z": 4.2247624084,
				"element": "H" 
			},
			{
				"x": -1.5011362885,
				"y": -0.6395702443,
				"z": 3.2692836131,
				"element": "H" 
			}
		],
		 "valence_orbital": [ 
			{
				"type": "occ",
				"energy": -0.27076,
				"method": "rhf"
			},
			{
				"type": "occ",
				"energy": -0.26586,
				"method": "rhf"
			},
			{
				"type": "occ",
				"energy": -0.26194,
				"method": "rhf"
			},
			{
				"type": "occ",
				"energy": -0.24331,
				"method": "rhf"
			},
			{
				"type": "occ",
				"energy": -0.24078,
				"method": "rhf"
			},
			{
				"type": "unocc",
				"energy": -0.05853,
				"method": "rhf"
			},
			{
				"type": "unocc",
				"energy": -0.04378,
				"method": "rhf"
			},
			{
				"type": "unocc",
				"energy": -0.02611,
				"method": "rhf"
			},
			{
				"type": "unocc",
				"energy": -0.01027,
				"method": "rhf"
			},
			{
				"type": "unocc",
				"energy": 0.00876,
				"method": "rhf"
			}
		],
		"cosmo_sigma_profile": { 
			"-0.025": 0.0,
			"-0.024": 0.0,
			"-0.023": 0.0,
			"-0.022": 0.0,
			"-0.021": 0.0,
			"-0.02": 0.0,
			"-0.019": 0.0,
			"-0.018": 0.0,
			"-0.017": 0.0,
			"-0.016": 0.315695701238,
			"-0.015": 0.456030211374,
			"-0.014": 0.562466107179,
			"-0.013": 0.703084037024,
			"-0.012": 0.617243956869,
			"-0.011": 0.595545896862,
			"-0.01": 0.832511603587,
			"-0.009": 2.259618445,
			"-0.008": 10.6755239035,
			"-0.007": 16.6578072596,
			"-0.006": 25.4594944803,
			"-0.005": 26.9015636481,
			"-0.004": 34.774761749,
			"-0.003": 30.6982925668,
			"-0.002": 29.5238291059,
			"-0.001": 30.5178302026,
			"0.0": 28.6038161041,
			"0.001": 29.0467810599,
			"0.002": 21.7771443004,
			"0.003": 15.0450401154,
			"0.004": 11.9812502041,
			"0.005": 11.4962599484,
			"0.006": 8.84558586012,
			"0.007": 8.81322735068,
			"0.008": 10.3135881808,
			"0.009": 13.7879951788,
			"0.01": 7.71438614114,
			"0.011": 9.91953006696,
			"0.012": 6.24171317669,
			"0.013": 3.41973934779,
			"0.014": 2.00498171696,
			"0.015": 0.193216793887,
			"0.016": 0.0,
			"0.017": 0.0,
			"0.018": 0.0,
			"0.019": 0.0,
			"0.02": 0.0,
			"0.021": 0.0,
			"0.022": 0.0,
			"0.023": 0.0,
			"0.024": 0.0,
			"0.025": 0.0
		}
	}
}
