{
	 "smiles": "CC(C)(C)C1=CC=C2OC(=NC2=C1)C1=CC=C(S1)C1=NC2=CC(=CC=C2O1)C(C)(C)C", 
	 "Tm": 473.15, 
	 "num_atms": 57, 
	 "gaussian": { 
		 "optdone": 1, 
		 "sigma_profile": "yes", 
		 "theory": "DFT", 
		 "functional": "B3LYP", 
		 "basiset": "6-31G**", 
		 "properties": { 
			 "R2extent": 32016.6106, 
			 "electric_dipole_moment_norm": 0.517430236844, 
			 "electric_quadrupole_moment_norm": 26.2873833683, 
			 "total_energy": -1664.60371538, 
			 "HOMO_LUMO_gap": 0.12752, 
			 "cosmo_polarized_energy": -10.86, 
			 "cosmo_cavitation_energy": 60.68, 
			 "cosmo_dispersion_energy": -43.65, 
			 "cosmo_repulsion_energy": 3.15, 
			 "cosmo_total_nonelectrostatic_energy": 20.19, 
			 "SMD_solvation_energy": 6.63 
		},
		"coords": [
			{
				"x": 7.2563231654,
				"y": 0.8583015387,
				"z": -2.7243836718,
				"element": "C" 
			},
			{
				"x": 6.977506819,
				"y": -0.6582850884,
				"z": -2.8532550399,
				"element": "C" 
			},
			{
				"x": 7.5499676548,
				"y": -1.3913202458,
				"z": -1.616599327,
				"element": "C" 
			},
			{
				"x": 7.7194714547,
				"y": -1.1756948128,
				"z": -4.1005073674,
				"element": "C" 
			},
			{
				"x": 5.4547379742,
				"y": -0.894805024,
				"z": -2.9297061573,
				"element": "C" 
			},
			{
				"x": 4.848427794,
				"y": -1.5218926405,
				"z": -4.0419264118,
				"element": "C" 
			},
			{
				"x": 3.470515244,
				"y": -1.747915541,
				"z": -4.1347078114,
				"element": "C" 
			},
			{
				"x": 2.7131162014,
				"y": -1.3182221461,
				"z": -3.0610095888,
				"element": "C" 
			},
			{
				"x": 1.3550316331,
				"y": -1.4002532966,
				"z": -2.8660903134,
				"element": "O" 
			},
			{
				"x": 1.1653228007,
				"y": -0.8164598248,
				"z": -1.629980218,
				"element": "C" 
			},
			{
				"x": 2.2443648529,
				"y": -0.3858485366,
				"z": -1.0429852733,
				"element": "N" 
			},
			{
				"x": 3.267940552,
				"y": -0.691437835,
				"z": -1.935962891,
				"element": "C" 
			},
			{
				"x": 4.6440728098,
				"y": -0.4756289177,
				"z": -1.8635240691,
				"element": "C" 
			},
			{
				"x": -0.1870177866,
				"y": -0.7530146706,
				"z": -1.1397516378,
				"element": "C" 
			},
			{
				"x": -1.3381038259,
				"y": -1.2080043422,
				"z": -1.755818594,
				"element": "C" 
			},
			{
				"x": -2.4978224876,
				"y": -0.9812589027,
				"z": -0.983788639,
				"element": "C" 
			},
			{
				"x": -2.2250947432,
				"y": -0.3542744545,
				"z": 0.217358716,
				"element": "C" 
			},
			{
				"x": -0.5214772286,
				"y": -0.0337235612,
				"z": 0.4116683905,
				"element": "S" 
			},
			{
				"x": -3.1885250934,
				"y": 0.0134304751,
				"z": 1.2246215086,
				"element": "C" 
			},
			{
				"x": -4.4766357239,
				"y": -0.173891367,
				"z": 1.1928889127,
				"element": "N" 
			},
			{
				"x": -4.9299648503,
				"y": 0.3579321067,
				"z": 2.3971410388,
				"element": "C" 
			},
			{
				"x": -6.214933657,
				"y": 0.4494722326,
				"z": 2.9328445284,
				"element": "C" 
			},
			{
				"x": -6.3855895052,
				"y": 1.0452323793,
				"z": 4.1918507434,
				"element": "C" 
			},
			{
				"x": -5.2486497922,
				"y": 1.5334730924,
				"z": 4.8755316684,
				"element": "C" 
			},
			{
				"x": -3.9515854277,
				"y": 1.45206219,
				"z": 4.3568942312,
				"element": "C" 
			},
			{
				"x": -3.8334467395,
				"y": 0.8571583323,
				"z": 3.1147232325,
				"element": "C" 
			},
			{
				"x": -2.7079185061,
				"y": 0.6353997308,
				"z": 2.3585832178,
				"element": "O" 
			},
			{
				"x": -7.8052252337,
				"y": 1.1477365966,
				"z": 4.7876219108,
				"element": "C" 
			},
			{
				"x": -8.701276412,
				"y": 1.9805229031,
				"z": 3.8400470759,
				"element": "C" 
			},
			{
				"x": -8.4019559931,
				"y": -0.2716951859,
				"z": 4.9408923672,
				"element": "C" 
			},
			{
				"x": -7.8180924857,
				"y": 1.8228424735,
				"z": 6.1725039336,
				"element": "C" 
			},
			{
				"x": 6.7941167101,
				"y": 1.2829548454,
				"z": -1.8284572668,
				"element": "H" 
			},
			{
				"x": 6.866879223,
				"y": 1.4031349001,
				"z": -3.590681551,
				"element": "H" 
			},
			{
				"x": 8.3346161126,
				"y": 1.0438908918,
				"z": -2.6626209691,
				"element": "H" 
			},
			{
				"x": 7.3721182377,
				"y": -2.4696946985,
				"z": -1.6834063731,
				"element": "H" 
			},
			{
				"x": 8.6312984723,
				"y": -1.2289186724,
				"z": -1.5437441477,
				"element": "H" 
			},
			{
				"x": 7.0970814402,
				"y": -1.0359882486,
				"z": -0.6864051851,
				"element": "H" 
			},
			{
				"x": 8.7920219437,
				"y": -0.9837346627,
				"z": -3.9946724221,
				"element": "H" 
			},
			{
				"x": 7.5908740074,
				"y": -2.2548195015,
				"z": -4.2349176281,
				"element": "H" 
			},
			{
				"x": 7.3846151399,
				"y": -0.6730105131,
				"z": -5.0139055091,
				"element": "H" 
			},
			{
				"x": 5.4652013595,
				"y": -1.8489616625,
				"z": -4.8697933345,
				"element": "H" 
			},
			{
				"x": 3.0285389831,
				"y": -2.2313955748,
				"z": -4.9987818468,
				"element": "H" 
			},
			{
				"x": 5.0604240167,
				"y": 0.0100335251,
				"z": -0.9878459489,
				"element": "H" 
			},
			{
				"x": -1.3303202369,
				"y": -1.6853522773,
				"z": -2.7278430588,
				"element": "H" 
			},
			{
				"x": -3.5035370613,
				"y": -1.2574096001,
				"z": -1.2749284022,
				"element": "H" 
			},
			{
				"x": -7.0550014883,
				"y": 0.0597362336,
				"z": 2.3684716865,
				"element": "H" 
			},
			{
				"x": -5.3699742861,
				"y": 1.9949394058,
				"z": 5.8476741342,
				"element": "H" 
			},
			{
				"x": -3.0942385935,
				"y": 1.8335958551,
				"z": 4.9000157464,
				"element": "H" 
			},
			{
				"x": -9.7165034215,
				"y": 2.058113124,
				"z": 4.2453830336,
				"element": "H" 
			},
			{
				"x": -8.7736819575,
				"y": 1.5289138227,
				"z": 2.8463174843,
				"element": "H" 
			},
			{
				"x": -8.3059113112,
				"y": 2.9942643507,
				"z": 3.717616346,
				"element": "H" 
			},
			{
				"x": -8.4648643002,
				"y": -0.7931037286,
				"z": 3.9812905972,
				"element": "H" 
			},
			{
				"x": -9.4142509881,
				"y": -0.2169685896,
				"z": 5.3571123873,
				"element": "H" 
			},
			{
				"x": -7.7908066566,
				"y": -0.8829772047,
				"z": 5.613055073,
				"element": "H" 
			},
			{
				"x": -7.2252666504,
				"y": 1.2652650235,
				"z": 6.9051392821,
				"element": "H" 
			},
			{
				"x": -7.4374655106,
				"y": 2.8487507966,
				"z": 6.131234273,
				"element": "H" 
			},
			{
				"x": -8.8453466486,
				"y": 1.8688045025,
				"z": 6.5481191344,
				"element": "H" 
			}
		],
		 "valence_orbital": [ 
			{
				"type": "occ",
				"energy": -0.2673,
				"method": "rhf"
			},
			{
				"type": "occ",
				"energy": -0.23999,
				"method": "rhf"
			},
			{
				"type": "occ",
				"energy": -0.239,
				"method": "rhf"
			},
			{
				"type": "occ",
				"energy": -0.23815,
				"method": "rhf"
			},
			{
				"type": "occ",
				"energy": -0.20786,
				"method": "rhf"
			},
			{
				"type": "unocc",
				"energy": -0.08034,
				"method": "rhf"
			},
			{
				"type": "unocc",
				"energy": -0.0256,
				"method": "rhf"
			},
			{
				"type": "unocc",
				"energy": -0.00054,
				"method": "rhf"
			},
			{
				"type": "unocc",
				"energy": 0.00596,
				"method": "rhf"
			},
			{
				"type": "unocc",
				"energy": 0.01392,
				"method": "rhf"
			}
		],
		"cosmo_sigma_profile": { 
			"-0.025": 0.0,
			"-0.024": 0.0,
			"-0.023": 0.0,
			"-0.022": 0.0,
			"-0.021": 0.0,
			"-0.02": 0.0,
			"-0.019": 0.0,
			"-0.018": 0.0,
			"-0.017": 0.0,
			"-0.016": 0.0,
			"-0.015": 0.0,
			"-0.014": 0.0,
			"-0.013": 0.0,
			"-0.012": 0.0,
			"-0.011": 0.0,
			"-0.01": 0.0,
			"-0.009": 0.187047461342,
			"-0.008": 3.06682209625,
			"-0.007": 6.84918496096,
			"-0.006": 12.1439546676,
			"-0.005": 16.1403802607,
			"-0.004": 18.3918652258,
			"-0.003": 44.9883412971,
			"-0.002": 57.8091159696,
			"-0.001": 51.6212055783,
			"0.0": 60.4995169064,
			"0.001": 78.9837073672,
			"0.002": 46.6217723807,
			"0.003": 29.7763898917,
			"0.004": 24.6918974098,
			"0.005": 11.6635774769,
			"0.006": 3.35453201318,
			"0.007": 3.05780090978,
			"0.008": 2.17313192749,
			"0.009": 2.7257240909,
			"0.01": 2.07259708845,
			"0.011": 1.79192496656,
			"0.012": 1.71243112543,
			"0.013": 1.7656827401,
			"0.014": 1.06977498561,
			"0.015": 0.0,
			"0.016": 0.0,
			"0.017": 0.0,
			"0.018": 0.0,
			"0.019": 0.0,
			"0.02": 0.0,
			"0.021": 0.0,
			"0.022": 0.0,
			"0.023": 0.0,
			"0.024": 0.0,
			"0.025": 0.0
		}
	}
}
