{
	 "smiles": "CC1CCN(CC1)C1=CC=C(NC(=O)CCC(O)=O)C=C1", 
	 "Tm": 448.15, 
	 "num_atms": 43, 
	 "gaussian": { 
		 "optdone": 1, 
		 "sigma_profile": "yes", 
		 "theory": "DFT", 
		 "functional": "B3LYP", 
		 "basiset": "6-31G**", 
		 "properties": { 
			 "R2extent": 11924.0932, 
			 "electric_dipole_moment_norm": 5.93516147211, 
			 "electric_quadrupole_moment_norm": 18.9603912119, 
			 "total_energy": -958.1764803, 
			 "HOMO_LUMO_gap": 0.1836, 
			 "cosmo_polarized_energy": -17.47, 
			 "cosmo_cavitation_energy": 44.83, 
			 "cosmo_dispersion_energy": -31.77, 
			 "cosmo_repulsion_energy": 2.47, 
			 "cosmo_total_nonelectrostatic_energy": 15.54, 
			 "SMD_solvation_energy": 7.93 
		},
		"coords": [
			{
				"x": 5.8438619427,
				"y": 1.1622504646,
				"z": -2.2717327732,
				"element": "C" 
			},
			{
				"x": 5.2233937572,
				"y": -0.1415928118,
				"z": -1.7540426825,
				"element": "C" 
			},
			{
				"x": 4.3400408332,
				"y": 0.1213507772,
				"z": -0.5139256792,
				"element": "C" 
			},
			{
				"x": 3.2826708814,
				"y": -0.9650250871,
				"z": -0.2979734234,
				"element": "C" 
			},
			{
				"x": 2.3773387346,
				"y": -1.0337154799,
				"z": -1.4453852347,
				"element": "N" 
			},
			{
				"x": 2.8940070403,
				"y": -0.5977574096,
				"z": -2.741687384,
				"element": "C" 
			},
			{
				"x": 4.3981865389,
				"y": -0.8762015335,
				"z": -2.8429994489,
				"element": "C" 
			},
			{
				"x": 1.0690959084,
				"y": -1.4618218433,
				"z": -1.2975918092,
				"element": "C" 
			},
			{
				"x": 0.0910250757,
				"y": -1.212973773,
				"z": -2.2897798583,
				"element": "C" 
			},
			{
				"x": -1.2220544601,
				"y": -1.6400971413,
				"z": -2.1266630279,
				"element": "C" 
			},
			{
				"x": -1.6217031267,
				"y": -2.3393771007,
				"z": -0.982133901,
				"element": "C" 
			},
			{
				"x": -2.9658417853,
				"y": -2.7997602129,
				"z": -0.8566854674,
				"element": "N" 
			},
			{
				"x": -3.9080222914,
				"y": -2.4819221701,
				"z": 0.0926190546,
				"element": "C" 
			},
			{
				"x": -5.0262230192,
				"y": -2.9848677224,
				"z": 0.0507460788,
				"element": "O" 
			},
			{
				"x": -3.4985638424,
				"y": -1.495632169,
				"z": 1.1821652972,
				"element": "C" 
			},
			{
				"x": -4.7237790084,
				"y": -0.8726442915,
				"z": 1.8467742115,
				"element": "C" 
			},
			{
				"x": -4.413559799,
				"y": -0.2916592038,
				"z": 3.2051881065,
				"element": "C" 
			},
			{
				"x": -5.3927687333,
				"y": 0.5465667119,
				"z": 3.6253146018,
				"element": "O" 
			},
			{
				"x": -3.4371896218,
				"y": -0.5352816233,
				"z": 3.8828073106,
				"element": "O" 
			},
			{
				"x": -0.6586848206,
				"y": -2.6079993395,
				"z": -0.0031882223,
				"element": "C" 
			},
			{
				"x": 0.6538437712,
				"y": -2.171828938,
				"z": -0.1462571642,
				"element": "C" 
			},
			{
				"x": 6.5447752722,
				"y": 0.9713552276,
				"z": -3.0914098376,
				"element": "H" 
			},
			{
				"x": 5.0704698724,
				"y": 1.8446715926,
				"z": -2.6450628699,
				"element": "H" 
			},
			{
				"x": 6.3898082471,
				"y": 1.6854413468,
				"z": -1.4787768662,
				"element": "H" 
			},
			{
				"x": 6.042323419,
				"y": -0.8078527382,
				"z": -1.4528800108,
				"element": "H" 
			},
			{
				"x": 4.9600962474,
				"y": 0.2068958971,
				"z": 0.3852691483,
				"element": "H" 
			},
			{
				"x": 3.8224531465,
				"y": 1.0827649425,
				"z": -0.6280203658,
				"element": "H" 
			},
			{
				"x": 2.6977554447,
				"y": -0.7239100756,
				"z": 0.5957678191,
				"element": "H" 
			},
			{
				"x": 3.7719923385,
				"y": -1.9353331211,
				"z": -0.1057445436,
				"element": "H" 
			},
			{
				"x": 2.3782124165,
				"y": -1.1562756069,
				"z": -3.5288356264,
				"element": "H" 
			},
			{
				"x": 2.6890104839,
				"y": 0.4707593288,
				"z": -2.9253922948,
				"element": "H" 
			},
			{
				"x": 4.7459721223,
				"y": -0.5938997183,
				"z": -3.8433510723,
				"element": "H" 
			},
			{
				"x": 4.5442090802,
				"y": -1.9589456861,
				"z": -2.7557342855,
				"element": "H" 
			},
			{
				"x": 0.3457687644,
				"y": -0.6469205409,
				"z": -3.1778307464,
				"element": "H" 
			},
			{
				"x": -1.9576679713,
				"y": -1.4134893795,
				"z": -2.8938294472,
				"element": "H" 
			},
			{
				"x": -3.327837916,
				"y": -3.4231639038,
				"z": -1.5684774482,
				"element": "H" 
			},
			{
				"x": -2.9167048839,
				"y": -2.0264441512,
				"z": 1.9441244515,
				"element": "H" 
			},
			{
				"x": -2.8284637369,
				"y": -0.7322324876,
				"z": 0.7758487494,
				"element": "H" 
			},
			{
				"x": -5.4936687082,
				"y": -1.6437027765,
				"z": 1.9721241953,
				"element": "H" 
			},
			{
				"x": -5.1830540843,
				"y": -0.0989335984,
				"z": 1.2239624982,
				"element": "H" 
			},
			{
				"x": -5.1299722517,
				"y": 0.8394913527,
				"z": 4.5140681912,
				"element": "H" 
			},
			{
				"x": -0.9359058986,
				"y": -3.1837739134,
				"z": 0.8746329232,
				"element": "H" 
			},
			{
				"x": 1.3707546201,
				"y": -2.4254120939,
				"z": 0.6254788535,
				"element": "H" 
			}
		],
		 "valence_orbital": [ 
			{
				"type": "occ",
				"energy": -0.27041,
				"method": "rhf"
			},
			{
				"type": "occ",
				"energy": -0.25184,
				"method": "rhf"
			},
			{
				"type": "occ",
				"energy": -0.24873,
				"method": "rhf"
			},
			{
				"type": "occ",
				"energy": -0.24313,
				"method": "rhf"
			},
			{
				"type": "occ",
				"energy": -0.18774,
				"method": "rhf"
			},
			{
				"type": "unocc",
				"energy": -0.00414,
				"method": "rhf"
			},
			{
				"type": "unocc",
				"energy": 0.00555,
				"method": "rhf"
			},
			{
				"type": "unocc",
				"energy": 0.01727,
				"method": "rhf"
			},
			{
				"type": "unocc",
				"energy": 0.04325,
				"method": "rhf"
			},
			{
				"type": "unocc",
				"energy": 0.06626,
				"method": "rhf"
			}
		],
		"cosmo_sigma_profile": { 
			"-0.025": 0.0,
			"-0.024": 0.0,
			"-0.023": 0.0,
			"-0.022": 0.0,
			"-0.021": 0.0,
			"-0.02": 0.0,
			"-0.019": 0.00736113977958,
			"-0.018": 0.590976147699,
			"-0.017": 0.650047699271,
			"-0.016": 1.23817742484,
			"-0.015": 0.702361313585,
			"-0.014": 1.00122800287,
			"-0.013": 2.01026392236,
			"-0.012": 0.82588127364,
			"-0.011": 1.80480860721,
			"-0.01": 1.17091807029,
			"-0.009": 1.70815652395,
			"-0.008": 1.71064885511,
			"-0.007": 2.20449983732,
			"-0.006": 9.88437546732,
			"-0.005": 18.1713823195,
			"-0.004": 22.8903716625,
			"-0.003": 37.1831382689,
			"-0.002": 51.7080378893,
			"-0.001": 39.8249866478,
			"0.0": 29.7554661627,
			"0.001": 22.7846361418,
			"0.002": 16.3193103901,
			"0.003": 12.7357199771,
			"0.004": 10.8581831922,
			"0.005": 13.071336852,
			"0.006": 11.4580042097,
			"0.007": 5.13545772004,
			"0.008": 4.84830515873,
			"0.009": 4.60190411931,
			"0.01": 3.40039670088,
			"0.011": 5.02269822417,
			"0.012": 6.3374453982,
			"0.013": 4.05993224498,
			"0.014": 4.3083132162,
			"0.015": 0.41341317255,
			"0.016": 0.0,
			"0.017": 0.0,
			"0.018": 0.0,
			"0.019": 0.0,
			"0.02": 0.0,
			"0.021": 0.0,
			"0.022": 0.0,
			"0.023": 0.0,
			"0.024": 0.0,
			"0.025": 0.0
		}
	}
}
