{
	 "smiles": "COC1=C(OC)C=C(C(=C1)C(C1=CC=C(C)O1)C1=CC=C(C)O1)[N+]([O-])=O", 
	 "Tm": 371.15, 
	 "num_atms": 45, 
	 "gaussian": { 
		 "optdone": 1, 
		 "sigma_profile": "yes", 
		 "theory": "DFT", 
		 "functional": "B3LYP", 
		 "basiset": "6-31G**", 
		 "properties": { 
			 "R2extent": 10077.5982, 
			 "electric_dipole_moment_norm": 6.46864640941, 
			 "electric_quadrupole_moment_norm": 18.4710546467, 
			 "total_energy": -1241.40323867, 
			 "HOMO_LUMO_gap": 0.133, 
			 "cosmo_polarized_energy": -14.76, 
			 "cosmo_cavitation_energy": 49.79, 
			 "cosmo_dispersion_energy": -32.48, 
			 "cosmo_repulsion_energy": 2.54, 
			 "cosmo_total_nonelectrostatic_energy": 19.85, 
			 "SMD_solvation_energy": 12.86 
		},
		"coords": [
			{
				"x": 2.0851255021,
				"y": 2.7329910138,
				"z": 1.1007628105,
				"element": "C" 
			},
			{
				"x": 1.2846925508,
				"y": 2.3828685886,
				"z": 2.2258197369,
				"element": "O" 
			},
			{
				"x": 0.181533933,
				"y": 1.6209852171,
				"z": 2.0236714128,
				"element": "C" 
			},
			{
				"x": -0.6017600439,
				"y": 1.3383491016,
				"z": 3.1700819045,
				"element": "C" 
			},
			{
				"x": -0.290433115,
				"y": 1.8459428272,
				"z": 4.402533344,
				"element": "O" 
			},
			{
				"x": 0.8899379087,
				"y": 1.3207022889,
				"z": 5.0194389415,
				"element": "C" 
			},
			{
				"x": -1.7524202098,
				"y": 0.587501859,
				"z": 3.0205874136,
				"element": "C" 
			},
			{
				"x": -2.1560513584,
				"y": 0.1203882904,
				"z": 1.7604642571,
				"element": "C" 
			},
			{
				"x": -1.3832257713,
				"y": 0.3655493762,
				"z": 0.6109286806,
				"element": "C" 
			},
			{
				"x": -0.2140169559,
				"y": 1.1182890251,
				"z": 0.7837692179,
				"element": "C" 
			},
			{
				"x": -1.7171272438,
				"y": -0.1142925424,
				"z": -0.8161489244,
				"element": "C" 
			},
			{
				"x": -2.4531890458,
				"y": 0.9510818268,
				"z": -1.5761445762,
				"element": "C" 
			},
			{
				"x": -3.7346333525,
				"y": 1.0460044309,
				"z": -2.026226851,
				"element": "C" 
			},
			{
				"x": -3.8534494242,
				"y": 2.331428872,
				"z": -2.6510943999,
				"element": "C" 
			},
			{
				"x": -2.6390806925,
				"y": 2.9397908955,
				"z": -2.5364725369,
				"element": "C" 
			},
			{
				"x": -2.1031914698,
				"y": 4.2602073391,
				"z": -2.9661834598,
				"element": "C" 
			},
			{
				"x": -1.7705604016,
				"y": 2.1061709002,
				"z": -1.8771061385,
				"element": "O" 
			},
			{
				"x": -0.4987097207,
				"y": -0.6095317254,
				"z": -1.5452886349,
				"element": "C" 
			},
			{
				"x": 0.2247283412,
				"y": -0.1869417298,
				"z": -2.62106931,
				"element": "C" 
			},
			{
				"x": 1.2688667485,
				"y": -1.1532451674,
				"z": -2.8147306431,
				"element": "C" 
			},
			{
				"x": 1.1150047168,
				"y": -2.0985486154,
				"z": -1.8446707251,
				"element": "C" 
			},
			{
				"x": 1.8462370245,
				"y": -3.3471124557,
				"z": -1.4954853226,
				"element": "C" 
			},
			{
				"x": 0.0369311033,
				"y": -1.7771842838,
				"z": -1.0616845724,
				"element": "O" 
			},
			{
				"x": -3.410622218,
				"y": -0.6391667643,
				"z": 1.7463383576,
				"element": "N" 
			},
			{
				"x": -3.9905317574,
				"y": -0.8221248592,
				"z": 0.6699659985,
				"element": "O" 
			},
			{
				"x": -3.8410476194,
				"y": -1.051968997,
				"z": 2.824600779,
				"element": "O" 
			},
			{
				"x": 2.8859037819,
				"y": 3.3617900068,
				"z": 1.4912612808,
				"element": "H" 
			},
			{
				"x": 2.5172039775,
				"y": 1.8455175374,
				"z": 0.6234811999,
				"element": "H" 
			},
			{
				"x": 1.5055912045,
				"y": 3.296516436,
				"z": 0.3605332333,
				"element": "H" 
			},
			{
				"x": 0.9571294192,
				"y": 1.8008843042,
				"z": 5.9973397915,
				"element": "H" 
			},
			{
				"x": 1.7855013312,
				"y": 1.552322583,
				"z": 4.4357772368,
				"element": "H" 
			},
			{
				"x": 0.8083514895,
				"y": 0.2347925485,
				"z": 5.1547440058,
				"element": "H" 
			},
			{
				"x": -2.3590687771,
				"y": 0.369419031,
				"z": 3.88922601,
				"element": "H" 
			},
			{
				"x": 0.3904348538,
				"y": 1.3064283937,
				"z": -0.0942194014,
				"element": "H" 
			},
			{
				"x": -2.4128080718,
				"y": -0.9489012408,
				"z": -0.7331595759,
				"element": "H" 
			},
			{
				"x": -4.502116596,
				"y": 0.2956472675,
				"z": -1.9087889354,
				"element": "H" 
			},
			{
				"x": -4.7319202116,
				"y": 2.7502258637,
				"z": -3.1213781912,
				"element": "H" 
			},
			{
				"x": -2.8872973204,
				"y": 4.8304002474,
				"z": -3.4696671103,
				"element": "H" 
			},
			{
				"x": -1.2623011662,
				"y": 4.1502115764,
				"z": -3.6614213179,
				"element": "H" 
			},
			{
				"x": -1.7483437978,
				"y": 4.8487359456,
				"z": -2.1119068316,
				"element": "H" 
			},
			{
				"x": 0.0325514428,
				"y": 0.7010049048,
				"z": -3.2035331909,
				"element": "H" 
			},
			{
				"x": 2.0309511153,
				"y": -1.1461835985,
				"z": -3.5812942325,
				"element": "H" 
			},
			{
				"x": 2.6809808224,
				"y": -3.4930018416,
				"z": -2.1850311492,
				"element": "H" 
			},
			{
				"x": 1.1932449701,
				"y": -4.2254054286,
				"z": -1.5571822597,
				"element": "H" 
			},
			{
				"x": 2.2460041039,
				"y": -3.3083392487,
				"z": -0.4754373218,
				"element": "H" 
			}
		],
		 "valence_orbital": [ 
			{
				"type": "occ",
				"energy": -0.26976,
				"method": "rhf"
			},
			{
				"type": "occ",
				"energy": -0.25717,
				"method": "rhf"
			},
			{
				"type": "occ",
				"energy": -0.23479,
				"method": "rhf"
			},
			{
				"type": "occ",
				"energy": -0.21423,
				"method": "rhf"
			},
			{
				"type": "occ",
				"energy": -0.20854,
				"method": "rhf"
			},
			{
				"type": "unocc",
				"energy": -0.07554,
				"method": "rhf"
			},
			{
				"type": "unocc",
				"energy": -0.01666,
				"method": "rhf"
			},
			{
				"type": "unocc",
				"energy": 0.01041,
				"method": "rhf"
			},
			{
				"type": "unocc",
				"energy": 0.01441,
				"method": "rhf"
			},
			{
				"type": "unocc",
				"energy": 0.02531,
				"method": "rhf"
			}
		],
		"cosmo_sigma_profile": { 
			"-0.025": 0.0,
			"-0.024": 0.0,
			"-0.023": 0.0,
			"-0.022": 0.0,
			"-0.021": 0.0,
			"-0.02": 0.0,
			"-0.019": 0.0,
			"-0.018": 0.0,
			"-0.017": 0.0,
			"-0.016": 0.0,
			"-0.015": 0.0,
			"-0.014": 0.0,
			"-0.013": 0.0,
			"-0.012": 0.0,
			"-0.011": 0.0,
			"-0.01": 0.0,
			"-0.009": 0.0,
			"-0.008": 0.0229452159614,
			"-0.007": 3.83391121161,
			"-0.006": 18.2485948878,
			"-0.005": 32.3328752477,
			"-0.004": 40.8670705078,
			"-0.003": 37.1770552076,
			"-0.002": 36.2820727329,
			"-0.001": 36.5840454734,
			"0.0": 31.6178192515,
			"0.001": 28.6355146261,
			"0.002": 22.4755710717,
			"0.003": 21.5850432218,
			"0.004": 19.2397358042,
			"0.005": 20.1045755581,
			"0.006": 15.1386873884,
			"0.007": 7.61735141452,
			"0.008": 10.0267887218,
			"0.009": 6.45976573192,
			"0.01": 5.5998154889,
			"0.011": 2.53166528884,
			"0.012": 0.158322313676,
			"0.013": 0.0,
			"0.014": 0.0,
			"0.015": 0.0,
			"0.016": 0.0,
			"0.017": 0.0,
			"0.018": 0.0,
			"0.019": 0.0,
			"0.02": 0.0,
			"0.021": 0.0,
			"0.022": 0.0,
			"0.023": 0.0,
			"0.024": 0.0,
			"0.025": 0.0
		}
	}
}
