{
	 "smiles": "CCOC(=O)C1=NN2C=NC(Cl)=CC2=N1", 
	 "Tm": 468.15, 
	 "num_atms": 22, 
	 "gaussian": { 
		 "optdone": 1, 
		 "sigma_profile": "yes", 
		 "theory": "DFT", 
		 "functional": "B3LYP", 
		 "basiset": "6-31G**", 
		 "properties": { 
			 "R2extent": 6779.2972, 
			 "electric_dipole_moment_norm": 1.4767695758, 
			 "electric_quadrupole_moment_norm": 6.22952741305, 
			 "total_energy": -1138.69939065, 
			 "HOMO_LUMO_gap": 0.18015, 
			 "cosmo_polarized_energy": -14.58, 
			 "cosmo_cavitation_energy": 29.91, 
			 "cosmo_dispersion_energy": -22.29, 
			 "cosmo_repulsion_energy": 1.75, 
			 "cosmo_total_nonelectrostatic_energy": 9.38, 
			 "SMD_solvation_energy": 2.41 
		},
		"coords": [
			{
				"x": -0.6020048442,
				"y": -3.1786879919,
				"z": 2.6108832933,
				"element": "C" 
			},
			{
				"x": -1.3314486089,
				"y": -2.5449635979,
				"z": 1.4361765553,
				"element": "C" 
			},
			{
				"x": -0.4017830727,
				"y": -1.9082915096,
				"z": 0.5232600664,
				"element": "O" 
			},
			{
				"x": -0.0472623679,
				"y": -0.6501720695,
				"z": 0.8208395846,
				"element": "C" 
			},
			{
				"x": -0.4387464117,
				"y": -0.010548654,
				"z": 1.7724260373,
				"element": "O" 
			},
			{
				"x": 0.9131209188,
				"y": -0.1086819344,
				"z": -0.1935466183,
				"element": "C" 
			},
			{
				"x": 1.3677082118,
				"y": 1.1415595144,
				"z": -0.0571915767,
				"element": "N" 
			},
			{
				"x": 2.1799486755,
				"y": 1.2480738798,
				"z": -1.1328969973,
				"element": "N" 
			},
			{
				"x": 2.9228764301,
				"y": 2.3268967893,
				"z": -1.5101569408,
				"element": "C" 
			},
			{
				"x": 3.668871726,
				"y": 2.2949244455,
				"z": -2.5772006055,
				"element": "N" 
			},
			{
				"x": 3.6918141726,
				"y": 1.1551087277,
				"z": -3.3131108445,
				"element": "C" 
			},
			{
				"x": 4.7168970293,
				"y": 1.1967833911,
				"z": -4.7266135363,
				"element": "Cl" 
			},
			{
				"x": 2.982286954,
				"y": 0.0129875101,
				"z": -3.0220007379,
				"element": "C" 
			},
			{
				"x": 2.175948748,
				"y": 0.0559900731,
				"z": -1.8633154649,
				"element": "C" 
			},
			{
				"x": 1.3687884814,
				"y": -0.8112527617,
				"z": -1.2656780202,
				"element": "N" 
			},
			{
				"x": 0.1542801796,
				"y": -3.8878673433,
				"z": 2.262587294,
				"element": "H" 
			},
			{
				"x": -0.1176050465,
				"y": -2.4136244006,
				"z": 3.2224831166,
				"element": "H" 
			},
			{
				"x": -1.3168969488,
				"y": -3.7186827415,
				"z": 3.240499834,
				"element": "H" 
			},
			{
				"x": -2.0570051486,
				"y": -1.8014200252,
				"z": 1.7744468665,
				"element": "H" 
			},
			{
				"x": -1.835009823,
				"y": -3.2950521351,
				"z": 0.8227217489,
				"element": "H" 
			},
			{
				"x": 2.861656015,
				"y": 3.2080995657,
				"z": -0.8801284663,
				"element": "H" 
			},
			{
				"x": 3.0246647304,
				"y": -0.8789787321,
				"z": -3.6323845883,
				"element": "H" 
			}
		],
		 "valence_orbital": [ 
			{
				"type": "occ",
				"energy": -0.30838,
				"method": "rhf"
			},
			{
				"type": "occ",
				"energy": -0.30675,
				"method": "rhf"
			},
			{
				"type": "occ",
				"energy": -0.30487,
				"method": "rhf"
			},
			{
				"type": "occ",
				"energy": -0.28327,
				"method": "rhf"
			},
			{
				"type": "occ",
				"energy": -0.26333,
				"method": "rhf"
			},
			{
				"type": "unocc",
				"energy": -0.08318,
				"method": "rhf"
			},
			{
				"type": "unocc",
				"energy": -0.05648,
				"method": "rhf"
			},
			{
				"type": "unocc",
				"energy": -0.02115,
				"method": "rhf"
			},
			{
				"type": "unocc",
				"energy": 0.01424,
				"method": "rhf"
			},
			{
				"type": "unocc",
				"energy": 0.08709,
				"method": "rhf"
			}
		],
		"cosmo_sigma_profile": { 
			"-0.025": 0.0,
			"-0.024": 0.0,
			"-0.023": 0.0,
			"-0.022": 0.0,
			"-0.021": 0.0,
			"-0.02": 0.0,
			"-0.019": 0.0,
			"-0.018": 0.0,
			"-0.017": 0.0,
			"-0.016": 0.0,
			"-0.015": 0.0,
			"-0.014": 0.0,
			"-0.013": 4.84155496936e-05,
			"-0.012": 1.5322130598,
			"-0.011": 2.47018002653,
			"-0.01": 3.25867657338,
			"-0.009": 3.43479379397,
			"-0.008": 4.49000762268,
			"-0.007": 6.98036064843,
			"-0.006": 10.4179827018,
			"-0.005": 15.3216011377,
			"-0.004": 22.5777734269,
			"-0.003": 21.8631378731,
			"-0.002": 23.5053395879,
			"-0.001": 18.0737633213,
			"0.0": 16.7013324956,
			"0.001": 10.5044078127,
			"0.002": 10.9176927753,
			"0.003": 14.3685265376,
			"0.004": 8.16292060133,
			"0.005": 6.36017268849,
			"0.006": 4.6345097095,
			"0.007": 4.43339215199,
			"0.008": 4.80202423928,
			"0.009": 5.3400612001,
			"0.01": 5.13670280736,
			"0.011": 7.61000584,
			"0.012": 4.73321019862,
			"0.013": 3.23345100275,
			"0.014": 1.52219935987,
			"0.015": 0.740846087161,
			"0.016": 0.0345819972758,
			"0.017": 0.0,
			"0.018": 0.0,
			"0.019": 0.0,
			"0.02": 0.0,
			"0.021": 0.0,
			"0.022": 0.0,
			"0.023": 0.0,
			"0.024": 0.0,
			"0.025": 0.0
		}
	}
}
