{
	 "smiles": "CCCCCCCC(=O)OC(=O)CCCCCCC", 
	 "Tm": 272.15, 
	 "num_atms": 49, 
	 "gaussian": { 
		 "optdone": 1, 
		 "sigma_profile": "yes", 
		 "theory": "DFT", 
		 "functional": "B3LYP", 
		 "basiset": "6-31G**", 
		 "properties": { 
			 "R2extent": 6724.2043, 
			 "electric_dipole_moment_norm": 3.74648550111, 
			 "electric_quadrupole_moment_norm": 11.9401963397, 
			 "total_energy": -853.509644398, 
			 "HOMO_LUMO_gap": 0.24225, 
			 "cosmo_polarized_energy": -10.31, 
			 "cosmo_cavitation_energy": 49.26, 
			 "cosmo_dispersion_energy": -30.04, 
			 "cosmo_repulsion_energy": 2.38, 
			 "cosmo_total_nonelectrostatic_energy": 21.61, 
			 "SMD_solvation_energy": 7.93 
		},
		"coords": [
			{
				"x": 0.5170272733,
				"y": -4.1149972765,
				"z": 0.6121013072,
				"element": "C" 
			},
			{
				"x": 0.2170543989,
				"y": -2.6128949781,
				"z": 0.683221867,
				"element": "C" 
			},
			{
				"x": 0.9804663783,
				"y": -1.7582768249,
				"z": -0.3428339566,
				"element": "C" 
			},
			{
				"x": 0.6164919426,
				"y": -2.0518918395,
				"z": -1.8060012781,
				"element": "C" 
			},
			{
				"x": 1.3629079739,
				"y": -1.1754900675,
				"z": -2.8293243184,
				"element": "C" 
			},
			{
				"x": 1.0059621006,
				"y": 0.3225086278,
				"z": -2.8613379177,
				"element": "C" 
			},
			{
				"x": -0.3627706608,
				"y": 0.663671587,
				"z": -3.4959685922,
				"element": "C" 
			},
			{
				"x": -1.5705857423,
				"y": 0.358816991,
				"z": -2.6419886022,
				"element": "C" 
			},
			{
				"x": -2.4474405287,
				"y": -0.4259291127,
				"z": -2.8814883554,
				"element": "O" 
			},
			{
				"x": -1.5977503091,
				"y": 1.2033938238,
				"z": -1.5298338797,
				"element": "O" 
			},
			{
				"x": -2.3337402992,
				"y": 0.8598194751,
				"z": -0.3930439977,
				"element": "C" 
			},
			{
				"x": -2.4116206132,
				"y": -0.2689381566,
				"z": 0.0100038806,
				"element": "O" 
			},
			{
				"x": -2.976220495,
				"y": 2.0808558548,
				"z": 0.2231167085,
				"element": "C" 
			},
			{
				"x": -2.051158463,
				"y": 3.2867109945,
				"z": 0.496315342,
				"element": "C" 
			},
			{
				"x": -1.1335862558,
				"y": 3.1451385613,
				"z": 1.7223297196,
				"element": "C" 
			},
			{
				"x": -0.02875088,
				"y": 2.0852858822,
				"z": 1.5972303201,
				"element": "C" 
			},
			{
				"x": 0.9754494221,
				"y": 2.0873419233,
				"z": 2.7641377735,
				"element": "C" 
			},
			{
				"x": 0.3979155469,
				"y": 1.7310387612,
				"z": 4.1457561347,
				"element": "C" 
			},
			{
				"x": -0.1779587779,
				"y": 0.3132658541,
				"z": 4.242828216,
				"element": "C" 
			},
			{
				"x": 1.5897246427,
				"y": -4.3122060402,
				"z": 0.7288724272,
				"element": "H" 
			},
			{
				"x": 0.2023724241,
				"y": -4.5516456482,
				"z": -0.3413421293,
				"element": "H" 
			},
			{
				"x": -0.0073208891,
				"y": -4.6572783008,
				"z": 1.4060511478,
				"element": "H" 
			},
			{
				"x": -0.8581306448,
				"y": -2.4394235409,
				"z": 0.555351247,
				"element": "H" 
			},
			{
				"x": 0.4652169807,
				"y": -2.2502126987,
				"z": 1.6894786468,
				"element": "H" 
			},
			{
				"x": 0.7820308836,
				"y": -0.7021205195,
				"z": -0.1209444346,
				"element": "H" 
			},
			{
				"x": 2.0631380701,
				"y": -1.9009816458,
				"z": -0.2062570411,
				"element": "H" 
			},
			{
				"x": 0.8537515258,
				"y": -3.0983776043,
				"z": -2.0332235119,
				"element": "H" 
			},
			{
				"x": -0.467948179,
				"y": -1.9584530847,
				"z": -1.9372492263,
				"element": "H" 
			},
			{
				"x": 1.206990934,
				"y": -1.5869200391,
				"z": -3.8358342029,
				"element": "H" 
			},
			{
				"x": 2.4410743249,
				"y": -1.2597857734,
				"z": -2.6357765662,
				"element": "H" 
			},
			{
				"x": 1.7659502969,
				"y": 0.8418558533,
				"z": -3.4567438853,
				"element": "H" 
			},
			{
				"x": 1.0576904016,
				"y": 0.7600361096,
				"z": -1.8582667607,
				"element": "H" 
			},
			{
				"x": -0.4957413865,
				"y": 0.1275349815,
				"z": -4.4394781563,
				"element": "H" 
			},
			{
				"x": -0.3906148756,
				"y": 1.739061812,
				"z": -3.7092313268,
				"element": "H" 
			},
			{
				"x": -3.4742965437,
				"y": 1.7511087988,
				"z": 1.1391228148,
				"element": "H" 
			},
			{
				"x": -3.7568279808,
				"y": 2.3907039953,
				"z": -0.484628838,
				"element": "H" 
			},
			{
				"x": -1.4563844195,
				"y": 3.4940352984,
				"z": -0.4004637189,
				"element": "H" 
			},
			{
				"x": -2.6968323022,
				"y": 4.1596770573,
				"z": 0.6470524166,
				"element": "H" 
			},
			{
				"x": -1.7542129074,
				"y": 2.9376300182,
				"z": 2.6041420472,
				"element": "H" 
			},
			{
				"x": -0.6640336403,
				"y": 4.1210768089,
				"z": 1.907653003,
				"element": "H" 
			},
			{
				"x": -0.472880788,
				"y": 1.0877722982,
				"z": 1.5027190879,
				"element": "H" 
			},
			{
				"x": 0.5237577386,
				"y": 2.2617873344,
				"z": 0.6641903357,
				"element": "H" 
			},
			{
				"x": 1.4466965862,
				"y": 3.0783551707,
				"z": 2.822145504,
				"element": "H" 
			},
			{
				"x": 1.7827267818,
				"y": 1.3802353793,
				"z": 2.5298482903,
				"element": "H" 
			},
			{
				"x": 1.1972831441,
				"y": 1.8434385372,
				"z": 4.8893532802,
				"element": "H" 
			},
			{
				"x": -0.3731368762,
				"y": 2.4596604912,
				"z": 4.4277952652,
				"element": "H" 
			},
			{
				"x": 0.5753282608,
				"y": -0.437221663,
				"z": 3.9754446634,
				"element": "H" 
			},
			{
				"x": -1.034462001,
				"y": 0.1693580789,
				"z": 3.5761208162,
				"element": "H" 
			},
			{
				"x": -0.5160015734,
				"y": 0.0947684553,
				"z": 5.2611784338,
				"element": "H" 
			}
		],
		 "valence_orbital": [ 
			{
				"type": "occ",
				"energy": -0.30753,
				"method": "rhf"
			},
			{
				"type": "occ",
				"energy": -0.30632,
				"method": "rhf"
			},
			{
				"type": "occ",
				"energy": -0.29888,
				"method": "rhf"
			},
			{
				"type": "occ",
				"energy": -0.28883,
				"method": "rhf"
			},
			{
				"type": "occ",
				"energy": -0.27005,
				"method": "rhf"
			},
			{
				"type": "unocc",
				"energy": -0.0278,
				"method": "rhf"
			},
			{
				"type": "unocc",
				"energy": 0.00954,
				"method": "rhf"
			},
			{
				"type": "unocc",
				"energy": 0.06281,
				"method": "rhf"
			},
			{
				"type": "unocc",
				"energy": 0.08471,
				"method": "rhf"
			},
			{
				"type": "unocc",
				"energy": 0.09151,
				"method": "rhf"
			}
		],
		"cosmo_sigma_profile": { 
			"-0.025": 0.0,
			"-0.024": 0.0,
			"-0.023": 0.0,
			"-0.022": 0.0,
			"-0.021": 0.0,
			"-0.02": 0.0,
			"-0.019": 0.0,
			"-0.018": 0.0,
			"-0.017": 0.0,
			"-0.016": 0.0,
			"-0.015": 0.0,
			"-0.014": 0.0,
			"-0.013": 0.0,
			"-0.012": 0.0,
			"-0.011": 0.0,
			"-0.01": 0.0,
			"-0.009": 0.0,
			"-0.008": 0.190162236977,
			"-0.007": 2.87231703164,
			"-0.006": 5.76022772109,
			"-0.005": 8.53262189186,
			"-0.004": 14.5030052866,
			"-0.003": 26.8312041665,
			"-0.002": 58.2224905783,
			"-0.001": 66.0140894207,
			"0.0": 71.1365909737,
			"0.001": 56.4797075219,
			"0.002": 24.0527559132,
			"0.003": 7.53661614467,
			"0.004": 5.84570502008,
			"0.005": 3.86292969566,
			"0.006": 3.47775605612,
			"0.007": 3.44561482192,
			"0.008": 3.55689776166,
			"0.009": 3.43562296251,
			"0.01": 6.38478668148,
			"0.011": 6.52062796641,
			"0.012": 1.072936345,
			"0.013": 0.0,
			"0.014": 0.0,
			"0.015": 0.0,
			"0.016": 0.0,
			"0.017": 0.0,
			"0.018": 0.0,
			"0.019": 0.0,
			"0.02": 0.0,
			"0.021": 0.0,
			"0.022": 0.0,
			"0.023": 0.0,
			"0.024": 0.0,
			"0.025": 0.0
		}
	}
}
