{
	 "smiles": "NC1=CC=C(C=CC2=CC=CC(N)=C2)C=C1", 
	 "Tm": 382.15, 
	 "num_atms": 30, 
	 "gaussian": { 
		 "optdone": 1, 
		 "sigma_profile": "yes", 
		 "theory": "DFT", 
		 "functional": "B3LYP", 
		 "basiset": "6-31G**", 
		 "properties": { 
			 "R2extent": 4591.1815, 
			 "electric_dipole_moment_norm": 3.66134567338, 
			 "electric_quadrupole_moment_norm": 16.4345321747, 
			 "total_energy": -651.424277102, 
			 "HOMO_LUMO_gap": 0.15341, 
			 "cosmo_polarized_energy": -14.95, 
			 "cosmo_cavitation_energy": 33.71, 
			 "cosmo_dispersion_energy": -23.94, 
			 "cosmo_repulsion_energy": 1.88, 
			 "cosmo_total_nonelectrostatic_energy": 11.64, 
			 "SMD_solvation_energy": 5.39 
		},
		"coords": [
			{
				"x": -1.852332444,
				"y": 1.4068867811,
				"z": -4.3628699654,
				"element": "N" 
			},
			{
				"x": -1.2991371246,
				"y": 0.5839640602,
				"z": -3.38210376,
				"element": "C" 
			},
			{
				"x": -0.6846924826,
				"y": 1.1336597911,
				"z": -2.2413938799,
				"element": "C" 
			},
			{
				"x": -0.0858535419,
				"y": 0.3179385949,
				"z": -1.2902171,
				"element": "C" 
			},
			{
				"x": -0.0718829532,
				"y": -1.0838593113,
				"z": -1.4253321217,
				"element": "C" 
			},
			{
				"x": 0.5939599347,
				"y": -1.9938329546,
				"z": -0.4800488586,
				"element": "C" 
			},
			{
				"x": 0.8371955742,
				"y": -1.8934587179,
				"z": 0.8450110051,
				"element": "C" 
			},
			{
				"x": 0.3924993721,
				"y": -0.9020784291,
				"z": 1.8437395857,
				"element": "C" 
			},
			{
				"x": 1.238876742,
				"y": -0.6063657812,
				"z": 2.9282412641,
				"element": "C" 
			},
			{
				"x": 0.8304303691,
				"y": 0.2960425757,
				"z": 3.9086981907,
				"element": "C" 
			},
			{
				"x": -0.4210956329,
				"y": 0.9034887388,
				"z": 3.8440549621,
				"element": "C" 
			},
			{
				"x": -1.2928296743,
				"y": 0.6024198935,
				"z": 2.7823807989,
				"element": "C" 
			},
			{
				"x": -2.5827696888,
				"y": 1.1429404125,
				"z": 2.745715435,
				"element": "N" 
			},
			{
				"x": -0.8742692096,
				"y": -0.3004347669,
				"z": 1.7947291051,
				"element": "C" 
			},
			{
				"x": -0.6648013997,
				"y": -1.6177398635,
				"z": -2.5845735759,
				"element": "C" 
			},
			{
				"x": -1.2758652778,
				"y": -0.8121248838,
				"z": -3.5383993359,
				"element": "C" 
			},
			{
				"x": -2.1366107656,
				"y": 2.3245615108,
				"z": -4.0496956064,
				"element": "H" 
			},
			{
				"x": -2.5496457882,
				"y": 0.9722595946,
				"z": -4.9510791821,
				"element": "H" 
			},
			{
				"x": -0.6644502039,
				"y": 2.2138848095,
				"z": -2.1150623365,
				"element": "H" 
			},
			{
				"x": 0.3910523455,
				"y": 0.7744444511,
				"z": -0.4300409189,
				"element": "H" 
			},
			{
				"x": 0.9759497704,
				"y": -2.8993001327,
				"z": -0.9525408182,
				"element": "H" 
			},
			{
				"x": 1.456746848,
				"y": -2.6841265793,
				"z": 1.2676239649,
				"element": "H" 
			},
			{
				"x": 2.2153996791,
				"y": -1.0779116763,
				"z": 2.9905605106,
				"element": "H" 
			},
			{
				"x": 1.4934379782,
				"y": 0.5295078222,
				"z": 4.7375044316,
				"element": "H" 
			},
			{
				"x": -0.7358836814,
				"y": 1.598045674,
				"z": 4.6191786579,
				"element": "H" 
			},
			{
				"x": -2.9994537081,
				"y": 1.1817583874,
				"z": 1.8254385418,
				"element": "H" 
			},
			{
				"x": -2.6916965072,
				"y": 2.0167877309,
				"z": 3.2420668475,
				"element": "H" 
			},
			{
				"x": -1.5512653976,
				"y": -0.5500955676,
				"z": 0.9834826542,
				"element": "H" 
			},
			{
				"x": -0.6526736071,
				"y": -2.6946698812,
				"z": -2.735182826,
				"element": "H" 
			},
			{
				"x": -1.7281395248,
				"y": -1.261292283,
				"z": -4.4194856698,
				"element": "H" 
			}
		],
		 "valence_orbital": [ 
			{
				"type": "occ",
				"energy": -0.26807,
				"method": "rhf"
			},
			{
				"type": "occ",
				"energy": -0.2452,
				"method": "rhf"
			},
			{
				"type": "occ",
				"energy": -0.22883,
				"method": "rhf"
			},
			{
				"type": "occ",
				"energy": -0.19656,
				"method": "rhf"
			},
			{
				"type": "occ",
				"energy": -0.18287,
				"method": "rhf"
			},
			{
				"type": "unocc",
				"energy": -0.02946,
				"method": "rhf"
			},
			{
				"type": "unocc",
				"energy": 0.00425,
				"method": "rhf"
			},
			{
				"type": "unocc",
				"energy": 0.02242,
				"method": "rhf"
			},
			{
				"type": "unocc",
				"energy": 0.02882,
				"method": "rhf"
			},
			{
				"type": "unocc",
				"energy": 0.07352,
				"method": "rhf"
			}
		],
		"cosmo_sigma_profile": { 
			"-0.025": 0.0,
			"-0.024": 0.0,
			"-0.023": 0.0,
			"-0.022": 0.0,
			"-0.021": 0.0,
			"-0.02": 0.0,
			"-0.019": 0.0,
			"-0.018": 0.0,
			"-0.017": 0.0,
			"-0.016": 0.0,
			"-0.015": 0.0,
			"-0.014": 0.0,
			"-0.013": 0.440595940372,
			"-0.012": 4.41897382503,
			"-0.011": 5.13132365266,
			"-0.01": 5.15988790143,
			"-0.009": 6.75764953397,
			"-0.008": 6.45308030662,
			"-0.007": 5.15356582958,
			"-0.006": 7.36528425417,
			"-0.005": 14.5660684988,
			"-0.004": 20.008598463,
			"-0.003": 20.8057540714,
			"-0.002": 15.3618305573,
			"-0.001": 13.0106528909,
			"0.0": 14.28095767,
			"0.001": 12.4611904282,
			"0.002": 15.0048432481,
			"0.003": 14.8021776588,
			"0.004": 18.6794632083,
			"0.005": 21.2496425063,
			"0.006": 22.6617120707,
			"0.007": 12.4078025836,
			"0.008": 2.06695780947,
			"0.009": 1.82872876067,
			"0.01": 1.44132429086,
			"0.011": 1.55784029928,
			"0.012": 1.49573663751,
			"0.013": 1.20296942296,
			"0.014": 1.07011407003,
			"0.015": 0.592936938233,
			"0.016": 0.0111035096068,
			"0.017": 0.0,
			"0.018": 0.0,
			"0.019": 0.0,
			"0.02": 0.0,
			"0.021": 0.0,
			"0.022": 0.0,
			"0.023": 0.0,
			"0.024": 0.0,
			"0.025": 0.0
		}
	}
}
