{
	 "smiles": "OC(=O)C1(O)CC1", 
	 "Tm": 382.15, 
	 "num_atms": 13, 
	 "gaussian": { 
		 "optdone": 1, 
		 "sigma_profile": "yes", 
		 "theory": "DFT", 
		 "functional": "B3LYP", 
		 "basiset": "6-31G**", 
		 "properties": { 
			 "R2extent": 749.5943, 
			 "electric_dipole_moment_norm": 5.00335053539, 
			 "electric_quadrupole_moment_norm": 2.58362987868, 
			 "total_energy": -381.680988644, 
			 "HOMO_LUMO_gap": 0.28038, 
			 "cosmo_polarized_energy": -13.93, 
			 "cosmo_cavitation_energy": 16.83, 
			 "cosmo_dispersion_energy": -12.62, 
			 "cosmo_repulsion_energy": 1.07, 
			 "cosmo_total_nonelectrostatic_energy": 5.29, 
			 "SMD_solvation_energy": 4.17 
		},
		"coords": [
			{
				"x": -0.8125590365,
				"y": -1.3372848811,
				"z": 0.4552008668,
				"element": "O" 
			},
			{
				"x": -0.2161506269,
				"y": -0.2848695349,
				"z": -0.1341661921,
				"element": "C" 
			},
			{
				"x": -0.3586230421,
				"y": -0.0308044856,
				"z": -1.3077966675,
				"element": "O" 
			},
			{
				"x": 0.6410744399,
				"y": 0.5492333079,
				"z": 0.7832397363,
				"element": "C" 
			},
			{
				"x": 0.6229002971,
				"y": 0.021001577,
				"z": 2.0912009622,
				"element": "O" 
			},
			{
				"x": 0.6861821761,
				"y": 2.0350532507,
				"z": 0.5204316593,
				"element": "C" 
			},
			{
				"x": 1.8807714255,
				"y": 1.1723370633,
				"z": 0.1885848426,
				"element": "C" 
			},
			{
				"x": -0.5544095633,
				"y": -1.3409678349,
				"z": 1.3939942506,
				"element": "H" 
			},
			{
				"x": 1.1721167774,
				"y": 0.5550396767,
				"z": 2.6766331882,
				"element": "H" 
			},
			{
				"x": 0.0794033455,
				"y": 2.4080168452,
				"z": -0.2977948123,
				"element": "H" 
			},
			{
				"x": 0.750483865,
				"y": 2.6861934097,
				"z": 1.3883102923,
				"element": "H" 
			},
			{
				"x": 2.0856799377,
				"y": 0.9590917917,
				"z": -0.8551180297,
				"element": "H" 
			},
			{
				"x": 2.7545300047,
				"y": 1.2389598142,
				"z": 0.8315799031,
				"element": "H" 
			}
		],
		 "valence_orbital": [ 
			{
				"type": "occ",
				"energy": -0.37634,
				"method": "rhf"
			},
			{
				"type": "occ",
				"energy": -0.32371,
				"method": "rhf"
			},
			{
				"type": "occ",
				"energy": -0.31055,
				"method": "rhf"
			},
			{
				"type": "occ",
				"energy": -0.26936,
				"method": "rhf"
			},
			{
				"type": "occ",
				"energy": -0.26918,
				"method": "rhf"
			},
			{
				"type": "unocc",
				"energy": 0.0112,
				"method": "rhf"
			},
			{
				"type": "unocc",
				"energy": 0.0457,
				"method": "rhf"
			},
			{
				"type": "unocc",
				"energy": 0.08148,
				"method": "rhf"
			},
			{
				"type": "unocc",
				"energy": 0.12614,
				"method": "rhf"
			},
			{
				"type": "unocc",
				"energy": 0.1292,
				"method": "rhf"
			}
		],
		"cosmo_sigma_profile": { 
			"-0.025": 0.0,
			"-0.024": 0.0,
			"-0.023": 0.0,
			"-0.022": 0.0,
			"-0.021": 0.0,
			"-0.02": 0.0,
			"-0.019": 0.0294108627717,
			"-0.018": 0.742634373707,
			"-0.017": 0.934023868579,
			"-0.016": 1.33443029453,
			"-0.015": 1.32401534876,
			"-0.014": 1.2459120568,
			"-0.013": 1.34177240413,
			"-0.012": 1.34353823339,
			"-0.011": 1.56698779004,
			"-0.01": 2.25715307904,
			"-0.009": 2.30117781237,
			"-0.008": 2.18375865648,
			"-0.007": 2.55565583708,
			"-0.006": 5.02021093711,
			"-0.005": 6.49572314504,
			"-0.004": 7.58191743962,
			"-0.003": 8.35189821346,
			"-0.002": 10.0743210233,
			"-0.001": 9.58324725232,
			"0.0": 8.66487388775,
			"0.001": 6.60083146091,
			"0.002": 6.46598577686,
			"0.003": 6.20134474519,
			"0.004": 4.24183794675,
			"0.005": 4.71356045797,
			"0.006": 2.74903248044,
			"0.007": 3.4796408987,
			"0.008": 3.60627155039,
			"0.009": 3.54804686341,
			"0.01": 4.76688923711,
			"0.011": 3.60801544202,
			"0.012": 5.36657070385,
			"0.013": 2.15595497899,
			"0.014": 0.201514185157,
			"0.015": 0.0,
			"0.016": 0.0,
			"0.017": 0.0,
			"0.018": 0.0,
			"0.019": 0.0,
			"0.02": 0.0,
			"0.021": 0.0,
			"0.022": 0.0,
			"0.023": 0.0,
			"0.024": 0.0,
			"0.025": 0.0
		}
	}
}
