{
	 "smiles": "CCCCCCCCCCCCCCCCCCCC", 
	 "Tm": 309.65, 
	 "num_atms": 62, 
	 "gaussian": { 
		 "optdone": 1, 
		 "sigma_profile": "yes", 
		 "theory": "DFT", 
		 "functional": "B3LYP", 
		 "basiset": "6-31G**", 
		 "properties": { 
			 "R2extent": 10134.6962, 
			 "electric_dipole_moment_norm": 0.0898962735601, 
			 "electric_quadrupole_moment_norm": 0.710257305489, 
			 "total_energy": -787.504845111, 
			 "HOMO_LUMO_gap": 0.35011, 
			 "cosmo_polarized_energy": -1.28, 
			 "cosmo_cavitation_energy": 59.27, 
			 "cosmo_dispersion_energy": -35.5, 
			 "cosmo_repulsion_energy": 2.86, 
			 "cosmo_total_nonelectrostatic_energy": 26.63, 
			 "SMD_solvation_energy": 7.42 
		},
		"coords": [
			{
				"x": -1.9896275291,
				"y": 0.7639590104,
				"z": -1.9212823299,
				"element": "C" 
			},
			{
				"x": -2.5659829109,
				"y": -0.4169229478,
				"z": -1.1342369027,
				"element": "C" 
			},
			{
				"x": -1.7218975582,
				"y": -1.6935655148,
				"z": -1.245630878,
				"element": "C" 
			},
			{
				"x": -2.331341157,
				"y": -2.8870298526,
				"z": -0.4974685774,
				"element": "C" 
			},
			{
				"x": -1.5506695708,
				"y": -4.2046267371,
				"z": -0.6412969181,
				"element": "C" 
			},
			{
				"x": -0.1865000393,
				"y": -4.2710916698,
				"z": 0.0715234254,
				"element": "C" 
			},
			{
				"x": -0.261641531,
				"y": -4.1698948945,
				"z": 1.6154655314,
				"element": "C" 
			},
			{
				"x": 0.2239099272,
				"y": -2.8330415727,
				"z": 2.1986828241,
				"element": "C" 
			},
			{
				"x": 0.0091193236,
				"y": -2.7397090979,
				"z": 3.7154684307,
				"element": "C" 
			},
			{
				"x": 0.6365298968,
				"y": -1.523287922,
				"z": 4.4189088975,
				"element": "C" 
			},
			{
				"x": 0.1528130598,
				"y": -0.1376046133,
				"z": 3.9318877177,
				"element": "C" 
			},
			{
				"x": 1.0740134353,
				"y": 0.5320998041,
				"z": 2.8998135636,
				"element": "C" 
			},
			{
				"x": 0.563647409,
				"y": 1.9018965548,
				"z": 2.4299119653,
				"element": "C" 
			},
			{
				"x": 1.5662326587,
				"y": 2.7055009055,
				"z": 1.5851070578,
				"element": "C" 
			},
			{
				"x": 1.947294988,
				"y": 2.0654411368,
				"z": 0.2425584636,
				"element": "C" 
			},
			{
				"x": 2.9066802721,
				"y": 2.9375349339,
				"z": -0.5807648636,
				"element": "C" 
			},
			{
				"x": 3.3912133252,
				"y": 2.3043514891,
				"z": -1.8959445165,
				"element": "C" 
			},
			{
				"x": 2.2921330108,
				"y": 2.1062081338,
				"z": -2.9510114788,
				"element": "C" 
			},
			{
				"x": 2.802621396,
				"y": 1.609550595,
				"z": -4.3141925185,
				"element": "C" 
			},
			{
				"x": 3.3962927814,
				"y": 0.1956915939,
				"z": -4.2932797433,
				"element": "C" 
			},
			{
				"x": -2.6139700242,
				"y": 1.6578400947,
				"z": -1.8199273083,
				"element": "H" 
			},
			{
				"x": -0.9833046721,
				"y": 1.0209528688,
				"z": -1.5706223413,
				"element": "H" 
			},
			{
				"x": -1.9153009701,
				"y": 0.5297556371,
				"z": -2.9894959799,
				"element": "H" 
			},
			{
				"x": -2.6641397254,
				"y": -0.1392685635,
				"z": -0.0756651882,
				"element": "H" 
			},
			{
				"x": -3.5852375764,
				"y": -0.6272026516,
				"z": -1.4864317861,
				"element": "H" 
			},
			{
				"x": -0.7097210954,
				"y": -1.4879818142,
				"z": -0.871643532,
				"element": "H" 
			},
			{
				"x": -1.604244268,
				"y": -1.9572423086,
				"z": -2.3068898702,
				"element": "H" 
			},
			{
				"x": -2.4440443691,
				"y": -2.634098541,
				"z": 0.5660080403,
				"element": "H" 
			},
			{
				"x": -3.3515187326,
				"y": -3.0467110861,
				"z": -0.8727647004,
				"element": "H" 
			},
			{
				"x": -2.1741066557,
				"y": -5.0245652917,
				"z": -0.2593135843,
				"element": "H" 
			},
			{
				"x": -1.4040514445,
				"y": -4.4115502682,
				"z": -1.7105706831,
				"element": "H" 
			},
			{
				"x": 0.4787642036,
				"y": -3.4890057676,
				"z": -0.3173282929,
				"element": "H" 
			},
			{
				"x": 0.2853191169,
				"y": -5.2207085868,
				"z": -0.2083564613,
				"element": "H" 
			},
			{
				"x": -1.2946653902,
				"y": -4.3514442117,
				"z": 1.9441677702,
				"element": "H" 
			},
			{
				"x": 0.333657125,
				"y": -4.9735397504,
				"z": 2.0676794639,
				"element": "H" 
			},
			{
				"x": -0.2922759239,
				"y": -2.0037507948,
				"z": 1.6977645823,
				"element": "H" 
			},
			{
				"x": 1.291730077,
				"y": -2.7111152272,
				"z": 1.9670876504,
				"element": "H" 
			},
			{
				"x": 0.4089634426,
				"y": -3.6503766126,
				"z": 4.1834758066,
				"element": "H" 
			},
			{
				"x": -1.0715734714,
				"y": -2.7497798311,
				"z": 3.9189017033,
				"element": "H" 
			},
			{
				"x": 1.7306318189,
				"y": -1.5756212983,
				"z": 4.327196001,
				"element": "H" 
			},
			{
				"x": 0.4252461498,
				"y": -1.6202588734,
				"z": 5.491080893,
				"element": "H" 
			},
			{
				"x": -0.8631145039,
				"y": -0.2241611176,
				"z": 3.5204155282,
				"element": "H" 
			},
			{
				"x": 0.0649364088,
				"y": 0.5377848876,
				"z": 4.7930608514,
				"element": "H" 
			},
			{
				"x": 2.0705278796,
				"y": 0.6547981073,
				"z": 3.3491323826,
				"element": "H" 
			},
			{
				"x": 1.2116322329,
				"y": -0.1318348928,
				"z": 2.0383766657,
				"element": "H" 
			},
			{
				"x": 0.2956307542,
				"y": 2.4995103611,
				"z": 3.3122717765,
				"element": "H" 
			},
			{
				"x": -0.3688843985,
				"y": 1.7682018109,
				"z": 1.8626545402,
				"element": "H" 
			},
			{
				"x": 2.479100485,
				"y": 2.8721278101,
				"z": 2.1753634904,
				"element": "H" 
			},
			{
				"x": 1.1461537158,
				"y": 3.7024014343,
				"z": 1.3931601181,
				"element": "H" 
			},
			{
				"x": 1.031199602,
				"y": 1.8697803787,
				"z": -0.3310926115,
				"element": "H" 
			},
			{
				"x": 2.4154106101,
				"y": 1.0867159346,
				"z": 0.4138445724,
				"element": "H" 
			},
			{
				"x": 2.4237487667,
				"y": 3.901213748,
				"z": -0.7986601735,
				"element": "H" 
			},
			{
				"x": 3.7827493233,
				"y": 3.1732848292,
				"z": 0.0390105511,
				"element": "H" 
			},
			{
				"x": 4.1754308698,
				"y": 2.9435155031,
				"z": -2.3253918018,
				"element": "H" 
			},
			{
				"x": 3.8732470693,
				"y": 1.3433645462,
				"z": -1.6715922794,
				"element": "H" 
			},
			{
				"x": 1.7706221298,
				"y": 3.0625840436,
				"z": -3.0966798496,
				"element": "H" 
			},
			{
				"x": 1.5360686022,
				"y": 1.4023114407,
				"z": -2.5780127737,
				"element": "H" 
			},
			{
				"x": 3.5533594636,
				"y": 2.3150136775,
				"z": -4.696734817,
				"element": "H" 
			},
			{
				"x": 1.971299205,
				"y": 1.634837198,
				"z": -5.030459918,
				"element": "H" 
			},
			{
				"x": 4.2838617181,
				"y": 0.1340819564,
				"z": -3.6553084727,
				"element": "H" 
			},
			{
				"x": 3.693054025,
				"y": -0.1221916515,
				"z": -5.298339437,
				"element": "H" 
			},
			{
				"x": 2.6674672389,
				"y": -0.5319264621,
				"z": -3.9169896753,
				"element": "H" 
			}
		],
		 "valence_orbital": [ 
			{
				"type": "occ",
				"energy": -0.30249,
				"method": "rhf"
			},
			{
				"type": "occ",
				"energy": -0.30091,
				"method": "rhf"
			},
			{
				"type": "occ",
				"energy": -0.29849,
				"method": "rhf"
			},
			{
				"type": "occ",
				"energy": -0.29374,
				"method": "rhf"
			},
			{
				"type": "occ",
				"energy": -0.29118,
				"method": "rhf"
			},
			{
				"type": "unocc",
				"energy": 0.05893,
				"method": "rhf"
			},
			{
				"type": "unocc",
				"energy": 0.08006,
				"method": "rhf"
			},
			{
				"type": "unocc",
				"energy": 0.09421,
				"method": "rhf"
			},
			{
				"type": "unocc",
				"energy": 0.09658,
				"method": "rhf"
			},
			{
				"type": "unocc",
				"energy": 0.1008,
				"method": "rhf"
			}
		],
		"cosmo_sigma_profile": { 
			"-0.025": 0.0,
			"-0.024": 0.0,
			"-0.023": 0.0,
			"-0.022": 0.0,
			"-0.021": 0.0,
			"-0.02": 0.0,
			"-0.019": 0.0,
			"-0.018": 0.0,
			"-0.017": 0.0,
			"-0.016": 0.0,
			"-0.015": 0.0,
			"-0.014": 0.0,
			"-0.013": 0.0,
			"-0.012": 0.0,
			"-0.011": 0.0,
			"-0.01": 0.0,
			"-0.009": 0.0,
			"-0.008": 0.0,
			"-0.007": 0.0,
			"-0.006": 0.0,
			"-0.005": 0.0,
			"-0.004": 0.0,
			"-0.003": 2.31316584722,
			"-0.002": 42.2049652052,
			"-0.001": 119.112290553,
			"0.0": 130.987903067,
			"0.001": 107.029835962,
			"0.002": 48.0632053888,
			"0.003": 1.49999575646,
			"0.004": 0.0,
			"0.005": 0.0,
			"0.006": 0.0,
			"0.007": 0.0,
			"0.008": 0.0,
			"0.009": 0.0,
			"0.01": 0.0,
			"0.011": 0.0,
			"0.012": 0.0,
			"0.013": 0.0,
			"0.014": 0.0,
			"0.015": 0.0,
			"0.016": 0.0,
			"0.017": 0.0,
			"0.018": 0.0,
			"0.019": 0.0,
			"0.02": 0.0,
			"0.021": 0.0,
			"0.022": 0.0,
			"0.023": 0.0,
			"0.024": 0.0,
			"0.025": 0.0
		}
	}
}
