{
	 "smiles": "[O-][N+](=O)C1=C(NN=C2C(=O)NC(=O)NC2=O)C=CC=C1", 
	 "Tm": 563.15, 
	 "num_atms": 27, 
	 "gaussian": { 
		 "optdone": 1, 
		 "sigma_profile": "yes", 
		 "theory": "DFT", 
		 "functional": "B3LYP", 
		 "basiset": "6-31G**", 
		 "properties": { 
			 "R2extent": 7086.2739, 
			 "electric_dipole_moment_norm": 3.55915661218, 
			 "electric_quadrupole_moment_norm": 15.6206242135, 
			 "total_energy": -1035.08147349, 
			 "HOMO_LUMO_gap": 0.13442, 
			 "cosmo_polarized_energy": -21.58, 
			 "cosmo_cavitation_energy": 34.01, 
			 "cosmo_dispersion_energy": -25.07, 
			 "cosmo_repulsion_energy": 1.88, 
			 "cosmo_total_nonelectrostatic_energy": 10.82, 
			 "SMD_solvation_energy": 9.53 
		},
		"coords": [
			{
				"x": -1.2586172421,
				"y": 1.9937653257,
				"z": -0.5648059619,
				"element": "O" 
			},
			{
				"x": -0.5635627411,
				"y": 2.0873633667,
				"z": -1.5860785286,
				"element": "N" 
			},
			{
				"x": -0.7006665394,
				"y": 2.9802089785,
				"z": -2.4179782272,
				"element": "O" 
			},
			{
				"x": 0.4763947594,
				"y": 1.0828510862,
				"z": -1.8167056014,
				"element": "C" 
			},
			{
				"x": 0.7205639751,
				"y": 0.0112275453,
				"z": -0.9237873921,
				"element": "C" 
			},
			{
				"x": -0.0140225585,
				"y": -0.1748204473,
				"z": 0.2543602169,
				"element": "N" 
			},
			{
				"x": 0.2802539475,
				"y": -1.1937469481,
				"z": 1.0209174716,
				"element": "N" 
			},
			{
				"x": -0.3642216439,
				"y": -1.428217387,
				"z": 2.1360031621,
				"element": "C" 
			},
			{
				"x": -1.4674433371,
				"y": -0.5941411284,
				"z": 2.6454193476,
				"element": "C" 
			},
			{
				"x": -1.8878091279,
				"y": 0.4061012446,
				"z": 2.0671589794,
				"element": "O" 
			},
			{
				"x": -2.0235577639,
				"y": -1.0074354552,
				"z": 3.8460240439,
				"element": "N" 
			},
			{
				"x": -1.6560342725,
				"y": -2.112732293,
				"z": 4.6136397765,
				"element": "C" 
			},
			{
				"x": -2.2077364316,
				"y": -2.3942253983,
				"z": 5.6577864336,
				"element": "O" 
			},
			{
				"x": -0.6123307185,
				"y": -2.8523691069,
				"z": 4.0776763185,
				"element": "N" 
			},
			{
				"x": 0.0937919198,
				"y": -2.6266687944,
				"z": 2.8893556766,
				"element": "C" 
			},
			{
				"x": 0.991271099,
				"y": -3.3725194618,
				"z": 2.5488161064,
				"element": "O" 
			},
			{
				"x": 1.7478970406,
				"y": -0.8932956074,
				"z": -1.251327212,
				"element": "C" 
			},
			{
				"x": 2.4928586844,
				"y": -0.7358181232,
				"z": -2.4102370252,
				"element": "C" 
			},
			{
				"x": 2.2427429546,
				"y": 0.3281253663,
				"z": -3.2862080064,
				"element": "C" 
			},
			{
				"x": 1.2360625758,
				"y": 1.2305820461,
				"z": -2.9837335339,
				"element": "C" 
			},
			{
				"x": -0.7656052018,
				"y": 0.4821093159,
				"z": 0.5003913067,
				"element": "H" 
			},
			{
				"x": -2.7839681104,
				"y": -0.448880997,
				"z": 4.2152033625,
				"element": "H" 
			},
			{
				"x": -0.3291999572,
				"y": -3.6607672901,
				"z": 4.6180576709,
				"element": "H" 
			},
			{
				"x": 1.9365914462,
				"y": -1.7134594735,
				"z": -0.5702875551,
				"element": "H" 
			},
			{
				"x": 3.2782851652,
				"y": -1.4514814748,
				"z": -2.6331393158,
				"element": "H" 
			},
			{
				"x": 2.826695955,
				"y": 0.4493712395,
				"z": -4.1920652512,
				"element": "H" 
			},
			{
				"x": 1.0074661232,
				"y": 2.0672738715,
				"z": -3.6308562624,
				"element": "H" 
			}
		],
		 "valence_orbital": [ 
			{
				"type": "occ",
				"energy": -0.30035,
				"method": "rhf"
			},
			{
				"type": "occ",
				"energy": -0.29494,
				"method": "rhf"
			},
			{
				"type": "occ",
				"energy": -0.2943,
				"method": "rhf"
			},
			{
				"type": "occ",
				"energy": -0.27073,
				"method": "rhf"
			},
			{
				"type": "occ",
				"energy": -0.24974,
				"method": "rhf"
			},
			{
				"type": "unocc",
				"energy": -0.11532,
				"method": "rhf"
			},
			{
				"type": "unocc",
				"energy": -0.09171,
				"method": "rhf"
			},
			{
				"type": "unocc",
				"energy": -0.0238,
				"method": "rhf"
			},
			{
				"type": "unocc",
				"energy": -0.01219,
				"method": "rhf"
			},
			{
				"type": "unocc",
				"energy": -0.01057,
				"method": "rhf"
			}
		],
		"cosmo_sigma_profile": { 
			"-0.025": 0.0,
			"-0.024": 0.0,
			"-0.023": 0.0,
			"-0.022": 0.0,
			"-0.021": 0.0,
			"-0.02": 0.0,
			"-0.019": 0.0,
			"-0.018": 0.0,
			"-0.017": 0.857253644085,
			"-0.016": 2.04992827861,
			"-0.015": 1.75841208236,
			"-0.014": 1.85050609947,
			"-0.013": 1.22758803687,
			"-0.012": 1.28989636787,
			"-0.011": 1.80105151014,
			"-0.01": 2.53237069677,
			"-0.009": 2.67039855332,
			"-0.008": 6.62602755873,
			"-0.007": 13.4317507564,
			"-0.006": 17.7275085952,
			"-0.005": 17.3717913773,
			"-0.004": 17.6693067045,
			"-0.003": 21.5413134671,
			"-0.002": 17.8873618339,
			"-0.001": 17.0613382823,
			"0.0": 16.0486789087,
			"0.001": 15.6773654879,
			"0.002": 11.3824914748,
			"0.003": 5.60608903958,
			"0.004": 7.07242235057,
			"0.005": 5.92485798508,
			"0.006": 8.21590614557,
			"0.007": 9.17536777799,
			"0.008": 10.8028565235,
			"0.009": 10.3653353592,
			"0.01": 7.71926445455,
			"0.011": 12.1312735212,
			"0.012": 8.65803214024,
			"0.013": 0.638699766382,
			"0.014": 0.0,
			"0.015": 0.0,
			"0.016": 0.0,
			"0.017": 0.0,
			"0.018": 0.0,
			"0.019": 0.0,
			"0.02": 0.0,
			"0.021": 0.0,
			"0.022": 0.0,
			"0.023": 0.0,
			"0.024": 0.0,
			"0.025": 0.0
		}
	}
}
