{
	 "smiles": "NC1=C(N)C(=NC(Cl)=C1)C#N", 
	 "Tm": 523.15, 
	 "num_atms": 16, 
	 "gaussian": { 
		 "optdone": 1, 
		 "sigma_profile": "yes", 
		 "theory": "DFT", 
		 "functional": "B3LYP", 
		 "basiset": "6-31G**", 
		 "properties": { 
			 "R2extent": 3162.6288, 
			 "electric_dipole_moment_norm": 7.26840347669, 
			 "electric_quadrupole_moment_norm": 16.0112758455, 
			 "total_energy": -910.837803371, 
			 "HOMO_LUMO_gap": 0.17396, 
			 "cosmo_polarized_energy": -19.01, 
			 "cosmo_cavitation_energy": 23.4, 
			 "cosmo_dispersion_energy": -17.2, 
			 "cosmo_repulsion_energy": 1.4, 
			 "cosmo_total_nonelectrostatic_energy": 7.6, 
			 "SMD_solvation_energy": 3.55 
		},
		"coords": [
			{
				"x": -2.7491695984,
				"y": 0.1032015286,
				"z": 0.1823157307,
				"element": "N" 
			},
			{
				"x": -1.6568453526,
				"y": 0.9529111906,
				"z": 0.2440421251,
				"element": "C" 
			},
			{
				"x": -0.7707679288,
				"y": 0.9889437561,
				"z": -0.868714027,
				"element": "C" 
			},
			{
				"x": -1.0690956259,
				"y": 0.2137651369,
				"z": -1.9877729845,
				"element": "N" 
			},
			{
				"x": 0.3261596523,
				"y": 1.8578082775,
				"z": -0.7839187392,
				"element": "C" 
			},
			{
				"x": 0.6025024386,
				"y": 2.6397126726,
				"z": 0.282609771,
				"element": "N" 
			},
			{
				"x": -0.2160564527,
				"y": 2.5521160066,
				"z": 1.3030096275,
				"element": "C" 
			},
			{
				"x": 0.1507450443,
				"y": 3.5479265989,
				"z": 2.7101478809,
				"element": "Cl" 
			},
			{
				"x": -1.3575901431,
				"y": 1.7417780429,
				"z": 1.3520811001,
				"element": "C" 
			},
			{
				"x": 1.2295924959,
				"y": 1.9193033027,
				"z": -1.9021993665,
				"element": "C" 
			},
			{
				"x": 1.9102697225,
				"y": 1.898541827,
				"z": -2.845773162,
				"element": "N" 
			},
			{
				"x": -3.1615999853,
				"y": 0.0271923471,
				"z": -0.7406884449,
				"element": "H" 
			},
			{
				"x": -3.4417856007,
				"y": 0.2320561255,
				"z": 0.9074288505,
				"element": "H" 
			},
			{
				"x": -0.3724057224,
				"y": 0.2614110185,
				"z": -2.7228779342,
				"element": "H" 
			},
			{
				"x": -1.3019778317,
				"y": -0.7482823807,
				"z": -1.7630469827,
				"element": "H" 
			},
			{
				"x": -2.0015751117,
				"y": 1.7476145492,
				"z": 2.2242565551,
				"element": "H" 
			}
		],
		 "valence_orbital": [ 
			{
				"type": "occ",
				"energy": -0.31708,
				"method": "rhf"
			},
			{
				"type": "occ",
				"energy": -0.3161,
				"method": "rhf"
			},
			{
				"type": "occ",
				"energy": -0.2895,
				"method": "rhf"
			},
			{
				"type": "occ",
				"energy": -0.26267,
				"method": "rhf"
			},
			{
				"type": "occ",
				"energy": -0.23316,
				"method": "rhf"
			},
			{
				"type": "unocc",
				"energy": -0.0592,
				"method": "rhf"
			},
			{
				"type": "unocc",
				"energy": -0.02206,
				"method": "rhf"
			},
			{
				"type": "unocc",
				"energy": 0.01914,
				"method": "rhf"
			},
			{
				"type": "unocc",
				"energy": 0.03201,
				"method": "rhf"
			},
			{
				"type": "unocc",
				"energy": 0.04971,
				"method": "rhf"
			}
		],
		"cosmo_sigma_profile": { 
			"-0.025": 0.0,
			"-0.024": 0.0,
			"-0.023": 0.0,
			"-0.022": 0.0,
			"-0.021": 0.0,
			"-0.02": 0.0,
			"-0.019": 0.0,
			"-0.018": 0.0,
			"-0.017": 0.0,
			"-0.016": 0.0,
			"-0.015": 0.0109144141546,
			"-0.014": 1.72478934915,
			"-0.013": 4.48784690224,
			"-0.012": 5.07913033968,
			"-0.011": 7.41802533524,
			"-0.01": 4.25410881085,
			"-0.009": 5.02828535411,
			"-0.008": 4.5356378756,
			"-0.007": 4.71404572727,
			"-0.006": 4.69631328084,
			"-0.005": 4.41255059177,
			"-0.004": 5.83455199618,
			"-0.003": 5.45038257465,
			"-0.002": 7.83812008812,
			"-0.001": 14.5399363247,
			"0.0": 15.3807105951,
			"0.001": 13.0909934277,
			"0.002": 9.46817175012,
			"0.003": 11.0560350834,
			"0.004": 14.6470310756,
			"0.005": 10.9795898113,
			"0.006": 5.74492516772,
			"0.007": 5.81328606754,
			"0.008": 5.29428701204,
			"0.009": 5.80949399489,
			"0.01": 4.6154687224,
			"0.011": 4.2311715808,
			"0.012": 3.10231928668,
			"0.013": 1.32052623972,
			"0.014": 0.0873883844659,
			"0.015": 0.0,
			"0.016": 0.0,
			"0.017": 0.0,
			"0.018": 0.0,
			"0.019": 0.0,
			"0.02": 0.0,
			"0.021": 0.0,
			"0.022": 0.0,
			"0.023": 0.0,
			"0.024": 0.0,
			"0.025": 0.0
		}
	}
}
