{
	 "smiles": "NC(=O)C1=CC=C(CCl)C=C1", 
	 "Tm": 452.15, 
	 "num_atms": 19, 
	 "gaussian": { 
		 "optdone": 1, 
		 "sigma_profile": "yes", 
		 "theory": "DFT", 
		 "functional": "B3LYP", 
		 "basiset": "6-31G**", 
		 "properties": { 
			 "R2extent": 3176.0879, 
			 "electric_dipole_moment_norm": 2.63096178802, 
			 "electric_quadrupole_moment_norm": 24.0320870769, 
			 "total_energy": -899.865493674, 
			 "HOMO_LUMO_gap": 0.19826, 
			 "cosmo_polarized_energy": -15.32, 
			 "cosmo_cavitation_energy": 25.23, 
			 "cosmo_dispersion_energy": -18.53, 
			 "cosmo_repulsion_energy": 1.51, 
			 "cosmo_total_nonelectrostatic_energy": 8.21, 
			 "SMD_solvation_energy": 4.73 
		},
		"coords": [
			{
				"x": -3.0989843426,
				"y": 0.8092182278,
				"z": -1.0232782919,
				"element": "N" 
			},
			{
				"x": -1.8056994632,
				"y": 0.4147180591,
				"z": -1.2730869427,
				"element": "C" 
			},
			{
				"x": -1.4512891905,
				"y": 0.0205228524,
				"z": -2.3769003763,
				"element": "O" 
			},
			{
				"x": -0.8445072746,
				"y": 0.5196947199,
				"z": -0.1216593012,
				"element": "C" 
			},
			{
				"x": -1.0742108472,
				"y": 1.3199739811,
				"z": 1.0062392777,
				"element": "C" 
			},
			{
				"x": -0.1337988614,
				"y": 1.3761219912,
				"z": 2.0321225698,
				"element": "C" 
			},
			{
				"x": 1.0520914239,
				"y": 0.6348028724,
				"z": 1.9534898321,
				"element": "C" 
			},
			{
				"x": 2.0622580025,
				"y": 0.6948441018,
				"z": 3.0600507788,
				"element": "C" 
			},
			{
				"x": 1.7358749177,
				"y": -0.5548086946,
				"z": 4.3660221119,
				"element": "Cl" 
			},
			{
				"x": 1.2832392808,
				"y": -0.1556340217,
				"z": 0.8190285836,
				"element": "C" 
			},
			{
				"x": 0.3498732157,
				"y": -0.2064904727,
				"z": -0.2107978411,
				"element": "C" 
			},
			{
				"x": -3.4613017077,
				"y": 0.8012723174,
				"z": -0.082548322,
				"element": "H" 
			},
			{
				"x": -3.7569033758,
				"y": 0.6199830771,
				"z": -1.765967015,
				"element": "H" 
			},
			{
				"x": -1.9688233457,
				"y": 1.9319402328,
				"z": 1.0729989526,
				"element": "H" 
			},
			{
				"x": -0.3182877723,
				"y": 2.0039561883,
				"z": 2.8997520067,
				"element": "H" 
			},
			{
				"x": 3.0707963358,
				"y": 0.4849277994,
				"z": 2.7039423338,
				"element": "H" 
			},
			{
				"x": 2.0514515207,
				"y": 1.6568419079,
				"z": 3.5727058584,
				"element": "H" 
			},
			{
				"x": 2.2018044983,
				"y": -0.7317552432,
				"z": 0.7451793434,
				"element": "H" 
			},
			{
				"x": 0.5240169856,
				"y": -0.8011298963,
				"z": -1.1009935585,
				"element": "H" 
			}
		],
		 "valence_orbital": [ 
			{
				"type": "occ",
				"energy": -0.29784,
				"method": "rhf"
			},
			{
				"type": "occ",
				"energy": -0.27777,
				"method": "rhf"
			},
			{
				"type": "occ",
				"energy": -0.26763,
				"method": "rhf"
			},
			{
				"type": "occ",
				"energy": -0.26375,
				"method": "rhf"
			},
			{
				"type": "occ",
				"energy": -0.25277,
				"method": "rhf"
			},
			{
				"type": "unocc",
				"energy": -0.05451,
				"method": "rhf"
			},
			{
				"type": "unocc",
				"energy": -0.01869,
				"method": "rhf"
			},
			{
				"type": "unocc",
				"energy": 0.01779,
				"method": "rhf"
			},
			{
				"type": "unocc",
				"energy": 0.05952,
				"method": "rhf"
			},
			{
				"type": "unocc",
				"energy": 0.0751,
				"method": "rhf"
			}
		],
		"cosmo_sigma_profile": { 
			"-0.025": 0.0,
			"-0.024": 0.0,
			"-0.023": 0.0,
			"-0.022": 0.0,
			"-0.021": 0.0,
			"-0.02": 0.0,
			"-0.019": 0.0,
			"-0.018": 0.0,
			"-0.017": 0.0,
			"-0.016": 0.0,
			"-0.015": 0.122675120051,
			"-0.014": 1.34769773652,
			"-0.013": 2.62839646267,
			"-0.012": 2.39774807591,
			"-0.011": 2.41053389965,
			"-0.01": 2.64210700565,
			"-0.009": 3.09433037723,
			"-0.008": 5.75215465464,
			"-0.007": 11.5433144154,
			"-0.006": 11.6234705081,
			"-0.005": 11.8276276025,
			"-0.004": 10.6886723529,
			"-0.003": 8.72186020522,
			"-0.002": 7.83513206374,
			"-0.001": 8.29356205937,
			"0.0": 12.4773397904,
			"0.001": 11.2354763893,
			"0.002": 12.966568692,
			"0.003": 16.8385501256,
			"0.004": 13.7197048939,
			"0.005": 9.08841770686,
			"0.006": 10.8565646796,
			"0.007": 7.88252976178,
			"0.008": 2.09523412267,
			"0.009": 1.14988700495,
			"0.01": 1.84109851292,
			"0.011": 1.32230327943,
			"0.012": 2.52961526623,
			"0.013": 4.23971781,
			"0.014": 3.76628677417,
			"0.015": 0.217473036586,
			"0.016": 0.0,
			"0.017": 0.0,
			"0.018": 0.0,
			"0.019": 0.0,
			"0.02": 0.0,
			"0.021": 0.0,
			"0.022": 0.0,
			"0.023": 0.0,
			"0.024": 0.0,
			"0.025": 0.0
		}
	}
}
