{
	 "smiles": "CC(=O)C(N)=S", 
	 "Tm": 333.15, 
	 "num_atms": 11, 
	 "gaussian": { 
		 "optdone": 1, 
		 "sigma_profile": "yes", 
		 "theory": "DFT", 
		 "functional": "B3LYP", 
		 "basiset": "6-31G**", 
		 "properties": { 
			 "R2extent": 900.7677, 
			 "electric_dipole_moment_norm": 1.71312093268, 
			 "electric_quadrupole_moment_norm": 13.1661205794, 
			 "total_energy": -645.499646651, 
			 "HOMO_LUMO_gap": 0.13009, 
			 "cosmo_polarized_energy": -10.6, 
			 "cosmo_cavitation_energy": 16.94, 
			 "cosmo_dispersion_energy": -12.99, 
			 "cosmo_repulsion_energy": 1.08, 
			 "cosmo_total_nonelectrostatic_energy": 5.04, 
			 "SMD_solvation_energy": 3.1 
		},
		"coords": [
			{
				"x": -1.5295327417,
				"y": 1.0069043614,
				"z": 0.3461543985,
				"element": "C" 
			},
			{
				"x": -0.0902634383,
				"y": 1.4092685463,
				"z": 0.1765780072,
				"element": "C" 
			},
			{
				"x": 0.2474889166,
				"y": 2.4645758896,
				"z": -0.3338912929,
				"element": "O" 
			},
			{
				"x": 1.0177630729,
				"y": 0.4548941672,
				"z": 0.6650519155,
				"element": "C" 
			},
			{
				"x": 2.2284719272,
				"y": 0.9737288329,
				"z": 0.4341986425,
				"element": "N" 
			},
			{
				"x": 0.7156717563,
				"y": -1.0133301298,
				"z": 1.3780421308,
				"element": "S" 
			},
			{
				"x": -1.7239520619,
				"y": 0.0607099631,
				"z": -0.1669037001,
				"element": "H" 
			},
			{
				"x": -1.7544571596,
				"y": 0.833469543,
				"z": 1.4024680941,
				"element": "H" 
			},
			{
				"x": -2.1651258769,
				"y": 1.7968563472,
				"z": -0.0548560529,
				"element": "H" 
			},
			{
				"x": 2.2783775711,
				"y": 1.8838137902,
				"z": -0.0098184145,
				"element": "H" 
			},
			{
				"x": 3.0603580343,
				"y": 0.4689086889,
				"z": 0.6983762718,
				"element": "H" 
			}
		],
		 "valence_orbital": [ 
			{
				"type": "occ",
				"energy": -0.37923,
				"method": "rhf"
			},
			{
				"type": "occ",
				"energy": -0.36258,
				"method": "rhf"
			},
			{
				"type": "occ",
				"energy": -0.29133,
				"method": "rhf"
			},
			{
				"type": "occ",
				"energy": -0.24808,
				"method": "rhf"
			},
			{
				"type": "occ",
				"energy": -0.22141,
				"method": "rhf"
			},
			{
				"type": "unocc",
				"energy": -0.09132,
				"method": "rhf"
			},
			{
				"type": "unocc",
				"energy": 0.02784,
				"method": "rhf"
			},
			{
				"type": "unocc",
				"energy": 0.07455,
				"method": "rhf"
			},
			{
				"type": "unocc",
				"energy": 0.09385,
				"method": "rhf"
			},
			{
				"type": "unocc",
				"energy": 0.11326,
				"method": "rhf"
			}
		],
		"cosmo_sigma_profile": { 
			"-0.025": 0.0,
			"-0.024": 0.0,
			"-0.023": 0.0,
			"-0.022": 0.0,
			"-0.021": 0.0,
			"-0.02": 0.0,
			"-0.019": 0.0,
			"-0.018": 0.0,
			"-0.017": 0.0,
			"-0.016": 0.66470815002,
			"-0.015": 1.11960460371,
			"-0.014": 1.81671510013,
			"-0.013": 2.2362121391,
			"-0.012": 2.62506664393,
			"-0.011": 1.52484373866,
			"-0.01": 1.50669534202,
			"-0.009": 1.52148138003,
			"-0.008": 1.34499424351,
			"-0.007": 1.94558636164,
			"-0.006": 7.96946147064,
			"-0.005": 8.82758088169,
			"-0.004": 8.46018539493,
			"-0.003": 9.40635564836,
			"-0.002": 11.2783887336,
			"-0.001": 7.40969986682,
			"0.0": 5.91388867312,
			"0.001": 5.10262474306,
			"0.002": 4.14152451474,
			"0.003": 5.17019911452,
			"0.004": 6.11829484088,
			"0.005": 5.49618268731,
			"0.006": 6.22267598156,
			"0.007": 8.60863643165,
			"0.008": 8.1755852763,
			"0.009": 5.6268974676,
			"0.01": 4.08662232659,
			"0.011": 2.51998033573,
			"0.012": 0.273943921175,
			"0.013": 0.0,
			"0.014": 0.0,
			"0.015": 0.0,
			"0.016": 0.0,
			"0.017": 0.0,
			"0.018": 0.0,
			"0.019": 0.0,
			"0.02": 0.0,
			"0.021": 0.0,
			"0.022": 0.0,
			"0.023": 0.0,
			"0.024": 0.0,
			"0.025": 0.0
		}
	}
}
