{
	 "smiles": "COC1=CC=C(C=C1OC)C(=O)N(NC(=O)C1=CC=CC=C1)C(C)(C)C", 
	 "Tm": 479.15, 
	 "num_atms": 50, 
	 "gaussian": { 
		 "optdone": 1, 
		 "sigma_profile": "yes", 
		 "theory": "DFT", 
		 "functional": "B3LYP", 
		 "basiset": "6-31G**", 
		 "properties": { 
			 "R2extent": 9233.7864, 
			 "electric_dipole_moment_norm": 0.853344701747, 
			 "electric_quadrupole_moment_norm": 18.7312610411, 
			 "total_energy": -1186.95250964, 
			 "HOMO_LUMO_gap": 0.18298, 
			 "cosmo_polarized_energy": -18.02, 
			 "cosmo_cavitation_energy": 51.19, 
			 "cosmo_dispersion_energy": -32.41, 
			 "cosmo_repulsion_energy": 2.44, 
			 "cosmo_total_nonelectrostatic_energy": 21.22, 
			 "SMD_solvation_energy": 11.67 
		},
		"coords": [
			{
				"x": -3.8085603607,
				"y": 2.8670444674,
				"z": 3.0832192504,
				"element": "C" 
			},
			{
				"x": -2.5167567776,
				"y": 3.1107719772,
				"z": 2.5097719985,
				"element": "O" 
			},
			{
				"x": -1.8636378481,
				"y": 2.0127651736,
				"z": 2.0121873834,
				"element": "C" 
			},
			{
				"x": -0.6349581641,
				"y": 1.6511882511,
				"z": 2.5726015475,
				"element": "C" 
			},
			{
				"x": 0.0927383252,
				"y": 0.5823561811,
				"z": 2.0587128935,
				"element": "C" 
			},
			{
				"x": -0.3861570716,
				"y": -0.1420746457,
				"z": 0.9574359079,
				"element": "C" 
			},
			{
				"x": -1.626772993,
				"y": 0.2081279528,
				"z": 0.4107053642,
				"element": "C" 
			},
			{
				"x": -2.3605947495,
				"y": 1.2769891595,
				"z": 0.9198692302,
				"element": "C" 
			},
			{
				"x": -3.5680190036,
				"y": 1.5963614165,
				"z": 0.3378640104,
				"element": "O" 
			},
			{
				"x": -3.4725210609,
				"y": 2.6666415249,
				"z": -0.6163300771,
				"element": "C" 
			},
			{
				"x": 0.4313246012,
				"y": -1.3301873264,
				"z": 0.5231245137,
				"element": "C" 
			},
			{
				"x": 0.9027246541,
				"y": -2.0786353684,
				"z": 1.3725647576,
				"element": "O" 
			},
			{
				"x": 0.6938974078,
				"y": -1.5336945173,
				"z": -0.8346852209,
				"element": "N" 
			},
			{
				"x": 0.1339607125,
				"y": -0.6843413716,
				"z": -1.7855428671,
				"element": "N" 
			},
			{
				"x": 0.4023792127,
				"y": 0.6640793155,
				"z": -1.98676977,
				"element": "C" 
			},
			{
				"x": -0.4479540479,
				"y": 1.3232452365,
				"z": -2.5782227441,
				"element": "O" 
			},
			{
				"x": 1.6786655748,
				"y": 1.2827385508,
				"z": -1.5127375012,
				"element": "C" 
			},
			{
				"x": 2.8913615394,
				"y": 0.5949205894,
				"z": -1.375261462,
				"element": "C" 
			},
			{
				"x": 4.0461778167,
				"y": 1.2768217069,
				"z": -0.9917745474,
				"element": "C" 
			},
			{
				"x": 3.9987039526,
				"y": 2.647370632,
				"z": -0.7321159867,
				"element": "C" 
			},
			{
				"x": 2.7939952384,
				"y": 3.3410079984,
				"z": -0.8742940969,
				"element": "C" 
			},
			{
				"x": 1.6443341033,
				"y": 2.6653115253,
				"z": -1.2730557293,
				"element": "C" 
			},
			{
				"x": 1.2373928328,
				"y": -2.8655550133,
				"z": -1.3329607138,
				"element": "C" 
			},
			{
				"x": 0.2393388579,
				"y": -3.9763353439,
				"z": -0.9495234652,
				"element": "C" 
			},
			{
				"x": 2.6224206746,
				"y": -3.161628986,
				"z": -0.7224401853,
				"element": "C" 
			},
			{
				"x": 1.3786454493,
				"y": -2.8137731689,
				"z": -2.8626984632,
				"element": "C" 
			},
			{
				"x": -4.1764533418,
				"y": 3.8382530663,
				"z": 3.4197045607,
				"element": "H" 
			},
			{
				"x": -4.4971778279,
				"y": 2.4402365908,
				"z": 2.3496639654,
				"element": "H" 
			},
			{
				"x": -3.7255907863,
				"y": 2.1937757503,
				"z": 3.9455529047,
				"element": "H" 
			},
			{
				"x": -0.2667807667,
				"y": 2.2279958969,
				"z": 3.414951175,
				"element": "H" 
			},
			{
				"x": 1.0347013338,
				"y": 0.2913996609,
				"z": 2.5102603032,
				"element": "H" 
			},
			{
				"x": -2.0637781583,
				"y": -0.3298247415,
				"z": -0.4220943113,
				"element": "H" 
			},
			{
				"x": -2.7598648515,
				"y": 2.4133773492,
				"z": -1.4098694614,
				"element": "H" 
			},
			{
				"x": -3.1645976414,
				"y": 3.5984461552,
				"z": -0.1282456937,
				"element": "H" 
			},
			{
				"x": -4.4711216315,
				"y": 2.7891580991,
				"z": -1.0407423125,
				"element": "H" 
			},
			{
				"x": -0.7965129042,
				"y": -0.9188084803,
				"z": -2.1173067665,
				"element": "H" 
			},
			{
				"x": 2.9396280494,
				"y": -0.4654781998,
				"z": -1.5799723203,
				"element": "H" 
			},
			{
				"x": 4.9829945525,
				"y": 0.7357707586,
				"z": -0.8961913551,
				"element": "H" 
			},
			{
				"x": 4.8979269981,
				"y": 3.1741611476,
				"z": -0.4255997662,
				"element": "H" 
			},
			{
				"x": 2.7532054482,
				"y": 4.4086781872,
				"z": -0.6798261597,
				"element": "H" 
			},
			{
				"x": 0.7054272841,
				"y": 3.1901357749,
				"z": -1.4087162486,
				"element": "H" 
			},
			{
				"x": -0.7457795794,
				"y": -3.7845166286,
				"z": -1.3896469861,
				"element": "H" 
			},
			{
				"x": 0.591706931,
				"y": -4.9413154102,
				"z": -1.327433119,
				"element": "H" 
			},
			{
				"x": 0.1331296662,
				"y": -4.0485388661,
				"z": 0.1339359015,
				"element": "H" 
			},
			{
				"x": 2.5765958609,
				"y": -3.1908241618,
				"z": 0.3640045227,
				"element": "H" 
			},
			{
				"x": 2.9708332567,
				"y": -4.1318820692,
				"z": -1.0919823024,
				"element": "H" 
			},
			{
				"x": 3.3598536101,
				"y": -2.4117240698,
				"z": -1.0229369489,
				"element": "H" 
			},
			{
				"x": 1.8204711094,
				"y": -3.7584709027,
				"z": -3.1928580374,
				"element": "H" 
			},
			{
				"x": 0.4187180214,
				"y": -2.6998616749,
				"z": -3.3719987834,
				"element": "H" 
			},
			{
				"x": 2.0340364914,
				"y": -2.0023591497,
				"z": -3.1895967876,
				"element": "H" 
			}
		],
		 "valence_orbital": [ 
			{
				"type": "occ",
				"energy": -0.25631,
				"method": "rhf"
			},
			{
				"type": "occ",
				"energy": -0.25313,
				"method": "rhf"
			},
			{
				"type": "occ",
				"energy": -0.24918,
				"method": "rhf"
			},
			{
				"type": "occ",
				"energy": -0.2431,
				"method": "rhf"
			},
			{
				"type": "occ",
				"energy": -0.22623,
				"method": "rhf"
			},
			{
				"type": "unocc",
				"energy": -0.04325,
				"method": "rhf"
			},
			{
				"type": "unocc",
				"energy": -0.02751,
				"method": "rhf"
			},
			{
				"type": "unocc",
				"energy": -0.0077,
				"method": "rhf"
			},
			{
				"type": "unocc",
				"energy": -0.00323,
				"method": "rhf"
			},
			{
				"type": "unocc",
				"energy": 0.0364,
				"method": "rhf"
			}
		],
		"cosmo_sigma_profile": { 
			"-0.025": 0.0,
			"-0.024": 0.0,
			"-0.023": 0.0,
			"-0.022": 0.0,
			"-0.021": 0.0,
			"-0.02": 0.0,
			"-0.019": 0.0,
			"-0.018": 0.0,
			"-0.017": 0.0,
			"-0.016": 0.0,
			"-0.015": 0.0,
			"-0.014": 0.660497094319,
			"-0.013": 1.46832839234,
			"-0.012": 1.40650341952,
			"-0.011": 1.42984406825,
			"-0.01": 1.79046644309,
			"-0.009": 1.60237350706,
			"-0.008": 2.14350888518,
			"-0.007": 4.06619309494,
			"-0.006": 15.7264855619,
			"-0.005": 23.4881665484,
			"-0.004": 36.2542835387,
			"-0.003": 38.8799058836,
			"-0.002": 36.0881436953,
			"-0.001": 31.4980581552,
			"0.0": 40.311707388,
			"0.001": 36.516260447,
			"0.002": 28.890536408,
			"0.003": 26.0571015432,
			"0.004": 24.0129299218,
			"0.005": 10.3519131144,
			"0.006": 4.9587961241,
			"0.007": 6.50166798651,
			"0.008": 4.44978586044,
			"0.009": 4.8566366523,
			"0.01": 5.09542891771,
			"0.011": 5.2638528537,
			"0.012": 5.21444643997,
			"0.013": 4.77062873855,
			"0.014": 0.854825141606,
			"0.015": 0.0,
			"0.016": 0.0,
			"0.017": 0.0,
			"0.018": 0.0,
			"0.019": 0.0,
			"0.02": 0.0,
			"0.021": 0.0,
			"0.022": 0.0,
			"0.023": 0.0,
			"0.024": 0.0,
			"0.025": 0.0
		}
	}
}
