{
	 "smiles": "C1COC1", 
	 "Tm": 176.15, 
	 "num_atms": 10, 
	 "gaussian": { 
		 "optdone": 1, 
		 "sigma_profile": "yes", 
		 "theory": "DFT", 
		 "functional": "B3LYP", 
		 "basiset": "6-31G**", 
		 "properties": { 
			 "R2extent": 461.5051, 
			 "electric_dipole_moment_norm": 1.96360623853, 
			 "electric_quadrupole_moment_norm": 2.07276679103, 
			 "total_energy": -193.109827162, 
			 "HOMO_LUMO_gap": 0.32965, 
			 "cosmo_polarized_energy": -4.41, 
			 "cosmo_cavitation_energy": 12.48, 
			 "cosmo_dispersion_energy": -9.85, 
			 "cosmo_repulsion_energy": 0.92, 
			 "cosmo_total_nonelectrostatic_energy": 3.54, 
			 "SMD_solvation_energy": 2.42 
		},
		"coords": [
			{
				"x": 0.8173687673,
				"y": -2.2380829103,
				"z": -0.4004930024,
				"element": "C" 
			},
			{
				"x": -0.5181721689,
				"y": -1.8497707202,
				"z": 0.2674172311,
				"element": "C" 
			},
			{
				"x": -0.4237566834,
				"y": -0.4925087425,
				"z": -0.2210570708,
				"element": "O" 
			},
			{
				"x": 0.8331634284,
				"y": -0.7711600417,
				"z": -0.8784440539,
				"element": "C" 
			},
			{
				"x": 1.620737299,
				"y": -2.5161681764,
				"z": 0.2851751128,
				"element": "H" 
			},
			{
				"x": 0.7454961687,
				"y": -2.9880431832,
				"z": -1.1912292284,
				"element": "H" 
			},
			{
				"x": -1.4095317496,
				"y": -2.3631446239,
				"z": -0.1161103698,
				"element": "H" 
			},
			{
				"x": -0.5322506314,
				"y": -1.891376987,
				"z": 1.3643229841,
				"element": "H" 
			},
			{
				"x": 0.7701893483,
				"y": -0.6233273048,
				"z": -1.9644170175,
				"element": "H" 
			},
			{
				"x": 1.6487562216,
				"y": -0.1505173098,
				"z": -0.4850645852,
				"element": "H" 
			}
		],
		 "valence_orbital": [ 
			{
				"type": "occ",
				"energy": -0.40041,
				"method": "rhf"
			},
			{
				"type": "occ",
				"energy": -0.37266,
				"method": "rhf"
			},
			{
				"type": "occ",
				"energy": -0.32916,
				"method": "rhf"
			},
			{
				"type": "occ",
				"energy": -0.30193,
				"method": "rhf"
			},
			{
				"type": "occ",
				"energy": -0.24136,
				"method": "rhf"
			},
			{
				"type": "unocc",
				"energy": 0.08829,
				"method": "rhf"
			},
			{
				"type": "unocc",
				"energy": 0.09835,
				"method": "rhf"
			},
			{
				"type": "unocc",
				"energy": 0.1139,
				"method": "rhf"
			},
			{
				"type": "unocc",
				"energy": 0.13027,
				"method": "rhf"
			},
			{
				"type": "unocc",
				"energy": 0.16921,
				"method": "rhf"
			}
		],
		"cosmo_sigma_profile": { 
			"-0.025": 0.0,
			"-0.024": 0.0,
			"-0.023": 0.0,
			"-0.022": 0.0,
			"-0.021": 0.0,
			"-0.02": 0.0,
			"-0.019": 0.0,
			"-0.018": 0.0,
			"-0.017": 0.0,
			"-0.016": 0.0,
			"-0.015": 0.0,
			"-0.014": 0.0,
			"-0.013": 0.0,
			"-0.012": 0.0,
			"-0.011": 0.0,
			"-0.01": 0.0,
			"-0.009": 0.0,
			"-0.008": 0.0,
			"-0.007": 0.0,
			"-0.006": 0.0,
			"-0.005": 1.4988132393,
			"-0.004": 13.7477371625,
			"-0.003": 19.750173276,
			"-0.002": 20.5521133542,
			"-0.001": 13.5626134491,
			"0.0": 5.87358606229,
			"0.001": 1.8368577855,
			"0.002": 2.55654159497,
			"0.003": 1.44096449982,
			"0.004": 1.16177476797,
			"0.005": 1.54433985796,
			"0.006": 1.13151152749,
			"0.007": 1.11225300974,
			"0.008": 1.90384284681,
			"0.009": 0.985542715063,
			"0.01": 1.2135519711,
			"0.011": 1.01712302289,
			"0.012": 1.47689908214,
			"0.013": 1.57097450011,
			"0.014": 2.44404084893,
			"0.015": 1.23097402308,
			"0.016": 0.0,
			"0.017": 0.0,
			"0.018": 0.0,
			"0.019": 0.0,
			"0.02": 0.0,
			"0.021": 0.0,
			"0.022": 0.0,
			"0.023": 0.0,
			"0.024": 0.0,
			"0.025": 0.0
		}
	}
}
