{
	 "smiles": "CC1=NC2=C(C(=CS2)C2=CC=CC=C2)C(Cl)=N1", 
	 "Tm": 444.15, 
	 "num_atms": 26, 
	 "gaussian": { 
		 "optdone": 1, 
		 "sigma_profile": "yes", 
		 "theory": "DFT", 
		 "functional": "B3LYP", 
		 "basiset": "6-31G**", 
		 "properties": { 
			 "R2extent": 5661.5913, 
			 "electric_dipole_moment_norm": 2.0675157847, 
			 "electric_quadrupole_moment_norm": 8.23245061206, 
			 "total_energy": -1468.69704599, 
			 "HOMO_LUMO_gap": 0.17722, 
			 "cosmo_polarized_energy": -8.07, 
			 "cosmo_cavitation_energy": 33.7, 
			 "cosmo_dispersion_energy": -24.89, 
			 "cosmo_repulsion_energy": 1.89, 
			 "cosmo_total_nonelectrostatic_energy": 10.7, 
			 "SMD_solvation_energy": 2.14 
		},
		"coords": [
			{
				"x": -1.9107348793,
				"y": 0.0650088777,
				"z": -5.2361278022,
				"element": "C" 
			},
			{
				"x": -1.1907248997,
				"y": -0.2447998032,
				"z": -3.9548321854,
				"element": "C" 
			},
			{
				"x": 0.1408915322,
				"y": -0.3156406779,
				"z": -3.9755740055,
				"element": "N" 
			},
			{
				"x": 0.7124645349,
				"y": -0.563491452,
				"z": -2.7987333141,
				"element": "C" 
			},
			{
				"x": 0.0373635752,
				"y": -0.7441102938,
				"z": -1.5620058523,
				"element": "C" 
			},
			{
				"x": 0.9539866624,
				"y": -0.9948762462,
				"z": -0.4633122392,
				"element": "C" 
			},
			{
				"x": 2.2454362289,
				"y": -1.0230611106,
				"z": -0.9103233394,
				"element": "C" 
			},
			{
				"x": 2.4454606036,
				"y": -0.7359479317,
				"z": -2.6194612022,
				"element": "S" 
			},
			{
				"x": 0.6407687362,
				"y": -1.1728156049,
				"z": 0.9790852237,
				"element": "C" 
			},
			{
				"x": 0.0101219532,
				"y": -0.1582092268,
				"z": 1.7163109809,
				"element": "C" 
			},
			{
				"x": -0.2120651058,
				"y": -0.310581064,
				"z": 3.0833992052,
				"element": "C" 
			},
			{
				"x": 0.1939377148,
				"y": -1.4767917382,
				"z": 3.7369238752,
				"element": "C" 
			},
			{
				"x": 0.8258780876,
				"y": -2.4893851169,
				"z": 3.0146142777,
				"element": "C" 
			},
			{
				"x": 1.0491797829,
				"y": -2.3378400533,
				"z": 1.6453758368,
				"element": "C" 
			},
			{
				"x": -1.3647513231,
				"y": -0.6974044413,
				"z": -1.7138159362,
				"element": "C" 
			},
			{
				"x": -2.4387148711,
				"y": -1.0216871637,
				"z": -0.3620977853,
				"element": "Cl" 
			},
			{
				"x": -1.9575576163,
				"y": -0.4450576297,
				"z": -2.8586039463,
				"element": "N" 
			},
			{
				"x": -2.491791328,
				"y": 0.9870256227,
				"z": -5.1294524668,
				"element": "H" 
			},
			{
				"x": -2.6205176555,
				"y": -0.7334831144,
				"z": -5.4743479596,
				"element": "H" 
			},
			{
				"x": -1.1969283884,
				"y": 0.1774839961,
				"z": -6.0525267958,
				"element": "H" 
			},
			{
				"x": 3.1222628472,
				"y": -1.1687206169,
				"z": -0.2938425961,
				"element": "H" 
			},
			{
				"x": -0.2993028691,
				"y": 0.754116385,
				"z": 1.2158897173,
				"element": "H" 
			},
			{
				"x": -0.699184345,
				"y": 0.4845095955,
				"z": 3.6404701541,
				"element": "H" 
			},
			{
				"x": 0.0183318,
				"y": -1.5940307146,
				"z": 4.8023375487,
				"element": "H" 
			},
			{
				"x": 1.1423947496,
				"y": -3.400535321,
				"z": 3.5141278264,
				"element": "H" 
			},
			{
				"x": 1.5308944724,
				"y": -3.1307751557,
				"z": 1.0807227804,
				"element": "H" 
			}
		],
		 "valence_orbital": [ 
			{
				"type": "occ",
				"energy": -0.27514,
				"method": "rhf"
			},
			{
				"type": "occ",
				"energy": -0.26583,
				"method": "rhf"
			},
			{
				"type": "occ",
				"energy": -0.25963,
				"method": "rhf"
			},
			{
				"type": "occ",
				"energy": -0.25493,
				"method": "rhf"
			},
			{
				"type": "occ",
				"energy": -0.23196,
				"method": "rhf"
			},
			{
				"type": "unocc",
				"energy": -0.05474,
				"method": "rhf"
			},
			{
				"type": "unocc",
				"energy": -0.0396,
				"method": "rhf"
			},
			{
				"type": "unocc",
				"energy": -0.01971,
				"method": "rhf"
			},
			{
				"type": "unocc",
				"energy": -0.00673,
				"method": "rhf"
			},
			{
				"type": "unocc",
				"energy": 0.00862,
				"method": "rhf"
			}
		],
		"cosmo_sigma_profile": { 
			"-0.025": 0.0,
			"-0.024": 0.0,
			"-0.023": 0.0,
			"-0.022": 0.0,
			"-0.021": 0.0,
			"-0.02": 0.0,
			"-0.019": 0.0,
			"-0.018": 0.0,
			"-0.017": 0.0,
			"-0.016": 0.0,
			"-0.015": 0.0,
			"-0.014": 0.0,
			"-0.013": 0.0,
			"-0.012": 0.0,
			"-0.011": 0.0,
			"-0.01": 0.45455709062,
			"-0.009": 2.10366555264,
			"-0.008": 1.72549919032,
			"-0.007": 1.6636396249,
			"-0.006": 9.18666302818,
			"-0.005": 18.3325201712,
			"-0.004": 20.9535995892,
			"-0.003": 24.0672785211,
			"-0.002": 25.8749584096,
			"-0.001": 29.6872398787,
			"0.0": 24.5141891111,
			"0.001": 24.2082138337,
			"0.002": 22.1707371564,
			"0.003": 19.0042678877,
			"0.004": 17.523599729,
			"0.005": 14.4781674833,
			"0.006": 6.21977608197,
			"0.007": 2.91014292594,
			"0.008": 2.37679574066,
			"0.009": 1.9777271622,
			"0.01": 2.10623689154,
			"0.011": 1.15470302462,
			"0.012": 1.83102433076,
			"0.013": 1.03607544415,
			"0.014": 0.0928000124499,
			"0.015": 0.0,
			"0.016": 0.0,
			"0.017": 0.0,
			"0.018": 0.0,
			"0.019": 0.0,
			"0.02": 0.0,
			"0.021": 0.0,
			"0.022": 0.0,
			"0.023": 0.0,
			"0.024": 0.0,
			"0.025": 0.0
		}
	}
}
