{
	 "smiles": "CC(NC(=O)CCl)C1=CC=CS1", 
	 "Tm": 366.15, 
	 "num_atms": 22, 
	 "gaussian": { 
		 "optdone": 1, 
		 "sigma_profile": "yes", 
		 "theory": "DFT", 
		 "functional": "B3LYP", 
		 "basiset": "6-31G**", 
		 "properties": { 
			 "R2extent": 3895.948, 
			 "electric_dipole_moment_norm": 5.02695005247, 
			 "electric_quadrupole_moment_norm": 17.8317681319, 
			 "total_energy": -1299.2285326, 
			 "HOMO_LUMO_gap": 0.21664, 
			 "cosmo_polarized_energy": -15.58, 
			 "cosmo_cavitation_energy": 28.96, 
			 "cosmo_dispersion_energy": -20.91, 
			 "cosmo_repulsion_energy": 1.65, 
			 "cosmo_total_nonelectrostatic_energy": 9.7, 
			 "SMD_solvation_energy": 5.09 
		},
		"coords": [
			{
				"x": -0.4340724261,
				"y": 1.2595752762,
				"z": -1.9788501909,
				"element": "C" 
			},
			{
				"x": 0.6335455901,
				"y": 0.5420486692,
				"z": -1.1348090213,
				"element": "C" 
			},
			{
				"x": 0.8936392158,
				"y": 1.3367614693,
				"z": 0.0619127791,
				"element": "N" 
			},
			{
				"x": 2.0057236801,
				"y": 1.3350777948,
				"z": 0.8724892892,
				"element": "C" 
			},
			{
				"x": 2.0228108319,
				"y": 1.9312488122,
				"z": 1.9332213142,
				"element": "O" 
			},
			{
				"x": 3.2032110686,
				"y": 0.5556841657,
				"z": 0.3098689097,
				"element": "C" 
			},
			{
				"x": 4.6103457415,
				"y": 0.5756256564,
				"z": 1.4129421064,
				"element": "Cl" 
			},
			{
				"x": 0.2346384332,
				"y": -0.8857853574,
				"z": -0.7951734157,
				"element": "C" 
			},
			{
				"x": -0.0757316262,
				"y": -1.4215431547,
				"z": 0.4272710039,
				"element": "C" 
			},
			{
				"x": -0.4221943321,
				"y": -2.8080097008,
				"z": 0.3688609346,
				"element": "C" 
			},
			{
				"x": -0.3699707337,
				"y": -3.3146728435,
				"z": -0.8975566818,
				"element": "C" 
			},
			{
				"x": 0.1047540558,
				"y": -2.1024394987,
				"z": -2.047562424,
				"element": "S" 
			},
			{
				"x": -1.3756211069,
				"y": 1.3285879823,
				"z": -1.4235937547,
				"element": "H" 
			},
			{
				"x": -0.0993873915,
				"y": 2.2682054239,
				"z": -2.2373019449,
				"element": "H" 
			},
			{
				"x": -0.6326086369,
				"y": 0.7078288646,
				"z": -2.9007444163,
				"element": "H" 
			},
			{
				"x": 1.5561130657,
				"y": 0.5157644855,
				"z": -1.7279859814,
				"element": "H" 
			},
			{
				"x": 0.1049138296,
				"y": 1.8137053111,
				"z": 0.4820484612,
				"element": "H" 
			},
			{
				"x": 2.928033782,
				"y": -0.4870567245,
				"z": 0.1376187569,
				"element": "H" 
			},
			{
				"x": 3.5238575979,
				"y": 0.9909143798,
				"z": -0.6399901703,
				"element": "H" 
			},
			{
				"x": -0.0527810727,
				"y": -0.8455839122,
				"z": 1.345078438,
				"element": "H" 
			},
			{
				"x": -0.6942740687,
				"y": -3.3971711017,
				"z": 1.2371428269,
				"element": "H" 
			},
			{
				"x": -0.5762454974,
				"y": -4.3220659976,
				"z": -1.2314868189,
				"element": "H" 
			}
		],
		 "valence_orbital": [ 
			{
				"type": "occ",
				"energy": -0.29529,
				"method": "rhf"
			},
			{
				"type": "occ",
				"energy": -0.26782,
				"method": "rhf"
			},
			{
				"type": "occ",
				"energy": -0.26237,
				"method": "rhf"
			},
			{
				"type": "occ",
				"energy": -0.26055,
				"method": "rhf"
			},
			{
				"type": "occ",
				"energy": -0.24177,
				"method": "rhf"
			},
			{
				"type": "unocc",
				"energy": -0.02513,
				"method": "rhf"
			},
			{
				"type": "unocc",
				"energy": 0.0097,
				"method": "rhf"
			},
			{
				"type": "unocc",
				"energy": 0.01798,
				"method": "rhf"
			},
			{
				"type": "unocc",
				"energy": 0.02558,
				"method": "rhf"
			},
			{
				"type": "unocc",
				"energy": 0.05565,
				"method": "rhf"
			}
		],
		"cosmo_sigma_profile": { 
			"-0.025": 0.0,
			"-0.024": 0.0,
			"-0.023": 0.0,
			"-0.022": 0.0,
			"-0.021": 0.0,
			"-0.02": 0.0,
			"-0.019": 0.0,
			"-0.018": 0.0,
			"-0.017": 0.0,
			"-0.016": 0.0,
			"-0.015": 0.0,
			"-0.014": 0.223622512876,
			"-0.013": 1.02384985103,
			"-0.012": 0.937280949804,
			"-0.011": 0.951945028457,
			"-0.01": 2.54291673501,
			"-0.009": 4.94113219846,
			"-0.008": 6.20991147022,
			"-0.007": 8.81062017245,
			"-0.006": 12.4475437512,
			"-0.005": 14.7159318871,
			"-0.004": 17.2707860632,
			"-0.003": 15.9576214744,
			"-0.002": 15.9649128601,
			"-0.001": 16.3749701752,
			"0.0": 13.9227710613,
			"0.001": 11.5066394239,
			"0.002": 12.64863816,
			"0.003": 13.3802077655,
			"0.004": 15.4105505468,
			"0.005": 15.2605986226,
			"0.006": 10.87181472,
			"0.007": 2.55160882361,
			"0.008": 1.96947661166,
			"0.009": 1.9528073097,
			"0.01": 1.87398423834,
			"0.011": 2.1435228474,
			"0.012": 3.14811168167,
			"0.013": 6.03184895698,
			"0.014": 2.45746247855,
			"0.015": 0.366875880397,
			"0.016": 0.0,
			"0.017": 0.0,
			"0.018": 0.0,
			"0.019": 0.0,
			"0.02": 0.0,
			"0.021": 0.0,
			"0.022": 0.0,
			"0.023": 0.0,
			"0.024": 0.0,
			"0.025": 0.0
		}
	}
}
