{
	 "smiles": "CC1=NC2=C(C=CC=C2)N=C(C)C1", 
	 "Tm": 466.15, 
	 "num_atms": 25, 
	 "gaussian": { 
		 "optdone": 1, 
		 "sigma_profile": "yes", 
		 "theory": "DFT", 
		 "functional": "B3LYP", 
		 "basiset": "6-31G**", 
		 "properties": { 
			 "R2extent": 2536.1858, 
			 "electric_dipole_moment_norm": 2.71137993833, 
			 "electric_quadrupole_moment_norm": 10.4562545134, 
			 "total_energy": -535.900508829, 
			 "HOMO_LUMO_gap": 0.19046, 
			 "cosmo_polarized_energy": -9.98, 
			 "cosmo_cavitation_energy": 27.87, 
			 "cosmo_dispersion_energy": -20.31, 
			 "cosmo_repulsion_energy": 1.61, 
			 "cosmo_total_nonelectrostatic_energy": 9.16, 
			 "SMD_solvation_energy": 2.07 
		},
		"coords": [
			{
				"x": 2.4896738202,
				"y": -1.2886796585,
				"z": 0.5105224528,
				"element": "C" 
			},
			{
				"x": 1.3093481867,
				"y": -0.4726246782,
				"z": 0.0581916363,
				"element": "C" 
			},
			{
				"x": 0.1212458095,
				"y": -0.8882882166,
				"z": 0.3054310161,
				"element": "N" 
			},
			{
				"x": -1.0134315576,
				"y": -0.1280751968,
				"z": 0.0027338934,
				"element": "C" 
			},
			{
				"x": -1.1140963897,
				"y": 1.2868775853,
				"z": 0.1438676874,
				"element": "C" 
			},
			{
				"x": -2.3683820733,
				"y": 1.8996986521,
				"z": -0.0684204922,
				"element": "C" 
			},
			{
				"x": -3.4733681752,
				"y": 1.1700031496,
				"z": -0.4728577533,
				"element": "C" 
			},
			{
				"x": -3.3741674376,
				"y": -0.2241644716,
				"z": -0.6119613215,
				"element": "C" 
			},
			{
				"x": -2.1722594123,
				"y": -0.8568703625,
				"z": -0.3434246673,
				"element": "C" 
			},
			{
				"x": -0.0930393204,
				"y": 2.124172006,
				"z": 0.605835747,
				"element": "N" 
			},
			{
				"x": 1.1380117335,
				"y": 1.9359177244,
				"z": 0.2983335867,
				"element": "C" 
			},
			{
				"x": 2.1985591259,
				"y": 2.8043513493,
				"z": 0.9186234382,
				"element": "C" 
			},
			{
				"x": 1.5712633731,
				"y": 0.8398589007,
				"z": -0.6590585559,
				"element": "C" 
			},
			{
				"x": 2.1492480559,
				"y": -2.1915041653,
				"z": 1.0192042892,
				"element": "H" 
			},
			{
				"x": 3.1203946919,
				"y": -1.5666231839,
				"z": -0.343238287,
				"element": "H" 
			},
			{
				"x": 3.1232001186,
				"y": -0.7096748609,
				"z": 1.1945589929,
				"element": "H" 
			},
			{
				"x": -2.4275509262,
				"y": 2.972523374,
				"z": 0.0870697875,
				"element": "H" 
			},
			{
				"x": -4.4184351395,
				"y": 1.672378746,
				"z": -0.6573022863,
				"element": "H" 
			},
			{
				"x": -4.2419568088,
				"y": -0.8079117722,
				"z": -0.9047654439,
				"element": "H" 
			},
			{
				"x": -2.0782752012,
				"y": -1.9368179102,
				"z": -0.4026748285,
				"element": "H" 
			},
			{
				"x": 2.9162472695,
				"y": 2.19676711,
				"z": 1.4845491276,
				"element": "H" 
			},
			{
				"x": 2.772331597,
				"y": 3.3299447526,
				"z": 0.1449944952,
				"element": "H" 
			},
			{
				"x": 1.7421611976,
				"y": 3.5330487396,
				"z": 1.5897706626,
				"element": "H" 
			},
			{
				"x": 2.6196830819,
				"y": 0.9433191817,
				"z": -0.9485473136,
				"element": "H" 
			},
			{
				"x": 0.9445943803,
				"y": 0.8850732053,
				"z": -1.5598358634,
				"element": "H" 
			}
		],
		 "valence_orbital": [ 
			{
				"type": "occ",
				"energy": -0.30891,
				"method": "rhf"
			},
			{
				"type": "occ",
				"energy": -0.27471,
				"method": "rhf"
			},
			{
				"type": "occ",
				"energy": -0.25327,
				"method": "rhf"
			},
			{
				"type": "occ",
				"energy": -0.22415,
				"method": "rhf"
			},
			{
				"type": "occ",
				"energy": -0.21584,
				"method": "rhf"
			},
			{
				"type": "unocc",
				"energy": -0.02538,
				"method": "rhf"
			},
			{
				"type": "unocc",
				"energy": -0.02506,
				"method": "rhf"
			},
			{
				"type": "unocc",
				"energy": 0.02958,
				"method": "rhf"
			},
			{
				"type": "unocc",
				"energy": 0.04896,
				"method": "rhf"
			},
			{
				"type": "unocc",
				"energy": 0.08104,
				"method": "rhf"
			}
		],
		"cosmo_sigma_profile": { 
			"-0.025": 0.0,
			"-0.024": 0.0,
			"-0.023": 0.0,
			"-0.022": 0.0,
			"-0.021": 0.0,
			"-0.02": 0.0,
			"-0.019": 0.0,
			"-0.018": 0.0,
			"-0.017": 0.0,
			"-0.016": 0.0,
			"-0.015": 0.0,
			"-0.014": 0.0,
			"-0.013": 0.0,
			"-0.012": 0.0,
			"-0.011": 0.0,
			"-0.01": 0.0,
			"-0.009": 0.0,
			"-0.008": 0.0,
			"-0.007": 0.548091060956,
			"-0.006": 8.83842551977,
			"-0.005": 25.7728898524,
			"-0.004": 23.3111974767,
			"-0.003": 24.4834973234,
			"-0.002": 20.177300567,
			"-0.001": 20.0167888926,
			"0.0": 13.366604257,
			"0.001": 11.099814255,
			"0.002": 9.28419288229,
			"0.003": 12.4847278698,
			"0.004": 12.1880604088,
			"0.005": 14.2547357975,
			"0.006": 7.61283110612,
			"0.007": 3.34732666314,
			"0.008": 1.97989102975,
			"0.009": 2.95377124968,
			"0.01": 2.56862197829,
			"0.011": 1.59540216759,
			"0.012": 1.70229732379,
			"0.013": 1.28871096029,
			"0.014": 1.38730938476,
			"0.015": 0.919815693463,
			"0.016": 0.0,
			"0.017": 0.0,
			"0.018": 0.0,
			"0.019": 0.0,
			"0.02": 0.0,
			"0.021": 0.0,
			"0.022": 0.0,
			"0.023": 0.0,
			"0.024": 0.0,
			"0.025": 0.0
		}
	}
}
