{
	 "smiles": "COC(=O)C1=C(OC)C=CS1", 
	 "Tm": 335.15, 
	 "num_atms": 19, 
	 "gaussian": { 
		 "optdone": 1, 
		 "sigma_profile": "yes", 
		 "theory": "DFT", 
		 "functional": "B3LYP", 
		 "basiset": "6-31G**", 
		 "properties": { 
			 "R2extent": 2636.8864, 
			 "electric_dipole_moment_norm": 4.22055427876, 
			 "electric_quadrupole_moment_norm": 11.7084896374, 
			 "total_energy": -895.398915291, 
			 "HOMO_LUMO_gap": 0.17944, 
			 "cosmo_polarized_energy": -12.23, 
			 "cosmo_cavitation_energy": 25.02, 
			 "cosmo_dispersion_energy": -18.91, 
			 "cosmo_repulsion_energy": 1.49, 
			 "cosmo_total_nonelectrostatic_energy": 7.6, 
			 "SMD_solvation_energy": 6.84 
		},
		"coords": [
			{
				"x": 2.9428472015,
				"y": -3.2727307725,
				"z": 0.2984729973,
				"element": "C" 
			},
			{
				"x": 1.906995529,
				"y": -2.3134396991,
				"z": 0.0418088996,
				"element": "O" 
			},
			{
				"x": 2.2983859068,
				"y": -1.2351189475,
				"z": -0.6712351694,
				"element": "C" 
			},
			{
				"x": 3.4395611023,
				"y": -1.0725355552,
				"z": -1.0733426791,
				"element": "O" 
			},
			{
				"x": 1.2163424862,
				"y": -0.280271914,
				"z": -0.9120014101,
				"element": "C" 
			},
			{
				"x": -0.1257663565,
				"y": -0.2751894375,
				"z": -0.5485422269,
				"element": "C" 
			},
			{
				"x": -0.6699504903,
				"y": -1.2838593456,
				"z": 0.1664212438,
				"element": "O" 
			},
			{
				"x": -2.0516095953,
				"y": -1.190570939,
				"z": 0.4909063925,
				"element": "C" 
			},
			{
				"x": -0.8176738006,
				"y": 0.888741943,
				"z": -1.0133485688,
				"element": "C" 
			},
			{
				"x": 0.0039879014,
				"y": 1.7330958457,
				"z": -1.7117562138,
				"element": "C" 
			},
			{
				"x": 1.6198275967,
				"y": 1.1522584717,
				"z": -1.826614117,
				"element": "S" 
			},
			{
				"x": 3.7583190364,
				"y": -2.8201148793,
				"z": 0.8686757946,
				"element": "H" 
			},
			{
				"x": 2.4679113783,
				"y": -4.0669941922,
				"z": 0.8746119544,
				"element": "H" 
			},
			{
				"x": 3.3473235078,
				"y": -3.6668907054,
				"z": -0.6374911577,
				"element": "H" 
			},
			{
				"x": -2.2620243589,
				"y": -0.3082799431,
				"z": 1.1080425092,
				"element": "H" 
			},
			{
				"x": -2.6762062131,
				"y": -1.1608929328,
				"z": -0.4105148569,
				"element": "H" 
			},
			{
				"x": -2.2856089829,
				"y": -2.0908823585,
				"z": 1.0602276657,
				"element": "H" 
			},
			{
				"x": -1.8668192884,
				"y": 1.0876600473,
				"z": -0.8386808861,
				"element": "H" 
			},
			{
				"x": -0.2664425604,
				"y": 2.6760153138,
				"z": -2.1674401715,
				"element": "H" 
			}
		],
		 "valence_orbital": [ 
			{
				"type": "occ",
				"energy": -0.33222,
				"method": "rhf"
			},
			{
				"type": "occ",
				"energy": -0.28947,
				"method": "rhf"
			},
			{
				"type": "occ",
				"energy": -0.26507,
				"method": "rhf"
			},
			{
				"type": "occ",
				"energy": -0.24991,
				"method": "rhf"
			},
			{
				"type": "occ",
				"energy": -0.22236,
				"method": "rhf"
			},
			{
				"type": "unocc",
				"energy": -0.04292,
				"method": "rhf"
			},
			{
				"type": "unocc",
				"energy": 0.02869,
				"method": "rhf"
			},
			{
				"type": "unocc",
				"energy": 0.03939,
				"method": "rhf"
			},
			{
				"type": "unocc",
				"energy": 0.08777,
				"method": "rhf"
			},
			{
				"type": "unocc",
				"energy": 0.09958,
				"method": "rhf"
			}
		],
		"cosmo_sigma_profile": { 
			"-0.025": 0.0,
			"-0.024": 0.0,
			"-0.023": 0.0,
			"-0.022": 0.0,
			"-0.021": 0.0,
			"-0.02": 0.0,
			"-0.019": 0.0,
			"-0.018": 0.0,
			"-0.017": 0.0,
			"-0.016": 0.0,
			"-0.015": 0.0,
			"-0.014": 0.0,
			"-0.013": 0.0,
			"-0.012": 0.0,
			"-0.011": 0.0,
			"-0.01": 0.436062293175,
			"-0.009": 2.28301409884,
			"-0.008": 3.31926215482,
			"-0.007": 6.07339677435,
			"-0.006": 15.656569318,
			"-0.005": 17.9461231315,
			"-0.004": 19.076541504,
			"-0.003": 17.0316981301,
			"-0.002": 10.8465025512,
			"-0.001": 9.32450104275,
			"0.0": 10.4606533774,
			"0.001": 11.4442612596,
			"0.002": 18.4371125752,
			"0.003": 16.3580078533,
			"0.004": 9.74612124034,
			"0.005": 4.25248788064,
			"0.006": 4.36109908466,
			"0.007": 2.81825139051,
			"0.008": 2.78761742134,
			"0.009": 3.04692069512,
			"0.01": 3.04978211293,
			"0.011": 3.77428432084,
			"0.012": 5.90097159871,
			"0.013": 3.09076019321,
			"0.014": 0.111080071508,
			"0.015": 0.0,
			"0.016": 0.0,
			"0.017": 0.0,
			"0.018": 0.0,
			"0.019": 0.0,
			"0.02": 0.0,
			"0.021": 0.0,
			"0.022": 0.0,
			"0.023": 0.0,
			"0.024": 0.0,
			"0.025": 0.0
		}
	}
}
