{
	 "smiles": "N#CC1=CC(=CC=C1)C#N", 
	 "Tm": 435.15, 
	 "num_atms": 14, 
	 "gaussian": { 
		 "optdone": 1, 
		 "sigma_profile": "yes", 
		 "theory": "DFT", 
		 "functional": "B3LYP", 
		 "basiset": "6-31G**", 
		 "properties": { 
			 "R2extent": 1625.3755, 
			 "electric_dipole_moment_norm": 4.26215668178, 
			 "electric_quadrupole_moment_norm": 18.3275015231, 
			 "total_energy": -416.726897055, 
			 "HOMO_LUMO_gap": 0.20533, 
			 "cosmo_polarized_energy": -13.19, 
			 "cosmo_cavitation_energy": 21.18, 
			 "cosmo_dispersion_energy": -14.37, 
			 "cosmo_repulsion_energy": 1.17, 
			 "cosmo_total_nonelectrostatic_energy": 7.98, 
			 "SMD_solvation_energy": 6.57 
		},
		"coords": [
			{
				"x": -1.3850820477,
				"y": 3.6080578194,
				"z": 0.2896057196,
				"element": "N" 
			},
			{
				"x": -1.2587576683,
				"y": 2.4618424096,
				"z": 0.1408680301,
				"element": "C" 
			},
			{
				"x": -1.1066022608,
				"y": 1.0473241802,
				"z": -0.0473546095,
				"element": "C" 
			},
			{
				"x": -0.2061642243,
				"y": 0.3311218011,
				"z": 0.7526635993,
				"element": "C" 
			},
			{
				"x": -0.0637285004,
				"y": -1.0499016201,
				"z": 0.5623440528,
				"element": "C" 
			},
			{
				"x": -0.81820516,
				"y": -1.7100880524,
				"z": -0.4230435123,
				"element": "C" 
			},
			{
				"x": -1.7104828536,
				"y": -0.9882673881,
				"z": -1.2127808373,
				"element": "C" 
			},
			{
				"x": -1.8600134141,
				"y": 0.384987343,
				"z": -1.0321008904,
				"element": "C" 
			},
			{
				"x": 0.8560883876,
				"y": -1.7909538925,
				"z": 1.3773339963,
				"element": "C" 
			},
			{
				"x": 1.5994266149,
				"y": -2.397640744,
				"z": 2.034042113,
				"element": "N" 
			},
			{
				"x": 0.3751488873,
				"y": 0.8409622499,
				"z": 1.5121974252,
				"element": "H" 
			},
			{
				"x": -0.6983260065,
				"y": -2.7793026514,
				"z": -0.5599758718,
				"element": "H" 
			},
			{
				"x": -2.2924343988,
				"y": -1.4986559389,
				"z": -1.9731317704,
				"element": "H" 
			},
			{
				"x": -2.5533673552,
				"y": 0.9512144841,
				"z": -1.6444674445,
				"element": "H" 
			}
		],
		 "valence_orbital": [ 
			{
				"type": "occ",
				"energy": -0.35395,
				"method": "rhf"
			},
			{
				"type": "occ",
				"energy": -0.35098,
				"method": "rhf"
			},
			{
				"type": "occ",
				"energy": -0.34672,
				"method": "rhf"
			},
			{
				"type": "occ",
				"energy": -0.29665,
				"method": "rhf"
			},
			{
				"type": "occ",
				"energy": -0.28787,
				"method": "rhf"
			},
			{
				"type": "unocc",
				"energy": -0.08254,
				"method": "rhf"
			},
			{
				"type": "unocc",
				"energy": -0.06703,
				"method": "rhf"
			},
			{
				"type": "unocc",
				"energy": 0.01105,
				"method": "rhf"
			},
			{
				"type": "unocc",
				"energy": 0.02681,
				"method": "rhf"
			},
			{
				"type": "unocc",
				"energy": 0.02879,
				"method": "rhf"
			}
		],
		"cosmo_sigma_profile": { 
			"-0.025": 0.0,
			"-0.024": 0.0,
			"-0.023": 0.0,
			"-0.022": 0.0,
			"-0.021": 0.0,
			"-0.02": 0.0,
			"-0.019": 0.0,
			"-0.018": 0.0,
			"-0.017": 0.0,
			"-0.016": 0.0,
			"-0.015": 0.0,
			"-0.014": 0.0,
			"-0.013": 0.0,
			"-0.012": 0.0,
			"-0.011": 0.0,
			"-0.01": 1.43722027977,
			"-0.009": 7.03546544864,
			"-0.008": 10.9869957533,
			"-0.007": 9.63376327152,
			"-0.006": 7.7311165482,
			"-0.005": 8.71303429091,
			"-0.004": 7.9068133072,
			"-0.003": 12.1325241489,
			"-0.002": 15.0521130938,
			"-0.001": 16.4476945951,
			"0.0": 11.3749471434,
			"0.001": 7.72480220619,
			"0.002": 3.80673469389,
			"0.003": 3.74723295691,
			"0.004": 3.40727397542,
			"0.005": 5.97824969292,
			"0.006": 5.07446204086,
			"0.007": 5.60228656961,
			"0.008": 7.21606578872,
			"0.009": 6.11409847561,
			"0.01": 6.03560130576,
			"0.011": 4.84307029294,
			"0.012": 4.53443104913,
			"0.013": 1.04144471138,
			"0.014": 0.0,
			"0.015": 0.0,
			"0.016": 0.0,
			"0.017": 0.0,
			"0.018": 0.0,
			"0.019": 0.0,
			"0.02": 0.0,
			"0.021": 0.0,
			"0.022": 0.0,
			"0.023": 0.0,
			"0.024": 0.0,
			"0.025": 0.0
		}
	}
}
