{
	 "smiles": "CC(C)(C)N(NC(=O)C1=CC=CC=C1)C(=O)C1=CC=CC(Br)=C1", 
	 "Tm": 491.15, 
	 "num_atms": 42, 
	 "gaussian": { 
		 "optdone": 1, 
		 "sigma_profile": "yes", 
		 "theory": "DFT", 
		 "functional": "B3LYP", 
		 "basiset": "6-31G**", 
		 "properties": { 
			 "R2extent": 10276.4052, 
			 "electric_dipole_moment_norm": 4.71655587373, 
			 "electric_quadrupole_moment_norm": 16.9820372653, 
			 "total_energy": -3528.71166705, 
			 "HOMO_LUMO_gap": 0.18396, 
			 "cosmo_polarized_energy": -15.58, 
			 "cosmo_cavitation_energy": 46.21, 
			 "cosmo_dispersion_energy": -29.84, 
			 "cosmo_repulsion_energy": 2.26, 
			 "cosmo_total_nonelectrostatic_energy": 18.63, 
			 "SMD_solvation_energy": 8.11 
		},
		"coords": [
			{
				"x": -1.5703937962,
				"y": -0.0234087129,
				"z": -1.8596220507,
				"element": "C" 
			},
			{
				"x": -1.7118766578,
				"y": 1.1768139277,
				"z": -0.9118545948,
				"element": "C" 
			},
			{
				"x": -2.9680654396,
				"y": 0.97762488,
				"z": -0.0506089037,
				"element": "C" 
			},
			{
				"x": -1.8767206833,
				"y": 2.4778339162,
				"z": -1.7290425265,
				"element": "C" 
			},
			{
				"x": -0.4468375114,
				"y": 1.2716856161,
				"z": -0.064402302,
				"element": "N" 
			},
			{
				"x": 0.6769395949,
				"y": 1.5195189551,
				"z": -0.8880187071,
				"element": "N" 
			},
			{
				"x": 1.9528229433,
				"y": 1.0564588238,
				"z": -0.543117022,
				"element": "C" 
			},
			{
				"x": 2.9196814393,
				"y": 1.6874853794,
				"z": -0.9458669256,
				"element": "O" 
			},
			{
				"x": 2.1232430478,
				"y": -0.1989154765,
				"z": 0.2569705152,
				"element": "C" 
			},
			{
				"x": 1.2451048493,
				"y": -1.2910678498,
				"z": 0.2176266088,
				"element": "C" 
			},
			{
				"x": 1.5271463105,
				"y": -2.445659554,
				"z": 0.9487577123,
				"element": "C" 
			},
			{
				"x": 2.6793811806,
				"y": -2.5158408274,
				"z": 1.7344543961,
				"element": "C" 
			},
			{
				"x": 3.5625650526,
				"y": -1.4342657839,
				"z": 1.771049458,
				"element": "C" 
			},
			{
				"x": 3.2929018431,
				"y": -0.2884441842,
				"z": 1.0264793516,
				"element": "C" 
			},
			{
				"x": -0.4307776626,
				"y": 2.1320720654,
				"z": 1.0811174413,
				"element": "C" 
			},
			{
				"x": 0.2525205088,
				"y": 3.1432517533,
				"z": 1.1058000781,
				"element": "O" 
			},
			{
				"x": -1.1640892445,
				"y": 1.6816943311,
				"z": 2.304952045,
				"element": "C" 
			},
			{
				"x": -1.6423909866,
				"y": 2.6569102638,
				"z": 3.1914049573,
				"element": "C" 
			},
			{
				"x": -2.2640673159,
				"y": 2.2747478373,
				"z": 4.376941188,
				"element": "C" 
			},
			{
				"x": -2.3897263103,
				"y": 0.9224682209,
				"z": 4.7063698962,
				"element": "C" 
			},
			{
				"x": -1.8813688233,
				"y": -0.0366568736,
				"z": 3.8317420306,
				"element": "C" 
			},
			{
				"x": -2.022819141,
				"y": -1.8882567395,
				"z": 4.2884706771,
				"element": "Br" 
			},
			{
				"x": -1.2708722035,
				"y": 0.323563024,
				"z": 2.6331918819,
				"element": "C" 
			},
			{
				"x": -1.5938175264,
				"y": -0.9669762638,
				"z": -1.3061253858,
				"element": "H" 
			},
			{
				"x": -2.4072528972,
				"y": -0.0317232871,
				"z": -2.5648128603,
				"element": "H" 
			},
			{
				"x": -0.6420616678,
				"y": 0.0306303088,
				"z": -2.4314080331,
				"element": "H" 
			},
			{
				"x": -3.1787220776,
				"y": 1.8309761636,
				"z": 0.5980621145,
				"element": "H" 
			},
			{
				"x": -3.8207326838,
				"y": 0.8599079267,
				"z": -0.7260264859,
				"element": "H" 
			},
			{
				"x": -2.9049480899,
				"y": 0.0810741229,
				"z": 0.5686328098,
				"element": "H" 
			},
			{
				"x": -1.8954272814,
				"y": 3.3566460202,
				"z": -1.0760518442,
				"element": "H" 
			},
			{
				"x": -1.0735469535,
				"y": 2.6036803686,
				"z": -2.4598107787,
				"element": "H" 
			},
			{
				"x": -2.819795898,
				"y": 2.4499417593,
				"z": -2.2830150099,
				"element": "H" 
			},
			{
				"x": 0.7640294699,
				"y": 2.4898100216,
				"z": -1.1854777705,
				"element": "H" 
			},
			{
				"x": 0.3568645625,
				"y": -1.2471975307,
				"z": -0.3980408601,
				"element": "H" 
			},
			{
				"x": 0.8474185537,
				"y": -3.2916137587,
				"z": 0.9028823974,
				"element": "H" 
			},
			{
				"x": 2.8907131473,
				"y": -3.412209501,
				"z": 2.3104979481,
				"element": "H" 
			},
			{
				"x": 4.4641210884,
				"y": -1.4867725069,
				"z": 2.3743291147,
				"element": "H" 
			},
			{
				"x": 3.9787641547,
				"y": 0.5516889664,
				"z": 1.0236242958,
				"element": "H" 
			},
			{
				"x": -1.5148448666,
				"y": 3.7037087323,
				"z": 2.9380345313,
				"element": "H" 
			},
			{
				"x": -2.6482862095,
				"y": 3.0279295761,
				"z": 5.0580876289,
				"element": "H" 
			},
			{
				"x": -2.8658738974,
				"y": 0.6181441373,
				"z": 5.631513602,
				"element": "H" 
			},
			{
				"x": -0.8557019215,
				"y": -0.4293582483,
				"z": 1.9751093812,
				"element": "H" 
			}
		],
		 "valence_orbital": [ 
			{
				"type": "occ",
				"energy": -0.26321,
				"method": "rhf"
			},
			{
				"type": "occ",
				"energy": -0.25869,
				"method": "rhf"
			},
			{
				"type": "occ",
				"energy": -0.25245,
				"method": "rhf"
			},
			{
				"type": "occ",
				"energy": -0.25033,
				"method": "rhf"
			},
			{
				"type": "occ",
				"energy": -0.24536,
				"method": "rhf"
			},
			{
				"type": "unocc",
				"energy": -0.0614,
				"method": "rhf"
			},
			{
				"type": "unocc",
				"energy": -0.03776,
				"method": "rhf"
			},
			{
				"type": "unocc",
				"energy": -0.02607,
				"method": "rhf"
			},
			{
				"type": "unocc",
				"energy": -0.00566,
				"method": "rhf"
			},
			{
				"type": "unocc",
				"energy": -0.00143,
				"method": "rhf"
			}
		],
		"cosmo_sigma_profile": { 
			"-0.025": 0.0,
			"-0.024": 0.0,
			"-0.023": 0.0,
			"-0.022": 0.0,
			"-0.021": 0.0,
			"-0.02": 0.0,
			"-0.019": 0.0,
			"-0.018": 0.0,
			"-0.017": 0.0,
			"-0.016": 0.0,
			"-0.015": 0.0,
			"-0.014": 0.0,
			"-0.013": 0.0,
			"-0.012": 0.0380786669835,
			"-0.011": 0.543232851762,
			"-0.01": 0.568722408729,
			"-0.009": 0.880634937205,
			"-0.008": 1.64879613183,
			"-0.007": 6.81777988048,
			"-0.006": 15.215500423,
			"-0.005": 23.0259904641,
			"-0.004": 33.7398391772,
			"-0.003": 31.7038244684,
			"-0.002": 32.9583862619,
			"-0.001": 35.620685198,
			"0.0": 40.0290603738,
			"0.001": 31.0196014606,
			"0.002": 28.0162687581,
			"0.003": 22.666233309,
			"0.004": 25.3230655713,
			"0.005": 8.29904970466,
			"0.006": 3.66092859778,
			"0.007": 3.25112781071,
			"0.008": 2.77764571003,
			"0.009": 2.85080941545,
			"0.01": 4.5418415319,
			"0.011": 5.02811113107,
			"0.012": 5.76120912659,
			"0.013": 4.0314840177,
			"0.014": 0.247845110737,
			"0.015": 0.0,
			"0.016": 0.0,
			"0.017": 0.0,
			"0.018": 0.0,
			"0.019": 0.0,
			"0.02": 0.0,
			"0.021": 0.0,
			"0.022": 0.0,
			"0.023": 0.0,
			"0.024": 0.0,
			"0.025": 0.0
		}
	}
}
