{
	 "smiles": "OC(=O)CCCOC1=CC=C(I)C=C1", 
	 "Tm": 400.15, 
	 "num_atms": 25, 
	 "gaussian": { 
		 "optdone": 1, 
		 "sigma_profile": "yes", 
		 "theory": "DFT", 
		 "functional": "B3LYP", 
		 "basiset": "6-31G**", 
		 "properties": { 
			 "R2extent": 4284.2151, 
			 "electric_dipole_moment_norm": 5.3983543724, 
			 "electric_quadrupole_moment_norm": 24.6892950493, 
			 "total_energy": -624.757210277, 
			 "HOMO_LUMO_gap": 0.19261, 
			 "cosmo_polarized_energy": -16.51, 
			 "cosmo_cavitation_energy": 32.15, 
			 "cosmo_dispersion_energy": -24.59, 
			 "cosmo_repulsion_energy": 1.9, 
			 "cosmo_total_nonelectrostatic_energy": 9.47, 
			 "SMD_solvation_energy": 5.56 
		},
		"coords": [
			{
				"x": 0.1648212988,
				"y": -2.166106996,
				"z": 2.4143600751,
				"element": "O" 
			},
			{
				"x": -0.7864778424,
				"y": -3.0679609787,
				"z": 2.0980464094,
				"element": "C" 
			},
			{
				"x": -0.9390299251,
				"y": -4.068224477,
				"z": 2.7582393956,
				"element": "O" 
			},
			{
				"x": -1.6399703734,
				"y": -2.7670280139,
				"z": 0.8608063437,
				"element": "C" 
			},
			{
				"x": -2.184246663,
				"y": -1.3236833412,
				"z": 0.7304351843,
				"element": "C" 
			},
			{
				"x": -1.3515483279,
				"y": -0.3858427706,
				"z": -0.1353432128,
				"element": "C" 
			},
			{
				"x": -0.0575541127,
				"y": -0.232639724,
				"z": 0.4640607615,
				"element": "O" 
			},
			{
				"x": 0.8992802778,
				"y": 0.5273123827,
				"z": -0.1658399822,
				"element": "C" 
			},
			{
				"x": 0.6748870224,
				"y": 1.238768315,
				"z": -1.3468971681,
				"element": "C" 
			},
			{
				"x": 1.7124901383,
				"y": 1.9895824164,
				"z": -1.9086811094,
				"element": "C" 
			},
			{
				"x": 2.9607702792,
				"y": 2.0259981206,
				"z": -1.2919167499,
				"element": "C" 
			},
			{
				"x": 4.5282041175,
				"y": 3.1650495031,
				"z": -2.1489750672,
				"element": "I" 
			},
			{
				"x": 3.1855314183,
				"y": 1.3136655993,
				"z": -0.1091770936,
				"element": "C" 
			},
			{
				"x": 2.1554357711,
				"y": 0.5661415139,
				"z": 0.4514367741,
				"element": "C" 
			},
			{
				"x": 0.1793616407,
				"y": -1.4370824627,
				"z": 1.7635992999,
				"element": "H" 
			},
			{
				"x": -1.0467898456,
				"y": -3.0246309787,
				"z": -0.027730813,
				"element": "H" 
			},
			{
				"x": -2.4647321866,
				"y": -3.4802116278,
				"z": 0.9018892674,
				"element": "H" 
			},
			{
				"x": -2.3260236258,
				"y": -0.8737127602,
				"z": 1.719668862,
				"element": "H" 
			},
			{
				"x": -3.1771012197,
				"y": -1.3632467375,
				"z": 0.2688032822,
				"element": "H" 
			},
			{
				"x": -1.83522634,
				"y": 0.5961758663,
				"z": -0.2125910799,
				"element": "H" 
			},
			{
				"x": -1.234809619,
				"y": -0.7964630542,
				"z": -1.1476064546,
				"element": "H" 
			},
			{
				"x": -0.2895240442,
				"y": 1.2242420584,
				"z": -1.8398104551,
				"element": "H" 
			},
			{
				"x": 1.5333912167,
				"y": 2.5402084808,
				"z": -2.8252732944,
				"element": "H" 
			},
			{
				"x": 4.1553123136,
				"y": 1.3374527176,
				"z": 0.3746895511,
				"element": "H" 
			},
			{
				"x": 2.3158486309,
				"y": 0.0070369486,
				"z": 1.3679072741,
				"element": "H" 
			}
		],
		 "valence_orbital": [ 
			{
				"type": "occ",
				"energy": -0.28998,
				"method": "rhf"
			},
			{
				"type": "occ",
				"energy": -0.27863,
				"method": "rhf"
			},
			{
				"type": "occ",
				"energy": -0.27449,
				"method": "rhf"
			},
			{
				"type": "occ",
				"energy": -0.25615,
				"method": "rhf"
			},
			{
				"type": "occ",
				"energy": -0.23724,
				"method": "rhf"
			},
			{
				"type": "unocc",
				"energy": -0.04463,
				"method": "rhf"
			},
			{
				"type": "unocc",
				"energy": -0.02999,
				"method": "rhf"
			},
			{
				"type": "unocc",
				"energy": -0.02047,
				"method": "rhf"
			},
			{
				"type": "unocc",
				"energy": 0.01968,
				"method": "rhf"
			},
			{
				"type": "unocc",
				"energy": 0.03823,
				"method": "rhf"
			}
		],
		"cosmo_sigma_profile": { 
			"-0.025": 0.0,
			"-0.024": 0.0,
			"-0.023": 0.0,
			"-0.022": 0.0,
			"-0.021": 0.0,
			"-0.02": 0.0,
			"-0.019": 0.0,
			"-0.018": 0.0,
			"-0.017": 0.0,
			"-0.016": 0.0,
			"-0.015": 0.0,
			"-0.014": 0.0,
			"-0.013": 0.0,
			"-0.012": 0.0,
			"-0.011": 0.0,
			"-0.01": 0.0,
			"-0.009": 0.00619559320216,
			"-0.008": 1.28850020951,
			"-0.007": 12.4622913181,
			"-0.006": 26.1847016849,
			"-0.005": 29.5280715377,
			"-0.004": 20.4736021645,
			"-0.003": 18.3789861735,
			"-0.002": 15.0406929995,
			"-0.001": 10.1600836884,
			"0.0": 11.9505633964,
			"0.001": 12.9829054453,
			"0.002": 18.7613897618,
			"0.003": 21.1781656287,
			"0.004": 22.6135873033,
			"0.005": 9.40197748674,
			"0.006": 2.2545012587,
			"0.007": 2.19443241852,
			"0.008": 1.53879940309,
			"0.009": 3.0678401622,
			"0.01": 3.27506327229,
			"0.011": 4.57977206266,
			"0.012": 6.6691714708,
			"0.013": 5.06425493981,
			"0.014": 1.61062380348,
			"0.015": 0.0,
			"0.016": 0.0,
			"0.017": 0.0,
			"0.018": 0.0,
			"0.019": 0.0,
			"0.02": 0.0,
			"0.021": 0.0,
			"0.022": 0.0,
			"0.023": 0.0,
			"0.024": 0.0,
			"0.025": 0.0
		}
	}
}
