{
	 "smiles": "COC1=CC(OC)=C(CNC(=O)OC(C)(C)C)C=C1", 
	 "Tm": 333.15, 
	 "num_atms": 40, 
	 "gaussian": { 
		 "optdone": 1, 
		 "sigma_profile": "yes", 
		 "theory": "DFT", 
		 "functional": "B3LYP", 
		 "basiset": "6-31G**", 
		 "properties": { 
			 "R2extent": 7251.5029, 
			 "electric_dipole_moment_norm": 3.14841017023, 
			 "electric_quadrupole_moment_norm": 13.4697147824, 
			 "total_energy": -901.809975803, 
			 "HOMO_LUMO_gap": 0.21531, 
			 "cosmo_polarized_energy": -13.41, 
			 "cosmo_cavitation_energy": 42.36, 
			 "cosmo_dispersion_energy": -28.95, 
			 "cosmo_repulsion_energy": 2.28, 
			 "cosmo_total_nonelectrostatic_energy": 15.69, 
			 "SMD_solvation_energy": 9.28 
		},
		"coords": [
			{
				"x": -2.5807179006,
				"y": -3.777992863,
				"z": 2.2523104769,
				"element": "C" 
			},
			{
				"x": -1.1693202885,
				"y": -3.7916830459,
				"z": 2.1156898283,
				"element": "O" 
			},
			{
				"x": -0.5570393807,
				"y": -2.6534551031,
				"z": 1.6711558672,
				"element": "C" 
			},
			{
				"x": 0.8407796412,
				"y": -2.7393210931,
				"z": 1.5582372665,
				"element": "C" 
			},
			{
				"x": 1.566237641,
				"y": -1.6380277946,
				"z": 1.1148918898,
				"element": "C" 
			},
			{
				"x": 2.9273577643,
				"y": -1.6289858625,
				"z": 0.9710752521,
				"element": "O" 
			},
			{
				"x": 3.6486968725,
				"y": -2.8062305367,
				"z": 1.2972411604,
				"element": "C" 
			},
			{
				"x": 0.9216504359,
				"y": -0.4265442014,
				"z": 0.775884459,
				"element": "C" 
			},
			{
				"x": 1.7656163563,
				"y": 0.7446556094,
				"z": 0.2953057994,
				"element": "C" 
			},
			{
				"x": 1.0409603374,
				"y": 1.9918785635,
				"z": 0.1246302465,
				"element": "N" 
			},
			{
				"x": 0.4654061654,
				"y": 2.4635121077,
				"z": -1.02586041,
				"element": "C" 
			},
			{
				"x": -0.2412862481,
				"y": 3.4604102263,
				"z": -1.0502064064,
				"element": "O" 
			},
			{
				"x": 0.8038552199,
				"y": 1.6968529123,
				"z": -2.0886747491,
				"element": "O" 
			},
			{
				"x": 0.3184084555,
				"y": 2.0216990549,
				"z": -3.4376835209,
				"element": "C" 
			},
			{
				"x": 0.9377836728,
				"y": 0.9106587671,
				"z": -4.2898379,
				"element": "C" 
			},
			{
				"x": -1.2119023122,
				"y": 1.9465060698,
				"z": -3.4766433983,
				"element": "C" 
			},
			{
				"x": 0.8434456682,
				"y": 3.3953237522,
				"z": -3.8691458458,
				"element": "C" 
			},
			{
				"x": -0.4604419902,
				"y": -0.3753086826,
				"z": 0.8970238291,
				"element": "C" 
			},
			{
				"x": -1.2158516777,
				"y": -1.4697142409,
				"z": 1.3407442038,
				"element": "C" 
			},
			{
				"x": -2.859154819,
				"y": -4.7694129881,
				"z": 2.6135057239,
				"element": "H" 
			},
			{
				"x": -3.0793108337,
				"y": -3.5905499864,
				"z": 1.2924785162,
				"element": "H" 
			},
			{
				"x": -2.9105983342,
				"y": -3.0237456029,
				"z": 2.9784952766,
				"element": "H" 
			},
			{
				"x": 1.3142009021,
				"y": -3.6758783103,
				"z": 1.823696652,
				"element": "H" 
			},
			{
				"x": 3.5166726706,
				"y": -3.0816308757,
				"z": 2.3513091876,
				"element": "H" 
			},
			{
				"x": 3.3467917624,
				"y": -3.6518407981,
				"z": 0.6663880851,
				"element": "H" 
			},
			{
				"x": 4.6996905794,
				"y": -2.5773199855,
				"z": 1.1136348292,
				"element": "H" 
			},
			{
				"x": 2.2389730421,
				"y": 0.4996374962,
				"z": -0.6580015355,
				"element": "H" 
			},
			{
				"x": 2.5850648132,
				"y": 0.9148038482,
				"z": 1.0032008305,
				"element": "H" 
			},
			{
				"x": 0.7507115364,
				"y": 2.5030357959,
				"z": 0.9450549137,
				"element": "H" 
			},
			{
				"x": 0.6474492254,
				"y": 1.0341202069,
				"z": -5.3375110169,
				"element": "H" 
			},
			{
				"x": 2.0296280204,
				"y": 0.9392457217,
				"z": -4.2273071756,
				"element": "H" 
			},
			{
				"x": 0.598531793,
				"y": -0.0716931105,
				"z": -3.9485950692,
				"element": "H" 
			},
			{
				"x": -1.5604874138,
				"y": 2.0749568153,
				"z": -4.5066727707,
				"element": "H" 
			},
			{
				"x": -1.6550810164,
				"y": 2.7233339203,
				"z": -2.8533585586,
				"element": "H" 
			},
			{
				"x": -1.5517998705,
				"y": 0.9681031144,
				"z": -3.122212238,
				"element": "H" 
			},
			{
				"x": 0.4219360083,
				"y": 4.1852847138,
				"z": -3.2473666209,
				"element": "H" 
			},
			{
				"x": 1.934967444,
				"y": 3.4257041718,
				"z": -3.7910822745,
				"element": "H" 
			},
			{
				"x": 0.5723248291,
				"y": 3.5812573258,
				"z": -4.9136433139,
				"element": "H" 
			},
			{
				"x": -0.9737022302,
				"y": 0.5467276496,
				"z": 0.6419228279,
				"element": "H" 
			},
			{
				"x": -2.2920465409,
				"y": -1.3799727621,
				"z": 1.4193256829,
				"element": "H" 
			}
		],
		 "valence_orbital": [ 
			{
				"type": "occ",
				"energy": -0.28103,
				"method": "rhf"
			},
			{
				"type": "occ",
				"energy": -0.25381,
				"method": "rhf"
			},
			{
				"type": "occ",
				"energy": -0.24427,
				"method": "rhf"
			},
			{
				"type": "occ",
				"energy": -0.22923,
				"method": "rhf"
			},
			{
				"type": "occ",
				"energy": -0.20644,
				"method": "rhf"
			},
			{
				"type": "unocc",
				"energy": 0.00887,
				"method": "rhf"
			},
			{
				"type": "unocc",
				"energy": 0.02038,
				"method": "rhf"
			},
			{
				"type": "unocc",
				"energy": 0.06425,
				"method": "rhf"
			},
			{
				"type": "unocc",
				"energy": 0.08592,
				"method": "rhf"
			},
			{
				"type": "unocc",
				"energy": 0.09511,
				"method": "rhf"
			}
		],
		"cosmo_sigma_profile": { 
			"-0.025": 0.0,
			"-0.024": 0.0,
			"-0.023": 0.0,
			"-0.022": 0.0,
			"-0.021": 0.0,
			"-0.02": 0.0,
			"-0.019": 0.0,
			"-0.018": 0.0,
			"-0.017": 0.0,
			"-0.016": 0.0,
			"-0.015": 0.0,
			"-0.014": 0.363622590148,
			"-0.013": 0.894611314216,
			"-0.012": 1.23969684812,
			"-0.011": 0.534207499904,
			"-0.01": 1.3567061902,
			"-0.009": 0.804268938504,
			"-0.008": 0.735659604369,
			"-0.007": 1.54126249737,
			"-0.006": 9.27259327288,
			"-0.005": 23.59127188,
			"-0.004": 33.0103071002,
			"-0.003": 39.9372382988,
			"-0.002": 28.4940263057,
			"-0.001": 27.9909508869,
			"0.0": 30.5585430206,
			"0.001": 28.6759141709,
			"0.002": 15.8179815498,
			"0.003": 14.9873592531,
			"0.004": 15.9122575979,
			"0.005": 19.4389112277,
			"0.006": 12.8145942812,
			"0.007": 5.55211452754,
			"0.008": 2.97962188859,
			"0.009": 2.7365288097,
			"0.01": 2.64996701475,
			"0.011": 2.59864018797,
			"0.012": 1.57421320896,
			"0.013": 2.6052480923,
			"0.014": 3.04052235208,
			"0.015": 0.306911778631,
			"0.016": 0.0,
			"0.017": 0.0,
			"0.018": 0.0,
			"0.019": 0.0,
			"0.02": 0.0,
			"0.021": 0.0,
			"0.022": 0.0,
			"0.023": 0.0,
			"0.024": 0.0,
			"0.025": 0.0
		}
	}
}
