{
	 "smiles": "CC1OC1C", 
	 "Tm": 190.65, 
	 "num_atms": 13, 
	 "gaussian": { 
		 "optdone": 1, 
		 "sigma_profile": "yes", 
		 "theory": "DFT", 
		 "functional": "B3LYP", 
		 "basiset": "6-31G**", 
		 "properties": { 
			 "R2extent": 906.8037, 
			 "electric_dipole_moment_norm": 1.94790762358, 
			 "electric_quadrupole_moment_norm": 7.11439227341, 
			 "total_energy": -232.437466031, 
			 "HOMO_LUMO_gap": 0.36896, 
			 "cosmo_polarized_energy": -4.88, 
			 "cosmo_cavitation_energy": 15.78, 
			 "cosmo_dispersion_energy": -11.82, 
			 "cosmo_repulsion_energy": 1.07, 
			 "cosmo_total_nonelectrostatic_energy": 5.03, 
			 "SMD_solvation_energy": 2.87 
		},
		"coords": [
			{
				"x": -0.0598737164,
				"y": 2.0514774969,
				"z": 0.8465438174,
				"element": "C" 
			},
			{
				"x": -0.5975401179,
				"y": 0.8694376872,
				"z": 1.6131325576,
				"element": "C" 
			},
			{
				"x": -2.0249047407,
				"y": 0.8029513847,
				"z": 1.770992867,
				"element": "O" 
			},
			{
				"x": -1.3763781463,
				"y": -0.2058147412,
				"z": 0.9782012254,
				"element": "C" 
			},
			{
				"x": -1.4165461063,
				"y": -1.6136988452,
				"z": 1.5168937353,
				"element": "C" 
			},
			{
				"x": 0.9847815816,
				"y": 1.8858548991,
				"z": 0.5598202976,
				"element": "H" 
			},
			{
				"x": -0.1012182395,
				"y": 2.959474351,
				"z": 1.457689823,
				"element": "H" 
			},
			{
				"x": -0.6479736037,
				"y": 2.2250676429,
				"z": -0.0590855343,
				"element": "H" 
			},
			{
				"x": -0.0461262053,
				"y": 0.6111518605,
				"z": 2.5212898877,
				"element": "H" 
			},
			{
				"x": -1.5706753794,
				"y": -0.1095823515,
				"z": -0.093479672,
				"element": "H" 
			},
			{
				"x": -2.4111971747,
				"y": -2.0514499612,
				"z": 1.3800976869,
				"element": "H" 
			},
			{
				"x": -1.1847452156,
				"y": -1.6256661614,
				"z": 2.5856719724,
				"element": "H" 
			},
			{
				"x": -0.6937029358,
				"y": -2.250303262,
				"z": 0.9942313361,
				"element": "H" 
			}
		],
		 "valence_orbital": [ 
			{
				"type": "occ",
				"energy": -0.3889,
				"method": "rhf"
			},
			{
				"type": "occ",
				"energy": -0.36095,
				"method": "rhf"
			},
			{
				"type": "occ",
				"energy": -0.35162,
				"method": "rhf"
			},
			{
				"type": "occ",
				"energy": -0.28489,
				"method": "rhf"
			},
			{
				"type": "occ",
				"energy": -0.25805,
				"method": "rhf"
			},
			{
				"type": "unocc",
				"energy": 0.11091,
				"method": "rhf"
			},
			{
				"type": "unocc",
				"energy": 0.11385,
				"method": "rhf"
			},
			{
				"type": "unocc",
				"energy": 0.11643,
				"method": "rhf"
			},
			{
				"type": "unocc",
				"energy": 0.12783,
				"method": "rhf"
			},
			{
				"type": "unocc",
				"energy": 0.13587,
				"method": "rhf"
			}
		],
		"cosmo_sigma_profile": { 
			"-0.025": 0.0,
			"-0.024": 0.0,
			"-0.023": 0.0,
			"-0.022": 0.0,
			"-0.021": 0.0,
			"-0.02": 0.0,
			"-0.019": 0.0,
			"-0.018": 0.0,
			"-0.017": 0.0,
			"-0.016": 0.0,
			"-0.015": 0.0,
			"-0.014": 0.0,
			"-0.013": 0.0,
			"-0.012": 0.0,
			"-0.011": 0.0,
			"-0.01": 0.0,
			"-0.009": 0.0,
			"-0.008": 0.0,
			"-0.007": 0.0,
			"-0.006": 0.439603839456,
			"-0.005": 4.98320281354,
			"-0.004": 16.5617670811,
			"-0.003": 17.8130494145,
			"-0.002": 18.1363307459,
			"-0.001": 15.5083407639,
			"0.0": 19.0439947013,
			"0.001": 7.66810052195,
			"0.002": 1.70607984057,
			"0.003": 1.63917839996,
			"0.004": 1.01156610621,
			"0.005": 1.85441897317,
			"0.006": 1.75584771292,
			"0.007": 1.47980934996,
			"0.008": 1.56905031545,
			"0.009": 1.74503382205,
			"0.01": 1.52233371844,
			"0.011": 2.03288420356,
			"0.012": 3.43841583705,
			"0.013": 2.71692450141,
			"0.014": 0.409836437622,
			"0.015": 0.0,
			"0.016": 0.0,
			"0.017": 0.0,
			"0.018": 0.0,
			"0.019": 0.0,
			"0.02": 0.0,
			"0.021": 0.0,
			"0.022": 0.0,
			"0.023": 0.0,
			"0.024": 0.0,
			"0.025": 0.0
		}
	}
}
