{
	 "smiles": "CC1=C(CCl)N=C(O1)C1=CC=CC=C1", 
	 "Tm": 356.65, 
	 "num_atms": 24, 
	 "gaussian": { 
		 "optdone": 1, 
		 "sigma_profile": "yes", 
		 "theory": "DFT", 
		 "functional": "B3LYP", 
		 "basiset": "6-31G**", 
		 "properties": { 
			 "R2extent": 4204.0322, 
			 "electric_dipole_moment_norm": 3.23646950395, 
			 "electric_quadrupole_moment_norm": 15.0828509629, 
			 "total_energy": -1015.37466509, 
			 "HOMO_LUMO_gap": 0.17682, 
			 "cosmo_polarized_energy": -9.75, 
			 "cosmo_cavitation_energy": 30.49, 
			 "cosmo_dispersion_energy": -22.16, 
			 "cosmo_repulsion_energy": 1.77, 
			 "cosmo_total_nonelectrostatic_energy": 10.11, 
			 "SMD_solvation_energy": 3.75 
		},
		"coords": [
			{
				"x": 1.0730414118,
				"y": -1.5517995863,
				"z": -2.3791348624,
				"element": "C" 
			},
			{
				"x": 0.4396421731,
				"y": -0.682679761,
				"z": -1.3554429469,
				"element": "C" 
			},
			{
				"x": -0.5237565329,
				"y": 0.2862303296,
				"z": -1.3662354135,
				"element": "C" 
			},
			{
				"x": -1.2919064327,
				"y": 0.8236344592,
				"z": -2.5134666147,
				"element": "C" 
			},
			{
				"x": -2.8889592939,
				"y": -0.0525924782,
				"z": -2.7804850585,
				"element": "Cl" 
			},
			{
				"x": -0.7224125413,
				"y": 0.7532199738,
				"z": -0.0736578709,
				"element": "N" 
			},
			{
				"x": 0.1071052535,
				"y": 0.0730609811,
				"z": 0.6624758084,
				"element": "C" 
			},
			{
				"x": 0.8525811246,
				"y": -0.8247778639,
				"z": -0.0559000564,
				"element": "O" 
			},
			{
				"x": 0.3252340102,
				"y": 0.1621796954,
				"z": 2.1029319927,
				"element": "C" 
			},
			{
				"x": 1.279994495,
				"y": -0.6402101761,
				"z": 2.7473653815,
				"element": "C" 
			},
			{
				"x": 1.4654813542,
				"y": -0.5328964169,
				"z": 4.1242787409,
				"element": "C" 
			},
			{
				"x": 0.7046431863,
				"y": 0.3710112051,
				"z": 4.8688470868,
				"element": "C" 
			},
			{
				"x": -0.2471875974,
				"y": 1.1708959528,
				"z": 4.2293863958,
				"element": "C" 
			},
			{
				"x": -0.4391296622,
				"y": 1.0700993825,
				"z": 2.8548178137,
				"element": "C" 
			},
			{
				"x": 0.8763921828,
				"y": -2.6104334958,
				"z": -2.1751866665,
				"element": "H" 
			},
			{
				"x": 2.1599586112,
				"y": -1.4144797318,
				"z": -2.4022164557,
				"element": "H" 
			},
			{
				"x": 0.6739221381,
				"y": -1.3204019517,
				"z": -3.3690210663,
				"element": "H" 
			},
			{
				"x": -1.5591793556,
				"y": 1.8651160522,
				"z": -2.3408090772,
				"element": "H" 
			},
			{
				"x": -0.7504615988,
				"y": 0.7297732799,
				"z": -3.4542912253,
				"element": "H" 
			},
			{
				"x": 1.8699301414,
				"y": -1.3420188046,
				"z": 2.1676572918,
				"element": "H" 
			},
			{
				"x": 2.2056731965,
				"y": -1.1567685635,
				"z": 4.6166874256,
				"element": "H" 
			},
			{
				"x": 0.8516564784,
				"y": 0.4518359052,
				"z": 5.9419207931,
				"element": "H" 
			},
			{
				"x": -0.8417515271,
				"y": 1.8743339753,
				"z": 4.8048865863,
				"element": "H" 
			},
			{
				"x": -1.1750112154,
				"y": 1.6828676376,
				"z": 2.3452919978,
				"element": "H" 
			}
		],
		 "valence_orbital": [ 
			{
				"type": "occ",
				"energy": -0.29075,
				"method": "rhf"
			},
			{
				"type": "occ",
				"energy": -0.28899,
				"method": "rhf"
			},
			{
				"type": "occ",
				"energy": -0.27871,
				"method": "rhf"
			},
			{
				"type": "occ",
				"energy": -0.25726,
				"method": "rhf"
			},
			{
				"type": "occ",
				"energy": -0.22079,
				"method": "rhf"
			},
			{
				"type": "unocc",
				"energy": -0.04397,
				"method": "rhf"
			},
			{
				"type": "unocc",
				"energy": -0.01123,
				"method": "rhf"
			},
			{
				"type": "unocc",
				"energy": -0.00476,
				"method": "rhf"
			},
			{
				"type": "unocc",
				"energy": 0.0507,
				"method": "rhf"
			},
			{
				"type": "unocc",
				"energy": 0.07264,
				"method": "rhf"
			}
		],
		"cosmo_sigma_profile": { 
			"-0.025": 0.0,
			"-0.024": 0.0,
			"-0.023": 0.0,
			"-0.022": 0.0,
			"-0.021": 0.0,
			"-0.02": 0.0,
			"-0.019": 0.0,
			"-0.018": 0.0,
			"-0.017": 0.0,
			"-0.016": 0.0,
			"-0.015": 0.0,
			"-0.014": 0.0,
			"-0.013": 0.0,
			"-0.012": 0.0,
			"-0.011": 0.0,
			"-0.01": 0.0,
			"-0.009": 0.320454135956,
			"-0.008": 4.19979504929,
			"-0.007": 5.75352283716,
			"-0.006": 14.5301669181,
			"-0.005": 19.1525108409,
			"-0.004": 21.2925931571,
			"-0.003": 15.861861441,
			"-0.002": 19.1476766979,
			"-0.001": 18.8430992836,
			"0.0": 16.3874313434,
			"0.001": 17.097576737,
			"0.002": 16.380053012,
			"0.003": 17.3368198353,
			"0.004": 19.7447169567,
			"0.005": 13.3425924959,
			"0.006": 10.709206164,
			"0.007": 9.25012064118,
			"0.008": 2.05346821769,
			"0.009": 1.03614549874,
			"0.01": 1.27826815409,
			"0.011": 0.950629601213,
			"0.012": 0.472291226107,
			"0.013": 0.85699810891,
			"0.014": 0.388538614677,
			"0.015": 0.0,
			"0.016": 0.0,
			"0.017": 0.0,
			"0.018": 0.0,
			"0.019": 0.0,
			"0.02": 0.0,
			"0.021": 0.0,
			"0.022": 0.0,
			"0.023": 0.0,
			"0.024": 0.0,
			"0.025": 0.0
		}
	}
}
