{
	 "smiles": "N#CCC1=C2N=CC=CC2=CC=C1", 
	 "Tm": 358.15, 
	 "num_atms": 21, 
	 "gaussian": { 
		 "optdone": 1, 
		 "sigma_profile": "yes", 
		 "theory": "DFT", 
		 "functional": "B3LYP", 
		 "basiset": "6-31G**", 
		 "properties": { 
			 "R2extent": 2821.1315, 
			 "electric_dipole_moment_norm": 5.34007045085, 
			 "electric_quadrupole_moment_norm": 15.7347028167, 
			 "total_energy": -533.486935981, 
			 "HOMO_LUMO_gap": 0.1766, 
			 "cosmo_polarized_energy": -10.3, 
			 "cosmo_cavitation_energy": 25.91, 
			 "cosmo_dispersion_energy": -18.7, 
			 "cosmo_repulsion_energy": 1.45, 
			 "cosmo_total_nonelectrostatic_energy": 8.66, 
			 "SMD_solvation_energy": 4.55 
		},
		"coords": [
			{
				"x": -0.9270108426,
				"y": 2.9265678616,
				"z": -3.8575329609,
				"element": "N" 
			},
			{
				"x": -0.3207803283,
				"y": 2.3720000122,
				"z": -3.0376883939,
				"element": "C" 
			},
			{
				"x": 0.4402860777,
				"y": 1.6704743078,
				"z": -2.0029689276,
				"element": "C" 
			},
			{
				"x": -0.0807741138,
				"y": 0.278775401,
				"z": -1.6811937282,
				"element": "C" 
			},
			{
				"x": 0.6147222614,
				"y": -0.4651982719,
				"z": -0.6776652313,
				"element": "C" 
			},
			{
				"x": 1.6928054398,
				"y": 0.1145126971,
				"z": -0.0762139853,
				"element": "N" 
			},
			{
				"x": 2.3327391396,
				"y": -0.5737716581,
				"z": 0.8494043625,
				"element": "C" 
			},
			{
				"x": 1.9694983944,
				"y": -1.8798077325,
				"z": 1.2583893566,
				"element": "C" 
			},
			{
				"x": 0.884538001,
				"y": -2.4784789113,
				"z": 0.6614022918,
				"element": "C" 
			},
			{
				"x": 0.1629092096,
				"y": -1.7800802283,
				"z": -0.3394324146,
				"element": "C" 
			},
			{
				"x": -0.9673708661,
				"y": -2.324011051,
				"z": -1.0049703361,
				"element": "C" 
			},
			{
				"x": -1.6185993754,
				"y": -1.5881873464,
				"z": -1.9660748991,
				"element": "C" 
			},
			{
				"x": -1.1736312477,
				"y": -0.285328063,
				"z": -2.3035690526,
				"element": "C" 
			},
			{
				"x": 0.448925396,
				"y": 2.2832264376,
				"z": -1.0939857781,
				"element": "H" 
			},
			{
				"x": 1.4896420419,
				"y": 1.6113816044,
				"z": -2.3146816725,
				"element": "H" 
			},
			{
				"x": 3.1891731332,
				"y": -0.0836027936,
				"z": 1.3110467084,
				"element": "H" 
			},
			{
				"x": 2.5439649484,
				"y": -2.3857055093,
				"z": 2.0276583586,
				"element": "H" 
			},
			{
				"x": 0.5695967638,
				"y": -3.47989821,
				"z": 0.9438933468,
				"element": "H" 
			},
			{
				"x": -1.3051018427,
				"y": -3.3232348662,
				"z": -0.7431085436,
				"element": "H" 
			},
			{
				"x": -2.4833213344,
				"y": -1.9998218439,
				"z": -2.4776064526,
				"element": "H" 
			},
			{
				"x": -1.7054108557,
				"y": 0.2754881638,
				"z": -3.0663020484,
				"element": "H" 
			}
		],
		 "valence_orbital": [ 
			{
				"type": "occ",
				"energy": -0.32474,
				"method": "rhf"
			},
			{
				"type": "occ",
				"energy": -0.30931,
				"method": "rhf"
			},
			{
				"type": "occ",
				"energy": -0.26696,
				"method": "rhf"
			},
			{
				"type": "occ",
				"energy": -0.26237,
				"method": "rhf"
			},
			{
				"type": "occ",
				"energy": -0.24143,
				"method": "rhf"
			},
			{
				"type": "unocc",
				"energy": -0.06483,
				"method": "rhf"
			},
			{
				"type": "unocc",
				"energy": -0.0279,
				"method": "rhf"
			},
			{
				"type": "unocc",
				"energy": 0.0098,
				"method": "rhf"
			},
			{
				"type": "unocc",
				"energy": 0.03835,
				"method": "rhf"
			},
			{
				"type": "unocc",
				"energy": 0.04565,
				"method": "rhf"
			}
		],
		"cosmo_sigma_profile": { 
			"-0.025": 0.0,
			"-0.024": 0.0,
			"-0.023": 0.0,
			"-0.022": 0.0,
			"-0.021": 0.0,
			"-0.02": 0.0,
			"-0.019": 0.0,
			"-0.018": 0.0,
			"-0.017": 0.0,
			"-0.016": 0.0,
			"-0.015": 0.0,
			"-0.014": 0.0,
			"-0.013": 0.0,
			"-0.012": 0.0,
			"-0.011": 0.0,
			"-0.01": 0.0,
			"-0.009": 0.651256402556,
			"-0.008": 4.4450493538,
			"-0.007": 11.3357170857,
			"-0.006": 16.5591725375,
			"-0.005": 16.1575534865,
			"-0.004": 14.0694228921,
			"-0.003": 10.6803710943,
			"-0.002": 13.1192689636,
			"-0.001": 12.0687273978,
			"0.0": 11.9944706374,
			"0.001": 19.4608457503,
			"0.002": 21.3892561749,
			"0.003": 16.1596990413,
			"0.004": 8.92817512811,
			"0.005": 4.10287080177,
			"0.006": 3.36308566291,
			"0.007": 4.03285252169,
			"0.008": 4.08701027861,
			"0.009": 4.92478318388,
			"0.01": 3.30589785713,
			"0.011": 3.42665763646,
			"0.012": 2.91869793895,
			"0.013": 2.05327218819,
			"0.014": 0.15259255253,
			"0.015": 0.0,
			"0.016": 0.0,
			"0.017": 0.0,
			"0.018": 0.0,
			"0.019": 0.0,
			"0.02": 0.0,
			"0.021": 0.0,
			"0.022": 0.0,
			"0.023": 0.0,
			"0.024": 0.0,
			"0.025": 0.0
		}
	}
}
