{
	 "smiles": "FC1=C(Cl)C=C(C=C1)N1CCC(Br)C1=O", 
	 "Tm": 373.15, 
	 "num_atms": 23, 
	 "gaussian": { 
		 "optdone": 1, 
		 "sigma_profile": "yes", 
		 "theory": "DFT", 
		 "functional": "B3LYP", 
		 "basiset": "6-31G**", 
		 "properties": { 
			 "R2extent": 7013.912, 
			 "electric_dipole_moment_norm": 5.7443746335, 
			 "electric_quadrupole_moment_norm": 7.62938322212, 
			 "total_energy": -3647.30528276, 
			 "HOMO_LUMO_gap": 0.17835, 
			 "cosmo_polarized_energy": -12.78, 
			 "cosmo_cavitation_energy": 31.08, 
			 "cosmo_dispersion_energy": -23.12, 
			 "cosmo_repulsion_energy": 1.78, 
			 "cosmo_total_nonelectrostatic_energy": 9.75, 
			 "SMD_solvation_energy": 4.18 
		},
		"coords": [
			{
				"x": -3.105644752,
				"y": -3.2126461632,
				"z": 0.9162100811,
				"element": "F" 
			},
			{
				"x": -2.3276993702,
				"y": -2.1914602083,
				"z": 0.5251798288,
				"element": "C" 
			},
			{
				"x": -2.6479056801,
				"y": -0.8832128158,
				"z": 0.8913396498,
				"element": "C" 
			},
			{
				"x": -4.0678595207,
				"y": -0.5895407472,
				"z": 1.8636037944,
				"element": "Cl" 
			},
			{
				"x": -1.8440041289,
				"y": 0.179996741,
				"z": 0.492177319,
				"element": "C" 
			},
			{
				"x": -0.7001832518,
				"y": -0.0647905763,
				"z": -0.2892292575,
				"element": "C" 
			},
			{
				"x": -0.390728987,
				"y": -1.3855873102,
				"z": -0.6555946958,
				"element": "C" 
			},
			{
				"x": -1.2026924511,
				"y": -2.4410506001,
				"z": -0.2471051288,
				"element": "C" 
			},
			{
				"x": 0.1473584844,
				"y": 0.9905644605,
				"z": -0.7022818993,
				"element": "N" 
			},
			{
				"x": 1.4404981537,
				"y": 0.7294537827,
				"z": -1.3488299804,
				"element": "C" 
			},
			{
				"x": 2.1378854123,
				"y": 2.0976761454,
				"z": -1.3188531922,
				"element": "C" 
			},
			{
				"x": 0.9794084402,
				"y": 3.0795027729,
				"z": -1.3722269305,
				"element": "C" 
			},
			{
				"x": 0.4215725679,
				"y": 3.4391157062,
				"z": -3.2534915514,
				"element": "Br" 
			},
			{
				"x": -0.1673044306,
				"y": 2.3422696842,
				"z": -0.6787462949,
				"element": "C" 
			},
			{
				"x": -1.1543492939,
				"y": 2.8652909983,
				"z": -0.1956235693,
				"element": "O" 
			},
			{
				"x": -2.1040295758,
				"y": 1.1902792945,
				"z": 0.7713811857,
				"element": "H" 
			},
			{
				"x": 0.4730659294,
				"y": -1.6042207891,
				"z": -1.2706264485,
				"element": "H" 
			},
			{
				"x": -0.9748387654,
				"y": -3.463888964,
				"z": -0.5263220749,
				"element": "H" 
			},
			{
				"x": 1.9980351176,
				"y": -0.0299217649,
				"z": -0.7942808654,
				"element": "H" 
			},
			{
				"x": 1.2946712904,
				"y": 0.3748570265,
				"z": -2.3769501458,
				"element": "H" 
			},
			{
				"x": 2.8635378673,
				"y": 2.2244729085,
				"z": -2.1227785693,
				"element": "H" 
			},
			{
				"x": 2.6559716698,
				"y": 2.2276548568,
				"z": -0.3609445512,
				"element": "H" 
			},
			{
				"x": 1.1518352744,
				"y": 4.0610855616,
				"z": -0.9389067035,
				"element": "H" 
			}
		],
		 "valence_orbital": [ 
			{
				"type": "occ",
				"energy": -0.29471,
				"method": "rhf"
			},
			{
				"type": "occ",
				"energy": -0.28864,
				"method": "rhf"
			},
			{
				"type": "occ",
				"energy": -0.2674,
				"method": "rhf"
			},
			{
				"type": "occ",
				"energy": -0.26002,
				"method": "rhf"
			},
			{
				"type": "occ",
				"energy": -0.23147,
				"method": "rhf"
			},
			{
				"type": "unocc",
				"energy": -0.05312,
				"method": "rhf"
			},
			{
				"type": "unocc",
				"energy": -0.02583,
				"method": "rhf"
			},
			{
				"type": "unocc",
				"energy": -0.0051,
				"method": "rhf"
			},
			{
				"type": "unocc",
				"energy": 0.02346,
				"method": "rhf"
			},
			{
				"type": "unocc",
				"energy": 0.04227,
				"method": "rhf"
			}
		],
		"cosmo_sigma_profile": { 
			"-0.025": 0.0,
			"-0.024": 0.0,
			"-0.023": 0.0,
			"-0.022": 0.0,
			"-0.021": 0.0,
			"-0.02": 0.0,
			"-0.019": 0.0,
			"-0.018": 0.0,
			"-0.017": 0.0,
			"-0.016": 0.0,
			"-0.015": 0.0,
			"-0.014": 0.0,
			"-0.013": 0.0,
			"-0.012": 0.0,
			"-0.011": 0.0,
			"-0.01": 0.035627554742,
			"-0.009": 2.02677504306,
			"-0.008": 8.0822441602,
			"-0.007": 12.2611246146,
			"-0.006": 16.9144599047,
			"-0.005": 13.8173912962,
			"-0.004": 13.3317055721,
			"-0.003": 13.2101220775,
			"-0.002": 11.9786341199,
			"-0.001": 16.8290582507,
			"0.0": 19.7046013968,
			"0.001": 23.7540491156,
			"0.002": 23.1614246509,
			"0.003": 20.6241341873,
			"0.004": 25.1018741131,
			"0.005": 15.8308688304,
			"0.006": 4.11389908538,
			"0.007": 1.97841167261,
			"0.008": 1.33791819828,
			"0.009": 1.88946274413,
			"0.01": 1.53441527466,
			"0.011": 2.75924471445,
			"0.012": 2.91533782229,
			"0.013": 0.995350145304,
			"0.014": 0.0,
			"0.015": 0.0,
			"0.016": 0.0,
			"0.017": 0.0,
			"0.018": 0.0,
			"0.019": 0.0,
			"0.02": 0.0,
			"0.021": 0.0,
			"0.022": 0.0,
			"0.023": 0.0,
			"0.024": 0.0,
			"0.025": 0.0
		}
	}
}
