{
	 "smiles": "CC(=O)C1=CSC(=N1)C1=CC=C(C=C1)C(F)(F)F", 
	 "Tm": 339.15, 
	 "num_atms": 26, 
	 "gaussian": { 
		 "optdone": 1, 
		 "sigma_profile": "yes", 
		 "theory": "DFT", 
		 "functional": "B3LYP", 
		 "basiset": "6-31G**", 
		 "properties": { 
			 "R2extent": 8031.2044, 
			 "electric_dipole_moment_norm": 0.97075692117, 
			 "electric_quadrupole_moment_norm": 20.8510802854, 
			 "total_energy": -1289.79164991, 
			 "HOMO_LUMO_gap": 0.16528, 
			 "cosmo_polarized_energy": -9.36, 
			 "cosmo_cavitation_energy": 34.52, 
			 "cosmo_dispersion_energy": -24.81, 
			 "cosmo_repulsion_energy": 1.79, 
			 "cosmo_total_nonelectrostatic_energy": 11.5, 
			 "SMD_solvation_energy": 6.74 
		},
		"coords": [
			{
				"x": -2.3237972839,
				"y": -3.3537600539,
				"z": 0.3206789624,
				"element": "C" 
			},
			{
				"x": -1.909054678,
				"y": -2.9892344351,
				"z": 1.7289913144,
				"element": "C" 
			},
			{
				"x": -2.3763129148,
				"y": -3.5347681483,
				"z": 2.7162521082,
				"element": "O" 
			},
			{
				"x": -0.8844714808,
				"y": -1.9141852825,
				"z": 1.883294992,
				"element": "C" 
			},
			{
				"x": -0.4239588331,
				"y": -1.4913863932,
				"z": 3.1063552425,
				"element": "C" 
			},
			{
				"x": 0.7436145898,
				"y": -0.2469078936,
				"z": 2.9043485177,
				"element": "S" 
			},
			{
				"x": 0.53722628,
				"y": -0.3735869265,
				"z": 1.1454906213,
				"element": "C" 
			},
			{
				"x": -0.3361041069,
				"y": -1.2779662385,
				"z": 0.7947499893,
				"element": "N" 
			},
			{
				"x": 1.2833256454,
				"y": 0.4655343968,
				"z": 0.197975322,
				"element": "C" 
			},
			{
				"x": 1.0521274479,
				"y": 0.3061420209,
				"z": -1.1800872252,
				"element": "C" 
			},
			{
				"x": 1.7409353371,
				"y": 1.0820607892,
				"z": -2.1041107614,
				"element": "C" 
			},
			{
				"x": 2.6730685175,
				"y": 2.0296200721,
				"z": -1.6686234912,
				"element": "C" 
			},
			{
				"x": 2.9120036292,
				"y": 2.1954827471,
				"z": -0.3023661883,
				"element": "C" 
			},
			{
				"x": 2.2225582485,
				"y": 1.418397285,
				"z": 0.6230143428,
				"element": "C" 
			},
			{
				"x": 3.3747637893,
				"y": 2.9081702735,
				"z": -2.6692603603,
				"element": "C" 
			},
			{
				"x": 4.579561979,
				"y": 3.3208985508,
				"z": -2.2182889097,
				"element": "F" 
			},
			{
				"x": 3.5739750051,
				"y": 2.2699788871,
				"z": -3.8431834592,
				"element": "F" 
			},
			{
				"x": 2.6546376386,
				"y": 4.0204353109,
				"z": -2.943902541,
				"element": "F" 
			},
			{
				"x": -1.4552198344,
				"y": -3.681659455,
				"z": -0.259915523,
				"element": "H" 
			},
			{
				"x": -3.0712316248,
				"y": -4.1466300924,
				"z": 0.3618316311,
				"element": "H" 
			},
			{
				"x": -2.7290137717,
				"y": -2.4776966169,
				"z": -0.1963981996,
				"element": "H" 
			},
			{
				"x": -0.7247620807,
				"y": -1.8599477742,
				"z": 4.0761769853,
				"element": "H" 
			},
			{
				"x": 0.3300067515,
				"y": -0.4337377127,
				"z": -1.5053637098,
				"element": "H" 
			},
			{
				"x": 1.5637454697,
				"y": 0.948868496,
				"z": -3.1658801883,
				"element": "H" 
			},
			{
				"x": 3.641296878,
				"y": 2.9240355393,
				"z": 0.0339326036,
				"element": "H" 
			},
			{
				"x": 2.4237794025,
				"y": 1.557042654,
				"z": 1.6812879245,
				"element": "H" 
			}
		],
		 "valence_orbital": [ 
			{
				"type": "occ",
				"energy": -0.29804,
				"method": "rhf"
			},
			{
				"type": "occ",
				"energy": -0.29789,
				"method": "rhf"
			},
			{
				"type": "occ",
				"energy": -0.27898,
				"method": "rhf"
			},
			{
				"type": "occ",
				"energy": -0.25547,
				"method": "rhf"
			},
			{
				"type": "occ",
				"energy": -0.24439,
				"method": "rhf"
			},
			{
				"type": "unocc",
				"energy": -0.07911,
				"method": "rhf"
			},
			{
				"type": "unocc",
				"energy": -0.0549,
				"method": "rhf"
			},
			{
				"type": "unocc",
				"energy": -0.02752,
				"method": "rhf"
			},
			{
				"type": "unocc",
				"energy": 0.00124,
				"method": "rhf"
			},
			{
				"type": "unocc",
				"energy": 0.0112,
				"method": "rhf"
			}
		],
		"cosmo_sigma_profile": { 
			"-0.025": 0.0,
			"-0.024": 0.0,
			"-0.023": 0.0,
			"-0.022": 0.0,
			"-0.021": 0.0,
			"-0.02": 0.0,
			"-0.019": 0.0,
			"-0.018": 0.0,
			"-0.017": 0.0,
			"-0.016": 0.0,
			"-0.015": 0.0,
			"-0.014": 0.0,
			"-0.013": 0.0,
			"-0.012": 0.0,
			"-0.011": 0.084398498334,
			"-0.01": 1.32790723007,
			"-0.009": 1.37730712767,
			"-0.008": 4.08024907583,
			"-0.007": 7.13216345258,
			"-0.006": 11.917715789,
			"-0.005": 15.4234825613,
			"-0.004": 14.7640086602,
			"-0.003": 15.3167450517,
			"-0.002": 22.3130573357,
			"-0.001": 25.2456428584,
			"0.0": 30.4184656065,
			"0.001": 31.4367206384,
			"0.002": 38.3158764743,
			"0.003": 31.517048496,
			"0.004": 4.88924721199,
			"0.005": 3.6999021687,
			"0.006": 3.4206950694,
			"0.007": 3.34334759572,
			"0.008": 1.66961471009,
			"0.009": 1.89835928565,
			"0.01": 2.48298184381,
			"0.011": 3.38547289997,
			"0.012": 3.36780950508,
			"0.013": 1.2009662402,
			"0.014": 0.0280593512689,
			"0.015": 0.0,
			"0.016": 0.0,
			"0.017": 0.0,
			"0.018": 0.0,
			"0.019": 0.0,
			"0.02": 0.0,
			"0.021": 0.0,
			"0.022": 0.0,
			"0.023": 0.0,
			"0.024": 0.0,
			"0.025": 0.0
		}
	}
}
