{
	 "smiles": "CC1(C)C2CCC1(C)C(=O)C2=CC(CC1=CC=CC=C1)C(O)=O", 
	 "Tm": 400.15, 
	 "num_atms": 47, 
	 "gaussian": { 
		 "optdone": 1, 
		 "sigma_profile": "yes", 
		 "theory": "DFT", 
		 "functional": "B3LYP", 
		 "basiset": "6-31G**", 
		 "properties": { 
			 "R2extent": 8857.8443, 
			 "electric_dipole_moment_norm": 3.44893225506, 
			 "electric_quadrupole_moment_norm": 18.184948722, 
			 "total_energy": -1002.26784226, 
			 "HOMO_LUMO_gap": 0.18293, 
			 "cosmo_polarized_energy": -18.23, 
			 "cosmo_cavitation_energy": 46.78, 
			 "cosmo_dispersion_energy": -30.53, 
			 "cosmo_repulsion_energy": 2.3, 
			 "cosmo_total_nonelectrostatic_energy": 18.55, 
			 "SMD_solvation_energy": 8.74 
		},
		"coords": [
			{
				"x": -0.5721084914,
				"y": 3.890937527,
				"z": -0.9277655136,
				"element": "C" 
			},
			{
				"x": 0.2800912325,
				"y": 2.7163747552,
				"z": -0.420638234,
				"element": "C" 
			},
			{
				"x": 1.7553388959,
				"y": 3.1518111145,
				"z": -0.4717219278,
				"element": "C" 
			},
			{
				"x": 0.0064294372,
				"y": 1.3617865742,
				"z": -1.1624956291,
				"element": "C" 
			},
			{
				"x": -1.4804666465,
				"y": 1.0756870627,
				"z": -0.809671918,
				"element": "C" 
			},
			{
				"x": -1.5854487175,
				"y": 1.575363086,
				"z": 0.6635244961,
				"element": "C" 
			},
			{
				"x": -0.1618181418,
				"y": 2.1520909164,
				"z": 0.9817447072,
				"element": "C" 
			},
			{
				"x": -0.087585477,
				"y": 3.0433274468,
				"z": 2.2085075274,
				"element": "C" 
			},
			{
				"x": 0.707002793,
				"y": 0.8887329978,
				"z": 1.0666843177,
				"element": "C" 
			},
			{
				"x": 1.1659363391,
				"y": 0.3892836283,
				"z": 2.0839412546,
				"element": "O" 
			},
			{
				"x": 0.8314957981,
				"y": 0.3889196422,
				"z": -0.3406365762,
				"element": "C" 
			},
			{
				"x": 1.5412604833,
				"y": -0.6676423344,
				"z": -0.7629608081,
				"element": "C" 
			},
			{
				"x": 2.3482532573,
				"y": -1.5768700705,
				"z": 0.1267941483,
				"element": "C" 
			},
			{
				"x": 1.4824244684,
				"y": -2.7360562135,
				"z": 0.7366061907,
				"element": "C" 
			},
			{
				"x": 0.8241354044,
				"y": -3.650699581,
				"z": -0.2735541617,
				"element": "C" 
			},
			{
				"x": 1.539526694,
				"y": -4.7001792046,
				"z": -0.8684227389,
				"element": "C" 
			},
			{
				"x": 0.9346138942,
				"y": -5.5330301934,
				"z": -1.8098151796,
				"element": "C" 
			},
			{
				"x": -0.3994459823,
				"y": -5.3327829527,
				"z": -2.1699932721,
				"element": "C" 
			},
			{
				"x": -1.1242298335,
				"y": -4.2959261313,
				"z": -1.5806858237,
				"element": "C" 
			},
			{
				"x": -0.5154658552,
				"y": -3.4635282805,
				"z": -0.6400025199,
				"element": "C" 
			},
			{
				"x": 3.5546932739,
				"y": -2.1296079008,
				"z": -0.6349888452,
				"element": "C" 
			},
			{
				"x": 4.4652874453,
				"y": -2.7948774484,
				"z": 0.1302902743,
				"element": "O" 
			},
			{
				"x": 3.7332791422,
				"y": -2.0291349152,
				"z": -1.8229527843,
				"element": "O" 
			},
			{
				"x": -0.3044719221,
				"y": 4.1282927031,
				"z": -1.9636947533,
				"element": "H" 
			},
			{
				"x": -0.3808576765,
				"y": 4.7881032192,
				"z": -0.3292880463,
				"element": "H" 
			},
			{
				"x": -1.6469602053,
				"y": 3.7017947777,
				"z": -0.9009113966,
				"element": "H" 
			},
			{
				"x": 1.917226131,
				"y": 4.0435808392,
				"z": 0.1430068189,
				"element": "H" 
			},
			{
				"x": 2.4445724729,
				"y": 2.3779585024,
				"z": -0.1235316519,
				"element": "H" 
			},
			{
				"x": 2.0410733349,
				"y": 3.4057766846,
				"z": -1.4984629854,
				"element": "H" 
			},
			{
				"x": 0.2305923947,
				"y": 1.351539982,
				"z": -2.2325306479,
				"element": "H" 
			},
			{
				"x": -1.7161841005,
				"y": 0.0131624546,
				"z": -0.9135181135,
				"element": "H" 
			},
			{
				"x": -2.1572533457,
				"y": 1.6231170303,
				"z": -1.4718277178,
				"element": "H" 
			},
			{
				"x": -1.8579519941,
				"y": 0.7808694326,
				"z": 1.3652577402,
				"element": "H" 
			},
			{
				"x": -2.3340552359,
				"y": 2.3656139648,
				"z": 0.7756764117,
				"element": "H" 
			},
			{
				"x": -0.3423100939,
				"y": 2.4731563929,
				"z": 3.1070288206,
				"element": "H" 
			},
			{
				"x": 0.921988981,
				"y": 3.4399914425,
				"z": 2.354535143,
				"element": "H" 
			},
			{
				"x": -0.7803391423,
				"y": 3.8872884341,
				"z": 2.1290738591,
				"element": "H" 
			},
			{
				"x": 1.5716966685,
				"y": -0.9056849011,
				"z": -1.8238267935,
				"element": "H" 
			},
			{
				"x": 2.7105849063,
				"y": -1.0020497622,
				"z": 0.9874368222,
				"element": "H" 
			},
			{
				"x": 2.1156047926,
				"y": -3.3278792004,
				"z": 1.4102545655,
				"element": "H" 
			},
			{
				"x": 0.7306249443,
				"y": -2.25532688,
				"z": 1.3676765773,
				"element": "H" 
			},
			{
				"x": 2.5774139143,
				"y": -4.8679367566,
				"z": -0.5922397876,
				"element": "H" 
			},
			{
				"x": 1.5054538564,
				"y": -6.3402235219,
				"z": -2.2597688365,
				"element": "H" 
			},
			{
				"x": -0.8714679232,
				"y": -5.9831716423,
				"z": -2.9007581593,
				"element": "H" 
			},
			{
				"x": -2.1650431053,
				"y": -4.1370254024,
				"z": -1.8488251792,
				"element": "H" 
			},
			{
				"x": -1.0868076243,
				"y": -2.6627228674,
				"z": -0.1774255402,
				"element": "H" 
			},
			{
				"x": 4.2105705588,
				"y": -2.7545044507,
				"z": 1.0633758667,
				"element": "H" 
			}
		],
		 "valence_orbital": [ 
			{
				"type": "occ",
				"energy": -0.27042,
				"method": "rhf"
			},
			{
				"type": "occ",
				"energy": -0.26084,
				"method": "rhf"
			},
			{
				"type": "occ",
				"energy": -0.24878,
				"method": "rhf"
			},
			{
				"type": "occ",
				"energy": -0.24298,
				"method": "rhf"
			},
			{
				"type": "occ",
				"energy": -0.23969,
				"method": "rhf"
			},
			{
				"type": "unocc",
				"energy": -0.05676,
				"method": "rhf"
			},
			{
				"type": "unocc",
				"energy": -0.00765,
				"method": "rhf"
			},
			{
				"type": "unocc",
				"energy": -0.00175,
				"method": "rhf"
			},
			{
				"type": "unocc",
				"energy": 0.01423,
				"method": "rhf"
			},
			{
				"type": "unocc",
				"energy": 0.05,
				"method": "rhf"
			}
		],
		"cosmo_sigma_profile": { 
			"-0.025": 0.0,
			"-0.024": 0.0,
			"-0.023": 0.0,
			"-0.022": 0.0,
			"-0.021": 0.0,
			"-0.02": 0.0,
			"-0.019": 0.474004227457,
			"-0.018": 1.14206859032,
			"-0.017": 0.713213230662,
			"-0.016": 1.06504457675,
			"-0.015": 1.35234334873,
			"-0.014": 1.21963088591,
			"-0.013": 0.866555945931,
			"-0.012": 1.15856818304,
			"-0.011": 1.16426104879,
			"-0.01": 1.10734069848,
			"-0.009": 0.770378718339,
			"-0.008": 1.78586834781,
			"-0.007": 1.86476891596,
			"-0.006": 4.57941919291,
			"-0.005": 12.8676139724,
			"-0.004": 25.8553151596,
			"-0.003": 45.5418555937,
			"-0.002": 47.760215766,
			"-0.001": 43.3438703318,
			"0.0": 37.6712285325,
			"0.001": 32.3360227679,
			"0.002": 16.5380771169,
			"0.003": 11.0251847207,
			"0.004": 11.6884614689,
			"0.005": 13.4539761095,
			"0.006": 11.7132212236,
			"0.007": 4.45049781427,
			"0.008": 3.64900290758,
			"0.009": 5.59496846455,
			"0.01": 6.28755893756,
			"0.011": 8.44490287502,
			"0.012": 6.57569516121,
			"0.013": 1.78814151511,
			"0.014": 0.0,
			"0.015": 0.0,
			"0.016": 0.0,
			"0.017": 0.0,
			"0.018": 0.0,
			"0.019": 0.0,
			"0.02": 0.0,
			"0.021": 0.0,
			"0.022": 0.0,
			"0.023": 0.0,
			"0.024": 0.0,
			"0.025": 0.0
		}
	}
}
