{
	 "smiles": "CN1C=C2C=C(C=CC2=N1)[N+]([O-])=O", 
	 "Tm": 402.15, 
	 "num_atms": 20, 
	 "gaussian": { 
		 "optdone": 1, 
		 "sigma_profile": "yes", 
		 "theory": "DFT", 
		 "functional": "B3LYP", 
		 "basiset": "6-31G**", 
		 "properties": { 
			 "R2extent": 3312.6748, 
			 "electric_dipole_moment_norm": 6.92588381797, 
			 "electric_quadrupole_moment_norm": 10.8979440318, 
			 "total_energy": -623.653271111, 
			 "HOMO_LUMO_gap": 0.14849, 
			 "cosmo_polarized_energy": -13.71, 
			 "cosmo_cavitation_energy": 25.18, 
			 "cosmo_dispersion_energy": -18.79, 
			 "cosmo_repulsion_energy": 1.46, 
			 "cosmo_total_nonelectrostatic_energy": 7.85, 
			 "SMD_solvation_energy": 5.88 
		},
		"coords": [
			{
				"x": 2.2787200535,
				"y": -2.7177627628,
				"z": 0.844361851,
				"element": "C" 
			},
			{
				"x": 1.7327669622,
				"y": -1.4136974658,
				"z": 0.5020751195,
				"element": "N" 
			},
			{
				"x": 0.8222402879,
				"y": -1.1409174231,
				"z": -0.4570047557,
				"element": "C" 
			},
			{
				"x": 0.6125965674,
				"y": 0.2433186612,
				"z": -0.4080335216,
				"element": "C" 
			},
			{
				"x": -0.1906377467,
				"y": 1.1592098162,
				"z": -1.1162354726,
				"element": "C" 
			},
			{
				"x": -0.0977706411,
				"y": 2.4824631402,
				"z": -0.7425532815,
				"element": "C" 
			},
			{
				"x": 0.7544250242,
				"y": 2.9468930257,
				"z": 0.3020222349,
				"element": "C" 
			},
			{
				"x": 1.5415945019,
				"y": 2.0642083289,
				"z": 0.9991069298,
				"element": "C" 
			},
			{
				"x": 1.4805133248,
				"y": 0.6889951149,
				"z": 0.6502554321,
				"element": "C" 
			},
			{
				"x": 2.158615561,
				"y": -0.3370756187,
				"z": 1.1965471156,
				"element": "N" 
			},
			{
				"x": -0.919085362,
				"y": 3.4660115957,
				"z": -1.4571588782,
				"element": "N" 
			},
			{
				"x": -1.6544625134,
				"y": 3.0595242066,
				"z": -2.3593407703,
				"element": "O" 
			},
			{
				"x": -0.8276825047,
				"y": 4.6459691317,
				"z": -1.1140192193,
				"element": "O" 
			},
			{
				"x": 3.3626521905,
				"y": -2.7056193126,
				"z": 0.7110483703,
				"element": "H" 
			},
			{
				"x": 2.0509155771,
				"y": -2.945884401,
				"z": 1.8878632152,
				"element": "H" 
			},
			{
				"x": 1.8345327836,
				"y": -3.4728618672,
				"z": 0.1950942421,
				"element": "H" 
			},
			{
				"x": 0.4026323509,
				"y": -1.9143078105,
				"z": -1.0825970947,
				"element": "H" 
			},
			{
				"x": -0.8568238381,
				"y": 0.866840871,
				"z": -1.9184597736,
				"element": "H" 
			},
			{
				"x": 0.7581898526,
				"y": 4.0064687647,
				"z": 0.5225661851,
				"element": "H" 
			},
			{
				"x": 2.1962675684,
				"y": 2.3977240048,
				"z": 1.7968620717,
				"element": "H" 
			}
		],
		 "valence_orbital": [ 
			{
				"type": "occ",
				"energy": -0.29846,
				"method": "rhf"
			},
			{
				"type": "occ",
				"energy": -0.29803,
				"method": "rhf"
			},
			{
				"type": "occ",
				"energy": -0.28007,
				"method": "rhf"
			},
			{
				"type": "occ",
				"energy": -0.26447,
				"method": "rhf"
			},
			{
				"type": "occ",
				"energy": -0.23038,
				"method": "rhf"
			},
			{
				"type": "unocc",
				"energy": -0.08189,
				"method": "rhf"
			},
			{
				"type": "unocc",
				"energy": -0.04317,
				"method": "rhf"
			},
			{
				"type": "unocc",
				"energy": 0.02714,
				"method": "rhf"
			},
			{
				"type": "unocc",
				"energy": 0.03311,
				"method": "rhf"
			},
			{
				"type": "unocc",
				"energy": 0.07596,
				"method": "rhf"
			}
		],
		"cosmo_sigma_profile": { 
			"-0.025": 0.0,
			"-0.024": 0.0,
			"-0.023": 0.0,
			"-0.022": 0.0,
			"-0.021": 0.0,
			"-0.02": 0.0,
			"-0.019": 0.0,
			"-0.018": 0.0,
			"-0.017": 0.0,
			"-0.016": 0.0,
			"-0.015": 0.0,
			"-0.014": 0.0,
			"-0.013": 0.0,
			"-0.012": 0.0,
			"-0.011": 0.668311927075,
			"-0.01": 3.46555376381,
			"-0.009": 2.78492328772,
			"-0.008": 4.87172525455,
			"-0.007": 11.0056971157,
			"-0.006": 12.6025446033,
			"-0.005": 13.6794194262,
			"-0.004": 15.9011697171,
			"-0.003": 11.9344255927,
			"-0.002": 9.22144770526,
			"-0.001": 11.7018046303,
			"0.0": 14.0859227528,
			"0.001": 18.2867256182,
			"0.002": 15.0921616355,
			"0.003": 9.45556487031,
			"0.004": 4.41009644622,
			"0.005": 4.28131241086,
			"0.006": 4.37402959598,
			"0.007": 6.82031909575,
			"0.008": 10.7660108593,
			"0.009": 6.21589237074,
			"0.01": 5.39964001163,
			"0.011": 1.99084028025,
			"0.012": 0.502349338074,
			"0.013": 1.24706275753,
			"0.014": 1.12677678956,
			"0.015": 0.634739939209,
			"0.016": 0.00170943426307,
			"0.017": 0.0,
			"0.018": 0.0,
			"0.019": 0.0,
			"0.02": 0.0,
			"0.021": 0.0,
			"0.022": 0.0,
			"0.023": 0.0,
			"0.024": 0.0,
			"0.025": 0.0
		}
	}
}
