{
	 "smiles": "CC1=NN2C(CCNC2=C1)C(F)(F)F", 
	 "Tm": 443.15, 
	 "num_atms": 24, 
	 "gaussian": { 
		 "optdone": 1, 
		 "sigma_profile": "yes", 
		 "theory": "DFT", 
		 "functional": "B3LYP", 
		 "basiset": "6-31G**", 
		 "properties": { 
			 "R2extent": 2977.3914, 
			 "electric_dipole_moment_norm": 3.71064897154, 
			 "electric_quadrupole_moment_norm": 6.85297974899, 
			 "total_energy": -774.646027355, 
			 "HOMO_LUMO_gap": 0.23331, 
			 "cosmo_polarized_energy": -11.6, 
			 "cosmo_cavitation_energy": 27.45, 
			 "cosmo_dispersion_energy": -19.97, 
			 "cosmo_repulsion_energy": 1.53, 
			 "cosmo_total_nonelectrostatic_energy": 9.0, 
			 "SMD_solvation_energy": 3.56 
		},
		"coords": [
			{
				"x": 0.7111347744,
				"y": 3.7190952753,
				"z": 2.6128584493,
				"element": "C" 
			},
			{
				"x": 0.4402191285,
				"y": 2.4592929289,
				"z": 1.848052744,
				"element": "C" 
			},
			{
				"x": -0.1943782882,
				"y": 2.5117575857,
				"z": 0.6816770339,
				"element": "N" 
			},
			{
				"x": -0.2716941954,
				"y": 1.2016405932,
				"z": 0.2774532772,
				"element": "N" 
			},
			{
				"x": -0.8530501599,
				"y": 0.8328336233,
				"z": -0.9910839957,
				"element": "C" 
			},
			{
				"x": -1.18174583,
				"y": -0.6727317678,
				"z": -0.9662033428,
				"element": "C" 
			},
			{
				"x": -0.042353984,
				"y": -1.5043610977,
				"z": -0.3642634134,
				"element": "C" 
			},
			{
				"x": 0.2332203844,
				"y": -1.0274375181,
				"z": 0.9908783266,
				"element": "N" 
			},
			{
				"x": 0.2997901956,
				"y": 0.345996271,
				"z": 1.177900578,
				"element": "C" 
			},
			{
				"x": 0.7781177505,
				"y": 1.1285368938,
				"z": 2.2149933518,
				"element": "C" 
			},
			{
				"x": 0.0659544827,
				"y": 1.2160385809,
				"z": -2.1623367087,
				"element": "C" 
			},
			{
				"x": 0.2376216937,
				"y": 2.5408247218,
				"z": -2.2538209106,
				"element": "F" 
			},
			{
				"x": 1.2894172602,
				"y": 0.6488013065,
				"z": -2.0602799773,
				"element": "F" 
			},
			{
				"x": -0.4806639429,
				"y": 0.7931844072,
				"z": -3.3291677736,
				"element": "F" 
			},
			{
				"x": 1.7858608905,
				"y": 3.8690047864,
				"z": 2.7662645799,
				"element": "H" 
			},
			{
				"x": 0.3179020814,
				"y": 4.5771616012,
				"z": 2.063400401,
				"element": "H" 
			},
			{
				"x": 0.241131169,
				"y": 3.695155577,
				"z": 3.6025963191,
				"element": "H" 
			},
			{
				"x": -1.7670857855,
				"y": 1.4174767056,
				"z": -1.137834729,
				"element": "H" 
			},
			{
				"x": -1.4041075407,
				"y": -1.0136946718,
				"z": -1.9794412729,
				"element": "H" 
			},
			{
				"x": -2.081544221,
				"y": -0.8117910722,
				"z": -0.3591325848,
				"element": "H" 
			},
			{
				"x": -0.3508931291,
				"y": -2.5525017583,
				"z": -0.3031559718,
				"element": "H" 
			},
			{
				"x": 0.8413921486,
				"y": -1.4507758469,
				"z": -1.0148824406,
				"element": "H" 
			},
			{
				"x": 0.9548251891,
				"y": -1.536309294,
				"z": 1.4830428432,
				"element": "H" 
			},
			{
				"x": 1.274029928,
				"y": 0.7895021688,
				"z": 3.1124852172,
				"element": "H" 
			}
		],
		 "valence_orbital": [ 
			{
				"type": "occ",
				"energy": -0.35266,
				"method": "rhf"
			},
			{
				"type": "occ",
				"energy": -0.30335,
				"method": "rhf"
			},
			{
				"type": "occ",
				"energy": -0.27345,
				"method": "rhf"
			},
			{
				"type": "occ",
				"energy": -0.23281,
				"method": "rhf"
			},
			{
				"type": "occ",
				"energy": -0.19601,
				"method": "rhf"
			},
			{
				"type": "unocc",
				"energy": 0.0373,
				"method": "rhf"
			},
			{
				"type": "unocc",
				"energy": 0.07187,
				"method": "rhf"
			},
			{
				"type": "unocc",
				"energy": 0.07582,
				"method": "rhf"
			},
			{
				"type": "unocc",
				"energy": 0.09729,
				"method": "rhf"
			},
			{
				"type": "unocc",
				"energy": 0.11701,
				"method": "rhf"
			}
		],
		"cosmo_sigma_profile": { 
			"-0.025": 0.0,
			"-0.024": 0.0,
			"-0.023": 0.0,
			"-0.022": 0.0,
			"-0.021": 0.0,
			"-0.02": 0.0,
			"-0.019": 0.0,
			"-0.018": 0.0,
			"-0.017": 0.0,
			"-0.016": 0.0,
			"-0.015": 0.0,
			"-0.014": 0.380507816835,
			"-0.013": 1.47327642773,
			"-0.012": 1.44307401398,
			"-0.011": 0.907195748165,
			"-0.01": 1.05902465171,
			"-0.009": 2.30955478471,
			"-0.008": 3.88586285089,
			"-0.007": 3.12035925279,
			"-0.006": 7.80497766313,
			"-0.005": 13.8821559164,
			"-0.004": 18.74261282,
			"-0.003": 18.4778440013,
			"-0.002": 15.1085487975,
			"-0.001": 13.9153080469,
			"0.0": 15.0181285973,
			"0.001": 12.6746914623,
			"0.002": 22.9489854857,
			"0.003": 23.9216312336,
			"0.004": 6.45961796961,
			"0.005": 6.82471066677,
			"0.006": 6.88266946261,
			"0.007": 5.51819154006,
			"0.008": 2.48639651501,
			"0.009": 2.29443348594,
			"0.01": 2.46014537703,
			"0.011": 1.47837010349,
			"0.012": 1.29158055045,
			"0.013": 1.33770518341,
			"0.014": 1.30864851583,
			"0.015": 0.623544954354,
			"0.016": 0.748066236683,
			"0.017": 0.0938036108676,
			"0.018": 0.0,
			"0.019": 0.0,
			"0.02": 0.0,
			"0.021": 0.0,
			"0.022": 0.0,
			"0.023": 0.0,
			"0.024": 0.0,
			"0.025": 0.0
		}
	}
}
