{
	 "smiles": "CN1C=C(C(O)=O)C(=N1)C(C)(C)C", 
	 "Tm": 414.15, 
	 "num_atms": 27, 
	 "gaussian": { 
		 "optdone": 1, 
		 "sigma_profile": "yes", 
		 "theory": "DFT", 
		 "functional": "B3LYP", 
		 "basiset": "6-31G**", 
		 "properties": { 
			 "R2extent": 2532.218, 
			 "electric_dipole_moment_norm": 5.86529675123, 
			 "electric_quadrupole_moment_norm": 18.2581397765, 
			 "total_energy": -611.348959262, 
			 "HOMO_LUMO_gap": 0.22778, 
			 "cosmo_polarized_energy": -17.44, 
			 "cosmo_cavitation_energy": 29.08, 
			 "cosmo_dispersion_energy": -20.76, 
			 "cosmo_repulsion_energy": 1.65, 
			 "cosmo_total_nonelectrostatic_energy": 9.97, 
			 "SMD_solvation_energy": 5.81 
		},
		"coords": [
			{
				"x": -2.5377938448,
				"y": 2.7407881278,
				"z": 1.0657973069,
				"element": "C" 
			},
			{
				"x": -1.4657656387,
				"y": 1.8036288988,
				"z": 0.785155081,
				"element": "N" 
			},
			{
				"x": -0.3203455159,
				"y": 1.6100525445,
				"z": 1.4660666411,
				"element": "C" 
			},
			{
				"x": 0.3971478243,
				"y": 0.6253912176,
				"z": 0.7912591482,
				"element": "C" 
			},
			{
				"x": 1.7391025223,
				"y": 0.1511237347,
				"z": 1.1851743838,
				"element": "C" 
			},
			{
				"x": 2.0418528858,
				"y": 0.2993994066,
				"z": 2.5114848969,
				"element": "O" 
			},
			{
				"x": 2.5728106611,
				"y": -0.3205794666,
				"z": 0.4444041808,
				"element": "O" 
			},
			{
				"x": -0.4337170624,
				"y": 0.2799691418,
				"z": -0.3301211699,
				"element": "C" 
			},
			{
				"x": -1.5551094709,
				"y": 0.9987894615,
				"z": -0.3001268608,
				"element": "N" 
			},
			{
				"x": -0.2157453065,
				"y": -0.7290320531,
				"z": -1.4513386096,
				"element": "C" 
			},
			{
				"x": 0.1408467222,
				"y": -2.1122884917,
				"z": -0.8610747295,
				"element": "C" 
			},
			{
				"x": 0.9348267824,
				"y": -0.2363943771,
				"z": -2.3619001028,
				"element": "C" 
			},
			{
				"x": -1.4997283263,
				"y": -0.8638679582,
				"z": -2.2937640958,
				"element": "C" 
			},
			{
				"x": -3.4766636951,
				"y": 2.2001652116,
				"z": 1.2088880949,
				"element": "H" 
			},
			{
				"x": -2.296043175,
				"y": 3.2966101211,
				"z": 1.9731223606,
				"element": "H" 
			},
			{
				"x": -2.6531262574,
				"y": 3.4374959612,
				"z": 0.2317564122,
				"element": "H" 
			},
			{
				"x": -0.0720957422,
				"y": 2.2053587731,
				"z": 2.3344096472,
				"element": "H" 
			},
			{
				"x": 1.2329964465,
				"y": 0.4754809582,
				"z": 3.0111828954,
				"element": "H" 
			},
			{
				"x": 1.0769488176,
				"y": -2.0823408761,
				"z": -0.3007143959,
				"element": "H" 
			},
			{
				"x": 0.2597789711,
				"y": -2.8380164459,
				"z": -1.6729537879,
				"element": "H" 
			},
			{
				"x": -0.6554774137,
				"y": -2.4753541347,
				"z": -0.2019463851,
				"element": "H" 
			},
			{
				"x": 1.0978539156,
				"y": -0.9549074126,
				"z": -3.1731739453,
				"element": "H" 
			},
			{
				"x": 0.6847575431,
				"y": 0.7298971372,
				"z": -2.8132329404,
				"element": "H" 
			},
			{
				"x": 1.8633327016,
				"y": -0.1328676096,
				"z": -1.7977268098,
				"element": "H" 
			},
			{
				"x": -1.7905191385,
				"y": 0.0906508198,
				"z": -2.7394868467,
				"element": "H" 
			},
			{
				"x": -1.3278298348,
				"y": -1.5842703979,
				"z": -3.1003609159,
				"element": "H" 
			},
			{
				"x": -2.3412953714,
				"y": -1.2171822922,
				"z": -1.6905794537,
				"element": "H" 
			}
		],
		 "valence_orbital": [ 
			{
				"type": "occ",
				"energy": -0.31117,
				"method": "rhf"
			},
			{
				"type": "occ",
				"energy": -0.29334,
				"method": "rhf"
			},
			{
				"type": "occ",
				"energy": -0.27196,
				"method": "rhf"
			},
			{
				"type": "occ",
				"energy": -0.26508,
				"method": "rhf"
			},
			{
				"type": "occ",
				"energy": -0.25318,
				"method": "rhf"
			},
			{
				"type": "unocc",
				"energy": -0.0254,
				"method": "rhf"
			},
			{
				"type": "unocc",
				"energy": 0.00931,
				"method": "rhf"
			},
			{
				"type": "unocc",
				"energy": 0.06449,
				"method": "rhf"
			},
			{
				"type": "unocc",
				"energy": 0.07982,
				"method": "rhf"
			},
			{
				"type": "unocc",
				"energy": 0.09754,
				"method": "rhf"
			}
		],
		"cosmo_sigma_profile": { 
			"-0.025": 0.0,
			"-0.024": 0.0,
			"-0.023": 0.0,
			"-0.022": 0.0,
			"-0.021": 0.0,
			"-0.02": 0.0,
			"-0.019": 0.0,
			"-0.018": 0.704675161646,
			"-0.017": 0.955466873439,
			"-0.016": 1.04640473321,
			"-0.015": 1.26110175746,
			"-0.014": 0.879258928166,
			"-0.013": 1.23943458765,
			"-0.012": 1.36776931285,
			"-0.011": 2.34270173027,
			"-0.01": 2.87697735851,
			"-0.009": 3.12214151383,
			"-0.008": 3.34333593741,
			"-0.007": 5.075271231,
			"-0.006": 7.61436676513,
			"-0.005": 7.32468530168,
			"-0.004": 9.64247302868,
			"-0.003": 16.4185773654,
			"-0.002": 21.5032192286,
			"-0.001": 19.0251117173,
			"0.0": 20.3417196231,
			"0.001": 26.1764642378,
			"0.002": 20.8564969366,
			"0.003": 8.81160373756,
			"0.004": 4.96563183635,
			"0.005": 4.79033708506,
			"0.006": 4.88972692931,
			"0.007": 4.32001243491,
			"0.008": 4.02582125175,
			"0.009": 4.52043350084,
			"0.01": 4.85086471908,
			"0.011": 5.37965966554,
			"0.012": 4.55487647898,
			"0.013": 3.0256443671,
			"0.014": 0.806280030891,
			"0.015": 0.0115767649937,
			"0.016": 0.0,
			"0.017": 0.0,
			"0.018": 0.0,
			"0.019": 0.0,
			"0.02": 0.0,
			"0.021": 0.0,
			"0.022": 0.0,
			"0.023": 0.0,
			"0.024": 0.0,
			"0.025": 0.0
		}
	}
}
