{
	 "smiles": "CCCCCC(C)CNC(=S)NN", 
	 "Tm": 322.15, 
	 "num_atms": 34, 
	 "gaussian": { 
		 "optdone": 1, 
		 "sigma_profile": "yes", 
		 "theory": "DFT", 
		 "functional": "B3LYP", 
		 "basiset": "6-31G**", 
		 "properties": { 
			 "R2extent": 4788.2836, 
			 "electric_dipole_moment_norm": 5.33100279122, 
			 "electric_quadrupole_moment_norm": 18.5036215015, 
			 "total_energy": -918.059714127, 
			 "HOMO_LUMO_gap": 0.20623, 
			 "cosmo_polarized_energy": -19.68, 
			 "cosmo_cavitation_energy": 36.8, 
			 "cosmo_dispersion_energy": -25.16, 
			 "cosmo_repulsion_energy": 2.03, 
			 "cosmo_total_nonelectrostatic_energy": 13.67, 
			 "SMD_solvation_energy": 5.02 
		},
		"coords": [
			{
				"x": -4.2438662006,
				"y": -1.3525279686,
				"z": -0.078650613,
				"element": "C" 
			},
			{
				"x": -3.1024317088,
				"y": -1.8368122352,
				"z": 0.8238418744,
				"element": "C" 
			},
			{
				"x": -1.727606281,
				"y": -1.2330388909,
				"z": 0.4910536341,
				"element": "C" 
			},
			{
				"x": -1.1703901189,
				"y": -1.6491057014,
				"z": -0.8787944163,
				"element": "C" 
			},
			{
				"x": 0.2724206001,
				"y": -1.184478018,
				"z": -1.1458150763,
				"element": "C" 
			},
			{
				"x": 0.5021234721,
				"y": 0.3395723437,
				"z": -1.1888088973,
				"element": "C" 
			},
			{
				"x": -0.2844826575,
				"y": 1.0221115788,
				"z": -2.3169821727,
				"element": "C" 
			},
			{
				"x": 1.9991693391,
				"y": 0.6750981534,
				"z": -1.3518372044,
				"element": "C" 
			},
			{
				"x": 2.8483807803,
				"y": 0.2156317925,
				"z": -0.2573383303,
				"element": "N" 
			},
			{
				"x": 3.0874432873,
				"y": 0.9131521841,
				"z": 0.879049811,
				"element": "C" 
			},
			{
				"x": 2.5253936711,
				"y": 2.4688765572,
				"z": 1.1978813214,
				"element": "S" 
			},
			{
				"x": 3.8532079484,
				"y": 0.2646268125,
				"z": 1.8158030674,
				"element": "N" 
			},
			{
				"x": 4.5560928318,
				"y": -0.9298786841,
				"z": 1.6305753851,
				"element": "N" 
			},
			{
				"x": -4.0911765844,
				"y": -1.6417742631,
				"z": -1.1236007515,
				"element": "H" 
			},
			{
				"x": -5.2032399422,
				"y": -1.7734767229,
				"z": 0.239817063,
				"element": "H" 
			},
			{
				"x": -4.3343921565,
				"y": -0.2603678887,
				"z": -0.0469204371,
				"element": "H" 
			},
			{
				"x": -3.0372231871,
				"y": -2.932742008,
				"z": 0.7741656671,
				"element": "H" 
			},
			{
				"x": -3.3470655739,
				"y": -1.5950869518,
				"z": 1.8659243648,
				"element": "H" 
			},
			{
				"x": -1.0116023763,
				"y": -1.5340184109,
				"z": 1.2685214811,
				"element": "H" 
			},
			{
				"x": -1.7958876391,
				"y": -0.138823247,
				"z": 0.5522698443,
				"element": "H" 
			},
			{
				"x": -1.1939140263,
				"y": -2.7456530477,
				"z": -0.9488237511,
				"element": "H" 
			},
			{
				"x": -1.8278428465,
				"y": -1.2870594096,
				"z": -1.6779841638,
				"element": "H" 
			},
			{
				"x": 0.6102820241,
				"y": -1.6151329004,
				"z": -2.1007586316,
				"element": "H" 
			},
			{
				"x": 0.9175004966,
				"y": -1.6167117755,
				"z": -0.3673889282,
				"element": "H" 
			},
			{
				"x": 0.1909868475,
				"y": 0.7788856353,
				"z": -0.2334356063,
				"element": "H" 
			},
			{
				"x": -0.0949569549,
				"y": 2.1004725618,
				"z": -2.3287485536,
				"element": "H" 
			},
			{
				"x": -1.3625986182,
				"y": 0.8806244135,
				"z": -2.2012880594,
				"element": "H" 
			},
			{
				"x": -0.001198726,
				"y": 0.6199462722,
				"z": -3.2981758403,
				"element": "H" 
			},
			{
				"x": 2.1265584564,
				"y": 1.7575914643,
				"z": -1.4233133497,
				"element": "H" 
			},
			{
				"x": 2.3862263367,
				"y": 0.2236461999,
				"z": -2.2744422752,
				"element": "H" 
			},
			{
				"x": 3.181348647,
				"y": -0.7371113038,
				"z": -0.2917416694,
				"element": "H" 
			},
			{
				"x": 4.1320184934,
				"y": 0.8219766218,
				"z": 2.6104456755,
				"element": "H" 
			},
			{
				"x": 3.9283495936,
				"y": -1.7291682555,
				"z": 1.597925156,
				"element": "H" 
			},
			{
				"x": 5.1425727728,
				"y": -0.9011449079,
				"z": 0.7986743824,
				"element": "H" 
			}
		],
		 "valence_orbital": [ 
			{
				"type": "occ",
				"energy": -0.3082,
				"method": "rhf"
			},
			{
				"type": "occ",
				"energy": -0.29185,
				"method": "rhf"
			},
			{
				"type": "occ",
				"energy": -0.26154,
				"method": "rhf"
			},
			{
				"type": "occ",
				"energy": -0.20814,
				"method": "rhf"
			},
			{
				"type": "occ",
				"energy": -0.20059,
				"method": "rhf"
			},
			{
				"type": "unocc",
				"energy": 0.00564,
				"method": "rhf"
			},
			{
				"type": "unocc",
				"energy": 0.03718,
				"method": "rhf"
			},
			{
				"type": "unocc",
				"energy": 0.07812,
				"method": "rhf"
			},
			{
				"type": "unocc",
				"energy": 0.09141,
				"method": "rhf"
			},
			{
				"type": "unocc",
				"energy": 0.09585,
				"method": "rhf"
			}
		],
		"cosmo_sigma_profile": { 
			"-0.025": 0.0,
			"-0.024": 0.0,
			"-0.023": 0.0,
			"-0.022": 0.0,
			"-0.021": 0.0,
			"-0.02": 0.0,
			"-0.019": 0.0,
			"-0.018": 0.0,
			"-0.017": 0.0,
			"-0.016": 0.0,
			"-0.015": 0.387608964751,
			"-0.014": 2.19721715225,
			"-0.013": 4.68386980605,
			"-0.012": 5.26792308235,
			"-0.011": 4.0058945911,
			"-0.01": 3.53861899205,
			"-0.009": 3.58335454426,
			"-0.008": 2.91967223036,
			"-0.007": 2.35755735629,
			"-0.006": 3.38495129727,
			"-0.005": 5.27355621391,
			"-0.004": 6.14505329997,
			"-0.003": 14.6355922574,
			"-0.002": 32.6533846265,
			"-0.001": 40.4256273556,
			"0.0": 42.9782181318,
			"0.001": 39.5370269614,
			"0.002": 16.5291599534,
			"0.003": 5.33592887464,
			"0.004": 4.44170841395,
			"0.005": 4.49055922223,
			"0.006": 5.54128437952,
			"0.007": 3.86952813095,
			"0.008": 4.83892169181,
			"0.009": 4.07577876843,
			"0.01": 5.88312430367,
			"0.011": 7.52122251779,
			"0.012": 6.97969296476,
			"0.013": 1.88805347557,
			"0.014": 0.552527071926,
			"0.015": 0.374290360485,
			"0.016": 0.0712280766425,
			"0.017": 0.0,
			"0.018": 0.0,
			"0.019": 0.0,
			"0.02": 0.0,
			"0.021": 0.0,
			"0.022": 0.0,
			"0.023": 0.0,
			"0.024": 0.0,
			"0.025": 0.0
		}
	}
}
