{
	 "smiles": "OCC1C2=CC=CC=C2C2=CC=CC=C12", 
	 "Tm": 378.15, 
	 "num_atms": 27, 
	 "gaussian": { 
		 "optdone": 1, 
		 "sigma_profile": "yes", 
		 "theory": "DFT", 
		 "functional": "B3LYP", 
		 "basiset": "6-31G**", 
		 "properties": { 
			 "R2extent": 3220.0545, 
			 "electric_dipole_moment_norm": 1.63059952471, 
			 "electric_quadrupole_moment_norm": 8.78824104301, 
			 "total_energy": -615.95148519, 
			 "HOMO_LUMO_gap": 0.18432, 
			 "cosmo_polarized_energy": -9.13, 
			 "cosmo_cavitation_energy": 29.79, 
			 "cosmo_dispersion_energy": -21.79, 
			 "cosmo_repulsion_energy": 1.68, 
			 "cosmo_total_nonelectrostatic_energy": 9.68, 
			 "SMD_solvation_energy": 4.55 
		},
		"coords": [
			{
				"x": 3.0093702997,
				"y": -1.0214627483,
				"z": -0.8618898338,
				"element": "O" 
			},
			{
				"x": 2.2159722834,
				"y": 0.1380979573,
				"z": -1.0886119536,
				"element": "C" 
			},
			{
				"x": 1.01225559,
				"y": 0.0811893669,
				"z": -0.139198838,
				"element": "C" 
			},
			{
				"x": -0.0011439052,
				"y": -0.9974119094,
				"z": -0.488280003,
				"element": "C" 
			},
			{
				"x": 0.1819405801,
				"y": -2.3713893132,
				"z": -0.6105707231,
				"element": "C" 
			},
			{
				"x": -0.9161236811,
				"y": -3.1714299147,
				"z": -0.9481854711,
				"element": "C" 
			},
			{
				"x": -2.1775975627,
				"y": -2.6028311237,
				"z": -1.1573011783,
				"element": "C" 
			},
			{
				"x": -2.365561837,
				"y": -1.224127074,
				"z": -1.0368129198,
				"element": "C" 
			},
			{
				"x": -1.2716071409,
				"y": -0.4227242426,
				"z": -0.7028033684,
				"element": "C" 
			},
			{
				"x": -1.1671022323,
				"y": 1.0303012013,
				"z": -0.5122740884,
				"element": "C" 
			},
			{
				"x": -2.1289692379,
				"y": 2.0384653366,
				"z": -0.6051742332,
				"element": "C" 
			},
			{
				"x": -1.7471792936,
				"y": 3.3605481746,
				"z": -0.364647622,
				"element": "C" 
			},
			{
				"x": -0.4244798677,
				"y": 3.672103271,
				"z": -0.032707747,
				"element": "C" 
			},
			{
				"x": 0.540621356,
				"y": 2.6622060743,
				"z": 0.0635859984,
				"element": "C" 
			},
			{
				"x": 0.1671834629,
				"y": 1.3444881225,
				"z": -0.1786956848,
				"element": "C" 
			},
			{
				"x": 3.6666551826,
				"y": -1.0802819089,
				"z": -1.5656840867,
				"element": "H" 
			},
			{
				"x": 1.8566358585,
				"y": 0.1893728065,
				"z": -2.1270214965,
				"element": "H" 
			},
			{
				"x": 2.7935260845,
				"y": 1.0541124883,
				"z": -0.8885595403,
				"element": "H" 
			},
			{
				"x": 1.4164214342,
				"y": -0.0836107042,
				"z": 0.8702242861,
				"element": "H" 
			},
			{
				"x": 1.1638387805,
				"y": -2.8056427613,
				"z": -0.4566109445,
				"element": "H" 
			},
			{
				"x": -0.7880792856,
				"y": -4.2457280259,
				"z": -1.0475951756,
				"element": "H" 
			},
			{
				"x": -3.0189471303,
				"y": -3.2399105173,
				"z": -1.4156052637,
				"element": "H" 
			},
			{
				"x": -3.3471878934,
				"y": -0.7877148883,
				"z": -1.2007411612,
				"element": "H" 
			},
			{
				"x": -3.158842884,
				"y": 1.8033440797,
				"z": -0.859650633,
				"element": "H" 
			},
			{
				"x": -2.4852360873,
				"y": 4.1547611002,
				"z": -0.4337101113,
				"element": "H" 
			},
			{
				"x": -0.1446431772,
				"y": 4.7047936143,
				"z": 0.1547512007,
				"element": "H" 
			},
			{
				"x": 1.5646803038,
				"y": 2.9120815382,
				"z": 0.3297705921,
				"element": "H" 
			}
		],
		 "valence_orbital": [ 
			{
				"type": "occ",
				"energy": -0.27771,
				"method": "rhf"
			},
			{
				"type": "occ",
				"energy": -0.26987,
				"method": "rhf"
			},
			{
				"type": "occ",
				"energy": -0.2461,
				"method": "rhf"
			},
			{
				"type": "occ",
				"energy": -0.23822,
				"method": "rhf"
			},
			{
				"type": "occ",
				"energy": -0.21056,
				"method": "rhf"
			},
			{
				"type": "unocc",
				"energy": -0.02624,
				"method": "rhf"
			},
			{
				"type": "unocc",
				"energy": -0.00709,
				"method": "rhf"
			},
			{
				"type": "unocc",
				"energy": 0.01275,
				"method": "rhf"
			},
			{
				"type": "unocc",
				"energy": 0.04494,
				"method": "rhf"
			},
			{
				"type": "unocc",
				"energy": 0.07375,
				"method": "rhf"
			}
		],
		"cosmo_sigma_profile": { 
			"-0.025": 0.0,
			"-0.024": 0.0,
			"-0.023": 0.0,
			"-0.022": 0.0,
			"-0.021": 0.0,
			"-0.02": 0.0,
			"-0.019": 0.0,
			"-0.018": 0.0,
			"-0.017": 0.0,
			"-0.016": 0.78489424643,
			"-0.015": 0.973028063797,
			"-0.014": 0.807563988381,
			"-0.013": 1.46813997517,
			"-0.012": 0.501609967498,
			"-0.011": 0.724022608522,
			"-0.01": 0.561917189444,
			"-0.009": 0.819612617916,
			"-0.008": 0.963629708101,
			"-0.007": 1.16063871984,
			"-0.006": 7.44396184727,
			"-0.005": 18.8060232282,
			"-0.004": 22.3882417075,
			"-0.003": 24.6634951306,
			"-0.002": 17.2766291365,
			"-0.001": 16.5928050642,
			"0.0": 12.5343194907,
			"0.001": 14.2163291225,
			"0.002": 14.2946292567,
			"0.003": 15.5314975139,
			"0.004": 19.2755048121,
			"0.005": 17.9511607395,
			"0.006": 17.7555835632,
			"0.007": 4.00795656056,
			"0.008": 0.401652843266,
			"0.009": 0.574197401947,
			"0.01": 1.18223832701,
			"0.011": 1.13206227782,
			"0.012": 0.868563768438,
			"0.013": 0.721977092032,
			"0.014": 0.709792798843,
			"0.015": 0.0137636702331,
			"0.016": 0.0,
			"0.017": 0.0,
			"0.018": 0.0,
			"0.019": 0.0,
			"0.02": 0.0,
			"0.021": 0.0,
			"0.022": 0.0,
			"0.023": 0.0,
			"0.024": 0.0,
			"0.025": 0.0
		}
	}
}
