{
	 "smiles": "OCCNCCO", 
	 "Tm": 301.65, 
	 "num_atms": 18, 
	 "gaussian": { 
		 "optdone": 1, 
		 "sigma_profile": "yes", 
		 "theory": "DFT", 
		 "functional": "B3LYP", 
		 "basiset": "6-31G**", 
		 "properties": { 
			 "R2extent": 1175.7983, 
			 "electric_dipole_moment_norm": 2.56650408338, 
			 "electric_quadrupole_moment_norm": 6.27718314692, 
			 "total_energy": -364.2172625, 
			 "HOMO_LUMO_gap": 0.27042, 
			 "cosmo_polarized_energy": -12.97, 
			 "cosmo_cavitation_energy": 20.36, 
			 "cosmo_dispersion_energy": -14.88, 
			 "cosmo_repulsion_energy": 1.29, 
			 "cosmo_total_nonelectrostatic_energy": 6.77, 
			 "SMD_solvation_energy": 1.46 
		},
		"coords": [
			{
				"x": -0.2649440669,
				"y": 2.6405670906,
				"z": 0.719910596,
				"element": "O" 
			},
			{
				"x": -0.2033604412,
				"y": 1.2233376777,
				"z": 0.6282522477,
				"element": "C" 
			},
			{
				"x": 1.2124423099,
				"y": 0.742044466,
				"z": 0.3016824565,
				"element": "C" 
			},
			{
				"x": 1.3161599956,
				"y": -0.7216057522,
				"z": 0.2992220025,
				"element": "N" 
			},
			{
				"x": 0.7032424795,
				"y": -1.4558692107,
				"z": -0.8057473062,
				"element": "C" 
			},
			{
				"x": 1.1493013762,
				"y": -1.1200420129,
				"z": -2.2377694598,
				"element": "C" 
			},
			{
				"x": 0.6871636279,
				"y": 0.1439732438,
				"z": -2.7092522392,
				"element": "O" 
			},
			{
				"x": -0.0015613818,
				"y": 2.9977754206,
				"z": -0.1384461295,
				"element": "H" 
			},
			{
				"x": -0.9212973526,
				"y": 0.8454324636,
				"z": -0.1173953509,
				"element": "H" 
			},
			{
				"x": -0.5105987753,
				"y": 0.8333195588,
				"z": 1.6028107354,
				"element": "H" 
			},
			{
				"x": 1.87605939,
				"y": 1.1171487959,
				"z": 1.0885002359,
				"element": "H" 
			},
			{
				"x": 1.5268597547,
				"y": 1.2074822009,
				"z": -0.6465698303,
				"element": "H" 
			},
			{
				"x": 2.2943903757,
				"y": -0.984836323,
				"z": 0.369131628,
				"element": "H" 
			},
			{
				"x": 0.9022038057,
				"y": -2.5219809869,
				"z": -0.6324513284,
				"element": "H" 
			},
			{
				"x": -0.3890556575,
				"y": -1.3457707616,
				"z": -0.7475553485,
				"element": "H" 
			},
			{
				"x": 0.8292952086,
				"y": -1.9308752557,
				"z": -2.9138728998,
				"element": "H" 
			},
			{
				"x": 2.2434301733,
				"y": -1.07235136,
				"z": -2.2870398939,
				"element": "H" 
			},
			{
				"x": -0.2762308217,
				"y": 0.0992507451,
				"z": -2.7644101156,
				"element": "H" 
			}
		],
		 "valence_orbital": [ 
			{
				"type": "occ",
				"energy": -0.33146,
				"method": "rhf"
			},
			{
				"type": "occ",
				"energy": -0.31516,
				"method": "rhf"
			},
			{
				"type": "occ",
				"energy": -0.28845,
				"method": "rhf"
			},
			{
				"type": "occ",
				"energy": -0.26102,
				"method": "rhf"
			},
			{
				"type": "occ",
				"energy": -0.21244,
				"method": "rhf"
			},
			{
				"type": "unocc",
				"energy": 0.05798,
				"method": "rhf"
			},
			{
				"type": "unocc",
				"energy": 0.07914,
				"method": "rhf"
			},
			{
				"type": "unocc",
				"energy": 0.09694,
				"method": "rhf"
			},
			{
				"type": "unocc",
				"energy": 0.12019,
				"method": "rhf"
			},
			{
				"type": "unocc",
				"energy": 0.13377,
				"method": "rhf"
			}
		],
		"cosmo_sigma_profile": { 
			"-0.025": 0.0,
			"-0.024": 0.0,
			"-0.023": 0.0,
			"-0.022": 0.0,
			"-0.021": 0.0,
			"-0.02": 0.0,
			"-0.019": 0.0,
			"-0.018": 0.0,
			"-0.017": 0.0,
			"-0.016": 0.0296171791555,
			"-0.015": 1.45212333373,
			"-0.014": 1.47936357263,
			"-0.013": 1.78603293852,
			"-0.012": 1.9798136273,
			"-0.011": 1.25199761644,
			"-0.01": 2.38338913178,
			"-0.009": 3.25082754278,
			"-0.008": 3.52227252166,
			"-0.007": 3.30989180898,
			"-0.006": 4.59906155307,
			"-0.005": 6.1738631542,
			"-0.004": 12.9951891503,
			"-0.003": 18.806997381,
			"-0.002": 13.1543256198,
			"-0.001": 13.0629273858,
			"0.0": 11.5795050129,
			"0.001": 6.78934224964,
			"0.002": 4.73250588695,
			"0.003": 3.51556307364,
			"0.004": 4.75894231091,
			"0.005": 2.93151964498,
			"0.006": 3.41981067543,
			"0.007": 2.57498186159,
			"0.008": 3.49387863354,
			"0.009": 3.37611787276,
			"0.01": 2.07327165265,
			"0.011": 3.7039587286,
			"0.012": 2.9182454444,
			"0.013": 3.23357268154,
			"0.014": 4.08622661641,
			"0.015": 2.72404789969,
			"0.016": 0.304972379752,
			"0.017": 0.802894047641,
			"0.018": 0.0810047507847,
			"0.019": 0.0,
			"0.02": 0.0,
			"0.021": 0.0,
			"0.022": 0.0,
			"0.023": 0.0,
			"0.024": 0.0,
			"0.025": 0.0
		}
	}
}
