{
	 "smiles": "COC1=C(F)C=C(CC2=NN=NN2)C=C1", 
	 "Tm": 465.15, 
	 "num_atms": 24, 
	 "gaussian": { 
		 "optdone": 1, 
		 "sigma_profile": "yes", 
		 "theory": "DFT", 
		 "functional": "B3LYP", 
		 "basiset": "6-31G**", 
		 "properties": { 
			 "R2extent": 4326.718, 
			 "electric_dipole_moment_norm": 6.52398395691, 
			 "electric_quadrupole_moment_norm": 19.1578984782, 
			 "total_energy": -742.374755891, 
			 "HOMO_LUMO_gap": 0.21101, 
			 "cosmo_polarized_energy": -18.52, 
			 "cosmo_cavitation_energy": 29.57, 
			 "cosmo_dispersion_energy": -21.17, 
			 "cosmo_repulsion_energy": 1.64, 
			 "cosmo_total_nonelectrostatic_energy": 10.05, 
			 "SMD_solvation_energy": 4.16 
		},
		"coords": [
			{
				"x": 4.1098923732,
				"y": 1.6811094376,
				"z": -1.5435467318,
				"element": "C" 
			},
			{
				"x": 2.9173151222,
				"y": 1.5086211594,
				"z": -2.3163596744,
				"element": "O" 
			},
			{
				"x": 1.7344209607,
				"y": 1.2310898747,
				"z": -1.7093363594,
				"element": "C" 
			},
			{
				"x": 1.5624846247,
				"y": 0.6215123833,
				"z": -0.4552346484,
				"element": "C" 
			},
			{
				"x": 2.6422626323,
				"y": 0.259352641,
				"z": 0.2788643095,
				"element": "F" 
			},
			{
				"x": 0.3040885405,
				"y": 0.3627009682,
				"z": 0.0691856885,
				"element": "C" 
			},
			{
				"x": -0.849151185,
				"y": 0.6926702553,
				"z": -0.6519479297,
				"element": "C" 
			},
			{
				"x": -2.2253687753,
				"y": 0.3804615454,
				"z": -0.0955517306,
				"element": "C" 
			},
			{
				"x": -2.6277067572,
				"y": -1.05611988,
				"z": -0.2607305891,
				"element": "C" 
			},
			{
				"x": -3.4191200156,
				"y": -1.7544528131,
				"z": 0.532487537,
				"element": "N" 
			},
			{
				"x": -3.5255692905,
				"y": -2.9922656181,
				"z": -0.0294550563,
				"element": "N" 
			},
			{
				"x": -2.8350971647,
				"y": -3.074641081,
				"z": -1.1183128482,
				"element": "N" 
			},
			{
				"x": -2.2635747271,
				"y": -1.8588028443,
				"z": -1.2836351994,
				"element": "N" 
			},
			{
				"x": -0.6928185298,
				"y": 1.2873116574,
				"z": -1.9107277415,
				"element": "C" 
			},
			{
				"x": 0.5737957151,
				"y": 1.5545617852,
				"z": -2.4247179828,
				"element": "C" 
			},
			{
				"x": 3.9447306449,
				"y": 2.3647308249,
				"z": -0.704315439,
				"element": "H" 
			},
			{
				"x": 4.8352385358,
				"y": 2.1192743664,
				"z": -2.2309501569,
				"element": "H" 
			},
			{
				"x": 4.4889745798,
				"y": 0.7291180041,
				"z": -1.1652629319,
				"element": "H" 
			},
			{
				"x": 0.2463707795,
				"y": -0.1099348812,
				"z": 1.045114352,
				"element": "H" 
			},
			{
				"x": -2.2864810512,
				"y": 0.6084190831,
				"z": 0.9724930846,
				"element": "H" 
			},
			{
				"x": -2.9743511479,
				"y": 1.0115285695,
				"z": -0.589529938,
				"element": "H" 
			},
			{
				"x": -1.6385791847,
				"y": -1.6777212704,
				"z": -2.0563030043,
				"element": "H" 
			},
			{
				"x": -1.5696667168,
				"y": 1.5662021524,
				"z": -2.4892618885,
				"element": "H" 
			},
			{
				"x": 0.6988100367,
				"y": 2.0284736801,
				"z": -3.3926651216,
				"element": "H" 
			}
		],
		 "valence_orbital": [ 
			{
				"type": "occ",
				"energy": -0.293,
				"method": "rhf"
			},
			{
				"type": "occ",
				"energy": -0.29147,
				"method": "rhf"
			},
			{
				"type": "occ",
				"energy": -0.28093,
				"method": "rhf"
			},
			{
				"type": "occ",
				"energy": -0.26889,
				"method": "rhf"
			},
			{
				"type": "occ",
				"energy": -0.23824,
				"method": "rhf"
			},
			{
				"type": "unocc",
				"energy": -0.02723,
				"method": "rhf"
			},
			{
				"type": "unocc",
				"energy": -0.01747,
				"method": "rhf"
			},
			{
				"type": "unocc",
				"energy": -0.01042,
				"method": "rhf"
			},
			{
				"type": "unocc",
				"energy": 0.02533,
				"method": "rhf"
			},
			{
				"type": "unocc",
				"energy": 0.06132,
				"method": "rhf"
			}
		],
		"cosmo_sigma_profile": { 
			"-0.025": 0.0,
			"-0.024": 0.0,
			"-0.023": 0.0,
			"-0.022": 0.0,
			"-0.021": 0.0,
			"-0.02": 0.0,
			"-0.019": 0.0,
			"-0.018": 0.754727720828,
			"-0.017": 0.852911001252,
			"-0.016": 0.747897465809,
			"-0.015": 1.15939417942,
			"-0.014": 0.828392660113,
			"-0.013": 0.51224756045,
			"-0.012": 0.572408267343,
			"-0.011": 1.42190457103,
			"-0.01": 1.84363537405,
			"-0.009": 1.89735922942,
			"-0.008": 3.47017117035,
			"-0.007": 11.7186860585,
			"-0.006": 13.8811850772,
			"-0.005": 15.9856068112,
			"-0.004": 18.6884756276,
			"-0.003": 19.5530836856,
			"-0.002": 14.2266565939,
			"-0.001": 11.4233822594,
			"0.0": 12.9144305273,
			"0.001": 14.9410360346,
			"0.002": 12.3565140572,
			"0.003": 14.9659517797,
			"0.004": 13.6752978631,
			"0.005": 6.27017988706,
			"0.006": 3.7568202969,
			"0.007": 4.96362285624,
			"0.008": 6.57494809923,
			"0.009": 5.75145340205,
			"0.01": 5.99855513153,
			"0.011": 5.31655850745,
			"0.012": 3.60018708753,
			"0.013": 2.74933000192,
			"0.014": 2.1742593204,
			"0.015": 0.864601218114,
			"0.016": 0.174849915164,
			"0.017": 0.0,
			"0.018": 0.0,
			"0.019": 0.0,
			"0.02": 0.0,
			"0.021": 0.0,
			"0.022": 0.0,
			"0.023": 0.0,
			"0.024": 0.0,
			"0.025": 0.0
		}
	}
}
