{
	 "smiles": "OC(=O)C1=C(Cl)C=C(F)C(=C1)S(Cl)(=O)=O", 
	 "Tm": 418.15, 
	 "num_atms": 18, 
	 "gaussian": { 
		 "optdone": 1, 
		 "sigma_profile": "yes", 
		 "theory": "DFT", 
		 "functional": "B3LYP", 
		 "basiset": "6-31G**", 
		 "properties": { 
			 "R2extent": 4734.4591, 
			 "electric_dipole_moment_norm": 5.11597757032, 
			 "electric_quadrupole_moment_norm": 6.64679387825, 
			 "total_energy": -1987.7824515, 
			 "HOMO_LUMO_gap": 0.19335, 
			 "cosmo_polarized_energy": -13.27, 
			 "cosmo_cavitation_energy": 29.31, 
			 "cosmo_dispersion_energy": -21.93, 
			 "cosmo_repulsion_energy": 1.66, 
			 "cosmo_total_nonelectrostatic_energy": 9.04, 
			 "SMD_solvation_energy": 5.25 
		},
		"coords": [
			{
				"x": -3.0783388835,
				"y": -1.2394141897,
				"z": -2.3237249636,
				"element": "O" 
			},
			{
				"x": -2.5165135215,
				"y": -1.1894299081,
				"z": -1.1045098596,
				"element": "C" 
			},
			{
				"x": -3.1373653287,
				"y": -1.4318977623,
				"z": -0.0893262602,
				"element": "O" 
			},
			{
				"x": -1.0643394396,
				"y": -0.8103006223,
				"z": -1.0866859898,
				"element": "C" 
			},
			{
				"x": -0.223285915,
				"y": -0.512876397,
				"z": -2.1813101099,
				"element": "C" 
			},
			{
				"x": -0.7475789514,
				"y": -0.5324203961,
				"z": -3.8418352261,
				"element": "Cl" 
			},
			{
				"x": 1.1187875995,
				"y": -0.1737846483,
				"z": -1.9806757597,
				"element": "C" 
			},
			{
				"x": 1.6361634562,
				"y": -0.132000342,
				"z": -0.6966018307,
				"element": "C" 
			},
			{
				"x": 2.9118053618,
				"y": 0.2066056387,
				"z": -0.5243490788,
				"element": "F" 
			},
			{
				"x": 0.8249729555,
				"y": -0.4259035261,
				"z": 0.4045896174,
				"element": "C" 
			},
			{
				"x": -0.5070727258,
				"y": -0.7561348913,
				"z": 0.2005305957,
				"element": "C" 
			},
			{
				"x": 1.4754578466,
				"y": -0.4443990657,
				"z": 2.0701770844,
				"element": "S" 
			},
			{
				"x": 1.8178353473,
				"y": 1.6228339095,
				"z": 2.3899326002,
				"element": "Cl" 
			},
			{
				"x": 0.4007773444,
				"y": -0.8352673784,
				"z": 2.9712195132,
				"element": "O" 
			},
			{
				"x": 2.7769399046,
				"y": -1.0935382132,
				"z": 2.0812891983,
				"element": "O" 
			},
			{
				"x": -4.0058016362,
				"y": -1.4934408926,
				"z": -2.1774663518,
				"element": "H" 
			},
			{
				"x": 1.7638496747,
				"y": 0.0584425502,
				"z": -2.8190168154,
				"element": "H" 
			},
			{
				"x": -1.1482930889,
				"y": -0.9840738651,
				"z": 1.0444636364,
				"element": "H" 
			}
		],
		 "valence_orbital": [ 
			{
				"type": "occ",
				"energy": -0.33895,
				"method": "rhf"
			},
			{
				"type": "occ",
				"energy": -0.32312,
				"method": "rhf"
			},
			{
				"type": "occ",
				"energy": -0.30719,
				"method": "rhf"
			},
			{
				"type": "occ",
				"energy": -0.30357,
				"method": "rhf"
			},
			{
				"type": "occ",
				"energy": -0.29465,
				"method": "rhf"
			},
			{
				"type": "unocc",
				"energy": -0.1013,
				"method": "rhf"
			},
			{
				"type": "unocc",
				"energy": -0.08389,
				"method": "rhf"
			},
			{
				"type": "unocc",
				"energy": -0.06619,
				"method": "rhf"
			},
			{
				"type": "unocc",
				"energy": -0.00613,
				"method": "rhf"
			},
			{
				"type": "unocc",
				"energy": 0.00807,
				"method": "rhf"
			}
		],
		"cosmo_sigma_profile": { 
			"-0.025": 0.0,
			"-0.024": 0.0,
			"-0.023": 0.0,
			"-0.022": 0.0,
			"-0.021": 0.0,
			"-0.02": 0.0202550852149,
			"-0.019": 0.898266055065,
			"-0.018": 0.783510391642,
			"-0.017": 1.04083707262,
			"-0.016": 0.762306486486,
			"-0.015": 0.408820504671,
			"-0.014": 0.286384272054,
			"-0.013": 0.753030019232,
			"-0.012": 1.30752890811,
			"-0.011": 1.31743124123,
			"-0.01": 2.15944431744,
			"-0.009": 1.65042681188,
			"-0.008": 3.25625717215,
			"-0.007": 4.22369115531,
			"-0.006": 4.19122251629,
			"-0.005": 12.4570542651,
			"-0.004": 19.9717875048,
			"-0.003": 24.20468133,
			"-0.002": 18.1793639517,
			"-0.001": 12.5083261354,
			"0.0": 14.4791052701,
			"0.001": 19.8597274191,
			"0.002": 25.9393350824,
			"0.003": 17.8020171099,
			"0.004": 8.09726567345,
			"0.005": 5.83870627298,
			"0.006": 6.74235868153,
			"0.007": 13.7421321152,
			"0.008": 9.16727326756,
			"0.009": 2.79705810559,
			"0.01": 3.24861436846,
			"0.011": 3.20812236248,
			"0.012": 0.184773256662,
			"0.013": 0.0,
			"0.014": 0.0,
			"0.015": 0.0,
			"0.016": 0.0,
			"0.017": 0.0,
			"0.018": 0.0,
			"0.019": 0.0,
			"0.02": 0.0,
			"0.021": 0.0,
			"0.022": 0.0,
			"0.023": 0.0,
			"0.024": 0.0,
			"0.025": 0.0
		}
	}
}
