{
	 "smiles": "CC1=C(NC2=C(N=NC(=S)N2)C2=CC=CC=C2)C=CC=C1", 
	 "Tm": 567.15, 
	 "num_atms": 35, 
	 "gaussian": { 
		 "optdone": 1, 
		 "sigma_profile": "yes", 
		 "theory": "DFT", 
		 "functional": "B3LYP", 
		 "basiset": "6-31G**", 
		 "properties": { 
			 "R2extent": 7438.4685, 
			 "electric_dipole_moment_norm": 10.8121247144, 
			 "electric_quadrupole_moment_norm": 32.3856405484, 
			 "total_energy": -1235.30078965, 
			 "HOMO_LUMO_gap": 0.12347, 
			 "cosmo_polarized_energy": -30.43, 
			 "cosmo_cavitation_energy": 41.05, 
			 "cosmo_dispersion_energy": -28.79, 
			 "cosmo_repulsion_energy": 2.17, 
			 "cosmo_total_nonelectrostatic_energy": 14.44, 
			 "SMD_solvation_energy": 3.97 
		},
		"coords": [
			{
				"x": 2.615128887,
				"y": -2.2367190821,
				"z": 0.558720466,
				"element": "C" 
			},
			{
				"x": 1.3299487905,
				"y": -2.9285021521,
				"z": 0.1733478186,
				"element": "C" 
			},
			{
				"x": 0.1608850044,
				"y": -2.1942501813,
				"z": -0.1116928126,
				"element": "C" 
			},
			{
				"x": 0.2087318579,
				"y": -0.7700571981,
				"z": -0.0639901948,
				"element": "N" 
			},
			{
				"x": -0.6111309715,
				"y": 0.0554337707,
				"z": 0.6412296333,
				"element": "C" 
			},
			{
				"x": -0.4932367049,
				"y": 1.4612078171,
				"z": 0.6591223122,
				"element": "C" 
			},
			{
				"x": -1.2585171705,
				"y": 2.1737599192,
				"z": 1.5182663913,
				"element": "N" 
			},
			{
				"x": -2.184074451,
				"y": 1.6536821205,
				"z": 2.2787480554,
				"element": "N" 
			},
			{
				"x": -2.4257482831,
				"y": 0.2997120265,
				"z": 2.2390008357,
				"element": "C" 
			},
			{
				"x": -3.6349494921,
				"y": -0.4604074329,
				"z": 3.0994230838,
				"element": "S" 
			},
			{
				"x": -1.5743650231,
				"y": -0.4674541691,
				"z": 1.4316517316,
				"element": "N" 
			},
			{
				"x": 0.5019960966,
				"y": 2.2145029554,
				"z": -0.1372303039,
				"element": "C" 
			},
			{
				"x": 1.1572960521,
				"y": 3.313245386,
				"z": 0.4477261028,
				"element": "C" 
			},
			{
				"x": 2.0880641305,
				"y": 4.0522675056,
				"z": -0.2768787808,
				"element": "C" 
			},
			{
				"x": 2.387502396,
				"y": 3.712797565,
				"z": -1.5997016337,
				"element": "C" 
			},
			{
				"x": 1.7321528246,
				"y": 2.6371267675,
				"z": -2.198211378,
				"element": "C" 
			},
			{
				"x": 0.7925950248,
				"y": 1.8968761301,
				"z": -1.4775705673,
				"element": "C" 
			},
			{
				"x": -1.0257445933,
				"y": -2.8429549662,
				"z": -0.4789628549,
				"element": "C" 
			},
			{
				"x": -1.07309032,
				"y": -4.2353468218,
				"z": -0.5333066987,
				"element": "C" 
			},
			{
				"x": 0.0731459396,
				"y": -4.9775255213,
				"z": -0.2519325782,
				"element": "C" 
			},
			{
				"x": 1.2582411582,
				"y": -4.3232666907,
				"z": 0.0867264324,
				"element": "C" 
			},
			{
				"x": 3.0444277965,
				"y": -1.6686789176,
				"z": -0.2772255814,
				"element": "H" 
			},
			{
				"x": 3.366988115,
				"y": -2.9647816061,
				"z": 0.8712239196,
				"element": "H" 
			},
			{
				"x": 2.4631516808,
				"y": -1.5319148753,
				"z": 1.3832673154,
				"element": "H" 
			},
			{
				"x": 1.015979936,
				"y": -0.3102943486,
				"z": -0.4658250692,
				"element": "H" 
			},
			{
				"x": -1.7031719061,
				"y": -1.4726214388,
				"z": 1.4889751475,
				"element": "H" 
			},
			{
				"x": 0.9151382998,
				"y": 3.5781932232,
				"z": 1.4711338924,
				"element": "H" 
			},
			{
				"x": 2.5854244694,
				"y": 4.8957888505,
				"z": 0.1931508902,
				"element": "H" 
			},
			{
				"x": 3.1172270368,
				"y": 4.2890683782,
				"z": -2.1606559396,
				"element": "H" 
			},
			{
				"x": 1.935532962,
				"y": 2.3814885329,
				"z": -3.2341852605,
				"element": "H" 
			},
			{
				"x": 0.2478237192,
				"y": 1.1018416451,
				"z": -1.9793241137,
				"element": "H" 
			},
			{
				"x": -1.9003312561,
				"y": -2.256028165,
				"z": -0.7433216744,
				"element": "H" 
			},
			{
				"x": -1.9981165917,
				"y": -4.7310150896,
				"z": -0.8099021932,
				"element": "H" 
			},
			{
				"x": 0.0478418384,
				"y": -6.0617691709,
				"z": -0.2978898289,
				"element": "H" 
			},
			{
				"x": 2.1498527473,
				"y": -4.9052047657,
				"z": 0.3035934356,
				"element": "H" 
			}
		],
		 "valence_orbital": [ 
			{
				"type": "occ",
				"energy": -0.26485,
				"method": "rhf"
			},
			{
				"type": "occ",
				"energy": -0.25229,
				"method": "rhf"
			},
			{
				"type": "occ",
				"energy": -0.2318,
				"method": "rhf"
			},
			{
				"type": "occ",
				"energy": -0.20202,
				"method": "rhf"
			},
			{
				"type": "occ",
				"energy": -0.20026,
				"method": "rhf"
			},
			{
				"type": "unocc",
				"energy": -0.07679,
				"method": "rhf"
			},
			{
				"type": "unocc",
				"energy": -0.04778,
				"method": "rhf"
			},
			{
				"type": "unocc",
				"energy": -0.03372,
				"method": "rhf"
			},
			{
				"type": "unocc",
				"energy": -0.02656,
				"method": "rhf"
			},
			{
				"type": "unocc",
				"energy": -0.017,
				"method": "rhf"
			}
		],
		"cosmo_sigma_profile": { 
			"-0.025": 0.0,
			"-0.024": 0.0,
			"-0.023": 0.0,
			"-0.022": 0.0,
			"-0.021": 0.0,
			"-0.02": 0.0,
			"-0.019": 0.0,
			"-0.018": 0.0,
			"-0.017": 0.0,
			"-0.016": 0.0,
			"-0.015": 0.0,
			"-0.014": 0.194179943335,
			"-0.013": 1.61884720918,
			"-0.012": 1.63772967796,
			"-0.011": 1.78829854322,
			"-0.01": 3.84196454609,
			"-0.009": 3.81900700502,
			"-0.008": 5.34507609149,
			"-0.007": 11.2045734193,
			"-0.006": 25.4056110936,
			"-0.005": 32.3935656594,
			"-0.004": 27.7966792748,
			"-0.003": 20.5098793822,
			"-0.002": 19.0465335313,
			"-0.001": 22.3697001469,
			"0.0": 17.6205662055,
			"0.001": 14.7516342275,
			"0.002": 17.3590564007,
			"0.003": 18.3102160444,
			"0.004": 22.4497645964,
			"0.005": 10.6930738382,
			"0.006": 5.06523244326,
			"0.007": 5.37230602404,
			"0.008": 5.11921895366,
			"0.009": 8.01290339183,
			"0.01": 8.78740435909,
			"0.011": 6.18960744297,
			"0.012": 4.79624402547,
			"0.013": 4.13037960386,
			"0.014": 3.1575464429,
			"0.015": 1.89741775511,
			"0.016": 1.25651977197,
			"0.017": 0.595279244368,
			"0.018": 0.000172894876623,
			"0.019": 0.0,
			"0.02": 0.0,
			"0.021": 0.0,
			"0.022": 0.0,
			"0.023": 0.0,
			"0.024": 0.0,
			"0.025": 0.0
		}
	}
}
