{
	 "smiles": "CN1C=CN=C1", 
	 "Tm": 267.15, 
	 "num_atms": 12, 
	 "gaussian": { 
		 "optdone": 1, 
		 "sigma_profile": "yes", 
		 "theory": "DFT", 
		 "functional": "B3LYP", 
		 "basiset": "6-31G**", 
		 "properties": { 
			 "R2extent": 813.7287, 
			 "electric_dipole_moment_norm": 4.06662171095, 
			 "electric_quadrupole_moment_norm": 11.9183128936, 
			 "total_energy": -265.529697638, 
			 "HOMO_LUMO_gap": 0.25083, 
			 "cosmo_polarized_energy": -10.26, 
			 "cosmo_cavitation_energy": 15.54, 
			 "cosmo_dispersion_energy": -11.69, 
			 "cosmo_repulsion_energy": 0.99, 
			 "cosmo_total_nonelectrostatic_energy": 4.84, 
			 "SMD_solvation_energy": 2.22 
		},
		"coords": [
			{
				"x": 1.406066737,
				"y": 0.0486029664,
				"z": -2.0542370964,
				"element": "C" 
			},
			{
				"x": 0.8757100957,
				"y": -0.7854110964,
				"z": -0.9879612513,
				"element": "N" 
			},
			{
				"x": 0.4438991437,
				"y": -0.3679821805,
				"z": 0.2564444015,
				"element": "C" 
			},
			{
				"x": 0.0350380558,
				"y": -1.5052252665,
				"z": 0.9081201116,
				"element": "C" 
			},
			{
				"x": 0.2015251925,
				"y": -2.6103769777,
				"z": 0.1049903214,
				"element": "N" 
			},
			{
				"x": 0.7050776252,
				"y": -2.1426939936,
				"z": -1.0181922342,
				"element": "C" 
			},
			{
				"x": 1.4160473352,
				"y": 1.0879334072,
				"z": -1.7227684258,
				"element": "H" 
			},
			{
				"x": 0.7845908794,
				"y": -0.0231748631,
				"z": -2.9520628922,
				"element": "H" 
			},
			{
				"x": 2.429561415,
				"y": -0.2446636599,
				"z": -2.3070666291,
				"element": "H" 
			},
			{
				"x": 0.4702808187,
				"y": 0.6717399477,
				"z": 0.5459359309,
				"element": "H" 
			},
			{
				"x": -0.3684802321,
				"y": -1.5887842214,
				"z": 1.9078927345,
				"element": "H" 
			},
			{
				"x": 0.967182934,
				"y": -2.7310640623,
				"z": -1.8880949709,
				"element": "H" 
			}
		],
		 "valence_orbital": [ 
			{
				"type": "occ",
				"energy": -0.39473,
				"method": "rhf"
			},
			{
				"type": "occ",
				"energy": -0.3923,
				"method": "rhf"
			},
			{
				"type": "occ",
				"energy": -0.26346,
				"method": "rhf"
			},
			{
				"type": "occ",
				"energy": -0.25708,
				"method": "rhf"
			},
			{
				"type": "occ",
				"energy": -0.22002,
				"method": "rhf"
			},
			{
				"type": "unocc",
				"energy": 0.03081,
				"method": "rhf"
			},
			{
				"type": "unocc",
				"energy": 0.07634,
				"method": "rhf"
			},
			{
				"type": "unocc",
				"energy": 0.08906,
				"method": "rhf"
			},
			{
				"type": "unocc",
				"energy": 0.11598,
				"method": "rhf"
			},
			{
				"type": "unocc",
				"energy": 0.13847,
				"method": "rhf"
			}
		],
		"cosmo_sigma_profile": { 
			"-0.025": 0.0,
			"-0.024": 0.0,
			"-0.023": 0.0,
			"-0.022": 0.0,
			"-0.021": 0.0,
			"-0.02": 0.0,
			"-0.019": 0.0,
			"-0.018": 0.0,
			"-0.017": 0.0,
			"-0.016": 0.0,
			"-0.015": 0.0,
			"-0.014": 0.0,
			"-0.013": 0.0,
			"-0.012": 0.0,
			"-0.011": 0.0,
			"-0.01": 0.0,
			"-0.009": 0.245216194096,
			"-0.008": 4.64826248592,
			"-0.007": 6.30214237178,
			"-0.006": 11.9225989572,
			"-0.005": 13.3545843057,
			"-0.004": 10.6482141121,
			"-0.003": 12.6321516937,
			"-0.002": 7.82042423059,
			"-0.001": 4.37796566118,
			"0.0": 4.92920686884,
			"0.001": 3.99097876212,
			"0.002": 4.43593774394,
			"0.003": 5.06775622644,
			"0.004": 4.69661084022,
			"0.005": 4.52572064411,
			"0.006": 5.75035278385,
			"0.007": 3.38578920741,
			"0.008": 1.70842294173,
			"0.009": 1.40325136957,
			"0.01": 2.16817999389,
			"0.011": 1.35458414861,
			"0.012": 1.35751710169,
			"0.013": 1.36539899147,
			"0.014": 0.949304302407,
			"0.015": 1.23385135572,
			"0.016": 1.19630949094,
			"0.017": 1.31167172472,
			"0.018": 0.972516730682,
			"0.019": 0.301636706395,
			"0.02": 0.0,
			"0.021": 0.0,
			"0.022": 0.0,
			"0.023": 0.0,
			"0.024": 0.0,
			"0.025": 0.0
		}
	}
}
