{
	 "smiles": "CC1=CC(C)=C2C(=O)CC2=C1", 
	 "Tm": 321.15, 
	 "num_atms": 21, 
	 "gaussian": { 
		 "optdone": 1, 
		 "sigma_profile": "yes", 
		 "theory": "DFT", 
		 "functional": "B3LYP", 
		 "basiset": "6-31G**", 
		 "properties": { 
			 "R2extent": 2210.4146, 
			 "electric_dipole_moment_norm": 3.74562768839, 
			 "electric_quadrupole_moment_norm": 7.31389675071, 
			 "total_energy": -462.290611578, 
			 "HOMO_LUMO_gap": 0.19007, 
			 "cosmo_polarized_energy": -7.52, 
			 "cosmo_cavitation_energy": 24.86, 
			 "cosmo_dispersion_energy": -17.94, 
			 "cosmo_repulsion_energy": 1.46, 
			 "cosmo_total_nonelectrostatic_energy": 8.38, 
			 "SMD_solvation_energy": 4.8 
		},
		"coords": [
			{
				"x": 2.7898397894,
				"y": -1.0092304199,
				"z": -2.688327314,
				"element": "C" 
			},
			{
				"x": 1.6996243884,
				"y": -1.0641987093,
				"z": -1.6432423337,
				"element": "C" 
			},
			{
				"x": 2.013832748,
				"y": -1.5141158069,
				"z": -0.3408855183,
				"element": "C" 
			},
			{
				"x": 1.0799487685,
				"y": -1.577152623,
				"z": 0.7003423239,
				"element": "C" 
			},
			{
				"x": 1.4282257257,
				"y": -2.058320182,
				"z": 2.0834865664,
				"element": "C" 
			},
			{
				"x": -0.207314288,
				"y": -1.1559385173,
				"z": 0.3439765903,
				"element": "C" 
			},
			{
				"x": -1.6050506975,
				"y": -0.9541481122,
				"z": 0.8259863986,
				"element": "C" 
			},
			{
				"x": -2.2075794439,
				"y": -1.1042868078,
				"z": 1.860737355,
				"element": "O" 
			},
			{
				"x": -2.0104888177,
				"y": -0.4454913639,
				"z": -0.611774181,
				"element": "C" 
			},
			{
				"x": -0.5428364076,
				"y": -0.7093169739,
				"z": -0.9394270023,
				"element": "C" 
			},
			{
				"x": 0.3922148788,
				"y": -0.6523646897,
				"z": -1.9611084244,
				"element": "C" 
			},
			{
				"x": 3.4365240353,
				"y": -1.8910611488,
				"z": -2.6395213378,
				"element": "H" 
			},
			{
				"x": 2.3744606355,
				"y": -0.9465781162,
				"z": -3.6977631616,
				"element": "H" 
			},
			{
				"x": 3.4307437883,
				"y": -0.131032001,
				"z": -2.5405821419,
				"element": "H" 
			},
			{
				"x": 3.0366443611,
				"y": -1.8288317857,
				"z": -0.1423231244,
				"element": "H" 
			},
			{
				"x": 1.2572613549,
				"y": -1.271019712,
				"z": 2.8259213751,
				"element": "H" 
			},
			{
				"x": 0.7975801908,
				"y": -2.9053057116,
				"z": 2.374182057,
				"element": "H" 
			},
			{
				"x": 2.4744578245,
				"y": -2.3689884947,
				"z": 2.1474730828,
				"element": "H" 
			},
			{
				"x": -2.7494079237,
				"y": -1.0715650722,
				"z": -1.1242418146,
				"element": "H" 
			},
			{
				"x": -2.342633301,
				"y": 0.5980252957,
				"z": -0.6487822086,
				"element": "H" 
			},
			{
				"x": 0.15205239,
				"y": -0.3125790476,
				"z": -2.9648271865,
				"element": "H" 
			}
		],
		 "valence_orbital": [ 
			{
				"type": "occ",
				"energy": -0.34331,
				"method": "rhf"
			},
			{
				"type": "occ",
				"energy": -0.32952,
				"method": "rhf"
			},
			{
				"type": "occ",
				"energy": -0.2516,
				"method": "rhf"
			},
			{
				"type": "occ",
				"energy": -0.24696,
				"method": "rhf"
			},
			{
				"type": "occ",
				"energy": -0.2411,
				"method": "rhf"
			},
			{
				"type": "unocc",
				"energy": -0.05103,
				"method": "rhf"
			},
			{
				"type": "unocc",
				"energy": -0.00869,
				"method": "rhf"
			},
			{
				"type": "unocc",
				"energy": 0.05024,
				"method": "rhf"
			},
			{
				"type": "unocc",
				"energy": 0.09678,
				"method": "rhf"
			},
			{
				"type": "unocc",
				"energy": 0.11363,
				"method": "rhf"
			}
		],
		"cosmo_sigma_profile": { 
			"-0.025": 0.0,
			"-0.024": 0.0,
			"-0.023": 0.0,
			"-0.022": 0.0,
			"-0.021": 0.0,
			"-0.02": 0.0,
			"-0.019": 0.0,
			"-0.018": 0.0,
			"-0.017": 0.0,
			"-0.016": 0.0,
			"-0.015": 0.0,
			"-0.014": 0.0,
			"-0.013": 0.0,
			"-0.012": 0.0,
			"-0.011": 0.0,
			"-0.01": 0.0,
			"-0.009": 0.0,
			"-0.008": 0.0,
			"-0.007": 0.0145418931271,
			"-0.006": 4.11303720904,
			"-0.005": 15.8526086021,
			"-0.004": 22.4795494354,
			"-0.003": 19.2774730008,
			"-0.002": 21.3110497024,
			"-0.001": 26.6039375508,
			"0.0": 22.8313178808,
			"0.001": 11.3625746386,
			"0.002": 10.0443688008,
			"0.003": 9.62137579144,
			"0.004": 11.2112624289,
			"0.005": 2.59429461022,
			"0.006": 2.1971567904,
			"0.007": 1.10247075335,
			"0.008": 1.44031883268,
			"0.009": 2.61495074673,
			"0.01": 2.30036721278,
			"0.011": 4.26221383943,
			"0.012": 4.62972400845,
			"0.013": 1.58369815715,
			"0.014": 0.00261095862715,
			"0.015": 0.0,
			"0.016": 0.0,
			"0.017": 0.0,
			"0.018": 0.0,
			"0.019": 0.0,
			"0.02": 0.0,
			"0.021": 0.0,
			"0.022": 0.0,
			"0.023": 0.0,
			"0.024": 0.0,
			"0.025": 0.0
		}
	}
}
