{
	 "smiles": "COC1=CC(C)=C(C=CC(C)=CC=CC(C)=CC(O)=O)C(C)=C1C", 
	 "Tm": 501.15, 
	 "num_atms": 50, 
	 "gaussian": { 
		 "optdone": 1, 
		 "sigma_profile": "yes", 
		 "theory": "DFT", 
		 "functional": "B3LYP", 
		 "basiset": "6-31G**", 
		 "properties": { 
			 "R2extent": 14613.5888, 
			 "electric_dipole_moment_norm": 2.82122165382, 
			 "electric_quadrupole_moment_norm": 20.8714142307, 
			 "total_energy": -1041.54460127, 
			 "HOMO_LUMO_gap": 0.13069, 
			 "cosmo_polarized_energy": -13.06, 
			 "cosmo_cavitation_energy": 51.96, 
			 "cosmo_dispersion_energy": -35.0, 
			 "cosmo_repulsion_energy": 2.72, 
			 "cosmo_total_nonelectrostatic_energy": 19.67, 
			 "SMD_solvation_energy": 11.13 
		},
		"coords": [
			{
				"x": 0.634621554,
				"y": 5.1034685775,
				"z": 2.1868356315,
				"element": "C" 
			},
			{
				"x": 1.8755719265,
				"y": 4.5019829953,
				"z": 1.8619359237,
				"element": "O" 
			},
			{
				"x": 1.9082309271,
				"y": 3.5528408516,
				"z": 0.8742187024,
				"element": "C" 
			},
			{
				"x": 0.7756960389,
				"y": 3.1481920231,
				"z": 0.1646172667,
				"element": "C" 
			},
			{
				"x": 0.8587929158,
				"y": 2.1709103234,
				"z": -0.8322217056,
				"element": "C" 
			},
			{
				"x": -0.3946929649,
				"y": 1.7982541737,
				"z": -1.5943146972,
				"element": "C" 
			},
			{
				"x": 2.1081586576,
				"y": 1.5804018475,
				"z": -1.1133831159,
				"element": "C" 
			},
			{
				"x": 2.2368169002,
				"y": 0.5862414094,
				"z": -2.2125285406,
				"element": "C" 
			},
			{
				"x": 1.7223568783,
				"y": -0.6584293391,
				"z": -2.3189739506,
				"element": "C" 
			},
			{
				"x": 1.0138420764,
				"y": -1.4712306506,
				"z": -1.3269324375,
				"element": "C" 
			},
			{
				"x": 1.1479890458,
				"y": -1.144640974,
				"z": 0.1434977456,
				"element": "C" 
			},
			{
				"x": 0.2744194854,
				"y": -2.563465471,
				"z": -1.6867949454,
				"element": "C" 
			},
			{
				"x": 0.0547778546,
				"y": -3.0697752427,
				"z": -3.0218338244,
				"element": "C" 
			},
			{
				"x": -0.7636569762,
				"y": -4.0877104219,
				"z": -3.3982155285,
				"element": "C" 
			},
			{
				"x": -1.7096344536,
				"y": -4.869050507,
				"z": -2.5931175931,
				"element": "C" 
			},
			{
				"x": -1.8134175878,
				"y": -6.3242476439,
				"z": -2.9844750519,
				"element": "C" 
			},
			{
				"x": -2.4527650856,
				"y": -4.2852014986,
				"z": -1.6169778112,
				"element": "C" 
			},
			{
				"x": -3.4252518106,
				"y": -4.9545466438,
				"z": -0.7397680989,
				"element": "C" 
			},
			{
				"x": -4.0080029138,
				"y": -4.0480118375,
				"z": 0.0961093721,
				"element": "O" 
			},
			{
				"x": -3.7296601077,
				"y": -6.1352750092,
				"z": -0.6926701801,
				"element": "O" 
			},
			{
				"x": 3.2578533008,
				"y": 2.0099379998,
				"z": -0.4086974063,
				"element": "C" 
			},
			{
				"x": 4.6118620037,
				"y": 1.4041346923,
				"z": -0.7093440105,
				"element": "C" 
			},
			{
				"x": 3.1685701507,
				"y": 2.9930612545,
				"z": 0.5909555751,
				"element": "C" 
			},
			{
				"x": 4.3918995971,
				"y": 3.4456605452,
				"z": 1.3533313627,
				"element": "C" 
			},
			{
				"x": 0.2082419682,
				"y": 5.6455237842,
				"z": 1.3326702179,
				"element": "H" 
			},
			{
				"x": -0.0959391099,
				"y": 4.3644245043,
				"z": 2.5406622127,
				"element": "H" 
			},
			{
				"x": 0.8446665073,
				"y": 5.8116176691,
				"z": 2.9903444624,
				"element": "H" 
			},
			{
				"x": -0.1889884987,
				"y": 3.5971756661,
				"z": 0.370174175,
				"element": "H" 
			},
			{
				"x": -1.2081695343,
				"y": 2.4909595822,
				"z": -1.3613315491,
				"element": "H" 
			},
			{
				"x": -0.7406867432,
				"y": 0.7868876283,
				"z": -1.3538487786,
				"element": "H" 
			},
			{
				"x": -0.2280978005,
				"y": 1.8201434967,
				"z": -2.6758749907,
				"element": "H" 
			},
			{
				"x": 2.8035159645,
				"y": 0.9329003582,
				"z": -3.0790329748,
				"element": "H" 
			},
			{
				"x": 1.8867097162,
				"y": -1.1435042323,
				"z": -3.2786358962,
				"element": "H" 
			},
			{
				"x": 2.2002030052,
				"y": -1.0225469079,
				"z": 0.4217814297,
				"element": "H" 
			},
			{
				"x": 0.7180246386,
				"y": -1.9417544896,
				"z": 0.7557576239,
				"element": "H" 
			},
			{
				"x": 0.6505163206,
				"y": -0.2068219536,
				"z": 0.4071270626,
				"element": "H" 
			},
			{
				"x": -0.1893226852,
				"y": -3.1286517642,
				"z": -0.8829290612,
				"element": "H" 
			},
			{
				"x": 0.6447459179,
				"y": -2.6263480055,
				"z": -3.8206128692,
				"element": "H" 
			},
			{
				"x": -0.6858088343,
				"y": -4.4140298716,
				"z": -4.435028478,
				"element": "H" 
			},
			{
				"x": -2.5970681333,
				"y": -6.8417578482,
				"z": -2.4363188798,
				"element": "H" 
			},
			{
				"x": -2.0019927725,
				"y": -6.401553159,
				"z": -4.0625125385,
				"element": "H" 
			},
			{
				"x": -0.8565255899,
				"y": -6.8280027644,
				"z": -2.8001198366,
				"element": "H" 
			},
			{
				"x": -2.3716233314,
				"y": -3.2160801155,
				"z": -1.4594510318,
				"element": "H" 
			},
			{
				"x": -4.6307597996,
				"y": -4.5604254566,
				"z": 0.6374243846,
				"element": "H" 
			},
			{
				"x": 5.0864250094,
				"y": 1.018117555,
				"z": 0.2001445255,
				"element": "H" 
			},
			{
				"x": 5.3002406989,
				"y": 2.1496061907,
				"z": -1.1273831995,
				"element": "H" 
			},
			{
				"x": 4.5381867885,
				"y": 0.5780317639,
				"z": -1.4179181708,
				"element": "H" 
			},
			{
				"x": 5.1776509987,
				"y": 3.7985480775,
				"z": 0.6752113663,
				"element": "H" 
			},
			{
				"x": 4.147409743,
				"y": 4.254812744,
				"z": 2.040448032,
				"element": "H" 
			},
			{
				"x": 4.825668143,
				"y": 2.6252260939,
				"z": 1.9388000801,
				"element": "H" 
			}
		],
		 "valence_orbital": [ 
			{
				"type": "occ",
				"energy": -0.26235,
				"method": "rhf"
			},
			{
				"type": "occ",
				"energy": -0.25908,
				"method": "rhf"
			},
			{
				"type": "occ",
				"energy": -0.23026,
				"method": "rhf"
			},
			{
				"type": "occ",
				"energy": -0.21089,
				"method": "rhf"
			},
			{
				"type": "occ",
				"energy": -0.20025,
				"method": "rhf"
			},
			{
				"type": "unocc",
				"energy": -0.06956,
				"method": "rhf"
			},
			{
				"type": "unocc",
				"energy": -0.02507,
				"method": "rhf"
			},
			{
				"type": "unocc",
				"energy": 0.00449,
				"method": "rhf"
			},
			{
				"type": "unocc",
				"energy": 0.01529,
				"method": "rhf"
			},
			{
				"type": "unocc",
				"energy": 0.03961,
				"method": "rhf"
			}
		],
		"cosmo_sigma_profile": { 
			"-0.025": 0.0,
			"-0.024": 0.0,
			"-0.023": 0.0,
			"-0.022": 0.0,
			"-0.021": 0.0,
			"-0.02": 0.0,
			"-0.019": 0.0,
			"-0.018": 0.189181553104,
			"-0.017": 0.818127589266,
			"-0.016": 1.07331269019,
			"-0.015": 0.894967734242,
			"-0.014": 0.377482883096,
			"-0.013": 0.385307309188,
			"-0.012": 0.144546701958,
			"-0.011": 0.956987126749,
			"-0.01": 1.17750456631,
			"-0.009": 0.425995727918,
			"-0.008": 0.544686966463,
			"-0.007": 2.71159772951,
			"-0.006": 6.56664978255,
			"-0.005": 22.8774022898,
			"-0.004": 32.9487233748,
			"-0.003": 38.5405584342,
			"-0.002": 37.6968178378,
			"-0.001": 42.9719946857,
			"0.0": 49.9864333712,
			"0.001": 44.7225192885,
			"0.002": 27.4555642863,
			"0.003": 24.3532448923,
			"0.004": 23.1368167475,
			"0.005": 14.3521672406,
			"0.006": 9.52924298466,
			"0.007": 5.52250151566,
			"0.008": 4.51770478743,
			"0.009": 3.73512529201,
			"0.01": 3.27551515846,
			"0.011": 2.73097143849,
			"0.012": 3.63726337615,
			"0.013": 1.22762830695,
			"0.014": 0.0,
			"0.015": 0.0,
			"0.016": 0.0,
			"0.017": 0.0,
			"0.018": 0.0,
			"0.019": 0.0,
			"0.02": 0.0,
			"0.021": 0.0,
			"0.022": 0.0,
			"0.023": 0.0,
			"0.024": 0.0,
			"0.025": 0.0
		}
	}
}
