{
	 "smiles": "FC(F)(F)C1=NNC(N=CC2=CC=C(Cl)C=C2)=N1", 
	 "Tm": 506.15, 
	 "num_atms": 24, 
	 "gaussian": { 
		 "optdone": 1, 
		 "sigma_profile": "yes", 
		 "theory": "DFT", 
		 "functional": "B3LYP", 
		 "basiset": "6-31G**", 
		 "properties": { 
			 "R2extent": 10900.496, 
			 "electric_dipole_moment_norm": 4.20378237068, 
			 "electric_quadrupole_moment_norm": 26.7928647729, 
			 "total_energy": -1363.38207796, 
			 "HOMO_LUMO_gap": 0.15384, 
			 "cosmo_polarized_energy": -12.66, 
			 "cosmo_cavitation_energy": 34.14, 
			 "cosmo_dispersion_energy": -24.68, 
			 "cosmo_repulsion_energy": 1.86, 
			 "cosmo_total_nonelectrostatic_energy": 11.31, 
			 "SMD_solvation_energy": 3.22 
		},
		"coords": [
			{
				"x": -2.8794014682,
				"y": -1.4611461432,
				"z": 5.3579260465,
				"element": "F" 
			},
			{
				"x": -3.9751752638,
				"y": -0.9602696272,
				"z": 4.7683712354,
				"element": "C" 
			},
			{
				"x": -4.3216981247,
				"y": 0.1692820975,
				"z": 5.4185795583,
				"element": "F" 
			},
			{
				"x": -4.9813865358,
				"y": -1.8425113854,
				"z": 4.9354017169,
				"element": "F" 
			},
			{
				"x": -3.7243045133,
				"y": -0.6919197105,
				"z": 3.3081342422,
				"element": "C" 
			},
			{
				"x": -4.6838280349,
				"y": -0.1934021726,
				"z": 2.5353488089,
				"element": "N" 
			},
			{
				"x": -4.0531310649,
				"y": -0.1144300261,
				"z": 1.3474781965,
				"element": "N" 
			},
			{
				"x": -2.7721998564,
				"y": -0.5558064381,
				"z": 1.4448135399,
				"element": "C" 
			},
			{
				"x": -1.9548586407,
				"y": -0.5568327023,
				"z": 0.3359834779,
				"element": "N" 
			},
			{
				"x": -0.7467872481,
				"y": -0.985735314,
				"z": 0.4823798671,
				"element": "C" 
			},
			{
				"x": 0.2018562327,
				"y": -1.0306216924,
				"z": -0.6244873453,
				"element": "C" 
			},
			{
				"x": 1.5021666031,
				"y": -1.5098352493,
				"z": -0.3941932944,
				"element": "C" 
			},
			{
				"x": 2.4358089848,
				"y": -1.5682395562,
				"z": -1.4251402281,
				"element": "C" 
			},
			{
				"x": 2.0602042286,
				"y": -1.1414233729,
				"z": -2.6994201175,
				"element": "C" 
			},
			{
				"x": 3.2244673497,
				"y": -1.2092998433,
				"z": -4.0063938043,
				"element": "Cl" 
			},
			{
				"x": 0.7712424773,
				"y": -0.6595959077,
				"z": -2.955892074,
				"element": "C" 
			},
			{
				"x": -0.1505297912,
				"y": -0.6063358472,
				"z": -1.9195126688,
				"element": "C" 
			},
			{
				"x": -2.5383737355,
				"y": -0.9333129578,
				"z": 2.700943526,
				"element": "N" 
			},
			{
				"x": -4.5262538385,
				"y": 0.2366867645,
				"z": 0.5268164583,
				"element": "H" 
			},
			{
				"x": -0.3884769319,
				"y": -1.3357752899,
				"z": 1.4570349409,
				"element": "H" 
			},
			{
				"x": 1.7835050209,
				"y": -1.8396430909,
				"z": 0.6023441938,
				"element": "H" 
			},
			{
				"x": 3.4395124564,
				"y": -1.9378055076,
				"z": -1.2488026034,
				"element": "H" 
			},
			{
				"x": 0.5053226572,
				"y": -0.3341462048,
				"z": -3.9553932054,
				"element": "H" 
			},
			{
				"x": -1.1555809628,
				"y": -0.2370808225,
				"z": -2.0926204675,
				"element": "H" 
			}
		],
		 "valence_orbital": [ 
			{
				"type": "occ",
				"energy": -0.30072,
				"method": "rhf"
			},
			{
				"type": "occ",
				"energy": -0.29904,
				"method": "rhf"
			},
			{
				"type": "occ",
				"energy": -0.2877,
				"method": "rhf"
			},
			{
				"type": "occ",
				"energy": -0.28499,
				"method": "rhf"
			},
			{
				"type": "occ",
				"energy": -0.24675,
				"method": "rhf"
			},
			{
				"type": "unocc",
				"energy": -0.09291,
				"method": "rhf"
			},
			{
				"type": "unocc",
				"energy": -0.03293,
				"method": "rhf"
			},
			{
				"type": "unocc",
				"energy": -0.00797,
				"method": "rhf"
			},
			{
				"type": "unocc",
				"energy": 0.00528,
				"method": "rhf"
			},
			{
				"type": "unocc",
				"energy": 0.01495,
				"method": "rhf"
			}
		],
		"cosmo_sigma_profile": { 
			"-0.025": 0.0,
			"-0.024": 0.0,
			"-0.023": 0.0,
			"-0.022": 0.0,
			"-0.021": 0.0,
			"-0.02": 0.0,
			"-0.019": 0.0350199540964,
			"-0.018": 1.38076820746,
			"-0.017": 1.22639245902,
			"-0.016": 1.22366281838,
			"-0.015": 0.881329532693,
			"-0.014": 0.580519278968,
			"-0.013": 1.28532286301,
			"-0.012": 0.605848362523,
			"-0.011": 0.65777857463,
			"-0.01": 0.845627590394,
			"-0.009": 3.0836634772,
			"-0.008": 6.26291796728,
			"-0.007": 7.86906096566,
			"-0.006": 9.49652274708,
			"-0.005": 8.26408131229,
			"-0.004": 7.85975827255,
			"-0.003": 14.072062196,
			"-0.002": 19.6590115281,
			"-0.001": 18.4249637099,
			"0.0": 23.2079132129,
			"0.001": 29.853833206,
			"0.002": 46.6300868942,
			"0.003": 32.5718740084,
			"0.004": 15.8406636748,
			"0.005": 6.527578611,
			"0.006": 3.53178196293,
			"0.007": 3.93723807268,
			"0.008": 3.45612598933,
			"0.009": 2.24084931655,
			"0.01": 2.0599160677,
			"0.011": 2.27898856507,
			"0.012": 1.49469773905,
			"0.013": 0.792364257159,
			"0.014": 0.0,
			"0.015": 0.0,
			"0.016": 0.0,
			"0.017": 0.0,
			"0.018": 0.0,
			"0.019": 0.0,
			"0.02": 0.0,
			"0.021": 0.0,
			"0.022": 0.0,
			"0.023": 0.0,
			"0.024": 0.0,
			"0.025": 0.0
		}
	}
}
