{
	 "smiles": "CC(=O)NC1C(O)C(O)C(COC(C2=CC=CC=C2)(C2=CC=CC=C2)C2=CC=CC=C2)OC1OCC1=CC=CC=C1", 
	 "Tm": 377.15, 
	 "num_atms": 76, 
	 "gaussian": { 
		 "optdone": 1, 
		 "sigma_profile": "yes", 
		 "theory": "DFT", 
		 "functional": "B3LYP", 
		 "basiset": "6-31G**", 
		 "properties": { 
			 "R2extent": 22957.675, 
			 "electric_dipole_moment_norm": 3.17638042589, 
			 "electric_quadrupole_moment_norm": 32.2117608191, 
			 "total_energy": -1822.77475247, 
			 "HOMO_LUMO_gap": 0.21594, 
			 "cosmo_polarized_energy": -26.71, 
			 "cosmo_cavitation_energy": 75.97, 
			 "cosmo_dispersion_energy": -45.42, 
			 "cosmo_repulsion_energy": 3.46, 
			 "cosmo_total_nonelectrostatic_energy": 34.02, 
			 "SMD_solvation_energy": 12.66 
		},
		"coords": [
			{
				"x": -0.8391395499,
				"y": -2.1463212559,
				"z": -3.4292790894,
				"element": "C" 
			},
			{
				"x": -0.1776003204,
				"y": -3.5016550489,
				"z": -3.2259376958,
				"element": "C" 
			},
			{
				"x": -0.2817019505,
				"y": -4.4054216555,
				"z": -4.0446772312,
				"element": "O" 
			},
			{
				"x": 0.5571481545,
				"y": -3.6770401451,
				"z": -2.0770004317,
				"element": "N" 
			},
			{
				"x": 0.8383020653,
				"y": -2.7207827421,
				"z": -1.0305454705,
				"element": "C" 
			},
			{
				"x": 2.2452854334,
				"y": -2.9856523407,
				"z": -0.4274014999,
				"element": "C" 
			},
			{
				"x": 2.5464454325,
				"y": -4.3789461882,
				"z": -0.3814710959,
				"element": "O" 
			},
			{
				"x": 2.3849824493,
				"y": -2.3733027376,
				"z": 0.9910624323,
				"element": "C" 
			},
			{
				"x": 3.6952245297,
				"y": -1.8834398111,
				"z": 1.2324444548,
				"element": "O" 
			},
			{
				"x": 1.3943783301,
				"y": -1.2334059417,
				"z": 1.2707608546,
				"element": "C" 
			},
			{
				"x": 1.7383914343,
				"y": 0.0632927464,
				"z": 0.5338850217,
				"element": "C" 
			},
			{
				"x": 0.7703622299,
				"y": 1.0223489272,
				"z": 0.921770043,
				"element": "O" 
			},
			{
				"x": 0.8642760646,
				"y": 2.3627626655,
				"z": 0.3979991868,
				"element": "C" 
			},
			{
				"x": 2.0645617462,
				"y": 3.0914927432,
				"z": 1.040310992,
				"element": "C" 
			},
			{
				"x": 2.4645114176,
				"y": 2.7207131906,
				"z": 2.332118398,
				"element": "C" 
			},
			{
				"x": 3.493697631,
				"y": 3.3964363668,
				"z": 2.9864256043,
				"element": "C" 
			},
			{
				"x": 4.1375642265,
				"y": 4.4689357919,
				"z": 2.3665921963,
				"element": "C" 
			},
			{
				"x": 3.738834339,
				"y": 4.8581530952,
				"z": 1.0882481449,
				"element": "C" 
			},
			{
				"x": 2.7126789899,
				"y": 4.1753846034,
				"z": 0.4308695014,
				"element": "C" 
			},
			{
				"x": -0.4328608261,
				"y": 3.0510772422,
				"z": 0.8824313444,
				"element": "C" 
			},
			{
				"x": -0.611379274,
				"y": 4.4307768997,
				"z": 0.7091839193,
				"element": "C" 
			},
			{
				"x": -1.7849073112,
				"y": 5.0568039503,
				"z": 1.1256801747,
				"element": "C" 
			},
			{
				"x": -2.8027039383,
				"y": 4.3141991219,
				"z": 1.7285679929,
				"element": "C" 
			},
			{
				"x": -2.6336807847,
				"y": 2.9415836838,
				"z": 1.9034054155,
				"element": "C" 
			},
			{
				"x": -1.4595227946,
				"y": 2.311177039,
				"z": 1.481998019,
				"element": "C" 
			},
			{
				"x": 0.9140331308,
				"y": 2.2937142231,
				"z": -1.1454962521,
				"element": "C" 
			},
			{
				"x": -0.2758448175,
				"y": 2.2267767727,
				"z": -1.8856067587,
				"element": "C" 
			},
			{
				"x": -0.254686109,
				"y": 2.0499888926,
				"z": -3.2697577128,
				"element": "C" 
			},
			{
				"x": 0.9603982517,
				"y": 1.9297599433,
				"z": -3.94687306,
				"element": "C" 
			},
			{
				"x": 2.1524989186,
				"y": 1.9810265975,
				"z": -3.223732103,
				"element": "C" 
			},
			{
				"x": 2.1279646137,
				"y": 2.1570209065,
				"z": -1.8386593841,
				"element": "C" 
			},
			{
				"x": 0.0369742588,
				"y": -1.6484199969,
				"z": 1.0049299414,
				"element": "O" 
			},
			{
				"x": -0.1828279558,
				"y": -2.7202980208,
				"z": 0.1168529256,
				"element": "C" 
			},
			{
				"x": -0.0693934652,
				"y": -3.9874566569,
				"z": 0.7600525847,
				"element": "O" 
			},
			{
				"x": -1.1006703379,
				"y": -4.2634826272,
				"z": 1.7181803278,
				"element": "C" 
			},
			{
				"x": -2.4424071575,
				"y": -4.5816114148,
				"z": 1.0880117729,
				"element": "C" 
			},
			{
				"x": -2.5206553333,
				"y": -5.3047966629,
				"z": -0.1095707204,
				"element": "C" 
			},
			{
				"x": -3.7612745169,
				"y": -5.6310909404,
				"z": -0.657544574,
				"element": "C" 
			},
			{
				"x": -4.9383057105,
				"y": -5.2469398916,
				"z": -0.010534087,
				"element": "C" 
			},
			{
				"x": -4.8683048107,
				"y": -4.5259146607,
				"z": 1.1825089536,
				"element": "C" 
			},
			{
				"x": -3.6260952353,
				"y": -4.1894685139,
				"z": 1.7236318477,
				"element": "C" 
			},
			{
				"x": -1.4818980437,
				"y": -1.8696151474,
				"z": -2.5876447734,
				"element": "H" 
			},
			{
				"x": -0.0953217962,
				"y": -1.3506208017,
				"z": -3.5502419008,
				"element": "H" 
			},
			{
				"x": -1.4411285536,
				"y": -2.2058286599,
				"z": -4.3355751053,
				"element": "H" 
			},
			{
				"x": 1.0418384771,
				"y": -4.5636370408,
				"z": -2.0097772196,
				"element": "H" 
			},
			{
				"x": 0.824452362,
				"y": -1.7127570875,
				"z": -1.4511016527,
				"element": "H" 
			},
			{
				"x": 3.0039178155,
				"y": -2.5410278915,
				"z": -1.0788490278,
				"element": "H" 
			},
			{
				"x": 1.8669412961,
				"y": -4.7711330164,
				"z": 0.1917458656,
				"element": "H" 
			},
			{
				"x": 2.1409241591,
				"y": -3.1769930937,
				"z": 1.6988640227,
				"element": "H" 
			},
			{
				"x": 4.3020946767,
				"y": -2.6287261755,
				"z": 1.1274797312,
				"element": "H" 
			},
			{
				"x": 1.419909085,
				"y": -1.0128360254,
				"z": 2.343001109,
				"element": "H" 
			},
			{
				"x": 1.7315869606,
				"y": -0.0808851842,
				"z": -0.5522664565,
				"element": "H" 
			},
			{
				"x": 2.7519590398,
				"y": 0.3665417867,
				"z": 0.8241040364,
				"element": "H" 
			},
			{
				"x": 1.953339551,
				"y": 1.8997901481,
				"z": 2.8227661767,
				"element": "H" 
			},
			{
				"x": 3.7893415716,
				"y": 3.0864051405,
				"z": 3.9848639875,
				"element": "H" 
			},
			{
				"x": 4.9390168416,
				"y": 4.9966462563,
				"z": 2.8755244536,
				"element": "H" 
			},
			{
				"x": 4.2273114263,
				"y": 5.693690165,
				"z": 0.5945788356,
				"element": "H" 
			},
			{
				"x": 2.4229303751,
				"y": 4.4901954846,
				"z": -0.5661620436,
				"element": "H" 
			},
			{
				"x": 0.1726289674,
				"y": 5.0252670669,
				"z": 0.2519257746,
				"element": "H" 
			},
			{
				"x": -1.9014693396,
				"y": 6.1274540481,
				"z": 0.9824470296,
				"element": "H" 
			},
			{
				"x": -3.7158510577,
				"y": 4.8021176559,
				"z": 2.0575772237,
				"element": "H" 
			},
			{
				"x": -3.4183055676,
				"y": 2.351204601,
				"z": 2.368978424,
				"element": "H" 
			},
			{
				"x": -1.3342095425,
				"y": 1.2435383632,
				"z": 1.6104979593,
				"element": "H" 
			},
			{
				"x": -1.2278515626,
				"y": 2.3165296572,
				"z": -1.3747267374,
				"element": "H" 
			},
			{
				"x": -1.1911060607,
				"y": 2.0109452856,
				"z": -3.8192106577,
				"element": "H" 
			},
			{
				"x": 0.9778032103,
				"y": 1.7993724215,
				"z": -5.0251545146,
				"element": "H" 
			},
			{
				"x": 3.1061905072,
				"y": 1.8829543462,
				"z": -3.734781991,
				"element": "H" 
			},
			{
				"x": 3.0656748332,
				"y": 2.1881260942,
				"z": -1.294253872,
				"element": "H" 
			},
			{
				"x": -1.2080772643,
				"y": -2.5886636864,
				"z": -0.2452750647,
				"element": "H" 
			},
			{
				"x": -0.7294659298,
				"y": -5.1255237505,
				"z": 2.2834867255,
				"element": "H" 
			},
			{
				"x": -1.1916208619,
				"y": -3.4217543588,
				"z": 2.4147024487,
				"element": "H" 
			},
			{
				"x": -1.6064495163,
				"y": -5.5941274327,
				"z": -0.6181738877,
				"element": "H" 
			},
			{
				"x": -3.8076985545,
				"y": -6.1848715301,
				"z": -1.5908087306,
				"element": "H" 
			},
			{
				"x": -5.9037943432,
				"y": -5.5028139491,
				"z": -0.4373954451,
				"element": "H" 
			},
			{
				"x": -5.7790958263,
				"y": -4.215273817,
				"z": 1.6866114389,
				"element": "H" 
			},
			{
				"x": -3.5759687835,
				"y": -3.6160680224,
				"z": 2.6465089546,
				"element": "H" 
			}
		],
		 "valence_orbital": [ 
			{
				"type": "occ",
				"energy": -0.24772,
				"method": "rhf"
			},
			{
				"type": "occ",
				"energy": -0.24318,
				"method": "rhf"
			},
			{
				"type": "occ",
				"energy": -0.24055,
				"method": "rhf"
			},
			{
				"type": "occ",
				"energy": -0.23756,
				"method": "rhf"
			},
			{
				"type": "occ",
				"energy": -0.23229,
				"method": "rhf"
			},
			{
				"type": "unocc",
				"energy": -0.01635,
				"method": "rhf"
			},
			{
				"type": "unocc",
				"energy": -0.0136,
				"method": "rhf"
			},
			{
				"type": "unocc",
				"energy": -0.00951,
				"method": "rhf"
			},
			{
				"type": "unocc",
				"energy": -0.00626,
				"method": "rhf"
			},
			{
				"type": "unocc",
				"energy": -0.00483,
				"method": "rhf"
			}
		],
		"cosmo_sigma_profile": { 
			"-0.025": 0.0,
			"-0.024": 0.0,
			"-0.023": 0.0,
			"-0.022": 0.0,
			"-0.021": 0.0,
			"-0.02": 0.0,
			"-0.019": 0.0,
			"-0.018": 0.0,
			"-0.017": 0.0,
			"-0.016": 0.334568933313,
			"-0.015": 0.774281662935,
			"-0.014": 0.804391393448,
			"-0.013": 1.18873670194,
			"-0.012": 0.4698250948,
			"-0.011": 0.928335928907,
			"-0.01": 1.10190137039,
			"-0.009": 2.12189061032,
			"-0.008": 3.26913810159,
			"-0.007": 9.58661830601,
			"-0.006": 25.4511993897,
			"-0.005": 52.9823092019,
			"-0.004": 57.3533926567,
			"-0.003": 56.7397549397,
			"-0.002": 46.0192477046,
			"-0.001": 46.2350828439,
			"0.0": 43.7025447779,
			"0.001": 42.0813358657,
			"0.002": 37.4760706841,
			"0.003": 36.5124593793,
			"0.004": 35.4443047751,
			"0.005": 35.662317276,
			"0.006": 21.7465268401,
			"0.007": 5.32469504512,
			"0.008": 6.80341042343,
			"0.009": 4.94742881093,
			"0.01": 5.93557948882,
			"0.011": 3.58567381084,
			"0.012": 3.55085008662,
			"0.013": 4.89967581105,
			"0.014": 5.74512018964,
			"0.015": 2.63395322418,
			"0.016": 0.0482707690079,
			"0.017": 0.0,
			"0.018": 0.0,
			"0.019": 0.0,
			"0.02": 0.0,
			"0.021": 0.0,
			"0.022": 0.0,
			"0.023": 0.0,
			"0.024": 0.0,
			"0.025": 0.0
		}
	}
}
