{
	 "smiles": "CCOC(=O)[C@@]12[C@@H](C3=C(O[P@@]1(=O)OCC)C=CC(Br)=C3)[C@]1([C@@H]2C2=C(O[P@]1(=O)OCC)C=CC(Br)=C2)C(=O)OCC", 
	 "Tm": 546.15, 
	 "num_atms": 68, 
	 "gaussian": { 
		 "optdone": 1, 
		 "sigma_profile": "yes", 
		 "theory": "DFT", 
		 "functional": "B3LYP", 
		 "basiset": "6-31G**", 
		 "properties": { 
			 "R2extent": 26756.9346, 
			 "electric_dipole_moment_norm": 2.14984285937, 
			 "electric_quadrupole_moment_norm": 45.1447604639, 
			 "total_energy": -7585.52315282, 
			 "HOMO_LUMO_gap": 0.19797, 
			 "cosmo_polarized_energy": -29.24, 
			 "cosmo_cavitation_energy": 77.17, 
			 "cosmo_dispersion_energy": -44.89, 
			 "cosmo_repulsion_energy": 3.39, 
			 "cosmo_total_nonelectrostatic_energy": 35.67, 
			 "SMD_solvation_energy": 14.46 
		},
		"coords": [
			{
				"x": -1.293261053,
				"y": -2.6756348256,
				"z": -4.4634905709,
				"element": "C" 
			},
			{
				"x": -1.787490452,
				"y": -2.7213928893,
				"z": -3.0314451995,
				"element": "C" 
			},
			{
				"x": -0.8373619445,
				"y": -1.979526313,
				"z": -2.2217578317,
				"element": "O" 
			},
			{
				"x": -1.0678659901,
				"y": -1.9443015846,
				"z": -0.9066942972,
				"element": "C" 
			},
			{
				"x": -2.0097701621,
				"y": -2.4751919268,
				"z": -0.3533721141,
				"element": "O" 
			},
			{
				"x": 0.034914807,
				"y": -1.1886889976,
				"z": -0.1707856475,
				"element": "C" 
			},
			{
				"x": -0.3787458386,
				"y": -0.7830323152,
				"z": 1.2773888515,
				"element": "C" 
			},
			{
				"x": 0.3618634128,
				"y": -1.3505267415,
				"z": 2.456456939,
				"element": "C" 
			},
			{
				"x": 1.6362660324,
				"y": -1.921001229,
				"z": 2.3414070676,
				"element": "C" 
			},
			{
				"x": 2.3072660208,
				"y": -1.9978140722,
				"z": 1.131582397,
				"element": "O" 
			},
			{
				"x": 1.6071155165,
				"y": -2.1481555977,
				"z": -0.3446159594,
				"element": "P" 
			},
			{
				"x": 2.4988051039,
				"y": -1.6881444785,
				"z": -1.4259730315,
				"element": "O" 
			},
			{
				"x": 1.1971205103,
				"y": -3.6979038726,
				"z": -0.4753741895,
				"element": "O" 
			},
			{
				"x": 0.6413113141,
				"y": -4.5192625736,
				"z": 0.5875981217,
				"element": "C" 
			},
			{
				"x": 0.3617773924,
				"y": -5.8907420316,
				"z": 0.0045891587,
				"element": "C" 
			},
			{
				"x": 2.3103447739,
				"y": -2.4193228063,
				"z": 3.458008712,
				"element": "C" 
			},
			{
				"x": 1.716747306,
				"y": -2.3547682885,
				"z": 4.7147469507,
				"element": "C" 
			},
			{
				"x": 0.4451817255,
				"y": -1.791689373,
				"z": 4.8378984512,
				"element": "C" 
			},
			{
				"x": -0.3744793192,
				"y": -1.694894014,
				"z": 6.5606262462,
				"element": "Br" 
			},
			{
				"x": -0.2289241933,
				"y": -1.295489579,
				"z": 3.727802675,
				"element": "C" 
			},
			{
				"x": -0.1464038984,
				"y": 0.7488806666,
				"z": 0.9119486723,
				"element": "C" 
			},
			{
				"x": 0.2673297713,
				"y": 0.3389847155,
				"z": -0.538580397,
				"element": "C" 
			},
			{
				"x": -0.4808108311,
				"y": 0.9314235376,
				"z": -1.7008254056,
				"element": "C" 
			},
			{
				"x": -1.8046554409,
				"y": 1.3703220031,
				"z": -1.5734419301,
				"element": "C" 
			},
			{
				"x": -2.4778683959,
				"y": 1.2522256296,
				"z": -0.3621195285,
				"element": "O" 
			},
			{
				"x": -1.7323147905,
				"y": 1.6597300073,
				"z": 1.047558897,
				"element": "P" 
			},
			{
				"x": -2.6128895541,
				"y": 1.3518345688,
				"z": 2.1961496873,
				"element": "O" 
			},
			{
				"x": -1.2598182745,
				"y": 3.1837972286,
				"z": 0.8392092455,
				"element": "O" 
			},
			{
				"x": -2.2012644358,
				"y": 4.2735390302,
				"z": 1.0550963032,
				"element": "C" 
			},
			{
				"x": -1.4144530498,
				"y": 5.5690217555,
				"z": 1.0712087055,
				"element": "C" 
			},
			{
				"x": -2.5069355528,
				"y": 1.8935792016,
				"z": -2.6568295039,
				"element": "C" 
			},
			{
				"x": -1.8887886028,
				"y": 1.9819730105,
				"z": -3.9020678439,
				"element": "C" 
			},
			{
				"x": -0.5685101154,
				"y": 1.5507524567,
				"z": -4.0372790818,
				"element": "C" 
			},
			{
				"x": 0.2823087375,
				"y": 1.6651989627,
				"z": -5.744700987,
				"element": "Br" 
			},
			{
				"x": 0.1355421624,
				"y": 1.0335885153,
				"z": -2.9540104886,
				"element": "C" 
			},
			{
				"x": 0.9799812327,
				"y": 1.4490727858,
				"z": 1.6696920042,
				"element": "C" 
			},
			{
				"x": 2.095206649,
				"y": 1.615002109,
				"z": 1.2258068257,
				"element": "O" 
			},
			{
				"x": 0.5705748227,
				"y": 1.8400078381,
				"z": 2.8851487516,
				"element": "O" 
			},
			{
				"x": 1.5285428839,
				"y": 2.5686427278,
				"z": 3.701901901,
				"element": "C" 
			},
			{
				"x": 2.4122069773,
				"y": 1.6269875999,
				"z": 4.5027112947,
				"element": "C" 
			},
			{
				"x": -0.3037206546,
				"y": -3.132759746,
				"z": -4.5480226701,
				"element": "H" 
			},
			{
				"x": -1.2290959281,
				"y": -1.6455328897,
				"z": -4.823765344,
				"element": "H" 
			},
			{
				"x": -1.9859732699,
				"y": -3.2257435187,
				"z": -5.1080464222,
				"element": "H" 
			},
			{
				"x": -1.8465908526,
				"y": -3.7426764083,
				"z": -2.6435661666,
				"element": "H" 
			},
			{
				"x": -2.7725675919,
				"y": -2.2600608821,
				"z": -2.9139013144,
				"element": "H" 
			},
			{
				"x": -1.4431016439,
				"y": -0.9871224168,
				"z": 1.4126043051,
				"element": "H" 
			},
			{
				"x": 1.3683375681,
				"y": -4.5760426933,
				"z": 1.4030567192,
				"element": "H" 
			},
			{
				"x": -0.2781842159,
				"y": -4.0573871888,
				"z": 0.961250093,
				"element": "H" 
			},
			{
				"x": 1.2780507252,
				"y": -6.3363622376,
				"z": -0.3917055954,
				"element": "H" 
			},
			{
				"x": -0.0388448658,
				"y": -6.5471707572,
				"z": 0.7834492753,
				"element": "H" 
			},
			{
				"x": -0.372491631,
				"y": -5.8252504554,
				"z": -0.8027563237,
				"element": "H" 
			},
			{
				"x": 3.2965929193,
				"y": -2.8503588968,
				"z": 3.3237751746,
				"element": "H" 
			},
			{
				"x": 2.233662827,
				"y": -2.7385681146,
				"z": 5.5866046413,
				"element": "H" 
			},
			{
				"x": -1.2099116886,
				"y": -0.8443689698,
				"z": 3.8343604191,
				"element": "H" 
			},
			{
				"x": 1.3328193949,
				"y": 0.5347200671,
				"z": -0.66953194,
				"element": "H" 
			},
			{
				"x": -2.7245387059,
				"y": 4.1006177648,
				"z": 1.9998614841,
				"element": "H" 
			},
			{
				"x": -2.9352154601,
				"y": 4.2620722492,
				"z": 0.2417591531,
				"element": "H" 
			},
			{
				"x": -0.8820857428,
				"y": 5.7135018938,
				"z": 0.1271099019,
				"element": "H" 
			},
			{
				"x": -2.0958875481,
				"y": 6.4130109375,
				"z": 1.2179464066,
				"element": "H" 
			},
			{
				"x": -0.6844048527,
				"y": 5.5681833916,
				"z": 1.8852300208,
				"element": "H" 
			},
			{
				"x": -3.5316382228,
				"y": 2.219500174,
				"z": -2.513987075,
				"element": "H" 
			},
			{
				"x": -2.4241121199,
				"y": 2.3838117271,
				"z": -4.7544794994,
				"element": "H" 
			},
			{
				"x": 1.1548926084,
				"y": 0.6831680222,
				"z": -3.0743542455,
				"element": "H" 
			},
			{
				"x": 0.9036479438,
				"y": 3.1848727534,
				"z": 4.3515281283,
				"element": "H" 
			},
			{
				"x": 2.1207936734,
				"y": 3.2104686876,
				"z": 3.0458013583,
				"element": "H" 
			},
			{
				"x": 3.0776872662,
				"y": 2.2124304549,
				"z": 5.1459978498,
				"element": "H" 
			},
			{
				"x": 3.0283145283,
				"y": 1.0159565329,
				"z": 3.8390125255,
				"element": "H" 
			},
			{
				"x": 1.8111702824,
				"y": 0.9697096784,
				"z": 5.1360952891,
				"element": "H" 
			}
		],
		 "valence_orbital": [ 
			{
				"type": "occ",
				"energy": -0.28241,
				"method": "rhf"
			},
			{
				"type": "occ",
				"energy": -0.27239,
				"method": "rhf"
			},
			{
				"type": "occ",
				"energy": -0.26689,
				"method": "rhf"
			},
			{
				"type": "occ",
				"energy": -0.2419,
				"method": "rhf"
			},
			{
				"type": "occ",
				"energy": -0.23995,
				"method": "rhf"
			},
			{
				"type": "unocc",
				"energy": -0.04198,
				"method": "rhf"
			},
			{
				"type": "unocc",
				"energy": -0.02908,
				"method": "rhf"
			},
			{
				"type": "unocc",
				"energy": -0.02445,
				"method": "rhf"
			},
			{
				"type": "unocc",
				"energy": -0.02252,
				"method": "rhf"
			},
			{
				"type": "unocc",
				"energy": -0.01182,
				"method": "rhf"
			}
		],
		"cosmo_sigma_profile": { 
			"-0.025": 0.0,
			"-0.024": 0.0,
			"-0.023": 0.0,
			"-0.022": 0.0,
			"-0.021": 0.0,
			"-0.02": 0.0,
			"-0.019": 0.0,
			"-0.018": 0.0,
			"-0.017": 0.0,
			"-0.016": 0.0,
			"-0.015": 0.0,
			"-0.014": 0.0,
			"-0.013": 0.0215833628377,
			"-0.012": 0.0390943541721,
			"-0.011": 0.128847630078,
			"-0.01": 0.153198102903,
			"-0.009": 0.229577348364,
			"-0.008": 5.28218205737,
			"-0.007": 10.7400191802,
			"-0.006": 23.9352847716,
			"-0.005": 44.5449044569,
			"-0.004": 60.5372268117,
			"-0.003": 54.7102256325,
			"-0.002": 53.969516935,
			"-0.001": 60.6809259507,
			"0.0": 63.3191322126,
			"0.001": 51.6572024439,
			"0.002": 37.1554878306,
			"0.003": 27.758044463,
			"0.004": 34.0765176103,
			"0.005": 14.2745648745,
			"0.006": 10.2089541475,
			"0.007": 8.88773789036,
			"0.008": 9.41619455313,
			"0.009": 8.5257767571,
			"0.01": 8.9506203816,
			"0.011": 5.79777778832,
			"0.012": 4.97265993464,
			"0.013": 9.32149525127,
			"0.014": 3.5019256327,
			"0.015": 0.0,
			"0.016": 0.0,
			"0.017": 0.0,
			"0.018": 0.0,
			"0.019": 0.0,
			"0.02": 0.0,
			"0.021": 0.0,
			"0.022": 0.0,
			"0.023": 0.0,
			"0.024": 0.0,
			"0.025": 0.0
		}
	}
}
