{
	 "smiles": "CC1=C2N=CC(C#N)=C(Cl)C2=CC(F)=C1", 
	 "Tm": 411.15, 
	 "num_atms": 21, 
	 "gaussian": { 
		 "optdone": 1, 
		 "sigma_profile": "yes", 
		 "theory": "DFT", 
		 "functional": "B3LYP", 
		 "basiset": "6-31G**", 
		 "properties": { 
			 "R2extent": 3921.4733, 
			 "electric_dipole_moment_norm": 4.25079360355, 
			 "electric_quadrupole_moment_norm": 18.0494084812, 
			 "total_energy": -1092.30757973, 
			 "HOMO_LUMO_gap": 0.15961, 
			 "cosmo_polarized_energy": -8.63, 
			 "cosmo_cavitation_energy": 28.8, 
			 "cosmo_dispersion_energy": -20.55, 
			 "cosmo_repulsion_energy": 1.56, 
			 "cosmo_total_nonelectrostatic_energy": 9.8, 
			 "SMD_solvation_energy": 5.35 
		},
		"coords": [
			{
				"x": 2.4633311169,
				"y": -2.2131952163,
				"z": 1.8320363535,
				"element": "C" 
			},
			{
				"x": 1.8111699194,
				"y": -1.3131191921,
				"z": 0.8172914575,
				"element": "C" 
			},
			{
				"x": 0.3991505191,
				"y": -1.4058162334,
				"z": 0.5885213288,
				"element": "C" 
			},
			{
				"x": -0.29707449,
				"y": -2.3232958576,
				"z": 1.316161964,
				"element": "N" 
			},
			{
				"x": -1.5890006238,
				"y": -2.4280896206,
				"z": 1.1261593336,
				"element": "C" 
			},
			{
				"x": -2.3234464816,
				"y": -1.6339611834,
				"z": 0.1950979634,
				"element": "C" 
			},
			{
				"x": -3.7325156304,
				"y": -1.8343425359,
				"z": 0.0707917165,
				"element": "C" 
			},
			{
				"x": -4.8763669671,
				"y": -2.0347534192,
				"z": 0.0062563372,
				"element": "N" 
			},
			{
				"x": -1.6269792831,
				"y": -0.6947938145,
				"z": -0.5533930902,
				"element": "C" 
			},
			{
				"x": -2.4776964264,
				"y": 0.2980253127,
				"z": -1.7022345512,
				"element": "Cl" 
			},
			{
				"x": -0.2239208065,
				"y": -0.5464509804,
				"z": -0.3802819856,
				"element": "C" 
			},
			{
				"x": 0.5585019085,
				"y": 0.3876726461,
				"z": -1.1044965243,
				"element": "C" 
			},
			{
				"x": 1.9035223304,
				"y": 0.4389607743,
				"z": -0.850934985,
				"element": "C" 
			},
			{
				"x": 2.6699517735,
				"y": 1.3158709998,
				"z": -1.5236429803,
				"element": "F" 
			},
			{
				"x": 2.5392622813,
				"y": -0.3921558711,
				"z": 0.0934869381,
				"element": "C" 
			},
			{
				"x": 3.5374224068,
				"y": -2.0214640491,
				"z": 1.8890476596,
				"element": "H" 
			},
			{
				"x": 2.0250733395,
				"y": -2.0659686204,
				"z": 2.8236695543,
				"element": "H" 
			},
			{
				"x": 2.3052845572,
				"y": -3.2659051468,
				"z": 1.5792570514,
				"element": "H" 
			},
			{
				"x": -2.1283039814,
				"y": -3.1661125482,
				"z": 1.7161677384,
				"element": "H" 
			},
			{
				"x": 0.113704372,
				"y": 1.0459112221,
				"z": -1.8392590313,
				"element": "H" 
			},
			{
				"x": 3.6102301657,
				"y": -0.2878166661,
				"z": 0.2341977516,
				"element": "H" 
			}
		],
		 "valence_orbital": [ 
			{
				"type": "occ",
				"energy": -0.33845,
				"method": "rhf"
			},
			{
				"type": "occ",
				"energy": -0.30485,
				"method": "rhf"
			},
			{
				"type": "occ",
				"energy": -0.28556,
				"method": "rhf"
			},
			{
				"type": "occ",
				"energy": -0.27448,
				"method": "rhf"
			},
			{
				"type": "occ",
				"energy": -0.25202,
				"method": "rhf"
			},
			{
				"type": "unocc",
				"energy": -0.09241,
				"method": "rhf"
			},
			{
				"type": "unocc",
				"energy": -0.05641,
				"method": "rhf"
			},
			{
				"type": "unocc",
				"energy": -0.00823,
				"method": "rhf"
			},
			{
				"type": "unocc",
				"energy": 0.00449,
				"method": "rhf"
			},
			{
				"type": "unocc",
				"energy": 0.02256,
				"method": "rhf"
			}
		],
		"cosmo_sigma_profile": { 
			"-0.025": 0.0,
			"-0.024": 0.0,
			"-0.023": 0.0,
			"-0.022": 0.0,
			"-0.021": 0.0,
			"-0.02": 0.0,
			"-0.019": 0.0,
			"-0.018": 0.0,
			"-0.017": 0.0,
			"-0.016": 0.0,
			"-0.015": 0.0,
			"-0.014": 0.0,
			"-0.013": 0.0,
			"-0.012": 0.0,
			"-0.011": 0.0,
			"-0.01": 0.0,
			"-0.009": 1.54123807436,
			"-0.008": 5.13602818339,
			"-0.007": 5.35063628137,
			"-0.006": 5.75373840517,
			"-0.005": 8.2126150075,
			"-0.004": 15.1700820491,
			"-0.003": 24.1251529959,
			"-0.002": 23.2917366138,
			"-0.001": 31.6579011186,
			"0.0": 28.9572371813,
			"0.001": 18.1328633376,
			"0.002": 13.9539836925,
			"0.003": 13.1568915517,
			"0.004": 10.3946898934,
			"0.005": 4.62288436189,
			"0.006": 3.9143906133,
			"0.007": 4.49743128967,
			"0.008": 4.47405753184,
			"0.009": 3.71584151988,
			"0.01": 3.68423845022,
			"0.011": 3.1490203468,
			"0.012": 2.48490630462,
			"0.013": 0.226373091986,
			"0.014": 0.0,
			"0.015": 0.0,
			"0.016": 0.0,
			"0.017": 0.0,
			"0.018": 0.0,
			"0.019": 0.0,
			"0.02": 0.0,
			"0.021": 0.0,
			"0.022": 0.0,
			"0.023": 0.0,
			"0.024": 0.0,
			"0.025": 0.0
		}
	}
}
