{
	 "smiles": "OC(=O)C1(CCCC1)C1=CC(Br)=CC=C1", 
	 "Tm": 432.15, 
	 "num_atms": 28, 
	 "gaussian": { 
		 "optdone": 1, 
		 "sigma_profile": "yes", 
		 "theory": "DFT", 
		 "functional": "B3LYP", 
		 "basiset": "6-31G**", 
		 "properties": { 
			 "R2extent": 5159.2979, 
			 "electric_dipole_moment_norm": 4.72615867804, 
			 "electric_quadrupole_moment_norm": 12.3237714499, 
			 "total_energy": -3186.97688233, 
			 "HOMO_LUMO_gap": 0.21895, 
			 "cosmo_polarized_energy": -12.6, 
			 "cosmo_cavitation_energy": 31.98, 
			 "cosmo_dispersion_energy": -23.1, 
			 "cosmo_repulsion_energy": 1.82, 
			 "cosmo_total_nonelectrostatic_energy": 10.7, 
			 "SMD_solvation_energy": 4.78 
		},
		"coords": [
			{
				"x": -0.2155251261,
				"y": -1.8507953658,
				"z": -2.2392866384,
				"element": "O" 
			},
			{
				"x": 0.8739824869,
				"y": -1.0476439225,
				"z": -2.2075811084,
				"element": "C" 
			},
			{
				"x": 1.642279345,
				"y": -1.0346279983,
				"z": -3.1389835648,
				"element": "O" 
			},
			{
				"x": 1.1118845605,
				"y": -0.2442837562,
				"z": -0.9067053818,
				"element": "C" 
			},
			{
				"x": 2.1665154704,
				"y": -1.0171027789,
				"z": -0.0563223246,
				"element": "C" 
			},
			{
				"x": 2.8684678424,
				"y": 0.0495955016,
				"z": 0.8214701949,
				"element": "C" 
			},
			{
				"x": 2.5737419804,
				"y": 1.4150335736,
				"z": 0.1386586774,
				"element": "C" 
			},
			{
				"x": 1.8934784135,
				"y": 1.0657894917,
				"z": -1.1976571142,
				"element": "C" 
			},
			{
				"x": -0.2032518817,
				"y": 0.0534319606,
				"z": -0.1728560356,
				"element": "C" 
			},
			{
				"x": -1.1865132355,
				"y": 0.8100438975,
				"z": -0.8402959314,
				"element": "C" 
			},
			{
				"x": -2.3894611216,
				"y": 1.1146579376,
				"z": -0.2122529153,
				"element": "C" 
			},
			{
				"x": -3.7001627911,
				"y": 2.1413724066,
				"z": -1.1498985222,
				"element": "Br" 
			},
			{
				"x": -2.6599149473,
				"y": 0.6857915272,
				"z": 1.0874876269,
				"element": "C" 
			},
			{
				"x": -1.6934714542,
				"y": -0.0662344317,
				"z": 1.7506008584,
				"element": "C" 
			},
			{
				"x": -0.4813590722,
				"y": -0.3824878824,
				"z": 1.1304172118,
				"element": "C" 
			},
			{
				"x": -0.7488668125,
				"y": -1.708195379,
				"z": -1.4416960822,
				"element": "H" 
			},
			{
				"x": 1.7420797059,
				"y": -1.8499564107,
				"z": 0.5114888592,
				"element": "H" 
			},
			{
				"x": 2.8851396028,
				"y": -1.4490754795,
				"z": -0.758694379,
				"element": "H" 
			},
			{
				"x": 2.4877627062,
				"y": 0.0383394156,
				"z": 1.8473594095,
				"element": "H" 
			},
			{
				"x": 3.9413174608,
				"y": -0.154856499,
				"z": 0.8834973675,
				"element": "H" 
			},
			{
				"x": 1.8982177338,
				"y": 2.0104792891,
				"z": 0.7615636684,
				"element": "H" 
			},
			{
				"x": 3.4770783642,
				"y": 2.0129380708,
				"z": -0.0124258703,
				"element": "H" 
			},
			{
				"x": 1.2537023923,
				"y": 1.8679634568,
				"z": -1.5756890933,
				"element": "H" 
			},
			{
				"x": 2.6316446844,
				"y": 0.8387853979,
				"z": -1.9718133191,
				"element": "H" 
			},
			{
				"x": -1.0126502169,
				"y": 1.1585339559,
				"z": -1.852921887,
				"element": "H" 
			},
			{
				"x": -3.60187947,
				"y": 0.9336470279,
				"z": 1.5626809779,
				"element": "H" 
			},
			{
				"x": -1.8853010481,
				"y": -0.4098483936,
				"z": 2.7627925121,
				"element": "H" 
			},
			{
				"x": 0.2488644277,
				"y": -0.9657946125,
				"z": 1.6787628033,
				"element": "H" 
			}
		],
		 "valence_orbital": [ 
			{
				"type": "occ",
				"energy": -0.30994,
				"method": "rhf"
			},
			{
				"type": "occ",
				"energy": -0.29597,
				"method": "rhf"
			},
			{
				"type": "occ",
				"energy": -0.2836,
				"method": "rhf"
			},
			{
				"type": "occ",
				"energy": -0.26128,
				"method": "rhf"
			},
			{
				"type": "occ",
				"energy": -0.25451,
				"method": "rhf"
			},
			{
				"type": "unocc",
				"energy": -0.03556,
				"method": "rhf"
			},
			{
				"type": "unocc",
				"energy": -0.03031,
				"method": "rhf"
			},
			{
				"type": "unocc",
				"energy": -0.0036,
				"method": "rhf"
			},
			{
				"type": "unocc",
				"energy": 0.00927,
				"method": "rhf"
			},
			{
				"type": "unocc",
				"energy": 0.06937,
				"method": "rhf"
			}
		],
		"cosmo_sigma_profile": { 
			"-0.025": 0.0,
			"-0.024": 0.0,
			"-0.023": 0.0,
			"-0.022": 0.0,
			"-0.021": 0.0,
			"-0.02": 0.0,
			"-0.019": 0.0,
			"-0.018": 0.0,
			"-0.017": 0.0,
			"-0.016": 0.0,
			"-0.015": 0.216433197734,
			"-0.014": 1.0552783787,
			"-0.013": 0.584723747562,
			"-0.012": 0.0720506242153,
			"-0.011": 1.45056258663,
			"-0.01": 1.50390542574,
			"-0.009": 0.822554538565,
			"-0.008": 2.77775730607,
			"-0.007": 7.80516735659,
			"-0.006": 10.8295871574,
			"-0.005": 12.2314133109,
			"-0.004": 13.0630528544,
			"-0.003": 21.527129617,
			"-0.002": 27.7015561821,
			"-0.001": 26.1153977085,
			"0.0": 24.8436072349,
			"0.001": 21.8538284711,
			"0.002": 16.4512479035,
			"0.003": 17.0214714016,
			"0.004": 13.3339626962,
			"0.005": 7.4257462109,
			"0.006": 2.64523310043,
			"0.007": 2.11710699221,
			"0.008": 2.78865158799,
			"0.009": 3.34389397544,
			"0.01": 4.30501206394,
			"0.011": 4.83763556706,
			"0.012": 5.1616302974,
			"0.013": 1.80466521397,
			"0.014": 0.0748648792387,
			"0.015": 0.0,
			"0.016": 0.0,
			"0.017": 0.0,
			"0.018": 0.0,
			"0.019": 0.0,
			"0.02": 0.0,
			"0.021": 0.0,
			"0.022": 0.0,
			"0.023": 0.0,
			"0.024": 0.0,
			"0.025": 0.0
		}
	}
}
