{
	 "smiles": "CC1=NN(C(C)=C1SCC(O)=O)C1=CC=CC=C1", 
	 "Tm": 422.15, 
	 "num_atms": 32, 
	 "gaussian": { 
		 "optdone": 1, 
		 "sigma_profile": "yes", 
		 "theory": "DFT", 
		 "functional": "B3LYP", 
		 "basiset": "6-31G**", 
		 "properties": { 
			 "R2extent": 6422.3779, 
			 "electric_dipole_moment_norm": 1.98626545557, 
			 "electric_quadrupole_moment_norm": 13.1594774835, 
			 "total_energy": -1161.96530814, 
			 "HOMO_LUMO_gap": 0.20104, 
			 "cosmo_polarized_energy": -14.99, 
			 "cosmo_cavitation_energy": 37.59, 
			 "cosmo_dispersion_energy": -26.58, 
			 "cosmo_repulsion_energy": 2.04, 
			 "cosmo_total_nonelectrostatic_energy": 13.04, 
			 "SMD_solvation_energy": 6.4 
		},
		"coords": [
			{
				"x": 3.6927414878,
				"y": 1.4034111109,
				"z": 1.6833090056,
				"element": "C" 
			},
			{
				"x": 2.3266823367,
				"y": 1.2027576065,
				"z": 1.1062972665,
				"element": "C" 
			},
			{
				"x": 2.1588295205,
				"y": 1.0569929153,
				"z": -0.200006229,
				"element": "N" 
			},
			{
				"x": 0.8071896902,
				"y": 0.923475047,
				"z": -0.3839711356,
				"element": "N" 
			},
			{
				"x": 0.1139022068,
				"y": 0.9554725695,
				"z": 0.7969295423,
				"element": "C" 
			},
			{
				"x": -1.363275575,
				"y": 0.7739287242,
				"z": 0.9334971466,
				"element": "C" 
			},
			{
				"x": 1.0758939837,
				"y": 1.1392956149,
				"z": 1.787672183,
				"element": "C" 
			},
			{
				"x": 0.7729581647,
				"y": 1.3751470896,
				"z": 3.5114032297,
				"element": "S" 
			},
			{
				"x": 1.2379167623,
				"y": -0.2423770275,
				"z": 4.2238195413,
				"element": "C" 
			},
			{
				"x": 0.2609025203,
				"y": -1.3829003413,
				"z": 3.9863454214,
				"element": "C" 
			},
			{
				"x": 0.7929022411,
				"y": -2.5431339098,
				"z": 4.4429570237,
				"element": "O" 
			},
			{
				"x": -0.838483765,
				"y": -1.3231394499,
				"z": 3.4872801851,
				"element": "O" 
			},
			{
				"x": 0.3277779986,
				"y": 0.728822881,
				"z": -1.709521797,
				"element": "C" 
			},
			{
				"x": 1.0705285282,
				"y": -0.075030001,
				"z": -2.5827669951,
				"element": "C" 
			},
			{
				"x": 0.6263846193,
				"y": -0.2673798557,
				"z": -3.8887037522,
				"element": "C" 
			},
			{
				"x": -0.5579744827,
				"y": 0.3286053961,
				"z": -4.3298542368,
				"element": "C" 
			},
			{
				"x": -1.2889126978,
				"y": 1.1357750647,
				"z": -3.4578842559,
				"element": "C" 
			},
			{
				"x": -0.8458971318,
				"y": 1.3484349096,
				"z": -2.1516524717,
				"element": "C" 
			},
			{
				"x": 4.4142219677,
				"y": 1.5589824359,
				"z": 0.8785375283,
				"element": "H" 
			},
			{
				"x": 4.0171150663,
				"y": 0.5342725534,
				"z": 2.2682290298,
				"element": "H" 
			},
			{
				"x": 3.7119242993,
				"y": 2.2684426498,
				"z": 2.3536491303,
				"element": "H" 
			},
			{
				"x": -1.9041135643,
				"y": 1.7230433985,
				"z": 0.8385742142,
				"element": "H" 
			},
			{
				"x": -1.5745444251,
				"y": 0.3584106608,
				"z": 1.9201206271,
				"element": "H" 
			},
			{
				"x": -1.7519122636,
				"y": 0.091694783,
				"z": 0.1728177094,
				"element": "H" 
			},
			{
				"x": 1.3178274759,
				"y": -0.0895005952,
				"z": 5.3060853007,
				"element": "H" 
			},
			{
				"x": 2.2288743741,
				"y": -0.5507265971,
				"z": 3.8801415184,
				"element": "H" 
			},
			{
				"x": 0.1245695908,
				"y": -3.2306613741,
				"z": 4.282070426,
				"element": "H" 
			},
			{
				"x": 1.9884703351,
				"y": -0.5264410045,
				"z": -2.2258701549,
				"element": "H" 
			},
			{
				"x": 1.2059080421,
				"y": -0.8914474732,
				"z": -4.5627124617,
				"element": "H" 
			},
			{
				"x": -0.9034998165,
				"y": 0.1708518838,
				"z": -5.3470801067,
				"element": "H" 
			},
			{
				"x": -2.2011339047,
				"y": 1.6186398801,
				"z": -3.7957217651,
				"element": "H" 
			},
			{
				"x": -1.3949735852,
				"y": 2.0090804549,
				"z": -1.4912906678,
				"element": "H" 
			}
		],
		 "valence_orbital": [ 
			{
				"type": "occ",
				"energy": -0.27637,
				"method": "rhf"
			},
			{
				"type": "occ",
				"energy": -0.25646,
				"method": "rhf"
			},
			{
				"type": "occ",
				"energy": -0.23918,
				"method": "rhf"
			},
			{
				"type": "occ",
				"energy": -0.23258,
				"method": "rhf"
			},
			{
				"type": "occ",
				"energy": -0.22053,
				"method": "rhf"
			},
			{
				"type": "unocc",
				"energy": -0.01949,
				"method": "rhf"
			},
			{
				"type": "unocc",
				"energy": -0.00709,
				"method": "rhf"
			},
			{
				"type": "unocc",
				"energy": -0.00042,
				"method": "rhf"
			},
			{
				"type": "unocc",
				"energy": 0.02186,
				"method": "rhf"
			},
			{
				"type": "unocc",
				"energy": 0.03623,
				"method": "rhf"
			}
		],
		"cosmo_sigma_profile": { 
			"-0.025": 0.0,
			"-0.024": 0.0,
			"-0.023": 0.0,
			"-0.022": 0.0,
			"-0.021": 0.0,
			"-0.02": 0.0,
			"-0.019": 0.0743668149612,
			"-0.018": 0.775436568764,
			"-0.017": 0.836932345829,
			"-0.016": 1.29451312356,
			"-0.015": 0.657128984466,
			"-0.014": 0.465928732914,
			"-0.013": 0.802178854236,
			"-0.012": 0.817308700469,
			"-0.011": 0.809326061917,
			"-0.01": 0.743576372831,
			"-0.009": 2.31231861078,
			"-0.008": 2.9391576521,
			"-0.007": 7.26213403829,
			"-0.006": 16.0979836814,
			"-0.005": 20.1237168452,
			"-0.004": 22.6982690531,
			"-0.003": 22.4196386746,
			"-0.002": 20.5182262809,
			"-0.001": 22.2054819067,
			"0.0": 23.1979161184,
			"0.001": 18.5500912805,
			"0.002": 19.8646091577,
			"0.003": 19.0976842917,
			"0.004": 20.5661080991,
			"0.005": 15.7460746583,
			"0.006": 9.04749306428,
			"0.007": 6.96243764663,
			"0.008": 6.57822738333,
			"0.009": 5.92663248173,
			"0.01": 4.75996519606,
			"0.011": 3.2314515811,
			"0.012": 1.58037099804,
			"0.013": 0.648643342042,
			"0.014": 0.88366943126,
			"0.015": 0.345235544875,
			"0.016": 0.0101246080873,
			"0.017": 0.0,
			"0.018": 0.0,
			"0.019": 0.0,
			"0.02": 0.0,
			"0.021": 0.0,
			"0.022": 0.0,
			"0.023": 0.0,
			"0.024": 0.0,
			"0.025": 0.0
		}
	}
}
