{
	 "smiles": "CCOC(=O)C(C)C(O)(C1=CC=CC=C1)C1=CC=CC=C1", 
	 "Tm": 375.15, 
	 "num_atms": 41, 
	 "gaussian": { 
		 "optdone": 1, 
		 "sigma_profile": "yes", 
		 "theory": "DFT", 
		 "functional": "B3LYP", 
		 "basiset": "6-31G**", 
		 "properties": { 
			 "R2extent": 6317.6992, 
			 "electric_dipole_moment_norm": 2.487286622, 
			 "electric_quadrupole_moment_norm": 9.81988943115, 
			 "total_energy": -923.650882736, 
			 "HOMO_LUMO_gap": 0.22705, 
			 "cosmo_polarized_energy": -13.08, 
			 "cosmo_cavitation_energy": 42.45, 
			 "cosmo_dispersion_energy": -28.74, 
			 "cosmo_repulsion_energy": 2.23, 
			 "cosmo_total_nonelectrostatic_energy": 15.95, 
			 "SMD_solvation_energy": 8.08 
		},
		"coords": [
			{
				"x": -0.2793575904,
				"y": 1.9137682729,
				"z": 4.8907016132,
				"element": "C" 
			},
			{
				"x": 0.0872233,
				"y": 0.6095292937,
				"z": 4.2085108445,
				"element": "C" 
			},
			{
				"x": 0.5228891764,
				"y": 0.9257030445,
				"z": 2.8647074062,
				"element": "O" 
			},
			{
				"x": 0.918017599,
				"y": -0.1316900962,
				"z": 2.1094688942,
				"element": "C" 
			},
			{
				"x": 0.9663178369,
				"y": -1.2660624478,
				"z": 2.53004611,
				"element": "O" 
			},
			{
				"x": 1.2981605167,
				"y": 0.3188328851,
				"z": 0.7025349986,
				"element": "C" 
			},
			{
				"x": 2.4882998107,
				"y": -0.5123632285,
				"z": 0.2049655686,
				"element": "C" 
			},
			{
				"x": 0.0112216242,
				"y": 0.287057066,
				"z": -0.2234094818,
				"element": "C" 
			},
			{
				"x": -1.1413667381,
				"y": 0.5597712395,
				"z": 0.5913538012,
				"element": "O" 
			},
			{
				"x": -0.2269707557,
				"y": -1.1121955146,
				"z": -0.8085559813,
				"element": "C" 
			},
			{
				"x": -0.9383716715,
				"y": -2.0679947997,
				"z": -0.0699205495,
				"element": "C" 
			},
			{
				"x": -1.1374492704,
				"y": -3.3519418866,
				"z": -0.577698473,
				"element": "C" 
			},
			{
				"x": -0.6273839745,
				"y": -3.7046317817,
				"z": -1.8280889477,
				"element": "C" 
			},
			{
				"x": 0.081897422,
				"y": -2.7598882459,
				"z": -2.5700436706,
				"element": "C" 
			},
			{
				"x": 0.2768163024,
				"y": -1.4733539685,
				"z": -2.0653112833,
				"element": "C" 
			},
			{
				"x": 0.0690342377,
				"y": 1.3552827063,
				"z": -1.3337046032,
				"element": "C" 
			},
			{
				"x": -1.1355477719,
				"y": 1.6694172105,
				"z": -1.9855072217,
				"element": "C" 
			},
			{
				"x": -1.1774225323,
				"y": 2.628645988,
				"z": -2.9936460275,
				"element": "C" 
			},
			{
				"x": -0.0115312035,
				"y": 3.2975162374,
				"z": -3.3776644322,
				"element": "C" 
			},
			{
				"x": 1.1897540672,
				"y": 2.9955692217,
				"z": -2.7408318531,
				"element": "C" 
			},
			{
				"x": 1.229453958,
				"y": 2.0328349545,
				"z": -1.7262834936,
				"element": "C" 
			},
			{
				"x": -0.6092965908,
				"y": 1.7163386667,
				"z": 5.9153437772,
				"element": "H" 
			},
			{
				"x": 0.5794103212,
				"y": 2.5901086451,
				"z": 4.9305563964,
				"element": "H" 
			},
			{
				"x": -1.092488917,
				"y": 2.4201620634,
				"z": 4.3620334004,
				"element": "H" 
			},
			{
				"x": -0.7624923805,
				"y": -0.0779066661,
				"z": 4.1486027439,
				"element": "H" 
			},
			{
				"x": 0.8976053978,
				"y": 0.0872353412,
				"z": 4.7258198321,
				"element": "H" 
			},
			{
				"x": 1.5880457764,
				"y": 1.370591079,
				"z": 0.7937571766,
				"element": "H" 
			},
			{
				"x": 2.7215803486,
				"y": -0.3030615941,
				"z": -0.8410411642,
				"element": "H" 
			},
			{
				"x": 3.3777814299,
				"y": -0.2915424461,
				"z": 0.8037552604,
				"element": "H" 
			},
			{
				"x": 2.2710264062,
				"y": -1.5770383211,
				"z": 0.3016627781,
				"element": "H" 
			},
			{
				"x": -0.9659943958,
				"y": 1.376227817,
				"z": 1.0809025285,
				"element": "H" 
			},
			{
				"x": -1.3379099729,
				"y": -1.7998356784,
				"z": 0.8996370142,
				"element": "H" 
			},
			{
				"x": -1.6936949582,
				"y": -4.0783166723,
				"z": 0.0082600157,
				"element": "H" 
			},
			{
				"x": -0.7846377059,
				"y": -4.7047971917,
				"z": -2.2220633892,
				"element": "H" 
			},
			{
				"x": 0.4784164776,
				"y": -3.018247947,
				"z": -3.5480214946,
				"element": "H" 
			},
			{
				"x": 0.8137096028,
				"y": -0.7428890698,
				"z": -2.6617741131,
				"element": "H" 
			},
			{
				"x": -2.0419023659,
				"y": 1.1578980482,
				"z": -1.6797371237,
				"element": "H" 
			},
			{
				"x": -2.1216790477,
				"y": 2.8564625322,
				"z": -3.4804320585,
				"element": "H" 
			},
			{
				"x": -0.0423369877,
				"y": 4.0465039254,
				"z": -4.163781364,
				"element": "H" 
			},
			{
				"x": 2.103769905,
				"y": 3.5087102189,
				"z": -3.0264871584,
				"element": "H" 
			},
			{
				"x": 2.1810033136,
				"y": 1.8240910989,
				"z": -1.2504162758,
				"element": "H" 
			}
		],
		 "valence_orbital": [ 
			{
				"type": "occ",
				"energy": -0.2695,
				"method": "rhf"
			},
			{
				"type": "occ",
				"energy": -0.25137,
				"method": "rhf"
			},
			{
				"type": "occ",
				"energy": -0.24567,
				"method": "rhf"
			},
			{
				"type": "occ",
				"energy": -0.23813,
				"method": "rhf"
			},
			{
				"type": "occ",
				"energy": -0.23474,
				"method": "rhf"
			},
			{
				"type": "unocc",
				"energy": -0.00769,
				"method": "rhf"
			},
			{
				"type": "unocc",
				"energy": -0.00667,
				"method": "rhf"
			},
			{
				"type": "unocc",
				"energy": 0.00177,
				"method": "rhf"
			},
			{
				"type": "unocc",
				"energy": 0.01082,
				"method": "rhf"
			},
			{
				"type": "unocc",
				"energy": 0.01675,
				"method": "rhf"
			}
		],
		"cosmo_sigma_profile": { 
			"-0.025": 0.0,
			"-0.024": 0.0,
			"-0.023": 0.0,
			"-0.022": 0.0,
			"-0.021": 0.0,
			"-0.02": 0.0,
			"-0.019": 0.0,
			"-0.018": 0.0,
			"-0.017": 0.0,
			"-0.016": 0.0,
			"-0.015": 0.0,
			"-0.014": 0.0116562080347,
			"-0.013": 0.434112779547,
			"-0.012": 0.75148802088,
			"-0.011": 1.12235211283,
			"-0.01": 0.443752427156,
			"-0.009": 0.646729280289,
			"-0.008": 0.89552761567,
			"-0.007": 1.03778574116,
			"-0.006": 8.73823766274,
			"-0.005": 25.4548317489,
			"-0.004": 39.9551773025,
			"-0.003": 39.267804888,
			"-0.002": 30.9745279724,
			"-0.001": 24.1987449522,
			"0.0": 25.6876875468,
			"0.001": 20.6786519872,
			"0.002": 18.3815362473,
			"0.003": 18.0410835289,
			"0.004": 20.5047318017,
			"0.005": 20.9018999209,
			"0.006": 14.8157978961,
			"0.007": 4.84660914545,
			"0.008": 4.08817776591,
			"0.009": 1.98267077079,
			"0.01": 3.17803011733,
			"0.011": 3.66913825352,
			"0.012": 4.19096051353,
			"0.013": 0.334245517313,
			"0.014": 0.0,
			"0.015": 0.0,
			"0.016": 0.0,
			"0.017": 0.0,
			"0.018": 0.0,
			"0.019": 0.0,
			"0.02": 0.0,
			"0.021": 0.0,
			"0.022": 0.0,
			"0.023": 0.0,
			"0.024": 0.0,
			"0.025": 0.0
		}
	}
}
