{
	 "smiles": "O=C1CCCCCCCCCCCCCCO1", 
	 "Tm": 306.65, 
	 "num_atms": 45, 
	 "gaussian": { 
		 "optdone": 1, 
		 "sigma_profile": "yes", 
		 "theory": "DFT", 
		 "functional": "B3LYP", 
		 "basiset": "6-31G**", 
		 "properties": { 
			 "R2extent": 5334.5922, 
			 "electric_dipole_moment_norm": 1.91867856089, 
			 "electric_quadrupole_moment_norm": 15.2567765085, 
			 "total_energy": -738.959118065, 
			 "HOMO_LUMO_gap": 0.27707, 
			 "cosmo_polarized_energy": -6.04, 
			 "cosmo_cavitation_energy": 41.4, 
			 "cosmo_dispersion_energy": -27.88, 
			 "cosmo_repulsion_energy": 2.15, 
			 "cosmo_total_nonelectrostatic_energy": 15.67, 
			 "SMD_solvation_energy": 5.76 
		},
		"coords": [
			{
				"x": -0.1021751817,
				"y": 0.0741848995,
				"z": 4.2651421908,
				"element": "O" 
			},
			{
				"x": 0.1684226566,
				"y": -0.3768151008,
				"z": 3.171903426,
				"element": "C" 
			},
			{
				"x": 1.283156525,
				"y": -1.3708368413,
				"z": 2.9183357772,
				"element": "C" 
			},
			{
				"x": 2.6610260266,
				"y": -0.6683159367,
				"z": 2.8260701639,
				"element": "C" 
			},
			{
				"x": 2.9273740285,
				"y": 0.0868607659,
				"z": 1.503914945,
				"element": "C" 
			},
			{
				"x": 3.7170218297,
				"y": -0.7145145913,
				"z": 0.4489991626,
				"element": "C" 
			},
			{
				"x": 3.0963156512,
				"y": -2.0481315342,
				"z": -0.0053529785,
				"element": "C" 
			},
			{
				"x": 1.7673922247,
				"y": -1.9434385214,
				"z": -0.7743458426,
				"element": "C" 
			},
			{
				"x": 1.909730349,
				"y": -1.446782413,
				"z": -2.2217801153,
				"element": "C" 
			},
			{
				"x": 0.5769745563,
				"y": -1.3936821156,
				"z": -3.0058541984,
				"element": "C" 
			},
			{
				"x": -0.0710426404,
				"y": -0.0024467822,
				"z": -3.1236865046,
				"element": "C" 
			},
			{
				"x": -0.5327508739,
				"y": 0.6791579082,
				"z": -1.8238221518,
				"element": "C" 
			},
			{
				"x": -1.6450959516,
				"y": -0.0643422622,
				"z": -1.0592360005,
				"element": "C" 
			},
			{
				"x": -2.5296439936,
				"y": 0.8622921697,
				"z": -0.2051193018,
				"element": "C" 
			},
			{
				"x": -1.8307705219,
				"y": 1.6800809331,
				"z": 0.897799358,
				"element": "C" 
			},
			{
				"x": -1.53658778,
				"y": 0.9627524306,
				"z": 2.2074398975,
				"element": "C" 
			},
			{
				"x": -0.4767436236,
				"y": -0.0123554114,
				"z": 2.0336846415,
				"element": "O" 
			},
			{
				"x": 1.2846952458,
				"y": -2.051439421,
				"z": 3.7747533118,
				"element": "H" 
			},
			{
				"x": 1.0722052242,
				"y": -1.9477366044,
				"z": 2.0160919926,
				"element": "H" 
			},
			{
				"x": 3.4423233927,
				"y": -1.4227210411,
				"z": 2.9810408544,
				"element": "H" 
			},
			{
				"x": 2.7341575348,
				"y": 0.0197630358,
				"z": 3.6757439563,
				"element": "H" 
			},
			{
				"x": 3.5048195535,
				"y": 0.9928779738,
				"z": 1.7242519298,
				"element": "H" 
			},
			{
				"x": 1.9768824621,
				"y": 0.4381186993,
				"z": 1.0851200538,
				"element": "H" 
			},
			{
				"x": 4.7142741818,
				"y": -0.9259022002,
				"z": 0.8588757182,
				"element": "H" 
			},
			{
				"x": 3.8855732134,
				"y": -0.0707515424,
				"z": -0.4241004929,
				"element": "H" 
			},
			{
				"x": 2.9556632323,
				"y": -2.6924288478,
				"z": 0.8718873761,
				"element": "H" 
			},
			{
				"x": 3.8258855507,
				"y": -2.5735708241,
				"z": -0.636999478,
				"element": "H" 
			},
			{
				"x": 1.0661381287,
				"y": -1.3022019838,
				"z": -0.2280011563,
				"element": "H" 
			},
			{
				"x": 1.3018389022,
				"y": -2.9382493192,
				"z": -0.803421707,
				"element": "H" 
			},
			{
				"x": 2.6077177757,
				"y": -2.1179550831,
				"z": -2.7394842528,
				"element": "H" 
			},
			{
				"x": 2.384114879,
				"y": -0.4562736521,
				"z": -2.239054706,
				"element": "H" 
			},
			{
				"x": 0.7498688354,
				"y": -1.7544191505,
				"z": -4.0273045777,
				"element": "H" 
			},
			{
				"x": -0.1360767067,
				"y": -2.1015262937,
				"z": -2.5622259757,
				"element": "H" 
			},
			{
				"x": 0.6394210421,
				"y": 0.6649027622,
				"z": -3.6310909013,
				"element": "H" 
			},
			{
				"x": -0.9382645431,
				"y": -0.0827056568,
				"z": -3.7941347677,
				"element": "H" 
			},
			{
				"x": 0.3276752415,
				"y": 0.8489390561,
				"z": -1.1642636609,
				"element": "H" 
			},
			{
				"x": -0.8999399194,
				"y": 1.6794013404,
				"z": -2.094491744,
				"element": "H" 
			},
			{
				"x": -1.2169019674,
				"y": -0.8549745976,
				"z": -0.4342189946,
				"element": "H" 
			},
			{
				"x": -2.3003303508,
				"y": -0.5667893005,
				"z": -1.7844030767,
				"element": "H" 
			},
			{
				"x": -3.0222172556,
				"y": 1.571262954,
				"z": -0.8842543661,
				"element": "H" 
			},
			{
				"x": -3.3380327904,
				"y": 0.2745527156,
				"z": 0.2513799848,
				"element": "H" 
			},
			{
				"x": -2.4866485117,
				"y": 2.5184394719,
				"z": 1.1679174009,
				"element": "H" 
			},
			{
				"x": -0.9062605791,
				"y": 2.13330421,
				"z": 0.5210419516,
				"element": "H" 
			},
			{
				"x": -2.4236482162,
				"y": 0.4356278926,
				"z": 2.5796132011,
				"element": "H" 
			},
			{
				"x": -1.2261368366,
				"y": 1.6693878096,
				"z": 2.9807396571,
				"element": "H" 
			}
		],
		 "valence_orbital": [ 
			{
				"type": "occ",
				"energy": -0.30486,
				"method": "rhf"
			},
			{
				"type": "occ",
				"energy": -0.30143,
				"method": "rhf"
			},
			{
				"type": "occ",
				"energy": -0.29793,
				"method": "rhf"
			},
			{
				"type": "occ",
				"energy": -0.2917,
				"method": "rhf"
			},
			{
				"type": "occ",
				"energy": -0.26362,
				"method": "rhf"
			},
			{
				"type": "unocc",
				"energy": 0.01345,
				"method": "rhf"
			},
			{
				"type": "unocc",
				"energy": 0.06881,
				"method": "rhf"
			},
			{
				"type": "unocc",
				"energy": 0.08941,
				"method": "rhf"
			},
			{
				"type": "unocc",
				"energy": 0.09434,
				"method": "rhf"
			},
			{
				"type": "unocc",
				"energy": 0.09794,
				"method": "rhf"
			}
		],
		"cosmo_sigma_profile": { 
			"-0.025": 0.0,
			"-0.024": 0.0,
			"-0.023": 0.0,
			"-0.022": 0.0,
			"-0.021": 0.0,
			"-0.02": 0.0,
			"-0.019": 0.0,
			"-0.018": 0.0,
			"-0.017": 0.0,
			"-0.016": 0.0,
			"-0.015": 0.0,
			"-0.014": 0.0,
			"-0.013": 0.0,
			"-0.012": 0.0,
			"-0.011": 0.0,
			"-0.01": 0.0,
			"-0.009": 0.0,
			"-0.008": 0.0,
			"-0.007": 0.0,
			"-0.006": 0.0,
			"-0.005": 3.55284569082,
			"-0.004": 10.6593940956,
			"-0.003": 23.6986719826,
			"-0.002": 49.0433500524,
			"-0.001": 68.9588491918,
			"0.0": 67.0151300633,
			"0.001": 46.610806178,
			"0.002": 19.0915989926,
			"0.003": 5.8939667329,
			"0.004": 3.36740593645,
			"0.005": 2.21167172802,
			"0.006": 2.21033408633,
			"0.007": 1.36626585437,
			"0.008": 0.963653099084,
			"0.009": 1.06876119774,
			"0.01": 2.01920379448,
			"0.011": 2.5256355888,
			"0.012": 4.39480626539,
			"0.013": 2.3198601166,
			"0.014": 0.206530484766,
			"0.015": 0.0,
			"0.016": 0.0,
			"0.017": 0.0,
			"0.018": 0.0,
			"0.019": 0.0,
			"0.02": 0.0,
			"0.021": 0.0,
			"0.022": 0.0,
			"0.023": 0.0,
			"0.024": 0.0,
			"0.025": 0.0
		}
	}
}
