{
	 "smiles": "NC(=O)C1COCCN1", 
	 "Tm": 442.15, 
	 "num_atms": 19, 
	 "gaussian": { 
		 "optdone": 1, 
		 "sigma_profile": "yes", 
		 "theory": "DFT", 
		 "functional": "B3LYP", 
		 "basiset": "6-31G**", 
		 "properties": { 
			 "R2extent": 1801.3672, 
			 "electric_dipole_moment_norm": 3.63701214735, 
			 "electric_quadrupole_moment_norm": 12.7534963281, 
			 "total_energy": -456.498837703, 
			 "HOMO_LUMO_gap": 0.25738, 
			 "cosmo_polarized_energy": -13.49, 
			 "cosmo_cavitation_energy": 21.09, 
			 "cosmo_dispersion_energy": -16.21, 
			 "cosmo_repulsion_energy": 1.35, 
			 "cosmo_total_nonelectrostatic_energy": 6.23, 
			 "SMD_solvation_energy": 2.94 
		},
		"coords": [
			{
				"x": 0.6423103948,
				"y": 0.808325851,
				"z": -1.8761353831,
				"element": "N" 
			},
			{
				"x": 1.5055415792,
				"y": 0.1590889212,
				"z": -1.0526141495,
				"element": "C" 
			},
			{
				"x": 2.7158744816,
				"y": 0.3431446038,
				"z": -1.0350000559,
				"element": "O" 
			},
			{
				"x": 0.8255636699,
				"y": -0.8202914824,
				"z": -0.0866074812,
				"element": "C" 
			},
			{
				"x": 1.782895774,
				"y": -1.9757490316,
				"z": 0.3231545289,
				"element": "C" 
			},
			{
				"x": 1.062896482,
				"y": -3.2013515966,
				"z": 0.43366258,
				"element": "O" 
			},
			{
				"x": -0.1268502373,
				"y": -3.0346760575,
				"z": 1.1902227039,
				"element": "C" 
			},
			{
				"x": -1.1292215855,
				"y": -2.1406405253,
				"z": 0.4031395243,
				"element": "C" 
			},
			{
				"x": -0.4421526813,
				"y": -1.3362746238,
				"z": -0.6215867067,
				"element": "N" 
			},
			{
				"x": 1.0048574698,
				"y": 1.4757886173,
				"z": -2.538709963,
				"element": "H" 
			},
			{
				"x": -0.3351676441,
				"y": 0.5544993503,
				"z": -1.8597961322,
				"element": "H" 
			},
			{
				"x": 0.5682393149,
				"y": -0.2264950332,
				"z": 0.8023427313,
				"element": "H" 
			},
			{
				"x": 2.549374627,
				"y": -2.1304409779,
				"z": -0.4389684242,
				"element": "H" 
			},
			{
				"x": 2.2901740667,
				"y": -1.7416305516,
				"z": 1.2711386621,
				"element": "H" 
			},
			{
				"x": 0.1060883339,
				"y": -2.5919920441,
				"z": 2.1727445063,
				"element": "H" 
			},
			{
				"x": -0.5323964783,
				"y": -4.0352828981,
				"z": 1.363990527,
				"element": "H" 
			},
			{
				"x": -1.8845115264,
				"y": -2.7496771975,
				"z": -0.1026271076,
				"element": "H" 
			},
			{
				"x": -1.6591888487,
				"y": -1.4664412303,
				"z": 1.0878424526,
				"element": "H" 
			},
			{
				"x": -0.2100271924,
				"y": -1.9641040938,
				"z": -1.390492813,
				"element": "H" 
			}
		],
		 "valence_orbital": [ 
			{
				"type": "occ",
				"energy": -0.32044,
				"method": "rhf"
			},
			{
				"type": "occ",
				"energy": -0.27191,
				"method": "rhf"
			},
			{
				"type": "occ",
				"energy": -0.26359,
				"method": "rhf"
			},
			{
				"type": "occ",
				"energy": -0.25003,
				"method": "rhf"
			},
			{
				"type": "occ",
				"energy": -0.23231,
				"method": "rhf"
			},
			{
				"type": "unocc",
				"energy": 0.02507,
				"method": "rhf"
			},
			{
				"type": "unocc",
				"energy": 0.07363,
				"method": "rhf"
			},
			{
				"type": "unocc",
				"energy": 0.09818,
				"method": "rhf"
			},
			{
				"type": "unocc",
				"energy": 0.10468,
				"method": "rhf"
			},
			{
				"type": "unocc",
				"energy": 0.11813,
				"method": "rhf"
			}
		],
		"cosmo_sigma_profile": { 
			"-0.025": 0.0,
			"-0.024": 0.0,
			"-0.023": 0.0,
			"-0.022": 0.0,
			"-0.021": 0.0,
			"-0.02": 0.0,
			"-0.019": 0.0,
			"-0.018": 0.0,
			"-0.017": 0.0,
			"-0.016": 0.0,
			"-0.015": 0.0,
			"-0.014": 0.545995643041,
			"-0.013": 1.42111146637,
			"-0.012": 0.703920470636,
			"-0.011": 1.95976931472,
			"-0.01": 3.20542805498,
			"-0.009": 3.43243311604,
			"-0.008": 3.03084717106,
			"-0.007": 2.92164106203,
			"-0.006": 5.99022855658,
			"-0.005": 11.9582768743,
			"-0.004": 21.3097500577,
			"-0.003": 17.1072435031,
			"-0.002": 13.5563350379,
			"-0.001": 10.544846482,
			"0.0": 6.4498861406,
			"0.001": 6.05551737708,
			"0.002": 4.59735662539,
			"0.003": 6.35749479418,
			"0.004": 5.18506242239,
			"0.005": 3.97178178718,
			"0.006": 3.43856159571,
			"0.007": 3.05936452902,
			"0.008": 3.18143285099,
			"0.009": 2.52956177625,
			"0.01": 2.62658795431,
			"0.011": 3.50484417685,
			"0.012": 3.39819182751,
			"0.013": 4.24256793944,
			"0.014": 6.16334731961,
			"0.015": 1.39861100201,
			"0.016": 0.0,
			"0.017": 0.0,
			"0.018": 0.0,
			"0.019": 0.0,
			"0.02": 0.0,
			"0.021": 0.0,
			"0.022": 0.0,
			"0.023": 0.0,
			"0.024": 0.0,
			"0.025": 0.0
		}
	}
}
