{
	 "smiles": "CC(C)CC(CCC(O)=O)C(O)=O", 
	 "Tm": 340.15, 
	 "num_atms": 29, 
	 "gaussian": { 
		 "optdone": 1, 
		 "sigma_profile": "yes", 
		 "theory": "DFT", 
		 "functional": "B3LYP", 
		 "basiset": "6-31G**", 
		 "properties": { 
			 "R2extent": 3230.2427, 
			 "electric_dipole_moment_norm": 3.24091370295, 
			 "electric_quadrupole_moment_norm": 26.6865815632, 
			 "total_energy": -653.541781535, 
			 "HOMO_LUMO_gap": 0.24384, 
			 "cosmo_polarized_energy": -17.0, 
			 "cosmo_cavitation_energy": 30.81, 
			 "cosmo_dispersion_energy": -21.24, 
			 "cosmo_repulsion_energy": 1.71, 
			 "cosmo_total_nonelectrostatic_energy": 11.28, 
			 "SMD_solvation_energy": 7.16 
		},
		"coords": [
			{
				"x": 0.9701398699,
				"y": 0.9079785669,
				"z": 3.8941025606,
				"element": "C" 
			},
			{
				"x": 0.6977219398,
				"y": 0.435438274,
				"z": 2.4572818197,
				"element": "C" 
			},
			{
				"x": 1.8196212786,
				"y": -0.4968243677,
				"z": 1.974030071,
				"element": "C" 
			},
			{
				"x": 0.503802565,
				"y": 1.6607089657,
				"z": 1.5415526235,
				"element": "C" 
			},
			{
				"x": 0.1801615428,
				"y": 1.3778160589,
				"z": 0.0599858035,
				"element": "C" 
			},
			{
				"x": -1.1509970517,
				"y": 0.6025507841,
				"z": -0.1096007455,
				"element": "C" 
			},
			{
				"x": -1.5367629673,
				"y": 0.2152944502,
				"z": -1.5591339663,
				"element": "C" 
			},
			{
				"x": -0.5442026529,
				"y": -0.7466915612,
				"z": -2.1697255288,
				"element": "C" 
			},
			{
				"x": 0.486902254,
				"y": -0.0904087604,
				"z": -2.7972153157,
				"element": "O" 
			},
			{
				"x": -0.5782144413,
				"y": -1.9516490665,
				"z": -2.1138857396,
				"element": "O" 
			},
			{
				"x": 0.0976720318,
				"y": 2.7102166768,
				"z": -0.7007588771,
				"element": "C" 
			},
			{
				"x": 0.458706315,
				"y": 2.6820383743,
				"z": -2.0065419868,
				"element": "O" 
			},
			{
				"x": -0.2931446986,
				"y": 3.7386610369,
				"z": -0.2014100775,
				"element": "O" 
			},
			{
				"x": 1.0633557876,
				"y": 0.0582843855,
				"z": 4.5787284934,
				"element": "H" 
			},
			{
				"x": 1.9030173338,
				"y": 1.4822338954,
				"z": 3.9471001529,
				"element": "H" 
			},
			{
				"x": 0.1637465871,
				"y": 1.5508369218,
				"z": 4.2627832886,
				"element": "H" 
			},
			{
				"x": -0.2368789105,
				"y": -0.1426359502,
				"z": 2.4778380399,
				"element": "H" 
			},
			{
				"x": 1.9676575584,
				"y": -1.3248504072,
				"z": 2.6752412134,
				"element": "H" 
			},
			{
				"x": 1.6038386326,
				"y": -0.9371482911,
				"z": 0.994653861,
				"element": "H" 
			},
			{
				"x": 2.7706463516,
				"y": 0.0446252101,
				"z": 1.8955628634,
				"element": "H" 
			},
			{
				"x": -0.2890972021,
				"y": 2.3009090788,
				"z": 1.9431614777,
				"element": "H" 
			},
			{
				"x": 1.4182362066,
				"y": 2.267638864,
				"z": 1.5773164336,
				"element": "H" 
			},
			{
				"x": 0.9913360242,
				"y": 0.783024547,
				"z": -0.3768238503,
				"element": "H" 
			},
			{
				"x": -1.106738755,
				"y": -0.3145246707,
				"z": 0.485546687,
				"element": "H" 
			},
			{
				"x": -1.9621926967,
				"y": 1.2131112649,
				"z": 0.3025791121,
				"element": "H" 
			},
			{
				"x": -2.5025505021,
				"y": -0.2948228367,
				"z": -1.5426856205,
				"element": "H" 
			},
			{
				"x": -1.6234172572,
				"y": 1.10462161,
				"z": -2.1891340692,
				"element": "H" 
			},
			{
				"x": 1.095990273,
				"y": -0.7730818864,
				"z": -3.1273463538,
				"element": "H" 
			},
			{
				"x": 0.7061445837,
				"y": 1.7819488329,
				"z": -2.28250237,
				"element": "H" 
			}
		],
		 "valence_orbital": [ 
			{
				"type": "occ",
				"energy": -0.32479,
				"method": "rhf"
			},
			{
				"type": "occ",
				"energy": -0.32093,
				"method": "rhf"
			},
			{
				"type": "occ",
				"energy": -0.30597,
				"method": "rhf"
			},
			{
				"type": "occ",
				"energy": -0.29742,
				"method": "rhf"
			},
			{
				"type": "occ",
				"energy": -0.26228,
				"method": "rhf"
			},
			{
				"type": "unocc",
				"energy": -0.01844,
				"method": "rhf"
			},
			{
				"type": "unocc",
				"energy": 0.01251,
				"method": "rhf"
			},
			{
				"type": "unocc",
				"energy": 0.04705,
				"method": "rhf"
			},
			{
				"type": "unocc",
				"energy": 0.07675,
				"method": "rhf"
			},
			{
				"type": "unocc",
				"energy": 0.10172,
				"method": "rhf"
			}
		],
		"cosmo_sigma_profile": { 
			"-0.025": 0.0,
			"-0.024": 0.0,
			"-0.023": 0.0,
			"-0.022": 0.0,
			"-0.021": 0.0,
			"-0.02": 0.0,
			"-0.019": 0.384822799282,
			"-0.018": 1.12905042152,
			"-0.017": 0.643731836959,
			"-0.016": 0.896087050729,
			"-0.015": 0.816241842472,
			"-0.014": 0.937314199252,
			"-0.013": 0.840359486845,
			"-0.012": 0.735611029834,
			"-0.011": 0.693684685274,
			"-0.01": 1.11448459675,
			"-0.009": 2.06464952186,
			"-0.008": 1.91709496185,
			"-0.007": 2.60670718093,
			"-0.006": 7.72883009768,
			"-0.005": 15.9261539022,
			"-0.004": 19.6009214665,
			"-0.003": 21.6354165969,
			"-0.002": 32.5866525447,
			"-0.001": 22.5563331983,
			"0.0": 18.9884655781,
			"0.001": 19.6108074987,
			"0.002": 10.8403111784,
			"0.003": 3.89885210785,
			"0.004": 4.19420894212,
			"0.005": 3.56150456815,
			"0.006": 3.27077720631,
			"0.007": 3.07831991393,
			"0.008": 3.71203348526,
			"0.009": 4.21779732952,
			"0.01": 6.56042934464,
			"0.011": 10.4762758272,
			"0.012": 8.24905138851,
			"0.013": 3.19266363526,
			"0.014": 0.417792737215,
			"0.015": 0.0,
			"0.016": 0.0,
			"0.017": 0.0,
			"0.018": 0.0,
			"0.019": 0.0,
			"0.02": 0.0,
			"0.021": 0.0,
			"0.022": 0.0,
			"0.023": 0.0,
			"0.024": 0.0,
			"0.025": 0.0
		}
	}
}
