{
	 "smiles": "CCCC1=NC=CC(=C1)C(N)=S", 
	 "Tm": 410.15, 
	 "num_atms": 24, 
	 "gaussian": { 
		 "optdone": 1, 
		 "sigma_profile": "yes", 
		 "theory": "DFT", 
		 "functional": "B3LYP", 
		 "basiset": "6-31G**", 
		 "properties": { 
			 "R2extent": 3375.4608, 
			 "electric_dipole_moment_norm": 4.10823887572, 
			 "electric_quadrupole_moment_norm": 14.2053931575, 
			 "total_energy": -857.898224326, 
			 "HOMO_LUMO_gap": 0.14295, 
			 "cosmo_polarized_energy": -15.89, 
			 "cosmo_cavitation_energy": 29.14, 
			 "cosmo_dispersion_energy": -21.2, 
			 "cosmo_repulsion_energy": 1.69, 
			 "cosmo_total_nonelectrostatic_energy": 9.62, 
			 "SMD_solvation_energy": 2.77 
		},
		"coords": [
			{
				"x": 1.7102470834,
				"y": -2.2336383298,
				"z": -1.0424704863,
				"element": "C" 
			},
			{
				"x": 1.0278751575,
				"y": -2.7860984943,
				"z": 0.2125184318,
				"element": "C" 
			},
			{
				"x": 0.5366941778,
				"y": -1.694377415,
				"z": 1.1849803675,
				"element": "C" 
			},
			{
				"x": -0.5962948467,
				"y": -0.8612778068,
				"z": 0.6252994915,
				"element": "C" 
			},
			{
				"x": -1.744641796,
				"y": -1.5119418834,
				"z": 0.3725402331,
				"element": "N" 
			},
			{
				"x": -2.7620711725,
				"y": -0.8135244831,
				"z": -0.1442637966,
				"element": "C" 
			},
			{
				"x": -2.7074136882,
				"y": 0.5475658422,
				"z": -0.435291664,
				"element": "C" 
			},
			{
				"x": -1.5233883725,
				"y": 1.239279333,
				"z": -0.159374906,
				"element": "C" 
			},
			{
				"x": -0.4527405346,
				"y": 0.5099034783,
				"z": 0.3788795855,
				"element": "C" 
			},
			{
				"x": -1.4084722496,
				"y": 2.702581759,
				"z": -0.4360214099,
				"element": "C" 
			},
			{
				"x": -0.6026500142,
				"y": 3.3777241605,
				"z": 0.4132011014,
				"element": "N" 
			},
			{
				"x": -2.1781429509,
				"y": 3.4502065175,
				"z": -1.7096479173,
				"element": "S" 
			},
			{
				"x": 2.5892109582,
				"y": -1.6304867107,
				"z": -0.7853918468,
				"element": "H" 
			},
			{
				"x": 1.0313595328,
				"y": -1.6000134987,
				"z": -1.6228231287,
				"element": "H" 
			},
			{
				"x": 2.0454995185,
				"y": -3.0447457821,
				"z": -1.6967115723,
				"element": "H" 
			},
			{
				"x": 1.7233560032,
				"y": -3.4414494071,
				"z": 0.7510471496,
				"element": "H" 
			},
			{
				"x": 0.1665240321,
				"y": -3.4017654391,
				"z": -0.0692149744,
				"element": "H" 
			},
			{
				"x": 1.3721288996,
				"y": -1.0417642546,
				"z": 1.4669433724,
				"element": "H" 
			},
			{
				"x": 0.1786359147,
				"y": -2.1764504595,
				"z": 2.1026163385,
				"element": "H" 
			},
			{
				"x": -3.6760370095,
				"y": -1.372851579,
				"z": -0.3362997627,
				"element": "H" 
			},
			{
				"x": -3.5553922169,
				"y": 1.0686384727,
				"z": -0.8640818199,
				"element": "H" 
			},
			{
				"x": 0.5043261146,
				"y": 0.9868102304,
				"z": 0.5679683197,
				"element": "H" 
			},
			{
				"x": -0.5021799723,
				"y": 4.3744806613,
				"z": 0.2871571465,
				"element": "H" 
			},
			{
				"x": -0.2852325685,
				"y": 2.9638950884,
				"z": 1.2774417474,
				"element": "H" 
			}
		],
		 "valence_orbital": [ 
			{
				"type": "occ",
				"energy": -0.2933,
				"method": "rhf"
			},
			{
				"type": "occ",
				"energy": -0.26307,
				"method": "rhf"
			},
			{
				"type": "occ",
				"energy": -0.26085,
				"method": "rhf"
			},
			{
				"type": "occ",
				"energy": -0.23892,
				"method": "rhf"
			},
			{
				"type": "occ",
				"energy": -0.21587,
				"method": "rhf"
			},
			{
				"type": "unocc",
				"energy": -0.07292,
				"method": "rhf"
			},
			{
				"type": "unocc",
				"energy": -0.0186,
				"method": "rhf"
			},
			{
				"type": "unocc",
				"energy": 0.00433,
				"method": "rhf"
			},
			{
				"type": "unocc",
				"energy": 0.06637,
				"method": "rhf"
			},
			{
				"type": "unocc",
				"energy": 0.08396,
				"method": "rhf"
			}
		],
		"cosmo_sigma_profile": { 
			"-0.025": 0.0,
			"-0.024": 0.0,
			"-0.023": 0.0,
			"-0.022": 0.0,
			"-0.021": 0.0,
			"-0.02": 0.0,
			"-0.019": 0.0,
			"-0.018": 0.0,
			"-0.017": 0.0,
			"-0.016": 0.561439898199,
			"-0.015": 2.22967268367,
			"-0.014": 2.76389007924,
			"-0.013": 2.26367964877,
			"-0.012": 2.6546498231,
			"-0.011": 2.87300335196,
			"-0.01": 1.82195895325,
			"-0.009": 2.00076129602,
			"-0.008": 2.29248223033,
			"-0.007": 2.84609612644,
			"-0.006": 7.60417886822,
			"-0.005": 7.51655016042,
			"-0.004": 9.21801849747,
			"-0.003": 13.3073522173,
			"-0.002": 20.6836082512,
			"-0.001": 24.9781368159,
			"0.0": 26.7950606772,
			"0.001": 26.5557768009,
			"0.002": 14.0357965948,
			"0.003": 8.21015353,
			"0.004": 7.0208955217,
			"0.005": 5.34700940433,
			"0.006": 5.99255958617,
			"0.007": 7.30312658507,
			"0.008": 8.21395846694,
			"0.009": 6.07349483106,
			"0.01": 4.87782992425,
			"0.011": 3.38710784689,
			"0.012": 1.197471193,
			"0.013": 0.842866171763,
			"0.014": 0.578716111636,
			"0.015": 0.608205047069,
			"0.016": 0.219332698682,
			"0.017": 0.0,
			"0.018": 0.0,
			"0.019": 0.0,
			"0.02": 0.0,
			"0.021": 0.0,
			"0.022": 0.0,
			"0.023": 0.0,
			"0.024": 0.0,
			"0.025": 0.0
		}
	}
}
