{
	 "smiles": "COC(=O)C1=CC(=O)C2=C(N1)C=CC(Cl)=C2", 
	 "Tm": 453.15, 
	 "num_atms": 24, 
	 "gaussian": { 
		 "optdone": 1, 
		 "sigma_profile": "yes", 
		 "theory": "DFT", 
		 "functional": "B3LYP", 
		 "basiset": "6-31G**", 
		 "properties": { 
			 "R2extent": 5299.1938, 
			 "electric_dipole_moment_norm": 5.66406572525, 
			 "electric_quadrupole_moment_norm": 20.1020014847, 
			 "total_energy": -1164.63019779, 
			 "HOMO_LUMO_gap": 0.14289, 
			 "cosmo_polarized_energy": -16.36, 
			 "cosmo_cavitation_energy": 31.15, 
			 "cosmo_dispersion_energy": -23.11, 
			 "cosmo_repulsion_energy": 1.78, 
			 "cosmo_total_nonelectrostatic_energy": 9.82, 
			 "SMD_solvation_energy": 6.94 
		},
		"coords": [
			{
				"x": -5.1067536232,
				"y": 1.1689270442,
				"z": -1.5394729563,
				"element": "C" 
			},
			{
				"x": -4.0246430512,
				"y": 0.6416577765,
				"z": -0.7475074082,
				"element": "O" 
			},
			{
				"x": -2.8008414712,
				"y": 0.8249993288,
				"z": -1.2504453445,
				"element": "C" 
			},
			{
				"x": -2.5592339432,
				"y": 1.3920846877,
				"z": -2.3017071914,
				"element": "O" 
			},
			{
				"x": -1.7197717302,
				"y": 0.2585533249,
				"z": -0.3880555829,
				"element": "C" 
			},
			{
				"x": -1.9126881041,
				"y": -0.3867681068,
				"z": 0.7966040705,
				"element": "C" 
			},
			{
				"x": -0.7848257531,
				"y": -0.905284704,
				"z": 1.5656677617,
				"element": "C" 
			},
			{
				"x": -0.9164764025,
				"y": -1.4934434799,
				"z": 2.6408804494,
				"element": "O" 
			},
			{
				"x": 0.5467401544,
				"y": -0.6661633812,
				"z": 0.948514396,
				"element": "C" 
			},
			{
				"x": 0.6672785861,
				"y": 0.0120104897,
				"z": -0.2845471249,
				"element": "C" 
			},
			{
				"x": -0.4741138819,
				"y": 0.4556897958,
				"z": -0.9183855836,
				"element": "N" 
			},
			{
				"x": 1.9390763583,
				"y": 0.2271964916,
				"z": -0.8504295293,
				"element": "C" 
			},
			{
				"x": 3.0707161305,
				"y": -0.2270728813,
				"z": -0.1961513487,
				"element": "C" 
			},
			{
				"x": 2.9455132863,
				"y": -0.9017161239,
				"z": 1.0311843316,
				"element": "C" 
			},
			{
				"x": 4.3982124981,
				"y": -1.4676839204,
				"z": 1.8403074761,
				"element": "Cl" 
			},
			{
				"x": 1.7042436691,
				"y": -1.1208804711,
				"z": 1.5999103486,
				"element": "C" 
			},
			{
				"x": -4.9976429566,
				"y": 2.249043676,
				"z": -1.6602757375,
				"element": "H" 
			},
			{
				"x": -6.0135403586,
				"y": 0.9319399952,
				"z": -0.9850463824,
				"element": "H" 
			},
			{
				"x": -5.1207974231,
				"y": 0.6976850381,
				"z": -2.5248084368,
				"element": "H" 
			},
			{
				"x": -2.9120311342,
				"y": -0.525219667,
				"z": 1.1870563939,
				"element": "H" 
			},
			{
				"x": -0.4351329843,
				"y": 0.946374303,
				"z": -1.8039159866,
				"element": "H" 
			},
			{
				"x": 2.0289978273,
				"y": 0.7491856334,
				"z": -1.7990472221,
				"element": "H" 
			},
			{
				"x": 4.0536392654,
				"y": -0.0657198775,
				"z": -0.6245860751,
				"element": "H" 
			},
			{
				"x": 1.584175042,
				"y": -1.6384949717,
				"z": 2.5449566825,
				"element": "H" 
			}
		],
		 "valence_orbital": [ 
			{
				"type": "occ",
				"energy": -0.31198,
				"method": "rhf"
			},
			{
				"type": "occ",
				"energy": -0.27301,
				"method": "rhf"
			},
			{
				"type": "occ",
				"energy": -0.2711,
				"method": "rhf"
			},
			{
				"type": "occ",
				"energy": -0.23934,
				"method": "rhf"
			},
			{
				"type": "occ",
				"energy": -0.22283,
				"method": "rhf"
			},
			{
				"type": "unocc",
				"energy": -0.07994,
				"method": "rhf"
			},
			{
				"type": "unocc",
				"energy": -0.04018,
				"method": "rhf"
			},
			{
				"type": "unocc",
				"energy": -0.01044,
				"method": "rhf"
			},
			{
				"type": "unocc",
				"energy": 0.02713,
				"method": "rhf"
			},
			{
				"type": "unocc",
				"energy": 0.0404,
				"method": "rhf"
			}
		],
		"cosmo_sigma_profile": { 
			"-0.025": 0.0,
			"-0.024": 0.0,
			"-0.023": 0.0,
			"-0.022": 0.0,
			"-0.021": 0.0,
			"-0.02": 0.0,
			"-0.019": 0.0,
			"-0.018": 0.0,
			"-0.017": 0.0,
			"-0.016": 0.0828071582057,
			"-0.015": 1.02308538974,
			"-0.014": 1.06877044604,
			"-0.013": 0.915981323059,
			"-0.012": 1.53788312909,
			"-0.011": 0.840770126688,
			"-0.01": 0.894342819968,
			"-0.009": 1.58732862373,
			"-0.008": 5.04948551865,
			"-0.007": 8.33816870376,
			"-0.006": 13.5427403033,
			"-0.005": 16.3080760965,
			"-0.004": 19.2647765712,
			"-0.003": 14.4503545415,
			"-0.002": 16.574838266,
			"-0.001": 16.8330143544,
			"0.0": 20.8944379638,
			"0.001": 27.5718294754,
			"0.002": 20.896711427,
			"0.003": 12.0495878377,
			"0.004": 13.1877620402,
			"0.005": 8.8382494775,
			"0.006": 3.02187204334,
			"0.007": 2.48727880221,
			"0.008": 2.92083584091,
			"0.009": 3.18097863934,
			"0.01": 4.88322311806,
			"0.011": 3.29924666227,
			"0.012": 1.79681060823,
			"0.013": 3.89534925693,
			"0.014": 4.25027768618,
			"0.015": 1.16829935822,
			"0.016": 0.00983493887396,
			"0.017": 0.0,
			"0.018": 0.0,
			"0.019": 0.0,
			"0.02": 0.0,
			"0.021": 0.0,
			"0.022": 0.0,
			"0.023": 0.0,
			"0.024": 0.0,
			"0.025": 0.0
		}
	}
}
