{
	 "smiles": "CCOC(=O)C1=CC=C(C=C1)C#N", 
	 "Tm": 327.15, 
	 "num_atms": 22, 
	 "gaussian": { 
		 "optdone": 1, 
		 "sigma_profile": "yes", 
		 "theory": "DFT", 
		 "functional": "B3LYP", 
		 "basiset": "6-31G**", 
		 "properties": { 
			 "R2extent": 4578.1655, 
			 "electric_dipole_moment_norm": 4.55374236206, 
			 "electric_quadrupole_moment_norm": 23.6586533406, 
			 "total_energy": -591.690373485, 
			 "HOMO_LUMO_gap": 0.19399, 
			 "cosmo_polarized_energy": -10.97, 
			 "cosmo_cavitation_energy": 28.09, 
			 "cosmo_dispersion_energy": -19.76, 
			 "cosmo_repulsion_energy": 1.58, 
			 "cosmo_total_nonelectrostatic_energy": 9.92, 
			 "SMD_solvation_energy": 7.42 
		},
		"coords": [
			{
				"x": -1.1354164467,
				"y": -0.1176324722,
				"z": 3.0128355805,
				"element": "C" 
			},
			{
				"x": 0.1870080092,
				"y": 0.2076945208,
				"z": 2.3465295673,
				"element": "C" 
			},
			{
				"x": -0.1027570181,
				"y": 0.6703284349,
				"z": 1.005307617,
				"element": "O" 
			},
			{
				"x": 0.9661215315,
				"y": 1.0083435348,
				"z": 0.2569373356,
				"element": "C" 
			},
			{
				"x": 2.1140941178,
				"y": 0.9415818479,
				"z": 0.650927975,
				"element": "O" 
			},
			{
				"x": 0.57994324,
				"y": 1.4744781262,
				"z": -1.1103005456,
				"element": "C" 
			},
			{
				"x": -0.7553226058,
				"y": 1.5389109892,
				"z": -1.5316470329,
				"element": "C" 
			},
			{
				"x": -1.0611420401,
				"y": 1.9799977707,
				"z": -2.8145108797,
				"element": "C" 
			},
			{
				"x": -0.0276553893,
				"y": 2.3611244122,
				"z": -3.6876497247,
				"element": "C" 
			},
			{
				"x": 1.3122410512,
				"y": 2.2968682323,
				"z": -3.2659073154,
				"element": "C" 
			},
			{
				"x": 1.6086089775,
				"y": 1.8549831221,
				"z": -1.9826116203,
				"element": "C" 
			},
			{
				"x": -0.3414913305,
				"y": 2.8163673318,
				"z": -5.0113110971,
				"element": "C" 
			},
			{
				"x": -0.5966365197,
				"y": 3.1854134248,
				"z": -6.084485923,
				"element": "N" 
			},
			{
				"x": -1.7765768726,
				"y": 0.7669409786,
				"z": 3.0641547175,
				"element": "H" 
			},
			{
				"x": -0.9574951056,
				"y": -0.472192961,
				"z": 4.032777444,
				"element": "H" 
			},
			{
				"x": -1.6679562889,
				"y": -0.9005982537,
				"z": 2.4655184949,
				"element": "H" 
			},
			{
				"x": 0.7357042402,
				"y": 0.9926104809,
				"z": 2.8762895129,
				"element": "H" 
			},
			{
				"x": 0.8436843543,
				"y": -0.6654012856,
				"z": 2.2810843459,
				"element": "H" 
			},
			{
				"x": -1.5454421894,
				"y": 1.243185003,
				"z": -0.8518270643,
				"element": "H" 
			},
			{
				"x": -2.0915758758,
				"y": 2.033109066,
				"z": -3.1490857262,
				"element": "H" 
			},
			{
				"x": 2.1033367624,
				"y": 2.5929436872,
				"z": -3.9463397961,
				"element": "H" 
			},
			{
				"x": 2.6333253981,
				"y": 1.7959440094,
				"z": -1.6325858652,
				"element": "H" 
			}
		],
		 "valence_orbital": [ 
			{
				"type": "occ",
				"energy": -0.33595,
				"method": "rhf"
			},
			{
				"type": "occ",
				"energy": -0.31262,
				"method": "rhf"
			},
			{
				"type": "occ",
				"energy": -0.2866,
				"method": "rhf"
			},
			{
				"type": "occ",
				"energy": -0.283,
				"method": "rhf"
			},
			{
				"type": "occ",
				"energy": -0.27371,
				"method": "rhf"
			},
			{
				"type": "unocc",
				"energy": -0.07972,
				"method": "rhf"
			},
			{
				"type": "unocc",
				"energy": -0.03083,
				"method": "rhf"
			},
			{
				"type": "unocc",
				"energy": 0.01463,
				"method": "rhf"
			},
			{
				"type": "unocc",
				"energy": 0.03104,
				"method": "rhf"
			},
			{
				"type": "unocc",
				"energy": 0.0785,
				"method": "rhf"
			}
		],
		"cosmo_sigma_profile": { 
			"-0.025": 0.0,
			"-0.024": 0.0,
			"-0.023": 0.0,
			"-0.022": 0.0,
			"-0.021": 0.0,
			"-0.02": 0.0,
			"-0.019": 0.0,
			"-0.018": 0.0,
			"-0.017": 0.0,
			"-0.016": 0.0,
			"-0.015": 0.0,
			"-0.014": 0.0,
			"-0.013": 0.0,
			"-0.012": 0.0,
			"-0.011": 0.0,
			"-0.01": 0.0,
			"-0.009": 0.804279556839,
			"-0.008": 5.24493980177,
			"-0.007": 7.58479095,
			"-0.006": 8.70513351594,
			"-0.005": 13.3356827645,
			"-0.004": 19.4270987357,
			"-0.003": 22.6037784271,
			"-0.002": 20.6731659294,
			"-0.001": 22.3440179045,
			"0.0": 23.1764240131,
			"0.001": 21.572533849,
			"0.002": 8.17834398222,
			"0.003": 5.51217380847,
			"0.004": 6.52228807026,
			"0.005": 5.14297164004,
			"0.006": 2.75977320875,
			"0.007": 5.41664430323,
			"0.008": 4.52864088625,
			"0.009": 5.44345492144,
			"0.01": 4.16686804664,
			"0.011": 6.67902785178,
			"0.012": 4.92120512388,
			"0.013": 0.798068722078,
			"0.014": 0.0,
			"0.015": 0.0,
			"0.016": 0.0,
			"0.017": 0.0,
			"0.018": 0.0,
			"0.019": 0.0,
			"0.02": 0.0,
			"0.021": 0.0,
			"0.022": 0.0,
			"0.023": 0.0,
			"0.024": 0.0,
			"0.025": 0.0
		}
	}
}
