{
	 "smiles": "ClC1=NC=C(C=C1)S(=O)(=O)NC1=NC=CS1", 
	 "Tm": 503.15, 
	 "num_atms": 22, 
	 "gaussian": { 
		 "optdone": 1, 
		 "sigma_profile": "yes", 
		 "theory": "DFT", 
		 "functional": "B3LYP", 
		 "basiset": "6-31G**", 
		 "properties": { 
			 "R2extent": 5455.0067, 
			 "electric_dipole_moment_norm": 2.97656017913, 
			 "electric_quadrupole_moment_norm": 22.4079614753, 
			 "total_energy": -1879.63885413, 
			 "HOMO_LUMO_gap": 0.16987, 
			 "cosmo_polarized_energy": -16.25, 
			 "cosmo_cavitation_energy": 32.33, 
			 "cosmo_dispersion_energy": -24.12, 
			 "cosmo_repulsion_energy": 1.79, 
			 "cosmo_total_nonelectrostatic_energy": 10.0, 
			 "SMD_solvation_energy": 1.55 
		},
		"coords": [
			{
				"x": -4.6887218606,
				"y": -1.3775353946,
				"z": -1.3925286906,
				"element": "Cl" 
			},
			{
				"x": -2.9611179438,
				"y": -1.0989039279,
				"z": -1.496204016,
				"element": "C" 
			},
			{
				"x": -2.571496047,
				"y": 0.1545677312,
				"z": -1.6573146909,
				"element": "N" 
			},
			{
				"x": -1.2560678722,
				"y": 0.3904322587,
				"z": -1.7333381537,
				"element": "C" 
			},
			{
				"x": -0.3095461729,
				"y": -0.6319207205,
				"z": -1.6397677116,
				"element": "C" 
			},
			{
				"x": -0.7365212608,
				"y": -1.9546257041,
				"z": -1.4844417371,
				"element": "C" 
			},
			{
				"x": -2.1008536956,
				"y": -2.2016353274,
				"z": -1.4114860115,
				"element": "C" 
			},
			{
				"x": 1.440204692,
				"y": -0.2578847684,
				"z": -1.7189591661,
				"element": "S" 
			},
			{
				"x": 2.1386217668,
				"y": -1.4771138544,
				"z": -2.1134107846,
				"element": "O" 
			},
			{
				"x": 1.5857207964,
				"y": 1.0192077363,
				"z": -2.4104652904,
				"element": "O" 
			},
			{
				"x": 1.9533221604,
				"y": 0.0149829074,
				"z": -0.1194963547,
				"element": "N" 
			},
			{
				"x": 1.4950251077,
				"y": 1.0700241772,
				"z": 0.6772947071,
				"element": "C" 
			},
			{
				"x": 1.1478904939,
				"y": 0.8818607012,
				"z": 1.9187580231,
				"element": "N" 
			},
			{
				"x": 0.8484994386,
				"y": 2.0853466548,
				"z": 2.518294644,
				"element": "C" 
			},
			{
				"x": 0.9541728419,
				"y": 3.1909443364,
				"z": 1.7290893637,
				"element": "C" 
			},
			{
				"x": 1.4902596788,
				"y": 2.7419989025,
				"z": 0.1355876941,
				"element": "S" 
			},
			{
				"x": -0.9490285067,
				"y": 1.4201166743,
				"z": -1.8894428187,
				"element": "H" 
			},
			{
				"x": -0.0146577966,
				"y": -2.7635841458,
				"z": -1.4431002226,
				"element": "H" 
			},
			{
				"x": -2.4939045631,
				"y": -3.2046336042,
				"z": -1.2990570956,
				"element": "H" 
			},
			{
				"x": 2.0575765932,
				"y": -0.8489231257,
				"z": 0.406825313,
				"element": "H" 
			},
			{
				"x": 0.5366294973,
				"y": 2.0899548564,
				"z": 3.5558080572,
				"element": "H" 
			},
			{
				"x": 0.7302926521,
				"y": 4.2201236365,
				"z": 1.9703549417,
				"element": "H" 
			}
		],
		 "valence_orbital": [ 
			{
				"type": "occ",
				"energy": -0.29907,
				"method": "rhf"
			},
			{
				"type": "occ",
				"energy": -0.29689,
				"method": "rhf"
			},
			{
				"type": "occ",
				"energy": -0.29433,
				"method": "rhf"
			},
			{
				"type": "occ",
				"energy": -0.28583,
				"method": "rhf"
			},
			{
				"type": "occ",
				"energy": -0.24285,
				"method": "rhf"
			},
			{
				"type": "unocc",
				"energy": -0.07298,
				"method": "rhf"
			},
			{
				"type": "unocc",
				"energy": -0.06195,
				"method": "rhf"
			},
			{
				"type": "unocc",
				"energy": -0.03594,
				"method": "rhf"
			},
			{
				"type": "unocc",
				"energy": 0.00888,
				"method": "rhf"
			},
			{
				"type": "unocc",
				"energy": 0.01604,
				"method": "rhf"
			}
		],
		"cosmo_sigma_profile": { 
			"-0.025": 0.0,
			"-0.024": 0.0,
			"-0.023": 0.0,
			"-0.022": 0.0,
			"-0.021": 0.0,
			"-0.02": 0.0,
			"-0.019": 0.0,
			"-0.018": 0.0,
			"-0.017": 0.562942967495,
			"-0.016": 0.901565193544,
			"-0.015": 1.16065831943,
			"-0.014": 0.970173752418,
			"-0.013": 1.14917657636,
			"-0.012": 1.06818535367,
			"-0.011": 0.537334792462,
			"-0.01": 2.61548127606,
			"-0.009": 7.71824530055,
			"-0.008": 8.45778355333,
			"-0.007": 8.71356264426,
			"-0.006": 9.1734788237,
			"-0.005": 10.1961786026,
			"-0.004": 11.8193056949,
			"-0.003": 19.7008900133,
			"-0.002": 21.4164545368,
			"-0.001": 17.7261496479,
			"0.0": 17.1798781353,
			"0.001": 20.6029084994,
			"0.002": 19.8957394157,
			"0.003": 20.2432588705,
			"0.004": 13.0603696407,
			"0.005": 8.80333668638,
			"0.006": 6.8441897769,
			"0.007": 4.98323757113,
			"0.008": 6.83585768779,
			"0.009": 9.22249243295,
			"0.01": 7.96676210243,
			"0.011": 2.82525534504,
			"0.012": 1.35146685563,
			"0.013": 1.67609512488,
			"0.014": 0.292315567544,
			"0.015": 0.0,
			"0.016": 0.0,
			"0.017": 0.0,
			"0.018": 0.0,
			"0.019": 0.0,
			"0.02": 0.0,
			"0.021": 0.0,
			"0.022": 0.0,
			"0.023": 0.0,
			"0.024": 0.0,
			"0.025": 0.0
		}
	}
}
