{
	 "smiles": "CCOC1=CC=C(C=C1)S(=O)(=O)N(C)C1=CC=C(O)C=C1", 
	 "Tm": 404.15, 
	 "num_atms": 38, 
	 "gaussian": { 
		 "optdone": 1, 
		 "sigma_profile": "yes", 
		 "theory": "DFT", 
		 "functional": "B3LYP", 
		 "basiset": "6-31G**", 
		 "properties": { 
			 "R2extent": 8637.2394, 
			 "electric_dipole_moment_norm": 6.808947332, 
			 "electric_quadrupole_moment_norm": 19.6633241841, 
			 "total_energy": -1335.59273979, 
			 "HOMO_LUMO_gap": 0.20121, 
			 "cosmo_polarized_energy": -20.0, 
			 "cosmo_cavitation_energy": 43.1, 
			 "cosmo_dispersion_energy": -29.87, 
			 "cosmo_repulsion_energy": 2.29, 
			 "cosmo_total_nonelectrostatic_energy": 15.52, 
			 "SMD_solvation_energy": 7.2 
		},
		"coords": [
			{
				"x": -2.1503823852,
				"y": -4.7248431239,
				"z": -2.8258028019,
				"element": "C" 
			},
			{
				"x": -1.0865159369,
				"y": -4.0082715192,
				"z": -2.0135687819,
				"element": "C" 
			},
			{
				"x": -1.7586290469,
				"y": -3.2020633773,
				"z": -1.0417111786,
				"element": "O" 
			},
			{
				"x": -1.0233799698,
				"y": -2.4620653771,
				"z": -0.1729017402,
				"element": "C" 
			},
			{
				"x": -1.7595180586,
				"y": -1.7186041179,
				"z": 0.7652350468,
				"element": "C" 
			},
			{
				"x": -1.1059373715,
				"y": -0.9293197297,
				"z": 1.7004493114,
				"element": "C" 
			},
			{
				"x": 0.2921661021,
				"y": -0.8748776414,
				"z": 1.6978276243,
				"element": "C" 
			},
			{
				"x": 1.0331107934,
				"y": -1.6148521572,
				"z": 0.7769545989,
				"element": "C" 
			},
			{
				"x": 0.379910842,
				"y": -2.4097062855,
				"z": -0.1632349127,
				"element": "C" 
			},
			{
				"x": 1.1462157701,
				"y": 0.1062026915,
				"z": 2.9194310236,
				"element": "S" 
			},
			{
				"x": 0.1780807086,
				"y": 0.4471788843,
				"z": 3.9734262038,
				"element": "O" 
			},
			{
				"x": 2.4084808746,
				"y": -0.5551720564,
				"z": 3.2724708928,
				"element": "O" 
			},
			{
				"x": 1.6010713287,
				"y": 1.4871770184,
				"z": 2.0097055563,
				"element": "N" 
			},
			{
				"x": 2.7897374277,
				"y": 2.1918188548,
				"z": 2.5267802193,
				"element": "C" 
			},
			{
				"x": 0.5215438497,
				"y": 2.3329111836,
				"z": 1.5609794018,
				"element": "C" 
			},
			{
				"x": -0.2391029498,
				"y": 3.1138835024,
				"z": 2.4449809915,
				"element": "C" 
			},
			{
				"x": -1.2447107342,
				"y": 3.945149533,
				"z": 1.9650495532,
				"element": "C" 
			},
			{
				"x": -1.5014970176,
				"y": 4.0089670302,
				"z": 0.5893122358,
				"element": "C" 
			},
			{
				"x": -2.4981218013,
				"y": 4.8445626644,
				"z": 0.1761173885,
				"element": "O" 
			},
			{
				"x": -0.7489048833,
				"y": 3.2323712867,
				"z": -0.2984627854,
				"element": "C" 
			},
			{
				"x": 0.2553628352,
				"y": 2.3984395397,
				"z": 0.1909132485,
				"element": "C" 
			},
			{
				"x": -1.6796269808,
				"y": -5.3559669415,
				"z": -3.5856150596,
				"element": "H" 
			},
			{
				"x": -2.8029019582,
				"y": -4.0050779038,
				"z": -3.3276391896,
				"element": "H" 
			},
			{
				"x": -2.7660985747,
				"y": -5.3579836287,
				"z": -2.1811847054,
				"element": "H" 
			},
			{
				"x": -0.4275369896,
				"y": -4.7270875648,
				"z": -1.5076403361,
				"element": "H" 
			},
			{
				"x": -0.4628770936,
				"y": -3.3721301399,
				"z": -2.6568719038,
				"element": "H" 
			},
			{
				"x": -2.8420189121,
				"y": -1.7839503503,
				"z": 0.7419044487,
				"element": "H" 
			},
			{
				"x": -1.6622187974,
				"y": -0.3624137514,
				"z": 2.4382437155,
				"element": "H" 
			},
			{
				"x": 2.1169149288,
				"y": -1.5802927209,
				"z": 0.8048395548,
				"element": "H" 
			},
			{
				"x": 0.9651471569,
				"y": -2.9848028669,
				"z": -0.8700406003,
				"element": "H" 
			},
			{
				"x": 2.5791707872,
				"y": 2.7902365832,
				"z": 3.4229427258,
				"element": "H" 
			},
			{
				"x": 3.5636664135,
				"y": 1.4599662198,
				"z": 2.7576190982,
				"element": "H" 
			},
			{
				"x": 3.1453240241,
				"y": 2.8567486546,
				"z": 1.7359213993,
				"element": "H" 
			},
			{
				"x": -0.0524089253,
				"y": 3.0483991385,
				"z": 3.5111878099,
				"element": "H" 
			},
			{
				"x": -1.8435708582,
				"y": 4.5499744353,
				"z": 2.6377512545,
				"element": "H" 
			},
			{
				"x": -2.5769671256,
				"y": 4.7949280279,
				"z": -0.7853716627,
				"element": "H" 
			},
			{
				"x": -0.948159696,
				"y": 3.2774928263,
				"z": -1.3671092793,
				"element": "H" 
			},
			{
				"x": 0.8441822239,
				"y": 1.7892731792,
				"z": -0.4870883659,
				"element": "H" 
			}
		],
		 "valence_orbital": [ 
			{
				"type": "occ",
				"energy": -0.26648,
				"method": "rhf"
			},
			{
				"type": "occ",
				"energy": -0.25777,
				"method": "rhf"
			},
			{
				"type": "occ",
				"energy": -0.251,
				"method": "rhf"
			},
			{
				"type": "occ",
				"energy": -0.232,
				"method": "rhf"
			},
			{
				"type": "occ",
				"energy": -0.22535,
				"method": "rhf"
			},
			{
				"type": "unocc",
				"energy": -0.02414,
				"method": "rhf"
			},
			{
				"type": "unocc",
				"energy": -0.01408,
				"method": "rhf"
			},
			{
				"type": "unocc",
				"energy": -0.00795,
				"method": "rhf"
			},
			{
				"type": "unocc",
				"energy": -0.0016,
				"method": "rhf"
			},
			{
				"type": "unocc",
				"energy": 0.06413,
				"method": "rhf"
			}
		],
		"cosmo_sigma_profile": { 
			"-0.025": 0.0,
			"-0.024": 0.0,
			"-0.023": 0.0,
			"-0.022": 0.0,
			"-0.021": 0.0,
			"-0.02": 0.0,
			"-0.019": 0.0,
			"-0.018": 0.64098590684,
			"-0.017": 1.16559268978,
			"-0.016": 1.05112065197,
			"-0.015": 1.29117542807,
			"-0.014": 0.876281088672,
			"-0.013": 1.11799855867,
			"-0.012": 0.551983469869,
			"-0.011": 0.836229711654,
			"-0.01": 1.61523681871,
			"-0.009": 1.07729931533,
			"-0.008": 1.63104104872,
			"-0.007": 8.20381852125,
			"-0.006": 15.6808672351,
			"-0.005": 26.0453473641,
			"-0.004": 29.7318488701,
			"-0.003": 27.8484529068,
			"-0.002": 26.4750482958,
			"-0.001": 20.8711388049,
			"0.0": 23.121993327,
			"0.001": 22.175311987,
			"0.002": 25.4328657572,
			"0.003": 30.1458354735,
			"0.004": 18.9368049834,
			"0.005": 9.89230859919,
			"0.006": 5.73611276382,
			"0.007": 6.03469306146,
			"0.008": 5.47350543125,
			"0.009": 6.57390558376,
			"0.01": 7.9470006034,
			"0.011": 8.65573476056,
			"0.012": 5.10287756967,
			"0.013": 0.147833061459,
			"0.014": 0.0,
			"0.015": 0.0,
			"0.016": 0.0,
			"0.017": 0.0,
			"0.018": 0.0,
			"0.019": 0.0,
			"0.02": 0.0,
			"0.021": 0.0,
			"0.022": 0.0,
			"0.023": 0.0,
			"0.024": 0.0,
			"0.025": 0.0
		}
	}
}
