{
	 "smiles": "COC1=CC(O)=C2C(=O)C3=CC(O)=CC=C3OC2=C1", 
	 "Tm": 539.15, 
	 "num_atms": 29, 
	 "gaussian": { 
		 "optdone": 1, 
		 "sigma_profile": "yes", 
		 "theory": "DFT", 
		 "functional": "B3LYP", 
		 "basiset": "6-31G**", 
		 "properties": { 
			 "R2extent": 5919.2278, 
			 "electric_dipole_moment_norm": 5.36783859482, 
			 "electric_quadrupole_moment_norm": 24.7926107296, 
			 "total_energy": -915.620902447, 
			 "HOMO_LUMO_gap": 0.15807, 
			 "cosmo_polarized_energy": -23.89, 
			 "cosmo_cavitation_energy": 33.8, 
			 "cosmo_dispersion_energy": -25.39, 
			 "cosmo_repulsion_energy": 1.9, 
			 "cosmo_total_nonelectrostatic_energy": 10.31, 
			 "SMD_solvation_energy": 7.86 
		},
		"coords": [
			{
				"x": -1.7957725548,
				"y": -3.9138752673,
				"z": -2.1779768839,
				"element": "C" 
			},
			{
				"x": -0.4721908283,
				"y": -3.8167620377,
				"z": -1.6671610577,
				"element": "O" 
			},
			{
				"x": -0.1117718055,
				"y": -2.6800537275,
				"z": -1.0191646518,
				"element": "C" 
			},
			{
				"x": 1.2088669973,
				"y": -2.6553851422,
				"z": -0.5427575699,
				"element": "C" 
			},
			{
				"x": 1.6933157608,
				"y": -1.5449019188,
				"z": 0.1368235891,
				"element": "C" 
			},
			{
				"x": 2.9642760816,
				"y": -1.5142264073,
				"z": 0.5985763945,
				"element": "O" 
			},
			{
				"x": 0.8664115876,
				"y": -0.4055249263,
				"z": 0.3677250672,
				"element": "C" 
			},
			{
				"x": 1.3250112376,
				"y": 0.8007586725,
				"z": 1.0819346356,
				"element": "C" 
			},
			{
				"x": 2.4493687018,
				"y": 0.9554691904,
				"z": 1.548395079,
				"element": "O" 
			},
			{
				"x": 0.2927957499,
				"y": 1.8658090849,
				"z": 1.2061513581,
				"element": "C" 
			},
			{
				"x": 0.597479221,
				"y": 3.0645539991,
				"z": 1.8622366795,
				"element": "C" 
			},
			{
				"x": -0.3631640452,
				"y": 4.0633736964,
				"z": 1.9814104973,
				"element": "C" 
			},
			{
				"x": -0.0131380667,
				"y": 5.2140062609,
				"z": 2.6314151806,
				"element": "O" 
			},
			{
				"x": -1.6456141769,
				"y": 3.8656817123,
				"z": 1.4395206971,
				"element": "C" 
			},
			{
				"x": -1.9600890585,
				"y": 2.6803221681,
				"z": 0.7860883629,
				"element": "C" 
			},
			{
				"x": -0.9876451776,
				"y": 1.685184087,
				"z": 0.6727089457,
				"element": "C" 
			},
			{
				"x": -1.3495940936,
				"y": 0.5353795244,
				"z": 0.0186679968,
				"element": "O" 
			},
			{
				"x": -0.4511107502,
				"y": -0.4802949364,
				"z": -0.1304415218,
				"element": "C" 
			},
			{
				"x": -0.9547673162,
				"y": -1.5898979931,
				"z": -0.8163141645,
				"element": "C" 
			},
			{
				"x": -1.8623992262,
				"y": -4.8942895063,
				"z": -2.651045372,
				"element": "H" 
			},
			{
				"x": -2.5412492518,
				"y": -3.8457872064,
				"z": -1.3764027767,
				"element": "H" 
			},
			{
				"x": -1.9958203117,
				"y": -3.1357991889,
				"z": -2.9246135397,
				"element": "H" 
			},
			{
				"x": 1.8392852192,
				"y": -3.5221013314,
				"z": -0.7179643158,
				"element": "H" 
			},
			{
				"x": 3.3948749757,
				"y": -2.3487594394,
				"z": 0.3677932365,
				"element": "H" 
			},
			{
				"x": 1.592638464,
				"y": 3.1945941551,
				"z": 2.2720728363,
				"element": "H" 
			},
			{
				"x": -0.7671066318,
				"y": 5.8172217996,
				"z": 2.6422404315,
				"element": "H" 
			},
			{
				"x": -2.3995866523,
				"y": 4.6446838497,
				"z": 1.5307974273,
				"element": "H" 
			},
			{
				"x": -2.9449405813,
				"y": 2.513774295,
				"z": 0.3631342085,
				"element": "H" 
			},
			{
				"x": -1.978263468,
				"y": -1.5604534664,
				"z": -1.1631507698,
				"element": "H" 
			}
		],
		 "valence_orbital": [ 
			{
				"type": "occ",
				"energy": -0.25767,
				"method": "rhf"
			},
			{
				"type": "occ",
				"energy": -0.23903,
				"method": "rhf"
			},
			{
				"type": "occ",
				"energy": -0.22965,
				"method": "rhf"
			},
			{
				"type": "occ",
				"energy": -0.2292,
				"method": "rhf"
			},
			{
				"type": "occ",
				"energy": -0.20834,
				"method": "rhf"
			},
			{
				"type": "unocc",
				"energy": -0.05027,
				"method": "rhf"
			},
			{
				"type": "unocc",
				"energy": -0.00961,
				"method": "rhf"
			},
			{
				"type": "unocc",
				"energy": 0.00561,
				"method": "rhf"
			},
			{
				"type": "unocc",
				"energy": 0.0196,
				"method": "rhf"
			},
			{
				"type": "unocc",
				"energy": 0.06631,
				"method": "rhf"
			}
		],
		"cosmo_sigma_profile": { 
			"-0.025": 0.0,
			"-0.024": 0.0,
			"-0.023": 0.0,
			"-0.022": 0.0,
			"-0.021": 0.0,
			"-0.02": 0.0,
			"-0.019": 0.121665359967,
			"-0.018": 1.76927163709,
			"-0.017": 2.43748925274,
			"-0.016": 2.25607112483,
			"-0.015": 2.63538232758,
			"-0.014": 2.14329714406,
			"-0.013": 1.17142307983,
			"-0.012": 1.62758369305,
			"-0.011": 1.98065068141,
			"-0.01": 2.19431170163,
			"-0.009": 3.21458902308,
			"-0.008": 3.16045852131,
			"-0.007": 7.4664052196,
			"-0.006": 14.6061422965,
			"-0.005": 15.3228381358,
			"-0.004": 15.2436657309,
			"-0.003": 14.6488817611,
			"-0.002": 11.321016583,
			"-0.001": 12.0400083849,
			"0.0": 15.985552478,
			"0.001": 22.6927955829,
			"0.002": 30.5623421015,
			"0.003": 25.5416326131,
			"0.004": 11.1338643735,
			"0.005": 8.06884216384,
			"0.006": 4.75771986479,
			"0.007": 4.15086472325,
			"0.008": 5.71345426836,
			"0.009": 5.15446964884,
			"0.01": 3.58424550675,
			"0.011": 3.88410270887,
			"0.012": 3.25003546886,
			"0.013": 4.3867900939,
			"0.014": 2.47198432437,
			"0.015": 1.47548454243,
			"0.016": 1.42639799731,
			"0.017": 1.05805867759,
			"0.018": 0.0625644712826,
			"0.019": 0.0,
			"0.02": 0.0,
			"0.021": 0.0,
			"0.022": 0.0,
			"0.023": 0.0,
			"0.024": 0.0,
			"0.025": 0.0
		}
	}
}
