{
	 "smiles": "CCOC(C)C1=NC(=CS1)C(O)=O", 
	 "Tm": 335.15, 
	 "num_atms": 24, 
	 "gaussian": { 
		 "optdone": 1, 
		 "sigma_profile": "yes", 
		 "theory": "DFT", 
		 "functional": "B3LYP", 
		 "basiset": "6-31G**", 
		 "properties": { 
			 "R2extent": 3985.6823, 
			 "electric_dipole_moment_norm": 1.8364291138, 
			 "electric_quadrupole_moment_norm": 7.11458666614, 
			 "total_energy": -990.091840035, 
			 "HOMO_LUMO_gap": 0.20355, 
			 "cosmo_polarized_energy": -12.49, 
			 "cosmo_cavitation_energy": 29.75, 
			 "cosmo_dispersion_energy": -21.6, 
			 "cosmo_repulsion_energy": 1.71, 
			 "cosmo_total_nonelectrostatic_energy": 9.85, 
			 "SMD_solvation_energy": 5.22 
		},
		"coords": [
			{
				"x": -1.0285823824,
				"y": -3.9081361542,
				"z": 0.2518425783,
				"element": "C" 
			},
			{
				"x": -0.7150763233,
				"y": -2.4992790904,
				"z": -0.2235602348,
				"element": "C" 
			},
			{
				"x": 0.6367968281,
				"y": -2.2118897179,
				"z": 0.1423336454,
				"element": "O" 
			},
			{
				"x": 1.0681157366,
				"y": -0.8648073889,
				"z": -0.0259328295,
				"element": "C" 
			},
			{
				"x": 0.8200763885,
				"y": -0.2691637795,
				"z": -1.4130058314,
				"element": "C" 
			},
			{
				"x": 0.5102225786,
				"y": 0.0139202593,
				"z": 1.0786265807,
				"element": "C" 
			},
			{
				"x": 0.2734099364,
				"y": 1.2853416453,
				"z": 0.9902811953,
				"element": "N" 
			},
			{
				"x": -0.1556698151,
				"y": 1.7978816481,
				"z": 2.1974894715,
				"element": "C" 
			},
			{
				"x": -0.2491026611,
				"y": 0.8951799681,
				"z": 3.2257676559,
				"element": "C" 
			},
			{
				"x": 0.2152441251,
				"y": -0.6719589611,
				"z": 2.6868132953,
				"element": "S" 
			},
			{
				"x": -0.5041061625,
				"y": 3.2257291714,
				"z": 2.3802240784,
				"element": "C" 
			},
			{
				"x": -0.3508372415,
				"y": 3.9587329429,
				"z": 1.2574619715,
				"element": "O" 
			},
			{
				"x": -0.8897364383,
				"y": 3.6975461139,
				"z": 3.4328406802,
				"element": "O" 
			},
			{
				"x": -0.3293544564,
				"y": -4.6243739472,
				"z": -0.1893470174,
				"element": "H" 
			},
			{
				"x": -2.0448846078,
				"y": -4.1900852678,
				"z": -0.0408326635,
				"element": "H" 
			},
			{
				"x": -0.9478761431,
				"y": -3.9772078932,
				"z": 1.3404394439,
				"element": "H" 
			},
			{
				"x": -1.4034187786,
				"y": -1.7745041024,
				"z": 0.2360798081,
				"element": "H" 
			},
			{
				"x": -0.8370380189,
				"y": -2.4273888205,
				"z": -1.3130642399,
				"element": "H" 
			},
			{
				"x": 2.1533424607,
				"y": -0.9264481633,
				"z": 0.1300529517,
				"element": "H" 
			},
			{
				"x": -0.2441062037,
				"y": -0.1197883883,
				"z": -1.6103672825,
				"element": "H" 
			},
			{
				"x": 1.3050032761,
				"y": 0.7066722573,
				"z": -1.4831302516,
				"element": "H" 
			},
			{
				"x": 1.2378139711,
				"y": -0.9328241379,
				"z": -2.1752852537,
				"element": "H" 
			},
			{
				"x": -0.5768366291,
				"y": 1.0956916025,
				"z": 4.2354324638,
				"element": "H" 
			},
			{
				"x": -0.6060994395,
				"y": 4.8638602036,
				"z": 1.5025397843,
				"element": "H" 
			}
		],
		 "valence_orbital": [ 
			{
				"type": "occ",
				"energy": -0.29661,
				"method": "rhf"
			},
			{
				"type": "occ",
				"energy": -0.29177,
				"method": "rhf"
			},
			{
				"type": "occ",
				"energy": -0.27606,
				"method": "rhf"
			},
			{
				"type": "occ",
				"energy": -0.26755,
				"method": "rhf"
			},
			{
				"type": "occ",
				"energy": -0.25413,
				"method": "rhf"
			},
			{
				"type": "unocc",
				"energy": -0.05058,
				"method": "rhf"
			},
			{
				"type": "unocc",
				"energy": -0.01354,
				"method": "rhf"
			},
			{
				"type": "unocc",
				"energy": 0.01719,
				"method": "rhf"
			},
			{
				"type": "unocc",
				"energy": 0.08203,
				"method": "rhf"
			},
			{
				"type": "unocc",
				"energy": 0.08362,
				"method": "rhf"
			}
		],
		"cosmo_sigma_profile": { 
			"-0.025": 0.0,
			"-0.024": 0.0,
			"-0.023": 0.0,
			"-0.022": 0.0,
			"-0.021": 0.0,
			"-0.02": 0.0,
			"-0.019": 0.208528389494,
			"-0.018": 0.668958944058,
			"-0.017": 1.25165512604,
			"-0.016": 0.548226227849,
			"-0.015": 0.878327900206,
			"-0.014": 0.525715560172,
			"-0.013": 0.757964108456,
			"-0.012": 0.679578949979,
			"-0.011": 1.07195192573,
			"-0.01": 1.48604547467,
			"-0.009": 2.12397519632,
			"-0.008": 2.02571703234,
			"-0.007": 4.11915126191,
			"-0.006": 5.05259329382,
			"-0.005": 5.87915981199,
			"-0.004": 18.0469931357,
			"-0.003": 26.6837837133,
			"-0.002": 26.0423174798,
			"-0.001": 24.4153944002,
			"0.0": 28.2993480672,
			"0.001": 22.9771497259,
			"0.002": 9.86619179942,
			"0.003": 5.76371144266,
			"0.004": 5.79951598254,
			"0.005": 4.14459157786,
			"0.006": 4.07170010402,
			"0.007": 4.5230846233,
			"0.008": 4.40445302233,
			"0.009": 4.11720139076,
			"0.01": 4.76144972459,
			"0.011": 6.85298482638,
			"0.012": 6.37743425432,
			"0.013": 1.3095597882,
			"0.014": 1.02916580472,
			"0.015": 0.0716431007412,
			"0.016": 0.0,
			"0.017": 0.0,
			"0.018": 0.0,
			"0.019": 0.0,
			"0.02": 0.0,
			"0.021": 0.0,
			"0.022": 0.0,
			"0.023": 0.0,
			"0.024": 0.0,
			"0.025": 0.0
		}
	}
}
