{
	 "smiles": "CN(C)C1=CC(C)=C(C=C1)N=NC1=CC=CC=C1", 
	 "Tm": 341.15, 
	 "num_atms": 35, 
	 "gaussian": { 
		 "optdone": 1, 
		 "sigma_profile": "yes", 
		 "theory": "DFT", 
		 "functional": "B3LYP", 
		 "basiset": "6-31G**", 
		 "properties": { 
			 "R2extent": 7616.6898, 
			 "electric_dipole_moment_norm": 3.98954213413, 
			 "electric_quadrupole_moment_norm": 20.7762800944, 
			 "total_energy": -746.058910292, 
			 "HOMO_LUMO_gap": 0.12062, 
			 "cosmo_polarized_energy": -10.47, 
			 "cosmo_cavitation_energy": 38.33, 
			 "cosmo_dispersion_energy": -27.56, 
			 "cosmo_repulsion_energy": 2.11, 
			 "cosmo_total_nonelectrostatic_energy": 12.88, 
			 "SMD_solvation_energy": 5.31 
		},
		"coords": [
			{
				"x": 1.5188662168,
				"y": -0.1800019304,
				"z": 4.9825452674,
				"element": "C" 
			},
			{
				"x": 2.0878395143,
				"y": 0.1479719941,
				"z": 3.6864062408,
				"element": "N" 
			},
			{
				"x": 3.3686429327,
				"y": 0.8318954123,
				"z": 3.6186745981,
				"element": "C" 
			},
			{
				"x": 1.387329697,
				"y": -0.1284939903,
				"z": 2.5308779205,
				"element": "C" 
			},
			{
				"x": 0.1228513698,
				"y": -0.7637733478,
				"z": 2.5731795235,
				"element": "C" 
			},
			{
				"x": -0.5989844032,
				"y": -1.0570718392,
				"z": 1.419874712,
				"element": "C" 
			},
			{
				"x": -1.9431890545,
				"y": -1.7369799984,
				"z": 1.5241381456,
				"element": "C" 
			},
			{
				"x": -0.0568251767,
				"y": -0.7095400375,
				"z": 0.1597070707,
				"element": "C" 
			},
			{
				"x": 1.1987004809,
				"y": -0.0749477372,
				"z": 0.107881688,
				"element": "C" 
			},
			{
				"x": 1.9100154819,
				"y": 0.2133285585,
				"z": 1.2559342038,
				"element": "C" 
			},
			{
				"x": -0.8254690191,
				"y": -1.0275797083,
				"z": -0.9694149735,
				"element": "N" 
			},
			{
				"x": -0.3191427908,
				"y": -0.706825698,
				"z": -2.0851751993,
				"element": "N" 
			},
			{
				"x": -1.1113123754,
				"y": -1.0370471104,
				"z": -3.2118362882,
				"element": "C" 
			},
			{
				"x": -2.3660825227,
				"y": -1.670729328,
				"z": -3.1589991661,
				"element": "C" 
			},
			{
				"x": -3.0520793033,
				"y": -1.9446094939,
				"z": -4.3368340564,
				"element": "C" 
			},
			{
				"x": -2.5038506551,
				"y": -1.5945162043,
				"z": -5.5774809853,
				"element": "C" 
			},
			{
				"x": -1.2586660525,
				"y": -0.9654799562,
				"z": -5.6333993551,
				"element": "C" 
			},
			{
				"x": -0.5660329018,
				"y": -0.6882860239,
				"z": -4.4560144381,
				"element": "C" 
			},
			{
				"x": 2.2208364967,
				"y": 0.1068376526,
				"z": 5.7661635648,
				"element": "H" 
			},
			{
				"x": 1.3264928215,
				"y": -1.256510257,
				"z": 5.0809012729,
				"element": "H" 
			},
			{
				"x": 0.5732478077,
				"y": 0.3496042125,
				"z": 5.1638944649,
				"element": "H" 
			},
			{
				"x": 3.7657063859,
				"y": 0.9505966232,
				"z": 4.6273161085,
				"element": "H" 
			},
			{
				"x": 3.2802095845,
				"y": 1.8309020652,
				"z": 3.169808619,
				"element": "H" 
			},
			{
				"x": 4.1028482052,
				"y": 0.2627771874,
				"z": 3.0336049895,
				"element": "H" 
			},
			{
				"x": -0.3112568768,
				"y": -1.0368873801,
				"z": 3.527412605,
				"element": "H" 
			},
			{
				"x": -1.9479172687,
				"y": -2.6903549386,
				"z": 0.9871797389,
				"element": "H" 
			},
			{
				"x": -2.2030305532,
				"y": -1.9276937257,
				"z": 2.5691769155,
				"element": "H" 
			},
			{
				"x": -2.7327778187,
				"y": -1.125232046,
				"z": 1.0774608539,
				"element": "H" 
			},
			{
				"x": 1.5969303908,
				"y": 0.1852453543,
				"z": -0.8665253337,
				"element": "H" 
			},
			{
				"x": 2.8716234269,
				"y": 0.7041592343,
				"z": 1.1699486408,
				"element": "H" 
			},
			{
				"x": -2.7754586802,
				"y": -1.9346752266,
				"z": -2.1907698,
				"element": "H" 
			},
			{
				"x": -4.0213547896,
				"y": -2.4342757833,
				"z": -4.2938165599,
				"element": "H" 
			},
			{
				"x": -3.0468664483,
				"y": -1.8123480915,
				"z": -6.4927907126,
				"element": "H" 
			},
			{
				"x": -0.8282497095,
				"y": -0.6915486935,
				"z": -6.5924340299,
				"element": "H" 
			},
			{
				"x": 0.4036055874,
				"y": -0.2003097482,
				"z": -4.4692962458,
				"element": "H" 
			}
		],
		 "valence_orbital": [ 
			{
				"type": "occ",
				"energy": -0.2433,
				"method": "rhf"
			},
			{
				"type": "occ",
				"energy": -0.24076,
				"method": "rhf"
			},
			{
				"type": "occ",
				"energy": -0.23695,
				"method": "rhf"
			},
			{
				"type": "occ",
				"energy": -0.20709,
				"method": "rhf"
			},
			{
				"type": "occ",
				"energy": -0.18443,
				"method": "rhf"
			},
			{
				"type": "unocc",
				"energy": -0.06381,
				"method": "rhf"
			},
			{
				"type": "unocc",
				"energy": 0.00814,
				"method": "rhf"
			},
			{
				"type": "unocc",
				"energy": 0.00871,
				"method": "rhf"
			},
			{
				"type": "unocc",
				"energy": 0.02601,
				"method": "rhf"
			},
			{
				"type": "unocc",
				"energy": 0.06434,
				"method": "rhf"
			}
		],
		"cosmo_sigma_profile": { 
			"-0.025": 0.0,
			"-0.024": 0.0,
			"-0.023": 0.0,
			"-0.022": 0.0,
			"-0.021": 0.0,
			"-0.02": 0.0,
			"-0.019": 0.0,
			"-0.018": 0.0,
			"-0.017": 0.0,
			"-0.016": 0.0,
			"-0.015": 0.0,
			"-0.014": 0.0,
			"-0.013": 0.0,
			"-0.012": 0.0,
			"-0.011": 0.0,
			"-0.01": 0.0,
			"-0.009": 0.0,
			"-0.008": 0.318637350364,
			"-0.007": 2.38012951483,
			"-0.006": 8.67552284333,
			"-0.005": 22.7552624485,
			"-0.004": 32.3902578149,
			"-0.003": 31.0727369203,
			"-0.002": 30.4119529571,
			"-0.001": 22.7039723421,
			"0.0": 20.3383672473,
			"0.001": 18.0971353407,
			"0.002": 16.0983488483,
			"0.003": 26.7628115012,
			"0.004": 30.1016585781,
			"0.005": 26.795063171,
			"0.006": 8.91315191402,
			"0.007": 3.47955964985,
			"0.008": 1.20808857681,
			"0.009": 1.66777086475,
			"0.01": 0.546954808692,
			"0.011": 0.0,
			"0.012": 0.0,
			"0.013": 0.0,
			"0.014": 0.0,
			"0.015": 0.0,
			"0.016": 0.0,
			"0.017": 0.0,
			"0.018": 0.0,
			"0.019": 0.0,
			"0.02": 0.0,
			"0.021": 0.0,
			"0.022": 0.0,
			"0.023": 0.0,
			"0.024": 0.0,
			"0.025": 0.0
		}
	}
}
