{
	 "smiles": "CCC1=C(C=C(C=C1)C(O)=O)S(=O)(=O)N1CCOCC1", 
	 "Tm": 433.15, 
	 "num_atms": 37, 
	 "gaussian": { 
		 "optdone": 1, 
		 "sigma_profile": "yes", 
		 "theory": "DFT", 
		 "functional": "B3LYP", 
		 "basiset": "6-31G**", 
		 "properties": { 
			 "R2extent": 6473.2539, 
			 "electric_dipole_moment_norm": 3.67035152131, 
			 "electric_quadrupole_moment_norm": 27.029271732, 
			 "total_energy": -1334.61381093, 
			 "HOMO_LUMO_gap": 0.18803, 
			 "cosmo_polarized_energy": -22.77, 
			 "cosmo_cavitation_energy": 40.1, 
			 "cosmo_dispersion_energy": -28.41, 
			 "cosmo_repulsion_energy": 2.12, 
			 "cosmo_total_nonelectrostatic_energy": 13.8, 
			 "SMD_solvation_energy": 6.9 
		},
		"coords": [
			{
				"x": 3.4958040377,
				"y": 3.4166158954,
				"z": 0.0456991247,
				"element": "C" 
			},
			{
				"x": 2.7686784799,
				"y": 2.1067615121,
				"z": 0.3560065563,
				"element": "C" 
			},
			{
				"x": 1.3271773448,
				"y": 2.0120880452,
				"z": -0.110513398,
				"element": "C" 
			},
			{
				"x": 0.5211489769,
				"y": 0.8820530327,
				"z": 0.1745843555,
				"element": "C" 
			},
			{
				"x": -0.8030428151,
				"y": 0.80699482,
				"z": -0.2351178696,
				"element": "C" 
			},
			{
				"x": -1.3867739546,
				"y": 1.8569484671,
				"z": -0.954921524,
				"element": "C" 
			},
			{
				"x": -0.6040419116,
				"y": 2.9711234545,
				"z": -1.2657012359,
				"element": "C" 
			},
			{
				"x": 0.7238307856,
				"y": 3.0411463152,
				"z": -0.8436063468,
				"element": "C" 
			},
			{
				"x": -2.8136597843,
				"y": 1.6846749888,
				"z": -1.3791854667,
				"element": "C" 
			},
			{
				"x": -3.4894637793,
				"y": 2.8074221551,
				"z": -1.7374354179,
				"element": "O" 
			},
			{
				"x": -3.3658950239,
				"y": 0.609516367,
				"z": -1.4134786997,
				"element": "O" 
			},
			{
				"x": 1.2368306908,
				"y": -0.4967023853,
				"z": 1.1087960044,
				"element": "S" 
			},
			{
				"x": 2.3824407667,
				"y": -0.9958063946,
				"z": 0.3348330635,
				"element": "O" 
			},
			{
				"x": 1.4175545651,
				"y": -0.0581677444,
				"z": 2.4987660792,
				"element": "O" 
			},
			{
				"x": 0.0081808702,
				"y": -1.6543475098,
				"z": 1.1005434268,
				"element": "N" 
			},
			{
				"x": -0.3847663102,
				"y": -2.2213952865,
				"z": 2.4068611152,
				"element": "C" 
			},
			{
				"x": -1.7187448792,
				"y": -2.9434791966,
				"z": 2.2226053838,
				"element": "C" 
			},
			{
				"x": -1.6342045707,
				"y": -3.9408515466,
				"z": 1.2153507891,
				"element": "O" 
			},
			{
				"x": -1.2856073986,
				"y": -3.3726203542,
				"z": -0.0383563027,
				"element": "C" 
			},
			{
				"x": 0.0698780032,
				"y": -2.6672658419,
				"z": 0.0270617417,
				"element": "C" 
			},
			{
				"x": 4.51236893,
				"y": 3.3735910069,
				"z": 0.4462695308,
				"element": "H" 
			},
			{
				"x": 2.9993655702,
				"y": 4.2805238418,
				"z": 0.5002359019,
				"element": "H" 
			},
			{
				"x": 3.5769865666,
				"y": 3.5974549933,
				"z": -1.0313340424,
				"element": "H" 
			},
			{
				"x": 3.3204023488,
				"y": 1.2649336883,
				"z": -0.0769854158,
				"element": "H" 
			},
			{
				"x": 2.7839520763,
				"y": 1.9278823923,
				"z": 1.4377689832,
				"element": "H" 
			},
			{
				"x": -1.4027302352,
				"y": -0.061601923,
				"z": 0.002084081,
				"element": "H" 
			},
			{
				"x": -1.0002182087,
				"y": 3.7861352751,
				"z": -1.8671981581,
				"element": "H" 
			},
			{
				"x": 1.3057827834,
				"y": 3.91891547,
				"z": -1.0986817448,
				"element": "H" 
			},
			{
				"x": -2.9806481642,
				"y": 3.5965788071,
				"z": -1.5060200002,
				"element": "H" 
			},
			{
				"x": 0.3720203222,
				"y": -2.9318848563,
				"z": 2.7684370223,
				"element": "H" 
			},
			{
				"x": -0.4758157788,
				"y": -1.4144686726,
				"z": 3.1349739521,
				"element": "H" 
			},
			{
				"x": -1.9964069896,
				"y": -3.4548697559,
				"z": 3.1486801478,
				"element": "H" 
			},
			{
				"x": -2.504547131,
				"y": -2.2124151618,
				"z": 1.9730749493,
				"element": "H" 
			},
			{
				"x": -2.0605161872,
				"y": -2.6613861535,
				"z": -0.366873807,
				"element": "H" 
			},
			{
				"x": -1.2416229338,
				"y": -4.1968613512,
				"z": -0.7557535311,
				"element": "H" 
			},
			{
				"x": 0.8677485021,
				"y": -3.3952661672,
				"z": 0.2244105882,
				"element": "H" 
			},
			{
				"x": 0.2847544355,
				"y": -2.1769702265,
				"z": -0.925379836,
				"element": "H" 
			}
		],
		 "valence_orbital": [ 
			{
				"type": "occ",
				"energy": -0.28611,
				"method": "rhf"
			},
			{
				"type": "occ",
				"energy": -0.28012,
				"method": "rhf"
			},
			{
				"type": "occ",
				"energy": -0.27824,
				"method": "rhf"
			},
			{
				"type": "occ",
				"energy": -0.27008,
				"method": "rhf"
			},
			{
				"type": "occ",
				"energy": -0.25382,
				"method": "rhf"
			},
			{
				"type": "unocc",
				"energy": -0.06579,
				"method": "rhf"
			},
			{
				"type": "unocc",
				"energy": -0.04112,
				"method": "rhf"
			},
			{
				"type": "unocc",
				"energy": 0.02736,
				"method": "rhf"
			},
			{
				"type": "unocc",
				"energy": 0.04552,
				"method": "rhf"
			},
			{
				"type": "unocc",
				"energy": 0.05116,
				"method": "rhf"
			}
		],
		"cosmo_sigma_profile": { 
			"-0.025": 0.0,
			"-0.024": 0.0,
			"-0.023": 0.0,
			"-0.022": 0.0,
			"-0.021": 0.0,
			"-0.02": 0.0164971602462,
			"-0.019": 0.664113597,
			"-0.018": 0.84957200244,
			"-0.017": 0.949485207016,
			"-0.016": 1.39757891457,
			"-0.015": 1.12005356522,
			"-0.014": 0.707234820627,
			"-0.013": 1.03664833155,
			"-0.012": 1.37452951923,
			"-0.011": 0.887031044461,
			"-0.01": 1.5965229242,
			"-0.009": 1.15702837684,
			"-0.008": 2.49555244257,
			"-0.007": 5.25620903603,
			"-0.006": 15.1818836564,
			"-0.005": 25.7937738864,
			"-0.004": 32.8155376837,
			"-0.003": 31.1532683474,
			"-0.002": 30.0150323535,
			"-0.001": 22.4330494724,
			"0.0": 19.000090242,
			"0.001": 22.7501303687,
			"0.002": 12.2041526696,
			"0.003": 7.36640526598,
			"0.004": 6.96499777111,
			"0.005": 5.78232679404,
			"0.006": 6.50709780548,
			"0.007": 7.24489993591,
			"0.008": 7.79616165261,
			"0.009": 7.96384441789,
			"0.01": 14.4089185889,
			"0.011": 12.7395121341,
			"0.012": 6.37366384698,
			"0.013": 2.22140581499,
			"0.014": 0.0,
			"0.015": 0.0,
			"0.016": 0.0,
			"0.017": 0.0,
			"0.018": 0.0,
			"0.019": 0.0,
			"0.02": 0.0,
			"0.021": 0.0,
			"0.022": 0.0,
			"0.023": 0.0,
			"0.024": 0.0,
			"0.025": 0.0
		}
	}
}
