{
	 "smiles": "NC1=CC=CC=C1C(=O)C1=CC=CC=C1", 
	 "Tm": 380.15, 
	 "num_atms": 26, 
	 "gaussian": { 
		 "optdone": 1, 
		 "sigma_profile": "yes", 
		 "theory": "DFT", 
		 "functional": "B3LYP", 
		 "basiset": "6-31G**", 
		 "properties": { 
			 "R2extent": 3664.3784, 
			 "electric_dipole_moment_norm": 1.40009663595, 
			 "electric_quadrupole_moment_norm": 12.8345216198, 
			 "total_energy": -632.000623022, 
			 "HOMO_LUMO_gap": 0.14577, 
			 "cosmo_polarized_energy": -9.75, 
			 "cosmo_cavitation_energy": 29.54, 
			 "cosmo_dispersion_energy": -21.91, 
			 "cosmo_repulsion_energy": 1.7, 
			 "cosmo_total_nonelectrostatic_energy": 9.33, 
			 "SMD_solvation_energy": 5.16 
		},
		"coords": [
			{
				"x": 0.5830063323,
				"y": -1.3384812556,
				"z": -3.6462883785,
				"element": "N" 
			},
			{
				"x": 1.195654022,
				"y": -1.3620820837,
				"z": -2.4276922225,
				"element": "C" 
			},
			{
				"x": 2.3565242774,
				"y": -2.1478245208,
				"z": -2.2379872695,
				"element": "C" 
			},
			{
				"x": 3.0046634056,
				"y": -2.1877218657,
				"z": -1.0159160111,
				"element": "C" 
			},
			{
				"x": 2.5267351468,
				"y": -1.444574167,
				"z": 0.0741101671,
				"element": "C" 
			},
			{
				"x": 1.3758332879,
				"y": -0.6895474054,
				"z": -0.0851270415,
				"element": "C" 
			},
			{
				"x": 0.6710829586,
				"y": -0.6375547607,
				"z": -1.3079378153,
				"element": "C" 
			},
			{
				"x": -0.5396943579,
				"y": 0.1966400262,
				"z": -1.4591178554,
				"element": "C" 
			},
			{
				"x": -0.967486873,
				"y": 0.5355057055,
				"z": -2.5723001426,
				"element": "O" 
			},
			{
				"x": -1.307485912,
				"y": 0.6679522235,
				"z": -0.2534408595,
				"element": "C" 
			},
			{
				"x": -1.8947261057,
				"y": 1.9416361761,
				"z": -0.3087046683,
				"element": "C" 
			},
			{
				"x": -2.6737679335,
				"y": 2.4078708232,
				"z": 0.7468173722,
				"element": "C" 
			},
			{
				"x": -2.9043268797,
				"y": 1.5937057749,
				"z": 1.8595846869,
				"element": "C" 
			},
			{
				"x": -2.3514223931,
				"y": 0.3132420887,
				"z": 1.9100746376,
				"element": "C" 
			},
			{
				"x": -1.551263629,
				"y": -0.1466069853,
				"z": 0.8630070233,
				"element": "C" 
			},
			{
				"x": -0.0967927857,
				"y": -0.6020658515,
				"z": -3.7955073124,
				"element": "H" 
			},
			{
				"x": 1.0630765692,
				"y": -1.7420752439,
				"z": -4.4340711777,
				"element": "H" 
			},
			{
				"x": 2.7441180845,
				"y": -2.7138237281,
				"z": -3.0815831752,
				"element": "H" 
			},
			{
				"x": 3.9014362148,
				"y": -2.7924824549,
				"z": -0.9099461958,
				"element": "H" 
			},
			{
				"x": 3.0508532376,
				"y": -1.455603373,
				"z": 1.0239261002,
				"element": "H" 
			},
			{
				"x": 1.0125198294,
				"y": -0.0960209454,
				"z": 0.7458368684,
				"element": "H" 
			},
			{
				"x": -1.7312340801,
				"y": 2.5507621818,
				"z": -1.1915657652,
				"element": "H" 
			},
			{
				"x": -3.1091153546,
				"y": 3.4019744143,
				"z": 0.7002925448,
				"element": "H" 
			},
			{
				"x": -3.5192770651,
				"y": 1.9535980599,
				"z": 2.6796289289,
				"element": "H" 
			},
			{
				"x": -2.5451383064,
				"y": -0.330946452,
				"z": 2.7629319496,
				"element": "H" 
			},
			{
				"x": -1.1365716904,
				"y": -1.1485763812,
				"z": 0.9008756112,
				"element": "H" 
			}
		],
		 "valence_orbital": [ 
			{
				"type": "occ",
				"energy": -0.2595,
				"method": "rhf"
			},
			{
				"type": "occ",
				"energy": -0.25545,
				"method": "rhf"
			},
			{
				"type": "occ",
				"energy": -0.25252,
				"method": "rhf"
			},
			{
				"type": "occ",
				"energy": -0.24147,
				"method": "rhf"
			},
			{
				"type": "occ",
				"energy": -0.20202,
				"method": "rhf"
			},
			{
				"type": "unocc",
				"energy": -0.05625,
				"method": "rhf"
			},
			{
				"type": "unocc",
				"energy": -0.00997,
				"method": "rhf"
			},
			{
				"type": "unocc",
				"energy": -0.00342,
				"method": "rhf"
			},
			{
				"type": "unocc",
				"energy": 0.01548,
				"method": "rhf"
			},
			{
				"type": "unocc",
				"energy": 0.05971,
				"method": "rhf"
			}
		],
		"cosmo_sigma_profile": { 
			"-0.025": 0.0,
			"-0.024": 0.0,
			"-0.023": 0.0,
			"-0.022": 0.0,
			"-0.021": 0.0,
			"-0.02": 0.0,
			"-0.019": 0.0,
			"-0.018": 0.0,
			"-0.017": 0.0,
			"-0.016": 0.0,
			"-0.015": 0.0,
			"-0.014": 0.0230597132414,
			"-0.013": 1.4423095749,
			"-0.012": 0.966736256017,
			"-0.011": 1.43133563943,
			"-0.01": 1.73534590423,
			"-0.009": 1.36961481763,
			"-0.008": 2.1884258272,
			"-0.007": 2.87449925596,
			"-0.006": 12.0911387269,
			"-0.005": 17.4014443103,
			"-0.004": 20.9245764056,
			"-0.003": 17.4111985774,
			"-0.002": 16.6816172971,
			"-0.001": 15.8572100657,
			"0.0": 14.0601079721,
			"0.001": 12.8073834588,
			"0.002": 17.0175127388,
			"0.003": 20.7527813352,
			"0.004": 22.1150173948,
			"0.005": 17.4370510997,
			"0.006": 6.16756835184,
			"0.007": 2.43383013276,
			"0.008": 2.25438262033,
			"0.009": 2.68331245228,
			"0.01": 1.97546214461,
			"0.011": 2.1058438729,
			"0.012": 1.43933276502,
			"0.013": 1.14278013097,
			"0.014": 0.0512416163244,
			"0.015": 0.0,
			"0.016": 0.0,
			"0.017": 0.0,
			"0.018": 0.0,
			"0.019": 0.0,
			"0.02": 0.0,
			"0.021": 0.0,
			"0.022": 0.0,
			"0.023": 0.0,
			"0.024": 0.0,
			"0.025": 0.0
		}
	}
}
