{
	 "smiles": "CC1=CC2=C(C(Cl)=C(S2)C(O)=O)C(C)=C1", 
	 "Tm": 560.15, 
	 "num_atms": 24, 
	 "gaussian": { 
		 "optdone": 1, 
		 "sigma_profile": "yes", 
		 "theory": "DFT", 
		 "functional": "B3LYP", 
		 "basiset": "6-31G**", 
		 "properties": { 
			 "R2extent": 4721.276, 
			 "electric_dipole_moment_norm": 6.20937517307, 
			 "electric_quadrupole_moment_norm": 25.9296688053, 
			 "total_energy": -1433.44163449, 
			 "HOMO_LUMO_gap": 0.15873, 
			 "cosmo_polarized_energy": -11.72, 
			 "cosmo_cavitation_energy": 30.64, 
			 "cosmo_dispersion_energy": -23.34, 
			 "cosmo_repulsion_energy": 1.74, 
			 "cosmo_total_nonelectrostatic_energy": 9.04, 
			 "SMD_solvation_energy": 5.69 
		},
		"coords": [
			{
				"x": 1.6021378784,
				"y": -2.6672026009,
				"z": -2.9939364621,
				"element": "C" 
			},
			{
				"x": 0.897010639,
				"y": -1.9282641669,
				"z": -1.8830576463,
				"element": "C" 
			},
			{
				"x": -0.4715118539,
				"y": -1.7045093182,
				"z": -1.9199098264,
				"element": "C" 
			},
			{
				"x": -1.0743467619,
				"y": -1.013009072,
				"z": -0.8625447261,
				"element": "C" 
			},
			{
				"x": -0.3364190661,
				"y": -0.5301294953,
				"z": 0.2501952721,
				"element": "C" 
			},
			{
				"x": -1.2346886075,
				"y": 0.1346988776,
				"z": 1.1634123324,
				"element": "C" 
			},
			{
				"x": -0.6931557719,
				"y": 0.8689381013,
				"z": 2.6677222701,
				"element": "Cl" 
			},
			{
				"x": -2.5527386242,
				"y": 0.1571816742,
				"z": 0.7780756814,
				"element": "C" 
			},
			{
				"x": -2.7790200508,
				"y": -0.6513872339,
				"z": -0.7585911831,
				"element": "S" 
			},
			{
				"x": -3.8031849067,
				"y": 0.7078464331,
				"z": 1.3709852346,
				"element": "C" 
			},
			{
				"x": -3.7366965955,
				"y": 1.3498663969,
				"z": 2.5522706463,
				"element": "O" 
			},
			{
				"x": -4.8626696403,
				"y": 0.5783261782,
				"z": 0.7961955104,
				"element": "O" 
			},
			{
				"x": 1.0707170205,
				"y": -0.7594434242,
				"z": 0.2896872212,
				"element": "C" 
			},
			{
				"x": 1.9686261038,
				"y": -0.2984128028,
				"z": 1.4145432587,
				"element": "C" 
			},
			{
				"x": 1.6340195829,
				"y": -1.4485658196,
				"z": -0.7762307926,
				"element": "C" 
			},
			{
				"x": 2.372600405,
				"y": -2.0409894415,
				"z": -3.4583020606,
				"element": "H" 
			},
			{
				"x": 2.1039481941,
				"y": -3.5650127866,
				"z": -2.6151705157,
				"element": "H" 
			},
			{
				"x": 0.9042721725,
				"y": -2.9767835119,
				"z": -3.7760346097,
				"element": "H" 
			},
			{
				"x": -1.0695763738,
				"y": -2.0587357075,
				"z": -2.7544746563,
				"element": "H" 
			},
			{
				"x": -2.826465709,
				"y": 1.3751537394,
				"z": 2.8907452475,
				"element": "H" 
			},
			{
				"x": 1.9510958506,
				"y": 0.7890359657,
				"z": 1.5346370838,
				"element": "H" 
			},
			{
				"x": 3.000357124,
				"y": -0.5956379561,
				"z": 1.2110508936,
				"element": "H" 
			},
			{
				"x": 1.6785737715,
				"y": -0.7328327889,
				"z": 2.3759884246,
				"element": "H" 
			},
			{
				"x": 2.7061152194,
				"y": -1.62963124,
				"z": -0.7576565978,
				"element": "H" 
			}
		],
		 "valence_orbital": [ 
			{
				"type": "occ",
				"energy": -0.31113,
				"method": "rhf"
			},
			{
				"type": "occ",
				"energy": -0.28995,
				"method": "rhf"
			},
			{
				"type": "occ",
				"energy": -0.27993,
				"method": "rhf"
			},
			{
				"type": "occ",
				"energy": -0.25072,
				"method": "rhf"
			},
			{
				"type": "occ",
				"energy": -0.23076,
				"method": "rhf"
			},
			{
				"type": "unocc",
				"energy": -0.07203,
				"method": "rhf"
			},
			{
				"type": "unocc",
				"energy": -0.01754,
				"method": "rhf"
			},
			{
				"type": "unocc",
				"energy": -0.01268,
				"method": "rhf"
			},
			{
				"type": "unocc",
				"energy": 0.00423,
				"method": "rhf"
			},
			{
				"type": "unocc",
				"energy": 0.02926,
				"method": "rhf"
			}
		],
		"cosmo_sigma_profile": { 
			"-0.025": 0.0,
			"-0.024": 0.0,
			"-0.023": 0.0,
			"-0.022": 0.0,
			"-0.021": 0.0,
			"-0.02": 0.0,
			"-0.019": 0.0,
			"-0.018": 0.0,
			"-0.017": 0.0,
			"-0.016": 0.0,
			"-0.015": 0.0,
			"-0.014": 0.0,
			"-0.013": 0.18747921175,
			"-0.012": 0.851363232,
			"-0.011": 0.404242329909,
			"-0.01": 1.68312981772,
			"-0.009": 1.93146156243,
			"-0.008": 2.45095495263,
			"-0.007": 4.23640565064,
			"-0.006": 6.34124358994,
			"-0.005": 12.2339556011,
			"-0.004": 20.3427502979,
			"-0.003": 23.0680995258,
			"-0.002": 21.5121979965,
			"-0.001": 29.3776415801,
			"0.0": 29.8244662575,
			"0.001": 18.3833627299,
			"0.002": 18.271285823,
			"0.003": 17.3436691674,
			"0.004": 10.8515147973,
			"0.005": 2.428797242,
			"0.006": 3.15127593795,
			"0.007": 2.66988847064,
			"0.008": 3.27947544682,
			"0.009": 3.71614460169,
			"0.01": 5.05836154176,
			"0.011": 5.38051250428,
			"0.012": 3.05474114676,
			"0.013": 0.993180647694,
			"0.014": 0.0,
			"0.015": 0.0,
			"0.016": 0.0,
			"0.017": 0.0,
			"0.018": 0.0,
			"0.019": 0.0,
			"0.02": 0.0,
			"0.021": 0.0,
			"0.022": 0.0,
			"0.023": 0.0,
			"0.024": 0.0,
			"0.025": 0.0
		}
	}
}
