{
	 "smiles": "OC1=C(Br)C=NC=N1", 
	 "Tm": 467.15, 
	 "num_atms": 11, 
	 "gaussian": { 
		 "optdone": 1, 
		 "sigma_profile": "yes", 
		 "theory": "DFT", 
		 "functional": "B3LYP", 
		 "basiset": "6-31G**", 
		 "properties": { 
			 "R2extent": 1421.5944, 
			 "electric_dipole_moment_norm": 2.1836040163, 
			 "electric_quadrupole_moment_norm": 5.29681728682, 
			 "total_energy": -2910.35432701, 
			 "HOMO_LUMO_gap": 0.21907, 
			 "cosmo_polarized_energy": -9.33, 
			 "cosmo_cavitation_energy": 17.86, 
			 "cosmo_dispersion_energy": -14.17, 
			 "cosmo_repulsion_energy": 1.16, 
			 "cosmo_total_nonelectrostatic_energy": 4.85, 
			 "SMD_solvation_energy": -0.31 
		},
		"coords": [
			{
				"x": 2.1537313761,
				"y": -0.894422904,
				"z": -0.6716956953,
				"element": "O" 
			},
			{
				"x": 1.1376605902,
				"y": -0.5588647799,
				"z": 0.1313236258,
				"element": "C" 
			},
			{
				"x": -0.1102898609,
				"y": -0.1081435631,
				"z": -0.341918276,
				"element": "C" 
			},
			{
				"x": -0.4316179001,
				"y": 0.0542267412,
				"z": -2.2171181582,
				"element": "Br" 
			},
			{
				"x": -1.0817145549,
				"y": 0.2082053381,
				"z": 0.5947200897,
				"element": "C" 
			},
			{
				"x": -0.8598001596,
				"y": 0.0954055164,
				"z": 1.911352146,
				"element": "N" 
			},
			{
				"x": 0.3557870113,
				"y": -0.3406799326,
				"z": 2.2532812904,
				"element": "C" 
			},
			{
				"x": 1.3596044477,
				"y": -0.6714774611,
				"z": 1.4387205046,
				"element": "N" 
			},
			{
				"x": 1.8788992158,
				"y": -0.7734789551,
				"z": -1.5956123376,
				"element": "H" 
			},
			{
				"x": -2.0604453496,
				"y": 0.5602782628,
				"z": 0.2777400006,
				"element": "H" 
			},
			{
				"x": 0.5541851841,
				"y": -0.4382482626,
				"z": 3.3184068099,
				"element": "H" 
			}
		],
		 "valence_orbital": [ 
			{
				"type": "occ",
				"energy": -0.32994,
				"method": "rhf"
			},
			{
				"type": "occ",
				"energy": -0.31642,
				"method": "rhf"
			},
			{
				"type": "occ",
				"energy": -0.3078,
				"method": "rhf"
			},
			{
				"type": "occ",
				"energy": -0.26911,
				"method": "rhf"
			},
			{
				"type": "occ",
				"energy": -0.26735,
				"method": "rhf"
			},
			{
				"type": "unocc",
				"energy": -0.04828,
				"method": "rhf"
			},
			{
				"type": "unocc",
				"energy": -0.03301,
				"method": "rhf"
			},
			{
				"type": "unocc",
				"energy": -0.01988,
				"method": "rhf"
			},
			{
				"type": "unocc",
				"energy": 0.07222,
				"method": "rhf"
			},
			{
				"type": "unocc",
				"energy": 0.11924,
				"method": "rhf"
			}
		],
		"cosmo_sigma_profile": { 
			"-0.025": 0.0,
			"-0.024": 0.0,
			"-0.023": 0.0,
			"-0.022": 0.0,
			"-0.021": 0.0,
			"-0.02": 0.0,
			"-0.019": 0.0,
			"-0.018": 0.0,
			"-0.017": 0.17168407804,
			"-0.016": 0.497438041652,
			"-0.015": 0.428895017351,
			"-0.014": 0.933271965459,
			"-0.013": 0.68450620613,
			"-0.012": 1.1868909882,
			"-0.011": 1.04990939924,
			"-0.01": 0.961608563586,
			"-0.009": 2.54716358914,
			"-0.008": 4.76806791585,
			"-0.007": 4.4480203734,
			"-0.006": 5.8135309342,
			"-0.005": 6.71376044443,
			"-0.004": 8.49492048627,
			"-0.003": 10.3333806753,
			"-0.002": 14.1232214266,
			"-0.001": 13.6438764576,
			"0.0": 9.6140018846,
			"0.001": 8.40169666585,
			"0.002": 10.6927526145,
			"0.003": 8.7790418626,
			"0.004": 3.56060095771,
			"0.005": 3.82149153096,
			"0.006": 2.76758277114,
			"0.007": 2.80524589173,
			"0.008": 3.81132612173,
			"0.009": 4.01113352241,
			"0.01": 4.1991935589,
			"0.011": 2.25516864311,
			"0.012": 1.92888247686,
			"0.013": 1.66702461254,
			"0.014": 1.98344808645,
			"0.015": 0.500962465125,
			"0.016": 0.00427143334426,
			"0.017": 0.0,
			"0.018": 0.0,
			"0.019": 0.0,
			"0.02": 0.0,
			"0.021": 0.0,
			"0.022": 0.0,
			"0.023": 0.0,
			"0.024": 0.0,
			"0.025": 0.0
		}
	}
}
