{
	 "smiles": "CC1(CC(C1)C(=N/OCC1CO1)C1=CC2=C(O1)C=CC=C2)C1=CC=CC=C1", 
	 "Tm": 433.15, 
	 "num_atms": 50, 
	 "gaussian": { 
		 "optdone": 1, 
		 "sigma_profile": "yes", 
		 "theory": "DFT", 
		 "functional": "B3LYP", 
		 "basiset": "6-31G**", 
		 "properties": { 
			 "R2extent": 12796.1732, 
			 "electric_dipole_moment_norm": 1.77984085244, 
			 "electric_quadrupole_moment_norm": 13.9013475253, 
			 "total_energy": -1170.59698108, 
			 "HOMO_LUMO_gap": 0.16084, 
			 "cosmo_polarized_energy": -12.15, 
			 "cosmo_cavitation_energy": 53.41, 
			 "cosmo_dispersion_energy": -35.66, 
			 "cosmo_repulsion_energy": 2.73, 
			 "cosmo_total_nonelectrostatic_energy": 20.49, 
			 "SMD_solvation_energy": 8.42 
		},
		"coords": [
			{
				"x": 0.6976822236,
				"y": 3.3827506121,
				"z": -0.1105998698,
				"element": "C" 
			},
			{
				"x": 0.7519524118,
				"y": 1.9400934302,
				"z": -0.6470685775,
				"element": "C" 
			},
			{
				"x": 0.7382753882,
				"y": 0.8906108149,
				"z": 0.5089861127,
				"element": "C" 
			},
			{
				"x": -0.8027789848,
				"y": 0.7693296527,
				"z": 0.3514436968,
				"element": "C" 
			},
			{
				"x": -0.6639213063,
				"y": 1.4240538072,
				"z": -1.0564501693,
				"element": "C" 
			},
			{
				"x": -1.482214581,
				"y": -0.575972575,
				"z": 0.4600712257,
				"element": "C" 
			},
			{
				"x": -2.6401588844,
				"y": -0.8582489668,
				"z": -0.0407297396,
				"element": "N" 
			},
			{
				"x": -3.1999142642,
				"y": 0.2372714802,
				"z": -0.7061187965,
				"element": "O" 
			},
			{
				"x": -4.4458170455,
				"y": -0.1504604413,
				"z": -1.2896914733,
				"element": "C" 
			},
			{
				"x": -4.2535266855,
				"y": -0.9660517214,
				"z": -2.5484999568,
				"element": "C" 
			},
			{
				"x": -4.3641994986,
				"y": -2.4296920894,
				"z": -2.5363109399,
				"element": "C" 
			},
			{
				"x": -5.4352746627,
				"y": -1.6140468555,
				"z": -3.0329643978,
				"element": "O" 
			},
			{
				"x": -0.8669436493,
				"y": -1.6899867761,
				"z": 1.1850879217,
				"element": "C" 
			},
			{
				"x": -1.0552746966,
				"y": -3.0408975877,
				"z": 1.1136180583,
				"element": "C" 
			},
			{
				"x": -0.1975648167,
				"y": -3.6288430873,
				"z": 2.104680361,
				"element": "C" 
			},
			{
				"x": 0.4660545801,
				"y": -2.5463216487,
				"z": 2.7161235352,
				"element": "C" 
			},
			{
				"x": 0.0605187565,
				"y": -1.365679151,
				"z": 2.1573969943,
				"element": "O" 
			},
			{
				"x": 1.3972125488,
				"y": -2.6879555822,
				"z": 3.7378288846,
				"element": "C" 
			},
			{
				"x": 1.6645567261,
				"y": -3.9909285694,
				"z": 4.1559837305,
				"element": "C" 
			},
			{
				"x": 1.0200778836,
				"y": -5.0959969583,
				"z": 3.5657366201,
				"element": "C" 
			},
			{
				"x": 0.0913662988,
				"y": -4.9322759496,
				"z": 2.5431166719,
				"element": "C" 
			},
			{
				"x": 1.8574082337,
				"y": 1.8155256194,
				"z": -1.6793045974,
				"element": "C" 
			},
			{
				"x": 1.6104463534,
				"y": 2.0884330669,
				"z": -3.0322088682,
				"element": "C" 
			},
			{
				"x": 2.6332399121,
				"y": 2.0144830633,
				"z": -3.9789252732,
				"element": "C" 
			},
			{
				"x": 3.9274374057,
				"y": 1.6666755298,
				"z": -3.587880951,
				"element": "C" 
			},
			{
				"x": 4.1884638221,
				"y": 1.395585439,
				"z": -2.2436859914,
				"element": "C" 
			},
			{
				"x": 3.1623306482,
				"y": 1.4707376884,
				"z": -1.3004470126,
				"element": "C" 
			},
			{
				"x": 0.5064588967,
				"y": 4.0917950189,
				"z": -0.9230825722,
				"element": "H" 
			},
			{
				"x": 1.6488783698,
				"y": 3.6580074386,
				"z": 0.3573440797,
				"element": "H" 
			},
			{
				"x": -0.0945966519,
				"y": 3.5034316331,
				"z": 0.6370714558,
				"element": "H" 
			},
			{
				"x": 1.1170301525,
				"y": 1.2025742415,
				"z": 1.4857715067,
				"element": "H" 
			},
			{
				"x": 1.2473456961,
				"y": -0.0301748376,
				"z": 0.2147139407,
				"element": "H" 
			},
			{
				"x": -1.3184289095,
				"y": 1.460669049,
				"z": 1.0285292362,
				"element": "H" 
			},
			{
				"x": -0.6080830947,
				"y": 0.6691007688,
				"z": -1.8452233062,
				"element": "H" 
			},
			{
				"x": -1.4171604188,
				"y": 2.166243901,
				"z": -1.3294109834,
				"element": "H" 
			},
			{
				"x": -4.9476229201,
				"y": 0.7940156087,
				"z": -1.5227610101,
				"element": "H" 
			},
			{
				"x": -5.0514588088,
				"y": -0.7063852126,
				"z": -0.5662648233,
				"element": "H" 
			},
			{
				"x": -3.6383947099,
				"y": -0.4947049696,
				"z": -3.3177579116,
				"element": "H" 
			},
			{
				"x": -3.8374013887,
				"y": -3.0164459115,
				"z": -3.2884609951,
				"element": "H" 
			},
			{
				"x": -4.5594127135,
				"y": -2.9390858085,
				"z": -1.5935231271,
				"element": "H" 
			},
			{
				"x": -1.7244603575,
				"y": -3.5410069707,
				"z": 0.4300737878,
				"element": "H" 
			},
			{
				"x": 1.8847635428,
				"y": -1.8266088451,
				"z": 4.1812679205,
				"element": "H" 
			},
			{
				"x": 2.3840564105,
				"y": -4.156510236,
				"z": 4.9520772254,
				"element": "H" 
			},
			{
				"x": 1.2555683938,
				"y": -6.0953704744,
				"z": 3.9194439878,
				"element": "H" 
			},
			{
				"x": -0.4003868812,
				"y": -5.7907579438,
				"z": 2.0956162919,
				"element": "H" 
			},
			{
				"x": 0.6062362425,
				"y": 2.3587369976,
				"z": -3.3492294029,
				"element": "H" 
			},
			{
				"x": 2.4181108779,
				"y": 2.22597389,
				"z": -5.0228827232,
				"element": "H" 
			},
			{
				"x": 4.7240402398,
				"y": 1.6051281419,
				"z": -4.3237802645,
				"element": "H" 
			},
			{
				"x": 5.1916584968,
				"y": 1.1219742494,
				"z": -1.928178116,
				"element": "H" 
			},
			{
				"x": 3.3780254184,
				"y": 1.2550080267,
				"z": -0.257041395,
				"element": "H" 
			}
		],
		 "valence_orbital": [ 
			{
				"type": "occ",
				"energy": -0.261,
				"method": "rhf"
			},
			{
				"type": "occ",
				"energy": -0.24598,
				"method": "rhf"
			},
			{
				"type": "occ",
				"energy": -0.23914,
				"method": "rhf"
			},
			{
				"type": "occ",
				"energy": -0.23622,
				"method": "rhf"
			},
			{
				"type": "occ",
				"energy": -0.20987,
				"method": "rhf"
			},
			{
				"type": "unocc",
				"energy": -0.04903,
				"method": "rhf"
			},
			{
				"type": "unocc",
				"energy": 0.00176,
				"method": "rhf"
			},
			{
				"type": "unocc",
				"energy": 0.00313,
				"method": "rhf"
			},
			{
				"type": "unocc",
				"energy": 0.00546,
				"method": "rhf"
			},
			{
				"type": "unocc",
				"energy": 0.01683,
				"method": "rhf"
			}
		],
		"cosmo_sigma_profile": { 
			"-0.025": 0.0,
			"-0.024": 0.0,
			"-0.023": 0.0,
			"-0.022": 0.0,
			"-0.021": 0.0,
			"-0.02": 0.0,
			"-0.019": 0.0,
			"-0.018": 0.0,
			"-0.017": 0.0,
			"-0.016": 0.0,
			"-0.015": 0.0,
			"-0.014": 0.0,
			"-0.013": 0.0,
			"-0.012": 0.0,
			"-0.011": 0.0,
			"-0.01": 0.0,
			"-0.009": 0.0,
			"-0.008": 0.134947461862,
			"-0.007": 4.22979100726,
			"-0.006": 17.7813700408,
			"-0.005": 32.7425567208,
			"-0.004": 36.2164261254,
			"-0.003": 43.6621256335,
			"-0.002": 41.9475609086,
			"-0.001": 35.5576023829,
			"0.0": 31.5128121302,
			"0.001": 31.9151680104,
			"0.002": 29.7656167878,
			"0.003": 28.2827507013,
			"0.004": 27.7338277765,
			"0.005": 23.8537545462,
			"0.006": 15.5172783024,
			"0.007": 8.21247026161,
			"0.008": 3.00669123802,
			"0.009": 2.26071147779,
			"0.01": 3.01075242777,
			"0.011": 3.5085984679,
			"0.012": 2.3190718867,
			"0.013": 0.250002282104,
			"0.014": 0.0,
			"0.015": 0.0,
			"0.016": 0.0,
			"0.017": 0.0,
			"0.018": 0.0,
			"0.019": 0.0,
			"0.02": 0.0,
			"0.021": 0.0,
			"0.022": 0.0,
			"0.023": 0.0,
			"0.024": 0.0,
			"0.025": 0.0
		}
	}
}
