{
	 "smiles": "CC1=CSC(=N1)C(O)C(F)(F)F", 
	 "Tm": 396.15, 
	 "num_atms": 18, 
	 "gaussian": { 
		 "optdone": 1, 
		 "sigma_profile": "yes", 
		 "theory": "DFT", 
		 "functional": "B3LYP", 
		 "basiset": "6-31G**", 
		 "properties": { 
			 "R2extent": 3583.0386, 
			 "electric_dipole_moment_norm": 3.81090296255, 
			 "electric_quadrupole_moment_norm": 11.2543571011, 
			 "total_energy": -1059.93275963, 
			 "HOMO_LUMO_gap": 0.21139, 
			 "cosmo_polarized_energy": -7.09, 
			 "cosmo_cavitation_energy": 24.96, 
			 "cosmo_dispersion_energy": -18.37, 
			 "cosmo_repulsion_energy": 1.39, 
			 "cosmo_total_nonelectrostatic_energy": 7.97, 
			 "SMD_solvation_energy": 4.35 
		},
		"coords": [
			{
				"x": -0.269408435,
				"y": 1.0953473485,
				"z": 3.2730060506,
				"element": "C" 
			},
			{
				"x": -0.5310229113,
				"y": 0.9736610055,
				"z": 1.8015826363,
				"element": "C" 
			},
			{
				"x": -0.2431625752,
				"y": 1.9049253472,
				"z": 0.8430439706,
				"element": "C" 
			},
			{
				"x": -0.7272728916,
				"y": 1.3447824647,
				"z": -0.726958172,
				"element": "S" 
			},
			{
				"x": -1.2847544238,
				"y": -0.1293672048,
				"z": 0.0197946054,
				"element": "C" 
			},
			{
				"x": -1.1198271868,
				"y": -0.1772599759,
				"z": 1.3099126048,
				"element": "N" 
			},
			{
				"x": -1.8982604135,
				"y": -1.3136271722,
				"z": -0.7031791858,
				"element": "C" 
			},
			{
				"x": -2.0856311987,
				"y": -2.3811407975,
				"z": 0.1804951072,
				"element": "O" 
			},
			{
				"x": -3.2399664533,
				"y": -0.9390704884,
				"z": -1.3529831989,
				"element": "C" 
			},
			{
				"x": -3.7856017239,
				"y": -2.0012581029,
				"z": -1.9641108405,
				"element": "F" 
			},
			{
				"x": -3.0504369467,
				"y": 0.0223574972,
				"z": -2.2917828714,
				"element": "F" 
			},
			{
				"x": -4.1223530355,
				"y": -0.4711003265,
				"z": -0.4540640828,
				"element": "F" 
			},
			{
				"x": 0.3860657064,
				"y": 0.2884497459,
				"z": 3.6173138665,
				"element": "H" 
			},
			{
				"x": 0.2032194754,
				"y": 2.0507800997,
				"z": 3.5118410538,
				"element": "H" 
			},
			{
				"x": -1.2036085174,
				"y": 1.0199727301,
				"z": 3.8394949931,
				"element": "H" 
			},
			{
				"x": 0.2102555665,
				"y": 2.8779190291,
				"z": 0.9691921572,
				"element": "H" 
			},
			{
				"x": -1.2467140021,
				"y": -1.6274734719,
				"z": -1.5310983986,
				"element": "H" 
			},
			{
				"x": -1.9604200335,
				"y": -2.0139977277,
				"z": 1.0740997042,
				"element": "H" 
			}
		],
		 "valence_orbital": [ 
			{
				"type": "occ",
				"energy": -0.355,
				"method": "rhf"
			},
			{
				"type": "occ",
				"energy": -0.30107,
				"method": "rhf"
			},
			{
				"type": "occ",
				"energy": -0.29844,
				"method": "rhf"
			},
			{
				"type": "occ",
				"energy": -0.2907,
				"method": "rhf"
			},
			{
				"type": "occ",
				"energy": -0.25261,
				"method": "rhf"
			},
			{
				"type": "unocc",
				"energy": -0.04122,
				"method": "rhf"
			},
			{
				"type": "unocc",
				"energy": 0.00865,
				"method": "rhf"
			},
			{
				"type": "unocc",
				"energy": 0.03211,
				"method": "rhf"
			},
			{
				"type": "unocc",
				"energy": 0.07055,
				"method": "rhf"
			},
			{
				"type": "unocc",
				"energy": 0.10137,
				"method": "rhf"
			}
		],
		"cosmo_sigma_profile": { 
			"-0.025": 0.0,
			"-0.024": 0.0,
			"-0.023": 0.0,
			"-0.022": 0.0,
			"-0.021": 0.0,
			"-0.02": 0.0,
			"-0.019": 0.0,
			"-0.018": 0.0,
			"-0.017": 0.0,
			"-0.016": 0.0,
			"-0.015": 0.0,
			"-0.014": 0.0,
			"-0.013": 0.0,
			"-0.012": 0.00446533145727,
			"-0.011": 0.267777186497,
			"-0.01": 0.845038287616,
			"-0.009": 5.52725170574,
			"-0.008": 5.44619573208,
			"-0.007": 4.29893352212,
			"-0.006": 5.24466147687,
			"-0.005": 9.08823562795,
			"-0.004": 8.73242248467,
			"-0.003": 11.3586873651,
			"-0.002": 11.6708108294,
			"-0.001": 16.1784420045,
			"0.0": 18.8836974663,
			"0.001": 19.7734615119,
			"0.002": 37.2021416359,
			"0.003": 25.4223341104,
			"0.004": 4.3274025779,
			"0.005": 3.39137731055,
			"0.006": 3.1673459241,
			"0.007": 2.56499825542,
			"0.008": 1.63102429789,
			"0.009": 1.05528494904,
			"0.01": 1.67016840081,
			"0.011": 1.19749715218,
			"0.012": 1.86879285297,
			"0.013": 0.218534372702,
			"0.014": 0.0,
			"0.015": 0.0,
			"0.016": 0.0,
			"0.017": 0.0,
			"0.018": 0.0,
			"0.019": 0.0,
			"0.02": 0.0,
			"0.021": 0.0,
			"0.022": 0.0,
			"0.023": 0.0,
			"0.024": 0.0,
			"0.025": 0.0
		}
	}
}
