{
	 "smiles": "CC1=CC=C2C=C(N)C=CC2=N1", 
	 "Tm": 463.15, 
	 "num_atms": 22, 
	 "gaussian": { 
		 "optdone": 1, 
		 "sigma_profile": "yes", 
		 "theory": "DFT", 
		 "functional": "B3LYP", 
		 "basiset": "6-31G**", 
		 "properties": { 
			 "R2extent": 2513.8639, 
			 "electric_dipole_moment_norm": 2.83029322862, 
			 "electric_quadrupole_moment_norm": 11.3653964273, 
			 "total_energy": -496.61377904, 
			 "HOMO_LUMO_gap": 0.15865, 
			 "cosmo_polarized_energy": -11.64, 
			 "cosmo_cavitation_energy": 25.53, 
			 "cosmo_dispersion_energy": -19.18, 
			 "cosmo_repulsion_energy": 1.52, 
			 "cosmo_total_nonelectrostatic_energy": 7.87, 
			 "SMD_solvation_energy": 2.77 
		},
		"coords": [
			{
				"x": 2.3839212185,
				"y": 3.1994563447,
				"z": 1.4197171858,
				"element": "C" 
			},
			{
				"x": 1.9169861439,
				"y": 1.8066562633,
				"z": 1.0733341796,
				"element": "C" 
			},
			{
				"x": 2.1956734731,
				"y": 0.7190538653,
				"z": 1.9527908757,
				"element": "C" 
			},
			{
				"x": 1.7680923869,
				"y": -0.5446559935,
				"z": 1.6310867223,
				"element": "C" 
			},
			{
				"x": 1.0519438348,
				"y": -0.7556544925,
				"z": 0.4222379179,
				"element": "C" 
			},
			{
				"x": 0.5682625692,
				"y": -2.020565149,
				"z": 0.0116760304,
				"element": "C" 
			},
			{
				"x": -0.1243462866,
				"y": -2.1647963757,
				"z": -1.1812716814,
				"element": "C" 
			},
			{
				"x": -0.5569483964,
				"y": -3.4112088019,
				"z": -1.6359810332,
				"element": "N" 
			},
			{
				"x": -0.3474192362,
				"y": -1.0130227522,
				"z": -1.9925625814,
				"element": "C" 
			},
			{
				"x": 0.108199513,
				"y": 0.2243843164,
				"z": -1.6090892386,
				"element": "C" 
			},
			{
				"x": 0.8217388058,
				"y": 0.3960379764,
				"z": -0.3931075043,
				"element": "C" 
			},
			{
				"x": 1.2531061853,
				"y": 1.6463139839,
				"z": -0.0577021703,
				"element": "N" 
			},
			{
				"x": 1.9606011281,
				"y": 3.5351229387,
				"z": 2.3740779865,
				"element": "H" 
			},
			{
				"x": 2.078453197,
				"y": 3.89437613,
				"z": 0.6359758459,
				"element": "H" 
			},
			{
				"x": 3.4751985325,
				"y": 3.2392178877,
				"z": 1.5208618402,
				"element": "H" 
			},
			{
				"x": 2.7455747337,
				"y": 0.9021188476,
				"z": 2.8718189613,
				"element": "H" 
			},
			{
				"x": 1.9705380345,
				"y": -1.3872061663,
				"z": 2.2882192601,
				"element": "H" 
			},
			{
				"x": 0.750328579,
				"y": -2.8871876411,
				"z": 0.6440189564,
				"element": "H" 
			},
			{
				"x": -0.6519820903,
				"y": -4.121000276,
				"z": -0.922817522,
				"element": "H" 
			},
			{
				"x": -1.354522247,
				"y": -3.3904150168,
				"z": -2.2563624773,
				"element": "H" 
			},
			{
				"x": -0.8836900422,
				"y": -1.1297183421,
				"z": -2.9314698645,
				"element": "H" 
			},
			{
				"x": -0.0626100368,
				"y": 1.1031924533,
				"z": -2.2225516892,
				"element": "H" 
			}
		],
		 "valence_orbital": [ 
			{
				"type": "occ",
				"energy": -0.29496,
				"method": "rhf"
			},
			{
				"type": "occ",
				"energy": -0.28269,
				"method": "rhf"
			},
			{
				"type": "occ",
				"energy": -0.24045,
				"method": "rhf"
			},
			{
				"type": "occ",
				"energy": -0.23103,
				"method": "rhf"
			},
			{
				"type": "occ",
				"energy": -0.19627,
				"method": "rhf"
			},
			{
				"type": "unocc",
				"energy": -0.03762,
				"method": "rhf"
			},
			{
				"type": "unocc",
				"energy": 0.00115,
				"method": "rhf"
			},
			{
				"type": "unocc",
				"energy": 0.03326,
				"method": "rhf"
			},
			{
				"type": "unocc",
				"energy": 0.07639,
				"method": "rhf"
			},
			{
				"type": "unocc",
				"energy": 0.10199,
				"method": "rhf"
			}
		],
		"cosmo_sigma_profile": { 
			"-0.025": 0.0,
			"-0.024": 0.0,
			"-0.023": 0.0,
			"-0.022": 0.0,
			"-0.021": 0.0,
			"-0.02": 0.0,
			"-0.019": 0.0,
			"-0.018": 0.0,
			"-0.017": 0.0,
			"-0.016": 0.0,
			"-0.015": 0.0,
			"-0.014": 0.0,
			"-0.013": 0.451097198643,
			"-0.012": 2.83607376779,
			"-0.011": 2.75686786173,
			"-0.01": 3.35419744298,
			"-0.009": 2.7993768668,
			"-0.008": 3.09878778156,
			"-0.007": 3.94983359576,
			"-0.006": 9.56904103799,
			"-0.005": 11.6061350016,
			"-0.004": 14.1717916931,
			"-0.003": 16.0029312482,
			"-0.002": 12.4086695431,
			"-0.001": 12.3741898676,
			"0.0": 14.0047060165,
			"0.001": 11.4761068887,
			"0.002": 9.93334746244,
			"0.003": 17.6156061797,
			"0.004": 19.1975297526,
			"0.005": 13.4696643299,
			"0.006": 4.66077862097,
			"0.007": 3.22129812935,
			"0.008": 2.36133217446,
			"0.009": 2.0626823436,
			"0.01": 1.7240024922,
			"0.011": 1.8751774678,
			"0.012": 1.52265572232,
			"0.013": 2.09932615279,
			"0.014": 1.15321185252,
			"0.015": 0.567721442705,
			"0.016": 0.666605944691,
			"0.017": 0.103109081973,
			"0.018": 0.0,
			"0.019": 0.0,
			"0.02": 0.0,
			"0.021": 0.0,
			"0.022": 0.0,
			"0.023": 0.0,
			"0.024": 0.0,
			"0.025": 0.0
		}
	}
}
