{
	 "smiles": "S=C1SCN(CC2=CC=CC=C2)CN1CC1=CC=CC=C1", 
	 "Tm": 375.15, 
	 "num_atms": 39, 
	 "gaussian": { 
		 "optdone": 1, 
		 "sigma_profile": "yes", 
		 "theory": "DFT", 
		 "functional": "B3LYP", 
		 "basiset": "6-31G**", 
		 "properties": { 
			 "R2extent": 9267.8807, 
			 "electric_dipole_moment_norm": 6.60960523481, 
			 "electric_quadrupole_moment_norm": 27.5895449941, 
			 "total_energy": -1564.52084775, 
			 "HOMO_LUMO_gap": 0.17819, 
			 "cosmo_polarized_energy": -18.52, 
			 "cosmo_cavitation_energy": 44.34, 
			 "cosmo_dispersion_energy": -30.89, 
			 "cosmo_repulsion_energy": 2.3, 
			 "cosmo_total_nonelectrostatic_energy": 15.75, 
			 "SMD_solvation_energy": 4.08 
		},
		"coords": [
			{
				"x": -0.8581333917,
				"y": 3.6957300081,
				"z": 2.7062984411,
				"element": "S" 
			},
			{
				"x": -0.2805810918,
				"y": 3.1403207897,
				"z": 1.2320104755,
				"element": "C" 
			},
			{
				"x": 1.471812985,
				"y": 3.2953544855,
				"z": 1.0303548369,
				"element": "S" 
			},
			{
				"x": 1.7749832553,
				"y": 2.647724439,
				"z": -0.6670556952,
				"element": "C" 
			},
			{
				"x": 0.8342096672,
				"y": 1.5885666424,
				"z": -0.9691349878,
				"element": "N" 
			},
			{
				"x": 1.2004216723,
				"y": 0.8247402891,
				"z": -2.170965575,
				"element": "C" 
			},
			{
				"x": 2.4751093668,
				"y": 0.0237909465,
				"z": -1.9879698162,
				"element": "C" 
			},
			{
				"x": 3.4493420025,
				"y": 0.0000974527,
				"z": -2.9917794044,
				"element": "C" 
			},
			{
				"x": 4.6009879595,
				"y": -0.777197403,
				"z": -2.8482214784,
				"element": "C" 
			},
			{
				"x": 4.7932737306,
				"y": -1.5323004631,
				"z": -1.6911135526,
				"element": "C" 
			},
			{
				"x": 3.829024002,
				"y": -1.5070671494,
				"z": -0.6797119613,
				"element": "C" 
			},
			{
				"x": 2.6763627527,
				"y": -0.7367151575,
				"z": -0.8273981088,
				"element": "C" 
			},
			{
				"x": -0.5101646957,
				"y": 2.1122209823,
				"z": -1.044671563,
				"element": "C" 
			},
			{
				"x": -1.0273442199,
				"y": 2.5855784243,
				"z": 0.2490962027,
				"element": "N" 
			},
			{
				"x": -2.4988246815,
				"y": 2.5339295615,
				"z": 0.3425495403,
				"element": "C" 
			},
			{
				"x": -3.0356878724,
				"y": 1.1228811522,
				"z": 0.4714067874,
				"element": "C" 
			},
			{
				"x": -3.9566750961,
				"y": 0.6225923648,
				"z": -0.4560445032,
				"element": "C" 
			},
			{
				"x": -4.4735533352,
				"y": -0.668829222,
				"z": -0.3224171053,
				"element": "C" 
			},
			{
				"x": -4.0664307836,
				"y": -1.4747210396,
				"z": 0.7402659272,
				"element": "C" 
			},
			{
				"x": -3.1441148148,
				"y": -0.9836759179,
				"z": 1.6694732823,
				"element": "C" 
			},
			{
				"x": -2.6320056661,
				"y": 0.3058080405,
				"z": 1.5382708014,
				"element": "C" 
			},
			{
				"x": 2.791832788,
				"y": 2.2497774028,
				"z": -0.6563367057,
				"element": "H" 
			},
			{
				"x": 1.727362265,
				"y": 3.4791907893,
				"z": -1.3913161231,
				"element": "H" 
			},
			{
				"x": 0.3681791219,
				"y": 0.1391318927,
				"z": -2.3755647877,
				"element": "H" 
			},
			{
				"x": 1.2985802641,
				"y": 1.4740949156,
				"z": -3.0605521516,
				"element": "H" 
			},
			{
				"x": 3.3063597872,
				"y": 0.5926804459,
				"z": -3.8924787874,
				"element": "H" 
			},
			{
				"x": 5.3484930182,
				"y": -0.7856799542,
				"z": -3.6363468411,
				"element": "H" 
			},
			{
				"x": 5.6902697138,
				"y": -2.1336641464,
				"z": -1.5747242329,
				"element": "H" 
			},
			{
				"x": 3.9753074974,
				"y": -2.0893726221,
				"z": 0.2255942532,
				"element": "H" 
			},
			{
				"x": 1.9289641834,
				"y": -0.7057102513,
				"z": -0.0403595835,
				"element": "H" 
			},
			{
				"x": -1.1755711823,
				"y": 1.3068593964,
				"z": -1.3664503349,
				"element": "H" 
			},
			{
				"x": -0.600844332,
				"y": 2.9399532449,
				"z": -1.7795257407,
				"element": "H" 
			},
			{
				"x": -2.7773510989,
				"y": 3.1397746958,
				"z": 1.2069175866,
				"element": "H" 
			},
			{
				"x": -2.9089595413,
				"y": 3.0127947341,
				"z": -0.5559095543,
				"element": "H" 
			},
			{
				"x": -4.278490143,
				"y": 1.2497579643,
				"z": -1.2846732006,
				"element": "H" 
			},
			{
				"x": -5.1892472809,
				"y": -1.0425702075,
				"z": -1.0491818447,
				"element": "H" 
			},
			{
				"x": -4.4646759133,
				"y": -2.479720702,
				"z": 0.8464448685,
				"element": "H" 
			},
			{
				"x": -2.827019904,
				"y": -1.6064775483,
				"z": 2.5011054621,
				"element": "H" 
			},
			{
				"x": -1.9223009883,
				"y": 0.6910507242,
				"z": 2.2647151743,
				"element": "H" 
			}
		],
		 "valence_orbital": [ 
			{
				"type": "occ",
				"energy": -0.25606,
				"method": "rhf"
			},
			{
				"type": "occ",
				"energy": -0.24836,
				"method": "rhf"
			},
			{
				"type": "occ",
				"energy": -0.24549,
				"method": "rhf"
			},
			{
				"type": "occ",
				"energy": -0.21435,
				"method": "rhf"
			},
			{
				"type": "occ",
				"energy": -0.20559,
				"method": "rhf"
			},
			{
				"type": "unocc",
				"energy": -0.0274,
				"method": "rhf"
			},
			{
				"type": "unocc",
				"energy": -0.01477,
				"method": "rhf"
			},
			{
				"type": "unocc",
				"energy": -0.01185,
				"method": "rhf"
			},
			{
				"type": "unocc",
				"energy": -0.00918,
				"method": "rhf"
			},
			{
				"type": "unocc",
				"energy": -0.00524,
				"method": "rhf"
			}
		],
		"cosmo_sigma_profile": { 
			"-0.025": 0.0,
			"-0.024": 0.0,
			"-0.023": 0.0,
			"-0.022": 0.0,
			"-0.021": 0.0,
			"-0.02": 0.0,
			"-0.019": 0.0,
			"-0.018": 0.0,
			"-0.017": 0.0,
			"-0.016": 0.0,
			"-0.015": 0.0,
			"-0.014": 0.0,
			"-0.013": 0.0,
			"-0.012": 0.0,
			"-0.011": 0.0,
			"-0.01": 0.0,
			"-0.009": 0.0612732101164,
			"-0.008": 3.12902340869,
			"-0.007": 11.0159370812,
			"-0.006": 24.3426858369,
			"-0.005": 35.570210293,
			"-0.004": 34.0395110535,
			"-0.003": 31.4807403782,
			"-0.002": 21.1478640034,
			"-0.001": 18.7489291481,
			"0.0": 18.7179559364,
			"0.001": 17.8751962181,
			"0.002": 20.7933879619,
			"0.003": 22.2378752495,
			"0.004": 23.7165236966,
			"0.005": 25.3311962267,
			"0.006": 19.5256188519,
			"0.007": 8.48259542342,
			"0.008": 7.06807716198,
			"0.009": 6.53588325108,
			"0.01": 4.36875379131,
			"0.011": 2.62176394713,
			"0.012": 0.41202874378,
			"0.013": 0.0,
			"0.014": 0.0,
			"0.015": 0.0,
			"0.016": 0.0,
			"0.017": 0.0,
			"0.018": 0.0,
			"0.019": 0.0,
			"0.02": 0.0,
			"0.021": 0.0,
			"0.022": 0.0,
			"0.023": 0.0,
			"0.024": 0.0,
			"0.025": 0.0
		}
	}
}
