{
	 "smiles": "CCCF", 
	 "Tm": 114.15, 
	 "num_atms": 11, 
	 "gaussian": { 
		 "optdone": 1, 
		 "sigma_profile": "yes", 
		 "theory": "DFT", 
		 "functional": "B3LYP", 
		 "basiset": "6-31G**", 
		 "properties": { 
			 "R2extent": 344.3099, 
			 "electric_dipole_moment_norm": 1.63690249557, 
			 "electric_quadrupole_moment_norm": 1.87620185215, 
			 "total_energy": -218.377503473, 
			 "HOMO_LUMO_gap": 0.41319, 
			 "cosmo_polarized_energy": -2.62, 
			 "cosmo_cavitation_energy": 13.77, 
			 "cosmo_dispersion_energy": -10.26, 
			 "cosmo_repulsion_energy": 0.94, 
			 "cosmo_total_nonelectrostatic_energy": 4.45, 
			 "SMD_solvation_energy": 3.1 
		},
		"coords": [
			{
				"x": 0.5076595168,
				"y": 0.932296863,
				"z": 1.1501737044,
				"element": "C" 
			},
			{
				"x": 0.7832452884,
				"y": 0.9349957202,
				"z": -0.3560008785,
				"element": "C" 
			},
			{
				"x": 0.544837213,
				"y": -0.4204102107,
				"z": -1.0005303136,
				"element": "C" 
			},
			{
				"x": -0.7821986876,
				"y": -0.8083644993,
				"z": -0.8130227562,
				"element": "F" 
			},
			{
				"x": 0.6468676411,
				"y": 1.9279275492,
				"z": 1.5818678216,
				"element": "H" 
			},
			{
				"x": 1.1787294153,
				"y": 0.2421330176,
				"z": 1.6743948078,
				"element": "H" 
			},
			{
				"x": -0.5196051881,
				"y": 0.6141121798,
				"z": 1.347290349,
				"element": "H" 
			},
			{
				"x": 1.8216200462,
				"y": 1.2291912654,
				"z": -0.5583878238,
				"element": "H" 
			},
			{
				"x": 0.1444928404,
				"y": 1.6746815977,
				"z": -0.8539520118,
				"element": "H" 
			},
			{
				"x": 0.740108462,
				"y": -0.3897953349,
				"z": -2.0798118227,
				"element": "H" 
			},
			{
				"x": 1.1867434524,
				"y": -1.190168148,
				"z": -0.5510210763,
				"element": "H" 
			}
		],
		 "valence_orbital": [ 
			{
				"type": "occ",
				"energy": -0.38245,
				"method": "rhf"
			},
			{
				"type": "occ",
				"energy": -0.36673,
				"method": "rhf"
			},
			{
				"type": "occ",
				"energy": -0.3461,
				"method": "rhf"
			},
			{
				"type": "occ",
				"energy": -0.32,
				"method": "rhf"
			},
			{
				"type": "occ",
				"energy": -0.31801,
				"method": "rhf"
			},
			{
				"type": "unocc",
				"energy": 0.09518,
				"method": "rhf"
			},
			{
				"type": "unocc",
				"energy": 0.13045,
				"method": "rhf"
			},
			{
				"type": "unocc",
				"energy": 0.1382,
				"method": "rhf"
			},
			{
				"type": "unocc",
				"energy": 0.14084,
				"method": "rhf"
			},
			{
				"type": "unocc",
				"energy": 0.16063,
				"method": "rhf"
			}
		],
		"cosmo_sigma_profile": { 
			"-0.025": 0.0,
			"-0.024": 0.0,
			"-0.023": 0.0,
			"-0.022": 0.0,
			"-0.021": 0.0,
			"-0.02": 0.0,
			"-0.019": 0.0,
			"-0.018": 0.0,
			"-0.017": 0.0,
			"-0.016": 0.0,
			"-0.015": 0.0,
			"-0.014": 0.0,
			"-0.013": 0.0,
			"-0.012": 0.0,
			"-0.011": 0.0,
			"-0.01": 0.0,
			"-0.009": 0.0,
			"-0.008": 0.0,
			"-0.007": 0.0,
			"-0.006": 0.036109499636,
			"-0.005": 3.6100537988,
			"-0.004": 10.5913488455,
			"-0.003": 16.1850973625,
			"-0.002": 13.5893007721,
			"-0.001": 12.7134218524,
			"0.0": 12.3589569447,
			"0.001": 11.0039125394,
			"0.002": 4.96990209899,
			"0.003": 2.46033376475,
			"0.004": 2.44686542664,
			"0.005": 2.38991586419,
			"0.006": 4.80465415834,
			"0.007": 8.6923573859,
			"0.008": 1.15222235709,
			"0.009": 0.0,
			"0.01": 0.0,
			"0.011": 0.0,
			"0.012": 0.0,
			"0.013": 0.0,
			"0.014": 0.0,
			"0.015": 0.0,
			"0.016": 0.0,
			"0.017": 0.0,
			"0.018": 0.0,
			"0.019": 0.0,
			"0.02": 0.0,
			"0.021": 0.0,
			"0.022": 0.0,
			"0.023": 0.0,
			"0.024": 0.0,
			"0.025": 0.0
		}
	}
}
