{
	 "smiles": "NC1=NC(=CN=N1)C1=CC(Cl)=CC=C1", 
	 "Tm": 493.15, 
	 "num_atms": 21, 
	 "gaussian": { 
		 "optdone": 1, 
		 "sigma_profile": "yes", 
		 "theory": "DFT", 
		 "functional": "B3LYP", 
		 "basiset": "6-31G**", 
		 "properties": { 
			 "R2extent": 3968.8285, 
			 "electric_dipole_moment_norm": 1.67903901384, 
			 "electric_quadrupole_moment_norm": 28.0603291641, 
			 "total_energy": -1026.3500371, 
			 "HOMO_LUMO_gap": 0.15191, 
			 "cosmo_polarized_energy": -13.5, 
			 "cosmo_cavitation_energy": 27.92, 
			 "cosmo_dispersion_energy": -20.98, 
			 "cosmo_repulsion_energy": 1.65, 
			 "cosmo_total_nonelectrostatic_energy": 8.59, 
			 "SMD_solvation_energy": 1.67 
		},
		"coords": [
			{
				"x": 3.8925700241,
				"y": 1.3252184421,
				"z": 1.4646010496,
				"element": "N" 
			},
			{
				"x": 2.5445886709,
				"y": 1.4942877875,
				"z": 1.450235187,
				"element": "C" 
			},
			{
				"x": 1.8014939266,
				"y": 0.529888291,
				"z": 0.8780089112,
				"element": "N" 
			},
			{
				"x": 0.4803790936,
				"y": 0.7094074343,
				"z": 0.9272368315,
				"element": "C" 
			},
			{
				"x": -0.0345376621,
				"y": 1.8526829481,
				"z": 1.5694210777,
				"element": "C" 
			},
			{
				"x": 0.7660779568,
				"y": 2.7817772472,
				"z": 2.0922500674,
				"element": "N" 
			},
			{
				"x": 2.0785982502,
				"y": 2.6257083401,
				"z": 2.0324001873,
				"element": "N" 
			},
			{
				"x": -0.3813453346,
				"y": -0.3252286421,
				"z": 0.3041994841,
				"element": "C" 
			},
			{
				"x": 0.1775790016,
				"y": -1.5744239119,
				"z": -0.010192374,
				"element": "C" 
			},
			{
				"x": -0.6176115465,
				"y": -2.5571152772,
				"z": -0.587503155,
				"element": "C" 
			},
			{
				"x": 0.0897554038,
				"y": -4.1209034051,
				"z": -0.9691713169,
				"element": "Cl" 
			},
			{
				"x": -1.9656485861,
				"y": -2.3316580146,
				"z": -0.8707084682,
				"element": "C" 
			},
			{
				"x": -2.5147143724,
				"y": -1.0859344587,
				"z": -0.5658894998,
				"element": "C" 
			},
			{
				"x": -1.7348868705,
				"y": -0.0886050367,
				"z": 0.0165098329,
				"element": "C" 
			},
			{
				"x": 4.4577836057,
				"y": 2.1138078873,
				"z": 1.7358762619,
				"element": "H" 
			},
			{
				"x": 4.2893507592,
				"y": 0.6100124775,
				"z": 0.8775331934,
				"element": "H" 
			},
			{
				"x": -1.0969356412,
				"y": 2.0354813633,
				"z": 1.6807540094,
				"element": "H" 
			},
			{
				"x": 1.2236346335,
				"y": -1.7559112453,
				"z": 0.2025408785,
				"element": "H" 
			},
			{
				"x": -2.5663588921,
				"y": -3.1134804963,
				"z": -1.3218133489,
				"element": "H" 
			},
			{
				"x": -3.5592142745,
				"y": -0.8929646343,
				"z": -0.7904710866,
				"element": "H" 
			},
			{
				"x": -2.1800581458,
				"y": 0.8780529039,
				"z": 0.2238822777,
				"element": "H" 
			}
		],
		 "valence_orbital": [ 
			{
				"type": "occ",
				"energy": -0.31816,
				"method": "rhf"
			},
			{
				"type": "occ",
				"energy": -0.26836,
				"method": "rhf"
			},
			{
				"type": "occ",
				"energy": -0.25843,
				"method": "rhf"
			},
			{
				"type": "occ",
				"energy": -0.24057,
				"method": "rhf"
			},
			{
				"type": "occ",
				"energy": -0.22985,
				"method": "rhf"
			},
			{
				"type": "unocc",
				"energy": -0.07794,
				"method": "rhf"
			},
			{
				"type": "unocc",
				"energy": -0.0336,
				"method": "rhf"
			},
			{
				"type": "unocc",
				"energy": -0.01941,
				"method": "rhf"
			},
			{
				"type": "unocc",
				"energy": 0.01343,
				"method": "rhf"
			},
			{
				"type": "unocc",
				"energy": 0.02473,
				"method": "rhf"
			}
		],
		"cosmo_sigma_profile": { 
			"-0.025": 0.0,
			"-0.024": 0.0,
			"-0.023": 0.0,
			"-0.022": 0.0,
			"-0.021": 0.0,
			"-0.02": 0.0,
			"-0.019": 0.0,
			"-0.018": 0.0,
			"-0.017": 0.0,
			"-0.016": 0.0,
			"-0.015": 0.242939102036,
			"-0.014": 1.84764855196,
			"-0.013": 2.43497195217,
			"-0.012": 1.84866700784,
			"-0.011": 1.95193990396,
			"-0.01": 2.70101613006,
			"-0.009": 3.37148138195,
			"-0.008": 5.18747490373,
			"-0.007": 8.71674581013,
			"-0.006": 8.96087561792,
			"-0.005": 8.84238123061,
			"-0.004": 9.66080765776,
			"-0.003": 12.500186524,
			"-0.002": 14.0769673253,
			"-0.001": 15.450311408,
			"0.0": 18.8159198296,
			"0.001": 20.3125518184,
			"0.002": 24.1440695124,
			"0.003": 17.1083884462,
			"0.004": 14.6955240136,
			"0.005": 8.79663825298,
			"0.006": 4.20015793167,
			"0.007": 2.76835565039,
			"0.008": 2.76786894323,
			"0.009": 2.782861559,
			"0.01": 1.9538535347,
			"0.011": 1.75013702148,
			"0.012": 2.49140890154,
			"0.013": 2.44597660944,
			"0.014": 2.60549121913,
			"0.015": 1.69888389378,
			"0.016": 0.147624198083,
			"0.017": 0.0,
			"0.018": 0.0,
			"0.019": 0.0,
			"0.02": 0.0,
			"0.021": 0.0,
			"0.022": 0.0,
			"0.023": 0.0,
			"0.024": 0.0,
			"0.025": 0.0
		}
	}
}
