{
	 "smiles": "OC(=O)C1CC1C1=CC(=CC=C1)C(F)(F)F", 
	 "Tm": 358.15, 
	 "num_atms": 25, 
	 "gaussian": { 
		 "optdone": 1, 
		 "sigma_profile": "yes", 
		 "theory": "DFT", 
		 "functional": "B3LYP", 
		 "basiset": "6-31G**", 
		 "properties": { 
			 "R2extent": 4497.3898, 
			 "electric_dipole_moment_norm": 3.87367601252, 
			 "electric_quadrupole_moment_norm": 11.8856194769, 
			 "total_energy": -874.558879878, 
			 "HOMO_LUMO_gap": 0.22823, 
			 "cosmo_polarized_energy": -11.46, 
			 "cosmo_cavitation_energy": 30.92, 
			 "cosmo_dispersion_energy": -21.09, 
			 "cosmo_repulsion_energy": 1.62, 
			 "cosmo_total_nonelectrostatic_energy": 11.45, 
			 "SMD_solvation_energy": 7.23 
		},
		"coords": [
			{
				"x": 0.6070614218,
				"y": 0.1723370408,
				"z": -2.7269141811,
				"element": "O" 
			},
			{
				"x": 0.0277202199,
				"y": 1.3822847357,
				"z": -2.5215650342,
				"element": "C" 
			},
			{
				"x": -0.7793594578,
				"y": 1.8550852347,
				"z": -3.2940343868,
				"element": "O" 
			},
			{
				"x": 0.4782119168,
				"y": 2.0523333636,
				"z": -1.2736298459,
				"element": "C" 
			},
			{
				"x": 1.7848119744,
				"y": 1.6834020522,
				"z": -0.5991329886,
				"element": "C" 
			},
			{
				"x": 0.5043796187,
				"y": 1.3194022587,
				"z": 0.0814594435,
				"element": "C" 
			},
			{
				"x": 0.0256857149,
				"y": -0.08883934,
				"z": 0.2674052666,
				"element": "C" 
			},
			{
				"x": -1.3457884917,
				"y": -0.3297570597,
				"z": 0.4249622723,
				"element": "C" 
			},
			{
				"x": -1.818734781,
				"y": -1.6223690621,
				"z": 0.6503472529,
				"element": "C" 
			},
			{
				"x": -0.9288579545,
				"y": -2.6982866279,
				"z": 0.7254905591,
				"element": "C" 
			},
			{
				"x": 0.4358935582,
				"y": -2.465120835,
				"z": 0.5746936527,
				"element": "C" 
			},
			{
				"x": 0.9088152338,
				"y": -1.1713113555,
				"z": 0.3487187177,
				"element": "C" 
			},
			{
				"x": -3.299259287,
				"y": -1.8718269017,
				"z": 0.7570214893,
				"element": "C" 
			},
			{
				"x": -3.5759499217,
				"y": -2.8987718513,
				"z": 1.5921835261,
				"element": "F" 
			},
			{
				"x": -3.8391914206,
				"y": -2.1890485253,
				"z": -0.4431509227,
				"element": "F" 
			},
			{
				"x": -3.9647481951,
				"y": -0.7874777867,
				"z": 1.212476289,
				"element": "F" 
			},
			{
				"x": 0.2077483929,
				"y": -0.1781407685,
				"z": -3.5402852526,
				"element": "H" 
			},
			{
				"x": 0.1552099263,
				"y": 3.0867430049,
				"z": -1.2416442323,
				"element": "H" 
			},
			{
				"x": 2.3534632762,
				"y": 0.8908179375,
				"z": -1.0731009291,
				"element": "H" 
			},
			{
				"x": 2.3822666856,
				"y": 2.491473651,
				"z": -0.1892654923,
				"element": "H" 
			},
			{
				"x": 0.2076036355,
				"y": 1.9793757322,
				"z": 0.8950487288,
				"element": "H" 
			},
			{
				"x": -2.0482439317,
				"y": 0.496287661,
				"z": 0.3756713527,
				"element": "H" 
			},
			{
				"x": -1.3033160226,
				"y": -3.6991672678,
				"z": 0.9109162239,
				"element": "H" 
			},
			{
				"x": 1.1361199474,
				"y": -3.2924456431,
				"z": 0.6400330986,
				"element": "H" 
			},
			{
				"x": 1.975257941,
				"y": -0.9996796477,
				"z": 0.2424953925,
				"element": "H" 
			}
		],
		 "valence_orbital": [ 
			{
				"type": "occ",
				"energy": -0.32666,
				"method": "rhf"
			},
			{
				"type": "occ",
				"energy": -0.31141,
				"method": "rhf"
			},
			{
				"type": "occ",
				"energy": -0.27192,
				"method": "rhf"
			},
			{
				"type": "occ",
				"energy": -0.2687,
				"method": "rhf"
			},
			{
				"type": "occ",
				"energy": -0.25579,
				"method": "rhf"
			},
			{
				"type": "unocc",
				"energy": -0.02756,
				"method": "rhf"
			},
			{
				"type": "unocc",
				"energy": -0.02495,
				"method": "rhf"
			},
			{
				"type": "unocc",
				"energy": 0.00601,
				"method": "rhf"
			},
			{
				"type": "unocc",
				"energy": 0.07253,
				"method": "rhf"
			},
			{
				"type": "unocc",
				"energy": 0.0833,
				"method": "rhf"
			}
		],
		"cosmo_sigma_profile": { 
			"-0.025": 0.0,
			"-0.024": 0.0,
			"-0.023": 0.0,
			"-0.022": 0.0,
			"-0.021": 0.0,
			"-0.02": 0.0,
			"-0.019": 0.0174252292135,
			"-0.018": 0.6539727583,
			"-0.017": 0.848013059036,
			"-0.016": 0.994982207524,
			"-0.015": 0.558460744278,
			"-0.014": 0.476064770095,
			"-0.013": 0.788567854849,
			"-0.012": 0.700809860001,
			"-0.011": 0.975580737711,
			"-0.01": 0.62930323152,
			"-0.009": 0.28945855378,
			"-0.008": 0.593301212798,
			"-0.007": 5.71453827695,
			"-0.006": 17.3174640217,
			"-0.005": 16.6624970953,
			"-0.004": 15.3152600547,
			"-0.003": 12.1138560554,
			"-0.002": 14.5843061052,
			"-0.001": 16.0124362037,
			"0.0": 17.8825159902,
			"0.001": 20.414027577,
			"0.002": 25.6946680204,
			"0.003": 40.2420938341,
			"0.004": 10.5253129878,
			"0.005": 3.85380691487,
			"0.006": 3.9008815472,
			"0.007": 3.37393817912,
			"0.008": 1.93360501738,
			"0.009": 1.25204209244,
			"0.01": 1.87837694071,
			"0.011": 2.88749307283,
			"0.012": 5.60747477024,
			"0.013": 1.8237610534,
			"0.014": 0.0430310222284,
			"0.015": 0.0,
			"0.016": 0.0,
			"0.017": 0.0,
			"0.018": 0.0,
			"0.019": 0.0,
			"0.02": 0.0,
			"0.021": 0.0,
			"0.022": 0.0,
			"0.023": 0.0,
			"0.024": 0.0,
			"0.025": 0.0
		}
	}
}
