{
	 "smiles": "CN1C(SCC(O)=O)=NN=C1C1=CC=CS1", 
	 "Tm": 479.15, 
	 "num_atms": 25, 
	 "gaussian": { 
		 "optdone": 1, 
		 "sigma_profile": "yes", 
		 "theory": "DFT", 
		 "functional": "B3LYP", 
		 "basiset": "6-31G**", 
		 "properties": { 
			 "R2extent": 5519.0873, 
			 "electric_dipole_moment_norm": 4.14039277002, 
			 "electric_quadrupole_moment_norm": 25.0920797434, 
			 "total_energy": -1459.43039423, 
			 "HOMO_LUMO_gap": 0.1737, 
			 "cosmo_polarized_energy": -19.61, 
			 "cosmo_cavitation_energy": 32.91, 
			 "cosmo_dispersion_energy": -24.54, 
			 "cosmo_repulsion_energy": 1.82, 
			 "cosmo_total_nonelectrostatic_energy": 10.19, 
			 "SMD_solvation_energy": 4.38 
		},
		"coords": [
			{
				"x": 0.8368833343,
				"y": -0.6578275617,
				"z": -0.0319521234,
				"element": "C" 
			},
			{
				"x": 0.1594657088,
				"y": 0.6223785548,
				"z": 0.1446639331,
				"element": "N" 
			},
			{
				"x": -0.1174349629,
				"y": 1.5521760584,
				"z": -0.8359539689,
				"element": "C" 
			},
			{
				"x": 0.4512957441,
				"y": 1.4484702908,
				"z": -2.5030997191,
				"element": "S" 
			},
			{
				"x": -1.1428034945,
				"y": 1.2031991413,
				"z": -3.3594020831,
				"element": "C" 
			},
			{
				"x": -1.7473705886,
				"y": -0.182102551,
				"z": -3.2020191981,
				"element": "C" 
			},
			{
				"x": -2.8437898284,
				"y": -0.2979789368,
				"z": -3.9833343092,
				"element": "O" 
			},
			{
				"x": -1.3498873062,
				"y": -1.0730620387,
				"z": -2.4865510405,
				"element": "O" 
			},
			{
				"x": -0.8368140319,
				"y": 2.5413536271,
				"z": -0.3457067521,
				"element": "N" 
			},
			{
				"x": -1.0508299496,
				"y": 2.2798167682,
				"z": 0.9758064872,
				"element": "N" 
			},
			{
				"x": -0.4432869252,
				"y": 1.1351063254,
				"z": 1.2691533445,
				"element": "C" 
			},
			{
				"x": -0.4683757368,
				"y": 0.5617508624,
				"z": 2.6055519446,
				"element": "C" 
			},
			{
				"x": -1.3567865859,
				"y": 0.9301424874,
				"z": 3.5918046152,
				"element": "C" 
			},
			{
				"x": -1.1226616135,
				"y": 0.2781744041,
				"z": 4.8332324903,
				"element": "C" 
			},
			{
				"x": -0.0561980773,
				"y": -0.5788685627,
				"z": 4.7921604713,
				"element": "C" 
			},
			{
				"x": 0.6864341763,
				"y": -0.6016007689,
				"z": 3.2276460858,
				"element": "S" 
			},
			{
				"x": 0.7639597296,
				"y": -0.9376525298,
				"z": -1.0817686342,
				"element": "H" 
			},
			{
				"x": 0.3356821056,
				"y": -1.4170087537,
				"z": 0.5698843646,
				"element": "H" 
			},
			{
				"x": 1.8868840099,
				"y": -0.5915808316,
				"z": 0.2678613134,
				"element": "H" 
			},
			{
				"x": -1.8579885908,
				"y": 1.9500019203,
				"z": -3.0031738663,
				"element": "H" 
			},
			{
				"x": -0.9681380797,
				"y": 1.4024373939,
				"z": -4.4208777239,
				"element": "H" 
			},
			{
				"x": -3.202336157,
				"y": -1.1883274581,
				"z": -3.827851282,
				"element": "H" 
			},
			{
				"x": -2.140258782,
				"y": 1.6545860167,
				"z": 3.4082586826,
				"element": "H" 
			},
			{
				"x": -1.7259683206,
				"y": 0.4356325086,
				"z": 5.7197942289,
				"element": "H" 
			},
			{
				"x": 0.3348242226,
				"y": -1.2090163664,
				"z": 5.5787727393,
				"element": "H" 
			}
		],
		 "valence_orbital": [ 
			{
				"type": "occ",
				"energy": -0.28643,
				"method": "rhf"
			},
			{
				"type": "occ",
				"energy": -0.26043,
				"method": "rhf"
			},
			{
				"type": "occ",
				"energy": -0.25798,
				"method": "rhf"
			},
			{
				"type": "occ",
				"energy": -0.24881,
				"method": "rhf"
			},
			{
				"type": "occ",
				"energy": -0.21666,
				"method": "rhf"
			},
			{
				"type": "unocc",
				"energy": -0.04296,
				"method": "rhf"
			},
			{
				"type": "unocc",
				"energy": -0.01227,
				"method": "rhf"
			},
			{
				"type": "unocc",
				"energy": 0.00022,
				"method": "rhf"
			},
			{
				"type": "unocc",
				"energy": 0.01989,
				"method": "rhf"
			},
			{
				"type": "unocc",
				"energy": 0.03367,
				"method": "rhf"
			}
		],
		"cosmo_sigma_profile": { 
			"-0.025": 0.0,
			"-0.024": 0.0,
			"-0.023": 0.0,
			"-0.022": 0.0,
			"-0.021": 0.0,
			"-0.02": 0.0,
			"-0.019": 0.395756607502,
			"-0.018": 0.82792415974,
			"-0.017": 1.1985426332,
			"-0.016": 0.654635188779,
			"-0.015": 0.86869161918,
			"-0.014": 0.598499505145,
			"-0.013": 0.538456558247,
			"-0.012": 0.544651299028,
			"-0.011": 1.15346374508,
			"-0.01": 2.25738089625,
			"-0.009": 4.98002544313,
			"-0.008": 6.58192769738,
			"-0.007": 12.836473086,
			"-0.006": 14.9390178066,
			"-0.005": 17.7781747843,
			"-0.004": 18.2877012663,
			"-0.003": 16.7783388195,
			"-0.002": 14.4237360989,
			"-0.001": 13.4518507938,
			"0.0": 13.8164356039,
			"0.001": 17.2665313951,
			"0.002": 17.430565733,
			"0.003": 19.7826518133,
			"0.004": 16.8933365973,
			"0.005": 9.05977551711,
			"0.006": 6.52064064607,
			"0.007": 6.49817898327,
			"0.008": 5.8931846583,
			"0.009": 4.94982538517,
			"0.01": 3.94534828096,
			"0.011": 4.03148934864,
			"0.012": 2.90438900917,
			"0.013": 3.68730807427,
			"0.014": 2.52244360323,
			"0.015": 1.88830957667,
			"0.016": 1.36329310746,
			"0.017": 0.0,
			"0.018": 0.0,
			"0.019": 0.0,
			"0.02": 0.0,
			"0.021": 0.0,
			"0.022": 0.0,
			"0.023": 0.0,
			"0.024": 0.0,
			"0.025": 0.0
		}
	}
}
