{
	 "smiles": "CC1=C(C=C(S1)C(O)=O)S(Cl)(=O)=O", 
	 "Tm": 422.15, 
	 "num_atms": 18, 
	 "gaussian": { 
		 "optdone": 1, 
		 "sigma_profile": "yes", 
		 "theory": "DFT", 
		 "functional": "B3LYP", 
		 "basiset": "6-31G**", 
		 "properties": { 
			 "R2extent": 4964.0492, 
			 "electric_dipole_moment_norm": 5.94482537422, 
			 "electric_quadrupole_moment_norm": 24.3939929622, 
			 "total_energy": -1789.03674043, 
			 "HOMO_LUMO_gap": 0.18076, 
			 "cosmo_polarized_energy": -18.1, 
			 "cosmo_cavitation_energy": 28.17, 
			 "cosmo_dispersion_energy": -21.27, 
			 "cosmo_repulsion_energy": 1.6, 
			 "cosmo_total_nonelectrostatic_energy": 8.5, 
			 "SMD_solvation_energy": 4.62 
		},
		"coords": [
			{
				"x": -2.9940190894,
				"y": 0.9441472447,
				"z": 1.3039540592,
				"element": "C" 
			},
			{
				"x": -2.2526816313,
				"y": -0.235843567,
				"z": 0.7524849394,
				"element": "C" 
			},
			{
				"x": -1.3875323202,
				"y": -0.3242408783,
				"z": -0.322427295,
				"element": "C" 
			},
			{
				"x": -0.8761795882,
				"y": -1.6231271559,
				"z": -0.5928509194,
				"element": "C" 
			},
			{
				"x": -1.3400587561,
				"y": -2.5517332052,
				"z": 0.3005926593,
				"element": "C" 
			},
			{
				"x": -2.4321941641,
				"y": -1.8096172479,
				"z": 1.4529147101,
				"element": "S" 
			},
			{
				"x": -0.9687052258,
				"y": -3.9905891151,
				"z": 0.2761225034,
				"element": "C" 
			},
			{
				"x": -1.3341010379,
				"y": -4.753101614,
				"z": 1.3381023203,
				"element": "O" 
			},
			{
				"x": -0.3708579069,
				"y": -4.4774818401,
				"z": -0.6520028605,
				"element": "O" 
			},
			{
				"x": -0.9160089706,
				"y": 1.0652496989,
				"z": -1.3188831735,
				"element": "S" 
			},
			{
				"x": -2.585788549,
				"y": 1.2263062919,
				"z": -2.6364965143,
				"element": "Cl" 
			},
			{
				"x": 0.2238969723,
				"y": 0.6832245896,
				"z": -2.1393146736,
				"element": "O" 
			},
			{
				"x": -0.9281007629,
				"y": 2.2789552121,
				"z": -0.5116165865,
				"element": "O" 
			},
			{
				"x": -2.2914521404,
				"y": 1.7134574846,
				"z": 1.6349426841,
				"element": "H" 
			},
			{
				"x": -3.6272456427,
				"y": 1.393968266,
				"z": 0.5324262385,
				"element": "H" 
			},
			{
				"x": -3.6273442567,
				"y": 0.6546120028,
				"z": 2.1448743348,
				"element": "H" 
			},
			{
				"x": -0.1899765689,
				"y": -1.8626694148,
				"z": -1.3946199073,
				"element": "H" 
			},
			{
				"x": -1.6734503612,
				"y": -4.2217167523,
				"z": 2.0723974807,
				"element": "H" 
			}
		],
		 "valence_orbital": [ 
			{
				"type": "occ",
				"energy": -0.33856,
				"method": "rhf"
			},
			{
				"type": "occ",
				"energy": -0.32427,
				"method": "rhf"
			},
			{
				"type": "occ",
				"energy": -0.30771,
				"method": "rhf"
			},
			{
				"type": "occ",
				"energy": -0.29859,
				"method": "rhf"
			},
			{
				"type": "occ",
				"energy": -0.28132,
				"method": "rhf"
			},
			{
				"type": "unocc",
				"energy": -0.10056,
				"method": "rhf"
			},
			{
				"type": "unocc",
				"energy": -0.08539,
				"method": "rhf"
			},
			{
				"type": "unocc",
				"energy": -0.04272,
				"method": "rhf"
			},
			{
				"type": "unocc",
				"energy": -0.02579,
				"method": "rhf"
			},
			{
				"type": "unocc",
				"energy": 0.03072,
				"method": "rhf"
			}
		],
		"cosmo_sigma_profile": { 
			"-0.025": 0.0,
			"-0.024": 0.0,
			"-0.023": 0.0,
			"-0.022": 0.0,
			"-0.021": 0.0,
			"-0.02": 0.0125611343026,
			"-0.019": 0.746467496503,
			"-0.018": 0.803617467982,
			"-0.017": 1.1515795361,
			"-0.016": 1.05640417155,
			"-0.015": 1.20268967358,
			"-0.014": 0.810263825084,
			"-0.013": 0.523830477809,
			"-0.012": 1.18620100156,
			"-0.011": 1.40152071769,
			"-0.01": 0.862375099128,
			"-0.009": 1.83416055319,
			"-0.008": 4.36097691346,
			"-0.007": 5.01173553166,
			"-0.006": 9.34138913044,
			"-0.005": 13.2526671423,
			"-0.004": 18.2337509441,
			"-0.003": 19.7506220408,
			"-0.002": 19.5988099572,
			"-0.001": 16.907769565,
			"0.0": 14.2870444945,
			"0.001": 10.8554862534,
			"0.002": 12.089801739,
			"0.003": 15.8249905628,
			"0.004": 8.66803397049,
			"0.005": 4.53479136392,
			"0.006": 6.08140098245,
			"0.007": 9.53076911392,
			"0.008": 11.0692168895,
			"0.009": 6.82656292516,
			"0.01": 4.96326346974,
			"0.011": 5.33963605158,
			"0.012": 2.35926156455,
			"0.013": 0.185209823488,
			"0.014": 0.0,
			"0.015": 0.0,
			"0.016": 0.0,
			"0.017": 0.0,
			"0.018": 0.0,
			"0.019": 0.0,
			"0.02": 0.0,
			"0.021": 0.0,
			"0.022": 0.0,
			"0.023": 0.0,
			"0.024": 0.0,
			"0.025": 0.0
		}
	}
}
