{
	 "smiles": "[O-][N+](=O)C1=C(C=CC=C1F)S(Cl)(=O)=O", 
	 "Tm": 326.15, 
	 "num_atms": 17, 
	 "gaussian": { 
		 "optdone": 1, 
		 "sigma_profile": "yes", 
		 "theory": "DFT", 
		 "functional": "B3LYP", 
		 "basiset": "6-31G**", 
		 "properties": { 
			 "R2extent": 4611.2509, 
			 "electric_dipole_moment_norm": 6.69204203065, 
			 "electric_quadrupole_moment_norm": 15.4461195917, 
			 "total_energy": -1544.10416152, 
			 "HOMO_LUMO_gap": 0.18377, 
			 "cosmo_polarized_energy": -13.14, 
			 "cosmo_cavitation_energy": 26.49, 
			 "cosmo_dispersion_energy": -19.42, 
			 "cosmo_repulsion_energy": 1.45, 
			 "cosmo_total_nonelectrostatic_energy": 8.52, 
			 "SMD_solvation_energy": 6.2 
		},
		"coords": [
			{
				"x": -0.0404339544,
				"y": 4.2750762829,
				"z": 0.0852473036,
				"element": "O" 
			},
			{
				"x": -0.5710559506,
				"y": 3.5445459274,
				"z": -0.7413947707,
				"element": "N" 
			},
			{
				"x": -1.6007532078,
				"y": 3.7604999344,
				"z": -1.3641220776,
				"element": "O" 
			},
			{
				"x": 0.1316002444,
				"y": 2.2841255847,
				"z": -1.058189753,
				"element": "C" 
			},
			{
				"x": 0.3831967874,
				"y": 1.2759822602,
				"z": -0.1203467885,
				"element": "C" 
			},
			{
				"x": 1.0620339022,
				"y": 0.1156323501,
				"z": -0.4911658801,
				"element": "C" 
			},
			{
				"x": 1.5112857371,
				"y": -0.029944058,
				"z": -1.8048424043,
				"element": "C" 
			},
			{
				"x": 1.274976688,
				"y": 0.9676449502,
				"z": -2.7468610032,
				"element": "C" 
			},
			{
				"x": 0.5793165718,
				"y": 2.1107145562,
				"z": -2.3672693797,
				"element": "C" 
			},
			{
				"x": 0.3584754472,
				"y": 3.0750075876,
				"z": -3.2641094618,
				"element": "F" 
			},
			{
				"x": -0.2397298676,
				"y": 1.3400083145,
				"z": 1.5727442654,
				"element": "S" 
			},
			{
				"x": 1.271061146,
				"y": 2.4324745134,
				"z": 2.5529918538,
				"element": "Cl" 
			},
			{
				"x": -0.1758123546,
				"y": -0.0107718192,
				"z": 2.1142004397,
				"element": "O" 
			},
			{
				"x": -1.4596923656,
				"y": 2.1310128427,
				"z": 1.6007735276,
				"element": "O" 
			},
			{
				"x": 1.2180748498,
				"y": -0.663470063,
				"z": 0.2451013702,
				"element": "H" 
			},
			{
				"x": 2.043266458,
				"y": -0.9298626543,
				"z": -2.0941183324,
				"element": "H" 
			},
			{
				"x": 1.6135898687,
				"y": 0.8816234903,
				"z": -3.773338909,
				"element": "H" 
			}
		],
		 "valence_orbital": [ 
			{
				"type": "occ",
				"energy": -0.33128,
				"method": "rhf"
			},
			{
				"type": "occ",
				"energy": -0.32829,
				"method": "rhf"
			},
			{
				"type": "occ",
				"energy": -0.32445,
				"method": "rhf"
			},
			{
				"type": "occ",
				"energy": -0.31112,
				"method": "rhf"
			},
			{
				"type": "occ",
				"energy": -0.29559,
				"method": "rhf"
			},
			{
				"type": "unocc",
				"energy": -0.11182,
				"method": "rhf"
			},
			{
				"type": "unocc",
				"energy": -0.09191,
				"method": "rhf"
			},
			{
				"type": "unocc",
				"energy": -0.06828,
				"method": "rhf"
			},
			{
				"type": "unocc",
				"energy": -0.05362,
				"method": "rhf"
			},
			{
				"type": "unocc",
				"energy": 0.01695,
				"method": "rhf"
			}
		],
		"cosmo_sigma_profile": { 
			"-0.025": 0.0,
			"-0.024": 0.0,
			"-0.023": 0.0,
			"-0.022": 0.0,
			"-0.021": 0.0,
			"-0.02": 0.0,
			"-0.019": 0.0,
			"-0.018": 0.0,
			"-0.017": 0.0,
			"-0.016": 0.0,
			"-0.015": 0.0,
			"-0.014": 0.0,
			"-0.013": 0.0,
			"-0.012": 0.0,
			"-0.011": 0.0839620522245,
			"-0.01": 3.12593272197,
			"-0.009": 7.4755279531,
			"-0.008": 7.648014587,
			"-0.007": 6.94982870545,
			"-0.006": 8.00963910621,
			"-0.005": 8.23243322885,
			"-0.004": 14.434011567,
			"-0.003": 14.3524198107,
			"-0.002": 15.6834987744,
			"-0.001": 15.5694514774,
			"0.0": 9.51606247947,
			"0.001": 12.9268008047,
			"0.002": 21.8480725161,
			"0.003": 12.8411476853,
			"0.004": 8.93463068216,
			"0.005": 11.5771908449,
			"0.006": 16.3490562671,
			"0.007": 12.3948431847,
			"0.008": 8.42981169683,
			"0.009": 0.437278250346,
			"0.01": 0.0,
			"0.011": 0.0,
			"0.012": 0.0,
			"0.013": 0.0,
			"0.014": 0.0,
			"0.015": 0.0,
			"0.016": 0.0,
			"0.017": 0.0,
			"0.018": 0.0,
			"0.019": 0.0,
			"0.02": 0.0,
			"0.021": 0.0,
			"0.022": 0.0,
			"0.023": 0.0,
			"0.024": 0.0,
			"0.025": 0.0
		}
	}
}
