{
	 "smiles": "CC1=CC=C(C=C1)C(=O)C=C/C1=CC=C(Cl)C=C1", 
	 "Tm": 395.15, 
	 "num_atms": 31, 
	 "gaussian": { 
		 "optdone": 1, 
		 "sigma_profile": "yes", 
		 "theory": "DFT", 
		 "functional": "B3LYP", 
		 "basiset": "6-31G**", 
		 "properties": { 
			 "R2extent": 6413.4932, 
			 "electric_dipole_moment_norm": 3.00502476695, 
			 "electric_quadrupole_moment_norm": 20.433525398, 
			 "total_energy": -1152.94310676, 
			 "HOMO_LUMO_gap": 0.16512, 
			 "cosmo_polarized_energy": -10.42, 
			 "cosmo_cavitation_energy": 37.26, 
			 "cosmo_dispersion_energy": -25.62, 
			 "cosmo_repulsion_energy": 2.02, 
			 "cosmo_total_nonelectrostatic_energy": 13.66, 
			 "SMD_solvation_energy": 6.5 
		},
		"coords": [
			{
				"x": -5.0470468597,
				"y": 2.6303646735,
				"z": -0.6937662079,
				"element": "C" 
			},
			{
				"x": -3.7580312109,
				"y": 1.9365420474,
				"z": -1.0604820172,
				"element": "C" 
			},
			{
				"x": -3.6153584565,
				"y": 0.5505940617,
				"z": -0.9146803751,
				"element": "C" 
			},
			{
				"x": -2.4154920502,
				"y": -0.0861008793,
				"z": -1.225922156,
				"element": "C" 
			},
			{
				"x": -1.3226438207,
				"y": 0.6538191028,
				"z": -1.6981407557,
				"element": "C" 
			},
			{
				"x": -1.4643210202,
				"y": 2.0423502812,
				"z": -1.8603414497,
				"element": "C" 
			},
			{
				"x": -2.6608312272,
				"y": 2.6708016338,
				"z": -1.5424383024,
				"element": "C" 
			},
			{
				"x": -0.0234249324,
				"y": 0.0271401292,
				"z": -2.0853480884,
				"element": "C" 
			},
			{
				"x": 0.8444870784,
				"y": 0.672617714,
				"z": -2.6644363206,
				"element": "O" 
			},
			{
				"x": 0.2193334226,
				"y": -1.4359791092,
				"z": -1.845464006,
				"element": "C" 
			},
			{
				"x": 0.2873427061,
				"y": -2.1070095591,
				"z": -0.6813875022,
				"element": "C" 
			},
			{
				"x": 0.1449145716,
				"y": -1.5989081268,
				"z": 0.6924854554,
				"element": "C" 
			},
			{
				"x": 0.4719671345,
				"y": -0.2812463343,
				"z": 1.0604726905,
				"element": "C" 
			},
			{
				"x": 0.3256572841,
				"y": 0.1567648469,
				"z": 2.3739511137,
				"element": "C" 
			},
			{
				"x": -0.1455475547,
				"y": -0.7302364469,
				"z": 3.3421382794,
				"element": "C" 
			},
			{
				"x": -0.3310914999,
				"y": -0.1827336391,
				"z": 5.0010385664,
				"element": "Cl" 
			},
			{
				"x": -0.4554124951,
				"y": -2.0505009562,
				"z": 3.0161202205,
				"element": "C" 
			},
			{
				"x": -0.2983959505,
				"y": -2.4749377592,
				"z": 1.6995756658,
				"element": "C" 
			},
			{
				"x": -4.9678336381,
				"y": 3.1097360232,
				"z": 0.2899947063,
				"element": "H" 
			},
			{
				"x": -5.297631565,
				"y": 3.4151916105,
				"z": -1.4145741681,
				"element": "H" 
			},
			{
				"x": -5.883431274,
				"y": 1.92738917,
				"z": -0.6497301555,
				"element": "H" 
			},
			{
				"x": -4.455863142,
				"y": -0.0371952779,
				"z": -0.5547634024,
				"element": "H" 
			},
			{
				"x": -2.3291909017,
				"y": -1.1612223013,
				"z": -1.1119050398,
				"element": "H" 
			},
			{
				"x": -0.6184667667,
				"y": 2.6041683101,
				"z": -2.242845065,
				"element": "H" 
			},
			{
				"x": -2.7546491791,
				"y": 3.7464027025,
				"z": -1.6712731172,
				"element": "H" 
			},
			{
				"x": 0.4564415885,
				"y": -1.9781593043,
				"z": -2.7590448651,
				"element": "H" 
			},
			{
				"x": 0.4936330115,
				"y": -3.1752441715,
				"z": -0.7462048102,
				"element": "H" 
			},
			{
				"x": 0.8741283747,
				"y": 0.40265203,
				"z": 0.3213264289,
				"element": "H" 
			},
			{
				"x": 0.5856272225,
				"y": 1.1729745901,
				"z": 2.6486213937,
				"element": "H" 
			},
			{
				"x": -0.807589613,
				"y": -2.7325648626,
				"z": 3.7819843718,
				"element": "H" 
			},
			{
				"x": -0.5345792368,
				"y": -3.5045701994,
				"z": 1.4439389122,
				"element": "H" 
			}
		],
		 "valence_orbital": [ 
			{
				"type": "occ",
				"energy": -0.26911,
				"method": "rhf"
			},
			{
				"type": "occ",
				"energy": -0.25828,
				"method": "rhf"
			},
			{
				"type": "occ",
				"energy": -0.25496,
				"method": "rhf"
			},
			{
				"type": "occ",
				"energy": -0.24717,
				"method": "rhf"
			},
			{
				"type": "occ",
				"energy": -0.23095,
				"method": "rhf"
			},
			{
				"type": "unocc",
				"energy": -0.06583,
				"method": "rhf"
			},
			{
				"type": "unocc",
				"energy": -0.04003,
				"method": "rhf"
			},
			{
				"type": "unocc",
				"energy": -0.01767,
				"method": "rhf"
			},
			{
				"type": "unocc",
				"energy": -0.0067,
				"method": "rhf"
			},
			{
				"type": "unocc",
				"energy": 0.02404,
				"method": "rhf"
			}
		],
		"cosmo_sigma_profile": { 
			"-0.025": 0.0,
			"-0.024": 0.0,
			"-0.023": 0.0,
			"-0.022": 0.0,
			"-0.021": 0.0,
			"-0.02": 0.0,
			"-0.019": 0.0,
			"-0.018": 0.0,
			"-0.017": 0.0,
			"-0.016": 0.0,
			"-0.015": 0.0,
			"-0.014": 0.0,
			"-0.013": 0.0,
			"-0.012": 0.0,
			"-0.011": 0.0,
			"-0.01": 0.0,
			"-0.009": 0.0,
			"-0.008": 0.703733406982,
			"-0.007": 9.42691930634,
			"-0.006": 15.2793795867,
			"-0.005": 20.9481473996,
			"-0.004": 24.6868900939,
			"-0.003": 22.1056462868,
			"-0.002": 22.9486946947,
			"-0.001": 25.3846942684,
			"0.0": 24.6463459903,
			"0.001": 24.1927250023,
			"0.002": 25.6481096751,
			"0.003": 28.7544996905,
			"0.004": 27.2634149542,
			"0.005": 10.6482743356,
			"0.006": 1.78488336751,
			"0.007": 1.94607413234,
			"0.008": 1.44459422044,
			"0.009": 1.31413089163,
			"0.01": 2.13167244447,
			"0.011": 3.09151063742,
			"0.012": 4.10526467414,
			"0.013": 1.82178002842,
			"0.014": 0.151219169162,
			"0.015": 0.0,
			"0.016": 0.0,
			"0.017": 0.0,
			"0.018": 0.0,
			"0.019": 0.0,
			"0.02": 0.0,
			"0.021": 0.0,
			"0.022": 0.0,
			"0.023": 0.0,
			"0.024": 0.0,
			"0.025": 0.0
		}
	}
}
