{
	 "smiles": "CCCC(C)CCC", 
	 "Tm": 152.15, 
	 "num_atms": 26, 
	 "gaussian": { 
		 "optdone": 1, 
		 "sigma_profile": "yes", 
		 "theory": "DFT", 
		 "functional": "B3LYP", 
		 "basiset": "6-31G**", 
		 "properties": { 
			 "R2extent": 1978.4012, 
			 "electric_dipole_moment_norm": 0.0889270487535, 
			 "electric_quadrupole_moment_norm": 0.811276192181, 
			 "total_energy": -315.724314765, 
			 "HOMO_LUMO_gap": 0.3759, 
			 "cosmo_polarized_energy": -0.67, 
			 "cosmo_cavitation_energy": 25.9, 
			 "cosmo_dispersion_energy": -18.59, 
			 "cosmo_repulsion_energy": 1.57, 
			 "cosmo_total_nonelectrostatic_energy": 8.87, 
			 "SMD_solvation_energy": 4.2 
		},
		"coords": [
			{
				"x": -2.5918264356,
				"y": -2.159718554,
				"z": 2.2164392021,
				"element": "C" 
			},
			{
				"x": -2.8481956952,
				"y": -0.7324561455,
				"z": 1.7126659261,
				"element": "C" 
			},
			{
				"x": -2.6186079386,
				"y": -0.5151477467,
				"z": 0.1992771952,
				"element": "C" 
			},
			{
				"x": -1.1949712308,
				"y": -0.1312810809,
				"z": -0.275435746,
				"element": "C" 
			},
			{
				"x": -0.1384722931,
				"y": -1.2059056599,
				"z": 0.0305063747,
				"element": "C" 
			},
			{
				"x": -0.7766054838,
				"y": 1.2615916967,
				"z": 0.241699533,
				"element": "C" 
			},
			{
				"x": 0.4805771282,
				"y": 1.8482216639,
				"z": -0.4166175969,
				"element": "C" 
			},
			{
				"x": 0.7920876909,
				"y": 3.2712052019,
				"z": 0.0598000001,
				"element": "C" 
			},
			{
				"x": -1.5502248043,
				"y": -2.4667510736,
				"z": 2.089964384,
				"element": "H" 
			},
			{
				"x": -3.2147804182,
				"y": -2.881303807,
				"z": 1.6750032677,
				"element": "H" 
			},
			{
				"x": -2.8349641416,
				"y": -2.2480677443,
				"z": 3.2810266239,
				"element": "H" 
			},
			{
				"x": -2.2444585612,
				"y": -0.0228457282,
				"z": 2.2921551214,
				"element": "H" 
			},
			{
				"x": -3.891671186,
				"y": -0.4787712511,
				"z": 1.9384050625,
				"element": "H" 
			},
			{
				"x": -3.2935641953,
				"y": 0.2811289604,
				"z": -0.1415074093,
				"element": "H" 
			},
			{
				"x": -2.9345390772,
				"y": -1.4213694663,
				"z": -0.3365332641,
				"element": "H" 
			},
			{
				"x": -1.264886012,
				"y": -0.0526494687,
				"z": -1.3715603903,
				"element": "H" 
			},
			{
				"x": 0.0826785018,
				"y": -1.2593105072,
				"z": 1.1023819509,
				"element": "H" 
			},
			{
				"x": -0.4767187667,
				"y": -2.196782509,
				"z": -0.2913511579,
				"element": "H" 
			},
			{
				"x": 0.8037435613,
				"y": -0.9984493967,
				"z": -0.4861215109,
				"element": "H" 
			},
			{
				"x": -1.6107175429,
				"y": 1.9595177823,
				"z": 0.08036085,
				"element": "H" 
			},
			{
				"x": -0.6215429005,
				"y": 1.2227866927,
				"z": 1.3292400088,
				"element": "H" 
			},
			{
				"x": 0.3501373241,
				"y": 1.8485690693,
				"z": -1.5077810875,
				"element": "H" 
			},
			{
				"x": 1.3457925617,
				"y": 1.2052183987,
				"z": -0.213830476,
				"element": "H" 
			},
			{
				"x": -0.0349763403,
				"y": 3.954742142,
				"z": -0.1642986614,
				"element": "H" 
			},
			{
				"x": 0.9569573234,
				"y": 3.2991201296,
				"z": 1.1431296332,
				"element": "H" 
			},
			{
				"x": 1.6914489319,
				"y": 3.6679084015,
				"z": -0.4228178333,
				"element": "H" 
			}
		],
		 "valence_orbital": [ 
			{
				"type": "occ",
				"energy": -0.32659,
				"method": "rhf"
			},
			{
				"type": "occ",
				"energy": -0.32104,
				"method": "rhf"
			},
			{
				"type": "occ",
				"energy": -0.30678,
				"method": "rhf"
			},
			{
				"type": "occ",
				"energy": -0.29928,
				"method": "rhf"
			},
			{
				"type": "occ",
				"energy": -0.29482,
				"method": "rhf"
			},
			{
				"type": "unocc",
				"energy": 0.08108,
				"method": "rhf"
			},
			{
				"type": "unocc",
				"energy": 0.1069,
				"method": "rhf"
			},
			{
				"type": "unocc",
				"energy": 0.10969,
				"method": "rhf"
			},
			{
				"type": "unocc",
				"energy": 0.12411,
				"method": "rhf"
			},
			{
				"type": "unocc",
				"energy": 0.13547,
				"method": "rhf"
			}
		],
		"cosmo_sigma_profile": { 
			"-0.025": 0.0,
			"-0.024": 0.0,
			"-0.023": 0.0,
			"-0.022": 0.0,
			"-0.021": 0.0,
			"-0.02": 0.0,
			"-0.019": 0.0,
			"-0.018": 0.0,
			"-0.017": 0.0,
			"-0.016": 0.0,
			"-0.015": 0.0,
			"-0.014": 0.0,
			"-0.013": 0.0,
			"-0.012": 0.0,
			"-0.011": 0.0,
			"-0.01": 0.0,
			"-0.009": 0.0,
			"-0.008": 0.0,
			"-0.007": 0.0,
			"-0.006": 0.0,
			"-0.005": 0.0,
			"-0.004": 0.0,
			"-0.003": 2.80832740378,
			"-0.002": 26.3328404537,
			"-0.001": 43.8132952123,
			"0.0": 49.8555339097,
			"0.001": 46.8132382312,
			"0.002": 26.8546172825,
			"0.003": 1.51780230183,
			"0.004": 0.0,
			"0.005": 0.0,
			"0.006": 0.0,
			"0.007": 0.0,
			"0.008": 0.0,
			"0.009": 0.0,
			"0.01": 0.0,
			"0.011": 0.0,
			"0.012": 0.0,
			"0.013": 0.0,
			"0.014": 0.0,
			"0.015": 0.0,
			"0.016": 0.0,
			"0.017": 0.0,
			"0.018": 0.0,
			"0.019": 0.0,
			"0.02": 0.0,
			"0.021": 0.0,
			"0.022": 0.0,
			"0.023": 0.0,
			"0.024": 0.0,
			"0.025": 0.0
		}
	}
}
