{
	 "smiles": "OCCC1NC(=O)C(CCO)NC1=O", 
	 "Tm": 463.15, 
	 "num_atms": 28, 
	 "gaussian": { 
		 "optdone": 1, 
		 "sigma_profile": "yes", 
		 "theory": "DFT", 
		 "functional": "B3LYP", 
		 "basiset": "6-31G**", 
		 "properties": { 
			 "R2extent": 4345.3668, 
			 "electric_dipole_moment_norm": 1.52778356124, 
			 "electric_quadrupole_moment_norm": 14.1118385918, 
			 "total_energy": -723.692312478, 
			 "HOMO_LUMO_gap": 0.25789, 
			 "cosmo_polarized_energy": -24.57, 
			 "cosmo_cavitation_energy": 30.75, 
			 "cosmo_dispersion_energy": -22.36, 
			 "cosmo_repulsion_energy": 1.82, 
			 "cosmo_total_nonelectrostatic_energy": 10.21, 
			 "SMD_solvation_energy": 5.33 
		},
		"coords": [
			{
				"x": -2.6221680168,
				"y": -3.0819215363,
				"z": -0.8735673992,
				"element": "O" 
			},
			{
				"x": -1.4803365032,
				"y": -2.3515367788,
				"z": -0.4410854379,
				"element": "C" 
			},
			{
				"x": -1.7084422191,
				"y": -0.900168133,
				"z": -0.8552849781,
				"element": "C" 
			},
			{
				"x": -0.5171073109,
				"y": 0.0351174708,
				"z": -0.612621753,
				"element": "C" 
			},
			{
				"x": 0.644139018,
				"y": -0.3705316079,
				"z": -1.4048406996,
				"element": "N" 
			},
			{
				"x": 1.9456087655,
				"y": -0.0584931865,
				"z": -1.1554376399,
				"element": "C" 
			},
			{
				"x": 2.8441643049,
				"y": -0.2964279354,
				"z": -1.9535608995,
				"element": "O" 
			},
			{
				"x": 2.2116120476,
				"y": 0.6358794924,
				"z": 0.1868748259,
				"element": "C" 
			},
			{
				"x": 3.5762293843,
				"y": 0.2617079311,
				"z": 0.7853261917,
				"element": "C" 
			},
			{
				"x": 4.7780225807,
				"y": 0.8590586176,
				"z": 0.0574983926,
				"element": "C" 
			},
			{
				"x": 5.9067353549,
				"y": 0.6467587974,
				"z": 0.8997854335,
				"element": "O" 
			},
			{
				"x": 1.1553617252,
				"y": 0.3281697064,
				"z": 1.1520127737,
				"element": "N" 
			},
			{
				"x": -0.1634643347,
				"y": 0.1310387863,
				"z": 0.877343206,
				"element": "C" 
			},
			{
				"x": -1.020105771,
				"y": 0.0482255955,
				"z": 1.7477345665,
				"element": "O" 
			},
			{
				"x": -2.5517402684,
				"y": -3.9798942793,
				"z": -0.5278352477,
				"element": "H" 
			},
			{
				"x": -1.3564286148,
				"y": -2.4015217653,
				"z": 0.6494087178,
				"element": "H" 
			},
			{
				"x": -0.5592059395,
				"y": -2.7409578175,
				"z": -0.9033045875,
				"element": "H" 
			},
			{
				"x": -2.5629767499,
				"y": -0.5048357052,
				"z": -0.3015444004,
				"element": "H" 
			},
			{
				"x": -1.9696204297,
				"y": -0.875735879,
				"z": -1.9206976848,
				"element": "H" 
			},
			{
				"x": -0.8334832037,
				"y": 1.0501295149,
				"z": -0.9067009592,
				"element": "H" 
			},
			{
				"x": 0.4776530719,
				"y": -0.7500459542,
				"z": -2.3291988805,
				"element": "H" 
			},
			{
				"x": 2.2161085238,
				"y": 1.7186141405,
				"z": -0.0316042887,
				"element": "H" 
			},
			{
				"x": 3.6759402226,
				"y": -0.8271649786,
				"z": 0.8341407606,
				"element": "H" 
			},
			{
				"x": 3.6089235976,
				"y": 0.6357112059,
				"z": 1.8171152159,
				"element": "H" 
			},
			{
				"x": 4.8944385006,
				"y": 0.3823202016,
				"z": -0.9205319713,
				"element": "H" 
			},
			{
				"x": 4.607420226,
				"y": 1.9368497092,
				"z": -0.1122087539,
				"element": "H" 
			},
			{
				"x": 6.700732792,
				"y": 0.8358600441,
				"z": 0.3856651934,
				"element": "H" 
			},
			{
				"x": 1.3624892461,
				"y": 0.4606943433,
				"z": 2.1345203039,
				"element": "H" 
			}
		],
		 "valence_orbital": [ 
			{
				"type": "occ",
				"energy": -0.27761,
				"method": "rhf"
			},
			{
				"type": "occ",
				"energy": -0.26692,
				"method": "rhf"
			},
			{
				"type": "occ",
				"energy": -0.26332,
				"method": "rhf"
			},
			{
				"type": "occ",
				"energy": -0.25827,
				"method": "rhf"
			},
			{
				"type": "occ",
				"energy": -0.24958,
				"method": "rhf"
			},
			{
				"type": "unocc",
				"energy": 0.00831,
				"method": "rhf"
			},
			{
				"type": "unocc",
				"energy": 0.00988,
				"method": "rhf"
			},
			{
				"type": "unocc",
				"energy": 0.06763,
				"method": "rhf"
			},
			{
				"type": "unocc",
				"energy": 0.0753,
				"method": "rhf"
			},
			{
				"type": "unocc",
				"energy": 0.07893,
				"method": "rhf"
			}
		],
		"cosmo_sigma_profile": { 
			"-0.025": 0.0,
			"-0.024": 0.0,
			"-0.023": 0.0,
			"-0.022": 0.0,
			"-0.021": 0.0,
			"-0.02": 0.0,
			"-0.019": 0.0,
			"-0.018": 0.0,
			"-0.017": 0.0,
			"-0.016": 0.636479789315,
			"-0.015": 2.16201905363,
			"-0.014": 3.7914076007,
			"-0.013": 4.01360192103,
			"-0.012": 3.68801743561,
			"-0.011": 3.82454608815,
			"-0.01": 4.32648644404,
			"-0.009": 4.40202952208,
			"-0.008": 5.99856145067,
			"-0.007": 11.3078138281,
			"-0.006": 11.7168227093,
			"-0.005": 11.4521166666,
			"-0.004": 15.6738194522,
			"-0.003": 17.5398264308,
			"-0.002": 18.1927359157,
			"-0.001": 15.0270106859,
			"0.0": 10.6365284298,
			"0.001": 8.32180232161,
			"0.002": 7.86929903084,
			"0.003": 7.19311074792,
			"0.004": 5.35855992921,
			"0.005": 4.70039697331,
			"0.006": 5.80758221099,
			"0.007": 5.7067407731,
			"0.008": 4.39050573894,
			"0.009": 5.92739094854,
			"0.01": 5.26613443499,
			"0.011": 4.91307510657,
			"0.012": 7.37482864995,
			"0.013": 11.9340275918,
			"0.014": 8.53269882651,
			"0.015": 0.811000366248,
			"0.016": 0.0,
			"0.017": 0.0,
			"0.018": 0.0,
			"0.019": 0.0,
			"0.02": 0.0,
			"0.021": 0.0,
			"0.022": 0.0,
			"0.023": 0.0,
			"0.024": 0.0,
			"0.025": 0.0
		}
	}
}
