{
	 "smiles": "O=C1CSCC(=O)O1", 
	 "Tm": 368.65, 
	 "num_atms": 12, 
	 "gaussian": { 
		 "optdone": 1, 
		 "sigma_profile": "yes", 
		 "theory": "DFT", 
		 "functional": "B3LYP", 
		 "basiset": "6-31G**", 
		 "properties": { 
			 "R2extent": 1940.336, 
			 "electric_dipole_moment_norm": 2.64947396666, 
			 "electric_quadrupole_moment_norm": 11.6930514456, 
			 "total_energy": -778.688283233, 
			 "HOMO_LUMO_gap": 0.20333, 
			 "cosmo_polarized_energy": -11.64, 
			 "cosmo_cavitation_energy": 18.01, 
			 "cosmo_dispersion_energy": -14.14, 
			 "cosmo_repulsion_energy": 1.14, 
			 "cosmo_total_nonelectrostatic_energy": 5.02, 
			 "SMD_solvation_energy": 4.68 
		},
		"coords": [
			{
				"x": -0.0862326382,
				"y": -0.0107136956,
				"z": 1.5080779065,
				"element": "O" 
			},
			{
				"x": 0.5765168463,
				"y": 0.7935494452,
				"z": 0.9178869815,
				"element": "C" 
			},
			{
				"x": 1.7149635274,
				"y": 0.4779878362,
				"z": -0.0259064746,
				"element": "C" 
			},
			{
				"x": 1.5084256025,
				"y": 1.2492411721,
				"z": -1.6886393961,
				"element": "S" 
			},
			{
				"x": 0.465174826,
				"y": 2.6941409481,
				"z": -1.2130369955,
				"element": "C" 
			},
			{
				"x": 0.6731682808,
				"y": 3.1274097696,
				"z": 0.2206413912,
				"element": "C" 
			},
			{
				"x": 0.9632416193,
				"y": 4.2315824002,
				"z": 0.5826701927,
				"element": "O" 
			},
			{
				"x": 0.3926539577,
				"y": 2.1473396808,
				"z": 1.1625139632,
				"element": "O" 
			},
			{
				"x": 2.6487389967,
				"y": 0.8304121755,
				"z": 0.4241603953,
				"element": "H" 
			},
			{
				"x": 1.7601127085,
				"y": -0.6016684134,
				"z": -0.1619269626,
				"element": "H" 
			},
			{
				"x": 0.7286249309,
				"y": 3.5254480312,
				"z": -1.8655059564,
				"element": "H" 
			},
			{
				"x": -0.590888658,
				"y": 2.44017065,
				"z": -1.3506350451,
				"element": "H" 
			}
		],
		 "valence_orbital": [ 
			{
				"type": "occ",
				"energy": -0.36786,
				"method": "rhf"
			},
			{
				"type": "occ",
				"energy": -0.34251,
				"method": "rhf"
			},
			{
				"type": "occ",
				"energy": -0.31258,
				"method": "rhf"
			},
			{
				"type": "occ",
				"energy": -0.30459,
				"method": "rhf"
			},
			{
				"type": "occ",
				"energy": -0.25729,
				"method": "rhf"
			},
			{
				"type": "unocc",
				"energy": -0.05396,
				"method": "rhf"
			},
			{
				"type": "unocc",
				"energy": -0.03223,
				"method": "rhf"
			},
			{
				"type": "unocc",
				"energy": 0.01497,
				"method": "rhf"
			},
			{
				"type": "unocc",
				"energy": 0.02994,
				"method": "rhf"
			},
			{
				"type": "unocc",
				"energy": 0.08863,
				"method": "rhf"
			}
		],
		"cosmo_sigma_profile": { 
			"-0.025": 0.0,
			"-0.024": 0.0,
			"-0.023": 0.0,
			"-0.022": 0.0,
			"-0.021": 0.0,
			"-0.02": 0.0,
			"-0.019": 0.0,
			"-0.018": 0.0,
			"-0.017": 0.0,
			"-0.016": 0.0,
			"-0.015": 0.0,
			"-0.014": 0.0,
			"-0.013": 0.0,
			"-0.012": 0.0,
			"-0.011": 1.77858786112,
			"-0.01": 5.35118899798,
			"-0.009": 9.21523909308,
			"-0.008": 7.49765756158,
			"-0.007": 8.6825855125,
			"-0.006": 8.70442369437,
			"-0.005": 8.87289518569,
			"-0.004": 5.82461914138,
			"-0.003": 5.55688779217,
			"-0.002": 4.2771621554,
			"-0.001": 5.76177403739,
			"0.0": 4.79458845122,
			"0.001": 4.40213527796,
			"0.002": 7.10440839644,
			"0.003": 5.30599484954,
			"0.004": 4.95524073134,
			"0.005": 6.75180353238,
			"0.006": 7.06277095062,
			"0.007": 8.50108116175,
			"0.008": 6.65132078407,
			"0.009": 9.55727094864,
			"0.01": 8.4584254389,
			"0.011": 0.935086830494,
			"0.012": 0.0,
			"0.013": 0.0,
			"0.014": 0.0,
			"0.015": 0.0,
			"0.016": 0.0,
			"0.017": 0.0,
			"0.018": 0.0,
			"0.019": 0.0,
			"0.02": 0.0,
			"0.021": 0.0,
			"0.022": 0.0,
			"0.023": 0.0,
			"0.024": 0.0,
			"0.025": 0.0
		}
	}
}
