{
	 "smiles": "FC1=CC=C(C=C1)C1=NOC(CCl)C1", 
	 "Tm": 333.15, 
	 "num_atms": 23, 
	 "gaussian": { 
		 "optdone": 1, 
		 "sigma_profile": "yes", 
		 "theory": "DFT", 
		 "functional": "B3LYP", 
		 "basiset": "6-31G**", 
		 "properties": { 
			 "R2extent": 5032.425, 
			 "electric_dipole_moment_norm": 1.36047568152, 
			 "electric_quadrupole_moment_norm": 7.67303059814, 
			 "total_energy": -1076.4413126, 
			 "HOMO_LUMO_gap": 0.17894, 
			 "cosmo_polarized_energy": -10.38, 
			 "cosmo_cavitation_energy": 29.29, 
			 "cosmo_dispersion_energy": -21.44, 
			 "cosmo_repulsion_energy": 1.67, 
			 "cosmo_total_nonelectrostatic_energy": 9.52, 
			 "SMD_solvation_energy": 4.53 
		},
		"coords": [
			{
				"x": 0.2703465776,
				"y": 1.6796818847,
				"z": -4.4637421575,
				"element": "F" 
			},
			{
				"x": 0.3955366805,
				"y": 0.8872728678,
				"z": -3.381446747,
				"element": "C" 
			},
			{
				"x": 1.3960863819,
				"y": -0.0828900194,
				"z": -3.3675775253,
				"element": "C" 
			},
			{
				"x": 1.5242799832,
				"y": -0.8986062848,
				"z": -2.2509235611,
				"element": "C" 
			},
			{
				"x": 0.6605534785,
				"y": -0.7521714833,
				"z": -1.147567924,
				"element": "C" 
			},
			{
				"x": -0.3353864265,
				"y": 0.2363734086,
				"z": -1.1966806604,
				"element": "C" 
			},
			{
				"x": -0.4743650216,
				"y": 1.0606949696,
				"z": -2.3127983822,
				"element": "C" 
			},
			{
				"x": 0.794957115,
				"y": -1.6191355762,
				"z": 0.029447838,
				"element": "C" 
			},
			{
				"x": 1.6840938195,
				"y": -2.5490196981,
				"z": 0.0823934727,
				"element": "N" 
			},
			{
				"x": 1.5880673032,
				"y": -3.2378927719,
				"z": 1.2952946208,
				"element": "O" 
			},
			{
				"x": 0.6624458086,
				"y": -2.5427010577,
				"z": 2.1781290602,
				"element": "C" 
			},
			{
				"x": 1.5220725016,
				"y": -1.8887778496,
				"z": 3.2581826103,
				"element": "C" 
			},
			{
				"x": 0.4933591954,
				"y": -1.08685608,
				"z": 4.5204392806,
				"element": "Cl" 
			},
			{
				"x": -0.0787690062,
				"y": -1.5587236601,
				"z": 1.265408947,
				"element": "C" 
			},
			{
				"x": 2.0542273968,
				"y": -0.1843130076,
				"z": -4.2236726787,
				"element": "H" 
			},
			{
				"x": 2.2946805405,
				"y": -1.6609844833,
				"z": -2.2170401394,
				"element": "H" 
			},
			{
				"x": -1.0135381063,
				"y": 0.3688902416,
				"z": -0.3597812341,
				"element": "H" 
			},
			{
				"x": -1.2399563935,
				"y": 1.8270688579,
				"z": -2.361882872,
				"element": "H" 
			},
			{
				"x": 0.0073426637,
				"y": -3.2950064817,
				"z": 2.6243749418,
				"element": "H" 
			},
			{
				"x": 2.1298291892,
				"y": -2.6371295393,
				"z": 3.7662175141,
				"element": "H" 
			},
			{
				"x": 2.170537678,
				"y": -1.1212171576,
				"z": 2.8321387542,
				"element": "H" 
			},
			{
				"x": -1.1005121417,
				"y": -1.8812614467,
				"z": 1.0350048222,
				"element": "H" 
			},
			{
				"x": -0.1421892174,
				"y": -0.5560956331,
				"z": 1.6984820199,
				"element": "H" 
			}
		],
		 "valence_orbital": [ 
			{
				"type": "occ",
				"energy": -0.3067,
				"method": "rhf"
			},
			{
				"type": "occ",
				"energy": -0.29682,
				"method": "rhf"
			},
			{
				"type": "occ",
				"energy": -0.28285,
				"method": "rhf"
			},
			{
				"type": "occ",
				"energy": -0.27213,
				"method": "rhf"
			},
			{
				"type": "occ",
				"energy": -0.22834,
				"method": "rhf"
			},
			{
				"type": "unocc",
				"energy": -0.0494,
				"method": "rhf"
			},
			{
				"type": "unocc",
				"energy": -0.02092,
				"method": "rhf"
			},
			{
				"type": "unocc",
				"energy": 0.01325,
				"method": "rhf"
			},
			{
				"type": "unocc",
				"energy": 0.04096,
				"method": "rhf"
			},
			{
				"type": "unocc",
				"energy": 0.0751,
				"method": "rhf"
			}
		],
		"cosmo_sigma_profile": { 
			"-0.025": 0.0,
			"-0.024": 0.0,
			"-0.023": 0.0,
			"-0.022": 0.0,
			"-0.021": 0.0,
			"-0.02": 0.0,
			"-0.019": 0.0,
			"-0.018": 0.0,
			"-0.017": 0.0,
			"-0.016": 0.0,
			"-0.015": 0.0,
			"-0.014": 0.0,
			"-0.013": 0.0,
			"-0.012": 0.0,
			"-0.011": 0.0,
			"-0.01": 0.0,
			"-0.009": 0.0,
			"-0.008": 3.70484989484,
			"-0.007": 17.7486934496,
			"-0.006": 21.5005082857,
			"-0.005": 15.8022276477,
			"-0.004": 13.3455461473,
			"-0.003": 10.9414578401,
			"-0.002": 9.22298022103,
			"-0.001": 12.2873920652,
			"0.0": 15.622387317,
			"0.001": 17.5691085541,
			"0.002": 19.9659144719,
			"0.003": 22.064761375,
			"0.004": 19.2073159153,
			"0.005": 10.2423431059,
			"0.006": 9.46579550024,
			"0.007": 2.34567660207,
			"0.008": 1.96066093074,
			"0.009": 2.7094894051,
			"0.01": 5.142106662,
			"0.011": 3.54384916927,
			"0.012": 1.14757686436,
			"0.013": 0.571111403521,
			"0.014": 0.0,
			"0.015": 0.0,
			"0.016": 0.0,
			"0.017": 0.0,
			"0.018": 0.0,
			"0.019": 0.0,
			"0.02": 0.0,
			"0.021": 0.0,
			"0.022": 0.0,
			"0.023": 0.0,
			"0.024": 0.0,
			"0.025": 0.0
		}
	}
}
