{
	 "smiles": "O=C(OC1=CC=CC=C1)OC1=CC=CC=C1", 
	 "Tm": 354.15, 
	 "num_atms": 26, 
	 "gaussian": { 
		 "optdone": 1, 
		 "sigma_profile": "yes", 
		 "theory": "DFT", 
		 "functional": "B3LYP", 
		 "basiset": "6-31G**", 
		 "properties": { 
			 "R2extent": 5138.2162, 
			 "electric_dipole_moment_norm": 3.41406906345, 
			 "electric_quadrupole_moment_norm": 16.7290334975, 
			 "total_energy": -727.080302086, 
			 "HOMO_LUMO_gap": 0.22885, 
			 "cosmo_polarized_energy": -9.91, 
			 "cosmo_cavitation_energy": 31.67, 
			 "cosmo_dispersion_energy": -22.37, 
			 "cosmo_repulsion_energy": 1.76, 
			 "cosmo_total_nonelectrostatic_energy": 11.06, 
			 "SMD_solvation_energy": 7.16 
		},
		"coords": [
			{
				"x": -2.3068130995,
				"y": 3.4425623727,
				"z": 0.1085892155,
				"element": "O" 
			},
			{
				"x": -2.0516392327,
				"y": 2.2869158254,
				"z": 0.3110590036,
				"element": "C" 
			},
			{
				"x": -2.8840894622,
				"y": 1.4846540984,
				"z": 1.0128079563,
				"element": "O" 
			},
			{
				"x": -2.5924684446,
				"y": 0.1316206678,
				"z": 1.2385818174,
				"element": "C" 
			},
			{
				"x": -1.8411831072,
				"y": -0.2285412312,
				"z": 2.3536329924,
				"element": "C" 
			},
			{
				"x": -1.6336911791,
				"y": -1.5828899178,
				"z": 2.6180339413,
				"element": "C" 
			},
			{
				"x": -2.1778116567,
				"y": -2.5567690209,
				"z": 1.7774279538,
				"element": "C" 
			},
			{
				"x": -2.9359237802,
				"y": -2.1750472678,
				"z": 0.6684682075,
				"element": "C" 
			},
			{
				"x": -3.1495286476,
				"y": -0.8233305356,
				"z": 0.3932831176,
				"element": "C" 
			},
			{
				"x": -0.9532004661,
				"y": 1.6039294729,
				"z": -0.0958490143,
				"element": "O" 
			},
			{
				"x": 0.0484142091,
				"y": 2.2348242577,
				"z": -0.843763799,
				"element": "C" 
			},
			{
				"x": 0.519083967,
				"y": 3.5157183836,
				"z": -0.5592214086,
				"element": "C" 
			},
			{
				"x": 1.5760801559,
				"y": 4.0198808182,
				"z": -1.3194036715,
				"element": "C" 
			},
			{
				"x": 2.1546216629,
				"y": 3.2573621233,
				"z": -2.3356950366,
				"element": "C" 
			},
			{
				"x": 1.6721351624,
				"y": 1.9736342585,
				"z": -2.5980747812,
				"element": "C" 
			},
			{
				"x": 0.6138307111,
				"y": 1.4564448239,
				"z": -1.8514492076,
				"element": "C" 
			},
			{
				"x": -1.4343503636,
				"y": 0.5429396956,
				"z": 2.9989421492,
				"element": "H" 
			},
			{
				"x": -1.0483369895,
				"y": -1.875586505,
				"z": 3.4845608381,
				"element": "H" 
			},
			{
				"x": -2.0157411172,
				"y": -3.6092915521,
				"z": 1.9889421169,
				"element": "H" 
			},
			{
				"x": -3.3662148583,
				"y": -2.9289480698,
				"z": 0.015977784,
				"element": "H" 
			},
			{
				"x": -3.7430244865,
				"y": -0.5041589964,
				"z": -0.4570988926,
				"element": "H" 
			},
			{
				"x": 0.0608753345,
				"y": 4.108017118,
				"z": 0.2213986407,
				"element": "H" 
			},
			{
				"x": 1.9475528791,
				"y": 5.0186325093,
				"z": -1.1100455006,
				"element": "H" 
			},
			{
				"x": 2.9766400246,
				"y": 3.6609563246,
				"z": -2.9189434056,
				"element": "H" 
			},
			{
				"x": 2.1168794667,
				"y": 1.3713330993,
				"z": -3.3845955012,
				"element": "H" 
			},
			{
				"x": 0.2223033178,
				"y": 0.4610372474,
				"z": -2.0323655154,
				"element": "H" 
			}
		],
		 "valence_orbital": [ 
			{
				"type": "occ",
				"energy": -0.29713,
				"method": "rhf"
			},
			{
				"type": "occ",
				"energy": -0.26323,
				"method": "rhf"
			},
			{
				"type": "occ",
				"energy": -0.25793,
				"method": "rhf"
			},
			{
				"type": "occ",
				"energy": -0.25392,
				"method": "rhf"
			},
			{
				"type": "occ",
				"energy": -0.24417,
				"method": "rhf"
			},
			{
				"type": "unocc",
				"energy": -0.01532,
				"method": "rhf"
			},
			{
				"type": "unocc",
				"energy": -0.01147,
				"method": "rhf"
			},
			{
				"type": "unocc",
				"energy": -0.00816,
				"method": "rhf"
			},
			{
				"type": "unocc",
				"energy": -0.0047,
				"method": "rhf"
			},
			{
				"type": "unocc",
				"energy": 0.03773,
				"method": "rhf"
			}
		],
		"cosmo_sigma_profile": { 
			"-0.025": 0.0,
			"-0.024": 0.0,
			"-0.023": 0.0,
			"-0.022": 0.0,
			"-0.021": 0.0,
			"-0.02": 0.0,
			"-0.019": 0.0,
			"-0.018": 0.0,
			"-0.017": 0.0,
			"-0.016": 0.0,
			"-0.015": 0.0,
			"-0.014": 0.0,
			"-0.013": 0.0,
			"-0.012": 0.0,
			"-0.011": 0.0,
			"-0.01": 0.0,
			"-0.009": 0.0,
			"-0.008": 0.301785891959,
			"-0.007": 7.61280793632,
			"-0.006": 21.1395487816,
			"-0.005": 24.3100533132,
			"-0.004": 23.6674000294,
			"-0.003": 16.0137320484,
			"-0.002": 15.2576339585,
			"-0.001": 13.2817049195,
			"0.0": 13.7165039806,
			"0.001": 17.3144710116,
			"0.002": 19.9505847188,
			"0.003": 19.6455547995,
			"0.004": 24.2606712635,
			"0.005": 14.7337157507,
			"0.006": 4.30981077489,
			"0.007": 3.61489878205,
			"0.008": 4.11326577695,
			"0.009": 2.7064350446,
			"0.01": 3.73732951605,
			"0.011": 4.40948293275,
			"0.012": 0.951795641067,
			"0.013": 0.0,
			"0.014": 0.0,
			"0.015": 0.0,
			"0.016": 0.0,
			"0.017": 0.0,
			"0.018": 0.0,
			"0.019": 0.0,
			"0.02": 0.0,
			"0.021": 0.0,
			"0.022": 0.0,
			"0.023": 0.0,
			"0.024": 0.0,
			"0.025": 0.0
		}
	}
}
