{
	 "smiles": "COC1=NC(Cl)=CC(=C1)C(O)=O", 
	 "Tm": 488.15, 
	 "num_atms": 18, 
	 "gaussian": { 
		 "optdone": 1, 
		 "sigma_profile": "yes", 
		 "theory": "DFT", 
		 "functional": "B3LYP", 
		 "basiset": "6-31G**", 
		 "properties": { 
			 "R2extent": 2828.9728, 
			 "electric_dipole_moment_norm": 2.84447896635, 
			 "electric_quadrupole_moment_norm": 7.40820422437, 
			 "total_energy": -1010.98669737, 
			 "HOMO_LUMO_gap": 0.17181, 
			 "cosmo_polarized_energy": -10.04, 
			 "cosmo_cavitation_energy": 25.31, 
			 "cosmo_dispersion_energy": -18.81, 
			 "cosmo_repulsion_energy": 1.52, 
			 "cosmo_total_nonelectrostatic_energy": 8.03, 
			 "SMD_solvation_energy": 5.45 
		},
		"coords": [
			{
				"x": 2.8536302624,
				"y": 0.8177363216,
				"z": 1.6075108677,
				"element": "C" 
			},
			{
				"x": 2.2539009567,
				"y": 0.1068591675,
				"z": 0.516692951,
				"element": "O" 
			},
			{
				"x": 0.9105234876,
				"y": 0.0857226703,
				"z": 0.4580251632,
				"element": "C" 
			},
			{
				"x": 0.2035717544,
				"y": 0.7130516355,
				"z": 1.3959616889,
				"element": "N" 
			},
			{
				"x": -1.1196892761,
				"y": 0.6687158486,
				"z": 1.3025294331,
				"element": "C" 
			},
			{
				"x": -2.0137353748,
				"y": 1.5112019291,
				"z": 2.5630799944,
				"element": "Cl" 
			},
			{
				"x": -1.8239013938,
				"y": 0.0174780968,
				"z": 0.3004772885,
				"element": "C" 
			},
			{
				"x": -1.0605855624,
				"y": -0.6379135033,
				"z": -0.6789149711,
				"element": "C" 
			},
			{
				"x": 0.3269265811,
				"y": -0.61334548,
				"z": -0.6142865772,
				"element": "C" 
			},
			{
				"x": -1.7943521763,
				"y": -1.3482631866,
				"z": -1.7711515849,
				"element": "C" 
			},
			{
				"x": -0.9660843087,
				"y": -1.9434833141,
				"z": -2.658681807,
				"element": "O" 
			},
			{
				"x": -3.0024690239,
				"y": -1.3945898088,
				"z": -1.865560157,
				"element": "O" 
			},
			{
				"x": 3.9287975159,
				"y": 0.708975053,
				"z": 1.4635556212,
				"element": "H" 
			},
			{
				"x": 2.5704583373,
				"y": 1.8737320539,
				"z": 1.5898609608,
				"element": "H" 
			},
			{
				"x": 2.5512516774,
				"y": 0.3900147909,
				"z": 2.5673296325,
				"element": "H" 
			},
			{
				"x": -2.9045490896,
				"y": 0.0050496214,
				"z": 0.2602558982,
				"element": "H" 
			},
			{
				"x": 0.9483872469,
				"y": -1.106169527,
				"z": -1.3498264322,
				"element": "H" 
			},
			{
				"x": -1.5381816142,
				"y": -2.3703723688,
				"z": -3.3179579703,
				"element": "H" 
			}
		],
		 "valence_orbital": [ 
			{
				"type": "occ",
				"energy": -0.31838,
				"method": "rhf"
			},
			{
				"type": "occ",
				"energy": -0.29731,
				"method": "rhf"
			},
			{
				"type": "occ",
				"energy": -0.29691,
				"method": "rhf"
			},
			{
				"type": "occ",
				"energy": -0.29216,
				"method": "rhf"
			},
			{
				"type": "occ",
				"energy": -0.24463,
				"method": "rhf"
			},
			{
				"type": "unocc",
				"energy": -0.07282,
				"method": "rhf"
			},
			{
				"type": "unocc",
				"energy": -0.02106,
				"method": "rhf"
			},
			{
				"type": "unocc",
				"energy": 0.03088,
				"method": "rhf"
			},
			{
				"type": "unocc",
				"energy": 0.04138,
				"method": "rhf"
			},
			{
				"type": "unocc",
				"energy": 0.06764,
				"method": "rhf"
			}
		],
		"cosmo_sigma_profile": { 
			"-0.025": 0.0,
			"-0.024": 0.0,
			"-0.023": 0.0,
			"-0.022": 0.0,
			"-0.021": 0.0,
			"-0.02": 0.0,
			"-0.019": 0.510364608836,
			"-0.018": 1.17653925561,
			"-0.017": 1.06551601716,
			"-0.016": 0.466246345587,
			"-0.015": 0.532354997508,
			"-0.014": 0.676204623731,
			"-0.013": 0.634007309743,
			"-0.012": 1.24153498452,
			"-0.011": 0.942269517232,
			"-0.01": 0.350459259202,
			"-0.009": 0.577230545569,
			"-0.008": 1.49977358118,
			"-0.007": 3.52602006359,
			"-0.006": 6.29477207655,
			"-0.005": 9.60981487719,
			"-0.004": 14.0226199313,
			"-0.003": 15.3534390862,
			"-0.002": 18.1922650521,
			"-0.001": 23.1717994079,
			"0.0": 20.2882020259,
			"0.001": 11.7056799543,
			"0.002": 11.1235088577,
			"0.003": 11.2581529793,
			"0.004": 15.2643791744,
			"0.005": 8.03571980579,
			"0.006": 6.48464569003,
			"0.007": 4.07317338428,
			"0.008": 4.13698655895,
			"0.009": 4.07371542169,
			"0.01": 4.00179576437,
			"0.011": 4.54804209609,
			"0.012": 0.257290901435,
			"0.013": 0.0,
			"0.014": 0.0,
			"0.015": 0.0,
			"0.016": 0.0,
			"0.017": 0.0,
			"0.018": 0.0,
			"0.019": 0.0,
			"0.02": 0.0,
			"0.021": 0.0,
			"0.022": 0.0,
			"0.023": 0.0,
			"0.024": 0.0,
			"0.025": 0.0
		}
	}
}
