{
	 "smiles": "ClC1=NC=NC(SCC2=CC=CC=C2)=C1", 
	 "Tm": 345.15, 
	 "num_atms": 24, 
	 "gaussian": { 
		 "optdone": 1, 
		 "sigma_profile": "yes", 
		 "theory": "DFT", 
		 "functional": "B3LYP", 
		 "basiset": "6-31G**", 
		 "properties": { 
			 "R2extent": 4968.8824, 
			 "electric_dipole_moment_norm": 3.56668547955, 
			 "electric_quadrupole_moment_norm": 9.74306291522, 
			 "total_energy": -1392.47203038, 
			 "HOMO_LUMO_gap": 0.19889, 
			 "cosmo_polarized_energy": -10.24, 
			 "cosmo_cavitation_energy": 31.82, 
			 "cosmo_dispersion_energy": -23.09, 
			 "cosmo_repulsion_energy": 1.78, 
			 "cosmo_total_nonelectrostatic_energy": 10.51, 
			 "SMD_solvation_energy": 1.87 
		},
		"coords": [
			{
				"x": -2.5766343276,
				"y": 3.2925997385,
				"z": -0.2419519028,
				"element": "Cl" 
			},
			{
				"x": -3.0742244752,
				"y": 1.6842846835,
				"z": 0.2600297223,
				"element": "C" 
			},
			{
				"x": -4.3532779308,
				"y": 1.380624634,
				"z": 0.1128590633,
				"element": "N" 
			},
			{
				"x": -4.6868592055,
				"y": 0.1419059211,
				"z": 0.5029056011,
				"element": "C" 
			},
			{
				"x": -3.882432746,
				"y": -0.7817070162,
				"z": 1.0194019145,
				"element": "N" 
			},
			{
				"x": -2.590775255,
				"y": -0.4392171037,
				"z": 1.1633381814,
				"element": "C" 
			},
			{
				"x": -1.6205317904,
				"y": -1.7335154061,
				"z": 1.8823308484,
				"element": "S" 
			},
			{
				"x": 0.0593927049,
				"y": -1.0044372064,
				"z": 2.075431292,
				"element": "C" 
			},
			{
				"x": 0.8767281907,
				"y": -0.7900587914,
				"z": 0.817433684,
				"element": "C" 
			},
			{
				"x": 0.962646747,
				"y": -1.7692554976,
				"z": -0.1813673618,
				"element": "C" 
			},
			{
				"x": 1.7655553203,
				"y": -1.5675580423,
				"z": -1.3029871195,
				"element": "C" 
			},
			{
				"x": 2.4948731515,
				"y": -0.3841929688,
				"z": -1.4452092722,
				"element": "C" 
			},
			{
				"x": 2.4163947897,
				"y": 0.5963859333,
				"z": -0.4568035448,
				"element": "C" 
			},
			{
				"x": 1.6119078172,
				"y": 0.3930305684,
				"z": 0.6666713355,
				"element": "C" 
			},
			{
				"x": -2.1131342506,
				"y": 0.8203350377,
				"z": 0.7790881178,
				"element": "C" 
			},
			{
				"x": -5.73232911,
				"y": -0.1337103048,
				"z": 0.3841267404,
				"element": "H" 
			},
			{
				"x": -0.021046949,
				"y": -0.0796456213,
				"z": 2.6539932267,
				"element": "H" 
			},
			{
				"x": 0.5459769359,
				"y": -1.7383812153,
				"z": 2.7280929284,
				"element": "H" 
			},
			{
				"x": 0.3893075632,
				"y": -2.686549167,
				"z": -0.0832581007,
				"element": "H" 
			},
			{
				"x": 1.8202046876,
				"y": -2.335253073,
				"z": -2.0694663049,
				"element": "H" 
			},
			{
				"x": 3.1163990798,
				"y": -0.2279567255,
				"z": -2.3219293886,
				"element": "H" 
			},
			{
				"x": 2.976227457,
				"y": 1.5215388797,
				"z": -0.5582399146,
				"element": "H" 
			},
			{
				"x": 1.5603870069,
				"y": 1.1598117523,
				"z": 1.4366471906,
				"element": "H" 
			},
			{
				"x": -1.0753554115,
				"y": 1.1110209909,
				"z": 0.8494630634,
				"element": "H" 
			}
		],
		 "valence_orbital": [ 
			{
				"type": "occ",
				"energy": -0.28732,
				"method": "rhf"
			},
			{
				"type": "occ",
				"energy": -0.27181,
				"method": "rhf"
			},
			{
				"type": "occ",
				"energy": -0.26306,
				"method": "rhf"
			},
			{
				"type": "occ",
				"energy": -0.25735,
				"method": "rhf"
			},
			{
				"type": "occ",
				"energy": -0.2459,
				"method": "rhf"
			},
			{
				"type": "unocc",
				"energy": -0.04701,
				"method": "rhf"
			},
			{
				"type": "unocc",
				"energy": -0.04036,
				"method": "rhf"
			},
			{
				"type": "unocc",
				"energy": -0.02131,
				"method": "rhf"
			},
			{
				"type": "unocc",
				"energy": -0.01526,
				"method": "rhf"
			},
			{
				"type": "unocc",
				"energy": 0.01449,
				"method": "rhf"
			}
		],
		"cosmo_sigma_profile": { 
			"-0.025": 0.0,
			"-0.024": 0.0,
			"-0.023": 0.0,
			"-0.022": 0.0,
			"-0.021": 0.0,
			"-0.02": 0.0,
			"-0.019": 0.0,
			"-0.018": 0.0,
			"-0.017": 0.0,
			"-0.016": 0.0,
			"-0.015": 0.0,
			"-0.014": 0.0,
			"-0.013": 0.0,
			"-0.012": 0.0,
			"-0.011": 0.00460861352973,
			"-0.01": 0.31887504866,
			"-0.009": 2.00333656241,
			"-0.008": 6.42386457397,
			"-0.007": 7.91653958108,
			"-0.006": 12.4339322472,
			"-0.005": 16.2530387412,
			"-0.004": 18.9722625599,
			"-0.003": 20.2582218808,
			"-0.002": 20.8663161586,
			"-0.001": 20.8182446262,
			"0.0": 18.0291486221,
			"0.001": 15.175053545,
			"0.002": 18.1124344419,
			"0.003": 21.8008296865,
			"0.004": 20.6412428209,
			"0.005": 17.6916705491,
			"0.006": 7.50301902059,
			"0.007": 2.72131976621,
			"0.008": 2.70451664349,
			"0.009": 2.06895787095,
			"0.01": 2.11582289796,
			"0.011": 1.91479232468,
			"0.012": 1.4851314845,
			"0.013": 1.63773050329,
			"0.014": 0.472846182237,
			"0.015": 0.0,
			"0.016": 0.0,
			"0.017": 0.0,
			"0.018": 0.0,
			"0.019": 0.0,
			"0.02": 0.0,
			"0.021": 0.0,
			"0.022": 0.0,
			"0.023": 0.0,
			"0.024": 0.0,
			"0.025": 0.0
		}
	}
}
