{
	 "smiles": "COC1=C(C=CC=C1)C1NC2=NC(=NN2C(N)=C1C#N)C(F)(F)F", 
	 "Tm": 518.15, 
	 "num_atms": 35, 
	 "gaussian": { 
		 "optdone": 1, 
		 "sigma_profile": "yes", 
		 "theory": "DFT", 
		 "functional": "B3LYP", 
		 "basiset": "6-31G**", 
		 "properties": { 
			 "R2extent": 8610.7116, 
			 "electric_dipole_moment_norm": 2.75751643875, 
			 "electric_quadrupole_moment_norm": 26.4852370771, 
			 "total_energy": -1243.32810842, 
			 "HOMO_LUMO_gap": 0.16711, 
			 "cosmo_polarized_energy": -20.45, 
			 "cosmo_cavitation_energy": 41.94, 
			 "cosmo_dispersion_energy": -27.48, 
			 "cosmo_repulsion_energy": 2.03, 
			 "cosmo_total_nonelectrostatic_energy": 16.49, 
			 "SMD_solvation_energy": 6.62 
		},
		"coords": [
			{
				"x": -1.0608502804,
				"y": -1.2873162622,
				"z": -2.0896971456,
				"element": "C" 
			},
			{
				"x": -0.3801552894,
				"y": -0.4477645165,
				"z": -1.1648084431,
				"element": "O" 
			},
			{
				"x": 0.9825789016,
				"y": -0.4022362906,
				"z": -1.1891093456,
				"element": "C" 
			},
			{
				"x": 1.5884975858,
				"y": 0.4596805739,
				"z": -0.2472043811,
				"element": "C" 
			},
			{
				"x": 2.9815941302,
				"y": 0.5450997692,
				"z": -0.2246544385,
				"element": "C" 
			},
			{
				"x": 3.7772961748,
				"y": -0.1929267279,
				"z": -1.1038591543,
				"element": "C" 
			},
			{
				"x": 3.1638892557,
				"y": -1.0385964197,
				"z": -2.0233777617,
				"element": "C" 
			},
			{
				"x": 1.7713582389,
				"y": -1.1484518919,
				"z": -2.0702310748,
				"element": "C" 
			},
			{
				"x": 0.7750713926,
				"y": 1.302645364,
				"z": 0.7331650487,
				"element": "C" 
			},
			{
				"x": -0.0521021295,
				"y": 0.4895344606,
				"z": 1.6507122827,
				"element": "N" 
			},
			{
				"x": -1.3802722408,
				"y": 0.3370329469,
				"z": 1.4579510374,
				"element": "C" 
			},
			{
				"x": -2.2200777259,
				"y": -0.5374897011,
				"z": 1.9890806723,
				"element": "N" 
			},
			{
				"x": -3.4164718311,
				"y": -0.1294173285,
				"z": 1.4715527137,
				"element": "C" 
			},
			{
				"x": -3.3995654376,
				"y": 0.9151698089,
				"z": 0.6652779703,
				"element": "N" 
			},
			{
				"x": -2.0591905975,
				"y": 1.2148584729,
				"z": 0.6617691613,
				"element": "N" 
			},
			{
				"x": -1.4634673521,
				"y": 2.2734831773,
				"z": -0.0128611268,
				"element": "C" 
			},
			{
				"x": -2.3129381129,
				"y": 3.0916334113,
				"z": -0.6743781807,
				"element": "N" 
			},
			{
				"x": -0.0966633012,
				"y": 2.3722632278,
				"z": 0.0671256474,
				"element": "C" 
			},
			{
				"x": 0.5357470024,
				"y": 3.4777613164,
				"z": -0.5448538699,
				"element": "C" 
			},
			{
				"x": 1.0244119615,
				"y": 4.4093834119,
				"z": -1.0527466381,
				"element": "N" 
			},
			{
				"x": -4.6933263396,
				"y": -0.8544458991,
				"z": 1.7913037077,
				"element": "C" 
			},
			{
				"x": -4.6486990919,
				"y": -2.124474976,
				"z": 1.3388033703,
				"element": "F" 
			},
			{
				"x": -5.7519391413,
				"y": -0.2495672067,
				"z": 1.2270495051,
				"element": "F" 
			},
			{
				"x": -4.8977064116,
				"y": -0.9067490072,
				"z": 3.1207819582,
				"element": "F" 
			},
			{
				"x": -0.8472272676,
				"y": -0.9969297945,
				"z": -3.1252943727,
				"element": "H" 
			},
			{
				"x": -2.1236877135,
				"y": -1.1513838337,
				"z": -1.8871203631,
				"element": "H" 
			},
			{
				"x": -0.7954818708,
				"y": -2.3413865987,
				"z": -1.9446394686,
				"element": "H" 
			},
			{
				"x": 3.4511088849,
				"y": 1.2112614995,
				"z": 0.4955032422,
				"element": "H" 
			},
			{
				"x": 4.8582510349,
				"y": -0.1053866802,
				"z": -1.0679304434,
				"element": "H" 
			},
			{
				"x": 3.7639934695,
				"y": -1.6226028289,
				"z": -2.7150875801,
				"element": "H" 
			},
			{
				"x": 1.312008566,
				"y": -1.8115606161,
				"z": -2.793240182,
				"element": "H" 
			},
			{
				"x": 1.5065867532,
				"y": 1.8250888448,
				"z": 1.3609153288,
				"element": "H" 
			},
			{
				"x": 0.4066947827,
				"y": -0.2699024759,
				"z": 2.1341554977,
				"element": "H" 
			},
			{
				"x": -3.3008170526,
				"y": 3.0012606437,
				"z": -0.4901279462,
				"element": "H" 
			},
			{
				"x": -1.9541489475,
				"y": 3.9393321263,
				"z": -1.0849252274,
				"element": "H" 
			}
		],
		 "valence_orbital": [ 
			{
				"type": "occ",
				"energy": -0.30228,
				"method": "rhf"
			},
			{
				"type": "occ",
				"energy": -0.26903,
				"method": "rhf"
			},
			{
				"type": "occ",
				"energy": -0.25041,
				"method": "rhf"
			},
			{
				"type": "occ",
				"energy": -0.23336,
				"method": "rhf"
			},
			{
				"type": "occ",
				"energy": -0.21743,
				"method": "rhf"
			},
			{
				"type": "unocc",
				"energy": -0.05032,
				"method": "rhf"
			},
			{
				"type": "unocc",
				"energy": -0.01622,
				"method": "rhf"
			},
			{
				"type": "unocc",
				"energy": -0.00454,
				"method": "rhf"
			},
			{
				"type": "unocc",
				"energy": 0.01693,
				"method": "rhf"
			},
			{
				"type": "unocc",
				"energy": 0.02497,
				"method": "rhf"
			}
		],
		"cosmo_sigma_profile": { 
			"-0.025": 0.0,
			"-0.024": 0.0,
			"-0.023": 0.0,
			"-0.022": 0.0,
			"-0.021": 0.0,
			"-0.02": 0.0,
			"-0.019": 0.0,
			"-0.018": 0.0,
			"-0.017": 0.0,
			"-0.016": 0.610801677691,
			"-0.015": 1.97468121695,
			"-0.014": 2.83014304308,
			"-0.013": 2.94463484168,
			"-0.012": 3.24800859679,
			"-0.011": 2.3855908579,
			"-0.01": 2.16274608437,
			"-0.009": 2.7092777281,
			"-0.008": 5.27694812542,
			"-0.007": 6.69701570447,
			"-0.006": 16.8213968851,
			"-0.005": 21.5079597495,
			"-0.004": 21.729124736,
			"-0.003": 21.6448686084,
			"-0.002": 18.9108847278,
			"-0.001": 18.349769237,
			"0.0": 17.1617376179,
			"0.001": 22.7813045802,
			"0.002": 43.3923104156,
			"0.003": 29.9328320402,
			"0.004": 17.5830927926,
			"0.005": 15.6108255448,
			"0.006": 7.23047199494,
			"0.007": 5.10581623183,
			"0.008": 4.67622369228,
			"0.009": 4.96727835717,
			"0.01": 4.77903944872,
			"0.011": 4.0625445418,
			"0.012": 4.17407762208,
			"0.013": 2.88335368493,
			"0.014": 2.38193393843,
			"0.015": 0.21018657624,
			"0.016": 0.0,
			"0.017": 0.0,
			"0.018": 0.0,
			"0.019": 0.0,
			"0.02": 0.0,
			"0.021": 0.0,
			"0.022": 0.0,
			"0.023": 0.0,
			"0.024": 0.0,
			"0.025": 0.0
		}
	}
}
