{
	 "smiles": "CC(=O)C=CC1=CC=CS1", 
	 "Tm": 296.65, 
	 "num_atms": 18, 
	 "gaussian": { 
		 "optdone": 1, 
		 "sigma_profile": "yes", 
		 "theory": "DFT", 
		 "functional": "B3LYP", 
		 "basiset": "6-31G**", 
		 "properties": { 
			 "R2extent": 2478.4334, 
			 "electric_dipole_moment_norm": 4.64016674162, 
			 "electric_quadrupole_moment_norm": 11.4971915545, 
			 "total_energy": -783.056439007, 
			 "HOMO_LUMO_gap": 0.15245, 
			 "cosmo_polarized_energy": -10.58, 
			 "cosmo_cavitation_energy": 24.26, 
			 "cosmo_dispersion_energy": -18.08, 
			 "cosmo_repulsion_energy": 1.42, 
			 "cosmo_total_nonelectrostatic_energy": 7.6, 
			 "SMD_solvation_energy": 5.11 
		},
		"coords": [
			{
				"x": -0.3499147721,
				"y": 3.7228478351,
				"z": 1.4415195884,
				"element": "C" 
			},
			{
				"x": -0.549131738,
				"y": 3.2222328156,
				"z": 0.0169519138,
				"element": "C" 
			},
			{
				"x": -0.6356208324,
				"y": 4.0103695548,
				"z": -0.9165560551,
				"element": "O" 
			},
			{
				"x": -0.6401201187,
				"y": 1.7703125343,
				"z": -0.2391214442,
				"element": "C" 
			},
			{
				"x": -0.5602604325,
				"y": 0.8074879269,
				"z": 0.7048953571,
				"element": "C" 
			},
			{
				"x": -0.6429609849,
				"y": -0.620737798,
				"z": 0.506883386,
				"element": "C" 
			},
			{
				"x": -0.5582388658,
				"y": -1.5885233719,
				"z": 1.4898096331,
				"element": "C" 
			},
			{
				"x": -0.6740293789,
				"y": -2.9156195146,
				"z": 0.9961807574,
				"element": "C" 
			},
			{
				"x": -0.8467410634,
				"y": -2.9553643484,
				"z": -0.3625205193,
				"element": "C" 
			},
			{
				"x": -0.8708563149,
				"y": -1.3715653117,
				"z": -1.0620436751,
				"element": "S" 
			},
			{
				"x": -0.3091239284,
				"y": 4.8121799753,
				"z": 1.4220522287,
				"element": "H" 
			},
			{
				"x": 0.5798344678,
				"y": 3.334133283,
				"z": 1.8715590276,
				"element": "H" 
			},
			{
				"x": -1.1716348225,
				"y": 3.4036520318,
				"z": 2.0921826539,
				"element": "H" 
			},
			{
				"x": -0.7823552692,
				"y": 1.5190513819,
				"z": -1.2880970073,
				"element": "H" 
			},
			{
				"x": -0.4176110164,
				"y": 1.0973052353,
				"z": 1.7448579199,
				"element": "H" 
			},
			{
				"x": -0.4164133155,
				"y": -1.3403522427,
				"z": 2.5361862536,
				"element": "H" 
			},
			{
				"x": -0.6313776362,
				"y": -3.8015669475,
				"z": 1.6189423949,
				"element": "H" 
			},
			{
				"x": -0.9616439778,
				"y": -3.8240430393,
				"z": -0.9961824135,
				"element": "H" 
			}
		],
		 "valence_orbital": [ 
			{
				"type": "occ",
				"energy": -0.34993,
				"method": "rhf"
			},
			{
				"type": "occ",
				"energy": -0.30902,
				"method": "rhf"
			},
			{
				"type": "occ",
				"energy": -0.26547,
				"method": "rhf"
			},
			{
				"type": "occ",
				"energy": -0.24066,
				"method": "rhf"
			},
			{
				"type": "occ",
				"energy": -0.2277,
				"method": "rhf"
			},
			{
				"type": "unocc",
				"energy": -0.07525,
				"method": "rhf"
			},
			{
				"type": "unocc",
				"energy": -0.0003,
				"method": "rhf"
			},
			{
				"type": "unocc",
				"energy": 0.01964,
				"method": "rhf"
			},
			{
				"type": "unocc",
				"energy": 0.05246,
				"method": "rhf"
			},
			{
				"type": "unocc",
				"energy": 0.07469,
				"method": "rhf"
			}
		],
		"cosmo_sigma_profile": { 
			"-0.025": 0.0,
			"-0.024": 0.0,
			"-0.023": 0.0,
			"-0.022": 0.0,
			"-0.021": 0.0,
			"-0.02": 0.0,
			"-0.019": 0.0,
			"-0.018": 0.0,
			"-0.017": 0.0,
			"-0.016": 0.0,
			"-0.015": 0.0,
			"-0.014": 0.0,
			"-0.013": 0.0,
			"-0.012": 0.0,
			"-0.011": 0.0,
			"-0.01": 0.0,
			"-0.009": 1.55916523451,
			"-0.008": 4.66904307617,
			"-0.007": 8.34455714056,
			"-0.006": 12.9628178574,
			"-0.005": 13.4694522575,
			"-0.004": 13.743476474,
			"-0.003": 13.6090879192,
			"-0.002": 12.8080721978,
			"-0.001": 14.3166823621,
			"0.0": 13.5383906624,
			"0.001": 14.9374943174,
			"0.002": 17.7548752991,
			"0.003": 19.5512596079,
			"0.004": 12.4620176864,
			"0.005": 2.30058054812,
			"0.006": 1.29717763969,
			"0.007": 2.27180019803,
			"0.008": 0.996345771149,
			"0.009": 1.12755662703,
			"0.01": 1.97792684307,
			"0.011": 2.62191746756,
			"0.012": 3.40579975529,
			"0.013": 4.45196126487,
			"0.014": 1.96855371071,
			"0.015": 0.0396602210577,
			"0.016": 0.0,
			"0.017": 0.0,
			"0.018": 0.0,
			"0.019": 0.0,
			"0.02": 0.0,
			"0.021": 0.0,
			"0.022": 0.0,
			"0.023": 0.0,
			"0.024": 0.0,
			"0.025": 0.0
		}
	}
}
