{
	 "smiles": "ClC1=CC=C(C=C1)C1=NNC=C1Br", 
	 "Tm": 414.15, 
	 "num_atms": 19, 
	 "gaussian": { 
		 "optdone": 1, 
		 "sigma_profile": "yes", 
		 "theory": "DFT", 
		 "functional": "B3LYP", 
		 "basiset": "6-31G**", 
		 "properties": { 
			 "R2extent": 4805.0524, 
			 "electric_dipole_moment_norm": 4.43984898617, 
			 "electric_quadrupole_moment_norm": 12.3111323614, 
			 "total_energy": -3487.65121907, 
			 "HOMO_LUMO_gap": 0.19528, 
			 "cosmo_polarized_energy": -10.77, 
			 "cosmo_cavitation_energy": 27.68, 
			 "cosmo_dispersion_energy": -21.2, 
			 "cosmo_repulsion_energy": 1.68, 
			 "cosmo_total_nonelectrostatic_energy": 8.16, 
			 "SMD_solvation_energy": 2.79 
		},
		"coords": [
			{
				"x": 2.9785674496,
				"y": -4.7198738541,
				"z": -0.5537869981,
				"element": "Cl" 
			},
			{
				"x": 2.2765117313,
				"y": -3.1088000217,
				"z": -0.4912240893,
				"element": "C" 
			},
			{
				"x": 2.9006670775,
				"y": -2.0602465919,
				"z": -1.1678309768,
				"element": "C" 
			},
			{
				"x": 2.3365061211,
				"y": -0.7896198312,
				"z": -1.1189723695,
				"element": "C" 
			},
			{
				"x": 1.1533735719,
				"y": -0.5463559129,
				"z": -0.3993798652,
				"element": "C" 
			},
			{
				"x": 0.5515628641,
				"y": -1.6179335289,
				"z": 0.2777493782,
				"element": "C" 
			},
			{
				"x": 1.1058231291,
				"y": -2.8966225869,
				"z": 0.2330957505,
				"element": "C" 
			},
			{
				"x": 0.6064925002,
				"y": 0.8221056837,
				"z": -0.359464279,
				"element": "C" 
			},
			{
				"x": 1.4250851744,
				"y": 1.861153346,
				"z": -0.5814621083,
				"element": "N" 
			},
			{
				"x": 0.6502956664,
				"y": 2.9568904376,
				"z": -0.5031315947,
				"element": "N" 
			},
			{
				"x": -0.6471251204,
				"y": 2.678907817,
				"z": -0.2315762138,
				"element": "C" 
			},
			{
				"x": -0.7162892636,
				"y": 1.3045542753,
				"z": -0.1322500022,
				"element": "C" 
			},
			{
				"x": -2.3236586604,
				"y": 0.3641591005,
				"z": 0.1764272457,
				"element": "Br" 
			},
			{
				"x": 3.8115937445,
				"y": -2.2396933168,
				"z": -1.7281385078,
				"element": "H" 
			},
			{
				"x": 2.8117838249,
				"y": 0.0328689206,
				"z": -1.6417870856,
				"element": "H" 
			},
			{
				"x": -0.3514734765,
				"y": -1.4589868487,
				"z": 0.8542272495,
				"element": "H" 
			},
			{
				"x": 0.6356657686,
				"y": -3.7186403365,
				"z": 0.7612948856,
				"element": "H" 
			},
			{
				"x": 1.075261385,
				"y": 3.863321082,
				"z": -0.6235302975,
				"element": "H" 
			},
			{
				"x": -1.4094434879,
				"y": 3.4366121668,
				"z": -0.1367601217,
				"element": "H" 
			}
		],
		 "valence_orbital": [ 
			{
				"type": "occ",
				"energy": -0.28732,
				"method": "rhf"
			},
			{
				"type": "occ",
				"energy": -0.28525,
				"method": "rhf"
			},
			{
				"type": "occ",
				"energy": -0.25937,
				"method": "rhf"
			},
			{
				"type": "occ",
				"energy": -0.24829,
				"method": "rhf"
			},
			{
				"type": "occ",
				"energy": -0.2263,
				"method": "rhf"
			},
			{
				"type": "unocc",
				"energy": -0.03102,
				"method": "rhf"
			},
			{
				"type": "unocc",
				"energy": -0.00967,
				"method": "rhf"
			},
			{
				"type": "unocc",
				"energy": 0.00586,
				"method": "rhf"
			},
			{
				"type": "unocc",
				"energy": 0.00877,
				"method": "rhf"
			},
			{
				"type": "unocc",
				"energy": 0.03459,
				"method": "rhf"
			}
		],
		"cosmo_sigma_profile": { 
			"-0.025": 0.0,
			"-0.024": 0.0,
			"-0.023": 0.0,
			"-0.022": 0.0,
			"-0.021": 0.0,
			"-0.02": 0.0,
			"-0.019": 0.0,
			"-0.018": 0.275935011272,
			"-0.017": 1.85433682289,
			"-0.016": 1.54136072141,
			"-0.015": 1.28158142765,
			"-0.014": 1.06572342442,
			"-0.013": 1.01858735064,
			"-0.012": 0.966760611892,
			"-0.011": 1.41167933321,
			"-0.01": 3.19767756613,
			"-0.009": 2.66472008933,
			"-0.008": 2.22800248857,
			"-0.007": 4.94734801686,
			"-0.006": 6.68261478474,
			"-0.005": 9.95791711899,
			"-0.004": 8.65798320062,
			"-0.003": 9.48782469506,
			"-0.002": 10.8768126146,
			"-0.001": 12.5857355532,
			"0.0": 15.3333124544,
			"0.001": 22.0981426603,
			"0.002": 31.2040482576,
			"0.003": 32.4190604959,
			"0.004": 26.2043249385,
			"0.005": 11.3373859712,
			"0.006": 1.57735412971,
			"0.007": 1.57462886649,
			"0.008": 1.92473591111,
			"0.009": 0.628521836315,
			"0.01": 0.887939093754,
			"0.011": 1.10265402095,
			"0.012": 0.897309116539,
			"0.013": 0.64270298398,
			"0.014": 0.288581462689,
			"0.015": 0.0,
			"0.016": 0.0,
			"0.017": 0.0,
			"0.018": 0.0,
			"0.019": 0.0,
			"0.02": 0.0,
			"0.021": 0.0,
			"0.022": 0.0,
			"0.023": 0.0,
			"0.024": 0.0,
			"0.025": 0.0
		}
	}
}
