{
	 "smiles": "CN(C)CCN1C(S)=NC2=C(SC=C2)C1=O", 
	 "Tm": 466.15, 
	 "num_atms": 29, 
	 "gaussian": { 
		 "optdone": 1, 
		 "sigma_profile": "yes", 
		 "theory": "DFT", 
		 "functional": "B3LYP", 
		 "basiset": "6-31G**", 
		 "properties": { 
			 "R2extent": 5220.2871, 
			 "electric_dipole_moment_norm": 2.2831819069, 
			 "electric_quadrupole_moment_norm": 14.0486018956, 
			 "total_energy": -1424.74598905, 
			 "HOMO_LUMO_gap": 0.15714, 
			 "cosmo_polarized_energy": -11.7, 
			 "cosmo_cavitation_energy": 35.06, 
			 "cosmo_dispersion_energy": -25.8, 
			 "cosmo_repulsion_energy": 1.89, 
			 "cosmo_total_nonelectrostatic_energy": 11.15, 
			 "SMD_solvation_energy": 2.15 
		},
		"coords": [
			{
				"x": -3.2317235889,
				"y": 0.0882095666,
				"z": -3.0887725217,
				"element": "C" 
			},
			{
				"x": -2.696590682,
				"y": 1.2800416017,
				"z": -2.4466245822,
				"element": "N" 
			},
			{
				"x": -2.1943459449,
				"y": 2.2600158078,
				"z": -3.3965622975,
				"element": "C" 
			},
			{
				"x": -1.8213029074,
				"y": 1.0206091325,
				"z": -1.3157503273,
				"element": "C" 
			},
			{
				"x": -0.4805101183,
				"y": 0.3143379306,
				"z": -1.6435827548,
				"element": "C" 
			},
			{
				"x": 0.3103127147,
				"y": 0.0629432708,
				"z": -0.4258001198,
				"element": "N" 
			},
			{
				"x": 1.2548521843,
				"y": 0.9448833002,
				"z": 0.0508191787,
				"element": "C" 
			},
			{
				"x": 1.5327231502,
				"y": 2.43008151,
				"z": -0.9117490967,
				"element": "S" 
			},
			{
				"x": 1.9604588876,
				"y": 0.7864529999,
				"z": 1.1323725823,
				"element": "N" 
			},
			{
				"x": 1.7281750741,
				"y": -0.3622642306,
				"z": 1.8463426572,
				"element": "C" 
			},
			{
				"x": 0.7941862529,
				"y": -1.3150047094,
				"z": 1.4509252824,
				"element": "C" 
			},
			{
				"x": 0.7146050082,
				"y": -2.6571593723,
				"z": 2.5501726821,
				"element": "S" 
			},
			{
				"x": 1.9475245149,
				"y": -1.9270304497,
				"z": 3.5401211302,
				"element": "C" 
			},
			{
				"x": 2.3927745546,
				"y": -0.7286861291,
				"z": 3.0614480009,
				"element": "C" 
			},
			{
				"x": -0.0003005705,
				"y": -1.1552568956,
				"z": 0.2682362116,
				"element": "C" 
			},
			{
				"x": -0.8578280571,
				"y": -1.9169186651,
				"z": -0.1637572976,
				"element": "O" 
			},
			{
				"x": -4.0572036087,
				"y": 0.3727850888,
				"z": -3.7507975242,
				"element": "H" 
			},
			{
				"x": -3.6246677656,
				"y": -0.5951632127,
				"z": -2.3300016674,
				"element": "H" 
			},
			{
				"x": -2.4977007423,
				"y": -0.4696727381,
				"z": -3.6995122854,
				"element": "H" 
			},
			{
				"x": -3.0021392308,
				"y": 2.5546115486,
				"z": -4.0756405413,
				"element": "H" 
			},
			{
				"x": -1.3547912524,
				"y": 1.9037787644,
				"z": -4.0234450577,
				"element": "H" 
			},
			{
				"x": -1.8609795943,
				"y": 3.1560583795,
				"z": -2.8628699552,
				"element": "H" 
			},
			{
				"x": -2.3584085655,
				"y": 0.3891032963,
				"z": -0.6002654321,
				"element": "H" 
			},
			{
				"x": -1.607417546,
				"y": 1.9744443934,
				"z": -0.8187105637,
				"element": "H" 
			},
			{
				"x": 0.1270875443,
				"y": 0.8967691758,
				"z": -2.3395265075,
				"element": "H" 
			},
			{
				"x": -0.6720702221,
				"y": -0.6625412284,
				"z": -2.0880742284,
				"element": "H" 
			},
			{
				"x": 2.4773766136,
				"y": 2.8652116205,
				"z": -0.0586867926,
				"element": "H" 
			},
			{
				"x": 2.2752914981,
				"y": -2.4399065631,
				"z": 4.4344593492,
				"element": "H" 
			},
			{
				"x": 3.1541123993,
				"y": -0.1192331932,
				"z": 3.5320324785,
				"element": "H" 
			}
		],
		 "valence_orbital": [ 
			{
				"type": "occ",
				"energy": -0.28178,
				"method": "rhf"
			},
			{
				"type": "occ",
				"energy": -0.26922,
				"method": "rhf"
			},
			{
				"type": "occ",
				"energy": -0.25529,
				"method": "rhf"
			},
			{
				"type": "occ",
				"energy": -0.22623,
				"method": "rhf"
			},
			{
				"type": "occ",
				"energy": -0.20767,
				"method": "rhf"
			},
			{
				"type": "unocc",
				"energy": -0.05053,
				"method": "rhf"
			},
			{
				"type": "unocc",
				"energy": -0.0145,
				"method": "rhf"
			},
			{
				"type": "unocc",
				"energy": -0.00079,
				"method": "rhf"
			},
			{
				"type": "unocc",
				"energy": 0.0231,
				"method": "rhf"
			},
			{
				"type": "unocc",
				"energy": 0.03657,
				"method": "rhf"
			}
		],
		"cosmo_sigma_profile": { 
			"-0.025": 0.0,
			"-0.024": 0.0,
			"-0.023": 0.0,
			"-0.022": 0.0,
			"-0.021": 0.0,
			"-0.02": 0.0,
			"-0.019": 0.0,
			"-0.018": 0.0,
			"-0.017": 0.0,
			"-0.016": 0.0,
			"-0.015": 0.0,
			"-0.014": 0.0,
			"-0.013": 0.0,
			"-0.012": 0.697341783506,
			"-0.011": 1.44429727268,
			"-0.01": 2.01057630417,
			"-0.009": 3.43344516682,
			"-0.008": 3.51750766178,
			"-0.007": 5.14525807289,
			"-0.006": 5.32483647872,
			"-0.005": 8.83516609046,
			"-0.004": 23.5113122364,
			"-0.003": 33.0060036746,
			"-0.002": 26.1446206607,
			"-0.001": 27.7637746393,
			"0.0": 29.2802135279,
			"0.001": 25.4485508408,
			"0.002": 22.9982102112,
			"0.003": 17.8520745429,
			"0.004": 9.67167122933,
			"0.005": 5.88570321019,
			"0.006": 5.17509544906,
			"0.007": 4.03969372165,
			"0.008": 3.72115460367,
			"0.009": 2.32160996098,
			"0.01": 2.66948564574,
			"0.011": 3.99731870546,
			"0.012": 3.85473487846,
			"0.013": 3.60585783715,
			"0.014": 0.745112035139,
			"0.015": 0.422549180492,
			"0.016": 0.115860554708,
			"0.017": 0.0,
			"0.018": 0.0,
			"0.019": 0.0,
			"0.02": 0.0,
			"0.021": 0.0,
			"0.022": 0.0,
			"0.023": 0.0,
			"0.024": 0.0,
			"0.025": 0.0
		}
	}
}
