{
	 "smiles": "CCCCCCCCCCCCCCCCC(=O)OC", 
	 "Tm": 303.15, 
	 "num_atms": 56, 
	 "gaussian": { 
		 "optdone": 1, 
		 "sigma_profile": "yes", 
		 "theory": "DFT", 
		 "functional": "B3LYP", 
		 "basiset": "6-31G**", 
		 "properties": { 
			 "R2extent": 11433.6882, 
			 "electric_dipole_moment_norm": 1.77935653819, 
			 "electric_quadrupole_moment_norm": 7.30958398885, 
			 "total_energy": -858.108711469, 
			 "HOMO_LUMO_gap": 0.27754, 
			 "cosmo_polarized_energy": -6.9, 
			 "cosmo_cavitation_energy": 54.35, 
			 "cosmo_dispersion_energy": -34.93, 
			 "cosmo_repulsion_energy": 2.8, 
			 "cosmo_total_nonelectrostatic_energy": 22.22, 
			 "SMD_solvation_energy": 8.56 
		},
		"coords": [
			{
				"x": 5.2312185717,
				"y": 2.474870848,
				"z": -0.0902922798,
				"element": "C" 
			},
			{
				"x": 4.1881755608,
				"y": 3.1290243785,
				"z": -1.0067833677,
				"element": "C" 
			},
			{
				"x": 2.7693568789,
				"y": 3.2650442711,
				"z": -0.4125029855,
				"element": "C" 
			},
			{
				"x": 1.8218129504,
				"y": 2.0667399342,
				"z": -0.6211984592,
				"element": "C" 
			},
			{
				"x": 2.1754624505,
				"y": 0.7389760675,
				"z": 0.0717972722,
				"element": "C" 
			},
			{
				"x": 2.2077716947,
				"y": 0.8085465706,
				"z": 1.6070840071,
				"element": "C" 
			},
			{
				"x": 2.4738275306,
				"y": -0.5409882608,
				"z": 2.3133255341,
				"element": "C" 
			},
			{
				"x": 1.2273009466,
				"y": -1.3427227193,
				"z": 2.7304080623,
				"element": "C" 
			},
			{
				"x": 0.3254059057,
				"y": -1.8375056455,
				"z": 1.5915442119,
				"element": "C" 
			},
			{
				"x": -0.8095835515,
				"y": -2.7481726717,
				"z": 2.0879506023,
				"element": "C" 
			},
			{
				"x": -1.7614212822,
				"y": -3.2702885392,
				"z": 0.9874200073,
				"element": "C" 
			},
			{
				"x": -3.0484933054,
				"y": -2.4536181126,
				"z": 0.766373477,
				"element": "C" 
			},
			{
				"x": -2.8463381521,
				"y": -1.0091487303,
				"z": 0.2881016314,
				"element": "C" 
			},
			{
				"x": -4.1520754177,
				"y": -0.2270573863,
				"z": 0.0553954453,
				"element": "C" 
			},
			{
				"x": -5.1014340836,
				"y": -0.79245377,
				"z": -1.0162638685,
				"element": "C" 
			},
			{
				"x": -4.4781931281,
				"y": -0.9579408509,
				"z": -2.4211799555,
				"element": "C" 
			},
			{
				"x": -3.9169283062,
				"y": 0.3406021038,
				"z": -2.9591317898,
				"element": "C" 
			},
			{
				"x": -2.7426989813,
				"y": 0.6448761935,
				"z": -2.9878816528,
				"element": "O" 
			},
			{
				"x": -4.9055763303,
				"y": 1.1623341651,
				"z": -3.386160486,
				"element": "O" 
			},
			{
				"x": -4.4729278406,
				"y": 2.4426404387,
				"z": -3.8728710502,
				"element": "C" 
			},
			{
				"x": 5.3288733538,
				"y": 3.0319962147,
				"z": 0.8488540025,
				"element": "H" 
			},
			{
				"x": 6.2173111434,
				"y": 2.4598029946,
				"z": -0.5675436421,
				"element": "H" 
			},
			{
				"x": 4.974801097,
				"y": 1.4428611307,
				"z": 0.165089235,
				"element": "H" 
			},
			{
				"x": 4.1315698065,
				"y": 2.5776025764,
				"z": -1.9555764577,
				"element": "H" 
			},
			{
				"x": 4.5523848484,
				"y": 4.1309400843,
				"z": -1.2680255736,
				"element": "H" 
			},
			{
				"x": 2.2854592833,
				"y": 4.1331495852,
				"z": -0.8783258683,
				"element": "H" 
			},
			{
				"x": 2.8444677409,
				"y": 3.5112114897,
				"z": 0.6553831206,
				"element": "H" 
			},
			{
				"x": 0.8169233346,
				"y": 2.367154308,
				"z": -0.2927449508,
				"element": "H" 
			},
			{
				"x": 1.7368816429,
				"y": 1.882186226,
				"z": -1.700779802,
				"element": "H" 
			},
			{
				"x": 3.1442633231,
				"y": 0.3707754165,
				"z": -0.2904823628,
				"element": "H" 
			},
			{
				"x": 1.4411408562,
				"y": -0.0101560964,
				"z": -0.2463663759,
				"element": "H" 
			},
			{
				"x": 1.260897914,
				"y": 1.2320323125,
				"z": 1.973259468,
				"element": "H" 
			},
			{
				"x": 2.985183942,
				"y": 1.5207941805,
				"z": 1.9078939284,
				"element": "H" 
			},
			{
				"x": 3.1122140773,
				"y": -1.1668582495,
				"z": 1.6734009457,
				"element": "H" 
			},
			{
				"x": 3.0592468025,
				"y": -0.35433817,
				"z": 3.2224364851,
				"element": "H" 
			},
			{
				"x": 1.558853909,
				"y": -2.2124151719,
				"z": 3.3154479914,
				"element": "H" 
			},
			{
				"x": 0.6277258268,
				"y": -0.7305640972,
				"z": 3.4199513404,
				"element": "H" 
			},
			{
				"x": -0.0934434248,
				"y": -0.9827251586,
				"z": 1.0494115432,
				"element": "H" 
			},
			{
				"x": 0.9310990227,
				"y": -2.3931942768,
				"z": 0.8612619001,
				"element": "H" 
			},
			{
				"x": -1.3933197561,
				"y": -2.2218343813,
				"z": 2.8571651186,
				"element": "H" 
			},
			{
				"x": -0.3523955467,
				"y": -3.6045486423,
				"z": 2.6012029555,
				"element": "H" 
			},
			{
				"x": -1.2120044847,
				"y": -3.3474680418,
				"z": 0.0385392466,
				"element": "H" 
			},
			{
				"x": -2.0641978575,
				"y": -4.294565218,
				"z": 1.2383729709,
				"element": "H" 
			},
			{
				"x": -3.6687228136,
				"y": -2.9956523461,
				"z": 0.0400672395,
				"element": "H" 
			},
			{
				"x": -3.6260621973,
				"y": -2.4417185917,
				"z": 1.7026542398,
				"element": "H" 
			},
			{
				"x": -2.2448784262,
				"y": -0.9980307262,
				"z": -0.6298160492,
				"element": "H" 
			},
			{
				"x": -2.2613928415,
				"y": -0.4587533214,
				"z": 1.0347128001,
				"element": "H" 
			},
			{
				"x": -4.7086077144,
				"y": -0.1655816996,
				"z": 1.0004785956,
				"element": "H" 
			},
			{
				"x": -3.89186635,
				"y": 0.8061671077,
				"z": -0.2081528993,
				"element": "H" 
			},
			{
				"x": -5.4837854027,
				"y": -1.7710103107,
				"z": -0.7039846439,
				"element": "H" 
			},
			{
				"x": -5.9737313906,
				"y": -0.1339780576,
				"z": -1.0982199347,
				"element": "H" 
			},
			{
				"x": -5.2453075843,
				"y": -1.3250940692,
				"z": -3.1106800535,
				"element": "H" 
			},
			{
				"x": -3.658537817,
				"y": -1.6796580127,
				"z": -2.4020334655,
				"element": "H" 
			},
			{
				"x": -3.804987252,
				"y": 2.3238039913,
				"z": -4.7298283757,
				"element": "H" 
			},
			{
				"x": -3.9441875269,
				"y": 2.9947902925,
				"z": -3.091616267,
				"element": "H" 
			},
			{
				"x": -5.3808316486,
				"y": 2.969818444,
				"z": -4.1662407607,
				"element": "H" 
			}
		],
		 "valence_orbital": [ 
			{
				"type": "occ",
				"energy": -0.29865,
				"method": "rhf"
			},
			{
				"type": "occ",
				"energy": -0.29732,
				"method": "rhf"
			},
			{
				"type": "occ",
				"energy": -0.29048,
				"method": "rhf"
			},
			{
				"type": "occ",
				"energy": -0.28708,
				"method": "rhf"
			},
			{
				"type": "occ",
				"energy": -0.2647,
				"method": "rhf"
			},
			{
				"type": "unocc",
				"energy": 0.01284,
				"method": "rhf"
			},
			{
				"type": "unocc",
				"energy": 0.07705,
				"method": "rhf"
			},
			{
				"type": "unocc",
				"energy": 0.08438,
				"method": "rhf"
			},
			{
				"type": "unocc",
				"energy": 0.10019,
				"method": "rhf"
			},
			{
				"type": "unocc",
				"energy": 0.10251,
				"method": "rhf"
			}
		],
		"cosmo_sigma_profile": { 
			"-0.025": 0.0,
			"-0.024": 0.0,
			"-0.023": 0.0,
			"-0.022": 0.0,
			"-0.021": 0.0,
			"-0.02": 0.0,
			"-0.019": 0.0,
			"-0.018": 0.0,
			"-0.017": 0.0,
			"-0.016": 0.0,
			"-0.015": 0.0,
			"-0.014": 0.0,
			"-0.013": 0.0,
			"-0.012": 0.0,
			"-0.011": 0.0,
			"-0.01": 0.0,
			"-0.009": 0.0,
			"-0.008": 0.0,
			"-0.007": 0.283795165401,
			"-0.006": 3.41071674595,
			"-0.005": 8.2285682415,
			"-0.004": 12.6167816633,
			"-0.003": 24.1658065227,
			"-0.002": 48.1739389855,
			"-0.001": 91.3429180986,
			"0.0": 95.8860095904,
			"0.001": 67.8960137329,
			"0.002": 31.7538858884,
			"0.003": 5.33035155042,
			"0.004": 3.06861173214,
			"0.005": 3.27215548071,
			"0.006": 3.67974448159,
			"0.007": 2.73148536424,
			"0.008": 2.34981141684,
			"0.009": 2.22735684029,
			"0.01": 2.00567673088,
			"0.011": 1.96459406143,
			"0.012": 4.22208150158,
			"0.013": 2.08813350126,
			"0.014": 0.0,
			"0.015": 0.0,
			"0.016": 0.0,
			"0.017": 0.0,
			"0.018": 0.0,
			"0.019": 0.0,
			"0.02": 0.0,
			"0.021": 0.0,
			"0.022": 0.0,
			"0.023": 0.0,
			"0.024": 0.0,
			"0.025": 0.0
		}
	}
}
