{
	 "smiles": "[O-][N+](=O)C1=CN=C(C=C1)N1CCNCC1", 
	 "Tm": 402.15, 
	 "num_atms": 27, 
	 "gaussian": { 
		 "optdone": 1, 
		 "sigma_profile": "yes", 
		 "theory": "DFT", 
		 "functional": "B3LYP", 
		 "basiset": "6-31G**", 
		 "properties": { 
			 "R2extent": 5669.8024, 
			 "electric_dipole_moment_norm": 6.74837090119, 
			 "electric_quadrupole_moment_norm": 36.9593047932, 
			 "total_energy": -719.536055985, 
			 "HOMO_LUMO_gap": 0.14315, 
			 "cosmo_polarized_energy": -15.16, 
			 "cosmo_cavitation_energy": 29.88, 
			 "cosmo_dispersion_energy": -22.46, 
			 "cosmo_repulsion_energy": 1.74, 
			 "cosmo_total_nonelectrostatic_energy": 9.16, 
			 "SMD_solvation_energy": 2.98 
		},
		"coords": [
			{
				"x": -2.1570972173,
				"y": -5.4233871169,
				"z": 2.3559935742,
				"element": "O" 
			},
			{
				"x": -1.7387503311,
				"y": -4.9217870772,
				"z": 1.3078360531,
				"element": "N" 
			},
			{
				"x": -1.5769570842,
				"y": -5.5413171265,
				"z": 0.2523246087,
				"element": "O" 
			},
			{
				"x": -1.4173712315,
				"y": -3.5099817121,
				"z": 1.3194849956,
				"element": "C" 
			},
			{
				"x": -0.9360828486,
				"y": -2.8834404902,
				"z": 0.1698747925,
				"element": "C" 
			},
			{
				"x": -0.6278889488,
				"y": -1.5937082054,
				"z": 0.1286890192,
				"element": "N" 
			},
			{
				"x": -0.7870466372,
				"y": -0.8369824202,
				"z": 1.2412280331,
				"element": "C" 
			},
			{
				"x": -1.2513247831,
				"y": -1.4135914762,
				"z": 2.459077121,
				"element": "C" 
			},
			{
				"x": -1.5693538444,
				"y": -2.7546918134,
				"z": 2.4875508772,
				"element": "C" 
			},
			{
				"x": -0.4892139811,
				"y": 0.4961645506,
				"z": 1.1160493586,
				"element": "N" 
			},
			{
				"x": -0.5386901485,
				"y": 1.4412765756,
				"z": 2.2302721724,
				"element": "C" 
			},
			{
				"x": -1.0706711143,
				"y": 2.8079395259,
				"z": 1.7563939176,
				"element": "C" 
			},
			{
				"x": -0.3839498829,
				"y": 3.3507536215,
				"z": 0.5882487434,
				"element": "N" 
			},
			{
				"x": -0.347040093,
				"y": 2.3644858031,
				"z": -0.4935257039,
				"element": "C" 
			},
			{
				"x": 0.2167529972,
				"y": 1.0023679903,
				"z": -0.0693891884,
				"element": "C" 
			},
			{
				"x": -0.7995468389,
				"y": -3.4600047705,
				"z": -0.7402147518,
				"element": "H" 
			},
			{
				"x": -1.3455565124,
				"y": -0.8307763601,
				"z": 3.3651529633,
				"element": "H" 
			},
			{
				"x": -1.9239286002,
				"y": -3.2359298104,
				"z": 3.3911795234,
				"element": "H" 
			},
			{
				"x": -1.1924779099,
				"y": 1.0647644824,
				"z": 3.017001596,
				"element": "H" 
			},
			{
				"x": 0.4687000032,
				"y": 1.5621767243,
				"z": 2.6631083669,
				"element": "H" 
			},
			{
				"x": -1.0037446762,
				"y": 3.525006921,
				"z": 2.5816558243,
				"element": "H" 
			},
			{
				"x": -2.1327808907,
				"y": 2.6984262204,
				"z": 1.5020937321,
				"element": "H" 
			},
			{
				"x": 0.5675348979,
				"y": 3.6117625794,
				"z": 0.8422751742,
				"element": "H" 
			},
			{
				"x": -1.3718667294,
				"y": 2.229538339,
				"z": -0.8621005186,
				"element": "H" 
			},
			{
				"x": 0.2484000537,
				"y": 2.7631781673,
				"z": -1.3216284843,
				"element": "H" 
			},
			{
				"x": 1.2881642214,
				"y": 1.1067550645,
				"z": 0.1715037665,
				"element": "H" 
			},
			{
				"x": 0.1212881304,
				"y": 0.2630018137,
				"z": -0.8625355661,
				"element": "H" 
			}
		],
		 "valence_orbital": [ 
			{
				"type": "occ",
				"energy": -0.29397,
				"method": "rhf"
			},
			{
				"type": "occ",
				"energy": -0.27872,
				"method": "rhf"
			},
			{
				"type": "occ",
				"energy": -0.27114,
				"method": "rhf"
			},
			{
				"type": "occ",
				"energy": -0.24591,
				"method": "rhf"
			},
			{
				"type": "occ",
				"energy": -0.219,
				"method": "rhf"
			},
			{
				"type": "unocc",
				"energy": -0.07585,
				"method": "rhf"
			},
			{
				"type": "unocc",
				"energy": -0.03591,
				"method": "rhf"
			},
			{
				"type": "unocc",
				"energy": 0.01278,
				"method": "rhf"
			},
			{
				"type": "unocc",
				"energy": 0.06656,
				"method": "rhf"
			},
			{
				"type": "unocc",
				"energy": 0.08453,
				"method": "rhf"
			}
		],
		"cosmo_sigma_profile": { 
			"-0.025": 0.0,
			"-0.024": 0.0,
			"-0.023": 0.0,
			"-0.022": 0.0,
			"-0.021": 0.0,
			"-0.02": 0.0,
			"-0.019": 0.0,
			"-0.018": 0.0,
			"-0.017": 0.0,
			"-0.016": 0.0,
			"-0.015": 0.0,
			"-0.014": 0.0,
			"-0.013": 0.0,
			"-0.012": 0.0,
			"-0.011": 0.0376950463274,
			"-0.01": 1.30103037256,
			"-0.009": 3.38327183172,
			"-0.008": 4.92479647871,
			"-0.007": 7.5085819811,
			"-0.006": 8.11731695832,
			"-0.005": 15.7274640843,
			"-0.004": 26.0450626454,
			"-0.003": 25.0917282265,
			"-0.002": 20.261270136,
			"-0.001": 20.0501253295,
			"0.0": 19.2524564449,
			"0.001": 13.3155278305,
			"0.002": 9.61481390452,
			"0.003": 6.1209616998,
			"0.004": 5.72706470797,
			"0.005": 4.41226962019,
			"0.006": 4.92251501734,
			"0.007": 7.06184145697,
			"0.008": 10.1071702559,
			"0.009": 9.78766596483,
			"0.01": 6.01501517626,
			"0.011": 3.30785250155,
			"0.012": 0.943264336226,
			"0.013": 0.841822428264,
			"0.014": 0.433039624695,
			"0.015": 0.586290489097,
			"0.016": 0.507385371985,
			"0.017": 0.608107731188,
			"0.018": 0.373944392339,
			"0.019": 0.0,
			"0.02": 0.0,
			"0.021": 0.0,
			"0.022": 0.0,
			"0.023": 0.0,
			"0.024": 0.0,
			"0.025": 0.0
		}
	}
}
