{
	 "smiles": "COC(=O)C(C)=COP(=S)(OC)OC", 
	 "Tm": 298.15, 
	 "num_atms": 27, 
	 "gaussian": { 
		 "optdone": 1, 
		 "sigma_profile": "yes", 
		 "theory": "DFT", 
		 "functional": "B3LYP", 
		 "basiset": "6-31G**", 
		 "properties": { 
			 "R2extent": 5887.0245, 
			 "electric_dipole_moment_norm": 5.05986227579, 
			 "electric_quadrupole_moment_norm": 23.5557042298, 
			 "total_energy": -1390.28683014, 
			 "HOMO_LUMO_gap": 0.21407, 
			 "cosmo_polarized_energy": -14.04, 
			 "cosmo_cavitation_energy": 35.21, 
			 "cosmo_dispersion_energy": -24.6, 
			 "cosmo_repulsion_energy": 1.92, 
			 "cosmo_total_nonelectrostatic_energy": 12.53, 
			 "SMD_solvation_energy": 9.63 
		},
		"coords": [
			{
				"x": 1.355026089,
				"y": -1.7286433141,
				"z": 3.7458977067,
				"element": "C" 
			},
			{
				"x": 1.0221246468,
				"y": -1.7494347716,
				"z": 2.3500171317,
				"element": "O" 
			},
			{
				"x": 1.2516685569,
				"y": -0.5892078651,
				"z": 1.6876179411,
				"element": "C" 
			},
			{
				"x": 1.7035615283,
				"y": 0.4027755183,
				"z": 2.2295510613,
				"element": "O" 
			},
			{
				"x": 0.8784810994,
				"y": -0.7070760988,
				"z": 0.2534616994,
				"element": "C" 
			},
			{
				"x": 0.3121229971,
				"y": -1.9918499995,
				"z": -0.2864290093,
				"element": "C" 
			},
			{
				"x": 1.0943224469,
				"y": 0.3966983121,
				"z": -0.4773580406,
				"element": "C" 
			},
			{
				"x": 0.8193482652,
				"y": 0.4226715413,
				"z": -1.8236205465,
				"element": "O" 
			},
			{
				"x": 0.8135708113,
				"y": 1.8176252196,
				"z": -2.6884033892,
				"element": "P" 
			},
			{
				"x": 2.2362766958,
				"y": 3.0811486662,
				"z": -2.3984273517,
				"element": "S" 
			},
			{
				"x": -0.6968334226,
				"y": 2.2937537791,
				"z": -2.3476275115,
				"element": "O" 
			},
			{
				"x": -1.132618672,
				"y": 3.6333934093,
				"z": -2.6566296113,
				"element": "C" 
			},
			{
				"x": 0.7652586187,
				"y": 1.2194725137,
				"z": -4.1762949446,
				"element": "O" 
			},
			{
				"x": -0.1861200745,
				"y": 0.2022336879,
				"z": -4.5578200786,
				"element": "C" 
			},
			{
				"x": 1.1153831645,
				"y": -2.7238423135,
				"z": 4.1207622472,
				"element": "H" 
			},
			{
				"x": 2.4167835681,
				"y": -1.5104391204,
				"z": 3.8859907785,
				"element": "H" 
			},
			{
				"x": 0.7702095075,
				"y": -0.9690096341,
				"z": 4.2709121598,
				"element": "H" 
			},
			{
				"x": 1.0206963057,
				"y": -2.8164794325,
				"z": -0.1579247624,
				"element": "H" 
			},
			{
				"x": 0.0782410418,
				"y": -1.8955532613,
				"z": -1.3479220147,
				"element": "H" 
			},
			{
				"x": -0.6002141624,
				"y": -2.2726440332,
				"z": 0.2493610075,
				"element": "H" 
			},
			{
				"x": 1.516645502,
				"y": 1.2994034269,
				"z": -0.0482726171,
				"element": "H" 
			},
			{
				"x": -2.1357844835,
				"y": 3.725204658,
				"z": -2.2391125404,
				"element": "H" 
			},
			{
				"x": -0.4642698917,
				"y": 4.367159542,
				"z": -2.1997837122,
				"element": "H" 
			},
			{
				"x": -1.1658004905,
				"y": 3.7884497371,
				"z": -3.7391989558,
				"element": "H" 
			},
			{
				"x": -0.1326637805,
				"y": 0.1350147234,
				"z": -5.6447171912,
				"element": "H" 
			},
			{
				"x": -1.197539599,
				"y": 0.4801652778,
				"z": -4.2498768322,
				"element": "H" 
			},
			{
				"x": 0.0902237316,
				"y": -0.7546901686,
				"z": -4.1094526237,
				"element": "H" 
			}
		],
		 "valence_orbital": [ 
			{
				"type": "occ",
				"energy": -0.29804,
				"method": "rhf"
			},
			{
				"type": "occ",
				"energy": -0.26885,
				"method": "rhf"
			},
			{
				"type": "occ",
				"energy": -0.25452,
				"method": "rhf"
			},
			{
				"type": "occ",
				"energy": -0.25265,
				"method": "rhf"
			},
			{
				"type": "occ",
				"energy": -0.24568,
				"method": "rhf"
			},
			{
				"type": "unocc",
				"energy": -0.03161,
				"method": "rhf"
			},
			{
				"type": "unocc",
				"energy": 0.02864,
				"method": "rhf"
			},
			{
				"type": "unocc",
				"energy": 0.03896,
				"method": "rhf"
			},
			{
				"type": "unocc",
				"energy": 0.05821,
				"method": "rhf"
			},
			{
				"type": "unocc",
				"energy": 0.07631,
				"method": "rhf"
			}
		],
		"cosmo_sigma_profile": { 
			"-0.025": 0.0,
			"-0.024": 0.0,
			"-0.023": 0.0,
			"-0.022": 0.0,
			"-0.021": 0.0,
			"-0.02": 0.0,
			"-0.019": 0.0,
			"-0.018": 0.0,
			"-0.017": 0.0,
			"-0.016": 0.0,
			"-0.015": 0.0,
			"-0.014": 0.0,
			"-0.013": 0.0,
			"-0.012": 0.0,
			"-0.011": 0.0,
			"-0.01": 0.0,
			"-0.009": 0.0,
			"-0.008": 0.214508754004,
			"-0.007": 5.8076642436,
			"-0.006": 16.9300187401,
			"-0.005": 24.5512955191,
			"-0.004": 31.4518975078,
			"-0.003": 26.2061127874,
			"-0.002": 23.9033495819,
			"-0.001": 22.4951985988,
			"0.0": 20.4776573713,
			"0.001": 17.8777628326,
			"0.002": 13.3022099659,
			"0.003": 10.6801699181,
			"0.004": 10.2270589336,
			"0.005": 8.86956296616,
			"0.006": 11.7208292442,
			"0.007": 10.6214124529,
			"0.008": 9.10518379368,
			"0.009": 5.61137240576,
			"0.01": 2.37672596824,
			"0.011": 1.88610173109,
			"0.012": 4.70159285065,
			"0.013": 0.847952027288,
			"0.014": 0.0,
			"0.015": 0.0,
			"0.016": 0.0,
			"0.017": 0.0,
			"0.018": 0.0,
			"0.019": 0.0,
			"0.02": 0.0,
			"0.021": 0.0,
			"0.022": 0.0,
			"0.023": 0.0,
			"0.024": 0.0,
			"0.025": 0.0
		}
	}
}
