{
	 "smiles": "OC(=O)C1=C(Cl)C=C(C=N1)C#N", 
	 "Tm": 423.15, 
	 "num_atms": 15, 
	 "gaussian": { 
		 "optdone": 1, 
		 "sigma_profile": "yes", 
		 "theory": "DFT", 
		 "functional": "B3LYP", 
		 "basiset": "6-31G**", 
		 "properties": { 
			 "R2extent": 2518.8667, 
			 "electric_dipole_moment_norm": 2.05879131774, 
			 "electric_quadrupole_moment_norm": 24.9815058401, 
			 "total_energy": -988.673188993, 
			 "HOMO_LUMO_gap": 0.16785, 
			 "cosmo_polarized_energy": -15.86, 
			 "cosmo_cavitation_energy": 23.54, 
			 "cosmo_dispersion_energy": -17.11, 
			 "cosmo_repulsion_energy": 1.36, 
			 "cosmo_total_nonelectrostatic_energy": 7.8, 
			 "SMD_solvation_energy": 5.96 
		},
		"coords": [
			{
				"x": 1.9363961735,
				"y": 1.3137518086,
				"z": 2.0267793403,
				"element": "O" 
			},
			{
				"x": 0.899758531,
				"y": 1.4376781683,
				"z": 1.1865107577,
				"element": "C" 
			},
			{
				"x": 0.3447037503,
				"y": 2.4880617933,
				"z": 0.975309417,
				"element": "O" 
			},
			{
				"x": 0.5061979578,
				"y": 0.1195371345,
				"z": 0.5359126532,
				"element": "C" 
			},
			{
				"x": -0.5423911631,
				"y": -0.049008376,
				"z": -0.3857888305,
				"element": "C" 
			},
			{
				"x": -1.5659638647,
				"y": 1.2403159814,
				"z": -0.9325189366,
				"element": "Cl" 
			},
			{
				"x": -0.7832319301,
				"y": -1.3256421869,
				"z": -0.898028161,
				"element": "C" 
			},
			{
				"x": 0.0186307947,
				"y": -2.3935507058,
				"z": -0.4837265012,
				"element": "C" 
			},
			{
				"x": 1.0460899464,
				"y": -2.1385789751,
				"z": 0.4412156083,
				"element": "C" 
			},
			{
				"x": 1.265918911,
				"y": -0.9219204307,
				"z": 0.9212151851,
				"element": "N" 
			},
			{
				"x": -0.1958793078,
				"y": -3.7176978987,
				"z": -0.9853514629,
				"element": "C" 
			},
			{
				"x": -0.3624328269,
				"y": -4.7958356101,
				"z": -1.3869659829,
				"element": "N" 
			},
			{
				"x": 2.1999462374,
				"y": 0.3700353994,
				"z": 2.0189675128,
				"element": "H" 
			},
			{
				"x": -1.5857882455,
				"y": -1.4809010535,
				"z": -1.6098641172,
				"element": "H" 
			},
			{
				"x": 1.692045036,
				"y": -2.9392450488,
				"z": 0.7894335179,
				"element": "H" 
			}
		],
		 "valence_orbital": [ 
			{
				"type": "occ",
				"energy": -0.33271,
				"method": "rhf"
			},
			{
				"type": "occ",
				"energy": -0.32717,
				"method": "rhf"
			},
			{
				"type": "occ",
				"energy": -0.32371,
				"method": "rhf"
			},
			{
				"type": "occ",
				"energy": -0.2982,
				"method": "rhf"
			},
			{
				"type": "occ",
				"energy": -0.28066,
				"method": "rhf"
			},
			{
				"type": "unocc",
				"energy": -0.11281,
				"method": "rhf"
			},
			{
				"type": "unocc",
				"energy": -0.08038,
				"method": "rhf"
			},
			{
				"type": "unocc",
				"energy": -0.00802,
				"method": "rhf"
			},
			{
				"type": "unocc",
				"energy": -0.00694,
				"method": "rhf"
			},
			{
				"type": "unocc",
				"energy": 0.00781,
				"method": "rhf"
			}
		],
		"cosmo_sigma_profile": { 
			"-0.025": 0.0,
			"-0.024": 0.0,
			"-0.023": 0.0,
			"-0.022": 0.0,
			"-0.021": 0.0,
			"-0.02": 0.0,
			"-0.019": 0.0,
			"-0.018": 0.0,
			"-0.017": 0.0,
			"-0.016": 0.0,
			"-0.015": 0.0,
			"-0.014": 0.043273883182,
			"-0.013": 0.594671811361,
			"-0.012": 0.668830119854,
			"-0.011": 3.23324178714,
			"-0.01": 5.74108108624,
			"-0.009": 3.86435443023,
			"-0.008": 4.39579931907,
			"-0.007": 6.80292843543,
			"-0.006": 10.8965609527,
			"-0.005": 15.6476183832,
			"-0.004": 18.5572353191,
			"-0.003": 13.5699111655,
			"-0.002": 7.95133081835,
			"-0.001": 8.43533006554,
			"0.0": 8.84142738572,
			"0.001": 9.72357657982,
			"0.002": 10.165009227,
			"0.003": 8.68910788341,
			"0.004": 6.0636597445,
			"0.005": 5.27683559584,
			"0.006": 5.70145553688,
			"0.007": 5.44384766487,
			"0.008": 7.48483348645,
			"0.009": 7.49112809791,
			"0.01": 8.06283692448,
			"0.011": 7.69043531519,
			"0.012": 2.88945993008,
			"0.013": 0.156132957052,
			"0.014": 0.0,
			"0.015": 0.0,
			"0.016": 0.0,
			"0.017": 0.0,
			"0.018": 0.0,
			"0.019": 0.0,
			"0.02": 0.0,
			"0.021": 0.0,
			"0.022": 0.0,
			"0.023": 0.0,
			"0.024": 0.0,
			"0.025": 0.0
		}
	}
}
