{
	 "smiles": "CCCC(C)=C(C)C", 
	 "Tm": 158.15, 
	 "num_atms": 24, 
	 "gaussian": { 
		 "optdone": 1, 
		 "sigma_profile": "yes", 
		 "theory": "DFT", 
		 "functional": "B3LYP", 
		 "basiset": "6-31G**", 
		 "properties": { 
			 "R2extent": 1729.0314, 
			 "electric_dipole_moment_norm": 0.0601838018075, 
			 "electric_quadrupole_moment_norm": 1.31755057588, 
			 "total_energy": -314.499284312, 
			 "HOMO_LUMO_gap": 0.25122, 
			 "cosmo_polarized_energy": -1.5, 
			 "cosmo_cavitation_energy": 24.92, 
			 "cosmo_dispersion_energy": -17.79, 
			 "cosmo_repulsion_energy": 1.5, 
			 "cosmo_total_nonelectrostatic_energy": 8.63, 
			 "SMD_solvation_energy": 4.55 
		},
		"coords": [
			{
				"x": 2.5621312439,
				"y": -1.4978224151,
				"z": 1.0872356011,
				"element": "C" 
			},
			{
				"x": 1.1608292844,
				"y": -0.893472655,
				"z": 1.2204897468,
				"element": "C" 
			},
			{
				"x": 1.1545350701,
				"y": 0.6441643665,
				"z": 1.0981501609,
				"element": "C" 
			},
			{
				"x": -0.2140591792,
				"y": 1.2688996887,
				"z": 1.3272511064,
				"element": "C" 
			},
			{
				"x": -0.4777655714,
				"y": 1.5733340165,
				"z": 2.7863744994,
				"element": "C" 
			},
			{
				"x": -1.0934255489,
				"y": 1.5055784885,
				"z": 0.3314450574,
				"element": "C" 
			},
			{
				"x": -0.82528248,
				"y": 1.1687234398,
				"z": -1.1196522306,
				"element": "C" 
			},
			{
				"x": -2.4563615328,
				"y": 2.1334813058,
				"z": 0.5221495166,
				"element": "C" 
			},
			{
				"x": 3.0119148756,
				"y": -1.2477014051,
				"z": 0.1192958379,
				"element": "H" 
			},
			{
				"x": 2.5369887049,
				"y": -2.589542988,
				"z": 1.1691433663,
				"element": "H" 
			},
			{
				"x": 3.2327290094,
				"y": -1.1209780917,
				"z": 1.8681654755,
				"element": "H" 
			},
			{
				"x": 0.4994885617,
				"y": -1.3141090321,
				"z": 0.4527331983,
				"element": "H" 
			},
			{
				"x": 0.7260371825,
				"y": -1.184319426,
				"z": 2.1855386881,
				"element": "H" 
			},
			{
				"x": 1.8545900593,
				"y": 1.0531592675,
				"z": 1.8401552701,
				"element": "H" 
			},
			{
				"x": 1.5636684945,
				"y": 0.9235185483,
				"z": 0.1215416485,
				"element": "H" 
			},
			{
				"x": -0.2413804197,
				"y": 0.7001781938,
				"z": 3.4079955074,
				"element": "H" 
			},
			{
				"x": -1.5075067341,
				"y": 1.85745899,
				"z": 3.0047996931,
				"element": "H" 
			},
			{
				"x": 0.1749809536,
				"y": 2.3845967015,
				"z": 3.1370591673,
				"element": "H" 
			},
			{
				"x": -0.858464272,
				"y": 2.0735676827,
				"z": -1.7419479761,
				"element": "H" 
			},
			{
				"x": 0.1337455584,
				"y": 0.679376328,
				"z": -1.2916823357,
				"element": "H" 
			},
			{
				"x": -1.6084837909,
				"y": 0.5033103479,
				"z": -1.5071301217,
				"element": "H" 
			},
			{
				"x": -2.5562032069,
				"y": 3.0242995356,
				"z": -0.1126649721,
				"element": "H" 
			},
			{
				"x": -2.6683467105,
				"y": 2.4372234512,
				"z": 1.5473411104,
				"element": "H" 
			},
			{
				"x": -3.2502595518,
				"y": 1.4429756606,
				"z": 0.2062129846,
				"element": "H" 
			}
		],
		 "valence_orbital": [ 
			{
				"type": "occ",
				"energy": -0.3418,
				"method": "rhf"
			},
			{
				"type": "occ",
				"energy": -0.33401,
				"method": "rhf"
			},
			{
				"type": "occ",
				"energy": -0.32047,
				"method": "rhf"
			},
			{
				"type": "occ",
				"energy": -0.3034,
				"method": "rhf"
			},
			{
				"type": "occ",
				"energy": -0.21567,
				"method": "rhf"
			},
			{
				"type": "unocc",
				"energy": 0.03555,
				"method": "rhf"
			},
			{
				"type": "unocc",
				"energy": 0.08425,
				"method": "rhf"
			},
			{
				"type": "unocc",
				"energy": 0.11184,
				"method": "rhf"
			},
			{
				"type": "unocc",
				"energy": 0.11623,
				"method": "rhf"
			},
			{
				"type": "unocc",
				"energy": 0.13398,
				"method": "rhf"
			}
		],
		"cosmo_sigma_profile": { 
			"-0.025": 0.0,
			"-0.024": 0.0,
			"-0.023": 0.0,
			"-0.022": 0.0,
			"-0.021": 0.0,
			"-0.02": 0.0,
			"-0.019": 0.0,
			"-0.018": 0.0,
			"-0.017": 0.0,
			"-0.016": 0.0,
			"-0.015": 0.0,
			"-0.014": 0.0,
			"-0.013": 0.0,
			"-0.012": 0.0,
			"-0.011": 0.0,
			"-0.01": 0.0,
			"-0.009": 0.0,
			"-0.008": 0.0,
			"-0.007": 0.0,
			"-0.006": 0.0,
			"-0.005": 0.533572583338,
			"-0.004": 2.41891325389,
			"-0.003": 15.5594334251,
			"-0.002": 29.6409907286,
			"-0.001": 35.0771140927,
			"0.0": 34.2343697795,
			"0.001": 39.9789494097,
			"0.002": 18.3602332012,
			"0.003": 5.6395915231,
			"0.004": 3.81130182838,
			"0.005": 3.37838461016,
			"0.006": 2.36159267224,
			"0.007": 1.45123999078,
			"0.008": 0.185646569359,
			"0.009": 0.0,
			"0.01": 0.0,
			"0.011": 0.0,
			"0.012": 0.0,
			"0.013": 0.0,
			"0.014": 0.0,
			"0.015": 0.0,
			"0.016": 0.0,
			"0.017": 0.0,
			"0.018": 0.0,
			"0.019": 0.0,
			"0.02": 0.0,
			"0.021": 0.0,
			"0.022": 0.0,
			"0.023": 0.0,
			"0.024": 0.0,
			"0.025": 0.0
		}
	}
}
