{
	 "smiles": "CC1=CSC(=N1)C(O)(CC(O)=O)C(F)(F)F", 
	 "Tm": 383.15, 
	 "num_atms": 24, 
	 "gaussian": { 
		 "optdone": 1, 
		 "sigma_profile": "yes", 
		 "theory": "DFT", 
		 "functional": "B3LYP", 
		 "basiset": "6-31G**", 
		 "properties": { 
			 "R2extent": 3783.0941, 
			 "electric_dipole_moment_norm": 4.55569257523, 
			 "electric_quadrupole_moment_norm": 22.1783268136, 
			 "total_energy": -1287.81756242, 
			 "HOMO_LUMO_gap": 0.20936, 
			 "cosmo_polarized_energy": -13.49, 
			 "cosmo_cavitation_energy": 30.76, 
			 "cosmo_dispersion_energy": -21.63, 
			 "cosmo_repulsion_energy": 1.61, 
			 "cosmo_total_nonelectrostatic_energy": 10.74, 
			 "SMD_solvation_energy": 6.45 
		},
		"coords": [
			{
				"x": 1.5550136598,
				"y": -1.4850975705,
				"z": -3.5941278403,
				"element": "C" 
			},
			{
				"x": 0.4658743842,
				"y": -0.8677787786,
				"z": -2.7693120201,
				"element": "C" 
			},
			{
				"x": -0.58940669,
				"y": -0.12963685,
				"z": -3.2320036083,
				"element": "C" 
			},
			{
				"x": -1.6013440646,
				"y": 0.3925359877,
				"z": -1.9252698828,
				"element": "S" 
			},
			{
				"x": -0.527993642,
				"y": -0.422698003,
				"z": -0.8263725523,
				"element": "C" 
			},
			{
				"x": 0.4794176997,
				"y": -1.0219100719,
				"z": -1.3967328635,
				"element": "N" 
			},
			{
				"x": -0.6697851852,
				"y": -0.4917760538,
				"z": 0.6883806411,
				"element": "C" 
			},
			{
				"x": 0.5338208113,
				"y": -1.0334473526,
				"z": 1.21591178,
				"element": "O" 
			},
			{
				"x": -0.9369710301,
				"y": 0.8758517448,
				"z": 1.3467661345,
				"element": "C" 
			},
			{
				"x": 0.1375373487,
				"y": 1.9407998037,
				"z": 1.0969047338,
				"element": "C" 
			},
			{
				"x": 1.4091181262,
				"y": 1.5271141656,
				"z": 1.2403764688,
				"element": "O" 
			},
			{
				"x": -0.1381316969,
				"y": 3.0855107541,
				"z": 0.832972675,
				"element": "O" 
			},
			{
				"x": -1.8115617638,
				"y": -1.4695584759,
				"z": 1.061920018,
				"element": "C" 
			},
			{
				"x": -2.9981501974,
				"y": -1.0186934884,
				"z": 0.5943969135,
				"element": "F" 
			},
			{
				"x": -1.9189421825,
				"y": -1.5983826367,
				"z": 2.3944186274,
				"element": "F" 
			},
			{
				"x": -1.5936867963,
				"y": -2.6874203393,
				"z": 0.540114414,
				"element": "F" 
			},
			{
				"x": 2.5329241972,
				"y": -1.0899354714,
				"z": -3.2999542831,
				"element": "H" 
			},
			{
				"x": 1.5828234839,
				"y": -2.5700743387,
				"z": -3.4489245972,
				"element": "H" 
			},
			{
				"x": 1.4062772848,
				"y": -1.282184513,
				"z": -4.6569097983,
				"element": "H" 
			},
			{
				"x": -0.8237407419,
				"y": 0.1363155049,
				"z": -4.253026368,
				"element": "H" 
			},
			{
				"x": 0.96662798,
				"y": -1.485907385,
				"z": 0.4617497813,
				"element": "H" 
			},
			{
				"x": -1.0099287305,
				"y": 0.7084324226,
				"z": 2.4273353976,
				"element": "H" 
			},
			{
				"x": -1.8908858231,
				"y": 1.2830553837,
				"z": 1.009893703,
				"element": "H" 
			},
			{
				"x": 1.4082935685,
				"y": 0.5600855617,
				"z": 1.4006925261,
				"element": "H" 
			}
		],
		 "valence_orbital": [ 
			{
				"type": "occ",
				"energy": -0.31442,
				"method": "rhf"
			},
			{
				"type": "occ",
				"energy": -0.31037,
				"method": "rhf"
			},
			{
				"type": "occ",
				"energy": -0.30477,
				"method": "rhf"
			},
			{
				"type": "occ",
				"energy": -0.26758,
				"method": "rhf"
			},
			{
				"type": "occ",
				"energy": -0.26334,
				"method": "rhf"
			},
			{
				"type": "unocc",
				"energy": -0.05398,
				"method": "rhf"
			},
			{
				"type": "unocc",
				"energy": -0.00186,
				"method": "rhf"
			},
			{
				"type": "unocc",
				"energy": 0.00866,
				"method": "rhf"
			},
			{
				"type": "unocc",
				"energy": 0.02307,
				"method": "rhf"
			},
			{
				"type": "unocc",
				"energy": 0.05785,
				"method": "rhf"
			}
		],
		"cosmo_sigma_profile": { 
			"-0.025": 0.0,
			"-0.024": 0.0,
			"-0.023": 0.0,
			"-0.022": 0.0,
			"-0.021": 0.0,
			"-0.02": 0.0,
			"-0.019": 0.0,
			"-0.018": 0.0,
			"-0.017": 0.0,
			"-0.016": 0.0,
			"-0.015": 0.0,
			"-0.014": 0.0,
			"-0.013": 0.0,
			"-0.012": 0.657819900558,
			"-0.011": 0.983012423127,
			"-0.01": 2.58665385803,
			"-0.009": 6.12975613171,
			"-0.008": 7.23913372341,
			"-0.007": 7.22372470795,
			"-0.006": 9.44167661363,
			"-0.005": 13.904545153,
			"-0.004": 12.0741785346,
			"-0.003": 13.2578863722,
			"-0.002": 16.7459976343,
			"-0.001": 21.083288375,
			"0.0": 20.4977874952,
			"0.001": 27.425877905,
			"0.002": 36.2720024163,
			"0.003": 9.61300734649,
			"0.004": 5.60048591666,
			"0.005": 5.12209989201,
			"0.006": 2.87835776936,
			"0.007": 3.04466135878,
			"0.008": 3.79488321585,
			"0.009": 3.99057317643,
			"0.01": 4.40904096819,
			"0.011": 6.00048919022,
			"0.012": 5.1119972926,
			"0.013": 1.83853052342,
			"0.014": 0.0233246857566,
			"0.015": 0.0,
			"0.016": 0.0,
			"0.017": 0.0,
			"0.018": 0.0,
			"0.019": 0.0,
			"0.02": 0.0,
			"0.021": 0.0,
			"0.022": 0.0,
			"0.023": 0.0,
			"0.024": 0.0,
			"0.025": 0.0
		}
	}
}
