{
	 "smiles": "CCOC(=O)C1=NN(C(=C1S(=O)(=O)C1=CC=CC=C1)C1=CC=C(C=C1)[N+]([O-])=O)C1=C(Cl)C=C(Cl)C=C1", 
	 "Tm": 391.15, 
	 "num_atms": 53, 
	 "gaussian": { 
		 "optdone": 1, 
		 "sigma_profile": "yes", 
		 "theory": "DFT", 
		 "functional": "B3LYP", 
		 "basiset": "6-31G**", 
		 "properties": { 
			 "R2extent": 20719.9138, 
			 "electric_dipole_moment_norm": 6.23158661177, 
			 "electric_quadrupole_moment_norm": 27.2307708909, 
			 "total_energy": -2858.78095761, 
			 "HOMO_LUMO_gap": 0.16379, 
			 "cosmo_polarized_energy": -26.7, 
			 "cosmo_cavitation_energy": 64.29, 
			 "cosmo_dispersion_energy": -41.74, 
			 "cosmo_repulsion_energy": 3.16, 
			 "cosmo_total_nonelectrostatic_energy": 25.7, 
			 "SMD_solvation_energy": 12.01 
		},
		"coords": [
			{
				"x": -3.6563209633,
				"y": 4.9247517855,
				"z": -2.0345181349,
				"element": "C" 
			},
			{
				"x": -2.4932594375,
				"y": 4.4173542315,
				"z": -2.8725257534,
				"element": "C" 
			},
			{
				"x": -1.9869172918,
				"y": 3.1566055425,
				"z": -2.3588974096,
				"element": "O" 
			},
			{
				"x": -1.08732788,
				"y": 3.2323001259,
				"z": -1.3723974489,
				"element": "C" 
			},
			{
				"x": -0.6622434473,
				"y": 4.2643883938,
				"z": -0.8928655798,
				"element": "O" 
			},
			{
				"x": -0.6942130849,
				"y": 1.8713880621,
				"z": -0.8935023607,
				"element": "C" 
			},
			{
				"x": -1.6380716573,
				"y": 0.9606296422,
				"z": -0.6903302025,
				"element": "N" 
			},
			{
				"x": -0.9886830021,
				"y": -0.1218132264,
				"z": -0.1997749008,
				"element": "N" 
			},
			{
				"x": 0.3655802659,
				"y": 0.0726232716,
				"z": -0.0847638743,
				"element": "C" 
			},
			{
				"x": 0.5884653259,
				"y": 1.3761817474,
				"z": -0.5220779544,
				"element": "C" 
			},
			{
				"x": 2.1816489382,
				"y": 2.1118546471,
				"z": -0.8747581359,
				"element": "S" 
			},
			{
				"x": 1.9568075567,
				"y": 3.0755418051,
				"z": -1.9575071992,
				"element": "O" 
			},
			{
				"x": 3.1340450416,
				"y": 1.0017734386,
				"z": -1.0318308531,
				"element": "O" 
			},
			{
				"x": 2.6517779358,
				"y": 3.0048187753,
				"z": 0.6175944886,
				"element": "C" 
			},
			{
				"x": 3.7519558134,
				"y": 2.5427339151,
				"z": 1.3438177641,
				"element": "C" 
			},
			{
				"x": 4.1558392973,
				"y": 3.2487447553,
				"z": 2.47830552,
				"element": "C" 
			},
			{
				"x": 3.4634831864,
				"y": 4.3962486337,
				"z": 2.8709823707,
				"element": "C" 
			},
			{
				"x": 2.3686267203,
				"y": 4.8479225166,
				"z": 2.1289175085,
				"element": "C" 
			},
			{
				"x": 1.955246235,
				"y": 4.1585212571,
				"z": 0.9886343051,
				"element": "C" 
			},
			{
				"x": 1.2757166956,
				"y": -0.9859762728,
				"z": 0.3978355952,
				"element": "C" 
			},
			{
				"x": 1.3327885967,
				"y": -2.2255409701,
				"z": -0.2590087205,
				"element": "C" 
			},
			{
				"x": 2.1739535051,
				"y": -3.2315382076,
				"z": 0.205414942,
				"element": "C" 
			},
			{
				"x": 2.9525749913,
				"y": -2.9839551657,
				"z": 1.3332900044,
				"element": "C" 
			},
			{
				"x": 2.9203677284,
				"y": -1.7629386667,
				"z": 2.0030427596,
				"element": "C" 
			},
			{
				"x": 2.0770162469,
				"y": -0.7641573868,
				"z": 1.5287342779,
				"element": "C" 
			},
			{
				"x": 3.8394421923,
				"y": -4.0480345621,
				"z": 1.8353044396,
				"element": "N" 
			},
			{
				"x": 4.5176116484,
				"y": -3.8000123858,
				"z": 2.831270059,
				"element": "O" 
			},
			{
				"x": 3.8436507088,
				"y": -5.1181368846,
				"z": 1.2293653983,
				"element": "O" 
			},
			{
				"x": -1.7564915664,
				"y": -1.2519821554,
				"z": 0.2171520656,
				"element": "C" 
			},
			{
				"x": -2.3548380412,
				"y": -2.1063787814,
				"z": -0.7199716471,
				"element": "C" 
			},
			{
				"x": -2.1198527873,
				"y": -1.8604361279,
				"z": -2.4298681236,
				"element": "Cl" 
			},
			{
				"x": -3.1309696409,
				"y": -3.1848910133,
				"z": -0.2959252747,
				"element": "C" 
			},
			{
				"x": -3.294981075,
				"y": -3.4065664016,
				"z": 1.0707017518,
				"element": "C" 
			},
			{
				"x": -4.265140439,
				"y": -4.7624986179,
				"z": 1.5999258622,
				"element": "Cl" 
			},
			{
				"x": -2.7012256636,
				"y": -2.5727983976,
				"z": 2.0187798693,
				"element": "C" 
			},
			{
				"x": -1.9387329969,
				"y": -1.4945172073,
				"z": 1.5802870204,
				"element": "C" 
			},
			{
				"x": -3.3252242915,
				"y": 5.1715278485,
				"z": -1.022803795,
				"element": "H" 
			},
			{
				"x": -4.0706750376,
				"y": 5.8302995772,
				"z": -2.4898756163,
				"element": "H" 
			},
			{
				"x": -4.4497976618,
				"y": 4.1744141904,
				"z": -1.9754105925,
				"element": "H" 
			},
			{
				"x": -2.8036162645,
				"y": 4.1804318416,
				"z": -3.8921321562,
				"element": "H" 
			},
			{
				"x": -1.6729802075,
				"y": 5.1380028372,
				"z": -2.8987859466,
				"element": "H" 
			},
			{
				"x": 4.2805675456,
				"y": 1.6576452096,
				"z": 1.0076280672,
				"element": "H" 
			},
			{
				"x": 5.0136768108,
				"y": 2.9058763955,
				"z": 3.0490758192,
				"element": "H" 
			},
			{
				"x": 3.7807976331,
				"y": 4.9430266228,
				"z": 3.7542781368,
				"element": "H" 
			},
			{
				"x": 1.8371761105,
				"y": 5.7444019782,
				"z": 2.4339068632,
				"element": "H" 
			},
			{
				"x": 1.1084140258,
				"y": 4.497531062,
				"z": 0.4008378748,
				"element": "H" 
			},
			{
				"x": 0.7343229192,
				"y": -2.3932562499,
				"z": -1.1480352501,
				"element": "H" 
			},
			{
				"x": 2.2409247288,
				"y": -4.1920909902,
				"z": -0.2894316883,
				"element": "H" 
			},
			{
				"x": 3.5450047255,
				"y": -1.6164013501,
				"z": 2.8750543248,
				"element": "H" 
			},
			{
				"x": 2.0386860668,
				"y": 0.193791274,
				"z": 2.0359188445,
				"element": "H" 
			},
			{
				"x": -3.5917778774,
				"y": -3.8419492553,
				"z": -1.0229257241,
				"element": "H" 
			},
			{
				"x": -2.8412434778,
				"y": -2.7595720887,
				"z": 3.0768197019,
				"element": "H" 
			},
			{
				"x": -1.4803854035,
				"y": -0.8218890182,
				"z": 2.297248708,
				"element": "H" 
			}
		],
		 "valence_orbital": [ 
			{
				"type": "occ",
				"energy": -0.28401,
				"method": "rhf"
			},
			{
				"type": "occ",
				"energy": -0.27875,
				"method": "rhf"
			},
			{
				"type": "occ",
				"energy": -0.27171,
				"method": "rhf"
			},
			{
				"type": "occ",
				"energy": -0.26964,
				"method": "rhf"
			},
			{
				"type": "occ",
				"energy": -0.26495,
				"method": "rhf"
			},
			{
				"type": "unocc",
				"energy": -0.10116,
				"method": "rhf"
			},
			{
				"type": "unocc",
				"energy": -0.06094,
				"method": "rhf"
			},
			{
				"type": "unocc",
				"energy": -0.05298,
				"method": "rhf"
			},
			{
				"type": "unocc",
				"energy": -0.04556,
				"method": "rhf"
			},
			{
				"type": "unocc",
				"energy": -0.03801,
				"method": "rhf"
			}
		],
		"cosmo_sigma_profile": { 
			"-0.025": 0.0,
			"-0.024": 0.0,
			"-0.023": 0.0,
			"-0.022": 0.0,
			"-0.021": 0.0,
			"-0.02": 0.0,
			"-0.019": 0.0,
			"-0.018": 0.0,
			"-0.017": 0.0,
			"-0.016": 0.0,
			"-0.015": 0.0,
			"-0.014": 0.0,
			"-0.013": 0.0,
			"-0.012": 0.00408624359889,
			"-0.011": 0.0983809863598,
			"-0.01": 0.330878965835,
			"-0.009": 5.41040868468,
			"-0.008": 9.99617411563,
			"-0.007": 20.2799801991,
			"-0.006": 26.2586110011,
			"-0.005": 31.7192880606,
			"-0.004": 34.2556968552,
			"-0.003": 37.7114837457,
			"-0.002": 42.010131452,
			"-0.001": 50.1298405808,
			"0.0": 54.0994587514,
			"0.001": 37.0114985796,
			"0.002": 31.5310179296,
			"0.003": 35.1552748308,
			"0.004": 18.2759151937,
			"0.005": 11.0984467926,
			"0.006": 10.2836938676,
			"0.007": 16.678679931,
			"0.008": 14.4001398463,
			"0.009": 11.6173254508,
			"0.01": 11.5025284723,
			"0.011": 8.90166516479,
			"0.012": 2.98863319906,
			"0.013": 0.134089604848,
			"0.014": 0.0,
			"0.015": 0.0,
			"0.016": 0.0,
			"0.017": 0.0,
			"0.018": 0.0,
			"0.019": 0.0,
			"0.02": 0.0,
			"0.021": 0.0,
			"0.022": 0.0,
			"0.023": 0.0,
			"0.024": 0.0,
			"0.025": 0.0
		}
	}
}
