{
	 "smiles": "NC1=C(N=CN=C1Cl)N1C=CC=N1", 
	 "Tm": 384.15, 
	 "num_atms": 19, 
	 "gaussian": { 
		 "optdone": 1, 
		 "sigma_profile": "yes", 
		 "theory": "DFT", 
		 "functional": "B3LYP", 
		 "basiset": "6-31G**", 
		 "properties": { 
			 "R2extent": 3321.6614, 
			 "electric_dipole_moment_norm": 3.93905892441, 
			 "electric_quadrupole_moment_norm": 3.66008151275, 
			 "total_energy": -1004.27600541, 
			 "HOMO_LUMO_gap": 0.18091, 
			 "cosmo_polarized_energy": -15.34, 
			 "cosmo_cavitation_energy": 25.51, 
			 "cosmo_dispersion_energy": -19.3, 
			 "cosmo_repulsion_energy": 1.51, 
			 "cosmo_total_nonelectrostatic_energy": 7.73, 
			 "SMD_solvation_energy": 1.2 
		},
		"coords": [
			{
				"x": -0.0441253941,
				"y": 1.7331868331,
				"z": -0.0054582865,
				"element": "N" 
			},
			{
				"x": -1.0019509591,
				"y": 1.0633862477,
				"z": 0.7303641852,
				"element": "C" 
			},
			{
				"x": -1.0826094883,
				"y": -0.3470122293,
				"z": 0.815023535,
				"element": "C" 
			},
			{
				"x": -2.0086650287,
				"y": -0.9821496063,
				"z": 1.5246848255,
				"element": "N" 
			},
			{
				"x": -2.8807757624,
				"y": -0.2299393802,
				"z": 2.1910132518,
				"element": "C" 
			},
			{
				"x": -2.8944827238,
				"y": 1.1076247881,
				"z": 2.224841266,
				"element": "N" 
			},
			{
				"x": -1.9760198771,
				"y": 1.7188101499,
				"z": 1.5093001732,
				"element": "C" 
			},
			{
				"x": -1.9955794797,
				"y": 3.4823310495,
				"z": 1.5089942524,
				"element": "Cl" 
			},
			{
				"x": -0.1544756577,
				"y": -1.148067212,
				"z": 0.1007716156,
				"element": "N" 
			},
			{
				"x": 1.2142431343,
				"y": -1.0132492937,
				"z": 0.0620274149,
				"element": "C" 
			},
			{
				"x": 1.6927342298,
				"y": -2.0773648426,
				"z": -0.6653376405,
				"element": "C" 
			},
			{
				"x": 0.5347003427,
				"y": -2.8118210701,
				"z": -1.0259601677,
				"element": "C" 
			},
			{
				"x": -0.5774814167,
				"y": -2.2603005375,
				"z": -0.5596029034,
				"element": "N" 
			},
			{
				"x": -0.255510406,
				"y": 2.7047930418,
				"z": -0.1904366386,
				"element": "H" 
			},
			{
				"x": 0.3161024368,
				"y": 1.2333667382,
				"z": -0.8077125077,
				"element": "H" 
			},
			{
				"x": -3.6441774957,
				"y": -0.7438659995,
				"z": 2.7674872786,
				"element": "H" 
			},
			{
				"x": 1.713775199,
				"y": -0.2005413752,
				"z": 0.5675096198,
				"element": "H" 
			},
			{
				"x": 2.72404642,
				"y": -2.2976436931,
				"z": -0.8968996871,
				"element": "H" 
			},
			{
				"x": 0.4706519268,
				"y": -3.7175436087,
				"z": -1.6144095863,
				"element": "H" 
			}
		],
		 "valence_orbital": [ 
			{
				"type": "occ",
				"energy": -0.29639,
				"method": "rhf"
			},
			{
				"type": "occ",
				"energy": -0.27391,
				"method": "rhf"
			},
			{
				"type": "occ",
				"energy": -0.27237,
				"method": "rhf"
			},
			{
				"type": "occ",
				"energy": -0.26001,
				"method": "rhf"
			},
			{
				"type": "occ",
				"energy": -0.237,
				"method": "rhf"
			},
			{
				"type": "unocc",
				"energy": -0.05609,
				"method": "rhf"
			},
			{
				"type": "unocc",
				"energy": -0.03008,
				"method": "rhf"
			},
			{
				"type": "unocc",
				"energy": 0.00891,
				"method": "rhf"
			},
			{
				"type": "unocc",
				"energy": 0.01993,
				"method": "rhf"
			},
			{
				"type": "unocc",
				"energy": 0.05453,
				"method": "rhf"
			}
		],
		"cosmo_sigma_profile": { 
			"-0.025": 0.0,
			"-0.024": 0.0,
			"-0.023": 0.0,
			"-0.022": 0.0,
			"-0.021": 0.0,
			"-0.02": 0.0,
			"-0.019": 0.0,
			"-0.018": 0.0,
			"-0.017": 0.0,
			"-0.016": 0.0,
			"-0.015": 0.0,
			"-0.014": 0.506519659482,
			"-0.013": 1.76547684723,
			"-0.012": 2.2576376009,
			"-0.011": 2.63015400492,
			"-0.01": 2.60774734268,
			"-0.009": 2.92041500762,
			"-0.008": 6.87407835943,
			"-0.007": 10.0066999377,
			"-0.006": 8.58624813174,
			"-0.005": 9.77491137773,
			"-0.004": 12.1885651072,
			"-0.003": 14.894611715,
			"-0.002": 12.0790990327,
			"-0.001": 14.4667541283,
			"0.0": 13.4242292246,
			"0.001": 12.9255502735,
			"0.002": 14.3050169373,
			"0.003": 14.7681888769,
			"0.004": 12.0446564853,
			"0.005": 6.61588530791,
			"0.006": 5.3676700819,
			"0.007": 3.96461993869,
			"0.008": 3.71021123373,
			"0.009": 3.10863621561,
			"0.01": 3.20584187951,
			"0.011": 1.98312912675,
			"0.012": 3.49196957447,
			"0.013": 2.60060064766,
			"0.014": 1.60475672823,
			"0.015": 2.08774369619,
			"0.016": 1.59891467416,
			"0.017": 0.0100198819655,
			"0.018": 0.0,
			"0.019": 0.0,
			"0.02": 0.0,
			"0.021": 0.0,
			"0.022": 0.0,
			"0.023": 0.0,
			"0.024": 0.0,
			"0.025": 0.0
		}
	}
}
