{
	 "smiles": "COC1=CC(OC)=C(CNC2=NC=CS2)C=C1", 
	 "Tm": 386.15, 
	 "num_atms": 31, 
	 "gaussian": { 
		 "optdone": 1, 
		 "sigma_profile": "yes", 
		 "theory": "DFT", 
		 "functional": "B3LYP", 
		 "basiset": "6-31G**", 
		 "properties": { 
			 "R2extent": 7548.0271, 
			 "electric_dipole_moment_norm": 4.4873632826, 
			 "electric_quadrupole_moment_norm": 2.58612845582, 
			 "total_energy": -1123.81892516, 
			 "HOMO_LUMO_gap": 0.19843, 
			 "cosmo_polarized_energy": -13.31, 
			 "cosmo_cavitation_energy": 36.38, 
			 "cosmo_dispersion_energy": -26.07, 
			 "cosmo_repulsion_energy": 2.0, 
			 "cosmo_total_nonelectrostatic_energy": 12.32, 
			 "SMD_solvation_energy": 5.55 
		},
		"coords": [
			{
				"x": -1.0810552087,
				"y": 2.1572742983,
				"z": -3.6609145269,
				"element": "C" 
			},
			{
				"x": 0.3137203026,
				"y": 2.0062669434,
				"z": -3.4624294886,
				"element": "O" 
			},
			{
				"x": 0.748939705,
				"y": 1.3176942399,
				"z": -2.3661601286,
				"element": "C" 
			},
			{
				"x": -0.1080542074,
				"y": 0.7452298672,
				"z": -1.4143604395,
				"element": "C" 
			},
			{
				"x": 0.4453053394,
				"y": 0.0602815122,
				"z": -0.3267407637,
				"element": "C" 
			},
			{
				"x": -0.3127088575,
				"y": -0.5474150144,
				"z": 0.6462388792,
				"element": "O" 
			},
			{
				"x": -1.7252372524,
				"y": -0.4244825745,
				"z": 0.5874989993,
				"element": "C" 
			},
			{
				"x": 1.8361446335,
				"y": -0.0591516577,
				"z": -0.1625052687,
				"element": "C" 
			},
			{
				"x": 2.3997093994,
				"y": -0.792758456,
				"z": 1.0355684221,
				"element": "C" 
			},
			{
				"x": 2.1489788766,
				"y": -2.2403506325,
				"z": 1.0340929381,
				"element": "N" 
			},
			{
				"x": 2.9290415498,
				"y": -3.0590690582,
				"z": 0.2614093803,
				"element": "C" 
			},
			{
				"x": 4.0822184257,
				"y": -2.7249220865,
				"z": -0.2520468034,
				"element": "N" 
			},
			{
				"x": 4.6473971965,
				"y": -3.7966633348,
				"z": -0.9118134818,
				"element": "C" 
			},
			{
				"x": 3.9434916122,
				"y": -4.9587958495,
				"z": -0.9233920305,
				"element": "C" 
			},
			{
				"x": 2.4459021729,
				"y": -4.7437556405,
				"z": -0.039765176,
				"element": "S" 
			},
			{
				"x": 2.6573731024,
				"y": 0.5130160961,
				"z": -1.1370590884,
				"element": "C" 
			},
			{
				"x": 2.1356157456,
				"y": 1.1991946006,
				"z": -2.2295171277,
				"element": "C" 
			},
			{
				"x": -1.1945444328,
				"y": 2.7315804271,
				"z": -4.5817859664,
				"element": "H" 
			},
			{
				"x": -1.5830131802,
				"y": 1.187783139,
				"z": -3.7791200107,
				"element": "H" 
			},
			{
				"x": -1.552983104,
				"y": 2.7066613813,
				"z": -2.8354680978,
				"element": "H" 
			},
			{
				"x": -1.1800809146,
				"y": 0.8277664687,
				"z": -1.5219441212,
				"element": "H" 
			},
			{
				"x": -2.134883739,
				"y": -0.8875886771,
				"z": -0.3192991459,
				"element": "H" 
			},
			{
				"x": -2.0402743775,
				"y": 0.6256937982,
				"z": 0.6289913719,
				"element": "H" 
			},
			{
				"x": -2.1115513556,
				"y": -0.9490453035,
				"z": 1.4629435109,
				"element": "H" 
			},
			{
				"x": 3.4801314358,
				"y": -0.6520655429,
				"z": 1.0837040369,
				"element": "H" 
			},
			{
				"x": 1.9618277896,
				"y": -0.4017472275,
				"z": 1.9592141,
				"element": "H" 
			},
			{
				"x": 1.1696125494,
				"y": -2.4837400575,
				"z": 1.0932149698,
				"element": "H" 
			},
			{
				"x": 5.6114983814,
				"y": -3.6629017556,
				"z": -1.3899878506,
				"element": "H" 
			},
			{
				"x": 4.1904660486,
				"y": -5.9048939707,
				"z": -1.3814544947,
				"element": "H" 
			},
			{
				"x": 3.7333623815,
				"y": 0.4074168439,
				"z": -1.0345841923,
				"element": "H" 
			},
			{
				"x": 2.776649982,
				"y": 1.6430872233,
				"z": -2.982928405,
				"element": "H" 
			}
		],
		 "valence_orbital": [ 
			{
				"type": "occ",
				"energy": -0.26212,
				"method": "rhf"
			},
			{
				"type": "occ",
				"energy": -0.2592,
				"method": "rhf"
			},
			{
				"type": "occ",
				"energy": -0.23795,
				"method": "rhf"
			},
			{
				"type": "occ",
				"energy": -0.208,
				"method": "rhf"
			},
			{
				"type": "occ",
				"energy": -0.19164,
				"method": "rhf"
			},
			{
				"type": "unocc",
				"energy": 0.00679,
				"method": "rhf"
			},
			{
				"type": "unocc",
				"energy": 0.01032,
				"method": "rhf"
			},
			{
				"type": "unocc",
				"energy": 0.01358,
				"method": "rhf"
			},
			{
				"type": "unocc",
				"energy": 0.0222,
				"method": "rhf"
			},
			{
				"type": "unocc",
				"energy": 0.07767,
				"method": "rhf"
			}
		],
		"cosmo_sigma_profile": { 
			"-0.025": 0.0,
			"-0.024": 0.0,
			"-0.023": 0.0,
			"-0.022": 0.0,
			"-0.021": 0.0,
			"-0.02": 0.0,
			"-0.019": 0.0,
			"-0.018": 0.0,
			"-0.017": 0.0,
			"-0.016": 0.0,
			"-0.015": 0.0,
			"-0.014": 0.0,
			"-0.013": 0.104311930383,
			"-0.012": 0.534824025423,
			"-0.011": 1.02181894434,
			"-0.01": 0.979542360775,
			"-0.009": 1.08495043846,
			"-0.008": 2.47662143691,
			"-0.007": 5.08523819827,
			"-0.006": 14.1513094718,
			"-0.005": 27.9075873738,
			"-0.004": 27.5118900823,
			"-0.003": 29.3669244814,
			"-0.002": 19.6143981998,
			"-0.001": 15.5510630287,
			"0.0": 14.565661144,
			"0.001": 15.4648676163,
			"0.002": 17.9651085426,
			"0.003": 19.986959219,
			"0.004": 22.1303830941,
			"0.005": 22.7373699711,
			"0.006": 12.9974637064,
			"0.007": 5.82063719592,
			"0.008": 5.07777703753,
			"0.009": 3.63717284408,
			"0.01": 3.0133604242,
			"0.011": 1.38411733189,
			"0.012": 0.647154091547,
			"0.013": 0.595211511053,
			"0.014": 0.225972977884,
			"0.015": 0.0,
			"0.016": 0.0,
			"0.017": 0.0,
			"0.018": 0.0,
			"0.019": 0.0,
			"0.02": 0.0,
			"0.021": 0.0,
			"0.022": 0.0,
			"0.023": 0.0,
			"0.024": 0.0,
			"0.025": 0.0
		}
	}
}
