{
	 "smiles": "CN(C)S(=O)(=O)C1=C(Br)C=C(C=C1)C(O)=O", 
	 "Tm": 459.15, 
	 "num_atms": 26, 
	 "gaussian": { 
		 "optdone": 1, 
		 "sigma_profile": "yes", 
		 "theory": "DFT", 
		 "functional": "B3LYP", 
		 "basiset": "6-31G**", 
		 "properties": { 
			 "R2extent": 6203.8122, 
			 "electric_dipole_moment_norm": 3.79874577196, 
			 "electric_quadrupole_moment_norm": 23.3257741636, 
			 "total_energy": -3674.15534543, 
			 "HOMO_LUMO_gap": 0.17568, 
			 "cosmo_polarized_energy": -16.57, 
			 "cosmo_cavitation_energy": 33.54, 
			 "cosmo_dispersion_energy": -24.43, 
			 "cosmo_repulsion_energy": 1.84, 
			 "cosmo_total_nonelectrostatic_energy": 10.95, 
			 "SMD_solvation_energy": 5.64 
		},
		"coords": [
			{
				"x": 0.8517449661,
				"y": -2.0277323544,
				"z": -2.7677316969,
				"element": "C" 
			},
			{
				"x": 0.268366452,
				"y": -1.8478462381,
				"z": -1.4328476433,
				"element": "N" 
			},
			{
				"x": 0.9321306814,
				"y": -2.59253921,
				"z": -0.3581478935,
				"element": "C" 
			},
			{
				"x": -1.4165394399,
				"y": -1.8329736965,
				"z": -1.349694257,
				"element": "S" 
			},
			{
				"x": -1.9238622217,
				"y": -1.405195714,
				"z": -2.6530749569,
				"element": "O" 
			},
			{
				"x": -1.9118862494,
				"y": -3.0689301124,
				"z": -0.729221948,
				"element": "O" 
			},
			{
				"x": -1.7115276813,
				"y": -0.51875955,
				"z": -0.1352473732,
				"element": "C" 
			},
			{
				"x": -1.3484439966,
				"y": 0.8249457043,
				"z": -0.3214925901,
				"element": "C" 
			},
			{
				"x": -0.4278148466,
				"y": 1.4561465857,
				"z": -1.8622815604,
				"element": "Br" 
			},
			{
				"x": -1.6609347263,
				"y": 1.764913886,
				"z": 0.6563940195,
				"element": "C" 
			},
			{
				"x": -2.3399447192,
				"y": 1.3795671132,
				"z": 1.8171987308,
				"element": "C" 
			},
			{
				"x": -2.7106275593,
				"y": 0.0440770274,
				"z": 2.002849795,
				"element": "C" 
			},
			{
				"x": -2.3954128594,
				"y": -0.895674223,
				"z": 1.0256801125,
				"element": "C" 
			},
			{
				"x": -2.6404952917,
				"y": 2.44181499,
				"z": 2.8208177989,
				"element": "C" 
			},
			{
				"x": -3.3017175404,
				"y": 1.9676832701,
				"z": 3.9022182726,
				"element": "O" 
			},
			{
				"x": -2.3334497512,
				"y": 3.6096379308,
				"z": 2.7002665672,
				"element": "O" 
			},
			{
				"x": 0.2969340539,
				"y": -1.4313581309,
				"z": -3.4900346425,
				"element": "H" 
			},
			{
				"x": 1.8847430879,
				"y": -1.6700048417,
				"z": -2.72905574,
				"element": "H" 
			},
			{
				"x": 0.8505979875,
				"y": -3.0784818293,
				"z": -3.0893145628,
				"element": "H" 
			},
			{
				"x": 0.503154077,
				"y": -2.3212744591,
				"z": 0.6087299776,
				"element": "H" 
			},
			{
				"x": 0.8537687426,
				"y": -3.6797968643,
				"z": -0.4852010854,
				"element": "H" 
			},
			{
				"x": 1.9868346152,
				"y": -2.3038769478,
				"z": -0.3532242778,
				"element": "H" 
			},
			{
				"x": -1.3841472679,
				"y": 2.8045415883,
				"z": 0.5294817711,
				"element": "H" 
			},
			{
				"x": -3.2397670703,
				"y": -0.2537924366,
				"z": 2.8999944545,
				"element": "H" 
			},
			{
				"x": -2.6751126239,
				"y": -1.9364252698,
				"z": 1.1411798622,
				"element": "H" 
			},
			{
				"x": -3.4483908183,
				"y": 2.731133782,
				"z": 4.4848588658,
				"element": "H" 
			}
		],
		 "valence_orbital": [ 
			{
				"type": "occ",
				"energy": -0.29659,
				"method": "rhf"
			},
			{
				"type": "occ",
				"energy": -0.29439,
				"method": "rhf"
			},
			{
				"type": "occ",
				"energy": -0.28623,
				"method": "rhf"
			},
			{
				"type": "occ",
				"energy": -0.26355,
				"method": "rhf"
			},
			{
				"type": "occ",
				"energy": -0.25582,
				"method": "rhf"
			},
			{
				"type": "unocc",
				"energy": -0.08014,
				"method": "rhf"
			},
			{
				"type": "unocc",
				"energy": -0.03714,
				"method": "rhf"
			},
			{
				"type": "unocc",
				"energy": -0.01112,
				"method": "rhf"
			},
			{
				"type": "unocc",
				"energy": 0.01957,
				"method": "rhf"
			},
			{
				"type": "unocc",
				"energy": 0.06516,
				"method": "rhf"
			}
		],
		"cosmo_sigma_profile": { 
			"-0.025": 0.0,
			"-0.024": 0.0,
			"-0.023": 0.0,
			"-0.022": 0.0,
			"-0.021": 0.0,
			"-0.02": 0.0,
			"-0.019": 0.309010556528,
			"-0.018": 1.03617220907,
			"-0.017": 0.944201353813,
			"-0.016": 0.657442915432,
			"-0.015": 1.19489498229,
			"-0.014": 0.62896351735,
			"-0.013": 0.360734934352,
			"-0.012": 0.849563641072,
			"-0.011": 0.629087617161,
			"-0.01": 0.912550353999,
			"-0.009": 0.464768108545,
			"-0.008": 2.5216999395,
			"-0.007": 5.26465180265,
			"-0.006": 11.2442089792,
			"-0.005": 18.6480160952,
			"-0.004": 22.3779259703,
			"-0.003": 26.5476482415,
			"-0.002": 26.1735037384,
			"-0.001": 26.2486075174,
			"0.0": 21.4686606043,
			"0.001": 13.5100627236,
			"0.002": 11.2177429425,
			"0.003": 12.412706867,
			"0.004": 9.54006677677,
			"0.005": 7.06787644343,
			"0.006": 6.31805561339,
			"0.007": 5.64965953022,
			"0.008": 6.35098437428,
			"0.009": 6.28856865883,
			"0.01": 10.5765630063,
			"0.011": 11.4675311368,
			"0.012": 1.3077703268,
			"0.013": 0.0,
			"0.014": 0.0,
			"0.015": 0.0,
			"0.016": 0.0,
			"0.017": 0.0,
			"0.018": 0.0,
			"0.019": 0.0,
			"0.02": 0.0,
			"0.021": 0.0,
			"0.022": 0.0,
			"0.023": 0.0,
			"0.024": 0.0,
			"0.025": 0.0
		}
	}
}
