{
	 "smiles": "CC1=C(O)C=CC(=C1)N(=O)=O", 
	 "Tm": 369.15, 
	 "num_atms": 18, 
	 "gaussian": { 
		 "optdone": 1, 
		 "sigma_profile": "yes", 
		 "theory": "DFT", 
		 "functional": "B3LYP", 
		 "basiset": "6-31G**", 
		 "properties": { 
			 "R2extent": 2493.5474, 
			 "electric_dipole_moment_norm": 5.66055130707, 
			 "electric_quadrupole_moment_norm": 15.7933616241, 
			 "total_energy": -551.291770504, 
			 "HOMO_LUMO_gap": 0.16962, 
			 "cosmo_polarized_energy": -12.76, 
			 "cosmo_cavitation_energy": 22.66, 
			 "cosmo_dispersion_energy": -16.86, 
			 "cosmo_repulsion_energy": 1.34, 
			 "cosmo_total_nonelectrostatic_energy": 7.15, 
			 "SMD_solvation_energy": 6.53 
		},
		"coords": [
			{
				"x": -1.1263039218,
				"y": -3.437337435,
				"z": -2.4192556682,
				"element": "C" 
			},
			{
				"x": -0.6937813157,
				"y": -2.2825699946,
				"z": -1.547730821,
				"element": "C" 
			},
			{
				"x": -0.5417582251,
				"y": -2.4563594738,
				"z": -0.1545982557,
				"element": "C" 
			},
			{
				"x": -0.7734474467,
				"y": -3.6488092772,
				"z": 0.454138818,
				"element": "O" 
			},
			{
				"x": -0.1412057327,
				"y": -1.3960584951,
				"z": 0.6698673551,
				"element": "C" 
			},
			{
				"x": 0.1143579881,
				"y": -0.1474931675,
				"z": 0.1230128839,
				"element": "C" 
			},
			{
				"x": -0.0354826457,
				"y": 0.0254705972,
				"z": -1.2535541538,
				"element": "C" 
			},
			{
				"x": -0.4335997353,
				"y": -1.0232184529,
				"z": -2.0824631526,
				"element": "C" 
			},
			{
				"x": 0.2305000979,
				"y": 1.3362414134,
				"z": -1.8439127528,
				"element": "N" 
			},
			{
				"x": 0.5805872307,
				"y": 2.2452380153,
				"z": -1.0887619365,
				"element": "O" 
			},
			{
				"x": 0.0894045424,
				"y": 1.4576518483,
				"z": -3.0628696908,
				"element": "O" 
			},
			{
				"x": -2.1144056945,
				"y": -3.8216126716,
				"z": -2.1319300859,
				"element": "H" 
			},
			{
				"x": -0.4166785502,
				"y": -4.2745776895,
				"z": -2.3742684033,
				"element": "H" 
			},
			{
				"x": -1.1935948339,
				"y": -3.1301331756,
				"z": -3.4648801849,
				"element": "H" 
			},
			{
				"x": -1.0421896978,
				"y": -4.3071214021,
				"z": -0.1996780899,
				"element": "H" 
			},
			{
				"x": -0.0379121254,
				"y": -1.5769188405,
				"z": 1.7341035166,
				"element": "H" 
			},
			{
				"x": 0.4250830684,
				"y": 0.6893833333,
				"z": 0.7354836455,
				"element": "H" 
			},
			{
				"x": -0.5358730029,
				"y": -0.8392751321,
				"z": -3.1454030236,
				"element": "H" 
			}
		],
		 "valence_orbital": [ 
			{
				"type": "occ",
				"energy": -0.30083,
				"method": "rhf"
			},
			{
				"type": "occ",
				"energy": -0.29918,
				"method": "rhf"
			},
			{
				"type": "occ",
				"energy": -0.2816,
				"method": "rhf"
			},
			{
				"type": "occ",
				"energy": -0.27275,
				"method": "rhf"
			},
			{
				"type": "occ",
				"energy": -0.2482,
				"method": "rhf"
			},
			{
				"type": "unocc",
				"energy": -0.07858,
				"method": "rhf"
			},
			{
				"type": "unocc",
				"energy": -0.02401,
				"method": "rhf"
			},
			{
				"type": "unocc",
				"energy": 0.01312,
				"method": "rhf"
			},
			{
				"type": "unocc",
				"energy": 0.0452,
				"method": "rhf"
			},
			{
				"type": "unocc",
				"energy": 0.08918,
				"method": "rhf"
			}
		],
		"cosmo_sigma_profile": { 
			"-0.025": 0.0,
			"-0.024": 0.0,
			"-0.023": 0.0,
			"-0.022": 0.0,
			"-0.021": 0.0,
			"-0.02": 0.0,
			"-0.019": 0.0,
			"-0.018": 0.0178393281366,
			"-0.017": 0.596253383201,
			"-0.016": 0.871567564089,
			"-0.015": 0.635445906271,
			"-0.014": 1.3505134528,
			"-0.013": 1.11372208324,
			"-0.012": 1.17563818882,
			"-0.011": 1.03411301904,
			"-0.01": 1.55815208414,
			"-0.009": 1.15249223776,
			"-0.008": 2.78187545745,
			"-0.007": 5.81872221381,
			"-0.006": 8.99084012636,
			"-0.005": 11.0829127204,
			"-0.004": 10.2620566219,
			"-0.003": 9.94511932454,
			"-0.002": 12.82918639,
			"-0.001": 14.4987503081,
			"0.0": 14.319545566,
			"0.001": 15.8809832829,
			"0.002": 13.9132678857,
			"0.003": 7.02852352976,
			"0.004": 3.45229101022,
			"0.005": 3.99323860789,
			"0.006": 4.58317699494,
			"0.007": 5.79607902964,
			"0.008": 11.4491605035,
			"0.009": 7.12518357486,
			"0.01": 5.8230153899,
			"0.011": 1.67792697472,
			"0.012": 0.0,
			"0.013": 0.0,
			"0.014": 0.0,
			"0.015": 0.0,
			"0.016": 0.0,
			"0.017": 0.0,
			"0.018": 0.0,
			"0.019": 0.0,
			"0.02": 0.0,
			"0.021": 0.0,
			"0.022": 0.0,
			"0.023": 0.0,
			"0.024": 0.0,
			"0.025": 0.0
		}
	}
}
