{
	 "smiles": "CCC1=CC=C(C=C1)C(C)=O", 
	 "Tm": 252.55, 
	 "num_atms": 23, 
	 "gaussian": { 
		 "optdone": 1, 
		 "sigma_profile": "yes", 
		 "theory": "DFT", 
		 "functional": "B3LYP", 
		 "basiset": "6-31G**", 
		 "properties": { 
			 "R2extent": 2637.026, 
			 "electric_dipole_moment_norm": 3.34928651805, 
			 "electric_quadrupole_moment_norm": 13.0756236153, 
			 "total_energy": -463.536478407, 
			 "HOMO_LUMO_gap": 0.19286, 
			 "cosmo_polarized_energy": -8.0, 
			 "cosmo_cavitation_energy": 26.39, 
			 "cosmo_dispersion_energy": -18.94, 
			 "cosmo_repulsion_energy": 1.53, 
			 "cosmo_total_nonelectrostatic_energy": 8.97, 
			 "SMD_solvation_energy": 5.19 
		},
		"coords": [
			{
				"x": 0.0530530448,
				"y": 3.8552851866,
				"z": 0.5582805166,
				"element": "C" 
			},
			{
				"x": 0.5494432214,
				"y": 2.489133117,
				"z": 1.067434611,
				"element": "C" 
			},
			{
				"x": 0.0134401709,
				"y": 1.332662941,
				"z": 0.2523850875,
				"element": "C" 
			},
			{
				"x": -1.1885173517,
				"y": 0.701655846,
				"z": 0.6007073189,
				"element": "C" 
			},
			{
				"x": -1.7040118128,
				"y": -0.3386012902,
				"z": -0.1701896986,
				"element": "C" 
			},
			{
				"x": -1.0261275773,
				"y": -0.7784381899,
				"z": -1.3167181125,
				"element": "C" 
			},
			{
				"x": 0.1793643113,
				"y": -0.150149602,
				"z": -1.6680080028,
				"element": "C" 
			},
			{
				"x": 0.6884078676,
				"y": 0.8864699018,
				"z": -0.8954400476,
				"element": "C" 
			},
			{
				"x": -1.5256160897,
				"y": -1.8924067492,
				"z": -2.1838702406,
				"element": "C" 
			},
			{
				"x": -2.8289449112,
				"y": -2.5826786184,
				"z": -1.8142759234,
				"element": "C" 
			},
			{
				"x": -0.8988671674,
				"y": -2.2432085724,
				"z": -3.1732062868,
				"element": "O" 
			},
			{
				"x": 0.4599494106,
				"y": 4.6693590887,
				"z": 1.166911452,
				"element": "H" 
			},
			{
				"x": -1.0393881051,
				"y": 3.9148892227,
				"z": 0.5966699286,
				"element": "H" 
			},
			{
				"x": 0.3579550258,
				"y": 4.0216421509,
				"z": -0.4798391776,
				"element": "H" 
			},
			{
				"x": 1.645551753,
				"y": 2.4732403202,
				"z": 1.0462008785,
				"element": "H" 
			},
			{
				"x": 0.2544196123,
				"y": 2.365664577,
				"z": 2.1161086246,
				"element": "H" 
			},
			{
				"x": -1.7241403438,
				"y": 1.0272374636,
				"z": 1.4892297591,
				"element": "H" 
			},
			{
				"x": -2.6355726133,
				"y": -0.8076416452,
				"z": 0.1305879165,
				"element": "H" 
			},
			{
				"x": 0.6989528287,
				"y": -0.5007902725,
				"z": -2.5536123789,
				"element": "H" 
			},
			{
				"x": 1.6261684577,
				"y": 1.3587004072,
				"z": -1.1788484832,
				"element": "H" 
			},
			{
				"x": -3.660453691,
				"y": -1.8695946563,
				"z": -1.7932944878,
				"element": "H" 
			},
			{
				"x": -3.0347192223,
				"y": -3.3569792266,
				"z": -2.5537970618,
				"element": "H" 
			},
			{
				"x": -2.7646468183,
				"y": -3.0380514002,
				"z": -0.819816192,
				"element": "H" 
			}
		],
		 "valence_orbital": [ 
			{
				"type": "occ",
				"energy": -0.34051,
				"method": "rhf"
			},
			{
				"type": "occ",
				"energy": -0.33686,
				"method": "rhf"
			},
			{
				"type": "occ",
				"energy": -0.25724,
				"method": "rhf"
			},
			{
				"type": "occ",
				"energy": -0.24786,
				"method": "rhf"
			},
			{
				"type": "occ",
				"energy": -0.24363,
				"method": "rhf"
			},
			{
				"type": "unocc",
				"energy": -0.05077,
				"method": "rhf"
			},
			{
				"type": "unocc",
				"energy": -0.00713,
				"method": "rhf"
			},
			{
				"type": "unocc",
				"energy": 0.04148,
				"method": "rhf"
			},
			{
				"type": "unocc",
				"energy": 0.08898,
				"method": "rhf"
			},
			{
				"type": "unocc",
				"energy": 0.10214,
				"method": "rhf"
			}
		],
		"cosmo_sigma_profile": { 
			"-0.025": 0.0,
			"-0.024": 0.0,
			"-0.023": 0.0,
			"-0.022": 0.0,
			"-0.021": 0.0,
			"-0.02": 0.0,
			"-0.019": 0.0,
			"-0.018": 0.0,
			"-0.017": 0.0,
			"-0.016": 0.0,
			"-0.015": 0.0,
			"-0.014": 0.0,
			"-0.013": 0.0,
			"-0.012": 0.0,
			"-0.011": 0.0,
			"-0.01": 0.0,
			"-0.009": 0.0,
			"-0.008": 0.0,
			"-0.007": 0.293567519391,
			"-0.006": 8.41878129299,
			"-0.005": 15.1185389154,
			"-0.004": 19.0842383786,
			"-0.003": 21.0848533857,
			"-0.002": 23.3612998928,
			"-0.001": 24.083245828,
			"0.0": 20.556444651,
			"0.001": 16.5398359359,
			"0.002": 11.442361131,
			"0.003": 11.2462532776,
			"0.004": 12.08012281,
			"0.005": 6.85390097602,
			"0.006": 2.03833996026,
			"0.007": 1.35181344821,
			"0.008": 1.70643986369,
			"0.009": 1.67370842821,
			"0.01": 2.16184339064,
			"0.011": 2.45935479784,
			"0.012": 4.36689685464,
			"0.013": 2.07188553414,
			"0.014": 0.34127353188,
			"0.015": 0.0,
			"0.016": 0.0,
			"0.017": 0.0,
			"0.018": 0.0,
			"0.019": 0.0,
			"0.02": 0.0,
			"0.021": 0.0,
			"0.022": 0.0,
			"0.023": 0.0,
			"0.024": 0.0,
			"0.025": 0.0
		}
	}
}
