{
	 "smiles": "O=C(CCCCC(=O)C1=CC=CC=C1)C1=CC=CC=C1", 
	 "Tm": 380.15, 
	 "num_atms": 38, 
	 "gaussian": { 
		 "optdone": 1, 
		 "sigma_profile": "yes", 
		 "theory": "DFT", 
		 "functional": "B3LYP", 
		 "basiset": "6-31G**", 
		 "properties": { 
			 "R2extent": 9969.6458, 
			 "electric_dipole_moment_norm": 4.21152673623, 
			 "electric_quadrupole_moment_norm": 12.7910921387, 
			 "total_energy": -847.22496874, 
			 "HOMO_LUMO_gap": 0.18355, 
			 "cosmo_polarized_energy": -14.0, 
			 "cosmo_cavitation_energy": 41.78, 
			 "cosmo_dispersion_energy": -29.46, 
			 "cosmo_repulsion_energy": 2.25, 
			 "cosmo_total_nonelectrostatic_energy": 14.57, 
			 "SMD_solvation_energy": 7.34 
		},
		"coords": [
			{
				"x": 0.7082665005,
				"y": 1.576612399,
				"z": 3.4349398922,
				"element": "O" 
			},
			{
				"x": -0.2997967861,
				"y": 1.1293463495,
				"z": 2.9029331861,
				"element": "C" 
			},
			{
				"x": -0.2964874628,
				"y": -0.2762040628,
				"z": 2.3179020342,
				"element": "C" 
			},
			{
				"x": 0.0173403451,
				"y": -0.285289866,
				"z": 0.801983304,
				"element": "C" 
			},
			{
				"x": 1.4514436837,
				"y": 0.1567599085,
				"z": 0.4776154597,
				"element": "C" 
			},
			{
				"x": 1.748310748,
				"y": 0.2168558355,
				"z": -1.0246319132,
				"element": "C" 
			},
			{
				"x": 1.8484754888,
				"y": -1.1490039013,
				"z": -1.6991070284,
				"element": "C" 
			},
			{
				"x": 1.7529626542,
				"y": -2.1809980687,
				"z": -1.0489594797,
				"element": "O" 
			},
			{
				"x": 2.0847597923,
				"y": -1.2086547458,
				"z": -3.1809129988,
				"element": "C" 
			},
			{
				"x": 2.2250390757,
				"y": -0.0630127677,
				"z": -3.9795727973,
				"element": "C" 
			},
			{
				"x": 2.4461020864,
				"y": -0.1824041721,
				"z": -5.3517109937,
				"element": "C" 
			},
			{
				"x": 2.528369442,
				"y": -1.4460791702,
				"z": -5.9395032496,
				"element": "C" 
			},
			{
				"x": 2.3902213743,
				"y": -2.5931448956,
				"z": -5.1517973403,
				"element": "C" 
			},
			{
				"x": 2.1707631062,
				"y": -2.4744390132,
				"z": -3.7829853574,
				"element": "C" 
			},
			{
				"x": -1.5307119266,
				"y": 1.9843392791,
				"z": 2.7854430251,
				"element": "C" 
			},
			{
				"x": -2.7246798131,
				"y": 1.5405849858,
				"z": 2.1955386445,
				"element": "C" 
			},
			{
				"x": -3.8313779036,
				"y": 2.386802464,
				"z": 2.1168264269,
				"element": "C" 
			},
			{
				"x": -3.7583414199,
				"y": 3.6833625297,
				"z": 2.6284892155,
				"element": "C" 
			},
			{
				"x": -2.5736364403,
				"y": 4.1348502072,
				"z": 3.2190251545,
				"element": "C" 
			},
			{
				"x": -1.4695360592,
				"y": 3.2920902601,
				"z": 3.2950437211,
				"element": "C" 
			},
			{
				"x": 0.4743479295,
				"y": -0.8385350641,
				"z": 2.8529504874,
				"element": "H" 
			},
			{
				"x": -1.2557464256,
				"y": -0.7729824171,
				"z": 2.4963208193,
				"element": "H" 
			},
			{
				"x": -0.1351419268,
				"y": -1.3010314868,
				"z": 0.4259214492,
				"element": "H" 
			},
			{
				"x": -0.6973708121,
				"y": 0.3623166508,
				"z": 0.27589786,
				"element": "H" 
			},
			{
				"x": 2.153950933,
				"y": -0.53687535,
				"z": 0.9522519759,
				"element": "H" 
			},
			{
				"x": 1.6430542443,
				"y": 1.1437228385,
				"z": 0.9119491229,
				"element": "H" 
			},
			{
				"x": 0.9876368484,
				"y": 0.8137687732,
				"z": -1.5467354605,
				"element": "H" 
			},
			{
				"x": 2.6986819312,
				"y": 0.7399404555,
				"z": -1.2005163936,
				"element": "H" 
			},
			{
				"x": 2.1648087921,
				"y": 0.9259443802,
				"z": -3.537440344,
				"element": "H" 
			},
			{
				"x": 2.5542524886,
				"y": 0.7099869971,
				"z": -5.9612144939,
				"element": "H" 
			},
			{
				"x": 2.7001275072,
				"y": -1.5374034566,
				"z": -7.0083144857,
				"element": "H" 
			},
			{
				"x": 2.4546450503,
				"y": -3.5768911153,
				"z": -5.6077509162,
				"element": "H" 
			},
			{
				"x": 2.061946862,
				"y": -3.3489001678,
				"z": -3.1502543411,
				"element": "H" 
			},
			{
				"x": -2.799087326,
				"y": 0.5356078567,
				"z": 1.793903271,
				"element": "H" 
			},
			{
				"x": -4.7501431038,
				"y": 2.0329843015,
				"z": 1.6581905021,
				"element": "H" 
			},
			{
				"x": -4.6215631847,
				"y": 4.3402808239,
				"z": 2.56861328,
				"element": "H" 
			},
			{
				"x": -2.5152784875,
				"y": 5.1433366262,
				"z": 3.6184021145,
				"element": "H" 
			},
			{
				"x": -0.5392078055,
				"y": 3.618055799,
				"z": 3.7479666473,
				"element": "H" 
			}
		],
		 "valence_orbital": [ 
			{
				"type": "occ",
				"energy": -0.25978,
				"method": "rhf"
			},
			{
				"type": "occ",
				"energy": -0.25871,
				"method": "rhf"
			},
			{
				"type": "occ",
				"energy": -0.25618,
				"method": "rhf"
			},
			{
				"type": "occ",
				"energy": -0.2495,
				"method": "rhf"
			},
			{
				"type": "occ",
				"energy": -0.2397,
				"method": "rhf"
			},
			{
				"type": "unocc",
				"energy": -0.05615,
				"method": "rhf"
			},
			{
				"type": "unocc",
				"energy": -0.05365,
				"method": "rhf"
			},
			{
				"type": "unocc",
				"energy": -0.01035,
				"method": "rhf"
			},
			{
				"type": "unocc",
				"energy": -0.00873,
				"method": "rhf"
			},
			{
				"type": "unocc",
				"energy": 0.0386,
				"method": "rhf"
			}
		],
		"cosmo_sigma_profile": { 
			"-0.025": 0.0,
			"-0.024": 0.0,
			"-0.023": 0.0,
			"-0.022": 0.0,
			"-0.021": 0.0,
			"-0.02": 0.0,
			"-0.019": 0.0,
			"-0.018": 0.0,
			"-0.017": 0.0,
			"-0.016": 0.0,
			"-0.015": 0.0,
			"-0.014": 0.0,
			"-0.013": 0.0,
			"-0.012": 0.0,
			"-0.011": 0.0,
			"-0.01": 0.0,
			"-0.009": 0.0,
			"-0.008": 0.193553349281,
			"-0.007": 4.07347764378,
			"-0.006": 20.1419162718,
			"-0.005": 30.5788575166,
			"-0.004": 30.6279161119,
			"-0.003": 29.6124139014,
			"-0.002": 34.284317335,
			"-0.001": 25.2854285365,
			"0.0": 22.4962381993,
			"0.001": 18.1199309798,
			"0.002": 22.4155451459,
			"0.003": 23.3443877618,
			"0.004": 28.4563302089,
			"0.005": 9.91540233383,
			"0.006": 4.72928924088,
			"0.007": 2.7195893678,
			"0.008": 3.1272896132,
			"0.009": 3.95970127733,
			"0.01": 3.88356275391,
			"0.011": 4.77791018082,
			"0.012": 6.62574593754,
			"0.013": 2.38792574635,
			"0.014": 0.239574455394,
			"0.015": 0.0,
			"0.016": 0.0,
			"0.017": 0.0,
			"0.018": 0.0,
			"0.019": 0.0,
			"0.02": 0.0,
			"0.021": 0.0,
			"0.022": 0.0,
			"0.023": 0.0,
			"0.024": 0.0,
			"0.025": 0.0
		}
	}
}
