{
	 "smiles": "ClC1=CC(=C(Cl)C=C1)S(Cl)(=O)=O", 
	 "Tm": 311.15, 
	 "num_atms": 15, 
	 "gaussian": { 
		 "optdone": 1, 
		 "sigma_profile": "yes", 
		 "theory": "DFT", 
		 "functional": "B3LYP", 
		 "basiset": "6-31G**", 
		 "properties": { 
			 "R2extent": 4789.7643, 
			 "electric_dipole_moment_norm": 4.62573647434, 
			 "electric_quadrupole_moment_norm": 14.3076974814, 
			 "total_energy": -2159.56968051, 
			 "HOMO_LUMO_gap": 0.17818, 
			 "cosmo_polarized_energy": -9.16, 
			 "cosmo_cavitation_energy": 26.62, 
			 "cosmo_dispersion_energy": -20.32, 
			 "cosmo_repulsion_energy": 1.57, 
			 "cosmo_total_nonelectrostatic_energy": 7.87, 
			 "SMD_solvation_energy": 2.82 
		},
		"coords": [
			{
				"x": -0.992135877,
				"y": 1.3015365955,
				"z": 3.062528635,
				"element": "Cl" 
			},
			{
				"x": -0.1907104203,
				"y": 0.1952324212,
				"z": 1.9718531012,
				"element": "C" 
			},
			{
				"x": 1.0118441299,
				"y": 0.5764635967,
				"z": 1.3791097601,
				"element": "C" 
			},
			{
				"x": 1.6527374205,
				"y": -0.3046737215,
				"z": 0.508821503,
				"element": "C" 
			},
			{
				"x": 1.0939941517,
				"y": -1.5644610494,
				"z": 0.2304822696,
				"element": "C" 
			},
			{
				"x": 1.8440551721,
				"y": -2.7093187209,
				"z": -0.8466042167,
				"element": "Cl" 
			},
			{
				"x": -0.1112742603,
				"y": -1.9228473279,
				"z": 0.8367191591,
				"element": "C" 
			},
			{
				"x": -0.7578039409,
				"y": -1.0494894682,
				"z": 1.7068649049,
				"element": "C" 
			},
			{
				"x": 3.2238241177,
				"y": 0.1300970461,
				"z": -0.2980204461,
				"element": "S" 
			},
			{
				"x": 3.6194763019,
				"y": 2.0910425662,
				"z": 0.4485486063,
				"element": "Cl" 
			},
			{
				"x": 2.9941475313,
				"y": 0.2877555631,
				"z": -1.7257093509,
				"element": "O" 
			},
			{
				"x": 4.2790945734,
				"y": -0.7176401617,
				"z": 0.2345403793,
				"element": "O" 
			},
			{
				"x": 1.4377060398,
				"y": 1.546242724,
				"z": 1.5959996369,
				"element": "H" 
			},
			{
				"x": -0.539444095,
				"y": -2.8949704266,
				"z": 0.6200268136,
				"element": "H" 
			},
			{
				"x": -1.6935108447,
				"y": -1.3343696367,
				"z": 2.1741392446,
				"element": "H" 
			}
		],
		 "valence_orbital": [ 
			{
				"type": "occ",
				"energy": -0.3409,
				"method": "rhf"
			},
			{
				"type": "occ",
				"energy": -0.33,
				"method": "rhf"
			},
			{
				"type": "occ",
				"energy": -0.32416,
				"method": "rhf"
			},
			{
				"type": "occ",
				"energy": -0.30813,
				"method": "rhf"
			},
			{
				"type": "occ",
				"energy": -0.27525,
				"method": "rhf"
			},
			{
				"type": "unocc",
				"energy": -0.09707,
				"method": "rhf"
			},
			{
				"type": "unocc",
				"energy": -0.07241,
				"method": "rhf"
			},
			{
				"type": "unocc",
				"energy": -0.0574,
				"method": "rhf"
			},
			{
				"type": "unocc",
				"energy": -0.01882,
				"method": "rhf"
			},
			{
				"type": "unocc",
				"energy": 0.01135,
				"method": "rhf"
			}
		],
		"cosmo_sigma_profile": { 
			"-0.025": 0.0,
			"-0.024": 0.0,
			"-0.023": 0.0,
			"-0.022": 0.0,
			"-0.021": 0.0,
			"-0.02": 0.0,
			"-0.019": 0.0,
			"-0.018": 0.0,
			"-0.017": 0.0,
			"-0.016": 0.0,
			"-0.015": 0.0,
			"-0.014": 0.0,
			"-0.013": 0.0,
			"-0.012": 0.0,
			"-0.011": 0.0,
			"-0.01": 1.21277791531,
			"-0.009": 4.5724320363,
			"-0.008": 5.42137886053,
			"-0.007": 5.98942998154,
			"-0.006": 6.58773591935,
			"-0.005": 8.04654551541,
			"-0.004": 8.15127757307,
			"-0.003": 14.1693528094,
			"-0.002": 25.4438943137,
			"-0.001": 25.8865180975,
			"0.0": 16.5361130636,
			"0.001": 16.8338939438,
			"0.002": 22.71390385,
			"0.003": 22.6301385534,
			"0.004": 8.82640337856,
			"0.005": 3.90922564253,
			"0.006": 4.643994881,
			"0.007": 9.407176982,
			"0.008": 10.4121088998,
			"0.009": 0.625098428328,
			"0.01": 0.0,
			"0.011": 0.0,
			"0.012": 0.0,
			"0.013": 0.0,
			"0.014": 0.0,
			"0.015": 0.0,
			"0.016": 0.0,
			"0.017": 0.0,
			"0.018": 0.0,
			"0.019": 0.0,
			"0.02": 0.0,
			"0.021": 0.0,
			"0.022": 0.0,
			"0.023": 0.0,
			"0.024": 0.0,
			"0.025": 0.0
		}
	}
}
