{
	 "smiles": "OCC1=NC2=C(S1)C=CC(Cl)=C2", 
	 "Tm": 387.15, 
	 "num_atms": 18, 
	 "gaussian": { 
		 "optdone": 1, 
		 "sigma_profile": "yes", 
		 "theory": "DFT", 
		 "functional": "B3LYP", 
		 "basiset": "6-31G**", 
		 "properties": { 
			 "R2extent": 3781.298, 
			 "electric_dipole_moment_norm": 1.81309338425, 
			 "electric_quadrupole_moment_norm": 12.5495346328, 
			 "total_energy": -1296.81843663, 
			 "HOMO_LUMO_gap": 0.19204, 
			 "cosmo_polarized_energy": -9.91, 
			 "cosmo_cavitation_energy": 25.88, 
			 "cosmo_dispersion_energy": -20.05, 
			 "cosmo_repulsion_energy": 1.55, 
			 "cosmo_total_nonelectrostatic_energy": 7.38, 
			 "SMD_solvation_energy": 1.95 
		},
		"coords": [
			{
				"x": 2.402511005,
				"y": -1.8884895914,
				"z": -1.5169471002,
				"element": "O" 
			},
			{
				"x": 1.7147914512,
				"y": -0.704883605,
				"z": -1.8761585087,
				"element": "C" 
			},
			{
				"x": 0.8418070686,
				"y": -0.176333787,
				"z": -0.7653276217,
				"element": "C" 
			},
			{
				"x": 0.438146591,
				"y": 1.0468199437,
				"z": -0.6674494383,
				"element": "N" 
			},
			{
				"x": -0.383159855,
				"y": 1.2102139356,
				"z": 0.4385017679,
				"element": "C" 
			},
			{
				"x": -0.5911936176,
				"y": 0.043552848,
				"z": 1.2142056152,
				"element": "C" 
			},
			{
				"x": 0.2824214809,
				"y": -1.2966411149,
				"z": 0.49968681,
				"element": "S" 
			},
			{
				"x": -1.3869650473,
				"y": 0.074747366,
				"z": 2.3620599867,
				"element": "C" 
			},
			{
				"x": -1.9807635623,
				"y": 1.2782255288,
				"z": 2.7296773993,
				"element": "C" 
			},
			{
				"x": -1.7720639197,
				"y": 2.4311846455,
				"z": 1.9546057704,
				"element": "C" 
			},
			{
				"x": -2.5401812432,
				"y": 3.9328810981,
				"z": 2.4530005055,
				"element": "Cl" 
			},
			{
				"x": -0.9821046916,
				"y": 2.4212760573,
				"z": 0.8139849223,
				"element": "C" 
			},
			{
				"x": 3.0583337811,
				"y": -1.664296906,
				"z": -0.8430858782,
				"element": "H" 
			},
			{
				"x": 1.0839586631,
				"y": -0.9712465903,
				"z": -2.7318100831,
				"element": "H" 
			},
			{
				"x": 2.3836302354,
				"y": 0.1037554644,
				"z": -2.2011447395,
				"element": "H" 
			},
			{
				"x": -1.5480737049,
				"y": -0.8160710231,
				"z": 2.9602337171,
				"element": "H" 
			},
			{
				"x": -2.6062796368,
				"y": 1.333584063,
				"z": 3.6132576847,
				"element": "H" 
			},
			{
				"x": -0.8242149979,
				"y": 3.3141216675,
				"z": 0.2211091906,
				"element": "H" 
			}
		],
		 "valence_orbital": [ 
			{
				"type": "occ",
				"energy": -0.30801,
				"method": "rhf"
			},
			{
				"type": "occ",
				"energy": -0.30069,
				"method": "rhf"
			},
			{
				"type": "occ",
				"energy": -0.28436,
				"method": "rhf"
			},
			{
				"type": "occ",
				"energy": -0.24894,
				"method": "rhf"
			},
			{
				"type": "occ",
				"energy": -0.23896,
				"method": "rhf"
			},
			{
				"type": "unocc",
				"energy": -0.04692,
				"method": "rhf"
			},
			{
				"type": "unocc",
				"energy": -0.01897,
				"method": "rhf"
			},
			{
				"type": "unocc",
				"energy": 0.00579,
				"method": "rhf"
			},
			{
				"type": "unocc",
				"energy": 0.01917,
				"method": "rhf"
			},
			{
				"type": "unocc",
				"energy": 0.03261,
				"method": "rhf"
			}
		],
		"cosmo_sigma_profile": { 
			"-0.025": 0.0,
			"-0.024": 0.0,
			"-0.023": 0.0,
			"-0.022": 0.0,
			"-0.021": 0.0,
			"-0.02": 0.0,
			"-0.019": 0.0,
			"-0.018": 0.0,
			"-0.017": 0.458239527097,
			"-0.016": 1.08044262095,
			"-0.015": 1.21340636278,
			"-0.014": 0.730786945925,
			"-0.013": 0.976819727557,
			"-0.012": 1.03966163886,
			"-0.011": 1.06170806395,
			"-0.01": 0.618491464621,
			"-0.009": 1.46354286553,
			"-0.008": 4.06388494454,
			"-0.007": 10.6675559647,
			"-0.006": 10.4116283339,
			"-0.005": 10.4481248519,
			"-0.004": 8.82330002323,
			"-0.003": 8.94005296938,
			"-0.002": 10.1594379241,
			"-0.001": 12.6649828864,
			"0.0": 13.8385065495,
			"0.001": 21.5649728085,
			"0.002": 29.220910087,
			"0.003": 21.0360286509,
			"0.004": 13.6735599569,
			"0.005": 10.2999375681,
			"0.006": 1.52332306772,
			"0.007": 1.69088144629,
			"0.008": 2.43757098475,
			"0.009": 2.07986856008,
			"0.01": 2.15708759626,
			"0.011": 2.28852990387,
			"0.012": 2.37440652936,
			"0.013": 2.2469160136,
			"0.014": 0.573246100343,
			"0.015": 0.117249599369,
			"0.016": 0.0,
			"0.017": 0.0,
			"0.018": 0.0,
			"0.019": 0.0,
			"0.02": 0.0,
			"0.021": 0.0,
			"0.022": 0.0,
			"0.023": 0.0,
			"0.024": 0.0,
			"0.025": 0.0
		}
	}
}
