{
	 "smiles": "CSC1=CC(NC2CCN(C)CC2)=CC=C1", 
	 "Tm": 350.15, 
	 "num_atms": 36, 
	 "gaussian": { 
		 "optdone": 1, 
		 "sigma_profile": "yes", 
		 "theory": "DFT", 
		 "functional": "B3LYP", 
		 "basiset": "6-31G**", 
		 "properties": { 
			 "R2extent": 6488.2665, 
			 "electric_dipole_moment_norm": 3.08070162301, 
			 "electric_quadrupole_moment_norm": 13.8650902208, 
			 "total_energy": -1015.12441487, 
			 "HOMO_LUMO_gap": 0.1939, 
			 "cosmo_polarized_energy": -11.15, 
			 "cosmo_cavitation_energy": 37.66, 
			 "cosmo_dispersion_energy": -27.07, 
			 "cosmo_repulsion_energy": 2.05, 
			 "cosmo_total_nonelectrostatic_energy": 12.64, 
			 "SMD_solvation_energy": 2.41 
		},
		"coords": [
			{
				"x": 1.1832470212,
				"y": 2.4627810865,
				"z": 0.5700782714,
				"element": "C" 
			},
			{
				"x": 0.3944867633,
				"y": 2.9434737539,
				"z": 2.1387027707,
				"element": "S" 
			},
			{
				"x": -0.7306927241,
				"y": 1.6003691779,
				"z": 2.4863337196,
				"element": "C" 
			},
			{
				"x": -0.9003872654,
				"y": 0.4958768688,
				"z": 1.6445211362,
				"element": "C" 
			},
			{
				"x": -1.8117470638,
				"y": -0.5261603153,
				"z": 1.981337038,
				"element": "C" 
			},
			{
				"x": -1.9967825357,
				"y": -1.6421909824,
				"z": 1.1792636287,
				"element": "N" 
			},
			{
				"x": -1.5279813305,
				"y": -1.774906721,
				"z": -0.1935622934,
				"element": "C" 
			},
			{
				"x": -2.4901913471,
				"y": -2.664923303,
				"z": -0.9962238278,
				"element": "C" 
			},
			{
				"x": -1.973500405,
				"y": -2.8712767738,
				"z": -2.436226981,
				"element": "C" 
			},
			{
				"x": -0.610192094,
				"y": -3.3938141276,
				"z": -2.5221907702,
				"element": "N" 
			},
			{
				"x": -0.5003351447,
				"y": -4.8197246911,
				"z": -2.2395191603,
				"element": "C" 
			},
			{
				"x": 0.3147523888,
				"y": -2.5594291487,
				"z": -1.7513077041,
				"element": "C" 
			},
			{
				"x": -0.0999712516,
				"y": -2.3527138671,
				"z": -0.2808292979,
				"element": "C" 
			},
			{
				"x": -2.541138377,
				"y": -0.4127217539,
				"z": 3.1815142879,
				"element": "C" 
			},
			{
				"x": -2.3597320758,
				"y": 0.6900338622,
				"z": 4.0086741126,
				"element": "C" 
			},
			{
				"x": -1.4621489003,
				"y": 1.7039569782,
				"z": 3.6783379393,
				"element": "C" 
			},
			{
				"x": 1.8851929827,
				"y": 3.2660106317,
				"z": 0.3360569104,
				"element": "H" 
			},
			{
				"x": 0.4548465166,
				"y": 2.3842564513,
				"z": -0.2407106851,
				"element": "H" 
			},
			{
				"x": 1.7385857458,
				"y": 1.5268126403,
				"z": 0.6689443982,
				"element": "H" 
			},
			{
				"x": -0.3272176703,
				"y": 0.4156077071,
				"z": 0.7311339796,
				"element": "H" 
			},
			{
				"x": -2.7936633225,
				"y": -2.2119858615,
				"z": 1.4219845231,
				"element": "H" 
			},
			{
				"x": -1.527505872,
				"y": -0.7791316065,
				"z": -0.6671450607,
				"element": "H" 
			},
			{
				"x": -2.5866745834,
				"y": -3.6357412061,
				"z": -0.4899659146,
				"element": "H" 
			},
			{
				"x": -3.4893918402,
				"y": -2.2123127446,
				"z": -1.0199747582,
				"element": "H" 
			},
			{
				"x": -1.9952359399,
				"y": -1.9033976286,
				"z": -2.9572894074,
				"element": "H" 
			},
			{
				"x": -2.6433217199,
				"y": -3.5413623312,
				"z": -2.9861308733,
				"element": "H" 
			},
			{
				"x": 0.5287632402,
				"y": -5.1450447942,
				"z": -2.4250144381,
				"element": "H" 
			},
			{
				"x": -1.1524093852,
				"y": -5.3738643839,
				"z": -2.923117066,
				"element": "H" 
			},
			{
				"x": -0.7631318239,
				"y": -5.1220763598,
				"z": -1.2099665758,
				"element": "H" 
			},
			{
				"x": 1.3159662049,
				"y": -3.0000431806,
				"z": -1.8097751663,
				"element": "H" 
			},
			{
				"x": 0.3716674742,
				"y": -1.5795292597,
				"z": -2.2480178911,
				"element": "H" 
			},
			{
				"x": 0.6124840688,
				"y": -1.689936775,
				"z": 0.2234312662,
				"element": "H" 
			},
			{
				"x": -0.078063569,
				"y": -3.3043973108,
				"z": 0.2641393337,
				"element": "H" 
			},
			{
				"x": -3.2464574495,
				"y": -1.1935106095,
				"z": 3.4554868063,
				"element": "H" 
			},
			{
				"x": -2.9315858467,
				"y": 0.7627113032,
				"z": 4.9299579731,
				"element": "H" 
			},
			{
				"x": -1.3282328689,
				"y": 2.5589052747,
				"z": 4.3334697761,
				"element": "H" 
			}
		],
		 "valence_orbital": [ 
			{
				"type": "occ",
				"energy": -0.2981,
				"method": "rhf"
			},
			{
				"type": "occ",
				"energy": -0.26186,
				"method": "rhf"
			},
			{
				"type": "occ",
				"energy": -0.20907,
				"method": "rhf"
			},
			{
				"type": "occ",
				"energy": -0.20768,
				"method": "rhf"
			},
			{
				"type": "occ",
				"energy": -0.18417,
				"method": "rhf"
			},
			{
				"type": "unocc",
				"energy": 0.00973,
				"method": "rhf"
			},
			{
				"type": "unocc",
				"energy": 0.02355,
				"method": "rhf"
			},
			{
				"type": "unocc",
				"energy": 0.04439,
				"method": "rhf"
			},
			{
				"type": "unocc",
				"energy": 0.06926,
				"method": "rhf"
			},
			{
				"type": "unocc",
				"energy": 0.0792,
				"method": "rhf"
			}
		],
		"cosmo_sigma_profile": { 
			"-0.025": 0.0,
			"-0.024": 0.0,
			"-0.023": 0.0,
			"-0.022": 0.0,
			"-0.021": 0.0,
			"-0.02": 0.0,
			"-0.019": 0.0,
			"-0.018": 0.0,
			"-0.017": 0.0,
			"-0.016": 0.0,
			"-0.015": 0.0,
			"-0.014": 0.0,
			"-0.013": 0.0,
			"-0.012": 0.513854587288,
			"-0.011": 1.20161527332,
			"-0.01": 1.01011177558,
			"-0.009": 1.4255450316,
			"-0.008": 1.20300776211,
			"-0.007": 2.75756563168,
			"-0.006": 6.22602818316,
			"-0.005": 15.9089700784,
			"-0.004": 21.0658651805,
			"-0.003": 42.1839232604,
			"-0.002": 39.9859647054,
			"-0.001": 35.2658887444,
			"0.0": 25.2517801048,
			"0.001": 14.1217900493,
			"0.002": 9.91254259246,
			"0.003": 10.5838859672,
			"0.004": 10.0813731158,
			"0.005": 12.0753154191,
			"0.006": 16.6065417571,
			"0.007": 13.8222082286,
			"0.008": 5.67907121065,
			"0.009": 3.90210591268,
			"0.01": 1.53701415934,
			"0.011": 0.612161451966,
			"0.012": 0.954258678413,
			"0.013": 0.315574879205,
			"0.014": 0.606702205977,
			"0.015": 0.494304179567,
			"0.016": 0.494595320305,
			"0.017": 0.251763475874,
			"0.018": 0.0,
			"0.019": 0.0,
			"0.02": 0.0,
			"0.021": 0.0,
			"0.022": 0.0,
			"0.023": 0.0,
			"0.024": 0.0,
			"0.025": 0.0
		}
	}
}
