{
	 "smiles": "NC1=CC=CC=C1NC(C(=O)NC1=CC=CC=C1)(C1=CC=CC=C1)C1=CC=CC=C1", 
	 "Tm": 433.15, 
	 "num_atms": 53, 
	 "gaussian": { 
		 "optdone": 1, 
		 "sigma_profile": "yes", 
		 "theory": "DFT", 
		 "functional": "B3LYP", 
		 "basiset": "6-31G**", 
		 "properties": { 
			 "R2extent": 11946.8113, 
			 "electric_dipole_moment_norm": 3.4208912786, 
			 "electric_quadrupole_moment_norm": 8.08190001423, 
			 "total_energy": -1244.12003174, 
			 "HOMO_LUMO_gap": 0.15953, 
			 "cosmo_polarized_energy": -16.34, 
			 "cosmo_cavitation_energy": 53.94, 
			 "cosmo_dispersion_energy": -35.47, 
			 "cosmo_repulsion_energy": 2.69, 
			 "cosmo_total_nonelectrostatic_energy": 21.16, 
			 "SMD_solvation_energy": 8.8 
		},
		"coords": [
			{
				"x": 2.970654446,
				"y": -2.3806305309,
				"z": 0.1726577845,
				"element": "N" 
			},
			{
				"x": 2.8250767972,
				"y": -1.7827750076,
				"z": -1.0824018746,
				"element": "C" 
			},
			{
				"x": 3.3341764949,
				"y": -2.3975914617,
				"z": -2.2365278101,
				"element": "C" 
			},
			{
				"x": 3.1712292141,
				"y": -1.8183945648,
				"z": -3.4928253751,
				"element": "C" 
			},
			{
				"x": 2.4901184619,
				"y": -0.607422678,
				"z": -3.6210432195,
				"element": "C" 
			},
			{
				"x": 1.9636780903,
				"y": -0.0001318739,
				"z": -2.4812714314,
				"element": "C" 
			},
			{
				"x": 2.1150643357,
				"y": -0.5657848382,
				"z": -1.2100302232,
				"element": "C" 
			},
			{
				"x": 1.6689611317,
				"y": 0.1375488716,
				"z": -0.0487503739,
				"element": "N" 
			},
			{
				"x": 0.3979175247,
				"y": -0.2076457469,
				"z": 0.6541283613,
				"element": "C" 
			},
			{
				"x": -0.2617946272,
				"y": 1.1981653435,
				"z": 0.9593856903,
				"element": "C" 
			},
			{
				"x": 0.1014929976,
				"y": 2.2060743201,
				"z": 0.3598902376,
				"element": "O" 
			},
			{
				"x": -1.2573920911,
				"y": 1.1792408811,
				"z": 1.8877000361,
				"element": "N" 
			},
			{
				"x": -2.0841941071,
				"y": 2.2360109636,
				"z": 2.3307708173,
				"element": "C" 
			},
			{
				"x": -3.0409626982,
				"y": 1.9240987434,
				"z": 3.3102087606,
				"element": "C" 
			},
			{
				"x": -3.8970428888,
				"y": 2.90739859,
				"z": 3.7969546797,
				"element": "C" 
			},
			{
				"x": -3.8134277856,
				"y": 4.2150810174,
				"z": 3.3141958796,
				"element": "C" 
			},
			{
				"x": -2.8619871239,
				"y": 4.5216778973,
				"z": 2.3410058319,
				"element": "C" 
			},
			{
				"x": -1.9948773914,
				"y": 3.5484838674,
				"z": 1.8425379768,
				"element": "C" 
			},
			{
				"x": -0.5650029309,
				"y": -1.0193017808,
				"z": -0.2352529882,
				"element": "C" 
			},
			{
				"x": -0.3611393169,
				"y": -2.3963509774,
				"z": -0.420168884,
				"element": "C" 
			},
			{
				"x": -1.1830178054,
				"y": -3.1310372329,
				"z": -1.2747956865,
				"element": "C" 
			},
			{
				"x": -2.22042486,
				"y": -2.5059499081,
				"z": -1.9679344362,
				"element": "C" 
			},
			{
				"x": -2.4198875231,
				"y": -1.1351824881,
				"z": -1.8084158985,
				"element": "C" 
			},
			{
				"x": -1.597382112,
				"y": -0.3989857967,
				"z": -0.953831935,
				"element": "C" 
			},
			{
				"x": 0.6933234871,
				"y": -0.8647400621,
				"z": 2.0237132597,
				"element": "C" 
			},
			{
				"x": -0.1652660409,
				"y": -1.7971787007,
				"z": 2.6258803328,
				"element": "C" 
			},
			{
				"x": 0.0956723875,
				"y": -2.2873604858,
				"z": 3.9096095272,
				"element": "C" 
			},
			{
				"x": 1.2139420021,
				"y": -1.8509509372,
				"z": 4.6178926829,
				"element": "C" 
			},
			{
				"x": 2.0689254591,
				"y": -0.9129610674,
				"z": 4.0338197991,
				"element": "C" 
			},
			{
				"x": 1.8080779128,
				"y": -0.422211784,
				"z": 2.755140865,
				"element": "C" 
			},
			{
				"x": 2.9513839565,
				"y": -1.7183913767,
				"z": 0.9393461738,
				"element": "H" 
			},
			{
				"x": 3.7533145376,
				"y": -3.0180358361,
				"z": 0.2398290505,
				"element": "H" 
			},
			{
				"x": 3.8763982891,
				"y": -3.3352689844,
				"z": -2.1348705778,
				"element": "H" 
			},
			{
				"x": 3.5844620061,
				"y": -2.3119847609,
				"z": -4.3679684579,
				"element": "H" 
			},
			{
				"x": 2.3608295536,
				"y": -0.1444346536,
				"z": -4.5944293863,
				"element": "H" 
			},
			{
				"x": 1.4189085316,
				"y": 0.9371135774,
				"z": -2.5647983947,
				"element": "H" 
			},
			{
				"x": 1.5877902283,
				"y": 1.1279179661,
				"z": -0.2754758289,
				"element": "H" 
			},
			{
				"x": -1.4063592623,
				"y": 0.2924891574,
				"z": 2.3507058332,
				"element": "H" 
			},
			{
				"x": -3.111395921,
				"y": 0.9068624726,
				"z": 3.6887007967,
				"element": "H" 
			},
			{
				"x": -4.6307418292,
				"y": 2.6483976628,
				"z": 4.5547851591,
				"element": "H" 
			},
			{
				"x": -4.480759561,
				"y": 4.9833320887,
				"z": 3.6925105953,
				"element": "H" 
			},
			{
				"x": -2.785835222,
				"y": 5.5355137463,
				"z": 1.9582149067,
				"element": "H" 
			},
			{
				"x": -1.2554933425,
				"y": 3.7897417386,
				"z": 1.0927167539,
				"element": "H" 
			},
			{
				"x": 0.4556575908,
				"y": -2.8905778786,
				"z": 0.0959447463,
				"element": "H" 
			},
			{
				"x": -1.0046229028,
				"y": -4.194997749,
				"z": -1.4030775788,
				"element": "H" 
			},
			{
				"x": -2.861076755,
				"y": -3.0796498234,
				"z": -2.6316050664,
				"element": "H" 
			},
			{
				"x": -3.2156910623,
				"y": -0.6313596045,
				"z": -2.3496441884,
				"element": "H" 
			},
			{
				"x": -1.7632186009,
				"y": 0.6697938771,
				"z": -0.8649335124,
				"element": "H" 
			},
			{
				"x": -1.0312030864,
				"y": -2.1642900066,
				"z": 2.0848069819,
				"element": "H" 
			},
			{
				"x": -0.5770545665,
				"y": -3.0189386501,
				"z": 4.3485623998,
				"element": "H" 
			},
			{
				"x": 1.4174892551,
				"y": -2.2346154278,
				"z": 5.6133265636,
				"element": "H" 
			},
			{
				"x": 2.9392412384,
				"y": -0.5565350223,
				"z": 4.5779914619,
				"element": "H" 
			},
			{
				"x": 2.4701654842,
				"y": 0.3074249147,
				"z": 2.3002191825,
				"element": "H" 
			}
		],
		 "valence_orbital": [ 
			{
				"type": "occ",
				"energy": -0.24301,
				"method": "rhf"
			},
			{
				"type": "occ",
				"energy": -0.24029,
				"method": "rhf"
			},
			{
				"type": "occ",
				"energy": -0.22289,
				"method": "rhf"
			},
			{
				"type": "occ",
				"energy": -0.21504,
				"method": "rhf"
			},
			{
				"type": "occ",
				"energy": -0.18567,
				"method": "rhf"
			},
			{
				"type": "unocc",
				"energy": -0.02614,
				"method": "rhf"
			},
			{
				"type": "unocc",
				"energy": -0.01697,
				"method": "rhf"
			},
			{
				"type": "unocc",
				"energy": -0.00672,
				"method": "rhf"
			},
			{
				"type": "unocc",
				"energy": -0.00291,
				"method": "rhf"
			},
			{
				"type": "unocc",
				"energy": -0.00176,
				"method": "rhf"
			}
		],
		"cosmo_sigma_profile": { 
			"-0.025": 0.0,
			"-0.024": 0.0,
			"-0.023": 0.0,
			"-0.022": 0.0,
			"-0.021": 0.0,
			"-0.02": 0.0,
			"-0.019": 0.0,
			"-0.018": 0.0,
			"-0.017": 0.0,
			"-0.016": 0.0,
			"-0.015": 0.0,
			"-0.014": 0.0,
			"-0.013": 0.13580524087,
			"-0.012": 1.94472371493,
			"-0.011": 2.16886667829,
			"-0.01": 2.75130774336,
			"-0.009": 3.33727444613,
			"-0.008": 2.79455223763,
			"-0.007": 4.69830366935,
			"-0.006": 17.3535791018,
			"-0.005": 33.4717381505,
			"-0.004": 40.1039143517,
			"-0.003": 37.021839847,
			"-0.002": 29.9438642626,
			"-0.001": 29.0026810696,
			"0.0": 27.7025247505,
			"0.001": 30.0864618031,
			"0.002": 29.4741184766,
			"0.003": 29.7251601586,
			"0.004": 30.7384588127,
			"0.005": 34.5615533376,
			"0.006": 18.9149018863,
			"0.007": 11.7087065039,
			"0.008": 6.97005208161,
			"0.009": 2.39296900497,
			"0.01": 2.15166729716,
			"0.011": 2.06933867031,
			"0.012": 0.142876190844,
			"0.013": 0.0,
			"0.014": 0.0,
			"0.015": 0.0,
			"0.016": 0.0,
			"0.017": 0.0,
			"0.018": 0.0,
			"0.019": 0.0,
			"0.02": 0.0,
			"0.021": 0.0,
			"0.022": 0.0,
			"0.023": 0.0,
			"0.024": 0.0,
			"0.025": 0.0
		}
	}
}
