{
	 "smiles": "CC(C)(C(O)=O)C(C)(C)C(O)=O", 
	 "Tm": 473.15, 
	 "num_atms": 26, 
	 "gaussian": { 
		 "optdone": 1, 
		 "sigma_profile": "yes", 
		 "theory": "DFT", 
		 "functional": "B3LYP", 
		 "basiset": "6-31G**", 
		 "properties": { 
			 "R2extent": 2232.1607, 
			 "electric_dipole_moment_norm": 5.04646014747, 
			 "electric_quadrupole_moment_norm": 6.38341582775, 
			 "total_energy": -614.210815502, 
			 "HOMO_LUMO_gap": 0.27099, 
			 "cosmo_polarized_energy": -18.58, 
			 "cosmo_cavitation_energy": 26.34, 
			 "cosmo_dispersion_energy": -19.04, 
			 "cosmo_repulsion_energy": 1.48, 
			 "cosmo_total_nonelectrostatic_energy": 8.79, 
			 "SMD_solvation_energy": 6.67 
		},
		"coords": [
			{
				"x": 2.1331559414,
				"y": 0.8335955062,
				"z": -0.2632116545,
				"element": "C" 
			},
			{
				"x": 1.7191007836,
				"y": -0.5664850021,
				"z": 0.2381877616,
				"element": "C" 
			},
			{
				"x": 2.9588545594,
				"y": -1.2346511539,
				"z": 0.8910188453,
				"element": "C" 
			},
			{
				"x": 1.4200213368,
				"y": -1.4193961733,
				"z": -1.0112260264,
				"element": "C" 
			},
			{
				"x": 0.7196925275,
				"y": -2.5537485146,
				"z": -0.7471634293,
				"element": "O" 
			},
			{
				"x": 1.860020027,
				"y": -1.1986296398,
				"z": -2.1165411847,
				"element": "O" 
			},
			{
				"x": 0.5010253493,
				"y": -0.4887106188,
				"z": 1.2506451633,
				"element": "C" 
			},
			{
				"x": 0.7094571774,
				"y": 0.6694698201,
				"z": 2.2657078113,
				"element": "C" 
			},
			{
				"x": 0.3025024186,
				"y": -1.7889778514,
				"z": 2.0740394793,
				"element": "C" 
			},
			{
				"x": -0.7871573481,
				"y": -0.1814120601,
				"z": 0.4519649389,
				"element": "C" 
			},
			{
				"x": -1.9285591159,
				"y": -0.0458587519,
				"z": 1.1759766964,
				"element": "O" 
			},
			{
				"x": -0.8369634628,
				"y": -0.0352404674,
				"z": -0.7457423758,
				"element": "O" 
			},
			{
				"x": 2.5913702837,
				"y": 1.4175039306,
				"z": 0.5389613816,
				"element": "H" 
			},
			{
				"x": 2.8602626988,
				"y": 0.7257430049,
				"z": -1.0688728168,
				"element": "H" 
			},
			{
				"x": 1.2778854139,
				"y": 1.3807499262,
				"z": -0.6644201005,
				"element": "H" 
			},
			{
				"x": 3.8033014266,
				"y": -1.1801983348,
				"z": 0.1982394339,
				"element": "H" 
			},
			{
				"x": 2.788260696,
				"y": -2.2867632807,
				"z": 1.1297898565,
				"element": "H" 
			},
			{
				"x": 3.2501085862,
				"y": -0.7135944998,
				"z": 1.8083773099,
				"element": "H" 
			},
			{
				"x": 0.6232945228,
				"y": -3.001777643,
				"z": -1.6043089755,
				"element": "H" 
			},
			{
				"x": 0.661613274,
				"y": 1.6540217272,
				"z": 1.7968916369,
				"element": "H" 
			},
			{
				"x": -0.0486864313,
				"y": 0.6407320472,
				"z": 3.0560543153,
				"element": "H" 
			},
			{
				"x": 1.6790746433,
				"y": 0.5730488778,
				"z": 2.7619623488,
				"element": "H" 
			},
			{
				"x": -0.5730435468,
				"y": -1.7120359109,
				"z": 2.7287071335,
				"element": "H" 
			},
			{
				"x": 1.1616588868,
				"y": -1.9556842269,
				"z": 2.7286230608,
				"element": "H" 
			},
			{
				"x": 0.1710962114,
				"y": -2.661619079,
				"z": 1.4363873105,
				"element": "H" 
			},
			{
				"x": -1.7555468595,
				"y": -0.187581632,
				"z": 2.1166520799,
				"element": "H" 
			}
		],
		 "valence_orbital": [ 
			{
				"type": "occ",
				"energy": -0.3332,
				"method": "rhf"
			},
			{
				"type": "occ",
				"energy": -0.31884,
				"method": "rhf"
			},
			{
				"type": "occ",
				"energy": -0.30955,
				"method": "rhf"
			},
			{
				"type": "occ",
				"energy": -0.27099,
				"method": "rhf"
			},
			{
				"type": "occ",
				"energy": -0.26563,
				"method": "rhf"
			},
			{
				"type": "unocc",
				"energy": 0.00536,
				"method": "rhf"
			},
			{
				"type": "unocc",
				"energy": 0.01968,
				"method": "rhf"
			},
			{
				"type": "unocc",
				"energy": 0.03642,
				"method": "rhf"
			},
			{
				"type": "unocc",
				"energy": 0.08164,
				"method": "rhf"
			},
			{
				"type": "unocc",
				"energy": 0.09131,
				"method": "rhf"
			}
		],
		"cosmo_sigma_profile": { 
			"-0.025": 0.0,
			"-0.024": 0.0,
			"-0.023": 0.0,
			"-0.022": 0.0,
			"-0.021": 0.0,
			"-0.02": 0.0,
			"-0.019": 0.0,
			"-0.018": 0.671371451342,
			"-0.017": 1.77005143775,
			"-0.016": 1.77658265455,
			"-0.015": 1.96695952959,
			"-0.014": 1.57177864692,
			"-0.013": 1.41106620812,
			"-0.012": 1.86098632791,
			"-0.011": 1.46741755152,
			"-0.01": 1.90718286445,
			"-0.009": 2.01555236007,
			"-0.008": 0.910796962029,
			"-0.007": 2.07399341593,
			"-0.006": 4.50835545043,
			"-0.005": 8.61560955371,
			"-0.004": 14.6049465456,
			"-0.003": 19.1019363429,
			"-0.002": 23.2535831359,
			"-0.001": 24.1349997139,
			"0.0": 18.0031346542,
			"0.001": 10.1802814359,
			"0.002": 5.27556261941,
			"0.003": 4.58066010617,
			"0.004": 5.19157894244,
			"0.005": 5.5111392675,
			"0.006": 3.26695948397,
			"0.007": 4.06786033447,
			"0.008": 4.52967759518,
			"0.009": 4.98298206869,
			"0.01": 7.32189055644,
			"0.011": 8.36977858115,
			"0.012": 7.96109969611,
			"0.013": 1.54107087184,
			"0.014": 0.0,
			"0.015": 0.0,
			"0.016": 0.0,
			"0.017": 0.0,
			"0.018": 0.0,
			"0.019": 0.0,
			"0.02": 0.0,
			"0.021": 0.0,
			"0.022": 0.0,
			"0.023": 0.0,
			"0.024": 0.0,
			"0.025": 0.0
		}
	}
}
