{
	 "smiles": "FC1=CC=C(C=C1)C1=CC=NO1", 
	 "Tm": 328.15, 
	 "num_atms": 18, 
	 "gaussian": { 
		 "optdone": 1, 
		 "sigma_profile": "yes", 
		 "theory": "DFT", 
		 "functional": "B3LYP", 
		 "basiset": "6-31G**", 
		 "properties": { 
			 "R2extent": 2882.6955, 
			 "electric_dipole_moment_norm": 2.62132902361, 
			 "electric_quadrupole_moment_norm": 14.3833325599, 
			 "total_energy": -576.331011932, 
			 "HOMO_LUMO_gap": 0.18155, 
			 "cosmo_polarized_energy": -8.46, 
			 "cosmo_cavitation_energy": 23.49, 
			 "cosmo_dispersion_energy": -17.31, 
			 "cosmo_repulsion_energy": 1.32, 
			 "cosmo_total_nonelectrostatic_energy": 7.5, 
			 "SMD_solvation_energy": 4.49 
		},
		"coords": [
			{
				"x": -0.8861624171,
				"y": 2.8917046342,
				"z": 2.2462101182,
				"element": "F" 
			},
			{
				"x": -0.2137209444,
				"y": 1.9188150669,
				"z": 1.6015528676,
				"element": "C" 
			},
			{
				"x": -0.7090310625,
				"y": 1.4468675082,
				"z": 0.389624016,
				"element": "C" 
			},
			{
				"x": -0.0110677391,
				"y": 0.4421256392,
				"z": -0.2722555299,
				"element": "C" 
			},
			{
				"x": 1.1725912948,
				"y": -0.0897556582,
				"z": 0.2685222657,
				"element": "C" 
			},
			{
				"x": 1.6445329168,
				"y": 0.4105764196,
				"z": 1.4950849132,
				"element": "C" 
			},
			{
				"x": 0.9537982742,
				"y": 1.4157008376,
				"z": 2.1654724588,
				"element": "C" 
			},
			{
				"x": 1.8987719787,
				"y": -1.1450433236,
				"z": -0.4340210273,
				"element": "C" 
			},
			{
				"x": 1.6928044967,
				"y": -1.8164649266,
				"z": -1.6118416395,
				"element": "C" 
			},
			{
				"x": 2.7888945424,
				"y": -2.7135712732,
				"z": -1.6851671611,
				"element": "C" 
			},
			{
				"x": 3.5956746894,
				"y": -2.6093798553,
				"z": -0.6542486585,
				"element": "N" 
			},
			{
				"x": 3.0315566741,
				"y": -1.6113527681,
				"z": 0.1438628823,
				"element": "O" 
			},
			{
				"x": -1.6231459483,
				"y": 1.8663360576,
				"z": -0.0156771754,
				"element": "H" 
			},
			{
				"x": -0.390679963,
				"y": 0.0685378984,
				"z": -1.2178988258,
				"element": "H" 
			},
			{
				"x": 2.5565545762,
				"y": 0.0060095211,
				"z": 1.919218369,
				"element": "H" 
			},
			{
				"x": 1.3054034047,
				"y": 1.8114064144,
				"z": 3.1119155469,
				"element": "H" 
			},
			{
				"x": 0.888706091,
				"y": -1.6955712653,
				"z": -2.3201899336,
				"element": "H" 
			},
			{
				"x": 3.0189191355,
				"y": -3.4359409268,
				"z": -2.4581634865,
				"element": "H" 
			}
		],
		 "valence_orbital": [ 
			{
				"type": "occ",
				"energy": -0.30662,
				"method": "rhf"
			},
			{
				"type": "occ",
				"energy": -0.30426,
				"method": "rhf"
			},
			{
				"type": "occ",
				"energy": -0.29327,
				"method": "rhf"
			},
			{
				"type": "occ",
				"energy": -0.27394,
				"method": "rhf"
			},
			{
				"type": "occ",
				"energy": -0.23187,
				"method": "rhf"
			},
			{
				"type": "unocc",
				"energy": -0.05032,
				"method": "rhf"
			},
			{
				"type": "unocc",
				"energy": -0.02325,
				"method": "rhf"
			},
			{
				"type": "unocc",
				"energy": 0.02192,
				"method": "rhf"
			},
			{
				"type": "unocc",
				"energy": 0.07217,
				"method": "rhf"
			},
			{
				"type": "unocc",
				"energy": 0.07336,
				"method": "rhf"
			}
		],
		"cosmo_sigma_profile": { 
			"-0.025": 0.0,
			"-0.024": 0.0,
			"-0.023": 0.0,
			"-0.022": 0.0,
			"-0.021": 0.0,
			"-0.02": 0.0,
			"-0.019": 0.0,
			"-0.018": 0.0,
			"-0.017": 0.0,
			"-0.016": 0.0,
			"-0.015": 0.0,
			"-0.014": 0.0,
			"-0.013": 0.0,
			"-0.012": 0.0,
			"-0.011": 0.0,
			"-0.01": 0.361857463589,
			"-0.009": 4.50609897428,
			"-0.008": 6.22093266244,
			"-0.007": 9.23181524198,
			"-0.006": 9.82163097638,
			"-0.005": 10.9078035622,
			"-0.004": 6.96468355027,
			"-0.003": 9.73211067121,
			"-0.002": 7.0039512644,
			"-0.001": 9.83751034073,
			"0.0": 21.1080144329,
			"0.001": 20.7149530408,
			"0.002": 22.71324197,
			"0.003": 17.2061367694,
			"0.004": 12.3142424217,
			"0.005": 3.0975804133,
			"0.006": 2.70352402003,
			"0.007": 3.35323036683,
			"0.008": 3.17044370531,
			"0.009": 1.83798032815,
			"0.01": 1.91829778832,
			"0.011": 1.33243593378,
			"0.012": 1.76970117017,
			"0.013": 1.12769210266,
			"0.014": 1.18637145039,
			"0.015": 0.0378254787878,
			"0.016": 0.0,
			"0.017": 0.0,
			"0.018": 0.0,
			"0.019": 0.0,
			"0.02": 0.0,
			"0.021": 0.0,
			"0.022": 0.0,
			"0.023": 0.0,
			"0.024": 0.0,
			"0.025": 0.0
		}
	}
}
