{
	 "smiles": "OC(=O)CSC1=C(Cl)C=CC=C1", 
	 "Tm": 389.15, 
	 "num_atms": 19, 
	 "gaussian": { 
		 "optdone": 1, 
		 "sigma_profile": "yes", 
		 "theory": "DFT", 
		 "functional": "B3LYP", 
		 "basiset": "6-31G**", 
		 "properties": { 
			 "R2extent": 3222.7467, 
			 "electric_dipole_moment_norm": 2.09580775359, 
			 "electric_quadrupole_moment_norm": 10.3127825193, 
			 "total_energy": -1317.90288546, 
			 "HOMO_LUMO_gap": 0.20362, 
			 "cosmo_polarized_energy": -11.71, 
			 "cosmo_cavitation_energy": 26.9, 
			 "cosmo_dispersion_energy": -19.78, 
			 "cosmo_repulsion_energy": 1.55, 
			 "cosmo_total_nonelectrostatic_energy": 8.67, 
			 "SMD_solvation_energy": 5.15 
		},
		"coords": [
			{
				"x": -1.3088774048,
				"y": 2.1131193044,
				"z": -1.4389768749,
				"element": "O" 
			},
			{
				"x": -1.0078746584,
				"y": 0.8491762583,
				"z": -1.0511552423,
				"element": "C" 
			},
			{
				"x": -0.2262031924,
				"y": 0.1477013393,
				"z": -1.6477034981,
				"element": "O" 
			},
			{
				"x": -1.7910013179,
				"y": 0.4995288234,
				"z": 0.2047493343,
				"element": "C" 
			},
			{
				"x": -1.5169971019,
				"y": -1.1837619436,
				"z": 0.849854196,
				"element": "S" 
			},
			{
				"x": 0.1616592779,
				"y": -1.0666835456,
				"z": 1.4649540689,
				"element": "C" 
			},
			{
				"x": 0.5012669382,
				"y": -0.4430697588,
				"z": 2.6790309192,
				"element": "C" 
			},
			{
				"x": -0.7112979136,
				"y": 0.37263164,
				"z": 3.6556783438,
				"element": "Cl" 
			},
			{
				"x": 1.8164974359,
				"y": -0.4413813888,
				"z": 3.1461912157,
				"element": "C" 
			},
			{
				"x": 2.8132120579,
				"y": -1.077537677,
				"z": 2.4074577283,
				"element": "C" 
			},
			{
				"x": 2.4986957393,
				"y": -1.7038859684,
				"z": 1.2013324724,
				"element": "C" 
			},
			{
				"x": 1.1852609231,
				"y": -1.6910977024,
				"z": 0.7358007771,
				"element": "C" 
			},
			{
				"x": -0.7834907789,
				"y": 2.2841490133,
				"z": -2.2388338729,
				"element": "H" 
			},
			{
				"x": -2.8599050632,
				"y": 0.5690723046,
				"z": -0.022767576,
				"element": "H" 
			},
			{
				"x": -1.5897235683,
				"y": 1.2496724542,
				"z": 0.9749654931,
				"element": "H" 
			},
			{
				"x": 2.0475739923,
				"y": 0.0513753873,
				"z": 4.0841001714,
				"element": "H" 
			},
			{
				"x": 3.8339377169,
				"y": -1.078046857,
				"z": 2.7780642407,
				"element": "H" 
			},
			{
				"x": 3.2729392465,
				"y": -2.1935622998,
				"z": 0.6189134782,
				"element": "H" 
			},
			{
				"x": 0.9300276712,
				"y": -2.1507993833,
				"z": -0.2119553746,
				"element": "H" 
			}
		],
		 "valence_orbital": [ 
			{
				"type": "occ",
				"energy": -0.31412,
				"method": "rhf"
			},
			{
				"type": "occ",
				"energy": -0.28551,
				"method": "rhf"
			},
			{
				"type": "occ",
				"energy": -0.26519,
				"method": "rhf"
			},
			{
				"type": "occ",
				"energy": -0.25177,
				"method": "rhf"
			},
			{
				"type": "occ",
				"energy": -0.23459,
				"method": "rhf"
			},
			{
				"type": "unocc",
				"energy": -0.03097,
				"method": "rhf"
			},
			{
				"type": "unocc",
				"energy": -0.0165,
				"method": "rhf"
			},
			{
				"type": "unocc",
				"energy": 0.00218,
				"method": "rhf"
			},
			{
				"type": "unocc",
				"energy": 0.01715,
				"method": "rhf"
			},
			{
				"type": "unocc",
				"energy": 0.04751,
				"method": "rhf"
			}
		],
		"cosmo_sigma_profile": { 
			"-0.025": 0.0,
			"-0.024": 0.0,
			"-0.023": 0.0,
			"-0.022": 0.0,
			"-0.021": 0.0,
			"-0.02": 0.0,
			"-0.019": 0.0590650411912,
			"-0.018": 0.893060425151,
			"-0.017": 1.21519614302,
			"-0.016": 0.52093733592,
			"-0.015": 0.553392534399,
			"-0.014": 1.34543775862,
			"-0.013": 0.569310245724,
			"-0.012": 0.326495387138,
			"-0.011": 1.0234167738,
			"-0.01": 0.811670957179,
			"-0.009": 2.53381882728,
			"-0.008": 3.28139893169,
			"-0.007": 9.20163932827,
			"-0.006": 13.5761071873,
			"-0.005": 13.7465627482,
			"-0.004": 9.95966221021,
			"-0.003": 11.4225739232,
			"-0.002": 10.6886448453,
			"-0.001": 12.6040309454,
			"0.0": 14.7005194769,
			"0.001": 16.3956056912,
			"0.002": 19.5289871595,
			"0.003": 18.5400822189,
			"0.004": 16.0855597806,
			"0.005": 8.43238442242,
			"0.006": 5.77367362292,
			"0.007": 5.89800741998,
			"0.008": 5.88534943443,
			"0.009": 5.20108697748,
			"0.01": 3.04136203604,
			"0.011": 4.23847646815,
			"0.012": 0.810122634462,
			"0.013": 0.0,
			"0.014": 0.0,
			"0.015": 0.0,
			"0.016": 0.0,
			"0.017": 0.0,
			"0.018": 0.0,
			"0.019": 0.0,
			"0.02": 0.0,
			"0.021": 0.0,
			"0.022": 0.0,
			"0.023": 0.0,
			"0.024": 0.0,
			"0.025": 0.0
		}
	}
}
