{
	 "smiles": "BrC1=CC(Br)=C(C=C1)N=C=O", 
	 "Tm": 356.15, 
	 "num_atms": 14, 
	 "gaussian": { 
		 "optdone": 1, 
		 "sigma_profile": "yes", 
		 "theory": "DFT", 
		 "functional": "B3LYP", 
		 "basiset": "6-31G**", 
		 "properties": { 
			 "R2extent": 5620.456, 
			 "electric_dipole_moment_norm": 1.66611764891, 
			 "electric_quadrupole_moment_norm": 12.5691625759, 
			 "total_energy": -5541.3320769, 
			 "HOMO_LUMO_gap": 0.19768, 
			 "cosmo_polarized_energy": -4.6, 
			 "cosmo_cavitation_energy": 24.53, 
			 "cosmo_dispersion_energy": -18.62, 
			 "cosmo_repulsion_energy": 1.49, 
			 "cosmo_total_nonelectrostatic_energy": 7.41, 
			 "SMD_solvation_energy": 4.06 
		},
		"coords": [
			{
				"x": 0.2026634046,
				"y": 2.8450022077,
				"z": 1.1661611043,
				"element": "Br" 
			},
			{
				"x": 0.2778234376,
				"y": 0.9420720658,
				"z": 1.2495564367,
				"element": "C" 
			},
			{
				"x": 1.5139716717,
				"y": 0.3056677083,
				"z": 1.168899086,
				"element": "C" 
			},
			{
				"x": 1.5713345744,
				"y": -1.0851144863,
				"z": 1.2296523067,
				"element": "C" 
			},
			{
				"x": 3.2715214243,
				"y": -1.9308393356,
				"z": 1.1172844547,
				"element": "Br" 
			},
			{
				"x": 0.3999893894,
				"y": -1.8554299818,
				"z": 1.3712625168,
				"element": "C" 
			},
			{
				"x": -0.828007603,
				"y": -1.1799637888,
				"z": 1.449381593,
				"element": "C" 
			},
			{
				"x": -0.8984997124,
				"y": 0.2068054238,
				"z": 1.3899005445,
				"element": "C" 
			},
			{
				"x": 0.379295558,
				"y": -3.2382881471,
				"z": 1.4387383914,
				"element": "N" 
			},
			{
				"x": 1.1258760256,
				"y": -4.1951438517,
				"z": 1.4176362183,
				"element": "C" 
			},
			{
				"x": 1.6946411534,
				"y": -5.2235424517,
				"z": 1.4157090299,
				"element": "O" 
			},
			{
				"x": 2.4247994776,
				"y": 0.8801547058,
				"z": 1.0600043507,
				"element": "H" 
			},
			{
				"x": -1.729434276,
				"y": -1.7729238819,
				"z": 1.5584074972,
				"element": "H" 
			},
			{
				"x": -1.8556745253,
				"y": 0.7106438135,
				"z": 1.45190647,
				"element": "H" 
			}
		],
		 "valence_orbital": [ 
			{
				"type": "occ",
				"energy": -0.31026,
				"method": "rhf"
			},
			{
				"type": "occ",
				"energy": -0.30333,
				"method": "rhf"
			},
			{
				"type": "occ",
				"energy": -0.30018,
				"method": "rhf"
			},
			{
				"type": "occ",
				"energy": -0.27048,
				"method": "rhf"
			},
			{
				"type": "occ",
				"energy": -0.24258,
				"method": "rhf"
			},
			{
				"type": "unocc",
				"energy": -0.0449,
				"method": "rhf"
			},
			{
				"type": "unocc",
				"energy": -0.0369,
				"method": "rhf"
			},
			{
				"type": "unocc",
				"energy": -0.02956,
				"method": "rhf"
			},
			{
				"type": "unocc",
				"energy": 0.00676,
				"method": "rhf"
			},
			{
				"type": "unocc",
				"energy": 0.0213,
				"method": "rhf"
			}
		],
		"cosmo_sigma_profile": { 
			"-0.025": 0.0,
			"-0.024": 0.0,
			"-0.023": 0.0,
			"-0.022": 0.0,
			"-0.021": 0.0,
			"-0.02": 0.0,
			"-0.019": 0.0,
			"-0.018": 0.0,
			"-0.017": 0.0,
			"-0.016": 0.0,
			"-0.015": 0.0,
			"-0.014": 0.0,
			"-0.013": 0.0,
			"-0.012": 0.0,
			"-0.011": 0.0,
			"-0.01": 0.0,
			"-0.009": 0.3619727198,
			"-0.008": 4.19001327985,
			"-0.007": 6.13004463684,
			"-0.006": 5.42058219686,
			"-0.005": 6.93209879828,
			"-0.004": 12.0476529798,
			"-0.003": 14.0262789835,
			"-0.002": 13.5814038829,
			"-0.001": 17.586991444,
			"0.0": 26.3194336193,
			"0.001": 31.2392730439,
			"0.002": 19.6402009614,
			"0.003": 18.611522203,
			"0.004": 14.5701497352,
			"0.005": 3.6882931467,
			"0.006": 3.26422693128,
			"0.007": 7.50176983891,
			"0.008": 0.550036080375,
			"0.009": 0.0,
			"0.01": 0.0,
			"0.011": 0.0,
			"0.012": 0.0,
			"0.013": 0.0,
			"0.014": 0.0,
			"0.015": 0.0,
			"0.016": 0.0,
			"0.017": 0.0,
			"0.018": 0.0,
			"0.019": 0.0,
			"0.02": 0.0,
			"0.021": 0.0,
			"0.022": 0.0,
			"0.023": 0.0,
			"0.024": 0.0,
			"0.025": 0.0
		}
	}
}
