{
	 "smiles": "FC1=C(F)C(F)=C(P(CCP(C2=C(F)C(F)=C(F)C(F)=C2F)C2=C(F)C(F)=C(F)C(F)=C2F)C2=C(F)C(F)=C(F)C(F)=C2F)C(F)=C1F", 
	 "Tm": 465.15, 
	 "num_atms": 52, 
	 "gaussian": { 
		 "optdone": 1, 
		 "sigma_profile": "yes", 
		 "theory": "DFT", 
		 "functional": "B3LYP", 
		 "basiset": "6-31G**", 
		 "properties": { 
			 "R2extent": 32778.6339, 
			 "electric_dipole_moment_norm": 1.93342289218, 
			 "electric_quadrupole_moment_norm": 13.5432942961, 
			 "total_energy": -3672.41747466, 
			 "HOMO_LUMO_gap": 0.19, 
			 "cosmo_polarized_energy": -11.42, 
			 "cosmo_cavitation_energy": 72.45, 
			 "cosmo_dispersion_energy": -41.73, 
			 "cosmo_repulsion_energy": 2.76, 
			 "cosmo_total_nonelectrostatic_energy": 33.48, 
			 "SMD_solvation_energy": 21.17 
		},
		"coords": [
			{
				"x": -6.2353933652,
				"y": -0.1976143838,
				"z": -6.2391708085,
				"element": "F" 
			},
			{
				"x": -5.2194726312,
				"y": -0.1760418835,
				"z": -5.3768027728,
				"element": "C" 
			},
			{
				"x": -5.4207407073,
				"y": -0.5718708107,
				"z": -4.054966889,
				"element": "C" 
			},
			{
				"x": -6.63244941,
				"y": -0.9712270518,
				"z": -3.6558002615,
				"element": "F" 
			},
			{
				"x": -4.3513337953,
				"y": -0.5412451425,
				"z": -3.1656919488,
				"element": "C" 
			},
			{
				"x": -4.5924941409,
				"y": -0.9279316961,
				"z": -1.9006284947,
				"element": "F" 
			},
			{
				"x": -3.0687897708,
				"y": -0.128946664,
				"z": -3.5454606939,
				"element": "C" 
			},
			{
				"x": -1.5938713245,
				"y": -0.0762793922,
				"z": -2.4172733246,
				"element": "P" 
			},
			{
				"x": -2.2584020379,
				"y": 1.0544413211,
				"z": -1.0766644014,
				"element": "C" 
			},
			{
				"x": -1.2925512721,
				"y": 1.3064578069,
				"z": 0.0960667803,
				"element": "C" 
			},
			{
				"x": 0.2612138156,
				"y": 2.2155347631,
				"z": -0.444107673,
				"element": "P" 
			},
			{
				"x": 0.9950244544,
				"y": 2.832562133,
				"z": 1.1545634706,
				"element": "C" 
			},
			{
				"x": 2.0254877944,
				"y": 3.7739014882,
				"z": 1.0192236765,
				"element": "C" 
			},
			{
				"x": 2.4558427106,
				"y": 4.1136878478,
				"z": -0.2068257206,
				"element": "F" 
			},
			{
				"x": 2.6451688344,
				"y": 4.38260423,
				"z": 2.1057922603,
				"element": "C" 
			},
			{
				"x": 3.6243985511,
				"y": 5.2736576855,
				"z": 1.9226913664,
				"element": "F" 
			},
			{
				"x": 2.233417048,
				"y": 4.0527268354,
				"z": 3.3948999817,
				"element": "C" 
			},
			{
				"x": 2.8122154404,
				"y": 4.6259718346,
				"z": 4.4506669121,
				"element": "F" 
			},
			{
				"x": 1.2171004011,
				"y": 3.1190920797,
				"z": 3.5751932327,
				"element": "C" 
			},
			{
				"x": 0.8241418292,
				"y": 2.7931823691,
				"z": 4.8110811605,
				"element": "F" 
			},
			{
				"x": 0.6225801126,
				"y": 2.5186223149,
				"z": 2.4661423399,
				"element": "C" 
			},
			{
				"x": -0.3391481519,
				"y": 1.6176649679,
				"z": 2.7227814165,
				"element": "F" 
			},
			{
				"x": 1.4532738671,
				"y": 0.8366841366,
				"z": -0.8130380503,
				"element": "C" 
			},
			{
				"x": 1.7833958522,
				"y": -0.1941317015,
				"z": 0.0739275121,
				"element": "C" 
			},
			{
				"x": 1.2102152986,
				"y": -0.2514330917,
				"z": 1.2894443199,
				"element": "F" 
			},
			{
				"x": 2.6977841671,
				"y": -1.1927871794,
				"z": -0.2460819835,
				"element": "C" 
			},
			{
				"x": 2.9855754319,
				"y": -2.1640239799,
				"z": 0.6275613812,
				"element": "F" 
			},
			{
				"x": 3.3170042647,
				"y": -1.1743003126,
				"z": -1.4949843068,
				"element": "C" 
			},
			{
				"x": 4.19530037,
				"y": -2.1243959254,
				"z": -1.8157509107,
				"element": "F" 
			},
			{
				"x": 3.0157852266,
				"y": -0.1655874847,
				"z": -2.4065768371,
				"element": "C" 
			},
			{
				"x": 3.6083120769,
				"y": -0.1513558853,
				"z": -3.6036821304,
				"element": "F" 
			},
			{
				"x": 2.0953144126,
				"y": 0.8207690716,
				"z": -2.0571817461,
				"element": "C" 
			},
			{
				"x": 1.8305815883,
				"y": 1.764282396,
				"z": -2.9666501994,
				"element": "F" 
			},
			{
				"x": -1.6632881628,
				"y": -1.800501882,
				"z": -1.7120628617,
				"element": "C" 
			},
			{
				"x": -2.1891882984,
				"y": -2.2288852161,
				"z": -0.4888015835,
				"element": "C" 
			},
			{
				"x": -2.8018277625,
				"y": -1.3736337473,
				"z": 0.3472062367,
				"element": "F" 
			},
			{
				"x": -2.1038866904,
				"y": -3.5526805203,
				"z": -0.0597683276,
				"element": "C" 
			},
			{
				"x": -2.6165621626,
				"y": -3.9139369487,
				"z": 1.1204622637,
				"element": "F" 
			},
			{
				"x": -1.4934664094,
				"y": -4.5046945375,
				"z": -0.8711978082,
				"element": "C" 
			},
			{
				"x": -1.4154114499,
				"y": -5.7742898413,
				"z": -0.4728056877,
				"element": "F" 
			},
			{
				"x": -0.9668685689,
				"y": -4.1236674548,
				"z": -2.103344119,
				"element": "C" 
			},
			{
				"x": -0.3828848555,
				"y": -5.0305140791,
				"z": -2.8919884301,
				"element": "F" 
			},
			{
				"x": -1.057956339,
				"y": -2.7926102021,
				"z": -2.4967602383,
				"element": "C" 
			},
			{
				"x": -0.5415438336,
				"y": -2.4654318526,
				"z": -3.6935497624,
				"element": "F" 
			},
			{
				"x": -2.9063754073,
				"y": 0.2614418127,
				"z": -4.8796364163,
				"element": "C" 
			},
			{
				"x": -1.7131730109,
				"y": 0.6737195242,
				"z": -5.3243444818,
				"element": "F" 
			},
			{
				"x": -3.9591197165,
				"y": 0.2434674861,
				"z": -5.7937058984,
				"element": "C" 
			},
			{
				"x": -3.7681109516,
				"y": 0.6245477015,
				"z": -7.0598037398,
				"element": "F" 
			},
			{
				"x": -3.2166165659,
				"y": 0.7041274617,
				"z": -0.693636033,
				"element": "H" 
			},
			{
				"x": -2.4377315958,
				"y": 1.9939753313,
				"z": -1.6139077775,
				"element": "H" 
			},
			{
				"x": -1.0772286885,
				"y": 0.3901707671,
				"z": 0.6441138639,
				"element": "H" 
			},
			{
				"x": -1.7906464713,
				"y": 1.9788255011,
				"z": 0.8016341436,
				"element": "H" 
			}
		],
		 "valence_orbital": [ 
			{
				"type": "occ",
				"energy": -0.26727,
				"method": "rhf"
			},
			{
				"type": "occ",
				"energy": -0.26616,
				"method": "rhf"
			},
			{
				"type": "occ",
				"energy": -0.26436,
				"method": "rhf"
			},
			{
				"type": "occ",
				"energy": -0.25838,
				"method": "rhf"
			},
			{
				"type": "occ",
				"energy": -0.25125,
				"method": "rhf"
			},
			{
				"type": "unocc",
				"energy": -0.06125,
				"method": "rhf"
			},
			{
				"type": "unocc",
				"energy": -0.05739,
				"method": "rhf"
			},
			{
				"type": "unocc",
				"energy": -0.04773,
				"method": "rhf"
			},
			{
				"type": "unocc",
				"energy": -0.04375,
				"method": "rhf"
			},
			{
				"type": "unocc",
				"energy": -0.02984,
				"method": "rhf"
			}
		],
		"cosmo_sigma_profile": { 
			"-0.025": 0.0,
			"-0.024": 0.0,
			"-0.023": 0.0,
			"-0.022": 0.0,
			"-0.021": 0.0,
			"-0.02": 0.0,
			"-0.019": 0.0,
			"-0.018": 0.0,
			"-0.017": 0.0,
			"-0.016": 0.0,
			"-0.015": 0.0,
			"-0.014": 0.0,
			"-0.013": 0.0,
			"-0.012": 0.0,
			"-0.011": 0.0,
			"-0.01": 0.0,
			"-0.009": 0.135574949131,
			"-0.008": 1.6856813078,
			"-0.007": 4.17106342921,
			"-0.006": 5.44579520996,
			"-0.005": 14.0106172082,
			"-0.004": 60.6541375056,
			"-0.003": 73.1169269279,
			"-0.002": 41.9648785424,
			"-0.001": 37.5938532603,
			"0.0": 34.1053353662,
			"0.001": 47.9290558179,
			"0.002": 147.488349901,
			"0.003": 95.0705147767,
			"0.004": 9.24087610504,
			"0.005": 4.74816473537,
			"0.006": 3.58799827674,
			"0.007": 1.76511558514,
			"0.008": 0.990746953676,
			"0.009": 0.645563082895,
			"0.01": 0.616412161644,
			"0.011": 0.0080494777324,
			"0.012": 0.0,
			"0.013": 0.0,
			"0.014": 0.0,
			"0.015": 0.0,
			"0.016": 0.0,
			"0.017": 0.0,
			"0.018": 0.0,
			"0.019": 0.0,
			"0.02": 0.0,
			"0.021": 0.0,
			"0.022": 0.0,
			"0.023": 0.0,
			"0.024": 0.0,
			"0.025": 0.0
		}
	}
}
