{
	 "smiles": "CC(=O)C1=CC=C(C=C1)N1CCCCC1", 
	 "Tm": 360.15, 
	 "num_atms": 32, 
	 "gaussian": { 
		 "optdone": 1, 
		 "sigma_profile": "yes", 
		 "theory": "DFT", 
		 "functional": "B3LYP", 
		 "basiset": "6-31G**", 
		 "properties": { 
			 "R2extent": 4708.4892, 
			 "electric_dipole_moment_norm": 5.80964650732, 
			 "electric_quadrupole_moment_norm": 14.1239685273, 
			 "total_energy": -635.611550829, 
			 "HOMO_LUMO_gap": 0.16189, 
			 "cosmo_polarized_energy": -11.26, 
			 "cosmo_cavitation_energy": 32.93, 
			 "cosmo_dispersion_energy": -24.29, 
			 "cosmo_repulsion_energy": 1.88, 
			 "cosmo_total_nonelectrostatic_energy": 10.53, 
			 "SMD_solvation_energy": 5.0 
		},
		"coords": [
			{
				"x": -4.8530733128,
				"y": 0.0161201195,
				"z": 1.2293012327,
				"element": "C" 
			},
			{
				"x": -3.6298142018,
				"y": 0.785828389,
				"z": 1.7107226435,
				"element": "C" 
			},
			{
				"x": -3.7033165821,
				"y": 1.4885648998,
				"z": 2.7125271273,
				"element": "O" 
			},
			{
				"x": -2.3628443264,
				"y": 0.6654771646,
				"z": 0.9455397177,
				"element": "C" 
			},
			{
				"x": -2.217715572,
				"y": -0.1291919426,
				"z": -0.2045382789,
				"element": "C" 
			},
			{
				"x": -1.0135180155,
				"y": -0.2098271592,
				"z": -0.886798539,
				"element": "C" 
			},
			{
				"x": 0.1254704374,
				"y": 0.5135279888,
				"z": -0.4513562033,
				"element": "C" 
			},
			{
				"x": -0.0256429402,
				"y": 1.3142752558,
				"z": 0.7107498893,
				"element": "C" 
			},
			{
				"x": -1.235392122,
				"y": 1.3797239545,
				"z": 1.3819159061,
				"element": "C" 
			},
			{
				"x": 1.3440423632,
				"y": 0.4307575461,
				"z": -1.0992761678,
				"element": "N" 
			},
			{
				"x": 2.5293368797,
				"y": 1.07871896,
				"z": -0.5307341569,
				"element": "C" 
			},
			{
				"x": 3.809338639,
				"y": 0.6331861318,
				"z": -1.2609540949,
				"element": "C" 
			},
			{
				"x": 3.7399421079,
				"y": -0.8600274388,
				"z": -1.6034480303,
				"element": "C" 
			},
			{
				"x": 2.5663349838,
				"y": -1.1380922256,
				"z": -2.5748950137,
				"element": "C" 
			},
			{
				"x": 1.5021920607,
				"y": -0.0279431584,
				"z": -2.4774904389,
				"element": "C" 
			},
			{
				"x": -5.682010515,
				"y": 0.2228837989,
				"z": 1.9069539566,
				"element": "H" 
			},
			{
				"x": -4.6600856258,
				"y": -1.0623874821,
				"z": 1.2117414571,
				"element": "H" 
			},
			{
				"x": -5.1330533135,
				"y": 0.3138606358,
				"z": 0.2126590292,
				"element": "H" 
			},
			{
				"x": -3.0572505996,
				"y": -0.7089443831,
				"z": -0.5763648717,
				"element": "H" 
			},
			{
				"x": -0.9526249233,
				"y": -0.8637793154,
				"z": -1.7485546397,
				"element": "H" 
			},
			{
				"x": 0.8051939652,
				"y": 1.9036155116,
				"z": 1.0777714895,
				"element": "H" 
			},
			{
				"x": -1.3391791022,
				"y": 2.00159022,
				"z": 2.265411995,
				"element": "H" 
			},
			{
				"x": 2.4401959876,
				"y": 2.177487139,
				"z": -0.5570543281,
				"element": "H" 
			},
			{
				"x": 2.603640299,
				"y": 0.7888324366,
				"z": 0.5245657305,
				"element": "H" 
			},
			{
				"x": 3.9524383669,
				"y": 1.2192778711,
				"z": -2.1769341437,
				"element": "H" 
			},
			{
				"x": 4.6686758697,
				"y": 0.8528067195,
				"z": -0.6189018738,
				"element": "H" 
			},
			{
				"x": 4.6868655705,
				"y": -1.2031235079,
				"z": -2.0326911195,
				"element": "H" 
			},
			{
				"x": 3.5942376228,
				"y": -1.4258037728,
				"z": -0.6755755537,
				"element": "H" 
			},
			{
				"x": 2.9222981201,
				"y": -1.1867357771,
				"z": -3.6109970049,
				"element": "H" 
			},
			{
				"x": 2.114995676,
				"y": -2.1096663961,
				"z": -2.3475502828,
				"element": "H" 
			},
			{
				"x": 1.7971663282,
				"y": 0.8258175305,
				"z": -3.1068522441,
				"element": "H" 
			},
			{
				"x": 0.5465558746,
				"y": -0.3695297137,
				"z": -2.8698931888,
				"element": "H" 
			}
		],
		 "valence_orbital": [ 
			{
				"type": "occ",
				"energy": -0.32368,
				"method": "rhf"
			},
			{
				"type": "occ",
				"energy": -0.27927,
				"method": "rhf"
			},
			{
				"type": "occ",
				"energy": -0.24876,
				"method": "rhf"
			},
			{
				"type": "occ",
				"energy": -0.22839,
				"method": "rhf"
			},
			{
				"type": "occ",
				"energy": -0.19334,
				"method": "rhf"
			},
			{
				"type": "unocc",
				"energy": -0.03145,
				"method": "rhf"
			},
			{
				"type": "unocc",
				"energy": 0.00273,
				"method": "rhf"
			},
			{
				"type": "unocc",
				"energy": 0.05959,
				"method": "rhf"
			},
			{
				"type": "unocc",
				"energy": 0.07147,
				"method": "rhf"
			},
			{
				"type": "unocc",
				"energy": 0.09415,
				"method": "rhf"
			}
		],
		"cosmo_sigma_profile": { 
			"-0.025": 0.0,
			"-0.024": 0.0,
			"-0.023": 0.0,
			"-0.022": 0.0,
			"-0.021": 0.0,
			"-0.02": 0.0,
			"-0.019": 0.0,
			"-0.018": 0.0,
			"-0.017": 0.0,
			"-0.016": 0.0,
			"-0.015": 0.0,
			"-0.014": 0.0,
			"-0.013": 0.0,
			"-0.012": 0.0,
			"-0.011": 0.0,
			"-0.01": 0.0,
			"-0.009": 0.0,
			"-0.008": 0.332075300909,
			"-0.007": 1.58730558405,
			"-0.006": 5.03027252183,
			"-0.005": 14.139756782,
			"-0.004": 23.288375784,
			"-0.003": 36.6741652947,
			"-0.002": 38.2524203188,
			"-0.001": 29.8612757985,
			"0.0": 25.417137546,
			"0.001": 14.587822619,
			"0.002": 9.07956180283,
			"0.003": 9.2774252941,
			"0.004": 11.6321248267,
			"0.005": 13.2732600767,
			"0.006": 7.30294712299,
			"0.007": 1.99028606185,
			"0.008": 2.16721797591,
			"0.009": 1.05301020784,
			"0.01": 1.96758506006,
			"0.011": 1.8177388496,
			"0.012": 2.70821044562,
			"0.013": 4.76822042818,
			"0.014": 1.89585462245,
			"0.015": 0.306314301379,
			"0.016": 0.0,
			"0.017": 0.0,
			"0.018": 0.0,
			"0.019": 0.0,
			"0.02": 0.0,
			"0.021": 0.0,
			"0.022": 0.0,
			"0.023": 0.0,
			"0.024": 0.0,
			"0.025": 0.0
		}
	}
}
