{
	 "smiles": "CC1CN(CC(C)O1)C1=C(F)C=C(NC(=O)OCC(F)(F)F)C=C1", 
	 "Tm": 404.15, 
	 "num_atms": 42, 
	 "gaussian": { 
		 "optdone": 1, 
		 "sigma_profile": "yes", 
		 "theory": "DFT", 
		 "functional": "B3LYP", 
		 "basiset": "6-31G**", 
		 "properties": { 
			 "R2extent": 12490.7995, 
			 "electric_dipole_moment_norm": 2.08957259266, 
			 "electric_quadrupole_moment_norm": 14.8594547918, 
			 "total_energy": -1316.98167676, 
			 "HOMO_LUMO_gap": 0.183, 
			 "cosmo_polarized_energy": -14.21, 
			 "cosmo_cavitation_energy": 45.86, 
			 "cosmo_dispersion_energy": -31.54, 
			 "cosmo_repulsion_energy": 2.32, 
			 "cosmo_total_nonelectrostatic_energy": 16.64, 
			 "SMD_solvation_energy": 9.54 
		},
		"coords": [
			{
				"x": 3.7083596493,
				"y": 4.1589364668,
				"z": 2.2322635002,
				"element": "C" 
			},
			{
				"x": 2.9434629924,
				"y": 3.1232014459,
				"z": 3.0627947558,
				"element": "C" 
			},
			{
				"x": 1.8372712298,
				"y": 2.4103289643,
				"z": 2.2776629825,
				"element": "C" 
			},
			{
				"x": 2.4023386765,
				"y": 1.5324033634,
				"z": 1.2622902694,
				"element": "N" 
			},
			{
				"x": 3.7175161093,
				"y": 0.9490429739,
				"z": 1.5555956533,
				"element": "C" 
			},
			{
				"x": 3.9971140578,
				"y": 0.9124032992,
				"z": 3.063592569,
				"element": "C" 
			},
			{
				"x": 3.1782018386,
				"y": -0.1452577956,
				"z": 3.8121142606,
				"element": "C" 
			},
			{
				"x": 3.8477024938,
				"y": 2.1981567901,
				"z": 3.6777935859,
				"element": "O" 
			},
			{
				"x": 1.5683055044,
				"y": 1.0033557336,
				"z": 0.281881437,
				"element": "C" 
			},
			{
				"x": 2.068411383,
				"y": 0.4418471034,
				"z": -0.9107680779,
				"element": "C" 
			},
			{
				"x": 3.4098860891,
				"y": 0.4181267034,
				"z": -1.1242084759,
				"element": "F" 
			},
			{
				"x": 1.2580774112,
				"y": -0.0865886037,
				"z": -1.8982803167,
				"element": "C" 
			},
			{
				"x": -0.1368129555,
				"y": -0.0379603419,
				"z": -1.7682988939,
				"element": "C" 
			},
			{
				"x": -0.9084942916,
				"y": -0.5363919466,
				"z": -2.8498021513,
				"element": "N" 
			},
			{
				"x": -2.1627664863,
				"y": -1.0754875273,
				"z": -2.8978738612,
				"element": "C" 
			},
			{
				"x": -2.7031192779,
				"y": -1.4387572955,
				"z": -3.9244085597,
				"element": "O" 
			},
			{
				"x": -2.7204477406,
				"y": -1.1781591533,
				"z": -1.6524362311,
				"element": "O" 
			},
			{
				"x": -4.0905753092,
				"y": -1.5513368137,
				"z": -1.6117003489,
				"element": "C" 
			},
			{
				"x": -4.9295293459,
				"y": -0.3194432466,
				"z": -1.3185246821,
				"element": "C" 
			},
			{
				"x": -4.5571550483,
				"y": 0.2692760804,
				"z": -0.1612320497,
				"element": "F" 
			},
			{
				"x": -6.227538875,
				"y": -0.6671882496,
				"z": -1.208238866,
				"element": "F" 
			},
			{
				"x": -4.8174618463,
				"y": 0.6000071245,
				"z": -2.2939147745,
				"element": "F" 
			},
			{
				"x": -0.6772540698,
				"y": 0.5511046252,
				"z": -0.6212191133,
				"element": "C" 
			},
			{
				"x": 0.1625459644,
				"y": 1.0388340298,
				"z": 0.3789024753,
				"element": "C" 
			},
			{
				"x": 4.1391543601,
				"y": 3.7212165692,
				"z": 1.3279366513,
				"element": "H" 
			},
			{
				"x": 4.5193595159,
				"y": 4.5799496288,
				"z": 2.8324715629,
				"element": "H" 
			},
			{
				"x": 3.0427631312,
				"y": 4.9751405863,
				"z": 1.9299308718,
				"element": "H" 
			},
			{
				"x": 2.4556721342,
				"y": 3.6466033498,
				"z": 3.8954147162,
				"element": "H" 
			},
			{
				"x": 1.1944936519,
				"y": 1.8675180105,
				"z": 2.9906532263,
				"element": "H" 
			},
			{
				"x": 1.2070112979,
				"y": 3.1645433979,
				"z": 1.7910688584,
				"element": "H" 
			},
			{
				"x": 3.7595752489,
				"y": -0.072477857,
				"z": 1.1720414976,
				"element": "H" 
			},
			{
				"x": 4.5169004004,
				"y": 1.511065869,
				"z": 1.0555963395,
				"element": "H" 
			},
			{
				"x": 5.0596304302,
				"y": 0.6612443325,
				"z": 3.1806679533,
				"element": "H" 
			},
			{
				"x": 3.3751393365,
				"y": -0.0680577121,
				"z": 4.8847924987,
				"element": "H" 
			},
			{
				"x": 3.4588409334,
				"y": -1.1513085762,
				"z": 3.4809012822,
				"element": "H" 
			},
			{
				"x": 2.1029755372,
				"y": -0.0258503366,
				"z": 3.652286401,
				"element": "H" 
			},
			{
				"x": 1.73225603,
				"y": -0.5158961595,
				"z": -2.7754200957,
				"element": "H" 
			},
			{
				"x": -0.4650134061,
				"y": -0.5473271386,
				"z": -3.7572994125,
				"element": "H" 
			},
			{
				"x": -4.4033500753,
				"y": -1.9855747161,
				"z": -2.5628502298,
				"element": "H" 
			},
			{
				"x": -4.2198059027,
				"y": -2.2680100379,
				"z": -0.7983062919,
				"element": "H" 
			},
			{
				"x": -1.7486819397,
				"y": 0.6133422603,
				"z": -0.4896459933,
				"element": "H" 
			},
			{
				"x": -0.2951588372,
				"y": 1.4621247998,
				"z": 1.2648750775,
				"element": "H" 
			}
		],
		 "valence_orbital": [ 
			{
				"type": "occ",
				"energy": -0.29073,
				"method": "rhf"
			},
			{
				"type": "occ",
				"energy": -0.26344,
				"method": "rhf"
			},
			{
				"type": "occ",
				"energy": -0.25288,
				"method": "rhf"
			},
			{
				"type": "occ",
				"energy": -0.25048,
				"method": "rhf"
			},
			{
				"type": "occ",
				"energy": -0.19126,
				"method": "rhf"
			},
			{
				"type": "unocc",
				"energy": -0.00826,
				"method": "rhf"
			},
			{
				"type": "unocc",
				"energy": -0.00274,
				"method": "rhf"
			},
			{
				"type": "unocc",
				"energy": 0.05252,
				"method": "rhf"
			},
			{
				"type": "unocc",
				"energy": 0.06711,
				"method": "rhf"
			},
			{
				"type": "unocc",
				"energy": 0.07376,
				"method": "rhf"
			}
		],
		"cosmo_sigma_profile": { 
			"-0.025": 0.0,
			"-0.024": 0.0,
			"-0.023": 0.0,
			"-0.022": 0.0,
			"-0.021": 0.0,
			"-0.02": 0.0,
			"-0.019": 0.0,
			"-0.018": 0.0,
			"-0.017": 0.0,
			"-0.016": 0.124283624458,
			"-0.015": 0.811249905047,
			"-0.014": 1.29697290662,
			"-0.013": 1.09756850028,
			"-0.012": 1.62211657869,
			"-0.011": 0.551525921882,
			"-0.01": 1.72852432751,
			"-0.009": 4.41238292192,
			"-0.008": 5.15254726817,
			"-0.007": 5.99149571754,
			"-0.006": 6.88940631272,
			"-0.005": 16.101889141,
			"-0.004": 31.9288438203,
			"-0.003": 32.8370894389,
			"-0.002": 25.0949652267,
			"-0.001": 28.4253913503,
			"0.0": 30.8775920963,
			"0.001": 30.1449254876,
			"0.002": 40.9437496042,
			"0.003": 34.4034658658,
			"0.004": 19.8599056685,
			"0.005": 13.6145699816,
			"0.006": 4.86708802633,
			"0.007": 2.83650406302,
			"0.008": 3.03765865841,
			"0.009": 2.22226465323,
			"0.01": 2.70103485221,
			"0.011": 3.17705400187,
			"0.012": 5.93477466691,
			"0.013": 2.58756895851,
			"0.014": 0.751308093461,
			"0.015": 0.0,
			"0.016": 0.0,
			"0.017": 0.0,
			"0.018": 0.0,
			"0.019": 0.0,
			"0.02": 0.0,
			"0.021": 0.0,
			"0.022": 0.0,
			"0.023": 0.0,
			"0.024": 0.0,
			"0.025": 0.0
		}
	}
}
