{
	 "smiles": "NC1=NON=C1C1=CC=C(Br)C=C1", 
	 "Tm": 415.15, 
	 "num_atms": 19, 
	 "gaussian": { 
		 "optdone": 1, 
		 "sigma_profile": "yes", 
		 "theory": "DFT", 
		 "functional": "B3LYP", 
		 "basiset": "6-31G**", 
		 "properties": { 
			 "R2extent": 5761.8747, 
			 "electric_dipole_moment_norm": 3.65376029455, 
			 "electric_quadrupole_moment_norm": 12.2163132859, 
			 "total_energy": -3119.26877816, 
			 "HOMO_LUMO_gap": 0.18319, 
			 "cosmo_polarized_energy": -13.02, 
			 "cosmo_cavitation_energy": 26.51, 
			 "cosmo_dispersion_energy": -20.16, 
			 "cosmo_repulsion_energy": 1.59, 
			 "cosmo_total_nonelectrostatic_energy": 7.93, 
			 "SMD_solvation_energy": 3.01 
		},
		"coords": [
			{
				"x": 2.4388045301,
				"y": 0.7946970297,
				"z": -0.3128717075,
				"element": "N" 
			},
			{
				"x": 1.9674990969,
				"y": -0.1608831196,
				"z": 0.5700982367,
				"element": "C" 
			},
			{
				"x": 2.7408094023,
				"y": -1.0607924092,
				"z": 1.125309559,
				"element": "N" 
			},
			{
				"x": 1.891884503,
				"y": -1.8507745342,
				"z": 1.8821716682,
				"element": "O" 
			},
			{
				"x": 0.6031987622,
				"y": -1.4168651988,
				"z": 1.7999848708,
				"element": "N" 
			},
			{
				"x": 0.6060372835,
				"y": -0.3806576966,
				"z": 0.9946584377,
				"element": "C" 
			},
			{
				"x": -0.6159579482,
				"y": 0.3671674603,
				"z": 0.6676872553,
				"element": "C" 
			},
			{
				"x": -0.7350708621,
				"y": 1.0684693929,
				"z": -0.5430131241,
				"element": "C" 
			},
			{
				"x": -1.902207947,
				"y": 1.7673753514,
				"z": -0.8492441928,
				"element": "C" 
			},
			{
				"x": -2.9580003159,
				"y": 1.7632853999,
				"z": 0.0597621735,
				"element": "C" 
			},
			{
				"x": -4.5544158231,
				"y": 2.7254753248,
				"z": -0.3495803621,
				"element": "Br" 
			},
			{
				"x": -2.8661601423,
				"y": 1.0658568551,
				"z": 1.2655394411,
				"element": "C" 
			},
			{
				"x": -1.6976447515,
				"y": 0.3729399373,
				"z": 1.5647657546,
				"element": "C" 
			},
			{
				"x": 2.0167468015,
				"y": 1.7076604034,
				"z": -0.1977444314,
				"element": "H" 
			},
			{
				"x": 3.4503892256,
				"y": 0.844728838,
				"z": -0.3326106077,
				"element": "H" 
			},
			{
				"x": 0.0741821156,
				"y": 1.0449481432,
				"z": -1.2657744239,
				"element": "H" 
			},
			{
				"x": -1.9920133303,
				"y": 2.3020267521,
				"z": -1.7878417345,
				"element": "H" 
			},
			{
				"x": -3.6966620901,
				"y": 1.0700522646,
				"z": 1.9620727987,
				"element": "H" 
			},
			{
				"x": -1.6134185101,
				"y": -0.1696101942,
				"z": 2.5003303884,
				"element": "H" 
			}
		],
		 "valence_orbital": [ 
			{
				"type": "occ",
				"energy": -0.30371,
				"method": "rhf"
			},
			{
				"type": "occ",
				"energy": -0.2967,
				"method": "rhf"
			},
			{
				"type": "occ",
				"energy": -0.27845,
				"method": "rhf"
			},
			{
				"type": "occ",
				"energy": -0.26294,
				"method": "rhf"
			},
			{
				"type": "occ",
				"energy": -0.24273,
				"method": "rhf"
			},
			{
				"type": "unocc",
				"energy": -0.05954,
				"method": "rhf"
			},
			{
				"type": "unocc",
				"energy": -0.02981,
				"method": "rhf"
			},
			{
				"type": "unocc",
				"energy": -0.01465,
				"method": "rhf"
			},
			{
				"type": "unocc",
				"energy": -0.0022,
				"method": "rhf"
			},
			{
				"type": "unocc",
				"energy": 0.0539,
				"method": "rhf"
			}
		],
		"cosmo_sigma_profile": { 
			"-0.025": 0.0,
			"-0.024": 0.0,
			"-0.023": 0.0,
			"-0.022": 0.0,
			"-0.021": 0.0,
			"-0.02": 0.0,
			"-0.019": 0.0,
			"-0.018": 0.0,
			"-0.017": 0.0,
			"-0.016": 0.0,
			"-0.015": 0.164424287208,
			"-0.014": 1.64782770194,
			"-0.013": 2.90183876557,
			"-0.012": 2.76517012216,
			"-0.011": 3.43118542238,
			"-0.01": 2.49367898262,
			"-0.009": 1.67859043543,
			"-0.008": 3.27235693813,
			"-0.007": 8.33177335027,
			"-0.006": 9.25686746371,
			"-0.005": 8.56448447674,
			"-0.004": 8.97385224468,
			"-0.003": 11.4222300944,
			"-0.002": 12.8426610891,
			"-0.001": 11.9670369781,
			"0.0": 14.0172409718,
			"0.001": 19.4583746769,
			"0.002": 24.69497858,
			"0.003": 15.5408626957,
			"0.004": 14.1773561077,
			"0.005": 7.71769129909,
			"0.006": 9.65503322264,
			"0.007": 8.09224897138,
			"0.008": 3.11712185192,
			"0.009": 2.80748087455,
			"0.01": 3.1073347464,
			"0.011": 2.58589188759,
			"0.012": 1.51481108754,
			"0.013": 0.573561860206,
			"0.014": 0.0,
			"0.015": 0.0,
			"0.016": 0.0,
			"0.017": 0.0,
			"0.018": 0.0,
			"0.019": 0.0,
			"0.02": 0.0,
			"0.021": 0.0,
			"0.022": 0.0,
			"0.023": 0.0,
			"0.024": 0.0,
			"0.025": 0.0
		}
	}
}
