{
	 "smiles": "CCOC(=O)CNC1=CC=C(F)C=C1", 
	 "Tm": 348.15, 
	 "num_atms": 26, 
	 "gaussian": { 
		 "optdone": 1, 
		 "sigma_profile": "yes", 
		 "theory": "DFT", 
		 "functional": "B3LYP", 
		 "basiset": "6-31G**", 
		 "properties": { 
			 "R2extent": 3476.7183, 
			 "electric_dipole_moment_norm": 3.11790218095, 
			 "electric_quadrupole_moment_norm": 8.68851852734, 
			 "total_energy": -693.338820199, 
			 "HOMO_LUMO_gap": 0.1885, 
			 "cosmo_polarized_energy": -11.05, 
			 "cosmo_cavitation_energy": 30.64, 
			 "cosmo_dispersion_energy": -20.88, 
			 "cosmo_repulsion_energy": 1.65, 
			 "cosmo_total_nonelectrostatic_energy": 11.42, 
			 "SMD_solvation_energy": 5.77 
		},
		"coords": [
			{
				"x": -0.6265888423,
				"y": 2.6515867948,
				"z": 1.0762524442,
				"element": "C" 
			},
			{
				"x": -0.3949906846,
				"y": 1.6783171665,
				"z": 2.2214525543,
				"element": "C" 
			},
			{
				"x": -0.0248561246,
				"y": 0.366044862,
				"z": 1.7254748546,
				"element": "O" 
			},
			{
				"x": -1.0352992992,
				"y": -0.4640129147,
				"z": 1.3994574081,
				"element": "C" 
			},
			{
				"x": -2.2126519309,
				"y": -0.2070493187,
				"z": 1.5281759921,
				"element": "O" 
			},
			{
				"x": -0.5037559342,
				"y": -1.8119752501,
				"z": 0.8944460879,
				"element": "C" 
			},
			{
				"x": 0.7049677617,
				"y": -1.7802724549,
				"z": 0.1034980345,
				"element": "N" 
			},
			{
				"x": 0.7339810445,
				"y": -1.1268479878,
				"z": -1.1381359537,
				"element": "C" 
			},
			{
				"x": -0.4322588318,
				"y": -0.7533593386,
				"z": -1.828264031,
				"element": "C" 
			},
			{
				"x": -0.3528389331,
				"y": -0.1604420959,
				"z": -3.0907090292,
				"element": "C" 
			},
			{
				"x": 0.8899536608,
				"y": 0.0704479312,
				"z": -3.6607140602,
				"element": "C" 
			},
			{
				"x": 0.9672216567,
				"y": 0.6513981957,
				"z": -4.8811538629,
				"element": "F" 
			},
			{
				"x": 2.0624417196,
				"y": -0.2787411897,
				"z": -2.9979543531,
				"element": "C" 
			},
			{
				"x": 1.9796150709,
				"y": -0.8766346572,
				"z": -1.7451519007,
				"element": "C" 
			},
			{
				"x": -1.4860622498,
				"y": 2.3422209495,
				"z": 0.4767921946,
				"element": "H" 
			},
			{
				"x": -0.8279327774,
				"y": 3.6513810167,
				"z": 1.4751457022,
				"element": "H" 
			},
			{
				"x": 0.2527051376,
				"y": 2.7082336742,
				"z": 0.4285039658,
				"element": "H" 
			},
			{
				"x": -1.2869728252,
				"y": 1.578140862,
				"z": 2.8443624484,
				"element": "H" 
			},
			{
				"x": 0.4512735912,
				"y": 1.981314776,
				"z": 2.8424946312,
				"element": "H" 
			},
			{
				"x": -0.3172261507,
				"y": -2.4354295651,
				"z": 1.7767293574,
				"element": "H" 
			},
			{
				"x": -1.3171948089,
				"y": -2.290669113,
				"z": 0.3435785391,
				"element": "H" 
			},
			{
				"x": 1.5344071003,
				"y": -1.6083407504,
				"z": 0.6553972615,
				"element": "H" 
			},
			{
				"x": -1.4108802075,
				"y": -0.912298694,
				"z": -1.389596289,
				"element": "H" 
			},
			{
				"x": -1.2504854747,
				"y": 0.1292782643,
				"z": -3.6265495291,
				"element": "H" 
			},
			{
				"x": 3.0218707399,
				"y": -0.0844960792,
				"z": -3.4655335866,
				"element": "H" 
			},
			{
				"x": 2.8912575917,
				"y": -1.1641950837,
				"z": -1.2273988804,
				"element": "H" 
			}
		],
		 "valence_orbital": [ 
			{
				"type": "occ",
				"energy": -0.30904,
				"method": "rhf"
			},
			{
				"type": "occ",
				"energy": -0.30207,
				"method": "rhf"
			},
			{
				"type": "occ",
				"energy": -0.27135,
				"method": "rhf"
			},
			{
				"type": "occ",
				"energy": -0.25552,
				"method": "rhf"
			},
			{
				"type": "occ",
				"energy": -0.19911,
				"method": "rhf"
			},
			{
				"type": "unocc",
				"energy": -0.01061,
				"method": "rhf"
			},
			{
				"type": "unocc",
				"energy": 0.00776,
				"method": "rhf"
			},
			{
				"type": "unocc",
				"energy": 0.01983,
				"method": "rhf"
			},
			{
				"type": "unocc",
				"energy": 0.07953,
				"method": "rhf"
			},
			{
				"type": "unocc",
				"energy": 0.09686,
				"method": "rhf"
			}
		],
		"cosmo_sigma_profile": { 
			"-0.025": 0.0,
			"-0.024": 0.0,
			"-0.023": 0.0,
			"-0.022": 0.0,
			"-0.021": 0.0,
			"-0.02": 0.0,
			"-0.019": 0.0,
			"-0.018": 0.0,
			"-0.017": 0.0,
			"-0.016": 0.0,
			"-0.015": 0.0,
			"-0.014": 0.0,
			"-0.013": 0.325572817856,
			"-0.012": 1.30707063604,
			"-0.011": 1.02700410508,
			"-0.01": 1.83792965414,
			"-0.009": 1.94663536002,
			"-0.008": 3.89637374497,
			"-0.007": 7.17539808055,
			"-0.006": 12.2119265502,
			"-0.005": 14.1832420481,
			"-0.004": 21.8242180702,
			"-0.003": 19.3339453294,
			"-0.002": 17.8104558222,
			"-0.001": 15.7162424886,
			"0.0": 14.8319593783,
			"0.001": 15.1020930437,
			"0.002": 14.8925556281,
			"0.003": 14.7098178047,
			"0.004": 17.4778915166,
			"0.005": 24.6501811688,
			"0.006": 4.3634334531,
			"0.007": 3.00101061981,
			"0.008": 1.93134378547,
			"0.009": 2.46594996064,
			"0.01": 2.24445137386,
			"0.011": 3.04200558154,
			"0.012": 4.63365460885,
			"0.013": 0.718024511181,
			"0.014": 0.0,
			"0.015": 0.0,
			"0.016": 0.0,
			"0.017": 0.0,
			"0.018": 0.0,
			"0.019": 0.0,
			"0.02": 0.0,
			"0.021": 0.0,
			"0.022": 0.0,
			"0.023": 0.0,
			"0.024": 0.0,
			"0.025": 0.0
		}
	}
}
