{
	 "smiles": "OC(=O)C1=CC(Br)=C(Cl)N=C1", 
	 "Tm": 444.65, 
	 "num_atms": 14, 
	 "gaussian": { 
		 "optdone": 1, 
		 "sigma_profile": "yes", 
		 "theory": "DFT", 
		 "functional": "B3LYP", 
		 "basiset": "6-31G**", 
		 "properties": { 
			 "R2extent": 3728.686, 
			 "electric_dipole_moment_norm": 1.81023560345, 
			 "electric_quadrupole_moment_norm": 15.2314028241, 
			 "total_energy": -3467.23455861, 
			 "HOMO_LUMO_gap": 0.19338, 
			 "cosmo_polarized_energy": -14.47, 
			 "cosmo_cavitation_energy": 23.57, 
			 "cosmo_dispersion_energy": -18.07, 
			 "cosmo_repulsion_energy": 1.45, 
			 "cosmo_total_nonelectrostatic_energy": 6.94, 
			 "SMD_solvation_energy": 2.59 
		},
		"coords": [
			{
				"x": 2.5977548753,
				"y": -0.8078033793,
				"z": -1.6174941585,
				"element": "O" 
			},
			{
				"x": 2.1232850078,
				"y": -0.0087042693,
				"z": -0.6303385581,
				"element": "C" 
			},
			{
				"x": 2.7377236919,
				"y": 0.9725647634,
				"z": -0.2884637748,
				"element": "O" 
			},
			{
				"x": 0.823094242,
				"y": -0.4074457807,
				"z": 0.0037135564,
				"element": "C" 
			},
			{
				"x": 0.135188686,
				"y": 0.5543661281,
				"z": 0.7533119844,
				"element": "C" 
			},
			{
				"x": -1.0655045109,
				"y": 0.2179886494,
				"z": 1.3633658964,
				"element": "C" 
			},
			{
				"x": -2.0000772503,
				"y": 1.5256798949,
				"z": 2.3641781207,
				"element": "Br" 
			},
			{
				"x": -1.5360310885,
				"y": -1.1018600462,
				"z": 1.208746514,
				"element": "C" 
			},
			{
				"x": -3.0412859824,
				"y": -1.6059228162,
				"z": 1.929599893,
				"element": "Cl" 
			},
			{
				"x": -0.8780777422,
				"y": -2.0234713102,
				"z": 0.5261749314,
				"element": "N" 
			},
			{
				"x": 0.2738094048,
				"y": -1.6904091777,
				"z": -0.0612363076,
				"element": "C" 
			},
			{
				"x": 1.9338070974,
				"y": -1.4544944677,
				"z": -1.8939368987,
				"element": "H" 
			},
			{
				"x": 0.5522402052,
				"y": 1.5503197082,
				"z": 0.8474588934,
				"element": "H" 
			},
			{
				"x": 0.779673364,
				"y": -2.5058078968,
				"z": -0.5764800919,
				"element": "H" 
			}
		],
		 "valence_orbital": [ 
			{
				"type": "occ",
				"energy": -0.31772,
				"method": "rhf"
			},
			{
				"type": "occ",
				"energy": -0.3091,
				"method": "rhf"
			},
			{
				"type": "occ",
				"energy": -0.30243,
				"method": "rhf"
			},
			{
				"type": "occ",
				"energy": -0.28802,
				"method": "rhf"
			},
			{
				"type": "occ",
				"energy": -0.27626,
				"method": "rhf"
			},
			{
				"type": "unocc",
				"energy": -0.08288,
				"method": "rhf"
			},
			{
				"type": "unocc",
				"energy": -0.06657,
				"method": "rhf"
			},
			{
				"type": "unocc",
				"energy": -0.02584,
				"method": "rhf"
			},
			{
				"type": "unocc",
				"energy": 0.01651,
				"method": "rhf"
			},
			{
				"type": "unocc",
				"energy": 0.02912,
				"method": "rhf"
			}
		],
		"cosmo_sigma_profile": { 
			"-0.025": 0.0,
			"-0.024": 0.0,
			"-0.023": 0.0,
			"-0.022": 0.0,
			"-0.021": 0.0,
			"-0.02": 0.473841336483,
			"-0.019": 1.24778117459,
			"-0.018": 1.32444782324,
			"-0.017": 0.974746261214,
			"-0.016": 1.2033894596,
			"-0.015": 0.929337714521,
			"-0.014": 1.14754688984,
			"-0.013": 0.996964995706,
			"-0.012": 1.85281993109,
			"-0.011": 0.996366034083,
			"-0.01": 1.7229003959,
			"-0.009": 2.14110261999,
			"-0.008": 2.89535126512,
			"-0.007": 3.85711414117,
			"-0.006": 4.55184990183,
			"-0.005": 7.63846930745,
			"-0.004": 11.1479816244,
			"-0.003": 16.3945831043,
			"-0.002": 17.0500509843,
			"-0.001": 11.6112665924,
			"0.0": 11.6149802572,
			"0.001": 12.6149265191,
			"0.002": 13.8323757476,
			"0.003": 20.8253510849,
			"0.004": 10.8296482387,
			"0.005": 4.0345624987,
			"0.006": 3.73575722445,
			"0.007": 4.2337620442,
			"0.008": 3.76340278578,
			"0.009": 5.6213857909,
			"0.01": 6.01974604979,
			"0.011": 5.25373961297,
			"0.012": 3.06021775326,
			"0.013": 0.304863952311,
			"0.014": 0.0,
			"0.015": 0.0,
			"0.016": 0.0,
			"0.017": 0.0,
			"0.018": 0.0,
			"0.019": 0.0,
			"0.02": 0.0,
			"0.021": 0.0,
			"0.022": 0.0,
			"0.023": 0.0,
			"0.024": 0.0,
			"0.025": 0.0
		}
	}
}
