{
	 "smiles": "CC1(O)CCCC1", 
	 "Tm": 309.65, 
	 "num_atms": 19, 
	 "gaussian": { 
		 "optdone": 1, 
		 "sigma_profile": "yes", 
		 "theory": "DFT", 
		 "functional": "B3LYP", 
		 "basiset": "6-31G**", 
		 "properties": { 
			 "R2extent": 906.4114, 
			 "electric_dipole_moment_norm": 1.37420533036, 
			 "electric_quadrupole_moment_norm": 3.46130982433, 
			 "total_energy": -311.100692355, 
			 "HOMO_LUMO_gap": 0.32748, 
			 "cosmo_polarized_energy": -5.39, 
			 "cosmo_cavitation_energy": 19.81, 
			 "cosmo_dispersion_energy": -14.9, 
			 "cosmo_repulsion_energy": 1.26, 
			 "cosmo_total_nonelectrostatic_energy": 6.17, 
			 "SMD_solvation_energy": 3.02 
		},
		"coords": [
			{
				"x": 1.712346529,
				"y": -0.2229665888,
				"z": -1.8002556848,
				"element": "C" 
			},
			{
				"x": 0.8390103489,
				"y": 0.4330883925,
				"z": -0.7303645084,
				"element": "C" 
			},
			{
				"x": 1.6345202369,
				"y": 0.7255641483,
				"z": 0.433990449,
				"element": "O" 
			},
			{
				"x": -0.3141734205,
				"y": -0.4630037886,
				"z": -0.2175875014,
				"element": "C" 
			},
			{
				"x": -1.4961082061,
				"y": 0.4876449428,
				"z": 0.1294900248,
				"element": "C" 
			},
			{
				"x": -0.9682234664,
				"y": 1.9186723811,
				"z": -0.1284126934,
				"element": "C" 
			},
			{
				"x": 0.1155257966,
				"y": 1.7147446983,
				"z": -1.1962476024,
				"element": "C" 
			},
			{
				"x": 2.1780198477,
				"y": -1.1317972034,
				"z": -1.4067344405,
				"element": "H" 
			},
			{
				"x": 1.1282500766,
				"y": -0.4872634513,
				"z": -2.6879910381,
				"element": "H" 
			},
			{
				"x": 2.5139229061,
				"y": 0.4549359626,
				"z": -2.1197856567,
				"element": "H" 
			},
			{
				"x": 2.3157743608,
				"y": 1.3584976928,
				"z": 0.1683452228,
				"element": "H" 
			},
			{
				"x": -0.6035486087,
				"y": -1.1840041248,
				"z": -0.9888742152,
				"element": "H" 
			},
			{
				"x": 0.0407186681,
				"y": -1.0321196876,
				"z": 0.6456052103,
				"element": "H" 
			},
			{
				"x": -2.3507417878,
				"y": 0.2790235943,
				"z": -0.5240144312,
				"element": "H" 
			},
			{
				"x": -1.8468099846,
				"y": 0.35904215,
				"z": 1.1575124037,
				"element": "H" 
			},
			{
				"x": -0.5033656406,
				"y": 2.3147743763,
				"z": 0.7796359398,
				"element": "H" 
			},
			{
				"x": -1.7543918865,
				"y": 2.6153680015,
				"z": -0.4354223453,
				"element": "H" 
			},
			{
				"x": -0.3418206295,
				"y": 1.5427031693,
				"z": -2.1798325467,
				"element": "H" 
			},
			{
				"x": 0.8033948601,
				"y": 2.5630953345,
				"z": -1.3004565865,
				"element": "H" 
			}
		],
		 "valence_orbital": [ 
			{
				"type": "occ",
				"energy": -0.33039,
				"method": "rhf"
			},
			{
				"type": "occ",
				"energy": -0.32781,
				"method": "rhf"
			},
			{
				"type": "occ",
				"energy": -0.31271,
				"method": "rhf"
			},
			{
				"type": "occ",
				"energy": -0.29803,
				"method": "rhf"
			},
			{
				"type": "occ",
				"energy": -0.25871,
				"method": "rhf"
			},
			{
				"type": "unocc",
				"energy": 0.06877,
				"method": "rhf"
			},
			{
				"type": "unocc",
				"energy": 0.1052,
				"method": "rhf"
			},
			{
				"type": "unocc",
				"energy": 0.11332,
				"method": "rhf"
			},
			{
				"type": "unocc",
				"energy": 0.12938,
				"method": "rhf"
			},
			{
				"type": "unocc",
				"energy": 0.15027,
				"method": "rhf"
			}
		],
		"cosmo_sigma_profile": { 
			"-0.025": 0.0,
			"-0.024": 0.0,
			"-0.023": 0.0,
			"-0.022": 0.0,
			"-0.021": 0.0,
			"-0.02": 0.0,
			"-0.019": 0.0,
			"-0.018": 0.0,
			"-0.017": 0.0,
			"-0.016": 0.0,
			"-0.015": 0.026299166606,
			"-0.014": 0.681927268307,
			"-0.013": 0.996510561197,
			"-0.012": 0.776875441246,
			"-0.011": 0.730243016664,
			"-0.01": 1.2608635477,
			"-0.009": 1.00894847767,
			"-0.008": 1.34290945385,
			"-0.007": 0.923077018683,
			"-0.006": 0.893842195208,
			"-0.005": 1.82188032001,
			"-0.004": 2.3761478091,
			"-0.003": 11.0000157923,
			"-0.002": 23.1905140003,
			"-0.001": 22.9160739116,
			"0.0": 25.2791782412,
			"0.001": 26.3049522561,
			"0.002": 12.8386961052,
			"0.003": 1.25538846077,
			"0.004": 1.8002330772,
			"0.005": 1.24744117202,
			"0.006": 1.33187994366,
			"0.007": 1.63273255788,
			"0.008": 1.28057914024,
			"0.009": 1.3025783207,
			"0.01": 1.79814170844,
			"0.011": 0.662863122291,
			"0.012": 1.17272017272,
			"0.013": 1.4765481569,
			"0.014": 1.50007577329,
			"0.015": 1.11979263908,
			"0.016": 0.0,
			"0.017": 0.0,
			"0.018": 0.0,
			"0.019": 0.0,
			"0.02": 0.0,
			"0.021": 0.0,
			"0.022": 0.0,
			"0.023": 0.0,
			"0.024": 0.0,
			"0.025": 0.0
		}
	}
}
