{
	 "smiles": "CCCCCCCCC(C)C", 
	 "Tm": 224.15, 
	 "num_atms": 35, 
	 "gaussian": { 
		 "optdone": 1, 
		 "sigma_profile": "yes", 
		 "theory": "DFT", 
		 "functional": "B3LYP", 
		 "basiset": "6-31G**", 
		 "properties": { 
			 "R2extent": 3457.1223, 
			 "electric_dipole_moment_norm": 0.0998720181032, 
			 "electric_quadrupole_moment_norm": 0.55805470162, 
			 "total_energy": -433.6702189, 
			 "HOMO_LUMO_gap": 0.36675, 
			 "cosmo_polarized_energy": -0.84, 
			 "cosmo_cavitation_energy": 34.14, 
			 "cosmo_dispersion_energy": -23.47, 
			 "cosmo_repulsion_energy": 1.94, 
			 "cosmo_total_nonelectrostatic_energy": 12.61, 
			 "SMD_solvation_energy": 4.98 
		},
		"coords": [
			{
				"x": 4.1915829933,
				"y": 1.1814745979,
				"z": -1.3808023398,
				"element": "C" 
			},
			{
				"x": 2.9470473327,
				"y": 0.8949317827,
				"z": -2.2270464036,
				"element": "C" 
			},
			{
				"x": 1.7124137554,
				"y": 0.5376074135,
				"z": -1.3890587177,
				"element": "C" 
			},
			{
				"x": 0.4659168109,
				"y": 0.2502614852,
				"z": -2.2379334773,
				"element": "C" 
			},
			{
				"x": -0.8127010839,
				"y": -0.0376280569,
				"z": -1.4328658629,
				"element": "C" 
			},
			{
				"x": -0.7678724047,
				"y": -1.3339976128,
				"z": -0.6099387874,
				"element": "C" 
			},
			{
				"x": -2.1125639772,
				"y": -1.7333035216,
				"z": 0.0264949457,
				"element": "C" 
			},
			{
				"x": -2.7713616864,
				"y": -0.7559646613,
				"z": 1.0230676988,
				"element": "C" 
			},
			{
				"x": -2.1335014176,
				"y": -0.5590729515,
				"z": 2.4224060674,
				"element": "C" 
			},
			{
				"x": -0.8863497067,
				"y": 0.340732974,
				"z": 2.4320597096,
				"element": "C" 
			},
			{
				"x": -1.8599368107,
				"y": -1.8889451233,
				"z": 3.1415027383,
				"element": "C" 
			},
			{
				"x": 5.0536614427,
				"y": 1.4339012071,
				"z": -2.007093998,
				"element": "H" 
			},
			{
				"x": 4.0209172059,
				"y": 2.0205892795,
				"z": -0.696527259,
				"element": "H" 
			},
			{
				"x": 4.4661669508,
				"y": 0.3119365971,
				"z": -0.7725222348,
				"element": "H" 
			},
			{
				"x": 3.1600306124,
				"y": 0.0733554694,
				"z": -2.9247240893,
				"element": "H" 
			},
			{
				"x": 2.719085696,
				"y": 1.7697122276,
				"z": -2.8514698364,
				"element": "H" 
			},
			{
				"x": 1.4951663626,
				"y": 1.3626535453,
				"z": -0.6948882802,
				"element": "H" 
			},
			{
				"x": 1.9482863789,
				"y": -0.3321744705,
				"z": -0.7614728538,
				"element": "H" 
			},
			{
				"x": 0.6713293836,
				"y": -0.59862006,
				"z": -2.9062360269,
				"element": "H" 
			},
			{
				"x": 0.2820833846,
				"y": 1.1123965805,
				"z": -2.8937535635,
				"element": "H" 
			},
			{
				"x": -1.660562281,
				"y": -0.0952751408,
				"z": -2.1298736609,
				"element": "H" 
			},
			{
				"x": -1.0195288962,
				"y": 0.8172631885,
				"z": -0.7756175684,
				"element": "H" 
			},
			{
				"x": -0.4554711408,
				"y": -2.1540695357,
				"z": -1.2723764733,
				"element": "H" 
			},
			{
				"x": 0.0086108411,
				"y": -1.2642256476,
				"z": 0.1594855875,
				"element": "H" 
			},
			{
				"x": -1.9958519305,
				"y": -2.7124355219,
				"z": 0.5076880807,
				"element": "H" 
			},
			{
				"x": -2.831951168,
				"y": -1.8935881215,
				"z": -0.7889573336,
				"element": "H" 
			},
			{
				"x": -3.7934600398,
				"y": -1.1233253486,
				"z": 1.1885117836,
				"element": "H" 
			},
			{
				"x": -2.8884661986,
				"y": 0.2285360298,
				"z": 0.5514319724,
				"element": "H" 
			},
			{
				"x": -2.8971054479,
				"y": -0.0292190224,
				"z": 3.011139372,
				"element": "H" 
			},
			{
				"x": -0.0280973667,
				"y": -0.1354363024,
				"z": 1.9483298149,
				"element": "H" 
			},
			{
				"x": -1.0754441646,
				"y": 1.2899205747,
				"z": 1.9185756637,
				"element": "H" 
			},
			{
				"x": -0.5893534883,
				"y": 0.574623771,
				"z": 3.4608661829,
				"element": "H" 
			},
			{
				"x": -1.5553039104,
				"y": -1.7149227804,
				"z": 4.1793555594,
				"element": "H" 
			},
			{
				"x": -1.0554579535,
				"y": -2.4530545632,
				"z": 2.6563220909,
				"element": "H" 
			},
			{
				"x": -2.7506580776,
				"y": -2.5273382815,
				"z": 3.158321499,
				"element": "H" 
			}
		],
		 "valence_orbital": [ 
			{
				"type": "occ",
				"energy": -0.31411,
				"method": "rhf"
			},
			{
				"type": "occ",
				"energy": -0.30959,
				"method": "rhf"
			},
			{
				"type": "occ",
				"energy": -0.29888,
				"method": "rhf"
			},
			{
				"type": "occ",
				"energy": -0.29799,
				"method": "rhf"
			},
			{
				"type": "occ",
				"energy": -0.29415,
				"method": "rhf"
			},
			{
				"type": "unocc",
				"energy": 0.0726,
				"method": "rhf"
			},
			{
				"type": "unocc",
				"energy": 0.09522,
				"method": "rhf"
			},
			{
				"type": "unocc",
				"energy": 0.10532,
				"method": "rhf"
			},
			{
				"type": "unocc",
				"energy": 0.10821,
				"method": "rhf"
			},
			{
				"type": "unocc",
				"energy": 0.11363,
				"method": "rhf"
			}
		],
		"cosmo_sigma_profile": { 
			"-0.025": 0.0,
			"-0.024": 0.0,
			"-0.023": 0.0,
			"-0.022": 0.0,
			"-0.021": 0.0,
			"-0.02": 0.0,
			"-0.019": 0.0,
			"-0.018": 0.0,
			"-0.017": 0.0,
			"-0.016": 0.0,
			"-0.015": 0.0,
			"-0.014": 0.0,
			"-0.013": 0.0,
			"-0.012": 0.0,
			"-0.011": 0.0,
			"-0.01": 0.0,
			"-0.009": 0.0,
			"-0.008": 0.0,
			"-0.007": 0.0,
			"-0.006": 0.0,
			"-0.005": 0.0,
			"-0.004": 0.00988749116386,
			"-0.003": 3.50005817672,
			"-0.002": 29.9715681822,
			"-0.001": 62.3073318695,
			"0.0": 69.0066343182,
			"0.001": 59.2489929729,
			"0.002": 34.5930558032,
			"0.003": 1.80952515911,
			"0.004": 0.0,
			"0.005": 0.0,
			"0.006": 0.0,
			"0.007": 0.0,
			"0.008": 0.0,
			"0.009": 0.0,
			"0.01": 0.0,
			"0.011": 0.0,
			"0.012": 0.0,
			"0.013": 0.0,
			"0.014": 0.0,
			"0.015": 0.0,
			"0.016": 0.0,
			"0.017": 0.0,
			"0.018": 0.0,
			"0.019": 0.0,
			"0.02": 0.0,
			"0.021": 0.0,
			"0.022": 0.0,
			"0.023": 0.0,
			"0.024": 0.0,
			"0.025": 0.0
		}
	}
}
