{
	 "smiles": "NC(=O)C1=CCCC1", 
	 "Tm": 440.15, 
	 "num_atms": 17, 
	 "gaussian": { 
		 "optdone": 1, 
		 "sigma_profile": "yes", 
		 "theory": "DFT", 
		 "functional": "B3LYP", 
		 "basiset": "6-31G**", 
		 "properties": { 
			 "R2extent": 1235.6581, 
			 "electric_dipole_moment_norm": 3.59587794704, 
			 "electric_quadrupole_moment_norm": 12.0112218413, 
			 "total_energy": -364.041201619, 
			 "HOMO_LUMO_gap": 0.21758, 
			 "cosmo_polarized_energy": -11.77, 
			 "cosmo_cavitation_energy": 19.99, 
			 "cosmo_dispersion_energy": -15.05, 
			 "cosmo_repulsion_energy": 1.29, 
			 "cosmo_total_nonelectrostatic_energy": 6.22, 
			 "SMD_solvation_energy": 3.87 
		},
		"coords": [
			{
				"x": 2.3554707009,
				"y": -1.4053884055,
				"z": 0.2576113807,
				"element": "N" 
			},
			{
				"x": 1.3874307334,
				"y": -1.1939923502,
				"z": 1.2136836962,
				"element": "C" 
			},
			{
				"x": 1.4101028188,
				"y": -1.7634596485,
				"z": 2.2995346356,
				"element": "O" 
			},
			{
				"x": 0.3255003205,
				"y": -0.207058936,
				"z": 0.8759945667,
				"element": "C" 
			},
			{
				"x": 0.3701417594,
				"y": 0.7666270331,
				"z": -0.0472325199,
				"element": "C" 
			},
			{
				"x": -0.8632984604,
				"y": 1.6354361193,
				"z": -0.0176193369,
				"element": "C" 
			},
			{
				"x": -1.8409632543,
				"y": 0.8249552912,
				"z": 0.8747515303,
				"element": "C" 
			},
			{
				"x": -0.945696283,
				"y": -0.1353346452,
				"z": 1.6970778718,
				"element": "C" 
			},
			{
				"x": 2.1631747169,
				"y": -1.1957404412,
				"z": -0.7092628273,
				"element": "H" 
			},
			{
				"x": 2.9985920945,
				"y": -2.1605572136,
				"z": 0.4467479624,
				"element": "H" 
			},
			{
				"x": 1.2145050332,
				"y": 0.9726711694,
				"z": -0.6996548127,
				"element": "H" 
			},
			{
				"x": -1.2663407998,
				"y": 1.8405853458,
				"z": -1.0167712012,
				"element": "H" 
			},
			{
				"x": -0.6215191072,
				"y": 2.6150320809,
				"z": 0.4213499637,
				"element": "H" 
			},
			{
				"x": -2.4680435077,
				"y": 1.4639652523,
				"z": 1.5022454974,
				"element": "H" 
			},
			{
				"x": -2.5113116421,
				"y": 0.2403769262,
				"z": 0.2355293293,
				"element": "H" 
			},
			{
				"x": -1.3993982331,
				"y": -1.1186663095,
				"z": 1.8553699027,
				"element": "H" 
			},
			{
				"x": -0.7164468899,
				"y": 0.2586487315,
				"z": 2.6957443611,
				"element": "H" 
			}
		],
		 "valence_orbital": [ 
			{
				"type": "occ",
				"energy": -0.34388,
				"method": "rhf"
			},
			{
				"type": "occ",
				"energy": -0.34044,
				"method": "rhf"
			},
			{
				"type": "occ",
				"energy": -0.26619,
				"method": "rhf"
			},
			{
				"type": "occ",
				"energy": -0.24898,
				"method": "rhf"
			},
			{
				"type": "occ",
				"energy": -0.24349,
				"method": "rhf"
			},
			{
				"type": "unocc",
				"energy": -0.02591,
				"method": "rhf"
			},
			{
				"type": "unocc",
				"energy": 0.07717,
				"method": "rhf"
			},
			{
				"type": "unocc",
				"energy": 0.09057,
				"method": "rhf"
			},
			{
				"type": "unocc",
				"energy": 0.09921,
				"method": "rhf"
			},
			{
				"type": "unocc",
				"energy": 0.12539,
				"method": "rhf"
			}
		],
		"cosmo_sigma_profile": { 
			"-0.025": 0.0,
			"-0.024": 0.0,
			"-0.023": 0.0,
			"-0.022": 0.0,
			"-0.021": 0.0,
			"-0.02": 0.0,
			"-0.019": 0.0,
			"-0.018": 0.0,
			"-0.017": 0.0,
			"-0.016": 0.0,
			"-0.015": 0.0,
			"-0.014": 0.323519043354,
			"-0.013": 2.78283376024,
			"-0.012": 1.11274024836,
			"-0.011": 2.80203170134,
			"-0.01": 2.98811915732,
			"-0.009": 2.58882409379,
			"-0.008": 2.14419797007,
			"-0.007": 2.28159275953,
			"-0.006": 3.44437565436,
			"-0.005": 2.62901424966,
			"-0.004": 6.35388501793,
			"-0.003": 13.5731037154,
			"-0.002": 20.9289530067,
			"-0.001": 21.3584544769,
			"0.0": 16.3130292186,
			"0.001": 12.5987708621,
			"0.002": 7.16525059996,
			"0.003": 5.72585678997,
			"0.004": 2.99420961571,
			"0.005": 1.48681921996,
			"0.006": 3.12235459058,
			"0.007": 2.0473294378,
			"0.008": 2.2118445329,
			"0.009": 1.58724323458,
			"0.01": 2.0844205982,
			"0.011": 1.05499912477,
			"0.012": 2.36742226962,
			"0.013": 2.65157623276,
			"0.014": 6.01831385854,
			"0.015": 1.70596128897,
			"0.016": 0.0,
			"0.017": 0.0,
			"0.018": 0.0,
			"0.019": 0.0,
			"0.02": 0.0,
			"0.021": 0.0,
			"0.022": 0.0,
			"0.023": 0.0,
			"0.024": 0.0,
			"0.025": 0.0
		}
	}
}
