{
	 "smiles": "SC1=NC=C(C=C1)S(=O)(=O)N1CCN(CC2=CC=CC=C2)CC1", 
	 "Tm": 443.15, 
	 "num_atms": 42, 
	 "gaussian": { 
		 "optdone": 1, 
		 "sigma_profile": "yes", 
		 "theory": "DFT", 
		 "functional": "B3LYP", 
		 "basiset": "6-31G**", 
		 "properties": { 
			 "R2extent": 12327.6585, 
			 "electric_dipole_moment_norm": 3.60690225678, 
			 "electric_quadrupole_moment_norm": 13.5844030038, 
			 "total_energy": -1732.1303569, 
			 "HOMO_LUMO_gap": 0.16069, 
			 "cosmo_polarized_energy": -16.87, 
			 "cosmo_cavitation_energy": 47.06, 
			 "cosmo_dispersion_energy": -33.1, 
			 "cosmo_repulsion_energy": 2.44, 
			 "cosmo_total_nonelectrostatic_energy": 16.4, 
			 "SMD_solvation_energy": 1.76 
		},
		"coords": [
			{
				"x": 1.5871439893,
				"y": 7.5940852006,
				"z": 0.8040245022,
				"element": "S" 
			},
			{
				"x": 0.9126777521,
				"y": 5.9610893986,
				"z": 1.0221109178,
				"element": "C" 
			},
			{
				"x": -0.3376207256,
				"y": 5.7441506411,
				"z": 0.5935001848,
				"element": "N" 
			},
			{
				"x": -0.8470428709,
				"y": 4.5198391299,
				"z": 0.7505977502,
				"element": "C" 
			},
			{
				"x": -0.1312004022,
				"y": 3.4707661679,
				"z": 1.3305108369,
				"element": "C" 
			},
			{
				"x": 1.1681411196,
				"y": 3.703454888,
				"z": 1.7860573427,
				"element": "C" 
			},
			{
				"x": 1.7061153735,
				"y": 4.9743493046,
				"z": 1.6291893667,
				"element": "C" 
			},
			{
				"x": -0.8918205554,
				"y": 1.8621259727,
				"z": 1.5387411237,
				"element": "S" 
			},
			{
				"x": 0.0707752484,
				"y": 1.0433714611,
				"z": 2.2897314498,
				"element": "O" 
			},
			{
				"x": -2.2584825006,
				"y": 2.0572503028,
				"z": 2.0341139873,
				"element": "O" 
			},
			{
				"x": -1.0251461767,
				"y": 1.3331802379,
				"z": -0.0579055337,
				"element": "N" 
			},
			{
				"x": 0.2199551067,
				"y": 0.7865925445,
				"z": -0.6427018088,
				"element": "C" 
			},
			{
				"x": -0.0931620472,
				"y": 0.2492076012,
				"z": -2.0422598518,
				"element": "C" 
			},
			{
				"x": -1.1074263689,
				"y": -0.8153995921,
				"z": -2.0452762963,
				"element": "N" 
			},
			{
				"x": -0.6568240055,
				"y": -2.1452815441,
				"z": -2.4728255831,
				"element": "C" 
			},
			{
				"x": 0.3463658213,
				"y": -2.8570584595,
				"z": -1.5732276431,
				"element": "C" 
			},
			{
				"x": 1.7252327558,
				"y": -2.745768636,
				"z": -1.8069488628,
				"element": "C" 
			},
			{
				"x": 2.6511277994,
				"y": -3.3591948752,
				"z": -0.9613957472,
				"element": "C" 
			},
			{
				"x": 2.2110400697,
				"y": -4.1035266548,
				"z": 0.1344188155,
				"element": "C" 
			},
			{
				"x": 0.8418171799,
				"y": -4.2397612618,
				"z": 0.3703031663,
				"element": "C" 
			},
			{
				"x": -0.0796941388,
				"y": -3.6256460118,
				"z": -0.4791233586,
				"element": "C" 
			},
			{
				"x": -1.9732993413,
				"y": -0.8092937358,
				"z": -0.8666676645,
				"element": "C" 
			},
			{
				"x": -2.2721817995,
				"y": 0.6285195245,
				"z": -0.4510727366,
				"element": "C" 
			},
			{
				"x": 0.4721712027,
				"y": 8.0910474913,
				"z": 0.235885778,
				"element": "H" 
			},
			{
				"x": -1.8666820913,
				"y": 4.3694996447,
				"z": 0.4054021849,
				"element": "H" 
			},
			{
				"x": 1.7265230462,
				"y": 2.9012202995,
				"z": 2.256558331,
				"element": "H" 
			},
			{
				"x": 2.7107518325,
				"y": 5.2015339515,
				"z": 1.9696223845,
				"element": "H" 
			},
			{
				"x": 0.9608881167,
				"y": 1.5912885348,
				"z": -0.7121542739,
				"element": "H" 
			},
			{
				"x": 0.6400002346,
				"y": -0.0075699757,
				"z": -0.0146029289,
				"element": "H" 
			},
			{
				"x": 0.8389031848,
				"y": -0.122889638,
				"z": -2.4760045648,
				"element": "H" 
			},
			{
				"x": -0.4266147639,
				"y": 1.0859371735,
				"z": -2.6732632151,
				"element": "H" 
			},
			{
				"x": -1.5556095641,
				"y": -2.7661979039,
				"z": -2.5765248847,
				"element": "H" 
			},
			{
				"x": -0.2303970966,
				"y": -2.0418849657,
				"z": -3.4775906587,
				"element": "H" 
			},
			{
				"x": 2.0782311163,
				"y": -2.1889413519,
				"z": -2.6722049467,
				"element": "H" 
			},
			{
				"x": 3.714386389,
				"y": -3.2635827871,
				"z": -1.1634609682,
				"element": "H" 
			},
			{
				"x": 2.9291337306,
				"y": -4.583272503,
				"z": 0.7930876265,
				"element": "H" 
			},
			{
				"x": 0.4904698438,
				"y": -4.8299791935,
				"z": 1.2119204916,
				"element": "H" 
			},
			{
				"x": -1.1437877721,
				"y": -3.7577868765,
				"z": -0.2999632541,
				"element": "H" 
			},
			{
				"x": -1.5402424148,
				"y": -1.3408802178,
				"z": -0.0014962217,
				"element": "H" 
			},
			{
				"x": -2.9152913217,
				"y": -1.3162090749,
				"z": -1.1165837349,
				"element": "H" 
			},
			{
				"x": -2.9725959548,
				"y": 0.6546206885,
				"z": 0.383973171,
				"element": "H" 
			},
			{
				"x": -2.7274290013,
				"y": 1.1684950998,
				"z": -1.2896946735,
				"element": "H" 
			}
		],
		 "valence_orbital": [ 
			{
				"type": "occ",
				"energy": -0.25643,
				"method": "rhf"
			},
			{
				"type": "occ",
				"energy": -0.25311,
				"method": "rhf"
			},
			{
				"type": "occ",
				"energy": -0.25016,
				"method": "rhf"
			},
			{
				"type": "occ",
				"energy": -0.23935,
				"method": "rhf"
			},
			{
				"type": "occ",
				"energy": -0.20953,
				"method": "rhf"
			},
			{
				"type": "unocc",
				"energy": -0.04884,
				"method": "rhf"
			},
			{
				"type": "unocc",
				"energy": -0.04242,
				"method": "rhf"
			},
			{
				"type": "unocc",
				"energy": -0.00782,
				"method": "rhf"
			},
			{
				"type": "unocc",
				"energy": -0.00668,
				"method": "rhf"
			},
			{
				"type": "unocc",
				"energy": 0.00665,
				"method": "rhf"
			}
		],
		"cosmo_sigma_profile": { 
			"-0.025": 0.0,
			"-0.024": 0.0,
			"-0.023": 0.0,
			"-0.022": 0.0,
			"-0.021": 0.0,
			"-0.02": 0.0,
			"-0.019": 0.0,
			"-0.018": 0.0,
			"-0.017": 0.0,
			"-0.016": 0.0,
			"-0.015": 0.0,
			"-0.014": 0.0,
			"-0.013": 0.0,
			"-0.012": 0.0244873190531,
			"-0.011": 1.34785941736,
			"-0.01": 1.3281698337,
			"-0.009": 2.71556902711,
			"-0.008": 5.95727193188,
			"-0.007": 7.20469034826,
			"-0.006": 10.7678951139,
			"-0.005": 25.7779858208,
			"-0.004": 39.553151324,
			"-0.003": 38.9752825309,
			"-0.002": 32.8657607186,
			"-0.001": 33.3610262662,
			"0.0": 29.3390565197,
			"0.001": 23.3305054827,
			"0.002": 20.2765726683,
			"0.003": 18.0491530257,
			"0.004": 15.6236011135,
			"0.005": 16.2370565565,
			"0.006": 14.2597116465,
			"0.007": 7.22019258011,
			"0.008": 5.04908080657,
			"0.009": 4.97456774898,
			"0.01": 8.42162120172,
			"0.011": 8.50075138758,
			"0.012": 3.49803230614,
			"0.013": 0.612034101208,
			"0.014": 0.328383903957,
			"0.015": 0.147611887033,
			"0.016": 0.0,
			"0.017": 0.0,
			"0.018": 0.0,
			"0.019": 0.0,
			"0.02": 0.0,
			"0.021": 0.0,
			"0.022": 0.0,
			"0.023": 0.0,
			"0.024": 0.0,
			"0.025": 0.0
		}
	}
}
