{
	 "smiles": "COC1=CC=CC=C1C(=O)OC1=CC=C(C=CC(=O)C2=CC=CC=C2)C=C1", 
	 "Tm": 388.15, 
	 "num_atms": 45, 
	 "gaussian": { 
		 "optdone": 1, 
		 "sigma_profile": "yes", 
		 "theory": "DFT", 
		 "functional": "B3LYP", 
		 "basiset": "6-31G**", 
		 "properties": { 
			 "R2extent": 21077.7441, 
			 "electric_dipole_moment_norm": 5.21751449351, 
			 "electric_quadrupole_moment_norm": 30.516131574, 
			 "total_energy": -1188.17129212, 
			 "HOMO_LUMO_gap": 0.14915, 
			 "cosmo_polarized_energy": -17.05, 
			 "cosmo_cavitation_energy": 51.3, 
			 "cosmo_dispersion_energy": -35.92, 
			 "cosmo_repulsion_energy": 2.64, 
			 "cosmo_total_nonelectrostatic_energy": 18.02, 
			 "SMD_solvation_energy": 10.69 
		},
		"coords": [
			{
				"x": 2.6466652446,
				"y": 2.3232289438,
				"z": 4.2764477548,
				"element": "C" 
			},
			{
				"x": 3.1984862817,
				"y": 1.0164870891,
				"z": 4.1096791583,
				"element": "O" 
			},
			{
				"x": 4.5297469657,
				"y": 0.9820041648,
				"z": 3.7782061826,
				"element": "C" 
			},
			{
				"x": 5.4665153365,
				"y": 1.076377886,
				"z": 4.8143382954,
				"element": "C" 
			},
			{
				"x": 6.830559948,
				"y": 0.9732854258,
				"z": 4.5567904307,
				"element": "C" 
			},
			{
				"x": 7.2800538463,
				"y": 0.7623533668,
				"z": 3.2502281934,
				"element": "C" 
			},
			{
				"x": 6.3563187586,
				"y": 0.6589554919,
				"z": 2.2182041416,
				"element": "C" 
			},
			{
				"x": 4.9741329681,
				"y": 0.7801056583,
				"z": 2.4525683188,
				"element": "C" 
			},
			{
				"x": 4.1118648585,
				"y": 0.6456608134,
				"z": 1.2418810012,
				"element": "C" 
			},
			{
				"x": 4.5171033182,
				"y": 0.2497987578,
				"z": 0.1705969739,
				"element": "O" 
			},
			{
				"x": 2.8214474229,
				"y": 1.0418066787,
				"z": 1.4590879109,
				"element": "O" 
			},
			{
				"x": 1.8557910656,
				"y": 0.9631376108,
				"z": 0.4618659005,
				"element": "C" 
			},
			{
				"x": 2.069225231,
				"y": 1.3545903531,
				"z": -0.8602715244,
				"element": "C" 
			},
			{
				"x": 0.9987703475,
				"y": 1.3099758802,
				"z": -1.7496282975,
				"element": "C" 
			},
			{
				"x": -0.2839184696,
				"y": 0.8876915092,
				"z": -1.3531138279,
				"element": "C" 
			},
			{
				"x": -1.3542704907,
				"y": 0.8700971827,
				"z": -2.3460310398,
				"element": "C" 
			},
			{
				"x": -2.6419792163,
				"y": 0.5062829557,
				"z": -2.1758230239,
				"element": "C" 
			},
			{
				"x": -3.5805517188,
				"y": 0.5445262618,
				"z": -3.3241254247,
				"element": "C" 
			},
			{
				"x": -3.19072569,
				"y": 0.8392599805,
				"z": -4.4532348421,
				"element": "O" 
			},
			{
				"x": -5.026423561,
				"y": 0.2004471458,
				"z": -3.1012638132,
				"element": "C" 
			},
			{
				"x": -5.827343194,
				"y": 0.0040908293,
				"z": -4.2385099855,
				"element": "C" 
			},
			{
				"x": -7.1761382306,
				"y": -0.3117590479,
				"z": -4.1111831964,
				"element": "C" 
			},
			{
				"x": -7.7511165538,
				"y": -0.4258913827,
				"z": -2.8416330692,
				"element": "C" 
			},
			{
				"x": -6.9691736189,
				"y": -0.220923202,
				"z": -1.7039505139,
				"element": "C" 
			},
			{
				"x": -5.6143316562,
				"y": 0.086989805,
				"z": -1.8317271518,
				"element": "C" 
			},
			{
				"x": -0.463110472,
				"y": 0.5039421797,
				"z": -0.0086480423,
				"element": "C" 
			},
			{
				"x": 0.5933292194,
				"y": 0.5408387102,
				"z": 0.890028733,
				"element": "C" 
			},
			{
				"x": 1.6172993996,
				"y": 2.1826189772,
				"z": 4.6114842312,
				"element": "H" 
			},
			{
				"x": 2.6482058052,
				"y": 2.8740784518,
				"z": 3.329287363,
				"element": "H" 
			},
			{
				"x": 3.1981651841,
				"y": 2.8961439456,
				"z": 5.032966781,
				"element": "H" 
			},
			{
				"x": 5.096476309,
				"y": 1.2083037944,
				"z": 5.8262751388,
				"element": "H" 
			},
			{
				"x": 7.5405469714,
				"y": 1.0456084102,
				"z": 5.3757451961,
				"element": "H" 
			},
			{
				"x": 8.3412900015,
				"y": 0.6719949597,
				"z": 3.0413596606,
				"element": "H" 
			},
			{
				"x": 6.6775225461,
				"y": 0.4817773849,
				"z": 1.1977034599,
				"element": "H" 
			},
			{
				"x": 3.049234097,
				"y": 1.6726410985,
				"z": -1.1880172688,
				"element": "H" 
			},
			{
				"x": 1.1576854509,
				"y": 1.6107453582,
				"z": -2.781494756,
				"element": "H" 
			},
			{
				"x": -1.0813058998,
				"y": 1.1894933805,
				"z": -3.3509191905,
				"element": "H" 
			},
			{
				"x": -3.0046272595,
				"y": 0.1615862685,
				"z": -1.2140317987,
				"element": "H" 
			},
			{
				"x": -5.3606936014,
				"y": 0.107115344,
				"z": -5.2122273277,
				"element": "H" 
			},
			{
				"x": -7.782463883,
				"y": -0.4679641633,
				"z": -4.9988279129,
				"element": "H" 
			},
			{
				"x": -8.8046902298,
				"y": -0.6707319579,
				"z": -2.7402700319,
				"element": "H" 
			},
			{
				"x": -7.4136848496,
				"y": -0.2991211899,
				"z": -0.7159885093,
				"element": "H" 
			},
			{
				"x": -5.0295588621,
				"y": 0.257551912,
				"z": -0.9342491106,
				"element": "H" 
			},
			{
				"x": -1.4366626851,
				"y": 0.1721508522,
				"z": 0.3375580579,
				"element": "H" 
			},
			{
				"x": 0.4662335647,
				"y": 0.2457461254,
				"z": 1.9261667757,
				"element": "H" 
			}
		],
		 "valence_orbital": [ 
			{
				"type": "occ",
				"energy": -0.25679,
				"method": "rhf"
			},
			{
				"type": "occ",
				"energy": -0.25317,
				"method": "rhf"
			},
			{
				"type": "occ",
				"energy": -0.25303,
				"method": "rhf"
			},
			{
				"type": "occ",
				"energy": -0.24314,
				"method": "rhf"
			},
			{
				"type": "occ",
				"energy": -0.22678,
				"method": "rhf"
			},
			{
				"type": "unocc",
				"energy": -0.07763,
				"method": "rhf"
			},
			{
				"type": "unocc",
				"energy": -0.05402,
				"method": "rhf"
			},
			{
				"type": "unocc",
				"energy": -0.02222,
				"method": "rhf"
			},
			{
				"type": "unocc",
				"energy": -0.01259,
				"method": "rhf"
			},
			{
				"type": "unocc",
				"energy": -0.01176,
				"method": "rhf"
			}
		],
		"cosmo_sigma_profile": { 
			"-0.025": 0.0,
			"-0.024": 0.0,
			"-0.023": 0.0,
			"-0.022": 0.0,
			"-0.021": 0.0,
			"-0.02": 0.0,
			"-0.019": 0.0,
			"-0.018": 0.0,
			"-0.017": 0.0,
			"-0.016": 0.0,
			"-0.015": 0.0,
			"-0.014": 0.0,
			"-0.013": 0.0,
			"-0.012": 0.0,
			"-0.011": 0.0,
			"-0.01": 0.0,
			"-0.009": 1.77331741228,
			"-0.008": 3.21238943964,
			"-0.007": 11.8239672176,
			"-0.006": 23.925948503,
			"-0.005": 32.4829328307,
			"-0.004": 33.6332643298,
			"-0.003": 31.7650560233,
			"-0.002": 30.2044842054,
			"-0.001": 28.4897475329,
			"0.0": 27.8653130838,
			"0.001": 32.9990439731,
			"0.002": 38.1035910701,
			"0.003": 42.290958075,
			"0.004": 25.5303480349,
			"0.005": 9.44439389915,
			"0.006": 5.64047964042,
			"0.007": 4.96853602834,
			"0.008": 4.01323249064,
			"0.009": 4.35272033723,
			"0.01": 6.19083178034,
			"0.011": 7.11157018456,
			"0.012": 4.05592797304,
			"0.013": 2.60150346576,
			"0.014": 0.0,
			"0.015": 0.0,
			"0.016": 0.0,
			"0.017": 0.0,
			"0.018": 0.0,
			"0.019": 0.0,
			"0.02": 0.0,
			"0.021": 0.0,
			"0.022": 0.0,
			"0.023": 0.0,
			"0.024": 0.0,
			"0.025": 0.0
		}
	}
}
