{
	 "smiles": "CC(C)C(C)(C)C(C)(C)C", 
	 "Tm": 236.95, 
	 "num_atms": 32, 
	 "gaussian": { 
		 "optdone": 1, 
		 "sigma_profile": "yes", 
		 "theory": "DFT", 
		 "functional": "B3LYP", 
		 "basiset": "6-31G**", 
		 "properties": { 
			 "R2extent": 1841.7531, 
			 "electric_dipole_moment_norm": 0.0878064348439, 
			 "electric_quadrupole_moment_norm": 0.473422380122, 
			 "total_energy": -394.335646326, 
			 "HOMO_LUMO_gap": 0.35294, 
			 "cosmo_polarized_energy": -0.99, 
			 "cosmo_cavitation_energy": 27.91, 
			 "cosmo_dispersion_energy": -20.21, 
			 "cosmo_repulsion_energy": 1.55, 
			 "cosmo_total_nonelectrostatic_energy": 9.26, 
			 "SMD_solvation_energy": 5.05 
		},
		"coords": [
			{
				"x": 0.8323571599,
				"y": -1.5960908015,
				"z": 0.004377092,
				"element": "C" 
			},
			{
				"x": 1.2616554156,
				"y": -0.2038862457,
				"z": -0.5078391931,
				"element": "C" 
			},
			{
				"x": 2.446882307,
				"y": 0.2862014202,
				"z": 0.3452773744,
				"element": "C" 
			},
			{
				"x": 0.1092608321,
				"y": 0.8456509909,
				"z": -0.8114677574,
				"element": "C" 
			},
			{
				"x": 0.7209957934,
				"y": 1.8961522155,
				"z": -1.7741851027,
				"element": "C" 
			},
			{
				"x": -0.9744007338,
				"y": 0.1006221723,
				"z": -1.6324835208,
				"element": "C" 
			},
			{
				"x": -0.5638035574,
				"y": 1.5834216566,
				"z": 0.4392809765,
				"element": "C" 
			},
			{
				"x": -1.8954704719,
				"y": 2.2600130408,
				"z": 0.0217235809,
				"element": "C" 
			},
			{
				"x": -0.9054355847,
				"y": 0.6116194052,
				"z": 1.5900877532,
				"element": "C" 
			},
			{
				"x": 0.3243124126,
				"y": 2.7096093679,
				"z": 1.0236482863,
				"element": "C" 
			},
			{
				"x": 0.5038446212,
				"y": -1.5833876978,
				"z": 1.045842499,
				"element": "H" 
			},
			{
				"x": 0.0331763784,
				"y": -2.0388652975,
				"z": -0.5944819262,
				"element": "H" 
			},
			{
				"x": 1.6901431787,
				"y": -2.2760053948,
				"z": -0.0520915754,
				"element": "H" 
			},
			{
				"x": 1.6776257206,
				"y": -0.3900365072,
				"z": -1.5094199014,
				"element": "H" 
			},
			{
				"x": 2.1871494972,
				"y": 0.3694913507,
				"z": 1.4052519134,
				"element": "H" 
			},
			{
				"x": 3.2675195759,
				"y": -0.4369544702,
				"z": 0.2758565358,
				"element": "H" 
			},
			{
				"x": 2.839868012,
				"y": 1.25176551,
				"z": 0.0163414637,
				"element": "H" 
			},
			{
				"x": 1.0174649987,
				"y": 1.4145257181,
				"z": -2.7125873315,
				"element": "H" 
			},
			{
				"x": 0.0025538141,
				"y": 2.6812211555,
				"z": -2.0285889193,
				"element": "H" 
			},
			{
				"x": 1.6081667078,
				"y": 2.3837083942,
				"z": -1.3633740296,
				"element": "H" 
			},
			{
				"x": -1.6064664782,
				"y": -0.547215289,
				"z": -1.0185931767,
				"element": "H" 
			},
			{
				"x": -0.5033289409,
				"y": -0.5276854913,
				"z": -2.3966139332,
				"element": "H" 
			},
			{
				"x": -1.6298247545,
				"y": 0.8022516109,
				"z": -2.1547711658,
				"element": "H" 
			},
			{
				"x": -2.6715564967,
				"y": 1.5320450083,
				"z": -0.22937857,
				"element": "H" 
			},
			{
				"x": -1.7738784394,
				"y": 2.9326997708,
				"z": -0.8330574511,
				"element": "H" 
			},
			{
				"x": -2.2738542377,
				"y": 2.8621406969,
				"z": 0.8551207244,
				"element": "H" 
			},
			{
				"x": -1.4969256169,
				"y": 1.1353142255,
				"z": 2.3499521866,
				"element": "H" 
			},
			{
				"x": -0.0110742838,
				"y": 0.2282797278,
				"z": 2.0874722739,
				"element": "H" 
			},
			{
				"x": -1.4981985106,
				"y": -0.2429733698,
				"z": 1.2501063992,
				"element": "H" 
			},
			{
				"x": -0.1721614844,
				"y": 3.1438200934,
				"z": 1.8989809238,
				"element": "H" 
			},
			{
				"x": 1.3037635439,
				"y": 2.3570255923,
				"z": 1.349109687,
				"element": "H" 
			},
			{
				"x": 0.4791396219,
				"y": 3.5218214409,
				"z": 0.3076038838,
				"element": "H" 
			}
		],
		 "valence_orbital": [ 
			{
				"type": "occ",
				"energy": -0.32208,
				"method": "rhf"
			},
			{
				"type": "occ",
				"energy": -0.32062,
				"method": "rhf"
			},
			{
				"type": "occ",
				"energy": -0.29542,
				"method": "rhf"
			},
			{
				"type": "occ",
				"energy": -0.2926,
				"method": "rhf"
			},
			{
				"type": "occ",
				"energy": -0.28153,
				"method": "rhf"
			},
			{
				"type": "unocc",
				"energy": 0.07141,
				"method": "rhf"
			},
			{
				"type": "unocc",
				"energy": 0.10998,
				"method": "rhf"
			},
			{
				"type": "unocc",
				"energy": 0.11397,
				"method": "rhf"
			},
			{
				"type": "unocc",
				"energy": 0.12136,
				"method": "rhf"
			},
			{
				"type": "unocc",
				"energy": 0.12264,
				"method": "rhf"
			}
		],
		"cosmo_sigma_profile": { 
			"-0.025": 0.0,
			"-0.024": 0.0,
			"-0.023": 0.0,
			"-0.022": 0.0,
			"-0.021": 0.0,
			"-0.02": 0.0,
			"-0.019": 0.0,
			"-0.018": 0.0,
			"-0.017": 0.0,
			"-0.016": 0.0,
			"-0.015": 0.0,
			"-0.014": 0.0,
			"-0.013": 0.0,
			"-0.012": 0.0,
			"-0.011": 0.0,
			"-0.01": 0.0,
			"-0.009": 0.0,
			"-0.008": 0.0,
			"-0.007": 0.0,
			"-0.006": 0.0,
			"-0.005": 0.0,
			"-0.004": 0.0356400115735,
			"-0.003": 7.01130902916,
			"-0.002": 33.2369558224,
			"-0.001": 49.2597301127,
			"0.0": 40.9759798967,
			"0.001": 35.366742014,
			"0.002": 40.0174372946,
			"0.003": 6.69284139391,
			"0.004": 0.0,
			"0.005": 0.0,
			"0.006": 0.0,
			"0.007": 0.0,
			"0.008": 0.0,
			"0.009": 0.0,
			"0.01": 0.0,
			"0.011": 0.0,
			"0.012": 0.0,
			"0.013": 0.0,
			"0.014": 0.0,
			"0.015": 0.0,
			"0.016": 0.0,
			"0.017": 0.0,
			"0.018": 0.0,
			"0.019": 0.0,
			"0.02": 0.0,
			"0.021": 0.0,
			"0.022": 0.0,
			"0.023": 0.0,
			"0.024": 0.0,
			"0.025": 0.0
		}
	}
}
