{
	 "smiles": "CCOCCCN", 
	 "Tm": 203.15, 
	 "num_atms": 20, 
	 "gaussian": { 
		 "optdone": 1, 
		 "sigma_profile": "yes", 
		 "theory": "DFT", 
		 "functional": "B3LYP", 
		 "basiset": "6-31G**", 
		 "properties": { 
			 "R2extent": 1640.0771, 
			 "electric_dipole_moment_norm": 1.11987158639, 
			 "electric_quadrupole_moment_norm": 5.91294163255, 
			 "total_energy": -328.332076128, 
			 "HOMO_LUMO_gap": 0.31466, 
			 "cosmo_polarized_energy": -7.07, 
			 "cosmo_cavitation_energy": 22.22, 
			 "cosmo_dispersion_energy": -16.35, 
			 "cosmo_repulsion_energy": 1.45, 
			 "cosmo_total_nonelectrostatic_energy": 7.32, 
			 "SMD_solvation_energy": 2.69 
		},
		"coords": [
			{
				"x": 0.0555403938,
				"y": -0.6536127205,
				"z": -3.6819497034,
				"element": "C" 
			},
			{
				"x": -0.3422500252,
				"y": -0.005981968,
				"z": -2.3654782041,
				"element": "C" 
			},
			{
				"x": 0.2804862347,
				"y": -0.7138794487,
				"z": -1.3089460064,
				"element": "O" 
			},
			{
				"x": -0.0287840041,
				"y": -0.1956615658,
				"z": -0.0260346296,
				"element": "C" 
			},
			{
				"x": 0.706544526,
				"y": -1.0107462141,
				"z": 1.0299652533,
				"element": "C" 
			},
			{
				"x": 2.2301652977,
				"y": -0.9118118768,
				"z": 0.926079782,
				"element": "C" 
			},
			{
				"x": 2.8633257838,
				"y": -1.6909122981,
				"z": 1.9986332617,
				"element": "N" 
			},
			{
				"x": -0.2627142116,
				"y": -1.6999346133,
				"z": -3.7061102643,
				"element": "H" 
			},
			{
				"x": 1.1414498961,
				"y": -0.62368368,
				"z": -3.8111356599,
				"element": "H" 
			},
			{
				"x": -0.4090373787,
				"y": -0.1293757883,
				"z": -4.5230473565,
				"element": "H" 
			},
			{
				"x": -1.4390688859,
				"y": -0.023762254,
				"z": -2.2419537144,
				"element": "H" 
			},
			{
				"x": -0.0356675427,
				"y": 1.0542620556,
				"z": -2.3479873599,
				"element": "H" 
			},
			{
				"x": 0.2655273025,
				"y": 0.8674107151,
				"z": 0.0363597824,
				"element": "H" 
			},
			{
				"x": -1.1172908028,
				"y": -0.2384913877,
				"z": 0.149673126,
				"element": "H" 
			},
			{
				"x": 0.3985605043,
				"y": -2.0607071645,
				"z": 0.934530363,
				"element": "H" 
			},
			{
				"x": 0.3934674768,
				"y": -0.6756789639,
				"z": 2.0256355556,
				"element": "H" 
			},
			{
				"x": 2.5358682308,
				"y": -1.2051562241,
				"z": -0.0906408154,
				"element": "H" 
			},
			{
				"x": 2.5288630909,
				"y": 0.1370571766,
				"z": 1.0548330527,
				"element": "H" 
			},
			{
				"x": 2.6776384066,
				"y": -2.6811270306,
				"z": 1.8495148897,
				"element": "H" 
			},
			{
				"x": 3.8741757069,
				"y": -1.5883067487,
				"z": 1.9463586474,
				"element": "H" 
			}
		],
		 "valence_orbital": [ 
			{
				"type": "occ",
				"energy": -0.34158,
				"method": "rhf"
			},
			{
				"type": "occ",
				"energy": -0.32762,
				"method": "rhf"
			},
			{
				"type": "occ",
				"energy": -0.31,
				"method": "rhf"
			},
			{
				"type": "occ",
				"energy": -0.25083,
				"method": "rhf"
			},
			{
				"type": "occ",
				"energy": -0.22502,
				"method": "rhf"
			},
			{
				"type": "unocc",
				"energy": 0.08964,
				"method": "rhf"
			},
			{
				"type": "unocc",
				"energy": 0.09403,
				"method": "rhf"
			},
			{
				"type": "unocc",
				"energy": 0.11617,
				"method": "rhf"
			},
			{
				"type": "unocc",
				"energy": 0.13096,
				"method": "rhf"
			},
			{
				"type": "unocc",
				"energy": 0.14057,
				"method": "rhf"
			}
		],
		"cosmo_sigma_profile": { 
			"-0.025": 0.0,
			"-0.024": 0.0,
			"-0.023": 0.0,
			"-0.022": 0.0,
			"-0.021": 0.0,
			"-0.02": 0.0,
			"-0.019": 0.0,
			"-0.018": 0.0,
			"-0.017": 0.0,
			"-0.016": 0.0,
			"-0.015": 0.0,
			"-0.014": 0.0,
			"-0.013": 0.0,
			"-0.012": 0.0,
			"-0.011": 0.0,
			"-0.01": 0.207195998224,
			"-0.009": 2.63063641643,
			"-0.008": 2.32740456185,
			"-0.007": 2.72154308285,
			"-0.006": 3.27832592175,
			"-0.005": 3.16697258986,
			"-0.004": 5.22951794111,
			"-0.003": 23.230191003,
			"-0.002": 34.5872022079,
			"-0.001": 26.3298186056,
			"0.0": 17.9776146243,
			"0.001": 13.104906558,
			"0.002": 5.30678066647,
			"0.003": 2.81387765278,
			"0.004": 2.50333016682,
			"0.005": 3.70139377827,
			"0.006": 2.90411578923,
			"0.007": 2.09648781845,
			"0.008": 3.16254754796,
			"0.009": 2.36039824818,
			"0.01": 2.34078424798,
			"0.011": 1.54742008381,
			"0.012": 1.85823850364,
			"0.013": 1.14424554508,
			"0.014": 0.457068144863,
			"0.015": 0.637769076397,
			"0.016": 0.625899627302,
			"0.017": 0.665810061723,
			"0.018": 0.738748331411,
			"0.019": 0.431769803092,
			"0.02": 0.448298914773,
			"0.021": 0.0713197379923,
			"0.022": 0.0,
			"0.023": 0.0,
			"0.024": 0.0,
			"0.025": 0.0
		}
	}
}
