{
	 "smiles": "N#CCC1=CC=C(OCC2=CC=CC=C2)C(OCC2=CC=CC=C2)=C1", 
	 "Tm": 353.15, 
	 "num_atms": 44, 
	 "gaussian": { 
		 "optdone": 1, 
		 "sigma_profile": "yes", 
		 "theory": "DFT", 
		 "functional": "B3LYP", 
		 "basiset": "6-31G**", 
		 "properties": { 
			 "R2extent": 11290.9872, 
			 "electric_dipole_moment_norm": 4.37833326964, 
			 "electric_quadrupole_moment_norm": 32.3353781045, 
			 "total_energy": -1054.95114265, 
			 "HOMO_LUMO_gap": 0.22023, 
			 "cosmo_polarized_energy": -16.23, 
			 "cosmo_cavitation_energy": 50.08, 
			 "cosmo_dispersion_energy": -32.37, 
			 "cosmo_repulsion_energy": 2.51, 
			 "cosmo_total_nonelectrostatic_energy": 20.23, 
			 "SMD_solvation_energy": 9.75 
		},
		"coords": [
			{
				"x": -4.2433938642,
				"y": -4.528261779,
				"z": 1.6292800756,
				"element": "N" 
			},
			{
				"x": -3.0841716626,
				"y": -4.4700685603,
				"z": 1.6372610787,
				"element": "C" 
			},
			{
				"x": -1.6164601386,
				"y": -4.3898153573,
				"z": 1.6422969496,
				"element": "C" 
			},
			{
				"x": -1.0723267088,
				"y": -3.408874576,
				"z": 0.6123693354,
				"element": "C" 
			},
			{
				"x": -0.6430051005,
				"y": -3.8564730839,
				"z": -0.6397583088,
				"element": "C" 
			},
			{
				"x": -0.1602346826,
				"y": -2.9486951306,
				"z": -1.5827466921,
				"element": "C" 
			},
			{
				"x": -0.0925701757,
				"y": -1.5877974112,
				"z": -1.2867286802,
				"element": "C" 
			},
			{
				"x": 0.419300363,
				"y": -0.7188889611,
				"z": -2.2243238711,
				"element": "O" 
			},
			{
				"x": -0.5488327526,
				"y": 0.1669904315,
				"z": -2.8229021594,
				"element": "C" 
			},
			{
				"x": 0.1454285819,
				"y": 1.0559167294,
				"z": -3.8248812052,
				"element": "C" 
			},
			{
				"x": 1.2004586234,
				"y": 0.573744035,
				"z": -4.6096487419,
				"element": "C" 
			},
			{
				"x": 1.8031259762,
				"y": 1.394983286,
				"z": -5.5624847747,
				"element": "C" 
			},
			{
				"x": 1.3535873099,
				"y": 2.70423505,
				"z": -5.7494979409,
				"element": "C" 
			},
			{
				"x": 0.3019823076,
				"y": 3.1907183352,
				"z": -4.9716306831,
				"element": "C" 
			},
			{
				"x": -0.2933408298,
				"y": 2.3718228591,
				"z": -4.0105616941,
				"element": "C" 
			},
			{
				"x": -0.5007340574,
				"y": -1.1324646301,
				"z": -0.017246654,
				"element": "C" 
			},
			{
				"x": -0.4765443017,
				"y": 0.2049870882,
				"z": 0.304485729,
				"element": "O" 
			},
			{
				"x": 0.8388177997,
				"y": 0.8004644631,
				"z": 0.4410223386,
				"element": "C" 
			},
			{
				"x": 1.5406805916,
				"y": 0.3701897095,
				"z": 1.7077187809,
				"element": "C" 
			},
			{
				"x": 0.9642451869,
				"y": 0.6343833213,
				"z": 2.9587231572,
				"element": "C" 
			},
			{
				"x": 1.6069738609,
				"y": 0.2439158567,
				"z": 4.1318711111,
				"element": "C" 
			},
			{
				"x": 2.8395730648,
				"y": -0.413648716,
				"z": 4.0699422104,
				"element": "C" 
			},
			{
				"x": 3.42057061,
				"y": -0.6812039277,
				"z": 2.8305154591,
				"element": "C" 
			},
			{
				"x": 2.7701818365,
				"y": -0.2943724417,
				"z": 1.6558893343,
				"element": "C" 
			},
			{
				"x": -0.9928889581,
				"y": -2.0455111646,
				"z": 0.9145941967,
				"element": "C" 
			},
			{
				"x": -1.2213954282,
				"y": -5.3950606128,
				"z": 1.4584092382,
				"element": "H" 
			},
			{
				"x": -1.2968973879,
				"y": -4.1048972026,
				"z": 2.6513825356,
				"element": "H" 
			},
			{
				"x": -0.6930744806,
				"y": -4.9132789164,
				"z": -0.8866519475,
				"element": "H" 
			},
			{
				"x": 0.1705886979,
				"y": -3.279429519,
				"z": -2.5621450166,
				"element": "H" 
			},
			{
				"x": -1.3195698927,
				"y": -0.4451919283,
				"z": -3.3147681626,
				"element": "H" 
			},
			{
				"x": -1.0394215096,
				"y": 0.7647893091,
				"z": -2.0472296513,
				"element": "H" 
			},
			{
				"x": 1.5526575336,
				"y": -0.4411868258,
				"z": -4.4576286765,
				"element": "H" 
			},
			{
				"x": 2.6247286869,
				"y": 1.0118344027,
				"z": -6.161344534,
				"element": "H" 
			},
			{
				"x": 1.822897903,
				"y": 3.3418121172,
				"z": -6.4932582462,
				"element": "H" 
			},
			{
				"x": -0.0494251785,
				"y": 4.2099820781,
				"z": -5.1047932837,
				"element": "H" 
			},
			{
				"x": -1.1047105045,
				"y": 2.7591051995,
				"z": -3.398713073,
				"element": "H" 
			},
			{
				"x": 1.442458193,
				"y": 0.5736491389,
				"z": -0.4424937495,
				"element": "H" 
			},
			{
				"x": 0.636440256,
				"y": 1.8754832646,
				"z": 0.4546666862,
				"element": "H" 
			},
			{
				"x": 0.0057373787,
				"y": 1.1447526981,
				"z": 3.0057741688,
				"element": "H" 
			},
			{
				"x": 1.1517682755,
				"y": 0.4560552355,
				"z": 5.0952729763,
				"element": "H" 
			},
			{
				"x": 3.342851087,
				"y": -0.7140962814,
				"z": 4.9845553661,
				"element": "H" 
			},
			{
				"x": 4.3767073035,
				"y": -1.1939150802,
				"z": 2.7755208202,
				"element": "H" 
			},
			{
				"x": 3.2220129167,
				"y": -0.5086500122,
				"z": 0.6905383301,
				"element": "H" 
			},
			{
				"x": -1.3041767296,
				"y": -1.6662324907,
				"z": 1.8828478684,
				"element": "H" 
			}
		],
		 "valence_orbital": [ 
			{
				"type": "occ",
				"energy": -0.25428,
				"method": "rhf"
			},
			{
				"type": "occ",
				"energy": -0.25257,
				"method": "rhf"
			},
			{
				"type": "occ",
				"energy": -0.25115,
				"method": "rhf"
			},
			{
				"type": "occ",
				"energy": -0.24445,
				"method": "rhf"
			},
			{
				"type": "occ",
				"energy": -0.23658,
				"method": "rhf"
			},
			{
				"type": "unocc",
				"energy": -0.01635,
				"method": "rhf"
			},
			{
				"type": "unocc",
				"energy": -0.01574,
				"method": "rhf"
			},
			{
				"type": "unocc",
				"energy": -0.01095,
				"method": "rhf"
			},
			{
				"type": "unocc",
				"energy": -0.00562,
				"method": "rhf"
			},
			{
				"type": "unocc",
				"energy": -0.00388,
				"method": "rhf"
			}
		],
		"cosmo_sigma_profile": { 
			"-0.025": 0.0,
			"-0.024": 0.0,
			"-0.023": 0.0,
			"-0.022": 0.0,
			"-0.021": 0.0,
			"-0.02": 0.0,
			"-0.019": 0.0,
			"-0.018": 0.0,
			"-0.017": 0.0,
			"-0.016": 0.0,
			"-0.015": 0.0,
			"-0.014": 0.0,
			"-0.013": 0.0,
			"-0.012": 0.0,
			"-0.011": 0.0,
			"-0.01": 0.0,
			"-0.009": 3.41498772446,
			"-0.008": 7.30264413429,
			"-0.007": 8.06642874389,
			"-0.006": 20.7187149752,
			"-0.005": 36.1497914513,
			"-0.004": 35.4529868973,
			"-0.003": 35.6216374152,
			"-0.002": 25.3958982854,
			"-0.001": 25.4984197715,
			"0.0": 25.6107170858,
			"0.001": 23.797377485,
			"0.002": 26.1595085054,
			"0.003": 27.9128551778,
			"0.004": 29.1633047013,
			"0.005": 23.8521155337,
			"0.006": 18.088894013,
			"0.007": 5.21687635193,
			"0.008": 5.87298647973,
			"0.009": 4.55494046752,
			"0.01": 4.12975254278,
			"0.011": 3.8306583634,
			"0.012": 2.65693688405,
			"0.013": 2.07414227789,
			"0.014": 0.272149304258,
			"0.015": 0.0,
			"0.016": 0.0,
			"0.017": 0.0,
			"0.018": 0.0,
			"0.019": 0.0,
			"0.02": 0.0,
			"0.021": 0.0,
			"0.022": 0.0,
			"0.023": 0.0,
			"0.024": 0.0,
			"0.025": 0.0
		}
	}
}
