{
	 "smiles": "ClS(=O)(=O)C1=CC=C(Br)S1", 
	 "Tm": 314.15, 
	 "num_atms": 12, 
	 "gaussian": { 
		 "optdone": 1, 
		 "sigma_profile": "yes", 
		 "theory": "DFT", 
		 "functional": "B3LYP", 
		 "basiset": "6-31G**", 
		 "properties": { 
			 "R2extent": 4884.0692, 
			 "electric_dipole_moment_norm": 4.45128375865, 
			 "electric_quadrupole_moment_norm": 14.9943334807, 
			 "total_energy": -4131.93971519, 
			 "HOMO_LUMO_gap": 0.16897, 
			 "cosmo_polarized_energy": -7.97, 
			 "cosmo_cavitation_energy": 24.28, 
			 "cosmo_dispersion_energy": -19.47, 
			 "cosmo_repulsion_energy": 1.49, 
			 "cosmo_total_nonelectrostatic_energy": 6.3, 
			 "SMD_solvation_energy": 1.49 
		},
		"coords": [
			{
				"x": -2.8061432515,
				"y": -0.8472398993,
				"z": -3.9205125123,
				"element": "Cl" 
			},
			{
				"x": -1.0537704215,
				"y": -1.8344027807,
				"z": -3.2432885155,
				"element": "S" 
			},
			{
				"x": 0.0328556007,
				"y": -1.4187368088,
				"z": -4.1189315931,
				"element": "O" 
			},
			{
				"x": -1.395010941,
				"y": -3.2405198076,
				"z": -3.0799843613,
				"element": "O" 
			},
			{
				"x": -0.841824478,
				"y": -1.0880632549,
				"z": -1.6436452742,
				"element": "C" 
			},
			{
				"x": -1.6027654658,
				"y": -0.1371946823,
				"z": -1.0163855479,
				"element": "C" 
			},
			{
				"x": -1.0945123693,
				"y": 0.1994721916,
				"z": 0.2703296963,
				"element": "C" 
			},
			{
				"x": 0.0363676335,
				"y": -0.5063744483,
				"z": 0.5798862781,
				"element": "C" 
			},
			{
				"x": 1.0440754518,
				"y": -0.3912748096,
				"z": 2.161688903,
				"element": "Br" 
			},
			{
				"x": 0.5226869756,
				"y": -1.60260708,
				"z": -0.6779098436,
				"element": "S" 
			},
			{
				"x": -2.4884044773,
				"y": 0.3054942746,
				"z": -1.4521007084,
				"element": "H" 
			},
			{
				"x": -1.5447542573,
				"y": 0.9278471052,
				"z": 0.932153479,
				"element": "H" 
			}
		],
		 "valence_orbital": [ 
			{
				"type": "occ",
				"energy": -0.33787,
				"method": "rhf"
			},
			{
				"type": "occ",
				"energy": -0.32451,
				"method": "rhf"
			},
			{
				"type": "occ",
				"energy": -0.32329,
				"method": "rhf"
			},
			{
				"type": "occ",
				"energy": -0.29807,
				"method": "rhf"
			},
			{
				"type": "occ",
				"energy": -0.26684,
				"method": "rhf"
			},
			{
				"type": "unocc",
				"energy": -0.09787,
				"method": "rhf"
			},
			{
				"type": "unocc",
				"energy": -0.0731,
				"method": "rhf"
			},
			{
				"type": "unocc",
				"energy": -0.0329,
				"method": "rhf"
			},
			{
				"type": "unocc",
				"energy": -0.01394,
				"method": "rhf"
			},
			{
				"type": "unocc",
				"energy": 0.01409,
				"method": "rhf"
			}
		],
		"cosmo_sigma_profile": { 
			"-0.025": 0.0,
			"-0.024": 0.0,
			"-0.023": 0.0,
			"-0.022": 0.0,
			"-0.021": 0.0,
			"-0.02": 0.0,
			"-0.019": 0.0,
			"-0.018": 0.0,
			"-0.017": 0.0,
			"-0.016": 0.0,
			"-0.015": 0.0,
			"-0.014": 0.0,
			"-0.013": 0.0,
			"-0.012": 0.0,
			"-0.011": 0.0,
			"-0.01": 0.924363011807,
			"-0.009": 3.64484882484,
			"-0.008": 4.14846213844,
			"-0.007": 4.82084510926,
			"-0.006": 6.11408147785,
			"-0.005": 7.42371272896,
			"-0.004": 10.5013129828,
			"-0.003": 13.444406157,
			"-0.002": 17.3802651788,
			"-0.001": 23.6464371233,
			"0.0": 27.2964273317,
			"0.001": 20.0302880869,
			"0.002": 20.92038282,
			"0.003": 13.0506268648,
			"0.004": 2.37759067162,
			"0.005": 3.45072645489,
			"0.006": 3.56135011234,
			"0.007": 7.43324544732,
			"0.008": 12.2488523473,
			"0.009": 2.01600227395,
			"0.01": 0.0,
			"0.011": 0.0,
			"0.012": 0.0,
			"0.013": 0.0,
			"0.014": 0.0,
			"0.015": 0.0,
			"0.016": 0.0,
			"0.017": 0.0,
			"0.018": 0.0,
			"0.019": 0.0,
			"0.02": 0.0,
			"0.021": 0.0,
			"0.022": 0.0,
			"0.023": 0.0,
			"0.024": 0.0,
			"0.025": 0.0
		}
	}
}
