{
	 "smiles": "COC(=O)C1=CC2=C(S1)C=CC(Br)=C2", 
	 "Tm": 383.15, 
	 "num_atms": 21, 
	 "gaussian": { 
		 "optdone": 1, 
		 "sigma_profile": "yes", 
		 "theory": "DFT", 
		 "functional": "B3LYP", 
		 "basiset": "6-31G**", 
		 "properties": { 
			 "R2extent": 8543.317, 
			 "electric_dipole_moment_norm": 1.54305767877, 
			 "electric_quadrupole_moment_norm": 16.3141949047, 
			 "total_energy": -3505.33234322, 
			 "HOMO_LUMO_gap": 0.16293, 
			 "cosmo_polarized_energy": -8.82, 
			 "cosmo_cavitation_energy": 30.05, 
			 "cosmo_dispersion_energy": -23.01, 
			 "cosmo_repulsion_energy": 1.75, 
			 "cosmo_total_nonelectrostatic_energy": 8.8, 
			 "SMD_solvation_energy": 5.03 
		},
		"coords": [
			{
				"x": -2.4867665269,
				"y": -1.3952863151,
				"z": -3.1635305586,
				"element": "C" 
			},
			{
				"x": -2.207458133,
				"y": -0.7341419272,
				"z": -1.9178870525,
				"element": "O" 
			},
			{
				"x": -1.0204417074,
				"y": -1.0510363884,
				"z": -1.3564664403,
				"element": "C" 
			},
			{
				"x": -0.2244688541,
				"y": -1.8323004272,
				"z": -1.8409399159,
				"element": "O" 
			},
			{
				"x": -0.8073617289,
				"y": -0.3353450717,
				"z": -0.0860844313,
				"element": "C" 
			},
			{
				"x": -1.6292432845,
				"y": 0.5564547136,
				"z": 0.5425549434,
				"element": "C" 
			},
			{
				"x": -1.0778733662,
				"y": 1.0481849562,
				"z": 1.7709979711,
				"element": "C" 
			},
			{
				"x": 0.1978511006,
				"y": 0.485345872,
				"z": 2.0389739203,
				"element": "C" 
			},
			{
				"x": 0.6910307363,
				"y": -0.6300356005,
				"z": 0.7832851735,
				"element": "S" 
			},
			{
				"x": 0.9127668484,
				"y": 0.8322388006,
				"z": 3.1916747481,
				"element": "C" 
			},
			{
				"x": 0.3533856204,
				"y": 1.7425769691,
				"z": 4.0784940392,
				"element": "C" 
			},
			{
				"x": -0.9110578343,
				"y": 2.3003565943,
				"z": 3.8126555198,
				"element": "C" 
			},
			{
				"x": -1.6415323846,
				"y": 3.5499508974,
				"z": 5.0622584785,
				"element": "Br" 
			},
			{
				"x": -1.6335576729,
				"y": 1.9709140804,
				"z": 2.6798062238,
				"element": "C" 
			},
			{
				"x": -2.5029912966,
				"y": -2.479464536,
				"z": -3.0277473162,
				"element": "H" 
			},
			{
				"x": -3.4664049604,
				"y": -1.0325677649,
				"z": -3.473660974,
				"element": "H" 
			},
			{
				"x": -1.7292532318,
				"y": -1.1441179583,
				"z": -3.9100071518,
				"element": "H" 
			},
			{
				"x": -2.5918147235,
				"y": 0.8502115183,
				"z": 0.1422962701,
				"element": "H" 
			},
			{
				"x": 1.8879286063,
				"y": 0.4018777505,
				"z": 3.3963150188,
				"element": "H" 
			},
			{
				"x": 0.8864102159,
				"y": 2.0277097408,
				"z": 4.9779841681,
				"element": "H" 
			},
			{
				"x": -2.6062474228,
				"y": 2.4121740962,
				"z": 2.4937273656,
				"element": "H" 
			}
		],
		 "valence_orbital": [ 
			{
				"type": "occ",
				"energy": -0.2929,
				"method": "rhf"
			},
			{
				"type": "occ",
				"energy": -0.29218,
				"method": "rhf"
			},
			{
				"type": "occ",
				"energy": -0.28507,
				"method": "rhf"
			},
			{
				"type": "occ",
				"energy": -0.24496,
				"method": "rhf"
			},
			{
				"type": "occ",
				"energy": -0.23303,
				"method": "rhf"
			},
			{
				"type": "unocc",
				"energy": -0.0701,
				"method": "rhf"
			},
			{
				"type": "unocc",
				"energy": -0.02172,
				"method": "rhf"
			},
			{
				"type": "unocc",
				"energy": -0.0024,
				"method": "rhf"
			},
			{
				"type": "unocc",
				"energy": 0.00684,
				"method": "rhf"
			},
			{
				"type": "unocc",
				"energy": 0.01943,
				"method": "rhf"
			}
		],
		"cosmo_sigma_profile": { 
			"-0.025": 0.0,
			"-0.024": 0.0,
			"-0.023": 0.0,
			"-0.022": 0.0,
			"-0.021": 0.0,
			"-0.02": 0.0,
			"-0.019": 0.0,
			"-0.018": 0.0,
			"-0.017": 0.0,
			"-0.016": 0.0,
			"-0.015": 0.0,
			"-0.014": 0.0,
			"-0.013": 0.0,
			"-0.012": 0.0,
			"-0.011": 0.0,
			"-0.01": 0.0,
			"-0.009": 0.568396946085,
			"-0.008": 6.63085371478,
			"-0.007": 8.89385019186,
			"-0.006": 13.3309439084,
			"-0.005": 13.386836277,
			"-0.004": 15.3776128463,
			"-0.003": 17.0160711209,
			"-0.002": 13.5817234043,
			"-0.001": 14.8652150039,
			"0.0": 18.5961049143,
			"0.001": 29.7844643067,
			"0.002": 33.5430538821,
			"0.003": 18.3206027593,
			"0.004": 18.2271071362,
			"0.005": 8.82321897422,
			"0.006": 2.29394440662,
			"0.007": 1.71848200728,
			"0.008": 1.5771001183,
			"0.009": 2.10692924324,
			"0.01": 1.81612322782,
			"0.011": 4.513302191,
			"0.012": 2.19636673133,
			"0.013": 0.0,
			"0.014": 0.0,
			"0.015": 0.0,
			"0.016": 0.0,
			"0.017": 0.0,
			"0.018": 0.0,
			"0.019": 0.0,
			"0.02": 0.0,
			"0.021": 0.0,
			"0.022": 0.0,
			"0.023": 0.0,
			"0.024": 0.0,
			"0.025": 0.0
		}
	}
}
