{
	 "smiles": "ONC(=O)CCOC1=CC=CC=C1", 
	 "Tm": 412.15, 
	 "num_atms": 24, 
	 "gaussian": { 
		 "optdone": 1, 
		 "sigma_profile": "yes", 
		 "theory": "DFT", 
		 "functional": "B3LYP", 
		 "basiset": "6-31G**", 
		 "properties": { 
			 "R2extent": 5180.7636, 
			 "electric_dipole_moment_norm": 1.95256961464, 
			 "electric_quadrupole_moment_norm": 10.6407664757, 
			 "total_energy": -629.95255661, 
			 "HOMO_LUMO_gap": 0.21971, 
			 "cosmo_polarized_energy": -14.21, 
			 "cosmo_cavitation_energy": 28.55, 
			 "cosmo_dispersion_energy": -21.13, 
			 "cosmo_repulsion_energy": 1.71, 
			 "cosmo_total_nonelectrostatic_energy": 9.13, 
			 "SMD_solvation_energy": 6.52 
		},
		"coords": [
			{
				"x": -4.3304287544,
				"y": -3.1567530391,
				"z": 2.5140010525,
				"element": "O" 
			},
			{
				"x": -3.3779032946,
				"y": -3.2401435864,
				"z": 1.4897126783,
				"element": "N" 
			},
			{
				"x": -2.5387006165,
				"y": -2.1713679529,
				"z": 1.372175398,
				"element": "C" 
			},
			{
				"x": -2.494262414,
				"y": -1.3288402569,
				"z": 2.2707629151,
				"element": "O" 
			},
			{
				"x": -1.6656214151,
				"y": -2.143699228,
				"z": 0.1353781995,
				"element": "C" 
			},
			{
				"x": -0.2291053743,
				"y": -1.7683438396,
				"z": 0.4900873954,
				"element": "C" 
			},
			{
				"x": 0.4790492761,
				"y": -1.6611196204,
				"z": -0.7377291205,
				"element": "O" 
			},
			{
				"x": 1.806882359,
				"y": -1.3289818193,
				"z": -0.6983188788,
				"element": "C" 
			},
			{
				"x": 2.450463244,
				"y": -1.260408777,
				"z": -1.9425245022,
				"element": "C" 
			},
			{
				"x": 3.7994944204,
				"y": -0.9302093413,
				"z": -2.0092453385,
				"element": "C" 
			},
			{
				"x": 4.5250098992,
				"y": -0.6650790303,
				"z": -0.8424319495,
				"element": "C" 
			},
			{
				"x": 3.8797432084,
				"y": -0.734836517,
				"z": 0.3899985835,
				"element": "C" 
			},
			{
				"x": 2.523025254,
				"y": -1.0652480804,
				"z": 0.474743057,
				"element": "C" 
			},
			{
				"x": -4.0312934999,
				"y": -2.3385564933,
				"z": 2.9690607362,
				"element": "H" 
			},
			{
				"x": -3.7590441568,
				"y": -3.7073762461,
				"z": 0.6773533439,
				"element": "H" 
			},
			{
				"x": -1.6853008942,
				"y": -3.1051446845,
				"z": -0.3883152102,
				"element": "H" 
			},
			{
				"x": -2.0634914874,
				"y": -1.3854692505,
				"z": -0.5498833274,
				"element": "H" 
			},
			{
				"x": 0.2240481503,
				"y": -2.537528835,
				"z": 1.1309124646,
				"element": "H" 
			},
			{
				"x": -0.2215479272,
				"y": -0.8195991395,
				"z": 1.0388668348,
				"element": "H" 
			},
			{
				"x": 1.8722369699,
				"y": -1.4692211321,
				"z": -2.8368354781,
				"element": "H" 
			},
			{
				"x": 4.2882681255,
				"y": -0.8795548203,
				"z": -2.9781768918,
				"element": "H" 
			},
			{
				"x": 5.578142723,
				"y": -0.4076582817,
				"z": -0.8971725378,
				"element": "H" 
			},
			{
				"x": 4.4294591978,
				"y": -0.5307334335,
				"z": 1.304621155,
				"element": "H" 
			},
			{
				"x": 2.0432770068,
				"y": -1.1102265952,
				"z": 1.4452594209,
				"element": "H" 
			}
		],
		 "valence_orbital": [ 
			{
				"type": "occ",
				"energy": -0.31854,
				"method": "rhf"
			},
			{
				"type": "occ",
				"energy": -0.28332,
				"method": "rhf"
			},
			{
				"type": "occ",
				"energy": -0.2499,
				"method": "rhf"
			},
			{
				"type": "occ",
				"energy": -0.2446,
				"method": "rhf"
			},
			{
				"type": "occ",
				"energy": -0.22025,
				"method": "rhf"
			},
			{
				"type": "unocc",
				"energy": -0.00054,
				"method": "rhf"
			},
			{
				"type": "unocc",
				"energy": 0.00046,
				"method": "rhf"
			},
			{
				"type": "unocc",
				"energy": 0.01386,
				"method": "rhf"
			},
			{
				"type": "unocc",
				"energy": 0.06627,
				"method": "rhf"
			},
			{
				"type": "unocc",
				"energy": 0.08297,
				"method": "rhf"
			}
		],
		"cosmo_sigma_profile": { 
			"-0.025": 0.0,
			"-0.024": 0.0,
			"-0.023": 0.0,
			"-0.022": 0.0,
			"-0.021": 0.0,
			"-0.02": 0.0,
			"-0.019": 0.0,
			"-0.018": 0.0,
			"-0.017": 0.648562896019,
			"-0.016": 1.49333905004,
			"-0.015": 1.20654436811,
			"-0.014": 0.986744023058,
			"-0.013": 1.36208654123,
			"-0.012": 1.7844372477,
			"-0.011": 2.01308298275,
			"-0.01": 1.60195906766,
			"-0.009": 1.69048216759,
			"-0.008": 1.86449954137,
			"-0.007": 4.80413431513,
			"-0.006": 14.2789988315,
			"-0.005": 20.8841347088,
			"-0.004": 17.3367053586,
			"-0.003": 16.2906316298,
			"-0.002": 12.5711741464,
			"-0.001": 10.3068287723,
			"0.0": 11.9790151281,
			"0.001": 9.68197074149,
			"0.002": 12.1477141501,
			"0.003": 11.3486861707,
			"0.004": 13.7484482561,
			"0.005": 13.1593392642,
			"0.006": 13.8031305405,
			"0.007": 6.06587053921,
			"0.008": 4.56755000629,
			"0.009": 4.57647023783,
			"0.01": 3.35554795794,
			"0.011": 5.22993062663,
			"0.012": 3.35479399711,
			"0.013": 1.88639197252,
			"0.014": 0.030953341119,
			"0.015": 0.0,
			"0.016": 0.0,
			"0.017": 0.0,
			"0.018": 0.0,
			"0.019": 0.0,
			"0.02": 0.0,
			"0.021": 0.0,
			"0.022": 0.0,
			"0.023": 0.0,
			"0.024": 0.0,
			"0.025": 0.0
		}
	}
}
