{
	 "smiles": "FC1=CC=C2C(=O)OC(=O)C2=C1", 
	 "Tm": 349.65, 
	 "num_atms": 15, 
	 "gaussian": { 
		 "optdone": 1, 
		 "sigma_profile": "yes", 
		 "theory": "DFT", 
		 "functional": "B3LYP", 
		 "basiset": "6-31G**", 
		 "properties": { 
			 "R2extent": 2700.6362, 
			 "electric_dipole_moment_norm": 4.60241687051, 
			 "electric_quadrupole_moment_norm": 11.318475282, 
			 "total_energy": -632.177649255, 
			 "HOMO_LUMO_gap": 0.1888, 
			 "cosmo_polarized_energy": -10.66, 
			 "cosmo_cavitation_energy": 21.54, 
			 "cosmo_dispersion_energy": -15.78, 
			 "cosmo_repulsion_energy": 1.21, 
			 "cosmo_total_nonelectrostatic_energy": 6.97, 
			 "SMD_solvation_energy": 6.19 
		},
		"coords": [
			{
				"x": 1.4212223952,
				"y": -3.068884649,
				"z": 3.4195936798,
				"element": "F" 
			},
			{
				"x": 0.7973158786,
				"y": -2.6906691232,
				"z": 2.2938326517,
				"element": "C" 
			},
			{
				"x": 0.1982676116,
				"y": -3.681900513,
				"z": 1.5067923542,
				"element": "C" 
			},
			{
				"x": -0.4607906323,
				"y": -3.3305347542,
				"z": 0.32804576,
				"element": "C" 
			},
			{
				"x": -0.4899452204,
				"y": -1.9813903637,
				"z": -0.0133169563,
				"element": "C" 
			},
			{
				"x": -1.0955853257,
				"y": -1.2926061514,
				"z": -1.1759537369,
				"element": "C" 
			},
			{
				"x": -1.7092935746,
				"y": -1.7264686402,
				"z": -2.1096012385,
				"element": "O" 
			},
			{
				"x": -0.8291858455,
				"y": 0.0762033998,
				"z": -1.0281496268,
				"element": "O" 
			},
			{
				"x": -0.1010714493,
				"y": 0.3057860518,
				"z": 0.1410917611,
				"element": "C" 
			},
			{
				"x": 0.2451176627,
				"y": 1.4015727929,
				"z": 0.4813919475,
				"element": "O" 
			},
			{
				"x": 0.1138093241,
				"y": -1.0154191869,
				"z": 0.7870743154,
				"element": "C" 
			},
			{
				"x": 0.7759711137,
				"y": -1.3358895805,
				"z": 1.9641762063,
				"element": "C" 
			},
			{
				"x": 0.2615471828,
				"y": -4.7131465606,
				"z": 1.83636034,
				"element": "H" 
			},
			{
				"x": -0.9328791713,
				"y": -4.078955129,
				"z": -0.2993942565,
				"element": "H" 
			},
			{
				"x": 1.2496000504,
				"y": -0.5927975926,
				"z": 2.5952567989,
				"element": "H" 
			}
		],
		 "valence_orbital": [ 
			{
				"type": "occ",
				"energy": -0.33748,
				"method": "rhf"
			},
			{
				"type": "occ",
				"energy": -0.31819,
				"method": "rhf"
			},
			{
				"type": "occ",
				"energy": -0.3054,
				"method": "rhf"
			},
			{
				"type": "occ",
				"energy": -0.29533,
				"method": "rhf"
			},
			{
				"type": "occ",
				"energy": -0.28932,
				"method": "rhf"
			},
			{
				"type": "unocc",
				"energy": -0.10052,
				"method": "rhf"
			},
			{
				"type": "unocc",
				"energy": -0.0678,
				"method": "rhf"
			},
			{
				"type": "unocc",
				"energy": 0.01562,
				"method": "rhf"
			},
			{
				"type": "unocc",
				"energy": 0.04702,
				"method": "rhf"
			},
			{
				"type": "unocc",
				"energy": 0.06802,
				"method": "rhf"
			}
		],
		"cosmo_sigma_profile": { 
			"-0.025": 0.0,
			"-0.024": 0.0,
			"-0.023": 0.0,
			"-0.022": 0.0,
			"-0.021": 0.0,
			"-0.02": 0.0,
			"-0.019": 0.0,
			"-0.018": 0.0,
			"-0.017": 0.0,
			"-0.016": 0.0,
			"-0.015": 0.0,
			"-0.014": 0.0,
			"-0.013": 0.0,
			"-0.012": 0.0,
			"-0.011": 0.0,
			"-0.01": 0.933235584078,
			"-0.009": 6.30079036858,
			"-0.008": 8.04330063525,
			"-0.007": 7.37585707745,
			"-0.006": 6.7088816981,
			"-0.005": 7.91531382463,
			"-0.004": 9.52823367119,
			"-0.003": 12.7023051339,
			"-0.002": 21.963892849,
			"-0.001": 14.7906498528,
			"0.0": 9.72592654129,
			"0.001": 4.58888758123,
			"0.002": 7.03444344774,
			"0.003": 12.9639236116,
			"0.004": 4.13865590655,
			"0.005": 3.69652587425,
			"0.006": 6.01524183448,
			"0.007": 6.83791280974,
			"0.008": 6.29885264056,
			"0.009": 9.81973540021,
			"0.01": 7.30977907809,
			"0.011": 0.624067631287,
			"0.012": 0.0,
			"0.013": 0.0,
			"0.014": 0.0,
			"0.015": 0.0,
			"0.016": 0.0,
			"0.017": 0.0,
			"0.018": 0.0,
			"0.019": 0.0,
			"0.02": 0.0,
			"0.021": 0.0,
			"0.022": 0.0,
			"0.023": 0.0,
			"0.024": 0.0,
			"0.025": 0.0
		}
	}
}
