{
	 "smiles": "CCCCCCCCCC#C", 
	 "Tm": 248.15, 
	 "num_atms": 31, 
	 "gaussian": { 
		 "optdone": 1, 
		 "sigma_profile": "yes", 
		 "theory": "DFT", 
		 "functional": "B3LYP", 
		 "basiset": "6-31G**", 
		 "properties": { 
			 "R2extent": 3800.561, 
			 "electric_dipole_moment_norm": 0.855378267201, 
			 "electric_quadrupole_moment_norm": 4.04126248343, 
			 "total_energy": -431.175314782, 
			 "HOMO_LUMO_gap": 0.31403, 
			 "cosmo_polarized_energy": -3.88, 
			 "cosmo_cavitation_energy": 32.72, 
			 "cosmo_dispersion_energy": -22.4, 
			 "cosmo_repulsion_energy": 1.86, 
			 "cosmo_total_nonelectrostatic_energy": 12.18, 
			 "SMD_solvation_energy": 6.11 
		},
		"coords": [
			{
				"x": 1.2462641406,
				"y": -0.1324444124,
				"z": 4.8030256465,
				"element": "C" 
			},
			{
				"x": 1.5403089083,
				"y": 0.134335465,
				"z": 3.3229260496,
				"element": "C" 
			},
			{
				"x": 0.2761097038,
				"y": 0.447444338,
				"z": 2.5098396511,
				"element": "C" 
			},
			{
				"x": 0.527351777,
				"y": 0.7926157976,
				"z": 1.0305863947,
				"element": "C" 
			},
			{
				"x": 1.0599593843,
				"y": -0.3635450776,
				"z": 0.1596237497,
				"element": "C" 
			},
			{
				"x": 0.0648037976,
				"y": -1.5150621627,
				"z": -0.1173117926,
				"element": "C" 
			},
			{
				"x": -0.7282023952,
				"y": -1.4047249752,
				"z": -1.4322423924,
				"element": "C" 
			},
			{
				"x": -1.6868407069,
				"y": -0.2119065646,
				"z": -1.533355533,
				"element": "C" 
			},
			{
				"x": -2.5117167398,
				"y": -0.2400289352,
				"z": -2.8384293202,
				"element": "C" 
			},
			{
				"x": -3.4290261461,
				"y": 0.8921164638,
				"z": -2.968036295,
				"element": "C" 
			},
			{
				"x": -4.1804379237,
				"y": 1.8336642388,
				"z": -3.0583496412,
				"element": "C" 
			},
			{
				"x": 0.5728777093,
				"y": -0.9887218189,
				"z": 4.9251268583,
				"element": "H" 
			},
			{
				"x": 0.7657997693,
				"y": 0.7329174659,
				"z": 5.273959398,
				"element": "H" 
			},
			{
				"x": 2.1626625911,
				"y": -0.3489106441,
				"z": 5.3619814562,
				"element": "H" 
			},
			{
				"x": 2.055421454,
				"y": -0.7359294399,
				"z": 2.8969784103,
				"element": "H" 
			},
			{
				"x": 2.2419301607,
				"y": 0.9754173848,
				"z": 3.2344563532,
				"element": "H" 
			},
			{
				"x": -0.2394444421,
				"y": 1.2962156077,
				"z": 2.9796955452,
				"element": "H" 
			},
			{
				"x": -0.4201827337,
				"y": -0.3993177549,
				"z": 2.5864570925,
				"element": "H" 
			},
			{
				"x": 1.2461955885,
				"y": 1.6224818131,
				"z": 0.98552183,
				"element": "H" 
			},
			{
				"x": -0.4031887696,
				"y": 1.1787348725,
				"z": 0.5983525202,
				"element": "H" 
			},
			{
				"x": 1.4039097006,
				"y": 0.0462481171,
				"z": -0.7998106851,
				"element": "H" 
			},
			{
				"x": 1.9580012736,
				"y": -0.7739493548,
				"z": 0.6365124675,
				"element": "H" 
			},
			{
				"x": 0.6178641779,
				"y": -2.4617976992,
				"z": -0.149337773,
				"element": "H" 
			},
			{
				"x": -0.638234406,
				"y": -1.6143395911,
				"z": 0.720467599,
				"element": "H" 
			},
			{
				"x": -1.3051907295,
				"y": -2.3305196409,
				"z": -1.5668033008,
				"element": "H" 
			},
			{
				"x": -0.0195740561,
				"y": -1.3667584579,
				"z": -2.2723865759,
				"element": "H" 
			},
			{
				"x": -1.1328803604,
				"y": 0.7320982528,
				"z": -1.4921482105,
				"element": "H" 
			},
			{
				"x": -2.3744427568,
				"y": -0.2080330602,
				"z": -0.6785124239,
				"element": "H" 
			},
			{
				"x": -1.8300069071,
				"y": -0.2545669882,
				"z": -3.7000058661,
				"element": "H" 
			},
			{
				"x": -3.0825353018,
				"y": -1.1774215382,
				"z": -2.8891184869,
				"element": "H" 
			},
			{
				"x": -4.8444557616,
				"y": 2.6621882987,
				"z": -3.1419627253,
				"element": "H" 
			}
		],
		 "valence_orbital": [ 
			{
				"type": "occ",
				"energy": -0.31054,
				"method": "rhf"
			},
			{
				"type": "occ",
				"energy": -0.3057,
				"method": "rhf"
			},
			{
				"type": "occ",
				"energy": -0.30179,
				"method": "rhf"
			},
			{
				"type": "occ",
				"energy": -0.25663,
				"method": "rhf"
			},
			{
				"type": "occ",
				"energy": -0.25617,
				"method": "rhf"
			},
			{
				"type": "unocc",
				"energy": 0.05786,
				"method": "rhf"
			},
			{
				"type": "unocc",
				"energy": 0.06392,
				"method": "rhf"
			},
			{
				"type": "unocc",
				"energy": 0.08505,
				"method": "rhf"
			},
			{
				"type": "unocc",
				"energy": 0.10282,
				"method": "rhf"
			},
			{
				"type": "unocc",
				"energy": 0.10896,
				"method": "rhf"
			}
		],
		"cosmo_sigma_profile": { 
			"-0.025": 0.0,
			"-0.024": 0.0,
			"-0.023": 0.0,
			"-0.022": 0.0,
			"-0.021": 0.0,
			"-0.02": 0.0,
			"-0.019": 0.0,
			"-0.018": 0.0,
			"-0.017": 0.0,
			"-0.016": 0.0,
			"-0.015": 0.0,
			"-0.014": 0.0,
			"-0.013": 0.0,
			"-0.012": 0.0,
			"-0.011": 0.729732945281,
			"-0.01": 1.24257932781,
			"-0.009": 1.01622241388,
			"-0.008": 1.09939470984,
			"-0.007": 1.23827893379,
			"-0.006": 0.775471429275,
			"-0.005": 3.69032364488,
			"-0.004": 7.32802392418,
			"-0.003": 11.2213063684,
			"-0.002": 38.2286843902,
			"-0.001": 50.6335716555,
			"0.0": 45.7471115358,
			"0.001": 40.5760902194,
			"0.002": 18.7650383899,
			"0.003": 4.25992583816,
			"0.004": 4.69839819946,
			"0.005": 4.22230215719,
			"0.006": 4.05965358998,
			"0.007": 8.43612117186,
			"0.008": 5.67828792937,
			"0.009": 0.0,
			"0.01": 0.0,
			"0.011": 0.0,
			"0.012": 0.0,
			"0.013": 0.0,
			"0.014": 0.0,
			"0.015": 0.0,
			"0.016": 0.0,
			"0.017": 0.0,
			"0.018": 0.0,
			"0.019": 0.0,
			"0.02": 0.0,
			"0.021": 0.0,
			"0.022": 0.0,
			"0.023": 0.0,
			"0.024": 0.0,
			"0.025": 0.0
		}
	}
}
