{
	 "smiles": "CC1CC(C)CN(C1)C1=C(C=C(C=C1)C(O)=O)[N+]([O-])=O", 
	 "Tm": 441.15, 
	 "num_atms": 38, 
	 "gaussian": { 
		 "optdone": 1, 
		 "sigma_profile": "yes", 
		 "theory": "DFT", 
		 "functional": "B3LYP", 
		 "basiset": "6-31G**", 
		 "properties": { 
			 "R2extent": 7512.3537, 
			 "electric_dipole_moment_norm": 9.16000466594, 
			 "electric_quadrupole_moment_norm": 21.4692683935, 
			 "total_energy": -954.647657962, 
			 "HOMO_LUMO_gap": 0.14173, 
			 "cosmo_polarized_energy": -21.65, 
			 "cosmo_cavitation_energy": 39.83, 
			 "cosmo_dispersion_energy": -27.96, 
			 "cosmo_repulsion_energy": 2.13, 
			 "cosmo_total_nonelectrostatic_energy": 14.0, 
			 "SMD_solvation_energy": 9.01 
		},
		"coords": [
			{
				"x": -1.3519869713,
				"y": 3.2859398479,
				"z": -0.8597082756,
				"element": "C" 
			},
			{
				"x": -0.5240763963,
				"y": 2.1400360189,
				"z": -1.4513217488,
				"element": "C" 
			},
			{
				"x": 0.3480533622,
				"y": 2.6067636738,
				"z": -2.6400415887,
				"element": "C" 
			},
			{
				"x": 1.618893656,
				"y": 1.7447964515,
				"z": -2.8151709484,
				"element": "C" 
			},
			{
				"x": 2.1293589994,
				"y": 1.7566253196,
				"z": -4.259764534,
				"element": "C" 
			},
			{
				"x": 1.366022128,
				"y": 0.3106302396,
				"z": -2.3335623157,
				"element": "C" 
			},
			{
				"x": 1.0310411812,
				"y": 0.2930386119,
				"z": -0.9028289532,
				"element": "N" 
			},
			{
				"x": 0.3486120036,
				"y": 1.484215399,
				"z": -0.3710937138,
				"element": "C" 
			},
			{
				"x": 1.1217833745,
				"y": -0.8768711153,
				"z": -0.1972626427,
				"element": "C" 
			},
			{
				"x": 1.1236884637,
				"y": -0.9607616216,
				"z": 1.2293150507,
				"element": "C" 
			},
			{
				"x": 1.0362339405,
				"y": -2.1759053576,
				"z": 1.9000533178,
				"element": "C" 
			},
			{
				"x": 1.0140057381,
				"y": -3.3839421027,
				"z": 1.2048302641,
				"element": "C" 
			},
			{
				"x": 1.1257477469,
				"y": -3.3315000962,
				"z": -0.1959198852,
				"element": "C" 
			},
			{
				"x": 1.1755848669,
				"y": -2.126638026,
				"z": -0.8738510292,
				"element": "C" 
			},
			{
				"x": 0.9477103284,
				"y": -4.6456981521,
				"z": 1.9990669671,
				"element": "C" 
			},
			{
				"x": 0.6158000731,
				"y": -5.7810391775,
				"z": 1.3215497571,
				"element": "O" 
			},
			{
				"x": 1.1704926512,
				"y": -4.6994063674,
				"z": 3.1861558307,
				"element": "O" 
			},
			{
				"x": 1.3856611368,
				"y": 0.2006650847,
				"z": 2.0863590378,
				"element": "N" 
			},
			{
				"x": 0.844980594,
				"y": 0.2339822609,
				"z": 3.1923866994,
				"element": "O" 
			},
			{
				"x": 2.1853730636,
				"y": 1.0453001764,
				"z": 1.6742409818,
				"element": "O" 
			},
			{
				"x": -2.0297356497,
				"y": 2.9315738513,
				"z": -0.0759558565,
				"element": "H" 
			},
			{
				"x": -0.7029848491,
				"y": 4.0532985115,
				"z": -0.422096892,
				"element": "H" 
			},
			{
				"x": -1.9582869434,
				"y": 3.7662842385,
				"z": -1.6345767284,
				"element": "H" 
			},
			{
				"x": -1.2191823842,
				"y": 1.3699193923,
				"z": -1.8130758291,
				"element": "H" 
			},
			{
				"x": -0.2516791015,
				"y": 2.5786295415,
				"z": -3.5586987635,
				"element": "H" 
			},
			{
				"x": 0.6444128813,
				"y": 3.6533930092,
				"z": -2.4976304598,
				"element": "H" 
			},
			{
				"x": 2.4077795466,
				"y": 2.1549641822,
				"z": -2.1713888582,
				"element": "H" 
			},
			{
				"x": 2.2949295564,
				"y": 2.782959116,
				"z": -4.602530151,
				"element": "H" 
			},
			{
				"x": 3.0762393632,
				"y": 1.2151532799,
				"z": -4.3584845804,
				"element": "H" 
			},
			{
				"x": 1.4026208257,
				"y": 1.2948448518,
				"z": -4.9388397629,
				"element": "H" 
			},
			{
				"x": 0.5666025556,
				"y": -0.1472015451,
				"z": -2.9406954145,
				"element": "H" 
			},
			{
				"x": 2.270158537,
				"y": -0.2881629603,
				"z": -2.4838702796,
				"element": "H" 
			},
			{
				"x": -0.2856226051,
				"y": 1.169460915,
				"z": 0.4632357723,
				"element": "H" 
			},
			{
				"x": 1.0698984233,
				"y": 2.2053373428,
				"z": 0.0323217464,
				"element": "H" 
			},
			{
				"x": 1.0273110146,
				"y": -2.1835780665,
				"z": 2.9832581937,
				"element": "H" 
			},
			{
				"x": 1.1863637119,
				"y": -4.2447614119,
				"z": -0.7836076767,
				"element": "H" 
			},
			{
				"x": 1.2130854892,
				"y": -2.1422140432,
				"z": -1.9549576749,
				"element": "H" 
			},
			{
				"x": 0.2936096874,
				"y": -5.5632312725,
				"z": 0.4365609439,
				"element": "H" 
			}
		],
		 "valence_orbital": [ 
			{
				"type": "occ",
				"energy": -0.30096,
				"method": "rhf"
			},
			{
				"type": "occ",
				"energy": -0.2958,
				"method": "rhf"
			},
			{
				"type": "occ",
				"energy": -0.27458,
				"method": "rhf"
			},
			{
				"type": "occ",
				"energy": -0.27112,
				"method": "rhf"
			},
			{
				"type": "occ",
				"energy": -0.22264,
				"method": "rhf"
			},
			{
				"type": "unocc",
				"energy": -0.08091,
				"method": "rhf"
			},
			{
				"type": "unocc",
				"energy": -0.04681,
				"method": "rhf"
			},
			{
				"type": "unocc",
				"energy": -0.01954,
				"method": "rhf"
			},
			{
				"type": "unocc",
				"energy": 0.0412,
				"method": "rhf"
			},
			{
				"type": "unocc",
				"energy": 0.05826,
				"method": "rhf"
			}
		],
		"cosmo_sigma_profile": { 
			"-0.025": 0.0,
			"-0.024": 0.0,
			"-0.023": 0.0,
			"-0.022": 0.0,
			"-0.021": 0.0,
			"-0.02": 0.0,
			"-0.019": 0.381053567645,
			"-0.018": 1.14235114392,
			"-0.017": 1.03529777133,
			"-0.016": 0.811330694064,
			"-0.015": 0.864258600706,
			"-0.014": 0.85442252979,
			"-0.013": 1.09309165377,
			"-0.012": 1.1955167417,
			"-0.011": 1.63513141921,
			"-0.01": 0.942579976199,
			"-0.009": 1.41096288881,
			"-0.008": 2.22032717833,
			"-0.007": 5.41878585794,
			"-0.006": 7.96699336504,
			"-0.005": 11.9892732874,
			"-0.004": 19.9585982793,
			"-0.003": 39.4438829305,
			"-0.002": 39.1111111744,
			"-0.001": 32.787699916,
			"0.0": 30.0823766248,
			"0.001": 27.2489810447,
			"0.002": 12.3328621972,
			"0.003": 6.90041810687,
			"0.004": 5.07225821756,
			"0.005": 4.8022466052,
			"0.006": 5.02933669196,
			"0.007": 7.57823089358,
			"0.008": 12.8455258114,
			"0.009": 8.75990761694,
			"0.01": 8.18352150679,
			"0.011": 6.0295058825,
			"0.012": 5.18854129273,
			"0.013": 1.96884331535,
			"0.014": 0.1822911083,
			"0.015": 0.0,
			"0.016": 0.0,
			"0.017": 0.0,
			"0.018": 0.0,
			"0.019": 0.0,
			"0.02": 0.0,
			"0.021": 0.0,
			"0.022": 0.0,
			"0.023": 0.0,
			"0.024": 0.0,
			"0.0": 0.0
		}
	}
}
