{
	 "smiles": "CC1=CC=C(C=C1)C1=NC2=C(S1)C(=O)CCC2", 
	 "Tm": 402.15, 
	 "num_atms": 30, 
	 "gaussian": { 
		 "optdone": 1, 
		 "sigma_profile": "yes", 
		 "theory": "DFT", 
		 "functional": "B3LYP", 
		 "basiset": "6-31G**", 
		 "properties": { 
			 "R2extent": 6133.6312, 
			 "electric_dipole_moment_norm": 3.55512392611, 
			 "electric_quadrupole_moment_norm": 18.2229641343, 
			 "total_energy": -1069.51329448, 
			 "HOMO_LUMO_gap": 0.14857, 
			 "cosmo_polarized_energy": -10.65, 
			 "cosmo_cavitation_energy": 34.68, 
			 "cosmo_dispersion_energy": -26.14, 
			 "cosmo_repulsion_energy": 1.98, 
			 "cosmo_total_nonelectrostatic_energy": 10.51, 
			 "SMD_solvation_energy": 4.16 
		},
		"coords": [
			{
				"x": -4.6968631572,
				"y": 3.8526653335,
				"z": 1.6112718167,
				"element": "C" 
			},
			{
				"x": -3.5283149964,
				"y": 3.0016311513,
				"z": 1.1781628659,
				"element": "C" 
			},
			{
				"x": -3.1763580316,
				"y": 1.8424893811,
				"z": 1.8837748245,
				"element": "C" 
			},
			{
				"x": -2.0821988631,
				"y": 1.0717652112,
				"z": 1.5038207692,
				"element": "C" 
			},
			{
				"x": -1.3004835466,
				"y": 1.437239403,
				"z": 0.3960197956,
				"element": "C" 
			},
			{
				"x": -1.6509171717,
				"y": 2.5974071965,
				"z": -0.3183822312,
				"element": "C" 
			},
			{
				"x": -2.7458241272,
				"y": 3.3599785086,
				"z": 0.0697034438,
				"element": "C" 
			},
			{
				"x": -0.14262341,
				"y": 0.6514688359,
				"z": -0.040128769,
				"element": "C" 
			},
			{
				"x": 0.6008338027,
				"y": 0.9791451304,
				"z": -1.0783614763,
				"element": "N" 
			},
			{
				"x": 1.6149003805,
				"y": 0.0871324383,
				"z": -1.2647818155,
				"element": "C" 
			},
			{
				"x": 1.6682382329,
				"y": -0.9588929114,
				"z": -0.3642832178,
				"element": "C" 
			},
			{
				"x": 0.3750512102,
				"y": -0.813646753,
				"z": 0.7917394188,
				"element": "S" 
			},
			{
				"x": 2.6470328387,
				"y": -2.04458934,
				"z": -0.3893732285,
				"element": "C" 
			},
			{
				"x": 2.6687412473,
				"y": -2.9497315086,
				"z": 0.4334941078,
				"element": "O" 
			},
			{
				"x": 3.6221724343,
				"y": -1.9754209606,
				"z": -1.5669613269,
				"element": "C" 
			},
			{
				"x": 3.904518538,
				"y": -0.5408176408,
				"z": -2.0450552992,
				"element": "C" 
			},
			{
				"x": 2.6118563241,
				"y": 0.223423063,
				"z": -2.3808745005,
				"element": "C" 
			},
			{
				"x": -5.4327910336,
				"y": 3.268765537,
				"z": 2.1714911564,
				"element": "H" 
			},
			{
				"x": -5.2023821685,
				"y": 4.3051687147,
				"z": 0.7526744159,
				"element": "H" 
			},
			{
				"x": -4.3668105934,
				"y": 4.6726785436,
				"z": 2.2616583348,
				"element": "H" 
			},
			{
				"x": -3.7692152352,
				"y": 1.5385678101,
				"z": 2.7424861678,
				"element": "H" 
			},
			{
				"x": -1.8405044294,
				"y": 0.1784973126,
				"z": 2.0732645441,
				"element": "H" 
			},
			{
				"x": -1.051673236,
				"y": 2.8794552308,
				"z": -1.1767805363,
				"element": "H" 
			},
			{
				"x": -3.0019259137,
				"y": 4.2510369286,
				"z": -0.4981315987,
				"element": "H" 
			},
			{
				"x": 4.5370398315,
				"y": -2.4960461056,
				"z": -1.2706962028,
				"element": "H" 
			},
			{
				"x": 3.1749285217,
				"y": -2.5605723169,
				"z": -2.3843345015,
				"element": "H" 
			},
			{
				"x": 4.5643998294,
				"y": -0.5627449822,
				"z": -2.9185067751,
				"element": "H" 
			},
			{
				"x": 4.4416971794,
				"y": -0.0000007127,
				"z": -1.2560671437,
				"element": "H" 
			},
			{
				"x": 2.8112709599,
				"y": 1.2844277902,
				"z": -2.5618847585,
				"element": "H" 
			},
			{
				"x": 2.1684045828,
				"y": -0.1699802884,
				"z": -3.3074582798,
				"element": "H" 
			}
		],
		 "valence_orbital": [ 
			{
				"type": "occ",
				"energy": -0.28301,
				"method": "rhf"
			},
			{
				"type": "occ",
				"energy": -0.2746,
				"method": "rhf"
			},
			{
				"type": "occ",
				"energy": -0.25979,
				"method": "rhf"
			},
			{
				"type": "occ",
				"energy": -0.242,
				"method": "rhf"
			},
			{
				"type": "occ",
				"energy": -0.22342,
				"method": "rhf"
			},
			{
				"type": "unocc",
				"energy": -0.07485,
				"method": "rhf"
			},
			{
				"type": "unocc",
				"energy": -0.01792,
				"method": "rhf"
			},
			{
				"type": "unocc",
				"energy": -0.0092,
				"method": "rhf"
			},
			{
				"type": "unocc",
				"energy": 0.02113,
				"method": "rhf"
			},
			{
				"type": "unocc",
				"energy": 0.04069,
				"method": "rhf"
			}
		],
		"cosmo_sigma_profile": { 
			"-0.025": 0.0,
			"-0.024": 0.0,
			"-0.023": 0.0,
			"-0.022": 0.0,
			"-0.021": 0.0,
			"-0.02": 0.0,
			"-0.019": 0.0,
			"-0.018": 0.0,
			"-0.017": 0.0,
			"-0.016": 0.0,
			"-0.015": 0.0,
			"-0.014": 0.0,
			"-0.013": 0.0,
			"-0.012": 0.0,
			"-0.011": 0.0,
			"-0.01": 0.0,
			"-0.009": 0.0,
			"-0.008": 0.00165202568899,
			"-0.007": 1.27404350962,
			"-0.006": 7.69941386173,
			"-0.005": 22.0142414034,
			"-0.004": 30.0219819236,
			"-0.003": 29.9097171198,
			"-0.002": 27.6345300518,
			"-0.001": 29.8709396982,
			"0.0": 24.9839267004,
			"0.001": 20.5495785804,
			"0.002": 19.013513703,
			"0.003": 17.1042990166,
			"0.004": 15.126510687,
			"0.005": 6.53814245356,
			"0.006": 3.01602167124,
			"0.007": 3.18629294736,
			"0.008": 2.98722985564,
			"0.009": 2.37530817839,
			"0.01": 2.95760126105,
			"0.011": 3.82053193777,
			"0.012": 4.68300394293,
			"0.013": 2.73922380026,
			"0.014": 0.468872063593,
			"0.015": 0.0,
			"0.016": 0.0,
			"0.017": 0.0,
			"0.018": 0.0,
			"0.019": 0.0,
			"0.02": 0.0,
			"0.021": 0.0,
			"0.022": 0.0,
			"0.023": 0.0,
			"0.024": 0.0,
			"0.025": 0.0
		}
	}
}
