{
	 "smiles": "NNC(=O)C1=CC2=CC=CC=C2C=C1", 
	 "Tm": 420.15, 
	 "num_atms": 24, 
	 "gaussian": { 
		 "optdone": 1, 
		 "sigma_profile": "yes", 
		 "theory": "DFT", 
		 "functional": "B3LYP", 
		 "basiset": "6-31G**", 
		 "properties": { 
			 "R2extent": 3473.0567, 
			 "electric_dipole_moment_norm": 3.84781114401, 
			 "electric_quadrupole_moment_norm": 19.9817865968, 
			 "total_energy": -609.91124076, 
			 "HOMO_LUMO_gap": 0.16782, 
			 "cosmo_polarized_energy": -15.33, 
			 "cosmo_cavitation_energy": 28.04, 
			 "cosmo_dispersion_energy": -20.83, 
			 "cosmo_repulsion_energy": 1.64, 
			 "cosmo_total_nonelectrostatic_energy": 8.85, 
			 "SMD_solvation_energy": 5.88 
		},
		"coords": [
			{
				"x": 0.3348003507,
				"y": 0.9674928128,
				"z": 2.8410359533,
				"element": "N" 
			},
			{
				"x": 1.1914288484,
				"y": -0.1249964476,
				"z": 3.0516993827,
				"element": "N" 
			},
			{
				"x": 1.1026084369,
				"y": -1.3298721015,
				"z": 2.3754100621,
				"element": "C" 
			},
			{
				"x": 1.6316174741,
				"y": -2.3135749063,
				"z": 2.8867398685,
				"element": "O" 
			},
			{
				"x": 0.4237645811,
				"y": -1.4250002022,
				"z": 1.0419869278,
				"element": "C" 
			},
			{
				"x": 0.2142084268,
				"y": -0.365432784,
				"z": 0.1781630943,
				"element": "C" 
			},
			{
				"x": -0.3672370991,
				"y": -0.5680983486,
				"z": -1.1009062397,
				"element": "C" 
			},
			{
				"x": -0.5858396888,
				"y": 0.5092248609,
				"z": -2.0028465915,
				"element": "C" 
			},
			{
				"x": -1.1575307553,
				"y": 0.2920104222,
				"z": -3.2361213746,
				"element": "C" 
			},
			{
				"x": -1.5368372997,
				"y": -1.0166900377,
				"z": -3.6251425287,
				"element": "C" 
			},
			{
				"x": -1.3366071755,
				"y": -2.0819180619,
				"z": -2.7751668682,
				"element": "C" 
			},
			{
				"x": -0.7483260561,
				"y": -1.8910681415,
				"z": -1.4968345863,
				"element": "C" 
			},
			{
				"x": -0.5156635424,
				"y": -2.9635711676,
				"z": -0.5926359047,
				"element": "C" 
			},
			{
				"x": 0.0619444494,
				"y": -2.7406828469,
				"z": 0.6321202765,
				"element": "C" 
			},
			{
				"x": -0.3821650063,
				"y": 1.0075282841,
				"z": 3.5633758142,
				"element": "H" 
			},
			{
				"x": 0.8766512608,
				"y": 1.8263628825,
				"z": 2.874265535,
				"element": "H" 
			},
			{
				"x": 1.6129390109,
				"y": -0.254607513,
				"z": 3.9681390046,
				"element": "H" 
			},
			{
				"x": 0.483858265,
				"y": 0.6403511666,
				"z": 0.4727341449,
				"element": "H" 
			},
			{
				"x": -0.2938966821,
				"y": 1.511351746,
				"z": -1.6990661979,
				"element": "H" 
			},
			{
				"x": -1.3204916442,
				"y": 1.122985045,
				"z": -3.9163001977,
				"element": "H" 
			},
			{
				"x": -1.9870219078,
				"y": -1.1765834477,
				"z": -4.6007602456,
				"element": "H" 
			},
			{
				"x": -1.6256991635,
				"y": -3.08651123,
				"z": -3.0733411489,
				"element": "H" 
			},
			{
				"x": -0.7956048126,
				"y": -3.9707090965,
				"z": -0.8909201381,
				"element": "H" 
			},
			{
				"x": 0.2655997292,
				"y": -3.5570908873,
				"z": 1.3156719579,
				"element": "H" 
			}
		],
		 "valence_orbital": [ 
			{
				"type": "occ",
				"energy": -0.2785,
				"method": "rhf"
			},
			{
				"type": "occ",
				"energy": -0.25972,
				"method": "rhf"
			},
			{
				"type": "occ",
				"energy": -0.24973,
				"method": "rhf"
			},
			{
				"type": "occ",
				"energy": -0.23791,
				"method": "rhf"
			},
			{
				"type": "occ",
				"energy": -0.21401,
				"method": "rhf"
			},
			{
				"type": "unocc",
				"energy": -0.04619,
				"method": "rhf"
			},
			{
				"type": "unocc",
				"energy": -0.01889,
				"method": "rhf"
			},
			{
				"type": "unocc",
				"energy": 0.02807,
				"method": "rhf"
			},
			{
				"type": "unocc",
				"energy": 0.04845,
				"method": "rhf"
			},
			{
				"type": "unocc",
				"energy": 0.064,
				"method": "rhf"
			}
		],
		"cosmo_sigma_profile": { 
			"-0.025": 0.0,
			"-0.024": 0.0,
			"-0.023": 0.0,
			"-0.022": 0.0,
			"-0.021": 0.0,
			"-0.02": 0.0,
			"-0.019": 0.0,
			"-0.018": 0.0,
			"-0.017": 0.0,
			"-0.016": 0.0,
			"-0.015": 0.0,
			"-0.014": 0.0,
			"-0.013": 0.747544410226,
			"-0.012": 3.38540231761,
			"-0.011": 5.60705794558,
			"-0.01": 4.89631185674,
			"-0.009": 4.89304127655,
			"-0.008": 3.47206641307,
			"-0.007": 2.00688667129,
			"-0.006": 12.545291643,
			"-0.005": 14.4534877004,
			"-0.004": 14.8110712798,
			"-0.003": 12.8527584914,
			"-0.002": 10.2448290461,
			"-0.001": 11.5297614918,
			"0.0": 11.647417047,
			"0.001": 12.8461833227,
			"0.002": 13.2885443072,
			"0.003": 21.9997628456,
			"0.004": 25.0960252604,
			"0.005": 12.55540622,
			"0.006": 3.20377410782,
			"0.007": 1.41013965063,
			"0.008": 3.59384187503,
			"0.009": 2.08829232123,
			"0.01": 1.90562198215,
			"0.011": 1.93866253643,
			"0.012": 2.18007142939,
			"0.013": 4.0212735839,
			"0.014": 4.24914939761,
			"0.015": 0.137440793491,
			"0.016": 0.0,
			"0.017": 0.0,
			"0.018": 0.0,
			"0.019": 0.0,
			"0.02": 0.0,
			"0.021": 0.0,
			"0.022": 0.0,
			"0.023": 0.0,
			"0.024": 0.0,
			"0.025": 0.0
		}
	}
}
