{
	 "smiles": "CC(=O)NC1=CC=C(C=C1)S(N)(=O)=O", 
	 "Tm": 493.15, 
	 "num_atms": 24, 
	 "gaussian": { 
		 "optdone": 1, 
		 "sigma_profile": "yes", 
		 "theory": "DFT", 
		 "functional": "B3LYP", 
		 "basiset": "6-31G**", 
		 "properties": { 
			 "R2extent": 4530.422, 
			 "electric_dipole_moment_norm": 3.97664043383, 
			 "electric_quadrupole_moment_norm": 34.2510381873, 
			 "total_energy": -1044.18541342, 
			 "HOMO_LUMO_gap": 0.19484, 
			 "cosmo_polarized_energy": -26.0, 
			 "cosmo_cavitation_energy": 29.91, 
			 "cosmo_dispersion_energy": -22.28, 
			 "cosmo_repulsion_energy": 1.71, 
			 "cosmo_total_nonelectrostatic_energy": 9.34, 
			 "SMD_solvation_energy": 5.66 
		},
		"coords": [
			{
				"x": -0.8618433296,
				"y": -2.6396471572,
				"z": -2.2758244067,
				"element": "C" 
			},
			{
				"x": 0.4212790312,
				"y": -2.0891180926,
				"z": -2.8633206399,
				"element": "C" 
			},
			{
				"x": 0.896340755,
				"y": -2.5185921586,
				"z": -3.9021673074,
				"element": "O" 
			},
			{
				"x": 1.0737227372,
				"y": -1.0407748459,
				"z": -2.2175325914,
				"element": "N" 
			},
			{
				"x": 0.8007034224,
				"y": -0.3139974112,
				"z": -1.0484669,
				"element": "C" 
			},
			{
				"x": 0.2027945023,
				"y": -0.8796533086,
				"z": 0.090763646,
				"element": "C" 
			},
			{
				"x": -0.0243764007,
				"y": -0.1024882353,
				"z": 1.2236084171,
				"element": "C" 
			},
			{
				"x": 0.3707250606,
				"y": 1.2358641993,
				"z": 1.2437156972,
				"element": "C" 
			},
			{
				"x": 0.9814285147,
				"y": 1.8094553714,
				"z": 0.1246837972,
				"element": "C" 
			},
			{
				"x": 1.1910785362,
				"y": 1.0383724487,
				"z": -1.0111731976,
				"element": "C" 
			},
			{
				"x": 0.1060449807,
				"y": 2.2222633186,
				"z": 2.7196182179,
				"element": "S" 
			},
			{
				"x": 1.4800892672,
				"y": 2.0633438473,
				"z": 3.6766440841,
				"element": "N" 
			},
			{
				"x": -0.9720919299,
				"y": 1.5889197022,
				"z": 3.4768025727,
				"element": "O" 
			},
			{
				"x": 0.0796197499,
				"y": 3.6238235885,
				"z": 2.3052808348,
				"element": "O" 
			},
			{
				"x": -1.4041882253,
				"y": -3.1238689584,
				"z": -3.088249167,
				"element": "H" 
			},
			{
				"x": -1.4852323732,
				"y": -1.8696659166,
				"z": -1.8156692072,
				"element": "H" 
			},
			{
				"x": -0.6405397829,
				"y": -3.4005565289,
				"z": -1.5196651384,
				"element": "H" 
			},
			{
				"x": 1.8311352334,
				"y": -0.689961349,
				"z": -2.792144241,
				"element": "H" 
			},
			{
				"x": -0.0695008302,
				"y": -1.9267121902,
				"z": 0.1054250556,
				"element": "H" 
			},
			{
				"x": -0.511466369,
				"y": -0.5324568517,
				"z": 2.0924533133,
				"element": "H" 
			},
			{
				"x": 1.2553464669,
				"y": 2.859094849,
				"z": 0.1374771256,
				"element": "H" 
			},
			{
				"x": 1.6411186982,
				"y": 1.4863012132,
				"z": -1.8927790418,
				"element": "H" 
			},
			{
				"x": 2.3102493372,
				"y": 2.4597784289,
				"z": 3.2479289447,
				"element": "H" 
			},
			{
				"x": 1.6183629476,
				"y": 1.1177760371,
				"z": 4.0185901322,
				"element": "H" 
			}
		],
		 "valence_orbital": [ 
			{
				"type": "occ",
				"energy": -0.30737,
				"method": "rhf"
			},
			{
				"type": "occ",
				"energy": -0.30542,
				"method": "rhf"
			},
			{
				"type": "occ",
				"energy": -0.28547,
				"method": "rhf"
			},
			{
				"type": "occ",
				"energy": -0.26982,
				"method": "rhf"
			},
			{
				"type": "occ",
				"energy": -0.24557,
				"method": "rhf"
			},
			{
				"type": "unocc",
				"energy": -0.05073,
				"method": "rhf"
			},
			{
				"type": "unocc",
				"energy": -0.0361,
				"method": "rhf"
			},
			{
				"type": "unocc",
				"energy": 0.01214,
				"method": "rhf"
			},
			{
				"type": "unocc",
				"energy": 0.04523,
				"method": "rhf"
			},
			{
				"type": "unocc",
				"energy": 0.06421,
				"method": "rhf"
			}
		],
		"cosmo_sigma_profile": { 
			"-0.025": 0.0,
			"-0.024": 0.0,
			"-0.023": 0.0,
			"-0.022": 0.0,
			"-0.021": 0.0,
			"-0.02": 0.0,
			"-0.019": 0.0,
			"-0.018": 0.0,
			"-0.017": 0.0,
			"-0.016": 0.0761378425401,
			"-0.015": 2.7811239742,
			"-0.014": 3.30463203107,
			"-0.013": 4.24443328449,
			"-0.012": 3.71173270509,
			"-0.011": 4.34683818362,
			"-0.01": 3.04335062899,
			"-0.009": 4.24032669762,
			"-0.008": 6.61848897902,
			"-0.007": 11.249874493,
			"-0.006": 11.9041634468,
			"-0.005": 13.0507429975,
			"-0.004": 13.7252243879,
			"-0.003": 12.7983579237,
			"-0.002": 13.959263709,
			"-0.001": 12.9053561472,
			"0.0": 10.5975308421,
			"0.001": 11.8436240166,
			"0.002": 16.1160489774,
			"0.003": 9.82175976721,
			"0.004": 4.81750929065,
			"0.005": 4.35499409397,
			"0.006": 4.30082832713,
			"0.007": 4.27971230769,
			"0.008": 6.20914230698,
			"0.009": 6.0067441806,
			"0.01": 8.7651658897,
			"0.011": 12.5609204359,
			"0.012": 8.97316989529,
			"0.013": 5.60752719281,
			"0.014": 1.64742576347,
			"0.015": 0.0520837468332,
			"0.016": 0.0,
			"0.017": 0.0,
			"0.018": 0.0,
			"0.019": 0.0,
			"0.02": 0.0,
			"0.021": 0.0,
			"0.022": 0.0,
			"0.023": 0.0,
			"0.024": 0.0,
			"0.025": 0.0
		}
	}
}
