{
	 "smiles": "CC1=CC2=C(O1)C1=C(CCC2(C)C2=CC=CC=C2)OC2=C1C=CC=C2", 
	 "Tm": 408.15, 
	 "num_atms": 45, 
	 "gaussian": { 
		 "optdone": 1, 
		 "sigma_profile": "yes", 
		 "theory": "DFT", 
		 "functional": "B3LYP", 
		 "basiset": "6-31G**", 
		 "properties": { 
			 "R2extent": 8393.8994, 
			 "electric_dipole_moment_norm": 1.67986248247, 
			 "electric_quadrupole_moment_norm": 8.81607542107, 
			 "total_energy": -1038.94955635, 
			 "HOMO_LUMO_gap": 0.16432, 
			 "cosmo_polarized_energy": -8.37, 
			 "cosmo_cavitation_energy": 45.72, 
			 "cosmo_dispersion_energy": -32.01, 
			 "cosmo_repulsion_energy": 2.4, 
			 "cosmo_total_nonelectrostatic_energy": 16.11, 
			 "SMD_solvation_energy": 7.78 
		},
		"coords": [
			{
				"x": -4.1216965745,
				"y": -0.7570582093,
				"z": 1.9205856186,
				"element": "C" 
			},
			{
				"x": -2.6938083567,
				"y": -0.4269327404,
				"z": 1.6647753667,
				"element": "C" 
			},
			{
				"x": -1.5512414505,
				"y": -0.5457996262,
				"z": 2.3961401084,
				"element": "C" 
			},
			{
				"x": -0.46485891,
				"y": -0.0395563276,
				"z": 1.5978213453,
				"element": "C" 
			},
			{
				"x": -1.0418377199,
				"y": 0.3540907582,
				"z": 0.4109952547,
				"element": "C" 
			},
			{
				"x": -2.3961609077,
				"y": 0.1241041941,
				"z": 0.4485232905,
				"element": "O" 
			},
			{
				"x": -0.5213338683,
				"y": 0.9094425062,
				"z": -0.8169495015,
				"element": "C" 
			},
			{
				"x": 0.7903505292,
				"y": 1.2212562774,
				"z": -1.052877352,
				"element": "C" 
			},
			{
				"x": 2.0049007243,
				"y": 1.1273863585,
				"z": -0.1981945825,
				"element": "C" 
			},
			{
				"x": 1.7262510473,
				"y": 1.2301381023,
				"z": 1.3113923631,
				"element": "C" 
			},
			{
				"x": 1.00073055,
				"y": 0.0330710501,
				"z": 2.0056773782,
				"element": "C" 
			},
			{
				"x": 1.0582957432,
				"y": 0.3089028338,
				"z": 3.5329787402,
				"element": "C" 
			},
			{
				"x": 1.7554499942,
				"y": -1.2827954047,
				"z": 1.7024133356,
				"element": "C" 
			},
			{
				"x": 1.1607262111,
				"y": -2.348446316,
				"z": 1.0142112565,
				"element": "C" 
			},
			{
				"x": 1.8685794189,
				"y": -3.5238724395,
				"z": 0.7488472291,
				"element": "C" 
			},
			{
				"x": 3.1922332856,
				"y": -3.6598494146,
				"z": 1.1628676428,
				"element": "C" 
			},
			{
				"x": 3.8030853231,
				"y": -2.6055139195,
				"z": 1.8448776695,
				"element": "C" 
			},
			{
				"x": 3.0928799162,
				"y": -1.4353152001,
				"z": 2.1095836181,
				"element": "C" 
			},
			{
				"x": 0.9741744424,
				"y": 1.7070533002,
				"z": -2.3271272312,
				"element": "O" 
			},
			{
				"x": -0.257154154,
				"y": 1.7075111162,
				"z": -2.9291367071,
				"element": "C" 
			},
			{
				"x": -1.2362163567,
				"y": 1.2240772602,
				"z": -2.0432250765,
				"element": "C" 
			},
			{
				"x": -2.5666478474,
				"y": 1.1521544492,
				"z": -2.4828569145,
				"element": "C" 
			},
			{
				"x": -2.8578414953,
				"y": 1.5648756403,
				"z": -3.781357809,
				"element": "C" 
			},
			{
				"x": -1.8545924088,
				"y": 2.0445345866,
				"z": -4.6427027562,
				"element": "C" 
			},
			{
				"x": -0.525594639,
				"y": 2.1244724904,
				"z": -4.2262817097,
				"element": "C" 
			},
			{
				"x": -4.2287142043,
				"y": -1.1942980745,
				"z": 2.9159898161,
				"element": "H" 
			},
			{
				"x": -4.5065794279,
				"y": -1.4760897832,
				"z": 1.1876791475,
				"element": "H" 
			},
			{
				"x": -4.7570686798,
				"y": 0.1351251713,
				"z": 1.8686008314,
				"element": "H" 
			},
			{
				"x": -1.4897102751,
				"y": -0.9511021338,
				"z": 3.3954782129,
				"element": "H" 
			},
			{
				"x": 2.6800578344,
				"y": 1.9412853889,
				"z": -0.4882350288,
				"element": "H" 
			},
			{
				"x": 2.5456772676,
				"y": 0.1953626048,
				"z": -0.4130740896,
				"element": "H" 
			},
			{
				"x": 1.1536601833,
				"y": 2.1425994422,
				"z": 1.5147169606,
				"element": "H" 
			},
			{
				"x": 2.6949292642,
				"y": 1.3568891493,
				"z": 1.8058897686,
				"element": "H" 
			},
			{
				"x": 2.089021674,
				"y": 0.4425959561,
				"z": 3.8714908898,
				"element": "H" 
			},
			{
				"x": 0.6318760683,
				"y": -0.5201765158,
				"z": 4.1031068559,
				"element": "H" 
			},
			{
				"x": 0.5005562031,
				"y": 1.2183118394,
				"z": 3.7779558324,
				"element": "H" 
			},
			{
				"x": 0.1319940411,
				"y": -2.260815819,
				"z": 0.683919506,
				"element": "H" 
			},
			{
				"x": 1.3785166219,
				"y": -4.3330537372,
				"z": 0.2142630125,
				"element": "H" 
			},
			{
				"x": 3.743115413,
				"y": -4.5730433826,
				"z": 0.956736008,
				"element": "H" 
			},
			{
				"x": 4.8350587807,
				"y": -2.693207418,
				"z": 2.1737344807,
				"element": "H" 
			},
			{
				"x": 3.5943725614,
				"y": -0.6321229638,
				"z": 2.6417381623,
				"element": "H" 
			},
			{
				"x": -3.3437397503,
				"y": 0.7838015996,
				"z": -1.8238802236,
				"element": "H" 
			},
			{
				"x": -3.8825473411,
				"y": 1.51569893,
				"z": -4.1381797471,
				"element": "H" 
			},
			{
				"x": -2.1172598474,
				"y": 2.3580722981,
				"z": -5.6486098374,
				"element": "H" 
			},
			{
				"x": 0.2634111161,
				"y": 2.4908361225,
				"z": -4.8741011354,
				"element": "H" 
			}
		],
		 "valence_orbital": [ 
			{
				"type": "occ",
				"energy": -0.24634,
				"method": "rhf"
			},
			{
				"type": "occ",
				"energy": -0.24016,
				"method": "rhf"
			},
			{
				"type": "occ",
				"energy": -0.2361,
				"method": "rhf"
			},
			{
				"type": "occ",
				"energy": -0.22657,
				"method": "rhf"
			},
			{
				"type": "occ",
				"energy": -0.18334,
				"method": "rhf"
			},
			{
				"type": "unocc",
				"energy": -0.01902,
				"method": "rhf"
			},
			{
				"type": "unocc",
				"energy": -0.00241,
				"method": "rhf"
			},
			{
				"type": "unocc",
				"energy": 0.00358,
				"method": "rhf"
			},
			{
				"type": "unocc",
				"energy": 0.00982,
				"method": "rhf"
			},
			{
				"type": "unocc",
				"energy": 0.02069,
				"method": "rhf"
			}
		],
		"cosmo_sigma_profile": { 
			"-0.025": 0.0,
			"-0.024": 0.0,
			"-0.023": 0.0,
			"-0.022": 0.0,
			"-0.021": 0.0,
			"-0.02": 0.0,
			"-0.019": 0.0,
			"-0.018": 0.0,
			"-0.017": 0.0,
			"-0.016": 0.0,
			"-0.015": 0.0,
			"-0.014": 0.0,
			"-0.013": 0.0,
			"-0.012": 0.0,
			"-0.011": 0.0,
			"-0.01": 0.0,
			"-0.009": 0.0,
			"-0.008": 0.000801764546391,
			"-0.007": 1.62111945883,
			"-0.006": 9.04703939537,
			"-0.005": 24.5213705645,
			"-0.004": 31.9549113624,
			"-0.003": 37.6539858982,
			"-0.002": 33.9069040193,
			"-0.001": 34.375496244,
			"0.0": 29.9370159107,
			"0.001": 30.0298066224,
			"0.002": 28.4147217288,
			"0.003": 33.2970021061,
			"0.004": 26.8749626559,
			"0.005": 22.0641697136,
			"0.006": 15.4446780829,
			"0.007": 2.68422513877,
			"0.008": 1.48338102441,
			"0.009": 0.422933243118,
			"0.01": 0.0,
			"0.011": 0.0,
			"0.012": 0.0,
			"0.013": 0.0,
			"0.014": 0.0,
			"0.015": 0.0,
			"0.016": 0.0,
			"0.017": 0.0,
			"0.018": 0.0,
			"0.019": 0.0,
			"0.02": 0.0,
			"0.021": 0.0,
			"0.022": 0.0,
			"0.023": 0.0,
			"0.024": 0.0,
			"0.025": 0.0
		}
	}
}
