{
	 "smiles": "NS(=O)(=O)C1=C(Cl)C=C2NC(NS(=O)(=O)C2=C1)C(Cl)Cl", 
	 "Tm": 543.15, 
	 "num_atms": 28, 
	 "gaussian": { 
		 "optdone": 1, 
		 "sigma_profile": "yes", 
		 "theory": "DFT", 
		 "functional": "B3LYP", 
		 "basiset": "6-31G**", 
		 "properties": { 
			 "R2extent": 9883.2535, 
			 "electric_dipole_moment_norm": 5.46865143614, 
			 "electric_quadrupole_moment_norm": 39.6133600788, 
			 "total_energy": -2951.60020144, 
			 "HOMO_LUMO_gap": 0.18969, 
			 "cosmo_polarized_energy": -39.56, 
			 "cosmo_cavitation_energy": 39.51, 
			 "cosmo_dispersion_energy": -29.37, 
			 "cosmo_repulsion_energy": 2.18, 
			 "cosmo_total_nonelectrostatic_energy": 12.32, 
			 "SMD_solvation_energy": 3.35 
		},
		"coords": [
			{
				"x": -0.293508964,
				"y": 3.4367406513,
				"z": 4.2269863262,
				"element": "N" 
			},
			{
				"x": -0.5564445106,
				"y": 4.2258396239,
				"z": 2.7579744455,
				"element": "S" 
			},
			{
				"x": -1.9829177164,
				"y": 4.5399198389,
				"z": 2.6753004949,
				"element": "O" 
			},
			{
				"x": 0.472622936,
				"y": 5.2576068007,
				"z": 2.6250867699,
				"element": "O" 
			},
			{
				"x": -0.1987897864,
				"y": 2.9207170059,
				"z": 1.5668007511,
				"element": "C" 
			},
			{
				"x": -0.3055913938,
				"y": 3.1540003908,
				"z": 0.1811605983,
				"element": "C" 
			},
			{
				"x": -0.7947754249,
				"y": 4.7025752737,
				"z": -0.4523423847,
				"element": "Cl" 
			},
			{
				"x": -0.0195385843,
				"y": 2.1520305029,
				"z": -0.7333904814,
				"element": "C" 
			},
			{
				"x": 0.3805288939,
				"y": 0.8689444576,
				"z": -0.3109807501,
				"element": "C" 
			},
			{
				"x": 0.7034294843,
				"y": -0.0778026378,
				"z": -1.2593630832,
				"element": "N" 
			},
			{
				"x": 0.9663251164,
				"y": -1.4838666529,
				"z": -0.9919099266,
				"element": "C" 
			},
			{
				"x": 1.5412772193,
				"y": -1.7073583306,
				"z": 0.3169878164,
				"element": "N" 
			},
			{
				"x": 0.9648958422,
				"y": -0.9440167449,
				"z": 1.7249470643,
				"element": "S" 
			},
			{
				"x": -0.2075715184,
				"y": -1.6431562001,
				"z": 2.2320213546,
				"element": "O" 
			},
			{
				"x": 2.1567992242,
				"y": -0.7936551332,
				"z": 2.5612998765,
				"element": "O" 
			},
			{
				"x": 0.4783670835,
				"y": 0.6429501775,
				"z": 1.0775818231,
				"element": "C" 
			},
			{
				"x": 0.1978626871,
				"y": 1.6568593225,
				"z": 1.9913762143,
				"element": "C" 
			},
			{
				"x": -0.2606515928,
				"y": -2.3721265759,
				"z": -1.3576580302,
				"element": "C" 
			},
			{
				"x": -1.78770238,
				"y": -1.9059294214,
				"z": -0.5508416684,
				"element": "Cl" 
			},
			{
				"x": 0.1358654167,
				"y": -4.1047344909,
				"z": -1.120950188,
				"element": "Cl" 
			},
			{
				"x": 0.4549994143,
				"y": 3.9014747942,
				"z": 4.7333152474,
				"element": "H" 
			},
			{
				"x": -1.1586643812,
				"y": 3.4097973216,
				"z": 4.7594111326,
				"element": "H" 
			},
			{
				"x": -0.1062848499,
				"y": 2.3669268298,
				"z": -1.7933148533,
				"element": "H" 
			},
			{
				"x": 0.5159364536,
				"y": 0.1709741933,
				"z": -2.2196972244,
				"element": "H" 
			},
			{
				"x": 1.7334524297,
				"y": -1.8196939602,
				"z": -1.7002526006,
				"element": "H" 
			},
			{
				"x": 2.5535680386,
				"y": -1.6386458468,
				"z": 0.3290863785,
				"element": "H" 
			},
			{
				"x": 0.2925152796,
				"y": 1.4678065713,
				"z": 3.0542374689,
				"element": "H" 
			},
			{
				"x": -0.4465044168,
				"y": -2.2506777612,
				"z": -2.4253725715,
				"element": "H" 
			}
		],
		 "valence_orbital": [ 
			{
				"type": "occ",
				"energy": -0.30816,
				"method": "rhf"
			},
			{
				"type": "occ",
				"energy": -0.30003,
				"method": "rhf"
			},
			{
				"type": "occ",
				"energy": -0.29611,
				"method": "rhf"
			},
			{
				"type": "occ",
				"energy": -0.27804,
				"method": "rhf"
			},
			{
				"type": "occ",
				"energy": -0.24968,
				"method": "rhf"
			},
			{
				"type": "unocc",
				"energy": -0.05999,
				"method": "rhf"
			},
			{
				"type": "unocc",
				"energy": -0.04681,
				"method": "rhf"
			},
			{
				"type": "unocc",
				"energy": -0.02132,
				"method": "rhf"
			},
			{
				"type": "unocc",
				"energy": -0.00169,
				"method": "rhf"
			},
			{
				"type": "unocc",
				"energy": 0.00529,
				"method": "rhf"
			}
		],
		"cosmo_sigma_profile": { 
			"-0.025": 0.0,
			"-0.024": 0.0,
			"-0.023": 0.0,
			"-0.022": 0.0,
			"-0.021": 0.0,
			"-0.02": 0.0,
			"-0.019": 0.0,
			"-0.018": 0.186834387785,
			"-0.017": 3.10999621647,
			"-0.016": 4.27367556531,
			"-0.015": 5.97701404147,
			"-0.014": 5.72973071748,
			"-0.013": 6.19395217117,
			"-0.012": 7.26808960372,
			"-0.011": 6.83600569723,
			"-0.01": 5.85718599218,
			"-0.009": 6.76926887477,
			"-0.008": 5.69583464192,
			"-0.007": 6.37864057742,
			"-0.006": 5.96775087113,
			"-0.005": 7.74340399038,
			"-0.004": 7.88019857555,
			"-0.003": 10.4464338354,
			"-0.002": 14.29619067,
			"-0.001": 22.0774618564,
			"0.0": 23.2155784351,
			"0.001": 18.2592470935,
			"0.002": 18.7932287357,
			"0.003": 21.1359033249,
			"0.004": 21.7022373396,
			"0.005": 11.0384978893,
			"0.006": 7.9111040239,
			"0.007": 8.89683231384,
			"0.008": 8.74512688519,
			"0.009": 11.2210058304,
			"0.01": 22.7761755646,
			"0.011": 14.2822539339,
			"0.012": 0.770957460344,
			"0.013": 0.0,
			"0.014": 0.0,
			"0.015": 0.0,
			"0.016": 0.0,
			"0.017": 0.0,
			"0.018": 0.0,
			"0.019": 0.0,
			"0.02": 0.0,
			"0.021": 0.0,
			"0.022": 0.0,
			"0.023": 0.0,
			"0.024": 0.0,
			"0.025": 0.0
		}
	}
}
