{
	 "smiles": "NC1=CC(=CC=C1)C(=O)NCC1=C(F)C=CC=C1", 
	 "Tm": 478.15, 
	 "num_atms": 31, 
	 "gaussian": { 
		 "optdone": 1, 
		 "sigma_profile": "yes", 
		 "theory": "DFT", 
		 "functional": "B3LYP", 
		 "basiset": "6-31G**", 
		 "properties": { 
			 "R2extent": 5348.5661, 
			 "electric_dipole_moment_norm": 4.71550781677, 
			 "electric_quadrupole_moment_norm": 18.8009931778, 
			 "total_energy": -825.904138556, 
			 "HOMO_LUMO_gap": 0.17933, 
			 "cosmo_polarized_energy": -17.13, 
			 "cosmo_cavitation_energy": 35.59, 
			 "cosmo_dispersion_energy": -24.59, 
			 "cosmo_repulsion_energy": 1.9, 
			 "cosmo_total_nonelectrostatic_energy": 12.91, 
			 "SMD_solvation_energy": 6.96 
		},
		"coords": [
			{
				"x": -1.6546980424,
				"y": -0.4085172335,
				"z": -2.2051933923,
				"element": "N" 
			},
			{
				"x": -0.3768970215,
				"y": -0.959173428,
				"z": -2.0988813953,
				"element": "C" 
			},
			{
				"x": 0.2735108791,
				"y": -1.0150835017,
				"z": -0.8544211821,
				"element": "C" 
			},
			{
				"x": 1.5239857047,
				"y": -1.630467031,
				"z": -0.7279751096,
				"element": "C" 
			},
			{
				"x": 2.1357188378,
				"y": -2.2138481758,
				"z": -1.8456059462,
				"element": "C" 
			},
			{
				"x": 1.5010281405,
				"y": -2.1437051451,
				"z": -3.0836989337,
				"element": "C" 
			},
			{
				"x": 0.260363687,
				"y": -1.5231608163,
				"z": -3.2173285676,
				"element": "C" 
			},
			{
				"x": 2.2237346383,
				"y": -1.7776079132,
				"z": 0.5935281248,
				"element": "C" 
			},
			{
				"x": 2.8579360402,
				"y": -2.7912454039,
				"z": 0.8657604537,
				"element": "O" 
			},
			{
				"x": 2.1162949158,
				"y": -0.7604137855,
				"z": 1.525402446,
				"element": "N" 
			},
			{
				"x": 1.8939592186,
				"y": 0.6570939194,
				"z": 1.2834896411,
				"element": "C" 
			},
			{
				"x": 0.6868748512,
				"y": 1.23183157,
				"z": 2.0077146837,
				"element": "C" 
			},
			{
				"x": 0.4529552158,
				"y": 2.6076817491,
				"z": 1.9546025002,
				"element": "C" 
			},
			{
				"x": 1.3240863705,
				"y": 3.3719055266,
				"z": 1.2494576588,
				"element": "F" 
			},
			{
				"x": -0.6208715702,
				"y": 3.2205513377,
				"z": 2.583470702,
				"element": "C" 
			},
			{
				"x": -1.5141585011,
				"y": 2.4248490872,
				"z": 3.3055279462,
				"element": "C" 
			},
			{
				"x": -1.314156887,
				"y": 1.0462847165,
				"z": 3.3812448169,
				"element": "C" 
			},
			{
				"x": -0.2211132549,
				"y": 0.4587341015,
				"z": 2.737246608,
				"element": "C" 
			},
			{
				"x": -1.9137850045,
				"y": -0.092171711,
				"z": -3.1292285535,
				"element": "H" 
			},
			{
				"x": -1.8967662531,
				"y": 0.2649601352,
				"z": -1.4916536665,
				"element": "H" 
			},
			{
				"x": -0.2237209209,
				"y": -0.6023498394,
				"z": 0.0187207275,
				"element": "H" 
			},
			{
				"x": 3.0886633287,
				"y": -2.7154957113,
				"z": -1.7239162325,
				"element": "H" 
			},
			{
				"x": 1.973420859,
				"y": -2.5805410212,
				"z": -3.9590522368,
				"element": "H" 
			},
			{
				"x": -0.2292098131,
				"y": -1.484714326,
				"z": -4.1875050464,
				"element": "H" 
			},
			{
				"x": 2.632069439,
				"y": -0.9944753796,
				"z": 2.3653902239,
				"element": "H" 
			},
			{
				"x": 1.7871663591,
				"y": 0.8166527081,
				"z": 0.2075488216,
				"element": "H" 
			},
			{
				"x": 2.7869350794,
				"y": 1.2223082663,
				"z": 1.5804359945,
				"element": "H" 
			},
			{
				"x": -0.7422756306,
				"y": 4.2954326195,
				"z": 2.502393363,
				"element": "H" 
			},
			{
				"x": -2.3603205828,
				"y": 2.8859101629,
				"z": 3.8057895262,
				"element": "H" 
			},
			{
				"x": -2.0054902252,
				"y": 0.425441402,
				"z": 3.9426891085,
				"element": "H" 
			},
			{
				"x": -0.0571398575,
				"y": -0.6127668798,
				"z": 2.7952469158,
				"element": "H" 
			}
		],
		 "valence_orbital": [ 
			{
				"type": "occ",
				"energy": -0.25862,
				"method": "rhf"
			},
			{
				"type": "occ",
				"energy": -0.25399,
				"method": "rhf"
			},
			{
				"type": "occ",
				"energy": -0.24693,
				"method": "rhf"
			},
			{
				"type": "occ",
				"energy": -0.24079,
				"method": "rhf"
			},
			{
				"type": "occ",
				"energy": -0.2059,
				"method": "rhf"
			},
			{
				"type": "unocc",
				"energy": -0.02657,
				"method": "rhf"
			},
			{
				"type": "unocc",
				"energy": -0.01434,
				"method": "rhf"
			},
			{
				"type": "unocc",
				"energy": -0.00763,
				"method": "rhf"
			},
			{
				"type": "unocc",
				"energy": 0.01027,
				"method": "rhf"
			},
			{
				"type": "unocc",
				"energy": 0.05878,
				"method": "rhf"
			}
		],
		"cosmo_sigma_profile": { 
			"-0.025": 0.0,
			"-0.024": 0.0,
			"-0.023": 0.0,
			"-0.022": 0.0,
			"-0.021": 0.0,
			"-0.02": 0.0,
			"-0.019": 0.0,
			"-0.018": 0.0,
			"-0.017": 0.0,
			"-0.016": 0.0,
			"-0.015": 0.0,
			"-0.014": 0.181580962458,
			"-0.013": 1.40287453056,
			"-0.012": 4.13453075599,
			"-0.011": 3.56672533485,
			"-0.01": 3.59998674766,
			"-0.009": 5.10307733689,
			"-0.008": 3.55695418901,
			"-0.007": 6.35922561705,
			"-0.006": 12.3039382693,
			"-0.005": 18.0384472592,
			"-0.004": 20.9595583025,
			"-0.003": 21.8029748567,
			"-0.002": 20.1134197002,
			"-0.001": 16.3832464923,
			"0.0": 15.644120947,
			"0.001": 18.2717060947,
			"0.002": 17.0006827014,
			"0.003": 18.2685004389,
			"0.004": 24.2192445359,
			"0.005": 19.9771504926,
			"0.006": 8.07218879361,
			"0.007": 2.47947914188,
			"0.008": 2.43002136303,
			"0.009": 1.95061651219,
			"0.01": 1.55545853156,
			"0.011": 3.33822434152,
			"0.012": 2.54791906124,
			"0.013": 4.75482127645,
			"0.014": 4.99495470874,
			"0.015": 0.731014032653,
			"0.016": 0.0,
			"0.017": 0.0,
			"0.018": 0.0,
			"0.019": 0.0,
			"0.02": 0.0,
			"0.021": 0.0,
			"0.022": 0.0,
			"0.023": 0.0,
			"0.024": 0.0,
			"0.025": 0.0
		}
	}
}
