{
	 "smiles": "COC(=O)C(=O)C1CCC2=CC(OC)=CC=C2C1=O", 
	 "Tm": 344.15, 
	 "num_atms": 33, 
	 "gaussian": { 
		 "optdone": 1, 
		 "sigma_profile": "yes", 
		 "theory": "DFT", 
		 "functional": "B3LYP", 
		 "basiset": "6-31G**", 
		 "properties": { 
			 "R2extent": 7156.7283, 
			 "electric_dipole_moment_norm": 3.86806221511, 
			 "electric_quadrupole_moment_norm": 14.8189015055, 
			 "total_energy": -918.038200225, 
			 "HOMO_LUMO_gap": 0.17002, 
			 "cosmo_polarized_energy": -15.45, 
			 "cosmo_cavitation_energy": 37.17, 
			 "cosmo_dispersion_energy": -26.27, 
			 "cosmo_repulsion_energy": 2.02, 
			 "cosmo_total_nonelectrostatic_energy": 12.93, 
			 "SMD_solvation_energy": 9.19 
		},
		"coords": [
			{
				"x": 4.4548600776,
				"y": -4.3454911639,
				"z": -1.465024413,
				"element": "C" 
			},
			{
				"x": 3.5715745566,
				"y": -3.7613655047,
				"z": -0.4871022289,
				"element": "O" 
			},
			{
				"x": 2.2813863469,
				"y": -4.0703935399,
				"z": -0.6316997132,
				"element": "C" 
			},
			{
				"x": 1.8163814151,
				"y": -4.809514845,
				"z": -1.4714353278,
				"element": "O" 
			},
			{
				"x": 1.4107350225,
				"y": -3.4337875452,
				"z": 0.4657443092,
				"element": "C" 
			},
			{
				"x": 1.7251740878,
				"y": -3.5288595651,
				"z": 1.6333638618,
				"element": "O" 
			},
			{
				"x": 0.1251247296,
				"y": -2.7840854527,
				"z": -0.0351719881,
				"element": "C" 
			},
			{
				"x": -0.9199930657,
				"y": -2.5734973878,
				"z": 1.0671966815,
				"element": "C" 
			},
			{
				"x": -0.5963062253,
				"y": -1.3679034479,
				"z": 1.9583518209,
				"element": "C" 
			},
			{
				"x": -0.3678458658,
				"y": -0.1123060983,
				"z": 1.1481085526,
				"element": "C" 
			},
			{
				"x": -0.6672511604,
				"y": 1.1426789992,
				"z": 1.6889419238,
				"element": "C" 
			},
			{
				"x": -0.4232634959,
				"y": 2.3096190493,
				"z": 0.9545701858,
				"element": "C" 
			},
			{
				"x": -0.686682171,
				"y": 3.5646474701,
				"z": 1.3975892621,
				"element": "O" 
			},
			{
				"x": -1.2405543555,
				"y": 3.7303976743,
				"z": 2.6966972804,
				"element": "C" 
			},
			{
				"x": 0.1287342757,
				"y": 2.2280659738,
				"z": -0.3388849672,
				"element": "C" 
			},
			{
				"x": 0.4260646116,
				"y": 0.9912017117,
				"z": -0.8732406698,
				"element": "C" 
			},
			{
				"x": 0.1806715436,
				"y": -0.192535545,
				"z": -0.1469665351,
				"element": "C" 
			},
			{
				"x": 0.5315057432,
				"y": -1.4838537351,
				"z": -0.7721443564,
				"element": "C" 
			},
			{
				"x": 1.1431884962,
				"y": -1.5624876395,
				"z": -1.8298987304,
				"element": "O" 
			},
			{
				"x": 5.4454514649,
				"y": -3.9577397854,
				"z": -1.2312482983,
				"element": "H" 
			},
			{
				"x": 4.150189256,
				"y": -4.0516592327,
				"z": -2.4720415639,
				"element": "H" 
			},
			{
				"x": 4.4386203995,
				"y": -5.4352073378,
				"z": -1.3880842561,
				"element": "H" 
			},
			{
				"x": -0.2500687546,
				"y": -3.4456394708,
				"z": -0.824005533,
				"element": "H" 
			},
			{
				"x": -1.8952630954,
				"y": -2.4197562144,
				"z": 0.5907976778,
				"element": "H" 
			},
			{
				"x": -0.9955604255,
				"y": -3.4784423386,
				"z": 1.6778101869,
				"element": "H" 
			},
			{
				"x": -1.406274997,
				"y": -1.2031079042,
				"z": 2.6774039185,
				"element": "H" 
			},
			{
				"x": 0.3030138351,
				"y": -1.5917960248,
				"z": 2.5445010643,
				"element": "H" 
			},
			{
				"x": -1.0907281705,
				"y": 1.1946967674,
				"z": 2.6855118185,
				"element": "H" 
			},
			{
				"x": -2.2193494951,
				"y": 3.2426876416,
				"z": 2.7818340558,
				"element": "H" 
			},
			{
				"x": -0.5718086388,
				"y": 3.3372340877,
				"z": 3.4720813276,
				"element": "H" 
			},
			{
				"x": -1.3605402827,
				"y": 4.8055096139,
				"z": 2.8353140553,
				"element": "H" 
			},
			{
				"x": 0.3071338844,
				"y": 3.1474144033,
				"z": -0.8862249651,
				"element": "H" 
			},
			{
				"x": 0.8557804528,
				"y": 0.8998763862,
				"z": -1.8652444364,
				"element": "H" 
			}
		],
		 "valence_orbital": [ 
			{
				"type": "occ",
				"energy": -0.30758,
				"method": "rhf"
			},
			{
				"type": "occ",
				"energy": -0.26008,
				"method": "rhf"
			},
			{
				"type": "occ",
				"energy": -0.25363,
				"method": "rhf"
			},
			{
				"type": "occ",
				"energy": -0.24418,
				"method": "rhf"
			},
			{
				"type": "occ",
				"energy": -0.23253,
				"method": "rhf"
			},
			{
				"type": "unocc",
				"energy": -0.06251,
				"method": "rhf"
			},
			{
				"type": "unocc",
				"energy": -0.04928,
				"method": "rhf"
			},
			{
				"type": "unocc",
				"energy": -0.01166,
				"method": "rhf"
			},
			{
				"type": "unocc",
				"energy": 0.02911,
				"method": "rhf"
			},
			{
				"type": "unocc",
				"energy": 0.05461,
				"method": "rhf"
			}
		],
		"cosmo_sigma_profile": { 
			"-0.025": 0.0,
			"-0.024": 0.0,
			"-0.023": 0.0,
			"-0.022": 0.0,
			"-0.021": 0.0,
			"-0.02": 0.0,
			"-0.019": 0.0,
			"-0.018": 0.0,
			"-0.017": 0.0,
			"-0.016": 0.0,
			"-0.015": 0.0,
			"-0.014": 0.0,
			"-0.013": 0.0,
			"-0.012": 0.0,
			"-0.011": 0.0,
			"-0.01": 0.0,
			"-0.009": 0.0,
			"-0.008": 0.236712321559,
			"-0.007": 7.70818003191,
			"-0.006": 23.5040208496,
			"-0.005": 28.7846614333,
			"-0.004": 35.0682697742,
			"-0.003": 27.2229974416,
			"-0.002": 21.2124813672,
			"-0.001": 19.2449705951,
			"0.0": 13.0534188814,
			"0.001": 12.9628524054,
			"0.002": 16.9383135203,
			"0.003": 20.5137297626,
			"0.004": 11.4057655885,
			"0.005": 6.75343202867,
			"0.006": 6.93610260812,
			"0.007": 6.69735400077,
			"0.008": 8.80493057552,
			"0.009": 10.2977843058,
			"0.01": 9.13809071878,
			"0.011": 5.94773501742,
			"0.012": 2.39654279724,
			"0.013": 0.0,
			"0.014": 0.0,
			"0.015": 0.0,
			"0.016": 0.0,
			"0.017": 0.0,
			"0.018": 0.0,
			"0.019": 0.0,
			"0.02": 0.0,
			"0.021": 0.0,
			"0.022": 0.0,
			"0.023": 0.0,
			"0.024": 0.0,
			"0.025": 0.0
		}
	}
}
