{
	 "smiles": "CC1(NC(=O)NC1=O)C1=CC(Cl)=CC=C1", 
	 "Tm": 474.15, 
	 "num_atms": 24, 
	 "gaussian": { 
		 "optdone": 1, 
		 "sigma_profile": "yes", 
		 "theory": "DFT", 
		 "functional": "B3LYP", 
		 "basiset": "6-31G**", 
		 "properties": { 
			 "R2extent": 4404.8583, 
			 "electric_dipole_moment_norm": 2.57028207401, 
			 "electric_quadrupole_moment_norm": 17.5834136307, 
			 "total_energy": -1106.67574374, 
			 "HOMO_LUMO_gap": 0.21948, 
			 "cosmo_polarized_energy": -16.99, 
			 "cosmo_cavitation_energy": 30.1, 
			 "cosmo_dispersion_energy": -21.55, 
			 "cosmo_repulsion_energy": 1.7, 
			 "cosmo_total_nonelectrostatic_energy": 10.25, 
			 "SMD_solvation_energy": 6.56 
		},
		"coords": [
			{
				"x": -0.7820645052,
				"y": 1.2663515162,
				"z": -0.4685740718,
				"element": "C" 
			},
			{
				"x": 0.0092348064,
				"y": -0.0203374646,
				"z": -0.153421274,
				"element": "C" 
			},
			{
				"x": 0.8548517151,
				"y": -0.4181341332,
				"z": -1.2769078746,
				"element": "N" 
			},
			{
				"x": 0.4439779794,
				"y": -1.5739292757,
				"z": -1.8994579893,
				"element": "C" 
			},
			{
				"x": 0.8781782111,
				"y": -2.0816343765,
				"z": -2.9105744364,
				"element": "O" 
			},
			{
				"x": -0.614690375,
				"y": -2.0679392893,
				"z": -1.109429881,
				"element": "N" 
			},
			{
				"x": -0.9765630485,
				"y": -1.2212846048,
				"z": -0.0869130436,
				"element": "C" 
			},
			{
				"x": -1.8913509461,
				"y": -1.3629456955,
				"z": 0.6957856655,
				"element": "O" 
			},
			{
				"x": 0.7865210248,
				"y": 0.1093653805,
				"z": 1.1635211185,
				"element": "C" 
			},
			{
				"x": 0.0840925648,
				"y": 0.344282693,
				"z": 2.3547348903,
				"element": "C" 
			},
			{
				"x": 0.7874474174,
				"y": 0.4924265089,
				"z": 3.5469326317,
				"element": "C" 
			},
			{
				"x": -0.103751866,
				"y": 0.7824981777,
				"z": 5.0347664822,
				"element": "Cl" 
			},
			{
				"x": 2.179611565,
				"y": 0.4154400824,
				"z": 3.5907095376,
				"element": "C" 
			},
			{
				"x": 2.8684593257,
				"y": 0.171727495,
				"z": 2.4043513024,
				"element": "C" 
			},
			{
				"x": 2.1812295845,
				"y": 0.0153292708,
				"z": 1.1990698361,
				"element": "C" 
			},
			{
				"x": -0.0980081202,
				"y": 2.116890288,
				"z": -0.5461598976,
				"element": "H" 
			},
			{
				"x": -1.5029815629,
				"y": 1.4749541766,
				"z": 0.324038937,
				"element": "H" 
			},
			{
				"x": -1.3244630179,
				"y": 1.1598389321,
				"z": -1.4127758998,
				"element": "H" 
			},
			{
				"x": 1.4265545166,
				"y": 0.2326867156,
				"z": -1.7944159484,
				"element": "H" 
			},
			{
				"x": -1.0956420724,
				"y": -2.9283347306,
				"z": -1.3304532129,
				"element": "H" 
			},
			{
				"x": -0.9984583203,
				"y": 0.375137377,
				"z": 2.3594606113,
				"element": "H" 
			},
			{
				"x": 2.7042793685,
				"y": 0.5379244837,
				"z": 4.5315071565,
				"element": "H" 
			},
			{
				"x": 3.9518693289,
				"y": 0.0992993145,
				"z": 2.4197736821,
				"element": "H" 
			},
			{
				"x": 2.7304664264,
				"y": -0.1932128419,
				"z": 0.288231678,
				"element": "H" 
			}
		],
		 "valence_orbital": [ 
			{
				"type": "occ",
				"energy": -0.29644,
				"method": "rhf"
			},
			{
				"type": "occ",
				"energy": -0.28112,
				"method": "rhf"
			},
			{
				"type": "occ",
				"energy": -0.27309,
				"method": "rhf"
			},
			{
				"type": "occ",
				"energy": -0.26347,
				"method": "rhf"
			},
			{
				"type": "occ",
				"energy": -0.25127,
				"method": "rhf"
			},
			{
				"type": "unocc",
				"energy": -0.03179,
				"method": "rhf"
			},
			{
				"type": "unocc",
				"energy": -0.0196,
				"method": "rhf"
			},
			{
				"type": "unocc",
				"energy": -0.00863,
				"method": "rhf"
			},
			{
				"type": "unocc",
				"energy": 0.02787,
				"method": "rhf"
			},
			{
				"type": "unocc",
				"energy": 0.05053,
				"method": "rhf"
			}
		],
		"cosmo_sigma_profile": { 
			"-0.025": 0.0,
			"-0.024": 0.0,
			"-0.023": 0.0,
			"-0.022": 0.0,
			"-0.021": 0.0,
			"-0.02": 0.0,
			"-0.019": 0.0,
			"-0.018": 0.0,
			"-0.017": 0.489398070433,
			"-0.016": 1.60097834255,
			"-0.015": 2.13841977076,
			"-0.014": 1.74774096705,
			"-0.013": 2.6216485932,
			"-0.012": 1.63445068501,
			"-0.011": 2.15865594025,
			"-0.01": 2.02413208366,
			"-0.009": 2.13916120597,
			"-0.008": 3.10921271754,
			"-0.007": 6.33589501975,
			"-0.006": 11.4981070461,
			"-0.005": 15.1402395653,
			"-0.004": 13.6579215233,
			"-0.003": 15.7158414493,
			"-0.002": 17.970010925,
			"-0.001": 16.9476955143,
			"0.0": 12.7189074255,
			"0.001": 14.6697246419,
			"0.002": 18.6335671781,
			"0.003": 19.4286878379,
			"0.004": 16.3941769536,
			"0.005": 10.3546031131,
			"0.006": 2.21190827688,
			"0.007": 2.40147795918,
			"0.008": 2.06538327618,
			"0.009": 3.32538308781,
			"0.01": 3.93031845378,
			"0.011": 5.64010984934,
			"0.012": 8.11902886781,
			"0.013": 5.01249027133,
			"0.014": 0.353220451088,
			"0.015": 0.0,
			"0.016": 0.0,
			"0.017": 0.0,
			"0.018": 0.0,
			"0.019": 0.0,
			"0.02": 0.0,
			"0.021": 0.0,
			"0.022": 0.0,
			"0.023": 0.0,
			"0.024": 0.0,
			"0.025": 0.0
		}
	}
}
