{
	 "smiles": "CC1=C(F)C=C(F)C(=C1)C(O)=O", 
	 "Tm": 433.15, 
	 "num_atms": 18, 
	 "gaussian": { 
		 "optdone": 1, 
		 "sigma_profile": "yes", 
		 "theory": "DFT", 
		 "functional": "B3LYP", 
		 "basiset": "6-31G**", 
		 "properties": { 
			 "R2extent": 2262.2629, 
			 "electric_dipole_moment_norm": 2.87049783139, 
			 "electric_quadrupole_moment_norm": 7.45177066743, 
			 "total_energy": -658.604173949, 
			 "HOMO_LUMO_gap": 0.20063, 
			 "cosmo_polarized_energy": -9.55, 
			 "cosmo_cavitation_energy": 23.73, 
			 "cosmo_dispersion_energy": -17.23, 
			 "cosmo_repulsion_energy": 1.33, 
			 "cosmo_total_nonelectrostatic_energy": 7.83, 
			 "SMD_solvation_energy": 6.31 
		},
		"coords": [
			{
				"x": -1.1968169556,
				"y": -3.0770973596,
				"z": -1.0965264276,
				"element": "C" 
			},
			{
				"x": -1.0960070071,
				"y": -1.6918360562,
				"z": -0.5116515976,
				"element": "C" 
			},
			{
				"x": -2.2291729542,
				"y": -0.8756635236,
				"z": -0.4199872155,
				"element": "C" 
			},
			{
				"x": -3.4030384579,
				"y": -1.3621753063,
				"z": -0.8668459161,
				"element": "F" 
			},
			{
				"x": -2.2059060657,
				"y": 0.4068464114,
				"z": 0.1065965633,
				"element": "C" 
			},
			{
				"x": -0.992290322,
				"y": 0.905796512,
				"z": 0.5669091938,
				"element": "C" 
			},
			{
				"x": -0.9880371811,
				"y": 2.1436857946,
				"z": 1.0712885267,
				"element": "F" 
			},
			{
				"x": 0.1850139816,
				"y": 0.1444432332,
				"z": 0.5068971235,
				"element": "C" 
			},
			{
				"x": 0.096932987,
				"y": -1.15029208,
				"z": -0.0384024297,
				"element": "C" 
			},
			{
				"x": 1.4762712893,
				"y": 0.6852588219,
				"z": 1.0007008791,
				"element": "C" 
			},
			{
				"x": 2.4937496071,
				"y": -0.2079434973,
				"z": 0.8527649037,
				"element": "O" 
			},
			{
				"x": 1.6569179372,
				"y": 1.7822067271,
				"z": 1.4855337905,
				"element": "O" 
			},
			{
				"x": -1.5602122989,
				"y": -3.0478040072,
				"z": -2.1292728709,
				"element": "H" 
			},
			{
				"x": -0.222480962,
				"y": -3.570979844,
				"z": -1.0914845546,
				"element": "H" 
			},
			{
				"x": -1.8983594054,
				"y": -3.698538938,
				"z": -0.5298401205,
				"element": "H" 
			},
			{
				"x": -3.1054871503,
				"y": 1.0074755875,
				"z": 0.1600945131,
				"element": "H" 
			},
			{
				"x": 1.0021545316,
				"y": -1.7442526773,
				"z": -0.0880526996,
				"element": "H" 
			},
			{
				"x": 3.2803684266,
				"y": 0.2413702017,
				"z": 1.2024783384,
				"element": "H" 
			}
		],
		 "valence_orbital": [ 
			{
				"type": "occ",
				"energy": -0.35563,
				"method": "rhf"
			},
			{
				"type": "occ",
				"energy": -0.32006,
				"method": "rhf"
			},
			{
				"type": "occ",
				"energy": -0.2754,
				"method": "rhf"
			},
			{
				"type": "occ",
				"energy": -0.27071,
				"method": "rhf"
			},
			{
				"type": "occ",
				"energy": -0.25244,
				"method": "rhf"
			},
			{
				"type": "unocc",
				"energy": -0.05181,
				"method": "rhf"
			},
			{
				"type": "unocc",
				"energy": -0.01646,
				"method": "rhf"
			},
			{
				"type": "unocc",
				"energy": 0.04999,
				"method": "rhf"
			},
			{
				"type": "unocc",
				"energy": 0.07222,
				"method": "rhf"
			},
			{
				"type": "unocc",
				"energy": 0.0922,
				"method": "rhf"
			}
		],
		"cosmo_sigma_profile": { 
			"-0.025": 0.0,
			"-0.024": 0.0,
			"-0.023": 0.0,
			"-0.022": 0.0,
			"-0.021": 0.0,
			"-0.02": 0.0,
			"-0.019": 0.0023550900466,
			"-0.018": 0.759075677166,
			"-0.017": 0.619196945259,
			"-0.016": 0.88264259865,
			"-0.015": 1.27645530554,
			"-0.014": 0.614131031161,
			"-0.013": 0.367824883293,
			"-0.012": 0.421861011664,
			"-0.011": 0.855884073196,
			"-0.01": 1.30921308199,
			"-0.009": 1.48158680716,
			"-0.008": 2.17652948211,
			"-0.007": 2.85356245808,
			"-0.006": 5.51297892922,
			"-0.005": 7.48420498844,
			"-0.004": 9.78513926261,
			"-0.003": 10.6540382758,
			"-0.002": 16.0765666008,
			"-0.001": 25.0842966418,
			"0.0": 23.7876017267,
			"0.001": 16.4408617537,
			"0.002": 10.3573434629,
			"0.003": 14.2276882058,
			"0.004": 10.922039588,
			"0.005": 4.33540502744,
			"0.006": 2.97537123584,
			"0.007": 3.32833103444,
			"0.008": 1.84003641491,
			"0.009": 2.36015460953,
			"0.01": 2.33422256717,
			"0.011": 4.33517805643,
			"0.012": 4.40074355847,
			"0.013": 0.118101656724,
			"0.014": 0.0,
			"0.015": 0.0,
			"0.016": 0.0,
			"0.017": 0.0,
			"0.018": 0.0,
			"0.019": 0.0,
			"0.02": 0.0,
			"0.021": 0.0,
			"0.022": 0.0,
			"0.023": 0.0,
			"0.024": 0.0,
			"0.025": 0.0
		}
	}
}
