{
	 "smiles": "C=C1CC(=O)OC1=O", 
	 "Tm": 342.15, 
	 "num_atms": 12, 
	 "gaussian": { 
		 "optdone": 1, 
		 "sigma_profile": "yes", 
		 "theory": "DFT", 
		 "functional": "B3LYP", 
		 "basiset": "6-31G**", 
		 "properties": { 
			 "R2extent": 1463.4787, 
			 "electric_dipole_moment_norm": 4.80234274704, 
			 "electric_quadrupole_moment_norm": 9.79811471202, 
			 "total_energy": -418.605098549, 
			 "HOMO_LUMO_gap": 0.21101, 
			 "cosmo_polarized_energy": -12.23, 
			 "cosmo_cavitation_energy": 17.27, 
			 "cosmo_dispersion_energy": -12.68, 
			 "cosmo_repulsion_energy": 1.07, 
			 "cosmo_total_nonelectrostatic_energy": 5.66, 
			 "SMD_solvation_energy": 5.77 
		},
		"coords": [
			{
				"x": -1.0947666623,
				"y": 1.5968034054,
				"z": -0.9237614186,
				"element": "C" 
			},
			{
				"x": -1.2647362409,
				"y": 0.4958412436,
				"z": -0.1905383739,
				"element": "C" 
			},
			{
				"x": -0.4126709977,
				"y": -0.1081834772,
				"z": 0.8899636812,
				"element": "C" 
			},
			{
				"x": -1.1885461032,
				"y": -1.3532877486,
				"z": 1.3009333271,
				"element": "C" 
			},
			{
				"x": -0.9133172343,
				"y": -2.1681034425,
				"z": 2.1319984801,
				"element": "O" 
			},
			{
				"x": -2.3477949514,
				"y": -1.444588393,
				"z": 0.5406661658,
				"element": "O" 
			},
			{
				"x": -2.4557524718,
				"y": -0.3849005802,
				"z": -0.3611157403,
				"element": "C" 
			},
			{
				"x": -3.3886205498,
				"y": -0.2834269228,
				"z": -1.1077973747,
				"element": "O" 
			},
			{
				"x": -1.8378350176,
				"y": 1.8676441377,
				"z": -1.6672839579,
				"element": "H" 
			},
			{
				"x": -0.2310389807,
				"y": 2.2435418418,
				"z": -0.806503984,
				"element": "H" 
			},
			{
				"x": -0.2816076653,
				"y": 0.5368254197,
				"z": 1.7655464901,
				"element": "H" 
			},
			{
				"x": 0.5871868749,
				"y": -0.4041654837,
				"z": 0.5544927049,
				"element": "H" 
			}
		],
		 "valence_orbital": [ 
			{
				"type": "occ",
				"energy": -0.40065,
				"method": "rhf"
			},
			{
				"type": "occ",
				"energy": -0.33463,
				"method": "rhf"
			},
			{
				"type": "occ",
				"energy": -0.31256,
				"method": "rhf"
			},
			{
				"type": "occ",
				"energy": -0.30221,
				"method": "rhf"
			},
			{
				"type": "occ",
				"energy": -0.28789,
				"method": "rhf"
			},
			{
				"type": "unocc",
				"energy": -0.07688,
				"method": "rhf"
			},
			{
				"type": "unocc",
				"energy": -0.02433,
				"method": "rhf"
			},
			{
				"type": "unocc",
				"energy": 0.06396,
				"method": "rhf"
			},
			{
				"type": "unocc",
				"energy": 0.08768,
				"method": "rhf"
			},
			{
				"type": "unocc",
				"energy": 0.10371,
				"method": "rhf"
			}
		],
		"cosmo_sigma_profile": { 
			"-0.025": 0.0,
			"-0.024": 0.0,
			"-0.023": 0.0,
			"-0.022": 0.0,
			"-0.021": 0.0,
			"-0.02": 0.0,
			"-0.019": 0.0,
			"-0.018": 0.0,
			"-0.017": 0.0,
			"-0.016": 0.0,
			"-0.015": 0.0,
			"-0.014": 0.0,
			"-0.013": 0.0,
			"-0.012": 0.0,
			"-0.011": 0.460920736531,
			"-0.01": 1.83068889406,
			"-0.009": 6.80033173867,
			"-0.008": 8.8968567794,
			"-0.007": 9.35757230085,
			"-0.006": 9.50603479136,
			"-0.005": 8.69480004712,
			"-0.004": 7.49169258241,
			"-0.003": 6.23090774149,
			"-0.002": 6.94175275555,
			"-0.001": 7.04985600914,
			"0.0": 7.15404455212,
			"0.001": 5.4416182143,
			"0.002": 3.08278623161,
			"0.003": 4.4496096041,
			"0.004": 2.97382046936,
			"0.005": 3.25754196959,
			"0.006": 5.95031641174,
			"0.007": 6.34677461217,
			"0.008": 4.8702366755,
			"0.009": 7.18139440248,
			"0.01": 11.0338726591,
			"0.011": 3.8711334778,
			"0.012": 0.0432147645615,
			"0.013": 0.0,
			"0.014": 0.0,
			"0.015": 0.0,
			"0.016": 0.0,
			"0.017": 0.0,
			"0.018": 0.0,
			"0.019": 0.0,
			"0.02": 0.0,
			"0.021": 0.0,
			"0.022": 0.0,
			"0.023": 0.0,
			"0.024": 0.0,
			"0.025": 0.0
		}
	}
}
