{
	 "smiles": "O=CC1=CC2=NON=C2C=C1", 
	 "Tm": 331.15, 
	 "num_atms": 15, 
	 "gaussian": { 
		 "optdone": 1, 
		 "sigma_profile": "yes", 
		 "theory": "DFT", 
		 "functional": "B3LYP", 
		 "basiset": "6-31G**", 
		 "properties": { 
			 "R2extent": 1866.9193, 
			 "electric_dipole_moment_norm": 3.48836166273, 
			 "electric_quadrupole_moment_norm": 12.5869261001, 
			 "total_energy": -528.992856775, 
			 "HOMO_LUMO_gap": 0.15034, 
			 "cosmo_polarized_energy": -10.42, 
			 "cosmo_cavitation_energy": 20.77, 
			 "cosmo_dispersion_energy": -15.43, 
			 "cosmo_repulsion_energy": 1.21, 
			 "cosmo_total_nonelectrostatic_energy": 6.55, 
			 "SMD_solvation_energy": 3.91 
		},
		"coords": [
			{
				"x": 0.7448371506,
				"y": -1.4403208094,
				"z": 3.5258681335,
				"element": "O" 
			},
			{
				"x": -0.2760486619,
				"y": -0.9110924561,
				"z": 3.1366849565,
				"element": "C" 
			},
			{
				"x": -0.3825958542,
				"y": -0.1273493714,
				"z": 1.8751225648,
				"element": "C" 
			},
			{
				"x": 0.7312028428,
				"y": 0.0220729693,
				"z": 1.0811898011,
				"element": "C" 
			},
			{
				"x": 0.5715892545,
				"y": 0.7791048577,
				"z": -0.109996649,
				"element": "C" 
			},
			{
				"x": 1.4509504254,
				"y": 1.0857491532,
				"z": -1.0531406495,
				"element": "N" 
			},
			{
				"x": 0.7449400574,
				"y": 1.8269154249,
				"z": -1.950949406,
				"element": "O" 
			},
			{
				"x": -0.5686393869,
				"y": 2.0032069554,
				"z": -1.6056787399,
				"element": "N" 
			},
			{
				"x": -0.6978275578,
				"y": 1.3568052023,
				"z": -0.4590493797,
				"element": "C" 
			},
			{
				"x": -1.8377410927,
				"y": 1.1867742183,
				"z": 0.3822361442,
				"element": "C" 
			},
			{
				"x": -1.6561503462,
				"y": 0.4541257716,
				"z": 1.5218425443,
				"element": "C" 
			},
			{
				"x": -1.2192181806,
				"y": -0.984793572,
				"z": 3.7208539435,
				"element": "H" 
			},
			{
				"x": 1.6784309451,
				"y": -0.4228588358,
				"z": 1.3648633425,
				"element": "H" 
			},
			{
				"x": -2.7929782728,
				"y": 1.6239115454,
				"z": 0.1155273625,
				"element": "H" 
			},
			{
				"x": -2.4921513226,
				"y": 0.2940489466,
				"z": 2.1981260313,
				"element": "H" 
			}
		],
		 "valence_orbital": [ 
			{
				"type": "occ",
				"energy": -0.34966,
				"method": "rhf"
			},
			{
				"type": "occ",
				"energy": -0.33337,
				"method": "rhf"
			},
			{
				"type": "occ",
				"energy": -0.30761,
				"method": "rhf"
			},
			{
				"type": "occ",
				"energy": -0.27771,
				"method": "rhf"
			},
			{
				"type": "occ",
				"energy": -0.2662,
				"method": "rhf"
			},
			{
				"type": "unocc",
				"energy": -0.11586,
				"method": "rhf"
			},
			{
				"type": "unocc",
				"energy": -0.05924,
				"method": "rhf"
			},
			{
				"type": "unocc",
				"energy": -0.00972,
				"method": "rhf"
			},
			{
				"type": "unocc",
				"energy": 0.03266,
				"method": "rhf"
			},
			{
				"type": "unocc",
				"energy": 0.07822,
				"method": "rhf"
			}
		],
		"cosmo_sigma_profile": { 
			"-0.025": 0.0,
			"-0.024": 0.0,
			"-0.023": 0.0,
			"-0.022": 0.0,
			"-0.021": 0.0,
			"-0.02": 0.0,
			"-0.019": 0.0,
			"-0.018": 0.0,
			"-0.017": 0.0,
			"-0.016": 0.0,
			"-0.015": 0.0,
			"-0.014": 0.0,
			"-0.013": 0.0,
			"-0.012": 0.0,
			"-0.011": 0.0,
			"-0.01": 0.802120384389,
			"-0.009": 4.92266244365,
			"-0.008": 7.82512138373,
			"-0.007": 8.89570243623,
			"-0.006": 7.21564690395,
			"-0.005": 8.64244055585,
			"-0.004": 9.85219777796,
			"-0.003": 12.5452504671,
			"-0.002": 14.3571783915,
			"-0.001": 16.7400175606,
			"0.0": 9.05639103209,
			"0.001": 8.86390474019,
			"0.002": 5.19841954016,
			"0.003": 5.72260966944,
			"0.004": 8.65701645297,
			"0.005": 8.29584013661,
			"0.006": 5.07648915798,
			"0.007": 4.28564171244,
			"0.008": 4.59294557021,
			"0.009": 4.7954399755,
			"0.01": 6.43865861606,
			"0.011": 4.78538472943,
			"0.012": 1.10800068685,
			"0.013": 0.00218999211678,
			"0.014": 0.0,
			"0.015": 0.0,
			"0.016": 0.0,
			"0.017": 0.0,
			"0.018": 0.0,
			"0.019": 0.0,
			"0.02": 0.0,
			"0.021": 0.0,
			"0.022": 0.0,
			"0.023": 0.0,
			"0.024": 0.0,
			"0.025": 0.0
		}
	}
}
