{
	 "smiles": "CN1C=NC2=C1C(N)=NC=N2", 
	 "Tm": 596.15, 
	 "num_atms": 18, 
	 "gaussian": { 
		 "optdone": 1, 
		 "sigma_profile": "yes", 
		 "theory": "DFT", 
		 "functional": "B3LYP", 
		 "basiset": "6-31G**", 
		 "properties": { 
			 "R2extent": 2056.8951, 
			 "electric_dipole_moment_norm": 7.20933559907, 
			 "electric_quadrupole_moment_norm": 18.9356796707, 
			 "total_energy": -506.620467649, 
			 "HOMO_LUMO_gap": 0.2001, 
			 "cosmo_polarized_energy": -22.79, 
			 "cosmo_cavitation_energy": 22.03, 
			 "cosmo_dispersion_energy": -16.72, 
			 "cosmo_repulsion_energy": 1.31, 
			 "cosmo_total_nonelectrostatic_energy": 6.62, 
			 "SMD_solvation_energy": -0.9 
		},
		"coords": [
			{
				"x": -2.9049244042,
				"y": -2.4278631537,
				"z": 0.0943646742,
				"element": "C" 
			},
			{
				"x": -1.6117942628,
				"y": -2.3171101235,
				"z": -0.5566109258,
				"element": "N" 
			},
			{
				"x": -1.1089498183,
				"y": -3.1646526389,
				"z": -1.5156414253,
				"element": "C" 
			},
			{
				"x": 0.0964632687,
				"y": -2.8671936487,
				"z": -1.9353953121,
				"element": "N" 
			},
			{
				"x": 0.4405521011,
				"y": -1.742984935,
				"z": -1.2106816711,
				"element": "C" 
			},
			{
				"x": -0.6116757805,
				"y": -1.3767210148,
				"z": -0.3446490539,
				"element": "C" 
			},
			{
				"x": -0.4354181995,
				"y": -0.2491379961,
				"z": 0.4769522147,
				"element": "C" 
			},
			{
				"x": -1.3651788962,
				"y": 0.2000058219,
				"z": 1.3973422904,
				"element": "N" 
			},
			{
				"x": 0.7272452996,
				"y": 0.4049266721,
				"z": 0.407183796,
				"element": "N" 
			},
			{
				"x": 1.6698500156,
				"y": -0.0444665824,
				"z": -0.4484635768,
				"element": "C" 
			},
			{
				"x": 1.607690021,
				"y": -1.0776491478,
				"z": -1.2789677221,
				"element": "N" 
			},
			{
				"x": -3.5779344669,
				"y": -1.6171814212,
				"z": -0.208652644,
				"element": "H" 
			},
			{
				"x": -2.7911654362,
				"y": -2.4168309965,
				"z": 1.1818154444,
				"element": "H" 
			},
			{
				"x": -3.3636341954,
				"y": -3.3751952638,
				"z": -0.1958853206,
				"element": "H" 
			},
			{
				"x": -1.6989186779,
				"y": -4.0034016345,
				"z": -1.8661187009,
				"element": "H" 
			},
			{
				"x": -2.3406084761,
				"y": 0.0991402008,
				"z": 1.158444037,
				"element": "H" 
			},
			{
				"x": -1.1266731003,
				"y": 1.1097728069,
				"z": 1.7716341263,
				"element": "H" 
			},
			{
				"x": 2.5946750085,
				"y": 0.5290430552,
				"z": -0.4546702303,
				"element": "H" 
			}
		],
		 "valence_orbital": [ 
			{
				"type": "occ",
				"energy": -0.28949,
				"method": "rhf"
			},
			{
				"type": "occ",
				"energy": -0.27512,
				"method": "rhf"
			},
			{
				"type": "occ",
				"energy": -0.25826,
				"method": "rhf"
			},
			{
				"type": "occ",
				"energy": -0.24385,
				"method": "rhf"
			},
			{
				"type": "occ",
				"energy": -0.22549,
				"method": "rhf"
			},
			{
				"type": "unocc",
				"energy": -0.02539,
				"method": "rhf"
			},
			{
				"type": "unocc",
				"energy": 0.00267,
				"method": "rhf"
			},
			{
				"type": "unocc",
				"energy": 0.04543,
				"method": "rhf"
			},
			{
				"type": "unocc",
				"energy": 0.05187,
				"method": "rhf"
			},
			{
				"type": "unocc",
				"energy": 0.09935,
				"method": "rhf"
			}
		],
		"cosmo_sigma_profile": { 
			"-0.025": 0.0,
			"-0.024": 0.0,
			"-0.023": 0.0,
			"-0.022": 0.0,
			"-0.021": 0.0,
			"-0.02": 0.0,
			"-0.019": 0.0,
			"-0.018": 0.0,
			"-0.017": 0.0,
			"-0.016": 0.0,
			"-0.015": 0.0,
			"-0.014": 0.50443070074,
			"-0.013": 2.61564542462,
			"-0.012": 3.26822165221,
			"-0.011": 2.97802508672,
			"-0.01": 5.53631698463,
			"-0.009": 5.46096605939,
			"-0.008": 5.95591852562,
			"-0.007": 9.0557732485,
			"-0.006": 10.321866351,
			"-0.005": 9.91936483195,
			"-0.004": 11.7520512564,
			"-0.003": 8.97154515649,
			"-0.002": 6.00344551372,
			"-0.001": 10.3463873942,
			"0.0": 11.5757796569,
			"0.001": 7.83060900823,
			"0.002": 7.06963873567,
			"0.003": 5.71502867823,
			"0.004": 5.22438574058,
			"0.005": 5.42658414497,
			"0.006": 3.59085281713,
			"0.007": 4.01419522032,
			"0.008": 4.658246481,
			"0.009": 4.07479669656,
			"0.01": 3.32601068723,
			"0.011": 3.34021993386,
			"0.012": 3.33906027433,
			"0.013": 3.31479672576,
			"0.014": 4.29510545208,
			"0.015": 2.99800421739,
			"0.016": 2.47777349212,
			"0.017": 1.42485714942,
			"0.018": 0.0,
			"0.019": 0.0,
			"0.02": 0.0,
			"0.021": 0.0,
			"0.022": 0.0,
			"0.023": 0.0,
			"0.024": 0.0,
			"0.025": 0.0
		}
	}
}
