{
	 "smiles": "ClC1=CC=CC(C=O)=C1Cl", 
	 "Tm": 336.15, 
	 "num_atms": 14, 
	 "gaussian": { 
		 "optdone": 1, 
		 "sigma_profile": "yes", 
		 "theory": "DFT", 
		 "functional": "B3LYP", 
		 "basiset": "6-31G**", 
		 "properties": { 
			 "R2extent": 2088.0312, 
			 "electric_dipole_moment_norm": 2.30545790896, 
			 "electric_quadrupole_moment_norm": 10.9982041589, 
			 "total_energy": -1264.7468356, 
			 "HOMO_LUMO_gap": 0.18208, 
			 "cosmo_polarized_energy": -6.39, 
			 "cosmo_cavitation_energy": 22.16, 
			 "cosmo_dispersion_energy": -16.67, 
			 "cosmo_repulsion_energy": 1.34, 
			 "cosmo_total_nonelectrostatic_energy": 6.83, 
			 "SMD_solvation_energy": 4.44 
		},
		"coords": [
			{
				"x": 2.6307385197,
				"y": 0.3747389006,
				"z": 0.9275232839,
				"element": "Cl" 
			},
			{
				"x": 1.1010124434,
				"y": -0.3924780047,
				"z": 0.5795366302,
				"element": "C" 
			},
			{
				"x": 0.5214172619,
				"y": -1.1955042016,
				"z": 1.5643968402,
				"element": "C" 
			},
			{
				"x": -0.6994664819,
				"y": -1.8271158914,
				"z": 1.3286925374,
				"element": "C" 
			},
			{
				"x": -1.3397077201,
				"y": -1.6552169572,
				"z": 0.1084678898,
				"element": "C" 
			},
			{
				"x": -0.7748330312,
				"y": -0.8533732198,
				"z": -0.8932502444,
				"element": "C" 
			},
			{
				"x": -1.5256070502,
				"y": -0.7197781316,
				"z": -2.1758437103,
				"element": "C" 
			},
			{
				"x": -2.5900448474,
				"y": -1.273568442,
				"z": -2.3742896301,
				"element": "O" 
			},
			{
				"x": 0.4573423419,
				"y": -0.2164155878,
				"z": -0.6543083846,
				"element": "C" 
			},
			{
				"x": 1.1919931048,
				"y": 0.7915610613,
				"z": -1.8810751253,
				"element": "Cl" 
			},
			{
				"x": 1.0379842123,
				"y": -1.3164642223,
				"z": 2.5102381546,
				"element": "H" 
			},
			{
				"x": -1.1411918722,
				"y": -2.4489094554,
				"z": 2.1006482378,
				"element": "H" 
			},
			{
				"x": -2.2901530776,
				"y": -2.1296667561,
				"z": -0.1125740511,
				"element": "H" 
			},
			{
				"x": -1.0606838033,
				"y": -0.083409092,
				"z": -2.9489624282,
				"element": "H" 
			}
		],
		 "valence_orbital": [ 
			{
				"type": "occ",
				"energy": -0.34549,
				"method": "rhf"
			},
			{
				"type": "occ",
				"energy": -0.3212,
				"method": "rhf"
			},
			{
				"type": "occ",
				"energy": -0.27744,
				"method": "rhf"
			},
			{
				"type": "occ",
				"energy": -0.26805,
				"method": "rhf"
			},
			{
				"type": "occ",
				"energy": -0.26479,
				"method": "rhf"
			},
			{
				"type": "unocc",
				"energy": -0.08271,
				"method": "rhf"
			},
			{
				"type": "unocc",
				"energy": -0.03658,
				"method": "rhf"
			},
			{
				"type": "unocc",
				"energy": -0.00975,
				"method": "rhf"
			},
			{
				"type": "unocc",
				"energy": 0.01817,
				"method": "rhf"
			},
			{
				"type": "unocc",
				"energy": 0.04916,
				"method": "rhf"
			}
		],
		"cosmo_sigma_profile": { 
			"-0.025": 0.0,
			"-0.024": 0.0,
			"-0.023": 0.0,
			"-0.022": 0.0,
			"-0.021": 0.0,
			"-0.02": 0.0,
			"-0.019": 0.0,
			"-0.018": 0.0,
			"-0.017": 0.0,
			"-0.016": 0.0,
			"-0.015": 0.0,
			"-0.014": 0.0,
			"-0.013": 0.0,
			"-0.012": 0.0,
			"-0.011": 0.0,
			"-0.01": 0.0,
			"-0.009": 0.648131584962,
			"-0.008": 3.21958716431,
			"-0.007": 7.15656582333,
			"-0.006": 8.75015892271,
			"-0.005": 9.74803797448,
			"-0.004": 9.12910530252,
			"-0.003": 10.9768750838,
			"-0.002": 13.252084331,
			"-0.001": 18.7103934388,
			"0.0": 22.8860972946,
			"0.001": 19.4957848149,
			"0.002": 14.5173159687,
			"0.003": 13.8529979357,
			"0.004": 12.7202297331,
			"0.005": 2.92307570201,
			"0.006": 1.36465958114,
			"0.007": 2.10645599518,
			"0.008": 2.25400977186,
			"0.009": 1.77301670338,
			"0.01": 3.53222785476,
			"0.011": 3.24268359764,
			"0.012": 1.11849650475,
			"0.013": 0.0479548423824,
			"0.014": 0.0,
			"0.015": 0.0,
			"0.016": 0.0,
			"0.017": 0.0,
			"0.018": 0.0,
			"0.019": 0.0,
			"0.02": 0.0,
			"0.021": 0.0,
			"0.022": 0.0,
			"0.023": 0.0,
			"0.024": 0.0,
			"0.025": 0.0
		}
	}
}
