{
	 "smiles": "CCCCCCCCCCCCCCCCBr", 
	 "Tm": 290.65, 
	 "num_atms": 50, 
	 "gaussian": { 
		 "optdone": 1, 
		 "sigma_profile": "yes", 
		 "theory": "DFT", 
		 "functional": "B3LYP", 
		 "basiset": "6-31G**", 
		 "properties": { 
			 "R2extent": 11353.7401, 
			 "electric_dipole_moment_norm": 2.31592646904, 
			 "electric_quadrupole_moment_norm": 16.618154439, 
			 "total_energy": -3201.04402186, 
			 "HOMO_LUMO_gap": 0.27166, 
			 "cosmo_polarized_energy": -4.26, 
			 "cosmo_cavitation_energy": 50.33, 
			 "cosmo_dispersion_energy": -32.6, 
			 "cosmo_repulsion_energy": 2.62, 
			 "cosmo_total_nonelectrostatic_energy": 20.36, 
			 "SMD_solvation_energy": 5.26 
		},
		"coords": [
			{
				"x": 3.7333829273,
				"y": -4.2327419998,
				"z": 0.1149411619,
				"element": "C" 
			},
			{
				"x": 3.0328394524,
				"y": -3.0507685525,
				"z": 0.7934151523,
				"element": "C" 
			},
			{
				"x": 2.0350590584,
				"y": -2.3379263096,
				"z": -0.1300955105,
				"element": "C" 
			},
			{
				"x": 1.3735318048,
				"y": -1.0883442879,
				"z": 0.4777450296,
				"element": "C" 
			},
			{
				"x": 0.5044447882,
				"y": -1.3254470937,
				"z": 1.7274761501,
				"element": "C" 
			},
			{
				"x": -0.6924759416,
				"y": -2.2754970711,
				"z": 1.5370116778,
				"element": "C" 
			},
			{
				"x": -1.7484107739,
				"y": -1.8328356789,
				"z": 0.5087012223,
				"element": "C" 
			},
			{
				"x": -2.4956685337,
				"y": -0.5404988929,
				"z": 0.8679903544,
				"element": "C" 
			},
			{
				"x": -3.6488645124,
				"y": -0.2276750103,
				"z": -0.0985435967,
				"element": "C" 
			},
			{
				"x": -4.4524881733,
				"y": 1.0506432039,
				"z": 0.2369296405,
				"element": "C" 
			},
			{
				"x": -4.0939287394,
				"y": 2.3429562222,
				"z": -0.5229770171,
				"element": "C" 
			},
			{
				"x": -2.7029411182,
				"y": 2.9668444777,
				"z": -0.2768353206,
				"element": "C" 
			},
			{
				"x": -1.5781206293,
				"y": 2.4489995109,
				"z": -1.1894891596,
				"element": "C" 
			},
			{
				"x": -0.2614454976,
				"y": 3.2361094815,
				"z": -1.0776705799,
				"element": "C" 
			},
			{
				"x": 0.4389813987,
				"y": 3.1097295016,
				"z": 0.2810434025,
				"element": "C" 
			},
			{
				"x": 1.7894222189,
				"y": 3.8059119472,
				"z": 0.3627386553,
				"element": "C" 
			},
			{
				"x": 1.6424859222,
				"y": 5.7862363759,
				"z": 0.2327521651,
				"element": "Br" 
			},
			{
				"x": 4.4392117627,
				"y": -4.7240973014,
				"z": 0.7926830244,
				"element": "H" 
			},
			{
				"x": 3.0089333172,
				"y": -4.9868840199,
				"z": -0.2136068562,
				"element": "H" 
			},
			{
				"x": 4.2928994012,
				"y": -3.9073754949,
				"z": -0.769661521,
				"element": "H" 
			},
			{
				"x": 3.7850622309,
				"y": -2.3274270422,
				"z": 1.1380177505,
				"element": "H" 
			},
			{
				"x": 2.5192710933,
				"y": -3.4064933036,
				"z": 1.6955270333,
				"element": "H" 
			},
			{
				"x": 1.2640646126,
				"y": -3.0526201958,
				"z": -0.4485534671,
				"element": "H" 
			},
			{
				"x": 2.5586287842,
				"y": -2.0390842239,
				"z": -1.0486653576,
				"element": "H" 
			},
			{
				"x": 2.1613976137,
				"y": -0.3674216528,
				"z": 0.7382316021,
				"element": "H" 
			},
			{
				"x": 0.7690585002,
				"y": -0.6013254773,
				"z": -0.2987548541,
				"element": "H" 
			},
			{
				"x": 0.1436105599,
				"y": -0.3531282711,
				"z": 2.087099443,
				"element": "H" 
			},
			{
				"x": 1.1323300573,
				"y": -1.7201958961,
				"z": 2.5361210483,
				"element": "H" 
			},
			{
				"x": -1.1852340373,
				"y": -2.4074361195,
				"z": 2.51003141,
				"element": "H" 
			},
			{
				"x": -0.3236265909,
				"y": -3.2700767773,
				"z": 1.2552528087,
				"element": "H" 
			},
			{
				"x": -1.2865594249,
				"y": -1.7228191917,
				"z": -0.4820739287,
				"element": "H" 
			},
			{
				"x": -2.4836991685,
				"y": -2.6423038923,
				"z": 0.4024224795,
				"element": "H" 
			},
			{
				"x": -2.9042606448,
				"y": -0.6324662196,
				"z": 1.8848525854,
				"element": "H" 
			},
			{
				"x": -1.7958675309,
				"y": 0.3033134558,
				"z": 0.9023196939,
				"element": "H" 
			},
			{
				"x": -3.2672699868,
				"y": -0.1685151195,
				"z": -1.1270290504,
				"element": "H" 
			},
			{
				"x": -4.3310261231,
				"y": -1.088127605,
				"z": -0.0888838003,
				"element": "H" 
			},
			{
				"x": -5.5137851328,
				"y": 0.855103147,
				"z": 0.0384250855,
				"element": "H" 
			},
			{
				"x": -4.3884309953,
				"y": 1.2427180269,
				"z": 1.3174723789,
				"element": "H" 
			},
			{
				"x": -4.8510184065,
				"y": 3.0889631866,
				"z": -0.2492094191,
				"element": "H" 
			},
			{
				"x": -4.2247307118,
				"y": 2.1734723417,
				"z": -1.6014657836,
				"element": "H" 
			},
			{
				"x": -2.4318375088,
				"y": 2.8405283494,
				"z": 0.7797070166,
				"element": "H" 
			},
			{
				"x": -2.7794667015,
				"y": 4.0512223675,
				"z": -0.4352798643,
				"element": "H" 
			},
			{
				"x": -1.3840408185,
				"y": 1.3860935642,
				"z": -0.9984245115,
				"element": "H" 
			},
			{
				"x": -1.9247600506,
				"y": 2.508749829,
				"z": -2.2297940696,
				"element": "H" 
			},
			{
				"x": 0.4276436687,
				"y": 2.8891060125,
				"z": -1.8599116976,
				"element": "H" 
			},
			{
				"x": -0.4505687855,
				"y": 4.2966585651,
				"z": -1.2839404099,
				"element": "H" 
			},
			{
				"x": 0.6274553744,
				"y": 2.0461940957,
				"z": 0.4943393281,
				"element": "H" 
			},
			{
				"x": -0.2034559493,
				"y": 3.480372909,
				"z": 1.0868145335,
				"element": "H" 
			},
			{
				"x": 2.2865564536,
				"y": 3.6318082183,
				"z": 1.3164086257,
				"element": "H" 
			},
			{
				"x": 2.4551114867,
				"y": 3.521297911,
				"z": -0.453104684,
				"element": "H" 
			}
		],
		 "valence_orbital": [ 
			{
				"type": "occ",
				"energy": -0.3045,
				"method": "rhf"
			},
			{
				"type": "occ",
				"energy": -0.3013,
				"method": "rhf"
			},
			{
				"type": "occ",
				"energy": -0.29499,
				"method": "rhf"
			},
			{
				"type": "occ",
				"energy": -0.26796,
				"method": "rhf"
			},
			{
				"type": "occ",
				"energy": -0.26571,
				"method": "rhf"
			},
			{
				"type": "unocc",
				"energy": 0.00595,
				"method": "rhf"
			},
			{
				"type": "unocc",
				"energy": 0.05383,
				"method": "rhf"
			},
			{
				"type": "unocc",
				"energy": 0.08155,
				"method": "rhf"
			},
			{
				"type": "unocc",
				"energy": 0.08531,
				"method": "rhf"
			},
			{
				"type": "unocc",
				"energy": 0.09381,
				"method": "rhf"
			}
		],
		"cosmo_sigma_profile": { 
			"-0.025": 0.0,
			"-0.024": 0.0,
			"-0.023": 0.0,
			"-0.022": 0.0,
			"-0.021": 0.0,
			"-0.02": 0.0,
			"-0.019": 0.0,
			"-0.018": 0.0,
			"-0.017": 0.0,
			"-0.016": 0.0,
			"-0.015": 0.0,
			"-0.014": 0.0,
			"-0.013": 0.0,
			"-0.012": 0.0,
			"-0.011": 0.0,
			"-0.01": 0.0,
			"-0.009": 0.0,
			"-0.008": 0.0,
			"-0.007": 1.09549364769,
			"-0.006": 4.29490357202,
			"-0.005": 4.24175265812,
			"-0.004": 6.1453019873,
			"-0.003": 13.4623809032,
			"-0.002": 46.2182737026,
			"-0.001": 94.1931378791,
			"0.0": 85.9624454479,
			"0.001": 66.9646204275,
			"0.002": 33.0608864802,
			"0.003": 5.27066801767,
			"0.004": 5.64682128972,
			"0.005": 6.34228269387,
			"0.006": 8.87230647131,
			"0.007": 6.83405586214,
			"0.008": 0.0374246006489,
			"0.009": 0.0,
			"0.01": 0.0,
			"0.011": 0.0,
			"0.012": 0.0,
			"0.013": 0.0,
			"0.014": 0.0,
			"0.015": 0.0,
			"0.016": 0.0,
			"0.017": 0.0,
			"0.018": 0.0,
			"0.019": 0.0,
			"0.02": 0.0,
			"0.021": 0.0,
			"0.022": 0.0,
			"0.023": 0.0,
			"0.024": 0.0,
			"0.025": 0.0
		}
	}
}
