{
	 "smiles": "ClC1=CC=CC(=N1)C#N", 
	 "Tm": 360.15, 
	 "num_atms": 12, 
	 "gaussian": { 
		 "optdone": 1, 
		 "sigma_profile": "yes", 
		 "theory": "DFT", 
		 "functional": "B3LYP", 
		 "basiset": "6-31G**", 
		 "properties": { 
			 "R2extent": 1820.2104, 
			 "electric_dipole_moment_norm": 5.52238189733, 
			 "electric_quadrupole_moment_norm": 10.9402682559, 
			 "total_energy": -800.112780567, 
			 "HOMO_LUMO_gap": 0.19972, 
			 "cosmo_polarized_energy": -11.04, 
			 "cosmo_cavitation_energy": 19.92, 
			 "cosmo_dispersion_energy": -14.43, 
			 "cosmo_repulsion_energy": 1.19, 
			 "cosmo_total_nonelectrostatic_energy": 6.69, 
			 "SMD_solvation_energy": 3.29 
		},
		"coords": [
			{
				"x": -1.5074747271,
				"y": 2.4885999087,
				"z": 1.7126923877,
				"element": "Cl" 
			},
			{
				"x": -0.5187675701,
				"y": 1.3021079897,
				"z": 0.8783233642,
				"element": "C" 
			},
			{
				"x": -1.0290266921,
				"y": 0.0085421155,
				"z": 0.7032736299,
				"element": "C" 
			},
			{
				"x": -0.22574463,
				"y": -0.9120605795,
				"z": 0.0391856894,
				"element": "C" 
			},
			{
				"x": 1.0328081132,
				"y": -0.5181335014,
				"z": -0.4177835747,
				"element": "C" 
			},
			{
				"x": 1.4284485647,
				"y": 0.802232399,
				"z": -0.1812332202,
				"element": "C" 
			},
			{
				"x": 0.6638059289,
				"y": 1.7059279705,
				"z": 0.4596297275,
				"element": "N" 
			},
			{
				"x": 2.7210927583,
				"y": 1.255504559,
				"z": -0.6351118003,
				"element": "C" 
			},
			{
				"x": 3.7687146095,
				"y": 1.5838458055,
				"z": -1.015343046,
				"element": "N" 
			},
			{
				"x": -2.0124818947,
				"y": -0.2513422791,
				"z": 1.0755811449,
				"element": "H" 
			},
			{
				"x": -0.5756746078,
				"y": -1.9268728721,
				"z": -0.1214336776,
				"element": "H" 
			},
			{
				"x": 1.6915001475,
				"y": -1.2023515158,
				"z": -0.9398806249,
				"element": "H" 
			}
		],
		 "valence_orbital": [ 
			{
				"type": "occ",
				"energy": -0.3482,
				"method": "rhf"
			},
			{
				"type": "occ",
				"energy": -0.33156,
				"method": "rhf"
			},
			{
				"type": "occ",
				"energy": -0.31911,
				"method": "rhf"
			},
			{
				"type": "occ",
				"energy": -0.30565,
				"method": "rhf"
			},
			{
				"type": "occ",
				"energy": -0.28087,
				"method": "rhf"
			},
			{
				"type": "unocc",
				"energy": -0.08115,
				"method": "rhf"
			},
			{
				"type": "unocc",
				"energy": -0.05592,
				"method": "rhf"
			},
			{
				"type": "unocc",
				"energy": 0.01156,
				"method": "rhf"
			},
			{
				"type": "unocc",
				"energy": 0.02605,
				"method": "rhf"
			},
			{
				"type": "unocc",
				"energy": 0.05531,
				"method": "rhf"
			}
		],
		"cosmo_sigma_profile": { 
			"-0.025": 0.0,
			"-0.024": 0.0,
			"-0.023": 0.0,
			"-0.022": 0.0,
			"-0.021": 0.0,
			"-0.02": 0.0,
			"-0.019": 0.0,
			"-0.018": 0.0,
			"-0.017": 0.0,
			"-0.016": 0.0,
			"-0.015": 0.0,
			"-0.014": 0.0,
			"-0.013": 0.0,
			"-0.012": 0.0,
			"-0.011": 0.0,
			"-0.01": 1.42714034924,
			"-0.009": 7.49544931537,
			"-0.008": 8.20758229814,
			"-0.007": 5.93846148443,
			"-0.006": 4.68769352894,
			"-0.005": 4.84854952464,
			"-0.004": 7.44562674599,
			"-0.003": 13.9424170456,
			"-0.002": 16.3781180141,
			"-0.001": 14.8991612111,
			"0.0": 9.3946727148,
			"0.001": 6.96819857614,
			"0.002": 8.12626305872,
			"0.003": 11.9460661801,
			"0.004": 11.1972722729,
			"0.005": 5.11134046127,
			"0.006": 5.42143942092,
			"0.007": 4.3464942826,
			"0.008": 4.3343656941,
			"0.009": 4.03056242258,
			"0.01": 3.24221889103,
			"0.011": 3.4813017287,
			"0.012": 1.97950015932,
			"0.013": 0.0457274993372,
			"0.014": 0.0,
			"0.015": 0.0,
			"0.016": 0.0,
			"0.017": 0.0,
			"0.018": 0.0,
			"0.019": 0.0,
			"0.02": 0.0,
			"0.021": 0.0,
			"0.022": 0.0,
			"0.023": 0.0,
			"0.024": 0.0,
			"0.025": 0.0
		}
	}
}
