{
	 "smiles": "COC(=O)C1=CC(Br)=CC=C1NC(C)=O", 
	 "Tm": 406.65, 
	 "num_atms": 25, 
	 "gaussian": { 
		 "optdone": 1, 
		 "sigma_profile": "yes", 
		 "theory": "DFT", 
		 "functional": "B3LYP", 
		 "basiset": "6-31G**", 
		 "properties": { 
			 "R2extent": 7241.8846, 
			 "electric_dipole_moment_norm": 4.65928233208, 
			 "electric_quadrupole_moment_norm": 13.6717595503, 
			 "total_energy": -3238.95132192, 
			 "HOMO_LUMO_gap": 0.16592, 
			 "cosmo_polarized_energy": -12.62, 
			 "cosmo_cavitation_energy": 31.92, 
			 "cosmo_dispersion_energy": -23.38, 
			 "cosmo_repulsion_energy": 1.83, 
			 "cosmo_total_nonelectrostatic_energy": 10.37, 
			 "SMD_solvation_energy": 6.52 
		},
		"coords": [
			{
				"x": 1.3980667676,
				"y": 1.2331611687,
				"z": 3.4156211686,
				"element": "C" 
			},
			{
				"x": 1.0183233749,
				"y": 0.4672048991,
				"z": 2.2554236042,
				"element": "O" 
			},
			{
				"x": 0.2679600053,
				"y": -0.6445732163,
				"z": 2.5127905329,
				"element": "C" 
			},
			{
				"x": -0.042185913,
				"y": -0.9422397561,
				"z": 3.6477503601,
				"element": "O" 
			},
			{
				"x": -0.1189932328,
				"y": -1.4290133648,
				"z": 1.3029477527,
				"element": "C" 
			},
			{
				"x": -0.8911541143,
				"y": -2.566847289,
				"z": 1.5981846989,
				"element": "C" 
			},
			{
				"x": -1.3345993578,
				"y": -3.4061841718,
				"z": 0.5921834994,
				"element": "C" 
			},
			{
				"x": -2.3811466776,
				"y": -4.94377217,
				"z": 1.0244066199,
				"element": "Br" 
			},
			{
				"x": -1.0181977141,
				"y": -3.1313162765,
				"z": -0.7385507043,
				"element": "C" 
			},
			{
				"x": -0.257289127,
				"y": -2.0141411281,
				"z": -1.0556830858,
				"element": "C" 
			},
			{
				"x": 0.2082553601,
				"y": -1.1407567324,
				"z": -0.0528122725,
				"element": "C" 
			},
			{
				"x": 0.9759990184,
				"y": -0.0150748478,
				"z": -0.3766111785,
				"element": "N" 
			},
			{
				"x": 1.3877590254,
				"y": 0.4312027477,
				"z": -1.6194778477,
				"element": "C" 
			},
			{
				"x": 2.1731175134,
				"y": 1.7342219873,
				"z": -1.5698056832,
				"element": "C" 
			},
			{
				"x": 1.1428019302,
				"y": -0.1257028391,
				"z": -2.6793760279,
				"element": "O" 
			},
			{
				"x": 0.5105098681,
				"y": 1.5870552372,
				"z": 3.9438138662,
				"element": "H" 
			},
			{
				"x": 1.9807360746,
				"y": 2.0715412992,
				"z": 3.0345646978,
				"element": "H" 
			},
			{
				"x": 1.9968735536,
				"y": 0.62235301,
				"z": 4.0941200799,
				"element": "H" 
			},
			{
				"x": -1.1259038037,
				"y": -2.762834524,
				"z": 2.6366748369,
				"element": "H" 
			},
			{
				"x": -1.3644662976,
				"y": -3.7878265827,
				"z": -1.5290934904,
				"element": "H" 
			},
			{
				"x": -0.0078172445,
				"y": -1.7947841078,
				"z": -2.0835788448,
				"element": "H" 
			},
			{
				"x": 1.2516612804,
				"y": 0.5420015751,
				"z": 0.4213847284,
				"element": "H" 
			},
			{
				"x": 2.963655374,
				"y": 1.6893536165,
				"z": -2.3208051218,
				"element": "H" 
			},
			{
				"x": 2.6126871772,
				"y": 1.9455826803,
				"z": -0.5910447561,
				"element": "H" 
			},
			{
				"x": 1.5078471591,
				"y": 2.5619887853,
				"z": -1.837827433,
				"element": "H" 
			}
		],
		 "valence_orbital": [ 
			{
				"type": "occ",
				"energy": -0.2883,
				"method": "rhf"
			},
			{
				"type": "occ",
				"energy": -0.28697,
				"method": "rhf"
			},
			{
				"type": "occ",
				"energy": -0.27118,
				"method": "rhf"
			},
			{
				"type": "occ",
				"energy": -0.26145,
				"method": "rhf"
			},
			{
				"type": "occ",
				"energy": -0.22712,
				"method": "rhf"
			},
			{
				"type": "unocc",
				"energy": -0.0612,
				"method": "rhf"
			},
			{
				"type": "unocc",
				"energy": -0.02435,
				"method": "rhf"
			},
			{
				"type": "unocc",
				"energy": 0.0076,
				"method": "rhf"
			},
			{
				"type": "unocc",
				"energy": 0.03212,
				"method": "rhf"
			},
			{
				"type": "unocc",
				"energy": 0.04241,
				"method": "rhf"
			}
		],
		"cosmo_sigma_profile": { 
			"-0.025": 0.0,
			"-0.024": 0.0,
			"-0.023": 0.0,
			"-0.022": 0.0,
			"-0.021": 0.0,
			"-0.02": 0.0,
			"-0.019": 0.0,
			"-0.018": 0.0,
			"-0.017": 0.0,
			"-0.016": 0.0,
			"-0.015": 0.0,
			"-0.014": 0.0,
			"-0.013": 0.0,
			"-0.012": 0.0,
			"-0.011": 0.0,
			"-0.01": 0.926357326518,
			"-0.009": 1.1559086679,
			"-0.008": 2.07089948093,
			"-0.007": 6.43813707512,
			"-0.006": 14.5580357368,
			"-0.005": 17.4804491153,
			"-0.004": 24.5037474144,
			"-0.003": 23.5784183664,
			"-0.002": 20.5653036009,
			"-0.001": 19.4221714974,
			"0.0": 19.6995272928,
			"0.001": 23.5247975227,
			"0.002": 22.120044049,
			"0.003": 12.3509519104,
			"0.004": 14.580154842,
			"0.005": 7.06097452072,
			"0.006": 3.18494919429,
			"0.007": 2.6183998885,
			"0.008": 2.49158966403,
			"0.009": 3.37850231635,
			"0.01": 4.06425388937,
			"0.011": 6.07027129837,
			"0.012": 3.85422690967,
			"0.013": 2.30306302295,
			"0.014": 0.881320060074,
			"0.015": 0.0,
			"0.016": 0.0,
			"0.017": 0.0,
			"0.018": 0.0,
			"0.019": 0.0,
			"0.02": 0.0,
			"0.021": 0.0,
			"0.022": 0.0,
			"0.023": 0.0,
			"0.024": 0.0,
			"0.025": 0.0
		}
	}
}
