{
	 "smiles": "CCOC(=O)C1=C(N)C=C(S1)C1=CC(Br)=CC=C1", 
	 "Tm": 371.15, 
	 "num_atms": 30, 
	 "gaussian": { 
		 "optdone": 1, 
		 "sigma_profile": "yes", 
		 "theory": "DFT", 
		 "functional": "B3LYP", 
		 "basiset": "6-31G**", 
		 "properties": { 
			 "R2extent": 13986.5416, 
			 "electric_dipole_moment_norm": 2.3233022468, 
			 "electric_quadrupole_moment_norm": 23.2753078328, 
			 "total_energy": -3677.43067171, 
			 "HOMO_LUMO_gap": 0.14354, 
			 "cosmo_polarized_energy": -12.02, 
			 "cosmo_cavitation_energy": 38.32, 
			 "cosmo_dispersion_energy": -28.67, 
			 "cosmo_repulsion_energy": 2.2, 
			 "cosmo_total_nonelectrostatic_energy": 11.84, 
			 "SMD_solvation_energy": 5.76 
		},
		"coords": [
			{
				"x": -1.9441595989,
				"y": 1.1565329148,
				"z": 4.3505227758,
				"element": "C" 
			},
			{
				"x": -1.2962058344,
				"y": -0.1018664753,
				"z": 3.7919896886,
				"element": "C" 
			},
			{
				"x": -0.4546841845,
				"y": 0.1977914073,
				"z": 2.6557230951,
				"element": "O" 
			},
			{
				"x": -1.0620337996,
				"y": 0.2595413859,
				"z": 1.4455455233,
				"element": "C" 
			},
			{
				"x": -2.2664117805,
				"y": 0.0653956916,
				"z": 1.2837083956,
				"element": "O" 
			},
			{
				"x": -0.1449663202,
				"y": 0.580304627,
				"z": 0.3758111006,
				"element": "C" 
			},
			{
				"x": -0.5088077621,
				"y": 0.7198171152,
				"z": -0.9659793294,
				"element": "C" 
			},
			{
				"x": -1.7667840187,
				"y": 0.481875028,
				"z": -1.4466515165,
				"element": "N" 
			},
			{
				"x": 0.6017112706,
				"y": 1.103953881,
				"z": -1.7799574787,
				"element": "C" 
			},
			{
				"x": 1.7771662183,
				"y": 1.2459810234,
				"z": -1.0798278285,
				"element": "C" 
			},
			{
				"x": 1.5621468036,
				"y": 0.8970830056,
				"z": 0.6170097096,
				"element": "S" 
			},
			{
				"x": 3.0919514473,
				"y": 1.6201487534,
				"z": -1.6198548876,
				"element": "C" 
			},
			{
				"x": 4.0360099001,
				"y": 2.2907169753,
				"z": -0.8218565058,
				"element": "C" 
			},
			{
				"x": 5.2715461192,
				"y": 2.6396004274,
				"z": -1.3569863387,
				"element": "C" 
			},
			{
				"x": 6.5376587624,
				"y": 3.5546797543,
				"z": -0.2546421956,
				"element": "Br" 
			},
			{
				"x": 5.6044592543,
				"y": 2.3480928745,
				"z": -2.6786962522,
				"element": "C" 
			},
			{
				"x": 4.6665726768,
				"y": 1.6828702123,
				"z": -3.4706261615,
				"element": "C" 
			},
			{
				"x": 3.4277163836,
				"y": 1.3164478238,
				"z": -2.9515976003,
				"element": "C" 
			},
			{
				"x": -2.5113165374,
				"y": 0.9128662405,
				"z": 5.2553063251,
				"element": "H" 
			},
			{
				"x": -2.6323639583,
				"y": 1.5889960444,
				"z": 3.6201950693,
				"element": "H" 
			},
			{
				"x": -1.1869671472,
				"y": 1.9024072353,
				"z": 4.6095944265,
				"element": "H" 
			},
			{
				"x": -2.0505411148,
				"y": -0.832181055,
				"z": 3.489822323,
				"element": "H" 
			},
			{
				"x": -0.618794262,
				"y": -0.5588897578,
				"z": 4.5174196818,
				"element": "H" 
			},
			{
				"x": -2.0315398008,
				"y": 0.9108461558,
				"z": -2.3191617769,
				"element": "H" 
			},
			{
				"x": -2.4829384485,
				"y": 0.3689119103,
				"z": -0.7377288588,
				"element": "H" 
			},
			{
				"x": 0.5168440335,
				"y": 1.291262934,
				"z": -2.844596436,
				"element": "H" 
			},
			{
				"x": 3.7976497001,
				"y": 2.5546837326,
				"z": 0.2021435845,
				"element": "H" 
			},
			{
				"x": 6.5721107543,
				"y": 2.6312035623,
				"z": -3.0760888197,
				"element": "H" 
			},
			{
				"x": 4.9141058857,
				"y": 1.4390016023,
				"z": -4.4994940293,
				"element": "H" 
			},
			{
				"x": 2.7229653577,
				"y": 0.7704249699,
				"z": -3.5697456833,
				"element": "H" 
			}
		],
		 "valence_orbital": [ 
			{
				"type": "occ",
				"energy": -0.27804,
				"method": "rhf"
			},
			{
				"type": "occ",
				"energy": -0.27142,
				"method": "rhf"
			},
			{
				"type": "occ",
				"energy": -0.25178,
				"method": "rhf"
			},
			{
				"type": "occ",
				"energy": -0.23501,
				"method": "rhf"
			},
			{
				"type": "occ",
				"energy": -0.20444,
				"method": "rhf"
			},
			{
				"type": "unocc",
				"energy": -0.0609,
				"method": "rhf"
			},
			{
				"type": "unocc",
				"energy": -0.02173,
				"method": "rhf"
			},
			{
				"type": "unocc",
				"energy": -0.0045,
				"method": "rhf"
			},
			{
				"type": "unocc",
				"energy": 0.00416,
				"method": "rhf"
			},
			{
				"type": "unocc",
				"energy": 0.03001,
				"method": "rhf"
			}
		],
		"cosmo_sigma_profile": { 
			"-0.025": 0.0,
			"-0.024": 0.0,
			"-0.023": 0.0,
			"-0.022": 0.0,
			"-0.021": 0.0,
			"-0.02": 0.0,
			"-0.019": 0.0,
			"-0.018": 0.0,
			"-0.017": 0.0,
			"-0.016": 0.0,
			"-0.015": 0.0,
			"-0.014": 0.754983991493,
			"-0.013": 1.28333066345,
			"-0.012": 1.648679737,
			"-0.011": 1.35325456357,
			"-0.01": 1.71572103469,
			"-0.009": 2.71372497461,
			"-0.008": 3.84980171843,
			"-0.007": 8.95272611505,
			"-0.006": 11.9524743192,
			"-0.005": 14.4561406313,
			"-0.004": 19.008320718,
			"-0.003": 20.4879535617,
			"-0.002": 19.8746451442,
			"-0.001": 22.4201506301,
			"0.0": 24.5884656336,
			"0.001": 28.1241968908,
			"0.002": 35.1692260605,
			"0.003": 36.1622068701,
			"0.004": 24.4380818936,
			"0.005": 11.576275931,
			"0.006": 5.59933964279,
			"0.007": 4.02944858614,
			"0.008": 2.22986658425,
			"0.009": 2.05303386566,
			"0.01": 2.44086542026,
			"0.011": 2.03322111702,
			"0.012": 1.9677245036,
			"0.013": 0.436151966891,
			"0.014": 0.0,
			"0.015": 0.0,
			"0.016": 0.0,
			"0.017": 0.0,
			"0.018": 0.0,
			"0.019": 0.0,
			"0.02": 0.0,
			"0.021": 0.0,
			"0.022": 0.0,
			"0.023": 0.0,
			"0.024": 0.0,
			"0.025": 0.0
		}
	}
}
