{
	 "smiles": "O=C1CCCN1C1=CC(=CC=C1)C#N", 
	 "Tm": 355.15, 
	 "num_atms": 24, 
	 "gaussian": { 
		 "optdone": 1, 
		 "sigma_profile": "yes", 
		 "theory": "DFT", 
		 "functional": "B3LYP", 
		 "basiset": "6-31G**", 
		 "properties": { 
			 "R2extent": 3246.4907, 
			 "electric_dipole_moment_norm": 4.15339819786, 
			 "electric_quadrupole_moment_norm": 24.3814914144, 
			 "total_energy": -609.929287535, 
			 "HOMO_LUMO_gap": 0.18705, 
			 "cosmo_polarized_energy": -13.79, 
			 "cosmo_cavitation_energy": 28.31, 
			 "cosmo_dispersion_energy": -20.52, 
			 "cosmo_repulsion_energy": 1.61, 
			 "cosmo_total_nonelectrostatic_energy": 9.39, 
			 "SMD_solvation_energy": 6.15 
		},
		"coords": [
			{
				"x": 1.6561846437,
				"y": -2.3220043316,
				"z": -0.1091903705,
				"element": "O" 
			},
			{
				"x": 1.8427349646,
				"y": -1.1444318372,
				"z": 0.1415947701,
				"element": "C" 
			},
			{
				"x": 3.1999927936,
				"y": -0.4546311337,
				"z": 0.2351678984,
				"element": "C" 
			},
			{
				"x": 2.9085018833,
				"y": 0.8629117587,
				"z": 0.9594541172,
				"element": "C" 
			},
			{
				"x": 1.4397076052,
				"y": 1.1527070927,
				"z": 0.6034958484,
				"element": "C" 
			},
			{
				"x": 0.8619133989,
				"y": -0.1786749372,
				"z": 0.36985719,
				"element": "N" 
			},
			{
				"x": -0.5311705132,
				"y": -0.3662646321,
				"z": 0.2448970381,
				"element": "C" 
			},
			{
				"x": -1.373216125,
				"y": 0.7542950778,
				"z": 0.1895393636,
				"element": "C" 
			},
			{
				"x": -2.7632826631,
				"y": 0.5917614033,
				"z": 0.083545115,
				"element": "C" 
			},
			{
				"x": -3.3320343452,
				"y": -0.6880656072,
				"z": 0.0269047681,
				"element": "C" 
			},
			{
				"x": -2.48782589,
				"y": -1.7947647237,
				"z": 0.0775820106,
				"element": "C" 
			},
			{
				"x": -1.1067405891,
				"y": -1.652124904,
				"z": 0.1868130896,
				"element": "C" 
			},
			{
				"x": -3.6003675277,
				"y": 1.7561667253,
				"z": 0.0308232033,
				"element": "C" 
			},
			{
				"x": -4.276692607,
				"y": 2.7018032521,
				"z": -0.0111572809,
				"element": "N" 
			},
			{
				"x": 3.9181167473,
				"y": -1.1058427527,
				"z": 0.7371103135,
				"element": "H" 
			},
			{
				"x": 3.5632735565,
				"y": -0.2921173189,
				"z": -0.7874661478,
				"element": "H" 
			},
			{
				"x": 3.5670639018,
				"y": 1.6830173028,
				"z": 0.6653477161,
				"element": "H" 
			},
			{
				"x": 3.0045158932,
				"y": 0.7271798861,
				"z": 2.0411231952,
				"element": "H" 
			},
			{
				"x": 0.9084795825,
				"y": 1.6624215713,
				"z": 1.4124153675,
				"element": "H" 
			},
			{
				"x": 1.3542914897,
				"y": 1.7720963655,
				"z": -0.3002836857,
				"element": "H" 
			},
			{
				"x": -0.97297408,
				"y": 1.7592574967,
				"z": 0.2178040452,
				"element": "H" 
			},
			{
				"x": -4.4070708684,
				"y": -0.8021671699,
				"z": -0.0548308617,
				"element": "H" 
			},
			{
				"x": -2.9101511329,
				"y": -2.7940367026,
				"z": 0.0346741595,
				"element": "H" 
			},
			{
				"x": -0.4627501186,
				"y": -2.5186918817,
				"z": 0.2165791371,
				"element": "H" 
			}
		],
		 "valence_orbital": [ 
			{
				"type": "occ",
				"energy": -0.32972,
				"method": "rhf"
			},
			{
				"type": "occ",
				"energy": -0.30809,
				"method": "rhf"
			},
			{
				"type": "occ",
				"energy": -0.26729,
				"method": "rhf"
			},
			{
				"type": "occ",
				"energy": -0.26211,
				"method": "rhf"
			},
			{
				"type": "occ",
				"energy": -0.23631,
				"method": "rhf"
			},
			{
				"type": "unocc",
				"energy": -0.04926,
				"method": "rhf"
			},
			{
				"type": "unocc",
				"energy": -0.02878,
				"method": "rhf"
			},
			{
				"type": "unocc",
				"energy": 0.02135,
				"method": "rhf"
			},
			{
				"type": "unocc",
				"energy": 0.03803,
				"method": "rhf"
			},
			{
				"type": "unocc",
				"energy": 0.07004,
				"method": "rhf"
			}
		],
		"cosmo_sigma_profile": { 
			"-0.025": 0.0,
			"-0.024": 0.0,
			"-0.023": 0.0,
			"-0.022": 0.0,
			"-0.021": 0.0,
			"-0.02": 0.0,
			"-0.019": 0.0,
			"-0.018": 0.0,
			"-0.017": 0.0,
			"-0.016": 0.0,
			"-0.015": 0.0,
			"-0.014": 0.0,
			"-0.013": 0.0,
			"-0.012": 0.0,
			"-0.011": 0.0,
			"-0.01": 0.0,
			"-0.009": 0.263495435566,
			"-0.008": 3.30156836205,
			"-0.007": 6.73318299946,
			"-0.006": 15.7005784998,
			"-0.005": 23.5545368478,
			"-0.004": 24.8756607606,
			"-0.003": 17.9102203203,
			"-0.002": 16.4862172735,
			"-0.001": 18.2146028015,
			"0.0": 12.7900312883,
			"0.001": 12.1166985639,
			"0.002": 16.6037840823,
			"0.003": 11.5031545976,
			"0.004": 4.33495873122,
			"0.005": 3.98422516835,
			"0.006": 4.17224134478,
			"0.007": 4.70894125887,
			"0.008": 4.48841797276,
			"0.009": 4.6796270021,
			"0.01": 5.1654524951,
			"0.011": 4.59183190358,
			"0.012": 5.77081205001,
			"0.013": 4.03522747591,
			"0.014": 0.949337031639,
			"0.015": 0.0,
			"0.016": 0.0,
			"0.017": 0.0,
			"0.018": 0.0,
			"0.019": 0.0,
			"0.02": 0.0,
			"0.021": 0.0,
			"0.022": 0.0,
			"0.023": 0.0,
			"0.024": 0.0,
			"0.025": 0.0
		}
	}
}
