{
	 "smiles": "OC(=O)C1=C(C=CS1)S(=O)(=O)C(F)F", 
	 "Tm": 395.15, 
	 "num_atms": 18, 
	 "gaussian": { 
		 "optdone": 1, 
		 "sigma_profile": "yes", 
		 "theory": "DFT", 
		 "functional": "B3LYP", 
		 "basiset": "6-31G**", 
		 "properties": { 
			 "R2extent": 3499.4206, 
			 "electric_dipole_moment_norm": 5.85113544366, 
			 "electric_quadrupole_moment_norm": 17.6476226133, 
			 "total_energy": -1527.88386301, 
			 "HOMO_LUMO_gap": 0.18823, 
			 "cosmo_polarized_energy": -21.63, 
			 "cosmo_cavitation_energy": 26.56, 
			 "cosmo_dispersion_energy": -20.13, 
			 "cosmo_repulsion_energy": 1.45, 
			 "cosmo_total_nonelectrostatic_energy": 7.89, 
			 "SMD_solvation_energy": 5.83 
		},
		"coords": [
			{
				"x": -3.0075225783,
				"y": 1.5126181552,
				"z": 1.3293221287,
				"element": "O" 
			},
			{
				"x": -2.2410086666,
				"y": 0.5638761965,
				"z": 0.7378430899,
				"element": "C" 
			},
			{
				"x": -1.8679478524,
				"y": -0.4056863185,
				"z": 1.349179184,
				"element": "O" 
			},
			{
				"x": -1.9301819023,
				"y": 0.7656719165,
				"z": -0.7035921284,
				"element": "C" 
			},
			{
				"x": -0.8563691661,
				"y": 0.2721935245,
				"z": -1.4139420028,
				"element": "C" 
			},
			{
				"x": -0.8846172724,
				"y": 0.5949227136,
				"z": -2.8007055393,
				"element": "C" 
			},
			{
				"x": -1.9907015831,
				"y": 1.3253250297,
				"z": -3.1379619073,
				"element": "C" 
			},
			{
				"x": -3.008909007,
				"y": 1.6213937134,
				"z": -1.7731155098,
				"element": "S" 
			},
			{
				"x": 0.5986005594,
				"y": -0.5525261192,
				"z": -0.7355728631,
				"element": "S" 
			},
			{
				"x": 1.4779455148,
				"y": -0.8011508091,
				"z": -1.8906802062,
				"element": "O" 
			},
			{
				"x": 1.0720585752,
				"y": 0.1695091196,
				"z": 0.4453716458,
				"element": "O" 
			},
			{
				"x": 0.0337795176,
				"y": -2.2873770333,
				"z": -0.2377309784,
				"element": "C" 
			},
			{
				"x": 0.0539399529,
				"y": -2.4114371982,
				"z": 1.0884629145,
				"element": "F" 
			},
			{
				"x": -1.2073150245,
				"y": -2.4963924596,
				"z": -0.7189735981,
				"element": "F" 
			},
			{
				"x": -3.0486354884,
				"y": 2.3161756353,
				"z": 0.7903306862,
				"element": "H" 
			},
			{
				"x": -0.1049331415,
				"y": 0.2964644328,
				"z": -3.4890510365,
				"element": "H" 
			},
			{
				"x": -2.2762476584,
				"y": 1.6951514211,
				"z": -4.1131752111,
				"element": "H" 
			},
			{
				"x": 0.7511652212,
				"y": -2.9674319203,
				"z": -0.7112086681,
				"element": "H" 
			}
		],
		 "valence_orbital": [ 
			{
				"type": "occ",
				"energy": -0.31802,
				"method": "rhf"
			},
			{
				"type": "occ",
				"energy": -0.30517,
				"method": "rhf"
			},
			{
				"type": "occ",
				"energy": -0.30183,
				"method": "rhf"
			},
			{
				"type": "occ",
				"energy": -0.29609,
				"method": "rhf"
			},
			{
				"type": "occ",
				"energy": -0.27964,
				"method": "rhf"
			},
			{
				"type": "unocc",
				"energy": -0.09141,
				"method": "rhf"
			},
			{
				"type": "unocc",
				"energy": -0.02705,
				"method": "rhf"
			},
			{
				"type": "unocc",
				"energy": -0.00999,
				"method": "rhf"
			},
			{
				"type": "unocc",
				"energy": 0.01173,
				"method": "rhf"
			},
			{
				"type": "unocc",
				"energy": 0.03528,
				"method": "rhf"
			}
		],
		"cosmo_sigma_profile": { 
			"-0.025": 0.0,
			"-0.024": 0.0,
			"-0.023": 0.0,
			"-0.022": 0.0,
			"-0.021": 0.0,
			"-0.02": 0.0765458701674,
			"-0.019": 0.812140912889,
			"-0.018": 1.15669352182,
			"-0.017": 0.250817105509,
			"-0.016": 1.35627240683,
			"-0.015": 0.927227660501,
			"-0.014": 1.00121491069,
			"-0.013": 1.29341349861,
			"-0.012": 3.66403155441,
			"-0.011": 5.02543609326,
			"-0.01": 4.41540205063,
			"-0.009": 5.52718081725,
			"-0.008": 5.57640527395,
			"-0.007": 7.2181871889,
			"-0.006": 7.75308985436,
			"-0.005": 6.63953305721,
			"-0.004": 9.1522081891,
			"-0.003": 9.93346319496,
			"-0.002": 12.9284530493,
			"-0.001": 17.001639242,
			"0.0": 14.6494708797,
			"0.001": 11.8351467216,
			"0.002": 15.8494487251,
			"0.003": 8.30602399648,
			"0.004": 4.39435210125,
			"0.005": 5.9957615478,
			"0.006": 6.1689680535,
			"0.007": 6.41622226158,
			"0.008": 8.15421542842,
			"0.009": 13.3555131528,
			"0.01": 13.6909380436,
			"0.011": 4.84914418514,
			"0.012": 0.748218108649,
			"0.013": 0.0,
			"0.014": 0.0,
			"0.015": 0.0,
			"0.016": 0.0,
			"0.017": 0.0,
			"0.018": 0.0,
			"0.019": 0.0,
			"0.02": 0.0,
			"0.021": 0.0,
			"0.022": 0.0,
			"0.023": 0.0,
			"0.024": 0.0,
			"0.025": 0.0
		}
	}
}
