{
	 "smiles": "O=C1CCCC2=C1C=CC(=C2)C#N", 
	 "Tm": 406.15, 
	 "num_atms": 22, 
	 "gaussian": { 
		 "optdone": 1, 
		 "sigma_profile": "yes", 
		 "theory": "DFT", 
		 "functional": "B3LYP", 
		 "basiset": "6-31G**", 
		 "properties": { 
			 "R2extent": 2662.629, 
			 "electric_dipole_moment_norm": 4.0217434503, 
			 "electric_quadrupole_moment_norm": 23.0034972998, 
			 "total_energy": -554.568719461, 
			 "HOMO_LUMO_gap": 0.17195, 
			 "cosmo_polarized_energy": -12.09, 
			 "cosmo_cavitation_energy": 26.4, 
			 "cosmo_dispersion_energy": -19.02, 
			 "cosmo_repulsion_energy": 1.5, 
			 "cosmo_total_nonelectrostatic_energy": 8.87, 
			 "SMD_solvation_energy": 5.84 
		},
		"coords": [
			{
				"x": -1.8108573743,
				"y": -0.0339893928,
				"z": -2.0673749849,
				"element": "O" 
			},
			{
				"x": -1.6064514283,
				"y": -0.2839985994,
				"z": -0.8900218977,
				"element": "C" 
			},
			{
				"x": -2.7313673046,
				"y": -0.7011955223,
				"z": 0.0454455758,
				"element": "C" 
			},
			{
				"x": -2.4670694894,
				"y": -0.3037954306,
				"z": 1.5028604465,
				"element": "C" 
			},
			{
				"x": -1.1239987154,
				"y": -0.8724432419,
				"z": 1.9770003004,
				"element": "C" 
			},
			{
				"x": 0.012800514,
				"y": -0.4867322827,
				"z": 1.05343254,
				"element": "C" 
			},
			{
				"x": -0.2256321613,
				"y": -0.2140287047,
				"z": -0.3095971716,
				"element": "C" 
			},
			{
				"x": 0.8350101282,
				"y": 0.1343497357,
				"z": -1.1604271371,
				"element": "C" 
			},
			{
				"x": 2.1331573874,
				"y": 0.2123271533,
				"z": -0.6813027488,
				"element": "C" 
			},
			{
				"x": 2.378780074,
				"y": -0.0578002726,
				"z": 0.6782560767,
				"element": "C" 
			},
			{
				"x": 1.3221500168,
				"y": -0.4016202547,
				"z": 1.533854569,
				"element": "C" 
			},
			{
				"x": 3.7141468912,
				"y": 0.024943676,
				"z": 1.1963529121,
				"element": "C" 
			},
			{
				"x": 4.7966618333,
				"y": 0.0913023147,
				"z": 1.6168760604,
				"element": "N" 
			},
			{
				"x": -2.8181646905,
				"y": -1.7961931399,
				"z": -0.0273225371,
				"element": "H" 
			},
			{
				"x": -3.6639970233,
				"y": -0.2851958966,
				"z": -0.3450631524,
				"element": "H" 
			},
			{
				"x": -3.27740934,
				"y": -0.661697505,
				"z": 2.1461283958,
				"element": "H" 
			},
			{
				"x": -2.4518795079,
				"y": 0.7899068404,
				"z": 1.5896076808,
				"element": "H" 
			},
			{
				"x": -1.1922833977,
				"y": -1.9699286132,
				"z": 2.0181783194,
				"element": "H" 
			},
			{
				"x": -0.8988941719,
				"y": -0.5430378564,
				"z": 2.9970079713,
				"element": "H" 
			},
			{
				"x": 0.605323286,
				"y": 0.338174604,
				"z": -2.2009102351,
				"element": "H" 
			},
			{
				"x": 2.9562440033,
				"y": 0.4792836083,
				"z": -1.3351559786,
				"element": "H" 
			},
			{
				"x": 1.5297304704,
				"y": -0.5984312196,
				"z": 2.5812749952,
				"element": "H" 
			}
		],
		 "valence_orbital": [ 
			{
				"type": "occ",
				"energy": -0.34232,
				"method": "rhf"
			},
			{
				"type": "occ",
				"energy": -0.3356,
				"method": "rhf"
			},
			{
				"type": "occ",
				"energy": -0.27666,
				"method": "rhf"
			},
			{
				"type": "occ",
				"energy": -0.27104,
				"method": "rhf"
			},
			{
				"type": "occ",
				"energy": -0.25763,
				"method": "rhf"
			},
			{
				"type": "unocc",
				"energy": -0.08568,
				"method": "rhf"
			},
			{
				"type": "unocc",
				"energy": -0.03144,
				"method": "rhf"
			},
			{
				"type": "unocc",
				"energy": -0.00098,
				"method": "rhf"
			},
			{
				"type": "unocc",
				"energy": 0.03064,
				"method": "rhf"
			},
			{
				"type": "unocc",
				"energy": 0.07081,
				"method": "rhf"
			}
		],
		"cosmo_sigma_profile": { 
			"-0.025": 0.0,
			"-0.024": 0.0,
			"-0.023": 0.0,
			"-0.022": 0.0,
			"-0.021": 0.0,
			"-0.02": 0.0,
			"-0.019": 0.0,
			"-0.018": 0.0,
			"-0.017": 0.0,
			"-0.016": 0.0,
			"-0.015": 0.0,
			"-0.014": 0.0,
			"-0.013": 0.0,
			"-0.012": 0.0,
			"-0.011": 0.0,
			"-0.01": 0.0,
			"-0.009": 0.118266998892,
			"-0.008": 3.71528269867,
			"-0.007": 5.66437451198,
			"-0.006": 11.7802303194,
			"-0.005": 15.92128234,
			"-0.004": 21.0326184458,
			"-0.003": 22.5179261629,
			"-0.002": 24.1121197416,
			"-0.001": 17.3654242964,
			"0.0": 14.4572166924,
			"0.001": 16.521857833,
			"0.002": 8.04213554419,
			"0.003": 4.88819356054,
			"0.004": 2.99600349971,
			"0.005": 4.88374499717,
			"0.006": 3.70450211688,
			"0.007": 4.57100239425,
			"0.008": 4.7842594255,
			"0.009": 5.28930014402,
			"0.01": 5.07666777222,
			"0.011": 5.98361189752,
			"0.012": 5.81930084274,
			"0.013": 1.99235908969,
			"0.014": 0.0323193065301,
			"0.015": 0.0,
			"0.016": 0.0,
			"0.017": 0.0,
			"0.018": 0.0,
			"0.019": 0.0,
			"0.02": 0.0,
			"0.021": 0.0,
			"0.022": 0.0,
			"0.023": 0.0,
			"0.024": 0.0,
			"0.025": 0.0
		}
	}
}
