{
	 "smiles": "OC1=CC=NC=C1", 
	 "Tm": 420.15, 
	 "num_atms": 12, 
	 "gaussian": { 
		 "optdone": 1, 
		 "sigma_profile": "yes", 
		 "theory": "DFT", 
		 "functional": "B3LYP", 
		 "basiset": "6-31G**", 
		 "properties": { 
			 "R2extent": 994.0779, 
			 "electric_dipole_moment_norm": 2.74671608471, 
			 "electric_quadrupole_moment_norm": 7.5120551622, 
			 "total_energy": -323.509393739, 
			 "HOMO_LUMO_gap": 0.24063, 
			 "cosmo_polarized_energy": -10.65, 
			 "cosmo_cavitation_energy": 16.05, 
			 "cosmo_dispersion_energy": -12.28, 
			 "cosmo_repulsion_energy": 1.03, 
			 "cosmo_total_nonelectrostatic_energy": 4.81, 
			 "SMD_solvation_energy": 1.94 
		},
		"coords": [
			{
				"x": -0.196833577,
				"y": -0.4935708212,
				"z": -0.9941553642,
				"element": "O" 
			},
			{
				"x": -0.1260279004,
				"y": 0.5826796961,
				"z": -0.1684837703,
				"element": "C" 
			},
			{
				"x": -0.5896593456,
				"y": 1.8126308603,
				"z": -0.6465033788,
				"element": "C" 
			},
			{
				"x": -0.5167119882,
				"y": 2.9146004721,
				"z": 0.2001489325,
				"element": "C" 
			},
			{
				"x": -0.0305598873,
				"y": 2.8820503314,
				"z": 1.4499744955,
				"element": "N" 
			},
			{
				"x": 0.4072478059,
				"y": 1.6955328513,
				"z": 1.8864213886,
				"element": "C" 
			},
			{
				"x": 0.385622138,
				"y": 0.5231653467,
				"z": 1.1318347136,
				"element": "C" 
			},
			{
				"x": 0.1546945134,
				"y": -1.270691566,
				"z": -0.5391784834,
				"element": "H" 
			},
			{
				"x": -0.9918433237,
				"y": 1.8897917292,
				"z": -1.6505812788,
				"element": "H" 
			},
			{
				"x": -0.8713564207,
				"y": 3.8828568607,
				"z": -0.1491548121,
				"element": "H" 
			},
			{
				"x": 0.8013749696,
				"y": 1.6716950899,
				"z": 2.9012241911,
				"element": "H" 
			},
			{
				"x": 0.7579530159,
				"y": -0.4098408504,
				"z": 1.5483533662,
				"element": "H" 
			}
		],
		 "valence_orbital": [ 
			{
				"type": "occ",
				"energy": -0.36773,
				"method": "rhf"
			},
			{
				"type": "occ",
				"energy": -0.35445,
				"method": "rhf"
			},
			{
				"type": "occ",
				"energy": -0.26323,
				"method": "rhf"
			},
			{
				"type": "occ",
				"energy": -0.25245,
				"method": "rhf"
			},
			{
				"type": "occ",
				"energy": -0.2514,
				"method": "rhf"
			},
			{
				"type": "unocc",
				"energy": -0.01077,
				"method": "rhf"
			},
			{
				"type": "unocc",
				"energy": -0.00661,
				"method": "rhf"
			},
			{
				"type": "unocc",
				"energy": 0.05939,
				"method": "rhf"
			},
			{
				"type": "unocc",
				"energy": 0.09964,
				"method": "rhf"
			},
			{
				"type": "unocc",
				"energy": 0.14072,
				"method": "rhf"
			}
		],
		"cosmo_sigma_profile": { 
			"-0.025": 0.0,
			"-0.024": 0.0,
			"-0.023": 0.0,
			"-0.022": 0.0,
			"-0.021": 0.0,
			"-0.02": 0.0,
			"-0.019": 0.183104264563,
			"-0.018": 1.32174287983,
			"-0.017": 1.12788454686,
			"-0.016": 1.12581543653,
			"-0.015": 0.964839348424,
			"-0.014": 0.992190672282,
			"-0.013": 0.88346584956,
			"-0.012": 0.870280584898,
			"-0.011": 1.09772579062,
			"-0.01": 0.978558829699,
			"-0.009": 1.2050803668,
			"-0.008": 1.8459375842,
			"-0.007": 3.23745157684,
			"-0.006": 7.6718459196,
			"-0.005": 8.77587897258,
			"-0.004": 6.82637524775,
			"-0.003": 5.92566936911,
			"-0.002": 5.51053534068,
			"-0.001": 5.45021254619,
			"0.0": 5.82395946236,
			"0.001": 8.1803057635,
			"0.002": 12.8985145866,
			"0.003": 15.1932427606,
			"0.004": 4.79395023677,
			"0.005": 4.02147941172,
			"0.006": 2.98787642581,
			"0.007": 2.55947450314,
			"0.008": 2.85047047603,
			"0.009": 2.43523405241,
			"0.01": 3.27935696228,
			"0.011": 1.72841000685,
			"0.012": 1.18386952514,
			"0.013": 0.720671365521,
			"0.014": 1.24272038133,
			"0.015": 0.949540287012,
			"0.016": 0.573712199362,
			"0.017": 1.05320624979,
			"0.018": 0.0426220257511,
			"0.019": 0.0,
			"0.02": 0.0,
			"0.021": 0.0,
			"0.022": 0.0,
			"0.023": 0.0,
			"0.024": 0.0,
			"0.025": 0.0
		}
	}
}
