{
	 "smiles": "CCOC(=O)C1=CC2=CC=CC=C2O1", 
	 "Tm": 303.65, 
	 "num_atms": 24, 
	 "gaussian": { 
		 "optdone": 1, 
		 "sigma_profile": "yes", 
		 "theory": "DFT", 
		 "functional": "B3LYP", 
		 "basiset": "6-31G**", 
		 "properties": { 
			 "R2extent": 3733.4795, 
			 "electric_dipole_moment_norm": 2.58094480956, 
			 "electric_quadrupole_moment_norm": 15.7645975283, 
			 "total_energy": -650.873022305, 
			 "HOMO_LUMO_gap": 0.17518, 
			 "cosmo_polarized_energy": -9.21, 
			 "cosmo_cavitation_energy": 28.88, 
			 "cosmo_dispersion_energy": -21.24, 
			 "cosmo_repulsion_energy": 1.68, 
			 "cosmo_total_nonelectrostatic_energy": 9.33, 
			 "SMD_solvation_energy": 6.43 
		},
		"coords": [
			{
				"x": 3.4067665666,
				"y": 2.9818917186,
				"z": 0.2880712603,
				"element": "C" 
			},
			{
				"x": 3.4235378994,
				"y": 1.6243388388,
				"z": 0.9746062516,
				"element": "C" 
			},
			{
				"x": 2.3007501485,
				"y": 0.8096454988,
				"z": 0.5598685068,
				"element": "O" 
			},
			{
				"x": 1.1442285014,
				"y": 0.9993268864,
				"z": 1.2378525811,
				"element": "C" 
			},
			{
				"x": 0.9930489425,
				"y": 1.7834505545,
				"z": 2.1515827154,
				"element": "O" 
			},
			{
				"x": 0.0942979739,
				"y": 0.1127129883,
				"z": 0.710963019,
				"element": "C" 
			},
			{
				"x": 0.0973086955,
				"y": -0.8139973599,
				"z": -0.2913619433,
				"element": "C" 
			},
			{
				"x": -1.2301911619,
				"y": -1.3588254625,
				"z": -0.3377769534,
				"element": "C" 
			},
			{
				"x": -1.8961032461,
				"y": -2.3263712335,
				"z": -1.1107170706,
				"element": "C" 
			},
			{
				"x": -3.2344244476,
				"y": -2.5798564673,
				"z": -0.8373544885,
				"element": "C" 
			},
			{
				"x": -3.9177369633,
				"y": -1.8905345834,
				"z": 0.1866174857,
				"element": "C" 
			},
			{
				"x": -3.2820205486,
				"y": -0.9280840211,
				"z": 0.9664238873,
				"element": "C" 
			},
			{
				"x": -1.9419045487,
				"y": -0.6873533209,
				"z": 0.6784732691,
				"element": "C" 
			},
			{
				"x": -1.1365147813,
				"y": 0.2080674743,
				"z": 1.3164613219,
				"element": "O" 
			},
			{
				"x": 4.3050168423,
				"y": 3.5459720196,
				"z": 0.5606434211,
				"element": "H" 
			},
			{
				"x": 2.5325235568,
				"y": 3.5586101456,
				"z": 0.5994729449,
				"element": "H" 
			},
			{
				"x": 3.3887750108,
				"y": 2.8688346615,
				"z": -0.7998936477,
				"element": "H" 
			},
			{
				"x": 3.3972038943,
				"y": 1.7319926871,
				"z": 2.0615378544,
				"element": "H" 
			},
			{
				"x": 4.3011935356,
				"y": 1.0400367217,
				"z": 0.6882585073,
				"element": "H" 
			},
			{
				"x": 0.9457277185,
				"y": -1.0657241599,
				"z": -0.9098660887,
				"element": "H" 
			},
			{
				"x": -1.3769164425,
				"y": -2.8610512662,
				"z": -1.9003152485,
				"element": "H" 
			},
			{
				"x": -3.7694384811,
				"y": -3.3228117278,
				"z": -1.4210801957,
				"element": "H" 
			},
			{
				"x": -4.9637769275,
				"y": -2.1159883126,
				"z": 0.3708225863,
				"element": "H" 
			},
			{
				"x": -3.7938517377,
				"y": -0.3903822798,
				"z": 1.7567100243,
				"element": "H" 
			}
		],
		 "valence_orbital": [ 
			{
				"type": "occ",
				"energy": -0.30225,
				"method": "rhf"
			},
			{
				"type": "occ",
				"energy": -0.29878,
				"method": "rhf"
			},
			{
				"type": "occ",
				"energy": -0.27666,
				"method": "rhf"
			},
			{
				"type": "occ",
				"energy": -0.24505,
				"method": "rhf"
			},
			{
				"type": "occ",
				"energy": -0.23085,
				"method": "rhf"
			},
			{
				"type": "unocc",
				"energy": -0.05567,
				"method": "rhf"
			},
			{
				"type": "unocc",
				"energy": 0.00323,
				"method": "rhf"
			},
			{
				"type": "unocc",
				"energy": 0.01945,
				"method": "rhf"
			},
			{
				"type": "unocc",
				"energy": 0.09314,
				"method": "rhf"
			},
			{
				"type": "unocc",
				"energy": 0.10097,
				"method": "rhf"
			}
		],
		"cosmo_sigma_profile": { 
			"-0.025": 0.0,
			"-0.024": 0.0,
			"-0.023": 0.0,
			"-0.022": 0.0,
			"-0.021": 0.0,
			"-0.02": 0.0,
			"-0.019": 0.0,
			"-0.018": 0.0,
			"-0.017": 0.0,
			"-0.016": 0.0,
			"-0.015": 0.0,
			"-0.014": 0.0,
			"-0.013": 0.0,
			"-0.012": 0.0,
			"-0.011": 0.0,
			"-0.01": 0.0,
			"-0.009": 0.294378355047,
			"-0.008": 1.55242280165,
			"-0.007": 4.58334933745,
			"-0.006": 11.7811573622,
			"-0.005": 15.8534729909,
			"-0.004": 20.8637251144,
			"-0.003": 20.5152600671,
			"-0.002": 19.0831960774,
			"-0.001": 19.9152996517,
			"0.0": 21.3347724708,
			"0.001": 19.4987901881,
			"0.002": 17.475704939,
			"0.003": 14.0704934336,
			"0.004": 13.8888343157,
			"0.005": 7.63089551768,
			"0.006": 4.01370521926,
			"0.007": 2.27741504117,
			"0.008": 2.55778566723,
			"0.009": 2.03841620103,
			"0.01": 2.7196937341,
			"0.011": 4.39820204919,
			"0.012": 3.84732123661,
			"0.013": 0.787002711785,
			"0.014": 0.0,
			"0.015": 0.0,
			"0.016": 0.0,
			"0.017": 0.0,
			"0.018": 0.0,
			"0.019": 0.0,
			"0.02": 0.0,
			"0.021": 0.0,
			"0.022": 0.0,
			"0.023": 0.0,
			"0.024": 0.0,
			"0.025": 0.0
		}
	}
}
