{
	 "smiles": "CC(C)N1N=CC=C1NC(=O)C(C)Cl", 
	 "Tm": 343.15, 
	 "num_atms": 28, 
	 "gaussian": { 
		 "optdone": 1, 
		 "sigma_profile": "yes", 
		 "theory": "DFT", 
		 "functional": "B3LYP", 
		 "basiset": "6-31G**", 
		 "properties": { 
			 "R2extent": 4304.6409, 
			 "electric_dipole_moment_norm": 2.48830421171, 
			 "electric_quadrupole_moment_norm": 5.75489472362, 
			 "total_energy": -1051.07518518, 
			 "HOMO_LUMO_gap": 0.2278, 
			 "cosmo_polarized_energy": -12.47, 
			 "cosmo_cavitation_energy": 32.52, 
			 "cosmo_dispersion_energy": -22.49, 
			 "cosmo_repulsion_energy": 1.81, 
			 "cosmo_total_nonelectrostatic_energy": 11.83, 
			 "SMD_solvation_energy": 5.49 
		},
		"coords": [
			{
				"x": 0.70166731,
				"y": -2.7526779697,
				"z": -1.5186604218,
				"element": "C" 
			},
			{
				"x": 0.3732403676,
				"y": -1.6395892935,
				"z": -0.5183761562,
				"element": "C" 
			},
			{
				"x": -0.8729085346,
				"y": -1.939800583,
				"z": 0.3207589351,
				"element": "C" 
			},
			{
				"x": 1.529090937,
				"y": -1.3986998607,
				"z": 0.3612348667,
				"element": "N" 
			},
			{
				"x": 2.0262411912,
				"y": -2.4150904188,
				"z": 1.0954381084,
				"element": "N" 
			},
			{
				"x": 3.0386900269,
				"y": -1.8896642789,
				"z": 1.786185372,
				"element": "C" 
			},
			{
				"x": 3.1985870736,
				"y": -0.5172427776,
				"z": 1.519786341,
				"element": "C" 
			},
			{
				"x": 2.2014146953,
				"y": -0.234119837,
				"z": 0.6010140187,
				"element": "C" 
			},
			{
				"x": 1.9174824264,
				"y": 0.9783946575,
				"z": -0.0586769885,
				"element": "N" 
			},
			{
				"x": 0.7811654634,
				"y": 1.7098488439,
				"z": 0.1487387709,
				"element": "C" 
			},
			{
				"x": -0.1779686808,
				"y": 1.3309484142,
				"z": 0.8039523848,
				"element": "O" 
			},
			{
				"x": 0.6775149304,
				"y": 3.0892642863,
				"z": -0.5251364139,
				"element": "C" 
			},
			{
				"x": -0.4685212552,
				"y": 3.1237337969,
				"z": -1.5322880648,
				"element": "C" 
			},
			{
				"x": 2.2308687861,
				"y": 3.6603337612,
				"z": -1.3224227226,
				"element": "Cl" 
			},
			{
				"x": -0.1454555304,
				"y": -2.9063655484,
				"z": -2.1942478159,
				"element": "H" 
			},
			{
				"x": 1.5802934923,
				"y": -2.4973602715,
				"z": -2.1188474793,
				"element": "H" 
			},
			{
				"x": 0.9053391215,
				"y": -3.6882695403,
				"z": -0.9925790893,
				"element": "H" 
			},
			{
				"x": 0.2233541634,
				"y": -0.7015801835,
				"z": -1.0590139604,
				"element": "H" 
			},
			{
				"x": -1.0860964079,
				"y": -1.1022453185,
				"z": 0.9881569202,
				"element": "H" 
			},
			{
				"x": -1.7362117011,
				"y": -2.0971878492,
				"z": -0.3337795194,
				"element": "H" 
			},
			{
				"x": -0.7159374619,
				"y": -2.8434335929,
				"z": 0.916075316,
				"element": "H" 
			},
			{
				"x": 3.6121236012,
				"y": -2.5169439204,
				"z": 2.4556546332,
				"element": "H" 
			},
			{
				"x": 3.9152900989,
				"y": 0.1762569479,
				"z": 1.9334436377,
				"element": "H" 
			},
			{
				"x": 2.6747976292,
				"y": 1.4310973837,
				"z": -0.5542132208,
				"element": "H" 
			},
			{
				"x": 0.5020644638,
				"y": 3.8068443766,
				"z": 0.2781448956,
				"element": "H" 
			},
			{
				"x": -1.379474223,
				"y": 2.7950938459,
				"z": -1.0255954171,
				"element": "H" 
			},
			{
				"x": -0.2694501344,
				"y": 2.454767149,
				"z": -2.3740534924,
				"element": "H" 
			},
			{
				"x": -0.6138018488,
				"y": 4.1357877806,
				"z": -1.9153934379,
				"element": "H" 
			}
		],
		 "valence_orbital": [ 
			{
				"type": "occ",
				"energy": -0.30282,
				"method": "rhf"
			},
			{
				"type": "occ",
				"energy": -0.27707,
				"method": "rhf"
			},
			{
				"type": "occ",
				"energy": -0.27311,
				"method": "rhf"
			},
			{
				"type": "occ",
				"energy": -0.24548,
				"method": "rhf"
			},
			{
				"type": "occ",
				"energy": -0.23708,
				"method": "rhf"
			},
			{
				"type": "unocc",
				"energy": -0.00928,
				"method": "rhf"
			},
			{
				"type": "unocc",
				"energy": 0.00484,
				"method": "rhf"
			},
			{
				"type": "unocc",
				"energy": 0.02478,
				"method": "rhf"
			},
			{
				"type": "unocc",
				"energy": 0.06804,
				"method": "rhf"
			},
			{
				"type": "unocc",
				"energy": 0.0831,
				"method": "rhf"
			}
		],
		"cosmo_sigma_profile": { 
			"-0.025": 0.0,
			"-0.024": 0.0,
			"-0.023": 0.0,
			"-0.022": 0.0,
			"-0.021": 0.0,
			"-0.02": 0.0,
			"-0.019": 0.0,
			"-0.018": 0.0,
			"-0.017": 0.0,
			"-0.016": 0.0,
			"-0.015": 0.0,
			"-0.014": 0.271492499467,
			"-0.013": 0.507436670753,
			"-0.012": 0.685577513369,
			"-0.011": 0.771649513691,
			"-0.01": 0.703964910134,
			"-0.009": 2.41889311838,
			"-0.008": 3.45683695981,
			"-0.007": 5.93730155756,
			"-0.006": 9.43936680153,
			"-0.005": 15.1785352541,
			"-0.004": 21.3657054835,
			"-0.003": 24.8164880402,
			"-0.002": 23.7705569612,
			"-0.001": 24.2633522601,
			"0.0": 22.4958274066,
			"0.001": 19.5241762416,
			"0.002": 10.5122345996,
			"0.003": 11.5154810605,
			"0.004": 12.7851816164,
			"0.005": 16.0037613873,
			"0.006": 8.4329425138,
			"0.007": 4.02430010316,
			"0.008": 3.87453026668,
			"0.009": 2.96731708667,
			"0.01": 3.52527034233,
			"0.011": 3.34286934894,
			"0.012": 3.09849174754,
			"0.013": 1.93022268932,
			"0.014": 0.600827203089,
			"0.015": 0.27211911668,
			"0.016": 0.0,
			"0.017": 0.0,
			"0.018": 0.0,
			"0.019": 0.0,
			"0.02": 0.0,
			"0.021": 0.0,
			"0.022": 0.0,
			"0.023": 0.0,
			"0.024": 0.0,
			"0.025": 0.0
		}
	}
}
