{
	 "smiles": "CC1=C(NC(=O)CCl)C=CC(=C1)[N+]([O-])=O", 
	 "Tm": 392.15, 
	 "num_atms": 24, 
	 "gaussian": { 
		 "optdone": 1, 
		 "sigma_profile": "yes", 
		 "theory": "DFT", 
		 "functional": "B3LYP", 
		 "basiset": "6-31G**", 
		 "properties": { 
			 "R2extent": 5605.0858, 
			 "electric_dipole_moment_norm": 1.86373985577, 
			 "electric_quadrupole_moment_norm": 30.649744381, 
			 "total_energy": -1143.66277373, 
			 "HOMO_LUMO_gap": 0.16227, 
			 "cosmo_polarized_energy": -19.68, 
			 "cosmo_cavitation_energy": 30.92, 
			 "cosmo_dispersion_energy": -22.32, 
			 "cosmo_repulsion_energy": 1.76, 
			 "cosmo_total_nonelectrostatic_energy": 10.36, 
			 "SMD_solvation_energy": 7.99 
		},
		"coords": [
			{
				"x": -0.1838793554,
				"y": 0.9058793982,
				"z": 1.4534868713,
				"element": "C" 
			},
			{
				"x": -0.238711694,
				"y": -0.4231287782,
				"z": 0.7409117814,
				"element": "C" 
			},
			{
				"x": -0.8108741686,
				"y": -0.5357177238,
				"z": -0.551471467,
				"element": "C" 
			},
			{
				"x": -1.3563539396,
				"y": 0.6206025991,
				"z": -1.1387941943,
				"element": "N" 
			},
			{
				"x": -1.3749232997,
				"y": 1.0979312332,
				"z": -2.4452159591,
				"element": "C" 
			},
			{
				"x": -1.9459333284,
				"y": 2.1401338921,
				"z": -2.6960664213,
				"element": "O" 
			},
			{
				"x": -0.6386496273,
				"y": 0.2695985458,
				"z": -3.5019191797,
				"element": "C" 
			},
			{
				"x": -0.0690343079,
				"y": 1.292051457,
				"z": -4.8588427762,
				"element": "Cl" 
			},
			{
				"x": -0.8690685031,
				"y": -1.7849786658,
				"z": -1.1908076362,
				"element": "C" 
			},
			{
				"x": -0.327111381,
				"y": -2.9163014589,
				"z": -0.5930724244,
				"element": "C" 
			},
			{
				"x": 0.2459802723,
				"y": -2.7914090855,
				"z": 0.6682310592,
				"element": "C" 
			},
			{
				"x": 0.2839892808,
				"y": -1.5688139005,
				"z": 1.3363487851,
				"element": "C" 
			},
			{
				"x": 0.8156578893,
				"y": -3.9778494871,
				"z": 1.3170042762,
				"element": "N" 
			},
			{
				"x": 1.298428806,
				"y": -3.8381711306,
				"z": 2.4409403269,
				"element": "O" 
			},
			{
				"x": 0.7759403271,
				"y": -5.0405081698,
				"z": 0.6966988241,
				"element": "O" 
			},
			{
				"x": -1.1850204539,
				"y": 1.2711711846,
				"z": 1.7191658346,
				"element": "H" 
			},
			{
				"x": 0.3835704774,
				"y": 0.8228369924,
				"z": 2.3825385905,
				"element": "H" 
			},
			{
				"x": 0.2888773379,
				"y": 1.6751643802,
				"z": 0.8331130499,
				"element": "H" 
			},
			{
				"x": -1.7654746358,
				"y": 1.3024795278,
				"z": -0.5106986109,
				"element": "H" 
			},
			{
				"x": 0.2258561098,
				"y": -0.2468733509,
				"z": -3.0850171007,
				"element": "H" 
			},
			{
				"x": -1.3196600139,
				"y": -0.4718686138,
				"z": -3.9265114699,
				"element": "H" 
			},
			{
				"x": -1.3721077455,
				"y": -1.8810670249,
				"z": -2.1453561807,
				"element": "H" 
			},
			{
				"x": -0.3628729183,
				"y": -3.8855539404,
				"z": -1.0738636755,
				"element": "H" 
			},
			{
				"x": 0.7392748717,
				"y": -1.5241078803,
				"z": 2.3183976966,
				"element": "H" 
			}
		],
		 "valence_orbital": [ 
			{
				"type": "occ",
				"energy": -0.30897,
				"method": "rhf"
			},
			{
				"type": "occ",
				"energy": -0.29708,
				"method": "rhf"
			},
			{
				"type": "occ",
				"energy": -0.28785,
				"method": "rhf"
			},
			{
				"type": "occ",
				"energy": -0.28631,
				"method": "rhf"
			},
			{
				"type": "occ",
				"energy": -0.26,
				"method": "rhf"
			},
			{
				"type": "unocc",
				"energy": -0.09773,
				"method": "rhf"
			},
			{
				"type": "unocc",
				"energy": -0.04259,
				"method": "rhf"
			},
			{
				"type": "unocc",
				"energy": -0.02931,
				"method": "rhf"
			},
			{
				"type": "unocc",
				"energy": -0.00128,
				"method": "rhf"
			},
			{
				"type": "unocc",
				"energy": 0.02415,
				"method": "rhf"
			}
		],
		"cosmo_sigma_profile": { 
			"-0.025": 0.0,
			"-0.024": 0.0,
			"-0.023": 0.0,
			"-0.022": 0.0,
			"-0.021": 0.0,
			"-0.02": 0.0,
			"-0.019": 0.0,
			"-0.018": 0.0,
			"-0.017": 0.0,
			"-0.016": 0.0,
			"-0.015": 0.0114092206948,
			"-0.014": 0.722014515709,
			"-0.013": 1.57992034185,
			"-0.012": 2.41715094722,
			"-0.011": 3.11792606762,
			"-0.01": 3.66032497995,
			"-0.009": 5.06080410272,
			"-0.008": 6.75353061368,
			"-0.007": 10.5627570568,
			"-0.006": 12.9722913891,
			"-0.005": 13.7339557382,
			"-0.004": 13.3715818104,
			"-0.003": 14.3993392895,
			"-0.002": 16.7363519108,
			"-0.001": 21.3176199341,
			"0.0": 18.2951717785,
			"0.001": 16.9384626545,
			"0.002": 8.78530004278,
			"0.003": 6.20600623981,
			"0.004": 8.34685784368,
			"0.005": 10.7363339718,
			"0.006": 10.4346455349,
			"0.007": 8.08536585935,
			"0.008": 11.09088947,
			"0.009": 6.39118214233,
			"0.01": 5.40203402844,
			"0.011": 4.08233027763,
			"0.012": 5.54913571488,
			"0.013": 2.07699382229,
			"0.014": 0.106607100878,
			"0.015": 0.0,
			"0.016": 0.0,
			"0.017": 0.0,
			"0.018": 0.0,
			"0.019": 0.0,
			"0.02": 0.0,
			"0.021": 0.0,
			"0.022": 0.0,
			"0.023": 0.0,
			"0.024": 0.0,
			"0.025": 0.0
		}
	}
}
