{
	 "smiles": "CCC1=NN(C)C(CC)=C1S(N)(=O)=O", 
	 "Tm": 451.15, 
	 "num_atms": 29, 
	 "gaussian": { 
		 "optdone": 1, 
		 "sigma_profile": "yes", 
		 "theory": "DFT", 
		 "functional": "B3LYP", 
		 "basiset": "6-31G**", 
		 "properties": { 
			 "R2extent": 3750.2598, 
			 "electric_dipole_moment_norm": 5.74145266026, 
			 "electric_quadrupole_moment_norm": 20.6412145154, 
			 "total_energy": -1026.71241236, 
			 "HOMO_LUMO_gap": 0.24852, 
			 "cosmo_polarized_energy": -20.5, 
			 "cosmo_cavitation_energy": 32.56, 
			 "cosmo_dispersion_energy": -23.16, 
			 "cosmo_repulsion_energy": 1.8, 
			 "cosmo_total_nonelectrostatic_energy": 11.19, 
			 "SMD_solvation_energy": 4.24 
		},
		"coords": [
			{
				"x": 4.6058327937,
				"y": 0.1635235448,
				"z": -0.7452557845,
				"element": "C" 
			},
			{
				"x": 3.314331255,
				"y": 0.8655770112,
				"z": -1.2017379105,
				"element": "C" 
			},
			{
				"x": 2.1529497709,
				"y": 0.6133749608,
				"z": -0.2811442423,
				"element": "C" 
			},
			{
				"x": 1.9048244698,
				"y": 1.4532135972,
				"z": 0.7180215512,
				"element": "N" 
			},
			{
				"x": 0.8414706708,
				"y": 0.9303287506,
				"z": 1.3859838762,
				"element": "N" 
			},
			{
				"x": 0.361644105,
				"y": 1.6173150718,
				"z": 2.5745907361,
				"element": "C" 
			},
			{
				"x": 0.3891568533,
				"y": -0.2319801857,
				"z": 0.8495242576,
				"element": "C" 
			},
			{
				"x": -0.7727346617,
				"y": -0.9906604156,
				"z": 1.4222734503,
				"element": "C" 
			},
			{
				"x": -2.1218270933,
				"y": -0.6323194543,
				"z": 0.7712635697,
				"element": "C" 
			},
			{
				"x": 1.2207123817,
				"y": -0.4644042891,
				"z": -0.2505628838,
				"element": "C" 
			},
			{
				"x": 1.120770358,
				"y": -1.8144014411,
				"z": -1.3817082951,
				"element": "S" 
			},
			{
				"x": 0.5107638633,
				"y": -1.2101568059,
				"z": -2.8325924913,
				"element": "N" 
			},
			{
				"x": 0.0979729749,
				"y": -2.7366256938,
				"z": -0.8832716573,
				"element": "O" 
			},
			{
				"x": 2.4795741001,
				"y": -2.2534472547,
				"z": -1.6988059645,
				"element": "O" 
			},
			{
				"x": 5.4296347592,
				"y": 0.400753779,
				"z": -1.4261789409,
				"element": "H" 
			},
			{
				"x": 4.886497554,
				"y": 0.4946158587,
				"z": 0.2591916319,
				"element": "H" 
			},
			{
				"x": 4.4692777006,
				"y": -0.920085396,
				"z": -0.7337218502,
				"element": "H" 
			},
			{
				"x": 3.06776053,
				"y": 0.5347886035,
				"z": -2.216941924,
				"element": "H" 
			},
			{
				"x": 3.4735661541,
				"y": 1.9478756342,
				"z": -1.2441215136,
				"element": "H" 
			},
			{
				"x": 0.8917955818,
				"y": 2.5673340207,
				"z": 2.6235114275,
				"element": "H" 
			},
			{
				"x": 0.5747878293,
				"y": 1.0388856015,
				"z": 3.479095528,
				"element": "H" 
			},
			{
				"x": -0.7137013672,
				"y": 1.8027796252,
				"z": 2.5115842458,
				"element": "H" 
			},
			{
				"x": -0.583435698,
				"y": -2.0561978671,
				"z": 1.2837269102,
				"element": "H" 
			},
			{
				"x": -0.8220191672,
				"y": -0.8030484473,
				"z": 2.5006951672,
				"element": "H" 
			},
			{
				"x": -2.9343186977,
				"y": -1.1795886869,
				"z": 1.258490582,
				"element": "H" 
			},
			{
				"x": -2.3406129206,
				"y": 0.4381790232,
				"z": 0.8464049441,
				"element": "H" 
			},
			{
				"x": -2.1211983419,
				"y": -0.9106268722,
				"z": -0.2859478667,
				"element": "H" 
			},
			{
				"x": -0.4103423091,
				"y": -0.7967123871,
				"z": -2.7246487773,
				"element": "H" 
			},
			{
				"x": 1.1655665509,
				"y": -0.5863898857,
				"z": -3.294317776,
				"element": "H" 
			}
		],
		 "valence_orbital": [ 
			{
				"type": "occ",
				"energy": -0.30754,
				"method": "rhf"
			},
			{
				"type": "occ",
				"energy": -0.30099,
				"method": "rhf"
			},
			{
				"type": "occ",
				"energy": -0.28775,
				"method": "rhf"
			},
			{
				"type": "occ",
				"energy": -0.25335,
				"method": "rhf"
			},
			{
				"type": "occ",
				"energy": -0.25259,
				"method": "rhf"
			},
			{
				"type": "unocc",
				"energy": -0.00407,
				"method": "rhf"
			},
			{
				"type": "unocc",
				"energy": 0.02135,
				"method": "rhf"
			},
			{
				"type": "unocc",
				"energy": 0.04666,
				"method": "rhf"
			},
			{
				"type": "unocc",
				"energy": 0.07318,
				"method": "rhf"
			},
			{
				"type": "unocc",
				"energy": 0.08928,
				"method": "rhf"
			}
		],
		"cosmo_sigma_profile": { 
			"-0.025": 0.0,
			"-0.024": 0.0,
			"-0.023": 0.0,
			"-0.022": 0.0,
			"-0.021": 0.0,
			"-0.02": 0.0,
			"-0.019": 0.0,
			"-0.018": 0.0,
			"-0.017": 0.0,
			"-0.016": 0.0,
			"-0.015": 0.234944498606,
			"-0.014": 1.7302660695,
			"-0.013": 2.88521214944,
			"-0.012": 3.11772286809,
			"-0.011": 3.05252976829,
			"-0.01": 3.09495538721,
			"-0.009": 2.55590442127,
			"-0.008": 2.23651557171,
			"-0.007": 4.84948943117,
			"-0.006": 12.6626452802,
			"-0.005": 13.8627714493,
			"-0.004": 16.1360264149,
			"-0.003": 21.9299886596,
			"-0.002": 21.3592400928,
			"-0.001": 25.3841551537,
			"0.0": 21.6725354994,
			"0.001": 19.2866697795,
			"0.002": 10.7833435569,
			"0.003": 8.18474293668,
			"0.004": 5.60989723776,
			"0.005": 6.07857265841,
			"0.006": 5.03780801285,
			"0.007": 6.57216997272,
			"0.008": 5.00034460078,
			"0.009": 6.2215811981,
			"0.01": 7.48770936086,
			"0.011": 7.57141097535,
			"0.012": 7.59334975681,
			"0.013": 2.04601429322,
			"0.014": 0.792927948832,
			"0.015": 0.380615918702,
			"0.016": 0.0291055412904,
			"0.017": 0.0,
			"0.018": 0.0,
			"0.019": 0.0,
			"0.02": 0.0,
			"0.021": 0.0,
			"0.022": 0.0,
			"0.023": 0.0,
			"0.024": 0.0,
			"0.025": 0.0
		}
	}
}
