{
	 "smiles": "OC(=O)C1=C(Br)C=C(C=C1)[N+]([O-])=O", 
	 "Tm": 438.15, 
	 "num_atms": 17, 
	 "gaussian": { 
		 "optdone": 1, 
		 "sigma_profile": "yes", 
		 "theory": "DFT", 
		 "functional": "B3LYP", 
		 "basiset": "6-31G**", 
		 "properties": { 
			 "R2extent": 3886.5344, 
			 "electric_dipole_moment_norm": 1.933309251, 
			 "electric_quadrupole_moment_norm": 19.3511023588, 
			 "total_energy": -3196.10458568, 
			 "HOMO_LUMO_gap": 0.17227, 
			 "cosmo_polarized_energy": -13.04, 
			 "cosmo_cavitation_energy": 25.02, 
			 "cosmo_dispersion_energy": -19.03, 
			 "cosmo_repulsion_energy": 1.48, 
			 "cosmo_total_nonelectrostatic_energy": 7.46, 
			 "SMD_solvation_energy": 6.8 
		},
		"coords": [
			{
				"x": 1.4791077966,
				"y": -0.8374948199,
				"z": 3.4132169434,
				"element": "O" 
			},
			{
				"x": 2.0699472403,
				"y": 0.0571313705,
				"z": 2.6109040953,
				"element": "C" 
			},
			{
				"x": 3.202199551,
				"y": 0.419563158,
				"z": 2.8356203626,
				"element": "O" 
			},
			{
				"x": 1.3053835728,
				"y": 0.6391988446,
				"z": 1.4251751899,
				"element": "C" 
			},
			{
				"x": 0.0598277638,
				"y": 0.2603713727,
				"z": 0.88969405,
				"element": "C" 
			},
			{
				"x": -1.0132058778,
				"y": -1.1780284767,
				"z": 1.5853937129,
				"element": "Br" 
			},
			{
				"x": -0.4895612195,
				"y": 0.9083648442,
				"z": -0.2142684519,
				"element": "C" 
			},
			{
				"x": 0.2162418612,
				"y": 1.9560506329,
				"z": -0.7911672186,
				"element": "C" 
			},
			{
				"x": 1.4510305596,
				"y": 2.3706360375,
				"z": -0.3037056159,
				"element": "C" 
			},
			{
				"x": 1.9762552628,
				"y": 1.703781509,
				"z": 0.7940299915,
				"element": "C" 
			},
			{
				"x": -0.3720746557,
				"y": 2.6423466169,
				"z": -1.9591581833,
				"element": "N" 
			},
			{
				"x": 0.2721560884,
				"y": 3.5651257926,
				"z": -2.4505427222,
				"element": "O" 
			},
			{
				"x": -1.4638100822,
				"y": 2.2449080725,
				"z": -2.3592818257,
				"element": "O" 
			},
			{
				"x": 0.5789346623,
				"y": -1.0624331032,
				"z": 3.118753597,
				"element": "H" 
			},
			{
				"x": -1.4451519255,
				"y": 0.6142879225,
				"z": -0.6269235447,
				"element": "H" 
			},
			{
				"x": 1.9735576476,
				"y": 3.1901501073,
				"z": -0.7801240316,
				"element": "H" 
			},
			{
				"x": 2.9388617542,
				"y": 1.9840401187,
				"z": 1.2049836515,
				"element": "H" 
			}
		],
		 "valence_orbital": [ 
			{
				"type": "occ",
				"energy": -0.32761,
				"method": "rhf"
			},
			{
				"type": "occ",
				"energy": -0.31411,
				"method": "rhf"
			},
			{
				"type": "occ",
				"energy": -0.30695,
				"method": "rhf"
			},
			{
				"type": "occ",
				"energy": -0.29478,
				"method": "rhf"
			},
			{
				"type": "occ",
				"energy": -0.29241,
				"method": "rhf"
			},
			{
				"type": "unocc",
				"energy": -0.12014,
				"method": "rhf"
			},
			{
				"type": "unocc",
				"energy": -0.06032,
				"method": "rhf"
			},
			{
				"type": "unocc",
				"energy": -0.05114,
				"method": "rhf"
			},
			{
				"type": "unocc",
				"energy": -0.0453,
				"method": "rhf"
			},
			{
				"type": "unocc",
				"energy": 0.03293,
				"method": "rhf"
			}
		],
		"cosmo_sigma_profile": { 
			"-0.025": 0.0,
			"-0.024": 0.0,
			"-0.023": 0.0,
			"-0.022": 0.0,
			"-0.021": 0.0,
			"-0.02": 0.0,
			"-0.019": 0.0,
			"-0.018": 0.0,
			"-0.017": 0.0,
			"-0.016": 0.0,
			"-0.015": 0.0,
			"-0.014": 0.0,
			"-0.013": 0.0897376939241,
			"-0.012": 0.398084730582,
			"-0.011": 0.997517786625,
			"-0.01": 1.49486236055,
			"-0.009": 3.3065383594,
			"-0.008": 6.42559209302,
			"-0.007": 10.5596223478,
			"-0.006": 9.76170056226,
			"-0.005": 12.2214807716,
			"-0.004": 12.3560281155,
			"-0.003": 17.2994889579,
			"-0.002": 24.4174325998,
			"-0.001": 15.0463845363,
			"0.0": 12.5194881844,
			"0.001": 8.9994120923,
			"0.002": 8.42635111421,
			"0.003": 4.1788135939,
			"0.004": 5.29013102163,
			"0.005": 5.27191747004,
			"0.006": 9.12805338747,
			"0.007": 10.8453174319,
			"0.008": 7.39535859967,
			"0.009": 6.90865254677,
			"0.01": 5.43762501965,
			"0.011": 4.22885071541,
			"0.012": 2.15522710793,
			"0.013": 0.338339832318,
			"0.014": 0.0,
			"0.015": 0.0,
			"0.016": 0.0,
			"0.017": 0.0,
			"0.018": 0.0,
			"0.019": 0.0,
			"0.02": 0.0,
			"0.021": 0.0,
			"0.022": 0.0,
			"0.023": 0.0,
			"0.024": 0.0,
			"0.025": 0.0
		}
	}
}
