{
	 "smiles": "NC(=O)C1=CN=C(C=C1)C(F)(F)F", 
	 "Tm": 459.15, 
	 "num_atms": 18, 
	 "gaussian": { 
		 "optdone": 1, 
		 "sigma_profile": "yes", 
		 "theory": "DFT", 
		 "functional": "B3LYP", 
		 "basiset": "6-31G**", 
		 "properties": { 
			 "R2extent": 4194.8905, 
			 "electric_dipole_moment_norm": 2.91767903992, 
			 "electric_quadrupole_moment_norm": 19.2036610163, 
			 "total_energy": -754.021194861, 
			 "HOMO_LUMO_gap": 0.19716, 
			 "cosmo_polarized_energy": -14.27, 
			 "cosmo_cavitation_energy": 24.69, 
			 "cosmo_dispersion_energy": -17.79, 
			 "cosmo_repulsion_energy": 1.35, 
			 "cosmo_total_nonelectrostatic_energy": 8.25, 
			 "SMD_solvation_energy": 5.03 
		},
		"coords": [
			{
				"x": -2.338318959,
				"y": -0.0177898409,
				"z": -1.8217878841,
				"element": "N" 
			},
			{
				"x": -2.0465243242,
				"y": 0.4227782728,
				"z": -0.5579488187,
				"element": "C" 
			},
			{
				"x": -2.8263871531,
				"y": 0.2968698848,
				"z": 0.3769370765,
				"element": "O" 
			},
			{
				"x": -0.6938936815,
				"y": 1.0532801563,
				"z": -0.3649425821,
				"element": "C" 
			},
			{
				"x": 0.3791381201,
				"y": 0.908654806,
				"z": -1.2564427675,
				"element": "C" 
			},
			{
				"x": 1.5747267327,
				"y": 1.4700008581,
				"z": -1.0723044562,
				"element": "N" 
			},
			{
				"x": 1.7465561125,
				"y": 2.2032716909,
				"z": 0.0316930928,
				"element": "C" 
			},
			{
				"x": 0.7614674396,
				"y": 2.3974179,
				"z": 1.000447513,
				"element": "C" 
			},
			{
				"x": -0.4799451578,
				"y": 1.8032802567,
				"z": 0.7944457312,
				"element": "C" 
			},
			{
				"x": 3.1235524466,
				"y": 2.8242829368,
				"z": 0.1727641921,
				"element": "C" 
			},
			{
				"x": 3.3939886153,
				"y": 3.6466727084,
				"z": -0.8577793524,
				"element": "F" 
			},
			{
				"x": 3.2204582634,
				"y": 3.5488509363,
				"z": 1.3106276156,
				"element": "F" 
			},
			{
				"x": 4.0832975361,
				"y": 1.8823660121,
				"z": 0.2063979285,
				"element": "F" 
			},
			{
				"x": -1.8439175074,
				"y": 0.3311859423,
				"z": -2.6275190277,
				"element": "H" 
			},
			{
				"x": -3.2799299308,
				"y": -0.3533829646,
				"z": -1.9649853495,
				"element": "H" 
			},
			{
				"x": 0.2855505796,
				"y": 0.2909692284,
				"z": -2.147791426,
				"element": "H" 
			},
			{
				"x": 0.9659088339,
				"y": 2.9923105068,
				"z": 1.8820817518,
				"element": "H" 
			},
			{
				"x": -1.2904279659,
				"y": 1.9015807086,
				"z": 1.5088067627,
				"element": "H" 
			}
		],
		 "valence_orbital": [ 
			{
				"type": "occ",
				"energy": -0.31079,
				"method": "rhf"
			},
			{
				"type": "occ",
				"energy": -0.2938,
				"method": "rhf"
			},
			{
				"type": "occ",
				"energy": -0.28952,
				"method": "rhf"
			},
			{
				"type": "occ",
				"energy": -0.28472,
				"method": "rhf"
			},
			{
				"type": "occ",
				"energy": -0.26688,
				"method": "rhf"
			},
			{
				"type": "unocc",
				"energy": -0.06972,
				"method": "rhf"
			},
			{
				"type": "unocc",
				"energy": -0.04675,
				"method": "rhf"
			},
			{
				"type": "unocc",
				"energy": 0.02988,
				"method": "rhf"
			},
			{
				"type": "unocc",
				"energy": 0.06301,
				"method": "rhf"
			},
			{
				"type": "unocc",
				"energy": 0.10528,
				"method": "rhf"
			}
		],
		"cosmo_sigma_profile": { 
			"-0.025": 0.0,
			"-0.024": 0.0,
			"-0.023": 0.0,
			"-0.022": 0.0,
			"-0.021": 0.0,
			"-0.02": 0.0,
			"-0.019": 0.0,
			"-0.018": 0.0,
			"-0.017": 0.0,
			"-0.016": 0.0605165531954,
			"-0.015": 1.2112959811,
			"-0.014": 2.42490682603,
			"-0.013": 2.56116093583,
			"-0.012": 2.92005050517,
			"-0.011": 1.99430672821,
			"-0.01": 3.59626069953,
			"-0.009": 2.88266167745,
			"-0.008": 4.09673933213,
			"-0.007": 6.73291008423,
			"-0.006": 4.99541563686,
			"-0.005": 6.00351913067,
			"-0.004": 8.26465541911,
			"-0.003": 9.17518008226,
			"-0.002": 14.2951115851,
			"-0.001": 16.1633957866,
			"0.0": 15.9594738702,
			"0.001": 9.70945301541,
			"0.002": 24.8005996777,
			"0.003": 23.7370495599,
			"0.004": 4.78633466477,
			"0.005": 4.25233753091,
			"0.006": 4.25287381753,
			"0.007": 3.10510909566,
			"0.008": 2.0701512429,
			"0.009": 3.01032633142,
			"0.01": 2.0853379292,
			"0.011": 2.3412523029,
			"0.012": 4.0799361671,
			"0.013": 5.61525964747,
			"0.014": 1.19079151537,
			"0.015": 0.0,
			"0.016": 0.0,
			"0.017": 0.0,
			"0.018": 0.0,
			"0.019": 0.0,
			"0.02": 0.0,
			"0.021": 0.0,
			"0.022": 0.0,
			"0.023": 0.0,
			"0.024": 0.0,
			"0.025": 0.0
		}
	}
}
