{
	 "smiles": "COC1=CC(C=C)=CC=C1OCC1=CC=CC=C1", 
	 "Tm": 324.65, 
	 "num_atms": 34, 
	 "gaussian": { 
		 "optdone": 1, 
		 "sigma_profile": "yes", 
		 "theory": "DFT", 
		 "functional": "B3LYP", 
		 "basiset": "6-31G**", 
		 "properties": { 
			 "R2extent": 6289.8681, 
			 "electric_dipole_moment_norm": 2.33513918215, 
			 "electric_quadrupole_moment_norm": 6.21479679797, 
			 "total_energy": -769.747392882, 
			 "HOMO_LUMO_gap": 0.17999, 
			 "cosmo_polarized_energy": -9.71, 
			 "cosmo_cavitation_energy": 37.84, 
			 "cosmo_dispersion_energy": -26.22, 
			 "cosmo_repulsion_energy": 2.04, 
			 "cosmo_total_nonelectrostatic_energy": 13.65, 
			 "SMD_solvation_energy": 7.91 
		},
		"coords": [
			{
				"x": -3.2735782279,
				"y": -1.1610120948,
				"z": -0.5129310418,
				"element": "C" 
			},
			{
				"x": -2.6534140965,
				"y": -0.0180712443,
				"z": 0.0790224862,
				"element": "O" 
			},
			{
				"x": -1.2937424673,
				"y": -0.1089041784,
				"z": 0.2651543082,
				"element": "C" 
			},
			{
				"x": -0.7996289501,
				"y": -0.1913123352,
				"z": 1.558365995,
				"element": "C" 
			},
			{
				"x": 0.5836930865,
				"y": -0.2199823053,
				"z": 1.8214777298,
				"element": "C" 
			},
			{
				"x": 1.142005765,
				"y": -0.3012147807,
				"z": 3.1787074459,
				"element": "C" 
			},
			{
				"x": 0.4732896145,
				"y": -0.3376317731,
				"z": 4.3385320848,
				"element": "C" 
			},
			{
				"x": 1.4508862179,
				"y": -0.1695628423,
				"z": 0.722627172,
				"element": "C" 
			},
			{
				"x": 0.9735035433,
				"y": -0.0844082856,
				"z": -0.5869648913,
				"element": "C" 
			},
			{
				"x": -0.400474544,
				"y": -0.0542677812,
				"z": -0.8317212136,
				"element": "C" 
			},
			{
				"x": -0.9818004734,
				"y": 0.0297345503,
				"z": -2.0684010816,
				"element": "O" 
			},
			{
				"x": -0.1527496378,
				"y": 0.02593679,
				"z": -3.2292471989,
				"element": "C" 
			},
			{
				"x": 0.5340625913,
				"y": 1.3499523465,
				"z": -3.5044038347,
				"element": "C" 
			},
			{
				"x": -0.0672069895,
				"y": 2.5582397508,
				"z": -3.1336209856,
				"element": "C" 
			},
			{
				"x": 0.5470588558,
				"y": 3.772704246,
				"z": -3.4398000028,
				"element": "C" 
			},
			{
				"x": 1.7630293604,
				"y": 3.7936727819,
				"z": -4.1267285621,
				"element": "C" 
			},
			{
				"x": 2.3660067838,
				"y": 2.5919458753,
				"z": -4.501539135,
				"element": "C" 
			},
			{
				"x": 1.7555595031,
				"y": 1.3765662445,
				"z": -4.1870746359,
				"element": "C" 
			},
			{
				"x": -2.9023434395,
				"y": -1.3408677271,
				"z": -1.5264896107,
				"element": "H" 
			},
			{
				"x": -4.3428917763,
				"y": -0.9420822625,
				"z": -0.5512500166,
				"element": "H" 
			},
			{
				"x": -3.1111302378,
				"y": -2.0571614895,
				"z": 0.1004796019,
				"element": "H" 
			},
			{
				"x": -1.5263840826,
				"y": -0.2241375689,
				"z": 2.3632842645,
				"element": "H" 
			},
			{
				"x": 2.2309017316,
				"y": -0.3331359251,
				"z": 3.2150374033,
				"element": "H" 
			},
			{
				"x": -0.6110032801,
				"y": -0.3070423716,
				"z": 4.3937185849,
				"element": "H" 
			},
			{
				"x": 1.0015529595,
				"y": -0.3981458354,
				"z": 5.2843080722,
				"element": "H" 
			},
			{
				"x": 2.5246139033,
				"y": -0.1844451803,
				"z": 0.8899827798,
				"element": "H" 
			},
			{
				"x": 1.6788462735,
				"y": -0.0107631093,
				"z": -1.4055014298,
				"element": "H" 
			},
			{
				"x": -0.8453898436,
				"y": -0.2122181208,
				"z": -4.0439873844,
				"element": "H" 
			},
			{
				"x": 0.5814925492,
				"y": -0.7888566959,
				"z": -3.1757322598,
				"element": "H" 
			},
			{
				"x": -1.0101417807,
				"y": 2.5383564138,
				"z": -2.5961195872,
				"element": "H" 
			},
			{
				"x": 0.0751686188,
				"y": 4.7045696346,
				"z": -3.141345346,
				"element": "H" 
			},
			{
				"x": 2.2395308382,
				"y": 4.7403686852,
				"z": -4.3644108522,
				"element": "H" 
			},
			{
				"x": 3.3148674759,
				"y": 2.5989848153,
				"z": -5.0304683786,
				"element": "H" 
			},
			{
				"x": 2.2337101555,
				"y": 0.4422917728,
				"z": -4.4741604799,
				"element": "H" 
			}
		],
		 "valence_orbital": [ 
			{
				"type": "occ",
				"energy": -0.26992,
				"method": "rhf"
			},
			{
				"type": "occ",
				"energy": -0.25317,
				"method": "rhf"
			},
			{
				"type": "occ",
				"energy": -0.24778,
				"method": "rhf"
			},
			{
				"type": "occ",
				"energy": -0.23505,
				"method": "rhf"
			},
			{
				"type": "occ",
				"energy": -0.20131,
				"method": "rhf"
			},
			{
				"type": "unocc",
				"energy": -0.02132,
				"method": "rhf"
			},
			{
				"type": "unocc",
				"energy": -0.0087,
				"method": "rhf"
			},
			{
				"type": "unocc",
				"energy": -0.00561,
				"method": "rhf"
			},
			{
				"type": "unocc",
				"energy": 0.00786,
				"method": "rhf"
			},
			{
				"type": "unocc",
				"energy": 0.07036,
				"method": "rhf"
			}
		],
		"cosmo_sigma_profile": { 
			"-0.025": 0.0,
			"-0.024": 0.0,
			"-0.023": 0.0,
			"-0.022": 0.0,
			"-0.021": 0.0,
			"-0.02": 0.0,
			"-0.019": 0.0,
			"-0.018": 0.0,
			"-0.017": 0.0,
			"-0.016": 0.0,
			"-0.015": 0.0,
			"-0.014": 0.0,
			"-0.013": 0.0,
			"-0.012": 0.0,
			"-0.011": 0.0,
			"-0.01": 0.0,
			"-0.009": 0.0,
			"-0.008": 0.0,
			"-0.007": 3.08286754369,
			"-0.006": 16.2302867848,
			"-0.005": 26.8167757751,
			"-0.004": 28.4017213557,
			"-0.003": 29.9880326241,
			"-0.002": 25.1763291666,
			"-0.001": 21.6537446637,
			"0.0": 17.9890484702,
			"0.001": 19.3347885922,
			"0.002": 19.9658630699,
			"0.003": 19.5072900667,
			"0.004": 23.9079121672,
			"0.005": 24.1829362621,
			"0.006": 12.1026053753,
			"0.007": 3.65824946467,
			"0.008": 2.50076922643,
			"0.009": 1.57691030147,
			"0.01": 2.05484939858,
			"0.011": 1.90442582496,
			"0.012": 1.52499176402,
			"0.013": 0.0757189945242,
			"0.014": 0.0,
			"0.015": 0.0,
			"0.016": 0.0,
			"0.017": 0.0,
			"0.018": 0.0,
			"0.019": 0.0,
			"0.02": 0.0,
			"0.021": 0.0,
			"0.022": 0.0,
			"0.023": 0.0,
			"0.024": 0.0,
			"0.025": 0.0
		}
	}
}
