{
	 "smiles": "N#CC1=CC=C(CN2CCCCC2)C=C1", 
	 "Tm": 312.15, 
	 "num_atms": 31, 
	 "gaussian": { 
		 "optdone": 1, 
		 "sigma_profile": "yes", 
		 "theory": "DFT", 
		 "functional": "B3LYP", 
		 "basiset": "6-31G**", 
		 "properties": { 
			 "R2extent": 5343.0595, 
			 "electric_dipole_moment_norm": 5.6538900458, 
			 "electric_quadrupole_moment_norm": 33.5914436608, 
			 "total_energy": -614.511550271, 
			 "HOMO_LUMO_gap": 0.17253, 
			 "cosmo_polarized_energy": -8.94, 
			 "cosmo_cavitation_energy": 33.42, 
			 "cosmo_dispersion_energy": -23.33, 
			 "cosmo_repulsion_energy": 1.83, 
			 "cosmo_total_nonelectrostatic_energy": 11.92, 
			 "SMD_solvation_energy": 5.49 
		},
		"coords": [
			{
				"x": -5.718216439,
				"y": 0.7165734157,
				"z": -4.2155123089,
				"element": "N" 
			},
			{
				"x": -4.947607332,
				"y": 0.810684694,
				"z": -3.3488060531,
				"element": "C" 
			},
			{
				"x": -3.9982085915,
				"y": 0.9263215868,
				"z": -2.2805196966,
				"element": "C" 
			},
			{
				"x": -3.6812216312,
				"y": 2.1877380194,
				"z": -1.7512200558,
				"element": "C" 
			},
			{
				"x": -2.7542986041,
				"y": 2.2903662887,
				"z": -0.717611829,
				"element": "C" 
			},
			{
				"x": -2.1341270625,
				"y": 1.151902501,
				"z": -0.1880073456,
				"element": "C" 
			},
			{
				"x": -1.1724291215,
				"y": 1.2675796895,
				"z": 0.9807820112,
				"element": "C" 
			},
			{
				"x": -0.049309263,
				"y": 0.3447614586,
				"z": 0.9027182607,
				"element": "N" 
			},
			{
				"x": 0.6139327635,
				"y": 0.1914738539,
				"z": 2.2063665739,
				"element": "C" 
			},
			{
				"x": 1.9636666489,
				"y": -0.548619357,
				"z": 2.0710311568,
				"element": "C" 
			},
			{
				"x": 1.9819884971,
				"y": -1.4240968334,
				"z": 0.8134095917,
				"element": "C" 
			},
			{
				"x": 1.813235202,
				"y": -0.5438478028,
				"z": -0.4434595195,
				"element": "C" 
			},
			{
				"x": 0.913794058,
				"y": 0.6774483411,
				"z": -0.150797286,
				"element": "C" 
			},
			{
				"x": -2.4552287578,
				"y": -0.1033697874,
				"z": -0.7246567782,
				"element": "C" 
			},
			{
				"x": -3.3751269177,
				"y": -0.2219575239,
				"z": -1.7602137224,
				"element": "C" 
			},
			{
				"x": -4.1562015642,
				"y": 3.0748662616,
				"z": -2.1568676942,
				"element": "H" 
			},
			{
				"x": -2.5075891016,
				"y": 3.2702810808,
				"z": -0.3172834569,
				"element": "H" 
			},
			{
				"x": -1.7232624352,
				"y": 1.0332303392,
				"z": 1.9026654008,
				"element": "H" 
			},
			{
				"x": -0.8466072381,
				"y": 2.321627991,
				"z": 1.08422737,
				"element": "H" 
			},
			{
				"x": 0.7835714049,
				"y": 1.1731736613,
				"z": 2.6897172559,
				"element": "H" 
			},
			{
				"x": -0.0663008664,
				"y": -0.3695633271,
				"z": 2.8600218186,
				"element": "H" 
			},
			{
				"x": 2.782815974,
				"y": 0.1787454198,
				"z": 2.0108540146,
				"element": "H" 
			},
			{
				"x": 2.1466385758,
				"y": -1.1432193581,
				"z": 2.9722554023,
				"element": "H" 
			},
			{
				"x": 2.9125248339,
				"y": -1.9991890636,
				"z": 0.7562858548,
				"element": "H" 
			},
			{
				"x": 1.1631329251,
				"y": -2.1498510535,
				"z": 0.868746672,
				"element": "H" 
			},
			{
				"x": 2.7897231412,
				"y": -0.1901811044,
				"z": -0.7952045921,
				"element": "H" 
			},
			{
				"x": 1.381813387,
				"y": -1.1393688755,
				"z": -1.2551617775,
				"element": "H" 
			},
			{
				"x": 1.5265790734,
				"y": 1.555156334,
				"z": 0.1343563376,
				"element": "H" 
			},
			{
				"x": 0.3621649647,
				"y": 0.9655650915,
				"z": -1.0499845164,
				"element": "H" 
			},
			{
				"x": -1.9606605673,
				"y": -0.9819138005,
				"z": -0.3236292645,
				"element": "H" 
			},
			{
				"x": -3.6191859564,
				"y": -1.1957181407,
				"z": -2.1722018244,
				"element": "H" 
			}
		],
		 "valence_orbital": [ 
			{
				"type": "occ",
				"energy": -0.31892,
				"method": "rhf"
			},
			{
				"type": "occ",
				"energy": -0.31562,
				"method": "rhf"
			},
			{
				"type": "occ",
				"energy": -0.27086,
				"method": "rhf"
			},
			{
				"type": "occ",
				"energy": -0.25582,
				"method": "rhf"
			},
			{
				"type": "occ",
				"energy": -0.21969,
				"method": "rhf"
			},
			{
				"type": "unocc",
				"energy": -0.04716,
				"method": "rhf"
			},
			{
				"type": "unocc",
				"energy": -0.02053,
				"method": "rhf"
			},
			{
				"type": "unocc",
				"energy": 0.04157,
				"method": "rhf"
			},
			{
				"type": "unocc",
				"energy": 0.06964,
				"method": "rhf"
			},
			{
				"type": "unocc",
				"energy": 0.07879,
				"method": "rhf"
			}
		],
		"cosmo_sigma_profile": { 
			"-0.025": 0.0,
			"-0.024": 0.0,
			"-0.023": 0.0,
			"-0.022": 0.0,
			"-0.021": 0.0,
			"-0.02": 0.0,
			"-0.019": 0.0,
			"-0.018": 0.0,
			"-0.017": 0.0,
			"-0.016": 0.0,
			"-0.015": 0.0,
			"-0.014": 0.0,
			"-0.013": 0.0,
			"-0.012": 0.0,
			"-0.011": 0.0,
			"-0.01": 0.0,
			"-0.009": 0.0,
			"-0.008": 1.66075783612,
			"-0.007": 4.68155755167,
			"-0.006": 7.77638114239,
			"-0.005": 11.0240189349,
			"-0.004": 10.8645415075,
			"-0.003": 18.2031022617,
			"-0.002": 36.8314600908,
			"-0.001": 48.7164213562,
			"0.0": 36.8664617832,
			"0.001": 24.7458345451,
			"0.002": 14.4583432682,
			"0.003": 13.4450965716,
			"0.004": 4.30268035792,
			"0.005": 2.84198782949,
			"0.006": 3.75837520544,
			"0.007": 3.65196403485,
			"0.008": 4.19620779302,
			"0.009": 4.2584729668,
			"0.01": 3.38409725992,
			"0.011": 2.92673842328,
			"0.012": 2.47880863786,
			"0.013": 1.88566103598,
			"0.014": 0.216410136153,
			"0.015": 0.0,
			"0.016": 0.0,
			"0.017": 0.0,
			"0.018": 0.0,
			"0.019": 0.0,
			"0.02": 0.0,
			"0.021": 0.0,
			"0.022": 0.0,
			"0.023": 0.0,
			"0.024": 0.0,
			"0.025": 0.0
		}
	}
}
