{
	 "smiles": "S=C(NC1CCCCC1)C(=S)NC1CCCCC1", 
	 "Tm": 424.15, 
	 "num_atms": 42, 
	 "gaussian": { 
		 "optdone": 1, 
		 "sigma_profile": "yes", 
		 "theory": "DFT", 
		 "functional": "B3LYP", 
		 "basiset": "6-31G**", 
		 "properties": { 
			 "R2extent": 7939.6554, 
			 "electric_dipole_moment_norm": 3.90578164392, 
			 "electric_quadrupole_moment_norm": 21.242558393, 
			 "total_energy": -1453.86297611, 
			 "HOMO_LUMO_gap": 0.13948, 
			 "cosmo_polarized_energy": -13.89, 
			 "cosmo_cavitation_energy": 43.5, 
			 "cosmo_dispersion_energy": -30.52, 
			 "cosmo_repulsion_energy": 2.34, 
			 "cosmo_total_nonelectrostatic_energy": 15.32, 
			 "SMD_solvation_energy": 3.05 
		},
		"coords": [
			{
				"x": -0.8864351408,
				"y": -0.8358861964,
				"z": 2.7244920026,
				"element": "S" 
			},
			{
				"x": -0.6302933597,
				"y": 0.2723133143,
				"z": 1.483073067,
				"element": "C" 
			},
			{
				"x": -1.6444689597,
				"y": 0.7576944111,
				"z": 0.7581179193,
				"element": "N" 
			},
			{
				"x": -1.6727827073,
				"y": 1.5969627136,
				"z": -0.4477177895,
				"element": "C" 
			},
			{
				"x": -2.2959479995,
				"y": 2.9715404882,
				"z": -0.1617564911,
				"element": "C" 
			},
			{
				"x": -2.1641419042,
				"y": 3.8937986503,
				"z": -1.3985691751,
				"element": "C" 
			},
			{
				"x": -2.1742066693,
				"y": 3.1076554901,
				"z": -2.731621695,
				"element": "C" 
			},
			{
				"x": -3.0301671883,
				"y": 1.8394468719,
				"z": -2.6173158052,
				"element": "C" 
			},
			{
				"x": -2.4491901983,
				"y": 0.8603319655,
				"z": -1.5683632469,
				"element": "C" 
			},
			{
				"x": 0.7843773738,
				"y": 0.744414588,
				"z": 1.2026803403,
				"element": "C" 
			},
			{
				"x": 1.1768707983,
				"y": 2.3716595262,
				"z": 1.1388041533,
				"element": "S" 
			},
			{
				"x": 1.6582457822,
				"y": -0.2635325247,
				"z": 1.0995937993,
				"element": "N" 
			},
			{
				"x": 3.112338733,
				"y": -0.1207179887,
				"z": 0.9555351638,
				"element": "C" 
			},
			{
				"x": 3.6774927724,
				"y": -1.3819026669,
				"z": 0.2868189465,
				"element": "C" 
			},
			{
				"x": 3.4915652044,
				"y": -2.6558254378,
				"z": 1.1483871959,
				"element": "C" 
			},
			{
				"x": 3.5545458498,
				"y": -2.3598501024,
				"z": 2.6681432615,
				"element": "C" 
			},
			{
				"x": 4.4200080486,
				"y": -1.1254303055,
				"z": 2.953518764,
				"element": "C" 
			},
			{
				"x": 3.8149264193,
				"y": 0.1468973844,
				"z": 2.3209337408,
				"element": "C" 
			},
			{
				"x": -2.5484509634,
				"y": 0.4228818215,
				"z": 1.0767917882,
				"element": "H" 
			},
			{
				"x": -0.6372876383,
				"y": 1.749093783,
				"z": -0.7509774773,
				"element": "H" 
			},
			{
				"x": -1.8035849185,
				"y": 3.4172905234,
				"z": 0.7058990395,
				"element": "H" 
			},
			{
				"x": -3.3536256549,
				"y": 2.8310316486,
				"z": 0.1001424737,
				"element": "H" 
			},
			{
				"x": -1.2381145603,
				"y": 4.4738649585,
				"z": -1.3242071605,
				"element": "H" 
			},
			{
				"x": -2.9857123901,
				"y": 4.6189144984,
				"z": -1.3881848264,
				"element": "H" 
			},
			{
				"x": -1.1500085157,
				"y": 2.8236469415,
				"z": -3.0069218069,
				"element": "H" 
			},
			{
				"x": -2.5399767342,
				"y": 3.7459511543,
				"z": -3.5431290198,
				"element": "H" 
			},
			{
				"x": -3.114278677,
				"y": 1.3358009826,
				"z": -3.5862314074,
				"element": "H" 
			},
			{
				"x": -4.0504631614,
				"y": 2.1251614172,
				"z": -2.3316329325,
				"element": "H" 
			},
			{
				"x": -3.2654983772,
				"y": 0.2770278169,
				"z": -1.1224835585,
				"element": "H" 
			},
			{
				"x": -1.7799638509,
				"y": 0.1345341922,
				"z": -2.0443112932,
				"element": "H" 
			},
			{
				"x": 1.2871211685,
				"y": -1.1792183127,
				"z": 1.3360812875,
				"element": "H" 
			},
			{
				"x": 3.2575093739,
				"y": 0.7481177111,
				"z": 0.3086003044,
				"element": "H" 
			},
			{
				"x": 4.7460177347,
				"y": -1.2004235832,
				"z": 0.1256982982,
				"element": "H" 
			},
			{
				"x": 3.2338399305,
				"y": -1.5177145797,
				"z": -0.7055048329,
				"element": "H" 
			},
			{
				"x": 2.5416024532,
				"y": -3.1472023653,
				"z": 0.9040853472,
				"element": "H" 
			},
			{
				"x": 4.2719265941,
				"y": -3.3745175108,
				"z": 0.8741467629,
				"element": "H" 
			},
			{
				"x": 2.5460834254,
				"y": -2.1819109609,
				"z": 3.063925525,
				"element": "H" 
			},
			{
				"x": 3.938196001,
				"y": -3.2351010623,
				"z": 3.2031777097,
				"element": "H" 
			},
			{
				"x": 5.4304195367,
				"y": -1.2968830358,
				"z": 2.5587389611,
				"element": "H" 
			},
			{
				"x": 4.5357578499,
				"y": -0.9784976266,
				"z": 4.0326979649,
				"element": "H" 
			},
			{
				"x": 3.08765596,
				"y": 0.6014046792,
				"z": 2.999956139,
				"element": "H" 
			},
			{
				"x": 4.5988985592,
				"y": 0.8963767277,
				"z": 2.1675885625,
				"element": "H" 
			}
		],
		 "valence_orbital": [ 
			{
				"type": "occ",
				"energy": -0.30286,
				"method": "rhf"
			},
			{
				"type": "occ",
				"energy": -0.23659,
				"method": "rhf"
			},
			{
				"type": "occ",
				"energy": -0.22631,
				"method": "rhf"
			},
			{
				"type": "occ",
				"energy": -0.22271,
				"method": "rhf"
			},
			{
				"type": "occ",
				"energy": -0.20714,
				"method": "rhf"
			},
			{
				"type": "unocc",
				"energy": -0.06766,
				"method": "rhf"
			},
			{
				"type": "unocc",
				"energy": -0.00458,
				"method": "rhf"
			},
			{
				"type": "unocc",
				"energy": 0.06015,
				"method": "rhf"
			},
			{
				"type": "unocc",
				"energy": 0.06758,
				"method": "rhf"
			},
			{
				"type": "unocc",
				"energy": 0.08006,
				"method": "rhf"
			}
		],
		"cosmo_sigma_profile": { 
			"-0.025": 0.0,
			"-0.024": 0.0,
			"-0.023": 0.0,
			"-0.022": 0.0,
			"-0.021": 0.0,
			"-0.02": 0.0,
			"-0.019": 0.0,
			"-0.018": 0.0,
			"-0.017": 0.0,
			"-0.016": 0.0,
			"-0.015": 0.0395405168471,
			"-0.014": 0.625828199163,
			"-0.013": 1.03994046183,
			"-0.012": 0.867687702727,
			"-0.011": 1.18355437908,
			"-0.01": 2.31913287246,
			"-0.009": 2.25013894786,
			"-0.008": 2.1700319145,
			"-0.007": 3.22644062965,
			"-0.006": 3.29679255227,
			"-0.005": 4.73657196658,
			"-0.004": 15.8295843226,
			"-0.003": 39.8960500015,
			"-0.002": 51.4280772986,
			"-0.001": 51.9044073726,
			"0.0": 50.1487806727,
			"0.001": 28.8674590411,
			"0.002": 7.73715965017,
			"0.003": 9.58199959142,
			"0.004": 9.52226622928,
			"0.005": 11.00593696,
			"0.006": 10.2961784772,
			"0.007": 9.94270252934,
			"0.008": 10.5643827012,
			"0.009": 8.31925412316,
			"0.01": 3.8446369052,
			"0.011": 1.43854656004,
			"0.012": 0.0,
			"0.013": 0.0,
			"0.014": 0.0,
			"0.015": 0.0,
			"0.016": 0.0,
			"0.017": 0.0,
			"0.018": 0.0,
			"0.019": 0.0,
			"0.02": 0.0,
			"0.021": 0.0,
			"0.022": 0.0,
			"0.023": 0.0,
			"0.024": 0.0,
			"0.025": 0.0
		}
	}
}
