{
	 "smiles": "CC(C)(C)C1=CC=C(CCCC(O)=O)C=C1", 
	 "Tm": 327.15, 
	 "num_atms": 36, 
	 "gaussian": { 
		 "optdone": 1, 
		 "sigma_profile": "yes", 
		 "theory": "DFT", 
		 "functional": "B3LYP", 
		 "basiset": "6-31G**", 
		 "properties": { 
			 "R2extent": 5479.383, 
			 "electric_dipole_moment_norm": 5.06434619374, 
			 "electric_quadrupole_moment_norm": 21.0621053577, 
			 "total_energy": -696.025615593, 
			 "HOMO_LUMO_gap": 0.22757, 
			 "cosmo_polarized_energy": -12.5, 
			 "cosmo_cavitation_energy": 36.69, 
			 "cosmo_dispersion_energy": -25.27, 
			 "cosmo_repulsion_energy": 1.97, 
			 "cosmo_total_nonelectrostatic_energy": 13.39, 
			 "SMD_solvation_energy": 6.87 
		},
		"coords": [
			{
				"x": -0.0121913762,
				"y": -2.9646556435,
				"z": 2.504125631,
				"element": "C" 
			},
			{
				"x": -0.2917406309,
				"y": -2.7339956758,
				"z": 1.0068528866,
				"element": "C" 
			},
			{
				"x": 1.0378714507,
				"y": -2.9099014694,
				"z": 0.2350999963,
				"element": "C" 
			},
			{
				"x": -1.3036187514,
				"y": -3.8049717111,
				"z": 0.5339465589,
				"element": "C" 
			},
			{
				"x": -0.8633308365,
				"y": -1.3318033859,
				"z": 0.7285104059,
				"element": "C" 
			},
			{
				"x": -1.1753747673,
				"y": -0.9455913548,
				"z": -0.5844835589,
				"element": "C" 
			},
			{
				"x": -1.694358161,
				"y": 0.3172374973,
				"z": -0.8734351179,
				"element": "C" 
			},
			{
				"x": -1.9258957247,
				"y": 1.2594424345,
				"z": 0.14022062,
				"element": "C" 
			},
			{
				"x": -2.4769590853,
				"y": 2.636715824,
				"z": -0.1770176106,
				"element": "C" 
			},
			{
				"x": -1.5585852975,
				"y": 3.8075452269,
				"z": 0.2363830941,
				"element": "C" 
			},
			{
				"x": -0.133029147,
				"y": 3.7554408369,
				"z": -0.3529758343,
				"element": "C" 
			},
			{
				"x": -0.1446919971,
				"y": 3.8214847688,
				"z": -1.8754433601,
				"element": "C" 
			},
			{
				"x": -0.0783407417,
				"y": 2.630647545,
				"z": -2.530604896,
				"element": "O" 
			},
			{
				"x": -0.2442734147,
				"y": 4.8499724308,
				"z": -2.4982522332,
				"element": "O" 
			},
			{
				"x": -1.622904119,
				"y": 0.8755573164,
				"z": 1.4521527238,
				"element": "C" 
			},
			{
				"x": -1.1045427781,
				"y": -0.3884814232,
				"z": 1.7385342971,
				"element": "C" 
			},
			{
				"x": 0.7207347812,
				"y": -2.2522853643,
				"z": 2.8972110017,
				"element": "H" 
			},
			{
				"x": -0.9232830816,
				"y": -2.8867317991,
				"z": 3.106509403,
				"element": "H" 
			},
			{
				"x": 0.3944662366,
				"y": -3.9702129061,
				"z": 2.6519494118,
				"element": "H" 
			},
			{
				"x": 0.9004011906,
				"y": -2.7989603095,
				"z": -0.844614526,
				"element": "H" 
			},
			{
				"x": 1.4545794208,
				"y": -3.907030983,
				"z": 0.4161431244,
				"element": "H" 
			},
			{
				"x": 1.7785585868,
				"y": -2.1698352961,
				"z": 0.555803294,
				"element": "H" 
			},
			{
				"x": -0.9092755441,
				"y": -4.8102189496,
				"z": 0.7203565894,
				"element": "H" 
			},
			{
				"x": -2.2545277673,
				"y": -3.7085719751,
				"z": 1.0680888371,
				"element": "H" 
			},
			{
				"x": -1.5127524988,
				"y": -3.7235582285,
				"z": -0.5368222642,
				"element": "H" 
			},
			{
				"x": -1.0189760509,
				"y": -1.6402337896,
				"z": -1.4048175564,
				"element": "H" 
			},
			{
				"x": -1.9445604117,
				"y": 0.5672134212,
				"z": -1.9023318404,
				"element": "H" 
			},
			{
				"x": -3.4413967379,
				"y": 2.770897263,
				"z": 0.3294932325,
				"element": "H" 
			},
			{
				"x": -2.6885433047,
				"y": 2.7006467675,
				"z": -1.2503036056,
				"element": "H" 
			},
			{
				"x": -2.0288970354,
				"y": 4.74877751,
				"z": -0.0686855903,
				"element": "H" 
			},
			{
				"x": -1.4698161103,
				"y": 3.8388445312,
				"z": 1.3284185244,
				"element": "H" 
			},
			{
				"x": 0.3850045703,
				"y": 2.8572386172,
				"z": 0.0015098029,
				"element": "H" 
			},
			{
				"x": 0.4289636771,
				"y": 4.6254021173,
				"z": -0.0035148336,
				"element": "H" 
			},
			{
				"x": -0.0404272101,
				"y": 1.8990659296,
				"z": -1.8950715485,
				"element": "H" 
			},
			{
				"x": -1.7984103922,
				"y": 1.5700079842,
				"z": 2.2705829937,
				"element": "H" 
			},
			{
				"x": -0.8906769407,
				"y": -0.6327977571,
				"z": 2.7728819475,
				"element": "H" 
			}
		],
		 "valence_orbital": [ 
			{
				"type": "occ",
				"energy": -0.32074,
				"method": "rhf"
			},
			{
				"type": "occ",
				"energy": -0.30484,
				"method": "rhf"
			},
			{
				"type": "occ",
				"energy": -0.26225,
				"method": "rhf"
			},
			{
				"type": "occ",
				"energy": -0.25817,
				"method": "rhf"
			},
			{
				"type": "occ",
				"energy": -0.24369,
				"method": "rhf"
			},
			{
				"type": "unocc",
				"energy": -0.01612,
				"method": "rhf"
			},
			{
				"type": "unocc",
				"energy": -0.00999,
				"method": "rhf"
			},
			{
				"type": "unocc",
				"energy": 0.01419,
				"method": "rhf"
			},
			{
				"type": "unocc",
				"energy": 0.07273,
				"method": "rhf"
			},
			{
				"type": "unocc",
				"energy": 0.08144,
				"method": "rhf"
			}
		],
		"cosmo_sigma_profile": { 
			"-0.025": 0.0,
			"-0.024": 0.0,
			"-0.023": 0.0,
			"-0.022": 0.0,
			"-0.021": 0.0,
			"-0.02": 0.0,
			"-0.019": 0.0,
			"-0.018": 0.0,
			"-0.017": 0.0,
			"-0.016": 0.0,
			"-0.015": 0.0,
			"-0.014": 0.292960556711,
			"-0.013": 0.887645948063,
			"-0.012": 0.527649557858,
			"-0.011": 1.12343714805,
			"-0.01": 1.14051040352,
			"-0.009": 1.08549036656,
			"-0.008": 0.995349834942,
			"-0.007": 1.61775117479,
			"-0.006": 2.71377540655,
			"-0.005": 14.1320033989,
			"-0.004": 24.379011288,
			"-0.003": 36.615767229,
			"-0.002": 41.2046723375,
			"-0.001": 31.6320682154,
			"0.0": 25.4953831402,
			"0.001": 27.8998867423,
			"0.002": 16.072155704,
			"0.003": 7.93206396779,
			"0.004": 8.07861037171,
			"0.005": 7.90913490128,
			"0.006": 7.48927256945,
			"0.007": 2.11202544445,
			"0.008": 3.00478501776,
			"0.009": 2.48781862143,
			"0.01": 4.17170386652,
			"0.011": 5.14941504706,
			"0.012": 5.82271382965,
			"0.013": 3.48258568991,
			"0.014": 0.402670098653,
			"0.015": 0.0,
			"0.016": 0.0,
			"0.017": 0.0,
			"0.018": 0.0,
			"0.019": 0.0,
			"0.02": 0.0,
			"0.021": 0.0,
			"0.022": 0.0,
			"0.023": 0.0,
			"0.024": 0.0,
			"0.025": 0.0
		}
	}
}
