{
	 "smiles": "CC1=C(C(O)=O)C(C)=C(N1)C(O)=O", 
	 "Tm": 518.15, 
	 "num_atms": 22, 
	 "gaussian": { 
		 "optdone": 1, 
		 "sigma_profile": "yes", 
		 "theory": "DFT", 
		 "functional": "B3LYP", 
		 "basiset": "6-31G**", 
		 "properties": { 
			 "R2extent": 4100.0141, 
			 "electric_dipole_moment_norm": 2.14331079874, 
			 "electric_quadrupole_moment_norm": 8.39327018271, 
			 "total_energy": -665.9751324, 
			 "HOMO_LUMO_gap": 0.19781, 
			 "cosmo_polarized_energy": -15.61, 
			 "cosmo_cavitation_energy": 26.57, 
			 "cosmo_dispersion_energy": -19.5, 
			 "cosmo_repulsion_energy": 1.55, 
			 "cosmo_total_nonelectrostatic_energy": 8.63, 
			 "SMD_solvation_energy": 6.91 
		},
		"coords": [
			{
				"x": -2.3885573833,
				"y": 0.7313721293,
				"z": -0.917887708,
				"element": "C" 
			},
			{
				"x": -1.1023057615,
				"y": 0.3439466476,
				"z": -1.5747801519,
				"element": "C" 
			},
			{
				"x": -0.0267531155,
				"y": -0.4521771593,
				"z": -1.1401529629,
				"element": "C" 
			},
			{
				"x": 0.097793344,
				"y": -1.1364952596,
				"z": 0.1438688344,
				"element": "C" 
			},
			{
				"x": -0.9776574014,
				"y": -0.9413113988,
				"z": 0.9632087833,
				"element": "O" 
			},
			{
				"x": 1.0408967588,
				"y": -1.8222189421,
				"z": 0.4977850543,
				"element": "O" 
			},
			{
				"x": 0.9575242609,
				"y": -0.4904439284,
				"z": -2.180702783,
				"element": "C" 
			},
			{
				"x": 2.2633188032,
				"y": -1.2235513072,
				"z": -2.1396500669,
				"element": "C" 
			},
			{
				"x": 0.4478680039,
				"y": 0.2848370189,
				"z": -3.2163081271,
				"element": "C" 
			},
			{
				"x": -0.7904225089,
				"y": 0.7691704703,
				"z": -2.8162424392,
				"element": "N" 
			},
			{
				"x": 0.8870391867,
				"y": 0.683037678,
				"z": -4.5443644826,
				"element": "C" 
			},
			{
				"x": 2.0967912022,
				"y": 0.1982552934,
				"z": -4.9124486821,
				"element": "O" 
			},
			{
				"x": 0.2214855682,
				"y": 1.4001272311,
				"z": -5.2788837693,
				"element": "O" 
			},
			{
				"x": -2.9811992693,
				"y": 1.3713477014,
				"z": -1.5780298633,
				"element": "H" 
			},
			{
				"x": -2.9807064688,
				"y": -0.1516285836,
				"z": -0.662586721,
				"element": "H" 
			},
			{
				"x": -2.2059998366,
				"y": 1.2672859393,
				"z": 0.0175199211,
				"element": "H" 
			},
			{
				"x": -0.7727733767,
				"y": -1.4409583499,
				"z": 1.7706829406,
				"element": "H" 
			},
			{
				"x": 2.8684105589,
				"y": -0.8829292786,
				"z": -1.2941022312,
				"element": "H" 
			},
			{
				"x": 2.8221997795,
				"y": -1.0817637242,
				"z": -3.0638890728,
				"element": "H" 
			},
			{
				"x": 2.0983228202,
				"y": -2.2928199608,
				"z": -1.976349995,
				"element": "H" 
			},
			{
				"x": -1.3460763966,
				"y": 1.3621566776,
				"z": -3.4176517769,
				"element": "H" 
			},
			{
				"x": 2.2534012322,
				"y": 0.5428611055,
				"z": -5.8071347003,
				"element": "H" 
			}
		],
		 "valence_orbital": [ 
			{
				"type": "occ",
				"energy": -0.31172,
				"method": "rhf"
			},
			{
				"type": "occ",
				"energy": -0.28279,
				"method": "rhf"
			},
			{
				"type": "occ",
				"energy": -0.26833,
				"method": "rhf"
			},
			{
				"type": "occ",
				"energy": -0.25528,
				"method": "rhf"
			},
			{
				"type": "occ",
				"energy": -0.22855,
				"method": "rhf"
			},
			{
				"type": "unocc",
				"energy": -0.03074,
				"method": "rhf"
			},
			{
				"type": "unocc",
				"energy": -0.01766,
				"method": "rhf"
			},
			{
				"type": "unocc",
				"energy": 0.07525,
				"method": "rhf"
			},
			{
				"type": "unocc",
				"energy": 0.07899,
				"method": "rhf"
			},
			{
				"type": "unocc",
				"energy": 0.09219,
				"method": "rhf"
			}
		],
		"cosmo_sigma_profile": { 
			"-0.025": 0.0,
			"-0.024": 0.0,
			"-0.023": 0.0,
			"-0.022": 0.0,
			"-0.021": 0.0,
			"-0.02": 0.0,
			"-0.019": 0.0494971726856,
			"-0.018": 1.02091615336,
			"-0.017": 1.43238639879,
			"-0.016": 2.0706413342,
			"-0.015": 1.97157079666,
			"-0.014": 2.40487881108,
			"-0.013": 2.14300267399,
			"-0.012": 2.56307396238,
			"-0.011": 2.35647800573,
			"-0.01": 2.67661288305,
			"-0.009": 2.42776962424,
			"-0.008": 1.61498186097,
			"-0.007": 3.59250728865,
			"-0.006": 4.31739739248,
			"-0.005": 5.92470315171,
			"-0.004": 8.54629275988,
			"-0.003": 10.4166886129,
			"-0.002": 17.29810662,
			"-0.001": 21.5007725913,
			"0.0": 19.1096934803,
			"0.001": 18.7214432633,
			"0.002": 16.6505326297,
			"0.003": 11.9402397,
			"0.004": 6.71906125359,
			"0.005": 7.07762609094,
			"0.006": 6.78568604825,
			"0.007": 3.90493214585,
			"0.008": 2.99714665537,
			"0.009": 3.46631037941,
			"0.01": 2.63763530538,
			"0.011": 5.05576584266,
			"0.012": 7.78669370566,
			"0.013": 3.08260658648,
			"0.014": 0.0,
			"0.015": 0.0,
			"0.016": 0.0,
			"0.017": 0.0,
			"0.018": 0.0,
			"0.019": 0.0,
			"0.02": 0.0,
			"0.021": 0.0,
			"0.022": 0.0,
			"0.023": 0.0,
			"0.024": 0.0,
			"0.025": 0.0
		}
	}
}
