{
	 "smiles": "CC(=O)C1=CC=C(C=C1)S(=O)(=O)CC(F)(F)F", 
	 "Tm": 376.15, 
	 "num_atms": 26, 
	 "gaussian": { 
		 "optdone": 1, 
		 "sigma_profile": "yes", 
		 "theory": "DFT", 
		 "functional": "B3LYP", 
		 "basiset": "6-31G**", 
		 "properties": { 
			 "R2extent": 5325.355, 
			 "electric_dipole_moment_norm": 3.01460546838, 
			 "electric_quadrupole_moment_norm": 19.7402221862, 
			 "total_energy": -1309.80487861, 
			 "HOMO_LUMO_gap": 0.18029, 
			 "cosmo_polarized_energy": -17.58, 
			 "cosmo_cavitation_energy": 33.21, 
			 "cosmo_dispersion_energy": -23.5, 
			 "cosmo_repulsion_energy": 1.71, 
			 "cosmo_total_nonelectrostatic_energy": 11.42, 
			 "SMD_solvation_energy": 6.67 
		},
		"coords": [
			{
				"x": -1.7901987441,
				"y": -3.1197735064,
				"z": -3.1756729901,
				"element": "C" 
			},
			{
				"x": -2.2465807915,
				"y": -2.7937748011,
				"z": -1.7663155965,
				"element": "C" 
			},
			{
				"x": -3.2960835587,
				"y": -3.2343539698,
				"z": -1.3271301944,
				"element": "O" 
			},
			{
				"x": -1.3810316018,
				"y": -1.9102145646,
				"z": -0.9053722478,
				"element": "C" 
			},
			{
				"x": -0.1706317121,
				"y": -1.364493948,
				"z": -1.3570788764,
				"element": "C" 
			},
			{
				"x": 0.5926526199,
				"y": -0.5480755718,
				"z": -0.5237112953,
				"element": "C" 
			},
			{
				"x": 0.1309536711,
				"y": -0.2861405543,
				"z": 0.7656519019,
				"element": "C" 
			},
			{
				"x": -1.0634010835,
				"y": -0.8320537487,
				"z": 1.2451282687,
				"element": "C" 
			},
			{
				"x": -1.8176105828,
				"y": -1.6395396776,
				"z": 0.4010102343,
				"element": "C" 
			},
			{
				"x": 1.1244940877,
				"y": 0.7398628481,
				"z": 1.8618934969,
				"element": "S" 
			},
			{
				"x": 0.8289024369,
				"y": 0.3386902,
				"z": 3.2438678201,
				"element": "O" 
			},
			{
				"x": 2.495077449,
				"y": 0.7772652592,
				"z": 1.3410158016,
				"element": "O" 
			},
			{
				"x": 0.4027545654,
				"y": 2.4232019222,
				"z": 1.7239664013,
				"element": "C" 
			},
			{
				"x": 0.6916123231,
				"y": 3.1896722395,
				"z": 0.4468194357,
				"element": "C" 
			},
			{
				"x": 1.9939165073,
				"y": 3.4644465935,
				"z": 0.300045393,
				"element": "F" 
			},
			{
				"x": 0.2824809416,
				"y": 2.5121740527,
				"z": -0.6482423356,
				"element": "F" 
			},
			{
				"x": 0.0204482069,
				"y": 4.3614284684,
				"z": 0.4721208168,
				"element": "F" 
			},
			{
				"x": -0.8214803897,
				"y": -3.6316210162,
				"z": -3.1661953808,
				"element": "H" 
			},
			{
				"x": -1.6725060383,
				"y": -2.2079810801,
				"z": -3.7717415482,
				"element": "H" 
			},
			{
				"x": -2.53504686,
				"y": -3.7638333953,
				"z": -3.6432989898,
				"element": "H" 
			},
			{
				"x": 0.1869592237,
				"y": -1.5729962162,
				"z": -2.3596161682,
				"element": "H" 
			},
			{
				"x": 1.5349347334,
				"y": -0.1283015439,
				"z": -0.85660042,
				"element": "H" 
			},
			{
				"x": -1.3760228345,
				"y": -0.6421813486,
				"z": 2.2665132016,
				"element": "H" 
			},
			{
				"x": -2.7499400113,
				"y": -2.0834353842,
				"z": 0.7326937772,
				"element": "H" 
			},
			{
				"x": 0.8235255837,
				"y": 2.965193896,
				"z": 2.5740111442,
				"element": "H" 
			},
			{
				"x": -0.6757781414,
				"y": 2.3275348472,
				"z": 1.8602383499,
				"element": "H" 
			}
		],
		 "valence_orbital": [ 
			{
				"type": "occ",
				"energy": -0.31625,
				"method": "rhf"
			},
			{
				"type": "occ",
				"energy": -0.30723,
				"method": "rhf"
			},
			{
				"type": "occ",
				"energy": -0.29046,
				"method": "rhf"
			},
			{
				"type": "occ",
				"energy": -0.28581,
				"method": "rhf"
			},
			{
				"type": "occ",
				"energy": -0.26736,
				"method": "rhf"
			},
			{
				"type": "unocc",
				"energy": -0.08707,
				"method": "rhf"
			},
			{
				"type": "unocc",
				"energy": -0.03679,
				"method": "rhf"
			},
			{
				"type": "unocc",
				"energy": -0.00233,
				"method": "rhf"
			},
			{
				"type": "unocc",
				"energy": 0.03645,
				"method": "rhf"
			},
			{
				"type": "unocc",
				"energy": 0.06302,
				"method": "rhf"
			}
		],
		"cosmo_sigma_profile": { 
			"-0.025": 0.0,
			"-0.024": 0.0,
			"-0.023": 0.0,
			"-0.022": 0.0,
			"-0.021": 0.0,
			"-0.02": 0.0,
			"-0.019": 0.0,
			"-0.018": 0.0,
			"-0.017": 0.0,
			"-0.016": 0.0,
			"-0.015": 0.0,
			"-0.014": 0.0,
			"-0.013": 0.0,
			"-0.012": 0.915056885783,
			"-0.011": 4.78515543938,
			"-0.01": 4.43820217773,
			"-0.009": 3.41487746637,
			"-0.008": 7.17583341394,
			"-0.007": 14.4159006607,
			"-0.006": 16.0168191761,
			"-0.005": 12.551624772,
			"-0.004": 11.7665908147,
			"-0.003": 13.7350237499,
			"-0.002": 16.3408834557,
			"-0.001": 16.1226963694,
			"0.0": 18.437358862,
			"0.001": 26.058170739,
			"0.002": 32.0191281237,
			"0.003": 11.8077267312,
			"0.004": 5.10205717792,
			"0.005": 4.25306496018,
			"0.006": 4.49334829053,
			"0.007": 5.24773107113,
			"0.008": 4.50766808287,
			"0.009": 7.26250732913,
			"0.01": 10.8665876415,
			"0.011": 10.5416351367,
			"0.012": 2.69387431875,
			"0.013": 0.43880937144,
			"0.014": 0.0,
			"0.015": 0.0,
			"0.016": 0.0,
			"0.017": 0.0,
			"0.018": 0.0,
			"0.019": 0.0,
			"0.02": 0.0,
			"0.021": 0.0,
			"0.022": 0.0,
			"0.023": 0.0,
			"0.024": 0.0,
			"0.025": 0.0
		}
	}
}
