{
	 "smiles": "CC1=CC=C(N)C=C1Br", 
	 "Tm": 299.65, 
	 "num_atms": 17, 
	 "gaussian": { 
		 "optdone": 1, 
		 "sigma_profile": "yes", 
		 "theory": "DFT", 
		 "functional": "B3LYP", 
		 "basiset": "6-31G**", 
		 "properties": { 
			 "R2extent": 2960.3363, 
			 "electric_dipole_moment_norm": 2.7329349974, 
			 "electric_quadrupole_moment_norm": 9.48150146759, 
			 "total_energy": -2897.73262904, 
			 "HOMO_LUMO_gap": 0.19873, 
			 "cosmo_polarized_energy": -8.19, 
			 "cosmo_cavitation_energy": 22.58, 
			 "cosmo_dispersion_energy": -17.22, 
			 "cosmo_repulsion_energy": 1.41, 
			 "cosmo_total_nonelectrostatic_energy": 6.76, 
			 "SMD_solvation_energy": 2.8 
		},
		"coords": [
			{
				"x": 1.5789147844,
				"y": 1.4107105478,
				"z": -2.1218362228,
				"element": "C" 
			},
			{
				"x": 0.8711272464,
				"y": 0.9583496424,
				"z": -0.8706742945,
				"element": "C" 
			},
			{
				"x": 0.4079625767,
				"y": -0.3583858317,
				"z": -0.7330572006,
				"element": "C" 
			},
			{
				"x": -0.2497246719,
				"y": -0.8097392079,
				"z": 0.406412699,
				"element": "C" 
			},
			{
				"x": -0.4774603983,
				"y": 0.0597229158,
				"z": 1.4849020593,
				"element": "C" 
			},
			{
				"x": -1.0838562907,
				"y": -0.3892519586,
				"z": 2.6592871676,
				"element": "N" 
			},
			{
				"x": -0.0256259444,
				"y": 1.3845454517,
				"z": 1.3752867611,
				"element": "C" 
			},
			{
				"x": 0.6289299684,
				"y": 1.8022759211,
				"z": 0.2212906968,
				"element": "C" 
			},
			{
				"x": 1.2100878851,
				"y": 3.6321968051,
				"z": 0.1554437185,
				"element": "Br" 
			},
			{
				"x": 2.5918282719,
				"y": 1.7677732839,
				"z": -1.9054008317,
				"element": "H" 
			},
			{
				"x": 1.6545383193,
				"y": 0.5881736315,
				"z": -2.8381085906,
				"element": "H" 
			},
			{
				"x": 1.0504496117,
				"y": 2.2382450099,
				"z": -2.6079263845,
				"element": "H" 
			},
			{
				"x": 0.5702846742,
				"y": -1.0515927984,
				"z": -1.5545603725,
				"element": "H" 
			},
			{
				"x": -0.5853724369,
				"y": -1.8417904196,
				"z": 0.4662809322,
				"element": "H" 
			},
			{
				"x": -1.685969905,
				"y": -1.193479494,
				"z": 2.5492591249,
				"element": "H" 
			},
			{
				"x": -1.5164136019,
				"y": 0.3297598844,
				"z": 3.2226573426,
				"element": "H" 
			},
			{
				"x": -0.180800089,
				"y": 2.0838866167,
				"z": 2.1900433952,
				"element": "H" 
			}
		],
		 "valence_orbital": [ 
			{
				"type": "occ",
				"energy": -0.32406,
				"method": "rhf"
			},
			{
				"type": "occ",
				"energy": -0.28839,
				"method": "rhf"
			},
			{
				"type": "occ",
				"energy": -0.27835,
				"method": "rhf"
			},
			{
				"type": "occ",
				"energy": -0.2378,
				"method": "rhf"
			},
			{
				"type": "occ",
				"energy": -0.20383,
				"method": "rhf"
			},
			{
				"type": "unocc",
				"energy": -0.0051,
				"method": "rhf"
			},
			{
				"type": "unocc",
				"energy": 0.01258,
				"method": "rhf"
			},
			{
				"type": "unocc",
				"energy": 0.01593,
				"method": "rhf"
			},
			{
				"type": "unocc",
				"energy": 0.07765,
				"method": "rhf"
			},
			{
				"type": "unocc",
				"energy": 0.10731,
				"method": "rhf"
			}
		],
		"cosmo_sigma_profile": { 
			"-0.025": 0.0,
			"-0.024": 0.0,
			"-0.023": 0.0,
			"-0.022": 0.0,
			"-0.021": 0.0,
			"-0.02": 0.0,
			"-0.019": 0.0,
			"-0.018": 0.0,
			"-0.017": 0.0,
			"-0.016": 0.0,
			"-0.015": 0.0,
			"-0.014": 0.0,
			"-0.013": 0.443076477481,
			"-0.012": 2.77456228235,
			"-0.011": 3.2549992256,
			"-0.01": 3.35344278426,
			"-0.009": 3.12932952334,
			"-0.008": 2.68905347391,
			"-0.007": 3.5955273254,
			"-0.006": 5.23885193321,
			"-0.005": 7.04184981297,
			"-0.004": 10.1862239273,
			"-0.003": 11.5234223092,
			"-0.002": 10.8999153441,
			"-0.001": 12.5357171915,
			"0.0": 14.804834314,
			"0.001": 12.7412094078,
			"0.002": 11.7694971664,
			"0.003": 16.0099637843,
			"0.004": 17.0907643979,
			"0.005": 20.0559253543,
			"0.006": 6.57798407152,
			"0.007": 1.07936348797,
			"0.008": 0.93610136646,
			"0.009": 1.00944117765,
			"0.01": 0.686723958474,
			"0.011": 0.756810783764,
			"0.012": 0.346022371479,
			"0.013": 0.753465208259,
			"0.014": 0.643276038085,
			"0.015": 0.0937142948855,
			"0.016": 0.0,
			"0.017": 0.0,
			"0.018": 0.0,
			"0.019": 0.0,
			"0.02": 0.0,
			"0.021": 0.0,
			"0.022": 0.0,
			"0.023": 0.0,
			"0.024": 0.0,
			"0.025": 0.0
		}
	}
}
