{
	 "smiles": "CCCCC1=CC=C(C=C1)C(N)=O", 
	 "Tm": 401.15, 
	 "num_atms": 28, 
	 "gaussian": { 
		 "optdone": 1, 
		 "sigma_profile": "yes", 
		 "theory": "DFT", 
		 "functional": "B3LYP", 
		 "basiset": "6-31G**", 
		 "properties": { 
			 "R2extent": 3456.6595, 
			 "electric_dipole_moment_norm": 3.7391379461, 
			 "electric_quadrupole_moment_norm": 18.4222155215, 
			 "total_energy": -558.220898992, 
			 "HOMO_LUMO_gap": 0.20731, 
			 "cosmo_polarized_energy": -12.81, 
			 "cosmo_cavitation_energy": 30.54, 
			 "cosmo_dispersion_energy": -21.63, 
			 "cosmo_repulsion_energy": 1.75, 
			 "cosmo_total_nonelectrostatic_energy": 10.66, 
			 "SMD_solvation_energy": 5.62 
		},
		"coords": [
			{
				"x": 2.8300838239,
				"y": 0.7074403284,
				"z": 0.4781818609,
				"element": "C" 
			},
			{
				"x": 3.1395838058,
				"y": -0.7808127813,
				"z": 0.2729592063,
				"element": "C" 
			},
			{
				"x": 2.0699695429,
				"y": -1.7650480947,
				"z": 0.7801208442,
				"element": "C" 
			},
			{
				"x": 0.7886503052,
				"y": -1.8897764451,
				"z": -0.0773827133,
				"element": "C" 
			},
			{
				"x": -0.1841045236,
				"y": -0.7289368675,
				"z": -0.0187210734,
				"element": "C" 
			},
			{
				"x": -0.4952358002,
				"y": 0.0191903791,
				"z": -1.1634770638,
				"element": "C" 
			},
			{
				"x": -1.4010184826,
				"y": 1.0753231711,
				"z": -1.1111310167,
				"element": "C" 
			},
			{
				"x": -2.0393024416,
				"y": 1.4053204523,
				"z": 0.0902294909,
				"element": "C" 
			},
			{
				"x": -1.7323244709,
				"y": 0.6652872918,
				"z": 1.2415279916,
				"element": "C" 
			},
			{
				"x": -0.8203613989,
				"y": -0.3856043326,
				"z": 1.1839042807,
				"element": "C" 
			},
			{
				"x": -3.0075966073,
				"y": 2.5517233256,
				"z": 0.0704253979,
				"element": "C" 
			},
			{
				"x": -3.8641492835,
				"y": 2.6471595229,
				"z": 1.1443262579,
				"element": "N" 
			},
			{
				"x": -3.0251006588,
				"y": 3.3734205803,
				"z": -0.8384025838,
				"element": "O" 
			},
			{
				"x": 2.6370889162,
				"y": 0.9258914445,
				"z": 1.5348330994,
				"element": "H" 
			},
			{
				"x": 1.9540750821,
				"y": 1.0305092289,
				"z": -0.0890952191,
				"element": "H" 
			},
			{
				"x": 3.6779900351,
				"y": 1.3248370465,
				"z": 0.1625692119,
				"element": "H" 
			},
			{
				"x": 3.3278319431,
				"y": -0.9756798629,
				"z": -0.7921662091,
				"element": "H" 
			},
			{
				"x": 4.0803225333,
				"y": -1.0145143782,
				"z": 0.7883357044,
				"element": "H" 
			},
			{
				"x": 1.7980633334,
				"y": -1.5094468957,
				"z": 1.8131960305,
				"element": "H" 
			},
			{
				"x": 2.5210306952,
				"y": -2.7643883529,
				"z": 0.8270314925,
				"element": "H" 
			},
			{
				"x": 0.258215279,
				"y": -2.7953970347,
				"z": 0.2469681369,
				"element": "H" 
			},
			{
				"x": 1.0766169733,
				"y": -2.0656184388,
				"z": -1.1210764717,
				"element": "H" 
			},
			{
				"x": -0.0163794462,
				"y": -0.2295963105,
				"z": -2.1073057925,
				"element": "H" 
			},
			{
				"x": -1.6323809862,
				"y": 1.6630142791,
				"z": -1.9931915198,
				"element": "H" 
			},
			{
				"x": -2.1790268731,
				"y": 0.9248146808,
				"z": 2.197257782,
				"element": "H" 
			},
			{
				"x": -0.5960133254,
				"y": -0.9454471048,
				"z": 2.0884438354,
				"element": "H" 
			},
			{
				"x": -4.0912378107,
				"y": 1.8281441142,
				"z": 1.6863415947,
				"element": "H" 
			},
			{
				"x": -4.5885901596,
				"y": 3.3446910543,
				"z": 1.050997445,
				"element": "H" 
			}
		],
		 "valence_orbital": [ 
			{
				"type": "occ",
				"energy": -0.31897,
				"method": "rhf"
			},
			{
				"type": "occ",
				"energy": -0.26941,
				"method": "rhf"
			},
			{
				"type": "occ",
				"energy": -0.25583,
				"method": "rhf"
			},
			{
				"type": "occ",
				"energy": -0.24886,
				"method": "rhf"
			},
			{
				"type": "occ",
				"energy": -0.2409,
				"method": "rhf"
			},
			{
				"type": "unocc",
				"energy": -0.03359,
				"method": "rhf"
			},
			{
				"type": "unocc",
				"energy": -0.00781,
				"method": "rhf"
			},
			{
				"type": "unocc",
				"energy": 0.05924,
				"method": "rhf"
			},
			{
				"type": "unocc",
				"energy": 0.07826,
				"method": "rhf"
			},
			{
				"type": "unocc",
				"energy": 0.092,
				"method": "rhf"
			}
		],
		"cosmo_sigma_profile": { 
			"-0.025": 0.0,
			"-0.024": 0.0,
			"-0.023": 0.0,
			"-0.022": 0.0,
			"-0.021": 0.0,
			"-0.02": 0.0,
			"-0.019": 0.0,
			"-0.018": 0.0,
			"-0.017": 0.0,
			"-0.016": 0.0,
			"-0.015": 0.00110885963251,
			"-0.014": 0.943716703494,
			"-0.013": 2.56468297146,
			"-0.012": 2.3923815604,
			"-0.011": 2.36885581271,
			"-0.01": 2.58585654818,
			"-0.009": 2.12201491677,
			"-0.008": 2.8551110939,
			"-0.007": 2.02575996053,
			"-0.006": 3.92532112699,
			"-0.005": 8.5500192723,
			"-0.004": 12.0872756991,
			"-0.003": 16.4909272759,
			"-0.002": 25.4144578557,
			"-0.001": 26.3525620456,
			"0.0": 31.233859241,
			"0.001": 26.9925255382,
			"0.002": 17.2913223749,
			"0.003": 11.1600017864,
			"0.004": 12.0801979878,
			"0.005": 6.98596767901,
			"0.006": 2.68352643352,
			"0.007": 2.02617880029,
			"0.008": 2.7310520319,
			"0.009": 1.2889923029,
			"0.01": 1.21425622983,
			"0.011": 1.82696978217,
			"0.012": 2.20643014147,
			"0.013": 3.60961211885,
			"0.014": 4.94568940223,
			"0.015": 0.486126747959,
			"0.016": 0.0,
			"0.017": 0.0,
			"0.018": 0.0,
			"0.019": 0.0,
			"0.02": 0.0,
			"0.021": 0.0,
			"0.022": 0.0,
			"0.023": 0.0,
			"0.024": 0.0,
			"0.025": 0.0
		}
	}
}
