{
	 "smiles": "ClC(Cl)(Cl)C(=O)C1=CC(=CN1)C#N", 
	 "Tm": 408.15, 
	 "num_atms": 16, 
	 "gaussian": { 
		 "optdone": 1, 
		 "sigma_profile": "yes", 
		 "theory": "DFT", 
		 "functional": "B3LYP", 
		 "basiset": "6-31G**", 
		 "properties": { 
			 "R2extent": 4060.2582, 
			 "electric_dipole_moment_norm": 3.15538539168, 
			 "electric_quadrupole_moment_norm": 21.3045610117, 
			 "total_energy": -1833.80809128, 
			 "HOMO_LUMO_gap": 0.16908, 
			 "cosmo_polarized_energy": -14.43, 
			 "cosmo_cavitation_energy": 27.73, 
			 "cosmo_dispersion_energy": -19.72, 
			 "cosmo_repulsion_energy": 1.57, 
			 "cosmo_total_nonelectrostatic_energy": 9.58, 
			 "SMD_solvation_energy": 6.0 
		},
		"coords": [
			{
				"x": 0.1512727892,
				"y": -3.1693815023,
				"z": -2.6507661765,
				"element": "Cl" 
			},
			{
				"x": -0.4660799508,
				"y": -2.0156619633,
				"z": -1.4483531625,
				"element": "C" 
			},
			{
				"x": -2.2169894571,
				"y": -1.7063044835,
				"z": -1.7566989825,
				"element": "Cl" 
			},
			{
				"x": -0.2457989537,
				"y": -2.6985283257,
				"z": 0.2074410411,
				"element": "Cl" 
			},
			{
				"x": 0.3165274126,
				"y": -0.6584705265,
				"z": -1.5480596727,
				"element": "C" 
			},
			{
				"x": 1.2026420782,
				"y": -0.5324697912,
				"z": -2.3733996817,
				"element": "O" 
			},
			{
				"x": -0.0304879875,
				"y": 0.4346753193,
				"z": -0.6476290642,
				"element": "C" 
			},
			{
				"x": -0.9452977589,
				"y": 0.6457172757,
				"z": 0.3767618286,
				"element": "C" 
			},
			{
				"x": -0.7471880168,
				"y": 1.9696177076,
				"z": 0.8468062707,
				"element": "C" 
			},
			{
				"x": 0.2884707253,
				"y": 2.5312578063,
				"z": 0.0915211107,
				"element": "C" 
			},
			{
				"x": 0.7017063792,
				"y": 1.6019557871,
				"z": -0.792496013,
				"element": "N" 
			},
			{
				"x": -1.4582947641,
				"y": 2.6232273865,
				"z": 1.8902737833,
				"element": "C" 
			},
			{
				"x": -2.040931153,
				"y": 3.1569893974,
				"z": 2.7442735576,
				"element": "N" 
			},
			{
				"x": -1.6716205762,
				"y": -0.058709303,
				"z": 0.7496804742,
				"element": "H" 
			},
			{
				"x": 0.728844294,
				"y": 3.5153888541,
				"z": 0.146902391,
				"element": "H" 
			},
			{
				"x": 1.4346249395,
				"y": 1.6890963615,
				"z": -1.4837577042,
				"element": "H" 
			}
		],
		 "valence_orbital": [ 
			{
				"type": "occ",
				"energy": -0.3326,
				"method": "rhf"
			},
			{
				"type": "occ",
				"energy": -0.32151,
				"method": "rhf"
			},
			{
				"type": "occ",
				"energy": -0.30186,
				"method": "rhf"
			},
			{
				"type": "occ",
				"energy": -0.2898,
				"method": "rhf"
			},
			{
				"type": "occ",
				"energy": -0.26538,
				"method": "rhf"
			},
			{
				"type": "unocc",
				"energy": -0.0963,
				"method": "rhf"
			},
			{
				"type": "unocc",
				"energy": -0.05525,
				"method": "rhf"
			},
			{
				"type": "unocc",
				"energy": -0.03152,
				"method": "rhf"
			},
			{
				"type": "unocc",
				"energy": -0.01235,
				"method": "rhf"
			},
			{
				"type": "unocc",
				"energy": -0.01055,
				"method": "rhf"
			}
		],
		"cosmo_sigma_profile": { 
			"-0.025": 0.0,
			"-0.024": 0.0,
			"-0.023": 0.0,
			"-0.022": 0.0,
			"-0.021": 0.0,
			"-0.02": 0.0,
			"-0.019": 0.0,
			"-0.018": 0.0852133251268,
			"-0.017": 0.965462066549,
			"-0.016": 1.26479773166,
			"-0.015": 0.767638081118,
			"-0.014": 1.27257970153,
			"-0.013": 0.699539787776,
			"-0.012": 1.19258779903,
			"-0.011": 4.53124822478,
			"-0.01": 3.04185054571,
			"-0.009": 3.12863564255,
			"-0.008": 3.24796805404,
			"-0.007": 3.32896690832,
			"-0.006": 4.4756981765,
			"-0.005": 8.22576176995,
			"-0.004": 13.5117702358,
			"-0.003": 13.0527012545,
			"-0.002": 15.4803660236,
			"-0.001": 21.8168344289,
			"0.0": 23.981548163,
			"0.001": 23.2086693787,
			"0.002": 28.4905983012,
			"0.003": 12.5098186779,
			"0.004": 4.01318282462,
			"0.005": 4.35141255531,
			"0.006": 4.2091285428,
			"0.007": 5.06101165389,
			"0.008": 5.92609799337,
			"0.009": 6.9654297218,
			"0.01": 4.95826302027,
			"0.011": 3.35922742951,
			"0.012": 2.13889162077,
			"0.013": 1.70729106948,
			"0.014": 0.0704047950292,
			"0.015": 0.0,
			"0.016": 0.0,
			"0.017": 0.0,
			"0.018": 0.0,
			"0.019": 0.0,
			"0.02": 0.0,
			"0.021": 0.0,
			"0.022": 0.0,
			"0.023": 0.0,
			"0.024": 0.0,
			"0.025": 0.0
		}
	}
}
