{
	 "smiles": "C[C@]12CCC3C(C1CCC2=O)C(=O)C[C@H]1CC(=O)CC[C@]31C", 
	 "Tm": 505.15, 
	 "num_atms": 48, 
	 "gaussian": { 
		 "optdone": 1, 
		 "sigma_profile": "yes", 
		 "theory": "DFT", 
		 "functional": "B3LYP", 
		 "basiset": "6-31G**", 
		 "properties": { 
			 "R2extent": 7030.7594, 
			 "electric_dipole_moment_norm": 5.93447160748, 
			 "electric_quadrupole_moment_norm": 14.6299155582, 
			 "total_energy": -965.377575307, 
			 "HOMO_LUMO_gap": 0.19722, 
			 "cosmo_polarized_energy": -19.17, 
			 "cosmo_cavitation_energy": 42.03, 
			 "cosmo_dispersion_energy": -29.93, 
			 "cosmo_repulsion_energy": 2.19, 
			 "cosmo_total_nonelectrostatic_energy": 14.29, 
			 "SMD_solvation_energy": 7.29 
		},
		"coords": [
			{
				"x": -0.2788089526,
				"y": -2.789139842,
				"z": -2.7679059014,
				"element": "C" 
			},
			{
				"x": 0.2777353196,
				"y": -1.8720544587,
				"z": -1.6443714719,
				"element": "C" 
			},
			{
				"x": -0.195155981,
				"y": -2.4208174489,
				"z": -0.2896953143,
				"element": "C" 
			},
			{
				"x": -0.1957925922,
				"y": -1.4072354762,
				"z": 0.8626577366,
				"element": "C" 
			},
			{
				"x": -0.9573764671,
				"y": -0.1226516722,
				"z": 0.4695537952,
				"element": "C" 
			},
			{
				"x": -0.171969214,
				"y": 0.5410542158,
				"z": -0.7110569675,
				"element": "C" 
			},
			{
				"x": -0.0850689794,
				"y": -0.3949439074,
				"z": -1.9465097176,
				"element": "C" 
			},
			{
				"x": 0.9503922022,
				"y": 0.0486319249,
				"z": -3.034233243,
				"element": "C" 
			},
			{
				"x": 2.1934411884,
				"y": -0.8563046226,
				"z": -2.8750852241,
				"element": "C" 
			},
			{
				"x": 1.8073722261,
				"y": -1.9109265805,
				"z": -1.836964276,
				"element": "C" 
			},
			{
				"x": 2.5577219155,
				"y": -2.6916239178,
				"z": -1.2932088561,
				"element": "O" 
			},
			{
				"x": 1.1294661854,
				"y": 1.0839693802,
				"z": -0.1264672676,
				"element": "C" 
			},
			{
				"x": 2.240794265,
				"y": 0.7038051979,
				"z": -0.4496211298,
				"element": "O" 
			},
			{
				"x": 0.9364338907,
				"y": 2.1076096821,
				"z": 0.9847391895,
				"element": "C" 
			},
			{
				"x": 0.0952886338,
				"y": 1.5019596432,
				"z": 2.1301415019,
				"element": "C" 
			},
			{
				"x": -0.0957767671,
				"y": 2.4974438002,
				"z": 3.2925490355,
				"element": "C" 
			},
			{
				"x": -0.899153308,
				"y": 1.8967137963,
				"z": 4.4415850878,
				"element": "C" 
			},
			{
				"x": -0.5649050326,
				"y": 2.0342284542,
				"z": 5.6024928053,
				"element": "O" 
			},
			{
				"x": -2.1534014059,
				"y": 1.128777147,
				"z": 4.0420962804,
				"element": "C" 
			},
			{
				"x": -1.9281325732,
				"y": 0.199735651,
				"z": 2.8301488859,
				"element": "C" 
			},
			{
				"x": -1.2486039147,
				"y": 0.9003446396,
				"z": 1.6238357963,
				"element": "C" 
			},
			{
				"x": -2.2147905879,
				"y": 1.9841899134,
				"z": 1.085809874,
				"element": "C" 
			},
			{
				"x": -1.3736574334,
				"y": -2.7502835642,
				"z": -2.7740974548,
				"element": "H" 
			},
			{
				"x": 0.0278703714,
				"y": -3.825743411,
				"z": -2.5966836996,
				"element": "H" 
			},
			{
				"x": 0.0718165223,
				"y": -2.4961139346,
				"z": -3.762314739,
				"element": "H" 
			},
			{
				"x": 0.4412440912,
				"y": -3.2757109365,
				"z": -0.0344894649,
				"element": "H" 
			},
			{
				"x": -1.217240581,
				"y": -2.8059083041,
				"z": -0.4052059859,
				"element": "H" 
			},
			{
				"x": -0.6548646557,
				"y": -1.8869137384,
				"z": 1.7314584888,
				"element": "H" 
			},
			{
				"x": 0.8373566888,
				"y": -1.1734310716,
				"z": 1.1458638704,
				"element": "H" 
			},
			{
				"x": -1.935577805,
				"y": -0.4338702748,
				"z": 0.0723639962,
				"element": "H" 
			},
			{
				"x": -0.7312101151,
				"y": 1.4266328077,
				"z": -1.0398179745,
				"element": "H" 
			},
			{
				"x": -1.0932962665,
				"y": -0.3669219194,
				"z": -2.3790615274,
				"element": "H" 
			},
			{
				"x": 0.5064530817,
				"y": -0.0748345339,
				"z": -4.0267673722,
				"element": "H" 
			},
			{
				"x": 1.206141161,
				"y": 1.1064554524,
				"z": -2.9352487216,
				"element": "H" 
			},
			{
				"x": 3.0714290536,
				"y": -0.3207445679,
				"z": -2.5150460238,
				"element": "H" 
			},
			{
				"x": 2.4737289134,
				"y": -1.3623049369,
				"z": -3.8067445313,
				"element": "H" 
			},
			{
				"x": 1.9229989289,
				"y": 2.4129702207,
				"z": 1.3437450242,
				"element": "H" 
			},
			{
				"x": 0.4326989124,
				"y": 2.9959345115,
				"z": 0.5806089839,
				"element": "H" 
			},
			{
				"x": 0.6790653769,
				"y": 0.6626382443,
				"z": 2.5333525144,
				"element": "H" 
			},
			{
				"x": 0.8661330511,
				"y": 2.832985275,
				"z": 3.6906723787,
				"element": "H" 
			},
			{
				"x": -0.6280975623,
				"y": 3.3911683858,
				"z": 2.936393483,
				"element": "H" 
			},
			{
				"x": -2.9310288312,
				"y": 1.8711669735,
				"z": 3.8157867691,
				"element": "H" 
			},
			{
				"x": -2.4985722145,
				"y": 0.5668277005,
				"z": 4.9140261127,
				"element": "H" 
			},
			{
				"x": -1.3041842797,
				"y": -0.6341546016,
				"z": 3.1655119357,
				"element": "H" 
			},
			{
				"x": -2.8862748903,
				"y": -0.2346776634,
				"z": 2.5185649738,
				"element": "H" 
			},
			{
				"x": -2.5252144235,
				"y": 2.6884968555,
				"z": 1.8608370409,
				"element": "H" 
			},
			{
				"x": -1.7860881678,
				"y": 2.5798652195,
				"z": 0.2765631197,
				"element": "H" 
			},
			{
				"x": -3.1236389774,
				"y": 1.5117062926,
				"z": 0.6970381844,
				"element": "H" 
			}
		],
		 "valence_orbital": [ 
			{
				"type": "occ",
				"energy": -0.29968,
				"method": "rhf"
			},
			{
				"type": "occ",
				"energy": -0.29673,
				"method": "rhf"
			},
			{
				"type": "occ",
				"energy": -0.25277,
				"method": "rhf"
			},
			{
				"type": "occ",
				"energy": -0.23909,
				"method": "rhf"
			},
			{
				"type": "occ",
				"energy": -0.22814,
				"method": "rhf"
			},
			{
				"type": "unocc",
				"energy": -0.03092,
				"method": "rhf"
			},
			{
				"type": "unocc",
				"energy": -0.01445,
				"method": "rhf"
			},
			{
				"type": "unocc",
				"energy": -0.00398,
				"method": "rhf"
			},
			{
				"type": "unocc",
				"energy": 0.06028,
				"method": "rhf"
			},
			{
				"type": "unocc",
				"energy": 0.07743,
				"method": "rhf"
			}
		],
		"cosmo_sigma_profile": { 
			"-0.025": 0.0,
			"-0.024": 0.0,
			"-0.023": 0.0,
			"-0.022": 0.0,
			"-0.021": 0.0,
			"-0.02": 0.0,
			"-0.019": 0.0,
			"-0.018": 0.0,
			"-0.017": 0.0,
			"-0.016": 0.0,
			"-0.015": 0.0,
			"-0.014": 0.0,
			"-0.013": 0.0,
			"-0.012": 0.0,
			"-0.011": 0.0,
			"-0.01": 0.0,
			"-0.009": 0.0253214188811,
			"-0.008": 1.32786383369,
			"-0.007": 3.67700421587,
			"-0.006": 7.44570058785,
			"-0.005": 17.3124141662,
			"-0.004": 35.6041778758,
			"-0.003": 55.3311055519,
			"-0.002": 45.3295115558,
			"-0.001": 38.2482135666,
			"0.0": 31.0020228597,
			"0.001": 16.6467926031,
			"0.002": 6.39819212432,
			"0.003": 4.89873767787,
			"0.004": 4.26211552109,
			"0.005": 5.0654674051,
			"0.006": 4.91528904989,
			"0.007": 4.3090143779,
			"0.008": 5.53886517903,
			"0.009": 4.77106163181,
			"0.01": 5.62343820245,
			"0.011": 7.08689875405,
			"0.012": 10.6556428013,
			"0.013": 7.37955328656,
			"0.014": 1.09680985924,
			"0.015": 0.0,
			"0.016": 0.0,
			"0.017": 0.0,
			"0.018": 0.0,
			"0.019": 0.0,
			"0.02": 0.0,
			"0.021": 0.0,
			"0.022": 0.0,
			"0.023": 0.0,
			"0.024": 0.0,
			"0.025": 0.0
		}
	}
}
