{
	 "smiles": "CC(Cl)C1=NN=C(O1)C1=C(Cl)C=C(Cl)C=C1", 
	 "Tm": 329.15, 
	 "num_atms": 23, 
	 "gaussian": { 
		 "optdone": 1, 
		 "sigma_profile": "yes", 
		 "theory": "DFT", 
		 "functional": "B3LYP", 
		 "basiset": "6-31G**", 
		 "properties": { 
			 "R2extent": 7328.8706, 
			 "electric_dipole_moment_norm": 3.65950741221, 
			 "electric_quadrupole_moment_norm": 15.2103741203, 
			 "total_energy": -1950.56082637, 
			 "HOMO_LUMO_gap": 0.17884, 
			 "cosmo_polarized_energy": -12.33, 
			 "cosmo_cavitation_energy": 33.77, 
			 "cosmo_dispersion_energy": -24.58, 
			 "cosmo_repulsion_energy": 1.94, 
			 "cosmo_total_nonelectrostatic_energy": 11.13, 
			 "SMD_solvation_energy": 3.28 
		},
		"coords": [
			{
				"x": -0.5413236496,
				"y": -1.475598179,
				"z": -4.655753946,
				"element": "C" 
			},
			{
				"x": 0.8593075731,
				"y": -1.8788966788,
				"z": -4.2051099119,
				"element": "C" 
			},
			{
				"x": 0.9674901525,
				"y": -3.7101387746,
				"z": -4.0837529995,
				"element": "Cl" 
			},
			{
				"x": 1.2697751149,
				"y": -1.2741768906,
				"z": -2.9115083547,
				"element": "C" 
			},
			{
				"x": 2.3270912788,
				"y": -0.5629435491,
				"z": -2.6747671479,
				"element": "N" 
			},
			{
				"x": 2.2656511823,
				"y": -0.1983996918,
				"z": -1.3343239173,
				"element": "N" 
			},
			{
				"x": 1.1721429403,
				"y": -0.718263002,
				"z": -0.8541524522,
				"element": "C" 
			},
			{
				"x": 0.481793808,
				"y": -1.4170526448,
				"z": -1.8136863171,
				"element": "O" 
			},
			{
				"x": 0.5999820206,
				"y": -0.6946451397,
				"z": 0.4904804303,
				"element": "C" 
			},
			{
				"x": 1.0693966129,
				"y": 0.1247016659,
				"z": 1.5393658577,
				"element": "C" 
			},
			{
				"x": 2.3961812896,
				"y": 1.2376096527,
				"z": 1.3407555146,
				"element": "Cl" 
			},
			{
				"x": 0.4695921436,
				"y": 0.085614276,
				"z": 2.7993524129,
				"element": "C" 
			},
			{
				"x": -0.6040210669,
				"y": -0.7704813276,
				"z": 3.0262484262,
				"element": "C" 
			},
			{
				"x": -1.3454193792,
				"y": -0.8099412442,
				"z": 4.6107370066,
				"element": "Cl" 
			},
			{
				"x": -1.0943849932,
				"y": -1.5925497648,
				"z": 2.0116182191,
				"element": "C" 
			},
			{
				"x": -0.4901430625,
				"y": -1.5448739299,
				"z": 0.7633224886,
				"element": "C" 
			},
			{
				"x": -0.5854308879,
				"y": -0.3878274554,
				"z": -4.7758735046,
				"element": "H" 
			},
			{
				"x": -1.2902979489,
				"y": -1.778640505,
				"z": -3.9208164924,
				"element": "H" 
			},
			{
				"x": -0.7776899112,
				"y": -1.9433047834,
				"z": -5.6135034083,
				"element": "H" 
			},
			{
				"x": 1.6151477978,
				"y": -1.5952747111,
				"z": -4.9374949928,
				"element": "H" 
			},
			{
				"x": 0.8430188659,
				"y": 0.7236139937,
				"z": 3.5904859298,
				"element": "H" 
			},
			{
				"x": -1.9293439879,
				"y": -2.2574907037,
				"z": 2.1982433035,
				"element": "H" 
			},
			{
				"x": -0.8604158931,
				"y": -2.184240613,
				"z": -0.0292661444,
				"element": "H" 
			}
		],
		 "valence_orbital": [ 
			{
				"type": "occ",
				"energy": -0.31138,
				"method": "rhf"
			},
			{
				"type": "occ",
				"energy": -0.30577,
				"method": "rhf"
			},
			{
				"type": "occ",
				"energy": -0.28417,
				"method": "rhf"
			},
			{
				"type": "occ",
				"energy": -0.27438,
				"method": "rhf"
			},
			{
				"type": "occ",
				"energy": -0.25348,
				"method": "rhf"
			},
			{
				"type": "unocc",
				"energy": -0.07464,
				"method": "rhf"
			},
			{
				"type": "unocc",
				"energy": -0.03955,
				"method": "rhf"
			},
			{
				"type": "unocc",
				"energy": -0.02957,
				"method": "rhf"
			},
			{
				"type": "unocc",
				"energy": -0.00111,
				"method": "rhf"
			},
			{
				"type": "unocc",
				"energy": 0.02811,
				"method": "rhf"
			}
		],
		"cosmo_sigma_profile": { 
			"-0.025": 0.0,
			"-0.024": 0.0,
			"-0.023": 0.0,
			"-0.022": 0.0,
			"-0.021": 0.0,
			"-0.02": 0.0,
			"-0.019": 0.0,
			"-0.018": 0.0,
			"-0.017": 0.0,
			"-0.016": 0.0,
			"-0.015": 0.0,
			"-0.014": 0.0,
			"-0.013": 0.0,
			"-0.012": 0.0,
			"-0.011": 0.0,
			"-0.01": 0.243171111605,
			"-0.009": 3.61807906684,
			"-0.008": 6.04185953147,
			"-0.007": 9.55214252061,
			"-0.006": 12.0320121671,
			"-0.005": 14.3880805952,
			"-0.004": 16.6685422541,
			"-0.003": 18.5226822929,
			"-0.002": 22.8050469894,
			"-0.001": 28.0454134526,
			"0.0": 31.7316624731,
			"0.001": 21.7477247218,
			"0.002": 16.2318413452,
			"0.003": 20.5354890375,
			"0.004": 18.0121602203,
			"0.005": 12.3045760339,
			"0.006": 5.70534958911,
			"0.007": 2.50801995668,
			"0.008": 2.11277820165,
			"0.009": 2.22546672301,
			"0.01": 3.33326457169,
			"0.011": 3.62563042336,
			"0.012": 2.94030415946,
			"0.013": 2.29940356481,
			"0.014": 0.881778290073,
			"0.015": 0.0719578515148,
			"0.016": 0.0,
			"0.017": 0.0,
			"0.018": 0.0,
			"0.019": 0.0,
			"0.02": 0.0,
			"0.021": 0.0,
			"0.022": 0.0,
			"0.023": 0.0,
			"0.024": 0.0,
			"0.025": 0.0
		}
	}
}
