{
	 "smiles": "OC(NC1=CC=NC=C1)=C1N=CC=CC1=O", 
	 "Tm": 438.15, 
	 "num_atms": 25, 
	 "gaussian": { 
		 "optdone": 1, 
		 "sigma_profile": "yes", 
		 "theory": "DFT", 
		 "functional": "B3LYP", 
		 "basiset": "6-31G**", 
		 "properties": { 
			 "R2extent": 4284.8596, 
			 "electric_dipole_moment_norm": 3.8946683941, 
			 "electric_quadrupole_moment_norm": 19.7174951338, 
			 "total_energy": -739.269389405, 
			 "HOMO_LUMO_gap": 0.1318, 
			 "cosmo_polarized_energy": -18.74, 
			 "cosmo_cavitation_energy": 29.47, 
			 "cosmo_dispersion_energy": -21.82, 
			 "cosmo_repulsion_energy": 1.68, 
			 "cosmo_total_nonelectrostatic_energy": 9.33, 
			 "SMD_solvation_energy": 3.88 
		},
		"coords": [
			{
				"x": 0.3782516275,
				"y": 0.4407196108,
				"z": -2.2814946543,
				"element": "O" 
			},
			{
				"x": -0.437971352,
				"y": 0.287710998,
				"z": -1.2416546889,
				"element": "C" 
			},
			{
				"x": -0.202023325,
				"y": -0.8570362643,
				"z": -0.5664129031,
				"element": "N" 
			},
			{
				"x": -0.3742877851,
				"y": -1.1970276883,
				"z": 0.7938103848,
				"element": "C" 
			},
			{
				"x": -0.473172295,
				"y": -0.2497996027,
				"z": 1.8148444991,
				"element": "C" 
			},
			{
				"x": -0.5480708359,
				"y": -0.7098560745,
				"z": 3.1273703935,
				"element": "C" 
			},
			{
				"x": -0.5227812784,
				"y": -2.0012209005,
				"z": 3.4810854663,
				"element": "N" 
			},
			{
				"x": -0.4203741123,
				"y": -2.8927640471,
				"z": 2.488063861,
				"element": "C" 
			},
			{
				"x": -0.3419869494,
				"y": -2.5509527278,
				"z": 1.1403350132,
				"element": "C" 
			},
			{
				"x": -1.4217060788,
				"y": 1.2910068995,
				"z": -1.0435708404,
				"element": "C" 
			},
			{
				"x": -1.2144526799,
				"y": 2.3436874702,
				"z": -1.9090654509,
				"element": "N" 
			},
			{
				"x": -2.0589416867,
				"y": 3.339881091,
				"z": -1.9357708376,
				"element": "C" 
			},
			{
				"x": -3.2170040953,
				"y": 3.3817386534,
				"z": -1.0933047128,
				"element": "C" 
			},
			{
				"x": -3.4825832397,
				"y": 2.341148769,
				"z": -0.2559399647,
				"element": "C" 
			},
			{
				"x": -2.6078434831,
				"y": 1.1685420801,
				"z": -0.1947465991,
				"element": "C" 
			},
			{
				"x": -2.8766383419,
				"y": 0.1712966378,
				"z": 0.4946167977,
				"element": "O" 
			},
			{
				"x": 0.0794477311,
				"y": 1.312399796,
				"z": -2.66227888,
				"element": "H" 
			},
			{
				"x": 0.4050166754,
				"y": -1.4833362592,
				"z": -1.083153241,
				"element": "H" 
			},
			{
				"x": -0.4731730752,
				"y": 0.8111365449,
				"z": 1.6000025936,
				"element": "H" 
			},
			{
				"x": -0.6269650483,
				"y": 0.0086111554,
				"z": 3.9409051484,
				"element": "H" 
			},
			{
				"x": -0.4004527803,
				"y": -3.9409598326,
				"z": 2.7805396541,
				"element": "H" 
			},
			{
				"x": -0.2702776589,
				"y": -3.3207295505,
				"z": 0.3773526287,
				"element": "H" 
			},
			{
				"x": -1.8537253167,
				"y": 4.1502695047,
				"z": -2.6317630244,
				"element": "H" 
			},
			{
				"x": -3.8764759711,
				"y": 4.2440019615,
				"z": -1.14634471,
				"element": "H" 
			},
			{
				"x": -4.359508645,
				"y": 2.3224317751,
				"z": 0.3841740669,
				"element": "H" 
			}
		],
		 "valence_orbital": [ 
			{
				"type": "occ",
				"energy": -0.26595,
				"method": "rhf"
			},
			{
				"type": "occ",
				"energy": -0.26009,
				"method": "rhf"
			},
			{
				"type": "occ",
				"energy": -0.25455,
				"method": "rhf"
			},
			{
				"type": "occ",
				"energy": -0.2249,
				"method": "rhf"
			},
			{
				"type": "occ",
				"energy": -0.21332,
				"method": "rhf"
			},
			{
				"type": "unocc",
				"energy": -0.08152,
				"method": "rhf"
			},
			{
				"type": "unocc",
				"energy": -0.01808,
				"method": "rhf"
			},
			{
				"type": "unocc",
				"energy": -0.01135,
				"method": "rhf"
			},
			{
				"type": "unocc",
				"energy": 0.00432,
				"method": "rhf"
			},
			{
				"type": "unocc",
				"energy": 0.0355,
				"method": "rhf"
			}
		],
		"cosmo_sigma_profile": { 
			"-0.025": 0.0,
			"-0.024": 0.0,
			"-0.023": 0.0,
			"-0.022": 0.0,
			"-0.021": 0.0,
			"-0.02": 0.0,
			"-0.019": 0.0,
			"-0.018": 0.0,
			"-0.017": 0.376001241091,
			"-0.016": 1.39566392007,
			"-0.015": 0.892325922866,
			"-0.014": 1.45341389211,
			"-0.013": 1.18847458672,
			"-0.012": 1.05747291111,
			"-0.011": 1.84581381521,
			"-0.01": 2.09150277656,
			"-0.009": 2.15799120177,
			"-0.008": 3.36113081196,
			"-0.007": 8.97134611611,
			"-0.006": 17.6342865867,
			"-0.005": 16.2473818288,
			"-0.004": 16.3479276644,
			"-0.003": 14.1218166473,
			"-0.002": 12.4853010452,
			"-0.001": 11.404126335,
			"0.0": 16.7893886087,
			"0.001": 18.7652429524,
			"0.002": 21.6518407827,
			"0.003": 13.2868531268,
			"0.004": 8.6105609211,
			"0.005": 5.59958902493,
			"0.006": 6.82590288355,
			"0.007": 4.54704756558,
			"0.008": 4.80516110674,
			"0.009": 2.32495673983,
			"0.01": 2.80821050006,
			"0.011": 2.82520700078,
			"0.012": 2.72005599194,
			"0.013": 2.68389868099,
			"0.014": 3.94904657584,
			"0.015": 3.05302579717,
			"0.016": 2.28127471443,
			"0.017": 0.508878813618,
			"0.018": 0.0,
			"0.019": 0.0,
			"0.02": 0.0,
			"0.021": 0.0,
			"0.022": 0.0,
			"0.023": 0.0,
			"0.024": 0.0,
			"0.025": 0.0
		}
	}
}
