{
	 "smiles": "NC(=O)C1=C2C=CC=NC2=CC=C1", 
	 "Tm": 502.15, 
	 "num_atms": 21, 
	 "gaussian": { 
		 "optdone": 1, 
		 "sigma_profile": "yes", 
		 "theory": "DFT", 
		 "functional": "B3LYP", 
		 "basiset": "6-31G**", 
		 "properties": { 
			 "R2extent": 2253.0357, 
			 "electric_dipole_moment_norm": 3.16203234645, 
			 "electric_quadrupole_moment_norm": 15.7206325188, 
			 "total_energy": -570.631820375, 
			 "HOMO_LUMO_gap": 0.17099, 
			 "cosmo_polarized_energy": -14.66, 
			 "cosmo_cavitation_energy": 25.11, 
			 "cosmo_dispersion_energy": -18.81, 
			 "cosmo_repulsion_energy": 1.47, 
			 "cosmo_total_nonelectrostatic_energy": 7.76, 
			 "SMD_solvation_energy": 3.63 
		},
		"coords": [
			{
				"x": 2.2085173436,
				"y": -0.7493360917,
				"z": -1.4506956487,
				"element": "N" 
			},
			{
				"x": 2.0105813422,
				"y": -0.714209072,
				"z": -0.0875101676,
				"element": "C" 
			},
			{
				"x": 2.866092259,
				"y": -1.1131475326,
				"z": 0.6910197411,
				"element": "O" 
			},
			{
				"x": 0.7059853514,
				"y": -0.1314300156,
				"z": 0.3946403891,
				"element": "C" 
			},
			{
				"x": -0.5612902439,
				"y": -0.2840834131,
				"z": -0.2611971157,
				"element": "C" 
			},
			{
				"x": -0.800384177,
				"y": -1.1070070889,
				"z": -1.3973785965,
				"element": "C" 
			},
			{
				"x": -2.0655328315,
				"y": -1.1796352174,
				"z": -1.9319548472,
				"element": "C" 
			},
			{
				"x": -3.1088393763,
				"y": -0.4335415852,
				"z": -1.3333468901,
				"element": "C" 
			},
			{
				"x": -2.9508525083,
				"y": 0.3144653063,
				"z": -0.2613529355,
				"element": "N" 
			},
			{
				"x": -1.7041651034,
				"y": 0.3892526339,
				"z": 0.2913810694,
				"element": "C" 
			},
			{
				"x": -1.5637304972,
				"y": 1.1604963285,
				"z": 1.4751332603,
				"element": "C" 
			},
			{
				"x": -0.3461996915,
				"y": 1.249832153,
				"z": 2.1084216945,
				"element": "C" 
			},
			{
				"x": 0.7828502289,
				"y": 0.5966263261,
				"z": 1.5688850025,
				"element": "C" 
			},
			{
				"x": 1.6830729077,
				"y": -0.1316109096,
				"z": -2.0513829027,
				"element": "H" 
			},
			{
				"x": 3.1514455365,
				"y": -0.9737858451,
				"z": -1.7377604692,
				"element": "H" 
			},
			{
				"x": 0.0102067492,
				"y": -1.6868825045,
				"z": -1.8236071933,
				"element": "H" 
			},
			{
				"x": -2.2728791678,
				"y": -1.8062780112,
				"z": -2.793808529,
				"element": "H" 
			},
			{
				"x": -4.1127754089,
				"y": -0.4719970985,
				"z": -1.7550759914,
				"element": "H" 
			},
			{
				"x": -2.4511710925,
				"y": 1.6556173533,
				"z": 1.8552095006,
				"element": "H" 
			},
			{
				"x": -0.2435287492,
				"y": 1.8269286457,
				"z": 3.0224529526,
				"element": "H" 
			},
			{
				"x": 1.7447971294,
				"y": 0.6629256384,
				"z": 2.0659276766,
				"element": "H" 
			}
		],
		 "valence_orbital": [ 
			{
				"type": "occ",
				"energy": -0.28019,
				"method": "rhf"
			},
			{
				"type": "occ",
				"energy": -0.26544,
				"method": "rhf"
			},
			{
				"type": "occ",
				"energy": -0.25829,
				"method": "rhf"
			},
			{
				"type": "occ",
				"energy": -0.253,
				"method": "rhf"
			},
			{
				"type": "occ",
				"energy": -0.23671,
				"method": "rhf"
			},
			{
				"type": "unocc",
				"energy": -0.06572,
				"method": "rhf"
			},
			{
				"type": "unocc",
				"energy": -0.02367,
				"method": "rhf"
			},
			{
				"type": "unocc",
				"energy": -0.01087,
				"method": "rhf"
			},
			{
				"type": "unocc",
				"energy": 0.04699,
				"method": "rhf"
			},
			{
				"type": "unocc",
				"energy": 0.08458,
				"method": "rhf"
			}
		],
		"cosmo_sigma_profile": { 
			"-0.025": 0.0,
			"-0.024": 0.0,
			"-0.023": 0.0,
			"-0.022": 0.0,
			"-0.021": 0.0,
			"-0.02": 0.0,
			"-0.019": 0.0,
			"-0.018": 0.0,
			"-0.017": 0.0,
			"-0.016": 0.0,
			"-0.015": 0.0314843442069,
			"-0.014": 1.26028620186,
			"-0.013": 2.70797728039,
			"-0.012": 2.20026390926,
			"-0.011": 2.10689588692,
			"-0.01": 2.39715383809,
			"-0.009": 2.61029268312,
			"-0.008": 2.08511142027,
			"-0.007": 5.78818798088,
			"-0.006": 13.4919533152,
			"-0.005": 14.2348373118,
			"-0.004": 11.498358377,
			"-0.003": 10.7343433768,
			"-0.002": 11.4462462975,
			"-0.001": 11.7926329915,
			"0.0": 12.6961243775,
			"0.001": 18.9894093087,
			"0.002": 20.943729928,
			"0.003": 13.7180954128,
			"0.004": 6.78243805288,
			"0.005": 4.08329002784,
			"0.006": 2.69960132456,
			"0.007": 2.92294090551,
			"0.008": 2.89670582219,
			"0.009": 2.12143092825,
			"0.01": 2.36962956158,
			"0.011": 2.48563828975,
			"0.012": 3.90697673164,
			"0.013": 5.64355686058,
			"0.014": 3.61064908229,
			"0.015": 0.937138628347,
			"0.016": 0.421064745918,
			"0.017": 0.0,
			"0.018": 0.0,
			"0.019": 0.0,
			"0.02": 0.0,
			"0.021": 0.0,
			"0.022": 0.0,
			"0.023": 0.0,
			"0.024": 0.0,
			"0.025": 0.0
		}
	}
}
