{
	 "smiles": "COC1=C2OC(C(C)N)=C(C)C2=CC(C)=C1", 
	 "Tm": 330.15, 
	 "num_atms": 33, 
	 "gaussian": { 
		 "optdone": 1, 
		 "sigma_profile": "yes", 
		 "theory": "DFT", 
		 "functional": "B3LYP", 
		 "basiset": "6-31G**", 
		 "properties": { 
			 "R2extent": 4323.0767, 
			 "electric_dipole_moment_norm": 2.10034092709, 
			 "electric_quadrupole_moment_norm": 10.5881597353, 
			 "total_energy": -710.822575489, 
			 "HOMO_LUMO_gap": 0.19811, 
			 "cosmo_polarized_energy": -10.4, 
			 "cosmo_cavitation_energy": 35.72, 
			 "cosmo_dispersion_energy": -25.12, 
			 "cosmo_repulsion_energy": 2.01, 
			 "cosmo_total_nonelectrostatic_energy": 12.6, 
			 "SMD_solvation_energy": 5.93 
		},
		"coords": [
			{
				"x": -2.0537396707,
				"y": -3.232698266,
				"z": 1.6252970451,
				"element": "C" 
			},
			{
				"x": -1.1224544143,
				"y": -2.2336221235,
				"z": 1.2418569004,
				"element": "O" 
			},
			{
				"x": -1.5514588154,
				"y": -1.2620622466,
				"z": 0.3886637251,
				"element": "C" 
			},
			{
				"x": -0.6263284027,
				"y": -0.2774216666,
				"z": 0.0197508548,
				"element": "C" 
			},
			{
				"x": 0.6729233532,
				"y": -0.193232106,
				"z": 0.4344946001,
				"element": "O" 
			},
			{
				"x": 1.2028226576,
				"y": 0.9280623716,
				"z": -0.1801554954,
				"element": "C" 
			},
			{
				"x": 2.6532838291,
				"y": 1.1849139622,
				"z": 0.1230234939,
				"element": "C" 
			},
			{
				"x": 2.8825983546,
				"y": 1.4584618364,
				"z": 1.6168794184,
				"element": "C" 
			},
			{
				"x": 3.5479496957,
				"y": 0.092434553,
				"z": -0.3047685127,
				"element": "N" 
			},
			{
				"x": 0.2788216166,
				"y": 1.5510204666,
				"z": -0.9687980106,
				"element": "C" 
			},
			{
				"x": 0.4456983113,
				"y": 2.7882489349,
				"z": -1.7978198051,
				"element": "C" 
			},
			{
				"x": -0.9383556697,
				"y": 0.7717110223,
				"z": -0.8489748999,
				"element": "C" 
			},
			{
				"x": -2.2336900791,
				"y": 0.8665726789,
				"z": -1.3895492995,
				"element": "C" 
			},
			{
				"x": -3.176577469,
				"y": -0.0958557738,
				"z": -1.041428406,
				"element": "C" 
			},
			{
				"x": -4.5833656361,
				"y": -0.0387484351,
				"z": -1.5939956486,
				"element": "C" 
			},
			{
				"x": -2.8304204207,
				"y": -1.1488808341,
				"z": -0.1587317431,
				"element": "C" 
			},
			{
				"x": -2.9154848139,
				"y": -2.8017280572,
				"z": 2.1511530321,
				"element": "H" 
			},
			{
				"x": -2.4127418375,
				"y": -3.8046660116,
				"z": 0.7598908322,
				"element": "H" 
			},
			{
				"x": -1.5172270052,
				"y": -3.9007690287,
				"z": 2.3007909408,
				"element": "H" 
			},
			{
				"x": 2.9461503503,
				"y": 2.0780084068,
				"z": -0.4409615578,
				"element": "H" 
			},
			{
				"x": 2.305767628,
				"y": 2.3262820302,
				"z": 1.9498147636,
				"element": "H" 
			},
			{
				"x": 3.9448911694,
				"y": 1.6409594249,
				"z": 1.7983092114,
				"element": "H" 
			},
			{
				"x": 2.5697926322,
				"y": 0.5971492648,
				"z": 2.2159543943,
				"element": "H" 
			},
			{
				"x": 3.2620323052,
				"y": -0.7624329414,
				"z": 0.1706282716,
				"element": "H" 
			},
			{
				"x": 3.4079613898,
				"y": -0.0869790314,
				"z": -1.2974761735,
				"element": "H" 
			},
			{
				"x": 1.4680689289,
				"y": 3.1730345223,
				"z": -1.7565404639,
				"element": "H" 
			},
			{
				"x": 0.204812459,
				"y": 2.5955544813,
				"z": -2.8501880585,
				"element": "H" 
			},
			{
				"x": -0.2228183834,
				"y": 3.5884195328,
				"z": -1.4576949819,
				"element": "H" 
			},
			{
				"x": -2.4978645206,
				"y": 1.6743979069,
				"z": -2.0657701259,
				"element": "H" 
			},
			{
				"x": -4.8286645406,
				"y": -0.9435117449,
				"z": -2.1629236407,
				"element": "H" 
			},
			{
				"x": -4.7132965477,
				"y": 0.8182114948,
				"z": -2.2605053989,
				"element": "H" 
			},
			{
				"x": -5.3266477762,
				"y": 0.0471416737,
				"z": -0.7923563014,
				"element": "H" 
			},
			{
				"x": -3.589038678,
				"y": -1.8821762977,
				"z": 0.0919310397,
				"element": "H" 
			}
		],
		 "valence_orbital": [ 
			{
				"type": "occ",
				"energy": -0.31098,
				"method": "rhf"
			},
			{
				"type": "occ",
				"energy": -0.25666,
				"method": "rhf"
			},
			{
				"type": "occ",
				"energy": -0.24258,
				"method": "rhf"
			},
			{
				"type": "occ",
				"energy": -0.20936,
				"method": "rhf"
			},
			{
				"type": "occ",
				"energy": -0.20038,
				"method": "rhf"
			},
			{
				"type": "unocc",
				"energy": -0.00227,
				"method": "rhf"
			},
			{
				"type": "unocc",
				"energy": 0.02122,
				"method": "rhf"
			},
			{
				"type": "unocc",
				"energy": 0.0659,
				"method": "rhf"
			},
			{
				"type": "unocc",
				"energy": 0.08603,
				"method": "rhf"
			},
			{
				"type": "unocc",
				"energy": 0.09117,
				"method": "rhf"
			}
		],
		"cosmo_sigma_profile": { 
			"-0.025": 0.0,
			"-0.024": 0.0,
			"-0.023": 0.0,
			"-0.022": 0.0,
			"-0.021": 0.0,
			"-0.02": 0.0,
			"-0.019": 0.0,
			"-0.018": 0.0,
			"-0.017": 0.0,
			"-0.016": 0.0,
			"-0.015": 0.0,
			"-0.014": 0.0,
			"-0.013": 0.0,
			"-0.012": 0.0,
			"-0.011": 0.0,
			"-0.01": 0.664522059258,
			"-0.009": 1.87387506793,
			"-0.008": 2.35682459097,
			"-0.007": 2.80097148026,
			"-0.006": 6.67086061492,
			"-0.005": 17.8709054369,
			"-0.004": 26.7260456947,
			"-0.003": 31.5287799729,
			"-0.002": 29.9062763104,
			"-0.001": 25.9774697219,
			"0.0": 28.1881894757,
			"0.001": 21.3291178048,
			"0.002": 13.5662156109,
			"0.003": 15.2685169983,
			"0.004": 13.72904488,
			"0.005": 11.6885134584,
			"0.006": 10.741636708,
			"0.007": 3.63241479653,
			"0.008": 3.04832116966,
			"0.009": 3.07780079214,
			"0.01": 2.45696103576,
			"0.011": 2.16946639423,
			"0.012": 1.17717501892,
			"0.013": 0.48092892158,
			"0.014": 1.01804480661,
			"0.015": 0.488540082315,
			"0.016": 0.0444434829181,
			"0.017": 1.06386209186,
			"0.018": 0.612297462257,
			"0.019": 0.360001423096,
			"0.02": 0.0240799898634,
			"0.021": 0.0,
			"0.022": 0.0,
			"0.023": 0.0,
			"0.024": 0.0,
			"0.025": 0.0
		}
	}
}
