{
	 "smiles": "COC1=C(OC)C(=CC=C1)C1=NN=C(N)O1", 
	 "Tm": 459.15, 
	 "num_atms": 27, 
	 "gaussian": { 
		 "optdone": 1, 
		 "sigma_profile": "yes", 
		 "theory": "DFT", 
		 "functional": "B3LYP", 
		 "basiset": "6-31G**", 
		 "properties": { 
			 "R2extent": 4202.9403, 
			 "electric_dipole_moment_norm": 4.1044495112, 
			 "electric_quadrupole_moment_norm": 21.4842670883, 
			 "total_energy": -777.558215487, 
			 "HOMO_LUMO_gap": 0.17688, 
			 "cosmo_polarized_energy": -17.46, 
			 "cosmo_cavitation_energy": 31.58, 
			 "cosmo_dispersion_energy": -22.55, 
			 "cosmo_repulsion_energy": 1.77, 
			 "cosmo_total_nonelectrostatic_energy": 10.8, 
			 "SMD_solvation_energy": 5.38 
		},
		"coords": [
			{
				"x": 1.394546543,
				"y": 1.4949322479,
				"z": 3.2239865321,
				"element": "C" 
			},
			{
				"x": 2.0473883956,
				"y": 2.0833263005,
				"z": 2.092480564,
				"element": "O" 
			},
			{
				"x": 2.1663427029,
				"y": 1.256277354,
				"z": 0.9977866995,
				"element": "C" 
			},
			{
				"x": 1.0400251677,
				"y": 0.9586079793,
				"z": 0.2054426991,
				"element": "C" 
			},
			{
				"x": -0.1958729317,
				"y": 1.4250869328,
				"z": 0.5835111994,
				"element": "O" 
			},
			{
				"x": -0.4209278549,
				"y": 2.815596998,
				"z": 0.3165308525,
				"element": "C" 
			},
			{
				"x": 1.1870102604,
				"y": 0.1409604671,
				"z": -0.9318274338,
				"element": "C" 
			},
			{
				"x": 2.4612922761,
				"y": -0.3691472934,
				"z": -1.2507476845,
				"element": "C" 
			},
			{
				"x": 3.5650630949,
				"y": -0.0579364792,
				"z": -0.4686640672,
				"element": "C" 
			},
			{
				"x": 3.4207631505,
				"y": 0.75513419,
				"z": 0.6587469644,
				"element": "C" 
			},
			{
				"x": 0.0801808399,
				"y": -0.2252566781,
				"z": -1.8125195118,
				"element": "C" 
			},
			{
				"x": 0.0957372582,
				"y": -1.1140894902,
				"z": -2.7587327433,
				"element": "N" 
			},
			{
				"x": -1.166016249,
				"y": -1.1167128947,
				"z": -3.3542414158,
				"element": "N" 
			},
			{
				"x": -1.8460451559,
				"y": -0.2074389942,
				"z": -2.7188444764,
				"element": "C" 
			},
			{
				"x": -3.1201320146,
				"y": 0.2301692344,
				"z": -2.9609125412,
				"element": "N" 
			},
			{
				"x": -1.147072683,
				"y": 0.4052318266,
				"z": -1.7329634602,
				"element": "O" 
			},
			{
				"x": 1.3792699699,
				"y": 2.2622483645,
				"z": 4.000749051,
				"element": "H" 
			},
			{
				"x": 1.9556698049,
				"y": 0.6244964971,
				"z": 3.5867866939,
				"element": "H" 
			},
			{
				"x": 0.370853672,
				"y": 1.1949786746,
				"z": 2.9803216917,
				"element": "H" 
			},
			{
				"x": 0.3277962374,
				"y": 3.4373132759,
				"z": 0.8167182373,
				"element": "H" 
			},
			{
				"x": -1.412604063,
				"y": 3.0449861875,
				"z": 0.7118229168,
				"element": "H" 
			},
			{
				"x": -0.4087859017,
				"y": 3.0090009585,
				"z": -0.7623697831,
				"element": "H" 
			},
			{
				"x": 2.5560358685,
				"y": -0.9999565569,
				"z": -2.1272233518,
				"element": "H" 
			},
			{
				"x": 4.5422049009,
				"y": -0.4502684922,
				"z": -0.7325061125,
				"element": "H" 
			},
			{
				"x": 4.2668570682,
				"y": 1.0142284519,
				"z": 1.2871409743,
				"element": "H" 
			},
			{
				"x": -3.6444879895,
				"y": -0.3957384758,
				"z": -3.556715082,
				"element": "H" 
			},
			{
				"x": -3.6291923679,
				"y": 0.5465694139,
				"z": -2.1468574125,
				"element": "H" 
			}
		],
		 "valence_orbital": [ 
			{
				"type": "occ",
				"energy": -0.27442,
				"method": "rhf"
			},
			{
				"type": "occ",
				"energy": -0.26625,
				"method": "rhf"
			},
			{
				"type": "occ",
				"energy": -0.2642,
				"method": "rhf"
			},
			{
				"type": "occ",
				"energy": -0.23651,
				"method": "rhf"
			},
			{
				"type": "occ",
				"energy": -0.21546,
				"method": "rhf"
			},
			{
				"type": "unocc",
				"energy": -0.03858,
				"method": "rhf"
			},
			{
				"type": "unocc",
				"energy": -0.00249,
				"method": "rhf"
			},
			{
				"type": "unocc",
				"energy": 0.04003,
				"method": "rhf"
			},
			{
				"type": "unocc",
				"energy": 0.06299,
				"method": "rhf"
			},
			{
				"type": "unocc",
				"energy": 0.07249,
				"method": "rhf"
			}
		],
		"cosmo_sigma_profile": { 
			"-0.025": 0.0,
			"-0.024": 0.0,
			"-0.023": 0.0,
			"-0.022": 0.0,
			"-0.021": 0.0,
			"-0.02": 0.0,
			"-0.019": 0.0,
			"-0.018": 0.0,
			"-0.017": 0.0,
			"-0.016": 0.110765600683,
			"-0.015": 1.90280734443,
			"-0.014": 2.74784979084,
			"-0.013": 2.28431209406,
			"-0.012": 2.19525619007,
			"-0.011": 3.47690204479,
			"-0.01": 1.64942201866,
			"-0.009": 1.26936737969,
			"-0.008": 2.29181403838,
			"-0.007": 3.01250276959,
			"-0.006": 8.33041049069,
			"-0.005": 13.3434502107,
			"-0.004": 21.3169720645,
			"-0.003": 26.3765093678,
			"-0.002": 22.6859790516,
			"-0.001": 16.3729861046,
			"0.0": 16.4204670927,
			"0.001": 16.05138304,
			"0.002": 16.0992786386,
			"0.003": 16.6913128299,
			"0.004": 11.385851979,
			"0.005": 5.46274525236,
			"0.006": 5.6428244346,
			"0.007": 4.64134673764,
			"0.008": 3.40726433259,
			"0.009": 4.41396939744,
			"0.01": 5.1326147812,
			"0.011": 4.82354844485,
			"0.012": 3.85690874429,
			"0.013": 3.51457587104,
			"0.014": 2.53473472301,
			"0.015": 1.50236518138,
			"0.016": 0.839235872981,
			"0.017": 0.052492990236,
			"0.018": 0.0,
			"0.019": 0.0,
			"0.02": 0.0,
			"0.021": 0.0,
			"0.022": 0.0,
			"0.023": 0.0,
			"0.024": 0.0,
			"0.025": 0.0
		}
	}
}
