{
	 "smiles": "CC1=C(OC2=CN=CC=C2)C=CC(N)=C1", 
	 "Tm": 364.15, 
	 "num_atms": 27, 
	 "gaussian": { 
		 "optdone": 1, 
		 "sigma_profile": "yes", 
		 "theory": "DFT", 
		 "functional": "B3LYP", 
		 "basiset": "6-31G**", 
		 "properties": { 
			 "R2extent": 4105.5146, 
			 "electric_dipole_moment_norm": 5.04661406291, 
			 "electric_quadrupole_moment_norm": 8.68043067595, 
			 "total_energy": -649.227380609, 
			 "HOMO_LUMO_gap": 0.1857, 
			 "cosmo_polarized_energy": -12.57, 
			 "cosmo_cavitation_energy": 31.14, 
			 "cosmo_dispersion_energy": -22.14, 
			 "cosmo_repulsion_energy": 1.74, 
			 "cosmo_total_nonelectrostatic_energy": 10.73, 
			 "SMD_solvation_energy": 4.13 
		},
		"coords": [
			{
				"x": -1.5910590195,
				"y": 0.1821298313,
				"z": 0.4848959164,
				"element": "C" 
			},
			{
				"x": -0.9713301648,
				"y": -0.1995982614,
				"z": -0.8363091718,
				"element": "C" 
			},
			{
				"x": 0.0338853004,
				"y": -1.175696147,
				"z": -0.8992378027,
				"element": "C" 
			},
			{
				"x": 0.4117611043,
				"y": -1.8445241139,
				"z": 0.2672535029,
				"element": "O" 
			},
			{
				"x": 1.4817467305,
				"y": -1.3833959407,
				"z": 0.9908132857,
				"element": "C" 
			},
			{
				"x": 1.805436508,
				"y": -2.1083118659,
				"z": 2.1486451248,
				"element": "C" 
			},
			{
				"x": 2.8146522554,
				"y": -1.7859209843,
				"z": 2.9562928392,
				"element": "N" 
			},
			{
				"x": 3.5525910916,
				"y": -0.7116720207,
				"z": 2.6384061439,
				"element": "C" 
			},
			{
				"x": 3.3078274686,
				"y": 0.0692261755,
				"z": 1.5107142667,
				"element": "C" 
			},
			{
				"x": 2.2515987533,
				"y": -0.2669748779,
				"z": 0.6620928764,
				"element": "C" 
			},
			{
				"x": 0.6003046392,
				"y": -1.5484493952,
				"z": -2.1152961172,
				"element": "C" 
			},
			{
				"x": 0.1815970132,
				"y": -0.9453513465,
				"z": -3.2983207005,
				"element": "C" 
			},
			{
				"x": -0.8196699268,
				"y": 0.0392058512,
				"z": -3.2717586794,
				"element": "C" 
			},
			{
				"x": -1.2946304387,
				"y": 0.6088943663,
				"z": -4.4555127978,
				"element": "N" 
			},
			{
				"x": -1.3812155661,
				"y": 0.3937237231,
				"z": -2.0326770667,
				"element": "C" 
			},
			{
				"x": -1.9876289819,
				"y": -0.6978920641,
				"z": 1.0011483082,
				"element": "H" 
			},
			{
				"x": -0.8544557224,
				"y": 0.6367758258,
				"z": 1.1569744163,
				"element": "H" 
			},
			{
				"x": -2.4060110068,
				"y": 0.8964413106,
				"z": 0.3435560786,
				"element": "H" 
			},
			{
				"x": 1.2071123086,
				"y": -2.9799608819,
				"z": 2.4069808178,
				"element": "H" 
			},
			{
				"x": 4.3702473732,
				"y": -0.4703726445,
				"z": 3.3142055229,
				"element": "H" 
			},
			{
				"x": 3.9329219078,
				"y": 0.9303215369,
				"z": 1.2935844074,
				"element": "H" 
			},
			{
				"x": 2.0332858239,
				"y": 0.3137629607,
				"z": -0.2270600209,
				"element": "H" 
			},
			{
				"x": 1.3659460284,
				"y": -2.3179112466,
				"z": -2.1271697751,
				"element": "H" 
			},
			{
				"x": 0.6218107268,
				"y": -1.2448745303,
				"z": -4.2457404614,
				"element": "H" 
			},
			{
				"x": -1.7272943268,
				"y": 1.5163947465,
				"z": -4.3523097076,
				"element": "H" 
			},
			{
				"x": -0.6475352377,
				"y": 0.5879476741,
				"z": -5.2315534929,
				"element": "H" 
			},
			{
				"x": -2.1666946417,
				"y": 1.1458823188,
				"z": -2.0036177132,
				"element": "H" 
			}
		],
		 "valence_orbital": [ 
			{
				"type": "occ",
				"energy": -0.27644,
				"method": "rhf"
			},
			{
				"type": "occ",
				"energy": -0.24872,
				"method": "rhf"
			},
			{
				"type": "occ",
				"energy": -0.24739,
				"method": "rhf"
			},
			{
				"type": "occ",
				"energy": -0.22802,
				"method": "rhf"
			},
			{
				"type": "occ",
				"energy": -0.20413,
				"method": "rhf"
			},
			{
				"type": "unocc",
				"energy": -0.01843,
				"method": "rhf"
			},
			{
				"type": "unocc",
				"energy": -0.0034,
				"method": "rhf"
			},
			{
				"type": "unocc",
				"energy": 0.00625,
				"method": "rhf"
			},
			{
				"type": "unocc",
				"energy": 0.01172,
				"method": "rhf"
			},
			{
				"type": "unocc",
				"energy": 0.07472,
				"method": "rhf"
			}
		],
		"cosmo_sigma_profile": { 
			"-0.025": 0.0,
			"-0.024": 0.0,
			"-0.023": 0.0,
			"-0.022": 0.0,
			"-0.021": 0.0,
			"-0.02": 0.0,
			"-0.019": 0.0,
			"-0.018": 0.0,
			"-0.017": 0.0,
			"-0.016": 0.0,
			"-0.015": 0.0,
			"-0.014": 0.0,
			"-0.013": 0.270110210305,
			"-0.012": 2.2503059817,
			"-0.011": 2.926253508,
			"-0.01": 3.24435630663,
			"-0.009": 2.95816244083,
			"-0.008": 2.60484719126,
			"-0.007": 5.39781222092,
			"-0.006": 13.3038243973,
			"-0.005": 14.9503187589,
			"-0.004": 16.0402920489,
			"-0.003": 17.3628376171,
			"-0.002": 16.8580897238,
			"-0.001": 18.6228030738,
			"0.0": 20.051856965,
			"0.001": 18.9248228156,
			"0.002": 18.5049830261,
			"0.003": 17.9231178071,
			"0.004": 12.2124205863,
			"0.005": 13.4469186261,
			"0.006": 9.11567996484,
			"0.007": 3.09228446543,
			"0.008": 3.98306000088,
			"0.009": 3.45996040302,
			"0.01": 1.45102796483,
			"0.011": 1.90550497396,
			"0.012": 1.55757308484,
			"0.013": 1.55660134892,
			"0.014": 1.45900866618,
			"0.015": 1.41585934087,
			"0.016": 0.702234266127,
			"0.017": 0.405578419511,
			"0.018": 0.0,
			"0.019": 0.0,
			"0.02": 0.0,
			"0.021": 0.0,
			"0.022": 0.0,
			"0.023": 0.0,
			"0.024": 0.0,
			"0.025": 0.0
		}
	}
}
