{
	 "smiles": "C1COCCOC2=C(OCCOCCN1)C=CC=C2", 
	 "Tm": 421.15, 
	 "num_atms": 40, 
	 "gaussian": { 
		 "optdone": 1, 
		 "sigma_profile": "yes", 
		 "theory": "DFT", 
		 "functional": "B3LYP", 
		 "basiset": "6-31G**", 
		 "properties": { 
			 "R2extent": 6058.0519, 
			 "electric_dipole_moment_norm": 0.402911218508, 
			 "electric_quadrupole_moment_norm": 13.6908231929, 
			 "total_energy": -901.72546887, 
			 "HOMO_LUMO_gap": 0.21696, 
			 "cosmo_polarized_energy": -16.04, 
			 "cosmo_cavitation_energy": 40.09, 
			 "cosmo_dispersion_energy": -28.16, 
			 "cosmo_repulsion_energy": 2.15, 
			 "cosmo_total_nonelectrostatic_energy": 14.09, 
			 "SMD_solvation_energy": 4.3 
		},
		"coords": [
			{
				"x": -0.4198132244,
				"y": -1.7543000244,
				"z": 2.7522830404,
				"element": "C" 
			},
			{
				"x": 0.7382230656,
				"y": -0.8293715658,
				"z": 2.3689468563,
				"element": "C" 
			},
			{
				"x": 0.3057260798,
				"y": 0.5133285526,
				"z": 2.5759511869,
				"element": "O" 
			},
			{
				"x": 1.1989447326,
				"y": 1.4946992755,
				"z": 2.0882671946,
				"element": "C" 
			},
			{
				"x": 0.6141912886,
				"y": 2.2883274185,
				"z": 0.9302262171,
				"element": "C" 
			},
			{
				"x": 0.3985718835,
				"y": 1.4080015434,
				"z": -0.1678254784,
				"element": "O" 
			},
			{
				"x": 0.1222611732,
				"y": 1.9409361954,
				"z": -1.3935430348,
				"element": "C" 
			},
			{
				"x": -0.1591928057,
				"y": 1.0132618913,
				"z": -2.4230754137,
				"element": "C" 
			},
			{
				"x": -0.1740214889,
				"y": -0.3383094495,
				"z": -2.1557743678,
				"element": "O" 
			},
			{
				"x": -1.4076605014,
				"y": -0.7938575276,
				"z": -1.5895624227,
				"element": "C" 
			},
			{
				"x": -1.3011257442,
				"y": -2.2704421701,
				"z": -1.2715809812,
				"element": "C" 
			},
			{
				"x": -0.4561152239,
				"y": -2.4397582342,
				"z": -0.1546624672,
				"element": "O" 
			},
			{
				"x": -0.412764275,
				"y": -3.7623342266,
				"z": 0.3536860317,
				"element": "C" 
			},
			{
				"x": 0.4939545834,
				"y": -3.7838981016,
				"z": 1.5771720922,
				"element": "C" 
			},
			{
				"x": -0.1194263531,
				"y": -3.1898534288,
				"z": 2.7685785179,
				"element": "N" 
			},
			{
				"x": -0.4000992972,
				"y": 1.4625230418,
				"z": -3.7174799753,
				"element": "C" 
			},
			{
				"x": -0.3835626506,
				"y": 2.8284552916,
				"z": -4.0162145585,
				"element": "C" 
			},
			{
				"x": -0.1394611889,
				"y": 3.7442706682,
				"z": -2.9974169121,
				"element": "C" 
			},
			{
				"x": 0.1108403057,
				"y": 3.3080605898,
				"z": -1.6915342857,
				"element": "C" 
			},
			{
				"x": -1.2475692787,
				"y": -1.5666568987,
				"z": 2.0644120183,
				"element": "H" 
			},
			{
				"x": -0.7664426618,
				"y": -1.481036013,
				"z": 3.7554508075,
				"element": "H" 
			},
			{
				"x": 1.0112906254,
				"y": -0.980811515,
				"z": 1.3187981088,
				"element": "H" 
			},
			{
				"x": 1.6205067523,
				"y": -1.0477223938,
				"z": 2.9973890887,
				"element": "H" 
			},
			{
				"x": 1.4255134321,
				"y": 2.2051759847,
				"z": 2.897274011,
				"element": "H" 
			},
			{
				"x": 2.1478584106,
				"y": 1.0447738137,
				"z": 1.7674901089,
				"element": "H" 
			},
			{
				"x": -0.3335647647,
				"y": 2.7606352816,
				"z": 1.223503499,
				"element": "H" 
			},
			{
				"x": 1.3287848516,
				"y": 3.0797820398,
				"z": 0.6633393035,
				"element": "H" 
			},
			{
				"x": -2.2264393909,
				"y": -0.6349201537,
				"z": -2.3072026975,
				"element": "H" 
			},
			{
				"x": -1.6326533455,
				"y": -0.2390532236,
				"z": -0.6706773833,
				"element": "H" 
			},
			{
				"x": -0.9150748172,
				"y": -2.8174017757,
				"z": -2.1473901844,
				"element": "H" 
			},
			{
				"x": -2.3137976538,
				"y": -2.652642107,
				"z": -1.0561836217,
				"element": "H" 
			},
			{
				"x": -1.4224185507,
				"y": -4.1067822602,
				"z": 0.63110402,
				"element": "H" 
			},
			{
				"x": -0.0146804507,
				"y": -4.4514037049,
				"z": -0.4103936346,
				"element": "H" 
			},
			{
				"x": 1.4558375677,
				"y": -3.3299025474,
				"z": 1.2813695525,
				"element": "H" 
			},
			{
				"x": 0.7006030771,
				"y": -4.8339062652,
				"z": 1.8169694832,
				"element": "H" 
			},
			{
				"x": 0.4706590487,
				"y": -3.3967674677,
				"z": 3.5693263219,
				"element": "H" 
			},
			{
				"x": -0.5964163654,
				"y": 0.7189177679,
				"z": -4.4840374606,
				"element": "H" 
			},
			{
				"x": -0.5698777786,
				"y": 3.1666776358,
				"z": -5.0307347575,
				"element": "H" 
			},
			{
				"x": -0.1377444967,
				"y": 4.8098880053,
				"z": -3.2074840017,
				"element": "H" 
			},
			{
				"x": 0.2961554303,
				"y": 4.0409160576,
				"z": -0.9154638215,
				"element": "H" 
			}
		],
		 "valence_orbital": [ 
			{
				"type": "occ",
				"energy": -0.25282,
				"method": "rhf"
			},
			{
				"type": "occ",
				"energy": -0.2448,
				"method": "rhf"
			},
			{
				"type": "occ",
				"energy": -0.23936,
				"method": "rhf"
			},
			{
				"type": "occ",
				"energy": -0.2121,
				"method": "rhf"
			},
			{
				"type": "occ",
				"energy": -0.21153,
				"method": "rhf"
			},
			{
				"type": "unocc",
				"energy": 0.00543,
				"method": "rhf"
			},
			{
				"type": "unocc",
				"energy": 0.01496,
				"method": "rhf"
			},
			{
				"type": "unocc",
				"energy": 0.08051,
				"method": "rhf"
			},
			{
				"type": "unocc",
				"energy": 0.08519,
				"method": "rhf"
			},
			{
				"type": "unocc",
				"energy": 0.09502,
				"method": "rhf"
			}
		],
		"cosmo_sigma_profile": { 
			"-0.025": -5.13245750168,
			"-0.024": 0.08619943845,
			"-0.023": 0.17479861955,
			"-0.022": 0.0356682878492,
			"-0.021": 0.0753979781508,
			"-0.02": 0.0,
			"-0.019": 0.0,
			"-0.018": 0.0,
			"-0.017": 0.0,
			"-0.016": 0.0,
			"-0.015": 0.00127345467933,
			"-0.014": 0.139346161303,
			"-0.013": 0.092050678018,
			"-0.012": 0.0447905671984,
			"-0.011": 0.104093922802,
			"-0.01": 0.689697391961,
			"-0.009": 1.69063330261,
			"-0.008": 3.01029091257,
			"-0.007": 1.16876542672,
			"-0.006": 8.12100897002,
			"-0.005": 20.8392590193,
			"-0.004": 38.526574566,
			"-0.003": 41.3883326221,
			"-0.002": 47.1736100255,
			"-0.001": 17.0098446891,
			"0.0": 17.3494839311,
			"0.001": 20.3596551533,
			"0.002": 6.47298342366,
			"0.003": 13.6495370302,
			"0.004": 13.1698026296,
			"0.005": 13.0413992832,
			"0.006": 10.8666284012,
			"0.007": 5.08894526489,
			"0.008": 5.78040485894,
			"0.009": 5.4308839318,
			"0.01": 4.44623245464,
			"0.011": 4.13741878823,
			"0.012": 3.90010791243,
			"0.013": 3.13146572687,
			"0.014": 1.44893400222,
			"0.015": 0.996700402944,
			"0.016": 6.95783763355,
			"0.017": 7.67731467538,
			"0.018": -12.1634384691,
			"0.019": 9.82482684007,
			"0.02": 7.18684124696,
			"0.021": -11.8754035154,
			"0.022": -4.53974185659,
			"0.023": 0.0,
			"0.024": 0.0,
			"0.025": 0.109466601679
		}
	}
}
