{
	 "smiles": "COC1=CC(Cl)=C(C=C1)C(=O)CCC(O)=O", 
	 "Tm": 439.15, 
	 "num_atms": 27, 
	 "gaussian": { 
		 "optdone": 1, 
		 "sigma_profile": "yes", 
		 "theory": "DFT", 
		 "functional": "B3LYP", 
		 "basiset": "6-31G**", 
		 "properties": { 
			 "R2extent": 6084.3233, 
			 "electric_dipole_moment_norm": 5.81253051519, 
			 "electric_quadrupole_moment_norm": 8.72907518526, 
			 "total_energy": -1186.89028445, 
			 "HOMO_LUMO_gap": 0.18468, 
			 "cosmo_polarized_energy": -15.85, 
			 "cosmo_cavitation_energy": 33.18, 
			 "cosmo_dispersion_energy": -24.05, 
			 "cosmo_repulsion_energy": 1.89, 
			 "cosmo_total_nonelectrostatic_energy": 11.02, 
			 "SMD_solvation_energy": 7.63 
		},
		"coords": [
			{
				"x": -2.4277837448,
				"y": 0.5234178363,
				"z": -4.7552843373,
				"element": "C" 
			},
			{
				"x": -1.2732793206,
				"y": 1.016972251,
				"z": -4.0849497692,
				"element": "O" 
			},
			{
				"x": -1.2131705518,
				"y": 0.9242676882,
				"z": -2.7352217112,
				"element": "C" 
			},
			{
				"x": -2.2181650601,
				"y": 0.3708007103,
				"z": -1.9365199444,
				"element": "C" 
			},
			{
				"x": -2.0587408949,
				"y": 0.3232451387,
				"z": -0.5485678562,
				"element": "C" 
			},
			{
				"x": -3.417170675,
				"y": -0.4111521938,
				"z": 0.307987652,
				"element": "Cl" 
			},
			{
				"x": -0.9086472752,
				"y": 0.8169690091,
				"z": 0.0922850485,
				"element": "C" 
			},
			{
				"x": 0.0813596343,
				"y": 1.3654255351,
				"z": -0.7580862306,
				"element": "C" 
			},
			{
				"x": -0.0494827937,
				"y": 1.4264687024,
				"z": -2.1292791183,
				"element": "C" 
			},
			{
				"x": -0.5634917059,
				"y": 0.8521255056,
				"z": 1.5594339407,
				"element": "C" 
			},
			{
				"x": 0.5201210236,
				"y": 1.3136366602,
				"z": 1.895199911,
				"element": "O" 
			},
			{
				"x": -1.5083423322,
				"y": 0.3449744914,
				"z": 2.6398009889,
				"element": "C" 
			},
			{
				"x": -0.9372224258,
				"y": 0.5558663769,
				"z": 4.0436185613,
				"element": "C" 
			},
			{
				"x": 0.3407912292,
				"y": -0.1959801388,
				"z": 4.356125428,
				"element": "C" 
			},
			{
				"x": 0.4442123305,
				"y": -1.3579717643,
				"z": 3.6600401318,
				"element": "O" 
			},
			{
				"x": 1.1633506453,
				"y": 0.1421008808,
				"z": 5.175957777,
				"element": "O" 
			},
			{
				"x": -2.2548459473,
				"y": 0.701670869,
				"z": -5.816992824,
				"element": "H" 
			},
			{
				"x": -2.5612545135,
				"y": -0.5516730815,
				"z": -4.5847680752,
				"element": "H" 
			},
			{
				"x": -3.3327934732,
				"y": 1.0568519744,
				"z": -4.440412776,
				"element": "H" 
			},
			{
				"x": -3.1262279525,
				"y": -0.0274554049,
				"z": -2.3680692179,
				"element": "H" 
			},
			{
				"x": 0.9729126828,
				"y": 1.7465985113,
				"z": -0.2732905202,
				"element": "H" 
			},
			{
				"x": 0.7258154005,
				"y": 1.8534817001,
				"z": -2.7558891023,
				"element": "H" 
			},
			{
				"x": -1.7185377373,
				"y": -0.7139895125,
				"z": 2.4632413375,
				"element": "H" 
			},
			{
				"x": -2.4712401307,
				"y": 0.8588607195,
				"z": 2.5489571531,
				"element": "H" 
			},
			{
				"x": -0.7314561248,
				"y": 1.6096275826,
				"z": 4.2393542108,
				"element": "H" 
			},
			{
				"x": -1.6821110997,
				"y": 0.2284851207,
				"z": 4.7802931342,
				"element": "H" 
			},
			{
				"x": 1.2815008128,
				"y": -1.7606251678,
				"z": 3.9446362082,
				"element": "H" 
			}
		],
		 "valence_orbital": [ 
			{
				"type": "occ",
				"energy": -0.30618,
				"method": "rhf"
			},
			{
				"type": "occ",
				"energy": -0.26359,
				"method": "rhf"
			},
			{
				"type": "occ",
				"energy": -0.26151,
				"method": "rhf"
			},
			{
				"type": "occ",
				"energy": -0.25715,
				"method": "rhf"
			},
			{
				"type": "occ",
				"energy": -0.2423,
				"method": "rhf"
			},
			{
				"type": "unocc",
				"energy": -0.05762,
				"method": "rhf"
			},
			{
				"type": "unocc",
				"energy": -0.02173,
				"method": "rhf"
			},
			{
				"type": "unocc",
				"energy": 0.01518,
				"method": "rhf"
			},
			{
				"type": "unocc",
				"energy": 0.02439,
				"method": "rhf"
			},
			{
				"type": "unocc",
				"energy": 0.03597,
				"method": "rhf"
			}
		],
		"cosmo_sigma_profile": { 
			"-0.025": 0.0,
			"-0.024": 0.0,
			"-0.023": 0.0,
			"-0.022": 0.0,
			"-0.021": 0.0,
			"-0.02": 0.0,
			"-0.019": 0.0,
			"-0.018": 0.458192280217,
			"-0.017": 0.959610347747,
			"-0.016": 0.840381161695,
			"-0.015": 0.727700563866,
			"-0.014": 0.879837731421,
			"-0.013": 0.536050992417,
			"-0.012": 0.548853205281,
			"-0.011": 0.936383911682,
			"-0.01": 0.959768312186,
			"-0.009": 0.377622642247,
			"-0.008": 1.67311877347,
			"-0.007": 8.66198726673,
			"-0.006": 18.033681536,
			"-0.005": 20.4711141122,
			"-0.004": 22.7210976226,
			"-0.003": 18.2401849467,
			"-0.002": 15.9321335784,
			"-0.001": 14.0473394272,
			"0.0": 16.9825588898,
			"0.001": 22.9316105819,
			"0.002": 23.8690365739,
			"0.003": 16.3148012039,
			"0.004": 10.5938719333,
			"0.005": 6.91770860266,
			"0.006": 6.04983072919,
			"0.007": 5.08914740588,
			"0.008": 6.29277051857,
			"0.009": 5.22656018389,
			"0.01": 4.43788540566,
			"0.011": 5.84651261486,
			"0.012": 6.23015193436,
			"0.013": 1.78397682313,
			"0.014": 0.0497971680681,
			"0.015": 0.0,
			"0.016": 0.0,
			"0.017": 0.0,
			"0.018": 0.0,
			"0.019": 0.0,
			"0.02": 0.0,
			"0.021": 0.0,
			"0.022": 0.0,
			"0.023": 0.0,
			"0.024": 0.0,
			"0.025": 0.0
		}
	}
}
