{
	 "smiles": "OC(=O)COC1=C(Cl)C=C(Cl)C(Cl)=N1", 
	 "Tm": 423.15, 
	 "num_atms": 18, 
	 "gaussian": { 
		 "optdone": 1, 
		 "sigma_profile": "yes", 
		 "theory": "DFT", 
		 "functional": "B3LYP", 
		 "basiset": "6-31G**", 
		 "properties": { 
			 "R2extent": 4930.0654, 
			 "electric_dipole_moment_norm": 3.92040903606, 
			 "electric_quadrupole_moment_norm": 14.3104429977, 
			 "total_energy": -1930.13991497, 
			 "HOMO_LUMO_gap": 0.19074, 
			 "cosmo_polarized_energy": -17.91, 
			 "cosmo_cavitation_energy": 29.39, 
			 "cosmo_dispersion_energy": -21.26, 
			 "cosmo_repulsion_energy": 1.73, 
			 "cosmo_total_nonelectrostatic_energy": 9.86, 
			 "SMD_solvation_energy": 5.11 
		},
		"coords": [
			{
				"x": -2.4956061314,
				"y": -1.0190193284,
				"z": -1.8556939847,
				"element": "O" 
			},
			{
				"x": -2.0139031299,
				"y": -0.3763744512,
				"z": -0.7627303978,
				"element": "C" 
			},
			{
				"x": -1.6993644883,
				"y": 0.7808960297,
				"z": -0.8039718614,
				"element": "O" 
			},
			{
				"x": -1.9527543694,
				"y": -1.2428866196,
				"z": 0.501066614,
				"element": "C" 
			},
			{
				"x": -1.3825984332,
				"y": -0.5389324496,
				"z": 1.5893227937,
				"element": "O" 
			},
			{
				"x": -0.0485436923,
				"y": -0.3443789812,
				"z": 1.5646167517,
				"element": "C" 
			},
			{
				"x": 0.5273321271,
				"y": 0.4587983436,
				"z": 2.5684715025,
				"element": "C" 
			},
			{
				"x": -0.4553628966,
				"y": 1.2045299858,
				"z": 3.7940905172,
				"element": "Cl" 
			},
			{
				"x": 1.9014444222,
				"y": 0.6379637721,
				"z": 2.5496353214,
				"element": "C" 
			},
			{
				"x": 2.6687306926,
				"y": 0.0231963826,
				"z": 1.5533062835,
				"element": "C" 
			},
			{
				"x": 4.3930310044,
				"y": 0.2572642877,
				"z": 1.5345301913,
				"element": "Cl" 
			},
			{
				"x": 1.9990470978,
				"y": -0.760423293,
				"z": 0.609092828,
				"element": "C" 
			},
			{
				"x": 2.8650445527,
				"y": -1.5775023671,
				"z": -0.6673276579,
				"element": "Cl" 
			},
			{
				"x": 0.6842955621,
				"y": -0.9292771143,
				"z": 0.6301393192,
				"element": "N" 
			},
			{
				"x": -2.6505890005,
				"y": -1.9572512645,
				"z": -1.6715826725,
				"element": "H" 
			},
			{
				"x": -2.9696223354,
				"y": -1.493068025,
				"z": 0.81891071,
				"element": "H" 
			},
			{
				"x": -1.3994355806,
				"y": -2.1656364435,
				"z": 0.2930525264,
				"element": "H" 
			},
			{
				"x": 2.3814545986,
				"y": 1.2532015361,
				"z": 3.3013712153,
				"element": "H" 
			}
		],
		 "valence_orbital": [ 
			{
				"type": "occ",
				"energy": -0.32377,
				"method": "rhf"
			},
			{
				"type": "occ",
				"energy": -0.30491,
				"method": "rhf"
			},
			{
				"type": "occ",
				"energy": -0.29546,
				"method": "rhf"
			},
			{
				"type": "occ",
				"energy": -0.28864,
				"method": "rhf"
			},
			{
				"type": "occ",
				"energy": -0.24723,
				"method": "rhf"
			},
			{
				"type": "unocc",
				"energy": -0.05649,
				"method": "rhf"
			},
			{
				"type": "unocc",
				"energy": -0.03491,
				"method": "rhf"
			},
			{
				"type": "unocc",
				"energy": -0.00865,
				"method": "rhf"
			},
			{
				"type": "unocc",
				"energy": -0.00285,
				"method": "rhf"
			},
			{
				"type": "unocc",
				"energy": 0.02034,
				"method": "rhf"
			}
		],
		"cosmo_sigma_profile": { 
			"-0.025": 0.0,
			"-0.024": 0.0,
			"-0.023": 0.0,
			"-0.022": 0.0,
			"-0.021": 0.0802559532497,
			"-0.02": 1.05269528967,
			"-0.019": 1.76507894693,
			"-0.018": 1.09488728066,
			"-0.017": 1.03588858813,
			"-0.016": 1.26913048108,
			"-0.015": 1.2955110276,
			"-0.014": 0.977735603645,
			"-0.013": 1.24748612927,
			"-0.012": 1.42779692594,
			"-0.011": 2.26272753132,
			"-0.01": 4.28237204442,
			"-0.009": 3.9349739207,
			"-0.008": 5.05243619313,
			"-0.007": 4.95972272836,
			"-0.006": 4.0322577765,
			"-0.005": 4.73696458341,
			"-0.004": 8.01992096832,
			"-0.003": 15.4860861182,
			"-0.002": 20.4587197002,
			"-0.001": 19.7138922569,
			"0.0": 13.5682795807,
			"0.001": 16.5401074167,
			"0.002": 20.3221762521,
			"0.003": 28.2221045244,
			"0.004": 19.245498443,
			"0.005": 7.13600474989,
			"0.006": 6.48141582077,
			"0.007": 5.47928161621,
			"0.008": 5.0513824774,
			"0.009": 4.04375869754,
			"0.01": 5.59019533646,
			"0.011": 5.11819642298,
			"0.012": 1.95829446547,
			"0.013": 0.113411205781,
			"0.014": 0.0,
			"0.015": 0.0,
			"0.016": 0.0,
			"0.017": 0.0,
			"0.018": 0.0,
			"0.019": 0.0,
			"0.02": 0.0,
			"0.021": 0.0,
			"0.022": 0.0,
			"0.023": 0.0,
			"0.024": 0.0,
			"0.025": 0.0
		}
	}
}
