{
	 "smiles": "OC(=O)C1=CN(CC2=CC=CC=C2)C=C1", 
	 "Tm": 424.15, 
	 "num_atms": 26, 
	 "gaussian": { 
		 "optdone": 1, 
		 "sigma_profile": "yes", 
		 "theory": "DFT", 
		 "functional": "B3LYP", 
		 "basiset": "6-31G**", 
		 "properties": { 
			 "R2extent": 4167.5558, 
			 "electric_dipole_moment_norm": 7.47658092847, 
			 "electric_quadrupole_moment_norm": 17.5563901102, 
			 "total_energy": -669.103334805, 
			 "HOMO_LUMO_gap": 0.2044, 
			 "cosmo_polarized_energy": -19.39, 
			 "cosmo_cavitation_energy": 30.94, 
			 "cosmo_dispersion_energy": -21.77, 
			 "cosmo_repulsion_energy": 1.71, 
			 "cosmo_total_nonelectrostatic_energy": 10.88, 
			 "SMD_solvation_energy": 6.92 
		},
		"coords": [
			{
				"x": -0.1235381099,
				"y": 2.0429770146,
				"z": -2.4592725324,
				"element": "O" 
			},
			{
				"x": -0.6238083865,
				"y": 2.4998812395,
				"z": -1.2707479352,
				"element": "C" 
			},
			{
				"x": -1.081181317,
				"y": 3.6178562305,
				"z": -1.2040684366,
				"element": "O" 
			},
			{
				"x": -0.5589701314,
				"y": 1.5675720394,
				"z": -0.1296724294,
				"element": "C" 
			},
			{
				"x": 0.184966497,
				"y": 0.4007585422,
				"z": -0.0048375196,
				"element": "C" 
			},
			{
				"x": -0.0541337355,
				"y": -0.1289115271,
				"z": 1.2330839268,
				"element": "N" 
			},
			{
				"x": 0.5947913707,
				"y": -1.3175554832,
				"z": 1.7879081105,
				"element": "C" 
			},
			{
				"x": 0.4738330218,
				"y": -2.5423715418,
				"z": 0.9014609177,
				"element": "C" 
			},
			{
				"x": -0.7816327933,
				"y": -2.9845822493,
				"z": 0.4609990618,
				"element": "C" 
			},
			{
				"x": -0.8897544071,
				"y": -4.1262607822,
				"z": -0.3304344565,
				"element": "C" 
			},
			{
				"x": 0.2555571346,
				"y": -4.8431119439,
				"z": -0.6902512339,
				"element": "C" 
			},
			{
				"x": 1.507900713,
				"y": -4.4096222553,
				"z": -0.2566792556,
				"element": "C" 
			},
			{
				"x": 1.6148720109,
				"y": -3.2620493433,
				"z": 0.5334447114,
				"element": "C" 
			},
			{
				"x": -0.9400416299,
				"y": 0.689970455,
				"z": 1.9101224962,
				"element": "C" 
			},
			{
				"x": -1.2653515226,
				"y": 1.7468755439,
				"z": 1.0975853153,
				"element": "C" 
			},
			{
				"x": 0.0450536616,
				"y": 1.0927629652,
				"z": -2.398531168,
				"element": "H" 
			},
			{
				"x": 0.8832269707,
				"y": -0.0797009133,
				"z": -0.6758648527,
				"element": "H" 
			},
			{
				"x": 1.6518002208,
				"y": -1.1005476381,
				"z": 1.9809401007,
				"element": "H" 
			},
			{
				"x": 0.1245156407,
				"y": -1.5014773122,
				"z": 2.7593757375,
				"element": "H" 
			},
			{
				"x": -1.6730702456,
				"y": -2.4260336599,
				"z": 0.7340226735,
				"element": "H" 
			},
			{
				"x": -1.8675538608,
				"y": -4.4589633635,
				"z": -0.6665035445,
				"element": "H" 
			},
			{
				"x": 0.1696099329,
				"y": -5.7329294173,
				"z": -1.30695422,
				"element": "H" 
			},
			{
				"x": 2.4027279343,
				"y": -4.9585294745,
				"z": -0.5352144036,
				"element": "H" 
			},
			{
				"x": 2.5934463131,
				"y": -2.9250849746,
				"z": 0.8671507946,
				"element": "H" 
			},
			{
				"x": -1.2546715367,
				"y": 0.442567011,
				"z": 2.9135697755,
				"element": "H" 
			},
			{
				"x": -1.9370937461,
				"y": 2.562410838,
				"z": 1.3194683666,
				"element": "H" 
			}
		],
		 "valence_orbital": [ 
			{
				"type": "occ",
				"energy": -0.26787,
				"method": "rhf"
			},
			{
				"type": "occ",
				"energy": -0.26774,
				"method": "rhf"
			},
			{
				"type": "occ",
				"energy": -0.25696,
				"method": "rhf"
			},
			{
				"type": "occ",
				"energy": -0.24641,
				"method": "rhf"
			},
			{
				"type": "occ",
				"energy": -0.22939,
				"method": "rhf"
			},
			{
				"type": "unocc",
				"energy": -0.02499,
				"method": "rhf"
			},
			{
				"type": "unocc",
				"energy": -0.01853,
				"method": "rhf"
			},
			{
				"type": "unocc",
				"energy": -0.01343,
				"method": "rhf"
			},
			{
				"type": "unocc",
				"energy": 0.03337,
				"method": "rhf"
			},
			{
				"type": "unocc",
				"energy": 0.06842,
				"method": "rhf"
			}
		],
		"cosmo_sigma_profile": { 
			"-0.025": 0.0,
			"-0.024": 0.0,
			"-0.023": 0.0,
			"-0.022": 0.0,
			"-0.021": 0.0,
			"-0.02": 0.0,
			"-0.019": 0.0362482110672,
			"-0.018": 0.768576409919,
			"-0.017": 0.821623521343,
			"-0.016": 1.27529863907,
			"-0.015": 0.871650739465,
			"-0.014": 0.89632880479,
			"-0.013": 0.66690907489,
			"-0.012": 1.10409208175,
			"-0.011": 1.73053631416,
			"-0.01": 1.01087979421,
			"-0.009": 1.75663740853,
			"-0.008": 5.0139197604,
			"-0.007": 7.63929917238,
			"-0.006": 16.0379952862,
			"-0.005": 20.0519558899,
			"-0.004": 20.0581955177,
			"-0.003": 17.0283806657,
			"-0.002": 13.2040583352,
			"-0.001": 13.00039253,
			"0.0": 12.8221340281,
			"0.001": 12.2804560031,
			"0.002": 14.347041678,
			"0.003": 14.0512838968,
			"0.004": 15.4674235471,
			"0.005": 15.3349470836,
			"0.006": 10.8563438398,
			"0.007": 3.04694664705,
			"0.008": 2.14971771178,
			"0.009": 3.10571099346,
			"0.01": 3.72240171361,
			"0.011": 4.57619987605,
			"0.012": 6.23646467004,
			"0.013": 4.92372400369,
			"0.014": 1.36801794516,
			"0.015": 0.0,
			"0.016": 0.0,
			"0.017": 0.0,
			"0.018": 0.0,
			"0.019": 0.0,
			"0.02": 0.0,
			"0.021": 0.0,
			"0.022": 0.0,
			"0.023": 0.0,
			"0.024": 0.0,
			"0.025": 0.0
		}
	}
}
