{
	 "smiles": "BrC1=C(N=C2C=CC=CC2=C1)C#N", 
	 "Tm": 413.15, 
	 "num_atms": 18, 
	 "gaussian": { 
		 "optdone": 1, 
		 "sigma_profile": "yes", 
		 "theory": "DFT", 
		 "functional": "B3LYP", 
		 "basiset": "6-31G**", 
		 "properties": { 
			 "R2extent": 4909.2301, 
			 "electric_dipole_moment_norm": 6.47813868175, 
			 "electric_quadrupole_moment_norm": 16.2757447501, 
			 "total_energy": -3064.96424107, 
			 "HOMO_LUMO_gap": 0.16341, 
			 "cosmo_polarized_energy": -10.75, 
			 "cosmo_cavitation_energy": 26.18, 
			 "cosmo_dispersion_energy": -19.27, 
			 "cosmo_repulsion_energy": 1.5, 
			 "cosmo_total_nonelectrostatic_energy": 8.41, 
			 "SMD_solvation_energy": 3.04 
		},
		"coords": [
			{
				"x": -4.5212906294,
				"y": -0.7553727009,
				"z": -0.0252082603,
				"element": "Br" 
			},
			{
				"x": -2.6646409701,
				"y": -0.4594572625,
				"z": -0.2831502115,
				"element": "C" 
			},
			{
				"x": -2.1935112484,
				"y": 0.2181163308,
				"z": -1.4495535824,
				"element": "C" 
			},
			{
				"x": -0.9120208161,
				"y": 0.4493753692,
				"z": -1.6769647805,
				"element": "N" 
			},
			{
				"x": 0.0033170189,
				"y": 0.0274540969,
				"z": -0.7666111377,
				"element": "C" 
			},
			{
				"x": 1.378116393,
				"y": 0.2811225138,
				"z": -1.0207739802,
				"element": "C" 
			},
			{
				"x": 2.3332436991,
				"y": -0.1317644903,
				"z": -0.1208504701,
				"element": "C" 
			},
			{
				"x": 1.9600134967,
				"y": -0.8128716772,
				"z": 1.066856172,
				"element": "C" 
			},
			{
				"x": 0.6362605368,
				"y": -1.0731432043,
				"z": 1.3408269317,
				"element": "C" 
			},
			{
				"x": -0.373185446,
				"y": -0.6601553227,
				"z": 0.4324692053,
				"element": "C" 
			},
			{
				"x": -1.7531742751,
				"y": -0.8932229636,
				"z": 0.6482210498,
				"element": "C" 
			},
			{
				"x": -3.1156810669,
				"y": 0.6911734303,
				"z": -2.4544400856,
				"element": "C" 
			},
			{
				"x": -3.8438587624,
				"y": 1.0783058612,
				"z": -3.272835312,
				"element": "N" 
			},
			{
				"x": 1.6344996674,
				"y": 0.8034654046,
				"z": -1.9361959904,
				"element": "H" 
			},
			{
				"x": 3.3835099648,
				"y": 0.0624359747,
				"z": -0.3157686701,
				"element": "H" 
			},
			{
				"x": 2.7296576285,
				"y": -1.1302281201,
				"z": 1.7639335203,
				"element": "H" 
			},
			{
				"x": 0.3482674679,
				"y": -1.5944481576,
				"z": 2.2495032202,
				"element": "H" 
			},
			{
				"x": -2.0853226586,
				"y": -1.4102850824,
				"z": 1.5424423818,
				"element": "H" 
			}
		],
		 "valence_orbital": [ 
			{
				"type": "occ",
				"energy": -0.30976,
				"method": "rhf"
			},
			{
				"type": "occ",
				"energy": -0.30819,
				"method": "rhf"
			},
			{
				"type": "occ",
				"energy": -0.28729,
				"method": "rhf"
			},
			{
				"type": "occ",
				"energy": -0.26755,
				"method": "rhf"
			},
			{
				"type": "occ",
				"energy": -0.25339,
				"method": "rhf"
			},
			{
				"type": "unocc",
				"energy": -0.08998,
				"method": "rhf"
			},
			{
				"type": "unocc",
				"energy": -0.05646,
				"method": "rhf"
			},
			{
				"type": "unocc",
				"energy": -0.01151,
				"method": "rhf"
			},
			{
				"type": "unocc",
				"energy": -0.00781,
				"method": "rhf"
			},
			{
				"type": "unocc",
				"energy": 0.02912,
				"method": "rhf"
			}
		],
		"cosmo_sigma_profile": { 
			"-0.025": 0.0,
			"-0.024": 0.0,
			"-0.023": 0.0,
			"-0.022": 0.0,
			"-0.021": 0.0,
			"-0.02": 0.0,
			"-0.019": 0.0,
			"-0.018": 0.0,
			"-0.017": 0.0,
			"-0.016": 0.0,
			"-0.015": 0.0,
			"-0.014": 0.0,
			"-0.013": 0.0,
			"-0.012": 0.0,
			"-0.011": 0.0,
			"-0.01": 0.506154260199,
			"-0.009": 2.88093387105,
			"-0.008": 3.27337244271,
			"-0.007": 8.93635759777,
			"-0.006": 10.9230794801,
			"-0.005": 12.7212518751,
			"-0.004": 12.4179435954,
			"-0.003": 14.9874139605,
			"-0.002": 14.9099747946,
			"-0.001": 19.78077367,
			"0.0": 18.3891785785,
			"0.001": 17.7286609222,
			"0.002": 22.5264438426,
			"0.003": 19.2821003134,
			"0.004": 6.65868463694,
			"0.005": 5.02974292639,
			"0.006": 3.90163428933,
			"0.007": 5.03959321424,
			"0.008": 3.75753010651,
			"0.009": 4.41278275645,
			"0.01": 2.86282032488,
			"0.011": 3.33527068409,
			"0.012": 2.00131651777,
			"0.013": 0.104479536265,
			"0.014": 0.0,
			"0.015": 0.0,
			"0.016": 0.0,
			"0.017": 0.0,
			"0.018": 0.0,
			"0.019": 0.0,
			"0.02": 0.0,
			"0.021": 0.0,
			"0.022": 0.0,
			"0.023": 0.0,
			"0.024": 0.0,
			"0.025": 0.0
		}
	}
}
