{
	 "smiles": "CN1C2CCC1CC(C2)OC(=O)C(=C)C1=CC=CC=C1", 
	 "Tm": 335.15, 
	 "num_atms": 41, 
	 "gaussian": { 
		 "optdone": 1, 
		 "sigma_profile": "yes", 
		 "theory": "DFT", 
		 "functional": "B3LYP", 
		 "basiset": "6-31G**", 
		 "properties": { 
			 "R2extent": 7217.6103, 
			 "electric_dipole_moment_norm": 1.75003916813, 
			 "electric_quadrupole_moment_norm": 6.60638621562, 
			 "total_energy": -865.655466848, 
			 "HOMO_LUMO_gap": 0.16008, 
			 "cosmo_polarized_energy": -9.47, 
			 "cosmo_cavitation_energy": 41.51, 
			 "cosmo_dispersion_energy": -28.57, 
			 "cosmo_repulsion_energy": 2.19, 
			 "cosmo_total_nonelectrostatic_energy": 15.12, 
			 "SMD_solvation_energy": 5.32 
		},
		"coords": [
			{
				"x": -0.101234439,
				"y": -2.4526183442,
				"z": 2.3627284746,
				"element": "C" 
			},
			{
				"x": -0.720356896,
				"y": -2.8147948492,
				"z": 1.1017912876,
				"element": "N" 
			},
			{
				"x": -1.9886359369,
				"y": -2.163500977,
				"z": 0.7426672947,
				"element": "C" 
			},
			{
				"x": -2.31444447,
				"y": -2.8787876769,
				"z": -0.5916792145,
				"element": "C" 
			},
			{
				"x": -0.9127243866,
				"y": -3.2264411542,
				"z": -1.18067787,
				"element": "C" 
			},
			{
				"x": 0.0782197029,
				"y": -2.6768206847,
				"z": -0.1252239981,
				"element": "C" 
			},
			{
				"x": 0.4636603071,
				"y": -1.2017273536,
				"z": -0.4047867421,
				"element": "C" 
			},
			{
				"x": -0.7949860643,
				"y": -0.3325473279,
				"z": -0.5353147875,
				"element": "C" 
			},
			{
				"x": -1.825288267,
				"y": -0.6333008931,
				"z": 0.5568720721,
				"element": "C" 
			},
			{
				"x": -0.4564777711,
				"y": 1.0789069406,
				"z": -0.4248743433,
				"element": "O" 
			},
			{
				"x": -0.0566069809,
				"y": 1.7041683608,
				"z": -1.5516356968,
				"element": "C" 
			},
			{
				"x": 0.0463820027,
				"y": 1.1505937888,
				"z": -2.6302318265,
				"element": "O" 
			},
			{
				"x": 0.2145918742,
				"y": 3.169581525,
				"z": -1.3305278826,
				"element": "C" 
			},
			{
				"x": 0.4664063784,
				"y": 3.89435407,
				"z": -2.432460421,
				"element": "C" 
			},
			{
				"x": 0.1737232788,
				"y": 3.7810422352,
				"z": 0.0259881311,
				"element": "C" 
			},
			{
				"x": 0.8495966291,
				"y": 3.2110930846,
				"z": 1.1179801248,
				"element": "C" 
			},
			{
				"x": 0.8505515321,
				"y": 3.8404486179,
				"z": 2.3612505697,
				"element": "C" 
			},
			{
				"x": 0.1699739611,
				"y": 5.046691541,
				"z": 2.5428238302,
				"element": "C" 
			},
			{
				"x": -0.5121243838,
				"y": 5.6196849277,
				"z": 1.468966683,
				"element": "C" 
			},
			{
				"x": -0.5096436308,
				"y": 4.9920605148,
				"z": 0.223285292,
				"element": "C" 
			},
			{
				"x": -0.7969843614,
				"y": -2.672230123,
				"z": 3.1800888981,
				"element": "H" 
			},
			{
				"x": 0.7918294746,
				"y": -3.0690849809,
				"z": 2.5137426593,
				"element": "H" 
			},
			{
				"x": 0.2040555561,
				"y": -1.3964025502,
				"z": 2.4624767139,
				"element": "H" 
			},
			{
				"x": -2.7415919409,
				"y": -2.3580613914,
				"z": 1.5148150608,
				"element": "H" 
			},
			{
				"x": -2.9128803669,
				"y": -2.252579114,
				"z": -1.2606111998,
				"element": "H" 
			},
			{
				"x": -2.8858202878,
				"y": -3.7894089579,
				"z": -0.3955144928,
				"element": "H" 
			},
			{
				"x": -0.7935325464,
				"y": -4.3086455737,
				"z": -1.2744335028,
				"element": "H" 
			},
			{
				"x": -0.7463030978,
				"y": -2.7890847709,
				"z": -2.1696867987,
				"element": "H" 
			},
			{
				"x": 0.987539744,
				"y": -3.2839724359,
				"z": -0.0510300766,
				"element": "H" 
			},
			{
				"x": 1.0606451172,
				"y": -1.1221388716,
				"z": -1.3189581005,
				"element": "H" 
			},
			{
				"x": 1.0773403113,
				"y": -0.8184825041,
				"z": 0.4193387189,
				"element": "H" 
			},
			{
				"x": -1.2308590763,
				"y": -0.4767923005,
				"z": -1.5267530407,
				"element": "H" 
			},
			{
				"x": -1.4946985523,
				"y": -0.1764697424,
				"z": 1.4966846558,
				"element": "H" 
			},
			{
				"x": -2.7859415767,
				"y": -0.1711613679,
				"z": 0.301827156,
				"element": "H" 
			},
			{
				"x": 0.4659503844,
				"y": 3.4200988588,
				"z": -3.4076001136,
				"element": "H" 
			},
			{
				"x": 0.6856698719,
				"y": 4.9551617714,
				"z": -2.3734816691,
				"element": "H" 
			},
			{
				"x": 1.3804508003,
				"y": 2.274485708,
				"z": 0.9881135593,
				"element": "H" 
			},
			{
				"x": 1.3862492579,
				"y": 3.388114263,
				"z": 3.1911624384,
				"element": "H" 
			},
			{
				"x": 0.1679854607,
				"y": 5.5324287189,
				"z": 3.5143918712,
				"element": "H" 
			},
			{
				"x": -1.0530487961,
				"y": 6.5525679365,
				"z": 1.6006704232,
				"element": "H" 
			},
			{
				"x": -1.0565378159,
				"y": 5.4317710819,
				"z": -0.6056841378,
				"element": "H" 
			}
		],
		 "valence_orbital": [ 
			{
				"type": "occ",
				"energy": -0.28595,
				"method": "rhf"
			},
			{
				"type": "occ",
				"energy": -0.26815,
				"method": "rhf"
			},
			{
				"type": "occ",
				"energy": -0.25009,
				"method": "rhf"
			},
			{
				"type": "occ",
				"energy": -0.23495,
				"method": "rhf"
			},
			{
				"type": "occ",
				"energy": -0.20553,
				"method": "rhf"
			},
			{
				"type": "unocc",
				"energy": -0.04545,
				"method": "rhf"
			},
			{
				"type": "unocc",
				"energy": -0.00074,
				"method": "rhf"
			},
			{
				"type": "unocc",
				"energy": -0.00033,
				"method": "rhf"
			},
			{
				"type": "unocc",
				"energy": 0.06871,
				"method": "rhf"
			},
			{
				"type": "unocc",
				"energy": 0.08782,
				"method": "rhf"
			}
		],
		"cosmo_sigma_profile": { 
			"-0.025": 0.0,
			"-0.024": 0.0,
			"-0.023": 0.0,
			"-0.022": 0.0,
			"-0.021": 0.0,
			"-0.02": 0.0,
			"-0.019": 0.0,
			"-0.018": 0.0,
			"-0.017": 0.0,
			"-0.016": 0.0,
			"-0.015": 0.0,
			"-0.014": 0.0,
			"-0.013": 0.0,
			"-0.012": 0.0,
			"-0.011": 0.0,
			"-0.01": 0.0,
			"-0.009": 0.0,
			"-0.008": 0.0,
			"-0.007": 0.657356548512,
			"-0.006": 5.6904892532,
			"-0.005": 14.8188975737,
			"-0.004": 25.1156725678,
			"-0.003": 47.4682484246,
			"-0.002": 44.8203617338,
			"-0.001": 41.8457031346,
			"0.0": 35.0506472307,
			"0.001": 23.1770834152,
			"0.002": 15.6395100321,
			"0.003": 15.3155438634,
			"0.004": 12.2645321094,
			"0.005": 12.4155652305,
			"0.006": 9.12689228764,
			"0.007": 4.32483607509,
			"0.008": 3.52798692376,
			"0.009": 2.74966744471,
			"0.01": 2.46500106888,
			"0.011": 2.4756803498,
			"0.012": 4.7698810122,
			"0.013": 1.14819985723,
			"0.014": 0.394620100184,
			"0.015": 0.266131423477,
			"0.016": 0.327171381562,
			"0.017": 0.0,
			"0.018": 0.0,
			"0.019": 0.0,
			"0.02": 0.0,
			"0.021": 0.0,
			"0.022": 0.0,
			"0.023": 0.0,
			"0.024": 0.0,
			"0.025": 0.0
		}
	}
}
