{
	 "smiles": "OC(=O)C1=C2OCCOC2=CC(=C1[N+]([O-])=O)[N+]([O-])=O", 
	 "Tm": 484.15, 
	 "num_atms": 25, 
	 "gaussian": { 
		 "optdone": 1, 
		 "sigma_profile": "yes", 
		 "theory": "DFT", 
		 "functional": "B3LYP", 
		 "basiset": "6-31G**", 
		 "properties": { 
			 "R2extent": 5543.5075, 
			 "electric_dipole_moment_norm": 11.9840283448, 
			 "electric_quadrupole_moment_norm": 22.0151718192, 
			 "total_energy": -1057.62202965, 
			 "HOMO_LUMO_gap": 0.1617, 
			 "cosmo_polarized_energy": -27.44, 
			 "cosmo_cavitation_energy": 31.05, 
			 "cosmo_dispersion_energy": -22.72, 
			 "cosmo_repulsion_energy": 1.72, 
			 "cosmo_total_nonelectrostatic_energy": 10.05, 
			 "SMD_solvation_energy": 11.34 
		},
		"coords": [
			{
				"x": 1.4765021911,
				"y": -3.1248826324,
				"z": -0.0974398977,
				"element": "O" 
			},
			{
				"x": 0.1776909716,
				"y": -3.0270917451,
				"z": 0.2283169091,
				"element": "C" 
			},
			{
				"x": -0.4442482122,
				"y": -3.9868686984,
				"z": 0.6096297888,
				"element": "O" 
			},
			{
				"x": -0.4766116771,
				"y": -1.6585901644,
				"z": 0.1063703358,
				"element": "C" 
			},
			{
				"x": 0.0079117632,
				"y": -0.6563390517,
				"z": -0.7588670947,
				"element": "C" 
			},
			{
				"x": 1.1806348119,
				"y": -0.8837976654,
				"z": -1.433629574,
				"element": "O" 
			},
			{
				"x": 1.7801404114,
				"y": 0.2734020283,
				"z": -2.0508927865,
				"element": "C" 
			},
			{
				"x": 0.707183543,
				"y": 1.0744020084,
				"z": -2.7597131977,
				"element": "C" 
			},
			{
				"x": -0.2673293511,
				"y": 1.5151484006,
				"z": -1.8109041182,
				"element": "O" 
			},
			{
				"x": -0.6930253829,
				"y": 0.550040668,
				"z": -0.9459852777,
				"element": "C" 
			},
			{
				"x": -1.8512527911,
				"y": 0.7862709806,
				"z": -0.2217945798,
				"element": "C" 
			},
			{
				"x": -2.3124444559,
				"y": -0.1706076038,
				"z": 0.6755988775,
				"element": "C" 
			},
			{
				"x": -1.6485403221,
				"y": -1.3899462379,
				"z": 0.8319643368,
				"element": "C" 
			},
			{
				"x": -2.1830678498,
				"y": -2.4129694086,
				"z": 1.7706391975,
				"element": "N" 
			},
			{
				"x": -1.5838593878,
				"y": -2.5370202729,
				"z": 2.8263647271,
				"element": "O" 
			},
			{
				"x": -3.1778793496,
				"y": -3.01379353,
				"z": 1.3995789112,
				"element": "O" 
			},
			{
				"x": -3.5122100102,
				"y": 0.1851436565,
				"z": 1.4574851341,
				"element": "N" 
			},
			{
				"x": -3.7145620372,
				"y": -0.4280328014,
				"z": 2.4989973707,
				"element": "O" 
			},
			{
				"x": -4.2114934664,
				"y": 1.0951227037,
				"z": 1.0167126504,
				"element": "O" 
			},
			{
				"x": 1.7905879376,
				"y": -2.2996823546,
				"z": -0.5057108673,
				"element": "H" 
			},
			{
				"x": 2.5280800932,
				"y": -0.1132685447,
				"z": -2.7451322973,
				"element": "H" 
			},
			{
				"x": 2.2702773547,
				"y": 0.878548124,
				"z": -1.2798042604,
				"element": "H" 
			},
			{
				"x": 0.2247106808,
				"y": 0.4656373056,
				"z": -3.5348027168,
				"element": "H" 
			},
			{
				"x": 1.1226392339,
				"y": 1.9746885302,
				"z": -3.2166293411,
				"element": "H" 
			},
			{
				"x": -2.3967346988,
				"y": 1.7123863053,
				"z": -0.34935223,
				"element": "H" 
			}
		],
		 "valence_orbital": [ 
			{
				"type": "occ",
				"energy": -0.30872,
				"method": "rhf"
			},
			{
				"type": "occ",
				"energy": -0.3069,
				"method": "rhf"
			},
			{
				"type": "occ",
				"energy": -0.29676,
				"method": "rhf"
			},
			{
				"type": "occ",
				"energy": -0.28934,
				"method": "rhf"
			},
			{
				"type": "occ",
				"energy": -0.26836,
				"method": "rhf"
			},
			{
				"type": "unocc",
				"energy": -0.10666,
				"method": "rhf"
			},
			{
				"type": "unocc",
				"energy": -0.08362,
				"method": "rhf"
			},
			{
				"type": "unocc",
				"energy": -0.06639,
				"method": "rhf"
			},
			{
				"type": "unocc",
				"energy": -0.02632,
				"method": "rhf"
			},
			{
				"type": "unocc",
				"energy": 0.01928,
				"method": "rhf"
			}
		],
		"cosmo_sigma_profile": { 
			"-0.025": 0.0,
			"-0.024": 0.0,
			"-0.023": 0.0,
			"-0.022": 0.0,
			"-0.021": 0.0,
			"-0.02": 0.0,
			"-0.019": 0.0,
			"-0.018": 0.0,
			"-0.017": 0.0,
			"-0.016": 0.0,
			"-0.015": 0.0,
			"-0.014": 0.0142575785778,
			"-0.013": 0.55431896789,
			"-0.012": 1.5326452785,
			"-0.011": 1.13636625936,
			"-0.01": 1.46902547526,
			"-0.009": 8.8247863424,
			"-0.008": 19.6789830175,
			"-0.007": 17.4408596965,
			"-0.006": 14.5613005884,
			"-0.005": 14.3706644332,
			"-0.004": 15.8377394453,
			"-0.003": 11.9061893203,
			"-0.002": 11.9618261909,
			"-0.001": 6.85528681728,
			"0.0": 7.35036984815,
			"0.001": 5.79992686888,
			"0.002": 6.87985843824,
			"0.003": 7.87693682117,
			"0.004": 7.86688283271,
			"0.005": 13.716564481,
			"0.006": 22.3457461502,
			"0.007": 21.9709167954,
			"0.008": 13.1186723793,
			"0.009": 7.60508532626,
			"0.01": 5.00074205472,
			"0.011": 2.7691876374,
			"0.012": 1.09450605205,
			"0.013": 0.0,
			"0.014": 0.0,
			"0.015": 0.0,
			"0.016": 0.0,
			"0.017": 0.0,
			"0.018": 0.0,
			"0.019": 0.0,
			"0.02": 0.0,
			"0.021": 0.0,
			"0.022": 0.0,
			"0.023": 0.0,
			"0.024": 0.0,
			"0.025": 0.0
		}
	}
}
