{
	 "smiles": "CC1=CC(F)=C(F)C=C1C(O)=O", 
	 "Tm": 393.15, 
	 "num_atms": 18, 
	 "gaussian": { 
		 "optdone": 1, 
		 "sigma_profile": "yes", 
		 "theory": "DFT", 
		 "functional": "B3LYP", 
		 "basiset": "6-31G**", 
		 "properties": { 
			 "R2extent": 2232.9838, 
			 "electric_dipole_moment_norm": 3.05386212033, 
			 "electric_quadrupole_moment_norm": 4.34997329072, 
			 "total_energy": -658.597695014, 
			 "HOMO_LUMO_gap": 0.19694, 
			 "cosmo_polarized_energy": -8.21, 
			 "cosmo_cavitation_energy": 23.53, 
			 "cosmo_dispersion_energy": -17.12, 
			 "cosmo_repulsion_energy": 1.31, 
			 "cosmo_total_nonelectrostatic_energy": 7.72, 
			 "SMD_solvation_energy": 6.37 
		},
		"coords": [
			{
				"x": -1.8700489001,
				"y": -2.0696837524,
				"z": 0.2802979019,
				"element": "C" 
			},
			{
				"x": -0.7448376991,
				"y": -1.065838195,
				"z": 0.1677078368,
				"element": "C" 
			},
			{
				"x": 0.0260676072,
				"y": -1.0796879264,
				"z": -1.003659522,
				"element": "C" 
			},
			{
				"x": 1.0772816612,
				"y": -0.1952227274,
				"z": -1.192000048,
				"element": "C" 
			},
			{
				"x": 1.7973064181,
				"y": -0.2312086548,
				"z": -2.3219365579,
				"element": "F" 
			},
			{
				"x": 1.3964211045,
				"y": 0.7401452654,
				"z": -0.2091014249,
				"element": "C" 
			},
			{
				"x": 2.4184711407,
				"y": 1.5873951659,
				"z": -0.411978232,
				"element": "F" 
			},
			{
				"x": 0.6573033675,
				"y": 0.7800548487,
				"z": 0.9554010505,
				"element": "C" 
			},
			{
				"x": -0.4113729082,
				"y": -0.1109181529,
				"z": 1.159693473,
				"element": "C" 
			},
			{
				"x": -1.1026833227,
				"y": 0.067740843,
				"z": 2.4693805545,
				"element": "C" 
			},
			{
				"x": -2.1363933641,
				"y": -0.7813255837,
				"z": 2.6878460976,
				"element": "O" 
			},
			{
				"x": -0.7871871369,
				"y": 0.9008925159,
				"z": 3.2975889683,
				"element": "O" 
			},
			{
				"x": -2.8375825076,
				"y": -1.5778097291,
				"z": 0.409181571,
				"element": "H" 
			},
			{
				"x": -1.7392722114,
				"y": -2.7262870841,
				"z": 1.1442811323,
				"element": "H" 
			},
			{
				"x": -1.91244047,
				"y": -2.6867956793,
				"z": -0.6204355934,
				"element": "H" 
			},
			{
				"x": -0.18732681,
				"y": -1.7909423474,
				"z": -1.7946840065,
				"element": "H" 
			},
			{
				"x": 0.8967933357,
				"y": 1.5032516533,
				"z": 1.7259754594,
				"element": "H" 
			},
			{
				"x": -2.4781993048,
				"y": -0.5447604598,
				"z": 3.5665413393,
				"element": "H" 
			}
		],
		 "valence_orbital": [ 
			{
				"type": "occ",
				"energy": -0.35832,
				"method": "rhf"
			},
			{
				"type": "occ",
				"energy": -0.32395,
				"method": "rhf"
			},
			{
				"type": "occ",
				"energy": -0.28504,
				"method": "rhf"
			},
			{
				"type": "occ",
				"energy": -0.26918,
				"method": "rhf"
			},
			{
				"type": "occ",
				"energy": -0.25235,
				"method": "rhf"
			},
			{
				"type": "unocc",
				"energy": -0.05541,
				"method": "rhf"
			},
			{
				"type": "unocc",
				"energy": -0.01657,
				"method": "rhf"
			},
			{
				"type": "unocc",
				"energy": 0.0526,
				"method": "rhf"
			},
			{
				"type": "unocc",
				"energy": 0.06163,
				"method": "rhf"
			},
			{
				"type": "unocc",
				"energy": 0.08199,
				"method": "rhf"
			}
		],
		"cosmo_sigma_profile": { 
			"-0.025": 0.0,
			"-0.024": 0.0,
			"-0.023": 0.0,
			"-0.022": 0.0,
			"-0.021": 0.0,
			"-0.02": 0.0,
			"-0.019": 0.0561476688347,
			"-0.018": 0.778127836182,
			"-0.017": 0.778767666139,
			"-0.016": 0.768329807813,
			"-0.015": 1.18536635087,
			"-0.014": 0.432097818457,
			"-0.013": 0.428483047903,
			"-0.012": 0.670984907393,
			"-0.011": 1.13059857636,
			"-0.01": 0.888361838895,
			"-0.009": 0.290916251625,
			"-0.008": 1.84045327853,
			"-0.007": 4.25898225871,
			"-0.006": 4.76377308015,
			"-0.005": 4.88599141543,
			"-0.004": 6.65148127119,
			"-0.003": 11.0461395851,
			"-0.002": 18.101467038,
			"-0.001": 22.6471452651,
			"0.0": 23.7145591905,
			"0.001": 19.0293543144,
			"0.002": 11.8884018109,
			"0.003": 20.6423180466,
			"0.004": 13.2597277201,
			"0.005": 4.58507482464,
			"0.006": 0.845211433741,
			"0.007": 0.352673468169,
			"0.008": 1.83550575618,
			"0.009": 1.76244795799,
			"0.01": 1.64418641294,
			"0.011": 4.04192924114,
			"0.012": 3.17686160067,
			"0.013": 0.0324278571987,
			"0.014": 0.0,
			"0.015": 0.0,
			"0.016": 0.0,
			"0.017": 0.0,
			"0.018": 0.0,
			"0.019": 0.0,
			"0.02": 0.0,
			"0.021": 0.0,
			"0.022": 0.0,
			"0.023": 0.0,
			"0.024": 0.0,
			"0.025": 0.0
		}
	}
}
