{
	 "smiles": "N[C@H](CO)C(=O)N[C@@H]1C=C[C@@H](O[C@@H]1[C@@](O)(C[C@H](O)CNC(N)=N)C(O)=O)N1C=C(CO)C(N)=NC1=O", 
	 "Tm": 573.15, 
	 "num_atms": 66, 
	 "gaussian": { 
		 "optdone": 1, 
		 "sigma_profile": "yes", 
		 "theory": "DFT", 
		 "functional": "B3LYP", 
		 "basiset": "6-31G**", 
		 "properties": { 
			 "R2extent": 18679.2961, 
			 "electric_dipole_moment_norm": 5.24484373456, 
			 "electric_quadrupole_moment_norm": 40.3743824408, 
			 "total_energy": -1857.1326329, 
			 "HOMO_LUMO_gap": 0.1874, 
			 "cosmo_polarized_energy": -50.03, 
			 "cosmo_cavitation_energy": 65.97, 
			 "cosmo_dispersion_energy": -42.38, 
			 "cosmo_repulsion_energy": 3.24, 
			 "cosmo_total_nonelectrostatic_energy": 26.82, 
			 "SMD_solvation_energy": 8.31 
		},
		"coords": [
			{
				"x": 1.7007794778,
				"y": 2.9984402652,
				"z": -2.9681729152,
				"element": "N" 
			},
			{
				"x": 0.4483343812,
				"y": 2.5678482339,
				"z": -3.595630888,
				"element": "C" 
			},
			{
				"x": 0.1241747027,
				"y": 3.2745533526,
				"z": -4.9258691335,
				"element": "C" 
			},
			{
				"x": 1.191329614,
				"y": 3.1154904026,
				"z": -5.8508052522,
				"element": "O" 
			},
			{
				"x": -0.7240124632,
				"y": 2.669151922,
				"z": -2.614531554,
				"element": "C" 
			},
			{
				"x": -1.8983268639,
				"y": 2.6252843729,
				"z": -3.0192343114,
				"element": "O" 
			},
			{
				"x": -0.378272447,
				"y": 2.7552937907,
				"z": -1.3164483328,
				"element": "N" 
			},
			{
				"x": -1.3192473135,
				"y": 2.9814913105,
				"z": -0.2132085529,
				"element": "C" 
			},
			{
				"x": -0.6109427912,
				"y": 3.816532609,
				"z": 0.8314501756,
				"element": "C" 
			},
			{
				"x": -0.1994898665,
				"y": 3.3096257606,
				"z": 1.9947348306,
				"element": "C" 
			},
			{
				"x": -0.463132947,
				"y": 1.8695734076,
				"z": 2.3748614265,
				"element": "C" 
			},
			{
				"x": -0.8664328295,
				"y": 1.1001000629,
				"z": 1.2600265797,
				"element": "O" 
			},
			{
				"x": -1.8827180059,
				"y": 1.7191718262,
				"z": 0.4898987831,
				"element": "C" 
			},
			{
				"x": -2.5525162504,
				"y": 0.6444212515,
				"z": -0.423643484,
				"element": "C" 
			},
			{
				"x": -3.4563193696,
				"y": 1.3257854796,
				"z": -1.2863482821,
				"element": "O" 
			},
			{
				"x": -1.539870404,
				"y": -0.2351480002,
				"z": -1.2311709465,
				"element": "C" 
			},
			{
				"x": -1.2724397521,
				"y": -1.6876275212,
				"z": -0.7971792318,
				"element": "C" 
			},
			{
				"x": -0.6214982681,
				"y": -1.780220124,
				"z": 0.4681097558,
				"element": "O" 
			},
			{
				"x": -0.3510538638,
				"y": -2.3645186492,
				"z": -1.8110631098,
				"element": "C" 
			},
			{
				"x": -0.0861847807,
				"y": -3.7256466005,
				"z": -1.3817043786,
				"element": "N" 
			},
			{
				"x": 0.712838898,
				"y": -4.5312408164,
				"z": -2.1750665712,
				"element": "C" 
			},
			{
				"x": 0.9339350193,
				"y": -5.8031657512,
				"z": -1.6344328037,
				"element": "N" 
			},
			{
				"x": 1.1064551149,
				"y": -4.1209438342,
				"z": -3.3295146541,
				"element": "N" 
			},
			{
				"x": -3.4680134202,
				"y": -0.2133124355,
				"z": 0.4930792132,
				"element": "C" 
			},
			{
				"x": -4.7670627238,
				"y": -0.1129066454,
				"z": 0.2237182484,
				"element": "O" 
			},
			{
				"x": -3.0514870893,
				"y": -0.9024003463,
				"z": 1.4051542159,
				"element": "O" 
			},
			{
				"x": 0.7320582267,
				"y": 1.2074759025,
				"z": 2.9341378425,
				"element": "N" 
			},
			{
				"x": 1.3182703537,
				"y": 0.141014388,
				"z": 2.3268633168,
				"element": "C" 
			},
			{
				"x": 2.3847906543,
				"y": -0.4914064046,
				"z": 2.8954424416,
				"element": "C" 
			},
			{
				"x": 3.0813844457,
				"y": -1.6350073376,
				"z": 2.2110559439,
				"element": "C" 
			},
			{
				"x": 3.2357600128,
				"y": -2.7892709698,
				"z": 3.0545080026,
				"element": "O" 
			},
			{
				"x": 2.8137486868,
				"y": 0.0221292631,
				"z": 4.1759710309,
				"element": "C" 
			},
			{
				"x": 3.876154719,
				"y": -0.5663205978,
				"z": 4.7902935394,
				"element": "N" 
			},
			{
				"x": 2.2345647388,
				"y": 1.0414679262,
				"z": 4.7869105292,
				"element": "N" 
			},
			{
				"x": 1.1709071176,
				"y": 1.6769615344,
				"z": 4.2192442341,
				"element": "C" 
			},
			{
				"x": 0.5545136353,
				"y": 2.610730029,
				"z": 4.7259146287,
				"element": "O" 
			},
			{
				"x": 2.4761617066,
				"y": 2.7032177916,
				"z": -3.5557238792,
				"element": "H" 
			},
			{
				"x": 1.7408413176,
				"y": 4.0174521593,
				"z": -2.959530602,
				"element": "H" 
			},
			{
				"x": 0.5497229757,
				"y": 1.4926106764,
				"z": -3.8072913236,
				"element": "H" 
			},
			{
				"x": 0.0262953636,
				"y": 4.3526775813,
				"z": -4.7506570331,
				"element": "H" 
			},
			{
				"x": -0.8336979626,
				"y": 2.916770898,
				"z": -5.3187465468,
				"element": "H" 
			},
			{
				"x": 1.102215816,
				"y": 2.2485440443,
				"z": -6.2672174633,
				"element": "H" 
			},
			{
				"x": 0.6219185642,
				"y": 2.7521577312,
				"z": -1.1349617717,
				"element": "H" 
			},
			{
				"x": -2.1670573675,
				"y": 3.5334859268,
				"z": -0.6322584325,
				"element": "H" 
			},
			{
				"x": -0.4231368935,
				"y": 4.8588071174,
				"z": 0.5844257886,
				"element": "H" 
			},
			{
				"x": 0.28449259,
				"y": 3.9131295898,
				"z": 2.7534444337,
				"element": "H" 
			},
			{
				"x": -1.2333713076,
				"y": 1.845177604,
				"z": 3.1614079294,
				"element": "H" 
			},
			{
				"x": -2.6727656096,
				"y": 2.0993833035,
				"z": 1.1568682011,
				"element": "H" 
			},
			{
				"x": -2.9664315817,
				"y": 1.8265502719,
				"z": -1.9879684785,
				"element": "H" 
			},
			{
				"x": -1.9345430407,
				"y": -0.2658517637,
				"z": -2.2524522799,
				"element": "H" 
			},
			{
				"x": -0.5750646948,
				"y": 0.274053375,
				"z": -1.2623809794,
				"element": "H" 
			},
			{
				"x": -2.2178906755,
				"y": -2.2492421334,
				"z": -0.7653141716,
				"element": "H" 
			},
			{
				"x": -1.2822095386,
				"y": -1.4797993532,
				"z": 1.1213004866,
				"element": "H" 
			},
			{
				"x": 0.577704719,
				"y": -1.7809750124,
				"z": -1.9134290461,
				"element": "H" 
			},
			{
				"x": -0.8174913851,
				"y": -2.3929358749,
				"z": -2.7994579979,
				"element": "H" 
			},
			{
				"x": 0.0530613408,
				"y": -3.7873446802,
				"z": -0.3803450988,
				"element": "H" 
			},
			{
				"x": 0.716950074,
				"y": -5.9304277652,
				"z": -0.6553828973,
				"element": "H" 
			},
			{
				"x": 1.8077040633,
				"y": -6.2306464641,
				"z": -1.9045491889,
				"element": "H" 
			},
			{
				"x": 1.5714504759,
				"y": -4.875173473,
				"z": -3.8354106175,
				"element": "H" 
			},
			{
				"x": -4.8342770507,
				"y": 0.4999613275,
				"z": -0.5414765314,
				"element": "H" 
			},
			{
				"x": 0.8760715995,
				"y": -0.1936307986,
				"z": 1.3955067748,
				"element": "H" 
			},
			{
				"x": 2.5442815135,
				"y": -1.8916929865,
				"z": 1.2879392822,
				"element": "H" 
			},
			{
				"x": 4.1076164572,
				"y": -1.3649086899,
				"z": 1.9365475751,
				"element": "H" 
			},
			{
				"x": 2.3513498958,
				"y": -3.0423496463,
				"z": 3.3543940934,
				"element": "H" 
			},
			{
				"x": 4.0882130598,
				"y": -1.5224923074,
				"z": 4.5333451029,
				"element": "H" 
			},
			{
				"x": 4.0516072263,
				"y": -0.2685155064,
				"z": 5.7391243351,
				"element": "H" 
			}
		],
		 "valence_orbital": [ 
			{
				"type": "occ",
				"energy": -0.25,
				"method": "rhf"
			},
			{
				"type": "occ",
				"energy": -0.24652,
				"method": "rhf"
			},
			{
				"type": "occ",
				"energy": -0.24468,
				"method": "rhf"
			},
			{
				"type": "occ",
				"energy": -0.22332,
				"method": "rhf"
			},
			{
				"type": "occ",
				"energy": -0.21618,
				"method": "rhf"
			},
			{
				"type": "unocc",
				"energy": -0.02878,
				"method": "rhf"
			},
			{
				"type": "unocc",
				"energy": -0.02284,
				"method": "rhf"
			},
			{
				"type": "unocc",
				"energy": -0.00592,
				"method": "rhf"
			},
			{
				"type": "unocc",
				"energy": -0.0032,
				"method": "rhf"
			},
			{
				"type": "unocc",
				"energy": 0.01401,
				"method": "rhf"
			}
		],
		"cosmo_sigma_profile": { 
			"-0.025": 0.0,
			"-0.024": 0.0,
			"-0.023": 0.0,
			"-0.022": 0.0,
			"-0.021": 0.0,
			"-0.02": 0.0,
			"-0.019": 0.0,
			"-0.018": 0.0,
			"-0.017": 0.0,
			"-0.016": 1.08681848804,
			"-0.015": 2.47804665901,
			"-0.014": 2.67507812696,
			"-0.013": 5.73661456433,
			"-0.012": 6.98677252107,
			"-0.011": 7.79387824787,
			"-0.01": 10.5242509598,
			"-0.009": 11.9030694113,
			"-0.008": 13.0363122764,
			"-0.007": 20.7292095068,
			"-0.006": 24.8079033918,
			"-0.005": 34.090836745,
			"-0.004": 33.9629279682,
			"-0.003": 34.3131302619,
			"-0.002": 35.6244576681,
			"-0.001": 32.5740474112,
			"0.0": 26.7433706034,
			"0.001": 25.6673504198,
			"0.002": 18.5408641982,
			"0.003": 17.1926799207,
			"0.004": 17.1813184683,
			"0.005": 16.1131456962,
			"0.006": 13.1874023806,
			"0.007": 14.9181253277,
			"0.008": 12.7075208376,
			"0.009": 13.7727958684,
			"0.01": 11.6711073517,
			"0.011": 10.660773487,
			"0.012": 9.91554882329,
			"0.013": 7.57884599742,
			"0.014": 7.69628640439,
			"0.015": 5.2755442654,
			"0.016": 4.06553562,
			"0.017": 1.86725219408,
			"0.018": 1.4347480068,
			"0.019": 0.836472041001,
			"0.02": 0.146195324989,
			"0.021": 0.0,
			"0.022": 0.0,
			"0.023": 0.0,
			"0.024": 0.0,
			"0.025": 0.0
		}
	}
}
