{
	 "smiles": "[O-][N+](=O)C1=CC(=C(C=CC2=CC(C=C/C3=CC=C(C=C3[N+]([O-])=O)[N+]([O-])=O)=CC=C2)C=C1)[N+]([O-])=O", 
	 "Tm": 516.15, 
	 "num_atms": 48, 
	 "gaussian": { 
		 "optdone": 1, 
		 "sigma_profile": "yes", 
		 "theory": "DFT", 
		 "functional": "B3LYP", 
		 "basiset": "6-31G**", 
		 "properties": { 
			 "R2extent": 16408.2883, 
			 "electric_dipole_moment_norm": 6.39093223403, 
			 "electric_quadrupole_moment_norm": 36.2362334592, 
			 "total_energy": -1667.12583202, 
			 "HOMO_LUMO_gap": 0.1251, 
			 "cosmo_polarized_energy": -23.09, 
			 "cosmo_cavitation_energy": 56.65, 
			 "cosmo_dispersion_energy": -35.05, 
			 "cosmo_repulsion_energy": 2.61, 
			 "cosmo_total_nonelectrostatic_energy": 24.21, 
			 "SMD_solvation_energy": 17.51 
		},
		"coords": [
			{
				"x": 2.3033521186,
				"y": 5.1024705232,
				"z": -2.5434292395,
				"element": "O" 
			},
			{
				"x": 2.7507768902,
				"y": 4.0626273545,
				"z": -3.0192304629,
				"element": "N" 
			},
			{
				"x": 3.127315342,
				"y": 3.916315862,
				"z": -4.1803783343,
				"element": "O" 
			},
			{
				"x": 2.8470275369,
				"y": 2.8951283292,
				"z": -2.1232264592,
				"element": "C" 
			},
			{
				"x": 3.3844216032,
				"y": 1.7168032909,
				"z": -2.6205851998,
				"element": "C" 
			},
			{
				"x": 3.4885493758,
				"y": 0.6292522521,
				"z": -1.7592055409,
				"element": "C" 
			},
			{
				"x": 3.0376079537,
				"y": 0.6675233585,
				"z": -0.4257735549,
				"element": "C" 
			},
			{
				"x": 3.1357704112,
				"y": -0.4917671093,
				"z": 0.505656932,
				"element": "C" 
			},
			{
				"x": 2.2127525993,
				"y": -1.4379572369,
				"z": 0.7440181467,
				"element": "C" 
			},
			{
				"x": 0.8757684874,
				"y": -1.626695017,
				"z": 0.1437774589,
				"element": "C" 
			},
			{
				"x": 0.0076084,
				"y": -0.5655345687,
				"z": -0.1471951263,
				"element": "C" 
			},
			{
				"x": -1.2487168696,
				"y": -0.779054445,
				"z": -0.7347003797,
				"element": "C" 
			},
			{
				"x": -2.13665178,
				"y": 0.3609627279,
				"z": -1.0401436236,
				"element": "C" 
			},
			{
				"x": -2.3924193262,
				"y": 1.4217825199,
				"z": -0.2528044925,
				"element": "C" 
			},
			{
				"x": -2.0335209818,
				"y": 1.5321620123,
				"z": 1.1804395718,
				"element": "C" 
			},
			{
				"x": -2.5129110835,
				"y": 0.5454209004,
				"z": 2.066847646,
				"element": "C" 
			},
			{
				"x": -2.2948878788,
				"y": 0.6098778103,
				"z": 3.435996369,
				"element": "C" 
			},
			{
				"x": -1.5672417398,
				"y": 1.6830264132,
				"z": 3.9508307239,
				"element": "C" 
			},
			{
				"x": -1.0436401268,
				"y": 2.6676328429,
				"z": 3.1288563915,
				"element": "C" 
			},
			{
				"x": -1.2887146234,
				"y": 2.5818585553,
				"z": 1.7596194348,
				"element": "C" 
			},
			{
				"x": -0.649614508,
				"y": 3.6062230272,
				"z": 0.9202062763,
				"element": "N" 
			},
			{
				"x": -1.0775803205,
				"y": 3.7782731453,
				"z": -0.2179120532,
				"element": "O" 
			},
			{
				"x": 0.3051782083,
				"y": 4.2183876582,
				"z": 1.4077071963,
				"element": "O" 
			},
			{
				"x": -1.3347438323,
				"y": 1.7693407497,
				"z": 5.4024569039,
				"element": "N" 
			},
			{
				"x": -0.6900175024,
				"y": 2.7295330349,
				"z": 5.8174292591,
				"element": "O" 
			},
			{
				"x": -1.8018670122,
				"y": 0.8717800501,
				"z": 6.1008220386,
				"element": "O" 
			},
			{
				"x": -1.627046247,
				"y": -2.0906539914,
				"z": -1.0659922106,
				"element": "C" 
			},
			{
				"x": -0.7897742997,
				"y": -3.1601713679,
				"z": -0.7518643898,
				"element": "C" 
			},
			{
				"x": 0.4420509291,
				"y": -2.934747719,
				"z": -0.1392070274,
				"element": "C" 
			},
			{
				"x": 2.5009667059,
				"y": 1.8880954211,
				"z": 0.0207663884,
				"element": "C" 
			},
			{
				"x": 2.4014470846,
				"y": 3.0031345428,
				"z": -0.8082291274,
				"element": "C" 
			},
			{
				"x": 4.1159013556,
				"y": -0.5849113904,
				"z": -2.315719166,
				"element": "N" 
			},
			{
				"x": 4.6997101779,
				"y": -1.332629921,
				"z": -1.5348187355,
				"element": "O" 
			},
			{
				"x": 4.0325561151,
				"y": -0.7548755571,
				"z": -3.5301968008,
				"element": "O" 
			},
			{
				"x": 3.7165653239,
				"y": 1.6443349391,
				"z": -3.6473062618,
				"element": "H" 
			},
			{
				"x": 4.0911538173,
				"y": -0.5819810637,
				"z": 1.0173665342,
				"element": "H" 
			},
			{
				"x": 2.5135553638,
				"y": -2.2302337661,
				"z": 1.4280361773,
				"element": "H" 
			},
			{
				"x": 0.3125828619,
				"y": 0.4491084287,
				"z": 0.07134466,
				"element": "H" 
			},
			{
				"x": -2.5956980348,
				"y": 0.3554134298,
				"z": -2.0278212092,
				"element": "H" 
			},
			{
				"x": -2.9599990132,
				"y": 2.250326844,
				"z": -0.6634618941,
				"element": "H" 
			},
			{
				"x": -3.0833074028,
				"y": -0.2776208485,
				"z": 1.6524152351,
				"element": "H" 
			},
			{
				"x": -2.6803992049,
				"y": -0.1451083026,
				"z": 4.1098574874,
				"element": "H" 
			},
			{
				"x": -0.4528852178,
				"y": 3.4764731036,
				"z": 3.5364462494,
				"element": "H" 
			},
			{
				"x": -2.5853406296,
				"y": -2.2703426458,
				"z": -1.5457180802,
				"element": "H" 
			},
			{
				"x": -1.0966534344,
				"y": -4.1746761769,
				"z": -0.988232595,
				"element": "H" 
			},
			{
				"x": 1.0919985354,
				"y": -3.7736621934,
				"z": 0.0939037904,
				"element": "H" 
			},
			{
				"x": 2.1523167446,
				"y": 1.9606372287,
				"z": 1.0456812596,
				"element": "H" 
			},
			{
				"x": 1.9692971278,
				"y": 3.9310169649,
				"z": -0.452730166,
				"element": "H" 
			}
		],
		 "valence_orbital": [ 
			{
				"type": "occ",
				"energy": -0.29956,
				"method": "rhf"
			},
			{
				"type": "occ",
				"energy": -0.29521,
				"method": "rhf"
			},
			{
				"type": "occ",
				"energy": -0.292,
				"method": "rhf"
			},
			{
				"type": "occ",
				"energy": -0.25806,
				"method": "rhf"
			},
			{
				"type": "occ",
				"energy": -0.24755,
				"method": "rhf"
			},
			{
				"type": "unocc",
				"energy": -0.12245,
				"method": "rhf"
			},
			{
				"type": "unocc",
				"energy": -0.11045,
				"method": "rhf"
			},
			{
				"type": "unocc",
				"energy": -0.10648,
				"method": "rhf"
			},
			{
				"type": "unocc",
				"energy": -0.09589,
				"method": "rhf"
			},
			{
				"type": "unocc",
				"energy": -0.05658,
				"method": "rhf"
			}
		],
		"cosmo_sigma_profile": { 
			"-0.025": 0.0,
			"-0.024": 0.0,
			"-0.023": 0.0,
			"-0.022": 0.0,
			"-0.021": 0.0,
			"-0.02": 0.0,
			"-0.019": 0.0,
			"-0.018": 0.0,
			"-0.017": 0.0,
			"-0.016": 0.0,
			"-0.015": 0.0,
			"-0.014": 0.0,
			"-0.013": 0.0,
			"-0.012": 0.0,
			"-0.011": 0.0,
			"-0.01": 0.0446576354284,
			"-0.009": 1.66520585295,
			"-0.008": 8.20521114323,
			"-0.007": 18.2098751783,
			"-0.006": 31.5956488959,
			"-0.005": 33.3896213072,
			"-0.004": 33.1432921148,
			"-0.003": 43.0404022405,
			"-0.002": 39.9258660766,
			"-0.001": 30.4815192483,
			"0.0": 24.3554915496,
			"0.001": 24.0713204132,
			"0.002": 22.8755721019,
			"0.003": 19.3583352697,
			"0.004": 21.6506002759,
			"0.005": 17.5113608737,
			"0.006": 21.5510916207,
			"0.007": 34.4239136046,
			"0.008": 17.668300996,
			"0.009": 11.4897399125,
			"0.01": 1.87125131481,
			"0.011": 0.0,
			"0.012": 0.0,
			"0.013": 0.0,
			"0.014": 0.0,
			"0.015": 0.0,
			"0.016": 0.0,
			"0.017": 0.0,
			"0.018": 0.0,
			"0.019": 0.0,
			"0.02": 0.0,
			"0.021": 0.0,
			"0.022": 0.0,
			"0.023": 0.0,
			"0.024": 0.0,
			"0.025": 0.0
		}
	}
}
