{
	 "smiles": "OC(=O)CN1C=NC2=C(C=CC=C2)C1=O", 
	 "Tm": 515.15, 
	 "num_atms": 23, 
	 "gaussian": { 
		 "optdone": 1, 
		 "sigma_profile": "yes", 
		 "theory": "DFT", 
		 "functional": "B3LYP", 
		 "basiset": "6-31G**", 
		 "properties": { 
			 "R2extent": 4045.6928, 
			 "electric_dipole_moment_norm": 2.23534427997, 
			 "electric_quadrupole_moment_norm": 13.0328744416, 
			 "total_energy": -721.094502942, 
			 "HOMO_LUMO_gap": 0.18794, 
			 "cosmo_polarized_energy": -17.71, 
			 "cosmo_cavitation_energy": 28.12, 
			 "cosmo_dispersion_energy": -20.45, 
			 "cosmo_repulsion_energy": 1.58, 
			 "cosmo_total_nonelectrostatic_energy": 9.25, 
			 "SMD_solvation_energy": 5.29 
		},
		"coords": [
			{
				"x": -1.6253471466,
				"y": 2.2373228165,
				"z": -2.7417715351,
				"element": "O" 
			},
			{
				"x": -0.3383426392,
				"y": 2.512092066,
				"z": -3.0308979588,
				"element": "C" 
			},
			{
				"x": 0.0728812168,
				"y": 3.6116792173,
				"z": -3.314493774,
				"element": "O" 
			},
			{
				"x": 0.5496547058,
				"y": 1.2710934041,
				"z": -3.0267251162,
				"element": "C" 
			},
			{
				"x": 0.0039602968,
				"y": 0.1241877206,
				"z": -2.3168863849,
				"element": "N" 
			},
			{
				"x": -0.5323848319,
				"y": -0.9506424015,
				"z": -2.9933283705,
				"element": "C" 
			},
			{
				"x": -1.0511547496,
				"y": -1.9987695375,
				"z": -2.4534990669,
				"element": "N" 
			},
			{
				"x": -1.0803429152,
				"y": -2.0430815735,
				"z": -1.0641960101,
				"element": "C" 
			},
			{
				"x": -0.5742228133,
				"y": -0.9905059355,
				"z": -0.2650347976,
				"element": "C" 
			},
			{
				"x": -0.6248737082,
				"y": -1.0733404319,
				"z": 1.1361116301,
				"element": "C" 
			},
			{
				"x": -1.1712644684,
				"y": -2.1940953487,
				"z": 1.7419189259,
				"element": "C" 
			},
			{
				"x": -1.675895951,
				"y": -3.2437642245,
				"z": 0.9524373442,
				"element": "C" 
			},
			{
				"x": -1.6335166809,
				"y": -3.1729102786,
				"z": -0.4316677068,
				"element": "C" 
			},
			{
				"x": -0.0017552984,
				"y": 0.1944708979,
				"z": -0.907341382,
				"element": "C" 
			},
			{
				"x": 0.448764495,
				"y": 1.1827258664,
				"z": -0.3401228291,
				"element": "O" 
			},
			{
				"x": -2.0989407409,
				"y": 3.0859230807,
				"z": -2.768102487,
				"element": "H" 
			},
			{
				"x": 0.7355991862,
				"y": 0.9892435576,
				"z": -4.0673251292,
				"element": "H" 
			},
			{
				"x": 1.4971321037,
				"y": 1.5663819202,
				"z": -2.5740827955,
				"element": "H" 
			},
			{
				"x": -0.4900030684,
				"y": -0.8747138263,
				"z": -4.0786194567,
				"element": "H" 
			},
			{
				"x": -0.2289569811,
				"y": -0.2458008804,
				"z": 1.7153178305,
				"element": "H" 
			},
			{
				"x": -1.2113292983,
				"y": -2.2632970156,
				"z": 2.8246278842,
				"element": "H" 
			},
			{
				"x": -2.1038561394,
				"y": -4.1191105316,
				"z": 1.4327241242,
				"element": "H" 
			},
			{
				"x": -2.0185045735,
				"y": -3.9716885617,
				"z": -1.0567429385,
				"element": "H" 
			}
		],
		 "valence_orbital": [ 
			{
				"type": "occ",
				"energy": -0.28445,
				"method": "rhf"
			},
			{
				"type": "occ",
				"energy": -0.27888,
				"method": "rhf"
			},
			{
				"type": "occ",
				"energy": -0.27095,
				"method": "rhf"
			},
			{
				"type": "occ",
				"energy": -0.26454,
				"method": "rhf"
			},
			{
				"type": "occ",
				"energy": -0.23496,
				"method": "rhf"
			},
			{
				"type": "unocc",
				"energy": -0.04702,
				"method": "rhf"
			},
			{
				"type": "unocc",
				"energy": -0.04116,
				"method": "rhf"
			},
			{
				"type": "unocc",
				"energy": -0.00277,
				"method": "rhf"
			},
			{
				"type": "unocc",
				"energy": 0.02352,
				"method": "rhf"
			},
			{
				"type": "unocc",
				"energy": 0.06486,
				"method": "rhf"
			}
		],
		"cosmo_sigma_profile": { 
			"-0.025": 0.0,
			"-0.024": 0.0,
			"-0.023": 0.0,
			"-0.022": 0.0,
			"-0.021": 0.0,
			"-0.02": 0.0,
			"-0.019": 0.689528368454,
			"-0.018": 1.06794635937,
			"-0.017": 0.684333348938,
			"-0.016": 0.879024712768,
			"-0.015": 0.822974896778,
			"-0.014": 0.497869567303,
			"-0.013": 0.786437209243,
			"-0.012": 2.94387123351,
			"-0.011": 4.05137453461,
			"-0.01": 3.5339164899,
			"-0.009": 3.42974002024,
			"-0.008": 4.28356369319,
			"-0.007": 8.48722821065,
			"-0.006": 12.226836918,
			"-0.005": 13.4813299019,
			"-0.004": 13.9962195712,
			"-0.003": 10.8348243346,
			"-0.002": 10.75229839,
			"-0.001": 10.7727884871,
			"0.0": 11.0144871563,
			"0.001": 14.7913676285,
			"0.002": 17.6097169486,
			"0.003": 18.127566809,
			"0.004": 11.2404869067,
			"0.005": 6.19543226449,
			"0.006": 5.73320810146,
			"0.007": 4.82533889111,
			"0.008": 3.70979439203,
			"0.009": 4.17657366782,
			"0.01": 5.31602653785,
			"0.011": 8.8789421358,
			"0.012": 5.83547661943,
			"0.013": 2.28382266045,
			"0.014": 0.87489352155,
			"0.015": 0.61928641303,
			"0.016": 0.0082526689618,
			"0.017": 0.0,
			"0.018": 0.0,
			"0.019": 0.0,
			"0.02": 0.0,
			"0.021": 0.0,
			"0.022": 0.0,
			"0.023": 0.0,
			"0.024": 0.0,
			"0.025": 0.0
		}
	}
}
