{
	 "smiles": "N(C1=CC=CC=C1)C1=C2C=CC=CC2=CC=C1", 
	 "Tm": 334.65, 
	 "num_atms": 30, 
	 "gaussian": { 
		 "optdone": 1, 
		 "sigma_profile": "yes", 
		 "theory": "DFT", 
		 "functional": "B3LYP", 
		 "basiset": "6-31G**", 
		 "properties": { 
			 "R2extent": 4632.8898, 
			 "electric_dipole_moment_norm": 0.935312771216, 
			 "electric_quadrupole_moment_norm": 8.05649711227, 
			 "total_energy": -672.300353009, 
			 "HOMO_LUMO_gap": 0.15444, 
			 "cosmo_polarized_energy": -8.55, 
			 "cosmo_cavitation_energy": 33.05, 
			 "cosmo_dispersion_energy": -23.89, 
			 "cosmo_repulsion_energy": 1.83, 
			 "cosmo_total_nonelectrostatic_energy": 10.99, 
			 "SMD_solvation_energy": 5.13 
		},
		"coords": [
			{
				"x": -0.1893046386,
				"y": -1.7473803648,
				"z": 1.7153925077,
				"element": "N" 
			},
			{
				"x": -0.607295291,
				"y": -0.5439563579,
				"z": 2.3160385344,
				"element": "C" 
			},
			{
				"x": -1.1477195414,
				"y": -0.5989090595,
				"z": 3.6137113322,
				"element": "C" 
			},
			{
				"x": -1.5821256281,
				"y": 0.5601641176,
				"z": 4.2498325449,
				"element": "C" 
			},
			{
				"x": -1.5007142043,
				"y": 1.7977836213,
				"z": 3.6061320041,
				"element": "C" 
			},
			{
				"x": -0.9670576426,
				"y": 1.8539564678,
				"z": 2.3182143601,
				"element": "C" 
			},
			{
				"x": -0.5157715591,
				"y": 0.7015420266,
				"z": 1.6742090676,
				"element": "C" 
			},
			{
				"x": 0.4523057953,
				"y": -1.8437091559,
				"z": 0.4543031421,
				"element": "C" 
			},
			{
				"x": -0.2884155602,
				"y": -1.6141311581,
				"z": -0.7532508759,
				"element": "C" 
			},
			{
				"x": -1.6724541134,
				"y": -1.2915171697,
				"z": -0.7546263703,
				"element": "C" 
			},
			{
				"x": -2.3450470503,
				"y": -1.072969908,
				"z": -1.9365490473,
				"element": "C" 
			},
			{
				"x": -1.6686279708,
				"y": -1.1677339344,
				"z": -3.1763419399,
				"element": "C" 
			},
			{
				"x": -0.3340510664,
				"y": -1.5012856453,
				"z": -3.2089830114,
				"element": "C" 
			},
			{
				"x": 0.3903955923,
				"y": -1.7448670463,
				"z": -2.0102340705,
				"element": "C" 
			},
			{
				"x": 1.7546576052,
				"y": -2.1416098609,
				"z": -2.0346275291,
				"element": "C" 
			},
			{
				"x": 2.4254153359,
				"y": -2.4006879588,
				"z": -0.8624060543,
				"element": "C" 
			},
			{
				"x": 1.7761817459,
				"y": -2.2386049279,
				"z": 0.3823141112,
				"element": "C" 
			},
			{
				"x": 0.1433607579,
				"y": -2.4270046978,
				"z": 2.3858586471,
				"element": "H" 
			},
			{
				"x": -1.2283441562,
				"y": -1.5603223921,
				"z": 4.1159869098,
				"element": "H" 
			},
			{
				"x": -1.9922033609,
				"y": 0.4931682358,
				"z": 5.253889743,
				"element": "H" 
			},
			{
				"x": -1.8453352472,
				"y": 2.7004265342,
				"z": 4.1008812814,
				"element": "H" 
			},
			{
				"x": -0.8874725997,
				"y": 2.8083231943,
				"z": 1.8046296813,
				"element": "H" 
			},
			{
				"x": -0.0868987228,
				"y": 0.76762096,
				"z": 0.6810438968,
				"element": "H" 
			},
			{
				"x": -2.1959713499,
				"y": -1.2275285592,
				"z": 0.1920470648,
				"element": "H" 
			},
			{
				"x": -3.4038999272,
				"y": -0.8314696647,
				"z": -1.9187952639,
				"element": "H" 
			},
			{
				"x": -2.2090615362,
				"y": -0.9869938042,
				"z": -4.1011105987,
				"element": "H" 
			},
			{
				"x": 0.1882312167,
				"y": -1.5921246639,
				"z": -4.1580145217,
				"element": "H" 
			},
			{
				"x": 2.2537320957,
				"y": -2.2469047376,
				"z": -2.9940993018,
				"element": "H" 
			},
			{
				"x": 3.4656491436,
				"y": -2.7123374607,
				"z": -0.8825388657,
				"element": "H" 
			},
			{
				"x": 2.3273418779,
				"y": -2.4109366298,
				"z": 1.303192622,
				"element": "H" 
			}
		],
		 "valence_orbital": [ 
			{
				"type": "occ",
				"energy": -0.27481,
				"method": "rhf"
			},
			{
				"type": "occ",
				"energy": -0.24417,
				"method": "rhf"
			},
			{
				"type": "occ",
				"energy": -0.24227,
				"method": "rhf"
			},
			{
				"type": "occ",
				"energy": -0.21763,
				"method": "rhf"
			},
			{
				"type": "occ",
				"energy": -0.19301,
				"method": "rhf"
			},
			{
				"type": "unocc",
				"energy": -0.03857,
				"method": "rhf"
			},
			{
				"type": "unocc",
				"energy": -0.00935,
				"method": "rhf"
			},
			{
				"type": "unocc",
				"energy": 0.00611,
				"method": "rhf"
			},
			{
				"type": "unocc",
				"energy": 0.01754,
				"method": "rhf"
			},
			{
				"type": "unocc",
				"energy": 0.03836,
				"method": "rhf"
			}
		],
		"cosmo_sigma_profile": { 
			"-0.025": 0.0,
			"-0.024": 0.0,
			"-0.023": 0.0,
			"-0.022": 0.0,
			"-0.021": 0.0,
			"-0.02": 0.0,
			"-0.019": 0.0,
			"-0.018": 0.0,
			"-0.017": 0.0,
			"-0.016": 0.0,
			"-0.015": 0.0,
			"-0.014": 0.055920414272,
			"-0.013": 0.801893387872,
			"-0.012": 1.51478898023,
			"-0.011": 0.97609013125,
			"-0.01": 1.30144063188,
			"-0.009": 1.5342696078,
			"-0.008": 1.81849886969,
			"-0.007": 2.53772496743,
			"-0.006": 10.6890318824,
			"-0.005": 22.0468752238,
			"-0.004": 21.2527231744,
			"-0.003": 24.2880697761,
			"-0.002": 17.9447681175,
			"-0.001": 15.0133847217,
			"0.0": 15.4933216617,
			"0.001": 15.7254697616,
			"0.002": 17.263613578,
			"0.003": 21.3524980134,
			"0.004": 28.9190407263,
			"0.005": 24.616826889,
			"0.006": 12.3437744782,
			"0.007": 6.71231392765,
			"0.008": 0.760763839785,
			"0.009": 0.0,
			"0.01": 0.0,
			"0.011": 0.0,
			"0.012": 0.0,
			"0.013": 0.0,
			"0.014": 0.0,
			"0.015": 0.0,
			"0.016": 0.0,
			"0.017": 0.0,
			"0.018": 0.0,
			"0.019": 0.0,
			"0.02": 0.0,
			"0.021": 0.0,
			"0.022": 0.0,
			"0.023": 0.0,
			"0.024": 0.0,
			"0.025": 0.0
		}
	}
}
