{
	 "smiles": "COC1=CC=C(C=C1)C1=NC(CC(O)=O)=CS1", 
	 "Tm": 383.15, 
	 "num_atms": 28, 
	 "gaussian": { 
		 "optdone": 1, 
		 "sigma_profile": "yes", 
		 "theory": "DFT", 
		 "functional": "B3LYP", 
		 "basiset": "6-31G**", 
		 "properties": { 
			 "R2extent": 6347.4554, 
			 "electric_dipole_moment_norm": 6.39424616824, 
			 "electric_quadrupole_moment_norm": 31.870562092, 
			 "total_energy": -1142.52337133, 
			 "HOMO_LUMO_gap": 0.15742, 
			 "cosmo_polarized_energy": -15.5, 
			 "cosmo_cavitation_energy": 34.27, 
			 "cosmo_dispersion_energy": -25.51, 
			 "cosmo_repulsion_energy": 1.92, 
			 "cosmo_total_nonelectrostatic_energy": 10.68, 
			 "SMD_solvation_energy": 7.12 
		},
		"coords": [
			{
				"x": 2.0964764858,
				"y": 1.2178251489,
				"z": 5.0685550912,
				"element": "C" 
			},
			{
				"x": 2.2692724028,
				"y": 0.0748778996,
				"z": 4.240306633,
				"element": "O" 
			},
			{
				"x": 1.5416049376,
				"y": -0.0144103811,
				"z": 3.0974013386,
				"element": "C" 
			},
			{
				"x": 0.6091332696,
				"y": 0.9402258751,
				"z": 2.6663626416,
				"element": "C" 
			},
			{
				"x": -0.0811025858,
				"y": 0.7421103652,
				"z": 1.4738812873,
				"element": "C" 
			},
			{
				"x": 0.1371476913,
				"y": -0.3981442732,
				"z": 0.6848912504,
				"element": "C" 
			},
			{
				"x": 1.0781346688,
				"y": -1.3461650976,
				"z": 1.1322686779,
				"element": "C" 
			},
			{
				"x": 1.768564371,
				"y": -1.1615166715,
				"z": 2.318062914,
				"element": "C" 
			},
			{
				"x": -0.604848061,
				"y": -0.5702933549,
				"z": -0.5641638483,
				"element": "C" 
			},
			{
				"x": -1.3385985358,
				"y": 0.3605018666,
				"z": -1.1297143787,
				"element": "N" 
			},
			{
				"x": -1.9321722053,
				"y": -0.0631896896,
				"z": -2.3013499257,
				"element": "C" 
			},
			{
				"x": -2.8134981916,
				"y": 0.9000837677,
				"z": -3.0487721892,
				"element": "C" 
			},
			{
				"x": -2.2399784756,
				"y": 2.3131187524,
				"z": -3.2703605775,
				"element": "C" 
			},
			{
				"x": -1.5029907622,
				"y": 2.816509212,
				"z": -2.2682348812,
				"element": "O" 
			},
			{
				"x": -2.4952078518,
				"y": 2.951264097,
				"z": -4.263676732,
				"element": "O" 
			},
			{
				"x": -1.6512178756,
				"y": -1.3530289374,
				"z": -2.6499889681,
				"element": "C" 
			},
			{
				"x": -0.6167616917,
				"y": -2.0835876926,
				"z": -1.4648751336,
				"element": "S" 
			},
			{
				"x": 1.0673143299,
				"y": 1.2932941739,
				"z": 5.4407253312,
				"element": "H" 
			},
			{
				"x": 2.358378417,
				"y": 2.1418374891,
				"z": 4.5386542422,
				"element": "H" 
			},
			{
				"x": 2.7747580677,
				"y": 1.0814164697,
				"z": 5.9115821185,
				"element": "H" 
			},
			{
				"x": 0.4124894147,
				"y": 1.8317587776,
				"z": 3.2493379811,
				"element": "H" 
			},
			{
				"x": -0.8086040632,
				"y": 1.4769470205,
				"z": 1.1474199366,
				"element": "H" 
			},
			{
				"x": 1.2828780115,
				"y": -2.2334374016,
				"z": 0.5396574837,
				"element": "H" 
			},
			{
				"x": 2.4972628878,
				"y": -1.8866693147,
				"z": 2.6639232426,
				"element": "H" 
			},
			{
				"x": -3.0872783607,
				"y": 0.5057548591,
				"z": -4.0278290723,
				"element": "H" 
			},
			{
				"x": -3.747778222,
				"y": 1.0405780805,
				"z": -2.4858656283,
				"element": "H" 
			},
			{
				"x": -1.3579095411,
				"y": 2.1207778418,
				"z": -1.5833815067,
				"element": "H" 
			},
			{
				"x": -1.9867685321,
				"y": -1.9043388827,
				"z": -3.5163173282,
				"element": "H" 
			}
		],
		 "valence_orbital": [ 
			{
				"type": "occ",
				"energy": -0.29202,
				"method": "rhf"
			},
			{
				"type": "occ",
				"energy": -0.27857,
				"method": "rhf"
			},
			{
				"type": "occ",
				"energy": -0.27066,
				"method": "rhf"
			},
			{
				"type": "occ",
				"energy": -0.24994,
				"method": "rhf"
			},
			{
				"type": "occ",
				"energy": -0.22104,
				"method": "rhf"
			},
			{
				"type": "unocc",
				"energy": -0.06362,
				"method": "rhf"
			},
			{
				"type": "unocc",
				"energy": -0.02069,
				"method": "rhf"
			},
			{
				"type": "unocc",
				"energy": 0.0047,
				"method": "rhf"
			},
			{
				"type": "unocc",
				"energy": 0.01108,
				"method": "rhf"
			},
			{
				"type": "unocc",
				"energy": 0.02922,
				"method": "rhf"
			}
		],
		"cosmo_sigma_profile": { 
			"-0.025": 0.0,
			"-0.024": 0.0,
			"-0.023": 0.0,
			"-0.022": 0.0,
			"-0.021": 0.0,
			"-0.02": 0.0,
			"-0.019": 0.0,
			"-0.018": 0.0,
			"-0.017": 0.0,
			"-0.016": 0.0,
			"-0.015": 0.0,
			"-0.014": 0.0,
			"-0.013": 0.0,
			"-0.012": 0.0,
			"-0.011": 0.0,
			"-0.01": 0.414709254366,
			"-0.009": 2.26475465616,
			"-0.008": 4.93497080991,
			"-0.007": 10.6956702726,
			"-0.006": 20.0297170685,
			"-0.005": 23.1557614608,
			"-0.004": 22.7483012544,
			"-0.003": 21.1221176608,
			"-0.002": 14.7212261193,
			"-0.001": 16.5767524105,
			"0.0": 19.5443879163,
			"0.001": 21.6434713683,
			"0.002": 22.8370074012,
			"0.003": 19.9606616301,
			"0.004": 14.6974615415,
			"0.005": 4.99654570436,
			"0.006": 3.4087488519,
			"0.007": 3.55558539825,
			"0.008": 3.97604914607,
			"0.009": 4.47306632795,
			"0.01": 4.03671736674,
			"0.011": 5.91647208134,
			"0.012": 6.49252813682,
			"0.013": 3.82413982257,
			"0.014": 0.574205130234,
			"0.015": 0.0,
			"0.016": 0.0,
			"0.017": 0.0,
			"0.018": 0.0,
			"0.019": 0.0,
			"0.02": 0.0,
			"0.021": 0.0,
			"0.022": 0.0,
			"0.023": 0.0,
			"0.024": 0.0,
			"0.025": 0.0
		}
	}
}
