{
	 "smiles": "CC1=NOC(=O)C1CC(O)=O", 
	 "Tm": 423.15, 
	 "num_atms": 18, 
	 "gaussian": { 
		 "optdone": 1, 
		 "sigma_profile": "yes", 
		 "theory": "DFT", 
		 "functional": "B3LYP", 
		 "basiset": "6-31G**", 
		 "properties": { 
			 "R2extent": 2180.6325, 
			 "electric_dipole_moment_norm": 5.89449625413, 
			 "electric_quadrupole_moment_norm": 21.334403226, 
			 "total_energy": -588.4731965, 
			 "HOMO_LUMO_gap": 0.23902, 
			 "cosmo_polarized_energy": -20.58, 
			 "cosmo_cavitation_energy": 23.04, 
			 "cosmo_dispersion_energy": -16.32, 
			 "cosmo_repulsion_energy": 1.34, 
			 "cosmo_total_nonelectrostatic_energy": 8.06, 
			 "SMD_solvation_energy": 5.81 
		},
		"coords": [
			{
				"x": -1.4765435956,
				"y": -0.454949046,
				"z": -2.23850303,
				"element": "C" 
			},
			{
				"x": -0.7666778619,
				"y": -1.5371023217,
				"z": -1.4940292559,
				"element": "C" 
			},
			{
				"x": -1.2573332572,
				"y": -2.7217162558,
				"z": -1.4417787752,
				"element": "N" 
			},
			{
				"x": -0.3893947272,
				"y": -3.5435630548,
				"z": -0.6464831336,
				"element": "O" 
			},
			{
				"x": 0.6552963183,
				"y": -2.8017528814,
				"z": -0.1668024011,
				"element": "C" 
			},
			{
				"x": 1.4779153122,
				"y": -3.2294637592,
				"z": 0.5986769186,
				"element": "O" 
			},
			{
				"x": 0.5647168287,
				"y": -1.4195101345,
				"z": -0.8060214791,
				"element": "C" 
			},
			{
				"x": 0.8328141442,
				"y": -0.2733208814,
				"z": 0.1710285998,
				"element": "C" 
			},
			{
				"x": -0.2038709773,
				"y": -0.1761440781,
				"z": 1.2702916824,
				"element": "C" 
			},
			{
				"x": 0.0928146721,
				"y": 0.8120750003,
				"z": 2.14012425,
				"element": "O" 
			},
			{
				"x": -1.1832721811,
				"y": -0.881040104,
				"z": 1.37131258,
				"element": "O" 
			},
			{
				"x": -1.7624585812,
				"y": 0.3532094741,
				"z": -1.5558807481,
				"element": "H" 
			},
			{
				"x": -2.3800666532,
				"y": -0.8538447693,
				"z": -2.7034045133,
				"element": "H" 
			},
			{
				"x": -0.8338581093,
				"y": -0.0236719441,
				"z": -3.0145669052,
				"element": "H" 
			},
			{
				"x": 1.3465925259,
				"y": -1.3786909342,
				"z": -1.5795802739,
				"element": "H" 
			},
			{
				"x": 0.8873725455,
				"y": 0.6909264278,
				"z": -0.3459920778,
				"element": "H" 
			},
			{
				"x": 1.8110643997,
				"y": -0.4308990714,
				"z": 0.6384652768,
				"element": "H" 
			},
			{
				"x": -0.6047108026,
				"y": 0.8041583338,
				"z": 2.8175432856,
				"element": "H" 
			}
		],
		 "valence_orbital": [ 
			{
				"type": "occ",
				"energy": -0.33883,
				"method": "rhf"
			},
			{
				"type": "occ",
				"energy": -0.32831,
				"method": "rhf"
			},
			{
				"type": "occ",
				"energy": -0.29913,
				"method": "rhf"
			},
			{
				"type": "occ",
				"energy": -0.27477,
				"method": "rhf"
			},
			{
				"type": "occ",
				"energy": -0.27086,
				"method": "rhf"
			},
			{
				"type": "unocc",
				"energy": -0.03184,
				"method": "rhf"
			},
			{
				"type": "unocc",
				"energy": -0.01162,
				"method": "rhf"
			},
			{
				"type": "unocc",
				"energy": 0.01599,
				"method": "rhf"
			},
			{
				"type": "unocc",
				"energy": 0.06448,
				"method": "rhf"
			},
			{
				"type": "unocc",
				"energy": 0.06909,
				"method": "rhf"
			}
		],
		"cosmo_sigma_profile": { 
			"-0.025": 0.0,
			"-0.024": 0.0,
			"-0.023": 0.0,
			"-0.022": 0.0,
			"-0.021": 0.0,
			"-0.02": 0.0,
			"-0.019": 0.34185770095,
			"-0.018": 0.868816507876,
			"-0.017": 1.16762559812,
			"-0.016": 0.875618772651,
			"-0.015": 0.504854895687,
			"-0.014": 0.864376531684,
			"-0.013": 0.500458138435,
			"-0.012": 0.850042662974,
			"-0.011": 1.45779732573,
			"-0.01": 5.22261478247,
			"-0.009": 4.07582533619,
			"-0.008": 9.94961679315,
			"-0.007": 11.2414243743,
			"-0.006": 10.5730302958,
			"-0.005": 10.7878452721,
			"-0.004": 9.24730529724,
			"-0.003": 11.2379857578,
			"-0.002": 10.1262252666,
			"-0.001": 6.43162346891,
			"0.0": 4.42855984606,
			"0.001": 4.81935292332,
			"0.002": 4.33338000302,
			"0.003": 5.92964750775,
			"0.004": 4.11424662614,
			"0.005": 6.58601238683,
			"0.006": 7.64462762116,
			"0.007": 9.3286611039,
			"0.008": 11.0630177877,
			"0.009": 7.74676782261,
			"0.01": 7.8634434874,
			"0.011": 9.07664061277,
			"0.012": 2.27413604537,
			"0.013": 0.737426273781,
			"0.014": 0.0512349964465,
			"0.015": 0.0,
			"0.016": 0.0,
			"0.017": 0.0,
			"0.018": 0.0,
			"0.019": 0.0,
			"0.02": 0.0,
			"0.021": 0.0,
			"0.022": 0.0,
			"0.023": 0.0,
			"0.024": 0.0,
			"0.025": 0.0
		}
	}
}
