{
	 "smiles": "OCC1=CC=CC=C1I", 
	 "Tm": 364.65, 
	 "num_atms": 16, 
	 "gaussian": { 
		 "optdone": 1, 
		 "sigma_profile": "no", 
		 "theory": "DFT", 
		 "functional": "B3LYP", 
		 "basiset": "6-31G**", 
		 "properties": { 
			 "R2extent": 2037.2422, 
			 "electric_dipole_moment_norm": 1.87049262763, 
			 "electric_quadrupole_moment_norm": 6.7158317467, 
			 "total_energy": -357.5614415, 
			 "HOMO_LUMO_gap": 0.20154, 
			 "cosmo_polarized_energy": -85081.78, 
			 "cosmo_cavitation_energy": 22.49, 
			 "cosmo_dispersion_energy": -18.15, 
			 "cosmo_repulsion_energy": 1.45, 
			 "cosmo_total_nonelectrostatic_energy": 5.79, 
			 "SMD_solvation_energy": 3.04 
		},
		"coords": [
			{
				"x": -0.0509474684,
				"y": -3.3741788407,
				"z": 0.06248529,
				"element": "O" 
			},
			{
				"x": 1.0310899958,
				"y": -2.6616196367,
				"z": 0.6367374754,
				"element": "C" 
			},
			{
				"x": 0.6270463384,
				"y": -1.3383819516,
				"z": 1.2710595738,
				"element": "C" 
			},
			{
				"x": -0.7308562537,
				"y": -1.0583063809,
				"z": 1.478156339,
				"element": "C" 
			},
			{
				"x": -1.1491767439,
				"y": 0.1378134754,
				"z": 2.0581370608,
				"element": "C" 
			},
			{
				"x": -0.2064446263,
				"y": 1.0868318449,
				"z": 2.4517125223,
				"element": "C" 
			},
			{
				"x": 1.1530850453,
				"y": 0.8307839759,
				"z": 2.2686488669,
				"element": "C" 
			},
			{
				"x": 1.5542315002,
				"y": -0.3721922343,
				"z": 1.6844298965,
				"element": "C" 
			},
			{
				"x": 3.6528101714,
				"y": -0.6987539232,
				"z": 1.4653131152,
				"element": "I" 
			},
			{
				"x": -0.3437228488,
				"y": -2.8856289722,
				"z": -0.7182369757,
				"element": "H" 
			},
			{
				"x": 1.8321660026,
				"y": -2.4891263233,
				"z": -0.0958674415,
				"element": "H" 
			},
			{
				"x": 1.4508481572,
				"y": -3.3224999351,
				"z": 1.404304886,
				"element": "H" 
			},
			{
				"x": -1.4520711215,
				"y": -1.8114722309,
				"z": 1.1782736718,
				"element": "H" 
			},
			{
				"x": -2.208767077,
				"y": 0.3255195917,
				"z": 2.2049142575,
				"element": "H" 
			},
			{
				"x": -0.5189726295,
				"y": 2.0239177346,
				"z": 2.9028613755,
				"element": "H" 
			},
			{
				"x": 1.8934815582,
				"y": 1.5606938062,
				"z": 2.5761700864,
				"element": "H" 
			}
		],
		 "valence_orbital": [ 
			{
				"type": "occ",
				"energy": -0.29613,
				"method": "rhf"
			},
			{
				"type": "occ",
				"energy": -0.28885,
				"method": "rhf"
			},
			{
				"type": "occ",
				"energy": -0.26751,
				"method": "rhf"
			},
			{
				"type": "occ",
				"energy": -0.25585,
				"method": "rhf"
			},
			{
				"type": "occ",
				"energy": -0.24056,
				"method": "rhf"
			},
			{
				"type": "unocc",
				"energy": -0.03902,
				"method": "rhf"
			},
			{
				"type": "unocc",
				"energy": -0.01839,
				"method": "rhf"
			},
			{
				"type": "unocc",
				"energy": -0.01262,
				"method": "rhf"
			},
			{
				"type": "unocc",
				"energy": 0.03636,
				"method": "rhf"
			},
			{
				"type": "unocc",
				"energy": 0.04716,
				"method": "rhf"
			}
		],
		"cosmo_sigma_profile": { 
			"0.0": 0.0,
			"0.0": 0.0,
			"0.0": 0.0,
			"0.0": 0.0,
			"0.0": 0.0,
			"0.0": 0.0,
			"0.0": 0.0,
			"0.0": 0.0,
			"0.0": 0.0,
			"0.0": 0.0,
			"0.0": 0.0,
			"0.0": 0.0,
			"0.0": 0.0,
			"0.0": 0.0,
			"0.0": 0.0,
			"0.0": 0.0,
			"0.0": 0.0,
			"0.0": 0.0,
			"0.0": 0.0,
			"0.0": 0.0,
			"0.0": 0.0,
			"0.0": 0.0,
			"0.0": 0.0,
			"0.0": 0.0,
			"0.0": 0.0,
			"0.0": 0.0,
			"0.0": 0.0,
			"0.0": 0.0,
			"0.0": 0.0,
			"0.0": 0.0,
			"0.0": 0.0,
			"0.0": 0.0,
			"0.0": 0.0,
			"0.0": 0.0,
			"0.0": 0.0,
			"0.0": 0.0,
			"0.0": 0.0,
			"0.0": 0.0,
			"0.0": 0.0,
			"0.0": 0.0,
			"0.0": 0.0,
			"0.0": 0.0,
			"0.0": 0.0,
			"0.0": 0.0,
			"0.0": 0.0,
			"0.0": 0.0,
			"0.0": 0.0,
			"0.0": 0.0,
			"0.0": 0.0,
			"0.0": 0.0,
			"0.0": 0.0
		}
	}
}
