{
	 "smiles": "OC(=O)C1=CC2=C(N1)C=C(F)C=C2", 
	 "Tm": 501.15, 
	 "num_atms": 19, 
	 "gaussian": { 
		 "optdone": 1, 
		 "sigma_profile": "yes", 
		 "theory": "DFT", 
		 "functional": "B3LYP", 
		 "basiset": "6-31G**", 
		 "properties": { 
			 "R2extent": 2973.2947, 
			 "electric_dipole_moment_norm": 1.25028317193, 
			 "electric_quadrupole_moment_norm": 4.02200461462, 
			 "total_energy": -651.632448751, 
			 "HOMO_LUMO_gap": 0.16529, 
			 "cosmo_polarized_energy": -11.01, 
			 "cosmo_cavitation_energy": 24.77, 
			 "cosmo_dispersion_energy": -18.33, 
			 "cosmo_repulsion_energy": 1.41, 
			 "cosmo_total_nonelectrostatic_energy": 7.85, 
			 "SMD_solvation_energy": 5.64 
		},
		"coords": [
			{
				"x": -1.1184776401,
				"y": -3.3297166949,
				"z": -0.9643484714,
				"element": "O" 
			},
			{
				"x": -1.8623870802,
				"y": -2.2394786129,
				"z": -0.6683422282,
				"element": "C" 
			},
			{
				"x": -3.0812003684,
				"y": -2.2284103247,
				"z": -0.7224957296,
				"element": "O" 
			},
			{
				"x": -1.0597838386,
				"y": -1.0838686784,
				"z": -0.2805023637,
				"element": "C" 
			},
			{
				"x": 0.2996895886,
				"y": -0.890937529,
				"z": -0.158347061,
				"element": "C" 
			},
			{
				"x": 0.4913664943,
				"y": 0.4613422411,
				"z": 0.260500118,
				"element": "C" 
			},
			{
				"x": -0.8066445882,
				"y": 1.0492797425,
				"z": 0.3778605162,
				"element": "C" 
			},
			{
				"x": -1.7228990817,
				"y": 0.0897707615,
				"z": 0.0440898075,
				"element": "N" 
			},
			{
				"x": -0.9935170625,
				"y": 2.3820445288,
				"z": 0.7730874094,
				"element": "C" 
			},
			{
				"x": 0.1558044431,
				"y": 3.0990038146,
				"z": 1.0442863238,
				"element": "C" 
			},
			{
				"x": 0.0365480402,
				"y": 4.3878724353,
				"z": 1.4293794157,
				"element": "F" 
			},
			{
				"x": 1.4546381656,
				"y": 2.5635200857,
				"z": 0.9428312594,
				"element": "C" 
			},
			{
				"x": 1.6249725405,
				"y": 1.2466239709,
				"z": 0.5516449593,
				"element": "C" 
			},
			{
				"x": -1.7509528956,
				"y": -4.0263916759,
				"z": -1.2054727232,
				"element": "H" 
			},
			{
				"x": 1.0581140491,
				"y": -1.635931943,
				"z": -0.3486089632,
				"element": "H" 
			},
			{
				"x": -2.7284563167,
				"y": 0.1686698365,
				"z": 0.0209647287,
				"element": "H" 
			},
			{
				"x": -1.969914109,
				"y": 2.8434938728,
				"z": 0.8671686362,
				"element": "H" 
			},
			{
				"x": 2.2979674291,
				"y": 3.2036352823,
				"z": 1.1763886732,
				"element": "H" 
			},
			{
				"x": 2.6219322305,
				"y": 0.8241788868,
				"z": 0.4703156928,
				"element": "H" 
			}
		],
		 "valence_orbital": [ 
			{
				"type": "occ",
				"energy": -0.32185,
				"method": "rhf"
			},
			{
				"type": "occ",
				"energy": -0.29121,
				"method": "rhf"
			},
			{
				"type": "occ",
				"energy": -0.28668,
				"method": "rhf"
			},
			{
				"type": "occ",
				"energy": -0.23547,
				"method": "rhf"
			},
			{
				"type": "occ",
				"energy": -0.21877,
				"method": "rhf"
			},
			{
				"type": "unocc",
				"energy": -0.05348,
				"method": "rhf"
			},
			{
				"type": "unocc",
				"energy": 0.00474,
				"method": "rhf"
			},
			{
				"type": "unocc",
				"energy": 0.02722,
				"method": "rhf"
			},
			{
				"type": "unocc",
				"energy": 0.0741,
				"method": "rhf"
			},
			{
				"type": "unocc",
				"energy": 0.09056,
				"method": "rhf"
			}
		],
		"cosmo_sigma_profile": { 
			"-0.025": 0.0,
			"-0.024": 0.0,
			"-0.023": 0.0,
			"-0.022": 0.0,
			"-0.021": 0.0,
			"-0.02": 0.0,
			"-0.019": 0.147505799563,
			"-0.018": 1.04278610619,
			"-0.017": 0.851529324744,
			"-0.016": 0.833838193485,
			"-0.015": 1.68909111477,
			"-0.014": 1.89586861479,
			"-0.013": 1.75658980689,
			"-0.012": 1.44094319394,
			"-0.011": 1.47310151126,
			"-0.01": 1.41707724991,
			"-0.009": 1.43191336338,
			"-0.008": 3.35368803406,
			"-0.007": 6.89783600833,
			"-0.006": 9.06745761505,
			"-0.005": 7.3398232041,
			"-0.004": 8.68227924002,
			"-0.003": 8.49169336286,
			"-0.002": 9.62685755269,
			"-0.001": 9.9294637441,
			"0.0": 11.7380970618,
			"0.001": 15.3101321456,
			"0.002": 20.9135569965,
			"0.003": 22.9909093138,
			"0.004": 22.1702148306,
			"0.005": 9.54289232428,
			"0.006": 2.19502658562,
			"0.007": 2.77583042051,
			"0.008": 3.50117783394,
			"0.009": 1.54562688653,
			"0.01": 1.80576473235,
			"0.011": 3.94518108549,
			"0.012": 3.17096019559,
			"0.013": 0.142320213186,
			"0.014": 0.0,
			"0.015": 0.0,
			"0.016": 0.0,
			"0.017": 0.0,
			"0.018": 0.0,
			"0.019": 0.0,
			"0.02": 0.0,
			"0.021": 0.0,
			"0.022": 0.0,
			"0.023": 0.0,
			"0.024": 0.0,
			"0.025": 0.0
		}
	}
}
