{
	 "smiles": "COC(=O)C1=CC=CC=C1OCC1=CC=CC=C1", 
	 "Tm": 320.15, 
	 "num_atms": 32, 
	 "gaussian": { 
		 "optdone": 1, 
		 "sigma_profile": "yes", 
		 "theory": "DFT", 
		 "functional": "B3LYP", 
		 "basiset": "6-31G**", 
		 "properties": { 
			 "R2extent": 5109.0407, 
			 "electric_dipole_moment_norm": 2.44015036422, 
			 "electric_quadrupole_moment_norm": 10.6108679617, 
			 "total_energy": -805.698888807, 
			 "HOMO_LUMO_gap": 0.19993, 
			 "cosmo_polarized_energy": -10.59, 
			 "cosmo_cavitation_energy": 36.26, 
			 "cosmo_dispersion_energy": -24.96, 
			 "cosmo_repulsion_energy": 1.94, 
			 "cosmo_total_nonelectrostatic_energy": 13.24, 
			 "SMD_solvation_energy": 7.69 
		},
		"coords": [
			{
				"x": -3.2584523125,
				"y": -1.7750670855,
				"z": -1.7677780305,
				"element": "C" 
			},
			{
				"x": -2.3981147235,
				"y": -1.099487439,
				"z": -0.8368449411,
				"element": "O" 
			},
			{
				"x": -2.3971960522,
				"y": -1.6141906149,
				"z": 0.4118280809,
				"element": "C" 
			},
			{
				"x": -3.0597930365,
				"y": -2.5911863674,
				"z": 0.7102382141,
				"element": "O" 
			},
			{
				"x": -1.5151544755,
				"y": -0.8958374258,
				"z": 1.3828833948,
				"element": "C" 
			},
			{
				"x": -1.4093579593,
				"y": -1.500750364,
				"z": 2.6482869875,
				"element": "C" 
			},
			{
				"x": -0.6555606883,
				"y": -0.9323951381,
				"z": 3.6673651215,
				"element": "C" 
			},
			{
				"x": 0.0043082545,
				"y": 0.2778172643,
				"z": 3.4397554389,
				"element": "C" 
			},
			{
				"x": -0.0896377395,
				"y": 0.8986337322,
				"z": 2.1971922465,
				"element": "C" 
			},
			{
				"x": -0.8368765142,
				"y": 0.3250864352,
				"z": 1.1612002693,
				"element": "C" 
			},
			{
				"x": -0.9387501538,
				"y": 1.0248007861,
				"z": -0.0167168661,
				"element": "O" 
			},
			{
				"x": -0.0171868374,
				"y": 0.6608516388,
				"z": -1.0640312347,
				"element": "C" 
			},
			{
				"x": 1.3662066012,
				"y": 1.2404070392,
				"z": -0.8655431911,
				"element": "C" 
			},
			{
				"x": 2.4902426521,
				"y": 0.4110080921,
				"z": -0.8028496272,
				"element": "C" 
			},
			{
				"x": 3.7683456393,
				"y": 0.9525855265,
				"z": -0.6414321654,
				"element": "C" 
			},
			{
				"x": 3.9318379781,
				"y": 2.3332227668,
				"z": -0.5323250153,
				"element": "C" 
			},
			{
				"x": 2.8133609451,
				"y": 3.1710185992,
				"z": -0.5873355064,
				"element": "C" 
			},
			{
				"x": 1.5411468323,
				"y": 2.6278400589,
				"z": -0.7556123474,
				"element": "C" 
			},
			{
				"x": -2.9592815927,
				"y": -2.8198244003,
				"z": -1.8845283487,
				"element": "H" 
			},
			{
				"x": -3.1497970215,
				"y": -1.2361240971,
				"z": -2.7090119704,
				"element": "H" 
			},
			{
				"x": -4.2956558676,
				"y": -1.7445473078,
				"z": -1.4254543011,
				"element": "H" 
			},
			{
				"x": -1.9487146191,
				"y": -2.4287581932,
				"z": 2.8025002004,
				"element": "H" 
			},
			{
				"x": -0.5901793969,
				"y": -1.4223806241,
				"z": 4.6338575113,
				"element": "H" 
			},
			{
				"x": 0.5909099331,
				"y": 0.7400009326,
				"z": 4.228752334,
				"element": "H" 
			},
			{
				"x": 0.407933944,
				"y": 1.8417414525,
				"z": 2.0017922736,
				"element": "H" 
			},
			{
				"x": -0.4761979716,
				"y": 1.0608933265,
				"z": -1.9731544939,
				"element": "H" 
			},
			{
				"x": 0.0267866283,
				"y": -0.4282770671,
				"z": -1.1637339837,
				"element": "H" 
			},
			{
				"x": 2.3652324195,
				"y": -0.6663315665,
				"z": -0.8805061168,
				"element": "H" 
			},
			{
				"x": 4.6322350682,
				"y": 0.2955383774,
				"z": -0.595448483,
				"element": "H" 
			},
			{
				"x": 4.9239244675,
				"y": 2.7568706601,
				"z": -0.404578996,
				"element": "H" 
			},
			{
				"x": 2.9359019197,
				"y": 4.2473223747,
				"z": -0.5038090068,
				"element": "H" 
			},
			{
				"x": 0.6707336791,
				"y": 3.2775186276,
				"z": -0.7952574472,
				"element": "H" 
			}
		],
		 "valence_orbital": [ 
			{
				"type": "occ",
				"energy": -0.26934,
				"method": "rhf"
			},
			{
				"type": "occ",
				"energy": -0.25724,
				"method": "rhf"
			},
			{
				"type": "occ",
				"energy": -0.25328,
				"method": "rhf"
			},
			{
				"type": "occ",
				"energy": -0.24795,
				"method": "rhf"
			},
			{
				"type": "occ",
				"energy": -0.24176,
				"method": "rhf"
			},
			{
				"type": "unocc",
				"energy": -0.04183,
				"method": "rhf"
			},
			{
				"type": "unocc",
				"energy": -0.01325,
				"method": "rhf"
			},
			{
				"type": "unocc",
				"energy": -0.00472,
				"method": "rhf"
			},
			{
				"type": "unocc",
				"energy": 0.00218,
				"method": "rhf"
			},
			{
				"type": "unocc",
				"energy": 0.05979,
				"method": "rhf"
			}
		],
		"cosmo_sigma_profile": { 
			"-0.025": 0.0,
			"-0.024": 0.0,
			"-0.023": 0.0,
			"-0.022": 0.0,
			"-0.021": 0.0,
			"-0.02": 0.0,
			"-0.019": 0.0,
			"-0.018": 0.0,
			"-0.017": 0.0,
			"-0.016": 0.0,
			"-0.015": 0.0,
			"-0.014": 0.0,
			"-0.013": 0.0,
			"-0.012": 0.0,
			"-0.011": 0.0,
			"-0.01": 0.0,
			"-0.009": 0.0,
			"-0.008": 0.0,
			"-0.007": 1.59802662931,
			"-0.006": 15.9972766874,
			"-0.005": 28.3413776385,
			"-0.004": 30.8919959769,
			"-0.003": 29.7105306313,
			"-0.002": 22.3628653919,
			"-0.001": 19.2551598266,
			"0.0": 16.8480431989,
			"0.001": 19.8474758138,
			"0.002": 21.6831650826,
			"0.003": 21.7713828998,
			"0.004": 20.2370706134,
			"0.005": 12.2362961563,
			"0.006": 7.19112692772,
			"0.007": 2.63178091722,
			"0.008": 3.00001373624,
			"0.009": 3.17819895394,
			"0.01": 2.70213392752,
			"0.011": 4.00902568331,
			"0.012": 5.32717584122,
			"0.013": 0.600129000112,
			"0.014": 0.0,
			"0.015": 0.0,
			"0.016": 0.0,
			"0.017": 0.0,
			"0.018": 0.0,
			"0.019": 0.0,
			"0.02": 0.0,
			"0.021": 0.0,
			"0.022": 0.0,
			"0.023": 0.0,
			"0.024": 0.0,
			"0.025": 0.0
		}
	}
}
