{
	 "smiles": "CCCN1C(C)=C(C(=O)OCC)C2=C1C=CC(O)=C2", 
	 "Tm": 453.15, 
	 "num_atms": 38, 
	 "gaussian": { 
		 "optdone": 1, 
		 "sigma_profile": "yes", 
		 "theory": "DFT", 
		 "functional": "B3LYP", 
		 "basiset": "6-31G**", 
		 "properties": { 
			 "R2extent": 6645.065, 
			 "electric_dipole_moment_norm": 1.92343734236, 
			 "electric_quadrupole_moment_norm": 25.1301070722, 
			 "total_energy": -863.513922131, 
			 "HOMO_LUMO_gap": 0.17782, 
			 "cosmo_polarized_energy": -14.66, 
			 "cosmo_cavitation_energy": 40.36, 
			 "cosmo_dispersion_energy": -28.21, 
			 "cosmo_repulsion_energy": 2.19, 
			 "cosmo_total_nonelectrostatic_energy": 14.34, 
			 "SMD_solvation_energy": 7.63 
		},
		"coords": [
			{
				"x": -4.9093651957,
				"y": -2.8000350791,
				"z": 1.6007489898,
				"element": "C" 
			},
			{
				"x": -3.6000125048,
				"y": -2.0666194245,
				"z": 1.2960247654,
				"element": "C" 
			},
			{
				"x": -3.7978138713,
				"y": -0.9308736543,
				"z": 0.280411991,
				"element": "C" 
			},
			{
				"x": -2.5642333217,
				"y": -0.2335629204,
				"z": -0.0599370589,
				"element": "N" 
			},
			{
				"x": -2.0910571136,
				"y": 0.9167967301,
				"z": 0.5230024967,
				"element": "C" 
			},
			{
				"x": -2.8735474698,
				"y": 1.6397962791,
				"z": 1.572071974,
				"element": "C" 
			},
			{
				"x": -0.8501963308,
				"y": 1.2340070727,
				"z": -0.0339404884,
				"element": "C" 
			},
			{
				"x": -0.0517705472,
				"y": 2.3987926321,
				"z": 0.3393884741,
				"element": "C" 
			},
			{
				"x": -0.3494637452,
				"y": 3.2457071295,
				"z": 1.1710419643,
				"element": "O" 
			},
			{
				"x": 1.1158168915,
				"y": 2.4583363073,
				"z": -0.3634931485,
				"element": "O" 
			},
			{
				"x": 1.9856195677,
				"y": 3.5715172231,
				"z": -0.0663019644,
				"element": "C" 
			},
			{
				"x": 2.8793825575,
				"y": 3.278079307,
				"z": 1.1304624694,
				"element": "C" 
			},
			{
				"x": -0.5461182053,
				"y": 0.2110845119,
				"z": -1.0114964942,
				"element": "C" 
			},
			{
				"x": -1.6368810183,
				"y": -0.6911137615,
				"z": -0.9969545266,
				"element": "C" 
			},
			{
				"x": -1.6840456724,
				"y": -1.8147084114,
				"z": -1.8271505036,
				"element": "C" 
			},
			{
				"x": -0.6184456279,
				"y": -2.0356039639,
				"z": -2.6898611979,
				"element": "C" 
			},
			{
				"x": 0.4752319462,
				"y": -1.1467291809,
				"z": -2.7175495904,
				"element": "C" 
			},
			{
				"x": 1.4810329204,
				"y": -1.4481836442,
				"z": -3.6007355752,
				"element": "O" 
			},
			{
				"x": 0.5232852194,
				"y": -0.0283270346,
				"z": -1.8903954627,
				"element": "C" 
			},
			{
				"x": -5.3353957254,
				"y": -3.2491113112,
				"z": 0.6963660462,
				"element": "H" 
			},
			{
				"x": -4.7497545534,
				"y": -3.6036432054,
				"z": 2.3255440028,
				"element": "H" 
			},
			{
				"x": -5.6608637963,
				"y": -2.1206292882,
				"z": 2.0188385377,
				"element": "H" 
			},
			{
				"x": -3.1769494159,
				"y": -1.6497352007,
				"z": 2.2178887949,
				"element": "H" 
			},
			{
				"x": -2.8549012162,
				"y": -2.7683093541,
				"z": 0.9040056915,
				"element": "H" 
			},
			{
				"x": -4.2272763825,
				"y": -1.3251860936,
				"z": -0.6475276343,
				"element": "H" 
			},
			{
				"x": -4.5110446179,
				"y": -0.1982236921,
				"z": 0.6678640415,
				"element": "H" 
			},
			{
				"x": -3.8335008904,
				"y": 1.9966295858,
				"z": 1.1779875272,
				"element": "H" 
			},
			{
				"x": -3.0916267312,
				"y": 0.9927377216,
				"z": 2.4300229618,
				"element": "H" 
			},
			{
				"x": -2.2986635963,
				"y": 2.4990139723,
				"z": 1.9129694872,
				"element": "H" 
			},
			{
				"x": 1.376776351,
				"y": 4.4612705067,
				"z": 0.1098875421,
				"element": "H" 
			},
			{
				"x": 2.5733490759,
				"y": 3.7098388438,
				"z": -0.9778120287,
				"element": "H" 
			},
			{
				"x": 2.2779382865,
				"y": 3.1643405128,
				"z": 2.0353438106,
				"element": "H" 
			},
			{
				"x": 3.4565145487,
				"y": 2.3621502375,
				"z": 0.9712547718,
				"element": "H" 
			},
			{
				"x": 3.581353597,
				"y": 4.1047766708,
				"z": 1.2845781613,
				"element": "H" 
			},
			{
				"x": -2.5224225214,
				"y": -2.5039930586,
				"z": -1.8078842635,
				"element": "H" 
			},
			{
				"x": -0.605184331,
				"y": -2.8923132702,
				"z": -3.3548121039,
				"element": "H" 
			},
			{
				"x": 2.1665682958,
				"y": -0.7717725012,
				"z": -3.5286745411,
				"element": "H" 
			},
			{
				"x": 1.3680651444,
				"y": 0.651498806,
				"z": -1.9169779189,
				"element": "H" 
			}
		],
		 "valence_orbital": [ 
			{
				"type": "occ",
				"energy": -0.28376,
				"method": "rhf"
			},
			{
				"type": "occ",
				"energy": -0.2689,
				"method": "rhf"
			},
			{
				"type": "occ",
				"energy": -0.25737,
				"method": "rhf"
			},
			{
				"type": "occ",
				"energy": -0.2045,
				"method": "rhf"
			},
			{
				"type": "occ",
				"energy": -0.19728,
				"method": "rhf"
			},
			{
				"type": "unocc",
				"energy": -0.01946,
				"method": "rhf"
			},
			{
				"type": "unocc",
				"energy": 0.00758,
				"method": "rhf"
			},
			{
				"type": "unocc",
				"energy": 0.03859,
				"method": "rhf"
			},
			{
				"type": "unocc",
				"energy": 0.06987,
				"method": "rhf"
			},
			{
				"type": "unocc",
				"energy": 0.0812,
				"method": "rhf"
			}
		],
		"cosmo_sigma_profile": { 
			"-0.025": 0.0,
			"-0.024": 0.0,
			"-0.023": 0.0,
			"-0.022": 0.0,
			"-0.021": 0.0,
			"-0.02": 0.0,
			"-0.019": 0.0,
			"-0.018": 0.0,
			"-0.017": 0.83421041433,
			"-0.016": 0.907922920532,
			"-0.015": 1.10882003345,
			"-0.014": 1.2261463797,
			"-0.013": 0.952278913202,
			"-0.012": 0.501229572945,
			"-0.011": 0.280515358939,
			"-0.01": 0.739226096906,
			"-0.009": 2.37232452701,
			"-0.008": 0.849431206152,
			"-0.007": 1.86754919213,
			"-0.006": 8.20128747345,
			"-0.005": 18.2778934097,
			"-0.004": 25.679975996,
			"-0.003": 35.1394712904,
			"-0.002": 29.611000495,
			"-0.001": 29.7283004476,
			"0.0": 34.6718814788,
			"0.001": 24.3212386556,
			"0.002": 13.4021888732,
			"0.003": 13.5479928338,
			"0.004": 16.8101288351,
			"0.005": 20.5661271016,
			"0.006": 13.3322143269,
			"0.007": 3.21001663925,
			"0.008": 3.88886382068,
			"0.009": 2.48277677899,
			"0.01": 3.10361246237,
			"0.011": 4.05852103415,
			"0.012": 4.101933738,
			"0.013": 1.97338294774,
			"0.014": 0.0362980883403,
			"0.015": 0.0,
			"0.016": 0.0,
			"0.017": 0.0,
			"0.018": 0.0,
			"0.019": 0.0,
			"0.02": 0.0,
			"0.021": 0.0,
			"0.022": 0.0,
			"0.023": 0.0,
			"0.024": 0.0,
			"0.025": 0.0
		}
	}
}
