{
	 "smiles": "CC1=C(C=CO1)C1=NN=C(S)N1C1=CC=CC=C1", 
	 "Tm": 508.15, 
	 "num_atms": 29, 
	 "gaussian": { 
		 "optdone": 1, 
		 "sigma_profile": "yes", 
		 "theory": "DFT", 
		 "functional": "B3LYP", 
		 "basiset": "6-31G**", 
		 "properties": { 
			 "R2extent": 4832.6242, 
			 "electric_dipole_moment_norm": 6.65147215434, 
			 "electric_quadrupole_moment_norm": 10.672570509, 
			 "total_energy": -1139.62674655, 
			 "HOMO_LUMO_gap": 0.1813, 
			 "cosmo_polarized_energy": -17.85, 
			 "cosmo_cavitation_energy": 35.12, 
			 "cosmo_dispersion_energy": -24.37, 
			 "cosmo_repulsion_energy": 1.84, 
			 "cosmo_total_nonelectrostatic_energy": 12.59, 
			 "SMD_solvation_energy": 4.39 
		},
		"coords": [
			{
				"x": 0.6812545929,
				"y": -2.708705849,
				"z": 1.6673856867,
				"element": "C" 
			},
			{
				"x": 1.2442849497,
				"y": -2.8824394071,
				"z": 0.299955257,
				"element": "C" 
			},
			{
				"x": 1.5583651195,
				"y": -2.02993273,
				"z": -0.7318769625,
				"element": "C" 
			},
			{
				"x": 2.1440033001,
				"y": -2.8451082621,
				"z": -1.7680458114,
				"element": "C" 
			},
			{
				"x": 2.1234978982,
				"y": -4.1181491991,
				"z": -1.3048344802,
				"element": "C" 
			},
			{
				"x": 1.5783684816,
				"y": -4.1573752002,
				"z": -0.0505132918,
				"element": "O" 
			},
			{
				"x": 1.4308144121,
				"y": -0.5786774585,
				"z": -0.8267938592,
				"element": "C" 
			},
			{
				"x": 2.3549735735,
				"y": 0.1989603926,
				"z": -1.3553171851,
				"element": "N" 
			},
			{
				"x": 1.8830840818,
				"y": 1.4892272515,
				"z": -1.3575362419,
				"element": "N" 
			},
			{
				"x": 0.6884053409,
				"y": 1.4757151058,
				"z": -0.8188682486,
				"element": "C" 
			},
			{
				"x": -0.2575407147,
				"y": 2.9401129685,
				"z": -0.5292762146,
				"element": "S" 
			},
			{
				"x": 0.3357287124,
				"y": 0.1859885536,
				"z": -0.4453471968,
				"element": "N" 
			},
			{
				"x": -0.9359571946,
				"y": -0.2585744256,
				"z": 0.0379853236,
				"element": "C" 
			},
			{
				"x": -1.4167534957,
				"y": 0.206930104,
				"z": 1.2661013053,
				"element": "C" 
			},
			{
				"x": -2.662625357,
				"y": -0.2221917576,
				"z": 1.7238524663,
				"element": "C" 
			},
			{
				"x": -3.4189669901,
				"y": -1.1209411227,
				"z": 0.9684934338,
				"element": "C" 
			},
			{
				"x": -2.9304307495,
				"y": -1.5858547276,
				"z": -0.2546667426,
				"element": "C" 
			},
			{
				"x": -1.6925964804,
				"y": -1.1506358169,
				"z": -0.7286531359,
				"element": "C" 
			},
			{
				"x": -0.384462544,
				"y": -2.9632840219,
				"z": 1.7086790274,
				"element": "H" 
			},
			{
				"x": 1.2093294172,
				"y": -3.3569659983,
				"z": 2.3730400837,
				"element": "H" 
			},
			{
				"x": 0.7918148256,
				"y": -1.6746546628,
				"z": 1.9978641204,
				"element": "H" 
			},
			{
				"x": 2.5221002068,
				"y": -2.4896614446,
				"z": -2.7146811939,
				"element": "H" 
			},
			{
				"x": 2.4423055657,
				"y": -5.0661490686,
				"z": -1.7085481482,
				"element": "H" 
			},
			{
				"x": -1.4133441356,
				"y": 2.4931695776,
				"z": -1.0649812206,
				"element": "H" 
			},
			{
				"x": -0.8177875373,
				"y": 0.8979070764,
				"z": 1.8489451877,
				"element": "H" 
			},
			{
				"x": -3.0374406953,
				"y": 0.1417551787,
				"z": 2.6756189636,
				"element": "H" 
			},
			{
				"x": -4.3856816302,
				"y": -1.457177486,
				"z": 1.3309205475,
				"element": "H" 
			},
			{
				"x": -3.5157837104,
				"y": -2.2822619446,
				"z": -0.8472905896,
				"element": "H" 
			},
			{
				"x": -1.3079592432,
				"y": -1.4988256254,
				"z": -1.68121088,
				"element": "H" 
			}
		],
		 "valence_orbital": [ 
			{
				"type": "occ",
				"energy": -0.27598,
				"method": "rhf"
			},
			{
				"type": "occ",
				"energy": -0.26662,
				"method": "rhf"
			},
			{
				"type": "occ",
				"energy": -0.24827,
				"method": "rhf"
			},
			{
				"type": "occ",
				"energy": -0.24171,
				"method": "rhf"
			},
			{
				"type": "occ",
				"energy": -0.21909,
				"method": "rhf"
			},
			{
				"type": "unocc",
				"energy": -0.03779,
				"method": "rhf"
			},
			{
				"type": "unocc",
				"energy": -0.02796,
				"method": "rhf"
			},
			{
				"type": "unocc",
				"energy": -0.01214,
				"method": "rhf"
			},
			{
				"type": "unocc",
				"energy": 0.01208,
				"method": "rhf"
			},
			{
				"type": "unocc",
				"energy": 0.02824,
				"method": "rhf"
			}
		],
		"cosmo_sigma_profile": { 
			"-0.025": 0.0,
			"-0.024": 0.0,
			"-0.023": 0.0,
			"-0.022": 0.0,
			"-0.021": 0.0,
			"-0.02": 0.0,
			"-0.019": 0.0,
			"-0.018": 0.0,
			"-0.017": 0.0,
			"-0.016": 0.0,
			"-0.015": 0.0,
			"-0.014": 0.0,
			"-0.013": 0.0,
			"-0.012": 0.674829019657,
			"-0.011": 1.68593908058,
			"-0.01": 1.91148716426,
			"-0.009": 3.5356730013,
			"-0.008": 2.9469174581,
			"-0.007": 8.85226782946,
			"-0.006": 17.9302003563,
			"-0.005": 23.4745422304,
			"-0.004": 20.6016043838,
			"-0.003": 18.566064343,
			"-0.002": 22.2743065915,
			"-0.001": 20.5008985193,
			"0.0": 20.2996897227,
			"0.001": 21.300385827,
			"0.002": 23.4105537813,
			"0.003": 18.250087704,
			"0.004": 12.9042244387,
			"0.005": 8.23209945418,
			"0.006": 5.96324183879,
			"0.007": 5.0854266066,
			"0.008": 4.30051005155,
			"0.009": 2.10592518743,
			"0.01": 3.51595142859,
			"0.011": 2.4296637085,
			"0.012": 2.0030481668,
			"0.013": 4.42263636841,
			"0.014": 2.36240604572,
			"0.015": 2.57675456646,
			"0.016": 1.82805620294,
			"0.017": 0.335015099789,
			"0.018": 0.0,
			"0.019": 0.0,
			"0.02": 0.0,
			"0.021": 0.0,
			"0.022": 0.0,
			"0.023": 0.0,
			"0.024": 0.0,
			"0.025": 0.0
		}
	}
}
