{
	 "smiles": "CCCCP(=O)(CCCC)CCCC", 
	 "Tm": 338.65, 
	 "num_atms": 41, 
	 "gaussian": { 
		 "optdone": 1, 
		 "sigma_profile": "yes", 
		 "theory": "DFT", 
		 "functional": "B3LYP", 
		 "basiset": "6-31G**", 
		 "properties": { 
			 "R2extent": 4862.0665, 
			 "electric_dipole_moment_norm": 3.99350867409, 
			 "electric_quadrupole_moment_norm": 12.2133952638, 
			 "total_energy": -890.189878625, 
			 "HOMO_LUMO_gap": 0.30381, 
			 "cosmo_polarized_energy": -13.58, 
			 "cosmo_cavitation_energy": 41.35, 
			 "cosmo_dispersion_energy": -27.45, 
			 "cosmo_repulsion_energy": 2.22, 
			 "cosmo_total_nonelectrostatic_energy": 16.12, 
			 "SMD_solvation_energy": 7.01 
		},
		"coords": [
			{
				"x": 1.1283963866,
				"y": 1.3552581318,
				"z": -3.5962420347,
				"element": "C" 
			},
			{
				"x": -0.0753675085,
				"y": 2.1237103984,
				"z": -3.039129576,
				"element": "C" 
			},
			{
				"x": -0.2507477761,
				"y": 2.0189798832,
				"z": -1.5147077077,
				"element": "C" 
			},
			{
				"x": -0.5686375256,
				"y": 0.5976951521,
				"z": -1.0197701673,
				"element": "C" 
			},
			{
				"x": -1.0164366048,
				"y": 0.5429070025,
				"z": 0.7693408899,
				"element": "P" 
			},
			{
				"x": -2.1398496382,
				"y": 1.4780339394,
				"z": 1.1375800338,
				"element": "O" 
			},
			{
				"x": 0.5377984175,
				"y": 0.9205289734,
				"z": 1.6899058116,
				"element": "C" 
			},
			{
				"x": 1.7711664405,
				"y": 0.0454879146,
				"z": 1.4154733057,
				"element": "C" 
			},
			{
				"x": 2.9797767244,
				"y": 0.4393049865,
				"z": 2.2779931569,
				"element": "C" 
			},
			{
				"x": 4.2168187778,
				"y": -0.4228616164,
				"z": 2.0079768797,
				"element": "C" 
			},
			{
				"x": -1.3569028367,
				"y": -1.2360999431,
				"z": 1.1539994344,
				"element": "C" 
			},
			{
				"x": -2.8293018757,
				"y": -1.6872829643,
				"z": 1.0544052905,
				"element": "C" 
			},
			{
				"x": -3.4376464057,
				"y": -1.7309581862,
				"z": -0.3672452798,
				"element": "C" 
			},
			{
				"x": -4.2706834242,
				"y": -0.4952030026,
				"z": -0.7368450291,
				"element": "C" 
			},
			{
				"x": 1.2289970771,
				"y": 1.5098681113,
				"z": -4.6754271425,
				"element": "H" 
			},
			{
				"x": 1.0389051746,
				"y": 0.2765146465,
				"z": -3.4291262385,
				"element": "H" 
			},
			{
				"x": 2.0614207039,
				"y": 1.687815447,
				"z": -3.1258161008,
				"element": "H" 
			},
			{
				"x": 0.0248085028,
				"y": 3.184297379,
				"z": -3.3023709685,
				"element": "H" 
			},
			{
				"x": -0.9936145603,
				"y": 1.7747164008,
				"z": -3.530624812,
				"element": "H" 
			},
			{
				"x": -1.0611761859,
				"y": 2.6840976609,
				"z": -1.1966150399,
				"element": "H" 
			},
			{
				"x": 0.6613135877,
				"y": 2.3861042898,
				"z": -1.0240875999,
				"element": "H" 
			},
			{
				"x": 0.2641815593,
				"y": -0.0915936132,
				"z": -1.2027261141,
				"element": "H" 
			},
			{
				"x": -1.4334069898,
				"y": 0.2015120605,
				"z": -1.5656196061,
				"element": "H" 
			},
			{
				"x": 0.7618821318,
				"y": 1.9747415601,
				"z": 1.4864967886,
				"element": "H" 
			},
			{
				"x": 0.2610909696,
				"y": 0.8724242967,
				"z": 2.7509672106,
				"element": "H" 
			},
			{
				"x": 1.5327513643,
				"y": -1.0106677332,
				"z": 1.5984820463,
				"element": "H" 
			},
			{
				"x": 2.0527503629,
				"y": 0.1166675848,
				"z": 0.35658045,
				"element": "H" 
			},
			{
				"x": 3.2202856575,
				"y": 1.4957278193,
				"z": 2.0989602324,
				"element": "H" 
			},
			{
				"x": 2.703795455,
				"y": 0.3664593071,
				"z": 3.3383837119,
				"element": "H" 
			},
			{
				"x": 4.0157274055,
				"y": -1.480892574,
				"z": 2.211399264,
				"element": "H" 
			},
			{
				"x": 4.53663043,
				"y": -0.3424734503,
				"z": 0.9627519515,
				"element": "H" 
			},
			{
				"x": 5.0594004264,
				"y": -0.118460088,
				"z": 2.6370160763,
				"element": "H" 
			},
			{
				"x": -1.0160298298,
				"y": -1.3839874404,
				"z": 2.1867268258,
				"element": "H" 
			},
			{
				"x": -0.7183620176,
				"y": -1.8676452686,
				"z": 0.5228737436,
				"element": "H" 
			},
			{
				"x": -3.4390964451,
				"y": -1.0384234086,
				"z": 1.6929829909,
				"element": "H" 
			},
			{
				"x": -2.8773221728,
				"y": -2.6898421997,
				"z": 1.4966373337,
				"element": "H" 
			},
			{
				"x": -4.0781741181,
				"y": -2.617636292,
				"z": -0.4495546178,
				"element": "H" 
			},
			{
				"x": -2.6376174492,
				"y": -1.8832923457,
				"z": -1.1050583271,
				"element": "H" 
			},
			{
				"x": -4.6037403072,
				"y": -0.5409186922,
				"z": -1.7797297741,
				"element": "H" 
			},
			{
				"x": -5.1648926817,
				"y": -0.4379480395,
				"z": -0.1061793521,
				"element": "H" 
			},
			{
				"x": -3.7181912023,
				"y": 0.4354339123,
				"z": -0.5817579402,
				"element": "H" 
			}
		],
		 "valence_orbital": [ 
			{
				"type": "occ",
				"energy": -0.32225,
				"method": "rhf"
			},
			{
				"type": "occ",
				"energy": -0.31463,
				"method": "rhf"
			},
			{
				"type": "occ",
				"energy": -0.30877,
				"method": "rhf"
			},
			{
				"type": "occ",
				"energy": -0.24553,
				"method": "rhf"
			},
			{
				"type": "occ",
				"energy": -0.24325,
				"method": "rhf"
			},
			{
				"type": "unocc",
				"energy": 0.06056,
				"method": "rhf"
			},
			{
				"type": "unocc",
				"energy": 0.06931,
				"method": "rhf"
			},
			{
				"type": "unocc",
				"energy": 0.08679,
				"method": "rhf"
			},
			{
				"type": "unocc",
				"energy": 0.09194,
				"method": "rhf"
			},
			{
				"type": "unocc",
				"energy": 0.09969,
				"method": "rhf"
			}
		],
		"cosmo_sigma_profile": { 
			"-0.025": 0.0,
			"-0.024": 0.0,
			"-0.023": 0.0,
			"-0.022": 0.0,
			"-0.021": 0.0,
			"-0.02": 0.0,
			"-0.019": 0.0,
			"-0.018": 0.0,
			"-0.017": 0.0,
			"-0.016": 0.0,
			"-0.015": 0.0,
			"-0.014": 0.0,
			"-0.013": 0.0,
			"-0.012": 0.0,
			"-0.011": 0.0,
			"-0.01": 0.0,
			"-0.009": 0.0,
			"-0.008": 0.0,
			"-0.007": 0.120115717168,
			"-0.006": 2.02887879779,
			"-0.005": 8.61555017372,
			"-0.004": 16.3708321279,
			"-0.003": 36.1793358338,
			"-0.002": 56.0748310709,
			"-0.001": 56.9570813143,
			"0.0": 50.5870181576,
			"0.001": 41.9812227915,
			"0.002": 16.4109414838,
			"0.003": 3.30385371993,
			"0.004": 2.21835100705,
			"0.005": 1.30330683699,
			"0.006": 1.48392658955,
			"0.007": 1.22436191414,
			"0.008": 2.55302649012,
			"0.009": 1.45556759843,
			"0.01": 1.97449216813,
			"0.011": 1.52256299953,
			"0.012": 1.0709332664,
			"0.013": 1.035188588,
			"0.014": 1.50678040001,
			"0.015": 1.42820771323,
			"0.016": 2.38991946639,
			"0.017": 4.19318846839,
			"0.018": 1.99088445063,
			"0.019": 0.00182941864079,
			"0.02": 0.0,
			"0.021": 0.0,
			"0.022": 0.0,
			"0.023": 0.0,
			"0.024": 0.0,
			"0.025": 0.0
		}
	}
}
