{
	 "smiles": "OC(=O)C1=C(O)C=C2CCCCC2=C1", 
	 "Tm": 444.15, 
	 "num_atms": 26, 
	 "gaussian": { 
		 "optdone": 1, 
		 "sigma_profile": "yes", 
		 "theory": "DFT", 
		 "functional": "B3LYP", 
		 "basiset": "6-31G**", 
		 "properties": { 
			 "R2extent": 3292.8584, 
			 "electric_dipole_moment_norm": 6.97391495575, 
			 "electric_quadrupole_moment_norm": 26.2411258061, 
			 "total_energy": -652.102259795, 
			 "HOMO_LUMO_gap": 0.19527, 
			 "cosmo_polarized_energy": -16.91, 
			 "cosmo_cavitation_energy": 28.2, 
			 "cosmo_dispersion_energy": -21.39, 
			 "cosmo_repulsion_energy": 1.68, 
			 "cosmo_total_nonelectrostatic_energy": 8.49, 
			 "SMD_solvation_energy": 5.39 
		},
		"coords": [
			{
				"x": -3.0814903375,
				"y": -1.2779240807,
				"z": 3.0102930941,
				"element": "O" 
			},
			{
				"x": -1.7825709543,
				"y": -0.9369387787,
				"z": 2.8875794224,
				"element": "C" 
			},
			{
				"x": -1.0910734511,
				"y": -0.8041744677,
				"z": 3.8747671292,
				"element": "O" 
			},
			{
				"x": -1.2321600838,
				"y": -0.7306651168,
				"z": 1.5014174695,
				"element": "C" 
			},
			{
				"x": -1.9572734132,
				"y": -0.8576867344,
				"z": 0.3034117118,
				"element": "C" 
			},
			{
				"x": -3.2895922026,
				"y": -1.2043873955,
				"z": 0.374796846,
				"element": "O" 
			},
			{
				"x": -1.3453807138,
				"y": -0.633797619,
				"z": -0.9315368762,
				"element": "C" 
			},
			{
				"x": 0.0031331704,
				"y": -0.2880973101,
				"z": -0.9998533457,
				"element": "C" 
			},
			{
				"x": 0.7273553649,
				"y": -0.0296049975,
				"z": -2.2963690505,
				"element": "C" 
			},
			{
				"x": 1.5395820321,
				"y": 1.2858955837,
				"z": -2.2283124747,
				"element": "C" 
			},
			{
				"x": 2.3644862993,
				"y": 1.4326506453,
				"z": -0.9157714408,
				"element": "C" 
			},
			{
				"x": 2.2017875232,
				"y": 0.2306682049,
				"z": 0.0438336767,
				"element": "C" 
			},
			{
				"x": 0.7503491033,
				"y": -0.1568527577,
				"z": 0.1873742388,
				"element": "C" 
			},
			{
				"x": 0.1227485503,
				"y": -0.3744785039,
				"z": 1.4082063349,
				"element": "C" 
			},
			{
				"x": -3.499929616,
				"y": -1.3436707379,
				"z": 2.1337456978,
				"element": "H" 
			},
			{
				"x": -3.6732890181,
				"y": -1.2551290629,
				"z": -0.5094773434,
				"element": "H" 
			},
			{
				"x": -1.9291118028,
				"y": -0.7311998194,
				"z": -1.8458749785,
				"element": "H" 
			},
			{
				"x": 1.417225624,
				"y": -0.8644425339,
				"z": -2.4877090111,
				"element": "H" 
			},
			{
				"x": 0.0305697795,
				"y": -0.0049754058,
				"z": -3.1407679477,
				"element": "H" 
			},
			{
				"x": 0.8409305173,
				"y": 2.1247054237,
				"z": -2.3146852018,
				"element": "H" 
			},
			{
				"x": 2.1956753051,
				"y": 1.3403349945,
				"z": -3.1032996814,
				"element": "H" 
			},
			{
				"x": 2.0463579385,
				"y": 2.3380266674,
				"z": -0.3885438323,
				"element": "H" 
			},
			{
				"x": 3.4268985382,
				"y": 1.5660427195,
				"z": -1.1450627002,
				"element": "H" 
			},
			{
				"x": 2.7684665075,
				"y": -0.6238145531,
				"z": -0.3545981786,
				"element": "H" 
			},
			{
				"x": 2.6396455606,
				"y": 0.4613840311,
				"z": 1.0199543079,
				"element": "H" 
			},
			{
				"x": 0.6662597788,
				"y": -0.2750683952,
				"z": 2.3425821338,
				"element": "H" 
			}
		],
		 "valence_orbital": [ 
			{
				"type": "occ",
				"energy": -0.31718,
				"method": "rhf"
			},
			{
				"type": "occ",
				"energy": -0.29397,
				"method": "rhf"
			},
			{
				"type": "occ",
				"energy": -0.25729,
				"method": "rhf"
			},
			{
				"type": "occ",
				"energy": -0.25693,
				"method": "rhf"
			},
			{
				"type": "occ",
				"energy": -0.23478,
				"method": "rhf"
			},
			{
				"type": "unocc",
				"energy": -0.03951,
				"method": "rhf"
			},
			{
				"type": "unocc",
				"energy": -0.00339,
				"method": "rhf"
			},
			{
				"type": "unocc",
				"energy": 0.04241,
				"method": "rhf"
			},
			{
				"type": "unocc",
				"energy": 0.06205,
				"method": "rhf"
			},
			{
				"type": "unocc",
				"energy": 0.07638,
				"method": "rhf"
			}
		],
		"cosmo_sigma_profile": { 
			"-0.025": 0.0,
			"-0.024": 0.0,
			"-0.023": 0.0,
			"-0.022": 0.0,
			"-0.021": 0.0,
			"-0.02": 0.0656125166014,
			"-0.019": 0.788293488449,
			"-0.018": 1.22557761417,
			"-0.017": 1.42135700782,
			"-0.016": 0.684561527798,
			"-0.015": 1.06875081628,
			"-0.014": 0.758141608004,
			"-0.013": 1.31801233694,
			"-0.012": 0.77474398913,
			"-0.011": 0.857030760945,
			"-0.01": 1.26550568535,
			"-0.009": 1.40270583145,
			"-0.008": 1.78325469974,
			"-0.007": 2.25952017459,
			"-0.006": 3.225131138,
			"-0.005": 5.06283304977,
			"-0.004": 14.0319501113,
			"-0.003": 20.9473532329,
			"-0.002": 28.591342628,
			"-0.001": 28.1100474336,
			"0.0": 21.8181518547,
			"0.001": 18.0876238532,
			"0.002": 11.8607509027,
			"0.003": 12.4566065421,
			"0.004": 10.3959195466,
			"0.005": 2.4497706154,
			"0.006": 3.02631505791,
			"0.007": 2.2468189575,
			"0.008": 1.88417058782,
			"0.009": 2.81244384399,
			"0.01": 3.58779001631,
			"0.011": 3.68571268708,
			"0.012": 6.848416351,
			"0.013": 3.9524736336,
			"0.014": 1.39206933017,
			"0.015": 0.0177028449709,
			"0.016": 0.0,
			"0.017": 0.0,
			"0.018": 0.0,
			"0.019": 0.0,
			"0.02": 0.0,
			"0.021": 0.0,
			"0.022": 0.0,
			"0.023": 0.0,
			"0.024": 0.0,
			"0.025": 0.0
		}
	}
}
