{
	 "smiles": "CCN(CC)S(=O)(=O)C1=CC(N)=C(C)C(C)=C1", 
	 "Tm": 421.15, 
	 "num_atms": 37, 
	 "gaussian": { 
		 "optdone": 1, 
		 "sigma_profile": "yes", 
		 "theory": "DFT", 
		 "functional": "B3LYP", 
		 "basiset": "6-31G**", 
		 "properties": { 
			 "R2extent": 5796.3567, 
			 "electric_dipole_moment_norm": 5.86280047929, 
			 "electric_quadrupole_moment_norm": 18.1131577189, 
			 "total_energy": -1127.42127726, 
			 "HOMO_LUMO_gap": 0.18756, 
			 "cosmo_polarized_energy": -17.67, 
			 "cosmo_cavitation_energy": 39.23, 
			 "cosmo_dispersion_energy": -27.31, 
			 "cosmo_repulsion_energy": 2.1, 
			 "cosmo_total_nonelectrostatic_energy": 14.02, 
			 "SMD_solvation_energy": 5.47 
		},
		"coords": [
			{
				"x": -4.4849387808,
				"y": -0.2240160942,
				"z": 3.1739519596,
				"element": "C" 
			},
			{
				"x": -3.5792443742,
				"y": -1.0130691869,
				"z": 2.2219387442,
				"element": "C" 
			},
			{
				"x": -2.3099892397,
				"y": -0.3554248524,
				"z": 1.8417733885,
				"element": "N" 
			},
			{
				"x": -1.3519672333,
				"y": -0.0527553953,
				"z": 2.9237458917,
				"element": "C" 
			},
			{
				"x": -0.8088571484,
				"y": -1.323523782,
				"z": 3.5770877243,
				"element": "C" 
			},
			{
				"x": -2.467880254,
				"y": 0.8916789961,
				"z": 0.6965346622,
				"element": "S" 
			},
			{
				"x": -2.4924124056,
				"y": 2.2131133659,
				"z": 1.3462348474,
				"element": "O" 
			},
			{
				"x": -3.5692117846,
				"y": 0.4946940225,
				"z": -0.189269291,
				"element": "O" 
			},
			{
				"x": -0.9145598899,
				"y": 0.7619195827,
				"z": -0.195424273,
				"element": "C" 
			},
			{
				"x": -0.0852574003,
				"y": 1.8741693936,
				"z": -0.2456024562,
				"element": "C" 
			},
			{
				"x": 1.1029336918,
				"y": 1.808024374,
				"z": -0.9899762893,
				"element": "C" 
			},
			{
				"x": 1.9161620312,
				"y": 2.9380687692,
				"z": -1.0935680598,
				"element": "N" 
			},
			{
				"x": 1.4425945385,
				"y": 0.6212241281,
				"z": -1.6803909135,
				"element": "C" 
			},
			{
				"x": 2.7185485839,
				"y": 0.6063339891,
				"z": -2.4875338059,
				"element": "C" 
			},
			{
				"x": 0.5855075833,
				"y": -0.4958601981,
				"z": -1.6059783869,
				"element": "C" 
			},
			{
				"x": 0.9125377776,
				"y": -1.7873178019,
				"z": -2.3244020301,
				"element": "C" 
			},
			{
				"x": -0.5971234441,
				"y": -0.419637871,
				"z": -0.8632208964,
				"element": "C" 
			},
			{
				"x": -4.7900012343,
				"y": 0.7271502702,
				"z": 2.7291265032,
				"element": "H" 
			},
			{
				"x": -5.3885477416,
				"y": -0.8050505176,
				"z": 3.3871907538,
				"element": "H" 
			},
			{
				"x": -3.9955976921,
				"y": -0.0119871929,
				"z": 4.1298236834,
				"element": "H" 
			},
			{
				"x": -4.1104631446,
				"y": -1.2293935726,
				"z": 1.2939230675,
				"element": "H" 
			},
			{
				"x": -3.305387468,
				"y": -1.9756294674,
				"z": 2.6656521701,
				"element": "H" 
			},
			{
				"x": -1.7944309761,
				"y": 0.612677061,
				"z": 3.6768630145,
				"element": "H" 
			},
			{
				"x": -0.5191867189,
				"y": 0.4955966558,
				"z": 2.4743717157,
				"element": "H" 
			},
			{
				"x": -0.3774011062,
				"y": -1.9904774468,
				"z": 2.8249069359,
				"element": "H" 
			},
			{
				"x": -1.5817389688,
				"y": -1.8734698436,
				"z": 4.1219939444,
				"element": "H" 
			},
			{
				"x": -0.0270824629,
				"y": -1.0602161786,
				"z": 4.296710538,
				"element": "H" 
			},
			{
				"x": -0.3670137836,
				"y": 2.7789644731,
				"z": 0.2831712401,
				"element": "H" 
			},
			{
				"x": 2.9047145509,
				"y": 2.7657982629,
				"z": -1.2076824365,
				"element": "H" 
			},
			{
				"x": 1.7330775444,
				"y": 3.6576274823,
				"z": -0.4081599055,
				"element": "H" 
			},
			{
				"x": 3.6089588099,
				"y": 0.6591405316,
				"z": -1.8436013725,
				"element": "H" 
			},
			{
				"x": 2.7606449113,
				"y": 1.4699730619,
				"z": -3.1622657482,
				"element": "H" 
			},
			{
				"x": 2.8180061112,
				"y": -0.2944007702,
				"z": -3.0929192964,
				"element": "H" 
			},
			{
				"x": 0.9675957984,
				"y": -1.6469264428,
				"z": -3.4101329686,
				"element": "H" 
			},
			{
				"x": 1.8744073144,
				"y": -2.202899862,
				"z": -2.0032065635,
				"element": "H" 
			},
			{
				"x": 0.1452380325,
				"y": -2.5405507594,
				"z": -2.1301501764,
				"element": "H" 
			},
			{
				"x": -1.2639340269,
				"y": -1.2724471844,
				"z": -0.8049159153,
				"element": "H" 
			}
		],
		 "valence_orbital": [ 
			{
				"type": "occ",
				"energy": -0.29229,
				"method": "rhf"
			},
			{
				"type": "occ",
				"energy": -0.28391,
				"method": "rhf"
			},
			{
				"type": "occ",
				"energy": -0.25016,
				"method": "rhf"
			},
			{
				"type": "occ",
				"energy": -0.23716,
				"method": "rhf"
			},
			{
				"type": "occ",
				"energy": -0.21045,
				"method": "rhf"
			},
			{
				"type": "unocc",
				"energy": -0.02289,
				"method": "rhf"
			},
			{
				"type": "unocc",
				"energy": 0.00574,
				"method": "rhf"
			},
			{
				"type": "unocc",
				"energy": 0.06742,
				"method": "rhf"
			},
			{
				"type": "unocc",
				"energy": 0.07331,
				"method": "rhf"
			},
			{
				"type": "unocc",
				"energy": 0.07717,
				"method": "rhf"
			}
		],
		"cosmo_sigma_profile": { 
			"-0.025": 0.0,
			"-0.024": 0.0,
			"-0.023": 0.0,
			"-0.022": 0.0,
			"-0.021": 0.0,
			"-0.02": 0.0,
			"-0.019": 0.0,
			"-0.018": 0.0,
			"-0.017": 0.0,
			"-0.016": 0.0,
			"-0.015": 0.0,
			"-0.014": 0.0,
			"-0.013": 0.429565048879,
			"-0.012": 2.34131789215,
			"-0.011": 2.87922199776,
			"-0.01": 3.41821652355,
			"-0.009": 3.2762953905,
			"-0.008": 2.63074268664,
			"-0.007": 2.7329990159,
			"-0.006": 4.78311991952,
			"-0.005": 10.569824425,
			"-0.004": 29.6868243046,
			"-0.003": 34.1371531764,
			"-0.002": 34.0537542347,
			"-0.001": 31.642983606,
			"0.0": 35.5928160514,
			"0.001": 20.0299864351,
			"0.002": 13.0865929839,
			"0.003": 12.8584603602,
			"0.004": 13.825168377,
			"0.005": 9.22706305856,
			"0.006": 4.60612884794,
			"0.007": 4.34124713487,
			"0.008": 3.68122058254,
			"0.009": 3.76740268534,
			"0.01": 5.46615385096,
			"0.011": 9.62257894556,
			"0.012": 6.83706900808,
			"0.013": 1.13431460934,
			"0.014": 0.333004364642,
			"0.015": 0.0,
			"0.016": 0.0,
			"0.017": 0.0,
			"0.018": 0.0,
			"0.019": 0.0,
			"0.02": 0.0,
			"0.021": 0.0,
			"0.022": 0.0,
			"0.023": 0.0,
			"0.024": 0.0,
			"0.025": 0.0
		}
	}
}
