{
	 "smiles": "OC(=O)C1=NN(C=C1)C1CCCC1", 
	 "Tm": 382.15, 
	 "num_atms": 25, 
	 "gaussian": { 
		 "optdone": 1, 
		 "sigma_profile": "yes", 
		 "theory": "DFT", 
		 "functional": "B3LYP", 
		 "basiset": "6-31G**", 
		 "properties": { 
			 "R2extent": 3558.3372, 
			 "electric_dipole_moment_norm": 7.12059572438, 
			 "electric_quadrupole_moment_norm": 31.7877679287, 
			 "total_energy": -610.142725199, 
			 "HOMO_LUMO_gap": 0.23043, 
			 "cosmo_polarized_energy": -13.7, 
			 "cosmo_cavitation_energy": 28.02, 
			 "cosmo_dispersion_energy": -20.27, 
			 "cosmo_repulsion_energy": 1.63, 
			 "cosmo_total_nonelectrostatic_energy": 9.37, 
			 "SMD_solvation_energy": 5.33 
		},
		"coords": [
			{
				"x": -4.2069085968,
				"y": 0.6167374329,
				"z": -0.0330985302,
				"element": "O" 
			},
			{
				"x": -4.0846111095,
				"y": 0.203399762,
				"z": 1.249708932,
				"element": "C" 
			},
			{
				"x": -5.0466062065,
				"y": -0.02597761,
				"z": 1.9456856946,
				"element": "O" 
			},
			{
				"x": -2.6823765215,
				"y": 0.0605323677,
				"z": 1.7145641101,
				"element": "C" 
			},
			{
				"x": -1.6704478053,
				"y": 0.3339505544,
				"z": 0.8785825454,
				"element": "N" 
			},
			{
				"x": -0.5560811879,
				"y": 0.1114405096,
				"z": 1.58978418,
				"element": "N" 
			},
			{
				"x": -0.8393418564,
				"y": -0.2965908834,
				"z": 2.8606656053,
				"element": "C" 
			},
			{
				"x": -2.2137561126,
				"y": -0.3435488781,
				"z": 2.9807678448,
				"element": "C" 
			},
			{
				"x": 0.7656188482,
				"y": 0.320472886,
				"z": 0.9895983185,
				"element": "C" 
			},
			{
				"x": 0.9703549687,
				"y": 1.7742263076,
				"z": 0.4620405321,
				"element": "C" 
			},
			{
				"x": 1.1000100529,
				"y": 1.644898532,
				"z": -1.0673083029,
				"element": "C" 
			},
			{
				"x": 1.7493505332,
				"y": 0.2642825976,
				"z": -1.2570299745,
				"element": "C" 
			},
			{
				"x": 1.0125564196,
				"y": -0.6115236665,
				"z": -0.229639867,
				"element": "C" 
			},
			{
				"x": -3.3107999431,
				"y": 0.7383518775,
				"z": -0.393988288,
				"element": "H" 
			},
			{
				"x": -0.0498608056,
				"y": -0.5165383515,
				"z": 3.5644596294,
				"element": "H" 
			},
			{
				"x": -2.8045804431,
				"y": -0.6225954376,
				"z": 3.8386837643,
				"element": "H" 
			},
			{
				"x": 1.472511552,
				"y": 0.1047616534,
				"z": 1.7946162983,
				"element": "H" 
			},
			{
				"x": 1.8963300873,
				"y": 2.1781974093,
				"z": 0.8857511955,
				"element": "H" 
			},
			{
				"x": 0.1535365866,
				"y": 2.4289169555,
				"z": 0.7734282093,
				"element": "H" 
			},
			{
				"x": 1.6759302233,
				"y": 2.4613467925,
				"z": -1.5129398582,
				"element": "H" 
			},
			{
				"x": 0.1049546146,
				"y": 1.6505812178,
				"z": -1.5269090818,
				"element": "H" 
			},
			{
				"x": 2.8199256729,
				"y": 0.3163226177,
				"z": -1.0199753478,
				"element": "H" 
			},
			{
				"x": 1.6599961352,
				"y": -0.121810721,
				"z": -2.2768560988,
				"element": "H" 
			},
			{
				"x": 0.0406805488,
				"y": -0.9141994868,
				"z": -0.6310315877,
				"element": "H" 
			},
			{
				"x": 1.5558143449,
				"y": -1.5195344385,
				"z": 0.0474400773,
				"element": "H" 
			}
		],
		 "valence_orbital": [ 
			{
				"type": "occ",
				"energy": -0.3188,
				"method": "rhf"
			},
			{
				"type": "occ",
				"energy": -0.30235,
				"method": "rhf"
			},
			{
				"type": "occ",
				"energy": -0.26837,
				"method": "rhf"
			},
			{
				"type": "occ",
				"energy": -0.26291,
				"method": "rhf"
			},
			{
				"type": "occ",
				"energy": -0.26016,
				"method": "rhf"
			},
			{
				"type": "unocc",
				"energy": -0.02973,
				"method": "rhf"
			},
			{
				"type": "unocc",
				"energy": 0.01931,
				"method": "rhf"
			},
			{
				"type": "unocc",
				"energy": 0.05784,
				"method": "rhf"
			},
			{
				"type": "unocc",
				"energy": 0.07609,
				"method": "rhf"
			},
			{
				"type": "unocc",
				"energy": 0.09912,
				"method": "rhf"
			}
		],
		"cosmo_sigma_profile": { 
			"-0.025": 0.0,
			"-0.024": 0.0,
			"-0.023": 0.0,
			"-0.022": 0.0,
			"-0.021": 0.0,
			"-0.02": 0.0,
			"-0.019": 0.0,
			"-0.018": 0.0,
			"-0.017": 0.0,
			"-0.016": 0.0,
			"-0.015": 0.0,
			"-0.014": 0.319396576349,
			"-0.013": 0.671938668853,
			"-0.012": 0.202096527916,
			"-0.011": 0.757633027559,
			"-0.01": 2.0835184174,
			"-0.009": 3.6530438158,
			"-0.008": 3.83996988935,
			"-0.007": 5.34313002596,
			"-0.006": 5.5466014387,
			"-0.005": 6.90836166089,
			"-0.004": 12.8464607379,
			"-0.003": 22.4390320631,
			"-0.002": 25.2132801563,
			"-0.001": 25.1949787265,
			"0.0": 25.5665066468,
			"0.001": 19.1207705006,
			"0.002": 11.1577094082,
			"0.003": 9.49742448866,
			"0.004": 6.23526857819,
			"0.005": 4.17178175338,
			"0.006": 3.68621107092,
			"0.007": 2.07386008491,
			"0.008": 2.4432182269,
			"0.009": 3.72488784106,
			"0.01": 4.76025017133,
			"0.011": 5.13294539339,
			"0.012": 5.83443972555,
			"0.013": 2.24954936341,
			"0.014": 0.215290834113,
			"0.015": 0.0,
			"0.016": 0.0,
			"0.017": 0.0,
			"0.018": 0.0,
			"0.019": 0.0,
			"0.02": 0.0,
			"0.021": 0.0,
			"0.022": 0.0,
			"0.023": 0.0,
			"0.024": 0.0,
			"0.025": 0.0
		}
	}
}
