{
	 "smiles": "CC1CCC2(COC(=O)N2)CC1", 
	 "Tm": 400.15, 
	 "num_atms": 27, 
	 "gaussian": { 
		 "optdone": 1, 
		 "sigma_profile": "yes", 
		 "theory": "DFT", 
		 "functional": "B3LYP", 
		 "basiset": "6-31G**", 
		 "properties": { 
			 "R2extent": 3668.8806, 
			 "electric_dipole_moment_norm": 5.5970397792, 
			 "electric_quadrupole_moment_norm": 29.5184521999, 
			 "total_energy": -557.22521666, 
			 "HOMO_LUMO_gap": 0.30498, 
			 "cosmo_polarized_energy": -13.19, 
			 "cosmo_cavitation_energy": 27.23, 
			 "cosmo_dispersion_energy": -20.15, 
			 "cosmo_repulsion_energy": 1.6, 
			 "cosmo_total_nonelectrostatic_energy": 8.68, 
			 "SMD_solvation_energy": 4.77 
		},
		"coords": [
			{
				"x": -0.7835530908,
				"y": 2.5409688994,
				"z": -0.7655393,
				"element": "C" 
			},
			{
				"x": -1.1988522343,
				"y": 1.157711703,
				"z": -0.2534353226,
				"element": "C" 
			},
			{
				"x": -1.0824227917,
				"y": 1.0391715399,
				"z": 1.2736865818,
				"element": "C" 
			},
			{
				"x": -1.655883569,
				"y": -0.2949982617,
				"z": 1.8023392701,
				"element": "C" 
			},
			{
				"x": -1.4701154355,
				"y": -1.4922937648,
				"z": 0.8171697088,
				"element": "C" 
			},
			{
				"x": -1.4105807456,
				"y": -2.860607356,
				"z": 1.546719543,
				"element": "C" 
			},
			{
				"x": -2.7530055437,
				"y": -3.365513698,
				"z": 1.5485543369,
				"element": "O" 
			},
			{
				"x": -3.478013494,
				"y": -2.7167417952,
				"z": 0.5815498722,
				"element": "C" 
			},
			{
				"x": -4.622426741,
				"y": -2.9856598986,
				"z": 0.3098688195,
				"element": "O" 
			},
			{
				"x": -2.6670235432,
				"y": -1.7579332178,
				"z": 0.0084628442,
				"element": "N" 
			},
			{
				"x": -0.238296068,
				"y": -1.2425110089,
				"z": -0.063809509,
				"element": "C" 
			},
			{
				"x": -0.3780003824,
				"y": 0.0295644232,
				"z": -0.9321731268,
				"element": "C" 
			},
			{
				"x": -0.8522175284,
				"y": 2.5975242142,
				"z": -1.8574399511,
				"element": "H" 
			},
			{
				"x": 0.2532737647,
				"y": 2.7639773799,
				"z": -0.4863725726,
				"element": "H" 
			},
			{
				"x": -1.4194827782,
				"y": 3.3292766323,
				"z": -0.3486452226,
				"element": "H" 
			},
			{
				"x": -2.2605341947,
				"y": 1.0218999305,
				"z": -0.5126488835,
				"element": "H" 
			},
			{
				"x": -1.591488958,
				"y": 1.8775028491,
				"z": 1.7628095544,
				"element": "H" 
			},
			{
				"x": -0.0222505069,
				"y": 1.1262827414,
				"z": 1.5487777231,
				"element": "H" 
			},
			{
				"x": -2.7246034526,
				"y": -0.1909374373,
				"z": 2.0204774184,
				"element": "H" 
			},
			{
				"x": -1.1708996526,
				"y": -0.5375535788,
				"z": 2.7550865762,
				"element": "H" 
			},
			{
				"x": -1.0681808117,
				"y": -2.7823359477,
				"z": 2.5807858835,
				"element": "H" 
			},
			{
				"x": -0.7678593523,
				"y": -3.5672146857,
				"z": 1.0069751994,
				"element": "H" 
			},
			{
				"x": -3.1342575331,
				"y": -1.0273501416,
				"z": -0.507822882,
				"element": "H" 
			},
			{
				"x": -0.0569677536,
				"y": -2.1150447528,
				"z": -0.6994475209,
				"element": "H" 
			},
			{
				"x": 0.6311197504,
				"y": -1.1458113332,
				"z": 0.5994258234,
				"element": "H" 
			},
			{
				"x": 0.6260195216,
				"y": 0.4046423302,
				"z": -1.1654321351,
				"element": "H" 
			},
			{
				"x": -0.8363968754,
				"y": -0.226215765,
				"z": -1.8941227285,
				"element": "H" 
			}
		],
		 "valence_orbital": [ 
			{
				"type": "occ",
				"energy": -0.32004,
				"method": "rhf"
			},
			{
				"type": "occ",
				"energy": -0.31548,
				"method": "rhf"
			},
			{
				"type": "occ",
				"energy": -0.28478,
				"method": "rhf"
			},
			{
				"type": "occ",
				"energy": -0.26837,
				"method": "rhf"
			},
			{
				"type": "occ",
				"energy": -0.25482,
				"method": "rhf"
			},
			{
				"type": "unocc",
				"energy": 0.05016,
				"method": "rhf"
			},
			{
				"type": "unocc",
				"energy": 0.05723,
				"method": "rhf"
			},
			{
				"type": "unocc",
				"energy": 0.0745,
				"method": "rhf"
			},
			{
				"type": "unocc",
				"energy": 0.09583,
				"method": "rhf"
			},
			{
				"type": "unocc",
				"energy": 0.102,
				"method": "rhf"
			}
		],
		"cosmo_sigma_profile": { 
			"-0.025": 0.0,
			"-0.024": 0.0,
			"-0.023": 0.0,
			"-0.022": 0.0,
			"-0.021": 0.0,
			"-0.02": 0.0,
			"-0.019": 0.0,
			"-0.018": 0.0,
			"-0.017": 0.0,
			"-0.016": 0.0,
			"-0.015": 0.0,
			"-0.014": 0.118818447584,
			"-0.013": 0.7354849205,
			"-0.012": 0.818464403637,
			"-0.011": 1.25024269224,
			"-0.01": 1.33101953686,
			"-0.009": 1.385051589,
			"-0.008": 1.17529156466,
			"-0.007": 2.3850638369,
			"-0.006": 6.45820721792,
			"-0.005": 10.2980075598,
			"-0.004": 14.9650471048,
			"-0.003": 20.9473887933,
			"-0.002": 31.574189227,
			"-0.001": 29.3526112692,
			"0.0": 24.7295767449,
			"0.001": 16.9674726506,
			"0.002": 6.92276994626,
			"0.003": 2.52362232437,
			"0.004": 3.01462094381,
			"0.005": 2.68680914504,
			"0.006": 2.46936814794,
			"0.007": 1.74147146407,
			"0.008": 3.04539056569,
			"0.009": 2.7809365592,
			"0.01": 4.32807164253,
			"0.011": 3.15173368632,
			"0.012": 4.17600423649,
			"0.013": 6.79174604806,
			"0.014": 2.43438712639,
			"0.015": 0.0313389899552,
			"0.016": 0.0,
			"0.017": 0.0,
			"0.018": 0.0,
			"0.019": 0.0,
			"0.02": 0.0,
			"0.021": 0.0,
			"0.022": 0.0,
			"0.023": 0.0,
			"0.024": 0.0,
			"0.025": 0.0
		}
	}
}
