{
	 "smiles": "CCCCCCCCCCC(O)=O", 
	 "Tm": 301.45, 
	 "num_atms": 35, 
	 "gaussian": { 
		 "optdone": 1, 
		 "sigma_profile": "yes", 
		 "theory": "DFT", 
		 "functional": "B3LYP", 
		 "basiset": "6-31G**", 
		 "properties": { 
			 "R2extent": 5879.3905, 
			 "electric_dipole_moment_norm": 4.81132274224, 
			 "electric_quadrupole_moment_norm": 32.2548983999, 
			 "total_energy": -582.913100017, 
			 "HOMO_LUMO_gap": 0.27674, 
			 "cosmo_polarized_energy": -13.14, 
			 "cosmo_cavitation_energy": 36.02, 
			 "cosmo_dispersion_energy": -25.03, 
			 "cosmo_repulsion_energy": 2.05, 
			 "cosmo_total_nonelectrostatic_energy": 13.05, 
			 "SMD_solvation_energy": 6.25 
		},
		"coords": [
			{
				"x": 1.6820346704,
				"y": 4.8309541035,
				"z": -2.1376042071,
				"element": "C" 
			},
			{
				"x": 0.4853340201,
				"y": 3.8760571324,
				"z": -2.2019037263,
				"element": "C" 
			},
			{
				"x": 0.3172793049,
				"y": 3.0419978005,
				"z": -0.9240815456,
				"element": "C" 
			},
			{
				"x": -0.9245283531,
				"y": 2.1333783966,
				"z": -0.9061672258,
				"element": "C" 
			},
			{
				"x": -0.9700303061,
				"y": 1.0335970424,
				"z": -1.9837704848,
				"element": "C" 
			},
			{
				"x": 0.1899956586,
				"y": 0.0207469488,
				"z": -1.9550165461,
				"element": "C" 
			},
			{
				"x": 0.3501845931,
				"y": -0.7871161525,
				"z": -0.6540382872,
				"element": "C" 
			},
			{
				"x": -0.8438262396,
				"y": -1.6946116445,
				"z": -0.3234589632,
				"element": "C" 
			},
			{
				"x": -0.6835352098,
				"y": -2.5209535349,
				"z": 0.9637098642,
				"element": "C" 
			},
			{
				"x": 0.4256152885,
				"y": -3.5901309331,
				"z": 0.8847687516,
				"element": "C" 
			},
			{
				"x": 0.4934999269,
				"y": -4.4967945907,
				"z": 2.1062202269,
				"element": "C" 
			},
			{
				"x": 0.689823449,
				"y": -3.8663960846,
				"z": 3.2997128477,
				"element": "O" 
			},
			{
				"x": 0.3877957142,
				"y": -5.6966407109,
				"z": 2.0734919746,
				"element": "O" 
			},
			{
				"x": 1.5813142295,
				"y": 5.5372065514,
				"z": -1.305474926,
				"element": "H" 
			},
			{
				"x": 1.7799675427,
				"y": 5.4144534584,
				"z": -3.0588942447,
				"element": "H" 
			},
			{
				"x": 2.6195777291,
				"y": 4.2821612907,
				"z": -1.9912085438,
				"element": "H" 
			},
			{
				"x": 0.5999346325,
				"y": 3.2134853148,
				"z": -3.0691700088,
				"element": "H" 
			},
			{
				"x": -0.4338744539,
				"y": 4.451451186,
				"z": -2.3794054717,
				"element": "H" 
			},
			{
				"x": 0.2576330773,
				"y": 3.72442171,
				"z": -0.0651288227,
				"element": "H" 
			},
			{
				"x": 1.2243559833,
				"y": 2.4430631495,
				"z": -0.7631479057,
				"element": "H" 
			},
			{
				"x": -1.0084244451,
				"y": 1.6734967013,
				"z": 0.0873129533,
				"element": "H" 
			},
			{
				"x": -1.8201744239,
				"y": 2.7596090417,
				"z": -1.0175386726,
				"element": "H" 
			},
			{
				"x": -1.9246653999,
				"y": 0.5001784997,
				"z": -1.8921226116,
				"element": "H" 
			},
			{
				"x": -0.9920480571,
				"y": 1.4981181801,
				"z": -2.9773935244,
				"element": "H" 
			},
			{
				"x": 0.0566623006,
				"y": -0.6811597535,
				"z": -2.7894250421,
				"element": "H" 
			},
			{
				"x": 1.1333437736,
				"y": 0.5437052939,
				"z": -2.1563182843,
				"element": "H" 
			},
			{
				"x": 0.5285866065,
				"y": -0.1057652668,
				"z": 0.1895261177,
				"element": "H" 
			},
			{
				"x": 1.2592645093,
				"y": -1.3949870974,
				"z": -0.7460599051,
				"element": "H" 
			},
			{
				"x": -1.0292886604,
				"y": -2.3757350212,
				"z": -1.1658722457,
				"element": "H" 
			},
			{
				"x": -1.7494923817,
				"y": -1.0850366925,
				"z": -0.2216587057,
				"element": "H" 
			},
			{
				"x": -0.4938951605,
				"y": -1.8336985583,
				"z": 1.8017883007,
				"element": "H" 
			},
			{
				"x": -1.6335072986,
				"y": -3.0193579998,
				"z": 1.1902718408,
				"element": "H" 
			},
			{
				"x": 1.4062521379,
				"y": -3.1134558043,
				"z": 0.7558867626,
				"element": "H" 
			},
			{
				"x": 0.2637005381,
				"y": -4.2408933035,
				"z": 0.022192917,
				"element": "H" 
			},
			{
				"x": 0.7594347038,
				"y": -2.9108486533,
				"z": 3.1652773444,
				"element": "H" 
			}
		],
		 "valence_orbital": [ 
			{
				"type": "occ",
				"energy": -0.31728,
				"method": "rhf"
			},
			{
				"type": "occ",
				"energy": -0.31138,
				"method": "rhf"
			},
			{
				"type": "occ",
				"energy": -0.30924,
				"method": "rhf"
			},
			{
				"type": "occ",
				"energy": -0.30796,
				"method": "rhf"
			},
			{
				"type": "occ",
				"energy": -0.26378,
				"method": "rhf"
			},
			{
				"type": "unocc",
				"energy": 0.01296,
				"method": "rhf"
			},
			{
				"type": "unocc",
				"energy": 0.04724,
				"method": "rhf"
			},
			{
				"type": "unocc",
				"energy": 0.06622,
				"method": "rhf"
			},
			{
				"type": "unocc",
				"energy": 0.08985,
				"method": "rhf"
			},
			{
				"type": "unocc",
				"energy": 0.10065,
				"method": "rhf"
			}
		],
		"cosmo_sigma_profile": { 
			"-0.025": 0.0,
			"-0.024": 0.0,
			"-0.023": 0.0,
			"-0.022": 0.0,
			"-0.021": 0.0,
			"-0.02": 0.0,
			"-0.019": 0.0,
			"-0.018": 0.60109301397,
			"-0.017": 0.629376527152,
			"-0.016": 0.870544541208,
			"-0.015": 1.26433787728,
			"-0.014": 1.21919060538,
			"-0.013": 1.17110085246,
			"-0.012": 0.763739735672,
			"-0.011": 0.813758021978,
			"-0.01": 1.08570687396,
			"-0.009": 1.04794094302,
			"-0.008": 1.52033237206,
			"-0.007": 1.85530127555,
			"-0.006": 3.421024857,
			"-0.005": 4.80698842461,
			"-0.004": 8.78267122971,
			"-0.003": 13.7701311947,
			"-0.002": 39.4483089989,
			"-0.001": 54.2595579233,
			"0.0": 46.8195093657,
			"0.001": 39.3605968983,
			"0.002": 17.9551455813,
			"0.003": 2.19144481375,
			"0.004": 1.64714998391,
			"0.005": 1.89190234092,
			"0.006": 2.65101886147,
			"0.007": 1.95532545619,
			"0.008": 2.46304268688,
			"0.009": 2.93651641012,
			"0.01": 4.23636206224,
			"0.011": 5.71498696398,
			"0.012": 6.02437421304,
			"0.013": 3.37893373159,
			"0.014": 0.466292129606,
			"0.015": 0.0,
			"0.016": 0.0,
			"0.017": 0.0,
			"0.018": 0.0,
			"0.019": 0.0,
			"0.02": 0.0,
			"0.021": 0.0,
			"0.022": 0.0,
			"0.023": 0.0,
			"0.024": 0.0,
			"0.025": 0.0
		}
	}
}
