{
	 "smiles": "COC(=O)C(F)(F)C(F)(F)C(F)(F)F", 
	 "Tm": 187.15, 
	 "num_atms": 17, 
	 "gaussian": { 
		 "optdone": 1, 
		 "sigma_profile": "yes", 
		 "theory": "DFT", 
		 "functional": "B3LYP", 
		 "basiset": "6-31G**", 
		 "properties": { 
			 "R2extent": 3788.9823, 
			 "electric_dipole_moment_norm": 2.75785628705, 
			 "electric_quadrupole_moment_norm": 5.9560686581, 
			 "total_energy": -1041.64406168, 
			 "HOMO_LUMO_gap": 0.26916, 
			 "cosmo_polarized_energy": -5.57, 
			 "cosmo_cavitation_energy": 25.01, 
			 "cosmo_dispersion_energy": -16.63, 
			 "cosmo_repulsion_energy": 1.2, 
			 "cosmo_total_nonelectrostatic_energy": 9.58, 
			 "SMD_solvation_energy": 8.49 
		},
		"coords": [
			{
				"x": -0.2273046381,
				"y": -1.126769524,
				"z": 1.1539136773,
				"element": "C" 
			},
			{
				"x": -0.036949521,
				"y": -0.6027357105,
				"z": -0.1782102546,
				"element": "O" 
			},
			{
				"x": 1.2012354878,
				"y": -0.1959398924,
				"z": -0.4566908462,
				"element": "C" 
			},
			{
				"x": 2.1555520589,
				"y": -0.233439974,
				"z": 0.2773691666,
				"element": "O" 
			},
			{
				"x": 1.2790624249,
				"y": 0.335251631,
				"z": -1.9088736458,
				"element": "C" 
			},
			{
				"x": 2.5784915095,
				"y": 0.5033753045,
				"z": -2.2331534097,
				"element": "F" 
			},
			{
				"x": 0.7298661051,
				"y": -0.581840874,
				"z": -2.7476716352,
				"element": "F" 
			},
			{
				"x": 0.54332332,
				"y": 1.6750605664,
				"z": -2.1757861284,
				"element": "C" 
			},
			{
				"x": -0.774614553,
				"y": 1.5127959566,
				"z": -1.9185212053,
				"element": "F" 
			},
			{
				"x": 0.7021796957,
				"y": 1.983833736,
				"z": -3.4833695091,
				"element": "F" 
			},
			{
				"x": 1.0398330938,
				"y": 2.8773113864,
				"z": -1.3435633675,
				"element": "C" 
			},
			{
				"x": 2.321215706,
				"y": 3.1467600627,
				"z": -1.6046578985,
				"element": "F" 
			},
			{
				"x": 0.3006083306,
				"y": 3.9548081593,
				"z": -1.6272305709,
				"element": "F" 
			},
			{
				"x": 0.9103280953,
				"y": 2.6003338976,
				"z": -0.0315667589,
				"element": "F" 
			},
			{
				"x": 0.4067282622,
				"y": -2.0024831013,
				"z": 1.3076856451,
				"element": "H" 
			},
			{
				"x": -1.2806390378,
				"y": -1.3957306219,
				"z": 1.2109411055,
				"element": "H" 
			},
			{
				"x": 0.0213836601,
				"y": -0.3654910023,
				"z": 1.8963856355,
				"element": "H" 
			}
		],
		 "valence_orbital": [ 
			{
				"type": "occ",
				"energy": -0.40872,
				"method": "rhf"
			},
			{
				"type": "occ",
				"energy": -0.38651,
				"method": "rhf"
			},
			{
				"type": "occ",
				"energy": -0.35852,
				"method": "rhf"
			},
			{
				"type": "occ",
				"energy": -0.33247,
				"method": "rhf"
			},
			{
				"type": "occ",
				"energy": -0.30504,
				"method": "rhf"
			},
			{
				"type": "unocc",
				"energy": -0.03588,
				"method": "rhf"
			},
			{
				"type": "unocc",
				"energy": 0.04696,
				"method": "rhf"
			},
			{
				"type": "unocc",
				"energy": 0.07141,
				"method": "rhf"
			},
			{
				"type": "unocc",
				"energy": 0.09109,
				"method": "rhf"
			},
			{
				"type": "unocc",
				"energy": 0.10501,
				"method": "rhf"
			}
		],
		"cosmo_sigma_profile": { 
			"-0.025": 0.0,
			"-0.024": 0.0,
			"-0.023": 0.0,
			"-0.022": 0.0,
			"-0.021": 0.0,
			"-0.02": 0.0,
			"-0.019": 0.0,
			"-0.018": 0.0,
			"-0.017": 0.0,
			"-0.016": 0.0,
			"-0.015": 0.0,
			"-0.014": 0.0,
			"-0.013": 0.0,
			"-0.012": 0.0,
			"-0.011": 0.0,
			"-0.01": 0.0,
			"-0.009": 0.0,
			"-0.008": 1.19819580967,
			"-0.007": 7.21266372143,
			"-0.006": 8.81529280471,
			"-0.005": 10.4286282785,
			"-0.004": 9.18522842726,
			"-0.003": 8.42527825,
			"-0.002": 10.68103764,
			"-0.001": 15.1844905255,
			"0.0": 26.2921963865,
			"0.001": 51.6298330364,
			"0.002": 23.3439913727,
			"0.003": 5.7704892023,
			"0.004": 4.64823873757,
			"0.005": 3.68335225185,
			"0.006": 2.8110075466,
			"0.007": 1.32748736723,
			"0.008": 2.30767892461,
			"0.009": 4.05498957152,
			"0.01": 3.07066662204,
			"0.011": 0.0753550055817,
			"0.012": 0.0,
			"0.013": 0.0,
			"0.014": 0.0,
			"0.015": 0.0,
			"0.016": 0.0,
			"0.017": 0.0,
			"0.018": 0.0,
			"0.019": 0.0,
			"0.02": 0.0,
			"0.021": 0.0,
			"0.022": 0.0,
			"0.023": 0.0,
			"0.024": 0.0,
			"0.025": 0.0
		}
	}
}
