{
	 "smiles": "COC1=CC=C(NC2CCN(CC2)C(=O)OC(C)(C)C)C=C1", 
	 "Tm": 356.15, 
	 "num_atms": 48, 
	 "gaussian": { 
		 "optdone": 1, 
		 "sigma_profile": "yes", 
		 "theory": "DFT", 
		 "functional": "B3LYP", 
		 "basiset": "6-31G**", 
		 "properties": { 
			 "R2extent": 13062.0073, 
			 "electric_dipole_moment_norm": 2.21752627493, 
			 "electric_quadrupole_moment_norm": 13.8964713046, 
			 "total_energy": -998.686631014, 
			 "HOMO_LUMO_gap": 0.18271, 
			 "cosmo_polarized_energy": -14.4, 
			 "cosmo_cavitation_energy": 48.07, 
			 "cosmo_dispersion_energy": -33.68, 
			 "cosmo_repulsion_energy": 2.58, 
			 "cosmo_total_nonelectrostatic_energy": 16.97, 
			 "SMD_solvation_energy": 8.05 
		},
		"coords": [
			{
				"x": -2.9518907111,
				"y": -4.3742703264,
				"z": -4.8771936029,
				"element": "C" 
			},
			{
				"x": -3.835080271,
				"y": -3.5969149327,
				"z": -4.091424646,
				"element": "O" 
			},
			{
				"x": -3.3252418406,
				"y": -2.4872337006,
				"z": -3.4654905498,
				"element": "C" 
			},
			{
				"x": -4.2344394712,
				"y": -1.7401117996,
				"z": -2.7027452913,
				"element": "C" 
			},
			{
				"x": -3.8204522314,
				"y": -0.6029964264,
				"z": -2.02669649,
				"element": "C" 
			},
			{
				"x": -2.4827370514,
				"y": -0.1592100672,
				"z": -2.0845229747,
				"element": "C" 
			},
			{
				"x": -2.1290196309,
				"y": 1.034527133,
				"z": -1.4382605784,
				"element": "N" 
			},
			{
				"x": -0.7583858362,
				"y": 1.3386755313,
				"z": -1.0456425404,
				"element": "C" 
			},
			{
				"x": -0.1898721125,
				"y": 0.4078280313,
				"z": 0.0464299284,
				"element": "C" 
			},
			{
				"x": 1.2319365571,
				"y": 0.819420838,
				"z": 0.4528961239,
				"element": "C" 
			},
			{
				"x": 1.2683303903,
				"y": 2.2291669008,
				"z": 0.8375911059,
				"element": "N" 
			},
			{
				"x": 0.7568976792,
				"y": 3.167431953,
				"z": -0.1578075543,
				"element": "C" 
			},
			{
				"x": -0.6709085667,
				"y": 2.7991235158,
				"z": -0.5796122292,
				"element": "C" 
			},
			{
				"x": 1.8231437787,
				"y": 2.7188450415,
				"z": 1.9932105367,
				"element": "C" 
			},
			{
				"x": 1.8727606366,
				"y": 3.9103300513,
				"z": 2.2698967918,
				"element": "O" 
			},
			{
				"x": 2.2933038978,
				"y": 1.7151030185,
				"z": 2.7757522784,
				"element": "O" 
			},
			{
				"x": 2.9149628177,
				"y": 2.0021811384,
				"z": 4.0772813879,
				"element": "C" 
			},
			{
				"x": 3.2767896552,
				"y": 0.6039176744,
				"z": 4.5863007661,
				"element": "C" 
			},
			{
				"x": 4.1763375704,
				"y": 2.8508031547,
				"z": 3.8833987418,
				"element": "C" 
			},
			{
				"x": 1.9009496154,
				"y": 2.6725117638,
				"z": 5.0106882669,
				"element": "C" 
			},
			{
				"x": -1.5823302839,
				"y": -0.9162867467,
				"z": -2.8472209742,
				"element": "C" 
			},
			{
				"x": -1.9965928449,
				"y": -2.0655617145,
				"z": -3.5316271418,
				"element": "C" 
			},
			{
				"x": -2.5246351764,
				"y": -3.7940546098,
				"z": -5.7066401053,
				"element": "H" 
			},
			{
				"x": -2.1306466977,
				"y": -4.7911198553,
				"z": -4.2778667207,
				"element": "H" 
			},
			{
				"x": -3.546811837,
				"y": -5.1937445724,
				"z": -5.2847046614,
				"element": "H" 
			},
			{
				"x": -5.266330597,
				"y": -2.0727694611,
				"z": -2.6518133446,
				"element": "H" 
			},
			{
				"x": -4.5439287586,
				"y": -0.0362373596,
				"z": -1.444544897,
				"element": "H" 
			},
			{
				"x": -2.8038847224,
				"y": 1.3114871927,
				"z": -0.7355397555,
				"element": "H" 
			},
			{
				"x": -0.1298076097,
				"y": 1.2443443237,
				"z": -1.9422573547,
				"element": "H" 
			},
			{
				"x": -0.8441449036,
				"y": 0.4558211907,
				"z": 0.9268479568,
				"element": "H" 
			},
			{
				"x": -0.1891260373,
				"y": -0.6299001918,
				"z": -0.3037946115,
				"element": "H" 
			},
			{
				"x": 1.5919966487,
				"y": 0.2174001342,
				"z": 1.2842035393,
				"element": "H" 
			},
			{
				"x": 1.9178417948,
				"y": 0.6599374564,
				"z": -0.3950863327,
				"element": "H" 
			},
			{
				"x": 1.4149280375,
				"y": 3.1525524212,
				"z": -1.0413170369,
				"element": "H" 
			},
			{
				"x": 0.800954039,
				"y": 4.1664578115,
				"z": 0.2744818432,
				"element": "H" 
			},
			{
				"x": -1.3446176662,
				"y": 2.9485391661,
				"z": 0.2758368791,
				"element": "H" 
			},
			{
				"x": -1.0071463038,
				"y": 3.4643111864,
				"z": -1.3821284436,
				"element": "H" 
			},
			{
				"x": 2.3806625342,
				"y": -0.0159977585,
				"z": 4.6844511252,
				"element": "H" 
			},
			{
				"x": 3.7581427729,
				"y": 0.6734635123,
				"z": 5.5663144967,
				"element": "H" 
			},
			{
				"x": 3.9662237893,
				"y": 0.1079228783,
				"z": 3.8967006259,
				"element": "H" 
			},
			{
				"x": 3.9252443001,
				"y": 3.839987207,
				"z": 3.5008478681,
				"element": "H" 
			},
			{
				"x": 4.6958048778,
				"y": 2.9607200649,
				"z": 4.8410069582,
				"element": "H" 
			},
			{
				"x": 4.858825172,
				"y": 2.3606110117,
				"z": 3.1816633051,
				"element": "H" 
			},
			{
				"x": 0.9985363847,
				"y": 2.0582594464,
				"z": 5.0941110113,
				"element": "H" 
			},
			{
				"x": 1.6247895787,
				"y": 3.6599614617,
				"z": 4.6410072491,
				"element": "H" 
			},
			{
				"x": 2.3344550521,
				"y": 2.7754435548,
				"z": 6.0108995838,
				"element": "H" 
			},
			{
				"x": -0.5427824815,
				"y": -0.617197918,
				"z": -2.9260615804,
				"element": "H" 
			},
			{
				"x": -1.2640039369,
				"y": -2.6181783252,
				"z": -4.108518952,
				"element": "H" 
			}
		],
		 "valence_orbital": [ 
			{
				"type": "occ",
				"energy": -0.26274,
				"method": "rhf"
			},
			{
				"type": "occ",
				"energy": -0.25599,
				"method": "rhf"
			},
			{
				"type": "occ",
				"energy": -0.24376,
				"method": "rhf"
			},
			{
				"type": "occ",
				"energy": -0.23483,
				"method": "rhf"
			},
			{
				"type": "occ",
				"energy": -0.17884,
				"method": "rhf"
			},
			{
				"type": "unocc",
				"energy": 0.00387,
				"method": "rhf"
			},
			{
				"type": "unocc",
				"energy": 0.03278,
				"method": "rhf"
			},
			{
				"type": "unocc",
				"energy": 0.054,
				"method": "rhf"
			},
			{
				"type": "unocc",
				"energy": 0.08241,
				"method": "rhf"
			},
			{
				"type": "unocc",
				"energy": 0.08314,
				"method": "rhf"
			}
		],
		"cosmo_sigma_profile": { 
			"-0.025": 0.0,
			"-0.024": 0.0,
			"-0.023": 0.0,
			"-0.022": 0.0,
			"-0.021": 0.0,
			"-0.02": 0.0,
			"-0.019": 0.0,
			"-0.018": 0.0,
			"-0.017": 0.0,
			"-0.016": 0.0,
			"-0.015": 0.0,
			"-0.014": 0.0,
			"-0.013": 0.0,
			"-0.012": 0.0924553639903,
			"-0.011": 1.12056049586,
			"-0.01": 1.49429599195,
			"-0.009": 1.60021895696,
			"-0.008": 1.67367161662,
			"-0.007": 2.44525980482,
			"-0.006": 5.1829903892,
			"-0.005": 18.741041388,
			"-0.004": 39.104432913,
			"-0.003": 49.8544570325,
			"-0.002": 43.3266622359,
			"-0.001": 35.5787605623,
			"0.0": 37.3004043365,
			"0.001": 34.3935356213,
			"0.002": 14.6991371506,
			"0.003": 13.2662450834,
			"0.004": 12.0452899267,
			"0.005": 15.4285780219,
			"0.006": 15.2200104636,
			"0.007": 10.6844989872,
			"0.008": 3.778075225,
			"0.009": 3.82575273134,
			"0.01": 3.18297155552,
			"0.011": 4.4489495467,
			"0.012": 1.88782311873,
			"0.013": 3.05376917691,
			"0.014": 1.68048791963,
			"0.015": 0.0,
			"0.016": 0.0,
			"0.017": 0.0,
			"0.018": 0.0,
			"0.019": 0.0,
			"0.02": 0.0,
			"0.021": 0.0,
			"0.022": 0.0,
			"0.023": 0.0,
			"0.024": 0.0,
			"0.025": 0.0
		}
	}
}
