{
	 "smiles": "O=S1(=O)C=CC2=C1C=CC(=C2)C#N", 
	 "Tm": 423.15, 
	 "num_atms": 18, 
	 "gaussian": { 
		 "optdone": 1, 
		 "sigma_profile": "yes", 
		 "theory": "DFT", 
		 "functional": "B3LYP", 
		 "basiset": "6-31G**", 
		 "properties": { 
			 "R2extent": 2840.9265, 
			 "electric_dipole_moment_norm": 2.53760569435, 
			 "electric_quadrupole_moment_norm": 29.6908679671, 
			 "total_energy": -949.239846548, 
			 "HOMO_LUMO_gap": 0.1722, 
			 "cosmo_polarized_energy": -18.98, 
			 "cosmo_cavitation_energy": 25.57, 
			 "cosmo_dispersion_energy": -18.77, 
			 "cosmo_repulsion_energy": 1.42, 
			 "cosmo_total_nonelectrostatic_energy": 8.21, 
			 "SMD_solvation_energy": 5.23 
		},
		"coords": [
			{
				"x": 0.7922821944,
				"y": -2.5730450531,
				"z": -1.3249847155,
				"element": "O" 
			},
			{
				"x": 0.3404686593,
				"y": -1.9610281511,
				"z": -0.0689205151,
				"element": "S" 
			},
			{
				"x": -0.3703139214,
				"y": -2.7765109937,
				"z": 0.9241411487,
				"element": "O" 
			},
			{
				"x": 1.6817059699,
				"y": -1.0515885957,
				"z": 0.7066200411,
				"element": "C" 
			},
			{
				"x": 1.4439795334,
				"y": 0.2650463662,
				"z": 0.7029246758,
				"element": "C" 
			},
			{
				"x": 0.1661816313,
				"y": 0.6587363822,
				"z": 0.0780864513,
				"element": "C" 
			},
			{
				"x": -0.5682239473,
				"y": -0.4357678779,
				"z": -0.4006122423,
				"element": "C" 
			},
			{
				"x": -1.7962063733,
				"y": -0.3025993325,
				"z": -1.0233851621,
				"element": "C" 
			},
			{
				"x": -2.3171063875,
				"y": 0.9866657115,
				"z": -1.1759965974,
				"element": "C" 
			},
			{
				"x": -1.5995042108,
				"y": 2.099071873,
				"z": -0.7043230196,
				"element": "C" 
			},
			{
				"x": -0.3498418988,
				"y": 1.9408842589,
				"z": -0.0726176559,
				"element": "C" 
			},
			{
				"x": -2.1451061112,
				"y": 3.4162089049,
				"z": -0.8671697322,
				"element": "C" 
			},
			{
				"x": -2.585013063,
				"y": 4.4846323222,
				"z": -0.9978968188,
				"element": "N" 
			},
			{
				"x": 2.532511449,
				"y": -1.5934426655,
				"z": 1.0973274438,
				"element": "H" 
			},
			{
				"x": 2.1218776909,
				"y": 1.0027177656,
				"z": 1.1200713796,
				"element": "H" 
			},
			{
				"x": -2.3425435964,
				"y": -1.1677793116,
				"z": -1.3841354825,
				"element": "H" 
			},
			{
				"x": -3.2765814245,
				"y": 1.136360349,
				"z": -1.6584789292,
				"element": "H" 
			},
			{
				"x": 0.1911338061,
				"y": 2.8105380475,
				"z": 0.2857497303,
				"element": "H" 
			}
		],
		 "valence_orbital": [ 
			{
				"type": "occ",
				"energy": -0.33194,
				"method": "rhf"
			},
			{
				"type": "occ",
				"energy": -0.32022,
				"method": "rhf"
			},
			{
				"type": "occ",
				"energy": -0.31021,
				"method": "rhf"
			},
			{
				"type": "occ",
				"energy": -0.29157,
				"method": "rhf"
			},
			{
				"type": "occ",
				"energy": -0.2743,
				"method": "rhf"
			},
			{
				"type": "unocc",
				"energy": -0.1021,
				"method": "rhf"
			},
			{
				"type": "unocc",
				"energy": -0.07107,
				"method": "rhf"
			},
			{
				"type": "unocc",
				"energy": -0.0173,
				"method": "rhf"
			},
			{
				"type": "unocc",
				"energy": 0.01629,
				"method": "rhf"
			},
			{
				"type": "unocc",
				"energy": 0.04001,
				"method": "rhf"
			}
		],
		"cosmo_sigma_profile": { 
			"-0.025": 0.0,
			"-0.024": 0.0,
			"-0.023": 0.0,
			"-0.022": 0.0,
			"-0.021": 0.0,
			"-0.02": 0.0,
			"-0.019": 0.0,
			"-0.018": 0.0,
			"-0.017": 0.0,
			"-0.016": 0.0,
			"-0.015": 0.0,
			"-0.014": 0.0,
			"-0.013": 0.0,
			"-0.012": 0.107294930235,
			"-0.011": 2.73088180314,
			"-0.01": 8.361260121,
			"-0.009": 10.9278267065,
			"-0.008": 11.3502944886,
			"-0.007": 8.94317528317,
			"-0.006": 8.38337376242,
			"-0.005": 6.91560198386,
			"-0.004": 8.84795819431,
			"-0.003": 13.070993562,
			"-0.002": 18.6034439686,
			"-0.001": 17.9783290502,
			"0.0": 12.8785133158,
			"0.001": 6.8669905245,
			"0.002": 4.3274893601,
			"0.003": 4.68541446378,
			"0.004": 4.23701873043,
			"0.005": 4.30574632983,
			"0.006": 4.44282662764,
			"0.007": 5.79763376212,
			"0.008": 7.12625858664,
			"0.009": 7.65149340432,
			"0.01": 14.6869015706,
			"0.011": 12.4279022789,
			"0.012": 2.34465508121,
			"0.013": 0.333842879117,
			"0.014": 0.0,
			"0.015": 0.0,
			"0.016": 0.0,
			"0.017": 0.0,
			"0.018": 0.0,
			"0.019": 0.0,
			"0.02": 0.0,
			"0.021": 0.0,
			"0.022": 0.0,
			"0.023": 0.0,
			"0.024": 0.0,
			"0.025": 0.0
		}
	}
}
