{
	 "smiles": "COC1=C(C=CC=C1)N1C=NN=C1S", 
	 "Tm": 478.15, 
	 "num_atms": 23, 
	 "gaussian": { 
		 "optdone": 1, 
		 "sigma_profile": "yes", 
		 "theory": "DFT", 
		 "functional": "B3LYP", 
		 "basiset": "6-31G**", 
		 "properties": { 
			 "R2extent": 3877.8761, 
			 "electric_dipole_moment_norm": 7.21779885353, 
			 "electric_quadrupole_moment_norm": 25.0420309584, 
			 "total_energy": -985.991691668, 
			 "HOMO_LUMO_gap": 0.20138, 
			 "cosmo_polarized_energy": -16.89, 
			 "cosmo_cavitation_energy": 28.91, 
			 "cosmo_dispersion_energy": -20.61, 
			 "cosmo_repulsion_energy": 1.57, 
			 "cosmo_total_nonelectrostatic_energy": 9.87, 
			 "SMD_solvation_energy": 3.69 
		},
		"coords": [
			{
				"x": -1.6041956709,
				"y": -0.9323500058,
				"z": -1.5945118711,
				"element": "C" 
			},
			{
				"x": -0.5164345048,
				"y": -0.4976526345,
				"z": -0.7647384268,
				"element": "O" 
			},
			{
				"x": -0.1441388148,
				"y": -1.377230826,
				"z": 0.2280211077,
				"element": "C" 
			},
			{
				"x": -0.8199445917,
				"y": -1.4037587498,
				"z": 1.4606051978,
				"element": "C" 
			},
			{
				"x": -0.3924604752,
				"y": -2.2751073266,
				"z": 2.4673515368,
				"element": "C" 
			},
			{
				"x": 0.6970758363,
				"y": -3.1175111072,
				"z": 2.2522449702,
				"element": "C" 
			},
			{
				"x": 1.3757739344,
				"y": -3.0804420191,
				"z": 1.0328031061,
				"element": "C" 
			},
			{
				"x": 0.956844843,
				"y": -2.2106617759,
				"z": 0.0262047302,
				"element": "C" 
			},
			{
				"x": -1.955626037,
				"y": -0.5736682662,
				"z": 1.6901107796,
				"element": "N" 
			},
			{
				"x": -3.2155524519,
				"y": -1.0039355242,
				"z": 2.0394034273,
				"element": "C" 
			},
			{
				"x": -4.0224004804,
				"y": 0.0059482787,
				"z": 2.2343206754,
				"element": "N" 
			},
			{
				"x": -3.2982970321,
				"y": 1.1594801077,
				"z": 2.0069073045,
				"element": "N" 
			},
			{
				"x": -2.0740561681,
				"y": 0.8093714649,
				"z": 1.6839438944,
				"element": "C" 
			},
			{
				"x": -0.7544972454,
				"y": 1.9556850437,
				"z": 1.4467114099,
				"element": "S" 
			},
			{
				"x": -1.7668847042,
				"y": -0.138722078,
				"z": -2.3249834485,
				"element": "H" 
			},
			{
				"x": -2.5187577875,
				"y": -1.0814515301,
				"z": -1.0104946653,
				"element": "H" 
			},
			{
				"x": -1.345418002,
				"y": -1.8626946862,
				"z": -2.1134643507,
				"element": "H" 
			},
			{
				"x": -0.9130727117,
				"y": -2.2709076611,
				"z": 3.419743139,
				"element": "H" 
			},
			{
				"x": 1.0226117515,
				"y": -3.7878751552,
				"z": 3.0411339152,
				"element": "H" 
			},
			{
				"x": 2.2332527285,
				"y": -3.7248523473,
				"z": 0.8652717264,
				"element": "H" 
			},
			{
				"x": 1.4726162541,
				"y": -2.1584194997,
				"z": -0.9271996229,
				"element": "H" 
			},
			{
				"x": -3.4735325551,
				"y": -2.0515596998,
				"z": 2.1065298516,
				"element": "H" 
			},
			{
				"x": -0.3435061151,
				"y": 1.4378159978,
				"z": 0.268685613,
				"element": "H" 
			}
		],
		 "valence_orbital": [ 
			{
				"type": "occ",
				"energy": -0.28623,
				"method": "rhf"
			},
			{
				"type": "occ",
				"energy": -0.2763,
				"method": "rhf"
			},
			{
				"type": "occ",
				"energy": -0.26789,
				"method": "rhf"
			},
			{
				"type": "occ",
				"energy": -0.24994,
				"method": "rhf"
			},
			{
				"type": "occ",
				"energy": -0.23916,
				"method": "rhf"
			},
			{
				"type": "unocc",
				"energy": -0.03778,
				"method": "rhf"
			},
			{
				"type": "unocc",
				"energy": -0.02777,
				"method": "rhf"
			},
			{
				"type": "unocc",
				"energy": 0.0029,
				"method": "rhf"
			},
			{
				"type": "unocc",
				"energy": 0.03199,
				"method": "rhf"
			},
			{
				"type": "unocc",
				"energy": 0.04787,
				"method": "rhf"
			}
		],
		"cosmo_sigma_profile": { 
			"-0.025": 0.0,
			"-0.024": 0.0,
			"-0.023": 0.0,
			"-0.022": 0.0,
			"-0.021": 0.0,
			"-0.02": 0.0,
			"-0.019": 0.0,
			"-0.018": 0.0,
			"-0.017": 0.0,
			"-0.016": 0.0,
			"-0.015": 0.0,
			"-0.014": 0.0,
			"-0.013": 0.0,
			"-0.012": 0.0,
			"-0.011": 1.02306045845,
			"-0.01": 1.81545204619,
			"-0.009": 2.52964903772,
			"-0.008": 2.4560267413,
			"-0.007": 9.09077280911,
			"-0.006": 16.6831623795,
			"-0.005": 21.4606746177,
			"-0.004": 20.3673774295,
			"-0.003": 22.1371203145,
			"-0.002": 15.7052520349,
			"-0.001": 13.5620010172,
			"0.0": 12.126672475,
			"0.001": 14.035015735,
			"0.002": 15.0317768956,
			"0.003": 16.3617866085,
			"0.004": 8.48007765123,
			"0.005": 5.31577339168,
			"0.006": 5.12778345702,
			"0.007": 4.44388682178,
			"0.008": 3.56847348939,
			"0.009": 3.75326075856,
			"0.01": 2.40200672678,
			"0.011": 2.79532165065,
			"0.012": 2.93644659251,
			"0.013": 3.80631251543,
			"0.014": 2.88003453654,
			"0.015": 2.63517025119,
			"0.016": 1.93446474059,
			"0.017": 0.13633069922,
			"0.018": 0.0,
			"0.019": 0.0,
			"0.02": 0.0,
			"0.021": 0.0,
			"0.022": 0.0,
			"0.023": 0.0,
			"0.024": 0.0,
			"0.025": 0.0
		}
	}
}
