{
	 "smiles": "NC1=CC=C(I)C=C1", 
	 "Tm": 340.65, 
	 "num_atms": 14, 
	 "gaussian": { 
		 "optdone": 1, 
		 "sigma_profile": "no", 
		 "theory": "DFT", 
		 "functional": "B3LYP", 
		 "basiset": "6-31G**", 
		 "properties": { 
			 "R2extent": 1104.8008, 
			 "electric_dipole_moment_norm": 3.68126514394, 
			 "electric_quadrupole_moment_norm": 7.97797884617, 
			 "total_energy": -298.393990891, 
			 "HOMO_LUMO_gap": 0.17511, 
			 "cosmo_polarized_energy": -100278.29, 
			 "cosmo_cavitation_energy": 20.98, 
			 "cosmo_dispersion_energy": -17.22, 
			 "cosmo_repulsion_energy": 1.39, 
			 "cosmo_total_nonelectrostatic_energy": 5.15, 
			 "SMD_solvation_energy": 2.69 
		},
		"coords": [
			{
				"x": -0.5860245554,
				"y": -1.3576981802,
				"z": 2.3255108076,
				"element": "N" 
			},
			{
				"x": -0.2141129398,
				"y": -0.4950801764,
				"z": 1.2966578392,
				"element": "C" 
			},
			{
				"x": -0.4482821157,
				"y": -0.8341523204,
				"z": -0.0474146,
				"element": "C" 
			},
			{
				"x": -0.0275340698,
				"y": 0.0000566923,
				"z": -1.0801973407,
				"element": "C" 
			},
			{
				"x": 0.6363098524,
				"y": 1.1917702224,
				"z": -0.7840234937,
				"element": "C" 
			},
			{
				"x": 1.2732315771,
				"y": 2.4682893492,
				"z": -2.3548107321,
				"element": "I" 
			},
			{
				"x": 0.8790573192,
				"y": 1.5464807263,
				"z": 0.5440745054,
				"element": "C" 
			},
			{
				"x": 0.4564434,
				"y": 0.709097823,
				"z": 1.5735173978,
				"element": "C" 
			},
			{
				"x": -1.3338864743,
				"y": -2.0007352075,
				"z": 2.1063782658,
				"element": "H" 
			},
			{
				"x": -0.7052592797,
				"y": -0.9286768251,
				"z": 3.2324474467,
				"element": "H" 
			},
			{
				"x": -0.9610509424,
				"y": -1.7626078453,
				"z": -0.2861579914,
				"element": "H" 
			},
			{
				"x": -0.2214820233,
				"y": -0.2821944952,
				"z": -2.1091658781,
				"element": "H" 
			},
			{
				"x": 1.3927193059,
				"y": 2.4712430234,
				"z": 0.7828720121,
				"element": "H" 
			},
			{
				"x": 0.6527709458,
				"y": 0.9902072135,
				"z": 2.6052117614,
				"element": "H" 
			}
		],
		 "valence_orbital": [ 
			{
				"type": "occ",
				"energy": -0.33007,
				"method": "rhf"
			},
			{
				"type": "occ",
				"energy": -0.26403,
				"method": "rhf"
			},
			{
				"type": "occ",
				"energy": -0.26015,
				"method": "rhf"
			},
			{
				"type": "occ",
				"energy": -0.25807,
				"method": "rhf"
			},
			{
				"type": "occ",
				"energy": -0.2049,
				"method": "rhf"
			},
			{
				"type": "unocc",
				"energy": -0.02979,
				"method": "rhf"
			},
			{
				"type": "unocc",
				"energy": -0.00851,
				"method": "rhf"
			},
			{
				"type": "unocc",
				"energy": 0.00311,
				"method": "rhf"
			},
			{
				"type": "unocc",
				"energy": 0.04751,
				"method": "rhf"
			},
			{
				"type": "unocc",
				"energy": 0.05631,
				"method": "rhf"
			}
		],
		"cosmo_sigma_profile": { 
			"0.0": 0.0,
			"0.0": 0.0,
			"0.0": 0.0,
			"0.0": 0.0,
			"0.0": 0.0,
			"0.0": 0.0,
			"0.0": 0.0,
			"0.0": 0.0,
			"0.0": 0.0,
			"0.0": 0.0,
			"0.0": 0.0,
			"0.0": 0.0,
			"0.0": 0.0,
			"0.0": 0.0,
			"0.0": 0.0,
			"0.0": 0.0,
			"0.0": 0.0,
			"0.0": 0.0,
			"0.0": 0.0,
			"0.0": 0.0,
			"0.0": 0.0,
			"0.0": 0.0,
			"0.0": 0.0,
			"0.0": 0.0,
			"0.0": 0.0,
			"0.0": 0.0,
			"0.0": 0.0,
			"0.0": 0.0,
			"0.0": 0.0,
			"0.0": 0.0,
			"0.0": 0.0,
			"0.0": 0.0,
			"0.0": 0.0,
			"0.0": 0.0,
			"0.0": 0.0,
			"0.0": 0.0,
			"0.0": 0.0,
			"0.0": 0.0,
			"0.0": 0.0,
			"0.0": 0.0,
			"0.0": 0.0,
			"0.0": 0.0,
			"0.0": 0.0,
			"0.0": 0.0,
			"0.0": 0.0,
			"0.0": 0.0,
			"0.0": 0.0,
			"0.0": 0.0,
			"0.0": 0.0,
			"0.0": 0.0,
			"0.0": 0.0
		}
	}
}
