{
	 "smiles": "[O-][N+](=O)C1=CC=CC(=C1Cl)[N+]([O-])=O", 
	 "Tm": 360.15, 
	 "num_atms": 16, 
	 "gaussian": { 
		 "optdone": 1, 
		 "sigma_profile": "yes", 
		 "theory": "DFT", 
		 "functional": "B3LYP", 
		 "basiset": "6-31G**", 
		 "properties": { 
			 "R2extent": 2896.7685, 
			 "electric_dipole_moment_norm": 4.29742649734, 
			 "electric_quadrupole_moment_norm": 14.0449402213, 
			 "total_energy": -1100.80275672, 
			 "HOMO_LUMO_gap": 0.18466, 
			 "cosmo_polarized_energy": -12.48, 
			 "cosmo_cavitation_energy": 24.14, 
			 "cosmo_dispersion_energy": -17.71, 
			 "cosmo_repulsion_energy": 1.4, 
			 "cosmo_total_nonelectrostatic_energy": 7.83, 
			 "SMD_solvation_energy": 8.58 
		},
		"coords": [
			{
				"x": -3.3587352341,
				"y": 0.433553639,
				"z": 1.0124200443,
				"element": "O" 
			},
			{
				"x": -2.8100493596,
				"y": -0.458404375,
				"z": 0.3782497826,
				"element": "N" 
			},
			{
				"x": -3.3744558651,
				"y": -1.4078486116,
				"z": -0.162274818,
				"element": "O" 
			},
			{
				"x": -1.3456167335,
				"y": -0.376244343,
				"z": 0.1904876021,
				"element": "C" 
			},
			{
				"x": -0.8755088196,
				"y": -0.7510432163,
				"z": -1.0671078268,
				"element": "C" 
			},
			{
				"x": 0.4843776565,
				"y": -0.6879429591,
				"z": -1.3500796326,
				"element": "C" 
			},
			{
				"x": 1.368387199,
				"y": -0.2728424185,
				"z": -0.3603412251,
				"element": "C" 
			},
			{
				"x": 0.8880193703,
				"y": 0.0997826297,
				"z": 0.8940217451,
				"element": "C" 
			},
			{
				"x": -0.4807696827,
				"y": 0.0555529712,
				"z": 1.2111168636,
				"element": "C" 
			},
			{
				"x": -1.0526764287,
				"y": 0.3735348107,
				"z": 2.8117863431,
				"element": "Cl" 
			},
			{
				"x": 1.9096231911,
				"y": 0.547535952,
				"z": 1.8648017192,
				"element": "N" 
			},
			{
				"x": 2.9825042107,
				"y": -0.0528546393,
				"z": 1.8399363034,
				"element": "O" 
			},
			{
				"x": 1.6384550547,
				"y": 1.4986828825,
				"z": 2.5863209037,
				"element": "O" 
			},
			{
				"x": -1.59411249,
				"y": -1.0940714493,
				"z": -1.8016232053,
				"element": "H" 
			},
			{
				"x": 0.8530900126,
				"y": -0.9700979072,
				"z": -2.3297950669,
				"element": "H" 
			},
			{
				"x": 2.4373679185,
				"y": -0.2348929658,
				"z": -0.5318195324,
				"element": "H" 
			}
		],
		 "valence_orbital": [ 
			{
				"type": "occ",
				"energy": -0.32696,
				"method": "rhf"
			},
			{
				"type": "occ",
				"energy": -0.31571,
				"method": "rhf"
			},
			{
				"type": "occ",
				"energy": -0.31328,
				"method": "rhf"
			},
			{
				"type": "occ",
				"energy": -0.2953,
				"method": "rhf"
			},
			{
				"type": "occ",
				"energy": -0.29372,
				"method": "rhf"
			},
			{
				"type": "unocc",
				"energy": -0.10906,
				"method": "rhf"
			},
			{
				"type": "unocc",
				"energy": -0.10622,
				"method": "rhf"
			},
			{
				"type": "unocc",
				"energy": -0.05025,
				"method": "rhf"
			},
			{
				"type": "unocc",
				"energy": -0.03562,
				"method": "rhf"
			},
			{
				"type": "unocc",
				"energy": -0.00931,
				"method": "rhf"
			}
		],
		"cosmo_sigma_profile": { 
			"-0.025": 0.0,
			"-0.024": 0.0,
			"-0.023": 0.0,
			"-0.022": 0.0,
			"-0.021": 0.0,
			"-0.02": 0.0,
			"-0.019": 0.0,
			"-0.018": 0.0,
			"-0.017": 0.0,
			"-0.016": 0.0,
			"-0.015": 0.0,
			"-0.014": 0.0,
			"-0.013": 0.0,
			"-0.012": 0.0,
			"-0.011": 0.0,
			"-0.01": 1.88133467784,
			"-0.009": 8.87865300762,
			"-0.008": 10.5361961495,
			"-0.007": 8.12227083278,
			"-0.006": 6.86629155813,
			"-0.005": 8.50255710749,
			"-0.004": 13.1012395052,
			"-0.003": 14.264959284,
			"-0.002": 12.5122641301,
			"-0.001": 15.3763740133,
			"0.0": 8.37990808137,
			"0.001": 9.12222948472,
			"0.002": 8.36940369661,
			"0.003": 7.10577378743,
			"0.004": 7.60467871039,
			"0.005": 8.3673874865,
			"0.006": 15.1399744133,
			"0.007": 20.4491088851,
			"0.008": 8.68382010931,
			"0.009": 3.88753435301,
			"0.01": 0.062304365415,
			"0.011": 0.0,
			"0.012": 0.0,
			"0.013": 0.0,
			"0.014": 0.0,
			"0.015": 0.0,
			"0.016": 0.0,
			"0.017": 0.0,
			"0.018": 0.0,
			"0.019": 0.0,
			"0.02": 0.0,
			"0.021": 0.0,
			"0.022": 0.0,
			"0.023": 0.0,
			"0.024": 0.0,
			"0.025": 0.0
		}
	}
}
