{
	 "smiles": "CO", 
	 "Tm": 175.35, 
	 "num_atms": 6, 
	 "gaussian": { 
		 "optdone": 1, 
		 "sigma_profile": "yes", 
		 "theory": "DFT", 
		 "functional": "B3LYP", 
		 "basiset": "6-31G**", 
		 "properties": { 
			 "R2extent": 131.2367, 
			 "electric_dipole_moment_norm": 1.65567178511, 
			 "electric_quadrupole_moment_norm": 2.72688116903, 
			 "total_energy": -115.721857908, 
			 "HOMO_LUMO_gap": 0.3431, 
			 "cosmo_polarized_energy": -5.59, 
			 "cosmo_cavitation_energy": 8.77, 
			 "cosmo_dispersion_energy": -6.72, 
			 "cosmo_repulsion_energy": 0.71, 
			 "cosmo_total_nonelectrostatic_energy": 2.75, 
			 "SMD_solvation_energy": 2.58 
		},
		"coords": [
			{
				"x": 0.3239016131,
				"y": 0.531346037,
				"z": -1.1626160672,
				"element": "C" 
			},
			{
				"x": 0.3237953804,
				"y": -0.6167993548,
				"z": -0.3309716128,
				"element": "O" 
			},
			{
				"x": -0.5805329838,
				"y": 0.6069126656,
				"z": -1.7853913322,
				"element": "H" 
			},
			{
				"x": 0.351377256,
				"y": 1.4020452287,
				"z": -0.502098952,
				"element": "H" 
			},
			{
				"x": 1.2030206196,
				"y": 0.5793430654,
				"z": -1.8232278662,
				"element": "H" 
			},
			{
				"x": 0.2997381146,
				"y": -1.3942476418,
				"z": -0.9017941696,
				"element": "H" 
			}
		],
		 "valence_orbital": [ 
			{
				"type": "occ",
				"energy": -0.5008,
				"method": "rhf"
			},
			{
				"type": "occ",
				"energy": -0.43302,
				"method": "rhf"
			},
			{
				"type": "occ",
				"energy": -0.41857,
				"method": "rhf"
			},
			{
				"type": "occ",
				"energy": -0.32858,
				"method": "rhf"
			},
			{
				"type": "occ",
				"energy": -0.26426,
				"method": "rhf"
			},
			{
				"type": "unocc",
				"energy": 0.07884,
				"method": "rhf"
			},
			{
				"type": "unocc",
				"energy": 0.1322,
				"method": "rhf"
			},
			{
				"type": "unocc",
				"energy": 0.16717,
				"method": "rhf"
			},
			{
				"type": "unocc",
				"energy": 0.17538,
				"method": "rhf"
			},
			{
				"type": "unocc",
				"energy": 0.20694,
				"method": "rhf"
			}
		],
		"cosmo_sigma_profile": { 
			"-0.025": 0.0,
			"-0.024": 0.0,
			"-0.023": 0.0,
			"-0.022": 0.0,
			"-0.021": 0.0,
			"-0.02": 0.0,
			"-0.019": 0.0,
			"-0.018": 0.0,
			"-0.017": 0.0,
			"-0.016": 0.188257302525,
			"-0.015": 1.16441476996,
			"-0.014": 0.724244392334,
			"-0.013": 1.22836789293,
			"-0.012": 1.21474046221,
			"-0.011": 0.617272364005,
			"-0.01": 0.368323872831,
			"-0.009": 0.941952370148,
			"-0.008": 0.437654910939,
			"-0.007": 0.804380338411,
			"-0.006": 1.49533214281,
			"-0.005": 1.36483485174,
			"-0.004": 5.04601969436,
			"-0.003": 9.7755884786,
			"-0.002": 10.0615449611,
			"-0.001": 7.76518733981,
			"0.0": 2.88107658318,
			"0.001": 2.03468746069,
			"0.002": 1.65774322241,
			"0.003": 1.48262598666,
			"0.004": 1.00826570207,
			"0.005": 0.498982466805,
			"0.006": 1.29197954988,
			"0.007": 1.62385976765,
			"0.008": 1.54605391488,
			"0.009": 1.18690990109,
			"0.01": 1.40935125707,
			"0.011": 0.906821252687,
			"0.012": 1.13428567275,
			"0.013": 2.30616891581,
			"0.014": 2.0871752517,
			"0.015": 1.74748452398,
			"0.016": 0.0,
			"0.017": 0.0,
			"0.018": 0.0,
			"0.019": 0.0,
			"0.02": 0.0,
			"0.021": 0.0,
			"0.022": 0.0,
			"0.023": 0.0,
			"0.024": 0.0,
			"0.025": 0.0
		}
	}
}
