{
	 "smiles": "ClCS(=O)(=O)C1=CC=CC=C1", 
	 "Tm": 327.15, 
	 "num_atms": 18, 
	 "gaussian": { 
		 "optdone": 1, 
		 "sigma_profile": "yes", 
		 "theory": "DFT", 
		 "functional": "B3LYP", 
		 "basiset": "6-31G**", 
		 "properties": { 
			 "R2extent": 2562.8961, 
			 "electric_dipole_moment_norm": 6.31208645853, 
			 "electric_quadrupole_moment_norm": 5.7408476935, 
			 "total_energy": -1279.71399762, 
			 "HOMO_LUMO_gap": 0.22592, 
			 "cosmo_polarized_energy": -15.57, 
			 "cosmo_cavitation_energy": 25.44, 
			 "cosmo_dispersion_energy": -18.99, 
			 "cosmo_repulsion_energy": 1.48, 
			 "cosmo_total_nonelectrostatic_energy": 7.94, 
			 "SMD_solvation_energy": 3.46 
		},
		"coords": [
			{
				"x": -3.2274512935,
				"y": -1.4526986557,
				"z": -1.4456897345,
				"element": "Cl" 
			},
			{
				"x": -1.6832860615,
				"y": -1.2574001085,
				"z": -0.579997576,
				"element": "C" 
			},
			{
				"x": -1.1201282537,
				"y": 0.5005313696,
				"z": -0.5792339024,
				"element": "S" 
			},
			{
				"x": -0.7926403586,
				"y": 0.8671595554,
				"z": -1.961850208,
				"element": "O" 
			},
			{
				"x": -2.071234327,
				"y": 1.2757960643,
				"z": 0.2255350831,
				"element": "O" 
			},
			{
				"x": 0.4137108721,
				"y": 0.343191178,
				"z": 0.346703255,
				"element": "C" 
			},
			{
				"x": 1.6019999207,
				"y": 0.0931323647,
				"z": -0.344121372,
				"element": "C" 
			},
			{
				"x": 2.7865687173,
				"y": -0.0359843409,
				"z": 0.3812241089,
				"element": "C" 
			},
			{
				"x": 2.7723396169,
				"y": 0.0878284392,
				"z": 1.7730161959,
				"element": "C" 
			},
			{
				"x": 1.5776764958,
				"y": 0.3488815537,
				"z": 2.4492201857,
				"element": "C" 
			},
			{
				"x": 0.3856014821,
				"y": 0.4804417435,
				"z": 1.7367348068,
				"element": "C" 
			},
			{
				"x": -1.8110519703,
				"y": -1.5645093219,
				"z": 0.4583327005,
				"element": "H" 
			},
			{
				"x": -0.9147330939,
				"y": -1.8509726542,
				"z": -1.0757475038,
				"element": "H" 
			},
			{
				"x": 1.5925387576,
				"y": 0.0254375034,
				"z": -1.4269059643,
				"element": "H" 
			},
			{
				"x": 3.7201415197,
				"y": -0.2248072886,
				"z": -0.1398130721,
				"element": "H" 
			},
			{
				"x": 3.6978039822,
				"y": -0.011641568,
				"z": 2.3325305624,
				"element": "H" 
			},
			{
				"x": 1.5752309538,
				"y": 0.4580469467,
				"z": 3.529390746,
				"element": "H" 
			},
			{
				"x": -0.5495869597,
				"y": 0.7075672193,
				"z": 2.2376716887,
				"element": "H" 
			}
		],
		 "valence_orbital": [ 
			{
				"type": "occ",
				"energy": -0.31768,
				"method": "rhf"
			},
			{
				"type": "occ",
				"energy": -0.30552,
				"method": "rhf"
			},
			{
				"type": "occ",
				"energy": -0.2923,
				"method": "rhf"
			},
			{
				"type": "occ",
				"energy": -0.28641,
				"method": "rhf"
			},
			{
				"type": "occ",
				"energy": -0.28242,
				"method": "rhf"
			},
			{
				"type": "unocc",
				"energy": -0.0565,
				"method": "rhf"
			},
			{
				"type": "unocc",
				"energy": -0.03317,
				"method": "rhf"
			},
			{
				"type": "unocc",
				"energy": 0.0096,
				"method": "rhf"
			},
			{
				"type": "unocc",
				"energy": 0.04832,
				"method": "rhf"
			},
			{
				"type": "unocc",
				"energy": 0.06994,
				"method": "rhf"
			}
		],
		"cosmo_sigma_profile": { 
			"-0.025": 0.0,
			"-0.024": 0.0,
			"-0.023": 0.0,
			"-0.022": 0.0,
			"-0.021": 0.0,
			"-0.02": 0.0,
			"-0.019": 0.0,
			"-0.018": 0.0,
			"-0.017": 0.0,
			"-0.016": 0.0,
			"-0.015": 0.0,
			"-0.014": 0.0,
			"-0.013": 0.0,
			"-0.012": 0.0,
			"-0.011": 1.89346989862,
			"-0.01": 5.09789466975,
			"-0.009": 4.42753285192,
			"-0.008": 5.046160285,
			"-0.007": 12.8430723289,
			"-0.006": 14.8068269854,
			"-0.005": 12.8137188775,
			"-0.004": 8.7751377858,
			"-0.003": 10.1065230914,
			"-0.002": 9.3229516924,
			"-0.001": 9.91608116874,
			"0.0": 11.2487351682,
			"0.001": 14.3249468658,
			"0.002": 16.9154790343,
			"0.003": 16.8233114029,
			"0.004": 12.0783392729,
			"0.005": 7.18483905373,
			"0.006": 2.8846088074,
			"0.007": 3.69305661088,
			"0.008": 2.64800193149,
			"0.009": 4.93396331813,
			"0.01": 7.48977518893,
			"0.011": 8.94499086277,
			"0.012": 1.90607319808,
			"0.013": 0.0,
			"0.014": 0.0,
			"0.015": 0.0,
			"0.016": 0.0,
			"0.017": 0.0,
			"0.018": 0.0,
			"0.019": 0.0,
			"0.02": 0.0,
			"0.021": 0.0,
			"0.022": 0.0,
			"0.023": 0.0,
			"0.024": 0.0,
			"0.025": 0.0
		}
	}
}
