{
	 "smiles": "NC1=C(N)C=C(C=C1)S(=O)(=O)NC1=C(Cl)C=CC=C1", 
	 "Tm": 477.15, 
	 "num_atms": 31, 
	 "gaussian": { 
		 "optdone": 1, 
		 "sigma_profile": "yes", 
		 "theory": "DFT", 
		 "functional": "B3LYP", 
		 "basiset": "6-31G**", 
		 "properties": { 
			 "R2extent": 7494.4706, 
			 "electric_dipole_moment_norm": 6.86001205611, 
			 "electric_quadrupole_moment_norm": 24.2152763852, 
			 "total_energy": -1637.53042689, 
			 "HOMO_LUMO_gap": 0.18654, 
			 "cosmo_polarized_energy": -20.91, 
			 "cosmo_cavitation_energy": 38.03, 
			 "cosmo_dispersion_energy": -27.69, 
			 "cosmo_repulsion_energy": 2.11, 
			 "cosmo_total_nonelectrostatic_energy": 12.45, 
			 "SMD_solvation_energy": 5.25 
		},
		"coords": [
			{
				"x": 3.5097453303,
				"y": 2.7009021468,
				"z": -1.8273228048,
				"element": "N" 
			},
			{
				"x": 2.8870437622,
				"y": 1.4919636567,
				"z": -1.5174182499,
				"element": "C" 
			},
			{
				"x": 2.0445255423,
				"y": 0.9100207232,
				"z": -2.4988938596,
				"element": "C" 
			},
			{
				"x": 1.8542132312,
				"y": 1.619788772,
				"z": -3.6998488665,
				"element": "N" 
			},
			{
				"x": 1.4088537635,
				"y": -0.2989240584,
				"z": -2.2240620558,
				"element": "C" 
			},
			{
				"x": 1.615642808,
				"y": -0.9328427022,
				"z": -0.9943557242,
				"element": "C" 
			},
			{
				"x": 2.4793337942,
				"y": -0.3957233334,
				"z": -0.0398741426,
				"element": "C" 
			},
			{
				"x": 3.1025788573,
				"y": 0.8196413783,
				"z": -0.3073887528,
				"element": "C" 
			},
			{
				"x": 0.8343356681,
				"y": -2.5068825593,
				"z": -0.7004596441,
				"element": "S" 
			},
			{
				"x": 1.8325109506,
				"y": -3.4684392027,
				"z": -0.2257197123,
				"element": "O" 
			},
			{
				"x": -0.0284540497,
				"y": -2.7973958864,
				"z": -1.8478851575,
				"element": "O" 
			},
			{
				"x": -0.1045874692,
				"y": -2.2379790795,
				"z": 0.7002222236,
				"element": "N" 
			},
			{
				"x": -1.4329609766,
				"y": -1.7784780731,
				"z": 0.7084582487,
				"element": "C" 
			},
			{
				"x": -2.3224105453,
				"y": -2.2130441617,
				"z": 1.7089394843,
				"element": "C" 
			},
			{
				"x": -1.7770066034,
				"y": -3.3841279684,
				"z": 2.9107571919,
				"element": "Cl" 
			},
			{
				"x": -3.6287283611,
				"y": -1.7374216982,
				"z": 1.7834010684,
				"element": "C" 
			},
			{
				"x": -4.083914938,
				"y": -0.8143877753,
				"z": 0.8439496097,
				"element": "C" 
			},
			{
				"x": -3.2169349298,
				"y": -0.3717295801,
				"z": -0.1558867659,
				"element": "C" 
			},
			{
				"x": -1.9078535966,
				"y": -0.8391597162,
				"z": -0.2206965738,
				"element": "C" 
			},
			{
				"x": 3.9409357249,
				"y": 3.1671106935,
				"z": -1.0400464428,
				"element": "H" 
			},
			{
				"x": 2.9190112536,
				"y": 3.3303298978,
				"z": -2.3605355975,
				"element": "H" 
			},
			{
				"x": 2.7320365945,
				"y": 1.9237403296,
				"z": -4.1120818134,
				"element": "H" 
			},
			{
				"x": 1.3118329016,
				"y": 1.106016381,
				"z": -4.3838280702,
				"element": "H" 
			},
			{
				"x": 0.7638733902,
				"y": -0.7651217437,
				"z": -2.9621874403,
				"element": "H" 
			},
			{
				"x": 2.6497382173,
				"y": -0.907053536,
				"z": 0.9006294253,
				"element": "H" 
			},
			{
				"x": 3.7590709645,
				"y": 1.2650371758,
				"z": 0.4355836596,
				"element": "H" 
			},
			{
				"x": 0.1064069949,
				"y": -2.9690594548,
				"z": 1.3734252254,
				"element": "H" 
			},
			{
				"x": -4.2779923472,
				"y": -2.0991839187,
				"z": 2.5730890076,
				"element": "H" 
			},
			{
				"x": -5.1037437297,
				"y": -0.4474707071,
				"z": 0.896857355,
				"element": "H" 
			},
			{
				"x": -3.5571378397,
				"y": 0.3496697555,
				"z": -0.8925277315,
				"element": "H" 
			},
			{
				"x": -1.2438643627,
				"y": -0.478095755,
				"z": -0.995893094,
				"element": "H" 
			}
		],
		 "valence_orbital": [ 
			{
				"type": "occ",
				"energy": -0.29691,
				"method": "rhf"
			},
			{
				"type": "occ",
				"energy": -0.25136,
				"method": "rhf"
			},
			{
				"type": "occ",
				"energy": -0.24791,
				"method": "rhf"
			},
			{
				"type": "occ",
				"energy": -0.22671,
				"method": "rhf"
			},
			{
				"type": "occ",
				"energy": -0.21074,
				"method": "rhf"
			},
			{
				"type": "unocc",
				"energy": -0.0242,
				"method": "rhf"
			},
			{
				"type": "unocc",
				"energy": -0.01117,
				"method": "rhf"
			},
			{
				"type": "unocc",
				"energy": -0.00914,
				"method": "rhf"
			},
			{
				"type": "unocc",
				"energy": -0.00446,
				"method": "rhf"
			},
			{
				"type": "unocc",
				"energy": 0.02414,
				"method": "rhf"
			}
		],
		"cosmo_sigma_profile": { 
			"-0.025": 0.0,
			"-0.024": 0.0,
			"-0.023": 0.0,
			"-0.022": 0.0,
			"-0.021": 0.0,
			"-0.02": 0.0,
			"-0.019": 0.0,
			"-0.018": 0.0,
			"-0.017": 0.0,
			"-0.016": 0.0,
			"-0.015": 0.0,
			"-0.014": 0.0,
			"-0.013": 1.39697121074,
			"-0.012": 4.09906537488,
			"-0.011": 5.7019185848,
			"-0.01": 6.35562817711,
			"-0.009": 7.13539108223,
			"-0.008": 7.49874260342,
			"-0.007": 10.7199525666,
			"-0.006": 15.1748331903,
			"-0.005": 16.731408257,
			"-0.004": 14.493222739,
			"-0.003": 14.4022505934,
			"-0.002": 15.3300671373,
			"-0.001": 16.6262928616,
			"0.0": 18.3585826587,
			"0.001": 18.3345820768,
			"0.002": 22.926531218,
			"0.003": 28.0867391133,
			"0.004": 29.488954747,
			"0.005": 11.1929799439,
			"0.006": 3.64174639542,
			"0.007": 5.97301346736,
			"0.008": 4.70326347585,
			"0.009": 5.14901206551,
			"0.01": 9.19864100844,
			"0.011": 9.67096285805,
			"0.012": 2.43492828614,
			"0.013": 0.932764152112,
			"0.014": 0.176351851064,
			"0.015": 0.0,
			"0.016": 0.0,
			"0.017": 0.0,
			"0.018": 0.0,
			"0.019": 0.0,
			"0.02": 0.0,
			"0.021": 0.0,
			"0.022": 0.0,
			"0.023": 0.0,
			"0.024": 0.0,
			"0.025": 0.0
		}
	}
}
