{
	 "smiles": "BrC1=CC2=C(OC3=C(O2)C=CC=C3)C=C1Br", 
	 "Tm": 431.15, 
	 "num_atms": 22, 
	 "gaussian": { 
		 "optdone": 1, 
		 "sigma_profile": "yes", 
		 "theory": "DFT", 
		 "functional": "B3LYP", 
		 "basiset": "6-31G**", 
		 "properties": { 
			 "R2extent": 9800.1271, 
			 "electric_dipole_moment_norm": 3.02581775724, 
			 "electric_quadrupole_moment_norm": 6.82736974684, 
			 "total_energy": -5754.12455498, 
			 "HOMO_LUMO_gap": 0.17631, 
			 "cosmo_polarized_energy": -5.57, 
			 "cosmo_cavitation_energy": 31.23, 
			 "cosmo_dispersion_energy": -24.42, 
			 "cosmo_repulsion_energy": 1.86, 
			 "cosmo_total_nonelectrostatic_energy": 8.67, 
			 "SMD_solvation_energy": 3.56 
		},
		"coords": [
			{
				"x": 1.5410121685,
				"y": -3.9371954157,
				"z": -2.6021411458,
				"element": "Br" 
			},
			{
				"x": 0.3271770696,
				"y": -2.7948169175,
				"z": -1.6899690681,
				"element": "C" 
			},
			{
				"x": 0.854240422,
				"y": -1.7020671443,
				"z": -0.9960166084,
				"element": "C" 
			},
			{
				"x": 0.0144080549,
				"y": -0.8342608973,
				"z": -0.3122357881,
				"element": "C" 
			},
			{
				"x": -1.3684251061,
				"y": -1.0528022943,
				"z": -0.3162497833,
				"element": "C" 
			},
			{
				"x": -2.2386491103,
				"y": -0.2199846848,
				"z": 0.346637366,
				"element": "O" 
			},
			{
				"x": -1.672156366,
				"y": 0.8483139756,
				"z": 1.0192854547,
				"element": "C" 
			},
			{
				"x": -0.2904862041,
				"y": 1.0666473785,
				"z": 1.0233118137,
				"element": "C" 
			},
			{
				"x": 0.5816251799,
				"y": 0.2257048863,
				"z": 0.3548643273,
				"element": "O" 
			},
			{
				"x": 0.2432806572,
				"y": 2.1506905151,
				"z": 1.7101188538,
				"element": "C" 
			},
			{
				"x": -0.6051775312,
				"y": 3.0220610248,
				"z": 2.396822726,
				"element": "C" 
			},
			{
				"x": -1.9835433278,
				"y": 2.8042572039,
				"z": 2.3927968052,
				"element": "C" 
			},
			{
				"x": -2.5180693981,
				"y": 1.7143514945,
				"z": 1.702057894,
				"element": "C" 
			},
			{
				"x": -1.8958263327,
				"y": -2.1367180185,
				"z": -1.0039475733,
				"element": "C" 
			},
			{
				"x": -1.0535603122,
				"y": -3.0130653969,
				"z": -1.6939301157,
				"element": "C" 
			},
			{
				"x": -1.850736008,
				"y": -4.4734012404,
				"z": -2.6117232153,
				"element": "Br" 
			},
			{
				"x": 1.9214232568,
				"y": -1.5186689622,
				"z": -0.9828547621,
				"element": "H" 
			},
			{
				"x": 1.3184946828,
				"y": 2.2946068516,
				"z": 1.695405732,
				"element": "H" 
			},
			{
				"x": -0.1846911121,
				"y": 3.8672058474,
				"z": 2.9317533664,
				"element": "H" 
			},
			{
				"x": -2.647166774,
				"y": 3.478094102,
				"z": 2.9245703899,
				"element": "H" 
			},
			{
				"x": -3.5851707694,
				"y": 1.5197533101,
				"z": 1.6810854851,
				"element": "H" 
			},
			{
				"x": -2.9676031397,
				"y": -2.2914056181,
				"z": -0.9969421538,
				"element": "H" 
			}
		],
		 "valence_orbital": [ 
			{
				"type": "occ",
				"energy": -0.2795,
				"method": "rhf"
			},
			{
				"type": "occ",
				"energy": -0.27145,
				"method": "rhf"
			},
			{
				"type": "occ",
				"energy": -0.25905,
				"method": "rhf"
			},
			{
				"type": "occ",
				"energy": -0.2477,
				"method": "rhf"
			},
			{
				"type": "occ",
				"energy": -0.20908,
				"method": "rhf"
			},
			{
				"type": "unocc",
				"energy": -0.03277,
				"method": "rhf"
			},
			{
				"type": "unocc",
				"energy": -0.02715,
				"method": "rhf"
			},
			{
				"type": "unocc",
				"energy": -0.02425,
				"method": "rhf"
			},
			{
				"type": "unocc",
				"energy": -0.01473,
				"method": "rhf"
			},
			{
				"type": "unocc",
				"energy": 0.0115,
				"method": "rhf"
			}
		],
		"cosmo_sigma_profile": { 
			"-0.025": 0.0,
			"-0.024": 0.0,
			"-0.023": 0.0,
			"-0.022": 0.0,
			"-0.021": 0.0,
			"-0.02": 0.0,
			"-0.019": 0.0,
			"-0.018": 0.0,
			"-0.017": 0.0,
			"-0.016": 0.0,
			"-0.015": 0.0,
			"-0.014": 0.0,
			"-0.013": 0.0,
			"-0.012": 0.0,
			"-0.011": 0.0,
			"-0.01": 0.0,
			"-0.009": 0.87884459117,
			"-0.008": 2.80201353019,
			"-0.007": 6.41319398555,
			"-0.006": 10.5982493634,
			"-0.005": 14.9512128808,
			"-0.004": 16.0510674257,
			"-0.003": 13.3407467782,
			"-0.002": 15.8990651375,
			"-0.001": 17.180332468,
			"0.0": 29.8760978542,
			"0.001": 35.0959689262,
			"0.002": 25.9386146456,
			"0.003": 25.5622548574,
			"0.004": 28.7848281188,
			"0.005": 10.1539085579,
			"0.006": 3.99102841077,
			"0.007": 1.67068626249,
			"0.008": 0.0,
			"0.009": 0.0,
			"0.01": 0.0,
			"0.011": 0.0,
			"0.012": 0.0,
			"0.013": 0.0,
			"0.014": 0.0,
			"0.015": 0.0,
			"0.016": 0.0,
			"0.017": 0.0,
			"0.018": 0.0,
			"0.019": 0.0,
			"0.02": 0.0,
			"0.021": 0.0,
			"0.022": 0.0,
			"0.023": 0.0,
			"0.024": 0.0,
			"0.025": 0.0
		}
	}
}
