{
	 "smiles": "CC(C)(C)C1=NC(=CS1)C(O)=O", 
	 "Tm": 400.15, 
	 "num_atms": 23, 
	 "gaussian": { 
		 "optdone": 1, 
		 "sigma_profile": "yes", 
		 "theory": "DFT", 
		 "functional": "B3LYP", 
		 "basiset": "6-31G**", 
		 "properties": { 
			 "R2extent": 4490.208, 
			 "electric_dipole_moment_norm": 5.8478564808, 
			 "electric_quadrupole_moment_norm": 27.8307426868, 
			 "total_energy": -914.889361386, 
			 "HOMO_LUMO_gap": 0.20614, 
			 "cosmo_polarized_energy": -11.13, 
			 "cosmo_cavitation_energy": 27.75, 
			 "cosmo_dispersion_energy": -20.16, 
			 "cosmo_repulsion_energy": 1.56, 
			 "cosmo_total_nonelectrostatic_energy": 9.15, 
			 "SMD_solvation_energy": 5.5 
		},
		"coords": [
			{
				"x": -0.6931938391,
				"y": -0.1203648081,
				"z": -2.6845589776,
				"element": "C" 
			},
			{
				"x": 0.0054717264,
				"y": -0.8955824168,
				"z": -1.5428164988,
				"element": "C" 
			},
			{
				"x": 1.0610976844,
				"y": 0.0141209318,
				"z": -0.8711915375,
				"element": "C" 
			},
			{
				"x": 0.695186301,
				"y": -2.1470230008,
				"z": -2.1170807439,
				"element": "C" 
			},
			{
				"x": -1.0268745284,
				"y": -1.322525876,
				"z": -0.5118811344,
				"element": "C" 
			},
			{
				"x": -1.285131723,
				"y": -2.5496998764,
				"z": -0.1635771953,
				"element": "N" 
			},
			{
				"x": -2.2733209888,
				"y": -2.6242358901,
				"z": 0.7979322301,
				"element": "C" 
			},
			{
				"x": -2.7948927167,
				"y": -1.4307549306,
				"z": 1.206422524,
				"element": "C" 
			},
			{
				"x": -2.0246365973,
				"y": -0.1409921925,
				"z": 0.3593736986,
				"element": "S" 
			},
			{
				"x": -2.6901054863,
				"y": -3.9622737689,
				"z": 1.3083679395,
				"element": "C" 
			},
			{
				"x": -2.0208866606,
				"y": -4.9884730004,
				"z": 0.7435157081,
				"element": "O" 
			},
			{
				"x": -3.5457546423,
				"y": -4.1230984731,
				"z": 2.147830474,
				"element": "O" 
			},
			{
				"x": -1.1780260201,
				"y": 0.7905230052,
				"z": -2.3188535225,
				"element": "H" 
			},
			{
				"x": 0.0438053622,
				"y": 0.1731701789,
				"z": -3.4391263248,
				"element": "H" 
			},
			{
				"x": -1.4540316872,
				"y": -0.7372681912,
				"z": -3.1725505987,
				"element": "H" 
			},
			{
				"x": 0.6120026465,
				"y": 0.9279206264,
				"z": -0.4689503516,
				"element": "H" 
			},
			{
				"x": 1.5653891862,
				"y": -0.5057143803,
				"z": -0.0508003698,
				"element": "H" 
			},
			{
				"x": 1.8181884744,
				"y": 0.3087934117,
				"z": -1.6051696962,
				"element": "H" 
			},
			{
				"x": -0.0254660465,
				"y": -2.8110466071,
				"z": -2.6013909141,
				"element": "H" 
			},
			{
				"x": 1.2015966164,
				"y": -2.716538462,
				"z": -1.3334988026,
				"element": "H" 
			},
			{
				"x": 1.4395644066,
				"y": -1.8437986469,
				"z": -2.8600948087,
				"element": "H" 
			},
			{
				"x": -3.5692352225,
				"y": -1.2696096561,
				"z": 1.9421012701,
				"element": "H" 
			},
			{
				"x": -1.3899462453,
				"y": -4.6085279766,
				"z": 0.103297632,
				"element": "H" 
			}
		],
		 "valence_orbital": [ 
			{
				"type": "occ",
				"energy": -0.309,
				"method": "rhf"
			},
			{
				"type": "occ",
				"energy": -0.30561,
				"method": "rhf"
			},
			{
				"type": "occ",
				"energy": -0.30176,
				"method": "rhf"
			},
			{
				"type": "occ",
				"energy": -0.26874,
				"method": "rhf"
			},
			{
				"type": "occ",
				"energy": -0.26044,
				"method": "rhf"
			},
			{
				"type": "unocc",
				"energy": -0.0543,
				"method": "rhf"
			},
			{
				"type": "unocc",
				"energy": -0.01573,
				"method": "rhf"
			},
			{
				"type": "unocc",
				"energy": 0.00054,
				"method": "rhf"
			},
			{
				"type": "unocc",
				"energy": 0.06576,
				"method": "rhf"
			},
			{
				"type": "unocc",
				"energy": 0.08114,
				"method": "rhf"
			}
		],
		"cosmo_sigma_profile": { 
			"-0.025": 0.0,
			"-0.024": 0.0,
			"-0.023": 0.0,
			"-0.022": 0.0,
			"-0.021": 0.0,
			"-0.02": 0.0,
			"-0.019": 0.0,
			"-0.018": 0.0,
			"-0.017": 0.0,
			"-0.016": 0.0,
			"-0.015": 0.0,
			"-0.014": 0.0555117036832,
			"-0.013": 0.302656173317,
			"-0.012": 0.830577345819,
			"-0.011": 0.865365507364,
			"-0.01": 2.24977262905,
			"-0.009": 1.96758987176,
			"-0.008": 2.58249071538,
			"-0.007": 2.12850816545,
			"-0.006": 2.90045481639,
			"-0.005": 5.26946400125,
			"-0.004": 16.6694477101,
			"-0.003": 25.6978808218,
			"-0.002": 23.7942808615,
			"-0.001": 27.645614313,
			"0.0": 35.439640484,
			"0.001": 23.5607709603,
			"0.002": 8.04491143317,
			"0.003": 4.55130638209,
			"0.004": 5.15295060279,
			"0.005": 3.09739726342,
			"0.006": 2.45906582245,
			"0.007": 2.1443292309,
			"0.008": 3.03177432669,
			"0.009": 2.81738942633,
			"0.01": 5.86134774848,
			"0.011": 4.51131507728,
			"0.012": 5.18580956159,
			"0.013": 1.79788687643,
			"0.014": 0.125390381211,
			"0.015": 0.0,
			"0.016": 0.0,
			"0.017": 0.0,
			"0.018": 0.0,
			"0.019": 0.0,
			"0.02": 0.0,
			"0.021": 0.0,
			"0.022": 0.0,
			"0.023": 0.0,
			"0.024": 0.0,
			"0.025": 0.0
		}
	}
}
