{
	 "smiles": "O=C1CCCCCCCCCCCN1", 
	 "Tm": 425.15, 
	 "num_atms": 37, 
	 "gaussian": { 
		 "optdone": 1, 
		 "sigma_profile": "yes", 
		 "theory": "DFT", 
		 "functional": "B3LYP", 
		 "basiset": "6-31G**", 
		 "properties": { 
			 "R2extent": 4075.4111, 
			 "electric_dipole_moment_norm": 3.6241127866, 
			 "electric_quadrupole_moment_norm": 18.0338742831, 
			 "total_energy": -601.146831811, 
			 "HOMO_LUMO_gap": 0.26991, 
			 "cosmo_polarized_energy": -10.68, 
			 "cosmo_cavitation_energy": 33.71, 
			 "cosmo_dispersion_energy": -24.34, 
			 "cosmo_repulsion_energy": 1.92, 
			 "cosmo_total_nonelectrostatic_energy": 11.29, 
			 "SMD_solvation_energy": 4.42 
		},
		"coords": [
			{
				"x": -3.7554521961,
				"y": -2.8372695756,
				"z": 0.3265955196,
				"element": "O" 
			},
			{
				"x": -3.1047044751,
				"y": -1.8852156404,
				"z": 0.745875241,
				"element": "C" 
			},
			{
				"x": -1.9113792041,
				"y": -2.1033012568,
				"z": 1.6727835821,
				"element": "C" 
			},
			{
				"x": -1.0070857818,
				"y": -3.2323594579,
				"z": 1.1317357958,
				"element": "C" 
			},
			{
				"x": 0.389241423,
				"y": -3.3048731166,
				"z": 1.7782533415,
				"element": "C" 
			},
			{
				"x": 1.306900998,
				"y": -2.0905471786,
				"z": 1.5239119451,
				"element": "C" 
			},
			{
				"x": 1.6130042579,
				"y": -1.8186039667,
				"z": 0.0412894249,
				"element": "C" 
			},
			{
				"x": 2.2855056187,
				"y": -0.4498581472,
				"z": -0.2447696037,
				"element": "C" 
			},
			{
				"x": 1.7321342901,
				"y": 0.2740055866,
				"z": -1.4951770199,
				"element": "C" 
			},
			{
				"x": 0.4895017861,
				"y": 1.1558752479,
				"z": -1.2429697474,
				"element": "C" 
			},
			{
				"x": -0.6602356481,
				"y": 0.4522800941,
				"z": -0.510692591,
				"element": "C" 
			},
			{
				"x": -1.9037525312,
				"y": 1.3142644246,
				"z": -0.2649433529,
				"element": "C" 
			},
			{
				"x": -2.8816669581,
				"y": 0.6887477447,
				"z": 0.7497985618,
				"element": "C" 
			},
			{
				"x": -3.4343546276,
				"y": -0.6057075623,
				"z": 0.3633392019,
				"element": "N" 
			},
			{
				"x": -2.304704331,
				"y": -2.3877510245,
				"z": 2.6572018323,
				"element": "H" 
			},
			{
				"x": -1.3380799717,
				"y": -1.1875715518,
				"z": 1.8184336026,
				"element": "H" 
			},
			{
				"x": -0.9044915643,
				"y": -3.1165421651,
				"z": 0.0473871909,
				"element": "H" 
			},
			{
				"x": -1.5282990528,
				"y": -4.1841519259,
				"z": 1.2684021411,
				"element": "H" 
			},
			{
				"x": 0.28182225,
				"y": -3.4429111624,
				"z": 2.8628568218,
				"element": "H" 
			},
			{
				"x": 0.888054694,
				"y": -4.2107005158,
				"z": 1.4080465384,
				"element": "H" 
			},
			{
				"x": 2.2467658736,
				"y": -2.2364312868,
				"z": 2.0725853163,
				"element": "H" 
			},
			{
				"x": 0.8526671739,
				"y": -1.192300716,
				"z": 1.9641717914,
				"element": "H" 
			},
			{
				"x": 0.6826651019,
				"y": -1.8770864415,
				"z": -0.5289194466,
				"element": "H" 
			},
			{
				"x": 2.2417003858,
				"y": -2.6281157606,
				"z": -0.3522947018,
				"element": "H" 
			},
			{
				"x": 2.1720555291,
				"y": 0.2109024604,
				"z": 0.6262128343,
				"element": "H" 
			},
			{
				"x": 3.3659552062,
				"y": -0.5932631526,
				"z": -0.3611874314,
				"element": "H" 
			},
			{
				"x": 2.5131888208,
				"y": 0.9150782709,
				"z": -1.9223881651,
				"element": "H" 
			},
			{
				"x": 1.5027169157,
				"y": -0.4731918505,
				"z": -2.2674323745,
				"element": "H" 
			},
			{
				"x": 0.794722248,
				"y": 2.0303787451,
				"z": -0.6501596148,
				"element": "H" 
			},
			{
				"x": 0.1334926938,
				"y": 1.5513564825,
				"z": -2.2040626353,
				"element": "H" 
			},
			{
				"x": -0.2854957505,
				"y": 0.1121952855,
				"z": 0.4604007139,
				"element": "H" 
			},
			{
				"x": -0.9583636478,
				"y": -0.4497480404,
				"z": -1.0585093857,
				"element": "H" 
			},
			{
				"x": -1.6084803191,
				"y": 2.2967706086,
				"z": 0.1294621865,
				"element": "H" 
			},
			{
				"x": -2.4267051451,
				"y": 1.5065324925,
				"z": -1.2114171689,
				"element": "H" 
			},
			{
				"x": -3.722173182,
				"y": 1.3742485895,
				"z": 0.912933477,
				"element": "H" 
			},
			{
				"x": -2.3850782326,
				"y": 0.5843673574,
				"z": 1.7185315379,
				"element": "H" 
			},
			{
				"x": -4.2251926476,
				"y": -0.5996018946,
				"z": -0.269285359,
				"element": "H" 
			}
		],
		 "valence_orbital": [ 
			{
				"type": "occ",
				"energy": -0.31351,
				"method": "rhf"
			},
			{
				"type": "occ",
				"energy": -0.305,
				"method": "rhf"
			},
			{
				"type": "occ",
				"energy": -0.29893,
				"method": "rhf"
			},
			{
				"type": "occ",
				"energy": -0.24046,
				"method": "rhf"
			},
			{
				"type": "occ",
				"energy": -0.23592,
				"method": "rhf"
			},
			{
				"type": "unocc",
				"energy": 0.03399,
				"method": "rhf"
			},
			{
				"type": "unocc",
				"energy": 0.07418,
				"method": "rhf"
			},
			{
				"type": "unocc",
				"energy": 0.08653,
				"method": "rhf"
			},
			{
				"type": "unocc",
				"energy": 0.09252,
				"method": "rhf"
			},
			{
				"type": "unocc",
				"energy": 0.09593,
				"method": "rhf"
			}
		],
		"cosmo_sigma_profile": { 
			"-0.025": 0.0,
			"-0.024": 0.0,
			"-0.023": 0.0,
			"-0.022": 0.0,
			"-0.021": 0.0,
			"-0.02": 0.0,
			"-0.019": 0.0,
			"-0.018": 0.0,
			"-0.017": 0.0,
			"-0.016": 0.0,
			"-0.015": 0.0,
			"-0.014": 0.0,
			"-0.013": 0.325482762896,
			"-0.012": 1.12325086485,
			"-0.011": 1.12037132417,
			"-0.01": 0.923247661633,
			"-0.009": 0.811392019056,
			"-0.008": 0.855103861723,
			"-0.007": 1.17391970867,
			"-0.006": 3.80548580884,
			"-0.005": 6.85008812685,
			"-0.004": 9.85847940862,
			"-0.003": 19.9562802698,
			"-0.002": 39.1949207592,
			"-0.001": 46.8014489223,
			"0.0": 49.016470409,
			"0.001": 35.8027538136,
			"0.002": 12.6695884886,
			"0.003": 3.1452259629,
			"0.004": 1.59851448875,
			"0.005": 1.70821292463,
			"0.006": 1.45962405533,
			"0.007": 1.25192389957,
			"0.008": 1.40051209099,
			"0.009": 1.85341741174,
			"0.01": 0.632075173819,
			"0.011": 1.82808236429,
			"0.012": 1.37136042485,
			"0.013": 1.99076873726,
			"0.014": 4.46257538737,
			"0.015": 4.99317326635,
			"0.016": 0.495933261431,
			"0.017": 0.0,
			"0.018": 0.0,
			"0.019": 0.0,
			"0.02": 0.0,
			"0.021": 0.0,
			"0.022": 0.0,
			"0.023": 0.0,
			"0.024": 0.0,
			"0.025": 0.0
		}
	}
}
