{
	 "smiles": "CC(=O)N1CCC(CCC(O)=O)CC1", 
	 "Tm": 393.15, 
	 "num_atms": 31, 
	 "gaussian": { 
		 "optdone": 1, 
		 "sigma_profile": "yes", 
		 "theory": "DFT", 
		 "functional": "B3LYP", 
		 "basiset": "6-31G**", 
		 "properties": { 
			 "R2extent": 5040.5507, 
			 "electric_dipole_moment_norm": 3.20068184298, 
			 "electric_quadrupole_moment_norm": 40.9093479548, 
			 "total_energy": -671.760505614, 
			 "HOMO_LUMO_gap": 0.24152, 
			 "cosmo_polarized_energy": -23.62, 
			 "cosmo_cavitation_energy": 32.55, 
			 "cosmo_dispersion_energy": -23.2, 
			 "cosmo_repulsion_energy": 1.85, 
			 "cosmo_total_nonelectrostatic_energy": 11.2, 
			 "SMD_solvation_energy": 6.13 
		},
		"coords": [
			{
				"x": -4.6397255371,
				"y": 0.3491568413,
				"z": -0.0850855339,
				"element": "C" 
			},
			{
				"x": -3.5904923385,
				"y": -0.6771720174,
				"z": 0.3231681633,
				"element": "C" 
			},
			{
				"x": -3.884483618,
				"y": -1.8591805216,
				"z": 0.4772672437,
				"element": "O" 
			},
			{
				"x": -2.3049814838,
				"y": -0.2291774058,
				"z": 0.5140465458,
				"element": "N" 
			},
			{
				"x": -1.8733360333,
				"y": 1.1587904686,
				"z": 0.3414391951,
				"element": "C" 
			},
			{
				"x": -0.7029954036,
				"y": 1.4734861606,
				"z": 1.2816928297,
				"element": "C" 
			},
			{
				"x": 0.5351906936,
				"y": 0.5707493371,
				"z": 1.0197490313,
				"element": "C" 
			},
			{
				"x": 1.6269210151,
				"y": 1.2607127035,
				"z": 0.1797593915,
				"element": "C" 
			},
			{
				"x": 2.3798998965,
				"y": 2.3774959184,
				"z": 0.9295059363,
				"element": "C" 
			},
			{
				"x": 3.5113255268,
				"y": 2.9991101893,
				"z": 0.1205582854,
				"element": "C" 
			},
			{
				"x": 3.1425621018,
				"y": 3.6020741777,
				"z": -1.0458610842,
				"element": "O" 
			},
			{
				"x": 4.6710036026,
				"y": 2.9808251448,
				"z": 0.445336387,
				"element": "O" 
			},
			{
				"x": 0.0941283628,
				"y": -0.7499723768,
				"z": 0.346237063,
				"element": "C" 
			},
			{
				"x": -1.2727691532,
				"y": -1.2261962903,
				"z": 0.8358030014,
				"element": "C" 
			},
			{
				"x": -4.8317224582,
				"y": 1.0675463454,
				"z": 0.7199215071,
				"element": "H" 
			},
			{
				"x": -4.3454389548,
				"y": 0.9160856531,
				"z": -0.9742139853,
				"element": "H" 
			},
			{
				"x": -5.5609975921,
				"y": -0.1941234029,
				"z": -0.2931581579,
				"element": "H" 
			},
			{
				"x": -1.5803693037,
				"y": 1.3560159273,
				"z": -0.7029029759,
				"element": "H" 
			},
			{
				"x": -2.7057249481,
				"y": 1.8287458983,
				"z": 0.5655239503,
				"element": "H" 
			},
			{
				"x": -1.051211662,
				"y": 1.3394947242,
				"z": 2.3116081473,
				"element": "H" 
			},
			{
				"x": -0.4466491917,
				"y": 2.5344570091,
				"z": 1.1809268138,
				"element": "H" 
			},
			{
				"x": 0.9781810643,
				"y": 0.3203538535,
				"z": 1.9927327589,
				"element": "H" 
			},
			{
				"x": 2.3558821143,
				"y": 0.5077083318,
				"z": -0.1443886914,
				"element": "H" 
			},
			{
				"x": 1.1690353184,
				"y": 1.6514116089,
				"z": -0.7417226591,
				"element": "H" 
			},
			{
				"x": 1.6864014051,
				"y": 3.1757749661,
				"z": 1.2272802753,
				"element": "H" 
			},
			{
				"x": 2.8309006902,
				"y": 1.9808436758,
				"z": 1.8418780388,
				"element": "H" 
			},
			{
				"x": 2.1842595046,
				"y": 3.5460951633,
				"z": -1.1650685503,
				"element": "H" 
			},
			{
				"x": 0.8396182162,
				"y": -1.5310739401,
				"z": 0.5295957327,
				"element": "H" 
			},
			{
				"x": 0.0497271207,
				"y": -0.6143637918,
				"z": -0.7427459794,
				"element": "H" 
			},
			{
				"x": -1.2475292816,
				"y": -1.4126118454,
				"z": 1.919641872,
				"element": "H" 
			},
			{
				"x": -1.5646096733,
				"y": -2.1669625058,
				"z": 0.3652754477,
				"element": "H" 
			}
		],
		 "valence_orbital": [ 
			{
				"type": "occ",
				"energy": -0.33175,
				"method": "rhf"
			},
			{
				"type": "occ",
				"energy": -0.31749,
				"method": "rhf"
			},
			{
				"type": "occ",
				"energy": -0.27091,
				"method": "rhf"
			},
			{
				"type": "occ",
				"energy": -0.24353,
				"method": "rhf"
			},
			{
				"type": "occ",
				"energy": -0.23637,
				"method": "rhf"
			},
			{
				"type": "unocc",
				"energy": 0.00515,
				"method": "rhf"
			},
			{
				"type": "unocc",
				"energy": 0.02807,
				"method": "rhf"
			},
			{
				"type": "unocc",
				"energy": 0.0364,
				"method": "rhf"
			},
			{
				"type": "unocc",
				"energy": 0.06199,
				"method": "rhf"
			},
			{
				"type": "unocc",
				"energy": 0.08136,
				"method": "rhf"
			}
		],
		"cosmo_sigma_profile": { 
			"-0.025": 0.0,
			"-0.024": 0.0,
			"-0.023": 0.0,
			"-0.022": 0.0,
			"-0.021": 0.0,
			"-0.02": 0.0,
			"-0.019": 0.0,
			"-0.018": 0.685800459973,
			"-0.017": 0.687460700411,
			"-0.016": 1.21520493648,
			"-0.015": 1.42125806806,
			"-0.014": 0.991478612675,
			"-0.013": 0.622635585134,
			"-0.012": 0.877080466302,
			"-0.011": 1.52751389243,
			"-0.01": 1.11396880527,
			"-0.009": 1.37476692619,
			"-0.008": 1.42944446415,
			"-0.007": 3.2088635261,
			"-0.006": 7.42823003863,
			"-0.005": 12.6009409604,
			"-0.004": 28.5012783097,
			"-0.003": 40.9850572453,
			"-0.002": 37.1546786776,
			"-0.001": 23.0261683009,
			"0.0": 14.0047402353,
			"0.001": 5.91954419683,
			"0.002": 6.18820857159,
			"0.003": 4.26196283013,
			"0.004": 2.03578467739,
			"0.005": 3.67026786427,
			"0.006": 4.84797076836,
			"0.007": 3.57296721671,
			"0.008": 3.31829506851,
			"0.009": 5.35379724085,
			"0.01": 5.15932958678,
			"0.011": 7.19357335494,
			"0.012": 7.95500186159,
			"0.013": 4.91257338022,
			"0.014": 4.55368641037,
			"0.015": 4.14372418342,
			"0.016": 0.659558555106,
			"0.017": 0.0,
			"0.018": 0.0,
			"0.019": 0.0,
			"0.02": 0.0,
			"0.021": 0.0,
			"0.022": 0.0,
			"0.023": 0.0,
			"0.024": 0.0,
			"0.025": 0.0
		}
	}
}
