{
	 "smiles": "OCC1=CC=C(C=C1)C1=NC=CS1", 
	 "Tm": 368.65, 
	 "num_atms": 22, 
	 "gaussian": { 
		 "optdone": 1, 
		 "sigma_profile": "yes", 
		 "theory": "DFT", 
		 "functional": "B3LYP", 
		 "basiset": "6-31G**", 
		 "properties": { 
			 "R2extent": 5046.8322, 
			 "electric_dipole_moment_norm": 1.118206658, 
			 "electric_quadrupole_moment_norm": 11.9747559687, 
			 "total_energy": -914.636578231, 
			 "HOMO_LUMO_gap": 0.16654, 
			 "cosmo_polarized_energy": -10.29, 
			 "cosmo_cavitation_energy": 27.68, 
			 "cosmo_dispersion_energy": -21.17, 
			 "cosmo_repulsion_energy": 1.61, 
			 "cosmo_total_nonelectrostatic_energy": 8.12, 
			 "SMD_solvation_energy": 3.53 
		},
		"coords": [
			{
				"x": 3.2384722229,
				"y": 2.1399803761,
				"z": 0.9913838437,
				"element": "O" 
			},
			{
				"x": 2.683899279,
				"y": 2.1250009754,
				"z": -0.3156107788,
				"element": "C" 
			},
			{
				"x": 1.1952966774,
				"y": 1.8372018897,
				"z": -0.3462538072,
				"element": "C" 
			},
			{
				"x": 0.6036218651,
				"y": 1.2266949888,
				"z": -1.4600645333,
				"element": "C" 
			},
			{
				"x": -0.7660395234,
				"y": 0.9921288096,
				"z": -1.5052289797,
				"element": "C" 
			},
			{
				"x": -1.5870780149,
				"y": 1.3570693513,
				"z": -0.4232706764,
				"element": "C" 
			},
			{
				"x": -0.9927338187,
				"y": 1.9624484674,
				"z": 0.6954272477,
				"element": "C" 
			},
			{
				"x": 0.3782480463,
				"y": 2.1999702195,
				"z": 0.7312531476,
				"element": "C" 
			},
			{
				"x": -3.0286653697,
				"y": 1.0884741643,
				"z": -0.5003024399,
				"element": "C" 
			},
			{
				"x": -3.6164822401,
				"y": 0.5305192093,
				"z": -1.5278668477,
				"element": "N" 
			},
			{
				"x": -4.9666480229,
				"y": 0.4010010872,
				"z": -1.3314512238,
				"element": "C" 
			},
			{
				"x": -5.4474619732,
				"y": 0.8605091235,
				"z": -0.1385258035,
				"element": "C" 
			},
			{
				"x": -4.1464997747,
				"y": 1.4977192651,
				"z": 0.8105900316,
				"element": "S" 
			},
			{
				"x": 3.0776415123,
				"y": 1.2718408615,
				"z": 1.3850419715,
				"element": "H" 
			},
			{
				"x": 3.2096230654,
				"y": 1.4134334721,
				"z": -0.9720267431,
				"element": "H" 
			},
			{
				"x": 2.8783397804,
				"y": 3.1262594899,
				"z": -0.7195135594,
				"element": "H" 
			},
			{
				"x": 1.2240815865,
				"y": 0.9276233332,
				"z": -2.3019586765,
				"element": "H" 
			},
			{
				"x": -1.2229430307,
				"y": 0.5180227927,
				"z": -2.3666824814,
				"element": "H" 
			},
			{
				"x": -1.6022644618,
				"y": 2.254167639,
				"z": 1.5466240378,
				"element": "H" 
			},
			{
				"x": 0.8310116275,
				"y": 2.666856199,
				"z": 1.6002068282,
				"element": "H" 
			},
			{
				"x": -5.5735618357,
				"y": -0.0472542177,
				"z": -2.1097211686,
				"element": "H" 
			},
			{
				"x": -6.4641575972,
				"y": 0.8614325032,
				"z": 0.2271506114,
				"element": "H" 
			}
		],
		 "valence_orbital": [ 
			{
				"type": "occ",
				"energy": -0.28233,
				"method": "rhf"
			},
			{
				"type": "occ",
				"energy": -0.27391,
				"method": "rhf"
			},
			{
				"type": "occ",
				"energy": -0.27166,
				"method": "rhf"
			},
			{
				"type": "occ",
				"energy": -0.25692,
				"method": "rhf"
			},
			{
				"type": "occ",
				"energy": -0.22035,
				"method": "rhf"
			},
			{
				"type": "unocc",
				"energy": -0.05381,
				"method": "rhf"
			},
			{
				"type": "unocc",
				"energy": -0.00811,
				"method": "rhf"
			},
			{
				"type": "unocc",
				"energy": 0.01803,
				"method": "rhf"
			},
			{
				"type": "unocc",
				"energy": 0.0204,
				"method": "rhf"
			},
			{
				"type": "unocc",
				"energy": 0.06149,
				"method": "rhf"
			}
		],
		"cosmo_sigma_profile": { 
			"-0.025": 0.0,
			"-0.024": 0.0,
			"-0.023": 0.0,
			"-0.022": 0.0,
			"-0.021": 0.0,
			"-0.02": 0.0,
			"-0.019": 0.0,
			"-0.018": 0.0,
			"-0.017": 0.0,
			"-0.016": 0.367207878895,
			"-0.015": 0.730455529687,
			"-0.014": 0.836781637304,
			"-0.013": 1.11815063421,
			"-0.012": 0.917149890464,
			"-0.011": 0.476404396816,
			"-0.01": 1.03483635812,
			"-0.009": 2.57414435772,
			"-0.008": 3.48542048564,
			"-0.007": 5.10010998144,
			"-0.006": 10.4268521515,
			"-0.005": 16.0237406341,
			"-0.004": 15.6028776851,
			"-0.003": 16.2071083254,
			"-0.002": 14.0893450676,
			"-0.001": 11.5637725484,
			"0.0": 13.6932989606,
			"0.001": 18.2885166884,
			"0.002": 22.5187612974,
			"0.003": 21.502064776,
			"0.004": 17.3715218955,
			"0.005": 7.58651115609,
			"0.006": 3.45879440452,
			"0.007": 3.02790195708,
			"0.008": 2.39604892783,
			"0.009": 2.13931400457,
			"0.01": 2.6725632129,
			"0.011": 2.02104472336,
			"0.012": 2.75550184901,
			"0.013": 1.9272204661,
			"0.014": 1.79596466419,
			"0.015": 0.00695126913439,
			"0.016": 0.0,
			"0.017": 0.0,
			"0.018": 0.0,
			"0.019": 0.0,
			"0.02": 0.0,
			"0.021": 0.0,
			"0.022": 0.0,
			"0.023": 0.0,
			"0.024": 0.0,
			"0.025": 0.0
		}
	}
}
