{
	 "smiles": "CCCCCCCCCCCCCCS", 
	 "Tm": 280.15, 
	 "num_atms": 45, 
	 "gaussian": { 
		 "optdone": 1, 
		 "sigma_profile": "yes", 
		 "theory": "DFT", 
		 "functional": "B3LYP", 
		 "basiset": "6-31G**", 
		 "properties": { 
			 "R2extent": 10371.958, 
			 "electric_dipole_moment_norm": 2.01905506859, 
			 "electric_quadrupole_moment_norm": 22.8451862492, 
			 "total_energy": -949.794486546, 
			 "HOMO_LUMO_gap": 0.2633, 
			 "cosmo_polarized_energy": -4.62, 
			 "cosmo_cavitation_energy": 45.37, 
			 "cosmo_dispersion_energy": -31.53, 
			 "cosmo_repulsion_energy": 2.54, 
			 "cosmo_total_nonelectrostatic_energy": 16.37, 
			 "SMD_solvation_energy": 5.4 
		},
		"coords": [
			{
				"x": -0.0718226702,
				"y": -1.7212937363,
				"z": 4.4290727933,
				"element": "C" 
			},
			{
				"x": -1.0838413018,
				"y": -1.6692730254,
				"z": 3.278797582,
				"element": "C" 
			},
			{
				"x": -1.2451212039,
				"y": -2.9938351052,
				"z": 2.5129247597,
				"element": "C" 
			},
			{
				"x": -0.0108948771,
				"y": -3.5456968139,
				"z": 1.7723328438,
				"element": "C" 
			},
			{
				"x": 0.5017391637,
				"y": -2.7108055654,
				"z": 0.5783187636,
				"element": "C" 
			},
			{
				"x": 1.5567429,
				"y": -1.6436740615,
				"z": 0.9241692753,
				"element": "C" 
			},
			{
				"x": 2.1238371954,
				"y": -0.8720392714,
				"z": -0.2893668233,
				"element": "C" 
			},
			{
				"x": 1.4267917483,
				"y": 0.45607998,
				"z": -0.6390344163,
				"element": "C" 
			},
			{
				"x": -0.0429747105,
				"y": 0.349791331,
				"z": -1.0714819212,
				"element": "C" 
			},
			{
				"x": -0.6827453041,
				"y": 1.6898420853,
				"z": -1.4773359871,
				"element": "C" 
			},
			{
				"x": -0.1239835088,
				"y": 2.296982395,
				"z": -2.7737780428,
				"element": "C" 
			},
			{
				"x": -0.868408641,
				"y": 3.5516546419,
				"z": -3.2620286011,
				"element": "C" 
			},
			{
				"x": -0.7277376382,
				"y": 4.7729616722,
				"z": -2.3390189829,
				"element": "C" 
			},
			{
				"x": -1.4298892445,
				"y": 6.0083388021,
				"z": -2.9057862974,
				"element": "C" 
			},
			{
				"x": -1.2414128364,
				"y": 7.5338872548,
				"z": -1.8877732035,
				"element": "S" 
			},
			{
				"x": -0.3299569679,
				"y": -2.5114807295,
				"z": 5.1439935332,
				"element": "H" 
			},
			{
				"x": -0.0479633918,
				"y": -0.7735134518,
				"z": 4.9772099188,
				"element": "H" 
			},
			{
				"x": 0.9440088857,
				"y": -1.9192674961,
				"z": 4.0722549375,
				"element": "H" 
			},
			{
				"x": -2.0655809733,
				"y": -1.3907486138,
				"z": 3.6838937455,
				"element": "H" 
			},
			{
				"x": -0.8126914351,
				"y": -0.8643652414,
				"z": 2.5842323815,
				"element": "H" 
			},
			{
				"x": -2.0594019058,
				"y": -2.8788806046,
				"z": 1.7840074449,
				"element": "H" 
			},
			{
				"x": -1.5858153998,
				"y": -3.7601480539,
				"z": 3.2235788389,
				"element": "H" 
			},
			{
				"x": 0.8119531674,
				"y": -3.7139703526,
				"z": 2.4803490265,
				"element": "H" 
			},
			{
				"x": -0.2843411614,
				"y": -4.5419407689,
				"z": 1.4021267092,
				"element": "H" 
			},
			{
				"x": 0.9573101862,
				"y": -3.3920196519,
				"z": -0.1530524506,
				"element": "H" 
			},
			{
				"x": -0.352835632,
				"y": -2.2551797733,
				"z": 0.0623385197,
				"element": "H" 
			},
			{
				"x": 2.3842389178,
				"y": -2.1551621538,
				"z": 1.4338109877,
				"element": "H" 
			},
			{
				"x": 1.1595085089,
				"y": -0.9269294298,
				"z": 1.6535359188,
				"element": "H" 
			},
			{
				"x": 2.1208344952,
				"y": -1.5287303693,
				"z": -1.1712125918,
				"element": "H" 
			},
			{
				"x": 3.1791374479,
				"y": -0.6423574662,
				"z": -0.0958408075,
				"element": "H" 
			},
			{
				"x": 2.0051056052,
				"y": 0.9377529727,
				"z": -1.4377109278,
				"element": "H" 
			},
			{
				"x": 1.4924316552,
				"y": 1.1301776213,
				"z": 0.2276817021,
				"element": "H" 
			},
			{
				"x": -0.1281594388,
				"y": -0.3595412505,
				"z": -1.907619248,
				"element": "H" 
			},
			{
				"x": -0.6315152715,
				"y": -0.0759338255,
				"z": -0.24993163,
				"element": "H" 
			},
			{
				"x": -0.5698413267,
				"y": 2.4022755346,
				"z": -0.6490948264,
				"element": "H" 
			},
			{
				"x": -1.764125184,
				"y": 1.5390398079,
				"z": -1.6022811306,
				"element": "H" 
			},
			{
				"x": -0.1698815333,
				"y": 1.5352942623,
				"z": -3.5642175708,
				"element": "H" 
			},
			{
				"x": 0.9389390168,
				"y": 2.5414504079,
				"z": -2.6493944478,
				"element": "H" 
			},
			{
				"x": -1.9337470153,
				"y": 3.3132888202,
				"z": -3.3926736736,
				"element": "H" 
			},
			{
				"x": -0.492431222,
				"y": 3.8186643605,
				"z": -4.259012624,
				"element": "H" 
			},
			{
				"x": -1.1444591355,
				"y": 4.5477166142,
				"z": -1.3496704554,
				"element": "H" 
			},
			{
				"x": 0.3335785122,
				"y": 5.0022817263,
				"z": -2.1830516241,
				"element": "H" 
			},
			{
				"x": -2.4957250987,
				"y": 5.8191028817,
				"z": -3.0660880529,
				"element": "H" 
			},
			{
				"x": -1.0038689789,
				"y": 6.2828640827,
				"z": -3.8763970799,
				"element": "H" 
			},
			{
				"x": -1.8552843976,
				"y": 7.0652395575,
				"z": -0.7817762652,
				"element": "H" 
			}
		],
		 "valence_orbital": [ 
			{
				"type": "occ",
				"energy": -0.30895,
				"method": "rhf"
			},
			{
				"type": "occ",
				"energy": -0.30599,
				"method": "rhf"
			},
			{
				"type": "occ",
				"energy": -0.29701,
				"method": "rhf"
			},
			{
				"type": "occ",
				"energy": -0.29401,
				"method": "rhf"
			},
			{
				"type": "occ",
				"energy": -0.23309,
				"method": "rhf"
			},
			{
				"type": "unocc",
				"energy": 0.03021,
				"method": "rhf"
			},
			{
				"type": "unocc",
				"energy": 0.07199,
				"method": "rhf"
			},
			{
				"type": "unocc",
				"energy": 0.07517,
				"method": "rhf"
			},
			{
				"type": "unocc",
				"energy": 0.08965,
				"method": "rhf"
			},
			{
				"type": "unocc",
				"energy": 0.09628,
				"method": "rhf"
			}
		],
		"cosmo_sigma_profile": { 
			"-0.025": 0.0,
			"-0.024": 0.0,
			"-0.023": 0.0,
			"-0.022": 0.0,
			"-0.021": 0.0,
			"-0.02": 0.0,
			"-0.019": 0.0,
			"-0.018": 0.0,
			"-0.017": 0.0,
			"-0.016": 0.0,
			"-0.015": 0.0,
			"-0.014": 0.0,
			"-0.013": 0.0,
			"-0.012": 0.0,
			"-0.011": 0.0,
			"-0.01": 0.0,
			"-0.009": 0.437665965359,
			"-0.008": 2.10357078903,
			"-0.007": 2.01455342195,
			"-0.006": 2.32458336871,
			"-0.005": 5.26207507098,
			"-0.004": 6.90684601367,
			"-0.003": 11.1170722639,
			"-0.002": 42.5914157232,
			"-0.001": 78.6758800857,
			"0.0": 79.2526984765,
			"0.001": 63.7526794814,
			"0.002": 28.078744748,
			"0.003": 3.69194657266,
			"0.004": 3.48053438849,
			"0.005": 3.22262283084,
			"0.006": 3.71619949314,
			"0.007": 3.48079411192,
			"0.008": 2.83967030806,
			"0.009": 2.22460976666,
			"0.01": 2.24884397788,
			"0.011": 2.0936261506,
			"0.012": 0.210730740432,
			"0.013": 0.0,
			"0.014": 0.0,
			"0.015": 0.0,
			"0.016": 0.0,
			"0.017": 0.0,
			"0.018": 0.0,
			"0.019": 0.0,
			"0.02": 0.0,
			"0.021": 0.0,
			"0.022": 0.0,
			"0.023": 0.0,
			"0.024": 0.0,
			"0.025": 0.0
		}
	}
}
