{
	 "smiles": "ON1C(=O)CCC1=O", 
	 "Tm": 369.95, 
	 "num_atms": 13, 
	 "gaussian": { 
		 "optdone": 1, 
		 "sigma_profile": "yes", 
		 "theory": "DFT", 
		 "functional": "B3LYP", 
		 "basiset": "6-31G**", 
		 "properties": { 
			 "R2extent": 897.9913, 
			 "electric_dipole_moment_norm": 3.38047544289, 
			 "electric_quadrupole_moment_norm": 11.3429440407, 
			 "total_energy": -435.823497744, 
			 "HOMO_LUMO_gap": 0.22755, 
			 "cosmo_polarized_energy": -13.97, 
			 "cosmo_cavitation_energy": 17.31, 
			 "cosmo_dispersion_energy": -13.25, 
			 "cosmo_repulsion_energy": 1.13, 
			 "cosmo_total_nonelectrostatic_energy": 5.18, 
			 "SMD_solvation_energy": 5.5 
		},
		"coords": [
			{
				"x": -0.0928380701,
				"y": -2.2321775394,
				"z": -0.5852392157,
				"element": "O" 
			},
			{
				"x": -0.1079694287,
				"y": -0.9755728834,
				"z": -0.0245661133,
				"element": "N" 
			},
			{
				"x": -0.0834144646,
				"y": 0.1959142377,
				"z": -0.7804833761,
				"element": "C" 
			},
			{
				"x": -0.0466230802,
				"y": 0.2649743343,
				"z": -1.9851213703,
				"element": "O" 
			},
			{
				"x": -0.1143339891,
				"y": 1.3295233256,
				"z": 0.2480401139,
				"element": "C" 
			},
			{
				"x": -0.1525744778,
				"y": 0.655612826,
				"z": 1.6380951454,
				"element": "C" 
			},
			{
				"x": -0.1478259475,
				"y": -0.8337699315,
				"z": 1.3464442766,
				"element": "C" 
			},
			{
				"x": -0.171721135,
				"y": -1.7969515479,
				"z": 2.094416511,
				"element": "O" 
			},
			{
				"x": -0.1179694945,
				"y": -2.798743785,
				"z": 0.2150994122,
				"element": "H" 
			},
			{
				"x": -0.9903989993,
				"y": 1.9531516243,
				"z": 0.0507931276,
				"element": "H" 
			},
			{
				"x": 0.7684212838,
				"y": 1.9572671818,
				"z": 0.1002558703,
				"element": "H" 
			},
			{
				"x": -1.0470162744,
				"y": 0.9046668987,
				"z": 2.2160345907,
				"element": "H" 
			},
			{
				"x": 0.7122640772,
				"y": 0.9003052588,
				"z": 2.2613310277,
				"element": "H" 
			}
		],
		 "valence_orbital": [ 
			{
				"type": "occ",
				"energy": -0.36808,
				"method": "rhf"
			},
			{
				"type": "occ",
				"energy": -0.36236,
				"method": "rhf"
			},
			{
				"type": "occ",
				"energy": -0.30502,
				"method": "rhf"
			},
			{
				"type": "occ",
				"energy": -0.27328,
				"method": "rhf"
			},
			{
				"type": "occ",
				"energy": -0.26196,
				"method": "rhf"
			},
			{
				"type": "unocc",
				"energy": -0.03441,
				"method": "rhf"
			},
			{
				"type": "unocc",
				"energy": 0.02394,
				"method": "rhf"
			},
			{
				"type": "unocc",
				"energy": 0.0607,
				"method": "rhf"
			},
			{
				"type": "unocc",
				"energy": 0.07975,
				"method": "rhf"
			},
			{
				"type": "unocc",
				"energy": 0.12148,
				"method": "rhf"
			}
		],
		"cosmo_sigma_profile": { 
			"-0.025": 0.0,
			"-0.024": 0.0,
			"-0.023": 0.0,
			"-0.022": 0.0,
			"-0.021": 0.0,
			"-0.02": 0.0,
			"-0.019": 0.0,
			"-0.018": 0.0,
			"-0.017": 0.0,
			"-0.016": 0.199915276517,
			"-0.015": 0.876096632803,
			"-0.014": 0.549239731196,
			"-0.013": 0.587225305846,
			"-0.012": 0.328528192128,
			"-0.011": 0.356998435882,
			"-0.01": 1.32219912481,
			"-0.009": 1.53466878196,
			"-0.008": 8.34748283092,
			"-0.007": 17.7701934843,
			"-0.006": 10.8834875081,
			"-0.005": 9.40279376512,
			"-0.004": 9.79763401155,
			"-0.003": 7.48552009271,
			"-0.002": 4.26914446984,
			"-0.001": 2.83412574219,
			"0.0": 4.38627995121,
			"0.001": 2.97230424845,
			"0.002": 2.73087536881,
			"0.003": 2.23380888311,
			"0.004": 3.16500040558,
			"0.005": 3.82427581838,
			"0.006": 4.56878921348,
			"0.007": 3.73060271276,
			"0.008": 4.40831935232,
			"0.009": 5.67134770698,
			"0.01": 7.65175602788,
			"0.011": 9.09780013899,
			"0.012": 5.86282790859,
			"0.013": 0.573428350553,
			"0.014": 0.0,
			"0.015": 0.0,
			"0.016": 0.0,
			"0.017": 0.0,
			"0.018": 0.0,
			"0.019": 0.0,
			"0.02": 0.0,
			"0.021": 0.0,
			"0.022": 0.0,
			"0.023": 0.0,
			"0.024": 0.0,
			"0.025": 0.0
		}
	}
}
