{
	 "smiles": "NCC1(O)CCC1", 
	 "Tm": 338.15, 
	 "num_atms": 18, 
	 "gaussian": { 
		 "optdone": 1, 
		 "sigma_profile": "yes", 
		 "theory": "DFT", 
		 "functional": "B3LYP", 
		 "basiset": "6-31G**", 
		 "properties": { 
			 "R2extent": 1154.5278, 
			 "electric_dipole_moment_norm": 2.91235174558, 
			 "electric_quadrupole_moment_norm": 7.34328484195, 
			 "total_energy": -327.107037344, 
			 "HOMO_LUMO_gap": 0.30276, 
			 "cosmo_polarized_energy": -7.84, 
			 "cosmo_cavitation_energy": 19.48, 
			 "cosmo_dispersion_energy": -14.69, 
			 "cosmo_repulsion_energy": 1.26, 
			 "cosmo_total_nonelectrostatic_energy": 6.04, 
			 "SMD_solvation_energy": 2.33 
		},
		"coords": [
			{
				"x": -1.2804739799,
				"y": 1.6988638986,
				"z": -0.9096019911,
				"element": "N" 
			},
			{
				"x": -0.3500017208,
				"y": 0.5794872895,
				"z": -0.6985564091,
				"element": "C" 
			},
			{
				"x": 1.0486132475,
				"y": 1.1482685172,
				"z": -0.4208910377,
				"element": "C" 
			},
			{
				"x": 1.3707000715,
				"y": 2.0787925863,
				"z": -1.4254090527,
				"element": "O" 
			},
			{
				"x": 2.1252735428,
				"y": 0.0600442613,
				"z": -0.1922364181,
				"element": "C" 
			},
			{
				"x": 1.9668101151,
				"y": 0.2509705862,
				"z": 1.3405692517,
				"element": "C" 
			},
			{
				"x": 1.2570171806,
				"y": 1.6028202386,
				"z": 1.0645800897,
				"element": "C" 
			},
			{
				"x": -2.1353374681,
				"y": 1.3836814883,
				"z": -1.3572207721,
				"element": "H" 
			},
			{
				"x": -1.5462553961,
				"y": 2.1151800751,
				"z": -0.0206661985,
				"element": "H" 
			},
			{
				"x": -0.3036347299,
				"y": 0.0066375929,
				"z": -1.6318977187,
				"element": "H" 
			},
			{
				"x": -0.6510472436,
				"y": -0.1150540802,
				"z": 0.1018101471,
				"element": "H" 
			},
			{
				"x": 0.5198252633,
				"y": 2.4983342725,
				"z": -1.6507482262,
				"element": "H" 
			},
			{
				"x": 1.9377025262,
				"y": -0.933470691,
				"z": -0.6141355331,
				"element": "H" 
			},
			{
				"x": 3.0911705926,
				"y": 0.4222036131,
				"z": -0.5545294158,
				"element": "H" 
			},
			{
				"x": 1.296159801,
				"y": -0.4905559326,
				"z": 1.7853953883,
				"element": "H" 
			},
			{
				"x": 2.8834885399,
				"y": 0.2832763146,
				"z": 1.9348967338,
				"element": "H" 
			},
			{
				"x": 0.3747935298,
				"y": 1.8511582045,
				"z": 1.6664021674,
				"element": "H" 
			},
			{
				"x": 1.952596128,
				"y": 2.4456617651,
				"z": 1.0914389951,
				"element": "H" 
			}
		],
		 "valence_orbital": [ 
			{
				"type": "occ",
				"energy": -0.32622,
				"method": "rhf"
			},
			{
				"type": "occ",
				"energy": -0.31122,
				"method": "rhf"
			},
			{
				"type": "occ",
				"energy": -0.29085,
				"method": "rhf"
			},
			{
				"type": "occ",
				"energy": -0.25741,
				"method": "rhf"
			},
			{
				"type": "occ",
				"energy": -0.23756,
				"method": "rhf"
			},
			{
				"type": "unocc",
				"energy": 0.0652,
				"method": "rhf"
			},
			{
				"type": "unocc",
				"energy": 0.09836,
				"method": "rhf"
			},
			{
				"type": "unocc",
				"energy": 0.11269,
				"method": "rhf"
			},
			{
				"type": "unocc",
				"energy": 0.12437,
				"method": "rhf"
			},
			{
				"type": "unocc",
				"energy": 0.14392,
				"method": "rhf"
			}
		],
		"cosmo_sigma_profile": { 
			"-0.025": 0.0,
			"-0.024": 0.0,
			"-0.023": 0.0,
			"-0.022": 0.0,
			"-0.021": 0.0,
			"-0.02": 0.0,
			"-0.019": 0.0,
			"-0.018": 0.0,
			"-0.017": 0.0,
			"-0.016": 0.0,
			"-0.015": 0.0,
			"-0.014": 0.0,
			"-0.013": 0.0,
			"-0.012": 0.0,
			"-0.011": 0.356987983889,
			"-0.01": 2.2060835788,
			"-0.009": 2.34281705997,
			"-0.008": 3.30060165051,
			"-0.007": 3.43871666266,
			"-0.006": 3.49558662578,
			"-0.005": 3.7088966752,
			"-0.004": 5.51301625785,
			"-0.003": 16.4040328567,
			"-0.002": 19.4785804215,
			"-0.001": 19.8899739137,
			"0.0": 15.4663891982,
			"0.001": 14.1975642878,
			"0.002": 11.7318346384,
			"0.003": 4.62340677548,
			"0.004": 2.39534445449,
			"0.005": 2.45798280982,
			"0.006": 2.13494910799,
			"0.007": 2.25060309083,
			"0.008": 2.30623528771,
			"0.009": 2.19570218587,
			"0.01": 1.57799464702,
			"0.011": 1.21382429591,
			"0.012": 0.907384815382,
			"0.013": 2.35515500186,
			"0.014": 1.50955444785,
			"0.015": 1.87939208751,
			"0.016": 0.440097611272,
			"0.017": 0.0,
			"0.018": 0.0,
			"0.019": 0.0,
			"0.02": 0.0,
			"0.021": 0.0,
			"0.022": 0.0,
			"0.023": 0.0,
			"0.024": 0.0,
			"0.025": 0.0
		}
	}
}
