{
	 "smiles": "C#CCOC1=CC(=CC=C1)C#N", 
	 "Tm": 335.15, 
	 "num_atms": 19, 
	 "gaussian": { 
		 "optdone": 1, 
		 "sigma_profile": "yes", 
		 "theory": "DFT", 
		 "functional": "B3LYP", 
		 "basiset": "6-31G**", 
		 "properties": { 
			 "R2extent": 2595.5626, 
			 "electric_dipole_moment_norm": 3.93815267607, 
			 "electric_quadrupole_moment_norm": 15.7708060907, 
			 "total_energy": -515.148618531, 
			 "HOMO_LUMO_gap": 0.19329, 
			 "cosmo_polarized_energy": -11.37, 
			 "cosmo_cavitation_energy": 25.8, 
			 "cosmo_dispersion_energy": -17.45, 
			 "cosmo_repulsion_energy": 1.4, 
			 "cosmo_total_nonelectrostatic_energy": 9.74, 
			 "SMD_solvation_energy": 7.56 
		},
		"coords": [
			{
				"x": -0.0035721728,
				"y": -4.2346709645,
				"z": -1.7707332307,
				"element": "C" 
			},
			{
				"x": 0.8126635127,
				"y": -3.3459595531,
				"z": -1.8021719786,
				"element": "C" 
			},
			{
				"x": 1.8043464599,
				"y": -2.2692663488,
				"z": -1.8566321879,
				"element": "C" 
			},
			{
				"x": 2.2775241948,
				"y": -1.8516232681,
				"z": -0.5735862541,
				"element": "O" 
			},
			{
				"x": 1.4685985767,
				"y": -1.0837248426,
				"z": 0.2153542204,
				"element": "C" 
			},
			{
				"x": 0.1474981812,
				"y": -0.7473024033,
				"z": -0.0860765337,
				"element": "C" 
			},
			{
				"x": -0.5713216629,
				"y": 0.0686882302,
				"z": 0.8073859257,
				"element": "C" 
			},
			{
				"x": 0.0156498079,
				"y": 0.539929791,
				"z": 1.9890740143,
				"element": "C" 
			},
			{
				"x": 1.3346404487,
				"y": 0.1844939953,
				"z": 2.2751926428,
				"element": "C" 
			},
			{
				"x": 2.058596567,
				"y": -0.6184944311,
				"z": 1.4012256368,
				"element": "C" 
			},
			{
				"x": -1.929089303,
				"y": 0.415015919,
				"z": 0.496682828,
				"element": "C" 
			},
			{
				"x": -3.0289913123,
				"y": 0.6973171941,
				"z": 0.2440948004,
				"element": "N" 
			},
			{
				"x": -0.7244880412,
				"y": -5.0191536556,
				"z": -1.7365846093,
				"element": "H" 
			},
			{
				"x": 2.7009197062,
				"y": -2.6140825989,
				"z": -2.3800191638,
				"element": "H" 
			},
			{
				"x": 1.4053162053,
				"y": -1.4089207008,
				"z": -2.411639893,
				"element": "H" 
			},
			{
				"x": -0.3460433424,
				"y": -1.1178675195,
				"z": -0.9748506223,
				"element": "H" 
			},
			{
				"x": -0.5550386834,
				"y": 1.166689158,
				"z": 2.6647410375,
				"element": "H" 
			},
			{
				"x": 1.8028023656,
				"y": 0.539831238,
				"z": 3.187849523,
				"element": "H" 
			},
			{
				"x": 3.085588492,
				"y": -0.8990992394,
				"z": 1.6097938445,
				"element": "H" 
			}
		],
		 "valence_orbital": [ 
			{
				"type": "occ",
				"energy": -0.32856,
				"method": "rhf"
			},
			{
				"type": "occ",
				"energy": -0.29364,
				"method": "rhf"
			},
			{
				"type": "occ",
				"energy": -0.28653,
				"method": "rhf"
			},
			{
				"type": "occ",
				"energy": -0.26771,
				"method": "rhf"
			},
			{
				"type": "occ",
				"energy": -0.24325,
				"method": "rhf"
			},
			{
				"type": "unocc",
				"energy": -0.04996,
				"method": "rhf"
			},
			{
				"type": "unocc",
				"energy": -0.01225,
				"method": "rhf"
			},
			{
				"type": "unocc",
				"energy": 0.01249,
				"method": "rhf"
			},
			{
				"type": "unocc",
				"energy": 0.03505,
				"method": "rhf"
			},
			{
				"type": "unocc",
				"energy": 0.03925,
				"method": "rhf"
			}
		],
		"cosmo_sigma_profile": { 
			"-0.025": 0.0,
			"-0.024": 0.0,
			"-0.023": 0.0,
			"-0.022": 0.0,
			"-0.021": 0.0,
			"-0.02": 0.0,
			"-0.019": 0.0,
			"-0.018": 0.0,
			"-0.017": 0.0,
			"-0.016": 0.0,
			"-0.015": 0.0,
			"-0.014": 0.0,
			"-0.013": 0.0159634030875,
			"-0.012": 1.20359660939,
			"-0.011": 1.09619262538,
			"-0.01": 1.54010128936,
			"-0.009": 2.87092523033,
			"-0.008": 8.26225078081,
			"-0.007": 12.597773359,
			"-0.006": 14.4548722185,
			"-0.005": 11.5116313877,
			"-0.004": 8.44995791037,
			"-0.003": 9.10065149023,
			"-0.002": 10.6354502003,
			"-0.001": 13.0538691402,
			"0.0": 12.3410075179,
			"0.001": 15.3909602244,
			"0.002": 19.3758869911,
			"0.003": 16.4140209451,
			"0.004": 10.0199397191,
			"0.005": 10.7166587953,
			"0.006": 7.47055370721,
			"0.007": 4.10237570521,
			"0.008": 5.18724784724,
			"0.009": 4.00541968189,
			"0.01": 3.06485533236,
			"0.011": 2.88592175018,
			"0.012": 2.36049121117,
			"0.013": 1.53609874456,
			"0.014": 0.034112488806,
			"0.015": 0.0,
			"0.016": 0.0,
			"0.017": 0.0,
			"0.018": 0.0,
			"0.019": 0.0,
			"0.02": 0.0,
			"0.021": 0.0,
			"0.022": 0.0,
			"0.023": 0.0,
			"0.024": 0.0,
			"0.025": 0.0
		}
	}
}
