{
	 "smiles": "CC(=O)C(C#N)C1=C(Cl)C=CC=C1F", 
	 "Tm": 374.15, 
	 "num_atms": 21, 
	 "gaussian": { 
		 "optdone": 1, 
		 "sigma_profile": "yes", 
		 "theory": "DFT", 
		 "functional": "B3LYP", 
		 "basiset": "6-31G**", 
		 "properties": { 
			 "R2extent": 3187.545, 
			 "electric_dipole_moment_norm": 2.1663756461, 
			 "electric_quadrupole_moment_norm": 19.1175982757, 
			 "total_energy": -1075.25764596, 
			 "HOMO_LUMO_gap": 0.22104, 
			 "cosmo_polarized_energy": -12.35, 
			 "cosmo_cavitation_energy": 28.66, 
			 "cosmo_dispersion_energy": -19.42, 
			 "cosmo_repulsion_energy": 1.53, 
			 "cosmo_total_nonelectrostatic_energy": 10.76, 
			 "SMD_solvation_energy": 7.04 
		},
		"coords": [
			{
				"x": -2.1842881201,
				"y": 1.5644304723,
				"z": -1.0435245143,
				"element": "C" 
			},
			{
				"x": -0.7649588579,
				"y": 1.0906172523,
				"z": -0.845390003,
				"element": "C" 
			},
			{
				"x": 0.151990683,
				"y": 1.8224405938,
				"z": -0.5569036145,
				"element": "O" 
			},
			{
				"x": -0.4815608649,
				"y": -0.4321504074,
				"z": -1.0996200548,
				"element": "C" 
			},
			{
				"x": -1.6336423674,
				"y": -1.2841190418,
				"z": -0.7782302713,
				"element": "C" 
			},
			{
				"x": -2.5533954391,
				"y": -1.9477288621,
				"z": -0.5307988656,
				"element": "N" 
			},
			{
				"x": 0.7829632094,
				"y": -0.9047201906,
				"z": -0.4107842826,
				"element": "C" 
			},
			{
				"x": 1.9139997879,
				"y": -1.3910365901,
				"z": -1.0784395566,
				"element": "C" 
			},
			{
				"x": 1.9325798164,
				"y": -1.4952673949,
				"z": -2.8341779114,
				"element": "Cl" 
			},
			{
				"x": 3.0542379232,
				"y": -1.8046470754,
				"z": -0.387204238,
				"element": "C" 
			},
			{
				"x": 3.0740600422,
				"y": -1.7349054013,
				"z": 1.0044744277,
				"element": "C" 
			},
			{
				"x": 1.968857999,
				"y": -1.2557182109,
				"z": 1.7077720101,
				"element": "C" 
			},
			{
				"x": 0.857350821,
				"y": -0.8545223085,
				"z": 0.9844481168,
				"element": "C" 
			},
			{
				"x": -0.2227633756,
				"y": -0.3885201196,
				"z": 1.6442857169,
				"element": "F" 
			},
			{
				"x": -2.6029011134,
				"y": 1.1847479252,
				"z": -1.9817923882,
				"element": "H" 
			},
			{
				"x": -2.8161789423,
				"y": 1.1764004942,
				"z": -0.2369712324,
				"element": "H" 
			},
			{
				"x": -2.2042572434,
				"y": 2.6545236353,
				"z": -1.0332088037,
				"element": "H" 
			},
			{
				"x": -0.3317152446,
				"y": -0.5040922242,
				"z": -2.1851942579,
				"element": "H" 
			},
			{
				"x": 3.9098282963,
				"y": -2.1750854308,
				"z": -0.9390885832,
				"element": "H" 
			},
			{
				"x": 3.958892493,
				"y": -2.0561723516,
				"z": 1.5444301972,
				"element": "H" 
			},
			{
				"x": 1.9551004973,
				"y": -1.1878747643,
				"z": 2.7893181086,
				"element": "H" 
			}
		],
		 "valence_orbital": [ 
			{
				"type": "occ",
				"energy": -0.3415,
				"method": "rhf"
			},
			{
				"type": "occ",
				"energy": -0.32709,
				"method": "rhf"
			},
			{
				"type": "occ",
				"energy": -0.27528,
				"method": "rhf"
			},
			{
				"type": "occ",
				"energy": -0.26979,
				"method": "rhf"
			},
			{
				"type": "occ",
				"energy": -0.26266,
				"method": "rhf"
			},
			{
				"type": "unocc",
				"energy": -0.04162,
				"method": "rhf"
			},
			{
				"type": "unocc",
				"energy": -0.03422,
				"method": "rhf"
			},
			{
				"type": "unocc",
				"energy": -0.02442,
				"method": "rhf"
			},
			{
				"type": "unocc",
				"energy": 0.0047,
				"method": "rhf"
			},
			{
				"type": "unocc",
				"energy": 0.02965,
				"method": "rhf"
			}
		],
		"cosmo_sigma_profile": { 
			"-0.025": 0.0,
			"-0.024": 0.0,
			"-0.023": 0.0,
			"-0.022": 0.0,
			"-0.021": 0.0,
			"-0.02": 0.0,
			"-0.019": 0.0,
			"-0.018": 0.0,
			"-0.017": 0.0,
			"-0.016": 0.0,
			"-0.015": 0.0,
			"-0.014": 0.0,
			"-0.013": 0.04179746698,
			"-0.012": 1.22238341794,
			"-0.011": 1.61613693179,
			"-0.01": 1.561423809,
			"-0.009": 2.06392599224,
			"-0.008": 6.7984315849,
			"-0.007": 10.0767500493,
			"-0.006": 15.1446026123,
			"-0.005": 12.1574842829,
			"-0.004": 11.4380799537,
			"-0.003": 14.1476895161,
			"-0.002": 18.0860213452,
			"-0.001": 15.7009015251,
			"0.0": 17.9003261771,
			"0.001": 17.1612983202,
			"0.002": 20.324113692,
			"0.003": 18.6940763821,
			"0.004": 10.9489617695,
			"0.005": 3.79301867299,
			"0.006": 4.14359408613,
			"0.007": 4.16005764597,
			"0.008": 5.78472328777,
			"0.009": 5.08702967745,
			"0.01": 7.33526714667,
			"0.011": 4.38481446566,
			"0.012": 2.4735243654,
			"0.013": 0.571491262647,
			"0.014": 0.0,
			"0.015": 0.0,
			"0.016": 0.0,
			"0.017": 0.0,
			"0.018": 0.0,
			"0.019": 0.0,
			"0.02": 0.0,
			"0.021": 0.0,
			"0.022": 0.0,
			"0.023": 0.0,
			"0.024": 0.0,
			"0.025": 0.0
		}
	}
}
