{
	 "smiles": "CN(C)C1=NC(=CN=N1)C1=NC(=NN=C1)N(C)C", 
	 "Tm": 497.15, 
	 "num_atms": 32, 
	 "gaussian": { 
		 "optdone": 1, 
		 "sigma_profile": "yes", 
		 "theory": "DFT", 
		 "functional": "B3LYP", 
		 "basiset": "6-31G**", 
		 "properties": { 
			 "R2extent": 6568.5576, 
			 "electric_dipole_moment_norm": 0.0001, 
			 "electric_quadrupole_moment_norm": 37.2556205009, 
			 "total_energy": -827.438973155, 
			 "HOMO_LUMO_gap": 0.12918, 
			 "cosmo_polarized_energy": -13.48, 
			 "cosmo_cavitation_energy": 36.04, 
			 "cosmo_dispersion_energy": -26.3, 
			 "cosmo_repulsion_energy": 2.0, 
			 "cosmo_total_nonelectrostatic_energy": 11.75, 
			 "SMD_solvation_energy": 2.25 
		},
		"coords": [
			{
				"x": 4.3665742162,
				"y": 2.3124515401,
				"z": 3.4334692509,
				"element": "C" 
			},
			{
				"x": 3.6427689209,
				"y": 1.4476681889,
				"z": 2.5121031124,
				"element": "N" 
			},
			{
				"x": 4.4257440689,
				"y": 0.4029344106,
				"z": 1.8727854569,
				"element": "C" 
			},
			{
				"x": 2.3356692003,
				"y": 1.6677182743,
				"z": 2.1967611138,
				"element": "C" 
			},
			{
				"x": 1.7463205016,
				"y": 0.849731305,
				"z": 1.2951368171,
				"element": "N" 
			},
			{
				"x": 0.465633384,
				"y": 1.0982178424,
				"z": 1.0386652823,
				"element": "C" 
			},
			{
				"x": -0.20106505,
				"y": 2.1526382936,
				"z": 1.6790643254,
				"element": "C" 
			},
			{
				"x": 0.4399670049,
				"y": 2.9308186533,
				"z": 2.5550065362,
				"element": "N" 
			},
			{
				"x": 1.7114224939,
				"y": 2.70441989,
				"z": 2.8247756503,
				"element": "N" 
			},
			{
				"x": -0.2244972338,
				"y": 0.2228958527,
				"z": 0.0520778006,
				"element": "C" 
			},
			{
				"x": -1.5051772503,
				"y": 0.4713958859,
				"z": -0.2044170137,
				"element": "N" 
			},
			{
				"x": -2.0945215889,
				"y": -0.346594851,
				"z": -1.1060441948,
				"element": "C" 
			},
			{
				"x": -1.4702804602,
				"y": -1.3833089752,
				"z": -1.7340387162,
				"element": "N" 
			},
			{
				"x": -0.1988341221,
				"y": -1.6097234436,
				"z": -1.4642411679,
				"element": "N" 
			},
			{
				"x": 0.4421947312,
				"y": -0.831543849,
				"z": -0.588295359,
				"element": "C" 
			},
			{
				"x": -3.4016168742,
				"y": -0.1265769782,
				"z": -1.4214226966,
				"element": "N" 
			},
			{
				"x": -4.1253495459,
				"y": -0.9914091555,
				"z": -2.3427954261,
				"element": "C" 
			},
			{
				"x": -4.184648486,
				"y": 0.9181725081,
				"z": -0.7821946174,
				"element": "C" 
			},
			{
				"x": 5.1573649446,
				"y": 2.8608517024,
				"z": 2.9042254442,
				"element": "H" 
			},
			{
				"x": 3.678605764,
				"y": 3.0228360468,
				"z": 3.884786578,
				"element": "H" 
			},
			{
				"x": 4.8371928189,
				"y": 1.7070396964,
				"z": 4.2176035871,
				"element": "H" 
			},
			{
				"x": 4.9198287423,
				"y": -0.2100438052,
				"z": 2.636207335,
				"element": "H" 
			},
			{
				"x": 3.7783101102,
				"y": -0.2279658623,
				"z": 1.2690263859,
				"element": "H" 
			},
			{
				"x": 5.2028919703,
				"y": 0.8379926743,
				"z": 1.2296877897,
				"element": "H" 
			},
			{
				"x": -1.2425963735,
				"y": 2.3749095901,
				"z": 1.4878299761,
				"element": "H" 
			},
			{
				"x": 1.4837186069,
				"y": -1.0538307068,
				"z": -0.3970376409,
				"element": "H" 
			},
			{
				"x": -3.4373502297,
				"y": -1.7018579321,
				"z": -2.7939687271,
				"element": "H" 
			},
			{
				"x": -4.5958543118,
				"y": -0.386053661,
				"z": -3.1270422703,
				"element": "H" 
			},
			{
				"x": -4.9162200098,
				"y": -1.5397305091,
				"z": -1.8135906168,
				"element": "H" 
			},
			{
				"x": -4.6787342796,
				"y": 1.5310796981,
				"z": -1.5456731016,
				"element": "H" 
			},
			{
				"x": -3.5372609157,
				"y": 1.5491393327,
				"z": -0.1784583205,
				"element": "H" 
			},
			{
				"x": -4.9618007476,
				"y": 0.4831283434,
				"z": -0.1390925729,
				"element": "H" 
			}
		],
		 "valence_orbital": [ 
			{
				"type": "occ",
				"energy": -0.29804,
				"method": "rhf"
			},
			{
				"type": "occ",
				"energy": -0.23261,
				"method": "rhf"
			},
			{
				"type": "occ",
				"energy": -0.22489,
				"method": "rhf"
			},
			{
				"type": "occ",
				"energy": -0.2238,
				"method": "rhf"
			},
			{
				"type": "occ",
				"energy": -0.2208,
				"method": "rhf"
			},
			{
				"type": "unocc",
				"energy": -0.09162,
				"method": "rhf"
			},
			{
				"type": "unocc",
				"energy": -0.04851,
				"method": "rhf"
			},
			{
				"type": "unocc",
				"energy": -0.01496,
				"method": "rhf"
			},
			{
				"type": "unocc",
				"energy": 0.01341,
				"method": "rhf"
			},
			{
				"type": "unocc",
				"energy": 0.08789,
				"method": "rhf"
			}
		],
		"cosmo_sigma_profile": { 
			"-0.025": 0.0,
			"-0.024": 0.0,
			"-0.023": 0.0,
			"-0.022": 0.0,
			"-0.021": 0.0,
			"-0.02": 0.0,
			"-0.019": 0.0,
			"-0.018": 0.0,
			"-0.017": 0.0,
			"-0.016": 0.0,
			"-0.015": 0.0,
			"-0.014": 0.0,
			"-0.013": 0.0,
			"-0.012": 0.0,
			"-0.011": 0.0,
			"-0.01": 0.0,
			"-0.009": 0.0,
			"-0.008": 0.0404760332578,
			"-0.007": 1.44411955874,
			"-0.006": 2.17437046842,
			"-0.005": 22.3913097574,
			"-0.004": 33.7553011602,
			"-0.003": 37.6656182102,
			"-0.002": 45.9693946744,
			"-0.001": 28.5682041081,
			"0.0": 25.1018122524,
			"0.001": 19.5140712565,
			"0.002": 11.7469956214,
			"0.003": 10.0695054131,
			"0.004": 5.31558745293,
			"0.005": 6.81633292509,
			"0.006": 4.96951096165,
			"0.007": 3.21106417087,
			"0.008": 4.06057060132,
			"0.009": 2.69292267355,
			"0.01": 4.78302400238,
			"0.011": 4.23645335773,
			"0.012": 5.24761450484,
			"0.013": 3.91781172416,
			"0.014": 2.74365347226,
			"0.015": 1.2718763962,
			"0.016": 0.0489897037932,
			"0.017": 0.0,
			"0.018": 0.0,
			"0.019": 0.0,
			"0.02": 0.0,
			"0.021": 0.0,
			"0.022": 0.0,
			"0.023": 0.0,
			"0.024": 0.0,
			"0.025": 0.0
		}
	}
}
