{
	 "smiles": "CS(=O)(=O)CC1=C(F)C=CC=C1N", 
	 "Tm": 403.15, 
	 "num_atms": 23, 
	 "gaussian": { 
		 "optdone": 1, 
		 "sigma_profile": "yes", 
		 "theory": "DFT", 
		 "functional": "B3LYP", 
		 "basiset": "6-31G**", 
		 "properties": { 
			 "R2extent": 3039.9169, 
			 "electric_dipole_moment_norm": 3.98087372445, 
			 "electric_quadrupole_moment_norm": 13.9882588534, 
			 "total_energy": -1014.05389554, 
			 "HOMO_LUMO_gap": 0.1951, 
			 "cosmo_polarized_energy": -14.99, 
			 "cosmo_cavitation_energy": 27.43, 
			 "cosmo_dispersion_energy": -20.38, 
			 "cosmo_repulsion_energy": 1.53, 
			 "cosmo_total_nonelectrostatic_energy": 8.57, 
			 "SMD_solvation_energy": 4.48 
		},
		"coords": [
			{
				"x": 2.2254249799,
				"y": -1.9977060242,
				"z": -0.9914817422,
				"element": "C" 
			},
			{
				"x": 2.1231336052,
				"y": -2.0657691602,
				"z": 0.8105151269,
				"element": "S" 
			},
			{
				"x": 2.468275634,
				"y": -3.4267987285,
				"z": 1.2474749139,
				"element": "O" 
			},
			{
				"x": 2.8753317353,
				"y": -0.9082832879,
				"z": 1.3480711913,
				"element": "O" 
			},
			{
				"x": 0.3485810032,
				"y": -1.7848113593,
				"z": 1.1777487099,
				"element": "C" 
			},
			{
				"x": -0.2365017243,
				"y": -0.5276072487,
				"z": 0.6118195927,
				"element": "C" 
			},
			{
				"x": -1.0324865024,
				"y": -0.585736823,
				"z": -0.5347123945,
				"element": "C" 
			},
			{
				"x": -1.1510363809,
				"y": -1.7890377149,
				"z": -1.1539505529,
				"element": "F" 
			},
			{
				"x": -1.7130246265,
				"y": 0.4998086511,
				"z": -1.0628825597,
				"element": "C" 
			},
			{
				"x": -1.5799963464,
				"y": 1.7220684883,
				"z": -0.3987506497,
				"element": "C" 
			},
			{
				"x": -0.7766798204,
				"y": 1.8421729241,
				"z": 0.7298324988,
				"element": "C" 
			},
			{
				"x": -0.0801208437,
				"y": 0.7320057943,
				"z": 1.245415103,
				"element": "C" 
			},
			{
				"x": 0.7015815665,
				"y": 0.8366076073,
				"z": 2.3868566455,
				"element": "N" 
			},
			{
				"x": 1.5446459421,
				"y": -2.7374143321,
				"z": -1.4144466425,
				"element": "H" 
			},
			{
				"x": 3.2596705972,
				"y": -2.2386859123,
				"z": -1.2426495638,
				"element": "H" 
			},
			{
				"x": 1.9710998743,
				"y": -0.9926381636,
				"z": -1.327484902,
				"element": "H" 
			},
			{
				"x": 0.3290532343,
				"y": -1.781778658,
				"z": 2.2730785976,
				"element": "H" 
			},
			{
				"x": -0.1684470205,
				"y": -2.6743977211,
				"z": 0.8151255312,
				"element": "H" 
			},
			{
				"x": -2.3195237942,
				"y": 0.3805254273,
				"z": -1.9525381962,
				"element": "H" 
			},
			{
				"x": -2.0996830079,
				"y": 2.5963301758,
				"z": -0.7792980817,
				"element": "H" 
			},
			{
				"x": -0.6676633888,
				"y": 2.8058947628,
				"z": 1.2195426705,
				"element": "H" 
			},
			{
				"x": 1.5726169312,
				"y": 0.3122248615,
				"z": 2.3540414055,
				"element": "H" 
			},
			{
				"x": 0.841148353,
				"y": 1.7841264413,
				"z": 2.7102732987,
				"element": "H" 
			}
		],
		 "valence_orbital": [ 
			{
				"type": "occ",
				"energy": -0.31505,
				"method": "rhf"
			},
			{
				"type": "occ",
				"energy": -0.29954,
				"method": "rhf"
			},
			{
				"type": "occ",
				"energy": -0.2969,
				"method": "rhf"
			},
			{
				"type": "occ",
				"energy": -0.25147,
				"method": "rhf"
			},
			{
				"type": "occ",
				"energy": -0.21757,
				"method": "rhf"
			},
			{
				"type": "unocc",
				"energy": -0.02247,
				"method": "rhf"
			},
			{
				"type": "unocc",
				"energy": 0.00302,
				"method": "rhf"
			},
			{
				"type": "unocc",
				"energy": 0.05952,
				"method": "rhf"
			},
			{
				"type": "unocc",
				"energy": 0.07091,
				"method": "rhf"
			},
			{
				"type": "unocc",
				"energy": 0.07902,
				"method": "rhf"
			}
		],
		"cosmo_sigma_profile": { 
			"-0.025": 0.0,
			"-0.024": 0.0,
			"-0.023": 0.0,
			"-0.022": 0.0,
			"-0.021": 0.0,
			"-0.02": 0.0,
			"-0.019": 0.0,
			"-0.018": 0.0,
			"-0.017": 0.0,
			"-0.016": 0.0,
			"-0.015": 0.0,
			"-0.014": 0.0,
			"-0.013": 0.467276383842,
			"-0.012": 1.63991279176,
			"-0.011": 1.06402092878,
			"-0.01": 2.74973558559,
			"-0.009": 4.64735726918,
			"-0.008": 8.76831036142,
			"-0.007": 10.4367883051,
			"-0.006": 14.7007156386,
			"-0.005": 15.5714086447,
			"-0.004": 16.4014369953,
			"-0.003": 14.2226804472,
			"-0.002": 9.68152281934,
			"-0.001": 9.22025193446,
			"0.0": 8.95396232478,
			"0.001": 12.9799418985,
			"0.002": 10.5464267135,
			"0.003": 13.231289455,
			"0.004": 16.9215683307,
			"0.005": 9.50418525571,
			"0.006": 3.2019669161,
			"0.007": 2.78466363262,
			"0.008": 3.09102786385,
			"0.009": 4.52409964944,
			"0.01": 3.91929095932,
			"0.011": 8.41488434898,
			"0.012": 9.15391090559,
			"0.013": 1.13246224752,
			"0.014": 0.0319815929516,
			"0.015": 0.0,
			"0.016": 0.0,
			"0.017": 0.0,
			"0.018": 0.0,
			"0.019": 0.0,
			"0.02": 0.0,
			"0.021": 0.0,
			"0.022": 0.0,
			"0.023": 0.0,
			"0.024": 0.0,
			"0.025": 0.0
		}
	}
}
