{
	 "smiles": "CC1CCCC(C1)(NC(=O)OC(C)(C)C)C(O)=O", 
	 "Tm": 423.15, 
	 "num_atms": 41, 
	 "gaussian": { 
		 "optdone": 1, 
		 "sigma_profile": "yes", 
		 "theory": "DFT", 
		 "functional": "B3LYP", 
		 "basiset": "6-31G**", 
		 "properties": { 
			 "R2extent": 4999.107, 
			 "electric_dipole_moment_norm": 2.26713551426, 
			 "electric_quadrupole_moment_norm": 19.20036577, 
			 "total_energy": -864.950835339, 
			 "HOMO_LUMO_gap": 0.26809, 
			 "cosmo_polarized_energy": -15.84, 
			 "cosmo_cavitation_energy": 39.79, 
			 "cosmo_dispersion_energy": -26.61, 
			 "cosmo_repulsion_energy": 2.04, 
			 "cosmo_total_nonelectrostatic_energy": 15.22, 
			 "SMD_solvation_energy": 7.99 
		},
		"coords": [
			{
				"x": 2.4251685164,
				"y": -2.8734554444,
				"z": -1.7987065437,
				"element": "C" 
			},
			{
				"x": 2.107338585,
				"y": -1.5448222678,
				"z": -2.5040637886,
				"element": "C" 
			},
			{
				"x": 3.2021331057,
				"y": -0.4600963607,
				"z": -2.2484121839,
				"element": "C" 
			},
			{
				"x": 2.6954739501,
				"y": 0.7359771855,
				"z": -1.4220105913,
				"element": "C" 
			},
			{
				"x": 1.819542982,
				"y": 0.2633835793,
				"z": -0.2583352545,
				"element": "C" 
			},
			{
				"x": 0.5047278874,
				"y": -0.3838405198,
				"z": -0.7561202668,
				"element": "C" 
			},
			{
				"x": 0.699013194,
				"y": -0.9992865096,
				"z": -2.1831927605,
				"element": "C" 
			},
			{
				"x": -0.6132472167,
				"y": 0.5803893037,
				"z": -0.8932495056,
				"element": "N" 
			},
			{
				"x": -1.1068057222,
				"y": 1.4010823743,
				"z": 0.1163575856,
				"element": "C" 
			},
			{
				"x": -1.8034525485,
				"y": 2.3716929902,
				"z": -0.1183578967,
				"element": "O" 
			},
			{
				"x": -0.7462791803,
				"y": 0.9306817194,
				"z": 1.3226513497,
				"element": "O" 
			},
			{
				"x": -1.2916862968,
				"y": 1.5016374416,
				"z": 2.5745715938,
				"element": "C" 
			},
			{
				"x": -0.6380763984,
				"y": 0.6267561143,
				"z": 3.6457145334,
				"element": "C" 
			},
			{
				"x": -0.8573124554,
				"y": 2.9632982183,
				"z": 2.7115169661,
				"element": "C" 
			},
			{
				"x": -2.8141527551,
				"y": 1.3390093211,
				"z": 2.5832047129,
				"element": "C" 
			},
			{
				"x": 0.0369948574,
				"y": -1.5117605317,
				"z": 0.2058075923,
				"element": "C" 
			},
			{
				"x": -1.2691193091,
				"y": -1.8323508495,
				"z": 0.0959456949,
				"element": "O" 
			},
			{
				"x": 0.7704500126,
				"y": -2.1223397545,
				"z": 0.9450087957,
				"element": "O" 
			},
			{
				"x": 3.3885437124,
				"y": -3.2614897726,
				"z": -2.1469129654,
				"element": "H" 
			},
			{
				"x": 1.6636321447,
				"y": -3.6302273363,
				"z": -2.0193969103,
				"element": "H" 
			},
			{
				"x": 2.4751034495,
				"y": -2.7644041768,
				"z": -0.7127932035,
				"element": "H" 
			},
			{
				"x": 2.0881825188,
				"y": -1.7586916089,
				"z": -3.5803302974,
				"element": "H" 
			},
			{
				"x": 3.609875409,
				"y": -0.1022596618,
				"z": -3.2005709587,
				"element": "H" 
			},
			{
				"x": 4.0393937102,
				"y": -0.9241911507,
				"z": -1.7137146667,
				"element": "H" 
			},
			{
				"x": 2.1277725121,
				"y": 1.4297274294,
				"z": -2.057649129,
				"element": "H" 
			},
			{
				"x": 3.5465015693,
				"y": 1.3099785666,
				"z": -1.0395174767,
				"element": "H" 
			},
			{
				"x": 1.577845491,
				"y": 1.0832225624,
				"z": 0.4218627404,
				"element": "H" 
			},
			{
				"x": 2.358508315,
				"y": -0.481974351,
				"z": 0.3337593514,
				"element": "H" 
			},
			{
				"x": -0.0565185445,
				"y": -1.7731954607,
				"z": -2.3582849955,
				"element": "H" 
			},
			{
				"x": 0.4885705229,
				"y": -0.1997725167,
				"z": -2.9059182954,
				"element": "H" 
			},
			{
				"x": -0.7160852836,
				"y": 1.0231042711,
				"z": -1.7972454816,
				"element": "H" 
			},
			{
				"x": 0.4510865319,
				"y": 0.717993341,
				"z": 3.6088318365,
				"element": "H" 
			},
			{
				"x": -0.9789119974,
				"y": 0.93716165,
				"z": 4.6378913418,
				"element": "H" 
			},
			{
				"x": -0.897708424,
				"y": -0.4248378037,
				"z": 3.4980774569,
				"element": "H" 
			},
			{
				"x": 0.2327835193,
				"y": 3.0443240778,
				"z": 2.6543377599,
				"element": "H" 
			},
			{
				"x": -1.1732381094,
				"y": 3.3457968658,
				"z": 3.6874420095,
				"element": "H" 
			},
			{
				"x": -1.30100899,
				"y": 3.5806353783,
				"z": 1.9300889593,
				"element": "H" 
			},
			{
				"x": -3.0829953226,
				"y": 0.2891090228,
				"z": 2.4307669573,
				"element": "H" 
			},
			{
				"x": -3.2094709496,
				"y": 1.6536285114,
				"z": 3.5541611155,
				"element": "H" 
			},
			{
				"x": -3.2789347084,
				"y": 1.9445926364,
				"z": 1.8039894067,
				"element": "H" 
			},
			{
				"x": -1.6847382845,
				"y": -1.1552864835,
				"z": -0.4682045876,
				"element": "H" 
			}
		],
		 "valence_orbital": [ 
			{
				"type": "occ",
				"energy": -0.30636,
				"method": "rhf"
			},
			{
				"type": "occ",
				"energy": -0.29833,
				"method": "rhf"
			},
			{
				"type": "occ",
				"energy": -0.2873,
				"method": "rhf"
			},
			{
				"type": "occ",
				"energy": -0.27515,
				"method": "rhf"
			},
			{
				"type": "occ",
				"energy": -0.25705,
				"method": "rhf"
			},
			{
				"type": "unocc",
				"energy": 0.01104,
				"method": "rhf"
			},
			{
				"type": "unocc",
				"energy": 0.03215,
				"method": "rhf"
			},
			{
				"type": "unocc",
				"energy": 0.0516,
				"method": "rhf"
			},
			{
				"type": "unocc",
				"energy": 0.07775,
				"method": "rhf"
			},
			{
				"type": "unocc",
				"energy": 0.087,
				"method": "rhf"
			}
		],
		"cosmo_sigma_profile": { 
			"-0.025": 0.0,
			"-0.024": 0.0,
			"-0.023": 0.0,
			"-0.022": 0.0,
			"-0.021": 0.0,
			"-0.02": 0.0,
			"-0.019": 0.0,
			"-0.018": 0.0,
			"-0.017": 0.0,
			"-0.016": 0.0,
			"-0.015": 0.267926096126,
			"-0.014": 1.10525917082,
			"-0.013": 1.48889574328,
			"-0.012": 1.39472188544,
			"-0.011": 1.86959996502,
			"-0.01": 2.91100701588,
			"-0.009": 2.15364504156,
			"-0.008": 2.43160979014,
			"-0.007": 3.00159768313,
			"-0.006": 2.81642599581,
			"-0.005": 6.81387191679,
			"-0.004": 19.0143868257,
			"-0.003": 32.2032607779,
			"-0.002": 42.8479077559,
			"-0.001": 45.8608056423,
			"0.0": 43.8305937722,
			"0.001": 26.8020111233,
			"0.002": 11.0198316221,
			"0.003": 7.0009960523,
			"0.004": 5.87543750961,
			"0.005": 6.24476127081,
			"0.006": 4.61819447873,
			"0.007": 4.37075607518,
			"0.008": 4.50741824969,
			"0.009": 4.0837838663,
			"0.01": 5.85928563374,
			"0.011": 5.86150947096,
			"0.012": 6.64851404486,
			"0.013": 4.29629907562,
			"0.014": 0.293969419913,
			"0.015": 0.0,
			"0.016": 0.0,
			"0.017": 0.0,
			"0.018": 0.0,
			"0.019": 0.0,
			"0.02": 0.0,
			"0.021": 0.0,
			"0.022": 0.0,
			"0.023": 0.0,
			"0.024": 0.0,
			"0.025": 0.0
		}
	}
}
