{
	 "smiles": "CC1(C)C2CCC1(C)C(=O)C2(CC(Br)=CC1=CC=CC=C1)C1(CC(Br)=CC2=CC=CC=C2)C2CCC(C)(C1=O)C2(C)C", 
	 "Tm": 391.15, 
	 "num_atms": 86, 
	 "gaussian": { 
		 "optdone": 1, 
		 "sigma_profile": "yes", 
		 "theory": "DFT", 
		 "functional": "B3LYP", 
		 "basiset": "6-31G**", 
		 "properties": { 
			 "R2extent": 28224.6928, 
			 "electric_dipole_moment_norm": 5.3486587272, 
			 "electric_quadrupole_moment_norm": 24.3256299717, 
			 "total_energy": -6767.70024067, 
			 "HOMO_LUMO_gap": 0.17384, 
			 "cosmo_polarized_energy": -17.1, 
			 "cosmo_cavitation_energy": 76.76, 
			 "cosmo_dispersion_energy": -48.19, 
			 "cosmo_repulsion_energy": 3.48, 
			 "cosmo_total_nonelectrostatic_energy": 32.06, 
			 "SMD_solvation_energy": 10.91 
		},
		"coords": [
			{
				"x": -2.2576706095,
				"y": -2.1925071734,
				"z": -4.8912963188,
				"element": "C" 
			},
			{
				"x": -1.733447581,
				"y": -2.0790858138,
				"z": -3.4359588035,
				"element": "C" 
			},
			{
				"x": -2.972569418,
				"y": -1.6277569708,
				"z": -2.6432019969,
				"element": "C" 
			},
			{
				"x": -0.435668653,
				"y": -1.1960994491,
				"z": -3.3204358584,
				"element": "C" 
			},
			{
				"x": 0.4912789787,
				"y": -1.9629561777,
				"z": -4.2947979852,
				"element": "C" 
			},
			{
				"x": 0.1849832985,
				"y": -3.4530875744,
				"z": -3.9615753309,
				"element": "C" 
			},
			{
				"x": -1.0017658116,
				"y": -3.3662712175,
				"z": -2.938133638,
				"element": "C" 
			},
			{
				"x": -1.776865866,
				"y": -4.659950714,
				"z": -2.7523047889,
				"element": "C" 
			},
			{
				"x": -0.3103573073,
				"y": -2.8830192776,
				"z": -1.6532307697,
				"element": "C" 
			},
			{
				"x": -0.0508548671,
				"y": -3.5974559023,
				"z": -0.7087482934,
				"element": "O" 
			},
			{
				"x": 0.1281999164,
				"y": -1.379032728,
				"z": -1.8275249321,
				"element": "C" 
			},
			{
				"x": 1.7020288162,
				"y": -1.3051221285,
				"z": -1.5790613728,
				"element": "C" 
			},
			{
				"x": 2.7890959439,
				"y": -2.165387636,
				"z": -2.194894505,
				"element": "C" 
			},
			{
				"x": 2.982154489,
				"y": -3.9688851667,
				"z": -1.5066069533,
				"element": "Br" 
			},
			{
				"x": 3.7682320246,
				"y": -1.7773290148,
				"z": -3.0288139689,
				"element": "C" 
			},
			{
				"x": 3.963427188,
				"y": -0.4343361827,
				"z": -3.6329475369,
				"element": "C" 
			},
			{
				"x": 4.0092029305,
				"y": -0.3002416877,
				"z": -5.0313012214,
				"element": "C" 
			},
			{
				"x": 4.2470296653,
				"y": 0.9398909713,
				"z": -5.6230625386,
				"element": "C" 
			},
			{
				"x": 4.4604134192,
				"y": 2.0680646802,
				"z": -4.8279678232,
				"element": "C" 
			},
			{
				"x": 4.4418236593,
				"y": 1.9448677039,
				"z": -3.4377564577,
				"element": "C" 
			},
			{
				"x": 4.1983769839,
				"y": 0.7045923022,
				"z": -2.8452026882,
				"element": "C" 
			},
			{
				"x": -0.5014013711,
				"y": -0.2994572907,
				"z": -0.677795671,
				"element": "C" 
			},
			{
				"x": -1.2901340998,
				"y": -1.2809221275,
				"z": 0.3152995738,
				"element": "C" 
			},
			{
				"x": -2.1112496891,
				"y": -0.9633612213,
				"z": 1.5389594685,
				"element": "C" 
			},
			{
				"x": -4.0094876762,
				"y": -0.8190436139,
				"z": 1.1650647943,
				"element": "Br" 
			},
			{
				"x": -1.6189862668,
				"y": -1.0161647865,
				"z": 2.7896912454,
				"element": "C" 
			},
			{
				"x": -2.1887881838,
				"y": -0.8794991922,
				"z": 4.1355382373,
				"element": "C" 
			},
			{
				"x": -1.3938188063,
				"y": -1.3404615971,
				"z": 5.2056631643,
				"element": "C" 
			},
			{
				"x": -1.8309093573,
				"y": -1.2549067834,
				"z": 6.5240801321,
				"element": "C" 
			},
			{
				"x": -3.0741622404,
				"y": -0.6878901184,
				"z": 6.8116582114,
				"element": "C" 
			},
			{
				"x": -3.8665246927,
				"y": -0.2080778372,
				"z": 5.7670808016,
				"element": "C" 
			},
			{
				"x": -3.4350515228,
				"y": -0.3007706658,
				"z": 4.4450282078,
				"element": "C" 
			},
			{
				"x": -1.0654422397,
				"y": 1.0170936812,
				"z": -1.3499214916,
				"element": "C" 
			},
			{
				"x": 0.1005907475,
				"y": 1.6098389961,
				"z": -2.2367763128,
				"element": "C" 
			},
			{
				"x": 1.0806880374,
				"y": 2.2502633101,
				"z": -1.2187781316,
				"element": "C" 
			},
			{
				"x": 0.3959012222,
				"y": 1.9657989785,
				"z": 0.1396862626,
				"element": "C" 
			},
			{
				"x": 0.9615256792,
				"y": 2.7296017194,
				"z": 1.3254330143,
				"element": "C" 
			},
			{
				"x": 0.5039269622,
				"y": 0.4335390957,
				"z": 0.300509672,
				"element": "C" 
			},
			{
				"x": 1.1920843069,
				"y": -0.113670488,
				"z": 1.1390339227,
				"element": "O" 
			},
			{
				"x": -1.1100445831,
				"y": 2.1530462491,
				"z": -0.2498297176,
				"element": "C" 
			},
			{
				"x": -1.4580544754,
				"y": 3.5362708288,
				"z": -0.8585780493,
				"element": "C" 
			},
			{
				"x": -2.0606986085,
				"y": 2.0257754714,
				"z": 0.9444914871,
				"element": "C" 
			},
			{
				"x": -3.2087745955,
				"y": -2.7345898333,
				"z": -4.8975515517,
				"element": "H" 
			},
			{
				"x": -2.4549272062,
				"y": -1.1925633178,
				"z": -5.295348679,
				"element": "H" 
			},
			{
				"x": -1.5934334013,
				"y": -2.7047830806,
				"z": -5.5861448079,
				"element": "H" 
			},
			{
				"x": -3.7214565528,
				"y": -2.4270532466,
				"z": -2.6285286808,
				"element": "H" 
			},
			{
				"x": -3.4360902933,
				"y": -0.7705408061,
				"z": -3.1449087685,
				"element": "H" 
			},
			{
				"x": -2.8005105888,
				"y": -1.3304719936,
				"z": -1.6165033482,
				"element": "H" 
			},
			{
				"x": -0.6115822117,
				"y": -0.1729576811,
				"z": -3.6325633823,
				"element": "H" 
			},
			{
				"x": 1.5394402484,
				"y": -1.7093875926,
				"z": -4.1849542721,
				"element": "H" 
			},
			{
				"x": 0.2215298383,
				"y": -1.7190207475,
				"z": -5.3249342983,
				"element": "H" 
			},
			{
				"x": 1.040739087,
				"y": -3.9808702988,
				"z": -3.5365506655,
				"element": "H" 
			},
			{
				"x": -0.1307802573,
				"y": -4.022424308,
				"z": -4.8411081827,
				"element": "H" 
			},
			{
				"x": -2.1918326846,
				"y": -5.007996712,
				"z": -3.7039052403,
				"element": "H" 
			},
			{
				"x": -1.1211895043,
				"y": -5.4399044159,
				"z": -2.3550945181,
				"element": "H" 
			},
			{
				"x": -2.601102718,
				"y": -4.5384752909,
				"z": -2.0423220395,
				"element": "H" 
			},
			{
				"x": 1.8093762377,
				"y": -1.4506274899,
				"z": -0.5027593395,
				"element": "H" 
			},
			{
				"x": 2.0045217188,
				"y": -0.2791547217,
				"z": -1.787888494,
				"element": "H" 
			},
			{
				"x": 4.5027306397,
				"y": -2.5251583951,
				"z": -3.31841711,
				"element": "H" 
			},
			{
				"x": 3.8535080599,
				"y": -1.1764179037,
				"z": -5.6549769179,
				"element": "H" 
			},
			{
				"x": 4.2709341381,
				"y": 1.0240758552,
				"z": -6.7058581096,
				"element": "H" 
			},
			{
				"x": 4.651804192,
				"y": 3.0328380094,
				"z": -5.2885718315,
				"element": "H" 
			},
			{
				"x": 4.6288528628,
				"y": 2.8122904364,
				"z": -2.811110384,
				"element": "H" 
			},
			{
				"x": 4.2225813863,
				"y": 0.6068690431,
				"z": -1.7637883313,
				"element": "H" 
			},
			{
				"x": -1.9125014953,
				"y": -1.9452130263,
				"z": -0.2720787286,
				"element": "H" 
			},
			{
				"x": -0.475651628,
				"y": -1.9054473659,
				"z": 0.6844768706,
				"element": "H" 
			},
			{
				"x": -0.5444604316,
				"y": -1.1997897357,
				"z": 2.7956901145,
				"element": "H" 
			},
			{
				"x": -0.4219122155,
				"y": -1.7762097966,
				"z": 4.9892705373,
				"element": "H" 
			},
			{
				"x": -1.1995280588,
				"y": -1.6256151456,
				"z": 7.3264941282,
				"element": "H" 
			},
			{
				"x": -3.4187959809,
				"y": -0.6146444117,
				"z": 7.8391459151,
				"element": "H" 
			},
			{
				"x": -4.8298202922,
				"y": 0.2464179062,
				"z": 5.9813316004,
				"element": "H" 
			},
			{
				"x": -4.062982257,
				"y": 0.086673134,
				"z": 3.6543170617,
				"element": "H" 
			},
			{
				"x": -2.0006880144,
				"y": 0.8888333368,
				"z": -1.8963678025,
				"element": "H" 
			},
			{
				"x": 0.6230207204,
				"y": 0.8787806665,
				"z": -2.8396910727,
				"element": "H" 
			},
			{
				"x": -0.3014473534,
				"y": 2.3422495131,
				"z": -2.9400404798,
				"element": "H" 
			},
			{
				"x": 1.188051686,
				"y": 3.3304377127,
				"z": -1.3564024269,
				"element": "H" 
			},
			{
				"x": 2.0872561661,
				"y": 1.8278037535,
				"z": -1.2778036284,
				"element": "H" 
			},
			{
				"x": 2.0132533348,
				"y": 2.4714027264,
				"z": 1.4804014664,
				"element": "H" 
			},
			{
				"x": 0.4301150985,
				"y": 2.488932264,
				"z": 2.250453482,
				"element": "H" 
			},
			{
				"x": 0.8945774636,
				"y": 3.8099134084,
				"z": 1.1599099987,
				"element": "H" 
			},
			{
				"x": -0.8973129063,
				"y": 3.8213426181,
				"z": -1.7474056145,
				"element": "H" 
			},
			{
				"x": -1.3058869054,
				"y": 4.3207464883,
				"z": -0.1101697877,
				"element": "H" 
			},
			{
				"x": -2.5210388452,
				"y": 3.5502531065,
				"z": -1.1247948839,
				"element": "H" 
			},
			{
				"x": -1.7863748977,
				"y": 1.2381941027,
				"z": 1.6381375466,
				"element": "H" 
			},
			{
				"x": -2.0504462704,
				"y": 2.962967935,
				"z": 1.511224562,
				"element": "H" 
			},
			{
				"x": -3.0885756549,
				"y": 1.8536018502,
				"z": 0.6179750549,
				"element": "H" 
			}
		],
		 "valence_orbital": [ 
			{
				"type": "occ",
				"energy": -0.24715,
				"method": "rhf"
			},
			{
				"type": "occ",
				"energy": -0.24169,
				"method": "rhf"
			},
			{
				"type": "occ",
				"energy": -0.23495,
				"method": "rhf"
			},
			{
				"type": "occ",
				"energy": -0.22683,
				"method": "rhf"
			},
			{
				"type": "occ",
				"energy": -0.2144,
				"method": "rhf"
			},
			{
				"type": "unocc",
				"energy": -0.04056,
				"method": "rhf"
			},
			{
				"type": "unocc",
				"energy": -0.03725,
				"method": "rhf"
			},
			{
				"type": "unocc",
				"energy": -0.03248,
				"method": "rhf"
			},
			{
				"type": "unocc",
				"energy": -0.01427,
				"method": "rhf"
			},
			{
				"type": "unocc",
				"energy": -0.00942,
				"method": "rhf"
			}
		],
		"cosmo_sigma_profile": { 
			"-0.025": 0.0,
			"-0.024": 0.0,
			"-0.023": 0.0,
			"-0.022": 0.0,
			"-0.021": 0.0,
			"-0.02": 0.0,
			"-0.019": 0.0,
			"-0.018": 0.0,
			"-0.017": 0.0,
			"-0.016": 0.0,
			"-0.015": 0.0,
			"-0.014": 0.0,
			"-0.013": 0.0,
			"-0.012": 0.0,
			"-0.011": 0.0,
			"-0.01": 0.0,
			"-0.009": 0.0,
			"-0.008": 0.0126210770325,
			"-0.007": 1.94950439714,
			"-0.006": 16.4964956555,
			"-0.005": 24.7323010138,
			"-0.004": 39.2513307169,
			"-0.003": 70.6040298399,
			"-0.002": 75.0385162952,
			"-0.001": 67.0663611488,
			"0.0": 68.0480640527,
			"0.001": 66.92745662,
			"0.002": 44.2810063787,
			"0.003": 38.0182893723,
			"0.004": 32.5541405973,
			"0.005": 32.3206630452,
			"0.006": 8.04616253198,
			"0.007": 3.81496631863,
			"0.008": 3.31756451637,
			"0.009": 2.80303400848,
			"0.01": 4.04460001192,
			"0.011": 5.07414517925,
			"0.012": 3.88172904537,
			"0.013": 0.321474693506,
			"0.014": 0.0,
			"0.015": 0.0,
			"0.016": 0.0,
			"0.017": 0.0,
			"0.018": 0.0,
			"0.019": 0.0,
			"0.02": 0.0,
			"0.021": 0.0,
			"0.022": 0.0,
			"0.023": 0.0,
			"0.024": 0.0,
			"0.025": 0.0
		}
	}
}
