{
	 "smiles": "NNC(=O)C1=CC=C(CSC2=NC3=C(N2)C=CC=C3)C=C1", 
	 "Tm": 338.15, 
	 "num_atms": 35, 
	 "gaussian": { 
		 "optdone": 1, 
		 "sigma_profile": "yes", 
		 "theory": "DFT", 
		 "functional": "B3LYP", 
		 "basiset": "6-31G**", 
		 "properties": { 
			 "R2extent": 10080.4162, 
			 "electric_dipole_moment_norm": 3.76391630353, 
			 "electric_quadrupole_moment_norm": 16.9837895845, 
			 "total_energy": -1272.45045172, 
			 "HOMO_LUMO_gap": 0.16662, 
			 "cosmo_polarized_energy": -21.28, 
			 "cosmo_cavitation_energy": 41.44, 
			 "cosmo_dispersion_energy": -30.26, 
			 "cosmo_repulsion_energy": 2.27, 
			 "cosmo_total_nonelectrostatic_energy": 13.45, 
			 "SMD_solvation_energy": 6.17 
		},
		"coords": [
			{
				"x": -1.5505417195,
				"y": -5.4172699456,
				"z": -4.6845900496,
				"element": "N" 
			},
			{
				"x": -1.5026791353,
				"y": -4.8894515283,
				"z": -3.373157086,
				"element": "N" 
			},
			{
				"x": -1.8813819352,
				"y": -3.5822451557,
				"z": -3.1547934336,
				"element": "C" 
			},
			{
				"x": -2.3925448283,
				"y": -2.909614958,
				"z": -4.0461492044,
				"element": "O" 
			},
			{
				"x": -1.6229346106,
				"y": -3.0457264337,
				"z": -1.7802796133,
				"element": "C" 
			},
			{
				"x": -1.5690475484,
				"y": -1.6545400183,
				"z": -1.6220997443,
				"element": "C" 
			},
			{
				"x": -1.3312838464,
				"y": -1.0923197756,
				"z": -0.3718663103,
				"element": "C" 
			},
			{
				"x": -1.1531212249,
				"y": -1.9115348973,
				"z": 0.7536094316,
				"element": "C" 
			},
			{
				"x": -0.9046414218,
				"y": -1.3075302195,
				"z": 2.1104647873,
				"element": "C" 
			},
			{
				"x": 0.8875151331,
				"y": -1.0273739695,
				"z": 2.5077305292,
				"element": "S" 
			},
			{
				"x": 1.0952268066,
				"y": 0.6016004719,
				"z": 1.8606954944,
				"element": "C" 
			},
			{
				"x": 0.1569982297,
				"y": 1.4022428105,
				"z": 1.4178622369,
				"element": "N" 
			},
			{
				"x": 0.8242032098,
				"y": 2.5687493114,
				"z": 1.0541037291,
				"element": "C" 
			},
			{
				"x": 2.2115569169,
				"y": 2.4399093418,
				"z": 1.3001574045,
				"element": "C" 
			},
			{
				"x": 2.3551276632,
				"y": 1.1591729399,
				"z": 1.8180224004,
				"element": "N" 
			},
			{
				"x": 3.1216370606,
				"y": 3.4606878543,
				"z": 1.0298770486,
				"element": "C" 
			},
			{
				"x": 2.5999975461,
				"y": 4.6385470457,
				"z": 0.4952212996,
				"element": "C" 
			},
			{
				"x": 1.2227667265,
				"y": 4.7848194021,
				"z": 0.2437265829,
				"element": "C" 
			},
			{
				"x": 0.3211830097,
				"y": 3.7588979823,
				"z": 0.5174317908,
				"element": "C" 
			},
			{
				"x": -1.2289858052,
				"y": -3.3019663777,
				"z": 0.5969053588,
				"element": "C" 
			},
			{
				"x": -1.4617755154,
				"y": -3.866667956,
				"z": -0.6549628061,
				"element": "C" 
			},
			{
				"x": -2.4873818969,
				"y": -5.7961727087,
				"z": -4.8208037094,
				"element": "H" 
			},
			{
				"x": -1.4945091009,
				"y": -4.6146933546,
				"z": -5.3151360268,
				"element": "H" 
			},
			{
				"x": -0.7535282024,
				"y": -5.2718242052,
				"z": -2.8132718128,
				"element": "H" 
			},
			{
				"x": -1.7215016381,
				"y": -1.0307277893,
				"z": -2.4964558995,
				"element": "H" 
			},
			{
				"x": -1.2746812568,
				"y": -0.014952146,
				"z": -0.2523133697,
				"element": "H" 
			},
			{
				"x": -1.3837356624,
				"y": -0.3334094778,
				"z": 2.2194690547,
				"element": "H" 
			},
			{
				"x": -1.2482426587,
				"y": -1.9674350975,
				"z": 2.910416462,
				"element": "H" 
			},
			{
				"x": 3.2141774006,
				"y": 0.7070973851,
				"z": 2.0900943379,
				"element": "H" 
			},
			{
				"x": 4.184377793,
				"y": 3.3502423356,
				"z": 1.2231037671,
				"element": "H" 
			},
			{
				"x": 3.2725380913,
				"y": 5.4602751559,
				"z": 0.2682539417,
				"element": "H" 
			},
			{
				"x": 0.8583292078,
				"y": 5.7191875771,
				"z": -0.1725840337,
				"element": "H" 
			},
			{
				"x": -0.7414638785,
				"y": 3.8674964684,
				"z": 0.3262418305,
				"element": "H" 
			},
			{
				"x": -1.1167119265,
				"y": -3.9483705888,
				"z": 1.4639294459,
				"element": "H" 
			},
			{
				"x": -1.5550409826,
				"y": -4.9449994788,
				"z": -0.7443538342,
				"element": "H" 
			}
		],
		 "valence_orbital": [ 
			{
				"type": "occ",
				"energy": -0.25996,
				"method": "rhf"
			},
			{
				"type": "occ",
				"energy": -0.25079,
				"method": "rhf"
			},
			{
				"type": "occ",
				"energy": -0.24805,
				"method": "rhf"
			},
			{
				"type": "occ",
				"energy": -0.23012,
				"method": "rhf"
			},
			{
				"type": "occ",
				"energy": -0.212,
				"method": "rhf"
			},
			{
				"type": "unocc",
				"energy": -0.04538,
				"method": "rhf"
			},
			{
				"type": "unocc",
				"energy": -0.01561,
				"method": "rhf"
			},
			{
				"type": "unocc",
				"energy": -0.01216,
				"method": "rhf"
			},
			{
				"type": "unocc",
				"energy": 0.0129,
				"method": "rhf"
			},
			{
				"type": "unocc",
				"energy": 0.01927,
				"method": "rhf"
			}
		],
		"cosmo_sigma_profile": { 
			"-0.025": 0.0,
			"-0.024": 0.0,
			"-0.023": 0.0,
			"-0.022": 0.0,
			"-0.021": 0.0,
			"-0.02": 0.0,
			"-0.019": 0.0,
			"-0.018": 0.0,
			"-0.017": 0.558711805368,
			"-0.016": 1.55768091296,
			"-0.015": 1.43951858726,
			"-0.014": 1.94872795858,
			"-0.013": 2.44265709697,
			"-0.012": 2.64457416164,
			"-0.011": 3.34888887832,
			"-0.01": 4.62001483648,
			"-0.009": 5.13977529764,
			"-0.008": 6.94917610552,
			"-0.007": 9.83113460382,
			"-0.006": 13.3143352281,
			"-0.005": 18.4584417841,
			"-0.004": 20.3756646995,
			"-0.003": 21.381128132,
			"-0.002": 16.8895410701,
			"-0.001": 17.8386642833,
			"0.0": 17.6916778555,
			"0.001": 24.7703947338,
			"0.002": 23.6898189008,
			"0.003": 25.4698368843,
			"0.004": 29.1881950471,
			"0.005": 19.0140238897,
			"0.006": 13.7213088382,
			"0.007": 6.46178594622,
			"0.008": 3.04156586366,
			"0.009": 2.37524873699,
			"0.01": 3.3715768191,
			"0.011": 3.26954235546,
			"0.012": 3.78877851592,
			"0.013": 5.35783691347,
			"0.014": 1.66870982929,
			"0.015": 0.778914400949,
			"0.016": 0.424067497059,
			"0.017": 0.363591971812,
			"0.018": 0.0,
			"0.019": 0.0,
			"0.02": 0.0,
			"0.021": 0.0,
			"0.022": 0.0,
			"0.023": 0.0,
			"0.024": 0.0,
			"0.025": 0.0
		}
	}
}
