{
	 "smiles": "CC(C)NC1=NC(NC2CC2)=NC(Cl)=N1", 
	 "Tm": 440.15, 
	 "num_atms": 29, 
	 "gaussian": { 
		 "optdone": 1, 
		 "sigma_profile": "yes", 
		 "theory": "DFT", 
		 "functional": "B3LYP", 
		 "basiset": "6-31G**", 
		 "properties": { 
			 "R2extent": 5103.1573, 
			 "electric_dipole_moment_norm": 4.49907764436, 
			 "electric_quadrupole_moment_norm": 18.909408477, 
			 "total_energy": -1085.35095564, 
			 "HOMO_LUMO_gap": 0.21089, 
			 "cosmo_polarized_energy": -11.74, 
			 "cosmo_cavitation_energy": 33.01, 
			 "cosmo_dispersion_energy": -23.77, 
			 "cosmo_repulsion_energy": 1.88, 
			 "cosmo_total_nonelectrostatic_energy": 11.13, 
			 "SMD_solvation_energy": 1.24 
		},
		"coords": [
			{
				"x": -1.1877352941,
				"y": 1.1811130509,
				"z": 1.3472161781,
				"element": "C" 
			},
			{
				"x": -1.11983751,
				"y": 1.851992135,
				"z": -0.0310675178,
				"element": "C" 
			},
			{
				"x": -0.3218263191,
				"y": 3.1643113098,
				"z": -0.0138698816,
				"element": "C" 
			},
			{
				"x": -0.6542977152,
				"y": 0.9373227255,
				"z": -1.0837760317,
				"element": "N" 
			},
			{
				"x": 0.5509885961,
				"y": 0.3380932961,
				"z": -1.221339685,
				"element": "C" 
			},
			{
				"x": 1.4704470409,
				"y": 0.4203989831,
				"z": -0.2432160807,
				"element": "N" 
			},
			{
				"x": 2.6194016992,
				"y": -0.2233140906,
				"z": -0.510300872,
				"element": "C" 
			},
			{
				"x": 3.6352724695,
				"y": -0.2245632636,
				"z": 0.3840660044,
				"element": "N" 
			},
			{
				"x": 3.6947948065,
				"y": 0.2525603129,
				"z": 1.7426423524,
				"element": "C" 
			},
			{
				"x": 2.581925777,
				"y": 0.0859693905,
				"z": 2.747108899,
				"element": "C" 
			},
			{
				"x": 2.9734393844,
				"y": 1.4675845217,
				"z": 2.2585768638,
				"element": "C" 
			},
			{
				"x": 2.8922322034,
				"y": -0.9109462084,
				"z": -1.6532067542,
				"element": "N" 
			},
			{
				"x": 1.8917992448,
				"y": -0.9026890521,
				"z": -2.5108242367,
				"element": "C" 
			},
			{
				"x": 2.1710854832,
				"y": -1.7788465196,
				"z": -4.0135406415,
				"element": "Cl" 
			},
			{
				"x": 0.7107346531,
				"y": -0.3285757768,
				"z": -2.3977255,
				"element": "N" 
			},
			{
				"x": -1.6793082749,
				"y": 1.8508788815,
				"z": 2.0604208749,
				"element": "H" 
			},
			{
				"x": -0.1887721472,
				"y": 0.9517040264,
				"z": 1.7204761248,
				"element": "H" 
			},
			{
				"x": -1.7633236105,
				"y": 0.2521224516,
				"z": 1.2961645356,
				"element": "H" 
			},
			{
				"x": -2.1472782863,
				"y": 2.0905110819,
				"z": -0.3301758364,
				"element": "H" 
			},
			{
				"x": -0.7375143948,
				"y": 3.8502745754,
				"z": 0.7313529114,
				"element": "H" 
			},
			{
				"x": 0.7253545387,
				"y": 2.9777207098,
				"z": 0.234441829,
				"element": "H" 
			},
			{
				"x": -0.3604497846,
				"y": 3.6552911966,
				"z": -0.9910623853,
				"element": "H" 
			},
			{
				"x": -1.2331824603,
				"y": 0.8277982457,
				"z": -1.9037479034,
				"element": "H" 
			},
			{
				"x": 4.41637987,
				"y": -0.7826820405,
				"z": 0.0712339621,
				"element": "H" 
			},
			{
				"x": 4.7019891245,
				"y": 0.1083750093,
				"z": 2.1208003852,
				"element": "H" 
			},
			{
				"x": 2.8475604804,
				"y": -0.217565825,
				"z": 3.7554839943,
				"element": "H" 
			},
			{
				"x": 1.6425496738,
				"y": -0.3124643574,
				"z": 2.3809774251,
				"element": "H" 
			},
			{
				"x": 2.280549622,
				"y": 1.9586257073,
				"z": 1.5885467586,
				"element": "H" 
			},
			{
				"x": 3.5213211294,
				"y": 2.126399523,
				"z": 2.9260442274,
				"element": "H" 
			}
		],
		 "valence_orbital": [ 
			{
				"type": "occ",
				"energy": -0.28595,
				"method": "rhf"
			},
			{
				"type": "occ",
				"energy": -0.26753,
				"method": "rhf"
			},
			{
				"type": "occ",
				"energy": -0.26512,
				"method": "rhf"
			},
			{
				"type": "occ",
				"energy": -0.24305,
				"method": "rhf"
			},
			{
				"type": "occ",
				"energy": -0.22693,
				"method": "rhf"
			},
			{
				"type": "unocc",
				"energy": -0.01604,
				"method": "rhf"
			},
			{
				"type": "unocc",
				"energy": -0.00242,
				"method": "rhf"
			},
			{
				"type": "unocc",
				"energy": 0.04668,
				"method": "rhf"
			},
			{
				"type": "unocc",
				"energy": 0.0682,
				"method": "rhf"
			},
			{
				"type": "unocc",
				"energy": 0.07178,
				"method": "rhf"
			}
		],
		"cosmo_sigma_profile": { 
			"-0.025": 0.0,
			"-0.024": 0.0,
			"-0.023": 0.0,
			"-0.022": 0.0,
			"-0.021": 0.0,
			"-0.02": 0.0,
			"-0.019": 0.0,
			"-0.018": 0.0,
			"-0.017": 0.0,
			"-0.016": 0.0,
			"-0.015": 0.236542342364,
			"-0.014": 1.33270485246,
			"-0.013": 2.47916330152,
			"-0.012": 1.77769565957,
			"-0.011": 1.55561395235,
			"-0.01": 2.89113302803,
			"-0.009": 1.5804724086,
			"-0.008": 2.14985195898,
			"-0.007": 3.88621656258,
			"-0.006": 4.085476232,
			"-0.005": 7.69549000918,
			"-0.004": 13.9529803665,
			"-0.003": 24.5619393341,
			"-0.002": 22.9240505221,
			"-0.001": 24.4296065276,
			"0.0": 29.987329787,
			"0.001": 31.7901300675,
			"0.002": 18.5522410516,
			"0.003": 18.3860753736,
			"0.004": 17.2855855553,
			"0.005": 10.2453072185,
			"0.006": 5.31264777465,
			"0.007": 2.94281313429,
			"0.008": 2.60206989148,
			"0.009": 2.65304028313,
			"0.01": 2.15671052472,
			"0.011": 1.89862852252,
			"0.012": 2.0532788307,
			"0.013": 1.70248292606,
			"0.014": 0.278628764093,
			"0.015": 0.0,
			"0.016": 0.0,
			"0.017": 0.0,
			"0.018": 0.0,
			"0.019": 0.0,
			"0.02": 0.0,
			"0.021": 0.0,
			"0.022": 0.0,
			"0.023": 0.0,
			"0.024": 0.0,
			"0.025": 0.0
		}
	}
}
