{
	 "smiles": "NC(=NO)C12CC3CC(CC(C3)C1)C2", 
	 "Tm": 426.15, 
	 "num_atms": 32, 
	 "gaussian": { 
		 "optdone": 1, 
		 "sigma_profile": "yes", 
		 "theory": "DFT", 
		 "functional": "B3LYP", 
		 "basiset": "6-31G**", 
		 "properties": { 
			 "R2extent": 2781.439, 
			 "electric_dipole_moment_norm": 1.57996391414, 
			 "electric_quadrupole_moment_norm": 4.98607065132, 
			 "total_energy": -614.72537255, 
			 "HOMO_LUMO_gap": 0.25152, 
			 "cosmo_polarized_energy": -10.26, 
			 "cosmo_cavitation_energy": 29.53, 
			 "cosmo_dispersion_energy": -22.51, 
			 "cosmo_repulsion_energy": 1.76, 
			 "cosmo_total_nonelectrostatic_energy": 8.78, 
			 "SMD_solvation_energy": 3.7 
		},
		"coords": [
			{
				"x": -0.6117303565,
				"y": 1.0734990171,
				"z": -2.8394181789,
				"element": "N" 
			},
			{
				"x": -0.3985014958,
				"y": -0.0913156308,
				"z": -2.1304646824,
				"element": "C" 
			},
			{
				"x": -0.7780732147,
				"y": -1.2524851135,
				"z": -2.5473779147,
				"element": "N" 
			},
			{
				"x": -1.3617081788,
				"y": -1.1260137135,
				"z": -3.8492417965,
				"element": "O" 
			},
			{
				"x": 0.2600229446,
				"y": 0.0075579398,
				"z": -0.7613576876,
				"element": "C" 
			},
			{
				"x": -0.550413566,
				"y": 0.9711313796,
				"z": 0.1527465114,
				"element": "C" 
			},
			{
				"x": 0.1208335514,
				"y": 1.0937647333,
				"z": 1.535782689,
				"element": "C" 
			},
			{
				"x": 1.5515137667,
				"y": 1.6459123977,
				"z": 1.3669087894,
				"element": "C" 
			},
			{
				"x": 2.3756477305,
				"y": 0.6844836108,
				"z": 0.485742591,
				"element": "C" 
			},
			{
				"x": 2.4338435663,
				"y": -0.703716247,
				"z": 1.1537641319,
				"element": "C" 
			},
			{
				"x": 1.0019513203,
				"y": -1.252447115,
				"z": 1.3149525066,
				"element": "C" 
			},
			{
				"x": 0.1818781912,
				"y": -0.2948772515,
				"z": 2.203048518,
				"element": "C" 
			},
			{
				"x": 0.3354446204,
				"y": -1.3763870777,
				"z": -0.0699053469,
				"element": "C" 
			},
			{
				"x": 1.709181884,
				"y": 0.5598447786,
				"z": -0.9000393628,
				"element": "C" 
			},
			{
				"x": 0.0165304219,
				"y": 1.8413670208,
				"z": -2.6612794307,
				"element": "H" 
			},
			{
				"x": -0.8478945413,
				"y": 0.926314139,
				"z": -3.811091387,
				"element": "H" 
			},
			{
				"x": -1.5555997081,
				"y": -2.0456785495,
				"z": -4.0645081144,
				"element": "H" 
			},
			{
				"x": -0.6300447856,
				"y": 1.9600572036,
				"z": -0.3146225509,
				"element": "H" 
			},
			{
				"x": -1.5742380685,
				"y": 0.5912647213,
				"z": 0.2570959434,
				"element": "H" 
			},
			{
				"x": -0.467238427,
				"y": 1.7791701081,
				"z": 2.1594385289,
				"element": "H" 
			},
			{
				"x": 2.0304020241,
				"y": 1.7600220576,
				"z": 2.348097042,
				"element": "H" 
			},
			{
				"x": 1.5201357551,
				"y": 2.6445523398,
				"z": 0.9105403741,
				"element": "H" 
			},
			{
				"x": 3.3922645525,
				"y": 1.0784656271,
				"z": 0.3594580599,
				"element": "H" 
			},
			{
				"x": 2.9260213801,
				"y": -0.6300217547,
				"z": 2.1324773737,
				"element": "H" 
			},
			{
				"x": 3.0353958893,
				"y": -1.390751567,
				"z": 0.5442906855,
				"element": "H" 
			},
			{
				"x": 1.0394220107,
				"y": -2.2451851483,
				"z": 1.7811305276,
				"element": "H" 
			},
			{
				"x": -0.8326672425,
				"y": -0.6889980396,
				"z": 2.3460705977,
				"element": "H" 
			},
			{
				"x": 0.6376977945,
				"y": -0.2160393388,
				"z": 3.1989139009,
				"element": "H" 
			},
			{
				"x": -0.6737169585,
				"y": -1.7905310111,
				"z": 0.0252879596,
				"element": "H" 
			},
			{
				"x": 0.8945986658,
				"y": -2.0728779297,
				"z": -0.7035675667,
				"element": "H" 
			},
			{
				"x": 2.2921330889,
				"y": -0.1089553819,
				"z": -1.5457818853,
				"element": "H" 
			},
			{
				"x": 1.7044073848,
				"y": 1.5453737953,
				"z": -1.3860908259,
				"element": "H" 
			}
		],
		 "valence_orbital": [ 
			{
				"type": "occ",
				"energy": -0.28606,
				"method": "rhf"
			},
			{
				"type": "occ",
				"energy": -0.2776,
				"method": "rhf"
			},
			{
				"type": "occ",
				"energy": -0.27557,
				"method": "rhf"
			},
			{
				"type": "occ",
				"energy": -0.25982,
				"method": "rhf"
			},
			{
				"type": "occ",
				"energy": -0.20468,
				"method": "rhf"
			},
			{
				"type": "unocc",
				"energy": 0.04684,
				"method": "rhf"
			},
			{
				"type": "unocc",
				"energy": 0.06312,
				"method": "rhf"
			},
			{
				"type": "unocc",
				"energy": 0.07798,
				"method": "rhf"
			},
			{
				"type": "unocc",
				"energy": 0.10332,
				"method": "rhf"
			},
			{
				"type": "unocc",
				"energy": 0.12704,
				"method": "rhf"
			}
		],
		"cosmo_sigma_profile": { 
			"-0.025": 0.0,
			"-0.024": 0.0,
			"-0.023": 0.0,
			"-0.022": 0.0,
			"-0.021": 0.0,
			"-0.02": 0.0,
			"-0.019": 0.0,
			"-0.018": 0.0,
			"-0.017": 0.00964557600358,
			"-0.016": 0.619734515682,
			"-0.015": 1.16570500169,
			"-0.014": 0.506368097408,
			"-0.013": 1.05603325545,
			"-0.012": 1.52753512463,
			"-0.011": 2.74820104545,
			"-0.01": 2.89779382603,
			"-0.009": 2.88403603237,
			"-0.008": 3.03161987227,
			"-0.007": 2.82475446788,
			"-0.006": 2.45521881488,
			"-0.005": 2.76192121698,
			"-0.004": 3.26344584851,
			"-0.003": 5.26159802345,
			"-0.002": 32.8315107885,
			"-0.001": 42.8074952508,
			"0.0": 40.4179212348,
			"0.001": 27.3682836814,
			"0.002": 8.79434468468,
			"0.003": 4.23438684352,
			"0.004": 3.56019890656,
			"0.005": 2.80529562017,
			"0.006": 3.06644299684,
			"0.007": 4.45270330252,
			"0.008": 5.82550723488,
			"0.009": 5.16703335812,
			"0.01": 4.08190502523,
			"0.011": 3.117518376,
			"0.012": 2.67380102154,
			"0.013": 0.861689750927,
			"0.014": 0.842670857528,
			"0.015": 0.207114369238,
			"0.016": 0.0,
			"0.017": 0.0,
			"0.018": 0.0,
			"0.019": 0.0,
			"0.02": 0.0,
			"0.021": 0.0,
			"0.022": 0.0,
			"0.023": 0.0,
			"0.024": 0.0,
			"0.025": 0.0
		}
	}
}
