{
	 "smiles": "OC(=O)C1=CC2=NSN=C2C=C1", 
	 "Tm": 503.15, 
	 "num_atms": 16, 
	 "gaussian": { 
		 "optdone": 1, 
		 "sigma_profile": "yes", 
		 "theory": "DFT", 
		 "functional": "B3LYP", 
		 "basiset": "6-31G**", 
		 "properties": { 
			 "R2extent": 3139.1422, 
			 "electric_dipole_moment_norm": 3.93008955878, 
			 "electric_quadrupole_moment_norm": 10.0451152313, 
			 "total_energy": -927.272125148, 
			 "HOMO_LUMO_gap": 0.15254, 
			 "cosmo_polarized_energy": -15.21, 
			 "cosmo_cavitation_energy": 22.98, 
			 "cosmo_dispersion_energy": -18.02, 
			 "cosmo_repulsion_energy": 1.35, 
			 "cosmo_total_nonelectrostatic_energy": 6.3, 
			 "SMD_solvation_energy": 1.73 
		},
		"coords": [
			{
				"x": 2.5087832801,
				"y": 0.3016581251,
				"z": -0.2062326475,
				"element": "O" 
			},
			{
				"x": 1.6325321125,
				"y": 0.2912809011,
				"z": 0.8336222953,
				"element": "C" 
			},
			{
				"x": 2.0410997087,
				"y": 0.3158468084,
				"z": 1.9693882684,
				"element": "O" 
			},
			{
				"x": 0.1711009477,
				"y": 0.2434540588,
				"z": 0.4838773343,
				"element": "C" 
			},
			{
				"x": -0.6901652638,
				"y": -0.2230403046,
				"z": 1.4513241041,
				"element": "C" 
			},
			{
				"x": -2.0759388979,
				"y": -0.2930725454,
				"z": 1.146957023,
				"element": "C" 
			},
			{
				"x": -3.0436064289,
				"y": -0.73729456,
				"z": 1.9632286815,
				"element": "N" 
			},
			{
				"x": -4.4451435827,
				"y": -0.6012445957,
				"z": 1.1238335966,
				"element": "S" 
			},
			{
				"x": -3.8893950214,
				"y": 0.0179798809,
				"z": -0.2929289805,
				"element": "N" 
			},
			{
				"x": -2.5632794822,
				"y": 0.1399356867,
				"z": -0.1484413099,
				"element": "C" 
			},
			{
				"x": -1.6500955963,
				"y": 0.6454695102,
				"z": -1.1178956045,
				"element": "C" 
			},
			{
				"x": -0.3197119994,
				"y": 0.687163166,
				"z": -0.7939192842,
				"element": "C" 
			},
			{
				"x": 2.0544602812,
				"y": 0.1056743332,
				"z": -1.0371697508,
				"element": "H" 
			},
			{
				"x": -0.3146127687,
				"y": -0.5318662813,
				"z": 2.4197429382,
				"element": "H" 
			},
			{
				"x": -2.0204594276,
				"y": 0.9950082002,
				"z": -2.0750034025,
				"element": "H" 
			},
			{
				"x": 0.3765321386,
				"y": 1.1123476163,
				"z": -1.5121832615,
				"element": "H" 
			}
		],
		 "valence_orbital": [ 
			{
				"type": "occ",
				"energy": -0.32536,
				"method": "rhf"
			},
			{
				"type": "occ",
				"energy": -0.31677,
				"method": "rhf"
			},
			{
				"type": "occ",
				"energy": -0.28801,
				"method": "rhf"
			},
			{
				"type": "occ",
				"energy": -0.28155,
				"method": "rhf"
			},
			{
				"type": "occ",
				"energy": -0.26108,
				"method": "rhf"
			},
			{
				"type": "unocc",
				"energy": -0.10854,
				"method": "rhf"
			},
			{
				"type": "unocc",
				"energy": -0.04436,
				"method": "rhf"
			},
			{
				"type": "unocc",
				"energy": -0.01381,
				"method": "rhf"
			},
			{
				"type": "unocc",
				"energy": -0.00231,
				"method": "rhf"
			},
			{
				"type": "unocc",
				"energy": 0.04464,
				"method": "rhf"
			}
		],
		"cosmo_sigma_profile": { 
			"-0.025": 0.0,
			"-0.024": 0.0,
			"-0.023": 0.0,
			"-0.022": 0.0,
			"-0.021": 0.0,
			"-0.02": 0.0,
			"-0.019": 0.486702268562,
			"-0.018": 0.773678372987,
			"-0.017": 1.12151856708,
			"-0.016": 1.39337406512,
			"-0.015": 1.02278467533,
			"-0.014": 0.597956322547,
			"-0.013": 1.04979256494,
			"-0.012": 1.54109341185,
			"-0.011": 1.50085561529,
			"-0.01": 1.34461487376,
			"-0.009": 1.71600799076,
			"-0.008": 4.31768798437,
			"-0.007": 4.93717160141,
			"-0.006": 6.05879155769,
			"-0.005": 8.87852444221,
			"-0.004": 11.7878476626,
			"-0.003": 15.3585939433,
			"-0.002": 20.5018667589,
			"-0.001": 15.9499496339,
			"0.0": 15.5580899517,
			"0.001": 9.71150199535,
			"0.002": 8.49879619426,
			"0.003": 5.0787738588,
			"0.004": 3.95585283511,
			"0.005": 5.42553686169,
			"0.006": 3.66193264037,
			"0.007": 4.40328400885,
			"0.008": 5.88975486865,
			"0.009": 5.52611787805,
			"0.01": 6.65435976514,
			"0.011": 7.42110070725,
			"0.012": 5.48976613053,
			"0.013": 1.00703861362,
			"0.014": 0.0,
			"0.015": 0.0,
			"0.016": 0.0,
			"0.017": 0.0,
			"0.018": 0.0,
			"0.019": 0.0,
			"0.02": 0.0,
			"0.021": 0.0,
			"0.022": 0.0,
			"0.023": 0.0,
			"0.024": 0.0,
			"0.025": 0.0
		}
	}
}
