{
	 "smiles": "CC(CSC1=CC=C(Cl)C=C1)C(O)=O", 
	 "Tm": 337.15, 
	 "num_atms": 25, 
	 "gaussian": { 
		 "optdone": 1, 
		 "sigma_profile": "yes", 
		 "theory": "DFT", 
		 "functional": "B3LYP", 
		 "basiset": "6-31G**", 
		 "properties": { 
			 "R2extent": 4941.3153, 
			 "electric_dipole_moment_norm": 4.36848987294, 
			 "electric_quadrupole_moment_norm": 30.0791185511, 
			 "total_energy": -1396.53277765, 
			 "HOMO_LUMO_gap": 0.20265, 
			 "cosmo_polarized_energy": -14.69, 
			 "cosmo_cavitation_energy": 31.82, 
			 "cosmo_dispersion_energy": -22.78, 
			 "cosmo_repulsion_energy": 1.76, 
			 "cosmo_total_nonelectrostatic_energy": 10.8, 
			 "SMD_solvation_energy": 5.77 
		},
		"coords": [
			{
				"x": 1.5844118083,
				"y": 1.929385069,
				"z": 0.0583875893,
				"element": "C" 
			},
			{
				"x": 2.1933335985,
				"y": 1.0016540285,
				"z": 1.1248778286,
				"element": "C" 
			},
			{
				"x": 1.1996087674,
				"y": -0.0352231538,
				"z": 1.6893963771,
				"element": "C" 
			},
			{
				"x": 0.4873266155,
				"y": -1.282157181,
				"z": 0.515951791,
				"element": "S" 
			},
			{
				"x": -0.9421545603,
				"y": -0.4518277184,
				"z": -0.1841035541,
				"element": "C" 
			},
			{
				"x": -1.0453653961,
				"y": -0.3082478889,
				"z": -1.573055076,
				"element": "C" 
			},
			{
				"x": -2.1842345677,
				"y": 0.2596771889,
				"z": -2.1446605696,
				"element": "C" 
			},
			{
				"x": -3.2167587825,
				"y": 0.6970147685,
				"z": -1.3162748874,
				"element": "C" 
			},
			{
				"x": -4.6449997852,
				"y": 1.4269978773,
				"z": -2.0260354513,
				"element": "Cl" 
			},
			{
				"x": -3.1340912038,
				"y": 0.5582748024,
				"z": 0.0701665612,
				"element": "C" 
			},
			{
				"x": -2.0019232075,
				"y": -0.0303783027,
				"z": 0.6301754069,
				"element": "C" 
			},
			{
				"x": 3.5154044635,
				"y": 0.4038825405,
				"z": 0.6191294971,
				"element": "C" 
			},
			{
				"x": 3.4282897498,
				"y": -0.5636720264,
				"z": -0.3219537776,
				"element": "O" 
			},
			{
				"x": 4.5920227728,
				"y": 0.7973855063,
				"z": 0.998592616,
				"element": "O" 
			},
			{
				"x": 1.3087919887,
				"y": 1.3836222975,
				"z": -0.8477063597,
				"element": "H" 
			},
			{
				"x": 0.6836813759,
				"y": 2.4188330304,
				"z": 0.4417139235,
				"element": "H" 
			},
			{
				"x": 2.3034395644,
				"y": 2.7047680652,
				"z": -0.21999931,
				"element": "H" 
			},
			{
				"x": 2.4947875848,
				"y": 1.6148436666,
				"z": 1.9812269953,
				"element": "H" 
			},
			{
				"x": 1.6853619425,
				"y": -0.64492007,
				"z": 2.4570815574,
				"element": "H" 
			},
			{
				"x": 0.362182819,
				"y": 0.4805333508,
				"z": 2.1662442715,
				"element": "H" 
			},
			{
				"x": -0.2334709651,
				"y": -0.6388860541,
				"z": -2.2130304113,
				"element": "H" 
			},
			{
				"x": -2.2642679842,
				"y": 0.3710882877,
				"z": -3.2202340235,
				"element": "H" 
			},
			{
				"x": -3.9522275313,
				"y": 0.8903958563,
				"z": 0.6995975089,
				"element": "H" 
			},
			{
				"x": -1.9523585864,
				"y": -0.1700968541,
				"z": 1.7056600939,
				"element": "H" 
			},
			{
				"x": 2.4960095189,
				"y": -0.8183470867,
				"z": -0.4698485972,
				"element": "H" 
			}
		],
		 "valence_orbital": [ 
			{
				"type": "occ",
				"energy": -0.30693,
				"method": "rhf"
			},
			{
				"type": "occ",
				"energy": -0.2856,
				"method": "rhf"
			},
			{
				"type": "occ",
				"energy": -0.28141,
				"method": "rhf"
			},
			{
				"type": "occ",
				"energy": -0.26219,
				"method": "rhf"
			},
			{
				"type": "occ",
				"energy": -0.24783,
				"method": "rhf"
			},
			{
				"type": "unocc",
				"energy": -0.04518,
				"method": "rhf"
			},
			{
				"type": "unocc",
				"energy": -0.03705,
				"method": "rhf"
			},
			{
				"type": "unocc",
				"energy": 0.00953,
				"method": "rhf"
			},
			{
				"type": "unocc",
				"energy": 0.0136,
				"method": "rhf"
			},
			{
				"type": "unocc",
				"energy": 0.02587,
				"method": "rhf"
			}
		],
		"cosmo_sigma_profile": { 
			"-0.025": 0.0,
			"-0.024": 0.0,
			"-0.023": 0.0,
			"-0.022": 0.0,
			"-0.021": 0.0,
			"-0.02": 0.0,
			"-0.019": 0.0,
			"-0.018": 0.0,
			"-0.017": 0.0,
			"-0.016": 0.0,
			"-0.015": 0.0,
			"-0.014": 0.0,
			"-0.013": 0.0,
			"-0.012": 0.0,
			"-0.011": 0.0,
			"-0.01": 0.112466767098,
			"-0.009": 1.18093686706,
			"-0.008": 6.72946322959,
			"-0.007": 14.0763395617,
			"-0.006": 18.0357813554,
			"-0.005": 18.3071352832,
			"-0.004": 17.085125246,
			"-0.003": 17.2718668742,
			"-0.002": 16.1707162958,
			"-0.001": 17.3514212158,
			"0.0": 17.6689654913,
			"0.001": 19.2442404616,
			"0.002": 21.5233620876,
			"0.003": 18.4029146582,
			"0.004": 13.3895371464,
			"0.005": 7.98260281238,
			"0.006": 3.10842136993,
			"0.007": 3.60033362714,
			"0.008": 2.77591495728,
			"0.009": 3.4941639742,
			"0.01": 3.69626547194,
			"0.011": 5.82848145838,
			"0.012": 5.84819965311,
			"0.013": 3.3981145538,
			"0.014": 0.386483711066,
			"0.015": 0.0,
			"0.016": 0.0,
			"0.017": 0.0,
			"0.018": 0.0,
			"0.019": 0.0,
			"0.02": 0.0,
			"0.021": 0.0,
			"0.022": 0.0,
			"0.023": 0.0,
			"0.024": 0.0,
			"0.025": 0.0
		}
	}
}
