{
	 "smiles": "ClC1=C(C=C2CCCC2=N1)C#N", 
	 "Tm": 400.15, 
	 "num_atms": 19, 
	 "gaussian": { 
		 "optdone": 1, 
		 "sigma_profile": "yes", 
		 "theory": "DFT", 
		 "functional": "B3LYP", 
		 "basiset": "6-31G**", 
		 "properties": { 
			 "R2extent": 3315.9494, 
			 "electric_dipole_moment_norm": 6.14192636231, 
			 "electric_quadrupole_moment_norm": 13.6924646558, 
			 "total_energy": -916.859340664, 
			 "HOMO_LUMO_gap": 0.19175, 
			 "cosmo_polarized_energy": -10.8, 
			 "cosmo_cavitation_energy": 25.41, 
			 "cosmo_dispersion_energy": -18.66, 
			 "cosmo_repulsion_energy": 1.51, 
			 "cosmo_total_nonelectrostatic_energy": 8.26, 
			 "SMD_solvation_energy": 3.25 
		},
		"coords": [
			{
				"x": -3.8079194765,
				"y": -2.29013355,
				"z": 0.5217719948,
				"element": "Cl" 
			},
			{
				"x": -2.2258730165,
				"y": -1.5613029112,
				"z": 0.3436901947,
				"element": "C" 
			},
			{
				"x": -2.1221313649,
				"y": -0.2533594598,
				"z": -0.1791159184,
				"element": "C" 
			},
			{
				"x": -0.8334907916,
				"y": 0.3007417921,
				"z": -0.3094001026,
				"element": "C" 
			},
			{
				"x": 0.2561823719,
				"y": -0.4583183788,
				"z": 0.0873924411,
				"element": "C" 
			},
			{
				"x": 1.7376651256,
				"y": -0.1655510751,
				"z": 0.0625740088,
				"element": "C" 
			},
			{
				"x": 2.326783116,
				"y": -1.2592616145,
				"z": 0.9984278758,
				"element": "C" 
			},
			{
				"x": 1.311816445,
				"y": -2.4301099374,
				"z": 0.9629170548,
				"element": "C" 
			},
			{
				"x": 0.0184806542,
				"y": -1.7442452822,
				"z": 0.5957159003,
				"element": "C" 
			},
			{
				"x": -1.192047015,
				"y": -2.2934094289,
				"z": 0.7210016278,
				"element": "N" 
			},
			{
				"x": -3.2676659727,
				"y": 0.5076634609,
				"z": -0.5692132655,
				"element": "C" 
			},
			{
				"x": -4.1707989401,
				"y": 1.1620426405,
				"z": -0.8992926922,
				"element": "N" 
			},
			{
				"x": -0.7253150082,
				"y": 1.3040150638,
				"z": -0.7100416564,
				"element": "H" 
			},
			{
				"x": 2.1242140457,
				"y": -0.2710495383,
				"z": -0.9602693284,
				"element": "H" 
			},
			{
				"x": 1.9829509806,
				"y": 0.8493641703,
				"z": 0.3906897491,
				"element": "H" 
			},
			{
				"x": 3.3344412783,
				"y": -1.5621070641,
				"z": 0.7042996348,
				"element": "H" 
			},
			{
				"x": 2.3879789195,
				"y": -0.8649159185,
				"z": 2.0182394198,
				"element": "H" 
			},
			{
				"x": 1.5671138728,
				"y": -3.1649387058,
				"z": 0.1870564443,
				"element": "H" 
			},
			{
				"x": 1.2369147759,
				"y": -2.9782242632,
				"z": 1.9060566176,
				"element": "H" 
			}
		],
		 "valence_orbital": [ 
			{
				"type": "occ",
				"energy": -0.33512,
				"method": "rhf"
			},
			{
				"type": "occ",
				"energy": -0.32212,
				"method": "rhf"
			},
			{
				"type": "occ",
				"energy": -0.30234,
				"method": "rhf"
			},
			{
				"type": "occ",
				"energy": -0.28669,
				"method": "rhf"
			},
			{
				"type": "occ",
				"energy": -0.26077,
				"method": "rhf"
			},
			{
				"type": "unocc",
				"energy": -0.06902,
				"method": "rhf"
			},
			{
				"type": "unocc",
				"energy": -0.04768,
				"method": "rhf"
			},
			{
				"type": "unocc",
				"energy": 0.01756,
				"method": "rhf"
			},
			{
				"type": "unocc",
				"energy": 0.03441,
				"method": "rhf"
			},
			{
				"type": "unocc",
				"energy": 0.05856,
				"method": "rhf"
			}
		],
		"cosmo_sigma_profile": { 
			"-0.025": 0.0,
			"-0.024": 0.0,
			"-0.023": 0.0,
			"-0.022": 0.0,
			"-0.021": 0.0,
			"-0.02": 0.0,
			"-0.019": 0.0,
			"-0.018": 0.0,
			"-0.017": 0.0,
			"-0.016": 0.0,
			"-0.015": 0.0,
			"-0.014": 0.0,
			"-0.013": 0.0,
			"-0.012": 0.0,
			"-0.011": 0.0,
			"-0.01": 0.306580177233,
			"-0.009": 2.23834537763,
			"-0.008": 2.16988319567,
			"-0.007": 2.37798527598,
			"-0.006": 3.05244224426,
			"-0.005": 12.4858163743,
			"-0.004": 20.4729926082,
			"-0.003": 31.0370450907,
			"-0.002": 27.2594623712,
			"-0.001": 20.9354038175,
			"0.0": 12.5373726827,
			"0.001": 7.7139981804,
			"0.002": 8.43208471724,
			"0.003": 11.3866104431,
			"0.004": 8.45640848784,
			"0.005": 5.76641870861,
			"0.006": 4.74773147489,
			"0.007": 4.07933044505,
			"0.008": 4.98016362368,
			"0.009": 3.94483249653,
			"0.01": 4.08652199962,
			"0.011": 3.63362423566,
			"0.012": 2.779103531,
			"0.013": 1.29366020773,
			"0.014": 0.135356011194,
			"0.015": 0.0,
			"0.016": 0.0,
			"0.017": 0.0,
			"0.018": 0.0,
			"0.019": 0.0,
			"0.02": 0.0,
			"0.021": 0.0,
			"0.022": 0.0,
			"0.023": 0.0,
			"0.024": 0.0,
			"0.025": 0.0
		}
	}
}
