{
	 "smiles": "CCOC(=O)C#C", 
	 "Tm": 282.15, 
	 "num_atms": 13, 
	 "gaussian": { 
		 "optdone": 1, 
		 "sigma_profile": "yes", 
		 "theory": "DFT", 
		 "functional": "B3LYP", 
		 "basiset": "6-31G**", 
		 "properties": { 
			 "R2extent": 1083.5667, 
			 "electric_dipole_moment_norm": 1.78840350313, 
			 "electric_quadrupole_moment_norm": 9.22799050335, 
			 "total_energy": -344.522060957, 
			 "HOMO_LUMO_gap": 0.23544, 
			 "cosmo_polarized_energy": -7.29, 
			 "cosmo_cavitation_energy": 18.44, 
			 "cosmo_dispersion_energy": -12.82, 
			 "cosmo_repulsion_energy": 1.1, 
			 "cosmo_total_nonelectrostatic_energy": 6.73, 
			 "SMD_solvation_energy": 6.14 
		},
		"coords": [
			{
				"x": 1.0504568906,
				"y": 0.1580888152,
				"z": 1.1872429685,
				"element": "C" 
			},
			{
				"x": 0.9058509229,
				"y": -0.1387429675,
				"z": -0.2974499115,
				"element": "C" 
			},
			{
				"x": -0.0982689797,
				"y": 0.7127198697,
				"z": -0.9094239396,
				"element": "O" 
			},
			{
				"x": -1.3731018459,
				"y": 0.2884071771,
				"z": -0.8147420326,
				"element": "C" 
			},
			{
				"x": -1.7346247506,
				"y": -0.7341341186,
				"z": -0.2702272376,
				"element": "O" 
			},
			{
				"x": -2.2759981811,
				"y": 1.2216207455,
				"z": -1.4613348386,
				"element": "C" 
			},
			{
				"x": -3.0716017671,
				"y": 1.9641887327,
				"z": -1.98421808,
				"element": "C" 
			},
			{
				"x": 1.2780891385,
				"y": 1.2150646662,
				"z": 1.3526576318,
				"element": "H" 
			},
			{
				"x": 1.8674215087,
				"y": -0.4395548661,
				"z": 1.6049378879,
				"element": "H" 
			},
			{
				"x": 0.1323136391,
				"y": -0.0958183009,
				"z": 1.7223906865,
				"element": "H" 
			},
			{
				"x": 1.8207349114,
				"y": 0.0946190999,
				"z": -0.8463507707,
				"element": "H" 
			},
			{
				"x": 0.6335004539,
				"y": -1.1826369757,
				"z": -0.4691536573,
				"element": "H" 
			},
			{
				"x": -3.7733719407,
				"y": 2.6206781225,
				"z": -2.4461287067,
				"element": "H" 
			}
		],
		 "valence_orbital": [ 
			{
				"type": "occ",
				"energy": -0.34844,
				"method": "rhf"
			},
			{
				"type": "occ",
				"energy": -0.31056,
				"method": "rhf"
			},
			{
				"type": "occ",
				"energy": -0.30623,
				"method": "rhf"
			},
			{
				"type": "occ",
				"energy": -0.29794,
				"method": "rhf"
			},
			{
				"type": "occ",
				"energy": -0.27836,
				"method": "rhf"
			},
			{
				"type": "unocc",
				"energy": -0.04292,
				"method": "rhf"
			},
			{
				"type": "unocc",
				"energy": 0.0307,
				"method": "rhf"
			},
			{
				"type": "unocc",
				"energy": 0.10482,
				"method": "rhf"
			},
			{
				"type": "unocc",
				"energy": 0.10871,
				"method": "rhf"
			},
			{
				"type": "unocc",
				"energy": 0.12056,
				"method": "rhf"
			}
		],
		"cosmo_sigma_profile": { 
			"-0.025": 0.0,
			"-0.024": 0.0,
			"-0.023": 0.0,
			"-0.022": 0.0,
			"-0.021": 0.0,
			"-0.02": 0.0,
			"-0.019": 0.0,
			"-0.018": 0.0,
			"-0.017": 0.0,
			"-0.016": 0.0,
			"-0.015": 0.0,
			"-0.014": 0.472579720471,
			"-0.013": 1.58961878325,
			"-0.012": 1.33551898651,
			"-0.011": 0.856258293021,
			"-0.01": 1.63774314111,
			"-0.009": 0.386671674014,
			"-0.008": 1.8450071767,
			"-0.007": 1.47740444665,
			"-0.006": 3.53037805507,
			"-0.005": 7.5603297484,
			"-0.004": 14.4571009268,
			"-0.003": 14.9394444717,
			"-0.002": 12.2949057899,
			"-0.001": 12.6455476342,
			"0.0": 11.5456655073,
			"0.001": 8.6309033098,
			"0.002": 6.50185091957,
			"0.003": 11.1102543305,
			"0.004": 9.30971631389,
			"0.005": 5.03673030999,
			"0.006": 4.24003670876,
			"0.007": 2.84754372992,
			"0.008": 3.23171928257,
			"0.009": 2.14131367559,
			"0.01": 2.91677322713,
			"0.011": 4.36402000443,
			"0.012": 0.952407388688,
			"0.013": 0.0,
			"0.014": 0.0,
			"0.015": 0.0,
			"0.016": 0.0,
			"0.017": 0.0,
			"0.018": 0.0,
			"0.019": 0.0,
			"0.02": 0.0,
			"0.021": 0.0,
			"0.022": 0.0,
			"0.023": 0.0,
			"0.024": 0.0,
			"0.025": 0.0
		}
	}
}
