{
	 "smiles": "CCCCCCCCC1=CC=C(C=C1)C(O)=O", 
	 "Tm": 370.65, 
	 "num_atms": 39, 
	 "gaussian": { 
		 "optdone": 1, 
		 "sigma_profile": "yes", 
		 "theory": "DFT", 
		 "functional": "B3LYP", 
		 "basiset": "6-31G**", 
		 "properties": { 
			 "R2extent": 8568.7947, 
			 "electric_dipole_moment_norm": 2.37615922446, 
			 "electric_quadrupole_moment_norm": 15.8075344694, 
			 "total_energy": -735.349615207, 
			 "HOMO_LUMO_gap": 0.20542, 
			 "cosmo_polarized_energy": -9.02, 
			 "cosmo_cavitation_energy": 40.57, 
			 "cosmo_dispersion_energy": -28.06, 
			 "cosmo_repulsion_energy": 2.22, 
			 "cosmo_total_nonelectrostatic_energy": 14.73, 
			 "SMD_solvation_energy": 7.1 
		},
		"coords": [
			{
				"x": 3.7145714343,
				"y": 0.3516383099,
				"z": -1.6740879177,
				"element": "C" 
			},
			{
				"x": 3.3415732448,
				"y": 1.3741530904,
				"z": -2.7560648951,
				"element": "C" 
			},
			{
				"x": 1.9935315133,
				"y": 2.1004013455,
				"z": -2.5552192466,
				"element": "C" 
			},
			{
				"x": 0.7465101944,
				"y": 1.4060487726,
				"z": -3.137646372,
				"element": "C" 
			},
			{
				"x": 0.3162676671,
				"y": 0.0665000102,
				"z": -2.5110298529,
				"element": "C" 
			},
			{
				"x": -0.0373161467,
				"y": 0.1012059791,
				"z": -1.0137914506,
				"element": "C" 
			},
			{
				"x": -1.2351937654,
				"y": 0.9957550777,
				"z": -0.6681835775,
				"element": "C" 
			},
			{
				"x": -1.6353633919,
				"y": 0.9598835016,
				"z": 0.824975672,
				"element": "C" 
			},
			{
				"x": -2.1680623893,
				"y": -0.3784599379,
				"z": 1.2906005164,
				"element": "C" 
			},
			{
				"x": -1.3881058253,
				"y": -1.2439047893,
				"z": 2.0708448983,
				"element": "C" 
			},
			{
				"x": -1.8767621264,
				"y": -2.4819377915,
				"z": 2.4833520999,
				"element": "C" 
			},
			{
				"x": -3.1695241498,
				"y": -2.8799788491,
				"z": 2.1194735414,
				"element": "C" 
			},
			{
				"x": -3.9610228075,
				"y": -2.0223807405,
				"z": 1.3419119554,
				"element": "C" 
			},
			{
				"x": -3.463825006,
				"y": -0.7898844541,
				"z": 0.9359429174,
				"element": "C" 
			},
			{
				"x": -3.7465100099,
				"y": -4.1842237648,
				"z": 2.5303917365,
				"element": "C" 
			},
			{
				"x": -2.8961194781,
				"y": -4.93231175,
				"z": 3.2804943204,
				"element": "O" 
			},
			{
				"x": -4.8613723751,
				"y": -4.5759967597,
				"z": 2.2431802271,
				"element": "O" 
			},
			{
				"x": 3.7478775912,
				"y": 0.8246629192,
				"z": -0.6856150774,
				"element": "H" 
			},
			{
				"x": 4.7041480348,
				"y": -0.0771109069,
				"z": -1.8663627315,
				"element": "H" 
			},
			{
				"x": 3.0036564646,
				"y": -0.4774003898,
				"z": -1.6182043586,
				"element": "H" 
			},
			{
				"x": 3.3470947423,
				"y": 0.8886412427,
				"z": -3.7418118727,
				"element": "H" 
			},
			{
				"x": 4.1377838387,
				"y": 2.1285079224,
				"z": -2.7935003133,
				"element": "H" 
			},
			{
				"x": 1.8490679596,
				"y": 2.3088651807,
				"z": -1.4860656318,
				"element": "H" 
			},
			{
				"x": 2.0604775413,
				"y": 3.0840987132,
				"z": -3.0372743987,
				"element": "H" 
			},
			{
				"x": -0.092986354,
				"y": 2.1113497246,
				"z": -3.0809503601,
				"element": "H" 
			},
			{
				"x": 0.91671285,
				"y": 1.2404019791,
				"z": -4.2104044938,
				"element": "H" 
			},
			{
				"x": 1.1018231028,
				"y": -0.6816478533,
				"z": -2.6712281217,
				"element": "H" 
			},
			{
				"x": -0.5574062396,
				"y": -0.3023410819,
				"z": -3.0662860422,
				"element": "H" 
			},
			{
				"x": -0.251614081,
				"y": -0.9236464754,
				"z": -0.6865037379,
				"element": "H" 
			},
			{
				"x": 0.8340065262,
				"y": 0.4267846453,
				"z": -0.4296666519,
				"element": "H" 
			},
			{
				"x": -1.0140778875,
				"y": 2.0369572531,
				"z": -0.9324291828,
				"element": "H" 
			},
			{
				"x": -2.0996420607,
				"y": 0.7006202445,
				"z": -1.2786463904,
				"element": "H" 
			},
			{
				"x": -0.768680265,
				"y": 1.2407892171,
				"z": 1.4356712488,
				"element": "H" 
			},
			{
				"x": -2.4004351503,
				"y": 1.7269254102,
				"z": 0.9983079589,
				"element": "H" 
			},
			{
				"x": -0.3856940015,
				"y": -0.9405864122,
				"z": 2.3614131233,
				"element": "H" 
			},
			{
				"x": -1.2626743385,
				"y": -3.1401945326,
				"z": 3.0875796645,
				"element": "H" 
			},
			{
				"x": -4.9624060498,
				"y": -2.3416817714,
				"z": 1.0730465972,
				"element": "H" 
			},
			{
				"x": -4.088702199,
				"y": -0.129893581,
				"z": 0.3391879117,
				"element": "H" 
			},
			{
				"x": -3.3796066075,
				"y": -5.7494086979,
				"z": 3.484498288,
				"element": "H" 
			}
		],
		 "valence_orbital": [ 
			{
				"type": "occ",
				"energy": -0.30572,
				"method": "rhf"
			},
			{
				"type": "occ",
				"energy": -0.30197,
				"method": "rhf"
			},
			{
				"type": "occ",
				"energy": -0.27265,
				"method": "rhf"
			},
			{
				"type": "occ",
				"energy": -0.25735,
				"method": "rhf"
			},
			{
				"type": "occ",
				"energy": -0.24986,
				"method": "rhf"
			},
			{
				"type": "unocc",
				"energy": -0.04444,
				"method": "rhf"
			},
			{
				"type": "unocc",
				"energy": -0.00759,
				"method": "rhf"
			},
			{
				"type": "unocc",
				"energy": 0.05667,
				"method": "rhf"
			},
			{
				"type": "unocc",
				"energy": 0.0777,
				"method": "rhf"
			},
			{
				"type": "unocc",
				"energy": 0.08091,
				"method": "rhf"
			}
		],
		"cosmo_sigma_profile": { 
			"-0.025": 0.0,
			"-0.024": 0.0,
			"-0.023": 0.0,
			"-0.022": 0.0,
			"-0.021": 0.0,
			"-0.02": 0.0,
			"-0.019": 0.0,
			"-0.018": 0.495425327687,
			"-0.017": 1.03366594602,
			"-0.016": 0.629232299233,
			"-0.015": 1.18164783005,
			"-0.014": 0.530387127666,
			"-0.013": 0.463687187142,
			"-0.012": 0.536811370388,
			"-0.011": 0.866713058721,
			"-0.01": 1.1309837197,
			"-0.009": 0.366732618277,
			"-0.008": 0.533277501486,
			"-0.007": 0.84525793538,
			"-0.006": 4.00320216532,
			"-0.005": 9.51851517071,
			"-0.004": 12.4772531946,
			"-0.003": 14.8595254365,
			"-0.002": 36.4207114925,
			"-0.001": 52.7594343127,
			"0.0": 54.7608741618,
			"0.001": 46.9731716007,
			"0.002": 25.2726728203,
			"0.003": 12.7294646288,
			"0.004": 13.3168458774,
			"0.005": 3.98387763985,
			"0.006": 1.92453911813,
			"0.007": 3.87728595331,
			"0.008": 2.82485325318,
			"0.009": 1.31302713667,
			"0.01": 1.91301373475,
			"0.011": 2.95892883221,
			"0.012": 4.98744317043,
			"0.013": 0.514894729295,
			"0.014": 0.0,
			"0.015": 0.0,
			"0.016": 0.0,
			"0.017": 0.0,
			"0.018": 0.0,
			"0.019": 0.0,
			"0.02": 0.0,
			"0.021": 0.0,
			"0.022": 0.0,
			"0.023": 0.0,
			"0.024": 0.0,
			"0.025": 0.0
		}
	}
}
