{
	 "smiles": "CN1C(N)=CC(=O)N(C)C1=O", 
	 "Tm": 568.15, 
	 "num_atms": 20, 
	 "gaussian": { 
		 "optdone": 1, 
		 "sigma_profile": "yes", 
		 "theory": "DFT", 
		 "functional": "B3LYP", 
		 "basiset": "6-31G**", 
		 "properties": { 
			 "R2extent": 1908.2131, 
			 "electric_dipole_moment_norm": 5.75186964473, 
			 "electric_quadrupole_moment_norm": 13.8504521164, 
			 "total_energy": -548.802839791, 
			 "HOMO_LUMO_gap": 0.2092, 
			 "cosmo_polarized_energy": -19.57, 
			 "cosmo_cavitation_energy": 23.21, 
			 "cosmo_dispersion_energy": -17.58, 
			 "cosmo_repulsion_energy": 1.39, 
			 "cosmo_total_nonelectrostatic_energy": 7.02, 
			 "SMD_solvation_energy": 5.66 
		},
		"coords": [
			{
				"x": 0.2367071908,
				"y": 0.2706866538,
				"z": -1.7849629244,
				"element": "C" 
			},
			{
				"x": -0.1252136924,
				"y": -0.2619440142,
				"z": -0.4717860197,
				"element": "N" 
			},
			{
				"x": -0.1749142055,
				"y": -1.6245903867,
				"z": -0.2351765914,
				"element": "C" 
			},
			{
				"x": 0.1405460586,
				"y": -2.4394261654,
				"z": -1.3055831487,
				"element": "N" 
			},
			{
				"x": -0.4594780642,
				"y": -2.1108175473,
				"z": 1.0086802339,
				"element": "C" 
			},
			{
				"x": -0.7046178906,
				"y": -1.2347911832,
				"z": 2.1209813099,
				"element": "C" 
			},
			{
				"x": -0.9584220316,
				"y": -1.5961060812,
				"z": 3.2644918114,
				"element": "O" 
			},
			{
				"x": -0.650382781,
				"y": 0.1558629172,
				"z": 1.8002574617,
				"element": "N" 
			},
			{
				"x": -0.9034795789,
				"y": 1.1317991852,
				"z": 2.8629659714,
				"element": "C" 
			},
			{
				"x": -0.3752651318,
				"y": 0.6751850233,
				"z": 0.5526818498,
				"element": "C" 
			},
			{
				"x": -0.34037159,
				"y": 1.8790137383,
				"z": 0.3329868738,
				"element": "O" 
			},
			{
				"x": 0.3529318682,
				"y": 1.3461428414,
				"z": -1.6709962609,
				"element": "H" 
			},
			{
				"x": -0.5526878233,
				"y": 0.0836177721,
				"z": -2.5233630636,
				"element": "H" 
			},
			{
				"x": 1.1738846439,
				"y": -0.1745204858,
				"z": -2.1290668035,
				"element": "H" 
			},
			{
				"x": -0.0406181452,
				"y": -3.4197294129,
				"z": -1.1430615807,
				"element": "H" 
			},
			{
				"x": -0.1532773292,
				"y": -2.1331614617,
				"z": -2.2221510734,
				"element": "H" 
			},
			{
				"x": -0.5130077001,
				"y": -3.1754045306,
				"z": 1.1927635997,
				"element": "H" 
			},
			{
				"x": -0.0316560018,
				"y": 1.7761262023,
				"z": 2.9976732308,
				"element": "H" 
			},
			{
				"x": -1.7578284544,
				"y": 1.7599798045,
				"z": 2.6006809579,
				"element": "H" 
			},
			{
				"x": -1.1063493413,
				"y": 0.5661771309,
				"z": 3.7696841663,
				"element": "H" 
			}
		],
		 "valence_orbital": [ 
			{
				"type": "occ",
				"energy": -0.28982,
				"method": "rhf"
			},
			{
				"type": "occ",
				"energy": -0.28379,
				"method": "rhf"
			},
			{
				"type": "occ",
				"energy": -0.25824,
				"method": "rhf"
			},
			{
				"type": "occ",
				"energy": -0.24509,
				"method": "rhf"
			},
			{
				"type": "occ",
				"energy": -0.21992,
				"method": "rhf"
			},
			{
				"type": "unocc",
				"energy": -0.01072,
				"method": "rhf"
			},
			{
				"type": "unocc",
				"energy": 0.0223,
				"method": "rhf"
			},
			{
				"type": "unocc",
				"energy": 0.0518,
				"method": "rhf"
			},
			{
				"type": "unocc",
				"energy": 0.08385,
				"method": "rhf"
			},
			{
				"type": "unocc",
				"energy": 0.12122,
				"method": "rhf"
			}
		],
		"cosmo_sigma_profile": { 
			"-0.025": 0.0,
			"-0.024": 0.0,
			"-0.023": 0.0,
			"-0.022": 0.0,
			"-0.021": 0.0,
			"-0.02": 0.0,
			"-0.019": 0.0,
			"-0.018": 0.0,
			"-0.017": 0.0,
			"-0.016": 0.0,
			"-0.015": 0.709231907602,
			"-0.014": 2.46048595666,
			"-0.013": 3.40699264347,
			"-0.012": 3.42543255025,
			"-0.011": 3.30823576322,
			"-0.01": 2.03186298142,
			"-0.009": 3.16163819108,
			"-0.008": 2.70280734281,
			"-0.007": 4.5842720233,
			"-0.006": 5.61160040335,
			"-0.005": 10.0134933855,
			"-0.004": 12.5882113203,
			"-0.003": 18.9651398547,
			"-0.002": 18.9979477647,
			"-0.001": 13.2493219799,
			"0.0": 7.79759210672,
			"0.001": 6.64713384964,
			"0.002": 5.66448667007,
			"0.003": 6.75338461253,
			"0.004": 7.70921745051,
			"0.005": 5.03537217382,
			"0.006": 3.349396295,
			"0.007": 3.9714365632,
			"0.008": 3.22804244085,
			"0.009": 2.83155644708,
			"0.01": 3.96238541144,
			"0.011": 3.07840402911,
			"0.012": 5.03276077785,
			"0.013": 6.87754957465,
			"0.014": 4.91144361642,
			"0.015": 1.59407153204,
			"0.016": 0.0801532378155,
			"0.017": 0.0,
			"0.018": 0.0,
			"0.019": 0.0,
			"0.02": 0.0,
			"0.021": 0.0,
			"0.022": 0.0,
			"0.023": 0.0,
			"0.024": 0.0,
			"0.025": 0.0
		}
	}
}
