{
	 "smiles": "OC(C1C(=O)N(N=C1C(F)(F)F)C1=CC=CC=C1)C1=CC=C(Cl)C=C1", 
	 "Tm": 441.15, 
	 "num_atms": 37, 
	 "gaussian": { 
		 "optdone": 1, 
		 "sigma_profile": "yes", 
		 "theory": "DFT", 
		 "functional": "B3LYP", 
		 "basiset": "6-31G**", 
		 "properties": { 
			 "R2extent": 12410.4981, 
			 "electric_dipole_moment_norm": 1.33991573989, 
			 "electric_quadrupole_moment_norm": 17.6705824533, 
			 "total_energy": -1674.67539039, 
			 "HOMO_LUMO_gap": 0.16475, 
			 "cosmo_polarized_energy": -15.24, 
			 "cosmo_cavitation_energy": 44.88, 
			 "cosmo_dispersion_energy": -30.9, 
			 "cosmo_repulsion_energy": 2.28, 
			 "cosmo_total_nonelectrostatic_energy": 16.26, 
			 "SMD_solvation_energy": 8.22 
		},
		"coords": [
			{
				"x": -3.9402614354,
				"y": -0.1108700855,
				"z": 1.2499023982,
				"element": "O" 
			},
			{
				"x": -2.5701801477,
				"y": -0.1013079294,
				"z": 1.6292225008,
				"element": "C" 
			},
			{
				"x": -1.8103498784,
				"y": -0.01808663,
				"z": 0.2746813825,
				"element": "C" 
			},
			{
				"x": -0.2835752444,
				"y": 0.0989186175,
				"z": 0.4031522535,
				"element": "C" 
			},
			{
				"x": 0.3525878904,
				"y": 0.9472410233,
				"z": 0.9955454353,
				"element": "O" 
			},
			{
				"x": 0.2293450338,
				"y": -0.9851220932,
				"z": -0.3203463436,
				"element": "N" 
			},
			{
				"x": -0.7677594415,
				"y": -1.7468254923,
				"z": -0.8990046773,
				"element": "N" 
			},
			{
				"x": -1.9092647818,
				"y": -1.2440834205,
				"z": -0.5893975295,
				"element": "C" 
			},
			{
				"x": -3.1631299533,
				"y": -1.9011559165,
				"z": -1.1024633576,
				"element": "C" 
			},
			{
				"x": -4.0285360267,
				"y": -0.9760010383,
				"z": -1.559634539,
				"element": "F" 
			},
			{
				"x": -2.8936687407,
				"y": -2.7528420784,
				"z": -2.1048889164,
				"element": "F" 
			},
			{
				"x": -3.7814098128,
				"y": -2.6036271902,
				"z": -0.1289467214,
				"element": "F" 
			},
			{
				"x": 1.5881162294,
				"y": -1.3540474054,
				"z": -0.5424006439,
				"element": "C" 
			},
			{
				"x": 1.8671494293,
				"y": -2.4804422296,
				"z": -1.3296523594,
				"element": "C" 
			},
			{
				"x": 3.190685127,
				"y": -2.8534694116,
				"z": -1.5514574947,
				"element": "C" 
			},
			{
				"x": 4.241110542,
				"y": -2.1185348261,
				"z": -0.9989566335,
				"element": "C" 
			},
			{
				"x": 3.9523144916,
				"y": -0.9997660546,
				"z": -0.2179047485,
				"element": "C" 
			},
			{
				"x": 2.6345408031,
				"y": -0.6072231606,
				"z": 0.0181032105,
				"element": "C" 
			},
			{
				"x": -2.2615428648,
				"y": 1.0403965017,
				"z": 2.5815615449,
				"element": "C" 
			},
			{
				"x": -1.3872658648,
				"y": 0.8623193429,
				"z": 3.6578023138,
				"element": "C" 
			},
			{
				"x": -1.1162682122,
				"y": 1.9052513625,
				"z": 4.5423196284,
				"element": "C" 
			},
			{
				"x": -1.7342821812,
				"y": 3.1386295923,
				"z": 4.342520299,
				"element": "C" 
			},
			{
				"x": -1.4066713181,
				"y": 4.4591905135,
				"z": 5.4543164925,
				"element": "Cl" 
			},
			{
				"x": -2.6161004609,
				"y": 3.3401068994,
				"z": 3.2802778335,
				"element": "C" 
			},
			{
				"x": -2.8755145672,
				"y": 2.286592124,
				"z": 2.4061292006,
				"element": "C" 
			},
			{
				"x": -4.4718358734,
				"y": -0.2324798893,
				"z": 2.047916505,
				"element": "H" 
			},
			{
				"x": -2.2903607146,
				"y": -1.0508299095,
				"z": 2.1109407878,
				"element": "H" 
			},
			{
				"x": -2.1935433492,
				"y": 0.8652637606,
				"z": -0.2511021152,
				"element": "H" 
			},
			{
				"x": 1.0519535362,
				"y": -3.0487680475,
				"z": -1.7581681083,
				"element": "H" 
			},
			{
				"x": 3.3973723046,
				"y": -3.7270519964,
				"z": -2.162850589,
				"element": "H" 
			},
			{
				"x": 5.2706861772,
				"y": -2.4142507143,
				"z": -1.1759143503,
				"element": "H" 
			},
			{
				"x": 4.7584371663,
				"y": -0.4168661861,
				"z": 0.2181011744,
				"element": "H" 
			},
			{
				"x": 2.4154620444,
				"y": 0.2616303237,
				"z": 0.6220263348,
				"element": "H" 
			},
			{
				"x": -0.9061969441,
				"y": -0.1000533604,
				"z": 3.8113807842,
				"element": "H" 
			},
			{
				"x": -0.4377109806,
				"y": 1.7645996214,
				"z": 5.3761058477,
				"element": "H" 
			},
			{
				"x": -3.0925981325,
				"y": 4.3047257344,
				"z": 3.144975329,
				"element": "H" 
			},
			{
				"x": -3.5760338489,
				"y": 2.4251396486,
				"z": 1.5884078708,
				"element": "H" 
			}
		],
		 "valence_orbital": [ 
			{
				"type": "occ",
				"energy": -0.27587,
				"method": "rhf"
			},
			{
				"type": "occ",
				"energy": -0.26887,
				"method": "rhf"
			},
			{
				"type": "occ",
				"energy": -0.25548,
				"method": "rhf"
			},
			{
				"type": "occ",
				"energy": -0.24884,
				"method": "rhf"
			},
			{
				"type": "occ",
				"energy": -0.22792,
				"method": "rhf"
			},
			{
				"type": "unocc",
				"energy": -0.06317,
				"method": "rhf"
			},
			{
				"type": "unocc",
				"energy": -0.02603,
				"method": "rhf"
			},
			{
				"type": "unocc",
				"energy": -0.02377,
				"method": "rhf"
			},
			{
				"type": "unocc",
				"energy": -0.02017,
				"method": "rhf"
			},
			{
				"type": "unocc",
				"energy": -0.00479,
				"method": "rhf"
			}
		],
		"cosmo_sigma_profile": { 
			"-0.025": 0.0,
			"-0.024": 0.0,
			"-0.023": 0.0,
			"-0.022": 0.0,
			"-0.021": 0.0,
			"-0.02": 0.0,
			"-0.019": 0.0,
			"-0.018": 0.0,
			"-0.017": 0.351679904919,
			"-0.016": 1.32191612738,
			"-0.015": 0.853326687062,
			"-0.014": 0.374168838317,
			"-0.013": 0.980978186597,
			"-0.012": 0.953575773224,
			"-0.011": 0.650786481157,
			"-0.01": 2.71094431942,
			"-0.009": 4.36698293781,
			"-0.008": 5.79564886673,
			"-0.007": 12.1126986253,
			"-0.006": 18.4722051021,
			"-0.005": 18.858218908,
			"-0.004": 21.3524315251,
			"-0.003": 18.5795190555,
			"-0.002": 19.4273352066,
			"-0.001": 19.9186617375,
			"0.0": 21.8143823148,
			"0.001": 29.2459319194,
			"0.002": 45.8350594943,
			"0.003": 40.7817888904,
			"0.004": 28.3294795908,
			"0.005": 23.1179318572,
			"0.006": 6.25182546831,
			"0.007": 4.88704152448,
			"0.008": 4.02708378871,
			"0.009": 3.4496276202,
			"0.01": 3.81005562042,
			"0.011": 3.00350848598,
			"0.012": 0.473151737162,
			"0.013": 0.0,
			"0.014": 0.0,
			"0.015": 0.0,
			"0.016": 0.0,
			"0.017": 0.0,
			"0.018": 0.0,
			"0.019": 0.0,
			"0.02": 0.0,
			"0.021": 0.0,
			"0.022": 0.0,
			"0.023": 0.0,
			"0.024": 0.0,
			"0.025": 0.0
		}
	}
}
