{
	 "smiles": "NC1=C(C=CC(=C1)[N+]([O-])=O)C(O)=O", 
	 "Tm": 531.15, 
	 "num_atms": 19, 
	 "gaussian": { 
		 "optdone": 1, 
		 "sigma_profile": "yes", 
		 "theory": "DFT", 
		 "functional": "B3LYP", 
		 "basiset": "6-31G**", 
		 "properties": { 
			 "R2extent": 2998.9634, 
			 "electric_dipole_moment_norm": 5.32232886338, 
			 "electric_quadrupole_moment_norm": 12.6776750234, 
			 "total_energy": -680.682019701, 
			 "HOMO_LUMO_gap": 0.13196, 
			 "cosmo_polarized_energy": -15.18, 
			 "cosmo_cavitation_energy": 24.48, 
			 "cosmo_dispersion_energy": -18.43, 
			 "cosmo_repulsion_energy": 1.45, 
			 "cosmo_total_nonelectrostatic_energy": 7.5, 
			 "SMD_solvation_energy": 7.62 
		},
		"coords": [
			{
				"x": -1.8110556416,
				"y": -1.3937110847,
				"z": -0.3650183043,
				"element": "N" 
			},
			{
				"x": -0.9902122994,
				"y": -0.5277871587,
				"z": 0.2989421148,
				"element": "C" 
			},
			{
				"x": -1.0837491327,
				"y": 0.8928440908,
				"z": 0.2020298638,
				"element": "C" 
			},
			{
				"x": -0.1602431597,
				"y": 1.6999537313,
				"z": 0.8939086221,
				"element": "C" 
			},
			{
				"x": 0.8448750996,
				"y": 1.1691472898,
				"z": 1.6825991731,
				"element": "C" 
			},
			{
				"x": 0.9124515332,
				"y": -0.2240280302,
				"z": 1.7692673401,
				"element": "C" 
			},
			{
				"x": 0.0372237251,
				"y": -1.0639422736,
				"z": 1.1093134572,
				"element": "C" 
			},
			{
				"x": 1.9670391426,
				"y": -0.8365758322,
				"z": 2.6044523607,
				"element": "N" 
			},
			{
				"x": 2.0043948721,
				"y": -2.064525393,
				"z": 2.6724641276,
				"element": "O" 
			},
			{
				"x": 2.7434656588,
				"y": -0.0782170284,
				"z": 3.1813524343,
				"element": "O" 
			},
			{
				"x": -2.1008744698,
				"y": 1.6344717736,
				"z": -0.5809468522,
				"element": "C" 
			},
			{
				"x": -3.0222811736,
				"y": 0.8450599485,
				"z": -1.2118469996,
				"element": "O" 
			},
			{
				"x": -2.1577823624,
				"y": 2.8438740322,
				"z": -0.6793270506,
				"element": "O" 
			},
			{
				"x": -2.6258011612,
				"y": -1.0398196402,
				"z": -0.8392663384,
				"element": "H" 
			},
			{
				"x": -1.780652837,
				"y": -2.3700324875,
				"z": -0.1225451414,
				"element": "H" 
			},
			{
				"x": -0.2689029476,
				"y": 2.7734076324,
				"z": 0.7880285394,
				"element": "H" 
			},
			{
				"x": 1.5536794248,
				"y": 1.7862673158,
				"z": 2.2170012929,
				"element": "H" 
			},
			{
				"x": 0.1515775541,
				"y": -2.1358382037,
				"z": 1.2170364812,
				"element": "H" 
			},
			{
				"x": -3.6165518252,
				"y": 1.4588513177,
				"z": -1.6748451206,
				"element": "H" 
			}
		],
		 "valence_orbital": [ 
			{
				"type": "occ",
				"energy": -0.30968,
				"method": "rhf"
			},
			{
				"type": "occ",
				"energy": -0.29511,
				"method": "rhf"
			},
			{
				"type": "occ",
				"energy": -0.29215,
				"method": "rhf"
			},
			{
				"type": "occ",
				"energy": -0.28304,
				"method": "rhf"
			},
			{
				"type": "occ",
				"energy": -0.23021,
				"method": "rhf"
			},
			{
				"type": "unocc",
				"energy": -0.09825,
				"method": "rhf"
			},
			{
				"type": "unocc",
				"energy": -0.03414,
				"method": "rhf"
			},
			{
				"type": "unocc",
				"energy": -0.01218,
				"method": "rhf"
			},
			{
				"type": "unocc",
				"energy": 0.05163,
				"method": "rhf"
			},
			{
				"type": "unocc",
				"energy": 0.05823,
				"method": "rhf"
			}
		],
		"cosmo_sigma_profile": { 
			"-0.025": 0.0,
			"-0.024": 0.0,
			"-0.023": 0.0,
			"-0.022": 0.0,
			"-0.021": 0.0,
			"-0.02": 0.0,
			"-0.019": 0.17775044818,
			"-0.018": 1.10565840307,
			"-0.017": 0.89944036348,
			"-0.016": 0.962758361328,
			"-0.015": 0.496765555366,
			"-0.014": 1.95684456451,
			"-0.013": 2.25778969494,
			"-0.012": 2.76371044362,
			"-0.011": 3.47455707495,
			"-0.01": 2.67864660704,
			"-0.009": 2.57249460367,
			"-0.008": 2.79148609411,
			"-0.007": 4.52622666447,
			"-0.006": 6.84191919821,
			"-0.005": 7.99096459513,
			"-0.004": 6.26796894039,
			"-0.003": 9.61516452837,
			"-0.002": 12.7313846656,
			"-0.001": 15.5079036869,
			"0.0": 16.2369182005,
			"0.001": 20.2301404421,
			"0.002": 13.1601831899,
			"0.003": 7.57584297947,
			"0.004": 6.9066557995,
			"0.005": 5.14976162975,
			"0.006": 5.02160015975,
			"0.007": 11.0136989966,
			"0.008": 9.04909114589,
			"0.009": 5.5544231811,
			"0.01": 3.49434381898,
			"0.011": 4.66750634186,
			"0.012": 2.41744988927,
			"0.013": 0.0,
			"0.014": 0.0,
			"0.015": 0.0,
			"0.016": 0.0,
			"0.017": 0.0,
			"0.018": 0.0,
			"0.019": 0.0,
			"0.02": 0.0,
			"0.021": 0.0,
			"0.022": 0.0,
			"0.023": 0.0,
			"0.024": 0.0,
			"0.025": 0.0
		}
	}
}
