{
	 "smiles": "CN1C=C(C=O)C(N)=N1", 
	 "Tm": 407.15, 
	 "num_atms": 16, 
	 "gaussian": { 
		 "optdone": 1, 
		 "sigma_profile": "yes", 
		 "theory": "DFT", 
		 "functional": "B3LYP", 
		 "basiset": "6-31G**", 
		 "properties": { 
			 "R2extent": 1550.2861, 
			 "electric_dipole_moment_norm": 3.44699115897, 
			 "electric_quadrupole_moment_norm": 20.4665305228, 
			 "total_energy": -434.200708317, 
			 "HOMO_LUMO_gap": 0.18375, 
			 "cosmo_polarized_energy": -15.44, 
			 "cosmo_cavitation_energy": 20.79, 
			 "cosmo_dispersion_energy": -15.21, 
			 "cosmo_repulsion_energy": 1.26, 
			 "cosmo_total_nonelectrostatic_energy": 6.84, 
			 "SMD_solvation_energy": 4.2 
		},
		"coords": [
			{
				"x": 0.7317971725,
				"y": 3.3200326453,
				"z": -1.8566551914,
				"element": "C" 
			},
			{
				"x": 0.2496559773,
				"y": 2.1583925401,
				"z": -1.1374651838,
				"element": "N" 
			},
			{
				"x": -0.6247544932,
				"y": 2.1071779069,
				"z": -0.1235536025,
				"element": "C" 
			},
			{
				"x": -0.7646603613,
				"y": 0.7657340992,
				"z": 0.2367365132,
				"element": "C" 
			},
			{
				"x": -1.5899694427,
				"y": 0.2429701676,
				"z": 1.3077078198,
				"element": "C" 
			},
			{
				"x": -2.3093075535,
				"y": 0.9195936972,
				"z": 2.0291155866,
				"element": "O" 
			},
			{
				"x": 0.1044439653,
				"y": 0.0776857933,
				"z": -0.6710127756,
				"element": "C" 
			},
			{
				"x": 0.3905253771,
				"y": -1.2774218863,
				"z": -0.7062326562,
				"element": "N" 
			},
			{
				"x": 0.7103214572,
				"y": 0.920366897,
				"z": -1.5041276672,
				"element": "N" 
			},
			{
				"x": 0.2612139912,
				"y": 4.2132465319,
				"z": -1.4430741371,
				"element": "H" 
			},
			{
				"x": 1.817493754,
				"y": 3.3979808387,
				"z": -1.7545283139,
				"element": "H" 
			},
			{
				"x": 0.4822119136,
				"y": 3.2332434149,
				"z": -2.9175744943,
				"element": "H" 
			},
			{
				"x": -1.0933236773,
				"y": 2.9865271038,
				"z": 0.2933530496,
				"element": "H" 
			},
			{
				"x": -1.530031969,
				"y": -0.860254322,
				"z": 1.4506529193,
				"element": "H" 
			},
			{
				"x": 0.8800075758,
				"y": -1.5517337394,
				"z": -1.5485724525,
				"element": "H" 
			},
			{
				"x": -0.3890236871,
				"y": -1.8866416884,
				"z": -0.500769414,
				"element": "H" 
			}
		],
		 "valence_orbital": [ 
			{
				"type": "occ",
				"energy": -0.33112,
				"method": "rhf"
			},
			{
				"type": "occ",
				"energy": -0.30064,
				"method": "rhf"
			},
			{
				"type": "occ",
				"energy": -0.24921,
				"method": "rhf"
			},
			{
				"type": "occ",
				"energy": -0.23901,
				"method": "rhf"
			},
			{
				"type": "occ",
				"energy": -0.21792,
				"method": "rhf"
			},
			{
				"type": "unocc",
				"energy": -0.03417,
				"method": "rhf"
			},
			{
				"type": "unocc",
				"energy": 0.02632,
				"method": "rhf"
			},
			{
				"type": "unocc",
				"energy": 0.07012,
				"method": "rhf"
			},
			{
				"type": "unocc",
				"energy": 0.09182,
				"method": "rhf"
			},
			{
				"type": "unocc",
				"energy": 0.1167,
				"method": "rhf"
			}
		],
		"cosmo_sigma_profile": { 
			"-0.025": 0.0,
			"-0.024": 0.0,
			"-0.023": 0.0,
			"-0.022": 0.0,
			"-0.021": 0.0,
			"-0.02": 0.0,
			"-0.019": 0.0,
			"-0.018": 0.0,
			"-0.017": 0.0,
			"-0.016": 0.0,
			"-0.015": 0.0,
			"-0.014": 0.0357078422171,
			"-0.013": 1.67485529066,
			"-0.012": 2.85197621552,
			"-0.011": 2.97244788167,
			"-0.01": 4.24203491329,
			"-0.009": 5.7335439389,
			"-0.008": 5.27435011307,
			"-0.007": 6.39155219153,
			"-0.006": 8.68184287746,
			"-0.005": 11.5420487948,
			"-0.004": 11.0587200898,
			"-0.003": 13.7667359511,
			"-0.002": 6.63720745491,
			"-0.001": 6.31956577864,
			"0.0": 5.69752601536,
			"0.001": 8.10921715749,
			"0.002": 9.41253802065,
			"0.003": 8.15954592181,
			"0.004": 4.57412179171,
			"0.005": 4.13377094852,
			"0.006": 4.14583517997,
			"0.007": 3.43631098569,
			"0.008": 3.72196851973,
			"0.009": 3.37685063978,
			"0.01": 3.74456880721,
			"0.011": 4.005510748,
			"0.012": 6.42284065459,
			"0.013": 5.4875449668,
			"0.014": 2.34201959548,
			"0.015": 1.06567077341,
			"0.016": 0.203234795269,
			"0.017": 0.0,
			"0.018": 0.0,
			"0.019": 0.0,
			"0.02": 0.0,
			"0.021": 0.0,
			"0.022": 0.0,
			"0.023": 0.0,
			"0.024": 0.0,
			"0.025": 0.0
		}
	}
}
