{
	 "smiles": "ClCC(=O)NC1=C(C=CC=C1)C1=CC=CC=C1", 
	 "Tm": 377.15, 
	 "num_atms": 29, 
	 "gaussian": { 
		 "optdone": 1, 
		 "sigma_profile": "yes", 
		 "theory": "DFT", 
		 "functional": "B3LYP", 
		 "basiset": "6-31G**", 
		 "properties": { 
			 "R2extent": 4745.8834, 
			 "electric_dipole_moment_norm": 5.466339726, 
			 "electric_quadrupole_moment_norm": 22.2172256504, 
			 "total_energy": -1130.90246747, 
			 "HOMO_LUMO_gap": 0.19742, 
			 "cosmo_polarized_energy": -15.37, 
			 "cosmo_cavitation_energy": 34.62, 
			 "cosmo_dispersion_energy": -23.87, 
			 "cosmo_repulsion_energy": 1.88, 
			 "cosmo_total_nonelectrostatic_energy": 12.64, 
			 "SMD_solvation_energy": 6.55 
		},
		"coords": [
			{
				"x": 1.4148334153,
				"y": 3.39790202,
				"z": 1.8797197495,
				"element": "Cl" 
			},
			{
				"x": 0.4616803495,
				"y": 2.0105197134,
				"z": 1.2682218173,
				"element": "C" 
			},
			{
				"x": -0.5499076603,
				"y": 1.5009327612,
				"z": 2.3004596749,
				"element": "C" 
			},
			{
				"x": -0.5583143111,
				"y": 1.8325485636,
				"z": 3.4701484577,
				"element": "O" 
			},
			{
				"x": -1.4759203632,
				"y": 0.6033249826,
				"z": 1.8037191446,
				"element": "N" 
			},
			{
				"x": -1.691331692,
				"y": 0.1903409219,
				"z": 0.4508434909,
				"element": "C" 
			},
			{
				"x": -0.8290447942,
				"y": -0.7240182983,
				"z": -0.1968294103,
				"element": "C" 
			},
			{
				"x": -1.1160444494,
				"y": -1.0580588104,
				"z": -1.5324608844,
				"element": "C" 
			},
			{
				"x": -2.2243807948,
				"y": -0.5406690055,
				"z": -2.1983420139,
				"element": "C" 
			},
			{
				"x": -3.0817652588,
				"y": 0.3407343961,
				"z": -1.5388567201,
				"element": "C" 
			},
			{
				"x": -2.8056808305,
				"y": 0.7063546774,
				"z": -0.2236452441,
				"element": "C" 
			},
			{
				"x": 0.3541752814,
				"y": -1.345554862,
				"z": 0.4623034145,
				"element": "C" 
			},
			{
				"x": 1.5930550598,
				"y": -1.3700522248,
				"z": -0.2019403543,
				"element": "C" 
			},
			{
				"x": 2.7058954074,
				"y": -1.9791475191,
				"z": 0.3790867861,
				"element": "C" 
			},
			{
				"x": 2.5994908936,
				"y": -2.5801405498,
				"z": 1.6337597404,
				"element": "C" 
			},
			{
				"x": 1.3732084071,
				"y": -2.5679917547,
				"z": 2.3020933269,
				"element": "C" 
			},
			{
				"x": 0.2620509233,
				"y": -1.9560545105,
				"z": 1.7245262997,
				"element": "C" 
			},
			{
				"x": 1.1621071359,
				"y": 1.2124267896,
				"z": 1.0147447271,
				"element": "H" 
			},
			{
				"x": -0.0442261484,
				"y": 2.32709439,
				"z": 0.3545703286,
				"element": "H" 
			},
			{
				"x": -2.1793331932,
				"y": 0.3623338398,
				"z": 2.4916604235,
				"element": "H" 
			},
			{
				"x": -0.4683012685,
				"y": -1.7672429997,
				"z": -2.0386354425,
				"element": "H" 
			},
			{
				"x": -2.422938456,
				"y": -0.8340231296,
				"z": -3.224859513,
				"element": "H" 
			},
			{
				"x": -3.9518509516,
				"y": 0.7479335501,
				"z": -2.0447341972,
				"element": "H" 
			},
			{
				"x": -3.4458641157,
				"y": 1.4111521615,
				"z": 0.2990693151,
				"element": "H" 
			},
			{
				"x": 1.6852997151,
				"y": -0.8941542455,
				"z": -1.1742858501,
				"element": "H" 
			},
			{
				"x": 3.6556420924,
				"y": -1.9789514655,
				"z": -0.1478877353,
				"element": "H" 
			},
			{
				"x": 3.4647968214,
				"y": -3.0529280697,
				"z": 2.0887362979,
				"element": "H" 
			},
			{
				"x": 1.2797640274,
				"y": -3.0385808912,
				"z": 3.2764378583,
				"element": "H" 
			},
			{
				"x": -0.6871952422,
				"y": -1.9613304309,
				"z": 2.2487765121,
				"element": "H" 
			}
		],
		 "valence_orbital": [ 
			{
				"type": "occ",
				"energy": -0.28023,
				"method": "rhf"
			},
			{
				"type": "occ",
				"energy": -0.26363,
				"method": "rhf"
			},
			{
				"type": "occ",
				"energy": -0.2598,
				"method": "rhf"
			},
			{
				"type": "occ",
				"energy": -0.2526,
				"method": "rhf"
			},
			{
				"type": "occ",
				"energy": -0.23833,
				"method": "rhf"
			},
			{
				"type": "unocc",
				"energy": -0.04091,
				"method": "rhf"
			},
			{
				"type": "unocc",
				"energy": -0.02722,
				"method": "rhf"
			},
			{
				"type": "unocc",
				"energy": -0.01175,
				"method": "rhf"
			},
			{
				"type": "unocc",
				"energy": 0.00784,
				"method": "rhf"
			},
			{
				"type": "unocc",
				"energy": 0.01931,
				"method": "rhf"
			}
		],
		"cosmo_sigma_profile": { 
			"-0.025": 0.0,
			"-0.024": 0.0,
			"-0.023": 0.0,
			"-0.022": 0.0,
			"-0.021": 0.0,
			"-0.02": 0.0,
			"-0.019": 0.0,
			"-0.018": 0.0,
			"-0.017": 0.0,
			"-0.016": 0.0,
			"-0.015": 0.181262874567,
			"-0.014": 1.12180594494,
			"-0.013": 0.731165873855,
			"-0.012": 0.705114945573,
			"-0.011": 0.961973173269,
			"-0.01": 1.41168867578,
			"-0.009": 1.20306904163,
			"-0.008": 2.22413654066,
			"-0.007": 4.16579069076,
			"-0.006": 17.4713873098,
			"-0.005": 25.8989719135,
			"-0.004": 27.3422792125,
			"-0.003": 22.7003973774,
			"-0.002": 16.7998911197,
			"-0.001": 16.2140663663,
			"0.0": 16.0856179028,
			"0.001": 16.9721148593,
			"0.002": 17.7362056988,
			"0.003": 19.9494819153,
			"0.004": 20.6618020205,
			"0.005": 16.3258048769,
			"0.006": 10.1363033386,
			"0.007": 2.72107713771,
			"0.008": 2.02909851463,
			"0.009": 1.18496671467,
			"0.01": 2.05982329998,
			"0.011": 2.31712499618,
			"0.012": 4.08099568259,
			"0.013": 5.28588485685,
			"0.014": 2.1379302003,
			"0.015": 0.172751775744,
			"0.016": 0.0,
			"0.017": 0.0,
			"0.018": 0.0,
			"0.019": 0.0,
			"0.02": 0.0,
			"0.021": 0.0,
			"0.022": 0.0,
			"0.023": 0.0,
			"0.024": 0.0,
			"0.025": 0.0
		}
	}
}
