{
	 "smiles": "CC(C)(C)C1=CC(=C(O)C(=C1)[N+]([O-])=O)C(C)(C)C", 
	 "Tm": 332.15, 
	 "num_atms": 39, 
	 "gaussian": { 
		 "optdone": 1, 
		 "sigma_profile": "yes", 
		 "theory": "DFT", 
		 "functional": "B3LYP", 
		 "basiset": "6-31G**", 
		 "properties": { 
			 "R2extent": 5543.8181, 
			 "electric_dipole_moment_norm": 4.06962369391, 
			 "electric_quadrupole_moment_norm": 13.4487343657, 
			 "total_energy": -826.497226278, 
			 "HOMO_LUMO_gap": 0.13689, 
			 "cosmo_polarized_energy": -7.21, 
			 "cosmo_cavitation_energy": 38.9, 
			 "cosmo_dispersion_energy": -26.73, 
			 "cosmo_repulsion_energy": 2.05, 
			 "cosmo_total_nonelectrostatic_energy": 14.23, 
			 "SMD_solvation_energy": 9.22 
		},
		"coords": [
			{
				"x": -0.2708612786,
				"y": 3.9152301926,
				"z": 0.0886883721,
				"element": "C" 
			},
			{
				"x": -1.175464658,
				"y": 2.9343296595,
				"z": -0.6944705345,
				"element": "C" 
			},
			{
				"x": -2.6417075077,
				"y": 3.4230916715,
				"z": -0.6241777333,
				"element": "C" 
			},
			{
				"x": -0.7339650426,
				"y": 2.9452169654,
				"z": -2.1702703606,
				"element": "C" 
			},
			{
				"x": -1.0740220183,
				"y": 1.5325745287,
				"z": -0.0636096071,
				"element": "C" 
			},
			{
				"x": -0.625041246,
				"y": 0.4000777647,
				"z": -0.767036895,
				"element": "C" 
			},
			{
				"x": -0.5145945619,
				"y": -0.8918636378,
				"z": -0.2404976222,
				"element": "C" 
			},
			{
				"x": -0.8871313345,
				"y": -1.0722215627,
				"z": 1.1156439132,
				"element": "C" 
			},
			{
				"x": -0.8105469257,
				"y": -2.2764870938,
				"z": 1.6933346926,
				"element": "O" 
			},
			{
				"x": -1.3437115612,
				"y": 0.067171008,
				"z": 1.8393552224,
				"element": "C" 
			},
			{
				"x": -1.4339638455,
				"y": 1.3370041241,
				"z": 1.2619791049,
				"element": "C" 
			},
			{
				"x": -1.7399954351,
				"y": -0.0475981739,
				"z": 3.2283066956,
				"element": "N" 
			},
			{
				"x": -2.1292103458,
				"y": 0.9483627738,
				"z": 3.8279822409,
				"element": "O" 
			},
			{
				"x": -1.6737602811,
				"y": -1.1721711642,
				"z": 3.7854418255,
				"element": "O" 
			},
			{
				"x": 0.0057097963,
				"y": -2.0043286437,
				"z": -1.1912857803,
				"element": "C" 
			},
			{
				"x": 0.1145104506,
				"y": -3.4166254385,
				"z": -0.5766676992,
				"element": "C" 
			},
			{
				"x": 1.4210572952,
				"y": -1.6125906337,
				"z": -1.6856732529,
				"element": "C" 
			},
			{
				"x": -0.9523297282,
				"y": -2.1084913432,
				"z": -2.4047050508,
				"element": "C" 
			},
			{
				"x": 0.7766310965,
				"y": 3.5984304657,
				"z": 0.0518612232,
				"element": "H" 
			},
			{
				"x": -0.3371259285,
				"y": 4.9207392622,
				"z": -0.3414723408,
				"element": "H" 
			},
			{
				"x": -0.5619722406,
				"y": 3.9849614546,
				"z": 1.141063978,
				"element": "H" 
			},
			{
				"x": -3.3068013768,
				"y": 2.7512487798,
				"z": -1.176652304,
				"element": "H" 
			},
			{
				"x": -2.7309427538,
				"y": 4.4241335303,
				"z": -1.0605575162,
				"element": "H" 
			},
			{
				"x": -3.0033016782,
				"y": 3.4775598931,
				"z": 0.4070225079,
				"element": "H" 
			},
			{
				"x": 0.3107680382,
				"y": 2.6384130071,
				"z": -2.2881407151,
				"element": "H" 
			},
			{
				"x": -0.8242984629,
				"y": 3.9593343439,
				"z": -2.5719035569,
				"element": "H" 
			},
			{
				"x": -1.3569698781,
				"y": 2.2911601474,
				"z": -2.7896017237,
				"element": "H" 
			},
			{
				"x": -0.3392152076,
				"y": 0.5311889025,
				"z": -1.8026638276,
				"element": "H" 
			},
			{
				"x": -1.1186773638,
				"y": -2.1542968299,
				"z": 2.6278992571,
				"element": "H" 
			},
			{
				"x": -1.7914717323,
				"y": 2.1444078777,
				"z": 1.8876189231,
				"element": "H" 
			},
			{
				"x": -0.8499956312,
				"y": -3.7942200905,
				"z": -0.2333722825,
				"element": "H" 
			},
			{
				"x": 0.490619289,
				"y": -4.0962555624,
				"z": -1.3495610886,
				"element": "H" 
			},
			{
				"x": 0.804594455,
				"y": -3.4486492531,
				"z": 0.2679944654,
				"element": "H" 
			},
			{
				"x": 1.7997600889,
				"y": -2.3744585123,
				"z": -2.3757743723,
				"element": "H" 
			},
			{
				"x": 1.4315027471,
				"y": -0.6547485981,
				"z": -2.2141493624,
				"element": "H" 
			},
			{
				"x": 2.1205411868,
				"y": -1.5401752973,
				"z": -0.8465345608,
				"element": "H" 
			},
			{
				"x": -1.0311652827,
				"y": -1.1690848413,
				"z": -2.9597935934,
				"element": "H" 
			},
			{
				"x": -1.9592817924,
				"y": -2.393156931,
				"z": -2.0827013467,
				"element": "H" 
			},
			{
				"x": -0.5916693443,
				"y": -2.8738127449,
				"z": -3.1006192952,
				"element": "H" 
			}
		],
		 "valence_orbital": [ 
			{
				"type": "occ",
				"energy": -0.31736,
				"method": "rhf"
			},
			{
				"type": "occ",
				"energy": -0.30868,
				"method": "rhf"
			},
			{
				"type": "occ",
				"energy": -0.29736,
				"method": "rhf"
			},
			{
				"type": "occ",
				"energy": -0.26934,
				"method": "rhf"
			},
			{
				"type": "occ",
				"energy": -0.23156,
				"method": "rhf"
			},
			{
				"type": "unocc",
				"energy": -0.09467,
				"method": "rhf"
			},
			{
				"type": "unocc",
				"energy": -0.01087,
				"method": "rhf"
			},
			{
				"type": "unocc",
				"energy": 0.00447,
				"method": "rhf"
			},
			{
				"type": "unocc",
				"energy": 0.06677,
				"method": "rhf"
			},
			{
				"type": "unocc",
				"energy": 0.08341,
				"method": "rhf"
			}
		],
		"cosmo_sigma_profile": { 
			"-0.025": 0.0,
			"-0.024": 0.0,
			"-0.023": 0.0,
			"-0.022": 0.0,
			"-0.021": 0.0,
			"-0.02": 0.0,
			"-0.019": 0.0,
			"-0.018": 0.0,
			"-0.017": 0.0,
			"-0.016": 0.0,
			"-0.015": 0.0,
			"-0.014": 0.0,
			"-0.013": 0.0,
			"-0.012": 0.0,
			"-0.011": 0.0,
			"-0.01": 0.0,
			"-0.009": 0.0091014273804,
			"-0.008": 0.655053854802,
			"-0.007": 1.6325747134,
			"-0.006": 7.38540550247,
			"-0.005": 8.63766227155,
			"-0.004": 12.2326527634,
			"-0.003": 33.034859373,
			"-0.002": 40.8601068483,
			"-0.001": 37.6349979258,
			"0.0": 40.2223636084,
			"0.001": 51.0527011305,
			"0.002": 24.5825439513,
			"0.003": 10.1558511441,
			"0.004": 4.18874735536,
			"0.005": 4.70916955647,
			"0.006": 5.94523897411,
			"0.007": 8.23972536311,
			"0.008": 5.38418098491,
			"0.009": 4.20449411792,
			"0.01": 2.33958452491,
			"0.011": 0.0993697658951,
			"0.012": 0.0,
			"0.013": 0.0,
			"0.014": 0.0,
			"0.015": 0.0,
			"0.016": 0.0,
			"0.017": 0.0,
			"0.018": 0.0,
			"0.019": 0.0,
			"0.02": 0.0,
			"0.021": 0.0,
			"0.022": 0.0,
			"0.023": 0.0,
			"0.024": 0.0,
			"0.025": 0.0
		}
	}
}
