{
	 "smiles": "CC1(C)CCC(CC(O)=O)CC1", 
	 "Tm": 319.15, 
	 "num_atms": 30, 
	 "gaussian": { 
		 "optdone": 1, 
		 "sigma_profile": "yes", 
		 "theory": "DFT", 
		 "functional": "B3LYP", 
		 "basiset": "6-31G**", 
		 "properties": { 
			 "R2extent": 3555.5277, 
			 "electric_dipole_moment_norm": 1.5993679314, 
			 "electric_quadrupole_moment_norm": 8.02700498816, 
			 "total_energy": -542.403108277, 
			 "HOMO_LUMO_gap": 0.27698, 
			 "cosmo_polarized_energy": -8.06, 
			 "cosmo_cavitation_energy": 29.57, 
			 "cosmo_dispersion_energy": -21.01, 
			 "cosmo_repulsion_energy": 1.66, 
			 "cosmo_total_nonelectrostatic_energy": 10.22, 
			 "SMD_solvation_energy": 5.52 
		},
		"coords": [
			{
				"x": 2.4960993251,
				"y": 0.6199934648,
				"z": 1.2678720491,
				"element": "C" 
			},
			{
				"x": 1.3680515726,
				"y": 0.3069790148,
				"z": 0.2686256176,
				"element": "C" 
			},
			{
				"x": 0.6381610606,
				"y": 1.6242482412,
				"z": -0.0666249231,
				"element": "C" 
			},
			{
				"x": 1.9810571433,
				"y": -0.3199445399,
				"z": -1.0097471764,
				"element": "C" 
			},
			{
				"x": 0.9365027341,
				"y": -0.8767464248,
				"z": -1.9917031678,
				"element": "C" 
			},
			{
				"x": -0.0267407593,
				"y": -1.8911425032,
				"z": -1.3395958407,
				"element": "C" 
			},
			{
				"x": 0.6859830911,
				"y": -3.2447468135,
				"z": -1.0676668852,
				"element": "C" 
			},
			{
				"x": -0.2685333466,
				"y": -4.2947042699,
				"z": -0.5524229713,
				"element": "C" 
			},
			{
				"x": -1.0260079067,
				"y": -4.8219042277,
				"z": -1.5492222937,
				"element": "O" 
			},
			{
				"x": -0.3996524585,
				"y": -4.6331140937,
				"z": 0.6046301149,
				"element": "O" 
			},
			{
				"x": -0.6551825064,
				"y": -1.2750605454,
				"z": -0.0705323242,
				"element": "C" 
			},
			{
				"x": 0.3919028037,
				"y": -0.7140961415,
				"z": 0.9063999329,
				"element": "C" 
			},
			{
				"x": 3.2130874355,
				"y": 1.3333590647,
				"z": 0.8447379646,
				"element": "H" 
			},
			{
				"x": 2.0962363882,
				"y": 1.0573323933,
				"z": 2.1901002018,
				"element": "H" 
			},
			{
				"x": 3.0476948686,
				"y": -0.2869306935,
				"z": 1.5408426603,
				"element": "H" 
			},
			{
				"x": -0.1841201443,
				"y": 1.4859326707,
				"z": -0.7745510561,
				"element": "H" 
			},
			{
				"x": 1.3317598956,
				"y": 2.3502158062,
				"z": -0.5063825095,
				"element": "H" 
			},
			{
				"x": 0.217729318,
				"y": 2.0738890786,
				"z": 0.8401660038,
				"element": "H" 
			},
			{
				"x": 2.6635272221,
				"y": -1.1265145809,
				"z": -0.7087728415,
				"element": "H" 
			},
			{
				"x": 2.6047761688,
				"y": 0.4251778909,
				"z": -1.520713752,
				"element": "H" 
			},
			{
				"x": 1.442901652,
				"y": -1.3376915905,
				"z": -2.849252124,
				"element": "H" 
			},
			{
				"x": 0.3408239878,
				"y": -0.0509504199,
				"z": -2.4003255957,
				"element": "H" 
			},
			{
				"x": -0.8317506965,
				"y": -2.1036611519,
				"z": -2.0542554608,
				"element": "H" 
			},
			{
				"x": 1.13257108,
				"y": -3.6019316729,
				"z": -2.0016627515,
				"element": "H" 
			},
			{
				"x": 1.4775956228,
				"y": -3.1370941635,
				"z": -0.3238656456,
				"element": "H" 
			},
			{
				"x": -1.6279248266,
				"y": -5.4539756375,
				"z": -1.1212298808,
				"element": "H" 
			},
			{
				"x": -1.3368224171,
				"y": -0.4737870574,
				"z": -0.3821170132,
				"element": "H" 
			},
			{
				"x": -1.2732018073,
				"y": -2.0159721851,
				"z": 0.4487799965,
				"element": "H" 
			},
			{
				"x": -0.1177302461,
				"y": -0.2482297427,
				"z": 1.7597306251,
				"element": "H" 
			},
			{
				"x": 0.9742057456,
				"y": -1.5458291698,
				"z": 1.3244590467,
				"element": "H" 
			}
		],
		 "valence_orbital": [ 
			{
				"type": "occ",
				"energy": -0.31575,
				"method": "rhf"
			},
			{
				"type": "occ",
				"energy": -0.30479,
				"method": "rhf"
			},
			{
				"type": "occ",
				"energy": -0.29303,
				"method": "rhf"
			},
			{
				"type": "occ",
				"energy": -0.29032,
				"method": "rhf"
			},
			{
				"type": "occ",
				"energy": -0.26725,
				"method": "rhf"
			},
			{
				"type": "unocc",
				"energy": 0.00973,
				"method": "rhf"
			},
			{
				"type": "unocc",
				"energy": 0.06553,
				"method": "rhf"
			},
			{
				"type": "unocc",
				"energy": 0.08531,
				"method": "rhf"
			},
			{
				"type": "unocc",
				"energy": 0.09261,
				"method": "rhf"
			},
			{
				"type": "unocc",
				"energy": 0.11822,
				"method": "rhf"
			}
		],
		"cosmo_sigma_profile": { 
			"-0.025": 0.0,
			"-0.024": 0.0,
			"-0.023": 0.0,
			"-0.022": 0.0,
			"-0.021": 0.0,
			"-0.02": 0.0,
			"-0.019": 0.0139198655218,
			"-0.018": 0.541580904093,
			"-0.017": 0.937650995177,
			"-0.016": 0.986125881454,
			"-0.015": 0.48593901463,
			"-0.014": 0.730739403974,
			"-0.013": 0.41114832615,
			"-0.012": 0.440975135536,
			"-0.011": 1.16638840392,
			"-0.01": 0.887729467688,
			"-0.009": 0.193357941726,
			"-0.008": 0.40918830875,
			"-0.007": 1.34891201615,
			"-0.006": 1.02601535413,
			"-0.005": 2.81086194643,
			"-0.004": 7.41550273065,
			"-0.003": 16.7894410976,
			"-0.002": 38.0976016801,
			"-0.001": 39.0221136884,
			"0.0": 32.4515167283,
			"0.001": 29.9930172922,
			"0.002": 17.9800255974,
			"0.003": 4.73119527965,
			"0.004": 3.00456285086,
			"0.005": 2.95120886909,
			"0.006": 2.65514877962,
			"0.007": 2.14191175088,
			"0.008": 2.42712589486,
			"0.009": 2.47079101589,
			"0.01": 3.19134636279,
			"0.011": 2.44708933139,
			"0.012": 5.08888170708,
			"0.013": 1.57829416396,
			"0.014": 0.0931478108502,
			"0.015": 0.0,
			"0.016": 0.0,
			"0.017": 0.0,
			"0.018": 0.0,
			"0.019": 0.0,
			"0.02": 0.0,
			"0.021": 0.0,
			"0.022": 0.0,
			"0.023": 0.0,
			"0.024": 0.0,
			"0.025": 0.0
		}
	}
}
