{
	 "smiles": "NC(=O)C1=C(N)N(N=N1)C1=CC=CC=C1", 
	 "Tm": 434.15, 
	 "num_atms": 24, 
	 "gaussian": { 
		 "optdone": 1, 
		 "sigma_profile": "yes", 
		 "theory": "DFT", 
		 "functional": "B3LYP", 
		 "basiset": "6-31G**", 
		 "properties": { 
			 "R2extent": 3874.7297, 
			 "electric_dipole_moment_norm": 8.36329924013, 
			 "electric_quadrupole_moment_norm": 18.4467135081, 
			 "total_energy": -697.334901381, 
			 "HOMO_LUMO_gap": 0.19298, 
			 "cosmo_polarized_energy": -26.96, 
			 "cosmo_cavitation_energy": 29.14, 
			 "cosmo_dispersion_energy": -21.27, 
			 "cosmo_repulsion_energy": 1.67, 
			 "cosmo_total_nonelectrostatic_energy": 9.54, 
			 "SMD_solvation_energy": 4.42 
		},
		"coords": [
			{
				"x": -1.4667188651,
				"y": -4.1848590255,
				"z": -1.3458322968,
				"element": "N" 
			},
			{
				"x": -1.7162884768,
				"y": -3.6798161247,
				"z": -0.0601834033,
				"element": "C" 
			},
			{
				"x": -2.4600231113,
				"y": -4.2467362574,
				"z": 0.7205673294,
				"element": "O" 
			},
			{
				"x": -1.0600641328,
				"y": -2.3856334379,
				"z": 0.2056604057,
				"element": "C" 
			},
			{
				"x": -0.5701449993,
				"y": -1.4482798526,
				"z": -0.7061932441,
				"element": "C" 
			},
			{
				"x": -0.4558328687,
				"y": -1.5001800842,
				"z": -2.0767297521,
				"element": "N" 
			},
			{
				"x": -0.1140082154,
				"y": -0.4288365047,
				"z": 0.0686971881,
				"element": "N" 
			},
			{
				"x": -0.3048923452,
				"y": -0.7374813253,
				"z": 1.418454629,
				"element": "N" 
			},
			{
				"x": -0.8757791344,
				"y": -1.8860716795,
				"z": 1.4686234322,
				"element": "N" 
			},
			{
				"x": 0.4856382766,
				"y": 0.8022944671,
				"z": -0.3120153218,
				"element": "C" 
			},
			{
				"x": -0.1363812859,
				"y": 1.6295405166,
				"z": -1.2540371867,
				"element": "C" 
			},
			{
				"x": 0.4713397733,
				"y": 2.831116015,
				"z": -1.621276447,
				"element": "C" 
			},
			{
				"x": 1.676437229,
				"y": 3.2166573469,
				"z": -1.0323190229,
				"element": "C" 
			},
			{
				"x": 2.2756281908,
				"y": 2.3976334879,
				"z": -0.0717266204,
				"element": "C" 
			},
			{
				"x": 1.6893303249,
				"y": 1.185299447,
				"z": 0.2871500334,
				"element": "C" 
			},
			{
				"x": -0.5175276871,
				"y": -4.0855605138,
				"z": -1.6884999943,
				"element": "H" 
			},
			{
				"x": -1.8387320825,
				"y": -5.1208479269,
				"z": -1.4591332546,
				"element": "H" 
			},
			{
				"x": -0.3050642846,
				"y": -0.619706536,
				"z": -2.5488196789,
				"element": "H" 
			},
			{
				"x": -1.1404333086,
				"y": -2.1028851915,
				"z": -2.5173109382,
				"element": "H" 
			},
			{
				"x": -1.1033000035,
				"y": 1.3536087758,
				"z": -1.6645648683,
				"element": "H" 
			},
			{
				"x": -0.0099810747,
				"y": 3.473762035,
				"z": -2.3522201766,
				"element": "H" 
			},
			{
				"x": 2.142592838,
				"y": 4.1559829459,
				"z": -1.3134436749,
				"element": "H" 
			},
			{
				"x": 3.2078052106,
				"y": 2.6997756769,
				"z": 0.3957926524,
				"element": "H" 
			},
			{
				"x": 2.1411000327,
				"y": 0.5352237461,
				"z": 1.0277602108,
				"element": "H" 
			}
		],
		 "valence_orbital": [ 
			{
				"type": "occ",
				"energy": -0.27638,
				"method": "rhf"
			},
			{
				"type": "occ",
				"energy": -0.26656,
				"method": "rhf"
			},
			{
				"type": "occ",
				"energy": -0.25566,
				"method": "rhf"
			},
			{
				"type": "occ",
				"energy": -0.2472,
				"method": "rhf"
			},
			{
				"type": "occ",
				"energy": -0.22976,
				"method": "rhf"
			},
			{
				"type": "unocc",
				"energy": -0.03678,
				"method": "rhf"
			},
			{
				"type": "unocc",
				"energy": -0.02844,
				"method": "rhf"
			},
			{
				"type": "unocc",
				"energy": -0.00779,
				"method": "rhf"
			},
			{
				"type": "unocc",
				"energy": 0.01319,
				"method": "rhf"
			},
			{
				"type": "unocc",
				"energy": 0.06143,
				"method": "rhf"
			}
		],
		"cosmo_sigma_profile": { 
			"-0.025": 0.0,
			"-0.024": 0.0,
			"-0.023": 0.0,
			"-0.022": 0.0,
			"-0.021": 0.0,
			"-0.02": 0.0,
			"-0.019": 0.0,
			"-0.018": 0.0,
			"-0.017": 0.0,
			"-0.016": 0.0,
			"-0.015": 0.0,
			"-0.014": 0.261853788208,
			"-0.013": 3.37999796978,
			"-0.012": 4.15757088541,
			"-0.011": 4.89646014816,
			"-0.01": 4.86684215194,
			"-0.009": 6.56933743656,
			"-0.008": 5.5110940243,
			"-0.007": 10.2741577222,
			"-0.006": 14.6232160809,
			"-0.005": 15.3259343712,
			"-0.004": 12.5240654666,
			"-0.003": 11.8857873269,
			"-0.002": 13.0076562983,
			"-0.001": 11.1548936073,
			"0.0": 11.1569112387,
			"0.001": 12.217725351,
			"0.002": 12.2295241816,
			"0.003": 15.482446289,
			"0.004": 11.4557749563,
			"0.005": 4.3795797079,
			"0.006": 4.52306693145,
			"0.007": 3.64697092409,
			"0.008": 4.07498845673,
			"0.009": 4.12898769216,
			"0.01": 6.10101508462,
			"0.011": 4.39809459628,
			"0.012": 5.84244883451,
			"0.013": 7.76727351541,
			"0.014": 4.6172354046,
			"0.015": 2.60756864012,
			"0.016": 0.0931766398519,
			"0.017": 0.0,
			"0.018": 0.0,
			"0.019": 0.0,
			"0.02": 0.0,
			"0.021": 0.0,
			"0.022": 0.0,
			"0.023": 0.0,
			"0.024": 0.0,
			"0.025": 0.0
		}
	}
}
