{
	 "smiles": "CC1=CC(F)=CC=C1N", 
	 "Tm": 287.35, 
	 "num_atms": 17, 
	 "gaussian": { 
		 "optdone": 1, 
		 "sigma_profile": "yes", 
		 "theory": "DFT", 
		 "functional": "B3LYP", 
		 "basiset": "6-31G**", 
		 "properties": { 
			 "R2extent": 1337.2196, 
			 "electric_dipole_moment_norm": 2.94631720797, 
			 "electric_quadrupole_moment_norm": 7.36807278126, 
			 "total_energy": -426.15988907, 
			 "HOMO_LUMO_gap": 0.1972, 
			 "cosmo_polarized_energy": -7.92, 
			 "cosmo_cavitation_energy": 20.72, 
			 "cosmo_dispersion_energy": -15.38, 
			 "cosmo_repulsion_energy": 1.23, 
			 "cosmo_total_nonelectrostatic_energy": 6.58, 
			 "SMD_solvation_energy": 4.05 
		},
		"coords": [
			{
				"x": 1.7307471856,
				"y": 0.4979659271,
				"z": -1.4580772222,
				"element": "C" 
			},
			{
				"x": 0.3734409577,
				"y": 0.2980999218,
				"z": -0.83159311,
				"element": "C" 
			},
			{
				"x": -0.1432415309,
				"y": 1.2288929249,
				"z": 0.0734530282,
				"element": "C" 
			},
			{
				"x": -1.3864792277,
				"y": 1.0255968686,
				"z": 0.6593498659,
				"element": "C" 
			},
			{
				"x": -1.8609331815,
				"y": 1.9447134484,
				"z": 1.5346494887,
				"element": "F" 
			},
			{
				"x": -2.1487076398,
				"y": -0.0958517714,
				"z": 0.366642394,
				"element": "C" 
			},
			{
				"x": -1.6455569884,
				"y": -1.0263543431,
				"z": -0.5415073832,
				"element": "C" 
			},
			{
				"x": -0.3930365915,
				"y": -0.8477876331,
				"z": -1.1474622984,
				"element": "C" 
			},
			{
				"x": 0.1282054521,
				"y": -1.8270537848,
				"z": -2.0080207769,
				"element": "N" 
			},
			{
				"x": 1.6661480809,
				"y": 0.6238727546,
				"z": -2.5485436785,
				"element": "H" 
			},
			{
				"x": 2.222589398,
				"y": 1.388547008,
				"z": -1.0597297922,
				"element": "H" 
			},
			{
				"x": 2.3843351248,
				"y": -0.3633962482,
				"z": -1.2737439212,
				"element": "H" 
			},
			{
				"x": 0.4234897554,
				"y": 2.1180052313,
				"z": 0.3320626704,
				"element": "H" 
			},
			{
				"x": -3.1165398483,
				"y": -0.231374215,
				"z": 0.8370468557,
				"element": "H" 
			},
			{
				"x": -2.2324343319,
				"y": -1.9093833213,
				"z": -0.7826431084,
				"element": "H" 
			},
			{
				"x": 0.7224789324,
				"y": -1.4715800417,
				"z": -2.7451800281,
				"element": "H" 
			},
			{
				"x": -0.5683055468,
				"y": -2.4585127261,
				"z": -2.3812029837,
				"element": "H" 
			}
		],
		 "valence_orbital": [ 
			{
				"type": "occ",
				"energy": -0.35772,
				"method": "rhf"
			},
			{
				"type": "occ",
				"energy": -0.3331,
				"method": "rhf"
			},
			{
				"type": "occ",
				"energy": -0.29779,
				"method": "rhf"
			},
			{
				"type": "occ",
				"energy": -0.24484,
				"method": "rhf"
			},
			{
				"type": "occ",
				"energy": -0.19661,
				"method": "rhf"
			},
			{
				"type": "unocc",
				"energy": 0.00059,
				"method": "rhf"
			},
			{
				"type": "unocc",
				"energy": 0.0245,
				"method": "rhf"
			},
			{
				"type": "unocc",
				"energy": 0.07402,
				"method": "rhf"
			},
			{
				"type": "unocc",
				"energy": 0.09778,
				"method": "rhf"
			},
			{
				"type": "unocc",
				"energy": 0.1131,
				"method": "rhf"
			}
		],
		"cosmo_sigma_profile": { 
			"-0.025": 0.0,
			"-0.024": 0.0,
			"-0.023": 0.0,
			"-0.022": 0.0,
			"-0.021": 0.0,
			"-0.02": 0.0,
			"-0.019": 0.0,
			"-0.018": 0.0,
			"-0.017": 0.0,
			"-0.016": 0.0,
			"-0.015": 0.0,
			"-0.014": 0.0,
			"-0.013": 0.0144954372644,
			"-0.012": 1.20467217225,
			"-0.011": 2.53599389833,
			"-0.01": 2.67988208758,
			"-0.009": 3.12915898237,
			"-0.008": 3.78935893657,
			"-0.007": 2.92989912249,
			"-0.006": 7.62102239707,
			"-0.005": 8.21237189861,
			"-0.004": 10.9354310584,
			"-0.003": 11.010717211,
			"-0.002": 9.36850629961,
			"-0.001": 9.99727305566,
			"0.0": 11.306976331,
			"0.001": 9.10890721005,
			"0.002": 10.1732602934,
			"0.003": 11.8353823723,
			"0.004": 12.5171683621,
			"0.005": 20.3236973912,
			"0.006": 9.25636762329,
			"0.007": 1.04996896916,
			"0.008": 0.8196862499,
			"0.009": 0.570808389283,
			"0.01": 0.75648636265,
			"0.011": 0.78871029451,
			"0.012": 0.398644746954,
			"0.013": 0.745103278054,
			"0.014": 0.55530955839,
			"0.015": 0.435179209632,
			"0.016": 0.0992513979382,
			"0.017": 0.0,
			"0.018": 0.0,
			"0.019": 0.0,
			"0.02": 0.0,
			"0.021": 0.0,
			"0.022": 0.0,
			"0.023": 0.0,
			"0.024": 0.0,
			"0.025": 0.0
		}
	}
}
