{
	 "smiles": "NC1=NC2=C(S1)C=C(F)C=C2F", 
	 "Tm": 471.15, 
	 "num_atms": 16, 
	 "gaussian": { 
		 "optdone": 1, 
		 "sigma_profile": "yes", 
		 "theory": "DFT", 
		 "functional": "B3LYP", 
		 "basiset": "6-31G**", 
		 "properties": { 
			 "R2extent": 2434.2225, 
			 "electric_dipole_moment_norm": 3.37757295998, 
			 "electric_quadrupole_moment_norm": 14.4643030841, 
			 "total_energy": -976.519454752, 
			 "HOMO_LUMO_gap": 0.19777, 
			 "cosmo_polarized_energy": -11.06, 
			 "cosmo_cavitation_energy": 23.43, 
			 "cosmo_dispersion_energy": -17.9, 
			 "cosmo_repulsion_energy": 1.33, 
			 "cosmo_total_nonelectrostatic_energy": 6.86, 
			 "SMD_solvation_energy": 2.93 
		},
		"coords": [
			{
				"x": -3.0891489243,
				"y": -0.2571908687,
				"z": -2.9196806721,
				"element": "N" 
			},
			{
				"x": -2.0260479469,
				"y": -0.0572913461,
				"z": -2.0792861075,
				"element": "C" 
			},
			{
				"x": -1.4226234651,
				"y": -0.9997205495,
				"z": -1.429368295,
				"element": "N" 
			},
			{
				"x": -0.4429582173,
				"y": -0.4680071548,
				"z": -0.6092463796,
				"element": "C" 
			},
			{
				"x": -0.2804750897,
				"y": 0.9378723857,
				"z": -0.6417037155,
				"element": "C" 
			},
			{
				"x": -1.4587175725,
				"y": 1.6140774585,
				"z": -1.7602562225,
				"element": "S" 
			},
			{
				"x": 0.6781453745,
				"y": 1.6075316921,
				"z": 0.1192000699,
				"element": "C" 
			},
			{
				"x": 1.48475197,
				"y": 0.8223542839,
				"z": 0.9328859462,
				"element": "C" 
			},
			{
				"x": 2.4248270199,
				"y": 1.4263188582,
				"z": 1.6889194533,
				"element": "F" 
			},
			{
				"x": 1.3699689004,
				"y": -0.5673323245,
				"z": 1.0077826598,
				"element": "C" 
			},
			{
				"x": 0.4061130045,
				"y": -1.1968326699,
				"z": 0.2339769631,
				"element": "C" 
			},
			{
				"x": 0.283245193,
				"y": -2.5322506513,
				"z": 0.2925545397,
				"element": "F" 
			},
			{
				"x": -3.2318595689,
				"y": -1.2266489323,
				"z": -3.1703296192,
				"element": "H" 
			},
			{
				"x": -3.2235370248,
				"y": 0.4000869814,
				"z": -3.673784314,
				"element": "H" 
			},
			{
				"x": 0.8061464985,
				"y": 2.6829328428,
				"z": 0.0970646888,
				"element": "H" 
			},
			{
				"x": 2.0194698487,
				"y": -1.1426000056,
				"z": 1.6558710046,
				"element": "H" 
			}
		],
		 "valence_orbital": [ 
			{
				"type": "occ",
				"energy": -0.30265,
				"method": "rhf"
			},
			{
				"type": "occ",
				"energy": -0.29966,
				"method": "rhf"
			},
			{
				"type": "occ",
				"energy": -0.2853,
				"method": "rhf"
			},
			{
				"type": "occ",
				"energy": -0.24031,
				"method": "rhf"
			},
			{
				"type": "occ",
				"energy": -0.21615,
				"method": "rhf"
			},
			{
				"type": "unocc",
				"energy": -0.01838,
				"method": "rhf"
			},
			{
				"type": "unocc",
				"energy": -0.0113,
				"method": "rhf"
			},
			{
				"type": "unocc",
				"energy": -0.00815,
				"method": "rhf"
			},
			{
				"type": "unocc",
				"energy": 0.04052,
				"method": "rhf"
			},
			{
				"type": "unocc",
				"energy": 0.05956,
				"method": "rhf"
			}
		],
		"cosmo_sigma_profile": { 
			"-0.025": 0.0,
			"-0.024": 0.0,
			"-0.023": 0.0,
			"-0.022": 0.0,
			"-0.021": 0.0,
			"-0.02": 0.0,
			"-0.019": 0.0,
			"-0.018": 0.0,
			"-0.017": 0.0,
			"-0.016": 0.0760349005876,
			"-0.015": 1.49166212507,
			"-0.014": 2.53412634618,
			"-0.013": 2.93790411382,
			"-0.012": 2.37712504144,
			"-0.011": 3.04601760088,
			"-0.01": 1.85657105777,
			"-0.009": 2.59000361704,
			"-0.008": 5.93128345736,
			"-0.007": 4.67417851967,
			"-0.006": 4.86123109753,
			"-0.005": 4.51897478923,
			"-0.004": 5.02374880459,
			"-0.003": 6.85769469271,
			"-0.002": 3.99804275698,
			"-0.001": 9.54036184922,
			"0.0": 17.2702383718,
			"0.001": 27.8433566415,
			"0.002": 22.2469422347,
			"0.003": 16.7334936493,
			"0.004": 22.5974838244,
			"0.005": 6.27425790861,
			"0.006": 3.44196168336,
			"0.007": 2.60998697588,
			"0.008": 2.02314670067,
			"0.009": 2.00014664839,
			"0.01": 1.76220957756,
			"0.011": 1.27008897401,
			"0.012": 0.815253611884,
			"0.013": 1.21206508066,
			"0.014": 0.791958926359,
			"0.015": 0.047311301937,
			"0.016": 0.0,
			"0.017": 0.0,
			"0.018": 0.0,
			"0.019": 0.0,
			"0.02": 0.0,
			"0.021": 0.0,
			"0.022": 0.0,
			"0.023": 0.0,
			"0.024": 0.0,
			"0.025": 0.0
		}
	}
}
