{
	 "smiles": "CC1=NN=C(O1)C(Cl)(Cl)Cl", 
	 "Tm": 321.15, 
	 "num_atms": 13, 
	 "gaussian": { 
		 "optdone": 1, 
		 "sigma_profile": "yes", 
		 "theory": "DFT", 
		 "functional": "B3LYP", 
		 "basiset": "6-31G**", 
		 "properties": { 
			 "R2extent": 4350.714, 
			 "electric_dipole_moment_norm": 3.39952653321, 
			 "electric_quadrupole_moment_norm": 9.19525001455, 
			 "total_energy": -1719.48037972, 
			 "HOMO_LUMO_gap": 0.2309, 
			 "cosmo_polarized_energy": -8.64, 
			 "cosmo_cavitation_energy": 23.46, 
			 "cosmo_dispersion_energy": -17.43, 
			 "cosmo_repulsion_energy": 1.44, 
			 "cosmo_total_nonelectrostatic_energy": 7.48, 
			 "SMD_solvation_energy": 1.77 
		},
		"coords": [
			{
				"x": 0.642091678,
				"y": 1.9742158149,
				"z": -0.7695479173,
				"element": "C" 
			},
			{
				"x": 1.3850310499,
				"y": 1.0314769995,
				"z": 0.1018554754,
				"element": "C" 
			},
			{
				"x": 2.2127419277,
				"y": 1.2934053681,
				"z": 1.0665807716,
				"element": "N" 
			},
			{
				"x": 2.6398472816,
				"y": 0.0648934107,
				"z": 1.5707639022,
				"element": "N" 
			},
			{
				"x": 2.0344001804,
				"y": -0.8353926964,
				"z": 0.8684124253,
				"element": "C" 
			},
			{
				"x": 1.2202475398,
				"y": -0.3120223173,
				"z": -0.083965458,
				"element": "O" 
			},
			{
				"x": 2.1202648887,
				"y": -2.3270663896,
				"z": 0.9742062322,
				"element": "C" 
			},
			{
				"x": 2.708800824,
				"y": -3.0007113125,
				"z": -0.5986425354,
				"element": "Cl" 
			},
			{
				"x": 3.2364438385,
				"y": -2.7875453448,
				"z": 2.2820976621,
				"element": "Cl" 
			},
			{
				"x": 0.4727797892,
				"y": -2.9945347139,
				"z": 1.3116187456,
				"element": "Cl" 
			},
			{
				"x": 0.8970545371,
				"y": 2.9933222832,
				"z": -0.4779343721,
				"element": "H" 
			},
			{
				"x": -0.4376845389,
				"y": 1.827789356,
				"z": -0.6681584761,
				"element": "H" 
			},
			{
				"x": 0.905881004,
				"y": 1.821369542,
				"z": -1.8205864554,
				"element": "H" 
			}
		],
		 "valence_orbital": [ 
			{
				"type": "occ",
				"energy": -0.33628,
				"method": "rhf"
			},
			{
				"type": "occ",
				"energy": -0.3257,
				"method": "rhf"
			},
			{
				"type": "occ",
				"energy": -0.31772,
				"method": "rhf"
			},
			{
				"type": "occ",
				"energy": -0.2971,
				"method": "rhf"
			},
			{
				"type": "occ",
				"energy": -0.29386,
				"method": "rhf"
			},
			{
				"type": "unocc",
				"energy": -0.06296,
				"method": "rhf"
			},
			{
				"type": "unocc",
				"energy": -0.05544,
				"method": "rhf"
			},
			{
				"type": "unocc",
				"energy": -0.01669,
				"method": "rhf"
			},
			{
				"type": "unocc",
				"energy": -0.00102,
				"method": "rhf"
			},
			{
				"type": "unocc",
				"energy": 0.04381,
				"method": "rhf"
			}
		],
		"cosmo_sigma_profile": { 
			"-0.025": 0.0,
			"-0.024": 0.0,
			"-0.023": 0.0,
			"-0.022": 0.0,
			"-0.021": 0.0,
			"-0.02": 0.0,
			"-0.019": 0.0,
			"-0.018": 0.0,
			"-0.017": 0.0,
			"-0.016": 0.0,
			"-0.015": 0.0,
			"-0.014": 0.0,
			"-0.013": 0.0,
			"-0.012": 0.0,
			"-0.011": 0.0,
			"-0.01": 0.0,
			"-0.009": 0.0,
			"-0.008": 2.96180945973,
			"-0.007": 7.92277805844,
			"-0.006": 9.37670968359,
			"-0.005": 13.001972051,
			"-0.004": 15.4206495696,
			"-0.003": 16.222510951,
			"-0.002": 12.4142247277,
			"-0.001": 12.8144172464,
			"0.0": 13.2505684815,
			"0.001": 21.7975182449,
			"0.002": 33.9540943192,
			"0.003": 9.19189997472,
			"0.004": 3.21800322176,
			"0.005": 1.91588950846,
			"0.006": 2.33878596398,
			"0.007": 2.88345259243,
			"0.008": 2.7815386557,
			"0.009": 2.53959978321,
			"0.01": 3.47949514546,
			"0.011": 2.50742240082,
			"0.012": 2.67988980802,
			"0.013": 1.4901063598,
			"0.014": 0.974630011599,
			"0.015": 0.0253360079399,
			"0.016": 0.0,
			"0.017": 0.0,
			"0.018": 0.0,
			"0.019": 0.0,
			"0.02": 0.0,
			"0.021": 0.0,
			"0.022": 0.0,
			"0.023": 0.0,
			"0.024": 0.0,
			"0.025": 0.0
		}
	}
}
