{
	 "smiles": "ClC1=CC2=C(NC=C2C=O)C=C1", 
	 "Tm": 484.15, 
	 "num_atms": 18, 
	 "gaussian": { 
		 "optdone": 1, 
		 "sigma_profile": "yes", 
		 "theory": "DFT", 
		 "functional": "B3LYP", 
		 "basiset": "6-31G**", 
		 "properties": { 
			 "R2extent": 2702.4788, 
			 "electric_dipole_moment_norm": 6.92108214516, 
			 "electric_quadrupole_moment_norm": 13.1308051425, 
			 "total_energy": -936.740385322, 
			 "HOMO_LUMO_gap": 0.17953, 
			 "cosmo_polarized_energy": -16.65, 
			 "cosmo_cavitation_energy": 24.6, 
			 "cosmo_dispersion_energy": -18.34, 
			 "cosmo_repulsion_energy": 1.45, 
			 "cosmo_total_nonelectrostatic_energy": 7.71, 
			 "SMD_solvation_energy": 4.83 
		},
		"coords": [
			{
				"x": 0.3299159865,
				"y": -2.9972227571,
				"z": 1.5939687296,
				"element": "Cl" 
			},
			{
				"x": 0.7324691813,
				"y": -1.5232345185,
				"z": 0.7178999635,
				"element": "C" 
			},
			{
				"x": 0.2817060755,
				"y": -0.3037163466,
				"z": 1.2033380482,
				"element": "C" 
			},
			{
				"x": 0.623413743,
				"y": 0.8468226082,
				"z": 0.4769125956,
				"element": "C" 
			},
			{
				"x": 1.3998105644,
				"y": 0.7303478005,
				"z": -0.7020109498,
				"element": "C" 
			},
			{
				"x": 1.5814674772,
				"y": 2.0138102613,
				"z": -1.2043023961,
				"element": "N" 
			},
			{
				"x": 0.9547769018,
				"y": 2.9168272464,
				"z": -0.3922494028,
				"element": "C" 
			},
			{
				"x": 0.3473571611,
				"y": 2.2548244176,
				"z": 0.6600127044,
				"element": "C" 
			},
			{
				"x": -0.412965462,
				"y": 2.8860721902,
				"z": 1.7252525466,
				"element": "C" 
			},
			{
				"x": -0.9438298894,
				"y": 2.2872517589,
				"z": 2.6486466539,
				"element": "O" 
			},
			{
				"x": 1.8481555252,
				"y": -0.5024758638,
				"z": -1.1813824224,
				"element": "C" 
			},
			{
				"x": 1.5044718506,
				"y": -1.6365319328,
				"z": -0.4546945516,
				"element": "C" 
			},
			{
				"x": -0.3112973794,
				"y": -0.2272670175,
				"z": 2.1058266575,
				"element": "H" 
			},
			{
				"x": 2.0964375055,
				"y": 2.2443760387,
				"z": -2.0394381736,
				"element": "H" 
			},
			{
				"x": 0.9792922335,
				"y": 3.9752465178,
				"z": -0.612874527,
				"element": "H" 
			},
			{
				"x": -0.4878567093,
				"y": 3.9945207969,
				"z": 1.6497427373,
				"element": "H" 
			},
			{
				"x": 2.4430921872,
				"y": -0.5839108305,
				"z": -2.0860757708,
				"element": "H" 
			},
			{
				"x": 1.8280830473,
				"y": -2.6168403698,
				"z": -0.7850724427,
				"element": "H" 
			}
		],
		 "valence_orbital": [ 
			{
				"type": "occ",
				"energy": -0.30618,
				"method": "rhf"
			},
			{
				"type": "occ",
				"energy": -0.29179,
				"method": "rhf"
			},
			{
				"type": "occ",
				"energy": -0.24723,
				"method": "rhf"
			},
			{
				"type": "occ",
				"energy": -0.23603,
				"method": "rhf"
			},
			{
				"type": "occ",
				"energy": -0.22794,
				"method": "rhf"
			},
			{
				"type": "unocc",
				"energy": -0.04841,
				"method": "rhf"
			},
			{
				"type": "unocc",
				"energy": -0.01859,
				"method": "rhf"
			},
			{
				"type": "unocc",
				"energy": 0.00707,
				"method": "rhf"
			},
			{
				"type": "unocc",
				"energy": 0.03462,
				"method": "rhf"
			},
			{
				"type": "unocc",
				"energy": 0.05842,
				"method": "rhf"
			}
		],
		"cosmo_sigma_profile": { 
			"-0.025": 0.0,
			"-0.024": 0.0,
			"-0.023": 0.0,
			"-0.022": 0.0,
			"-0.021": 0.0,
			"-0.02": 0.0,
			"-0.019": 0.0,
			"-0.018": 0.00376207432313,
			"-0.017": 1.25843077373,
			"-0.016": 2.05133294513,
			"-0.015": 1.50967522879,
			"-0.014": 0.987580199113,
			"-0.013": 1.11376061111,
			"-0.012": 1.73370611914,
			"-0.011": 1.65596116373,
			"-0.01": 3.45210658468,
			"-0.009": 3.60067037023,
			"-0.008": 4.69156604529,
			"-0.007": 6.45527139535,
			"-0.006": 7.34395587838,
			"-0.005": 8.91647061745,
			"-0.004": 7.47669595453,
			"-0.003": 7.74225252381,
			"-0.002": 8.42761083222,
			"-0.001": 9.76790216534,
			"0.0": 11.2023201852,
			"0.001": 15.2363602026,
			"0.002": 20.8006011381,
			"0.003": 25.1122541415,
			"0.004": 18.3763802964,
			"0.005": 11.8333754874,
			"0.006": 3.37856609725,
			"0.007": 1.63801867563,
			"0.008": 1.50040409937,
			"0.009": 1.91214179644,
			"0.01": 1.89035620657,
			"0.011": 2.3515945674,
			"0.012": 3.57471357191,
			"0.013": 2.42294267187,
			"0.014": 1.06100778719,
			"0.015": 0.0346627099165,
			"0.016": 0.0,
			"0.017": 0.0,
			"0.018": 0.0,
			"0.019": 0.0,
			"0.02": 0.0,
			"0.021": 0.0,
			"0.022": 0.0,
			"0.023": 0.0,
			"0.024": 0.0,
			"0.025": 0.0
		}
	}
}
