{
	 "smiles": "COC(=O)C1=C(C)C=C(C)C(=C1)[N+]([O-])=O", 
	 "Tm": 331.15, 
	 "num_atms": 26, 
	 "gaussian": { 
		 "optdone": 1, 
		 "sigma_profile": "yes", 
		 "theory": "DFT", 
		 "functional": "B3LYP", 
		 "basiset": "6-31G**", 
		 "properties": { 
			 "R2extent": 3895.7077, 
			 "electric_dipole_moment_norm": 3.00109321915, 
			 "electric_quadrupole_moment_norm": 20.4949760622, 
			 "total_energy": -743.261743683, 
			 "HOMO_LUMO_gap": 0.18458, 
			 "cosmo_polarized_energy": -10.05, 
			 "cosmo_cavitation_energy": 30.34, 
			 "cosmo_dispersion_energy": -22.06, 
			 "cosmo_repulsion_energy": 1.72, 
			 "cosmo_total_nonelectrostatic_energy": 9.99, 
			 "SMD_solvation_energy": 8.84 
		},
		"coords": [
			{
				"x": 3.1579097886,
				"y": -2.6774047809,
				"z": 0.3389470476,
				"element": "C" 
			},
			{
				"x": 2.3846608083,
				"y": -1.489961823,
				"z": 0.1048587898,
				"element": "O" 
			},
			{
				"x": 1.2350714525,
				"y": -1.399425035,
				"z": 0.8106549938,
				"element": "C" 
			},
			{
				"x": 0.8766489922,
				"y": -2.2609438881,
				"z": 1.5915169608,
				"element": "O" 
			},
			{
				"x": 0.4897415534,
				"y": -0.1404187768,
				"z": 0.511827484,
				"element": "C" 
			},
			{
				"x": -0.7415379031,
				"y": 0.1576081569,
				"z": 1.145836472,
				"element": "C" 
			},
			{
				"x": -1.4021368969,
				"y": -0.744242117,
				"z": 2.1570066726,
				"element": "C" 
			},
			{
				"x": -1.3713467967,
				"y": 1.360008985,
				"z": 0.8056526149,
				"element": "C" 
			},
			{
				"x": -0.8699659388,
				"y": 2.2900063602,
				"z": -0.1142364725,
				"element": "C" 
			},
			{
				"x": -1.6652729263,
				"y": 3.5434595561,
				"z": -0.3772381547,
				"element": "C" 
			},
			{
				"x": 0.3570604307,
				"y": 1.9489607609,
				"z": -0.7191139373,
				"element": "C" 
			},
			{
				"x": 1.0172637496,
				"y": 0.7625859021,
				"z": -0.412935251,
				"element": "C" 
			},
			{
				"x": 1.0159072822,
				"y": 2.8208678508,
				"z": -1.7076774133,
				"element": "N" 
			},
			{
				"x": 0.4987386885,
				"y": 3.9096535065,
				"z": -1.9635064376,
				"element": "O" 
			},
			{
				"x": 2.0553005563,
				"y": 2.4157759216,
				"z": -2.228400206,
				"element": "O" 
			},
			{
				"x": 2.5821172104,
				"y": -3.5687628168,
				"z": 0.0780202507,
				"element": "H" 
			},
			{
				"x": 3.4527691032,
				"y": -2.743321994,
				"z": 1.3891178608,
				"element": "H" 
			},
			{
				"x": 4.0348462064,
				"y": -2.5855330987,
				"z": -0.3012503174,
				"element": "H" 
			},
			{
				"x": -1.6083481553,
				"y": -1.7310713928,
				"z": 1.734438134,
				"element": "H" 
			},
			{
				"x": -2.339035249,
				"y": -0.3015701428,
				"z": 2.5045829915,
				"element": "H" 
			},
			{
				"x": -0.750457418,
				"y": -0.9220650935,
				"z": 3.0164093202,
				"element": "H" 
			},
			{
				"x": -2.3168227422,
				"y": 1.5919297363,
				"z": 1.2877562593,
				"element": "H" 
			},
			{
				"x": -2.5872764288,
				"y": 3.5242968211,
				"z": 0.2091846816,
				"element": "H" 
			},
			{
				"x": -1.0958604885,
				"y": 4.4392542599,
				"z": -0.117362264,
				"element": "H" 
			},
			{
				"x": -1.9175864856,
				"y": 3.6442887285,
				"z": -1.4356269113,
				"element": "H" 
			},
			{
				"x": 1.9539116067,
				"y": 0.5505244136,
				"z": -0.9079631683,
				"element": "H" 
			}
		],
		 "valence_orbital": [ 
			{
				"type": "occ",
				"energy": -0.30602,
				"method": "rhf"
			},
			{
				"type": "occ",
				"energy": -0.28741,
				"method": "rhf"
			},
			{
				"type": "occ",
				"energy": -0.28038,
				"method": "rhf"
			},
			{
				"type": "occ",
				"energy": -0.27451,
				"method": "rhf"
			},
			{
				"type": "occ",
				"energy": -0.27167,
				"method": "rhf"
			},
			{
				"type": "unocc",
				"energy": -0.08709,
				"method": "rhf"
			},
			{
				"type": "unocc",
				"energy": -0.05851,
				"method": "rhf"
			},
			{
				"type": "unocc",
				"energy": -0.00454,
				"method": "rhf"
			},
			{
				"type": "unocc",
				"energy": 0.04535,
				"method": "rhf"
			},
			{
				"type": "unocc",
				"energy": 0.08981,
				"method": "rhf"
			}
		],
		"cosmo_sigma_profile": { 
			"-0.025": 0.0,
			"-0.024": 0.0,
			"-0.023": 0.0,
			"-0.022": 0.0,
			"-0.021": 0.0,
			"-0.02": 0.0,
			"-0.019": 0.0,
			"-0.018": 0.0,
			"-0.017": 0.0,
			"-0.016": 0.0,
			"-0.015": 0.0,
			"-0.014": 0.0,
			"-0.013": 0.0,
			"-0.012": 0.0,
			"-0.011": 0.0,
			"-0.01": 0.0,
			"-0.009": 0.0,
			"-0.008": 0.0,
			"-0.007": 3.40305735408,
			"-0.006": 11.00128802,
			"-0.005": 15.4878170486,
			"-0.004": 22.3919074121,
			"-0.003": 25.7782116492,
			"-0.002": 26.8344125591,
			"-0.001": 29.875516511,
			"0.0": 26.8396913427,
			"0.001": 15.0115726643,
			"0.002": 9.36819177377,
			"0.003": 5.72660841764,
			"0.004": 6.5192928306,
			"0.005": 5.83849489705,
			"0.006": 5.30973915114,
			"0.007": 6.84938408589,
			"0.008": 8.63990864327,
			"0.009": 6.31812172013,
			"0.01": 4.86767463501,
			"0.011": 2.87373736782,
			"0.012": 2.11816948666,
			"0.013": 0.0452309320472,
			"0.014": 0.0,
			"0.015": 0.0,
			"0.016": 0.0,
			"0.017": 0.0,
			"0.018": 0.0,
			"0.019": 0.0,
			"0.02": 0.0,
			"0.021": 0.0,
			"0.022": 0.0,
			"0.023": 0.0,
			"0.024": 0.0,
			"0.025": 0.0
		}
	}
}
