{
	 "smiles": "NC(=O)C1=C(F)C(Cl)=CC=C1", 
	 "Tm": 398.65, 
	 "num_atms": 16, 
	 "gaussian": { 
		 "optdone": 1, 
		 "sigma_profile": "yes", 
		 "theory": "DFT", 
		 "functional": "B3LYP", 
		 "basiset": "6-31G**", 
		 "properties": { 
			 "R2extent": 2281.9521, 
			 "electric_dipole_moment_norm": 1.21398114071, 
			 "electric_quadrupole_moment_norm": 16.1816688815, 
			 "total_energy": -959.777296798, 
			 "HOMO_LUMO_gap": 0.20603, 
			 "cosmo_polarized_energy": -10.26, 
			 "cosmo_cavitation_energy": 22.6, 
			 "cosmo_dispersion_energy": -17.16, 
			 "cosmo_repulsion_energy": 1.36, 
			 "cosmo_total_nonelectrostatic_energy": 6.8, 
			 "SMD_solvation_energy": 4.74 
		},
		"coords": [
			{
				"x": -1.2457023716,
				"y": -1.1512821921,
				"z": 2.0019568272,
				"element": "N" 
			},
			{
				"x": -1.3289424286,
				"y": -0.8609881551,
				"z": 0.6758680275,
				"element": "C" 
			},
			{
				"x": -2.33938093,
				"y": -1.088607619,
				"z": 0.0200447861,
				"element": "O" 
			},
			{
				"x": -0.1183695852,
				"y": -0.2355717784,
				"z": 0.0134738009,
				"element": "C" 
			},
			{
				"x": 1.0946663276,
				"y": 0.0799013307,
				"z": 0.6334254621,
				"element": "C" 
			},
			{
				"x": 1.2824617872,
				"y": -0.1675797358,
				"z": 1.9520269588,
				"element": "F" 
			},
			{
				"x": 2.1522909503,
				"y": 0.6568417857,
				"z": -0.0719754539,
				"element": "C" 
			},
			{
				"x": 3.6426029972,
				"y": 1.0272541494,
				"z": 0.7602445992,
				"element": "Cl" 
			},
			{
				"x": 2.0093889365,
				"y": 0.9311879171,
				"z": -1.4305354901,
				"element": "C" 
			},
			{
				"x": 0.8067975857,
				"y": 0.6242590155,
				"z": -2.0689382503,
				"element": "C" 
			},
			{
				"x": -0.2387308251,
				"y": 0.0497197307,
				"z": -1.3542218704,
				"element": "C" 
			},
			{
				"x": -0.4213485843,
				"y": -0.968042163,
				"z": 2.5483041651,
				"element": "H" 
			},
			{
				"x": -2.0590892143,
				"y": -1.5668259122,
				"z": 2.4286882761,
				"element": "H" 
			},
			{
				"x": 2.8363438798,
				"y": 1.3793920072,
				"z": -1.9702593196,
				"element": "H" 
			},
			{
				"x": 0.691901424,
				"y": 0.8365196943,
				"z": -3.126907887,
				"element": "H" 
			},
			{
				"x": -1.1838899493,
				"y": -0.1993780748,
				"z": -1.8233946316,
				"element": "H" 
			}
		],
		 "valence_orbital": [ 
			{
				"type": "occ",
				"energy": -0.32697,
				"method": "rhf"
			},
			{
				"type": "occ",
				"energy": -0.27452,
				"method": "rhf"
			},
			{
				"type": "occ",
				"energy": -0.27081,
				"method": "rhf"
			},
			{
				"type": "occ",
				"energy": -0.26202,
				"method": "rhf"
			},
			{
				"type": "occ",
				"energy": -0.25832,
				"method": "rhf"
			},
			{
				"type": "unocc",
				"energy": -0.05229,
				"method": "rhf"
			},
			{
				"type": "unocc",
				"energy": -0.0219,
				"method": "rhf"
			},
			{
				"type": "unocc",
				"energy": 0.01118,
				"method": "rhf"
			},
			{
				"type": "unocc",
				"energy": 0.05308,
				"method": "rhf"
			},
			{
				"type": "unocc",
				"energy": 0.09349,
				"method": "rhf"
			}
		],
		"cosmo_sigma_profile": { 
			"-0.025": 0.0,
			"-0.024": 0.0,
			"-0.023": 0.0,
			"-0.022": 0.0,
			"-0.021": 0.0,
			"-0.02": 0.0,
			"-0.019": 0.0,
			"-0.018": 0.0,
			"-0.017": 0.0,
			"-0.016": 0.0,
			"-0.015": 0.095235130146,
			"-0.014": 1.04303071763,
			"-0.013": 1.51148167647,
			"-0.012": 1.74454377866,
			"-0.011": 1.72578477025,
			"-0.01": 2.47378134082,
			"-0.009": 1.47809554489,
			"-0.008": 4.16427388128,
			"-0.007": 5.67949931608,
			"-0.006": 7.7780608036,
			"-0.005": 6.29083107091,
			"-0.004": 8.13123210281,
			"-0.003": 9.46417224525,
			"-0.002": 13.8575370165,
			"-0.001": 14.2526371949,
			"0.0": 17.4256140213,
			"0.001": 19.3514628729,
			"0.002": 18.4243635974,
			"0.003": 15.1030976018,
			"0.004": 13.0699299535,
			"0.005": 2.70797812234,
			"0.006": 1.47839242753,
			"0.007": 1.74976781874,
			"0.008": 1.43115035519,
			"0.009": 0.790759969885,
			"0.01": 1.41599212847,
			"0.011": 1.88354306165,
			"0.012": 1.86247843834,
			"0.013": 5.16486741969,
			"0.014": 2.4876891436,
			"0.015": 0.036099781527,
			"0.016": 0.0,
			"0.017": 0.0,
			"0.018": 0.0,
			"0.019": 0.0,
			"0.02": 0.0,
			"0.021": 0.0,
			"0.022": 0.0,
			"0.023": 0.0,
			"0.024": 0.0,
			"0.025": 0.0
		}
	}
}
