{
	 "smiles": "CC(C)(C)N1C(N)=NC2=C1C=CC=C2", 
	 "Tm": 432.15, 
	 "num_atms": 29, 
	 "gaussian": { 
		 "optdone": 1, 
		 "sigma_profile": "yes", 
		 "theory": "DFT", 
		 "functional": "B3LYP", 
		 "basiset": "6-31G**", 
		 "properties": { 
			 "R2extent": 3008.157, 
			 "electric_dipole_moment_norm": 4.06548882547, 
			 "electric_quadrupole_moment_norm": 10.8594400984, 
			 "total_energy": -592.4865493, 
			 "HOMO_LUMO_gap": 0.19884, 
			 "cosmo_polarized_energy": -13.22, 
			 "cosmo_cavitation_energy": 29.58, 
			 "cosmo_dispersion_energy": -21.75, 
			 "cosmo_repulsion_energy": 1.67, 
			 "cosmo_total_nonelectrostatic_energy": 9.5, 
			 "SMD_solvation_energy": 3.26 
		},
		"coords": [
			{
				"x": 1.5705558249,
				"y": 0.4498308029,
				"z": -1.3878844915,
				"element": "C" 
			},
			{
				"x": 0.95931148,
				"y": 1.6719121327,
				"z": -0.6697080183,
				"element": "C" 
			},
			{
				"x": 2.1114628466,
				"y": 2.6340511344,
				"z": -0.3317815334,
				"element": "C" 
			},
			{
				"x": -0.0257228708,
				"y": 2.4364022005,
				"z": -1.5796611924,
				"element": "C" 
			},
			{
				"x": 0.2264151484,
				"y": 1.1946797906,
				"z": 0.546021365,
				"element": "N" 
			},
			{
				"x": 0.459879699,
				"y": 1.4004003014,
				"z": 1.9069631083,
				"element": "C" 
			},
			{
				"x": 1.499075138,
				"y": 2.1624422032,
				"z": 2.4305113575,
				"element": "N" 
			},
			{
				"x": -0.3467720237,
				"y": 0.7374512618,
				"z": 2.7009985539,
				"element": "N" 
			},
			{
				"x": -1.1767100287,
				"y": 0.0242019201,
				"z": 1.8582781148,
				"element": "C" 
			},
			{
				"x": -0.8552327045,
				"y": 0.2902330253,
				"z": 0.5058382966,
				"element": "C" 
			},
			{
				"x": -1.5704104459,
				"y": -0.3179030176,
				"z": -0.5317119661,
				"element": "C" 
			},
			{
				"x": -2.6070177123,
				"y": -1.1879343042,
				"z": -0.1864075457,
				"element": "C" 
			},
			{
				"x": -2.9308743911,
				"y": -1.4494629423,
				"z": 1.1540903303,
				"element": "C" 
			},
			{
				"x": -2.21924102,
				"y": -0.847158391,
				"z": 2.188050794,
				"element": "C" 
			},
			{
				"x": 2.3102692428,
				"y": -0.0338886147,
				"z": -0.7429814055,
				"element": "H" 
			},
			{
				"x": 2.0723420092,
				"y": 0.7701542477,
				"z": -2.3064103638,
				"element": "H" 
			},
			{
				"x": 0.8200151552,
				"y": -0.2952792959,
				"z": -1.653508944,
				"element": "H" 
			},
			{
				"x": 1.747113512,
				"y": 3.5795277995,
				"z": 0.0847663233,
				"element": "H" 
			},
			{
				"x": 2.6241279817,
				"y": 2.8804859263,
				"z": -1.2656664976,
				"element": "H" 
			},
			{
				"x": 2.837412449,
				"y": 2.1916214989,
				"z": 0.3510694209,
				"element": "H" 
			},
			{
				"x": 0.4973445854,
				"y": 2.7904534453,
				"z": -2.4736112428,
				"element": "H" 
			},
			{
				"x": -0.867505809,
				"y": 1.8243767602,
				"z": -1.9028509609,
				"element": "H" 
			},
			{
				"x": -0.4291274005,
				"y": 3.3062714479,
				"z": -1.0521697324,
				"element": "H" 
			},
			{
				"x": 1.5900371588,
				"y": 3.0964089501,
				"z": 2.0548834296,
				"element": "H" 
			},
			{
				"x": 1.3903872722,
				"y": 2.1838472909,
				"z": 3.4382106578,
				"element": "H" 
			},
			{
				"x": -1.3480041123,
				"y": -0.1466011993,
				"z": -1.5774972354,
				"element": "H" 
			},
			{
				"x": -3.1708937992,
				"y": -1.6715363487,
				"z": -0.9787048131,
				"element": "H" 
			},
			{
				"x": -3.7447233695,
				"y": -2.1309262644,
				"z": 1.3842656636,
				"element": "H" 
			},
			{
				"x": -2.4523138158,
				"y": -1.0382617617,
				"z": 3.2307085275,
				"element": "H" 
			}
		],
		 "valence_orbital": [ 
			{
				"type": "occ",
				"energy": -0.2879,
				"method": "rhf"
			},
			{
				"type": "occ",
				"energy": -0.27794,
				"method": "rhf"
			},
			{
				"type": "occ",
				"energy": -0.26036,
				"method": "rhf"
			},
			{
				"type": "occ",
				"energy": -0.21294,
				"method": "rhf"
			},
			{
				"type": "occ",
				"energy": -0.19545,
				"method": "rhf"
			},
			{
				"type": "unocc",
				"energy": 0.00339,
				"method": "rhf"
			},
			{
				"type": "unocc",
				"energy": 0.03119,
				"method": "rhf"
			},
			{
				"type": "unocc",
				"energy": 0.06183,
				"method": "rhf"
			},
			{
				"type": "unocc",
				"energy": 0.07457,
				"method": "rhf"
			},
			{
				"type": "unocc",
				"energy": 0.09067,
				"method": "rhf"
			}
		],
		"cosmo_sigma_profile": { 
			"-0.025": 0.0,
			"-0.024": 0.0,
			"-0.023": 0.0,
			"-0.022": 0.0,
			"-0.021": 0.0,
			"-0.02": 0.0,
			"-0.019": 0.0,
			"-0.018": 0.0,
			"-0.017": 0.0,
			"-0.016": 0.0,
			"-0.015": 0.0,
			"-0.014": 0.0,
			"-0.013": 0.950025522371,
			"-0.012": 2.4490805786,
			"-0.011": 2.34405618808,
			"-0.01": 2.97799118689,
			"-0.009": 2.71424953014,
			"-0.008": 2.31837269855,
			"-0.007": 2.61291152654,
			"-0.006": 5.17805402075,
			"-0.005": 10.6687927908,
			"-0.004": 20.070949504,
			"-0.003": 22.4630145506,
			"-0.002": 23.3487430755,
			"-0.001": 21.242836464,
			"0.0": 25.7479186693,
			"0.001": 13.8870990337,
			"0.002": 9.67477871522,
			"0.003": 8.3877326839,
			"0.004": 9.52222919926,
			"0.005": 11.7783760261,
			"0.006": 10.7188999281,
			"0.007": 8.65965307112,
			"0.008": 2.5744633958,
			"0.009": 1.9169909272,
			"0.01": 1.57535496035,
			"0.011": 2.48146602431,
			"0.012": 1.50187062801,
			"0.013": 1.23280988459,
			"0.014": 0.646572749649,
			"0.015": 1.19969914769,
			"0.016": 1.0151257065,
			"0.017": 0.864440498168,
			"0.018": 0.204202906159,
			"0.019": 0.0,
			"0.02": 0.0,
			"0.021": 0.0,
			"0.022": 0.0,
			"0.023": 0.0,
			"0.024": 0.0,
			"0.025": 0.0
		}
	}
}
