{
	 "smiles": "CC(C)C1(C)CC(=O)NC1=O", 
	 "Tm": 352.15, 
	 "num_atms": 24, 
	 "gaussian": { 
		 "optdone": 1, 
		 "sigma_profile": "yes", 
		 "theory": "DFT", 
		 "functional": "B3LYP", 
		 "basiset": "6-31G**", 
		 "properties": { 
			 "R2extent": 2098.7576, 
			 "electric_dipole_moment_norm": 2.06772751106, 
			 "electric_quadrupole_moment_norm": 11.7056246036, 
			 "total_energy": -517.929939475, 
			 "HOMO_LUMO_gap": 0.23274, 
			 "cosmo_polarized_energy": -12.19, 
			 "cosmo_cavitation_energy": 25.47, 
			 "cosmo_dispersion_energy": -18.37, 
			 "cosmo_repulsion_energy": 1.47, 
			 "cosmo_total_nonelectrostatic_energy": 8.56, 
			 "SMD_solvation_energy": 5.82 
		},
		"coords": [
			{
				"x": -2.0731204499,
				"y": -1.1444105061,
				"z": 1.0355947574,
				"element": "C" 
			},
			{
				"x": -0.6046749135,
				"y": -0.6856288521,
				"z": 0.9760739958,
				"element": "C" 
			},
			{
				"x": -0.4491395096,
				"y": 0.6425902811,
				"z": 1.7357682805,
				"element": "C" 
			},
			{
				"x": -0.0552265923,
				"y": -0.6555764046,
				"z": -0.490169075,
				"element": "C" 
			},
			{
				"x": -0.7103096322,
				"y": 0.4452713086,
				"z": -1.3540559357,
				"element": "C" 
			},
			{
				"x": -0.1686107163,
				"y": -2.0437433584,
				"z": -1.1788092392,
				"element": "C" 
			},
			{
				"x": 1.204391804,
				"y": -2.3613229747,
				"z": -1.7558922634,
				"element": "C" 
			},
			{
				"x": 1.5217466617,
				"y": -3.2800360144,
				"z": -2.4788637718,
				"element": "O" 
			},
			{
				"x": 2.0709795247,
				"y": -1.3899399268,
				"z": -1.2647692826,
				"element": "N" 
			},
			{
				"x": 1.4682809934,
				"y": -0.385506664,
				"z": -0.5142347752,
				"element": "C" 
			},
			{
				"x": 2.0730845498,
				"y": 0.5474564379,
				"z": -0.0260064076,
				"element": "O" 
			},
			{
				"x": -2.7413082088,
				"y": -0.4120729082,
				"z": 0.5700087467,
				"element": "H" 
			},
			{
				"x": -2.2403948347,
				"y": -2.1093620817,
				"z": 0.5477193041,
				"element": "H" 
			},
			{
				"x": -2.3856131437,
				"y": -1.2471975087,
				"z": 2.0796566675,
				"element": "H" 
			},
			{
				"x": -0.0041070965,
				"y": -1.4417102857,
				"z": 1.5039378072,
				"element": "H" 
			},
			{
				"x": -1.1004912209,
				"y": 1.4175981178,
				"z": 1.3167620634,
				"element": "H" 
			},
			{
				"x": 0.5769744382,
				"y": 1.010027699,
				"z": 1.7073473378,
				"element": "H" 
			},
			{
				"x": -0.7440874357,
				"y": 0.503479401,
				"z": 2.7812920174,
				"element": "H" 
			},
			{
				"x": -0.3390928667,
				"y": 0.4003000817,
				"z": -2.3835166904,
				"element": "H" 
			},
			{
				"x": -0.4838111554,
				"y": 1.4387080961,
				"z": -0.9611169095,
				"element": "H" 
			},
			{
				"x": -1.7961255925,
				"y": 0.3193396446,
				"z": -1.3874780362,
				"element": "H" 
			},
			{
				"x": -0.9206779038,
				"y": -2.0863717649,
				"z": -1.9708909586,
				"element": "H" 
			},
			{
				"x": -0.4088926146,
				"y": -2.8416806564,
				"z": -0.4679343085,
				"element": "H" 
			},
			{
				"x": 3.0617259154,
				"y": -1.384311161,
				"z": -1.4742233242,
				"element": "H" 
			}
		],
		 "valence_orbital": [ 
			{
				"type": "occ",
				"energy": -0.33755,
				"method": "rhf"
			},
			{
				"type": "occ",
				"energy": -0.32545,
				"method": "rhf"
			},
			{
				"type": "occ",
				"energy": -0.29234,
				"method": "rhf"
			},
			{
				"type": "occ",
				"energy": -0.2817,
				"method": "rhf"
			},
			{
				"type": "occ",
				"energy": -0.25485,
				"method": "rhf"
			},
			{
				"type": "unocc",
				"energy": -0.02211,
				"method": "rhf"
			},
			{
				"type": "unocc",
				"energy": 0.02644,
				"method": "rhf"
			},
			{
				"type": "unocc",
				"energy": 0.06979,
				"method": "rhf"
			},
			{
				"type": "unocc",
				"energy": 0.09353,
				"method": "rhf"
			},
			{
				"type": "unocc",
				"energy": 0.1093,
				"method": "rhf"
			}
		],
		"cosmo_sigma_profile": { 
			"-0.025": 0.0,
			"-0.024": 0.0,
			"-0.023": 0.0,
			"-0.022": 0.0,
			"-0.021": 0.0,
			"-0.02": 0.0,
			"-0.019": 0.0,
			"-0.018": 0.0,
			"-0.017": 0.0937935551945,
			"-0.016": 1.05593732916,
			"-0.015": 1.23969251808,
			"-0.014": 0.816764174305,
			"-0.013": 1.05277043081,
			"-0.012": 0.383592882984,
			"-0.011": 0.848578691033,
			"-0.01": 1.21531399134,
			"-0.009": 0.305074722359,
			"-0.008": 1.4685052049,
			"-0.007": 5.04974204981,
			"-0.006": 8.52809681304,
			"-0.005": 9.3853780235,
			"-0.004": 13.0683915087,
			"-0.003": 22.5535944075,
			"-0.002": 23.3412591883,
			"-0.001": 20.0037474619,
			"0.0": 17.7190917226,
			"0.001": 17.5054158086,
			"0.002": 8.97404885827,
			"0.003": 3.58923984194,
			"0.004": 2.7487972126,
			"0.005": 2.85134249302,
			"0.006": 3.24264137508,
			"0.007": 3.11730731679,
			"0.008": 2.48866673483,
			"0.009": 2.94959379783,
			"0.01": 3.96534758582,
			"0.011": 6.12791155685,
			"0.012": 9.60271506713,
			"0.013": 2.936497256,
			"0.014": 0.0748514836512,
			"0.015": 0.0,
			"0.016": 0.0,
			"0.017": 0.0,
			"0.018": 0.0,
			"0.019": 0.0,
			"0.02": 0.0,
			"0.021": 0.0,
			"0.022": 0.0,
			"0.023": 0.0,
			"0.024": 0.0,
			"0.025": 0.0
		}
	}
}
