{
	 "smiles": "OC(=O)C1CC1C1=C2C=CC=CC2=CC=C1", 
	 "Tm": 390.15, 
	 "num_atms": 28, 
	 "gaussian": { 
		 "optdone": 1, 
		 "sigma_profile": "yes", 
		 "theory": "DFT", 
		 "functional": "B3LYP", 
		 "basiset": "6-31G**", 
		 "properties": { 
			 "R2extent": 5128.6562, 
			 "electric_dipole_moment_norm": 2.08101075682, 
			 "electric_quadrupole_moment_norm": 12.997005459, 
			 "total_energy": -691.171342785, 
			 "HOMO_LUMO_gap": 0.17384, 
			 "cosmo_polarized_energy": -11.16, 
			 "cosmo_cavitation_energy": 31.68, 
			 "cosmo_dispersion_energy": -22.82, 
			 "cosmo_repulsion_energy": 1.76, 
			 "cosmo_total_nonelectrostatic_energy": 10.62, 
			 "SMD_solvation_energy": 5.96 
		},
		"coords": [
			{
				"x": -1.2336374768,
				"y": -0.9453905871,
				"z": 5.2479675279,
				"element": "O" 
			},
			{
				"x": -2.185083111,
				"y": -0.5298818546,
				"z": 4.3675202667,
				"element": "C" 
			},
			{
				"x": -3.2565291692,
				"y": -0.0951164409,
				"z": 4.7339148646,
				"element": "O" 
			},
			{
				"x": -1.7641075069,
				"y": -0.6671051857,
				"z": 2.9512868428,
				"element": "C" 
			},
			{
				"x": -0.8605167466,
				"y": -1.8074357441,
				"z": 2.5117115482,
				"element": "C" 
			},
			{
				"x": -0.3184804223,
				"y": -0.4067845567,
				"z": 2.5474211306,
				"element": "C" 
			},
			{
				"x": 0.0026494026,
				"y": 0.3515824006,
				"z": 1.2934690824,
				"element": "C" 
			},
			{
				"x": 1.2137887323,
				"y": 0.0588341767,
				"z": 0.5802580329,
				"element": "C" 
			},
			{
				"x": 2.1248890414,
				"y": -0.9499995999,
				"z": 0.998259607,
				"element": "C" 
			},
			{
				"x": 3.2815724156,
				"y": -1.2017490494,
				"z": 0.2928913961,
				"element": "C" 
			},
			{
				"x": 3.5879706238,
				"y": -0.4592171034,
				"z": -0.8716367237,
				"element": "C" 
			},
			{
				"x": 2.7270694969,
				"y": 0.5228188012,
				"z": -1.3062681145,
				"element": "C" 
			},
			{
				"x": 1.5275448819,
				"y": 0.8102045651,
				"z": -0.6010543643,
				"element": "C" 
			},
			{
				"x": 0.6348446404,
				"y": 1.8254460114,
				"z": -1.0393522312,
				"element": "C" 
			},
			{
				"x": -0.515466652,
				"y": 2.0926168475,
				"z": -0.3371498052,
				"element": "C" 
			},
			{
				"x": -0.824772316,
				"y": 1.3561490219,
				"z": 0.831512548,
				"element": "C" 
			},
			{
				"x": -1.612801953,
				"y": -0.8027479455,
				"z": 6.1307013576,
				"element": "H" 
			},
			{
				"x": -2.5425729156,
				"y": -0.361311659,
				"z": 2.2624821499,
				"element": "H" 
			},
			{
				"x": -0.5311202498,
				"y": -2.5055922006,
				"z": 3.2736723882,
				"element": "H" 
			},
			{
				"x": -1.0822383533,
				"y": -2.2440489173,
				"z": 1.5430415454,
				"element": "H" 
			},
			{
				"x": 0.344859007,
				"y": -0.2059949176,
				"z": 3.386669601,
				"element": "H" 
			},
			{
				"x": 1.8992011614,
				"y": -1.5308898835,
				"z": 1.885869608,
				"element": "H" 
			},
			{
				"x": 3.9633738008,
				"y": -1.9769628,
				"z": 0.6308927302,
				"element": "H" 
			},
			{
				"x": 4.5021209714,
				"y": -0.6673189112,
				"z": -1.4200546803,
				"element": "H" 
			},
			{
				"x": 2.9542293423,
				"y": 1.0980696777,
				"z": -2.2003144466,
				"element": "H" 
			},
			{
				"x": 0.8803542764,
				"y": 2.3875893991,
				"z": -1.9366542747,
				"element": "H" 
			},
			{
				"x": -1.1935359865,
				"y": 2.8729236717,
				"z": -0.6702134915,
				"element": "H" 
			},
			{
				"x": -1.730604935,
				"y": 1.5953127834,
				"z": 1.3803559043,
				"element": "H" 
			}
		],
		 "valence_orbital": [ 
			{
				"type": "occ",
				"energy": -0.30003,
				"method": "rhf"
			},
			{
				"type": "occ",
				"energy": -0.28023,
				"method": "rhf"
			},
			{
				"type": "occ",
				"energy": -0.26568,
				"method": "rhf"
			},
			{
				"type": "occ",
				"energy": -0.24429,
				"method": "rhf"
			},
			{
				"type": "occ",
				"energy": -0.21515,
				"method": "rhf"
			},
			{
				"type": "unocc",
				"energy": -0.04131,
				"method": "rhf"
			},
			{
				"type": "unocc",
				"energy": -0.01052,
				"method": "rhf"
			},
			{
				"type": "unocc",
				"energy": 0.00659,
				"method": "rhf"
			},
			{
				"type": "unocc",
				"energy": 0.03004,
				"method": "rhf"
			},
			{
				"type": "unocc",
				"energy": 0.07474,
				"method": "rhf"
			}
		],
		"cosmo_sigma_profile": { 
			"-0.025": 0.0,
			"-0.024": 0.0,
			"-0.023": 0.0,
			"-0.022": 0.0,
			"-0.021": 0.0,
			"-0.02": 0.0,
			"-0.019": 0.0414770979698,
			"-0.018": 0.853212158352,
			"-0.017": 0.628821854021,
			"-0.016": 0.793603886145,
			"-0.015": 1.12311891703,
			"-0.014": 0.303846829154,
			"-0.013": 0.533574784008,
			"-0.012": 0.6335396174,
			"-0.011": 1.091932548,
			"-0.01": 0.583894374401,
			"-0.009": 0.306310795333,
			"-0.008": 0.556004298669,
			"-0.007": 1.49593929413,
			"-0.006": 13.3866878019,
			"-0.005": 19.5854947441,
			"-0.004": 22.7686344427,
			"-0.003": 21.3987079981,
			"-0.002": 19.8939600364,
			"-0.001": 18.94881904,
			"0.0": 15.9768623589,
			"0.001": 14.5053424661,
			"0.002": 15.9177418633,
			"0.003": 15.6456004197,
			"0.004": 22.5716567265,
			"0.005": 19.3403775019,
			"0.006": 5.420143614,
			"0.007": 2.64878005646,
			"0.008": 2.27044031205,
			"0.009": 1.61477525992,
			"0.01": 1.29880714176,
			"0.011": 3.22613829398,
			"0.012": 5.52334699891,
			"0.013": 1.76874786167,
			"0.014": 0.0352196530074,
			"0.015": 0.0,
			"0.016": 0.0,
			"0.017": 0.0,
			"0.018": 0.0,
			"0.019": 0.0,
			"0.02": 0.0,
			"0.021": 0.0,
			"0.022": 0.0,
			"0.023": 0.0,
			"0.024": 0.0,
			"0.025": 0.0
		}
	}
}
