{
	 "smiles": "COC1=C(OC)C(OC)=C(CN2N=CC=C2N)C=C1", 
	 "Tm": 346.15, 
	 "num_atms": 36, 
	 "gaussian": { 
		 "optdone": 1, 
		 "sigma_profile": "yes", 
		 "theory": "DFT", 
		 "functional": "B3LYP", 
		 "basiset": "6-31G**", 
		 "properties": { 
			 "R2extent": 5932.1282, 
			 "electric_dipole_moment_norm": 4.05977035927, 
			 "electric_quadrupole_moment_norm": 16.9019097374, 
			 "total_energy": -895.485867853, 
			 "HOMO_LUMO_gap": 0.18324, 
			 "cosmo_polarized_energy": -15.89, 
			 "cosmo_cavitation_energy": 38.83, 
			 "cosmo_dispersion_energy": -26.7, 
			 "cosmo_repulsion_energy": 2.07, 
			 "cosmo_total_nonelectrostatic_energy": 14.2, 
			 "SMD_solvation_energy": 7.83 
		},
		"coords": [
			{
				"x": 1.1987589642,
				"y": -4.6333327896,
				"z": -2.4186902448,
				"element": "C" 
			},
			{
				"x": 0.1911241188,
				"y": -3.6396019297,
				"z": -2.3033241051,
				"element": "O" 
			},
			{
				"x": 0.1148486431,
				"y": -2.9374653673,
				"z": -1.1361372042,
				"element": "C" 
			},
			{
				"x": -0.9061719709,
				"y": -1.9663728999,
				"z": -1.0779648016,
				"element": "C" 
			},
			{
				"x": -1.7746484403,
				"y": -1.7946640484,
				"z": -2.1299287561,
				"element": "O" 
			},
			{
				"x": -1.2323880174,
				"y": -1.0789736516,
				"z": -3.2446813171,
				"element": "C" 
			},
			{
				"x": -1.0638968422,
				"y": -1.1967339399,
				"z": 0.0816947317,
				"element": "C" 
			},
			{
				"x": -2.022192241,
				"y": -0.1992062062,
				"z": 0.1160851333,
				"element": "O" 
			},
			{
				"x": -3.3875960094,
				"y": -0.6434413923,
				"z": 0.1349339889,
				"element": "C" 
			},
			{
				"x": -0.224489783,
				"y": -1.375446501,
				"z": 1.1946642772,
				"element": "C" 
			},
			{
				"x": -0.3772268189,
				"y": -0.5314960846,
				"z": 2.4462982795,
				"element": "C" 
			},
			{
				"x": 0.5318881811,
				"y": 0.6045130992,
				"z": 2.5039334032,
				"element": "N" 
			},
			{
				"x": 1.796179329,
				"y": 0.4302186655,
				"z": 2.9968315066,
				"element": "N" 
			},
			{
				"x": 2.3677344899,
				"y": 1.6208259559,
				"z": 2.8498013457,
				"element": "C" 
			},
			{
				"x": 1.5079438538,
				"y": 2.566051195,
				"z": 2.2485703014,
				"element": "C" 
			},
			{
				"x": 0.3269824545,
				"y": 1.8669512708,
				"z": 2.0287941922,
				"element": "C" 
			},
			{
				"x": -0.9095996741,
				"y": 2.2663914547,
				"z": 1.5273591055,
				"element": "N" 
			},
			{
				"x": 0.7897092119,
				"y": -2.3300724593,
				"z": 1.1044288825,
				"element": "C" 
			},
			{
				"x": 0.9646834004,
				"y": -3.1101821115,
				"z": -0.0390334595,
				"element": "C" 
			},
			{
				"x": 1.0768428957,
				"y": -5.0699852295,
				"z": -3.4110119965,
				"element": "H" 
			},
			{
				"x": 2.2046803623,
				"y": -4.2029597239,
				"z": -2.333396363,
				"element": "H" 
			},
			{
				"x": 1.0788570814,
				"y": -5.4183703327,
				"z": -1.6615906062,
				"element": "H" 
			},
			{
				"x": -2.0368254262,
				"y": -1.0019732817,
				"z": -3.9792153152,
				"element": "H" 
			},
			{
				"x": -0.9145199841,
				"y": -0.0725986667,
				"z": -2.9461914926,
				"element": "H" 
			},
			{
				"x": -0.3878013986,
				"y": -1.6179919844,
				"z": -3.6851638768,
				"element": "H" 
			},
			{
				"x": -3.999994166,
				"y": 0.2581093733,
				"z": 0.2005808959,
				"element": "H" 
			},
			{
				"x": -3.6271564931,
				"y": -1.1928338807,
				"z": -0.7781775443,
				"element": "H" 
			},
			{
				"x": -3.5765118167,
				"y": -1.2748303716,
				"z": 1.0115473212,
				"element": "H" 
			},
			{
				"x": -0.1599705232,
				"y": -1.136244714,
				"z": 3.3294218069,
				"element": "H" 
			},
			{
				"x": -1.3958073837,
				"y": -0.1474345585,
				"z": 2.5330185612,
				"element": "H" 
			},
			{
				"x": 3.3876084937,
				"y": 1.7663474964,
				"z": 3.183132975,
				"element": "H" 
			},
			{
				"x": 1.7056230212,
				"y": 3.6006760725,
				"z": 2.0098425845,
				"element": "H" 
			},
			{
				"x": -1.3512811078,
				"y": 1.5845139232,
				"z": 0.9143541649,
				"element": "H" 
			},
			{
				"x": -0.8661561471,
				"y": 3.1773040002,
				"z": 1.0907903781,
				"element": "H" 
			},
			{
				"x": 1.4635723975,
				"y": -2.4567853818,
				"z": 1.9461906499,
				"element": "H" 
			},
			{
				"x": 1.7601973456,
				"y": -3.844805,
				"z": -0.0668674022,
				"element": "H" 
			}
		],
		 "valence_orbital": [ 
			{
				"type": "occ",
				"energy": -0.26223,
				"method": "rhf"
			},
			{
				"type": "occ",
				"energy": -0.23664,
				"method": "rhf"
			},
			{
				"type": "occ",
				"energy": -0.22591,
				"method": "rhf"
			},
			{
				"type": "occ",
				"energy": -0.21625,
				"method": "rhf"
			},
			{
				"type": "occ",
				"energy": -0.18605,
				"method": "rhf"
			},
			{
				"type": "unocc",
				"energy": -0.00281,
				"method": "rhf"
			},
			{
				"type": "unocc",
				"energy": 0.00398,
				"method": "rhf"
			},
			{
				"type": "unocc",
				"energy": 0.05451,
				"method": "rhf"
			},
			{
				"type": "unocc",
				"energy": 0.06727,
				"method": "rhf"
			},
			{
				"type": "unocc",
				"energy": 0.09276,
				"method": "rhf"
			}
		],
		"cosmo_sigma_profile": { 
			"-0.025": 0.0,
			"-0.024": 0.0,
			"-0.023": 0.0,
			"-0.022": 0.0,
			"-0.021": 0.0,
			"-0.02": 0.0,
			"-0.019": 0.0,
			"-0.018": 0.0,
			"-0.017": 0.0,
			"-0.016": 0.0,
			"-0.015": 0.0,
			"-0.014": 0.0,
			"-0.013": 0.503169486624,
			"-0.012": 1.38581963429,
			"-0.011": 1.49514621717,
			"-0.01": 1.20543825274,
			"-0.009": 1.2128273789,
			"-0.008": 1.39199034585,
			"-0.007": 2.45472236817,
			"-0.006": 15.2417879262,
			"-0.005": 28.2714993095,
			"-0.004": 32.0088090377,
			"-0.003": 36.9247291518,
			"-0.002": 27.5096838573,
			"-0.001": 19.7812795894,
			"0.0": 15.7626398072,
			"0.001": 14.6645316221,
			"0.002": 15.9972993051,
			"0.003": 14.9232048817,
			"0.004": 14.7721381542,
			"0.005": 15.0571609159,
			"0.006": 10.9943397723,
			"0.007": 10.6346758132,
			"0.008": 5.95127937301,
			"0.009": 3.33908847949,
			"0.01": 4.19582804091,
			"0.011": 4.17431380774,
			"0.012": 2.9743690425,
			"0.013": 1.88822838551,
			"0.014": 0.862308702756,
			"0.015": 1.22828472505,
			"0.016": 0.858098677346,
			"0.017": 0.12960293651,
			"0.018": 0.0,
			"0.019": 0.0,
			"0.02": 0.0,
			"0.021": 0.0,
			"0.022": 0.0,
			"0.023": 0.0,
			"0.024": 0.0,
			"0.025": 0.0
		}
	}
}
