{
	 "smiles": "CN(C)N=O", 
	 "Tm": 313.15, 
	 "num_atms": 11, 
	 "gaussian": { 
		 "optdone": 1, 
		 "sigma_profile": "yes", 
		 "theory": "DFT", 
		 "functional": "B3LYP", 
		 "basiset": "6-31G**", 
		 "properties": { 
			 "R2extent": 1165.5875, 
			 "electric_dipole_moment_norm": 3.9100913621, 
			 "electric_quadrupole_moment_norm": 9.17745903124, 
			 "total_energy": -264.475862659, 
			 "HOMO_LUMO_gap": 0.19458, 
			 "cosmo_polarized_energy": -8.49, 
			 "cosmo_cavitation_energy": 14.59, 
			 "cosmo_dispersion_energy": -10.85, 
			 "cosmo_repulsion_energy": 0.97, 
			 "cosmo_total_nonelectrostatic_energy": 4.71, 
			 "SMD_solvation_energy": 3.65 
		},
		"coords": [
			{
				"x": -0.6917173422,
				"y": 2.3761890733,
				"z": -0.4501467591,
				"element": "C" 
			},
			{
				"x": -1.6439169594,
				"y": 1.6601629595,
				"z": 0.3720546141,
				"element": "N" 
			},
			{
				"x": -2.8884373955,
				"y": 2.2804700657,
				"z": 0.7925201433,
				"element": "C" 
			},
			{
				"x": -1.3015912138,
				"y": 0.404278917,
				"z": 0.7125229677,
				"element": "N" 
			},
			{
				"x": -2.1083930528,
				"y": -0.2003009211,
				"z": 1.4083663954,
				"element": "O" 
			},
			{
				"x": -1.1403128305,
				"y": 2.6665777279,
				"z": -1.4079220337,
				"element": "H" 
			},
			{
				"x": 0.1528704777,
				"y": 1.7097444918,
				"z": -0.632712718,
				"element": "H" 
			},
			{
				"x": -0.338008669,
				"y": 3.2819671286,
				"z": 0.0571521958,
				"element": "H" 
			},
			{
				"x": -3.4264151828,
				"y": 1.546965238,
				"z": 1.3935694244,
				"element": "H" 
			},
			{
				"x": -2.6870079805,
				"y": 3.1773834885,
				"z": 1.3890360586,
				"element": "H" 
			},
			{
				"x": -3.4892698513,
				"y": 2.5627618308,
				"z": -0.0793402886,
				"element": "H" 
			}
		],
		 "valence_orbital": [ 
			{
				"type": "occ",
				"energy": -0.41436,
				"method": "rhf"
			},
			{
				"type": "occ",
				"energy": -0.39824,
				"method": "rhf"
			},
			{
				"type": "occ",
				"energy": -0.37965,
				"method": "rhf"
			},
			{
				"type": "occ",
				"energy": -0.25694,
				"method": "rhf"
			},
			{
				"type": "occ",
				"energy": -0.22337,
				"method": "rhf"
			},
			{
				"type": "unocc",
				"energy": -0.02879,
				"method": "rhf"
			},
			{
				"type": "unocc",
				"energy": 0.08535,
				"method": "rhf"
			},
			{
				"type": "unocc",
				"energy": 0.12944,
				"method": "rhf"
			},
			{
				"type": "unocc",
				"energy": 0.13541,
				"method": "rhf"
			},
			{
				"type": "unocc",
				"energy": 0.14361,
				"method": "rhf"
			}
		],
		"cosmo_sigma_profile": { 
			"-0.025": 0.0,
			"-0.024": 0.0,
			"-0.023": 0.0,
			"-0.022": 0.0,
			"-0.021": 0.0,
			"-0.02": 0.0,
			"-0.019": 0.0,
			"-0.018": 0.0,
			"-0.017": 0.0,
			"-0.016": 0.0,
			"-0.015": 0.0,
			"-0.014": 0.0,
			"-0.013": 0.0,
			"-0.012": 0.0,
			"-0.011": 0.0,
			"-0.01": 0.0,
			"-0.009": 0.0,
			"-0.008": 0.0,
			"-0.007": 0.44583059585,
			"-0.006": 12.8050944595,
			"-0.005": 12.0980747498,
			"-0.004": 13.0919159633,
			"-0.003": 16.9190968658,
			"-0.002": 11.7262513916,
			"-0.001": 5.76530382787,
			"0.0": 4.40931646885,
			"0.001": 3.00376173841,
			"0.002": 2.6074225414,
			"0.003": 2.70845476268,
			"0.004": 1.95813889812,
			"0.005": 2.39037078689,
			"0.006": 2.31988240794,
			"0.007": 2.32506940311,
			"0.008": 2.97096401569,
			"0.009": 3.73947130297,
			"0.01": 6.52874425116,
			"0.011": 3.72700162116,
			"0.012": 2.09694775317,
			"0.013": 1.19805466503,
			"0.014": 0.115077003823,
			"0.015": 0.0,
			"0.016": 0.0,
			"0.017": 0.0,
			"0.018": 0.0,
			"0.019": 0.0,
			"0.02": 0.0,
			"0.021": 0.0,
			"0.022": 0.0,
			"0.023": 0.0,
			"0.024": 0.0,
			"0.025": 0.0
		}
	}
}
